/*--------------------------------*- C++ -*----------------------------------*\
| =========                 |                                                 |
| \\      /  F ield         | OpenFOAM: The Open Source CFD Toolbox           |
|  \\    /   O peration     | Version:  2106                                  |
|   \\  /    A nd           | Website:  www.openfoam.com                      |
|    \\/     M anipulation  |                                                 |
\*---------------------------------------------------------------------------*/
FoamFile
{
    version     2.0;
    format      ascii;
    arch        "LSB;label=32;scalar=64";
    class       volScalarField;
    location    "160.00011";
    object      AC3H4;
}
// * * * * * * * * * * * * * * * * * * * * * * * * * * * * * * * * * * * * * //

dimensions      [0 0 0 0 0 0 0];

internalField   nonuniform List<scalar> 
3360
(
9.34408e-18
9.64474e-18
1.00632e-17
1.0575e-17
1.11588e-17
1.17956e-17
1.24679e-17
1.31603e-17
1.38587e-17
1.45509e-17
1.52264e-17
1.58759e-17
1.64921e-17
1.70691e-17
1.76023e-17
1.80885e-17
1.85258e-17
1.89135e-17
1.92516e-17
1.95411e-17
1.97838e-17
1.9982e-17
2.01386e-17
2.02567e-17
2.03398e-17
2.03915e-17
2.04155e-17
4.09904e-17
4.24969e-17
4.46229e-17
4.72704e-17
5.03583e-17
5.3816e-17
5.75802e-17
6.1593e-17
6.58008e-17
7.01525e-17
7.45994e-17
7.90941e-17
8.35897e-17
8.804e-17
9.23994e-17
9.66233e-17
1.00668e-16
1.04491e-16
1.08051e-16
1.11311e-16
1.14235e-16
1.16793e-16
1.18958e-16
1.20709e-16
1.2203e-16
1.22913e-16
1.23353e-16
1.28611e-16
1.34256e-16
1.42276e-16
1.52354e-16
1.64226e-16
1.77655e-16
1.92414e-16
2.08282e-16
2.25033e-16
2.42437e-16
2.60261e-16
2.7827e-16
2.96234e-16
3.13925e-16
3.31123e-16
3.47617e-16
3.63216e-16
3.77743e-16
3.91049e-16
4.0301e-16
4.13527e-16
4.22533e-16
4.29989e-16
4.35882e-16
4.40226e-16
4.4306e-16
4.44439e-16
3.74551e-16
3.93154e-16
4.19766e-16
4.53436e-16
4.93366e-16
5.38813e-16
5.8903e-16
6.43245e-16
7.00648e-16
7.60387e-16
8.21583e-16
8.83339e-16
9.44766e-16
1.005e-15
1.06322e-15
1.11866e-15
1.17067e-15
1.21867e-15
1.26221e-15
1.30094e-15
1.33464e-15
1.36319e-15
1.38657e-15
1.40486e-15
1.41821e-15
1.42683e-15
1.43098e-15
1.09428e-15
1.15296e-15
1.23707e-15
1.34374e-15
1.47051e-15
1.61506e-15
1.77497e-15
1.94768e-15
2.13049e-15
2.32051e-15
2.51478e-15
2.71032e-15
2.90418e-15
3.09357e-15
3.27588e-15
3.44881e-15
3.61033e-15
3.75881e-15
3.89294e-15
4.01182e-15
4.11489e-15
4.20192e-15
4.27298e-15
4.3284e-15
4.36875e-15
4.39473e-15
4.40724e-15
3.22649e-15
3.40672e-15
3.66534e-15
3.9936e-15
4.38397e-15
4.82918e-15
5.3217e-15
5.85353e-15
6.41609e-15
7.00038e-15
7.5971e-15
8.19692e-15
8.79074e-15
9.36991e-15
9.92649e-15
1.04534e-14
1.09448e-14
1.13955e-14
1.18021e-14
1.21617e-14
1.2473e-14
1.27355e-14
1.29494e-14
1.31161e-14
1.32372e-14
1.33152e-14
1.33526e-14
9.58423e-15
1.01318e-14
1.09177e-14
1.19151e-14
1.31012e-14
1.44536e-14
1.59492e-14
1.75631e-14
1.92691e-14
2.10395e-14
2.28459e-14
2.466e-14
2.64542e-14
2.82024e-14
2.98809e-14
3.14686e-14
3.29477e-14
3.43039e-14
3.5526e-14
3.66067e-14
3.75416e-14
3.83295e-14
3.89716e-14
3.94715e-14
3.98349e-14
4.00686e-14
4.0181e-14
2.85647e-14
3.02124e-14
3.25782e-14
3.55821e-14
3.9155e-14
4.32297e-14
4.77358e-14
5.25982e-14
5.77373e-14
6.30691e-14
6.85079e-14
7.39678e-14
7.93657e-14
8.46232e-14
8.96688e-14
9.44395e-14
9.8882e-14
1.02953e-13
1.06621e-13
1.09862e-13
1.12665e-13
1.15026e-13
1.16949e-13
1.18447e-13
1.19534e-13
1.20234e-13
1.2057e-13
8.53594e-14
9.03117e-14
9.74204e-14
1.06445e-13
1.17179e-13
1.29417e-13
1.42948e-13
1.57545e-13
1.72968e-13
1.88963e-13
2.05274e-13
2.21642e-13
2.37819e-13
2.53571e-13
2.68682e-13
2.82967e-13
2.96266e-13
3.08452e-13
3.19427e-13
3.29126e-13
3.37512e-13
3.44576e-13
3.50331e-13
3.54809e-13
3.58063e-13
3.60156e-13
3.61161e-13
2.55096e-13
2.69929e-13
2.91224e-13
3.18263e-13
3.5042e-13
3.87086e-13
4.27622e-13
4.71349e-13
5.17544e-13
5.6545e-13
6.14291e-13
6.63297e-13
7.11721e-13
7.5886e-13
8.04077e-13
8.4681e-13
8.86585e-13
9.2302e-13
9.55828e-13
9.84815e-13
1.00987e-12
1.03097e-12
1.04816e-12
1.06153e-12
1.07125e-12
1.07749e-12
1.08049e-12
7.62737e-13
8.07144e-13
8.70886e-13
9.518e-13
1.04801e-12
1.15769e-12
1.27891e-12
1.40964e-12
1.5477e-12
1.69083e-12
1.83671e-12
1.98303e-12
2.12757e-12
2.26824e-12
2.40313e-12
2.53057e-12
2.64917e-12
2.75779e-12
2.85557e-12
2.94196e-12
3.01662e-12
3.07948e-12
3.13068e-12
3.17052e-12
3.19945e-12
3.21805e-12
3.22699e-12
2.27845e-12
2.41105e-12
2.60137e-12
2.84293e-12
3.13011e-12
3.4574e-12
3.81903e-12
4.20891e-12
4.62053e-12
5.04711e-12
5.48172e-12
5.91751e-12
6.34782e-12
6.76645e-12
7.16773e-12
7.54674e-12
7.89929e-12
8.22206e-12
8.51255e-12
8.76908e-12
8.99073e-12
9.1773e-12
9.3292e-12
9.44736e-12
9.53315e-12
9.58831e-12
9.6148e-12
6.79898e-12
7.19424e-12
7.76136e-12
8.48086e-12
9.33581e-12
1.03096e-11
1.1385e-11
1.25437e-11
1.37662e-11
1.50323e-11
1.63214e-11
1.76131e-11
1.88878e-11
2.01271e-11
2.13144e-11
2.24351e-11
2.34771e-11
2.44305e-11
2.52883e-11
2.60454e-11
2.66993e-11
2.72496e-11
2.76975e-11
2.80458e-11
2.82986e-11
2.84611e-11
2.85391e-11
2.02306e-11
2.14035e-11
2.30857e-11
2.52189e-11
2.77523e-11
3.06358e-11
3.38178e-11
3.72432e-11
4.08543e-11
4.45908e-11
4.83918e-11
5.2197e-11
5.59486e-11
5.95927e-11
6.30807e-11
6.63704e-11
6.94263e-11
7.22204e-11
7.47321e-11
7.69476e-11
7.886e-11
8.04681e-11
8.17762e-11
8.2793e-11
8.35307e-11
8.40047e-11
8.42323e-11
5.99823e-11
6.34437e-11
6.84048e-11
7.46905e-11
8.21477e-11
9.06262e-11
9.99705e-11
1.10017e-10
1.20593e-10
1.31521e-10
1.42622e-10
1.53719e-10
1.64645e-10
1.75243e-10
1.85373e-10
1.94916e-10
2.0377e-10
2.11857e-10
2.19118e-10
2.25517e-10
2.31036e-10
2.35673e-10
2.39442e-10
2.4237e-10
2.44493e-10
2.45856e-10
2.4651e-10
1.76806e-10
1.86923e-10
2.0141e-10
2.19745e-10
2.41467e-10
2.66126e-10
2.93258e-10
3.22376e-10
3.52971e-10
3.84526e-10
4.16517e-10
4.48437e-10
4.79803e-10
5.10173e-10
5.39152e-10
5.66401e-10
5.91642e-10
6.14659e-10
6.35297e-10
6.53458e-10
6.691e-10
6.82228e-10
6.92887e-10
7.01158e-10
7.0715e-10
7.10995e-10
7.12839e-10
5.17144e-10
5.46329e-10
5.8807e-10
6.40807e-10
7.03164e-10
7.73796e-10
8.51325e-10
9.34318e-10
1.0213e-09
1.11077e-09
1.20123e-09
1.29125e-09
1.37949e-09
1.46471e-09
1.54582e-09
1.62192e-09
1.69226e-09
1.75626e-09
1.81354e-09
1.86386e-09
1.90712e-09
1.94338e-09
1.97277e-09
1.99556e-09
2.01204e-09
2.02261e-09
2.02767e-09
1.49667e-09
1.57931e-09
1.69731e-09
1.84605e-09
2.02146e-09
2.21956e-09
2.4363e-09
2.66755e-09
2.90907e-09
3.15662e-09
3.40607e-09
3.65345e-09
3.89511e-09
4.12775e-09
4.34852e-09
4.55502e-09
4.74536e-09
4.91812e-09
5.07236e-09
5.20754e-09
5.32355e-09
5.42057e-09
5.49911e-09
5.55989e-09
5.60381e-09
5.63193e-09
5.64539e-09
4.27147e-09
4.49974e-09
4.8249e-09
5.23359e-09
5.71388e-09
6.25421e-09
6.84297e-09
7.46843e-09
8.11884e-09
8.78259e-09
9.44853e-09
1.01062e-08
1.0746e-08
1.13596e-08
1.19397e-08
1.24804e-08
1.29772e-08
1.34267e-08
1.38269e-08
1.41768e-08
1.44764e-08
1.47264e-08
1.49283e-08
1.50844e-08
1.51969e-08
1.52689e-08
1.53033e-08
1.19691e-08
1.25794e-08
1.34464e-08
1.45321e-08
1.58026e-08
1.72253e-08
1.87678e-08
2.03981e-08
2.20847e-08
2.3797e-08
2.55065e-08
2.71865e-08
2.88133e-08
3.03665e-08
3.18289e-08
3.31867e-08
3.44297e-08
3.55507e-08
3.65457e-08
3.74131e-08
3.81538e-08
3.87706e-08
3.92678e-08
3.96513e-08
3.99275e-08
4.01038e-08
4.0188e-08
3.27612e-08
3.43287e-08
3.65481e-08
3.93157e-08
4.25388e-08
4.61285e-08
4.9999e-08
5.40663e-08
5.825e-08
6.24738e-08
6.66674e-08
7.07673e-08
7.47179e-08
7.8472e-08
8.19912e-08
8.52456e-08
8.82136e-08
9.08812e-08
9.32415e-08
9.52932e-08
9.70408e-08
9.84926e-08
9.96607e-08
1.0056e-07
1.01206e-07
1.01618e-07
1.01815e-07
8.70801e-08
9.09199e-08
9.63371e-08
1.03063e-07
1.10854e-07
1.19484e-07
1.28734e-07
1.38397e-07
1.48279e-07
1.58198e-07
1.67993e-07
1.77518e-07
1.86652e-07
1.95292e-07
2.03356e-07
2.10785e-07
2.17535e-07
2.23582e-07
2.28917e-07
2.33541e-07
2.3747e-07
2.40727e-07
2.43343e-07
2.45352e-07
2.46795e-07
2.47714e-07
2.48151e-07
2.23469e-07
2.32396e-07
2.44948e-07
2.60462e-07
2.78345e-07
2.98044e-07
3.19041e-07
3.40853e-07
3.63034e-07
3.85181e-07
4.06937e-07
4.27994e-07
4.48094e-07
4.67026e-07
4.8463e-07
5.00787e-07
5.15422e-07
5.28493e-07
5.39992e-07
5.49938e-07
5.58369e-07
5.65345e-07
5.70936e-07
5.75225e-07
5.78302e-07
5.80257e-07
5.81188e-07
5.5096e-07
5.70634e-07
5.9821e-07
6.32161e-07
6.7112e-07
7.13831e-07
7.59132e-07
8.05959e-07
8.53348e-07
9.00446e-07
9.4651e-07
9.90908e-07
1.03312e-06
1.07275e-06
1.10947e-06
1.14307e-06
1.17342e-06
1.20046e-06
1.22419e-06
1.24468e-06
1.26201e-06
1.27633e-06
1.28779e-06
1.29657e-06
1.30286e-06
1.30686e-06
1.30875e-06
1.30119e-06
1.34241e-06
1.40003e-06
1.47075e-06
1.5516e-06
1.6399e-06
1.73318e-06
1.82922e-06
1.92604e-06
2.02191e-06
2.11534e-06
2.2051e-06
2.29019e-06
2.36982e-06
2.44342e-06
2.51062e-06
2.57118e-06
2.62503e-06
2.67221e-06
2.71286e-06
2.74722e-06
2.77555e-06
2.79821e-06
2.81555e-06
2.82796e-06
2.83583e-06
2.83957e-06
2.94144e-06
3.02405e-06
3.13934e-06
3.2805e-06
3.44147e-06
3.61676e-06
3.80141e-06
3.99097e-06
4.18155e-06
4.36975e-06
4.5527e-06
4.72805e-06
4.8939e-06
5.0488e-06
5.19171e-06
5.32195e-06
5.43914e-06
5.5432e-06
5.63425e-06
5.71261e-06
5.77875e-06
5.83325e-06
5.87679e-06
5.91008e-06
5.93389e-06
5.94899e-06
5.95616e-06
6.37106e-06
6.53102e-06
6.75399e-06
7.02661e-06
7.33699e-06
7.67442e-06
8.02925e-06
8.39294e-06
8.75798e-06
9.11791e-06
9.46732e-06
9.80175e-06
1.01177e-05
1.04124e-05
1.0684e-05
1.09313e-05
1.11536e-05
1.13508e-05
1.15233e-05
1.16715e-05
1.17966e-05
1.18996e-05
1.19819e-05
1.20447e-05
1.20897e-05
1.21181e-05
1.21316e-05
1.32402e-05
1.35425e-05
1.39639e-05
1.44788e-05
1.5065e-05
1.57021e-05
1.63719e-05
1.70584e-05
1.77474e-05
1.84268e-05
1.90864e-05
1.97179e-05
2.03146e-05
2.08714e-05
2.13847e-05
2.18521e-05
2.22725e-05
2.26455e-05
2.29718e-05
2.32524e-05
2.34892e-05
2.36842e-05
2.38399e-05
2.39589e-05
2.4044e-05
2.40979e-05
2.41235e-05
2.63955e-05
2.69577e-05
2.77418e-05
2.87013e-05
2.97951e-05
3.09861e-05
3.2241e-05
3.353e-05
3.48272e-05
3.61099e-05
3.7359e-05
3.85586e-05
3.96957e-05
4.07605e-05
4.17454e-05
4.26456e-05
4.34579e-05
4.41812e-05
4.4816e-05
4.5364e-05
4.58278e-05
4.6211e-05
4.6518e-05
4.67533e-05
4.6922e-05
4.70292e-05
4.70802e-05
5.02955e-05
5.13197e-05
5.27512e-05
5.45077e-05
5.65168e-05
5.87133e-05
6.10382e-05
6.34387e-05
6.58681e-05
6.82851e-05
7.06542e-05
7.29449e-05
7.51321e-05
7.71955e-05
7.91188e-05
8.08903e-05
8.25017e-05
8.39482e-05
8.52278e-05
8.63411e-05
8.72909e-05
8.80819e-05
8.87202e-05
8.92133e-05
8.95692e-05
8.97971e-05
8.99063e-05
9.0901e-05
9.26823e-05
9.5177e-05
9.82466e-05
0.00010177
0.000105637
0.000109749
0.000114015
0.000118356
0.0001227
0.000126982
0.000131149
0.000135152
0.000138952
0.000142517
0.00014582
0.000148845
0.000151576
0.000154006
0.000156134
0.000157959
0.000159488
0.000160728
0.000161691
0.000162389
0.000162839
0.000163055
0.000154242
0.000157064
0.000161017
0.000165881
0.000171463
0.00017759
0.000184104
0.000190862
0.000197735
0.000204608
0.00021138
0.000217962
0.000224281
0.000230272
0.000235884
0.000241079
0.000245826
0.000250107
0.000253911
0.000257234
0.00026008
0.00026246
0.000264389
0.000265883
0.000266967
0.000267663
0.000267997
0.000243021
0.0002469
0.000252317
0.000258956
0.000266539
0.000274815
0.00028356
0.00029257
0.000301668
0.000310698
0.000319525
0.000328037
0.00033614
0.000343762
0.000350845
0.000357349
0.000363247
0.000368526
0.000373183
0.000377224
0.000380662
0.000383519
0.000385819
0.000387593
0.000388871
0.000389688
0.00039008
0.00035237
0.00035686
0.000363098
0.000370692
0.000379297
0.000388603
0.000398338
0.000408265
0.000418179
0.000427909
0.000437315
0.000446284
0.000454726
0.000462578
0.000469796
0.000476353
0.000482238
0.000487453
0.00049201
0.000495928
0.000499234
0.000501959
0.000504137
0.000505804
0.000506999
0.000507757
0.000508119
0.000469032
0.000473394
0.000479419
0.000486699
0.000494875
0.000503629
0.000512689
0.000521822
0.000530836
0.000539579
0.000547929
0.000555796
0.000563116
0.000569849
0.000575971
0.000581476
0.000586369
0.000590664
0.000594385
0.000597558
0.000600214
0.000602389
0.000604115
0.000605428
0.000606363
0.000606955
0.000607235
0.000576677
0.000580263
0.000585189
0.0005911
0.000597685
0.000604672
0.000611833
0.00061898
0.000625962
0.000632664
0.000639
0.000644909
0.000650356
0.000655318
0.00065979
0.000663778
0.000667294
0.000670357
0.000672993
0.000675225
0.000677084
0.000678596
0.00067979
0.000680694
0.000681336
0.00068174
0.00068193
0.000662844
0.000665376
0.00066884
0.000672972
0.000677544
0.000682359
0.000687254
0.000692098
0.000696791
0.000701257
0.000705443
0.000709317
0.000712858
0.00071606
0.000718924
0.000721461
0.000723683
0.000725607
0.000727253
0.00072864
0.000729788
0.000730718
0.00073145
0.000732002
0.000732392
0.000732637
0.000732752
0.00072287
0.000724411
0.000726508
0.000728998
0.000731734
0.000734596
0.000737482
0.000740316
0.000743038
0.000745606
0.000747993
0.000750183
0.000752168
0.000753949
0.000755529
0.000756918
0.000758125
0.000759163
0.000760045
0.000760783
0.000761391
0.000761881
0.000762264
0.000762551
0.000762753
0.00076288
0.000762939
0.000758488
0.000759257
0.000760297
0.000761522
0.000762855
0.000764233
0.000765605
0.000766935
0.000768193
0.000769363
0.000770432
0.000771397
0.000772257
0.000773015
0.000773676
0.000774247
0.000774734
0.000775146
0.000775489
0.000775772
0.000776001
0.000776182
0.000776322
0.000776425
0.000776496
0.00077654
0.000776561
0.000774488
0.000774721
0.000775028
0.000775379
0.000775744
0.000776103
0.00077644
0.000776743
0.000777005
0.000777225
0.000777403
0.000777541
0.000777643
0.000777714
0.000777757
0.000777779
0.000777784
0.000777777
0.00077776
0.000777738
0.000777714
0.000777689
0.000777666
0.000777646
0.00077763
0.000777619
0.000777613
0.000776132
0.000776017
0.000775849
0.000775633
0.000775373
0.000775073
0.00077474
0.00077438
0.000774
0.000773608
0.000773211
0.000772815
0.000772428
0.000772055
0.0007717
0.000771368
0.000771061
0.000770782
0.000770533
0.000770314
0.000770125
0.000769966
0.000769838
0.000769738
0.000769665
0.000769618
0.000769595
0.000767916
0.000767585
0.000767123
0.000766555
0.000765906
0.000765197
0.000764447
0.000763675
0.000762895
0.000762121
0.000761365
0.000760636
0.000759943
0.000759292
0.000758688
0.000758134
0.000757632
0.000757182
0.000756787
0.000756443
0.000756152
0.000755909
0.000755714
0.000755563
0.000755455
0.000755385
0.000755352
0.000753263
0.000752803
0.000752164
0.000751385
0.000750503
0.000749548
0.000748549
0.000747528
0.000746507
0.000745503
0.000744531
0.000743602
0.000742725
0.000741906
0.000741151
0.000740463
0.000739843
0.000739291
0.000738807
0.000738389
0.000738034
0.000737741
0.000737505
0.000737325
0.000737194
0.000737111
0.000737072
0.000734625
0.000734092
0.000733351
0.000732453
0.000731437
0.000730342
0.0007292
0.000728038
0.000726879
0.000725745
0.000724649
0.000723606
0.000722624
0.000721711
0.00072087
0.000720106
0.000719419
0.00071881
0.000718276
0.000717816
0.000717426
0.000717105
0.000716847
0.000716649
0.000716507
0.000716416
0.000716373
0.000713704
0.000713132
0.000712339
0.000711378
0.000710294
0.000709126
0.00070791
0.000706676
0.000705448
0.000704247
0.000703089
0.000701989
0.000700955
0.000699994
0.000699112
0.00069831
0.000697591
0.000696953
0.000696395
0.000695915
0.000695509
0.000695174
0.000694906
0.0006947
0.000694553
0.000694458
0.000694414
0.000691657
0.000691069
0.000690255
0.000689269
0.000688157
0.000686961
0.000685717
0.000684456
0.000683202
0.000681977
0.000680798
0.000679678
0.000678626
0.00067765
0.000676754
0.000675942
0.000675213
0.000674567
0.000674003
0.000673517
0.000673107
0.000672769
0.000672498
0.00067229
0.000672142
0.000672047
0.000672002
0.00066926
0.000668672
0.000667857
0.000666871
0.000665759
0.000664564
0.000663322
0.000662063
0.000660812
0.000659591
0.000658417
0.000657302
0.000656256
0.000655286
0.000654396
0.000653589
0.000652866
0.000652225
0.000651666
0.000651185
0.000650779
0.000650444
0.000650176
0.000649971
0.000649823
0.00064973
0.000649685
0.000647029
0.00064645
0.000645648
0.000644677
0.000643583
0.000642408
0.000641187
0.00063995
0.000638722
0.000637523
0.000636371
0.000635278
0.000634252
0.000633302
0.000632431
0.000631641
0.000630933
0.000630307
0.00062976
0.000629289
0.000628893
0.000628566
0.000628304
0.000628104
0.00062796
0.000627869
0.000627825
0.000625296
0.000624732
0.000623951
0.000623006
0.000621942
0.000620799
0.000619611
0.000618409
0.000617216
0.000616052
0.000614933
0.000613872
0.000612877
0.000611955
0.00061111
0.000610345
0.000609659
0.000609052
0.000608523
0.000608067
0.000607683
0.000607367
0.000607114
0.00060692
0.000606781
0.000606693
0.000606651
0.000604269
0.000603723
0.000602969
0.000602057
0.00060103
0.000599926
0.00059878
0.00059762
0.000596469
0.000595347
0.000594269
0.000593246
0.000592288
0.0005914
0.000590587
0.00058985
0.00058919
0.000588606
0.000588097
0.000587659
0.00058729
0.000586986
0.000586743
0.000586556
0.000586423
0.000586338
0.000586298
0.000584069
0.000583545
0.000582821
0.000581944
0.000580958
0.000579899
0.000578799
0.000577686
0.000576582
0.000575506
0.000574472
0.000573491
0.000572573
0.000571722
0.000570943
0.000570237
0.000569605
0.000569046
0.000568558
0.000568139
0.000567786
0.000567495
0.000567262
0.000567084
0.000566956
0.000566875
0.000566837
0.000564759
0.000564258
0.000563565
0.000562727
0.000561784
0.000560771
0.000559719
0.000558655
0.0005576
0.000556571
0.000555583
0.000554647
0.000553769
0.000552957
0.000552213
0.000551539
0.000550936
0.000550403
0.000549937
0.000549537
0.0005492
0.000548923
0.000548701
0.000548531
0.00054841
0.000548332
0.000548295
0.000546362
0.000545884
0.000545223
0.000544424
0.000543524
0.000542558
0.000541555
0.000540541
0.000539535
0.000538554
0.000537612
0.00053672
0.000535884
0.00053511
0.000534402
0.00053376
0.000533185
0.000532677
0.000532234
0.000531854
0.000531533
0.000531269
0.000531058
0.000530896
0.00053078
0.000530707
0.000530672
0.000528874
0.000528419
0.000527789
0.000527028
0.000526171
0.000525252
0.000524297
0.000523331
0.000522374
0.000521441
0.000520545
0.000519696
0.000518901
0.000518165
0.000517491
0.00051688
0.000516334
0.000515851
0.00051543
0.000515068
0.000514763
0.000514512
0.000514312
0.000514158
0.000514048
0.000513978
0.000513945
0.000512272
0.000511839
0.00051124
0.000510516
0.000509701
0.000508827
0.000507919
0.000507001
0.000506091
0.000505204
0.000504353
0.000503545
0.00050279
0.00050209
0.00050145
0.00050087
0.000500351
0.000499892
0.000499492
0.000499148
0.000498859
0.00049862
0.00049843
0.000498284
0.00049818
0.000498113
0.000498082
0.000496523
0.000496112
0.000495543
0.000494854
0.00049408
0.000493249
0.000492387
0.000491514
0.00049065
0.000489807
0.000488998
0.000488231
0.000487513
0.000486849
0.000486241
0.00048569
0.000485197
0.000484761
0.000484381
0.000484055
0.00048378
0.000483554
0.000483373
0.000483235
0.000483136
0.000483073
0.000483043
0.000481589
0.000481198
0.000480657
0.000480003
0.000479268
0.000478478
0.000477659
0.00047683
0.000476008
0.000475208
0.00047444
0.000473711
0.00047303
0.000472398
0.000471821
0.000471298
0.00047083
0.000470416
0.000470055
0.000469745
0.000469484
0.00046927
0.000469098
0.000468966
0.000468872
0.000468813
0.000468784
0.000467426
0.000467054
0.000466541
0.00046592
0.000465221
0.000464471
0.000463692
0.000462905
0.000462124
0.000461364
0.000460634
0.000459942
0.000459294
0.000458695
0.000458146
0.000457649
0.000457205
0.000456812
0.000456469
0.000456175
0.000455927
0.000455723
0.00045556
0.000455435
0.000455346
0.000455289
0.000455262
0.000453992
0.000453638
0.00045315
0.00045256
0.000451896
0.000451183
0.000450443
0.000449695
0.000448953
0.00044823
0.000447537
0.000446879
0.000446264
0.000445694
0.000445173
0.000444701
0.000444279
0.000443905
0.00044358
0.0004433
0.000443065
0.000442871
0.000442716
0.000442597
0.000442513
0.000442459
0.000442433
0.000441243
0.000440907
0.000440443
0.000439881
0.00043925
0.000438572
0.000437869
0.000437157
0.000436452
0.000435765
0.000435106
0.000434481
0.000433896
0.000433354
0.000432859
0.00043241
0.000432009
0.000431654
0.000431344
0.000431079
0.000430855
0.000430671
0.000430523
0.000430411
0.00043033
0.000430279
0.000430254
0.000429138
0.000428818
0.000428377
0.000427843
0.000427242
0.000426598
0.000425929
0.000425252
0.000424581
0.000423928
0.000423301
0.000422706
0.00042215
0.000421635
0.000421163
0.000420737
0.000420355
0.000420017
0.000419723
0.00041947
0.000419257
0.000419082
0.000418942
0.000418835
0.000418758
0.00041871
0.000418686
0.000417638
0.000417334
0.000416914
0.000416405
0.000415834
0.00041522
0.000414584
0.00041394
0.000413301
0.00041268
0.000412083
0.000411517
0.000410987
0.000410497
0.000410049
0.000409643
0.000409279
0.000408958
0.000408678
0.000408438
0.000408235
0.000408068
0.000407935
0.000407833
0.00040776
0.000407714
0.000407692
0.000406706
0.000406416
0.000406016
0.000405532
0.000404988
0.000404404
0.000403798
0.000403185
0.000402577
0.000401985
0.000401416
0.000400878
0.000400373
0.000399907
0.00039948
0.000399093
0.000398747
0.000398441
0.000398174
0.000397946
0.000397753
0.000397594
0.000397467
0.00039737
0.0003973
0.000397256
0.000397235
0.000396308
0.000396032
0.000395651
0.00039519
0.000394672
0.000394115
0.000393538
0.000392953
0.000392374
0.00039181
0.000391269
0.000390756
0.000390275
0.000389831
0.000389424
0.000389055
0.000388726
0.000388434
0.00038818
0.000387962
0.000387778
0.000387627
0.000387506
0.000387414
0.000387348
0.000387305
0.000387285
0.000386413
0.00038615
0.000385787
0.000385347
0.000384853
0.000384323
0.000383772
0.000383215
0.000382663
0.000382126
0.00038161
0.00038112
0.000380663
0.000380239
0.000379851
0.0003795
0.000379185
0.000378908
0.000378666
0.000378458
0.000378283
0.000378138
0.000378023
0.000377935
0.000377872
0.000377832
0.000377813
0.000376991
0.000376741
0.000376394
0.000375975
0.000375504
0.000374998
0.000374474
0.000373943
0.000373416
0.000372904
0.000372411
0.000371945
0.000371508
0.000371104
0.000370734
0.000370399
0.0003701
0.000369835
0.000369604
0.000369406
0.000369239
0.000369101
0.000368991
0.000368907
0.000368847
0.000368809
0.000368791
0.000368018
0.000367779
0.000367448
0.000367049
0.000366599
0.000366117
0.000365616
0.00036511
0.000364608
0.000364119
0.000363649
0.000363204
0.000362788
0.000362402
0.000362049
0.00036173
0.000361444
0.000361191
0.000360971
0.000360782
0.000360622
0.000360491
0.000360387
0.000360306
0.000360249
0.000360212
0.000360195
0.000359468
0.00035924
0.000358925
0.000358544
0.000358115
0.000357654
0.000357177
0.000356694
0.000356215
0.000355748
0.0003553
0.000354875
0.000354478
0.00035411
0.000353773
0.000353469
0.000353196
0.000352955
0.000352745
0.000352564
0.000352412
0.000352287
0.000352187
0.00035211
0.000352056
0.000352021
0.000352004
0.000351321
0.000351104
0.000350803
0.000350439
0.00035003
0.000349591
0.000349135
0.000348674
0.000348217
0.000347771
0.000347344
0.000346939
0.000346559
0.000346208
0.000345887
0.000345596
0.000345336
0.000345106
0.000344905
0.000344733
0.000344588
0.000344468
0.000344373
0.0003443
0.000344247
0.000344214
0.000344198
0.000343558
0.00034335
0.000343063
0.000342716
0.000342325
0.000341906
0.000341471
0.000341031
0.000340595
0.00034017
0.000339762
0.000339375
0.000339014
0.000338679
0.000338372
0.000338094
0.000337846
0.000337626
0.000337435
0.00033727
0.000337132
0.000337018
0.000336927
0.000336857
0.000336807
0.000336775
0.00033676
0.000336161
0.000335963
0.000335689
0.000335358
0.000334985
0.000334585
0.00033417
0.00033375
0.000333334
0.000332928
0.000332539
0.00033217
0.000331825
0.000331505
0.000331213
0.000330948
0.000330711
0.000330501
0.000330318
0.000330161
0.000330029
0.00032992
0.000329834
0.000329767
0.000329719
0.000329689
0.000329675
0.000329115
0.000328926
0.000328665
0.000328349
0.000327993
0.000327612
0.000327216
0.000326816
0.000326419
0.000326032
0.000325661
0.000325309
0.000324979
0.000324674
0.000324395
0.000324142
0.000323916
0.000323716
0.000323542
0.000323392
0.000323266
0.000323162
0.000323079
0.000323016
0.000322971
0.000322942
0.000322928
0.000322407
0.000322227
0.000321978
0.000321677
0.000321338
0.000320975
0.000320597
0.000320215
0.000319837
0.000319468
0.000319114
0.000318779
0.000318464
0.000318174
0.000317908
0.000317667
0.000317451
0.00031726
0.000317094
0.000316951
0.000316831
0.000316732
0.000316653
0.000316592
0.000316549
0.000316521
0.000316508
0.000316027
0.000315855
0.000315618
0.000315331
0.000315008
0.000314662
0.000314302
0.000313938
0.000313578
0.000313226
0.000312889
0.000312569
0.00031227
0.000311993
0.000311739
0.00031151
0.000311304
0.000311123
0.000310964
0.000310828
0.000310714
0.000310619
0.000310544
0.000310486
0.000310445
0.000310418
0.000310406
0.000309963
0.0003098
0.000309574
0.000309301
0.000308994
0.000308664
0.000308322
0.000307976
0.000307632
0.000307298
0.000306977
0.000306673
0.000306388
0.000306124
0.000305882
0.000305664
0.000305468
0.000305295
0.000305144
0.000305015
0.000304906
0.000304816
0.000304744
0.000304689
0.00030465
0.000304625
0.000304613
0.000304209
0.000304054
0.000303839
0.00030358
0.000303288
0.000302974
0.000302649
0.00030232
0.000301993
0.000301675
0.00030137
0.000301081
0.00030081
0.000300559
0.000300329
0.000300122
0.000299936
0.000299771
0.000299628
0.000299504
0.0002994
0.000299315
0.000299247
0.000299194
0.000299157
0.000299133
0.000299122
0.000298758
0.000298611
0.000298407
0.000298161
0.000297883
0.000297586
0.000297277
0.000296965
0.000296655
0.000296353
0.000296063
0.000295789
0.000295531
0.000295293
0.000295075
0.000294878
0.000294701
0.000294545
0.000294409
0.000294292
0.000294193
0.000294112
0.000294047
0.000293997
0.000293962
0.000293939
0.000293928
0.000293605
0.000293466
0.000293273
0.000293039
0.000292777
0.000292495
0.000292202
0.000291906
0.000291613
0.000291327
0.000291052
0.000290792
0.000290549
0.000290323
0.000290116
0.000289929
0.000289762
0.000289614
0.000289485
0.000289374
0.00028928
0.000289203
0.000289142
0.000289094
0.000289061
0.000289039
0.000289029
0.000288747
0.000288616
0.000288433
0.000288213
0.000287964
0.000287698
0.000287422
0.000287142
0.000286865
0.000286594
0.000286335
0.000286089
0.000285859
0.000285645
0.00028545
0.000285273
0.000285115
0.000284975
0.000284853
0.000284748
0.000284659
0.000284586
0.000284528
0.000284484
0.000284452
0.000284431
0.000284422
0.000284183
0.000284058
0.000283887
0.000283679
0.000283445
0.000283194
0.000282933
0.00028267
0.000282409
0.000282154
0.000281909
0.000281678
0.00028146
0.000281259
0.000281075
0.000280909
0.000280759
0.000280627
0.000280512
0.000280413
0.00028033
0.000280261
0.000280206
0.000280164
0.000280134
0.000280115
0.000280105
0.00027991
0.000279794
0.000279632
0.000279437
0.000279218
0.000278982
0.000278737
0.00027849
0.000278244
0.000278005
0.000277775
0.000277558
0.000277354
0.000277165
0.000276992
0.000276835
0.000276695
0.000276571
0.000276463
0.00027637
0.000276291
0.000276227
0.000276175
0.000276136
0.000276107
0.000276089
0.000276081
0.00027593
0.000275821
0.00027567
0.000275488
0.000275282
0.000275062
0.000274833
0.000274602
0.000274372
0.000274149
0.000273934
0.00027373
0.00027354
0.000273363
0.000273201
0.000273055
0.000272923
0.000272807
0.000272706
0.000272619
0.000272546
0.000272485
0.000272437
0.0002724
0.000272373
0.000272356
0.000272348
0.000272243
0.000272142
0.000272001
0.000271831
0.00027164
0.000271435
0.000271223
0.000271007
0.000270794
0.000270586
0.000270386
0.000270197
0.00027002
0.000269855
0.000269705
0.000269569
0.000269446
0.000269338
0.000269244
0.000269163
0.000269095
0.000269039
0.000268993
0.000268959
0.000268934
0.000268919
0.000268911
0.000268851
0.000268757
0.000268627
0.000268471
0.000268294
0.000268105
0.000267909
0.00026771
0.000267513
0.000267321
0.000267137
0.000266962
0.000266798
0.000266647
0.000266508
0.000266382
0.00026627
0.00026617
0.000266083
0.000266008
0.000265945
0.000265894
0.000265852
0.00026582
0.000265797
0.000265783
0.000265776
0.000265757
0.000265671
0.000265553
0.000265409
0.000265248
0.000265075
0.000264896
0.000264715
0.000264535
0.00026436
0.000264192
0.000264033
0.000263884
0.000263746
0.00026362
0.000263505
0.000263403
0.000263312
0.000263233
0.000263165
0.000263108
0.000263061
0.000263023
0.000262994
0.000262973
0.00026296
0.000262954
0.000262968
0.00026289
0.000262783
0.000262654
0.000262508
0.000262352
0.00026219
0.000262027
0.000261864
0.000261706
0.000261555
0.000261411
0.000261276
0.000261152
0.000261038
0.000260934
0.000260842
0.00026076
0.000260689
0.000260627
0.000260575
0.000260533
0.000260499
0.000260472
0.000260454
0.000260442
0.000260436
0.000260478
0.000260408
0.000260312
0.000260196
0.000260065
0.000259925
0.000259779
0.000259632
0.000259486
0.000259344
0.000259208
0.000259079
0.000258958
0.000258846
0.000258743
0.000258651
0.000258567
0.000258494
0.00025843
0.000258374
0.000258328
0.000258289
0.000258259
0.000258235
0.000258218
0.000258208
0.000258203
0.000258268
0.000258205
0.000258119
0.000258015
0.000257899
0.000257773
0.000257643
0.000257512
0.000257382
0.000257255
0.000257133
0.000257018
0.00025691
0.00025681
0.000256719
0.000256636
0.000256562
0.000256496
0.000256439
0.00025639
0.000256348
0.000256314
0.000256287
0.000256266
0.000256251
0.000256241
0.000256237
0.000256319
0.000256264
0.000256188
0.000256096
0.000255993
0.000255882
0.000255767
0.000255651
0.000255536
0.000255424
0.000255317
0.000255215
0.00025512
0.000255032
0.000254952
0.000254879
0.000254814
0.000254756
0.000254706
0.000254662
0.000254626
0.000254596
0.000254572
0.000254554
0.00025454
0.000254532
0.000254528
0.000254623
0.000254575
0.000254508
0.000254428
0.000254338
0.000254242
0.000254142
0.000254041
0.000253941
0.000253844
0.000253752
0.000253664
0.000253581
0.000253505
0.000253436
0.000253373
0.000253317
0.000253267
0.000253224
0.000253186
0.000253155
0.000253129
0.000253109
0.000253093
0.000253081
0.000253074
0.000253071
0.000253171
0.00025313
0.000253074
0.000253005
0.000252929
0.000252846
0.000252762
0.000252676
0.000252591
0.000252509
0.00025243
0.000252356
0.000252286
0.000252222
0.000252163
0.00025211
0.000252063
0.000252021