/*--------------------------------*- C++ -*----------------------------------*\
| =========                 |                                                 |
| \\      /  F ield         | OpenFOAM: The Open Source CFD Toolbox           |
|  \\    /   O peration     | Version:  2106                                  |
|   \\  /    A nd           | Website:  www.openfoam.com                      |
|    \\/     M anipulation  |                                                 |
\*---------------------------------------------------------------------------*/
FoamFile
{
    version     2.0;
    format      ascii;
    arch        "LSB;label=32;scalar=64";
    class       volScalarField;
    location    "160.00011";
    object      AC3H5;
}
// * * * * * * * * * * * * * * * * * * * * * * * * * * * * * * * * * * * * * //

dimensions      [0 0 0 0 0 0 0];

internalField   nonuniform List<scalar> 
3360
(
1.88821e-32
1.9486e-32
2.03264e-32
2.13542e-32
2.25267e-32
2.38053e-32
2.51553e-32
2.65452e-32
2.79473e-32
2.93368e-32
3.06925e-32
3.19961e-32
3.32328e-32
3.43906e-32
3.54605e-32
3.64362e-32
3.73137e-32
3.80915e-32
3.87698e-32
3.93507e-32
3.98376e-32
4.02353e-32
4.05495e-32
4.07864e-32
4.09531e-32
4.10568e-32
4.11049e-32
8.25344e-32
8.55506e-32
8.98067e-32
9.51071e-32
1.01289e-31
1.08212e-31
1.15749e-31
1.23784e-31
1.32211e-31
1.40926e-31
1.49834e-31
1.58838e-31
1.67845e-31
1.76763e-31
1.855e-31
1.93966e-31
2.02075e-31
2.09739e-31
2.16879e-31
2.23417e-31
2.29282e-31
2.34413e-31
2.38755e-31
2.42268e-31
2.44919e-31
2.46689e-31
2.47572e-31
2.57553e-31
2.68803e-31
2.84789e-31
3.04879e-31
3.28549e-31
3.55327e-31
3.84765e-31
4.16421e-31
4.4985e-31
4.84593e-31
5.20184e-31
5.56158e-31
5.92053e-31
6.27413e-31
6.61798e-31
6.94788e-31
7.25992e-31
7.55063e-31
7.81695e-31
8.05637e-31
8.26694e-31
8.44727e-31
8.59656e-31
8.71456e-31
8.80156e-31
8.85828e-31
8.88589e-31
7.45889e-31
7.82878e-31
8.35814e-31
9.02828e-31
9.82359e-31
1.07295e-30
1.17315e-30
1.28144e-30
1.39623e-30
1.51583e-30
1.63849e-30
1.76243e-30
1.88586e-30
2.00703e-30
2.12428e-30
2.23607e-30
2.34103e-30
2.43798e-30
2.52599e-30
2.60433e-30
2.67253e-30
2.73032e-30
2.77767e-30
2.8147e-30
2.84172e-30
2.85917e-30
2.86758e-30
2.17671e-30
2.29441e-30
2.46337e-30
2.67809e-30
2.93397e-30
3.22658e-30
3.55139e-30
3.90348e-30
4.27759e-30
4.66802e-30
5.06883e-30
5.47388e-30
5.87708e-30
6.27251e-30
6.65457e-30
7.0182e-30
7.35893e-30
7.67301e-30
7.95745e-30
8.21008e-30
8.42948e-30
8.61498e-30
8.76657e-30
8.88486e-30
8.97097e-30
9.02642e-30
9.05309e-30
6.5179e-30
6.8953e-30
7.43954e-30
8.13484e-30
8.9683e-30
9.92753e-30
1.09994e-29
1.21694e-29
1.34212e-29
1.47364e-29
1.60955e-29
1.74776e-29
1.88614e-29
2.02258e-29
2.15505e-29
2.28165e-29
2.40073e-29
2.51082e-29
2.61078e-29
2.69974e-29
2.77709e-29
2.84255e-29
2.89606e-29
2.9378e-29
2.96817e-29
2.9877e-29
2.99708e-29
2.06313e-29
2.19428e-29
2.38497e-29
2.63123e-29
2.9302e-29
3.27916e-29
3.67497e-29
4.11374e-29
4.59052e-29
5.0993e-29
5.63295e-29
6.18348e-29
6.74218e-29
7.29999e-29
7.84783e-29
8.37693e-29
8.87919e-29
9.34741e-29
9.77553e-29
1.01588e-28
1.04937e-28
1.07782e-28
1.10114e-28
1.11937e-28
1.13265e-28
1.14119e-28
1.14528e-28
7.38418e-29
7.9315e-29
8.7397e-29
9.80384e-29
1.11246e-28
1.27032e-28
1.45382e-28
1.66226e-28
1.8942e-28
2.14737e-28
2.41863e-28
2.704e-28
2.99883e-28
3.29797e-28
3.59601e-28
3.88751e-28
4.16726e-28
4.43052e-28
4.67314e-28
4.89175e-28
5.0838e-28
5.24759e-28
5.38225e-28
5.48769e-28
5.56452e-28
5.61394e-28
5.63763e-28
3.32897e-28
3.63041e-28
4.08301e-28
4.69132e-28
5.46359e-28
6.40835e-28
7.53191e-28
8.83621e-28
1.03172e-27
1.19638e-27
1.37575e-27
1.56725e-27
1.76768e-27
1.97335e-27
2.18027e-27
2.38436e-27
2.58162e-27
2.76836e-27
2.94133e-27
3.0978e-27
3.23569e-27
3.35357e-27
3.45064e-27
3.52672e-27
3.58218e-27
3.61783e-27
3.63489e-27
1.98952e-27
2.20061e-27
2.52114e-27
2.95771e-27
3.51977e-27
4.21695e-27
5.05698e-27
6.04385e-27
7.17645e-27
8.44755e-27
9.84346e-27
1.13442e-26
1.29241e-26
1.45534e-26
1.61992e-26
1.7828e-26
1.94065e-26
2.0904e-26
2.22931e-26
2.3551e-26
2.46603e-26
2.56088e-26
2.63897e-26
2.70014e-26
2.74468e-26
2.77328e-26
2.78694e-26
1.46855e-26
1.63757e-26
1.89541e-26
2.24851e-26
2.70564e-26
3.27565e-26
3.96571e-26
4.77972e-26
5.71714e-26
6.77214e-26
7.9333e-26
9.18377e-26
1.05019e-25
1.18624e-25
1.32374e-25
1.45986e-25
1.59177e-25
1.71688e-25
1.83288e-25
1.93787e-25
2.03037e-25
2.10938e-25
2.17435e-25
2.22515e-25
2.26208e-25
2.28573e-25
2.297e-25
1.199e-25
1.34114e-25
1.55827e-25
1.85601e-25
2.24194e-25
2.72362e-25
3.3071e-25
3.99557e-25
4.78835e-25
5.68025e-25
6.66128e-25
7.71683e-25
8.82833e-25
9.9741e-25
1.11306e-24
1.22736e-24
1.33796e-24
1.44266e-24
1.53957e-24
1.6271e-24
1.70405e-24
1.76963e-24
1.82341e-24
1.86534e-24
1.89572e-24
1.9151e-24
1.92429e-24
1.01253e-24
1.1333e-24
1.31768e-24
1.57028e-24
1.89732e-24
2.30488e-24
2.7977e-24
3.37799e-24
4.04468e-24
4.79286e-24
5.61365e-24
6.49438e-24
7.41918e-24
8.36974e-24
9.32639e-24
1.02691e-23
1.11785e-23
1.20368e-23
1.28287e-23
1.35416e-23
1.41662e-23
1.46965e-23
1.51297e-23
1.5466e-23
1.57083e-23
1.58621e-23
1.59345e-23
8.55003e-24
9.56386e-24
1.11092e-23
1.32219e-23
1.59499e-23
1.93393e-23
2.34239e-23
2.82158e-23
3.36996e-23
3.98285e-23
4.65238e-23
5.36769e-23
6.11549e-23
6.88071e-23
7.64738e-23
8.39947e-23
9.12168e-23
9.80021e-23
1.04233e-22
1.09814e-22
1.1468e-22
1.18788e-22
1.22123e-22
1.24695e-22
1.26535e-22
1.27692e-22
1.28231e-22
7.10418e-23
7.93481e-23
9.19747e-23
1.09176e-22
1.31292e-22
1.5864e-22
1.91422e-22
2.29665e-22
2.73173e-22
3.21504e-22
3.73974e-22
4.29682e-22
4.87553e-22
5.464e-22
6.0499e-22
6.62105e-22
7.16607e-22
7.67489e-22
8.13909e-22
8.5522e-22
8.90976e-22
9.20941e-22
9.45071e-22
9.63509e-22
9.76557e-22
9.8466e-22
9.88381e-22
5.72844e-22
6.3827e-22
7.37342e-22
8.71629e-22
1.04327e-21
1.25409e-21
1.50499e-21
1.79547e-21
2.12333e-21
2.48461e-21
2.87364e-21
3.2833e-21
3.7054e-21
4.13117e-21
4.55166e-21
4.95829e-21
5.34323e-21
5.69971e-21
6.02228e-21
6.3069e-21
6.55107e-21
6.75373e-21
6.91522e-21
7.03713e-21
7.12221e-21
7.17418e-21
7.19756e-21
4.42861e-21
4.91695e-21
5.6525e-21
6.64273e-21
7.89837e-21
9.42713e-21
1.12294e-20
1.32956e-20
1.56044e-20
1.81229e-20
2.08075e-20
2.36065e-20
2.64623e-20
2.93153e-20
3.21065e-20
3.4781e-20
3.72897e-20
3.95919e-20
4.16561e-20
4.34605e-20
4.49932e-20
4.62521e-20
4.72435e-20
4.79823e-20
4.84899e-20
4.87942e-20
4.89279e-20
3.23893e-20
3.57847e-20
4.08652e-20
4.76471e-20
5.61634e-20
6.64229e-20
7.83854e-20
9.19462e-20
1.06931e-19
1.231e-19
1.40156e-19
1.57761e-19
1.75555e-19
1.93175e-19
2.10273e-19
2.26529e-19
2.4167e-19
2.55471e-19
2.67766e-19
2.78447e-19
2.87465e-19
2.94825e-19
3.00585e-19
3.04846e-19
3.07751e-19
3.09476e-19
3.10225e-19
2.21734e-19
2.43483e-19
2.75801e-19
3.18581e-19
3.71817e-19
4.35373e-19
5.08859e-19
5.91558e-19
6.82415e-19
7.8006e-19
8.82858e-19
9.88987e-19
1.09652e-18
1.20349e-18
1.30801e-18
1.40829e-18
1.50272e-18
1.58993e-18
1.6688e-18
1.73848e-18
1.79846e-18
1.84847e-18
1.88858e-18
1.91911e-18
1.94063e-18
1.95393e-18
1.96001e-18
1.42975e-18
1.5629e-18
1.76113e-18
2.02485e-18
2.3561e-18
2.75761e-18
3.23208e-18
3.78175e-18
4.40796e-18
5.11056e-18
5.88749e-18
6.73425e-18
7.64362e-18
8.60546e-18
9.60663e-18
1.0631e-17
1.16599e-17
1.26728e-17
1.36486e-17
1.45662e-17
1.5406e-17
1.61506e-17
1.67856e-17
1.73001e-17
1.76873e-17
1.79438e-17
1.80701e-17
9.59816e-18
1.06546e-17
1.23046e-17
1.46485e-17
1.78426e-17
2.20972e-17
2.76696e-17
3.48497e-17
4.3938e-17
5.52128e-17
6.88937e-17
8.51076e-17
1.03867e-16
1.25078e-16
1.48517e-16
1.7381e-16
2.00438e-16
2.27763e-16
2.55065e-16
2.81581e-16
3.06554e-16
3.29271e-16
3.49099e-16
3.65511e-16
3.78102e-16
3.86596e-16
3.90841e-16
1.01104e-16
1.20114e-16
1.51719e-16
1.99923e-16
2.7051e-16
3.71291e-16
5.11713e-16
7.02413e-16
9.54431e-16
1.27803e-15
1.68115e-15
2.16748e-15
2.73452e-15
3.37947e-15
4.09838e-15
4.88103e-15
5.71193e-15
6.57122e-15
7.43591e-15
8.28111e-15
9.08156e-15
9.81299e-15
1.04535e-14
1.09846e-14
1.1392e-14
1.16664e-14
1.18034e-14
2.18306e-15
2.71075e-15
3.59308e-15
4.93879e-15
6.88947e-15
9.66597e-15
1.35226e-14
1.87447e-14
2.56349e-14
3.44932e-14
4.55904e-14
5.914e-14
7.52689e-14
9.3992e-14
1.15191e-13
1.38605e-13
1.63824e-13
1.90309e-13
2.174e-13
2.44352e-13
2.70365e-13
2.94621e-13
3.16326e-13
3.3474e-13
3.49216e-13
3.59219e-13
3.64349e-13
5.64234e-14
6.96447e-14
9.16166e-14
1.25043e-13
1.73681e-13
2.42271e-13
3.36398e-13
4.62267e-13
6.26354e-13
8.3492e-13
1.09344e-12
1.40599e-12
1.77472e-12
2.19938e-12
2.67701e-12
3.20181e-12
3.76517e-12
4.35586e-12
4.96038e-12
5.56341e-12
6.14831e-12
6.69777e-12
7.19433e-12
7.62096e-12
7.96152e-12
8.20119e-12
8.32673e-12
1.38192e-12
1.66704e-12
2.13029e-12
2.81545e-12
3.78108e-12
5.09678e-12
6.83862e-12
9.08299e-12
1.18983e-11
1.53352e-11
1.94161e-11
2.41267e-11
2.94112e-11
3.5173e-11
4.1282e-11
4.75852e-11
5.39199e-11
6.01265e-11
6.60576e-11
7.15842e-11
7.65988e-11
8.10154e-11
8.4768e-11
8.78089e-11
9.01062e-11
9.16413e-11
9.24074e-11
2.59004e-11
3.01504e-11
3.679e-11
4.61083e-11
5.84171e-11
7.39496e-11
9.27831e-11
1.14799e-10
1.39693e-10
1.67017e-10
1.96248e-10
2.26834e-10
2.58227e-10
2.89889e-10
3.21296e-10
3.51949e-10
3.81374e-10
4.09142e-10
4.34871e-10
4.5824e-10
4.78986e-10
4.96911e-10
5.11876e-10
5.238e-10
5.32667e-10
5.38505e-10
5.41377e-10
2.56429e-10
2.84579e-10
3.26587e-10
3.82554e-10
4.52824e-10
5.37695e-10
6.37222e-10
7.51072e-10
8.78422e-10
1.01791e-09
1.16764e-09
1.32528e-09
1.48834e-09
1.6541e-09
1.81968e-09
1.98224e-09
2.13902e-09
2.28747e-09
2.42535e-09
2.55071e-09
2.66202e-09
2.7581e-09
2.83817e-09
2.90183e-09
2.94898e-09
2.97986e-09
2.99496e-09
1.30626e-09
1.44233e-09
1.64675e-09
1.92162e-09
2.27069e-09
2.6979e-09
3.20638e-09
3.79767e-09
4.47113e-09
5.2236e-09
6.04914e-09
6.93904e-09
7.88199e-09
8.86435e-09
9.87065e-09
1.08841e-08
1.1887e-08
1.28617e-08
1.37908e-08
1.46578e-08
1.54476e-08
1.6147e-08
1.67445e-08
1.72313e-08
1.76006e-08
1.78481e-08
1.79718e-08
5.45391e-09
6.05868e-09
6.97545e-09
8.22333e-09
9.83215e-09
1.18362e-08
1.42695e-08
1.71624e-08
2.0537e-08
2.44051e-08
2.8766e-08
3.36021e-08
3.88782e-08
4.45408e-08
5.05184e-08
5.67228e-08
6.3051e-08
6.9388e-08
7.56105e-08
8.159e-08
8.71974e-08
9.23063e-08
9.67947e-08
1.00554e-07
1.03489e-07
1.05512e-07
1.06551e-07
2.12792e-08
2.36852e-08
2.7349e-08
3.23665e-08
3.88833e-08
4.70701e-08
5.71038e-08
6.91506e-08
8.33495e-08
9.97966e-08
1.18531e-07
1.39521e-07
1.62658e-07
1.87749e-07
2.14494e-07
2.42494e-07
2.7128e-07
3.00314e-07
3.29014e-07
3.56762e-07
3.82931e-07
4.069e-07
4.2807e-07
4.45881e-07
4.59828e-07
4.69475e-07
4.74451e-07
8.11967e-08
8.93826e-08
1.01752e-07
1.18528e-07
1.4008e-07
1.66841e-07
1.99196e-07
2.37464e-07
2.81849e-07
3.324e-07
3.88977e-07
4.51224e-07
5.18567e-07
5.9021e-07
6.65157e-07
7.42236e-07
8.20134e-07
8.97437e-07
9.72675e-07
1.04436e-06
1.11105e-06
1.17135e-06
1.22396e-06
1.26775e-06
1.3017e-06
1.32497e-06
1.33686e-06
2.76189e-07
2.976e-07
3.29318e-07
3.71246e-07
4.23509e-07
4.86261e-07
5.59556e-07
6.43262e-07
7.36998e-07
8.40097e-07
9.51599e-07
1.07025e-06
1.19456e-06
1.32278e-06
1.45304e-06
1.58333e-06
1.71159e-06
1.83579e-06
1.95392e-06
2.06408e-06
2.16451e-06
2.25366e-06
2.33012e-06
2.39271e-06
2.44046e-06
2.47262e-06
2.48879e-06
7.2899e-07
7.67569e-07
8.23432e-07
8.95151e-07
9.81579e-07
1.08159e-06
1.19396e-06
1.31729e-06
1.44998e-06
1.59025e-06
1.73618e-06
1.88572e-06
2.03676e-06
2.18718e-06
2.33488e-06
2.47785e-06
2.61418e-06
2.74225e-06
2.86078e-06
2.96872e-06
3.06507e-06
3.14898e-06
3.21974e-06
3.27682e-06
3.31984e-06
3.34856e-06
3.36289e-06
1.43528e-06
1.48235e-06
1.54905e-06
1.63233e-06
1.72947e-06
1.83789e-06
1.95511e-06
2.07866e-06
2.20619e-06
2.33542e-06
2.46436e-06
2.59159e-06
2.71574e-06
2.83554e-06
2.94986e-06
3.05775e-06
3.15838e-06
3.25106e-06
3.33526e-06
3.41054e-06
3.47666e-06
3.53338e-06
3.58057e-06
3.61817e-06
3.64618e-06
3.6647e-06
3.67386e-06
2.16679e-06
2.20423e-06
2.25626e-06
2.3196e-06
2.39135e-06
2.46891e-06
2.54997e-06
2.63255e-06
2.71497e-06
2.79584e-06
2.87407e-06
2.94881e-06
3.01943e-06
3.08549e-06
3.14668e-06
3.20282e-06
3.25383e-06
3.29967e-06
3.34039e-06
3.37605e-06
3.40676e-06
3.43261e-06
3.45375e-06
3.47037e-06
3.48261e-06
3.49061e-06
3.49453e-06
2.63187e-06
2.65031e-06
2.6753e-06
2.70476e-06
2.73683e-06
2.76995e-06
2.80287e-06
2.8346e-06
2.86445e-06
2.89196e-06
2.91685e-06
2.93905e-06
2.95856e-06
2.9755e-06
2.99004e-06
3.0024e-06
3.01278e-06
3.02143e-06
3.02854e-06
3.03433e-06
3.03897e-06
3.04262e-06
3.04543e-06
3.04752e-06
3.04897e-06
3.04988e-06
3.0503e-06
2.73707e-06
2.73744e-06
2.73735e-06
2.73632e-06
2.73394e-06
2.72992e-06
2.72412e-06
2.71652e-06
2.70723e-06
2.69644e-06
2.68442e-06
2.67146e-06
2.65787e-06
2.64396e-06
2.63004e-06
2.61638e-06
2.60322e-06
2.59078e-06
2.57924e-06
2.56875e-06
2.55943e-06
2.55137e-06
2.54462e-06
2.53924e-06
2.53522e-06
2.53258e-06
2.53127e-06
2.5498e-06
2.53902e-06
2.52374e-06
2.50464e-06
2.48234e-06
2.45744e-06
2.43052e-06
2.40214e-06
2.37283e-06
2.34309e-06
2.31339e-06
2.28414e-06
2.2557e-06
2.22839e-06
2.20248e-06
2.17819e-06
2.15569e-06
2.13512e-06
2.11658e-06
2.10014e-06
2.08584e-06
2.07369e-06
2.06367e-06
2.05576e-06
2.04993e-06
2.04611e-06
2.04424e-06
2.20738e-06
2.19238e-06
2.17145e-06
2.14583e-06
2.11662e-06
2.0848e-06
2.05123e-06
2.01667e-06
1.9818e-06
1.94717e-06
1.91327e-06
1.8805e-06
1.84917e-06
1.81954e-06
1.79182e-06
1.76615e-06
1.74264e-06
1.72136e-06
1.70235e-06
1.68564e-06
1.67119e-06
1.65898e-06
1.64897e-06
1.6411e-06
1.63532e-06
1.63155e-06
1.62971e-06
1.82702e-06
1.81211e-06
1.79143e-06
1.76632e-06
1.73792e-06
1.70727e-06
1.67524e-06
1.64258e-06
1.60992e-06
1.57779e-06
1.54659e-06
1.51667e-06
1.48828e-06
1.46161e-06
1.43682e-06
1.41399e-06
1.39319e-06
1.37446e-06
1.3578e-06
1.3432e-06
1.33063e-06
1.32003e-06
1.31137e-06
1.30458e-06
1.2996e-06
1.29636e-06
1.29478e-06
1.47624e-06
1.46333e-06
1.44549e-06
1.42389e-06
1.39957e-06
1.37342e-06
1.34623e-06
1.31862e-06
1.29114e-06
1.26422e-06
1.23818e-06
1.21331e-06
1.1898e-06
1.1678e-06
1.1474e-06
1.12867e-06
1.11166e-06
1.09637e-06
1.0828e-06
1.07093e-06
1.06074e-06
1.05216e-06
1.04516e-06
1.03968e-06
1.03567e-06
1.03306e-06
1.03179e-06
1.18156e-06
1.17113e-06
1.15673e-06
1.13932e-06
1.11976e-06
1.09877e-06
1.07699e-06
1.05493e-06
1.03301e-06
1.01158e-06
9.909e-07
9.71181e-07
9.52573e-07
9.35186e-07
9.19093e-07
9.04342e-07
8.90955e-07
8.7894e-07
8.68288e-07
8.58982e-07
8.50993e-07
8.44288e-07
8.38818e-07
8.3454e-07
8.31408e-07
8.29372e-07
8.28381e-07
9.46067e-07
9.37918e-07
9.2667e-07
9.13088e-07
8.97836e-07
8.81488e-07
8.64532e-07
8.47375e-07
8.30346e-07
8.1371e-07
7.97671e-07
7.82389e-07
7.67978e-07
7.54522e-07
7.42075e-07
7.30673e-07
7.20331e-07
7.11053e-07
7.02832e-07
6.95651e-07
6.89488e-07
6.84317e-07
6.80107e-07
6.76814e-07
6.74404e-07
6.72839e-07
6.72076e-07
7.62641e-07
7.56368e-07
7.47712e-07
7.3726e-07
7.25525e-07
7.1295e-07
6.9991e-07
6.86718e-07
6.73626e-07
6.60839e-07
6.48514e-07
6.3677e-07
6.25698e-07
6.15361e-07
6.058e-07
5.97042e-07
5.89099e-07
5.81973e-07
5.75659e-07
5.70143e-07
5.65409e-07
5.61435e-07
5.58198e-07
5.5567e-07
5.53824e-07
5.52625e-07
5.52041e-07
6.21385e-07
6.16574e-07
6.09935e-07
6.01918e-07
5.92916e-07
5.83267e-07
5.7326e-07
5.63133e-07
5.53083e-07
5.43263e-07
5.33796e-07
5.24774e-07
5.16266e-07
5.08321e-07
5.00971e-07
4.94237e-07
4.88128e-07
4.82647e-07
4.77789e-07
4.73545e-07
4.69901e-07
4.66841e-07
4.64348e-07
4.624e-07
4.60976e-07
4.60053e-07
4.59604e-07
5.1289e-07
5.0919e-07
5.04084e-07
4.97915e-07
4.90986e-07
4.83557e-07
4.75848e-07
4.68044e-07
4.60294e-07
4.5272e-07
4.45414e-07
4.38449e-07
4.31877e-07
4.25738e-07
4.20056e-07
4.14848e-07
4.10123e-07
4.05881e-07
4.02119e-07
3.98832e-07
3.96009e-07
3.93638e-07
3.91704e-07
3.90193e-07
3.89087e-07
3.88369e-07
3.8802e-07
4.29341e-07
4.26476e-07
4.22521e-07
4.17743e-07
4.12372e-07
4.0661e-07
4.00629e-07
3.9457e-07
3.8855e-07
3.82662e-07
3.7698e-07
3.71559e-07
3.66442e-07
3.61659e-07
3.57229e-07
3.53168e-07
3.4948e-07
3.46169e-07
3.43231e-07
3.40663e-07
3.38457e-07
3.36603e-07
3.3509e-07
3.33908e-07
3.33042e-07
3.32479e-07
3.32206e-07
3.6463e-07
3.62393e-07
3.59303e-07
3.55567e-07
3.51366e-07
3.46856e-07
3.42172e-07
3.37424e-07
3.32702e-07
3.28082e-07
3.23619e-07
3.19359e-07
3.15334e-07
3.1157e-07
3.08082e-07
3.04882e-07
3.01975e-07
2.99363e-07
2.97045e-07
2.95017e-07
2.93274e-07
2.91809e-07
2.90614e-07
2.89679e-07
2.88994e-07
2.88549e-07
2.88333e-07
3.14131e-07
3.12366e-07
3.09926e-07
3.06975e-07
3.03655e-07
3.00089e-07
2.96382e-07
2.92621e-07
2.88879e-07
2.85214e-07
2.81671e-07
2.78286e-07
2.75087e-07
2.72091e-07
2.69314e-07
2.66764e-07
2.64447e-07
2.62363e-07
2.60512e-07
2.58893e-07
2.57501e-07
2.56329e-07
2.55374e-07
2.54626e-07
2.54078e-07
2.53721e-07
2.53548e-07
2.74384e-07
2.72976e-07
2.71029e-07
2.68672e-07
2.6602e-07
2.63168e-07
2.60202e-07
2.5719e-07
2.54191e-07
2.51251e-07
2.48406e-07
2.45687e-07
2.43113e-07
2.40702e-07
2.38466e-07
2.3641e-07
2.3454e-07
2.32858e-07
2.31363e-07
2.30054e-07
2.28928e-07
2.2798e-07
2.27207e-07
2.26601e-07
2.26157e-07
2.25868e-07
2.25727e-07
2.42816e-07
2.4168e-07
2.40109e-07
2.38206e-07
2.36063e-07
2.33757e-07
2.31356e-07
2.28917e-07
2.26485e-07
2.24099e-07
2.21789e-07
2.19578e-07
2.17485e-07
2.15521e-07
2.13698e-07
2.12021e-07
2.10495e-07
2.0912e-07
2.07898e-07
2.06827e-07
2.05905e-07
2.05129e-07
2.04495e-07
2.03998e-07
2.03634e-07
2.03397e-07
2.03281e-07
2.17512e-07
2.16585e-07
2.15302e-07
2.13749e-07
2.11997e-07
2.10111e-07
2.08146e-07
2.06148e-07
2.04154e-07
2.02196e-07
2.00298e-07
1.98479e-07
1.96756e-07
1.95138e-07
1.93634e-07
1.9225e-07
1.90989e-07
1.89853e-07
1.88842e-07
1.87955e-07
1.87191e-07
1.86547e-07
1.86021e-07
1.85608e-07
1.85306e-07
1.85109e-07
1.85013e-07
1.9704e-07
1.96276e-07
1.95217e-07
1.93934e-07
1.92487e-07
1.90927e-07
1.893e-07
1.87644e-07
1.85991e-07
1.84365e-07
1.82788e-07
1.81275e-07
1.7984e-07
1.78491e-07
1.77237e-07
1.76081e-07
1.75027e-07
1.74076e-07
1.73229e-07
1.72486e-07
1.71846e-07
1.71305e-07
1.70864e-07
1.70517e-07
1.70263e-07
1.70097e-07
1.70016e-07
1.80327e-07
1.79689e-07
1.78806e-07
1.77735e-07
1.76525e-07
1.75221e-07
1.73859e-07
1.72472e-07
1.71085e-07
1.6972e-07
1.68395e-07
1.67122e-07
1.65913e-07
1.64777e-07
1.63718e-07
1.62742e-07
1.6185e-07
1.61046e-07
1.60329e-07
1.59699e-07
1.59155e-07
1.58697e-07
1.58321e-07
1.58027e-07
1.5781e-07
1.57669e-07
1.576e-07
1.66559e-07
1.66021e-07
1.65276e-07
1.64372e-07
1.63351e-07
1.62248e-07
1.61096e-07
1.59921e-07
1.58745e-07
1.57587e-07
1.56461e-07
1.55379e-07
1.54349e-07
1.53381e-07
1.52477e-07
1.51643e-07
1.50882e-07
1.50193e-07
1.49579e-07
1.49039e-07
1.48572e-07
1.48179e-07
1.47856e-07
1.47603e-07
1.47416e-07
1.47295e-07
1.47236e-07
1.55118e-07
1.5466e-07
1.54025e-07
1.53254e-07
1.52382e-07
1.5144e-07
1.50455e-07
1.4945e-07
1.48442e-07
1.47449e-07
1.46482e-07
1.45552e-07
1.44666e-07
1.43831e-07
1.43053e-07
1.42333e-07
1.41674e-07
1.41079e-07
1.40547e-07
1.40079e-07
1.39675e-07
1.39333e-07
1.39053e-07
1.38832e-07
1.3867e-07
1.38565e-07
1.38513e-07
1.45529e-07
1.45135e-07
1.44588e-07
1.43924e-07
1.43172e-07
1.4236e-07
1.41509e-07
1.40639e-07
1.39768e-07
1.38907e-07
1.38068e-07
1.3726e-07
1.36491e-07
1.35764e-07
1.35086e-07
1.34458e-07
1.33883e-07
1.33363e-07
1.32898e-07
1.32488e-07
1.32134e-07
1.31834e-07
1.31588e-07
1.31395e-07
1.31252e-07
1.31159e-07
1.31114e-07
1.37426e-07
1.37083e-07
1.36608e-07
1.3603e-07
1.35375e-07
1.34667e-07
1.33925e-07
1.33166e-07
1.32404e-07
1.31651e-07
1.30917e-07
1.30209e-07
1.29533e-07
1.28895e-07
1.28298e-07
1.27745e-07
1.27238e-07
1.26779e-07
1.26368e-07
1.26006e-07
1.25693e-07
1.25427e-07
1.25209e-07
1.25038e-07
1.24911e-07
1.24829e-07
1.24788e-07
1.30521e-07
1.30221e-07
1.29804e-07
1.29296e-07
1.28721e-07
1.28099e-07
1.27445e-07
1.26776e-07
1.26104e-07
1.25439e-07
1.2479e-07
1.24163e-07
1.23565e-07
1.22999e-07
1.22469e-07
1.21977e-07
1.21527e-07
1.21118e-07
1.20751e-07
1.20428e-07
1.20148e-07
1.19911e-07
1.19716e-07
1.19562e-07
1.19449e-07
1.19375e-07
1.19339e-07
1.24592e-07
1.24326e-07
1.23957e-07
1.23507e-07
1.22997e-07
1.22445e-07
1.21864e-07
1.2127e-07
1.20672e-07
1.20079e-07
1.195e-07
1.1894e-07
1.18405e-07
1.17899e-07
1.17424e-07
1.16984e-07
1.16579e-07
1.16212e-07
1.15882e-07
1.15591e-07
1.15339e-07
1.15125e-07
1.14949e-07
1.14811e-07
1.14708e-07
1.14641e-07
1.14609e-07
1.1946e-07
1.19222e-07
1.18892e-07
1.18491e-07
1.18035e-07
1.1754e-07
1.1702e-07
1.16487e-07
1.1595e-07
1.15418e-07
1.14897e-07
1.14393e-07
1.1391e-07
1.13453e-07
1.13025e-07
1.12626e-07
1.1226e-07
1.11927e-07
1.11628e-07
1.11364e-07
1.11135e-07
1.10941e-07
1.10781e-07
1.10654e-07
1.10561e-07
1.105e-07
1.1047e-07
1.14982e-07
1.14768e-07
1.14471e-07
1.14109e-07
1.13698e-07
1.13251e-07
1.12782e-07
1.123e-07
1.11814e-07
1.11332e-07
1.10859e-07
1.10402e-07
1.09963e-07
1.09548e-07
1.09157e-07
1.08794e-07
1.0846e-07
1.08156e-07
1.07883e-07
1.07642e-07
1.07432e-07
1.07254e-07
1.07107e-07
1.06991e-07
1.06905e-07
1.06849e-07
1.06822e-07
1.11044e-07
1.1085e-07
1.1058e-07
1.10252e-07
1.09878e-07
1.09472e-07
1.09044e-07
1.08605e-07
1.08162e-07
1.07721e-07
1.07289e-07
1.06871e-07
1.06469e-07
1.06088e-07
1.0573e-07
1.05397e-07
1.05089e-07
1.0481e-07
1.04558e-07
1.04336e-07
1.04142e-07
1.03978e-07
1.03842e-07
1.03735e-07
1.03656e-07
1.03604e-07
1.03578e-07
1.07552e-07
1.07375e-07
1.07128e-07
1.06827e-07
1.06485e-07
1.06112e-07
1.0572e-07
1.05317e-07
1.04909e-07
1.04504e-07
1.04106e-07
1.03721e-07
1.0335e-07
1.02998e-07
1.02667e-07
1.02358e-07
1.02074e-07
1.01814e-07
1.01581e-07
1.01375e-07
1.01195e-07
1.01042e-07
1.00916e-07
1.00816e-07
1.00742e-07
1.00694e-07
1.0067e-07
1.04429e-07
1.04266e-07
1.04038e-07
1.0376e-07
1.03444e-07
1.031e-07
1.02738e-07
1.02364e-07
1.01987e-07
1.01611e-07
1.01242e-07
1.00884e-07
1.0054e-07
1.00212e-07
9.99038e-08
9.96161e-08
9.93507e-08
9.91087e-08
9.88907e-08
9.86975e-08
9.85292e-08
9.8386e-08
9.82677e-08
9.81742e-08
9.81051e-08
9.80596e-08
9.80373e-08
1.0161e-07
1.01458e-07
1.01247e-07
1.00988e-07
1.00694e-07
1.00374e-07
1.00036e-07
9.96883e-08
9.93362e-08
9.89854e-08
9.86405e-08
9.83053e-08
9.79828e-08
9.76759e-08
9.73865e-08
9.71164e-08
9.68671e-08
9.66395e-08
9.64344e-08
9.62524e-08
9.60938e-08
9.59588e-08
9.58473e-08
9.5759e-08
9.56936e-08
9.56507e-08
9.56296e-08
9.90388e-08
9.88967e-08
9.86988e-08
9.8457e-08
9.81814e-08
9.78811e-08
9.7564e-08
9.7237e-08
9.69059e-08
9.65759e-08
9.6251e-08
9.5935e-08
9.56309e-08
9.53411e-08
9.50676e-08
9.48123e-08
9.45763e-08
9.43607e-08
9.41664e-08
9.39938e-08
9.38434e-08
9.37152e-08
9.36092e-08
9.35253e-08
9.34632e-08
9.34223e-08
9.34023e-08
9.66683e-08
9.65342e-08
9.63475e-08
9.61191e-08
9.58587e-08
9.55748e-08
9.52749e-08
9.49653e-08
9.46516e-08
9.43386e-08
9.40304e-08
9.37303e-08
9.34412e-08
9.31655e-08
9.29052e-08
9.26619e-08
9.2437e-08
9.22314e-08
9.20459e-08
9.1881e-08
9.17373e-08
9.16147e-08
9.15133e-08
9.1433e-08
9.13735e-08
9.13344e-08
9.13152e-08
9.44555e-08
9.4328e-08
9.41503e-08
9.39329e-08
9.36849e-08
9.34143e-08
9.31282e-08
9.28327e-08
9.25332e-08
9.2234e-08
9.19391e-08
9.16518e-08
9.13749e-08
9.11106e-08
9.08609e-08
9.06274e-08
9.04113e-08
9.02137e-08
9.00353e-08
8.98767e-08
8.97383e-08
8.96203e-08
8.95226e-08
8.94452e-08
8.93878e-08
8.93501e-08
8.93315e-08
9.23615e-08
9.22392e-08
9.20687e-08
9.18599e-08
9.16216e-08
9.13616e-08
9.10864e-08
9.0802e-08
9.05134e-08
9.02251e-08
8.99406e-08
8.96634e-08
8.93959e-08
8.91405e-08
8.8899e-08
8.8673e-08
8.84638e-08
8.82724e-08
8.80995e-08
8.79457e-08
8.78114e-08
8.76969e-08
8.7602e-08
8.75269e-08
8.74711e-08
8.74344e-08
8.74164e-08
9.035e-08
9.02316e-08
9.00664e-08
8.98641e-08
8.96331e-08
8.93808e-08
8.91137e-08
8.88375e-08
8.85571e-08
8.82767e-08
8.79999e-08
8.773e-08
8.74694e-08
8.72204e-08
8.69849e-08
8.67644e-08
8.65601e-08
8.63731e-08
8.62042e-08
8.60538e-08
8.59225e-08
8.58104e-08
8.57176e-08
8.5644e-08
8.55894e-08
8.55535e-08
8.55358e-08
8.83859e-08
8.82701e-08
8.81085e-08
8.79106e-08
8.76845e-08
8.74374e-08
8.71756e-08
8.69048e-08
8.66297e-08
8.63544e-08
8.60826e-08
8.58173e-08
8.55611e-08
8.53162e-08
8.50844e-08
8.48673e-08
8.46661e-08
8.44818e-08
8.43153e-08
8.4167e-08
8.40375e-08
8.39268e-08
8.38352e-08
8.37626e-08
8.37087e-08
8.36732e-08
8.36558e-08
8.64344e-08
8.632e-08
8.61603e-08
8.59646e-08
8.5741e-08
8.54965e-08
8.52374e-08
8.49692e-08
8.46966e-08
8.44237e-08
8.41541e-08
8.38908e-08
8.36365e-08
8.33932e-08
8.31629e-08
8.29471e-08
8.2747e-08
8.25638e-08
8.23981e-08
8.22505e-08
8.21216e-08
8.20115e-08
8.19202e-08
8.18479e-08
8.17942e-08
8.17589e-08
8.17415e-08
8.44602e-08
8.43459e-08
8.41864e-08
8.39909e-08
8.37673e-08
8.35228e-08
8.32636e-08
8.29952e-08
8.27222e-08
8.24488e-08
8.21787e-08
8.19147e-08
8.16596e-08
8.14156e-08
8.11844e-08
8.09678e-08
8.07669e-08
8.05829e-08
8.04164e-08
8.02682e-08
8.01387e-08
8.0028e-08
7.99363e-08
7.98636e-08
7.98096e-08
7.97741e-08
7.97566e-08
8.24268e-08
8.23114e-08
8.21503e-08
8.19527e-08
8.17267e-08
8.14795e-08
8.12173e-08
8.09456e-08
8.06693e-08
8.03925e-08
8.01189e-08
7.98514e-08
7.95929e-08
7.93455e-08
7.91112e-08
7.88916e-08
7.86878e-08
7.85012e-08
7.83323e-08
7.8182e-08
7.80505e-08
7.79382e-08
7.78452e-08
7.77715e-08
7.77167e-08
7.76807e-08
7.76629e-08
8.02957e-08
8.01778e-08
8.00132e-08
7.98113e-08
7.95803e-08
7.93275e-08
7.90593e-08
7.87814e-08
7.84986e-08
7.82153e-08
7.79352e-08
7.76613e-08
7.73966e-08
7.71432e-08
7.69032e-08
7.66782e-08
7.64695e-08
7.62783e-08
7.61053e-08
7.59513e-08
7.58167e-08
7.57017e-08
7.56064e-08
7.55308e-08
7.54748e-08
7.54379e-08
7.54197e-08
7.80262e-08
7.79044e-08
7.77343e-08
7.75256e-08
7.72869e-08
7.70255e-08
7.67482e-08
7.64608e-08
7.61684e-08
7.58753e-08
7.55855e-08
7.53022e-08
7.50283e-08
7.47662e-08
7.45179e-08
7.42851e-08
7.40692e-08
7.38714e-08
7.36926e-08
7.35333e-08
7.33941e-08
7.32752e-08
7.31767e-08
7.30987e-08
7.30407e-08
7.30026e-08
7.29838e-08
7.5575e-08
7.54478e-08
7.52702e-08
7.50522e-08
7.48028e-08
7.45298e-08
7.42401e-08
7.39399e-08
7.36343e-08
7.33282e-08
7.30254e-08
7.27295e-08
7.24434e-08
7.21697e-08
7.19104e-08
7.16674e-08
7.14421e-08
7.12356e-08
7.1049e-08
7.08829e-08
7.07377e-08
7.06138e-08
7.05112e-08
7.04298e-08
7.03694e-08
7.03297e-08
7.03102e-08
7.28965e-08
7.27624e-08
7.2575e-08
7.23452e-08
7.20822e-08
7.17944e-08
7.1489e-08
7.11725e-08
7.08504e-08
7.05277e-08
7.02087e-08
6.9897e-08
6.95956e-08
6.93074e-08
6.90345e-08
6.87787e-08
6.85417e-08
6.83246e-08
6.81284e-08
6.79538e-08
6.78013e-08
6.76711e-08
6.75634e-08
6.7478e-08
6.74147e-08
6.7373e-08
6.73525e-08
6.99435e-08
6.98009e-08
6.96018e-08
6.93575e-08
6.90781e-08
6.87723e-08
6.84478e-08
6.81116e-08
6.77696e-08
6.74271e-08
6.70886e-08
6.67579e-08
6.64384e-08
6.61329e-08
6.58438e-08
6.5573e-08
6.53221e-08
6.50924e-08
6.4885e-08
6.47004e-08
6.45393e-08
6.44019e-08
6.42881e-08
6.4198e-08
6.41312e-08
6.40873e-08
6.40657e-08
6.66692e-08
6.65168e-08
6.63038e-08
6.60427e-08
6.5744e-08
6.54172e-08
6.50707e-08
6.47117e-08
6.43468e-08
6.39814e-08
6.36205e-08
6.32681e-08
6.29279e-08
6.26027e-08
6.22952e-08
6.20073e-08
6.17407e-08
6.14969e-08
6.12767e-08
6.1081e-08
6.09102e-08
6.07646e-08
6.06441e-08
6.05488e-08
6.04781e-08
6.04317e-08
6.04088e-08
6.30301e-08
6.28666e-08
6.26382e-08
6.23581e-08
6.20379e-08
6.16878e-08
6.13167e-08
6.09325e-08
6.05422e-08
6.01517e-08
5.97662e-08
5.93901e-08
5.90272e-08
5.86807e-08
5.83532e-08
5.80468e-08
5.77634e-08
5.75043e-08
5.72706e-08
5.70629e-08
5.68818e-08
5.67275e-08
5.66e-08
5.6499e-08
5.64243e-08
5.63752e-08
5.63511e-08
5.89915e-08
5.8816e-08
5.85711e-08
5.82709e-08
5.79279e-08
5.75531e-08
5.71562e-08
5.67455e-08
5.63287e-08
5.5912e-08
5.55011e-08
5.51005e-08
5.47144e-08
5.4346e-08
5.39981e-08
5.3673e-08
5.33724e-08
5.30979e-08
5.28504e-08
5.26307e-08
5.24393e-08
5.22763e-08
5.21417e-08
5.20352e-08
5.19564e-08
5.19047e-08
5.18793e-08
5.45359e-08
5.43486e-08
5.40871e-08
5.3767e-08
5.34014e-08
5.30021e-08
5.25797e-08
5.21432e-08
5.17004e-08
5.12581e-08
5.08222e-08
5.03974e-08
4.99878e-08
4.95968e-08
4.92269e-08
4.88803e-08
4.85592e-08
4.82656e-08
4.80007e-08
4.77654e-08
4.75602e-08
4.73855e-08
4.72412e-08
4.71269e-08
4.70424e-08
4.69868e-08
4.69596e-08
4.96709e-08
4.94716e-08
4.91932e-08
4.88511e-08
4.84593e-08
4.80311e-08
4.75782e-08
4.71105e-08
4.66364e-08
4.61632e-08
4.56971e-08
4.52432e-08
4.4806e-08
4.43891e-08
4.39957e-08
4.36284e-08
4.32894e-08
4.298e-08
4.27015e-08
4.24545e-08
4.22395e-08
4.20566e-08
4.19057e-08
4.17864e-08
4.16981e-08
4.16402e-08
4.16118e-08
4.43484e-08
4.41356e-08
4.38391e-08
4.34766e-08
4.30636e-08
4.26139e-08
4.21393e-08
4.16505e-08
4.11563e-08
4.06644e-08
4.01814e-08
3.97125e-08
3.92624e-08
3.88348e-08
3.84325e-08
3.80579e-08
3.77128e-08
3.73987e-08
3.71163e-08
3.68663e-08
3.6649e-08
3.64644e-08
3.63122e-08
3.6192e-08
3.61032e-08
3.6045e-08
3.60164e-08
3.86911e-08
3.84741e-08
3.81721e-08
3.78035e-08
3.73843e-08
3.69288e-08
3.64492e-08
3.59563e-08
3.54591e-08
3.49655e-08
3.44818e-08
3.40135e-08
3.3565e-08
3.31397e-08
3.27405e-08
3.23695e-08
3.20284e-08
3.17184e-08
3.14402e-08
3.11942e-08
3.09807e-08
3.07994e-08
3.06502e-08
3.05325e-08
3.04455e-08
3.03886e-08
3.03606e-08
3.29211e-08
3.27064e-08
3.2408e-08
3.20444e-08
3.16318e-08
3.11843e-08
3.07142e-08
3.02322e-08
2.97472e-08
2.92669e-08
2.87974e-08
2.8344e-08
2.79106e-08
2.75007e-08
2.71167e-08
2.67606e-08
2.64338e-08
2.61372e-08
2.58715e-08
2.56369e-08
2.54336e-08
2.52611e-08
2.51193e-08
2.50075e-08
2.49249e-08
2.48709e-08
2.48443e-08
2.72435e-08
2.70382e-08
2.67531e-08
2.64064e-08
2.60138e-08
2.55889e-08
2.51438e-08
2.46885e-08
2.42318e-08
2.37805e-08
2.33407e-08
2.2917e-08
2.25132e-08
2.2132e-08
2.17758e-08
2.14462e-08
2.11443e-08
2.08708e-08
2.06262e-08
2.04105e-08
2.02238e-08
2.00657e-08
1.99357e-08
1.98334e-08
1.97578e-08
1.97084e-08
1.96841e-08
2.1876e-08
2.1687e-08
2.1425e-08
2.1107e-08
2.07476e-08
2.03598e-08
1.99545e-08
1.95413e-08
1.91278e-08
1.87206e-08
1.83248e-08
1.79446e-08
1.75832e-08
1.7243e-08
1.69259e-08
1.6633e-08
1.63654e-08
1.61235e-08
1.59074e-08
1.57173e-08
1.55529e-08
1.54138e-08
1.52996e-08
1.52098e-08
1.51435e-08
1.51002e-08
1.50789e-08
1.70225e-08
1.68556e-08
1.66247e-08
1.6345e-08
1.60296e-08
1.56902e-08
1.53366e-08
1.49771e-08
1.46185e-08
1.42665e-08
1.39254e-08
1.35987e-08
1.32891e-08
1.29985e-08
1.27282e-08
1.24794e-08