/*--------------------------------*- C++ -*----------------------------------*\
| =========                 |                                                 |
| \\      /  F ield         | OpenFOAM: The Open Source CFD Toolbox           |
|  \\    /   O peration     | Version:  2106                                  |
|   \\  /    A nd           | Website:  www.openfoam.com                      |
|    \\/     M anipulation  |                                                 |
\*---------------------------------------------------------------------------*/
FoamFile
{
    version     2.0;
    format      ascii;
    arch        "LSB;label=32;scalar=64";
    class       volScalarField;
    location    "160.00011";
    object      C2H2;
}
// * * * * * * * * * * * * * * * * * * * * * * * * * * * * * * * * * * * * * //

dimensions      [0 0 0 0 0 0 0];

internalField   nonuniform List<scalar> 
3360
(
0.334007
0.334007
0.334007
0.334007
0.334007
0.334007
0.334007
0.334007
0.334007
0.334007
0.334007
0.334007
0.334007
0.334007
0.334007
0.334007
0.334007
0.334007
0.334007
0.334007
0.334007
0.334007
0.334007
0.334007
0.334007
0.334007
0.334007
0.334007
0.334007
0.334007
0.334007
0.334007
0.334007
0.334007
0.334007
0.334007
0.334007
0.334007
0.334007
0.334007
0.334007
0.334007
0.334007
0.334007
0.334007
0.334007
0.334007
0.334007
0.334007
0.334007
0.334007
0.334007
0.334007
0.334007
0.334007
0.334007
0.334007
0.334007
0.334007
0.334007
0.334007
0.334007
0.334007
0.334007
0.334007
0.334007
0.334007
0.334007
0.334007
0.334007
0.334007
0.334007
0.334007
0.334007
0.334007
0.334007
0.334007
0.334007
0.334007
0.334007
0.334007
0.334007
0.334007
0.334007
0.334007
0.334007
0.334007
0.334007
0.334007
0.334007
0.334007
0.334007
0.334007
0.334007
0.334007
0.334007
0.334007
0.334007
0.334007
0.334007
0.334007
0.334007
0.334007
0.334007
0.334007
0.334007
0.334007
0.334007
0.334007
0.334007
0.334007
0.334007
0.334007
0.334007
0.334007
0.334007
0.334007
0.334007
0.334007
0.334007
0.334007
0.334007
0.334007
0.334007
0.334007
0.334007
0.334007
0.334007
0.334007
0.334007
0.334007
0.334007
0.334007
0.334007
0.334007
0.334007
0.334007
0.334007
0.334007
0.334007
0.334007
0.334007
0.334007
0.334007
0.334007
0.334007
0.334007
0.334007
0.334007
0.334007
0.334007
0.334007
0.334007
0.334007
0.334007
0.334007
0.334007
0.334007
0.334007
0.334007
0.334007
0.334007
0.334007
0.334007
0.334007
0.334007
0.334007
0.334007
0.334007
0.334007
0.334007
0.334007
0.334007
0.334007
0.334007
0.334007
0.334007
0.334007
0.334007
0.334007
0.334007
0.334007
0.334007
0.334007
0.334007
0.334007
0.334007
0.334007
0.334007
0.334007
0.334007
0.334007
0.334007
0.334007
0.334007
0.334007
0.334007
0.334007
0.334007
0.334007
0.334007
0.334007
0.334007
0.334007
0.334007
0.334007
0.334007
0.334007
0.334007
0.334007
0.334007
0.334007
0.334007
0.334007
0.334007
0.334007
0.334007
0.334007
0.334007
0.334007
0.334007
0.334007
0.334007
0.334007
0.334007
0.334007
0.334007
0.334007
0.334007
0.334007
0.334007
0.334007
0.334007
0.334007
0.334007
0.334007
0.334007
0.334007
0.334007
0.334007
0.334007
0.334007
0.334007
0.334007
0.334007
0.334007
0.334007
0.334007
0.334007
0.334007
0.334007
0.334007
0.334007
0.334007
0.334007
0.334007
0.334007
0.334007
0.334007
0.334007
0.334007
0.334007
0.334007
0.334007
0.334007
0.334007
0.334007
0.334007
0.334007
0.334007
0.334007
0.334007
0.334007
0.334007
0.334007
0.334007
0.334007
0.334007
0.334007
0.334007
0.334007
0.334007
0.334007
0.334007
0.334007
0.334007
0.334007
0.334007
0.334007
0.334007
0.334007
0.334007
0.334007
0.334007
0.334007
0.334007
0.334007
0.334007
0.334007
0.334007
0.334007
0.334007
0.334007
0.334007
0.334007
0.334007
0.334007
0.334007
0.334007
0.334007
0.334007
0.334007
0.334007
0.334007
0.334007
0.334007
0.334007
0.334007
0.334007
0.334007
0.334007
0.334007
0.334007
0.334007
0.334007
0.334007
0.334007
0.334007
0.334007
0.334007
0.334007
0.334007
0.334007
0.334007
0.334007
0.334007
0.334007
0.334007
0.334007
0.334007
0.334007
0.334007
0.334007
0.334007
0.334007
0.334007
0.334007
0.334007
0.334007
0.334007
0.334007
0.334007
0.334007
0.334007
0.334007
0.334007
0.334007
0.334007
0.334007
0.334007
0.334007
0.334007
0.334007
0.334007
0.334007
0.334007
0.334007
0.334007
0.334007
0.334007
0.334007
0.334007
0.334007
0.334007
0.334007
0.334007
0.334007
0.334007
0.334007
0.334007
0.334007
0.334007
0.334007
0.334007
0.334007
0.334007
0.334007
0.334007
0.334007
0.334007
0.334007
0.334007
0.334007
0.334007
0.334007
0.334007
0.334007
0.334007
0.334007
0.334007
0.334007
0.334007
0.334007
0.334007
0.334007
0.334007
0.334007
0.334007
0.334007
0.334007
0.334007
0.334007
0.334007
0.334007
0.334007
0.334007
0.334007
0.334007
0.334007
0.334007
0.334007
0.334007
0.334007
0.334007
0.334007
0.334007
0.334007
0.334007
0.334007
0.334007
0.334007
0.334007
0.334007
0.334007
0.334007
0.334007
0.334007
0.334007
0.334007
0.334007
0.334007
0.334007
0.334007
0.334007
0.334007
0.334007
0.334007
0.334007
0.334007
0.334007
0.334007
0.334007
0.334007
0.334007
0.334007
0.334007
0.334007
0.334007
0.334007
0.334007
0.334007
0.334007
0.334007
0.334007
0.334007
0.334007
0.334007
0.334007
0.334007
0.334007
0.334007
0.334007
0.334007
0.334007
0.334007
0.334007
0.334007
0.334007
0.334007
0.334007
0.334007
0.334007
0.334006
0.334006
0.334006
0.334006
0.334007
0.334007
0.334007
0.334007
0.334006
0.334006
0.334006
0.334006
0.334006
0.334006
0.334006
0.334006
0.334006
0.334006
0.334006
0.334006
0.334006
0.334006
0.334006
0.334006
0.334006
0.334006
0.334006
0.334006
0.334006
0.334006
0.334006
0.334006
0.334006
0.334006
0.334006
0.334006
0.334005
0.334005
0.334005
0.334005
0.334005
0.334005
0.334005
0.334004
0.334004
0.334004
0.334004
0.334004
0.334004
0.334004
0.334004
0.334004
0.334003
0.334003
0.334003
0.334003
0.334003
0.334003
0.334004
0.334004
0.334004
0.334003
0.334003
0.334003
0.334002
0.334002
0.334002
0.334001
0.334001
0.334001
0.334
0.334
0.334
0.333999
0.333999
0.333999
0.333999
0.333998
0.333998
0.333998
0.333998
0.333998
0.333998
0.333998
0.333998
0.333999
0.333999
0.333998
0.333998
0.333997
0.333996
0.333995
0.333994
0.333994
0.333993
0.333992
0.333991
0.33399
0.333989
0.333989
0.333988
0.333987
0.333987
0.333986
0.333986
0.333985
0.333985
0.333985
0.333985
0.333985
0.333985
0.333984
0.333987
0.333986
0.333985
0.333983
0.333982
0.33398
0.333978
0.333976
0.333974
0.333972
0.33397
0.333968
0.333966
0.333965
0.333963
0.333962
0.33396
0.333959
0.333958
0.333957
0.333956
0.333956
0.333955
0.333955
0.333955
0.333954
0.333954
0.333957
0.333955
0.333953
0.33395
0.333946
0.333942
0.333938
0.333934
0.33393
0.333926
0.333921
0.333917
0.333913
0.33391
0.333907
0.333903
0.333901
0.333898
0.333896
0.333894
0.333893
0.333891
0.33389
0.33389
0.333889
0.333889
0.333888
0.33389
0.333886
0.333881
0.333875
0.333867
0.333859
0.333851
0.333842
0.333833
0.333825
0.333816
0.333808
0.3338
0.333793
0.333786
0.33378
0.333775
0.33377
0.333765
0.333762
0.333759
0.333756
0.333754
0.333752
0.333751
0.33375
0.33375
0.333745
0.333737
0.333727
0.333714
0.333699
0.333683
0.333667
0.33365
0.333632
0.333615
0.333599
0.333583
0.333568
0.333554
0.333541
0.333529
0.333518
0.333509
0.3335
0.333493
0.333487
0.333482
0.333478
0.333475
0.333473
0.333472
0.333471
0.333446
0.333432
0.333412
0.333388
0.33336
0.33333
0.333298
0.333265
0.333232
0.3332
0.333168
0.333138
0.33311
0.333083
0.333058
0.333036
0.333016
0.332998
0.332982
0.332968
0.332957
0.332948
0.33294
0.332934
0.33293
0.332927
0.332926
0.332869
0.332843
0.332806
0.332761
0.33271
0.332654
0.332595
0.332535
0.332474
0.332414
0.332355
0.332299
0.332246
0.332196
0.33215
0.332108
0.33207
0.332036
0.332006
0.331981
0.331959
0.331942
0.331927
0.331916
0.331908
0.331904
0.331901
0.331819
0.331772
0.331706
0.331626
0.331535
0.331436
0.331331
0.331223
0.331114
0.331006
0.330901
0.3308
0.330704
0.330614
0.330531
0.330455
0.330386
0.330324
0.33027
0.330223
0.330183
0.33015
0.330124
0.330104
0.330089
0.33008
0.330076
0.330032
0.329954
0.329845
0.329711
0.329558
0.329392
0.329216
0.329035
0.328853
0.328672
0.328495
0.328324
0.328162
0.32801
0.327868
0.327739
0.327621
0.327516
0.327423
0.327343
0.327274
0.327218
0.327172
0.327137
0.327112
0.327096
0.327088
0.32723
0.32711
0.326943
0.326738
0.326504
0.326249
0.325981
0.325704
0.325425
0.325149
0.32488
0.32462
0.324373
0.324142
0.323926
0.323729
0.323551
0.323391
0.32325
0.323128
0.323025
0.322939
0.32287
0.322817
0.322778
0.322754
0.322742
0.323218
0.323052
0.322821
0.322539
0.322218
0.32187
0.321504
0.321129
0.320752
0.32038
0.320018
0.319671
0.319343
0.319036
0.318752
0.318492
0.318258
0.31805
0.317867
0.317709
0.317575
0.317464
0.317375
0.317307
0.317258
0.317227
0.317212
0.318005
0.317801
0.317519
0.317175
0.316786
0.316366
0.315927
0.315479
0.315033
0.314595
0.314172
0.313769
0.31339
0.313038
0.312715
0.312421
0.312158
0.311926
0.311723
0.311549
0.311402
0.311281
0.311185
0.311111
0.311058
0.311025
0.311009
0.311869
0.311648
0.311341
0.31097
0.310552
0.310102
0.309636
0.309164
0.308697
0.308242
0.307805
0.307393
0.307008
0.306652
0.306327
0.306033
0.305772
0.305541
0.305341
0.30517
0.305026
0.304908
0.304814
0.304742
0.304691
0.304659
0.304643
0.305291
0.305074
0.304775
0.304414
0.304009
0.303577
0.303129
0.302679
0.302234
0.301804
0.301393
0.301006
0.300645
0.300314
0.300012
0.299741
0.299499
0.299287
0.299103
0.298946
0.298815
0.298707
0.298621
0.298556
0.29851
0.29848
0.298466
0.298773
0.298576
0.298304
0.297976
0.29761
0.297219
0.296816
0.296411
0.296013
0.295628
0.295261
0.294916
0.294596
0.294302
0.294034
0.293794
0.29358
0.293393
0.293231
0.293092
0.292976
0.292881
0.292805
0.292748
0.292707
0.292681
0.292669
0.292647
0.292474
0.292237
0.291951
0.291631
0.291291
0.29094
0.290588
0.290241
0.289906
0.289587
0.289287
0.289009
0.288752
0.28852
0.288311
0.288125
0.287961
0.28782
0.287699
0.287597
0.287514
0.287448
0.287398
0.287362
0.287339
0.287329
0.28707
0.286922
0.286717
0.286471
0.286196
0.285902
0.285599
0.285295
0.284995
0.284705
0.284429
0.284169
0.283927
0.283704
0.283501
0.283319
0.283157
0.283014
0.28289
0.282784
0.282695
0.282622
0.282564
0.28252
0.282489
0.282469
0.282459
0.282069
0.281941
0.281764
0.28155
0.281312
0.281057
0.280793
0.280528
0.280267
0.280014
0.279773
0.279545
0.279332
0.279137
0.278959
0.278798
0.278655
0.278529
0.278419
0.278325
0.278247
0.278182
0.278131
0.278091
0.278063
0.278045
0.278037
0.277595
0.277483
0.277328
0.27714
0.27693
0.276706
0.276474
0.27624
0.276009
0.275784
0.27557
0.275368
0.275179
0.275005
0.274846
0.274702
0.274574
0.274461
0.274363
0.274279
0.274208
0.27415
0.274104
0.274069
0.274043
0.274027
0.27402
0.273577
0.273477
0.273338
0.273171
0.272983
0.272782
0.272574
0.272364
0.272157
0.271955
0.271762
0.271579
0.271409
0.271252
0.271108
0.270978
0.270862
0.27076
0.270671
0.270595
0.27053
0.270478
0.270435
0.270403
0.27038
0.270366
0.270359
0.269941
0.26985
0.269724
0.269572
0.269402
0.269219
0.26903
0.268839
0.26865
0.268466
0.26829
0.268123
0.267968
0.267824
0.267692
0.267573
0.267467
0.267374
0.267292
0.267222
0.267163
0.267115
0.267076
0.267046
0.267025
0.267012
0.267005
0.266622
0.266539
0.266423
0.266284
0.266127
0.265959
0.265785
0.265609
0.265435
0.265265
0.265103
0.264949
0.264805
0.264673
0.264551
0.264441
0.264343
0.264256
0.264181
0.264116
0.264062
0.264017
0.263981
0.263954
0.263934
0.263922
0.263916
0.263568
0.263491
0.263384
0.263254
0.263109
0.262953
0.262791
0.262628
0.262466
0.262308
0.262157
0.262014
0.26188
0.261757
0.261643
0.261541
0.26145
0.261369
0.261299
0.261238
0.261187
0.261146
0.261112
0.261087
0.261068
0.261057
0.261051
0.260737
0.260665
0.260565
0.260443
0.260307
0.260161
0.26001
0.259857
0.259705
0.259558
0.259416
0.259282
0.259157
0.259041
0.258935
0.258839
0.258753
0.258677
0.258611
0.258555
0.258507
0.258468
0.258437
0.258413
0.258396
0.258385
0.25838
0.258094
0.258026
0.257932
0.257818
0.25769
0.257553
0.25741
0.257266
0.257123
0.256984
0.256851
0.256724
0.256606
0.256497
0.256397
0.256307
0.256226
0.256154
0.256092
0.256039
0.255994
0.255957
0.255927
0.255905
0.255889
0.255878
0.255874
0.255613
0.255549
0.25546
0.255352
0.255231
0.255101
0.254966
0.254829
0.254694
0.254563
0.254436
0.254317
0.254205
0.254102
0.254007
0.253921
0.253845
0.253777
0.253718
0.253668
0.253625
0.25359
0.253562
0.253541
0.253525
0.253516
0.253511
0.253272
0.25321
0.253126
0.253023
0.252908
0.252785
0.252656
0.252527
0.252398
0.252273
0.252153
0.25204
0.251933
0.251835
0.251745
0.251664
0.251591
0.251527
0.251471
0.251422
0.251382
0.251349
0.251322
0.251302
0.251287
0.251278
0.251274
0.251052
0.250993
0.250913
0.250815
0.250705
0.250587
0.250465
0.250341
0.250219
0.2501
0.249985
0.249877
0.249775
0.249681
0.249596
0.249518
0.249449
0.249387
0.249334
0.249288
0.249249
0.249218
0.249192
0.249173
0.249159
0.24915
0.249146
0.248939
0.248883
0.248806
0.248712
0.248607
0.248494
0.248377
0.248259
0.248142
0.248028
0.247918
0.247814
0.247717
0.247628
0.247545
0.247471
0.247405
0.247346
0.247295
0.247251
0.247214
0.247184
0.247159
0.247141
0.247127
0.247119
0.247115
0.24692
0.246867
0.246793
0.246703
0.246602
0.246494
0.246382
0.246268
0.246156
0.246046
0.245941
0.245842
0.245748
0.245662
0.245583
0.245512
0.245448
0.245392
0.245343
0.245301
0.245265
0.245236
0.245213
0.245195
0.245182
0.245174
0.24517
0.244986
0.244935
0.244863
0.244777
0.24468
0.244576
0.244468
0.244359
0.244251
0.244146
0.244044
0.243949
0.243859
0.243776
0.2437
0.243631
0.24357
0.243516
0.243469
0.243428
0.243394
0.243366
0.243343
0.243326
0.243314
0.243306
0.243303
0.243128
0.243078
0.243009
0.242926
0.242833
0.242733
0.242628
0.242523
0.242419
0.242317
0.24222
0.242127
0.242041
0.241961
0.241888
0.241822
0.241762
0.24171
0.241664
0.241625
0.241592
0.241565
0.241544
0.241527
0.241515
0.241508
0.241504
0.241338
0.24129
0.241223
0.241143
0.241053
0.240956
0.240855
0.240754
0.240653
0.240555
0.24046
0.240371
0.240287
0.24021
0.240139
0.240075
0.240018
0.239968
0.239924
0.239886
0.239854
0.239828
0.239807
0.239791
0.23978
0.239772
0.239769
0.239609
0.239563
0.239499
0.239421
0.239334
0.23924
0.239142
0.239044
0.238946
0.238851
0.23876
0.238674
0.238593
0.238518
0.238449
0.238387
0.238332
0.238283
0.23824
0.238204
0.238173
0.238148
0.238127
0.238112
0.238101
0.238094
0.238091
0.237937
0.237892
0.23783
0.237755
0.23767
0.237579
0.237485
0.237389
0.237294
0.237202
0.237114
0.23703
0.236952
0.236879
0.236813
0.236752
0.236699
0.236651
0.23661
0.236574
0.236544
0.23652
0.2365
0.236485
0.236475
0.236468
0.236464
0.236317
0.236273
0.236213
0.23614
0.236057
0.235969
0.235877
0.235784
0.235693
0.235603
0.235517
0.235436
0.235359
0.235289
0.235224
0.235166
0.235114
0.235068
0.235028
0.234993
0.234964
0.23494
0.234921
0.234906
0.234896
0.234889
0.234886
0.234744
0.234701
0.234642
0.234571
0.234491
0.234405
0.234316
0.234226
0.234137
0.23405
0.233966
0.233887
0.233813
0.233744
0.233681
0.233624
0.233574
0.233529
0.23349
0.233456
0.233428
0.233405
0.233386
0.233372
0.233362
0.233355
0.233352
0.233214
0.233173
0.233116
0.233047
0.232969
0.232885
0.232798
0.23271
0.232623
0.232538
0.232457
0.23238
0.232308
0.232241
0.23218
0.232124
0.232075
0.232031
0.231993
0.23196
0.231933
0.23191
0.231892
0.231878
0.231868
0.231862
0.231859
0.231726
0.231685
0.231629
0.231562
0.231486
0.231404
0.23132
0.231234
0.231149
0.231066
0.230987
0.230912
0.230841
0.230776
0.230716
0.230663
0.230614
0.230572
0.230534
0.230503
0.230476
0.230454
0.230436
0.230423
0.230413
0.230407
0.230404
0.230274
0.230235
0.23018
0.230114
0.23004
0.229961
0.229878
0.229794
0.229711
0.229631
0.229553
0.22948
0.229411
0.229347
0.229289
0.229236
0.229189
0.229148
0.229111
0.22908
0.229054
0.229033
0.229015
0.229002
0.228993
0.228987
0.228984
0.228858
0.228819
0.228766
0.228702
0.228629
0.228551
0.228471
0.228389
0.228308
0.228229
0.228153
0.228081
0.228014
0.227952
0.227895
0.227844
0.227798
0.227757
0.227721
0.227691
0.227665
0.227644
0.227628
0.227615
0.227605
0.2276
0.227597
0.227474
0.227436
0.227384
0.227321
0.22725
0.227174
0.227095
0.227015
0.226936
0.226859
0.226785
0.226715
0.226649
0.226588
0.226532
0.226482
0.226437
0.226397
0.226362
0.226333
0.226308
0.226287
0.226271
0.226258
0.226249
0.226243
0.226241
0.226121
0.226084
0.226033
0.225971
0.225902
0.225827
0.22575
0.225672
0.225594
0.225519
0.225446
0.225377
0.225313
0.225253
0.225199
0.22515
0.225105
0.225066
0.225032
0.225003
0.224979
0.224959
0.224942
0.22493
0.224921
0.224916
0.224913
0.224796
0.22476
0.22471
0.22465
0.224582
0.224509
0.224433
0.224356
0.22428
0.224206
0.224135
0.224068
0.224004
0.223946
0.223893
0.223844
0.223801
0.223763
0.22373
0.223701
0.223677
0.223657
0.223641
0.223629
0.223621
0.223615
0.223612
0.223498
0.223463
0.223414
0.223355
0.223288
0.223216
0.223142
0.223067
0.222992
0.222919
0.22285
0.222784
0.222722
0.222664
0.222612
0.222565
0.222522
0.222485
0.222452
0.222424
0.2224
0.222381
0.222365
0.222354
0.222345
0.22234
0.222337
0.222225
0.222191
0.222142
0.222084
0.222019
0.221949
0.221876
0.221802
0.221729
0.221657
0.221589
0.221524
0.221463
0.221407
0.221355
0.221309
0.221267
0.22123
0.221198
0.221171
0.221148
0.221129
0.221113
0.221102
0.221093
0.221088
0.221086
0.220976
0.220942
0.220895
0.220837
0.220773
0.220704
0.220632
0.22056
0.220488
0.220418
0.220351
0.220287
0.220227
0.220172
0.220121
0.220076
0.220035
0.219999
0.219967
0.21994
0.219917
0.219898
0.219883
0.219872
0.219864
0.219859
0.219856
0.219749
0.219715
0.219669
0.219612
0.219549
0.219481
0.219411
0.219339
0.219269
0.2192
0.219134
0.219071
0.219012
0.218958
0.218908
0.218863
0.218823
0.218787
0.218756
0.21873
0.218707
0.218689
0.218674
0.218663
0.218655
0.21865
0.218647
0.218542
0.218509
0.218463
0.218408
0.218345
0.218279
0.218209
0.218139
0.21807
0.218002
0.217937
0.217875
0.217817
0.217764
0.217715
0.21767
0.217631
0.217596
0.217565
0.217539
0.217517
0.217499
0.217484
0.217473
0.217465
0.21746
0.217458
0.217354
0.217321
0.217276
0.217222
0.217161
0.217095
0.217027
0.216957
0.216889
0.216822
0.216758
0.216697
0.21664
0.216588
0.216539
0.216496
0.216457
0.216422
0.216392
0.216366
0.216345
0.216327
0.216312
0.216302
0.216294
0.216289
0.216286
0.216184
0.216152
0.216108
0.216054
0.215993
0.215929
0.215861
0.215793
0.215726
0.21566
0.215596
0.215537
0.21548
0.215429
0.215381
0.215338
0.215299
0.215265
0.215236
0.21521
0.215189
0.215171
0.215157
0.215146
0.215139
0.215134
0.215132
0.21503
0.214999
0.214955
0.214902
0.214843
0.214779
0.214712
0.214645
0.214578
0.214513
0.214451
0.214392
0.214336
0.214285
0.214238
0.214196
0.214158
0.214124
0.214095
0.21407
0.214049
0.214031
0.214017
0.214007
0.213999
0.213994
0.213992
0.213892
0.213861
0.213818
0.213766
0.213707
0.213644
0.213578
0.213512
0.213446
0.213382
0.21332
0.213262
0.213207
0.213157
0.21311
0.213068
0.213031
0.212998
0.212969
0.212944
0.212923
0.212906
0.212892
0.212882
0.212874
0.212869
0.212867
0.212769
0.212738
0.212695
0.212643
0.212585
0.212523
0.212458
0.212393
0.212328
0.212264
0.212203
0.212146
0.212092
0.212042
0.211996
0.211954
0.211917
0.211885
0.211856
0.211832
0.211811
0.211794
0.21178
0.21177
0.211763
0.211758
0.211756
0.211658
0.211628
0.211586
0.211535
0.211477
0.211416
0.211352
0.211287
0.211223
0.21116
0.2111
0.211043
0.210989
0.21094
0.210895
0.210854
0.210817
0.210785
0.210757
0.210732
0.210712
0.210695
0.210682
0.210671
0.210664
0.21066
0.210657
0.210562
0.210531
0.21049
0.210439
0.210383
0.210322
0.210258
0.210194
0.210131
0.210069
0.210009
0.209953
0.2099
0.209852
0.209807
0.209766
0.20973
0.209698
0.20967
0.209646
0.209626
0.20961
0.209596
0.209586
0.209579
0.209574
0.209572
0.209478
0.209448
0.209407
0.209357
0.209301
0.209241
0.209179
0.209115
0.209053
0.208992
0.208933
0.208877
0.208825
0.208777
0.208733
0.208693
0.208657
0.208625
0.208598
0.208574
0.208554
0.208538
0.208525
0.208515
0.208508
0.208503
0.208501
0.208409
0.208379
0.208339
0.20829
0.208235
0.208175
0.208114
0.208051
0.207989
0.207929
0.207871
0.207816
0.207765
0.207717
0.207674
0.207635
0.207599
0.207568
0.207541
0.207518
0.207498
0.207482
0.207469
0.207459
0.207452
0.207448
0.207446
0.207356
0.207327
0.207287
0.207239
0.207185
0.207126
0.207066
0.207004
0.206944
0.206884
0.206827
0.206774
0.206723
0.206676
0.206634
0.206595
0.20656
0.20653
0.206503
0.20648
0.206461
0.206445
0.206432
0.206423
0.206416
0.206411
0.206409
0.206323
0.206295
0.206256
0.206208
0.206155
0.206098
0.206039
0.205979
0.205919
0.205861
0.205806
0.205753
0.205703
0.205658
0.205616
0.205578
0.205544
0.205514
0.205488
0.205466
0.205447
0.205432
0.205419
0.20541
0.205403
0.205399
0.205397
0.205315
0.205288
0.20525
0.205204
0.205152
0.205096
0.205039
0.20498
0.204922
0.204866
0.204812
0.204761
0.204713
0.204668
0.204628
0.204591
0.204558
0.204529
0.204504
0.204482
0.204464
0.204449
0.204437
0.204428
0.204421
0.204417
0.204415
0.20434
0.204313
0.204276
0.204232
0.204182
0.204128
0.204073
0.204017
0.203961
0.203907
0.203855
0.203805
0.203759
0.203717
0.203678
0.203642
0.203611
0.203583
0.203559
0.203538
0.20352
0.203506
0.203494
0.203486
0.203479
0.203475
0.203473
0.203405
0.20338
0.203345
0.203303
0.203255
0.203204
0.203151
0.203098
0.203045
0.202994
0.202944
0.202898
0.202854
0.202813
0.202777
0.202743
0.202713
0.202687
0.202664
0.202644
0.202628
0.202614
0.202603
0.202595
0.202589
0.202585
0.202583
0.202524
0.2025
0.202467
0.202428
0.202383
0.202336
0.202286
0.202236
0.202187
0.202139
0.202093
0.20205
0.202009
0.201971
0.201937
0.201906
0.201878
0.201854
0.201833
0.201814
0.201799
0.201786
0.201776
0.201769
0.201763
0.20176
0.201758
0.201708
0.201686
0.201656
0.20162
0.201579
0.201536
0.201491
0.201445
0.2014
0.201356
0.201314
0.201275
0.201238
0.201203
0.201172
0.201144
0.201119
0.201097
0.201078
0.201061
0.201047
0.201036
0.201027
0.20102
0.201015
0.201012
0.20101
0.20097
0.200951
0.200924
0.200892
0.200856
0.200817
0.200777
0.200736
0.200696
0.200657
0.20062
0.200585
0.200552
0.200522
0.200495
0.20047
0.200448
0.200428
0.200411
0.200397
0.200384
0.200374
0.200366
0.20036
0.200356
0.200353
0.200352
0.200322
0.200306
0.200282
0.200255
0.200223
0.20019
0.200155
0.20012
0.200086
0.200053
0.200021
0.199991
0.199963
0.199937
0.199914
0.199893
0.199874
0.199857
0.199843
0.19983
0.19982
0.199812
0.199805
0.1998
0.199796
0.199794
0.199793
0.199772
0.199758
0.199739
0.199716
0.19969
0.199662
0.199633
0.199604
0.199576
0.199549
0.199522
0.199498
0.199475
0.199454
0.199435
0.199417
0.199402
0.199389
0.199377
0.199367
0.199358
0.199352
0.199346
0.199342
0.199339
0.199337
0.199336
0.199323
0.199312
0.199297
0.199278
0.199258
0.199236
0.199213
0.19919
0.199168
0.199146
0.199126
0.199107
0.199089
0.199072
0.199057
0.199044
0.199032
0.199022
0.199013
0.199005
0.198998
0.198993
0.198989
0.198986
0.198983
0.198982
0.198981
0.198973
0.198965
0.198953
0.198939
0.198924
0.198907
0.19889
0.198873
0.198857
0.198841
0.198825
0.198811
0.198798
0.198786
0.198775
0.198765
0.198756
0.198749
0.198742
0.198736
0.198732
0.198728
0.198725
0.198723
0.198721
0.19872
0.198719
0.198714
0.198708
0.1987
0.19869
0.198679
0.198667
0.198655
0.198643
0.198632
0.198621
0.19861
0.1986
0.198591
0.198583
0.198575
0.198568
0.198562
0.198557
0.198553
0.198549
0.198546
0.198543
0.198541
0.198539
0.198538
0.198538
0.198537
0.198532
0.198529
0.198523
0.198517
0.198509
0.198502
0.198494
0.198486
0.198479
0.198472
0.198465
0.198458
0.198452
0.198447
0.198442
0.198438
0.198434
0.198431
0.198428
0.198426
0.198423
0.198422
0.19842
0.198419
0.198419
0.198418
0.198418
0.198413
0.198411
0.198408
0.198404
0.198399
0.198395
0.19839
0.198385
0.198381
0.198377
0.198372
0.198369
0.198365
0.198362
0.198359
0.198357
0.198354
0.198353
0.198351
0.198349
0.198348
0.198347
0.198347
0.198346
0.198346
0.198345
0.198345
0.19834
0.198338
0.198337
0.198335
0.198332
0.19833
0.198327
0.198325
0.198322
0.19832
0.198318
0.198316
0.198314
0.198312
0.198311
0.198309
0.198308
0.198307
0.198306
0.198306
0.198305
0.198304
0.198304
0.198304
0.198304
0.198303
0.198303
0.198298
0.198297
0.198296
0.198295
0.198294
0.198293
0.198292
0.19829
0.198289
0.198288
0.198287
0.198286
0.198285
0.198285
0.198284
0.198283
0.198283
0.198282
0.198282
0.198282
0.198281
0.198281
0.198281
0.198281
0.198281
0.198281
0.198281
0.198275
0.198275
0.198275
0.198274
0.198274
0.198273
0.198273
0.198273
0.198272
0.198272
0.198271
0.198271
0.198271
0.198271
0.19827
0.19827
0.19827
0.19827
0.19827
0.19827
0.198269
0.198269
0.198269
0.198269
0.198269
0.198269
0.198269
0.198264
0.198264
0.198264
0.198264
0.198264
0.198264
0.198264
0.198264
0.198264
0.198264
0.198264
0.198264
0.198264
0.198264
0.198264
0.198264
0.198264
0.198264
0.198264
0.198264
0.198264
0.198264
0.198264
0.198264
0.198264
0.198264
0.198264
0.198259
0.198259
0.198259
0.198259
0.19826
0.19826
0.19826
0.19826
0.19826
0.19826
0.19826
0.198261
0.198261
0.198261
0.198261
0.198261
0.198261
0.198261
0.198261
0.198261
0.198261
0.198261
0.198261
0.198261
0.198261
0.198261
0.198261
0.198258
0.198258
0.198258
0.198258
0.198258
0.198258
0.198259
0.198259
0.198259
0.198259
0.198259
0.19826
0.19826
0.19826
0.19826
0.19826
0.19826
0.198261
0.198261
0.198261
0.198261
0.198261
0.198261
0.198261
0.198261
0.198261
0.198261
0.198257
0.198258
0.198258
0.198258
0.198258
0.198258
0.198259
0.198259
0.198259
0.198259
0.19826
0.19826
0.19826
0.19826
0.198261
0.198261
0.198261
0.198261
0.198261
0.198262
0.198262
0.198262
0.198262
0.198262
0.198262
0.198262
0.198262
0.198258
0.198258
0.198259
0.198259
0.198259
0.198259
0.19826
0.19826
0.19826
0.198261
0.198261
0.198261
0.198262
0.198262
0.198262
0.198262
0.198263
0.198263
0.198263
0.198263
0.198263
0.198263
0.198263
0.198264
0.198264
0.198264
0.198264
0.19826
0.19826
0.19826
0.19826
0.198261
0.198261
0.198261
0.198262
0.198262
0.198262
0.198263
0.198263
0.198264
0.198264
0.198264
0.198264
0.198265
0.198265
0.198265
0.198265
0.198265
0.198266
0.198266
0.198266
0.198266
0.198266
0.198266
0.198262
0.198262
0.198262
0.198262
0.198263
0.198263
0.198264
0.198264
0.198264
0.198265
0.198265
0.198266
0.198266
0.198266
0.198267
0.198267
0.198267
0.198268
0.198268
0.198268
0.198268
0.198268
0.198269
0.198269
0.198269
0.198269
0.198269
0.198264
0.198264
0.198265
0.198265
0.198265
0.198266
0.198266
0.198267
0.198267
0.198268
0.198268
0.198268
0.198269
0.198269
0.19827
0.19827
0.19827
0.198271
0.198271
0.198271
0.198271
0.198272
0.198272
0.198272
0.198272
0.198272
0.198272
0.198267
0.198267
0.198267
0.198268
0.198268
0.198269
0.198269
0.19827
0.19827
0.198271
0.198271
0.198272
0.198272
0.198273
0.198273
0.198273
0.198274
0.198274
0.198274
0.198275
0.198275
0.198275
0.198275
0.198275
0.198275
0.198276
0.198276
0.19827
0.19827
0.198271
0.198271
0.198271
0.198272
0.198272
0.198273
0.198273
0.198274
0.198275
0.198275
0.198276
0.198276
0.198277
0.198277
0.198277
0.198278
0.198278
0.198278
0.198279
0.198279
0.198279
0.198279
0.198279
0.198279
0.198279
0.198273
0.198274
0.198274
0.198274
0.198275
0.198275
0.198276
0.198277
0.198277
0.198278
0.198278
0.198279
0.19828
0.19828
0.198281
0.198281
0.198282
0.198282
0.198282
0.198283
0.198283
0.198283
0.198283
0.198283
0.198284
0.198284
0.198284
0.198277
0.198277
0.198278
0.198278
0.198279
0.198279
0.19828
0.19828
0.198281
0.198282
0.198282
0.198283
0.198284
0.198284
0.198285
0.198285
0.198286
0.198286
0.198287
0.198287
0.198287
0.198288
0.198288
0.198288
0.198288
0.198288
0.198288
0.198281
0.198281
0.198281
0.198282
0.198283
0.198283
0.198284
0.198285
0.198285
0.198286
0.198287
0.198288
0.198288
0.198289
0.19829
0.19829
0.198291
0.198291
0.198292
0.198292
0.198292
0.198293
0.198293
0.198293
0.198293
0.198293
0.198293
0.198285
0.198285
0.198286
0.198286
0.198287
0.198288
0.198288
0.198289
0.19829
0.198291
0.198292
0.198292
0.198293
0.198294
0.198294
0.198295
0.198296
0.198296
0.198297
0.198297
0.198297
0.198298
0.198298
0.198298
0.198298
0.198298
0.198298
0.198289
0.19829
0.19829
0.198291
0.198291
0.198292
0.198293
0.198294
0.198295
0.198296
0.198297
0.198298
0.198298
0.198299
0.1983
0.198301
0.198301
0.198302
0.198302
0.198303
0.198303
0.198303
0.198304
0.198304
0.198304
0.198304
0.198304
0.198294
0.198294
0.198295
0.198296
0.198296
0.198297
0.198298
0.198299
0.1983
0.198301
0.198302
0.198303
0.198304
0.198305
0.198306
0.198306
0.198307
0.198308
0.198308
0.198309
0.198309
0.198309
0.19831
0.19831
0.19831
0.19831
0.19831
0.198299
0.1983
0.1983
0.198301
0.198302
0.198303
0.198304
0.198305
0.198306
0.198307
0.198308
0.198309
0.19831
0.198311
0.198312
0.198313
0.198313
0.198314
0.198315
0.198315
0.198316
0.198316
0.198316
0.198316
0.198317
0.198317
0.198317
0.198305
0.198305
0.198306
0.198307
0.198307
0.198309
0.19831
0.198311
0.198312
0.198313
0.198314
0.198315
0.198316
0.198317
0.198318
0.198319
0.19832
0.198321
0.198321
0.198322
0.198322
0.198323
0.198323
0.198323
0.198324
0.198324
0.198324
0.19831
0.198311
0.198312
0.198313
0.198314
0.198315
0.198316
0.198317
0.198318
0.19832
0.198321
0.198322
0.198323
0.198324
0.198325
0.198326
0.198327
0.198328
0.198329
0.198329
0.19833
0.19833
0.198331
0.198331
0.198331
0.198331
0.198331
0.198317
0.198317
0.198318
0.198319
0.19832
0.198321
0.198323
0.198324
0.198325
0.198327
0.198328
0.198329
0.19833
0.198332
0.198333
0.198334
0.198335
0.198335
0.198336
0.198337
0.198337
0.198338
0.198338
0.198338
0.198339
0.198339
0.198339
0.198323
0.198324
0.198325
0.198326
0.198327
0.198328
0.198329
0.198331
0.198332
0.198334
0.198335
0.198336
0.198338
0.198339
0.19834
0.198341
0.198342
0.198343
0.198344
0.198345
0.198345
0.198346
0.198346
0.198346
0.198346
0.198347
0.198347
0.19833
0.19833
0.198331
0.198332
0.198333
0.198335
0.198336
0.198338
0.198339
0.198341
0.198342
0.198344
0.198345
0.198346
0.198347
0.198348
0.198349
0.19835
0.198351
0.198352
0.198352
0.198353
0.198353
0.198354
0.198354
0.198354
0.198354
0.198335
0.198336
0.198337
0.198338
0.198339
0.19834
0.198342
0.198343
0.198345
0.198346
0.198348
0.198349
0.19835
0.198352
0.198353
0.198354
0.198355
0.198356
0.198356
0.198357
0.198358
0.198358
0.198358
0.198359
0.198359
0.198359
0.198359
0.334007
0.334007
0.334007
0.334007
0.334007
0.334007
0.334007
0.334007
0.334007
0.334007
0.334007
0.334007
0.334007
0.334007
0.334007
0.334007
0.334007
0.334007
0.334007
0.334006
0.334004
0.333999
0.333987
0.333958
0.333892