/*--------------------------------*- C++ -*----------------------------------*\
| =========                 |                                                 |
| \\      /  F ield         | OpenFOAM: The Open Source CFD Toolbox           |
|  \\    /   O peration     | Version:  2106                                  |
|   \\  /    A nd           | Website:  www.openfoam.com                      |
|    \\/     M anipulation  |                                                 |
\*---------------------------------------------------------------------------*/
FoamFile
{
    version     2.0;
    format      ascii;
    arch        "LSB;label=32;scalar=64";
    class       volScalarField;
    location    "160.00011";
    object      C3H3_0;
}
// * * * * * * * * * * * * * * * * * * * * * * * * * * * * * * * * * * * * * //

dimensions      [0 0 0 0 0 0 0];

internalField   nonuniform List<scalar> 
3360
(
4.45223e-19
4.59549e-19
4.79485e-19
5.03871e-19
5.31691e-19
5.62031e-19
5.94067e-19
6.27056e-19
6.60334e-19
6.93318e-19
7.25499e-19
7.56449e-19
7.8581e-19
8.13301e-19
8.38705e-19
8.61873e-19
8.82712e-19
9.01182e-19
9.17291e-19
9.31086e-19
9.42651e-19
9.52096e-19
9.59557e-19
9.65185e-19
9.69144e-19
9.71607e-19
9.7275e-19
1.95309e-18
2.02488e-18
2.12617e-18
2.25232e-18
2.39945e-18
2.5642e-18
2.74356e-18
2.93476e-18
3.13525e-18
3.3426e-18
3.55448e-18
3.76865e-18
3.98285e-18
4.19489e-18
4.40261e-18
4.60387e-18
4.79659e-18
4.97874e-18
5.14838e-18
5.30371e-18
5.44304e-18
5.56492e-18
5.66807e-18
5.75149e-18
5.81445e-18
5.85649e-18
5.87746e-18
6.12803e-18
6.39697e-18
6.77912e-18
7.25932e-18
7.82499e-18
8.46482e-18
9.16807e-18
9.92412e-18
1.07223e-17
1.15516e-17
1.24008e-17
1.32589e-17
1.41149e-17
1.49578e-17
1.57772e-17
1.65631e-17
1.73063e-17
1.79986e-17
1.86326e-17
1.92024e-17
1.97036e-17
2.01327e-17
2.04879e-17
2.07687e-17
2.09757e-17
2.11107e-17
2.11764e-17
1.78464e-17
1.87328e-17
2.00008e-17
2.16051e-17
2.35077e-17
2.56731e-17
2.80659e-17
3.06491e-17
3.33842e-17
3.62306e-17
3.91464e-17
4.2089e-17
4.50158e-17
4.78858e-17
5.06597e-17
5.33017e-17
5.57798e-17
5.80669e-17
6.01414e-17
6.19869e-17
6.35926e-17
6.49529e-17
6.6067e-17
6.69383e-17
6.75742e-17
6.79848e-17
6.81829e-17
5.21398e-17
5.4936e-17
5.89436e-17
6.40259e-17
7.00664e-17
7.69537e-17
8.45729e-17
9.28024e-17
1.01513e-16
1.10567e-16
1.19823e-16
1.2914e-16
1.38377e-16
1.47401e-16
1.56088e-16
1.64327e-16
1.72024e-16
1.79098e-16
1.85489e-16
1.91154e-16
1.96065e-16
2.00211e-16
2.03597e-16
2.06238e-16
2.0816e-16
2.09399e-16
2.09994e-16
1.53735e-16
1.62322e-16
1.74645e-16
1.90285e-16
2.08886e-16
2.30099e-16
2.53566e-16
2.78907e-16
3.05711e-16
3.33551e-16
3.61984e-16
3.90564e-16
4.18858e-16
4.46454e-16
4.72973e-16
4.98081e-16
5.21491e-16
5.4297e-16
5.6234e-16
5.79477e-16
5.9431e-16
6.06814e-16
6.17009e-16
6.24949e-16
6.30721e-16
6.34435e-16
6.36221e-16
4.56665e-16
4.82758e-16
5.20201e-16
5.67726e-16
6.24241e-16
6.8868e-16
7.59939e-16
8.36839e-16
9.18125e-16
1.00248e-15
1.08855e-15
1.17499e-15
1.26048e-15
1.34378e-15
1.42375e-15
1.4994e-15
1.56988e-15
1.6345e-15
1.69273e-15
1.74422e-15
1.78877e-15
1.82631e-15
1.8569e-15
1.88072e-15
1.89804e-15
1.90917e-15
1.91453e-15
1.36104e-15
1.43955e-15
1.55227e-15
1.6954e-15
1.86564e-15
2.05979e-15
2.27449e-15
2.50618e-15
2.75104e-15
3.00509e-15
3.26424e-15
3.52439e-15
3.78159e-15
4.03209e-15
4.2725e-15
4.49982e-15
4.71149e-15
4.90547e-15
5.08022e-15
5.23466e-15
5.36822e-15
5.48071e-15
5.57236e-15
5.64369e-15
5.69551e-15
5.72884e-15
5.74486e-15
4.06717e-15
4.30314e-15
4.64185e-15
5.07186e-15
5.58328e-15
6.16641e-15
6.81112e-15
7.50664e-15
8.24149e-15
9.00364e-15
9.78081e-15
1.05607e-14
1.13315e-14
1.2082e-14
1.28021e-14
1.34827e-14
1.41164e-14
1.4697e-14
1.52199e-14
1.56821e-14
1.60817e-14
1.64182e-14
1.66924e-14
1.69058e-14
1.70609e-14
1.71606e-14
1.72085e-14
1.21547e-14
1.28615e-14
1.38762e-14
1.51645e-14
1.66967e-14
1.84437e-14
2.03752e-14
2.24587e-14
2.46597e-14
2.69423e-14
2.92695e-14
3.16045e-14
3.39118e-14
3.61579e-14
3.83124e-14
4.03485e-14
4.22436e-14
4.39797e-14
4.55429e-14
4.69241e-14
4.8118e-14
4.91234e-14
4.99423e-14
5.05795e-14
5.10423e-14
5.13399e-14
5.14829e-14
3.63426e-14
3.84585e-14
4.14957e-14
4.5351e-14
4.99354e-14
5.51612e-14
6.09372e-14
6.7166e-14
7.37443e-14
8.0564e-14
8.75148e-14
9.44867e-14
1.01374e-13
1.08076e-13
1.14503e-13
1.20576e-13
1.26227e-13
1.31402e-13
1.36061e-13
1.40177e-13
1.43735e-13
1.4673e-13
1.49169e-13
1.51068e-13
1.52446e-13
1.53332e-13
1.53758e-13
1.08563e-13
1.14881e-13
1.23949e-13
1.35459e-13
1.49143e-13
1.64737e-13
1.81968e-13
2.00545e-13
2.20157e-13
2.40483e-13
2.61191e-13
2.81955e-13
3.02459e-13
3.22405e-13
3.41525e-13
3.59584e-13
3.76382e-13
3.91762e-13
4.05603e-13
4.17825e-13
4.28387e-13
4.37276e-13
4.44514e-13
4.50144e-13
4.54232e-13
4.5686e-13
4.58122e-13
3.23957e-13
3.4279e-13
3.69812e-13
4.04094e-13
4.44831e-13
4.91231e-13
5.42472e-13
5.97679e-13
6.55928e-13
7.16254e-13
7.77676e-13
8.39224e-13
8.9996e-13
9.5901e-13
1.01558e-12
1.06898e-12
1.11863e-12
1.16406e-12
1.20493e-12
1.241e-12
1.27216e-12
1.29838e-12
1.31972e-12
1.33631e-12
1.34836e-12
1.3561e-12
1.35982e-12
9.63952e-13
1.01984e-12
1.09999e-12
1.20164e-12
1.32234e-12
1.45974e-12
1.61135e-12
1.77456e-12
1.94662e-12
2.12466e-12
2.30576e-12
2.48707e-12
2.66582e-12
2.83946e-12
3.00565e-12
3.1624e-12
3.308e-12
3.44114e-12
3.56081e-12
3.66637e-12
3.75749e-12
3.83412e-12
3.89644e-12
3.94489e-12
3.98004e-12
4.00263e-12
4.01347e-12
2.8581e-12
3.02302e-12
3.25941e-12
3.55891e-12
3.91422e-12
4.3182e-12
4.76344e-12
5.24212e-12
5.74604e-12
6.26673e-12
6.79565e-12
7.32441e-12
7.84499e-12
8.34996e-12
8.83267e-12
9.28735e-12
9.70922e-12
1.00945e-11
1.04405e-11
1.07454e-11
1.10084e-11
1.12293e-11
1.14089e-11
1.15484e-11
1.16495e-11
1.17145e-11
1.17457e-11
8.42488e-12
8.90692e-12
9.59724e-12
1.04709e-11
1.15059e-11
1.26808e-11
1.39736e-11
1.5361e-11
1.68188e-11
1.83223e-11
1.98466e-11
2.13675e-11
2.2862e-11
2.43091e-11
2.56898e-11
2.69882e-11
2.81909e-11
2.92876e-11
3.02709e-11
3.11362e-11
3.18815e-11
3.2507e-11
3.30149e-11
3.3409e-11
3.36945e-11
3.38777e-11
3.39656e-11
2.46437e-11
2.60344e-11
2.80233e-11
3.05361e-11
3.35074e-11
3.68729e-11
4.05671e-11
4.45216e-11
4.86661e-11
5.2929e-11
5.72395e-11
6.1529e-11
6.57333e-11
6.97938e-11
7.36588e-11
7.72848e-11
8.06362e-11
8.36859e-11
8.64152e-11
8.88127e-11
9.08742e-11
9.26016e-11
9.40023e-11
9.50879e-11
9.58735e-11
9.6377e-11
9.66183e-11
7.13304e-11
7.52686e-11
8.08913e-11
8.79793e-11
9.63381e-11
1.05778e-10
1.16106e-10
1.27126e-10
1.38634e-10
1.50431e-10
1.62317e-10
1.74106e-10
1.85621e-10
1.96707e-10
2.07227e-10
2.17067e-10
2.26137e-10
2.34369e-10
2.41719e-10
2.48161e-10
2.53689e-10
2.58312e-10
2.62055e-10
2.64951e-10
2.67044e-10
2.68384e-10
2.69025e-10
2.03626e-10
2.14506e-10
2.30004e-10
2.49483e-10
2.72375e-10
2.98128e-10
3.26189e-10
3.56e-10
3.86999e-10
4.18635e-10
4.50375e-10
4.8172e-10
5.12215e-10
5.41459e-10
5.69108e-10
5.94881e-10
6.18559e-10
6.39986e-10
6.59062e-10
6.75739e-10
6.90016e-10
7.01933e-10
7.1156e-10
7.18997e-10
7.24364e-10
7.27795e-10
7.29435e-10
5.70853e-10
5.99958e-10
6.413e-10
6.93075e-10
7.53662e-10
8.21505e-10
8.95064e-10
9.72811e-10
1.05324e-09
1.1349e-09
1.21642e-09
1.29654e-09
1.37413e-09
1.44821e-09
1.51795e-09
1.58271e-09
1.642e-09
1.69547e-09
1.74293e-09
1.7843e-09
1.81963e-09
1.84905e-09
1.87277e-09
1.89106e-09
1.90424e-09
1.91265e-09
1.91667e-09
1.56395e-09
1.63879e-09
1.74475e-09
1.8769e-09
2.03079e-09
2.2022e-09
2.38702e-09
2.58124e-09
2.78103e-09
2.98275e-09
3.18304e-09
3.37886e-09
3.56756e-09
3.74689e-09
3.915e-09
4.07048e-09
4.21228e-09
4.33974e-09
4.45252e-09
4.55056e-09
4.63407e-09
4.70345e-09
4.75928e-09
4.80225e-09
4.83315e-09
4.85285e-09
4.86224e-09
4.16427e-09
4.34809e-09
4.60745e-09
4.92946e-09
5.30255e-09
5.71582e-09
6.15886e-09
6.62174e-09
7.09515e-09
7.57045e-09
8.03983e-09
8.4964e-09
8.93424e-09
9.34846e-09
9.73516e-09
1.00914e-08
1.04152e-08
1.07053e-08
1.09612e-08
1.11831e-08
1.13716e-08
1.15279e-08
1.16534e-08
1.17499e-08
1.18192e-08
1.18633e-08
1.18843e-08
1.07211e-08
1.1151e-08
1.17554e-08
1.25026e-08
1.33641e-08
1.43134e-08
1.53256e-08
1.63773e-08
1.74472e-08
1.85159e-08
1.9566e-08
2.05828e-08
2.15536e-08
2.24683e-08
2.33191e-08
2.41002e-08
2.48079e-08
2.54402e-08
2.59965e-08
2.64777e-08
2.68858e-08
2.72235e-08
2.74942e-08
2.7702e-08
2.78509e-08
2.79457e-08
2.79907e-08
2.65867e-08
2.75447e-08
2.8888e-08
3.05426e-08
3.24423e-08
3.45262e-08
3.67378e-08
3.90254e-08
4.13422e-08
4.36462e-08
4.59011e-08
4.80759e-08
5.01452e-08
5.20884e-08
5.38903e-08
5.55401e-08
5.7031e-08
5.836e-08
5.95269e-08
6.05344e-08
6.13874e-08
6.20921e-08
6.26563e-08
6.30886e-08
6.33984e-08
6.35952e-08
6.36888e-08
6.34144e-08
6.54644e-08
6.83324e-08
7.18554e-08
7.58878e-08
8.02963e-08
8.49594e-08
8.97664e-08
9.46187e-08
9.94293e-08
1.04124e-07
1.08639e-07
1.12923e-07
1.16938e-07
1.20652e-07
1.24046e-07
1.27108e-07
1.29832e-07
1.32221e-07
1.34281e-07
1.36022e-07
1.37459e-07
1.38609e-07
1.39489e-07
1.4012e-07
1.4052e-07
1.4071e-07
1.45648e-07
1.49915e-07
1.55877e-07
1.6319e-07
1.71545e-07
1.80664e-07
1.90291e-07
2.00199e-07
2.10185e-07
2.2007e-07
2.29702e-07
2.38955e-07
2.47727e-07
2.55936e-07
2.63525e-07
2.70454e-07
2.76698e-07
2.82252e-07
2.87117e-07
2.9131e-07
2.94853e-07
2.97775e-07
3.00111e-07
3.01899e-07
3.03178e-07
3.03989e-07
3.04375e-07
3.23106e-07
3.31916e-07
3.44227e-07
3.59329e-07
3.76589e-07
3.95432e-07
4.15337e-07
4.35832e-07
4.56499e-07
4.76971e-07
4.96934e-07
5.16123e-07
5.34324e-07
5.51369e-07
5.67134e-07
5.81533e-07
5.94517e-07
6.06066e-07
6.16188e-07
6.24911e-07
6.32282e-07
6.38363e-07
6.43223e-07
6.46942e-07
6.49602e-07
6.5129e-07
6.52091e-07
6.94761e-07
7.1319e-07
7.38993e-07
7.70726e-07
8.0711e-07
8.46976e-07
8.89259e-07
9.32987e-07
9.77286e-07
1.02138e-06
1.06458e-06
1.10632e-06
1.14611e-06
1.18355e-06
1.21834e-06
1.25026e-06
1.27917e-06
1.30498e-06
1.3277e-06
1.34734e-06
1.36398e-06
1.37775e-06
1.38878e-06
1.39724e-06
1.4033e-06
1.40714e-06
1.40897e-06
1.44741e-06
1.48691e-06
1.54248e-06
1.61128e-06
1.6908e-06
1.77877e-06
1.87306e-06
1.97173e-06
2.07296e-06
2.17509e-06
2.27661e-06
2.37616e-06
2.47252e-06
2.56467e-06
2.65171e-06
2.73292e-06
2.80774e-06
2.87572e-06
2.93657e-06
2.99009e-06
3.0362e-06
3.07495e-06
3.10643e-06
3.13087e-06
3.14852e-06
3.15981e-06
3.16521e-06
2.90725e-06
2.99257e-06
3.1135e-06
3.2647e-06
3.4416e-06
3.64009e-06
3.85634e-06
4.08669e-06
4.32756e-06
4.57538e-06
4.82658e-06
5.07753e-06
5.32461e-06
5.56416e-06
5.79353e-06
6.01064e-06
6.21364e-06
6.40094e-06
6.57116e-06
6.72324e-06
6.85638e-06
6.97005e-06
7.06401e-06
7.13827e-06
7.19308e-06
7.22891e-06
7.24642e-06
5.61705e-06
5.79356e-06
6.04465e-06
6.35976e-06
6.7295e-06
7.14466e-06
7.59843e-06
8.08429e-06
8.59556e-06
9.12549e-06
9.66724e-06
1.02139e-05
1.07588e-05
1.12951e-05
1.18166e-05
1.23172e-05
1.27913e-05
1.32339e-05
1.36406e-05
1.40076e-05
1.43319e-05
1.46113e-05
1.48442e-05
1.50297e-05
1.51677e-05
1.52585e-05
1.53032e-05
1.03076e-05
1.06179e-05
1.10592e-05
1.16134e-05
1.22651e-05
1.30001e-05
1.38049e-05
1.46666e-05
1.55718e-05
1.65077e-05
1.74611e-05
1.84191e-05
1.93693e-05
2.02999e-05
2.11995e-05
2.2058e-05
2.28663e-05
2.36165e-05
2.43021e-05
2.49176e-05
2.54592e-05
2.59243e-05
2.63113e-05
2.66195e-05
2.68483e-05
2.69984e-05
2.70719e-05
1.76665e-05
1.81254e-05
1.87743e-05
1.95828e-05
2.05243e-05
2.15742e-05
2.27096e-05
2.39083e-05
2.51495e-05
2.64132e-05
2.76808e-05
2.89353e-05
3.01613e-05
3.13452e-05
3.24751e-05
3.35408e-05
3.45303e-05
3.54349e-05
3.62499e-05
3.6972e-05
3.75995e-05
3.81317e-05
3.8569e-05
3.89129e-05
3.91656e-05
3.93304e-05
3.94107e-05
2.74661e-05
2.80021e-05
2.87533e-05
2.96783e-05
3.0741e-05
3.19085e-05
3.31515e-05
3.44439e-05
3.57606e-05
3.70746e-05
3.83632e-05
3.96111e-05
4.08054e-05
4.1935e-05
4.29912e-05
4.39676e-05
4.48594e-05
4.56637e-05
4.63789e-05
4.70048e-05
4.75423e-05
4.79932e-05
4.83599e-05
4.86456e-05
4.88537e-05
4.89883e-05
4.90534e-05
3.80664e-05
3.85592e-05
3.92428e-05
4.00733e-05
4.10119e-05
4.20242e-05
4.30798e-05
4.41523e-05
4.52196e-05
4.6263e-05
4.72677e-05
4.82222e-05
4.9118e-05
4.99491e-05
5.07118e-05
5.1404e-05
5.20252e-05
5.2576e-05
5.30581e-05
5.34737e-05
5.38256e-05
5.41168e-05
5.43508e-05
5.45309e-05
5.46608e-05
5.47439e-05
5.47837e-05
4.71687e-05
4.75197e-05
4.80011e-05
4.85777e-05
4.9218e-05
4.98951e-05
5.05861e-05
5.12722e-05
5.19387e-05
5.25742e-05
5.31708e-05
5.37231e-05
5.4228e-05
5.46843e-05
5.5092e-05
5.54523e-05
5.57673e-05
5.60395e-05
5.62717e-05
5.64669e-05
5.66281e-05
5.67584e-05
5.68606e-05
5.69376e-05
5.6992e-05
5.7026e-05
5.7042e-05
5.33469e-05
5.35257e-05
5.3767e-05
5.40495e-05
5.43545e-05
5.46664e-05
5.49728e-05
5.5264e-05
5.55335e-05
5.57768e-05
5.59918e-05
5.61778e-05
5.63355e-05
5.64665e-05
5.65729e-05
5.66574e-05
5.67227e-05
5.67716e-05
5.68069e-05
5.6831e-05
5.68464e-05
5.68552e-05
5.68593e-05
5.68602e-05
5.68593e-05
5.68579e-05
5.68568e-05
5.6333e-05
5.63647e-05
5.64028e-05
5.644e-05
5.64698e-05
5.64875e-05
5.64897e-05
5.64747e-05
5.64421e-05
5.63927e-05
5.63281e-05
5.62507e-05
5.6163e-05
5.6068e-05
5.59684e-05
5.58672e-05
5.57668e-05
5.56695e-05
5.55775e-05
5.54924e-05
5.54157e-05
5.53486e-05
5.5292e-05
5.52464e-05
5.52122e-05
5.51895e-05
5.51783e-05
5.66917e-05
5.66229e-05
5.65234e-05
5.63962e-05
5.62437e-05
5.60691e-05
5.58753e-05
5.56658e-05
5.54445e-05
5.5215e-05
5.49813e-05
5.47469e-05
5.45154e-05
5.429e-05
5.40735e-05
5.38684e-05
5.36767e-05
5.35002e-05
5.33401e-05
5.31974e-05
5.3073e-05
5.29671e-05
5.28799e-05
5.28111e-05
5.27605e-05
5.27275e-05
5.27113e-05
5.52756e-05
5.51505e-05
5.49745e-05
5.47567e-05
5.45052e-05
5.42274e-05
5.39302e-05
5.362e-05
5.33025e-05
5.29832e-05
5.26667e-05
5.23573e-05
5.20586e-05
5.17736e-05
5.1505e-05
5.12548e-05
5.10246e-05
5.08154e-05
5.06281e-05
5.04631e-05
5.03207e-05
5.02006e-05
5.01024e-05
5.00257e-05
4.99696e-05
4.99332e-05
4.99155e-05
5.28597e-05
5.27105e-05
5.25022e-05
5.22469e-05
5.19553e-05
5.16369e-05
5.13003e-05
5.09531e-05
5.06019e-05
5.02527e-05
4.99102e-05
4.95788e-05
4.92619e-05
4.89623e-05
4.86822e-05
4.84233e-05
4.81868e-05
4.79734e-05
4.77835e-05
4.76171e-05
4.7474e-05
4.7354e-05
4.72564e-05
4.71804e-05
4.7125e-05
4.70892e-05
4.70719e-05
5.00072e-05
4.98539e-05
4.96405e-05
4.93801e-05
4.90842e-05
4.87629e-05
4.84252e-05
4.80789e-05
4.77307e-05
4.73863e-05
4.70505e-05
4.67272e-05
4.64197e-05
4.61304e-05
4.58611e-05
4.56133e-05
4.53879e-05
4.51852e-05
4.50055e-05
4.48487e-05
4.47143e-05
4.46017e-05
4.45104e-05
4.44395e-05
4.43879e-05
4.43546e-05
4.43386e-05
4.70715e-05
4.69248e-05
4.67211e-05
4.6473e-05
4.6192e-05
4.58877e-05
4.55689e-05
4.5243e-05
4.49165e-05
4.45945e-05
4.42817e-05
4.39814e-05
4.36966e-05
4.34295e-05
4.31816e-05
4.2954e-05
4.27475e-05
4.25624e-05
4.23986e-05
4.2256e-05
4.21341e-05
4.20322e-05
4.19495e-05
4.18855e-05
4.1839e-05
4.1809e-05
4.17946e-05
4.42484e-05
4.41134e-05
4.3926e-05
4.36982e-05
4.34405e-05
4.3162e-05
4.28708e-05
4.25737e-05
4.22765e-05
4.19842e-05
4.17006e-05
4.1429e-05
4.1172e-05
4.09313e-05
4.07083e-05
4.0504e-05
4.0319e-05
4.01534e-05
4.00071e-05
3.988e-05
3.97714e-05
3.96809e-05
3.96076e-05
3.95508e-05
3.95096e-05
3.94831e-05
3.94703e-05
4.16311e-05
4.15093e-05
4.13404e-05
4.11353e-05
4.09034e-05
4.06531e-05
4.03916e-05
4.01252e-05
3.98591e-05
3.95977e-05
3.93444e-05
3.91021e-05
3.88731e-05
3.86589e-05
3.84607e-05
3.82794e-05
3.81153e-05
3.79687e-05
3.78393e-05
3.7727e-05
3.76312e-05
3.75514e-05
3.7487e-05
3.7437e-05
3.74008e-05
3.73775e-05
3.73663e-05
3.92521e-05
3.91433e-05
3.89926e-05
3.88096e-05
3.86029e-05
3.83799e-05
3.81472e-05
3.79102e-05
3.76737e-05
3.74415e-05
3.72167e-05
3.70019e-05
3.6799e-05
3.66095e-05
3.64343e-05
3.6274e-05
3.61292e-05
3.59999e-05
3.58859e-05
3.5787e-05
3.57027e-05
3.56326e-05
3.5576e-05
3.55322e-05
3.55005e-05
3.54802e-05
3.54703e-05
3.71111e-05
3.70144e-05
3.68804e-05
3.67178e-05
3.65341e-05
3.63361e-05
3.61295e-05
3.59193e-05
3.57095e-05
3.55037e-05
3.53047e-05
3.51145e-05
3.4935e-05
3.47673e-05
3.46125e-05
3.4471e-05
3.43432e-05
3.42291e-05
3.41287e-05
3.40416e-05
3.39674e-05
3.39058e-05
3.3856e-05
3.38176e-05
3.37898e-05
3.3772e-05
3.37634e-05
3.51921e-05
3.51061e-05
3.4987e-05
3.48425e-05
3.46793e-05
3.45034e-05
3.43199e-05
3.41332e-05
3.39471e-05
3.37645e-05
3.35879e-05
3.34193e-05
3.32602e-05
3.31117e-05
3.29746e-05
3.28493e-05
3.27362e-05
3.26354e-05
3.25466e-05
3.24696e-05
3.24041e-05
3.23497e-05
3.23058e-05
3.2272e-05
3.22475e-05
3.22318e-05
3.22242e-05
3.34728e-05
3.33962e-05
3.32901e-05
3.31614e-05
3.3016e-05
3.28593e-05
3.2696e-05
3.25298e-05
3.23641e-05
3.22016e-05
3.20445e-05
3.18945e-05
3.1753e-05
3.1621e-05
3.14991e-05
3.13879e-05
3.12875e-05
3.11979e-05
3.11191e-05
3.10508e-05
3.09928e-05
3.09445e-05
3.09057e-05
3.08757e-05
3.0854e-05
3.08401e-05
3.08334e-05
3.19298e-05
3.18614e-05
3.17665e-05
3.16514e-05
3.15215e-05
3.13814e-05
3.12354e-05
3.10869e-05
3.09388e-05
3.07936e-05
3.06533e-05
3.05193e-05
3.0393e-05
3.02751e-05
3.01663e-05
3.0067e-05
2.99774e-05
2.98976e-05
2.98273e-05
2.97665e-05
2.97147e-05
2.96718e-05
2.96372e-05
2.96105e-05
2.95912e-05
2.95788e-05
2.95729e-05
3.05412e-05
3.04797e-05
3.03945e-05
3.02912e-05
3.01745e-05
3.00488e-05
2.99177e-05
2.97844e-05
2.96514e-05
2.95211e-05
2.93951e-05
2.92749e-05
2.91616e-05
2.90558e-05
2.89583e-05
2.88693e-05
2.87889e-05
2.87173e-05
2.86544e-05
2.85999e-05
2.85536e-05
2.85151e-05
2.84841e-05
2.84602e-05
2.8443e-05
2.84319e-05
2.84266e-05
2.92869e-05
2.92315e-05
2.91547e-05
2.90615e-05
2.89563e-05
2.88429e-05
2.87246e-05
2.86044e-05
2.84845e-05
2.83669e-05
2.82534e-05
2.8145e-05
2.80428e-05
2.79474e-05
2.78595e-05
2.77793e-05
2.77069e-05
2.76424e-05
2.75857e-05
2.75366e-05
2.74949e-05
2.74603e-05
2.74324e-05
2.74109e-05
2.73954e-05
2.73855e-05
2.73807e-05
2.81499e-05
2.80997e-05
2.80301e-05
2.79457e-05
2.78503e-05
2.77476e-05
2.76404e-05
2.75315e-05
2.74228e-05
2.73163e-05
2.72134e-05
2.71152e-05
2.70226e-05
2.69363e-05
2.68566e-05
2.6784e-05
2.67184e-05
2.666e-05
2.66087e-05
2.65643e-05
2.65266e-05
2.64953e-05
2.64701e-05
2.64506e-05
2.64366e-05
2.64276e-05
2.64233e-05
2.71154e-05
2.70697e-05
2.70063e-05
2.69295e-05
2.68427e-05
2.67492e-05
2.66516e-05
2.65524e-05
2.64536e-05
2.63566e-05
2.62629e-05
2.61735e-05
2.60892e-05
2.60107e-05
2.59382e-05
2.58721e-05
2.58124e-05
2.57593e-05
2.57126e-05
2.56723e-05
2.5638e-05
2.56095e-05
2.55866e-05
2.55689e-05
2.55562e-05
2.55481e-05
2.55442e-05
2.61706e-05
2.61289e-05
2.6071e-05
2.60007e-05
2.59214e-05
2.58359e-05
2.57467e-05
2.5656e-05
2.55656e-05
2.54769e-05
2.53913e-05
2.53095e-05
2.52325e-05
2.51606e-05
2.50944e-05
2.5034e-05
2.49795e-05
2.49309e-05
2.48883e-05
2.48514e-05
2.48201e-05
2.47941e-05
2.47732e-05
2.4757e-05
2.47454e-05
2.4738e-05
2.47344e-05
2.53049e-05
2.52665e-05
2.52134e-05
2.51489e-05
2.50761e-05
2.49976e-05
2.49157e-05
2.48324e-05
2.47494e-05
2.4668e-05
2.45894e-05
2.45143e-05
2.44436e-05
2.43776e-05
2.43168e-05
2.42613e-05
2.42113e-05
2.41668e-05
2.41276e-05
2.40938e-05
2.4065e-05
2.40412e-05
2.4022e-05
2.40072e-05
2.39966e-05
2.39898e-05
2.39865e-05
2.45089e-05
2.44735e-05
2.44246e-05
2.43651e-05
2.4298e-05
2.42256e-05
2.41502e-05
2.40734e-05
2.39969e-05
2.39219e-05
2.38493e-05
2.37802e-05
2.37149e-05
2.36541e-05
2.35981e-05
2.35469e-05
2.35008e-05
2.34598e-05
2.34237e-05
2.33925e-05
2.33661e-05
2.33441e-05
2.33264e-05
2.33128e-05
2.3303e-05
2.32967e-05
2.32937e-05
2.37746e-05
2.37419e-05
2.36966e-05
2.36416e-05
2.35795e-05
2.35126e-05
2.34427e-05
2.33717e-05
2.33009e-05
2.32315e-05
2.31644e-05
2.31003e-05
2.304e-05
2.29837e-05
2.29318e-05
2.28845e-05
2.28419e-05
2.28039e-05
2.27705e-05
2.27417e-05
2.27172e-05
2.26969e-05
2.26805e-05
2.2668e-05
2.26589e-05
2.26531e-05
2.26503e-05
2.30951e-05
2.30648e-05
2.30227e-05
2.29717e-05
2.2914e-05
2.28518e-05
2.2787e-05
2.2721e-05
2.26553e-05
2.25908e-05
2.25284e-05
2.2469e-05
2.24129e-05
2.23606e-05
2.23125e-05
2.22685e-05
2.22289e-05
2.21936e-05
2.21626e-05
2.21358e-05
2.21131e-05
2.20943e-05
2.20791e-05
2.20674e-05
2.2059e-05
2.20536e-05
2.2051e-05
2.24644e-05
2.24361e-05
2.23969e-05
2.23494e-05
2.22956e-05
2.22377e-05
2.21773e-05
2.21158e-05
2.20545e-05
2.19944e-05
2.19363e-05
2.18808e-05
2.18286e-05
2.17798e-05
2.17349e-05
2.16939e-05
2.1657e-05
2.16241e-05
2.15952e-05
2.15703e-05
2.15491e-05
2.15315e-05
2.15174e-05
2.15065e-05
2.14987e-05
2.14937e-05
2.14913e-05
2.1877e-05
2.18506e-05
2.18139e-05
2.17695e-05
2.17192e-05
2.1665e-05
2.16085e-05
2.1551e-05
2.14937e-05
2.14374e-05
2.13831e-05
2.13312e-05
2.12823e-05
2.12367e-05
2.11947e-05
2.11564e-05
2.11218e-05
2.10911e-05
2.10641e-05
2.10407e-05
2.10209e-05
2.10044e-05
2.09912e-05
2.09811e-05
2.09737e-05
2.0969e-05
2.09668e-05
2.13282e-05
2.13034e-05
2.1269e-05
2.12273e-05
2.11801e-05
2.11293e-05
2.10762e-05
2.10223e-05
2.09684e-05
2.09157e-05
2.08646e-05
2.08159e-05
2.077e-05
2.07272e-05
2.06878e-05
2.06518e-05
2.06193e-05
2.05905e-05
2.05651e-05
2.05432e-05
2.05246e-05
2.05092e-05
2.04968e-05
2.04872e-05
2.04803e-05
2.04759e-05
2.04738e-05
2.08136e-05
2.07903e-05
2.07579e-05
2.07186e-05
2.06742e-05
2.06263e-05
2.05764e-05
2.05255e-05
2.04748e-05
2.04251e-05
2.0377e-05
2.03312e-05
2.02879e-05
2.02476e-05
2.02104e-05
2.01765e-05
2.01459e-05
2.01187e-05
2.00948e-05
2.00741e-05
2.00566e-05
2.00421e-05
2.00304e-05
2.00214e-05
2.00149e-05
2.00108e-05
2.00088e-05
2.03294e-05
2.03073e-05
2.02767e-05
2.02396e-05
2.01976e-05
2.01524e-05
2.01052e-05
2.00571e-05
2.00092e-05
1.99622e-05
1.99167e-05
1.98733e-05
1.98324e-05
1.97943e-05
1.97591e-05
1.97271e-05
1.96981e-05
1.96724e-05
1.96498e-05
1.96303e-05
1.96137e-05
1.95999e-05
1.95889e-05
1.95804e-05
1.95743e-05
1.95703e-05
1.95685e-05
1.98718e-05
1.98509e-05
1.98219e-05
1.97867e-05
1.97469e-05
1.97039e-05
1.96592e-05
1.96136e-05
1.95681e-05
1.95235e-05
1.94803e-05
1.94391e-05
1.94003e-05
1.93641e-05
1.93307e-05
1.93003e-05
1.92728e-05
1.92484e-05
1.92269e-05
1.92084e-05
1.91927e-05
1.91796e-05
1.91691e-05
1.9161e-05
1.91552e-05
1.91515e-05
1.91497e-05
1.94376e-05
1.94176e-05
1.939e-05
1.93565e-05
1.93186e-05
1.92778e-05
1.92351e-05
1.91917e-05
1.91483e-05
1.91058e-05
1.90647e-05
1.90255e-05
1.89885e-05
1.8954e-05
1.89222e-05
1.88932e-05
1.8867e-05
1.88437e-05
1.88232e-05
1.88056e-05
1.87906e-05
1.87781e-05
1.87681e-05
1.87604e-05
1.87549e-05
1.87513e-05
1.87496e-05
1.90235e-05
1.90045e-05
1.89781e-05
1.8946e-05
1.89098e-05
1.88707e-05
1.88299e-05
1.87884e-05
1.87469e-05
1.87063e-05
1.86669e-05
1.86294e-05
1.8594e-05
1.8561e-05
1.85305e-05
1.85027e-05
1.84777e-05
1.84554e-05
1.84358e-05
1.84189e-05
1.84045e-05
1.83926e-05
1.8383e-05
1.83757e-05
1.83703e-05
1.8367e-05
1.83653e-05
1.86265e-05
1.86083e-05
1.85829e-05
1.85522e-05
1.85174e-05
1.84798e-05
1.84406e-05
1.84007e-05
1.83609e-05
1.83218e-05
1.8284e-05
1.82479e-05
1.82139e-05
1.81821e-05
1.81529e-05
1.81261e-05
1.81021e-05
1.80806e-05
1.80618e-05
1.80455e-05
1.80317e-05
1.80202e-05
1.8011e-05
1.80039e-05
1.79988e-05
1.79956e-05
1.7994e-05
1.82437e-05
1.82261e-05
1.82017e-05
1.8172e-05
1.81384e-05
1.81022e-05
1.80644e-05
1.80258e-05
1.79874e-05
1.79496e-05
1.79131e-05
1.78782e-05
1.78454e-05
1.78147e-05
1.77864e-05
1.77605e-05
1.77373e-05
1.77165e-05
1.76983e-05
1.76826e-05
1.76692e-05
1.76581e-05
1.76492e-05
1.76424e-05
1.76375e-05
1.76343e-05
1.76328e-05
1.78721e-05
1.7855e-05
1.78313e-05
1.78025e-05
1.777e-05
1.77348e-05
1.76981e-05
1.76607e-05
1.76234e-05
1.75867e-05
1.75513e-05
1.75174e-05
1.74855e-05
1.74557e-05
1.74281e-05
1.74031e-05
1.73804e-05
1.73603e-05
1.73426e-05
1.73273e-05
1.73143e-05
1.73035e-05
1.72949e-05
1.72882e-05
1.72834e-05
1.72803e-05
1.72789e-05
1.75087e-05
1.7492e-05
1.74689e-05
1.74408e-05
1.74091e-05
1.73748e-05
1.73389e-05
1.73024e-05
1.7266e-05
1.72302e-05
1.71956e-05
1.71625e-05
1.71312e-05
1.71021e-05
1.70752e-05
1.70507e-05
1.70286e-05
1.70089e-05
1.69916e-05
1.69766e-05
1.69639e-05
1.69534e-05
1.69449e-05
1.69384e-05
1.69337e-05
1.69307e-05
1.69292e-05
1.71505e-05
1.71341e-05
1.71114e-05
1.70839e-05
1.70527e-05
1.7019e-05
1.69838e-05
1.69479e-05
1.69121e-05
1.68769e-05
1.68428e-05
1.68103e-05
1.67796e-05
1.67509e-05
1.67245e-05
1.67003e-05
1.66786e-05
1.66592e-05
1.66421e-05
1.66274e-05
1.66149e-05
1.66045e-05
1.65962e-05
1.65898e-05
1.65851e-05
1.65822e-05
1.65808e-05
1.67942e-05
1.6778e-05
1.67556e-05
1.67283e-05
1.66975e-05
1.66642e-05
1.66294e-05
1.65939e-05
1.65584e-05
1.65236e-05
1.64899e-05
1.64576e-05
1.64272e-05
1.63988e-05
1.63726e-05
1.63487e-05
1.63271e-05
1.63079e-05
1.6291e-05
1.62764e-05
1.62639e-05
1.62537e-05
1.62454e-05
1.6239e-05
1.62345e-05
1.62315e-05
1.62301e-05
1.64365e-05
1.64204e-05
1.6398e-05
1.63709e-05
1.63402e-05
1.6307e-05
1.62723e-05
1.62369e-05
1.62015e-05
1.61668e-05
1.61331e-05
1.6101e-05
1.60706e-05
1.60422e-05
1.60161e-05
1.59922e-05
1.59706e-05
1.59514e-05
1.59345e-05
1.59199e-05
1.59075e-05
1.58972e-05
1.5889e-05
1.58826e-05
1.5878e-05
1.58751e-05
1.58737e-05
1.60737e-05
1.60575e-05
1.60351e-05
1.60079e-05
1.5977e-05
1.59437e-05
1.59088e-05
1.58732e-05
1.58377e-05
1.58027e-05
1.57689e-05
1.57365e-05
1.5706e-05
1.56774e-05
1.56511e-05
1.5627e-05
1.56053e-05
1.55859e-05
1.55689e-05
1.55542e-05
1.55417e-05
1.55314e-05
1.55231e-05
1.55166e-05
1.5512e-05
1.55091e-05
1.55077e-05
1.57019e-05
1.56856e-05
1.56629e-05
1.56353e-05
1.5604e-05
1.55702e-05
1.55349e-05
1.54989e-05
1.54628e-05
1.54274e-05
1.5393e-05
1.53602e-05
1.53292e-05
1.53002e-05
1.52734e-05
1.5249e-05
1.52269e-05
1.52073e-05
1.519e-05
1.51751e-05
1.51624e-05
1.51519e-05
1.51434e-05
1.51369e-05
1.51322e-05
1.51292e-05
1.51278e-05
1.53169e-05
1.53002e-05
1.52771e-05
1.52489e-05
1.52169e-05
1.51824e-05
1.51463e-05
1.51094e-05
1.50726e-05
1.50363e-05
1.50012e-05
1.49676e-05
1.49358e-05
1.49062e-05
1.48788e-05
1.48537e-05
1.48312e-05
1.4811e-05
1.47933e-05
1.4778e-05
1.4765e-05
1.47543e-05
1.47456e-05
1.47389e-05
1.47341e-05
1.47311e-05
1.47296e-05
1.49142e-05
1.4897e-05
1.48731e-05
1.48441e-05
1.48112e-05
1.47756e-05
1.47383e-05
1.47003e-05
1.46623e-05
1.46249e-05
1.45886e-05
1.4554e-05
1.45212e-05
1.44905e-05
1.44622e-05
1.44364e-05
1.44131e-05
1.43923e-05
1.4374e-05
1.43582e-05
1.43448e-05
1.43337e-05
1.43247e-05
1.43178e-05
1.43129e-05
1.43097e-05
1.43082e-05
1.44887e-05
1.44709e-05
1.44461e-05
1.44159e-05
1.43817e-05
1.43447e-05
1.4306e-05
1.42665e-05
1.42269e-05
1.4188e-05
1.41503e-05
1.41143e-05
1.40801e-05
1.40483e-05
1.40188e-05
1.39919e-05
1.39677e-05
1.3946e-05
1.3927e-05
1.39106e-05
1.38966e-05
1.3885e-05
1.38757e-05
1.38686e-05
1.38634e-05
1.38601e-05
1.38585e-05
1.40354e-05
1.40168e-05
1.39908e-05
1.39592e-05
1.39234e-05
1.38847e-05
1.38442e-05
1.38028e-05
1.37613e-05
1.37206e-05
1.36811e-05
1.36433e-05
1.36075e-05
1.35741e-05
1.35433e-05
1.35151e-05
1.34897e-05
1.3467e-05
1.34471e-05
1.34299e-05
1.34153e-05
1.34031e-05
1.33934e-05
1.33859e-05
1.33805e-05
1.33771e-05
1.33754e-05
1.3549e-05
1.35293e-05
1.3502e-05
1.34687e-05
1.3431e-05
1.33902e-05
1.33475e-05
1.33038e-05
1.32602e-05
1.32172e-05
1.31756e-05
1.31358e-05
1.30981e-05
1.30629e-05
1.30304e-05
1.30008e-05
1.2974e-05
1.29501e-05
1.29292e-05
1.2911e-05
1.28957e-05
1.28829e-05
1.28727e-05
1.28648e-05
1.28591e-05
1.28555e-05
1.28538e-05
1.30243e-05
1.30035e-05
1.29745e-05
1.29393e-05
1.28994e-05
1.28562e-05
1.2811e-05
1.27648e-05
1.27186e-05
1.26732e-05
1.26291e-05
1.2587e-05
1.25472e-05
1.251e-05
1.24756e-05
1.24443e-05
1.2416e-05
1.23908e-05
1.23687e-05
1.23496e-05
1.23333e-05
1.23199e-05
1.23091e-05
1.23008e-05
1.22948e-05
1.2291e-05
1.22892e-05
1.24569e-05
1.24348e-05
1.24041e-05
1.23667e-05
1.23244e-05
1.22787e-05
1.22308e-05
1.21819e-05
1.2133e-05
1.20849e-05
1.20383e-05
1.19937e-05
1.19517e-05
1.19124e-05
1.18761e-05
1.1843e-05
1.18132e-05
1.17866e-05
1.17632e-05
1.17431e-05
1.1726e-05
1.17118e-05
1.17005e-05
1.16917e-05
1.16855e-05
1.16815e-05
1.16795e-05
1.18446e-05
1.18213e-05
1.17889e-05
1.17495e-05
1.1705e-05
1.16568e-05
1.16064e-05
1.1555e-05
1.15037e-05
1.14533e-05
1.14045e-05
1.13579e-05
1.13139e-05
1.12729e-05
1.1235e-05
1.12005e-05
1.11693e-05
1.11416e-05
1.11173e-05
1.10962e-05
1.10784e-05
1.10637e-05
1.10518e-05
1.10427e-05
1.10362e-05
1.1032e-05
1.103e-05
1.11915e-05
1.11674e-05
1.1134e-05
1.10934e-05
1.10474e-05
1.09979e-05
1.09464e-05
1.0894e-05
1.08421e-05
1.07914e-05
1.07428e-05
1.0697e-05
1.06544e-05
1.06153e-05
1.05798e-05
1.05478e-05
1.05192e-05
1.0494e-05
1.0472e-05
1.04531e-05
1.04373e-05
1.04242e-05
1.04138e-05
1.04058e-05
1.04001e-05
1.03965e-05
1.03947e-05
1.05181e-05
1.04955e-05
1.04643e-05
1.04264e-05
1.03836e-05
1.03374e-05
1.02892e-05
1.02402e-05
1.01914e-05
1.01437e-05
1.00977e-05
1.0054e-05
1.00129e-05
9.97471e-06
9.93967e-06
9.90786e-06
9.87932e-06
9.85403e-06
9.83193e-06
9.81293e-06
9.79689e-06
9.78367e-06
9.7731e-06
9.76501e-06
9.75922e-06
9.75554e-06
9.75379e-06
9.86394e-06
9.84089e-06
9.80891e-06
9.77004e-06
9.72607e-06
9.6786e-06
9.62902e-06
9.57854e-06
9.52817e-06
9.47879e-06
9.43108e-06
9.3856e-06
9.34279e-06
9.30296e-06
9.26632e-06
9.23301e-06
9.20309e-06
9.17655e-06
9.15334e-06
9.13336e-06
9.11649e-06
9.10258e-06
9.09146e-06
9.08294e-06
9.07684e-06
9.07296e-06
9.07111e-06
9.17793e-06
9.15366e-06
9.11999e-06
9.07906e-06
9.03278e-06
8.98283e-06
8.93067e-06
8.87758e-06
8.82463e-06
8.77274e-06
8.72263e-06
8.67488e-06
8.62996e-06
8.58819e-06
8.54979e-06
8.5149e-06
8.48357e-06
8.4558e-06
8.43153e-06
8.41065e-06
8.39303e-06
8.37851e-06
8.3669e-06
8.35801e-06
8.35165e-06
8.34761e-06
8.34569e-06
8.45154e-06
8.42628e-06
8.39126e-06
8.34875e-06
8.30074e-06
8.24898e-06
8.19502e-06
8.14019e-06
8.0856e-06
8.03218e-06
7.98068e-06
7.9317e-06
7.88568e-06
7.84296e-06
7.80375e-06
7.76818e-06
7.73628e-06
7.70804e-06
7.68339e-06
7.66221e-06
7.64435e-06
7.62964e-06
7.6179e-06
7.60892e-06
7.6025e-06
7.59842e-06
7.59648e-06
7.70019e-06
7.67471e-06
7.63944e-06
7.59668e-06
7.54846e-06
7.49658e-06
7.4426e-06
7.38786e-06
7.33347e-06
7.28035e-06
7.22925e-06
7.18075e-06
7.13527e-06
7.09312e-06
7.05451e-06
7.01953e-06
6.98821e-06
6.96053e-06
6.93639e-06
6.91568e-06
6.89823e-06
6.88388e-06
6.87243e-06
6.86368e-06
6.85743e-06
6.85347e-06
6.85158e-06
6.95031e-06
6.92547e-06
6.89111e-06
6.8495e-06
6.80264e-06
6.75229e-06
6.69997e-06
6.64698e-06
6.59442e-06
6.54316e-06
6.4939e-06
6.44721e-06
6.40348e-06
6.363e-06
6.32595e-06
6.29242e-06
6.26243e-06