/*--------------------------------*- C++ -*----------------------------------*\
| =========                 |                                                 |
| \\      /  F ield         | OpenFOAM: The Open Source CFD Toolbox           |
|  \\    /   O peration     | Version:  2106                                  |
|   \\  /    A nd           | Website:  www.openfoam.com                      |
|    \\/     M anipulation  |                                                 |
\*---------------------------------------------------------------------------*/
FoamFile
{
    version     2.0;
    format      ascii;
    arch        "LSB;label=32;scalar=64";
    class       volScalarField;
    location    "160.00011";
    object      C4H612;
}
// * * * * * * * * * * * * * * * * * * * * * * * * * * * * * * * * * * * * * //

dimensions      [0 0 0 0 0 0 0];

internalField   nonuniform List<scalar> 
3360
(
2.42086e-18
2.49876e-18
2.60716e-18
2.73976e-18
2.89103e-18
3.056e-18
3.23019e-18
3.40956e-18
3.59051e-18
3.76986e-18
3.94484e-18
4.11313e-18
4.27278e-18
4.42226e-18
4.56039e-18
4.68637e-18
4.79968e-18
4.90011e-18
4.98769e-18
5.06271e-18
5.12559e-18
5.17695e-18
5.21751e-18
5.24811e-18
5.26964e-18
5.28303e-18
5.28925e-18
1.06198e-17
1.10101e-17
1.15609e-17
1.22468e-17
1.30468e-17
1.39426e-17
1.49179e-17
1.59575e-17
1.70477e-17
1.81751e-17
1.93272e-17
2.04917e-17
2.16564e-17
2.28094e-17
2.39388e-17
2.50332e-17
2.60811e-17
2.70715e-17
2.79939e-17
2.88385e-17
2.95961e-17
3.02588e-17
3.08197e-17
3.12733e-17
3.16156e-17
3.18442e-17
3.19582e-17
3.33207e-17
3.4783e-17
3.68609e-17
3.94719e-17
4.25478e-17
4.60268e-17
4.98506e-17
5.39616e-17
5.83014e-17
6.28106e-17
6.74284e-17
7.20943e-17
7.67484e-17
8.13318e-17
8.57873e-17
9.00607e-17
9.41019e-17
9.78657e-17
1.01313e-16
1.04412e-16
1.07137e-16
1.0947e-16
1.11401e-16
1.12928e-16
1.14054e-16
1.14788e-16
1.15145e-16
9.70385e-17
1.01858e-16
1.08753e-16
1.17476e-16
1.27821e-16
1.39596e-16
1.52606e-16
1.66652e-16
1.81524e-16
1.97001e-16
2.12856e-16
2.28855e-16
2.4477e-16
2.60375e-16
2.75458e-16
2.89824e-16
3.03298e-16
3.15734e-16
3.27014e-16
3.37049e-16
3.4578e-16
3.53176e-16
3.59234e-16
3.63972e-16
3.67429e-16
3.69662e-16
3.70739e-16
2.83506e-16
2.9871e-16
3.20501e-16
3.48135e-16
3.80981e-16
4.1843e-16
4.59859e-16
5.04606e-16
5.51966e-16
6.01197e-16
6.5153e-16
7.02189e-16
7.52415e-16
8.01481e-16
8.48716e-16
8.93517e-16
9.35365e-16
9.73832e-16
1.00858e-15
1.03938e-15
1.06609e-15
1.08863e-15
1.10704e-15
1.1214e-15
1.13185e-15
1.13859e-15
1.14183e-15
8.3592e-16
8.82612e-16
9.49617e-16
1.03466e-15
1.1358e-15
1.25114e-15
1.37875e-15
1.51653e-15
1.66228e-15
1.81366e-15
1.96826e-15
2.12366e-15
2.2775e-15
2.42756e-15
2.57175e-15
2.70828e-15
2.83557e-15
2.95236e-15
3.05768e-15
3.15086e-15
3.23151e-15
3.2995e-15
3.35494e-15
3.39811e-15
3.4295e-15
3.44969e-15
3.4594e-15
2.48308e-15
2.62496e-15
2.82855e-15
3.08696e-15
3.39426e-15
3.74464e-15
4.13211e-15
4.55024e-15
4.99223e-15
5.45091e-15
5.91892e-15
6.38892e-15
6.85375e-15
7.30667e-15
7.74153e-15
8.15288e-15
8.5361e-15
8.88744e-15
9.20408e-15
9.48407e-15
9.72629e-15
9.9304e-15
1.00968e-14
1.02263e-14
1.03204e-14
1.0381e-14
1.04101e-14
7.40053e-15
7.82744e-15
8.44036e-15
9.2186e-15
1.01443e-14
1.11999e-14
1.23674e-14
1.36272e-14
1.49586e-14
1.634e-14
1.7749e-14
1.91636e-14
2.05621e-14
2.19242e-14
2.32314e-14
2.44674e-14
2.56183e-14
2.66731e-14
2.76233e-14
2.8463e-14
2.91892e-14
2.98009e-14
3.02993e-14
3.06871e-14
3.09689e-14
3.11501e-14
3.12372e-14
2.21149e-14
2.3398e-14
2.52397e-14
2.75778e-14
3.03587e-14
3.35293e-14
3.70349e-14
4.08168e-14
4.48124e-14
4.89566e-14
5.31824e-14
5.74231e-14
6.16142e-14
6.5695e-14
6.96103e-14
7.33112e-14
7.67567e-14
7.99137e-14
8.27571e-14
8.527e-14
8.74427e-14
8.92728e-14
9.07636e-14
9.1924e-14
9.2767e-14
9.33092e-14
9.35697e-14
6.60903e-14
6.99332e-14
7.54504e-14
8.24555e-14
9.07868e-14
1.00286e-13
1.10788e-13
1.22117e-13
1.34085e-13
1.46497e-13
1.5915e-13
1.71847e-13
1.84393e-13
1.96605e-13
2.0832e-13
2.19392e-13
2.29696e-13
2.39136e-13
2.47636e-13
2.55146e-13
2.61638e-13
2.67105e-13
2.71557e-13
2.75022e-13
2.77538e-13
2.79157e-13
2.79934e-13
1.9761e-13
2.09115e-13
2.25629e-13
2.46592e-13
2.71519e-13
2.99934e-13
3.31341e-13
3.65209e-13
4.00979e-13
4.3806e-13
4.75854e-13
5.13764e-13
5.51211e-13
5.87655e-13
6.22602e-13
6.55621e-13
6.86347e-13
7.14487e-13
7.39822e-13
7.62202e-13
7.81546e-13
7.97833e-13
8.11097e-13
8.21417e-13
8.28913e-13
8.33733e-13
8.36049e-13
5.903e-13
6.24654e-13
6.73962e-13
7.36546e-13
8.10949e-13
8.95742e-13
9.89435e-13
1.09044e-12
1.19709e-12
1.3076e-12
1.4202e-12
1.53311e-12
1.64459e-12
1.75305e-12
1.85702e-12
1.95521e-12
2.04655e-12
2.13017e-12
2.20543e-12
2.27189e-12
2.32932e-12
2.37766e-12
2.41701e-12
2.44762e-12
2.46985e-12
2.48414e-12
2.491e-12
1.76148e-12
1.86388e-12
2.01081e-12
2.19722e-12
2.41872e-12
2.67102e-12
2.94964e-12
3.24982e-12
3.56654e-12
3.89456e-12
4.22854e-12
4.56321e-12
4.89345e-12
5.21453e-12
5.52213e-12
5.81249e-12
6.08244e-12
6.32947e-12
6.55168e-12
6.74784e-12
6.91727e-12
7.05983e-12
7.17586e-12
7.26609e-12
7.3316e-12
7.3737e-12
7.39392e-12
5.24134e-12
5.54521e-12
5.98105e-12
6.53372e-12
7.19006e-12
7.93713e-12
8.7615e-12
9.64897e-12
1.05845e-11
1.15526e-11
1.25373e-11
1.35232e-11
1.44952e-11
1.54393e-11
1.63429e-11
1.71952e-11
1.7987e-11
1.87109e-11
1.93616e-11
1.99356e-11
2.0431e-11
2.08477e-11
2.11866e-11
2.145e-11
2.16411e-11
2.17639e-11
2.18229e-11
1.55402e-11
1.6437e-11
1.77223e-11
1.93508e-11
2.12828e-11
2.34794e-11
2.59004e-11
2.85031e-11
3.12432e-11
3.40744e-11
3.69504e-11
3.98255e-11
4.26561e-11
4.54019e-11
4.80266e-11
5.04989e-11
5.27928e-11
5.48878e-11
5.67691e-11
5.8427e-11
5.98568e-11
6.10581e-11
6.20346e-11
6.27931e-11
6.33432e-11
6.36964e-11
6.38659e-11
4.58069e-11
4.84279e-11
5.21814e-11
5.69316e-11
6.25593e-11
6.8948e-11
7.59773e-11
8.3521e-11
9.14478e-11
9.96228e-11
1.07911e-10
1.16181e-10
1.24307e-10
1.32176e-10
1.39684e-10
1.46743e-10
1.53283e-10
1.59246e-10
1.64593e-10
1.69298e-10
1.7335e-10
1.76752e-10
1.79513e-10
1.81656e-10
1.83208e-10
1.84205e-10
1.84682e-10
1.33981e-10
1.41543e-10
1.52357e-10
1.6602e-10
1.82176e-10
2.00475e-10
2.20561e-10
2.42063e-10
2.64598e-10
2.87777e-10
3.11214e-10
3.34538e-10
3.57398e-10
3.79476e-10
4.00492e-10
4.20207e-10
4.3843e-10
4.55012e-10
4.69852e-10
4.82888e-10
4.94097e-10
5.0349e-10
5.11106e-10
5.17008e-10
5.2128e-10
5.24018e-10
5.2533e-10
3.87756e-10
4.09167e-10
4.39737e-10
4.78273e-10
5.23718e-10
5.75041e-10
6.31196e-10
6.91107e-10
7.53679e-10
8.17816e-10
8.82443e-10
9.46535e-10
1.00914e-09
1.06942e-09
1.12661e-09
1.18011e-09
1.22943e-09
1.27419e-09
1.31415e-09
1.34917e-09
1.37922e-09
1.40436e-09
1.42471e-09
1.44045e-09
1.45183e-09
1.45912e-09
1.46261e-09
1.10664e-09
1.16578e-09
1.25003e-09
1.35591e-09
1.48034e-09
1.62033e-09
1.77287e-09
1.93491e-09
2.10342e-09
2.27538e-09
2.44792e-09
2.6183e-09
2.78407e-09
2.94303e-09
3.09332e-09
3.23341e-09
3.36212e-09
3.47859e-09
3.58228e-09
3.67292e-09
3.75053e-09
3.8153e-09
3.86762e-09
3.90805e-09
3.93722e-09
3.95587e-09
3.96478e-09
3.10089e-09
3.25901e-09
3.48362e-09
3.76491e-09
4.09407e-09
4.46266e-09
4.8623e-09
5.28468e-09
5.72164e-09
6.16529e-09
6.60817e-09
7.04342e-09
7.4649e-09
7.86731e-09
8.24618e-09
8.59797e-09
8.92e-09
9.21044e-09
9.46822e-09
9.69295e-09
9.88485e-09
1.00446e-08
1.01735e-08
1.02728e-08
1.03444e-08
1.03901e-08
1.04119e-08
8.48739e-09
8.89352e-09
9.46851e-09
1.01856e-08
1.10206e-08
1.19506e-08
1.29534e-08
1.40072e-08
1.50911e-08
1.61854e-08
1.72719e-08
1.83341e-08
1.93576e-08
2.03303e-08
2.1242e-08
2.20852e-08
2.28541e-08
2.35453e-08
2.41568e-08
2.46883e-08
2.51411e-08
2.55172e-08
2.58199e-08
2.60528e-08
2.62203e-08
2.63271e-08
2.6378e-08
2.25586e-08
2.35534e-08
2.49569e-08
2.66994e-08
2.87181e-08
3.09539e-08
3.33505e-08
3.58541e-08
3.84143e-08
4.09843e-08
4.35219e-08
4.59899e-08
4.83564e-08
5.05948e-08
5.26842e-08
5.46089e-08
5.63578e-08
5.79245e-08
5.93066e-08
6.05047e-08
6.15227e-08
6.23666e-08
6.30442e-08
6.35648e-08
6.39387e-08
6.41767e-08
6.429e-08
5.78842e-08
6.01972e-08
6.34493e-08
6.7469e-08
7.21024e-08
7.72065e-08
8.26469e-08
8.82983e-08
9.40455e-08
9.97839e-08
1.05421e-07
1.10877e-07
1.16085e-07
1.20991e-07
1.25552e-07
1.29738e-07
1.3353e-07
1.36917e-07
1.39897e-07
1.42473e-07
1.44658e-07
1.46465e-07
1.47914e-07
1.49026e-07
1.49823e-07
1.5033e-07
1.50571e-07
1.42678e-07
1.47776e-07
1.54921e-07
1.63719e-07
1.73815e-07
1.84883e-07
1.96622e-07
2.08757e-07
2.21038e-07
2.33244e-07
2.45181e-07
2.56688e-07
2.67628e-07
2.77897e-07
2.87413e-07
2.96122e-07
3.03988e-07
3.10996e-07
3.17147e-07
3.22456e-07
3.26948e-07
3.30659e-07
3.33629e-07
3.35905e-07
3.37535e-07
3.3857e-07
3.39062e-07
3.3678e-07
3.47463e-07
3.62398e-07
3.80729e-07
4.01687e-07
4.24576e-07
4.48756e-07
4.73653e-07
4.98752e-07
5.23606e-07
5.47828e-07
5.71099e-07
5.93158e-07
6.13804e-07
6.32887e-07
6.50307e-07
6.66008e-07
6.79969e-07
6.92201e-07
7.02741e-07
7.11646e-07
7.18993e-07
7.24865e-07
7.2936e-07
7.32576e-07
7.34618e-07
7.35587e-07
7.60442e-07
7.81864e-07
8.11761e-07
8.48366e-07
8.90109e-07
9.35567e-07
9.83451e-07
1.03261e-06
1.08203e-06
1.13083e-06
1.17827e-06
1.22373e-06
1.26672e-06
1.30688e-06
1.34392e-06
1.37767e-06
1.40804e-06
1.435e-06
1.45858e-06
1.47888e-06
1.49601e-06
1.51013e-06
1.5214e-06
1.53002e-06
1.53619e-06
1.5401e-06
1.54195e-06
1.64276e-06
1.68424e-06
1.74207e-06
1.81278e-06
1.89327e-06
1.98077e-06
2.07277e-06
2.16705e-06
2.26166e-06
2.35493e-06
2.44544e-06
2.53205e-06
2.61383e-06
2.6901e-06
2.76036e-06
2.8243e-06
2.88176e-06
2.93271e-06
2.97725e-06
3.01553e-06
3.04781e-06
3.07438e-06
3.09559e-06
3.11179e-06
3.12337e-06
3.13071e-06
3.13419e-06
3.3924e-06
3.47073e-06
3.5799e-06
3.71332e-06
3.86517e-06
4.03018e-06
4.20361e-06
4.38128e-06
4.55952e-06
4.73515e-06
4.90553e-06
5.06849e-06
5.22229e-06
5.36565e-06
5.49764e-06
5.61766e-06
5.72544e-06
5.82094e-06
5.90432e-06
5.97593e-06
6.03624e-06
6.08584e-06
6.12537e-06
6.15554e-06
6.17707e-06
6.1907e-06
6.19715e-06
6.66763e-06
6.81241e-06
7.01433e-06
7.26142e-06
7.54303e-06
7.84954e-06
8.1723e-06
8.50355e-06
8.83648e-06
9.16517e-06
9.48458e-06
9.79054e-06
1.00797e-05
1.03495e-05
1.05981e-05
1.08243e-05
1.10275e-05
1.12074e-05
1.13644e-05
1.1499e-05
1.16123e-05
1.17052e-05
1.17791e-05
1.18354e-05
1.18754e-05
1.19007e-05
1.19126e-05
1.23312e-05
1.25881e-05
1.29469e-05
1.33871e-05
1.38903e-05
1.44398e-05
1.50205e-05
1.56189e-05
1.62227e-05
1.68213e-05
1.74055e-05
1.79673e-05
1.85004e-05
1.89996e-05
1.94611e-05
1.98822e-05
2.02613e-05
2.05978e-05
2.08917e-05
2.1144e-05
2.13562e-05
2.15303e-05
2.16686e-05
2.17737e-05
2.18482e-05
2.18951e-05
2.19171e-05
2.10238e-05
2.14348e-05
2.20093e-05
2.27147e-05
2.35219e-05
2.44044e-05
2.53382e-05
2.63017e-05
2.72753e-05
2.82417e-05
2.91862e-05
3.00958e-05
3.09601e-05
3.17707e-05
3.25213e-05
3.32072e-05
3.38258e-05
3.43757e-05
3.48571e-05
3.52713e-05
3.56204e-05
3.59074e-05
3.61359e-05
3.63099e-05
3.64336e-05
3.65115e-05
3.65482e-05
3.21916e-05
3.27282e-05
3.34754e-05
3.4388e-05
3.54255e-05
3.65516e-05
3.77335e-05
3.89424e-05
4.01529e-05
4.13433e-05
4.24955e-05
4.35946e-05
4.46291e-05
4.55904e-05
4.64727e-05
4.72722e-05
4.79875e-05
4.86189e-05
4.91681e-05
4.9638e-05
5.00323e-05
5.03553e-05
5.06118e-05
5.08068e-05
5.09453e-05
5.10319e-05
5.10725e-05
4.33213e-05
4.38368e-05
4.45473e-05
4.54031e-05
4.63601e-05
4.73793e-05
4.84269e-05
4.94746e-05
5.0499e-05
5.14818e-05
5.24093e-05
5.32716e-05
5.40628e-05
5.47794e-05
5.54208e-05
5.59878e-05
5.6482e-05
5.69054e-05
5.72638e-05
5.75625e-05
5.78068e-05
5.80023e-05
5.81539e-05
5.82667e-05
5.83452e-05
5.83936e-05
5.8416e-05
5.08308e-05
5.11452e-05
5.15698e-05
5.20677e-05
5.26065e-05
5.3159e-05
5.3703e-05
5.42219e-05
5.47035e-05
5.51379e-05
5.55195e-05
5.58492e-05
5.61295e-05
5.63648e-05
5.65591e-05
5.67172e-05
5.68436e-05
5.6943e-05
5.70197e-05
5.70776e-05
5.71198e-05
5.71495e-05
5.71695e-05
5.71821e-05
5.71892e-05
5.71926e-05
5.71937e-05
5.2337e-05
5.23793e-05
5.24274e-05
5.24692e-05
5.24951e-05
5.24979e-05
5.24737e-05
5.24209e-05
5.23409e-05
5.22363e-05
5.21114e-05
5.1971e-05
5.18202e-05
5.16641e-05
5.15073e-05
5.13538e-05
5.1207e-05
5.10697e-05
5.09441e-05
5.08316e-05
5.07334e-05
5.065e-05
5.05816e-05
5.05279e-05
5.04885e-05
5.04629e-05
5.04504e-05
4.81457e-05
4.79951e-05
4.77809e-05
4.75125e-05
4.71989e-05
4.68489e-05
4.64714e-05
4.60753e-05
4.56692e-05
4.52612e-05
4.48585e-05
4.44674e-05
4.40933e-05
4.37405e-05
4.34124e-05
4.31112e-05
4.28385e-05
4.2595e-05
4.2381e-05
4.2196e-05
4.20393e-05
4.19096e-05
4.18056e-05
4.17259e-05
4.16687e-05
4.16322e-05
4.16149e-05
4.07486e-05
4.05182e-05
4.0198e-05
3.9808e-05
3.93663e-05
3.88888e-05
3.83899e-05
3.78823e-05
3.73767e-05
3.68821e-05
3.64059e-05
3.59538e-05
3.55301e-05
3.5138e-05
3.47793e-05
3.4455e-05
3.41655e-05
3.39103e-05
3.36884e-05
3.34987e-05
3.33395e-05
3.32089e-05
3.31052e-05
3.30262e-05
3.297e-05
3.29344e-05
3.29176e-05
3.25911e-05
3.23614e-05
3.20445e-05
3.1662e-05
3.12332e-05
3.07746e-05
3.03009e-05
2.98241e-05
2.93542e-05
2.88992e-05
2.84651e-05
2.80567e-05
2.76771e-05
2.73283e-05
2.70114e-05
2.67269e-05
2.64742e-05
2.62526e-05
2.6061e-05
2.58979e-05
2.57615e-05
2.56502e-05
2.55621e-05
2.54953e-05
2.54479e-05
2.54181e-05
2.5404e-05
2.51958e-05
2.50033e-05
2.47385e-05
2.44201e-05
2.40647e-05
2.36864e-05
2.32974e-05
2.29078e-05
2.25255e-05
2.2157e-05
2.18069e-05
2.14787e-05
2.11748e-05
2.08965e-05
2.06445e-05
2.04188e-05
2.02189e-05
2.00441e-05
1.98933e-05
1.97651e-05
1.96583e-05
1.95713e-05
1.95026e-05
1.94506e-05
1.94138e-05
1.93907e-05
1.93798e-05
1.91644e-05
1.90165e-05
1.88132e-05
1.85693e-05
1.82974e-05
1.80087e-05
1.77123e-05
1.7416e-05
1.71258e-05
1.68466e-05
1.65818e-05
1.6334e-05
1.61049e-05
1.58954e-05
1.57059e-05
1.55365e-05
1.53866e-05
1.52557e-05
1.51429e-05
1.50472e-05
1.49675e-05
1.49026e-05
1.48515e-05
1.48128e-05
1.47855e-05
1.47684e-05
1.47603e-05
1.45303e-05
1.44215e-05
1.42722e-05
1.4093e-05
1.38934e-05
1.36815e-05
1.34642e-05
1.32471e-05
1.30346e-05
1.28302e-05
1.26365e-05
1.24554e-05
1.2288e-05
1.21351e-05
1.19969e-05
1.18733e-05
1.17642e-05
1.16689e-05
1.15868e-05
1.15172e-05
1.14593e-05
1.14122e-05
1.13751e-05
1.13471e-05
1.13273e-05
1.13149e-05
1.13091e-05
1.1083e-05
1.10046e-05
1.0897e-05
1.07678e-05
1.0624e-05
1.04713e-05
1.03147e-05
1.01582e-05
1.00052e-05
9.85796e-06
9.71848e-06
9.58806e-06
9.46757e-06
9.35752e-06
9.2581e-06
9.16927e-06
9.09081e-06
9.02236e-06
8.96344e-06
8.91352e-06
8.87199e-06
8.83824e-06
8.81166e-06
8.79161e-06
8.77747e-06
8.76861e-06
8.76446e-06
8.55676e-06
8.50062e-06
8.4235e-06
8.33097e-06
8.22788e-06
8.11844e-06
8.00619e-06
7.89402e-06
7.78427e-06
7.67872e-06
7.57873e-06
7.48524e-06
7.39889e-06
7.32004e-06
7.24883e-06
7.18523e-06
7.12909e-06
7.08013e-06
7.03802e-06
7.00236e-06
6.97273e-06
6.94867e-06
6.92971e-06
6.91543e-06
6.90536e-06
6.89906e-06
6.89612e-06
6.71286e-06
6.67255e-06
6.61718e-06
6.55073e-06
6.4767e-06
6.39809e-06
6.31744e-06
6.23686e-06
6.15801e-06
6.08218e-06
6.01035e-06
5.94321e-06
5.88121e-06
5.82461e-06
5.77352e-06
5.72791e-06
5.68768e-06
5.65262e-06
5.62249e-06
5.59699e-06
5.57583e-06
5.55867e-06
5.54516e-06
5.53499e-06
5.52782e-06
5.52334e-06
5.52125e-06
5.36264e-06
5.33351e-06
5.2935e-06
5.24547e-06
5.19195e-06
5.13512e-06
5.07681e-06
5.01855e-06
4.96155e-06
4.90674e-06
4.85484e-06
4.80633e-06
4.76155e-06
4.7207e-06
4.68384e-06
4.65097e-06
4.62198e-06
4.59675e-06
4.57508e-06
4.55677e-06
4.54159e-06
4.52929e-06
4.51963e-06
4.51236e-06
4.50725e-06
4.50406e-06
4.50257e-06
4.36623e-06
4.34499e-06
4.31581e-06
4.28078e-06
4.24174e-06
4.2003e-06
4.15778e-06
4.11529e-06
4.07374e-06
4.03379e-06
3.99597e-06
3.96065e-06
3.92806e-06
3.89834e-06
3.87155e-06
3.84768e-06
3.82665e-06
3.80836e-06
3.79268e-06
3.77944e-06
3.76848e-06
3.75961e-06
3.75266e-06
3.74744e-06
3.74377e-06
3.74149e-06
3.74043e-06
3.6231e-06
3.60745e-06
3.58595e-06
3.56014e-06
3.53138e-06
3.50084e-06
3.46952e-06
3.43824e-06
3.40765e-06
3.37826e-06
3.35044e-06
3.32448e-06
3.30055e-06
3.27874e-06
3.2591e-06
3.24162e-06
3.22623e-06
3.21287e-06
3.20143e-06
3.19179e-06
3.18382e-06
3.17738e-06
3.17234e-06
3.16857e-06
3.16592e-06
3.16428e-06
3.16352e-06
3.06202e-06
3.05036e-06
3.03434e-06
3.01512e-06
2.9937e-06
2.97097e-06
2.94766e-06
2.92439e-06
2.90164e-06
2.8798e-06
2.85914e-06
2.83987e-06
2.82213e-06
2.80598e-06
2.79145e-06
2.77854e-06
2.76719e-06
2.75735e-06
2.74894e-06
2.74186e-06
2.73602e-06
2.73132e-06
2.72765e-06
2.7249e-06
2.72298e-06
2.7218e-06
2.72125e-06
2.63276e-06
2.62398e-06
2.61192e-06
2.59745e-06
2.58133e-06
2.56422e-06
2.54669e-06
2.5292e-06
2.51211e-06
2.49571e-06
2.48022e-06
2.46578e-06
2.4525e-06
2.44043e-06
2.42959e-06
2.41997e-06
2.41153e-06
2.40423e-06
2.39799e-06
2.39277e-06
2.38846e-06
2.385e-06
2.38231e-06
2.38031e-06
2.37891e-06
2.37805e-06
2.37765e-06
2.29986e-06
2.29318e-06
2.284e-06
2.27298e-06
2.26072e-06
2.24772e-06
2.2344e-06
2.22111e-06
2.20815e-06
2.19572e-06
2.18399e-06
2.17307e-06
2.16304e-06
2.15394e-06
2.14578e-06
2.13855e-06
2.13223e-06
2.12677e-06
2.12212e-06
2.11823e-06
2.11504e-06
2.11249e-06
2.11051e-06
2.10904e-06
2.10802e-06
2.10739e-06
2.1071e-06
2.03815e-06
2.033e-06
2.02594e-06
2.01748e-06
2.00806e-06
1.99807e-06
1.98785e-06
1.97766e-06
1.96773e-06
1.95822e-06
1.94926e-06
1.94093e-06
1.93329e-06
1.92637e-06
1.92019e-06
1.91472e-06
1.90994e-06
1.90583e-06
1.90235e-06
1.89944e-06
1.89707e-06
1.89517e-06
1.89371e-06
1.89263e-06
1.89189e-06
1.89143e-06
1.89122e-06
1.82962e-06
1.82562e-06
1.82014e-06
1.81357e-06
1.80626e-06
1.79851e-06
1.7906e-06
1.78271e-06
1.77504e-06
1.7677e-06
1.76079e-06
1.75439e-06
1.74853e-06
1.74323e-06
1.73851e-06
1.73434e-06
1.73072e-06
1.72761e-06
1.72499e-06
1.72281e-06
1.72103e-06
1.71963e-06
1.71855e-06
1.71775e-06
1.71721e-06
1.71688e-06
1.71673e-06
1.6613e-06
1.65816e-06
1.65387e-06
1.64872e-06
1.64299e-06
1.63694e-06
1.63075e-06
1.6246e-06
1.61862e-06
1.61291e-06
1.60755e-06
1.60259e-06
1.59806e-06
1.59398e-06
1.59035e-06
1.58716e-06
1.5844e-06
1.58204e-06
1.58006e-06
1.57842e-06
1.5771e-06
1.57605e-06
1.57526e-06
1.57468e-06
1.57429e-06
1.57405e-06
1.57395e-06
1.52373e-06
1.52125e-06
1.51786e-06
1.51379e-06
1.50927e-06
1.50449e-06
1.49962e-06
1.49479e-06
1.49009e-06
1.48562e-06
1.48143e-06
1.47756e-06
1.47405e-06
1.47089e-06
1.46809e-06
1.46564e-06
1.46353e-06
1.46173e-06
1.46024e-06
1.45901e-06
1.45802e-06
1.45725e-06
1.45667e-06
1.45625e-06
1.45597e-06
1.4558e-06
1.45573e-06
1.40998e-06
1.408e-06
1.40529e-06
1.40206e-06
1.39846e-06
1.39467e-06
1.39081e-06
1.38698e-06
1.38327e-06
1.37975e-06
1.37646e-06
1.37343e-06
1.37068e-06
1.36823e-06
1.36606e-06
1.36418e-06
1.36257e-06
1.3612e-06
1.36007e-06
1.35916e-06
1.35843e-06
1.35786e-06
1.35744e-06
1.35715e-06
1.35695e-06
1.35684e-06
1.35679e-06
1.31487e-06
1.31329e-06
1.31112e-06
1.30852e-06
1.30565e-06
1.30261e-06
1.29953e-06
1.29649e-06
1.29354e-06
1.29075e-06
1.28816e-06
1.28578e-06
1.28363e-06
1.28172e-06
1.28005e-06
1.2786e-06
1.27737e-06
1.27634e-06
1.27549e-06
1.27481e-06
1.27428e-06
1.27387e-06
1.27358e-06
1.27337e-06
1.27324e-06
1.27317e-06
1.27314e-06
1.23455e-06
1.23327e-06
1.23152e-06
1.22943e-06
1.22711e-06
1.22468e-06
1.22221e-06
1.21978e-06
1.21743e-06
1.21522e-06
1.21317e-06
1.21129e-06
1.20961e-06
1.20813e-06
1.20683e-06
1.20573e-06
1.20479e-06
1.20402e-06
1.20339e-06
1.2029e-06
1.20252e-06
1.20224e-06
1.20204e-06
1.2019e-06
1.20182e-06
1.20178e-06
1.20176e-06
1.16608e-06
1.16504e-06
1.16362e-06
1.16193e-06
1.16006e-06
1.1581e-06
1.15612e-06
1.15417e-06
1.1523e-06
1.15054e-06
1.14891e-06
1.14744e-06
1.14613e-06
1.14498e-06
1.14399e-06
1.14314e-06
1.14245e-06
1.14188e-06
1.14142e-06
1.14107e-06
1.14081e-06
1.14062e-06
1.1405e-06
1.14042e-06
1.14037e-06
1.14035e-06
1.14035e-06
1.10722e-06
1.10637e-06
1.10522e-06
1.10385e-06
1.10234e-06
1.10075e-06
1.09916e-06
1.09759e-06
1.0961e-06
1.09471e-06
1.09343e-06
1.09227e-06
1.09126e-06
1.09037e-06
1.08962e-06
1.08899e-06
1.08848e-06
1.08807e-06
1.08775e-06
1.08751e-06
1.08735e-06
1.08723e-06
1.08716e-06
1.08713e-06
1.08711e-06
1.08711e-06
1.08712e-06
1.05624e-06
1.05555e-06
1.05461e-06
1.0535e-06
1.05228e-06
1.051e-06
1.04972e-06
1.04847e-06
1.04728e-06
1.04618e-06
1.04517e-06
1.04428e-06
1.0435e-06
1.04283e-06
1.04227e-06
1.04181e-06
1.04144e-06
1.04116e-06
1.04096e-06
1.04081e-06
1.04072e-06
1.04066e-06
1.04064e-06
1.04064e-06
1.04065e-06
1.04066e-06
1.04067e-06
1.01179e-06
1.01123e-06
1.01047e-06
1.00957e-06
1.00858e-06
1.00755e-06
1.00653e-06
1.00553e-06
1.0046e-06
1.00373e-06
1.00296e-06
1.00227e-06
1.00168e-06
1.00119e-06
1.00079e-06
1.00047e-06
1.00022e-06
1.00005e-06
9.99927e-07
9.99856e-07
9.99823e-07
9.99818e-07
9.99833e-07
9.99858e-07
9.99887e-07
9.99912e-07
9.99927e-07
9.72826e-07
9.72372e-07
9.71756e-07
9.71029e-07
9.70235e-07
9.69415e-07
9.68601e-07
9.67818e-07
9.67087e-07
9.66422e-07
9.65832e-07
9.65323e-07
9.64894e-07
9.64545e-07
9.6427e-07
9.64065e-07
9.63921e-07
9.6383e-07
9.63784e-07
9.63774e-07
9.6379e-07
9.63825e-07
9.6387e-07
9.63918e-07
9.63962e-07
9.63996e-07
9.64015e-07
9.38503e-07
9.38138e-07
9.37644e-07
9.37064e-07
9.36434e-07
9.35788e-07
9.35152e-07
9.34547e-07
9.33989e-07
9.33491e-07
9.33058e-07
9.32694e-07
9.32399e-07
9.32171e-07
9.32005e-07
9.31895e-07
9.31835e-07
9.31816e-07
9.31831e-07
9.31871e-07
9.31929e-07
9.31996e-07
9.32066e-07
9.32133e-07
9.32189e-07
9.32231e-07
9.32254e-07
9.08165e-07
9.07876e-07
9.07487e-07
9.07031e-07
9.06541e-07
9.06043e-07
9.05559e-07
9.05105e-07
9.04696e-07
9.04339e-07
9.0404e-07
9.03801e-07
9.0362e-07
9.03496e-07
9.03422e-07
9.03394e-07
9.03405e-07
9.03448e-07
9.03514e-07
9.03597e-07
9.0369e-07
9.03786e-07
9.03877e-07
9.03959e-07
9.04027e-07
9.04076e-07
9.04101e-07
8.8129e-07
8.81067e-07
8.80767e-07
8.80421e-07
8.80051e-07
8.79682e-07
8.79329e-07
8.79007e-07
8.78727e-07
8.78494e-07
8.78311e-07
8.7818e-07
8.78099e-07
8.78065e-07
8.78072e-07
8.78116e-07
8.78189e-07
8.78285e-07
8.78397e-07
8.78518e-07
8.78642e-07
8.78761e-07
8.78872e-07
8.78968e-07
8.79045e-07
8.79099e-07
8.79128e-07
8.57465e-07
8.57299e-07
8.5708e-07
8.56829e-07
8.56567e-07
8.56311e-07
8.56075e-07
8.55871e-07
8.55705e-07
8.55581e-07
8.55503e-07
8.55469e-07
8.55477e-07
8.55523e-07
8.55603e-07
8.5571e-07
8.5584e-07
8.55984e-07
8.56137e-07
8.56292e-07
8.56443e-07
8.56586e-07
8.56713e-07
8.56822e-07
8.56908e-07
8.56967e-07
8.56998e-07
8.36367e-07
8.36254e-07
8.36107e-07
8.35943e-07
8.35778e-07
8.35625e-07
8.35496e-07
8.35398e-07
8.35336e-07
8.35314e-07
8.3533e-07
8.35385e-07
8.35475e-07
8.35596e-07
8.35742e-07
8.3591e-07
8.36091e-07
8.3628e-07
8.36471e-07
8.36658e-07
8.36836e-07
8.36999e-07
8.37143e-07
8.37264e-07
8.37358e-07
8.37423e-07
8.37456e-07
8.1775e-07
8.17686e-07
8.17606e-07
8.17523e-07
8.17449e-07
8.17393e-07
8.17363e-07
8.17365e-07
8.17402e-07
8.17474e-07
8.1758e-07
8.17719e-07
8.17887e-07
8.18079e-07
8.1829e-07
8.18514e-07
8.18745e-07
8.18978e-07
8.19206e-07
8.19425e-07
8.19628e-07
8.19812e-07
8.19972e-07
8.20105e-07
8.20207e-07
8.20277e-07
8.20313e-07
8.01434e-07
8.01417e-07
8.01401e-07
8.01396e-07
8.01409e-07
8.01446e-07
8.01513e-07
8.01612e-07
8.01744e-07
8.01908e-07
8.02103e-07
8.02324e-07
8.02569e-07
8.02831e-07
8.03105e-07
8.03386e-07
8.03668e-07
8.03945e-07
8.04211e-07
8.04461e-07
8.04691e-07
8.04896e-07
8.05073e-07
8.05218e-07
8.05329e-07
8.05404e-07
8.05443e-07
7.87298e-07
7.87327e-07
7.87376e-07
7.87448e-07
7.87547e-07
7.87678e-07
7.8784e-07
7.88036e-07
7.88264e-07
7.88522e-07
7.88805e-07
7.89111e-07
7.89434e-07
7.89768e-07
7.90108e-07
7.90448e-07
7.90782e-07
7.91105e-07
7.9141e-07
7.91694e-07
7.91952e-07
7.9218e-07
7.92374e-07
7.92533e-07
7.92654e-07
7.92735e-07
7.92776e-07
7.75278e-07
7.75355e-07
7.75468e-07
7.75619e-07
7.75808e-07
7.76034e-07
7.76296e-07
7.76593e-07
7.7692e-07
7.77275e-07
7.77652e-07
7.78047e-07
7.78452e-07
7.78863e-07
7.79273e-07
7.79676e-07
7.80066e-07
7.80438e-07
7.80787e-07
7.81108e-07
7.81396e-07
7.8165e-07
7.81864e-07
7.82038e-07
7.8217e-07
7.82258e-07
7.82302e-07
7.65364e-07
7.6549e-07
7.65672e-07
7.65907e-07
7.6619e-07
7.66518e-07
7.66887e-07
7.67291e-07
7.67726e-07
7.68186e-07
7.68664e-07
7.69154e-07
7.6965e-07
7.70145e-07
7.70632e-07
7.71105e-07
7.71558e-07
7.71985e-07
7.72382e-07
7.72744e-07
7.73068e-07
7.7335e-07
7.73587e-07
7.73779e-07
7.73923e-07
7.74019e-07
7.74067e-07
7.57601e-07
7.57781e-07
7.58039e-07
7.58365e-07
7.58752e-07
7.59191e-07
7.59676e-07
7.60199e-07
7.60753e-07
7.61329e-07
7.6192e-07
7.62518e-07
7.63115e-07
7.63704e-07
7.64278e-07
7.6483e-07
7.65354e-07
7.65845e-07
7.66297e-07
7.66707e-07
7.67071e-07
7.67386e-07
7.67651e-07
7.67863e-07
7.68022e-07
7.68127e-07
7.68179e-07
7.52098e-07
7.52339e-07
7.52681e-07
7.53109e-07
7.53612e-07
7.54177e-07
7.54793e-07
7.55451e-07
7.56139e-07
7.56847e-07
7.57567e-07
7.58287e-07
7.59001e-07
7.59699e-07
7.60373e-07
7.61017e-07
7.61624e-07
7.62188e-07
7.62706e-07
7.63172e-07
7.63583e-07
7.63938e-07
7.64234e-07
7.6447e-07
7.64647e-07
7.64763e-07
7.64821e-07
7.49031e-07
7.49341e-07
7.4978e-07
7.50326e-07
7.50962e-07
7.51671e-07
7.5244e-07
7.53252e-07
7.54096e-07
7.54958e-07
7.55827e-07
7.56692e-07
7.57541e-07
7.58366e-07
7.59159e-07
7.59911e-07
7.60615e-07
7.61267e-07
7.61862e-07
7.62395e-07
7.62863e-07
7.63265e-07
7.63599e-07
7.63865e-07
7.64062e-07
7.64193e-07
7.64257e-07
7.48662e-07
7.49053e-07
7.49604e-07
7.50287e-07
7.51079e-07
7.51959e-07
7.52905e-07
7.53901e-07
7.54928e-07
7.55972e-07
7.57018e-07
7.58053e-07
7.59064e-07
7.60041e-07
7.60974e-07
7.61855e-07
7.62677e-07
7.63434e-07
7.64121e-07
7.64735e-07
7.65272e-07
7.65731e-07
7.66111e-07
7.66412e-07
7.66635e-07
7.66782e-07
7.66854e-07
7.5135e-07
7.51837e-07
7.52522e-07
7.53369e-07
7.54348e-07
7.55429e-07
7.56589e-07
7.57804e-07
7.59052e-07
7.60314e-07
7.61572e-07
7.62812e-07
7.64018e-07
7.65178e-07
7.66281e-07
7.67319e-07
7.68283e-07
7.69167e-07
7.69966e-07
7.70677e-07
7.71298e-07
7.71826e-07
7.72262e-07
7.72607e-07
7.72862e-07
7.73028e-07
7.7311e-07
7.57587e-07
7.58191e-07
7.59037e-07
7.60082e-07
7.61286e-07
7.62613e-07
7.64031e-07
7.65511e-07
7.67027e-07
7.68554e-07
7.70072e-07
7.7156e-07
7.73004e-07
7.74387e-07
7.75699e-07
7.76927e-07
7.78065e-07
7.79105e-07
7.80042e-07
7.80873e-07
7.81595e-07
7.82209e-07
7.82714e-07
7.83112e-07
7.83405e-07
7.83596e-07
7.83689e-07
7.68033e-07
7.68778e-07
7.69823e-07
7.71111e-07
7.72591e-07
7.74219e-07
7.75955e-07
7.77761e-07
7.79606e-07
7.81459e-07
7.83296e-07
7.85092e-07
7.86827e-07
7.88486e-07
7.90054e-07
7.91518e-07
7.92869e-07
7.94101e-07
7.95208e-07
7.96186e-07
7.97035e-07
7.97754e-07
7.98343e-07
7.98807e-07
7.99147e-07
7.99369e-07
7.99477e-07
7.83571e-07
7.84493e-07
7.85784e-07
7.87373e-07
7.89197e-07
7.91199e-07
7.93329e-07
7.95541e-07
7.97795e-07
8.00054e-07
8.02286e-07
8.04464e-07
8.06564e-07
8.08565e-07
8.10451e-07
8.12208e-07
8.13825e-07
8.15295e-07
8.16613e-07
8.17774e-07
8.18779e-07
8.19628e-07
8.20323e-07
8.20867e-07
8.21267e-07
8.21526e-07
8.21652e-07
8.05388e-07
8.06532e-07
8.08133e-07
8.101e-07
8.12355e-07
8.14827e-07
8.17452e-07
8.20173e-07
8.2294e-07
8.25708e-07
8.28438e-07
8.31095e-07
8.3365e-07
8.3608e-07
8.38365e-07
8.40488e-07
8.42438e-07
8.44206e-07
8.45786e-07
8.47176e-07
8.48376e-07
8.49386e-07
8.50212e-07
8.50857e-07
8.51329e-07
8.51635e-07
8.51784e-07
8.3508e-07
8.36505e-07
8.38498e-07
8.40944e-07
8.43745e-07
8.46812e-07
8.50064e-07
8.5343e-07
8.56846e-07
8.60258e-07
8.63615e-07
8.66876e-07
8.70007e-07
8.72977e-07
8.75763e-07
8.78346e-07
8.80713e-07
8.82854e-07
8.84764e-07
8.86439e-07
8.87882e-07
8.89094e-07
8.90082e-07
8.90853e-07
8.91415e-07
8.91779e-07
8.91955e-07
8.74783e-07
8.76566e-07
8.79058e-07
8.82116e-07
8.85613e-07
8.89436e-07
8.93486e-07
8.97671e-07
9.01912e-07
9.06139e-07
9.10291e-07
9.14317e-07
9.18173e-07
9.21823e-07
9.2524e-07
9.28401e-07
9.3129e-07
9.33898e-07
9.36219e-07
9.3825e-07
9.39995e-07
9.41458e-07
9.42647e-07
9.43573e-07
9.44247e-07
9.44682e-07
9.44892e-07
9.27324e-07
9.29565e-07
9.32694e-07
9.3653e-07
9.40913e-07
9.457e-07
9.50762e-07
9.55985e-07
9.61268e-07
9.66524e-07
9.71676e-07
9.76659e-07
9.8142e-07
9.85914e-07
9.90108e-07
9.93975e-07
9.97498e-07
1.00067e-06
1.00348e-06
1.00594e-06
1.00804e-06
1.0098e-06
1.01122e-06
1.01233e-06
1.01313e-06
1.01365e-06
1.0139e-06
9.96329e-07
9.99146e-07
1.00307e-06
1.00788e-06
1.01336e-06
1.01935e-06
1.02566e-06
1.03217e-06
1.03874e-06
1.04528e-06
1.05167e-06
1.05785e-06
1.06375e-06
1.06931e-06
1.0745e-06
1.07928e-06
1.08363e-06
1.08753e-06
1.09099e-06
1.09401e-06
1.09658e-06
1.09874e-06
1.10048e-06
1.10182e-06
1.1028e-06
1.10343e-06
1.10373e-06
1.08596e-06
1.08951e-06
1.09445e-06
1.1005e-06
1.1074e-06
1.11491e-06
1.12284e-06
1.13098e-06
1.13919e-06
1.14733e-06
1.15528e-06
1.16294e-06
1.17023e-06
1.17709e-06
1.18346e-06
1.18932e-06
1.19464e-06
1.1994e-06
1.20361e-06
1.20727e-06
1.21039e-06
1.21298e-06
1.21508e-06
1.2167e-06
1.21787e-06
1.21862e-06
1.21898e-06
1.20131e-06
1.2057e-06
1.21181e-06
1.21927e-06
1.22777e-06
1.237e-06
1.24672e-06
1.25669e-06
1.26671e-06
1.27662e-06
1.28627e-06
1.29555e-06
1.30435e-06
1.31261e-06
1.32027e-06
1.32728e-06
1.33363e-06
1.33931e-06
1.34431e-06
1.34865e-06
1.35234e-06
1.35541e-06
1.35788e-06
1.35978e-06
1.36115e-06
1.36203e-06
1.36245e-06
1.34509e-06
1.35035e-06
1.35767e-06
1.36658e-06
1.37671e-06
1.38769e-06
1.39921e-06
1.411e-06
1.42282e-06
1.43447e-06
1.44578e-06
1.45661e-06
1.46687e-06
1.47646e-06
1.48532e-06
1.49343e-06
1.50074e-06
1.50726e-06
1.51299e-06
1.51795e-06
1.52216e-06
1.52564e-06
1.52845e-06
1.5306e-06
1.53216e-06
1.53315e-06
1.53362e-06
1.51644e-06
1.52244e-06
1.53078e-06
1.54092e-06
1.55241e-06
1.56482e-06
1.57781e-06
1.59105e-06
1.60428e-06
1.61727e-06
1.62984e-06
1.64184e-06
1.65316e-06
1.66371e-06
1.67343e-06
1.68229e-06
1.69026e-06
1.69735e-06
1.70356e-06
1.70892e-06
1.71345e-06
1.71721e-06
1.72022e-06
1.72253e-06
1.72419e-06
1.72525e-06
1.72576e-06
1.70823e-06
1.71464e-06
1.72352e-06
1.73429e-06
1.74644e-06
1.75954e-06
1.77318e-06
1.78704e-06
1.80083e-06
1.81432e-06
1.82732e-06
1.83968e-06
1.85129e-06
1.86208e-06
1.87198e-06
1.88097e-06
1.88903e-06
1.89618e-06
1.90244e-06
1.90781e-06
1.91236e-06
1.91611e-06
1.91911e-06
1.92141e-06
1.92306e-06
1.92411e-06
1.92461e-06
1.90629e-06
1.91257e-06
1.92125e-06
1.93175e-06
1.94356e-06
1.95624e-06
1.96939e-06
1.9827e-06
1.99588e-06
2.00871e-06
2.02103e-06
2.0327e-06
2.04361e-06