/*--------------------------------*- C++ -*----------------------------------*\
| =========                 |                                                 |
| \\      /  F ield         | OpenFOAM: The Open Source CFD Toolbox           |
|  \\    /   O peration     | Version:  2106                                  |
|   \\  /    A nd           | Website:  www.openfoam.com                      |
|    \\/     M anipulation  |                                                 |
\*---------------------------------------------------------------------------*/
FoamFile
{
    version     2.0;
    format      ascii;
    arch        "LSB;label=32;scalar=64";
    class       volScalarField;
    location    "160.00011";
    object      C4H61_0;
}
// * * * * * * * * * * * * * * * * * * * * * * * * * * * * * * * * * * * * * //

dimensions      [0 0 0 0 0 0 0];

internalField   nonuniform List<scalar> 
3360
(
1.09671e-18
1.132e-18
1.18111e-18
1.24117e-18
1.3097e-18
1.38444e-18
1.46335e-18
1.54461e-18
1.62659e-18
1.70783e-18
1.7871e-18
1.86334e-18
1.93567e-18
2.00338e-18
2.06596e-18
2.12303e-18
2.17436e-18
2.21986e-18
2.25954e-18
2.29352e-18
2.32201e-18
2.34528e-18
2.36365e-18
2.37752e-18
2.38727e-18
2.39334e-18
2.39615e-18
4.81101e-18
4.98783e-18
5.23735e-18
5.54809e-18
5.91051e-18
6.31634e-18
6.75814e-18
7.22912e-18
7.72298e-18
8.23374e-18
8.75568e-18
9.28322e-18
9.81086e-18
1.03332e-17
1.08448e-17
1.13406e-17
1.18153e-17
1.2264e-17
1.26819e-17
1.30645e-17
1.34077e-17
1.37079e-17
1.3962e-17
1.41675e-17
1.43226e-17
1.44262e-17
1.44778e-17
1.5095e-17
1.57575e-17
1.66988e-17
1.78817e-17
1.92751e-17
2.08512e-17
2.25835e-17
2.44458e-17
2.64119e-17
2.84547e-17
3.05466e-17
3.26604e-17
3.47688e-17
3.68452e-17
3.88636e-17
4.07996e-17
4.26303e-17
4.43354e-17
4.58971e-17
4.73009e-17
4.85353e-17
4.95924e-17
5.04674e-17
5.11591e-17
5.1669e-17
5.20015e-17
5.21634e-17
4.39607e-17
4.61441e-17
4.92676e-17
5.32194e-17
5.7906e-17
6.324e-17
6.9134e-17
7.54972e-17
8.22345e-17
8.92461e-17
9.64285e-17
1.03677e-16
1.10886e-16
1.17956e-16
1.24789e-16
1.31297e-16
1.37401e-16
1.43035e-16
1.48145e-16
1.52691e-16
1.56646e-16
1.59997e-16
1.62741e-16
1.64888e-16
1.66454e-16
1.67465e-16
1.67953e-16
1.28435e-16
1.35322e-16
1.45194e-16
1.57713e-16
1.72593e-16
1.89558e-16
2.08326e-16
2.28598e-16
2.50053e-16
2.72356e-16
2.95158e-16
3.18108e-16
3.40861e-16
3.63089e-16
3.84488e-16
4.04784e-16
4.23742e-16
4.41168e-16
4.56911e-16
4.70864e-16
4.82962e-16
4.93176e-16
5.01516e-16
5.08021e-16
5.12756e-16
5.15806e-16
5.17274e-16
3.78691e-16
3.99844e-16
4.30199e-16
4.68725e-16
5.14543e-16
5.66797e-16
6.24604e-16
6.87024e-16
7.53051e-16
8.21628e-16
8.91665e-16
9.62066e-16
1.03176e-15
1.09974e-15
1.16506e-15
1.22691e-15
1.28458e-15
1.33748e-15
1.3852e-15
1.42741e-15
1.46395e-15
1.49475e-15
1.51986e-15
1.53942e-15
1.55364e-15
1.56279e-15
1.56719e-15
1.12489e-15
1.18917e-15
1.2814e-15
1.39847e-15
1.53768e-15
1.69641e-15
1.87194e-15
2.06136e-15
2.2616e-15
2.46939e-15
2.68141e-15
2.89433e-15
3.10491e-15
3.31009e-15
3.50709e-15
3.69344e-15
3.86705e-15
4.02622e-15
4.16966e-15
4.2965e-15
4.40623e-15
4.4987e-15
4.57406e-15
4.63274e-15
4.67539e-15
4.70282e-15
4.71601e-15
3.35261e-15
3.54601e-15
3.82368e-15
4.17624e-15
4.59559e-15
5.07383e-15
5.60271e-15
6.17341e-15
6.77658e-15
7.40237e-15
8.04072e-15
8.68154e-15
9.31509e-15
9.93216e-15
1.05244e-14
1.10843e-14
1.16057e-14
1.20835e-14
1.2514e-14
1.28944e-14
1.32234e-14
1.35005e-14
1.37263e-14
1.3902e-14
1.40296e-14
1.41117e-14
1.41512e-14
1.00186e-14
1.05998e-14
1.14342e-14
1.24934e-14
1.37532e-14
1.51896e-14
1.67777e-14
1.84909e-14
2.03011e-14
2.21785e-14
2.40928e-14
2.6014e-14
2.79127e-14
2.97614e-14
3.1535e-14
3.32117e-14
3.47726e-14
3.62027e-14
3.74909e-14
3.86292e-14
3.96136e-14
4.04426e-14
4.1118e-14
4.16437e-14
4.20256e-14
4.22712e-14
4.23892e-14
2.99404e-14
3.16813e-14
3.41808e-14
3.73542e-14
4.11285e-14
4.54319e-14
5.01896e-14
5.53219e-14
6.07437e-14
6.63664e-14
7.20988e-14
7.78506e-14
8.35341e-14
8.90668e-14
9.43739e-14
9.93894e-14
1.04058e-13
1.08334e-13
1.12185e-13
1.15587e-13
1.18528e-13
1.21005e-13
1.23022e-13
1.24591e-13
1.25731e-13
1.26464e-13
1.26817e-13
8.95218e-14
9.47338e-14
1.02215e-13
1.11712e-13
1.23005e-13
1.35877e-13
1.50105e-13
1.65448e-13
1.81652e-13
1.98451e-13
2.15573e-13
2.32747e-13
2.49711e-13
2.66221e-13
2.82053e-13
2.97012e-13
3.10931e-13
3.23679e-13
3.35156e-13
3.45295e-13
3.54058e-13
3.61437e-13
3.67446e-13
3.72121e-13
3.75517e-13
3.777e-13
3.78749e-13
2.6742e-13
2.82983e-13
3.05321e-13
3.33673e-13
3.67379e-13
4.05792e-13
4.48237e-13
4.93996e-13
5.42308e-13
5.92375e-13
6.43385e-13
6.94533e-13
7.45039e-13
7.94172e-13
8.41271e-13
8.85754e-13
9.27133e-13
9.65017e-13
9.99111e-13
1.02922e-12
1.05523e-12
1.07713e-12
1.09496e-12
1.10883e-12
1.1189e-12
1.12537e-12
1.12848e-12
7.97991e-13
8.44383e-13
9.10945e-13
9.95391e-13
1.09574e-12
1.21003e-12
1.33625e-12
1.47224e-12
1.61573e-12
1.76433e-12
1.91563e-12
2.06724e-12
2.21685e-12
2.3623e-12
2.50165e-12
2.63319e-12
2.75549e-12
2.86739e-12
2.96806e-12
3.05693e-12
3.13368e-12
3.19826e-12
3.25083e-12
3.29171e-12
3.32138e-12
3.34046e-12
3.34962e-12
2.37445e-12
2.51211e-12
2.70956e-12
2.95993e-12
3.25726e-12
3.5957e-12
3.96917e-12
4.37121e-12
4.79504e-12
5.23359e-12
5.67971e-12
6.12632e-12
6.56664e-12
6.99435e-12
7.40373e-12
7.78984e-12
8.14851e-12
8.47645e-12
8.77124e-12
9.03128e-12
9.25573e-12
9.44447e-12
9.59801e-12
9.71734e-12
9.80393e-12
9.85956e-12
9.88627e-12
7.04009e-12
7.44635e-12
8.02863e-12
8.76638e-12
9.64162e-12
1.06367e-11
1.17335e-11
1.29126e-11
1.41539e-11
1.54365e-11
1.67394e-11
1.80419e-11
1.93242e-11
2.05681e-11
2.17571e-11
2.28772e-11
2.39163e-11
2.48655e-11
2.57177e-11
2.64688e-11
2.71165e-11
2.76607e-11
2.81031e-11
2.84467e-11
2.86959e-11
2.88559e-11
2.89327e-11
2.07517e-11
2.19391e-11
2.36395e-11
2.57914e-11
2.83409e-11
3.12352e-11
3.44196e-11
3.78371e-11
4.14281e-11
4.51315e-11
4.88863e-11
5.26327e-11
5.63142e-11
5.98787e-11
6.328e-11
6.64782e-11
6.94407e-11
7.21421e-11
7.45643e-11
7.66959e-11
7.85318e-11
8.00726e-11
8.13236e-11
8.22944e-11
8.29977e-11
8.3449e-11
8.36654e-11
6.06974e-11
6.41228e-11
6.90219e-11
7.52117e-11
8.25305e-11
9.08205e-11
9.992e-11
1.09661e-10
1.1987e-10
1.3037e-10
1.40988e-10
1.51554e-10
1.6191e-10
1.71912e-10
1.81433e-10
1.90364e-10
1.9862e-10
2.06132e-10
2.12855e-10
2.1876e-10
2.23838e-10
2.28093e-10
2.31543e-10
2.34217e-10
2.36153e-10
2.37393e-10
2.37987e-10
1.75666e-10
1.85366e-10
1.99215e-10
2.16673e-10
2.37261e-10
2.60512e-10
2.85951e-10
3.13093e-10
3.41439e-10
3.70495e-10
3.99772e-10
4.28808e-10
4.57171e-10
4.84477e-10
5.10388e-10
5.34625e-10
5.56965e-10
5.77242e-10
5.95345e-10
6.11211e-10
6.24827e-10
6.36215e-10
6.45433e-10
6.52566e-10
6.57721e-10
6.61021e-10
6.62601e-10
5.01358e-10
5.28151e-10
5.66316e-10
6.14284e-10
6.70657e-10
7.34077e-10
8.03181e-10
8.76593e-10
9.52932e-10
1.03084e-09
1.109e-09
1.18619e-09
1.26129e-09
1.3333e-09
1.40139e-09
1.46486e-09
1.52316e-09
1.57593e-09
1.6229e-09
1.66397e-09
1.69913e-09
1.72847e-09
1.75218e-09
1.77049e-09
1.7837e-09
1.79215e-09
1.79619e-09
1.4049e-09
1.47654e-09
1.5783e-09
1.70574e-09
1.85487e-09
2.02186e-09
2.20292e-09
2.39428e-09
2.59225e-09
2.79325e-09
2.9939e-09
3.19109e-09
3.38205e-09
3.56436e-09
3.73601e-09
3.8954e-09
4.0413e-09
4.17289e-09
4.28967e-09
4.39149e-09
4.47843e-09
4.55083e-09
4.6092e-09
4.6542e-09
4.68663e-09
4.70733e-09
4.71721e-09
3.84565e-09
4.02967e-09
4.2902e-09
4.61511e-09
4.99348e-09
5.4149e-09
5.86927e-09
6.34675e-09
6.8379e-09
7.33376e-09
7.82608e-09
8.3074e-09
8.77118e-09
9.21191e-09
9.62506e-09
1.00071e-08
1.03556e-08
1.06688e-08
1.09459e-08
1.11867e-08
1.13919e-08
1.15624e-08
1.16995e-08
1.1805e-08
1.1881e-08
1.19293e-08
1.19524e-08
1.02229e-08
1.06738e-08
1.13099e-08
1.20997e-08
1.30147e-08
1.40281e-08
1.51144e-08
1.62492e-08
1.74097e-08
1.85746e-08
1.9725e-08
2.08437e-08
2.19165e-08
2.29312e-08
2.38784e-08
2.47509e-08
2.55438e-08
2.62541e-08
2.68806e-08
2.74238e-08
2.78853e-08
2.82679e-08
2.85751e-08
2.88112e-08
2.89807e-08
2.90886e-08
2.914e-08
2.6239e-08
2.7288e-08
2.87629e-08
3.0586e-08
3.26875e-08
3.50026e-08
3.74704e-08
4.0034e-08
4.26411e-08
4.52444e-08
4.78019e-08
5.02773e-08
5.26403e-08
5.48662e-08
5.69359e-08
5.88357e-08
6.05565e-08
6.20935e-08
6.34457e-08
6.46152e-08
6.56067e-08
6.6427e-08
6.70846e-08
6.7589e-08
6.79508e-08
6.81808e-08
6.82903e-08
6.47106e-08
6.70255e-08
7.02703e-08
7.42655e-08
7.88507e-08
8.38778e-08
8.92104e-08
9.47232e-08
1.00303e-07
1.05849e-07
1.11274e-07
1.16503e-07
1.21476e-07
1.26144e-07
1.3047e-07
1.34429e-07
1.38006e-07
1.41192e-07
1.43989e-07
1.46404e-07
1.48447e-07
1.50135e-07
1.51485e-07
1.5252e-07
1.53262e-07
1.53733e-07
1.53957e-07
1.52891e-07
1.57752e-07
1.64549e-07
1.72892e-07
1.82433e-07
1.92855e-07
2.03866e-07
2.15206e-07
2.2664e-07
2.37965e-07
2.49004e-07
2.59611e-07
2.69667e-07
2.79081e-07
2.87783e-07
2.95729e-07
3.02891e-07
3.0926e-07
3.14841e-07
3.1965e-07
3.23715e-07
3.27067e-07
3.29748e-07
3.318e-07
3.33268e-07
3.342e-07
3.34642e-07
3.45776e-07
3.55558e-07
3.69211e-07
3.85932e-07
4.05005e-07
4.25782e-07
4.47674e-07
4.70157e-07
4.92766e-07
5.15101e-07
5.36819e-07
5.5764e-07
5.77337e-07
5.95739e-07
6.1272e-07
6.28197e-07
6.42127e-07
6.54496e-07
6.65321e-07
6.74638e-07
6.82503e-07
6.88985e-07
6.94163e-07
6.98123e-07
7.00954e-07
7.0275e-07
7.03603e-07
7.48848e-07
7.6789e-07
7.94441e-07
8.26914e-07
8.63902e-07
9.04131e-07
9.46454e-07
9.89851e-07
1.03343e-06
1.07641e-06
1.11815e-06
1.15811e-06
1.19587e-06
1.23111e-06
1.26358e-06
1.29316e-06
1.31974e-06
1.34333e-06
1.36396e-06
1.38169e-06
1.39665e-06
1.40897e-06
1.41881e-06
1.42633e-06
1.4317e-06
1.4351e-06
1.43672e-06
1.55254e-06
1.58876e-06
1.63926e-06
1.70102e-06
1.77138e-06
1.84791e-06
1.92845e-06
2.01105e-06
2.09402e-06
2.1759e-06
2.25544e-06
2.33163e-06
2.40365e-06
2.47088e-06
2.53288e-06
2.58934e-06
2.64012e-06
2.68518e-06
2.72458e-06
2.75847e-06
2.78704e-06
2.81057e-06
2.82934e-06
2.84368e-06
2.85392e-06
2.86041e-06
2.86348e-06
3.06981e-06
3.13738e-06
3.23175e-06
3.34739e-06
3.47946e-06
3.62354e-06
3.77569e-06
3.93234e-06
4.09035e-06
4.24697e-06
4.39984e-06
4.54699e-06
4.6868e-06
4.818e-06
4.93965e-06
5.0511e-06
5.15193e-06
5.24197e-06
5.32118e-06
5.38973e-06
5.44786e-06
5.49596e-06
5.53448e-06
5.56395e-06
5.58492e-06
5.59815e-06
5.6044e-06
5.73595e-06
5.85723e-06
6.02697e-06
6.23569e-06
6.47502e-06
6.73742e-06
7.0161e-06
7.30488e-06
7.59811e-06
7.89061e-06
8.1776e-06
8.45468e-06
8.71777e-06
8.96313e-06
9.18875e-06
9.39377e-06
9.57775e-06
9.74066e-06
9.88278e-06
1.00047e-05
1.01073e-05
1.01915e-05
1.02584e-05
1.03094e-05
1.03457e-05
1.03686e-05
1.03794e-05
9.99846e-06
1.01957e-05
1.04708e-05
1.08071e-05
1.11888e-05
1.16005e-05
1.20314e-05
1.24716e-05
1.29125e-05
1.33463e-05
1.37664e-05
1.41674e-05
1.45449e-05
1.48957e-05
1.52174e-05
1.55087e-05
1.57691e-05
1.59986e-05
1.61979e-05
1.6368e-05
1.65104e-05
1.66267e-05
1.67188e-05
1.67885e-05
1.68379e-05
1.68689e-05
1.68835e-05
1.57598e-05
1.60001e-05
1.63326e-05
1.67353e-05
1.71884e-05
1.76743e-05
1.81777e-05
1.86854e-05
1.91861e-05
1.96708e-05
2.01323e-05
2.0565e-05
2.09651e-05
2.13303e-05
2.16593e-05
2.1952e-05
2.2209e-05
2.24316e-05
2.26216e-05
2.2781e-05
2.29123e-05
2.30177e-05
2.30997e-05
2.31607e-05
2.32031e-05
2.32291e-05
2.3241e-05
2.19015e-05
2.21187e-05
2.24155e-05
2.27692e-05
2.31594e-05
2.35686e-05
2.39818e-05
2.43869e-05
2.47746e-05
2.51379e-05
2.5472e-05
2.57741e-05
2.60428e-05
2.62782e-05
2.64811e-05
2.66529e-05
2.6796e-05
2.69128e-05
2.70069e-05
2.70813e-05
2.71391e-05
2.71828e-05
2.72149e-05
2.72374e-05
2.72521e-05
2.72606e-05
2.72643e-05
2.66939e-05
2.68166e-05
2.69805e-05
2.71694e-05
2.73694e-05
2.75688e-05
2.77583e-05
2.79312e-05
2.80826e-05
2.82102e-05
2.83132e-05
2.83936e-05
2.8454e-05
2.8497e-05
2.85254e-05
2.85418e-05
2.85487e-05
2.85485e-05
2.85432e-05
2.85345e-05
2.85241e-05
2.85131e-05
2.85025e-05
2.84931e-05
2.84855e-05
2.84802e-05
2.84775e-05
2.87565e-05
2.87622e-05
2.87656e-05
2.87625e-05
2.87497e-05
2.87252e-05
2.86882e-05
2.86387e-05
2.8578e-05
2.85079e-05
2.84305e-05
2.83485e-05
2.8264e-05
2.81794e-05
2.80967e-05
2.80174e-05
2.79429e-05
2.78743e-05
2.78124e-05
2.77576e-05
2.77101e-05
2.76702e-05
2.76376e-05
2.76123e-05
2.75938e-05
2.7582e-05
2.75762e-05
2.80345e-05
2.79702e-05
2.78794e-05
2.77664e-05
2.76354e-05
2.74906e-05
2.73357e-05
2.71748e-05
2.70113e-05
2.68485e-05
2.66893e-05
2.65361e-05
2.63908e-05
2.6255e-05
2.61297e-05
2.60157e-05
2.59134e-05
2.58227e-05
2.57437e-05
2.56759e-05
2.56188e-05
2.5572e-05
2.55348e-05
2.55064e-05
2.54861e-05
2.54733e-05
2.54673e-05
2.56422e-05
2.55545e-05
2.5433e-05
2.52858e-05
2.51199e-05
2.49418e-05
2.47571e-05
2.45706e-05
2.43864e-05
2.42079e-05
2.40375e-05
2.38773e-05
2.37288e-05
2.35926e-05
2.34694e-05
2.33592e-05
2.32619e-05
2.3177e-05
2.31041e-05
2.30424e-05
2.29911e-05
2.29496e-05
2.2917e-05
2.28924e-05
2.2875e-05
2.28642e-05
2.28591e-05
2.26078e-05
2.25246e-05
2.24101e-05
2.22726e-05
2.21194e-05
2.19567e-05
2.17901e-05
2.16238e-05
2.14616e-05
2.13061e-05
2.11595e-05
2.10233e-05
2.08982e-05
2.07848e-05
2.06833e-05
2.05933e-05
2.05146e-05
2.04466e-05
2.03887e-05
2.03402e-05
2.03002e-05
2.02681e-05
2.0243e-05
2.02243e-05
2.02112e-05
2.02031e-05
2.01993e-05
1.95872e-05
1.95197e-05
1.94271e-05
1.93165e-05
1.91939e-05
1.90645e-05
1.89328e-05
1.88023e-05
1.86758e-05
1.85554e-05
1.84427e-05
1.83387e-05
1.82438e-05
1.81584e-05
1.80824e-05
1.80156e-05
1.79575e-05
1.79077e-05
1.78655e-05
1.78304e-05
1.78017e-05
1.77788e-05
1.77611e-05
1.77479e-05
1.77388e-05
1.77331e-05
1.77305e-05
1.68953e-05
1.6845e-05
1.67761e-05
1.66941e-05
1.66035e-05
1.65082e-05
1.64116e-05
1.63163e-05
1.62244e-05
1.61373e-05
1.60562e-05
1.59817e-05
1.59141e-05
1.58536e-05
1.58e-05
1.57532e-05
1.57127e-05
1.56783e-05
1.56493e-05
1.56253e-05
1.56058e-05
1.55904e-05
1.55786e-05
1.55699e-05
1.55639e-05
1.55602e-05
1.55585e-05
1.46278e-05
1.45921e-05
1.45432e-05
1.44852e-05
1.44212e-05
1.43541e-05
1.42863e-05
1.42196e-05
1.41556e-05
1.40951e-05
1.4039e-05
1.39877e-05
1.39415e-05
1.39002e-05
1.3864e-05
1.38324e-05
1.38054e-05
1.37825e-05
1.37634e-05
1.37478e-05
1.37352e-05
1.37253e-05
1.37178e-05
1.37123e-05
1.37086e-05
1.37064e-05
1.37054e-05
1.27688e-05
1.2744e-05
1.27103e-05
1.26702e-05
1.26261e-05
1.25801e-05
1.25336e-05
1.24881e-05
1.24445e-05
1.24036e-05
1.23657e-05
1.23313e-05
1.23005e-05
1.22732e-05
1.22493e-05
1.22288e-05
1.22113e-05
1.21966e-05
1.21845e-05
1.21747e-05
1.2167e-05
1.2161e-05
1.21565e-05
1.21533e-05
1.21512e-05
1.215e-05
1.21494e-05
1.12589e-05
1.1242e-05
1.12189e-05
1.11916e-05
1.11616e-05
1.11303e-05
1.10988e-05
1.10682e-05
1.10389e-05
1.10116e-05
1.09865e-05
1.09638e-05
1.09437e-05
1.0926e-05
1.09107e-05
1.08977e-05
1.08867e-05
1.08777e-05
1.08704e-05
1.08646e-05
1.08601e-05
1.08568e-05
1.08543e-05
1.08527e-05
1.08516e-05
1.0851e-05
1.08508e-05
1.00311e-05
1.00195e-05
1.00037e-05
9.9851e-06
9.96471e-06
9.94354e-06
9.92235e-06
9.90179e-06
9.8823e-06
9.86423e-06
9.84779e-06
9.83308e-06
9.82014e-06
9.80895e-06
9.79942e-06
9.79146e-06
9.78492e-06
9.77966e-06
9.77553e-06
9.77237e-06
9.77003e-06
9.76838e-06
9.76727e-06
9.76659e-06
9.76622e-06
9.76606e-06
9.76601e-06
9.02487e-06
9.0169e-06
9.00609e-06
8.99334e-06
8.97944e-06
8.96508e-06
8.9508e-06
8.93704e-06
8.92412e-06
8.91226e-06
8.9016e-06
8.89221e-06
8.8841e-06
8.87724e-06
8.87155e-06
8.86694e-06
8.8633e-06
8.86052e-06
8.85848e-06
8.85705e-06
8.85612e-06
8.85558e-06
8.85533e-06
8.85528e-06
8.85534e-06
8.85545e-06
8.85553e-06
8.19124e-06
8.1857e-06
8.17821e-06
8.16942e-06
8.15988e-06
8.1501e-06
8.14045e-06
8.13125e-06
8.12273e-06
8.11502e-06
8.10823e-06
8.10239e-06
8.09749e-06
8.09349e-06
8.09033e-06
8.08794e-06
8.08621e-06
8.08505e-06
8.08436e-06
8.08405e-06
8.08402e-06
8.0842e-06
8.08449e-06
8.08483e-06
8.08516e-06
8.08543e-06
8.08558e-06
7.49205e-06
7.48816e-06
7.48292e-06
7.4768e-06
7.47022e-06
7.46353e-06
7.45701e-06
7.45089e-06
7.44532e-06
7.4404e-06
7.4362e-06
7.43273e-06
7.42997e-06
7.42788e-06
7.42639e-06
7.42545e-06
7.42496e-06
7.42486e-06
7.42504e-06
7.42545e-06
7.426e-06
7.42661e-06
7.42724e-06
7.42782e-06
7.42831e-06
7.42867e-06
7.42886e-06
6.89841e-06
6.89565e-06
6.89195e-06
6.88766e-06
6.8831e-06
6.87852e-06
6.87414e-06
6.87012e-06
6.86657e-06
6.86355e-06
6.86111e-06
6.85923e-06
6.85791e-06
6.85709e-06
6.85672e-06
6.85674e-06
6.85708e-06
6.85766e-06
6.85841e-06
6.85928e-06
6.86019e-06
6.86109e-06
6.86193e-06
6.86266e-06
6.86325e-06
6.86366e-06
6.86388e-06
6.38856e-06
6.38659e-06
6.38397e-06
6.38097e-06
6.37782e-06
6.37472e-06
6.37182e-06
6.36926e-06
6.3671e-06
6.3654e-06
6.36416e-06
6.36338e-06
6.36304e-06
6.36308e-06
6.36347e-06
6.36413e-06
6.365e-06
6.36603e-06
6.36716e-06
6.36832e-06
6.36945e-06
6.37053e-06
6.37149e-06
6.37231e-06
6.37295e-06
6.3734e-06
6.37363e-06
5.94616e-06
5.94475e-06
5.94291e-06
5.94082e-06
5.93868e-06
5.93664e-06
5.93481e-06
5.93328e-06
5.93211e-06
5.93133e-06
5.93094e-06
5.93093e-06
5.93127e-06
5.93191e-06
5.93281e-06
5.9339e-06
5.93514e-06
5.93647e-06
5.93783e-06
5.93917e-06
5.94045e-06
5.94162e-06
5.94266e-06
5.94353e-06
5.9442e-06
5.94466e-06
5.94489e-06
5.55881e-06
5.55783e-06
5.55655e-06
5.55515e-06
5.55375e-06
5.55248e-06
5.55143e-06
5.55066e-06
5.55022e-06
5.55011e-06
5.55033e-06
5.55087e-06
5.55169e-06
5.55275e-06
5.55401e-06
5.5554e-06
5.55688e-06
5.55841e-06
5.55992e-06
5.56138e-06
5.56275e-06
5.56398e-06
5.56506e-06
5.56595e-06
5.56663e-06
5.5671e-06
5.56733e-06
5.21705e-06
5.21639e-06
5.21555e-06
5.21466e-06
5.21383e-06
5.21315e-06
5.21269e-06
5.2125e-06
5.21259e-06
5.21299e-06
5.21367e-06
5.21461e-06
5.21579e-06
5.21715e-06
5.21866e-06
5.22027e-06
5.22192e-06
5.22358e-06
5.22519e-06
5.22673e-06
5.22814e-06
5.22941e-06
5.23051e-06
5.23141e-06
5.23209e-06
5.23256e-06
5.23279e-06
4.91354e-06
4.91314e-06
4.91264e-06
4.91216e-06
4.91177e-06
4.91155e-06
4.91155e-06
4.9118e-06
4.91232e-06
4.9131e-06
4.91413e-06
4.91539e-06
4.91683e-06
4.91842e-06
4.92012e-06
4.92188e-06
4.92366e-06
4.92541e-06
4.92709e-06
4.92867e-06
4.93012e-06
4.9314e-06
4.9325e-06
4.93341e-06
4.93409e-06
4.93455e-06
4.93478e-06
4.64252e-06
4.64232e-06
4.6421e-06
4.64195e-06
4.64192e-06
4.64208e-06
4.64245e-06
4.64306e-06
4.64391e-06
4.645e-06
4.64631e-06
4.64781e-06
4.64946e-06
4.65123e-06
4.65307e-06
4.65495e-06
4.65681e-06
4.65863e-06
4.66036e-06
4.66197e-06
4.66343e-06
4.66472e-06
4.66583e-06
4.66672e-06
4.6674e-06
4.66786e-06
4.66809e-06
4.39938e-06
4.39935e-06
4.39937e-06
4.39949e-06
4.39976e-06
4.40022e-06
4.4009e-06
4.40181e-06
4.40294e-06
4.40428e-06
4.40582e-06
4.40752e-06
4.40934e-06
4.41125e-06
4.41321e-06
4.41517e-06
4.4171e-06
4.41897e-06
4.42073e-06
4.42236e-06
4.42383e-06
4.42513e-06
4.42623e-06
4.42712e-06
4.42779e-06
4.42824e-06
4.42846e-06
4.18042e-06
4.18053e-06
4.18074e-06
4.1811e-06
4.18162e-06
4.18235e-06
4.18329e-06
4.18445e-06
4.18581e-06
4.18737e-06
4.1891e-06
4.19096e-06
4.19292e-06
4.19495e-06
4.197e-06
4.19903e-06
4.20102e-06
4.20292e-06
4.20471e-06
4.20635e-06
4.20783e-06
4.20912e-06
4.21022e-06
4.2111e-06
4.21176e-06
4.2122e-06
4.21243e-06
3.98257e-06
3.98281e-06
3.98319e-06
3.98375e-06
3.9845e-06
3.98545e-06
3.98662e-06
3.98799e-06
3.98956e-06
3.9913e-06
3.99319e-06
3.9952e-06
3.99728e-06
3.9994e-06
4.00153e-06
4.00363e-06
4.00566e-06
4.00759e-06
4.0094e-06
4.01105e-06
4.01253e-06
4.01382e-06
4.01491e-06
4.01578e-06
4.01644e-06
4.01687e-06
4.01709e-06
3.80332e-06
3.80367e-06
3.80421e-06
3.80494e-06
3.80588e-06
3.80704e-06
3.8084e-06
3.80997e-06
3.81172e-06
3.81362e-06
3.81565e-06
3.81778e-06
3.81997e-06
3.82218e-06
3.82438e-06
3.82653e-06
3.8286e-06
3.83055e-06
3.83238e-06
3.83404e-06
3.83552e-06
3.8368e-06
3.83788e-06
3.83875e-06
3.8394e-06
3.83983e-06
3.84005e-06
3.64055e-06
3.641e-06
3.64168e-06
3.64257e-06
3.64369e-06
3.64503e-06
3.64657e-06
3.64831e-06
3.65022e-06
3.65227e-06
3.65443e-06
3.65667e-06
3.65896e-06
3.66124e-06
3.6635e-06
3.6657e-06
3.6678e-06
3.66979e-06
3.67162e-06
3.67329e-06
3.67477e-06
3.67605e-06
3.67713e-06
3.67799e-06
3.67864e-06
3.67906e-06
3.67927e-06
3.4925e-06
3.49305e-06
3.49385e-06
3.49489e-06
3.49617e-06
3.49767e-06
3.49938e-06
3.50128e-06
3.50333e-06
3.50552e-06
3.5078e-06
3.51014e-06
3.51252e-06
3.51488e-06
3.5172e-06
3.51944e-06
3.52158e-06
3.52358e-06
3.52543e-06
3.52711e-06
3.52859e-06
3.52987e-06
3.53095e-06
3.5318e-06
3.53244e-06
3.53286e-06
3.53307e-06
3.35768e-06
3.35831e-06
3.35923e-06
3.36041e-06
3.36184e-06
3.3635e-06
3.36536e-06
3.3674e-06
3.3696e-06
3.37191e-06
3.37431e-06
3.37675e-06
3.37921e-06
3.38164e-06
3.38402e-06
3.38631e-06
3.38848e-06
3.39051e-06
3.39238e-06
3.39406e-06
3.39555e-06
3.39683e-06
3.39791e-06
3.39876e-06
3.39939e-06
3.39981e-06
3.40002e-06
3.23484e-06
3.23555e-06
3.23658e-06
3.23789e-06
3.23947e-06
3.24127e-06
3.24329e-06
3.24547e-06
3.24781e-06
3.25024e-06
3.25275e-06
3.2553e-06
3.25784e-06
3.26035e-06
3.26278e-06
3.26512e-06
3.26733e-06
3.26939e-06
3.27127e-06
3.27297e-06
3.27447e-06
3.27576e-06
3.27683e-06
3.27768e-06
3.27832e-06
3.27873e-06
3.27894e-06
3.12294e-06
3.12373e-06
3.12487e-06
3.12631e-06
3.12803e-06
3.12998e-06
3.13215e-06
3.13448e-06
3.13695e-06
3.13951e-06
3.14214e-06
3.14479e-06
3.14742e-06
3.15e-06
3.1525e-06
3.15489e-06
3.15715e-06
3.15924e-06
3.16115e-06
3.16287e-06
3.16438e-06
3.16567e-06
3.16675e-06
3.1676e-06
3.16824e-06
3.16865e-06
3.16886e-06
3.02114e-06
3.02202e-06
3.02326e-06
3.02484e-06
3.0267e-06
3.0288e-06
3.03112e-06
3.0336e-06
3.03621e-06
3.03891e-06
3.04166e-06
3.04442e-06
3.04715e-06
3.04982e-06
3.0524e-06
3.05485e-06
3.05715e-06
3.05929e-06
3.06123e-06
3.06297e-06
3.0645e-06
3.06581e-06
3.0669e-06
3.06776e-06
3.06839e-06
3.06881e-06
3.06902e-06
2.92878e-06
2.92973e-06
2.9311e-06
2.93281e-06
2.93482e-06
2.93709e-06
2.93956e-06
2.94221e-06
2.94498e-06
2.94782e-06
2.95071e-06
2.95359e-06
2.95644e-06
2.9592e-06
2.96187e-06
2.96439e-06
2.96676e-06
2.96894e-06
2.97093e-06
2.97271e-06
2.97426e-06
2.97559e-06
2.97669e-06
2.97756e-06
2.97821e-06
2.97863e-06
2.97883e-06
2.84535e-06
2.84639e-06
2.84788e-06
2.84974e-06
2.85192e-06
2.85436e-06
2.85702e-06
2.85984e-06
2.86278e-06
2.86579e-06
2.86884e-06
2.87186e-06
2.87484e-06
2.87772e-06
2.88049e-06
2.8831e-06
2.88555e-06
2.8878e-06
2.88984e-06
2.89167e-06
2.89326e-06
2.89462e-06
2.89574e-06
2.89662e-06
2.89728e-06
2.89771e-06
2.89791e-06
2.77052e-06
2.77167e-06
2.77329e-06
2.77532e-06
2.77768e-06
2.78032e-06
2.78319e-06
2.78621e-06
2.78935e-06
2.79256e-06
2.79578e-06
2.79898e-06
2.8021e-06
2.80513e-06
2.80802e-06
2.81075e-06
2.8133e-06
2.81563e-06
2.81775e-06
2.81963e-06
2.82127e-06
2.82267e-06
2.82382e-06
2.82473e-06
2.8254e-06
2.82583e-06
2.82605e-06
2.70415e-06
2.70541e-06
2.70719e-06
2.70941e-06
2.71198e-06
2.71485e-06
2.71795e-06
2.72121e-06
2.72459e-06
2.72802e-06
2.73146e-06
2.73486e-06
2.73817e-06
2.74137e-06
2.74442e-06
2.74729e-06
2.74995e-06
2.7524e-06
2.7546e-06
2.75656e-06
2.75827e-06
2.75972e-06
2.76091e-06
2.76185e-06
2.76254e-06
2.76299e-06
2.76321e-06
2.64625e-06
2.64764e-06
2.64961e-06
2.65204e-06
2.65487e-06
2.65801e-06
2.66138e-06
2.66493e-06
2.66858e-06
2.67228e-06
2.67598e-06
2.67962e-06
2.68317e-06
2.68658e-06
2.68982e-06
2.69287e-06
2.69569e-06
2.69827e-06
2.70059e-06
2.70265e-06
2.70444e-06
2.70596e-06
2.7072e-06
2.70818e-06
2.7089e-06
2.70937e-06
2.7096e-06
2.59704e-06
2.59859e-06
2.60077e-06
2.60347e-06
2.60659e-06
2.61005e-06
2.61375e-06
2.61764e-06
2.62163e-06
2.62566e-06
2.62967e-06
2.63362e-06
2.63745e-06
2.64112e-06
2.6446e-06
2.64786e-06
2.65087e-06
2.65362e-06
2.6561e-06
2.65828e-06
2.66018e-06
2.66178e-06
2.6631e-06
2.66413e-06
2.66489e-06
2.66538e-06
2.66562e-06
2.55696e-06
2.55869e-06
2.56113e-06
2.56415e-06
2.56762e-06
2.57146e-06
2.57557e-06
2.57987e-06
2.58426e-06
2.5887e-06
2.5931e-06
2.59741e-06
2.60159e-06
2.60559e-06
2.60936e-06
2.61289e-06
2.61615e-06
2.61912e-06
2.62178e-06
2.62412e-06
2.62616e-06
2.62787e-06
2.62928e-06
2.63038e-06
2.63119e-06
2.63171e-06
2.63197e-06
2.52669e-06
2.52865e-06
2.53141e-06
2.5348e-06
2.53871e-06
2.54302e-06
2.54762e-06
2.55241e-06
2.55731e-06
2.56223e-06
2.56711e-06
2.57188e-06
2.57649e-06
2.58088e-06
2.58503e-06
2.5889e-06
2.59246e-06
2.59569e-06
2.59859e-06
2.60114e-06
2.60335e-06
2.6052e-06
2.60672e-06
2.60791e-06
2.60878e-06
2.60935e-06
2.60962e-06
2.50724e-06
2.50948e-06
2.51261e-06
2.51647e-06
2.52091e-06
2.52579e-06
2.53099e-06
2.53639e-06
2.5419e-06
2.54743e-06
2.5529e-06
2.55823e-06
2.56337e-06
2.56826e-06
2.57287e-06
2.57716e-06
2.5811e-06
2.58467e-06
2.58786e-06
2.59067e-06
2.59309e-06
2.59513e-06
2.59679e-06
2.59809e-06
2.59904e-06
2.59965e-06
2.59995e-06
2.49997e-06
2.50254e-06
2.50614e-06
2.51057e-06
2.51566e-06
2.52124e-06
2.52718e-06
2.53334e-06
2.53961e-06
2.54589e-06
2.55208e-06
2.55811e-06
2.56391e-06
2.56942e-06
2.5746e-06
2.57941e-06
2.58382e-06
2.58782e-06
2.59138e-06
2.59451e-06
2.5972e-06
2.59946e-06
2.60131e-06
2.60275e-06
2.60379e-06
2.60447e-06
2.6048e-06
2.50671e-06
2.5097e-06
2.51387e-06
2.51901e-06
2.52489e-06
2.53134e-06
2.53819e-06
2.54529e-06
2.5525e-06
2.55971e-06
2.56681e-06
2.57371e-06
2.58033e-06
2.58661e-06
2.59251e-06
2.59797e-06
2.60297e-06
2.60749e-06
2.61152e-06
2.61505e-06
2.61808e-06
2.62063e-06
2.6227e-06
2.62431e-06
2.62549e-06
2.62625e-06
2.62661e-06
2.52989e-06
2.53339e-06
2.53828e-06
2.54429e-06
2.55117e-06
2.5587e-06
2.56669e-06
2.57495e-06
2.58334e-06
2.5917e-06
2.59993e-06
2.60791e-06
2.61557e-06
2.62281e-06
2.6296e-06
2.63588e-06
2.64162e-06
2.64681e-06
2.65142e-06
2.65545e-06
2.65891e-06
2.66181e-06
2.66417e-06
2.666e-06
2.66734e-06
2.6682e-06
2.66861e-06
2.57273e-06
2.57687e-06
2.58266e-06
2.58976e-06
2.59788e-06
2.60677e-06
2.61618e-06
2.6259e-06
2.63576e-06
2.64558e-06
2.65522e-06
2.66456e-06
2.67351e-06
2.68196e-06
2.68987e-06
2.69718e-06
2.70386e-06
2.70987e-06
2.71521e-06
2.71988e-06
2.72388e-06
2.72723e-06
2.72995e-06
2.73206e-06
2.73359e-06
2.73457e-06
2.73505e-06
2.63948e-06
2.64443e-06
2.65135e-06
2.65982e-06
2.66952e-06
2.6801e-06
2.69131e-06
2.70288e-06
2.71458e-06
2.72623e-06
2.73766e-06
2.74872e-06
2.75929e-06
2.76928e-06
2.77861e-06
2.78721e-06
2.79506e-06
2.80212e-06
2.80839e-06
2.81386e-06
2.81854e-06
2.82245e-06
2.82562e-06
2.82808e-06
2.82987e-06
2.83101e-06
2.83157e-06
2.73582e-06
2.7418e-06
2.75014e-06
2.76036e-06
2.77204e-06
2.78479e-06
2.79827e-06
2.81217e-06
2.82623e-06
2.8402e-06
2.8539e-06
2.86713e-06
2.87977e-06
2.8917e-06
2.90282e-06
2.91308e-06
2.92242e-06
2.93081e-06
2.93825e-06
2.94473e-06
2.95028e-06
2.95491e-06
2.95865e-06
2.96155e-06
2.96366e-06
2.96501e-06
2.96566e-06
2.86932e-06
2.8766e-06
2.88677e-06
2.89922e-06
2.91343e-06
2.92894e-06
2.94533e-06
2.96221e-06
2.97927e-06
2.99622e-06
3.0128e-06
3.02882e-06
3.04409e-06
3.05849e-06
3.07191e-06
3.08427e-06
3.0955e-06
3.10559e-06
3.11452e-06
3.1223e-06
3.12894e-06
3.13448e-06
3.13896e-06
3.14243e-06
3.14494e-06
3.14655e-06
3.14732e-06
3.05013e-06
3.05909e-06
3.0716e-06
3.08692e-06
3.10439e-06
3.12345e-06
3.14356e-06
3.16428e-06
3.18519e-06
3.20594e-06
3.22624e-06
3.24582e-06
3.26448e-06
3.28205e-06
3.2984e-06
3.31345e-06
3.32712e-06
3.33938e-06
3.35022e-06
3.35965e-06
3.3677e-06
3.3744e-06
3.37981e-06
3.384e-06
3.38702e-06
3.38897e-06
3.3899e-06
3.29184e-06
3.30298e-06
3.31851e-06
3.33752e-06
3.3592e-06
3.38282e-06
3.40775e-06
3.4334e-06
3.45927e-06
3.48492e-06
3.50999e-06
3.53415e-06
3.55716e-06
3.5788e-06
3.59892e-06
3.61741e-06
3.6342e-06
3.64924e-06
3.66253e-06
3.67407e-06
3.68391e-06
3.6921e-06
3.69871e-06
3.70382e-06
3.7075e-06
3.70987e-06
3.711e-06
3.61244e-06
3.62637e-06
3.64579e-06
3.66956e-06
3.69665e-06
3.72616e-06
3.75726e-06
3.78925e-06
3.82149e-06
3.85343e-06
3.8846e-06
3.91463e-06
3.94319e-06
3.97003e-06
3.99496e-06
4.01785e-06
4.0386e-06
4.05718e-06
4.07357e-06
4.0878e-06
4.09992e-06
4.11e-06
4.11812e-06
4.12439e-06
4.12891e-06
4.1318e-06
4.13319e-06
4.035e-06
4.0525e-06
4.07688e-06
4.1067e-06
4.14066e-06
4.17763e-06
4.21656e-06
4.25655e-06
4.29682e-06
4.33667e-06
4.37552e-06
4.41289e-06
4.44838e-06
4.48168e-06
4.51257e-06
4.54087e-06
4.5665e-06
4.5894e-06
4.60957e-06
4.62707e-06
4.64194e-06
4.65429e-06
4.66424e-06
4.6719e-06
4.67743e-06
4.68096e-06
4.68265e-06
4.58747e-06
4.60936e-06
4.63985e-06
4.67708e-06
4.71944e-06
4.76548e-06
4.81391e-06
4.8636e-06
4.91356e-06
4.96293e-06
5.011e-06
5.05716e-06
5.10094e-06
5.14198e-06
5.17998e-06
5.21478e-06
5.24625e-06
5.27436e-06
5.29909e-06
5.32051e-06
5.33872e-06
5.35382e-06
5.36596e-06
5.37531e-06
5.38205e-06
5.38635e-06
5.38841e-06
5.29948e-06
5.32664e-06
5.36446e-06
5.41064e-06
5.46316e-06
5.52021e-06
5.58017e-06
5.64165e-06
5.7034e-06
5.76438e-06
5.82369e-06
5.88062e-06
5.93458e-06
5.98511e-06
6.03189e-06
6.07468e-06
6.11336e-06
6.14786e-06
6.17821e-06
6.20447e-06
6.22677e-06
6.24525e-06
6.26011e-06
6.27154e-06
6.27976e-06
6.28501e-06
6.28752e-06
6.20571e-06
6.2393e-06
6.28605e-06
6.3431e-06
6.40793e-06
6.47829e-06
6.55219e-06
6.62786e-06
6.7038e-06
6.77871e-06
6.8515e-06
6.92129e-06
6.98736e-06
7.04918e-06
7.10634e-06
7.15859e-06
7.20576e-06
7.2478e-06
7.28474e-06
7.31668e-06
7.34378e-06
7.36622e-06
7.38424e-06
7.39809e-06
7.40806e-06
7.41441e-06
7.41745e-06
7.34129e-06
7.38221e-06
7.43911e-06
7.5085e-06
7.58726e-06
7.67264e-06
7.76219e-06
7.85379e-06
7.94557e-06
8.03599e-06
8.12373e-06
8.20774e-06
8.28717e-06
8.36139e-06
8.42993e-06
8.4925e-06
8.54892e-06
8.59916e-06
8.64325e-06
8.68134e-06
8.71361e-06
8.74032e-06
8.76175e-06
8.77821e-06
8.79004e-06
8.79759e-06
8.80119e-06
8.72432e-06
8.77274e-06
8.84002e-06
8.92195e-06
9.01483e-06
9.11536e-06
9.22063e-06
9.32811e-06
9.43563e-06
9.54136e-06
9.64378e-06
9.74167e-06
9.83407e-06
9.92027e-06
9.99976e-06
1.00722e-05
1.01375e-05
1.01955e-05
1.02463e-05
1.02902e-05
1.03273e-05
1.0358e-05
1.03827e-05
1.04016e-05
1.04151e-05
1.04238e-05
1.04279e-05
1.03365e-05
1.03913e-05
1.04672e-05
1.05596e-05
1.06641e-05
1.07769e-05
1.08949e-05
1.1015e-05
1.11349e-05
1.12525e-05
1.13662e-05
1.14746e-05
1.15767e-05
1.16718e-05
1.17593e-05
1.18388e-05
1.19104e-05
1.19739e-05
1.20295e-05
1.20774e-05
1.21179e-05
1.21513e-05
1.21781e-05
1.21986e-05
1.22133e-05
1.22227e-05
1.22272e-05
1.21001e-05
1.21578e-05
1.22377e-05
1.23346e-05
1.2444e-05
1.25618e-05
1.26845e-05
1.2809e-05
1.29328e-05
1.30539e-05
1.31705e-05
1.32814e-05
1.33854e-05
1.3482e-05
1.35706e-05
1.3651e-05
1.37231e-05
1.3787e-05