/*--------------------------------*- C++ -*----------------------------------*\
| =========                 |                                                 |
| \\      /  F ield         | OpenFOAM: The Open Source CFD Toolbox           |
|  \\    /   O peration     | Version:  2106                                  |
|   \\  /    A nd           | Website:  www.openfoam.com                      |
|    \\/     M anipulation  |                                                 |
\*---------------------------------------------------------------------------*/
FoamFile
{
    version     2.0;
    format      ascii;
    arch        "LSB;label=32;scalar=64";
    class       volScalarField;
    location    "160.00011";
    object      C7H7_0;
}
// * * * * * * * * * * * * * * * * * * * * * * * * * * * * * * * * * * * * * //

dimensions      [0 0 0 0 0 0 0];

internalField   nonuniform List<scalar> 
3360
(
4.67361e-24
4.83203e-24
5.05264e-24
5.32268e-24
5.63103e-24
5.96764e-24
6.32343e-24
6.69016e-24
7.06049e-24
7.42788e-24
7.78668e-24
8.13204e-24
8.45995e-24
8.76721e-24
9.05135e-24
9.31065e-24
9.54402e-24
9.75098e-24
9.93156e-24
1.00863e-23
1.0216e-23
1.0322e-23
1.04058e-23
1.0469e-23
1.05135e-23
1.05411e-23
1.0554e-23
2.12364e-23
2.2059e-23
2.32202e-23
2.46671e-23
2.63554e-23
2.82468e-23
3.03067e-23
3.25035e-23
3.48074e-23
3.71904e-23
3.96255e-23
4.20865e-23
4.45474e-23
4.69828e-23
4.93676e-23
5.16773e-23
5.38879e-23
5.59762e-23
5.79202e-23
5.96991e-23
6.1294e-23
6.26884e-23
6.38679e-23
6.48214e-23
6.55407e-23
6.60208e-23
6.62602e-23
7.05273e-23
7.37914e-23
7.84333e-23
8.4272e-23
9.11576e-23
9.89549e-23
1.07535e-22
1.16769e-22
1.26528e-22
1.36677e-22
1.47081e-22
1.57601e-22
1.68102e-22
1.78451e-22
1.88516e-22
1.98175e-22
2.07314e-22
2.15828e-22
2.23629e-22
2.30644e-22
2.36813e-22
2.42098e-22
2.46473e-22
2.49932e-22
2.52483e-22
2.54146e-22
2.54956e-22
2.21114e-22
2.32696e-22
2.49283e-22
2.70301e-22
2.95269e-22
3.23737e-22
3.55251e-22
3.89337e-22
4.25491e-22
4.63182e-22
5.01854e-22
5.4094e-22
5.79874e-22
6.18101e-22
6.55094e-22
6.90367e-22
7.23486e-22
7.54083e-22
7.81857e-22
8.06585e-22
8.28114e-22
8.46364e-22
8.61318e-22
8.7302e-22
8.81562e-22
8.87081e-22
8.89743e-22
7.03191e-22
7.42916e-22
7.99935e-22
8.72373e-22
9.58649e-22
1.05724e-21
1.16655e-21
1.28489e-21
1.41042e-21
1.54119e-21
1.67517e-21
1.81028e-21
1.94448e-21
2.07581e-21
2.20243e-21
2.32271e-21
2.43521e-21
2.53874e-21
2.63238e-21
2.71545e-21
2.78754e-21
2.84845e-21
2.89823e-21
2.93707e-21
2.96536e-21
2.98359e-21
2.99237e-21
2.26941e-21
2.40277e-21
2.59446e-21
2.83824e-21
3.12881e-21
3.46102e-21
3.82947e-21
4.22832e-21
4.65128e-21
5.09163e-21
5.5424e-21
5.99649e-21
6.44696e-21
6.88715e-21
7.31092e-21
7.71279e-21
8.08803e-21
8.43278e-21
8.74405e-21
9.01975e-21
9.25862e-21
9.46016e-21
9.62459e-21
9.75275e-21
9.84597e-21
9.90598e-21
9.93484e-21
7.39757e-21
7.84173e-21
8.48017e-21
9.29226e-21
1.02603e-20
1.13669e-20
1.25939e-20
1.39216e-20
1.53287e-20
1.67926e-20
1.82899e-20
1.9797e-20
2.12908e-20
2.27492e-20
2.4152e-20
2.54812e-20
2.67214e-20
2.786e-20
2.88875e-20
2.97971e-20
3.05848e-20
3.12492e-20
3.17911e-20
3.22133e-20
3.25204e-20
3.2718e-20
3.2813e-20
2.42257e-20
2.56927e-20
2.78026e-20
3.04873e-20
3.36885e-20
3.73489e-20
4.14078e-20
4.57997e-20
5.04537e-20
5.52949e-20
6.02453e-20
6.52265e-20
7.01618e-20
7.49785e-20
7.96098e-20
8.39963e-20
8.80873e-20
9.18419e-20
9.52284e-20
9.8225e-20
1.00819e-19
1.03006e-19
1.04789e-19
1.06178e-19
1.07187e-19
1.07837e-19
1.08149e-19
7.96247e-20
8.44685e-20
9.14335e-20
1.00295e-19
1.1086e-19
1.22939e-19
1.36329e-19
1.50814e-19
1.66158e-19
1.82114e-19
1.98425e-19
2.14831e-19
2.31081e-19
2.46935e-19
2.62175e-19
2.76605e-19
2.9006e-19
3.02407e-19
3.13541e-19
3.23393e-19
3.3192e-19
3.39109e-19
3.4497e-19
3.49535e-19
3.52854e-19
3.54989e-19
3.56016e-19
2.62036e-19
2.77988e-19
3.00929e-19
3.30118e-19
3.64919e-19
4.04701e-19
4.48801e-19
4.965e-19
5.47023e-19
5.99551e-19
6.53235e-19
7.07224e-19
7.60687e-19
8.12836e-19
8.62952e-19
9.10396e-19
9.54624e-19
9.95197e-19
1.03178e-18
1.06414e-18
1.09214e-18
1.11574e-18
1.13498e-18
1.14996e-18
1.16085e-18
1.16785e-18
1.17122e-18
8.64361e-19
9.16934e-19
9.9252e-19
1.08867e-18
1.20327e-18
1.33422e-18
1.47935e-18
1.63625e-18
1.80239e-18
1.97505e-18
2.15144e-18
2.32876e-18
2.5043e-18
2.67546e-18
2.8399e-18
2.99552e-18
3.14056e-18
3.27357e-18
3.39348e-18
3.49953e-18
3.59129e-18
3.66862e-18
3.73164e-18
3.78072e-18
3.81639e-18
3.83933e-18
3.85036e-18
2.85683e-18
3.02997e-18
3.27887e-18
3.5954e-18
3.97254e-18
4.40337e-18
4.88059e-18
5.39633e-18
5.94216e-18
6.50915e-18
7.08813e-18
7.6699e-18
8.24552e-18
8.80656e-18
9.3453e-18
9.85495e-18
1.03297e-17
1.0765e-17
1.11572e-17
1.1504e-17
1.18039e-17
1.20566e-17
1.22625e-17
1.24228e-17
1.25392e-17
1.26141e-17
1.26501e-17
9.47525e-18
1.00463e-17
1.08669e-17
1.19097e-17
1.31514e-17
1.45688e-17
1.61375e-17
1.78314e-17
1.96226e-17
2.14817e-17
2.33784e-17
2.52828e-17
2.71655e-17
2.89991e-17
3.07586e-17
3.24219e-17
3.39706e-17
3.53895e-17
3.66674e-17
3.77967e-17
3.8773e-17
3.95953e-17
4.02651e-17
4.07863e-17
4.1165e-17
4.14085e-17
4.15255e-17
3.1554e-17
3.34385e-17
3.61446e-17
3.95813e-17
4.36695e-17
4.83314e-17
5.34853e-17
5.90443e-17
6.49154e-17
7.10014e-17
7.72033e-17
8.34224e-17
8.95636e-17
9.55377e-17
1.01264e-16
1.06671e-16
1.11701e-16
1.16305e-16
1.20447e-16
1.24105e-16
1.27265e-16
1.29925e-16
1.3209e-16
1.33774e-16
1.34996e-16
1.35782e-16
1.3616e-16
1.05763e-16
1.11994e-16
1.20933e-16
1.3227e-16
1.45736e-16
1.61067e-16
1.77985e-16
1.96199e-16
2.15398e-16
2.35261e-16
2.55462e-16
2.7568e-16
2.95606e-16
3.14956e-16
3.3347e-16
3.50925e-16
3.67134e-16
3.8195e-16
3.95265e-16
4.07006e-16
4.17139e-16
4.25659e-16
4.32588e-16
4.37973e-16
4.41881e-16
4.44391e-16
4.45596e-16
3.57356e-16
3.77975e-16
4.07512e-16
4.44907e-16
4.89228e-16
5.39561e-16
5.94962e-16
6.54438e-16
7.16951e-16
7.81439e-16
8.46833e-16
9.12091e-16
9.76227e-16
1.03833e-15
1.0976e-15
1.15333e-15
1.20496e-15
1.25205e-15
1.29427e-15
1.33143e-15
1.36344e-15
1.39031e-15
1.41213e-15
1.42907e-15
1.44134e-15
1.44922e-15
1.453e-15
1.21974e-15
1.28797e-15
1.38551e-15
1.50865e-15
1.6541e-15
1.81867e-15
1.99905e-15
2.19187e-15
2.39363e-15
2.60079e-15
2.8099e-15
3.01762e-15
3.22085e-15
3.41677e-15
3.60294e-15
3.7773e-15
3.9382e-15
4.0844e-15
4.21506e-15
4.3297e-15
4.42816e-15
4.51059e-15
4.57737e-15
4.62909e-15
4.6665e-15
4.69047e-15
4.70195e-15
4.20502e-15
4.42988e-15
4.75025e-15
5.15296e-15
5.62624e-15
6.15859e-15
6.73845e-15
7.35409e-15
7.99374e-15
8.64581e-15
9.29918e-15
9.94345e-15
1.05692e-14
1.11682e-14
1.17334e-14
1.22593e-14
1.27415e-14
1.3177e-14
1.3564e-14
1.39018e-14
1.41905e-14
1.44311e-14
1.46252e-14
1.4775e-14
1.48829e-14
1.49519e-14
1.49849e-14
1.45814e-14
1.53124e-14
1.63487e-14
1.76431e-14
1.91526e-14
2.08356e-14
2.26513e-14
2.45591e-14
2.65198e-14
2.84962e-14
3.04537e-14
3.23616e-14
3.41932e-14
3.59262e-14
3.75432e-14
3.9031e-14
4.03807e-14
4.15872e-14
4.26489e-14
4.35669e-14
4.43447e-14
4.49877e-14
4.55025e-14
4.58969e-14
4.61795e-14
4.63589e-14
4.64442e-14
5.02893e-14
5.25923e-14
5.58351e-14
5.98488e-14
6.44786e-14
6.95761e-14
7.4999e-14
8.06117e-14
8.62881e-14
9.19143e-14
9.73908e-14
1.02634e-13
1.07576e-13
1.12168e-13
1.16374e-13
1.20173e-13
1.23557e-13
1.26528e-13
1.29097e-13
1.3128e-13
1.33098e-13
1.34576e-13
1.35742e-13
1.36621e-13
1.37242e-13
1.37631e-13
1.37814e-13
1.69262e-13
1.76121e-13
1.85693e-13
1.97401e-13
2.10711e-13
2.25126e-13
2.40179e-13
2.55448e-13
2.70559e-13
2.85195e-13
2.991e-13
3.12077e-13
3.23987e-13
3.34748e-13
3.44323e-13
3.52713e-13
3.59956e-13
3.66109e-13
3.71249e-13
3.75464e-13
3.78848e-13
3.81495e-13
3.835e-13
3.84952e-13
3.85933e-13
3.86521e-13
3.86785e-13
5.43179e-13
5.62023e-13
5.88052e-13
6.19456e-13
6.54577e-13
6.91897e-13
7.30053e-13
7.67867e-13
8.04358e-13
8.3875e-13
8.70472e-13
8.99144e-13
9.24557e-13
9.46649e-13
9.65483e-13
9.81214e-13
9.9407e-13
1.00433e-12
1.01229e-12
1.01827e-12
1.0226e-12
1.02556e-12
1.02747e-12
1.02857e-12
1.02911e-12
1.0293e-12
1.02932e-12
1.63454e-12
1.68248e-12
1.7481e-12
1.82635e-12
1.91266e-12
2.00294e-12
2.09366e-12
2.1819e-12
2.26533e-12
2.34223e-12
2.41146e-12
2.47233e-12
2.5246e-12
2.56837e-12
2.60404e-12
2.63218e-12
2.65354e-12
2.66896e-12
2.67931e-12
2.68549e-12
2.68841e-12
2.68889e-12
2.68773e-12
2.68566e-12
2.68333e-12
2.68132e-12
2.6801e-12
4.64828e-12
4.77231e-12
4.94215e-12
5.14492e-12
5.3691e-12
5.60457e-12
5.84266e-12
6.07624e-12
6.29961e-12
6.50845e-12
6.69969e-12
6.87131e-12
7.02228e-12
7.15234e-12
7.26189e-12
7.35186e-12
7.42363e-12
7.47887e-12
7.51951e-12
7.5476e-12
7.5653e-12
7.57475e-12
7.57806e-12
7.57726e-12
7.57423e-12
7.57072e-12
7.56828e-12
1.32236e-11
1.36512e-11
1.42516e-11
1.49936e-11
1.58502e-11
1.67974e-11
1.78134e-11
1.88782e-11
1.99728e-11
2.10795e-11
2.21812e-11
2.32616e-11
2.43058e-11
2.52999e-11
2.62319e-11
2.70917e-11
2.78716e-11
2.85661e-11
2.91726e-11
2.96905e-11
3.01216e-11
3.04699e-11
3.07407e-11
3.0941e-11
3.10785e-11
3.11616e-11
3.11988e-11
4.34096e-11
4.59541e-11
4.96866e-11
5.45632e-11
6.05663e-11
6.7683e-11
7.58902e-11
8.51433e-11
9.53684e-11
1.06458e-10
1.18268e-10
1.30624e-10
1.43323e-10
1.56145e-10
1.68861e-10
1.81244e-10
1.93076e-10
2.04165e-10
2.14341e-10
2.2347e-10
2.31454e-10
2.38232e-10
2.43776e-10
2.48093e-10
2.51221e-10
2.5322e-10
2.54171e-10
2.02747e-10
2.24713e-10
2.57967e-10
3.03129e-10
3.61135e-10
4.3299e-10
5.19569e-10
6.21453e-10
7.38792e-10
8.71205e-10
1.01771e-09
1.17672e-09
1.34603e-09
1.52296e-09
1.70439e-09
1.88693e-09
2.06708e-09
2.24133e-09
2.40635e-09
2.55908e-09
2.69684e-09
2.81743e-09
2.91915e-09
3.00084e-09
3.06185e-09
3.10206e-09
3.1218e-09
1.38282e-09
1.58691e-09
1.90124e-09
2.33721e-09
2.91045e-09
3.63829e-09
4.53778e-09
5.62376e-09
6.90715e-09
8.39346e-09
1.00815e-08
1.19619e-08
1.40166e-08
1.62195e-08
1.85368e-08
2.09282e-08
2.33483e-08
2.57486e-08
2.80789e-08
3.02897e-08
3.23336e-08
3.41671e-08
3.5752e-08
3.70562e-08
3.80544e-08
3.87287e-08
3.90679e-08
1.10801e-08
1.28234e-08
1.55273e-08
1.93109e-08
2.4336e-08
3.07859e-08
3.8847e-08
4.86901e-08
6.04531e-08
7.42226e-08
9.00985e-08
1.08026e-07
1.2787e-07
1.4941e-07
1.72341e-07
1.9628e-07
2.20782e-07
2.45351e-07
2.69461e-07
2.92576e-07
3.14171e-07
3.33745e-07
3.50813e-07
3.64984e-07
3.75927e-07
3.83383e-07
3.87171e-07
8.52638e-08
9.75765e-08
1.16611e-07
1.43143e-07
1.78237e-07
2.23101e-07
2.78953e-07
3.46903e-07
4.27828e-07
5.22259e-07
6.30278e-07
7.51444e-07
8.84756e-07
1.02864e-06
1.18101e-06
1.33928e-06
1.50049e-06
1.66142e-06
1.81867e-06
1.96885e-06
2.10863e-06
2.23489e-06
2.34482e-06
2.43596e-06
2.50625e-06
2.55409e-06
2.57835e-06
5.44174e-07
6.08381e-07
7.06165e-07
8.39946e-07
1.01324e-06
1.22991e-06
1.4936e-06
1.80721e-06
2.17246e-06
2.5895e-06
3.05668e-06
3.57038e-06
4.12502e-06
4.71318e-06
5.32581e-06
5.95257e-06
6.58214e-06
7.20271e-06
7.80231e-06
8.36921e-06
8.89227e-06
9.36124e-06
9.76696e-06
1.01015e-05
1.03586e-05
1.0533e-05
1.06214e-05
2.52227e-06
2.74512e-06
3.07729e-06
3.51965e-06
4.0754e-06
4.74788e-06
5.5391e-06
6.44861e-06
7.47282e-06
8.60452e-06
9.8328e-06
1.11432e-05
1.2518e-05
1.39369e-05
1.53778e-05
1.68172e-05
1.82314e-05
1.95968e-05
2.0891e-05
2.20924e-05
2.31817e-05
2.41416e-05
2.4957e-05
2.56157e-05
2.61088e-05
2.643e-05
2.65873e-05
8.19364e-06
8.69828e-06
9.43305e-06
1.03828e-05
1.15356e-05
1.28791e-05
1.43984e-05
1.60751e-05
1.78865e-05
1.9806e-05
2.18037e-05
2.38468e-05
2.58998e-05
2.79264e-05
2.98891e-05
3.17517e-05
3.34785e-05
3.50538e-05
3.64751e-05
3.77425e-05
3.88527e-05
3.98027e-05
4.05909e-05
4.12169e-05
4.16816e-05
4.19873e-05
4.21378e-05
1.90871e-05
1.98396e-05
2.09098e-05
2.22511e-05
2.38203e-05
2.55732e-05
2.7463e-05
2.94392e-05
3.14493e-05
3.34414e-05
3.53825e-05
3.72683e-05
3.90874e-05
4.08217e-05
4.24588e-05
4.39875e-05
4.53986e-05
4.6685e-05
4.78418e-05
4.88659e-05
4.97551e-05
5.0509e-05
5.11288e-05
5.16166e-05
5.19757e-05
5.22102e-05
5.23248e-05
3.26836e-05
3.33263e-05
3.42227e-05
3.53191e-05
3.65674e-05
3.79236e-05
3.93479e-05
4.08049e-05
4.22638e-05
4.36989e-05
4.50897e-05
4.64202e-05
4.76778e-05
4.88533e-05
4.99404e-05
5.09348e-05
5.18343e-05
5.26387e-05
5.33486e-05
5.39659e-05
5.44933e-05
5.4934e-05
5.52918e-05
5.55697e-05
5.57718e-05
5.59022e-05
5.59653e-05
4.27781e-05
4.31987e-05
4.37758e-05
4.44669e-05
4.52345e-05
4.60457e-05
4.68725e-05
4.76922e-05
4.84866e-05
4.9242e-05
4.99488e-05
5.06007e-05
5.11943e-05
5.17282e-05
5.22031e-05
5.26207e-05
5.2984e-05
5.32963e-05
5.35614e-05
5.37832e-05
5.39656e-05
5.41123e-05
5.42271e-05
5.43132e-05
5.43738e-05
5.44117e-05
5.44295e-05
4.82733e-05
4.84308e-05
4.864e-05
4.88791e-05
4.91295e-05
4.93756e-05
4.96052e-05
4.98097e-05
4.99835e-05
5.01239e-05
5.02303e-05
5.03041e-05
5.03477e-05
5.03646e-05
5.03588e-05
5.03346e-05
5.02963e-05
5.0248e-05
5.01935e-05
5.01364e-05
5.00797e-05
5.00262e-05
4.99781e-05
4.99373e-05
4.99051e-05
4.98827e-05
4.98713e-05
4.90336e-05
4.8979e-05
4.88956e-05
4.8782e-05
4.86374e-05
4.8462e-05
4.82569e-05
4.80249e-05
4.77694e-05
4.7495e-05
4.72063e-05
4.69088e-05
4.66074e-05
4.63072e-05
4.6013e-05
4.57289e-05
4.54588e-05
4.52059e-05
4.49731e-05
4.47625e-05
4.45759e-05
4.44152e-05
4.42812e-05
4.41745e-05
4.40949e-05
4.40425e-05
4.40166e-05
4.62607e-05
4.60798e-05
4.58242e-05
4.55064e-05
4.51373e-05
4.47272e-05
4.42857e-05
4.38218e-05
4.33441e-05
4.28605e-05
4.23782e-05
4.19035e-05
4.14422e-05
4.09992e-05
4.05787e-05
4.01841e-05
3.98182e-05
3.94833e-05
3.91809e-05
3.8912e-05
3.86781e-05
3.84794e-05
3.83157e-05
3.81866e-05
3.80914e-05
3.80291e-05
3.79987e-05
4.15423e-05
4.13097e-05
4.09851e-05
4.05873e-05
4.0133e-05
3.96371e-05
3.91127e-05
3.85717e-05
3.80242e-05
3.74791e-05
3.69439e-05
3.64249e-05
3.59274e-05
3.54557e-05
3.5013e-05
3.46021e-05
3.42248e-05
3.38823e-05
3.35756e-05
3.3305e-05
3.3071e-05
3.28734e-05
3.27114e-05
3.25844e-05
3.24911e-05
3.24303e-05
3.24007e-05
3.61678e-05
3.59316e-05
3.56034e-05
3.52038e-05
3.47506e-05
3.42596e-05
3.37447e-05
3.32175e-05
3.26883e-05
3.21655e-05
3.16559e-05
3.11653e-05
3.06982e-05
3.0258e-05
2.98473e-05
2.94682e-05
2.91218e-05
2.8809e-05
2.853e-05
2.82849e-05
2.80732e-05
2.78949e-05
2.77493e-05
2.76353e-05
2.75518e-05
2.74976e-05
2.74711e-05
3.09374e-05
3.07218e-05
3.04231e-05
3.00604e-05
2.96507e-05
2.92084e-05
2.87465e-05
2.82757e-05
2.78049e-05
2.73417e-05
2.68921e-05
2.64609e-05
2.60517e-05
2.56675e-05
2.53103e-05
2.49815e-05
2.4682e-05
2.44122e-05
2.41722e-05
2.39618e-05
2.37806e-05
2.36278e-05
2.35032e-05
2.34058e-05
2.33346e-05
2.32884e-05
2.32659e-05
2.6242e-05
2.6056e-05
2.57986e-05
2.54867e-05
2.51349e-05
2.47561e-05
2.43612e-05
2.39596e-05
2.35591e-05
2.31658e-05
2.27849e-05
2.24203e-05
2.20752e-05
2.17517e-05
2.14514e-05
2.11755e-05
2.09247e-05
2.0699e-05
2.04987e-05
2.03233e-05
2.01724e-05
2.00455e-05
1.99417e-05
1.98606e-05
1.98014e-05
1.97629e-05
1.97443e-05
2.22112e-05
2.20555e-05
2.18402e-05
2.15795e-05
2.12858e-05
2.09698e-05
2.06409e-05
2.03067e-05
1.99738e-05
1.96474e-05
1.93316e-05
1.90297e-05
1.87441e-05
1.84768e-05
1.8229e-05
1.80015e-05
1.77949e-05
1.76093e-05
1.74446e-05
1.73007e-05
1.7177e-05
1.70731e-05
1.69883e-05
1.6922e-05
1.68732e-05
1.68415e-05
1.68262e-05
1.88358e-05
1.87075e-05
1.85301e-05
1.83153e-05
1.80734e-05
1.78134e-05
1.75428e-05
1.72681e-05
1.69946e-05
1.67265e-05
1.64673e-05
1.62196e-05
1.59855e-05
1.57665e-05
1.55635e-05
1.53773e-05
1.52083e-05
1.50565e-05
1.49219e-05
1.48044e-05
1.47034e-05
1.46187e-05
1.45497e-05
1.44957e-05
1.44561e-05
1.44302e-05
1.44177e-05
1.6046e-05
1.59409e-05
1.57955e-05
1.56197e-05
1.54216e-05
1.52087e-05
1.49872e-05
1.47624e-05
1.45385e-05
1.43192e-05
1.41071e-05
1.39046e-05
1.37131e-05
1.3534e-05
1.33681e-05
1.32159e-05
1.30778e-05
1.29538e-05
1.28439e-05
1.2748e-05
1.26656e-05
1.25966e-05
1.25403e-05
1.24964e-05
1.24642e-05
1.24433e-05
1.2433e-05
1.37537e-05
1.36677e-05
1.35488e-05
1.34049e-05
1.32428e-05
1.30685e-05
1.28872e-05
1.27032e-05
1.25199e-05
1.23404e-05
1.21667e-05
1.20009e-05
1.18441e-05
1.16974e-05
1.15615e-05
1.14369e-05
1.13238e-05
1.12223e-05
1.11323e-05
1.10538e-05
1.09864e-05
1.093e-05
1.0884e-05
1.08482e-05
1.0822e-05
1.0805e-05
1.07968e-05
1.18733e-05
1.18028e-05
1.17053e-05
1.15872e-05
1.14543e-05
1.13113e-05
1.11625e-05
1.10113e-05
1.08608e-05
1.07133e-05
1.05706e-05
1.04343e-05
1.03054e-05
1.01848e-05
1.0073e-05
9.97049e-06
9.87741e-06
9.79386e-06
9.71981e-06
9.65515e-06
9.59969e-06
9.55318e-06
9.51533e-06
9.48581e-06
9.46425e-06
9.45029e-06
9.44351e-06
1.03294e-05
1.02713e-05
1.0191e-05
1.00937e-05
9.98416e-06
9.8663e-06
9.74359e-06
9.61893e-06
9.49473e-06
9.37294e-06
9.25511e-06
9.14247e-06
9.03593e-06
8.9362e-06
8.84376e-06
8.75893e-06
8.68189e-06
8.61272e-06
8.55139e-06
8.49783e-06
8.45188e-06
8.41333e-06
8.38196e-06
8.35748e-06
8.33961e-06
8.32803e-06
8.32241e-06
9.05849e-06
9.01042e-06
8.94393e-06
8.86339e-06
8.77261e-06
8.67492e-06
8.57317e-06
8.46976e-06
8.36668e-06
8.26554e-06
8.16765e-06
8.07402e-06
7.98543e-06
7.90246e-06
7.82551e-06
7.75487e-06
7.69069e-06
7.63304e-06
7.58192e-06
7.53725e-06
7.49891e-06
7.46675e-06
7.44056e-06
7.42012e-06
7.4052e-06
7.39553e-06
7.39083e-06
8.00888e-06
7.96887e-06
7.91349e-06
7.84638e-06
7.77072e-06
7.68926e-06
7.60437e-06
7.51805e-06
7.43196e-06
7.34744e-06
7.26559e-06
7.18725e-06
7.11309e-06
7.04359e-06
6.97911e-06
6.91988e-06
6.86605e-06
6.81766e-06
6.77474e-06
6.73722e-06
6.705e-06
6.67796e-06
6.65594e-06
6.63875e-06
6.62619e-06
6.61805e-06
6.6141e-06
7.13872e-06
7.10519e-06
7.05877e-06
7.00251e-06
6.93904e-06
6.87068e-06
6.79939e-06
6.72687e-06
6.65448e-06
6.58338e-06
6.51447e-06
6.44849e-06
6.38598e-06
6.32736e-06
6.27294e-06
6.22292e-06
6.17743e-06
6.13653e-06
6.10023e-06
6.06847e-06
6.0412e-06
6.01829e-06
5.99963e-06
5.98506e-06
5.97441e-06
5.9675e-06
5.96415e-06
6.41436e-06
6.38608e-06
6.34692e-06
6.29944e-06
6.24585e-06
6.1881e-06
6.12784e-06
6.06648e-06
6.00521e-06
5.94498e-06
5.88657e-06
5.8306e-06
5.77753e-06
5.72774e-06
5.68148e-06
5.63893e-06
5.60022e-06
5.56538e-06
5.53444e-06
5.50736e-06
5.48409e-06
5.46455e-06
5.44861e-06
5.43616e-06
5.42706e-06
5.42115e-06
5.41828e-06
5.80881e-06
5.7848e-06
5.75155e-06
5.71121e-06
5.66566e-06
5.61653e-06
5.56524e-06
5.51299e-06
5.46076e-06
5.40939e-06
5.35953e-06
5.3117e-06
5.26634e-06
5.22373e-06
5.18412e-06
5.14766e-06
5.11446e-06
5.08457e-06
5.058e-06
5.03474e-06
5.01473e-06
4.99792e-06
4.9842e-06
4.97348e-06
4.96564e-06
4.96055e-06
4.95808e-06
5.30039e-06
5.27987e-06
5.25144e-06
5.21694e-06
5.17795e-06
5.13588e-06
5.09193e-06
5.04711e-06
5.00228e-06
4.95815e-06
4.91528e-06
4.87414e-06
4.83507e-06
4.79835e-06
4.76418e-06
4.73271e-06
4.70403e-06
4.67818e-06
4.6552e-06
4.63506e-06
4.61772e-06
4.60315e-06
4.59125e-06
4.58195e-06
4.57514e-06
4.57072e-06
4.56857e-06
4.87162e-06
4.85397e-06
4.8295e-06
4.79978e-06
4.76619e-06
4.72991e-06
4.69198e-06
4.65327e-06
4.61453e-06
4.57635e-06
4.53923e-06
4.50357e-06
4.46968e-06
4.43781e-06
4.40812e-06
4.38075e-06
4.35578e-06
4.33327e-06
4.31323e-06
4.29566e-06
4.28053e-06
4.2678e-06
4.2574e-06
4.24926e-06
4.2433e-06
4.23943e-06
4.23755e-06
4.5084e-06
4.49311e-06
4.4719e-06
4.44614e-06
4.41699e-06
4.38548e-06
4.35252e-06
4.31886e-06
4.28514e-06
4.25187e-06
4.2195e-06
4.18838e-06
4.15877e-06
4.13089e-06
4.1049e-06
4.08093e-06
4.05904e-06
4.03928e-06
4.02168e-06
4.00624e-06
3.99293e-06
3.98172e-06
3.97256e-06
3.96539e-06
3.96013e-06
3.95671e-06
3.95505e-06
4.19928e-06
4.18594e-06
4.16744e-06
4.14494e-06
4.11947e-06
4.09193e-06
4.06309e-06
4.0336e-06
4.00404e-06
3.97485e-06
3.94642e-06
3.91906e-06
3.893e-06
3.86845e-06
3.84553e-06
3.82437e-06
3.80504e-06
3.78757e-06
3.772e-06
3.75832e-06
3.74653e-06
3.73658e-06
3.72845e-06
3.72208e-06
3.71741e-06
3.71438e-06
3.7129e-06
3.93495e-06
3.92323e-06
3.90697e-06
3.88719e-06
3.86479e-06
3.84054e-06
3.81512e-06
3.78912e-06
3.76302e-06
3.73723e-06
3.71208e-06
3.68785e-06
3.66475e-06
3.64297e-06
3.62262e-06
3.60381e-06
3.5866e-06
3.57105e-06
3.55717e-06
3.54496e-06
3.53443e-06
3.52555e-06
3.51828e-06
3.51258e-06
3.5084e-06
3.50568e-06
3.50435e-06
3.70779e-06
3.69743e-06
3.68304e-06
3.66553e-06
3.64568e-06
3.62418e-06
3.60163e-06
3.57854e-06
3.55533e-06
3.53238e-06
3.50998e-06
3.48837e-06
3.46775e-06
3.44828e-06
3.43008e-06
3.41324e-06
3.39782e-06
3.38386e-06
3.3714e-06
3.36044e-06
3.35097e-06
3.34297e-06
3.33642e-06
3.33129e-06
3.32751e-06
3.32506e-06
3.32386e-06
3.51156e-06
3.50234e-06
3.48952e-06
3.47391e-06
3.4562e-06
3.43701e-06
3.41686e-06
3.3962e-06
3.37543e-06
3.35485e-06
3.33476e-06
3.31535e-06
3.29682e-06
3.2793e-06
3.2629e-06
3.24771e-06
3.23379e-06
3.22119e-06
3.20992e-06
3.19999e-06
3.19141e-06
3.18417e-06
3.17823e-06
3.17356e-06
3.17014e-06
3.16791e-06
3.16682e-06
3.34112e-06
3.33285e-06
3.32135e-06
3.30734e-06
3.29143e-06
3.27418e-06
3.25604e-06
3.23744e-06
3.21871e-06
3.20014e-06
3.18198e-06
3.16443e-06
3.14765e-06
3.13178e-06
3.1169e-06
3.10311e-06
3.09046e-06
3.07899e-06
3.06872e-06
3.05968e-06
3.05186e-06
3.04524e-06
3.03981e-06
3.03555e-06
3.03242e-06
3.03037e-06
3.02938e-06
3.19221e-06
3.18473e-06
3.17435e-06
3.16168e-06
3.14729e-06
3.13167e-06
3.11524e-06
3.09837e-06
3.08136e-06
3.06449e-06
3.04797e-06
3.03198e-06
3.01669e-06
3.00219e-06
2.98861e-06
2.97599e-06
2.96441e-06
2.95391e-06
2.9445e-06
2.9362e-06
2.92901e-06
2.92293e-06
2.91794e-06
2.91402e-06
2.91113e-06
2.90925e-06
2.90833e-06
3.06126e-06
3.05446e-06
3.04501e-06
3.03349e-06
3.02038e-06
3.00614e-06
2.99114e-06
2.97573e-06
2.96018e-06
2.94474e-06
2.92961e-06
2.91495e-06
2.90091e-06
2.88759e-06
2.87509e-06
2.86348e-06
2.85281e-06
2.84311e-06
2.83443e-06
2.82676e-06
2.82011e-06
2.81449e-06
2.80986e-06
2.80623e-06
2.80355e-06
2.80181e-06
2.80095e-06
2.9453e-06
2.93908e-06
2.93042e-06
2.91985e-06
2.90783e-06
2.89475e-06
2.88097e-06
2.8668e-06
2.85248e-06
2.83825e-06
2.82429e-06
2.81076e-06
2.79777e-06
2.78545e-06
2.77387e-06
2.76311e-06
2.75321e-06
2.74421e-06
2.73613e-06
2.729e-06
2.72281e-06
2.71757e-06
2.71326e-06
2.70987e-06
2.70737e-06
2.70574e-06
2.70495e-06
2.84181e-06
2.83607e-06
2.82808e-06
2.81833e-06
2.80722e-06
2.79513e-06
2.78237e-06
2.76924e-06
2.75597e-06
2.74276e-06
2.72979e-06
2.7172e-06
2.70512e-06
2.69364e-06
2.68284e-06
2.67279e-06
2.66354e-06
2.65512e-06
2.64757e-06
2.64089e-06
2.63509e-06
2.63018e-06
2.62613e-06
2.62295e-06
2.6206e-06
2.61907e-06
2.61832e-06
2.74864e-06
2.74331e-06
2.73588e-06
2.72681e-06
2.71647e-06
2.7052e-06
2.69332e-06
2.68106e-06
2.66867e-06
2.65632e-06
2.64419e-06
2.6324e-06
2.62107e-06
2.61029e-06
2.60015e-06
2.59071e-06
2.58201e-06
2.57408e-06
2.56696e-06
2.56067e-06
2.5552e-06
2.55056e-06
2.54674e-06
2.54373e-06
2.54151e-06
2.54006e-06
2.53935e-06
2.66392e-06
2.65893e-06
2.65197e-06
2.64347e-06
2.63377e-06
2.6232e-06
2.61204e-06
2.60052e-06
2.58886e-06
2.57723e-06
2.56579e-06
2.55467e-06
2.54397e-06
2.53379e-06
2.5242e-06
2.51526e-06
2.50702e-06
2.4995e-06
2.49275e-06
2.48677e-06
2.48157e-06
2.47716e-06
2.47353e-06
2.47067e-06
2.46856e-06
2.46718e-06
2.4665e-06
2.58602e-06
2.58131e-06
2.57474e-06
2.56671e-06
2.55755e-06
2.54755e-06
2.53698e-06
2.52607e-06
2.51502e-06
2.50398e-06
2.49312e-06
2.48255e-06
2.47237e-06
2.46268e-06
2.45354e-06
2.44501e-06
2.43715e-06
2.42997e-06
2.42352e-06
2.4178e-06
2.41283e-06
2.40861e-06
2.40513e-06
2.40239e-06
2.40037e-06
2.39904e-06
2.39839e-06
2.51347e-06
2.50899e-06
2.50274e-06
2.49509e-06
2.48636e-06
2.47683e-06
2.46674e-06
2.45633e-06
2.44576e-06
2.43521e-06
2.42481e-06
2.41468e-06
2.40492e-06
2.39562e-06
2.38685e-06
2.37866e-06
2.37109e-06
2.36419e-06
2.35798e-06
2.35247e-06
2.34768e-06
2.34361e-06
2.34026e-06
2.33761e-06
2.33566e-06
2.33438e-06
2.33375e-06
2.44493e-06
2.44063e-06
2.43463e-06
2.42728e-06
2.41889e-06
2.40973e-06
2.40002e-06
2.38999e-06
2.37981e-06
2.36963e-06
2.35959e-06
2.34981e-06
2.34038e-06
2.33139e-06
2.32289e-06
2.31496e-06
2.30763e-06
2.30094e-06
2.29491e-06
2.28957e-06
2.28492e-06
2.28097e-06
2.27771e-06
2.27513e-06
2.27323e-06
2.27199e-06
2.27138e-06
2.37914e-06
2.37498e-06
2.36917e-06
2.36205e-06
2.35391e-06
2.34502e-06
2.3356e-06
2.32585e-06
2.31595e-06
2.30604e-06
2.29627e-06
2.28674e-06
2.27755e-06
2.26878e-06
2.26049e-06
2.25274e-06
2.24558e-06
2.23904e-06
2.23315e-06
2.22792e-06
2.22337e-06
2.2195e-06
2.21631e-06
2.21379e-06
2.21193e-06
2.21071e-06
2.21011e-06
2.31491e-06
2.31083e-06
2.30515e-06
2.29818e-06
2.29022e-06
2.2815e-06
2.27227e-06
2.26271e-06
2.25299e-06
2.24327e-06
2.23367e-06
2.2243e-06
2.21526e-06
2.20663e-06
2.19847e-06
2.19084e-06
2.18378e-06
2.17733e-06
2.17152e-06
2.16637e-06
2.16188e-06
2.15806e-06
2.15491e-06
2.15242e-06
2.15058e-06
2.14938e-06
2.14879e-06
2.25103e-06
2.24701e-06
2.24139e-06
2.2345e-06
2.22662e-06
2.218e-06
2.20886e-06
2.19939e-06
2.18977e-06
2.18013e-06
2.17061e-06
2.16131e-06
2.15234e-06
2.14376e-06
2.13566e-06
2.12807e-06
2.12106e-06
2.11465e-06
2.10887e-06
2.10374e-06
2.09927e-06
2.09547e-06
2.09234e-06
2.08986e-06
2.08803e-06
2.08683e-06
2.08624e-06
2.18631e-06
2.18229e-06
2.17668e-06
2.1698e-06
2.16193e-06
2.15332e-06
2.14418e-06
2.1347e-06
2.12507e-06
2.11542e-06
2.10588e-06
2.09657e-06
2.08758e-06
2.07898e-06
2.07085e-06
2.06325e-06
2.05621e-06
2.04978e-06
2.04398e-06
2.03884e-06
2.03435e-06
2.03054e-06
2.02739e-06
2.02491e-06
2.02307e-06
2.02187e-06
2.02128e-06
2.11951e-06
2.11545e-06
2.10979e-06
2.10285e-06
2.0949e-06
2.0862e-06
2.07696e-06
2.06739e-06
2.05765e-06
2.0479e-06
2.03825e-06
2.02883e-06
2.01973e-06
2.01104e-06
2.00281e-06
1.99512e-06
1.988e-06
1.98149e-06
1.97562e-06
1.97042e-06
1.96588e-06
1.96202e-06
1.95884e-06
1.95632e-06
1.95447e-06
1.95325e-06
1.95265e-06
2.04933e-06
2.0452e-06
2.03943e-06
2.03234e-06
2.02423e-06
2.01535e-06
2.00593e-06
1.99616e-06
1.98622e-06
1.97626e-06
1.96642e-06
1.9568e-06
1.94751e-06
1.93864e-06
1.93024e-06
1.92239e-06
1.91512e-06
1.90848e-06
1.9025e-06
1.89719e-06
1.89256e-06
1.88863e-06
1.88538e-06
1.88282e-06
1.88093e-06
1.87969e-06
1.87908e-06
1.97444e-06
1.97019e-06
1.96424e-06
1.95694e-06
1.94859e-06
1.93944e-06
1.92973e-06
1.91967e-06
1.90943e-06
1.89917e-06
1.88903e-06
1.87913e-06
1.86957e-06
1.86044e-06
1.8518e-06
1.84373e-06
1.83626e-06
1.82943e-06
1.82328e-06
1.81783e-06
1.81308e-06
1.80904e-06
1.80571e-06
1.80308e-06
1.80114e-06
1.79987e-06
1.79925e-06
1.89343e-06
1.88901e-06
1.88283e-06
1.87524e-06
1.86656e-06
1.85705e-06
1.84697e-06
1.83652e-06
1.82589e-06
1.81525e-06
1.80473e-06
1.79446e-06
1.78455e-06
1.77509e-06
1.76615e-06
1.75779e-06
1.75006e-06
1.74301e-06
1.73665e-06
1.73102e-06
1.72612e-06
1.72195e-06
1.71852e-06
1.71581e-06
1.71381e-06
1.7125e-06
1.71186e-06
1.80489e-06
1.80026e-06
1.79379e-06
1.78585e-06
1.77676e-06
1.76682e-06
1.75628e-06
1.74536e-06
1.73426e-06
1.72315e-06
1.71218e-06
1.70148e-06
1.69116e-06
1.68131e-06
1.67201e-06
1.66332e-06
1.6553e-06
1.64797e-06
1.64138e-06
1.63555e-06
1.63047e-06
1.62616e-06
1.62261e-06
1.61981e-06
1.61774e-06
1.61639e-06
1.61573e-06
1.70748e-06
1.7026e-06
1.69579e-06
1.68744e-06
1.6779e-06
1.66746e-06
1.65639e-06
1.64494e-06
1.63331e-06
1.62168e-06
1.61021e-06
1.59903e-06
1.58826e-06
1.57799e-06
1.5683e-06
1.55926e-06
1.55092e-06
1.54332e-06
1.53648e-06
1.53043e-06
1.52517e-06
1.52071e-06
1.51704e-06
1.51415e-06
1.51202e-06
1.51063e-06
1.50995e-06
1.60007e-06
1.59493e-06
1.58776e-06
1.57898e-06
1.56894e-06
1.55798e-06
1.54637e-06
1.53437e-06
1.52219e-06
1.51004e-06
1.49806e-06
1.4864e-06
1.47518e-06
1.4645e-06
1.45444e-06
1.44506e-06
1.43641e-06
1.42854e-06
1.42148e-06
1.41523e-06
1.40981e-06
1.40521e-06
1.40143e-06
1.39846e-06
1.39627e-06
1.39484e-06
1.39415e-06
1.48211e-06
1.47672e-06
1.46922e-06
1.46003e-06
1.44954e-06
1.43809e-06
1.426e-06
1.41351e-06
1.40086e-06
1.38824e-06
1.37584e-06
1.36378e-06
1.35219e-06
1.34116e-06
1.33079e-06
1.32113e-06
1.31223e-06
1.30414e-06
1.29688e-06
1.29047e-06
1.28491e-06
1.28021e-06
1.27634e-06
1.27331e-06
1.27107e-06
1.26962e-06
1.26891e-06
1.35413e-06
1.34857e-06
1.34081e-06
1.33131e-06
1.32049e-06
1.30869e-06
1.29622e-06
1.28336e-06
1.27035e-06
1.25736e-06
1.24455e-06
1.23206e-06
1.21996e-06
1.20832e-06
1.19718e-06
1.18653e-06
1.1765e-06
1.16723e-06
1.15881e-06
1.15129e-06
1.14471e-06
1.13909e-06
1.13443e-06
1.13074e-06
1.12801e-06
1.12621e-06
1.12533e-06
1.21741e-06
1.21155e-06
1.20327e-06
1.19287e-06
1.18058e-06
1.16697e-06
1.15246e-06
1.13738e-06
1.12198e-06
1.10645e-06
1.09097e-06
1.07565e-06
1.06058e-06
1.04587e-06
1.03178e-06
1.01849e-06
1.00612e-06
9.94785e-07
9.84535e-07
9.7542e-07
9.67466e-07
9.60685e-07
9.5508e-07
9.50642e-07
9.47356e-07
9.45196e-07
9.44135e-07
1.05128e-06
1.04358e-06
1.03287e-06
1.01979e-06
1.00491e-06
9.88748e-07
9.71746e-07
9.5428e-07
9.36672e-07
9.1919e-07
9.02057e-07
8.85459e-07
8.69549e-07
8.54453e-07
8.40273e-07
8.2709e-07
8.14962e-07
8.03934e-07
7.94034e-07
7.85278e-07
7.77673e-07
7.71214e-07
7.65893e-07
7.61692e-07
7.58588e-07
7.56553e-07
7.55554e-07
8.5517e-07
8.47707e-07
8.37362e-07
8.24794e-07
8.10582e-07
7.95227e-07
7.79163e-07
7.62756e-07
7.46313e-07
7.30085e-07
7.14278e-07
6.99055e-07
6.84546e-07
6.70851e-07
6.58047e-07
6.46189e-07
6.35318e-07
6.2546e-07
6.16632e-07
6.08838e-07
6.02079e-07
5.96346e-07
5.91627e-07
5.87904e-07
5.85155e-07
5.83353e-07
5.82468e-07
6.68969e-07
6.62357e-07
6.53208e-07
6.42122e-07
6.29622e-07
6.16159e-07
6.02119e-07
5.87828e-07
5.73551e-07
5.59505e-07
5.45863e-07
5.32761e-07
5.20302e-07
5.08567e-07
4.97614e-07
4.87486e-07
4.7821e-07
4.69805e-07
4.62282e-07
4.55642e-07
4.49883e-07
4.44997e-07
4.40973e-07
4.37796e-07
4.35445e-07
4.33901e-07
4.33138e-07
5.06097e-07
5.00553e-07
4.92893e-07
4.83626e-07
4.73196e-07
4.61984e-07
4.50316e-07
4.3846e-07
4.26637e-07
4.15023e-07
4.03757e-07
3.92948e-07
3.82678e-07
3.73009e-07
3.63987e-07
3.55644e-07
3.48002e-07
3.41075e-07
3.3487e-07
3.29391e-07
3.24634e-07
3.20594e-07
3.17262e-07
3.14627e-07
3.12674e-07
3.11387e-07
3.10754e-07
3.71551e-07
3.67094e-07
3.60938e-07
3.53495e-07
3.45122e-07
3.36127e-07
3.26769e-07
3.17262e-07
3.07782e-07
2.98468e-07
2.89432e-07
2.80758e-07
2.72512e-07
2.64744e-07
2.57491e-07
2.5078e-07
2.44627e-07
2.39046e-07
2.34044e-07
2.29622e-07
2.25781e-07
2.22517e-07
2.19823e-07
2.17691e-07
2.1611e-07
2.15066e-07
2.14553e-07
2.65079e-07
2.61569e-07
2.56721e-07
2.50855e-07
2.44252e-07
2.37152e-07
2.29759e-07
2.22242e-07
2.14741e-07
2.07366e-07
2.00207e-07
1.93333e-07
1.86798e-07