/*--------------------------------*- C++ -*----------------------------------*\
| =========                 |                                                 |
| \\      /  F ield         | OpenFOAM: The Open Source CFD Toolbox           |
|  \\    /   O peration     | Version:  2106                                  |
|   \\  /    A nd           | Website:  www.openfoam.com                      |
|    \\/     M anipulation  |                                                 |
\*---------------------------------------------------------------------------*/
FoamFile
{
    version     2.0;
    format      ascii;
    arch        "LSB;label=32;scalar=64";
    class       volScalarField;
    location    "160.00011";
    object      C9H8;
}
// * * * * * * * * * * * * * * * * * * * * * * * * * * * * * * * * * * * * * //

dimensions      [0 0 0 0 0 0 0];

internalField   nonuniform List<scalar> 
3360
(
4.35997e-17
4.50026e-17
4.6955e-17
4.9343e-17
5.20673e-17
5.50385e-17
5.81757e-17
6.14062e-17
6.46651e-17
6.78951e-17
7.10466e-17
7.40774e-17
7.69527e-17
7.96448e-17
8.21326e-17
8.44014e-17
8.64421e-17
8.82509e-17
8.98283e-17
9.11793e-17
9.23118e-17
9.32368e-17
9.39674e-17
9.45185e-17
9.49062e-17
9.51474e-17
9.52594e-17
1.91262e-16
1.98292e-16
2.08212e-16
2.20565e-16
2.34973e-16
2.51107e-16
2.68671e-16
2.87395e-16
3.07028e-16
3.27334e-16
3.48083e-16
3.69055e-16
3.90032e-16
4.10797e-16
4.31138e-16
4.50847e-16
4.6972e-16
4.87557e-16
5.0417e-16
5.19381e-16
5.33026e-16
5.4496e-16
5.55062e-16
5.63231e-16
5.69397e-16
5.73514e-16
5.75567e-16
6.00105e-16
6.26441e-16
6.63864e-16
7.10889e-16
7.66285e-16
8.28942e-16
8.97809e-16
9.71847e-16
1.05001e-15
1.13122e-15
1.21438e-15
1.29842e-15
1.38224e-15
1.46478e-15
1.54503e-15
1.62199e-15
1.69477e-15
1.76256e-15
1.82465e-15
1.88045e-15
1.92953e-15
1.97155e-15
2.00634e-15
2.03384e-15
2.05411e-15
2.06733e-15
2.07376e-15
1.74766e-15
1.83447e-15
1.95864e-15
2.11574e-15
2.30206e-15
2.51412e-15
2.74843e-15
3.0014e-15
3.26924e-15
3.54799e-15
3.83353e-15
4.12168e-15
4.40831e-15
4.68936e-15
4.961e-15
5.21972e-15
5.46239e-15
5.68637e-15
5.88952e-15
6.07024e-15
6.22749e-15
6.3607e-15
6.4698e-15
6.55513e-15
6.6174e-15
6.65761e-15
6.677e-15
5.10594e-15
5.37976e-15
5.77222e-15
6.26992e-15
6.86146e-15
7.53591e-15
8.28205e-15
9.08794e-15
9.94091e-15
1.08276e-14
1.1734e-14
1.26464e-14
1.3551e-14
1.44347e-14
1.52854e-14
1.60922e-14
1.68459e-14
1.75387e-14
1.81646e-14
1.87193e-14
1.92002e-14
1.96063e-14
1.99378e-14
2.01965e-14
2.03847e-14
2.0506e-14
2.05643e-14
1.50549e-14
1.58958e-14
1.71026e-14
1.86342e-14
2.04557e-14
2.25331e-14
2.48312e-14
2.73127e-14
2.99377e-14
3.26639e-14
3.54483e-14
3.82471e-14
4.10178e-14
4.37202e-14
4.63173e-14
4.8776e-14
5.10685e-14
5.31719e-14
5.50687e-14
5.67469e-14
5.81995e-14
5.9424e-14
6.04224e-14
6.12e-14
6.17652e-14
6.21289e-14
6.23038e-14
4.47203e-14
4.72755e-14
5.09421e-14
5.55962e-14
6.11306e-14
6.7441e-14
7.44192e-14
8.19498e-14
8.991e-14
9.81708e-14
1.066e-13
1.15064e-13
1.23436e-13
1.31593e-13
1.39425e-13
1.46833e-13
1.53735e-13
1.60063e-13
1.65765e-13
1.70808e-13
1.7517e-13
1.78846e-13
1.81842e-13
1.84175e-13
1.85871e-13
1.86961e-13
1.87486e-13
1.33283e-13
1.40972e-13
1.52011e-13
1.66027e-13
1.82698e-13
2.01711e-13
2.22736e-13
2.45425e-13
2.69404e-13
2.94282e-13
3.1966e-13
3.45136e-13
3.70323e-13
3.94854e-13
4.18397e-13
4.40657e-13
4.61386e-13
4.80382e-13
4.97495e-13
5.12619e-13
5.25698e-13
5.36715e-13
5.45689e-13
5.52675e-13
5.5775e-13
5.61013e-13
5.62582e-13
3.98289e-13
4.21397e-13
4.54566e-13
4.96677e-13
5.46759e-13
6.03863e-13
6.66999e-13
7.35109e-13
8.07071e-13
8.81707e-13
9.57814e-13
1.03419e-12
1.10967e-12
1.18317e-12
1.25368e-12
1.32033e-12
1.38239e-12
1.43924e-12
1.49045e-12
1.53571e-12
1.57484e-12
1.6078e-12
1.63465e-12
1.65555e-12
1.67073e-12
1.6805e-12
1.68519e-12
1.19029e-12
1.2595e-12
1.35886e-12
1.48502e-12
1.63507e-12
1.80615e-12
1.9953e-12
2.19933e-12
2.41488e-12
2.6384e-12
2.8663e-12
3.09496e-12
3.32091e-12
3.54086e-12
3.75185e-12
3.95124e-12
4.13683e-12
4.30683e-12
4.45992e-12
4.59517e-12
4.7121e-12
4.81055e-12
4.89074e-12
4.95314e-12
4.99846e-12
5.02761e-12
5.04161e-12
3.55895e-12
3.76616e-12
4.06358e-12
4.44112e-12
4.89006e-12
5.40181e-12
5.96744e-12
6.57742e-12
7.22162e-12
7.88946e-12
8.57013e-12
9.25288e-12
9.92731e-12
1.05837e-11
1.12131e-11
1.18077e-11
1.23611e-11
1.28679e-11
1.33242e-11
1.37272e-11
1.40756e-11
1.4369e-11
1.46078e-11
1.47937e-11
1.49287e-11
1.50155e-11
1.50572e-11
1.06313e-11
1.125e-11
1.21381e-11
1.32652e-11
1.46052e-11
1.61323e-11
1.78197e-11
1.96389e-11
2.15595e-11
2.35499e-11
2.55779e-11
2.76113e-11
2.96191e-11
3.15724e-11
3.34448e-11
3.52133e-11
3.68583e-11
3.83644e-11
3.97198e-11
4.09167e-11
4.1951e-11
4.28215e-11
4.35303e-11
4.40816e-11
4.44819e-11
4.47393e-11
4.48629e-11
3.17242e-11
3.35685e-11
3.62147e-11
3.95719e-11
4.35611e-11
4.8105e-11
5.31229e-11
5.85293e-11
6.42334e-11
7.0141e-11
7.6156e-11
8.21833e-11
8.8131e-11
9.39137e-11
9.94535e-11
1.04683e-10
1.09545e-10
1.13994e-10
1.17996e-10
1.21528e-10
1.2458e-10
1.27147e-10
1.29237e-10
1.30862e-10
1.32042e-10
1.328e-10
1.33164e-10
9.43965e-11
9.98692e-11
1.07719e-10
1.17672e-10
1.29493e-10
1.42948e-10
1.57795e-10
1.73778e-10
1.90627e-10
2.08062e-10
2.25797e-10
2.43553e-10
2.61058e-10
2.78061e-10
2.94336e-10
3.09686e-10
3.23945e-10
3.36982e-10
3.48702e-10
3.5904e-10
3.67963e-10
3.75466e-10
3.8157e-10
3.86314e-10
3.89757e-10
3.91968e-10
3.9303e-10
2.79879e-10
2.9603e-10
3.19179e-10
3.48508e-10
3.83303e-10
4.22864e-10
4.66465e-10
5.13341e-10
5.62689e-10
6.1368e-10
6.65476e-10
7.17256e-10
7.68236e-10
8.17687e-10
8.64957e-10
9.09484e-10
9.50797e-10
9.88529e-10
1.02241e-09
1.05227e-09
1.07802e-09
1.09966e-09
1.11724e-09
1.1309e-09
1.14081e-09
1.14717e-09
1.15022e-09
8.24982e-10
8.72186e-10
9.39786e-10
1.02534e-09
1.12669e-09
1.24175e-09
1.36835e-09
1.50421e-09
1.64697e-09
1.79421e-09
1.94348e-09
2.09242e-09
2.23877e-09
2.38048e-09
2.5157e-09
2.64284e-09
2.76062e-09
2.86802e-09
2.96431e-09
3.04905e-09
3.12204e-09
3.18329e-09
3.23303e-09
3.27162e-09
3.29958e-09
3.31752e-09
3.32612e-09
2.41301e-09
2.54919e-09
2.74395e-09
2.99002e-09
3.28098e-09
3.61055e-09
3.9723e-09
4.35955e-09
4.76541e-09
5.18286e-09
5.60497e-09
6.02503e-09
6.43673e-09
6.83436e-09
7.21285e-09
7.56793e-09
7.89611e-09
8.19477e-09
8.46203e-09
8.69681e-09
8.89868e-09
9.06784e-09
9.20501e-09
9.31131e-09
9.38824e-09
9.43755e-09
9.46118e-09
6.98351e-09
7.36913e-09
7.91968e-09
8.61372e-09
9.43219e-09
1.03565e-08
1.13679e-08
1.24469e-08
1.35738e-08
1.47289e-08
1.58928e-08
1.70471e-08
1.81747e-08
1.92602e-08
2.02903e-08
2.12538e-08
2.2142e-08
2.29481e-08
2.36677e-08
2.42985e-08
2.48398e-08
2.52925e-08
2.5659e-08
2.59426e-08
2.61475e-08
2.62787e-08
2.63415e-08
1.99309e-08
2.0996e-08
2.25132e-08
2.44201e-08
2.66612e-08
2.91823e-08
3.19295e-08
3.48479e-08
3.78827e-08
4.09798e-08
4.40871e-08
4.71557e-08
5.01412e-08
5.30041e-08
5.57108e-08
5.82338e-08
6.05518e-08
6.26494e-08
6.45168e-08
6.61494e-08
6.7547e-08
6.87135e-08
6.96559e-08
7.0384e-08
7.09093e-08
7.12451e-08
7.14057e-08
5.58484e-08
5.86962e-08
6.27414e-08
6.78073e-08
7.37355e-08
8.03737e-08
8.75711e-08
9.51782e-08
1.03048e-07
1.11038e-07
1.19014e-07
1.26853e-07
1.34444e-07
1.41691e-07
1.48514e-07
1.5485e-07
1.6065e-07
1.65881e-07
1.70523e-07
1.7457e-07
1.78026e-07
1.80904e-07
1.83224e-07
1.85014e-07
1.86302e-07
1.87125e-07
1.87518e-07
1.52867e-07
1.60181e-07
1.70536e-07
1.8345e-07
1.98489e-07
2.15239e-07
2.33298e-07
2.52276e-07
2.71797e-07
2.91505e-07
3.11072e-07
3.30202e-07
3.48635e-07
3.66152e-07
3.82572e-07
3.97757e-07
4.11606e-07
4.24053e-07
4.35066e-07
4.44639e-07
4.52793e-07
4.59568e-07
4.65018e-07
4.69213e-07
4.7223e-07
4.74153e-07
4.7507e-07
4.06334e-07
4.2425e-07
4.49526e-07
4.80906e-07
5.1726e-07
5.57525e-07
6.00685e-07
6.45772e-07
6.91878e-07
7.38161e-07
7.83861e-07
8.28307e-07
8.70923e-07
9.11235e-07
9.48863e-07
9.83524e-07
1.01502e-06
1.04324e-06
1.06812e-06
1.0897e-06
1.10803e-06
1.12323e-06
1.13544e-06
1.14481e-06
1.15154e-06
1.15583e-06
1.15787e-06
1.04281e-06
1.08446e-06
1.14302e-06
1.2154e-06
1.29884e-06
1.39075e-06
1.48871e-06
1.59048e-06
1.69396e-06
1.79729e-06
1.8988e-06
1.99704e-06
2.09082e-06
2.17915e-06
2.26128e-06
2.33666e-06
2.40494e-06
2.46593e-06
2.51958e-06
2.56598e-06
2.60532e-06
2.63786e-06
2.66395e-06
2.68396e-06
2.69832e-06
2.70744e-06
2.71178e-06
2.57136e-06
2.66314e-06
2.79178e-06
2.95016e-06
3.1319e-06
3.33114e-06
3.54247e-06
3.76091e-06
3.98197e-06
4.20168e-06
4.41655e-06
4.62366e-06
4.82059e-06
5.00542e-06
5.17671e-06
5.33345e-06
5.47503e-06
5.60117e-06
5.71189e-06
5.80745e-06
5.88831e-06
5.9551e-06
6.00856e-06
6.04952e-06
6.07886e-06
6.0975e-06
6.10635e-06
6.07449e-06
6.2667e-06
6.53542e-06
6.86519e-06
7.24224e-06
7.65398e-06
8.08895e-06
8.53677e-06
8.98822e-06
9.43522e-06
9.87087e-06
1.02894e-05
1.06861e-05
1.10574e-05
1.14005e-05
1.17138e-05
1.19962e-05
1.22473e-05
1.24672e-05
1.26568e-05
1.28169e-05
1.29491e-05
1.30547e-05
1.31355e-05
1.31934e-05
1.32301e-05
1.32475e-05
1.37409e-05
1.41259e-05
1.46631e-05
1.53208e-05
1.60708e-05
1.68874e-05
1.77475e-05
1.86305e-05
1.95181e-05
2.03946e-05
2.12466e-05
2.20631e-05
2.28354e-05
2.35566e-05
2.4222e-05
2.48283e-05
2.53739e-05
2.58584e-05
2.62822e-05
2.66471e-05
2.6955e-05
2.72087e-05
2.74114e-05
2.75664e-05
2.76772e-05
2.77475e-05
2.77809e-05
2.98055e-05
3.05498e-05
3.15872e-05
3.28552e-05
3.42986e-05
3.58674e-05
3.75167e-05
3.92067e-05
4.09026e-05
4.25742e-05
4.41966e-05
4.57491e-05
4.72153e-05
4.85828e-05
4.9843e-05
5.099e-05
5.20211e-05
5.29357e-05
5.37352e-05
5.44228e-05
5.50028e-05
5.54804e-05
5.58616e-05
5.6153e-05
5.63613e-05
5.64933e-05
5.6556e-05
6.21304e-05
6.35344e-05
6.54902e-05
6.78796e-05
7.05977e-05
7.35499e-05
7.66516e-05
7.9828e-05
8.30135e-05
8.61522e-05
8.9197e-05
9.21095e-05
9.48593e-05
9.74233e-05
9.97853e-05
0.000101935
0.000103867
0.00010558
0.000107078
0.000108365
0.000109451
0.000110345
0.000111059
0.000111604
0.000111994
0.000112241
0.000112358
0.000124603
0.000127214
0.000130853
0.000135301
0.000140365
0.000145872
0.000151664
0.000157603
0.000163569
0.000169456
0.000175177
0.000180659
0.000185844
0.000190688
0.000195159
0.000199236
0.000202906
0.000206167
0.000209023
0.000211482
0.00021356
0.000215273
0.000216643
0.000217691
0.000218441
0.000218917
0.000219143
0.000239876
0.000244674
0.000251373
0.000259581
0.000268953
0.000279178
0.000289975
0.000301094
0.000312313
0.000323439
0.000334306
0.000344775
0.00035473
0.000364082
0.00037276
0.000380715
0.000387917
0.000394349
0.000400011
0.00040491
0.000409068
0.000412512
0.000415277
0.0004174
0.000418925
0.000419896
0.000420358
0.00043983
0.000448364
0.000460306
0.000474985
0.000491809
0.000510243
0.000529805
0.000550059
0.000570613
0.000591122
0.000611281
0.000630828
0.00064954
0.000667234
0.000683762
0.000699013
0.000712906
0.000725391
0.000736443
0.000746062
0.000754268
0.000761097
0.000766604
0.000770852
0.000773913
0.000775869
0.000776804
0.000757507
0.000771396
0.000790841
0.000814759
0.000842193
0.000872279
0.000904234
0.000937346
0.000970977
0.00100456
0.00103758
0.00106961
0.00110028
0.00112929
0.00115638
0.00118136
0.00120411
0.00122455
0.00124262
0.00125833
0.00127171
0.00128283
0.00129177
0.00129864
0.00130355
0.00130665
0.00130811
0.00120632
0.00122571
0.00125278
0.00128593
0.00132376
0.00136498
0.00140844
0.00145313
0.00149811
0.00154258
0.00158586
0.00162737
0.00166661
0.00170322
0.00173689
0.0017674
0.00179464
0.00181855
0.00183927
0.00185695
0.00187175
0.00188386
0.00189347
0.00190077
0.00190595
0.00190922
0.00191076
0.00175671
0.00177901
0.00180994
0.00184749
0.00188987
0.00193549
0.0019829
0.00203085
0.00207822
0.0021241
0.00216776
0.00220882
0.002247
0.00228212
0.00231406
0.00234278
0.00236829
0.00239067
0.00241003
0.00242652
0.00244029
0.00245153
0.00246044
0.00246719
0.00247197
0.00247499
0.00247641
0.00232543
0.00234554
0.00237325
0.00240661
0.00244393
0.00248369
0.00252463
0.00256566
0.00260591
0.00264471
0.00268152
0.002716
0.00274789
0.00277704
0.0028034
0.00282697
0.00284781
0.002866
0.00288168
0.00289497
0.00290605
0.00291506
0.00292218
0.00292756
0.00293138
0.00293378
0.00293491
0.00280775
0.00282339
0.00284484
0.00287051
0.00289903
0.0029292
0.00296001
0.00299066
0.00302049
0.00304902
0.00307591
0.0031009
0.00312386
0.00314471
0.00316345
0.00318012
0.00319478
0.00320752
0.00321846
0.00322771
0.0032354
0.00324164
0.00324656
0.00325028
0.00325292
0.00325458
0.00325536
0.00316027
0.00317055
0.00318458
0.00320128
0.00321968
0.00323899
0.00325855
0.00327782
0.00329641
0.00331402
0.00333048
0.00334564
0.00335946
0.00337191
0.00338303
0.00339285
0.00340144
0.00340888
0.00341523
0.00342059
0.00342503
0.00342863
0.00343147
0.00343362
0.00343514
0.0034361
0.00343655
0.00336802
0.00337329
0.00338042
0.00338882
0.00339796
0.00340743
0.00341686
0.00342601
0.00343469
0.00344277
0.00345019
0.00345691
0.00346293
0.00346827
0.00347296
0.00347706
0.00348059
0.00348362
0.00348619
0.00348834
0.00349011
0.00349155
0.00349267
0.00349353
0.00349414
0.00349452
0.0034947
0.00344205
0.00344332
0.00344498
0.00344681
0.00344867
0.00345043
0.00345198
0.0034533
0.00345434
0.00345512
0.00345564
0.00345594
0.00345606
0.00345604
0.00345591
0.0034557
0.00345544
0.00345517
0.00345491
0.00345465
0.00345443
0.00345424
0.00345408
0.00345396
0.00345388
0.00345383
0.00345381
0.0034082
0.00340662
0.00340439
0.00340158
0.0033983
0.00339463
0.00339066
0.00338649
0.0033822
0.00337789
0.00337362
0.00336948
0.00336551
0.00336177
0.00335829
0.00335511
0.00335223
0.00334967
0.00334744
0.00334552
0.0033439
0.00334258
0.00334152
0.00334073
0.00334016
0.0033398
0.00333964
0.00329617
0.00329276
0.003288
0.0032822
0.00327559
0.00326843
0.0032609
0.00325321
0.0032455
0.00323793
0.00323059
0.0032236
0.00321701
0.00321089
0.00320527
0.00320017
0.00319561
0.00319158
0.00318807
0.00318507
0.00318256
0.0031805
0.00317886
0.00317762
0.00317673
0.00317618
0.00317591
0.00313298
0.00312848
0.00312225
0.00311468
0.00310612
0.00309691
0.0030873
0.00307755
0.00306785
0.00305837
0.00304925
0.00304059
0.00303248
0.00302497
0.0030181
0.00301188
0.00300634
0.00300145
0.0029972
0.00299356
0.00299051
0.00298802
0.00298603
0.00298453
0.00298345
0.00298278
0.00298246
0.00294025
0.0029352
0.00292822
0.00291975
0.00291021
0.00289996
0.00288931
0.00287853
0.00286783
0.00285741
0.0028474
0.00283792
0.00282906
0.00282087
0.00281338
0.00280662
0.00280059
0.00279527
0.00279066
0.00278671
0.0027834
0.00278068
0.00277853
0.00277689
0.00277572
0.00277498
0.00277463
0.00273403
0.00272879
0.00272153
0.00271275
0.00270288
0.00269228
0.00268129
0.00267017
0.00265916
0.00264844
0.00263816
0.00262844
0.00261935
0.00261096
0.0026033
0.00259638
0.00259021
0.00258478
0.00258006
0.00257602
0.00257263
0.00256985
0.00256765
0.00256597
0.00256477
0.00256401
0.00256365
0.00252554
0.00252033
0.00251313
0.00250442
0.00249463
0.00248414
0.00247326
0.00246227
0.00245139
0.0024408
0.00243067
0.00242108
0.00241212
0.00240386
0.00239631
0.00238951
0.00238343
0.00237808
0.00237343
0.00236946
0.00236612
0.00236339
0.00236121
0.00235956
0.00235838
0.00235763
0.00235728
0.00232225
0.00231722
0.00231028
0.00230189
0.00229246
0.00228235
0.00227188
0.00226131
0.00225085
0.00224068
0.00223094
0.00222173
0.00221314
0.00220521
0.00219797
0.00219144
0.00218562
0.00218048
0.00217603
0.00217221
0.00216901
0.00216639
0.0021643
0.00216271
0.00216158
0.00216086
0.00216052
0.00212888
0.00212413
0.00211757
0.00210964
0.00210073
0.00209119
0.00208131
0.00207133
0.00206147
0.00205188
0.0020427
0.00203403
0.00202593
0.00201846
0.00201165
0.0020055
0.00200001
0.00199518
0.00199099
0.0019874
0.00198439
0.00198192
0.00197995
0.00197845
0.00197738
0.00197671
0.00197638
0.00194818
0.00194375
0.00193764
0.00193026
0.00192197
0.00191309
0.00190389
0.00189461
0.00188544
0.00187653
0.001868
0.00185994
0.00185242
0.00184548
0.00183916
0.00183345
0.00182836
0.00182387
0.00181998
0.00181665
0.00181385
0.00181156
0.00180973
0.00180834
0.00180735
0.00180672
0.00180642
0.00178152
0.00177744
0.00177181
0.00176501
0.00175737
0.0017492
0.00174074
0.0017322
0.00172377
0.00171557
0.00170773
0.00170032
0.00169341
0.00168704
0.00168123
0.00167598
0.00167131
0.00166719
0.00166361
0.00166056
0.00165799
0.00165588
0.0016542
0.00165293
0.00165201
0.00165144
0.00165116
0.00162932
0.0016256
0.00162046
0.00161425
0.00160728
0.00159982
0.0015921
0.00158431
0.00157662
0.00156915
0.001562
0.00155525
0.00154896
0.00154315
0.00153785
0.00153308
0.00152882
0.00152507
0.00152181
0.00151903
0.00151669
0.00151477
0.00151324
0.00151208
0.00151125
0.00151073
0.00151048
0.00149141
0.00148803
0.00148337
0.00147774
0.00147143
0.00146466
0.00145767
0.00145061
0.00144365
0.00143688
0.00143041
0.0014243
0.0014186
0.00141334
0.00140855
0.00140423
0.00140038
0.00139699
0.00139404
0.00139152
0.00138941
0.00138767
0.00138629
0.00138524
0.00138449
0.00138401
0.00138379
0.0013672
0.00136415
0.00135995
0.00135487
0.00134917
0.00134308
0.00133678
0.00133042
0.00132414
0.00131805
0.00131222
0.00130672
0.00130159
0.00129686
0.00129254
0.00128866
0.00128519
0.00128214
0.00127949
0.00127722
0.00127532
0.00127376
0.00127252
0.00127157
0.0012709
0.00127047
0.00127027
0.00125585
0.00125311
0.00124934
0.00124478
0.00123967
0.0012342
0.00122855
0.00122284
0.00121721
0.00121175
0.00120652
0.00120159
0.00119699
0.00119275
0.00118889
0.00118541
0.0011823
0.00117957
0.00117719
0.00117516
0.00117346
0.00117206
0.00117095
0.0011701
0.0011695
0.00116912
0.00116893
0.00115641
0.00115397
0.00115059
0.00114652
0.00114195
0.00113706
0.001132
0.0011269
0.00112187
0.00111699
0.00111232
0.00110791
0.0011038
0.00110002
0.00109657
0.00109346
0.00109069
0.00108825
0.00108613
0.00108432
0.00108279
0.00108155
0.00108056
0.0010798
0.00107926
0.00107892
0.00107876
0.00106788
0.0010657
0.00106269
0.00105906
0.00105498
0.00105062
0.00104611
0.00104157
0.00103709
0.00103273
0.00102857
0.00102465
0.00102099
0.00101762
0.00101455
0.00101178
0.00100931
0.00100714
0.00100525
0.00100364
0.00100229
0.00100118
0.00100029
0.00099962
0.00099914
0.000998837
0.000998693
0.000989244
0.000987302
0.000984623
0.00098139
0.000977764
0.000973886
0.000969876
0.000965836
0.000961848
0.000957979
0.000954281
0.000950792
0.00094754
0.000944544
0.000941814
0.000939353
0.000937161
0.000935232
0.000933557
0.000932125
0.000930923
0.000929938
0.000929154
0.000928557
0.000928131
0.000927861
0.000927733
0.000919513
0.000917788
0.000915408
0.000912536
0.000909316
0.000905872
0.000902312
0.000898725
0.000895185
0.000891751
0.000888469
0.000885373
0.000882488
0.00087983
0.000877408
0.000875225
0.000873281
0.00087157
0.000870085
0.000868816
0.000867751
0.000866877
0.000866183
0.000865653
0.000865276
0.000865037
0.000864924
0.00085776
0.00085623
0.000854119
0.000851572
0.000848716
0.000845661
0.000842504
0.000839323
0.000836185
0.00083314
0.000830231
0.000827487
0.000824931
0.000822575
0.00082043
0.000818496
0.000816774
0.000815259
0.000813944
0.00081282
0.000811877
0.000811104
0.000810489
0.000810021
0.000809687
0.000809475
0.000809375
0.000803121
0.000801764
0.000799893
0.000797636
0.000795105
0.000792398
0.000789601
0.000786783
0.000784002
0.000781306
0.000778729
0.000776299
0.000774036
0.000771951
0.000770051
0.00076834
0.000766816
0.000765475
0.000764312
0.000763317
0.000762483
0.000761799
0.000761256
0.000760841
0.000760546
0.000760359
0.000760271
0.000754798
0.000753596
0.000751939
0.000749939
0.000747697
0.0007453
0.000742822
0.000740327
0.000737865
0.000735478
0.000733197
0.000731046
0.000729043
0.000727198
0.000725517
0.000724003
0.000722655
0.000721469
0.00072044
0.000719561
0.000718824
0.000718219
0.000717739
0.000717372
0.000717112
0.000716946
0.000716868
0.000712068
0.000711003
0.000709535
0.000707764
0.000705778
0.000703655
0.000701462
0.000699252
0.000697073
0.000694959
0.000692941
0.000691037
0.000689264
0.000687632
0.000686145
0.000684806
0.000683613
0.000682565
0.000681655
0.000680878
0.000680226
0.000679692
0.000679267
0.000678944
0.000678713
0.000678567
0.000678498
0.000674275
0.000673332
0.000672031
0.000670462
0.000668704
0.000666823
0.00066488
0.000662924
0.000660994
0.000659123
0.000657335
0.000655651
0.000654082
0.000652637
0.000651321
0.000650136
0.000649082
0.000648154
0.00064735
0.000646663
0.000646086
0.000645614
0.000645239
0.000644953
0.00064475
0.000644621
0.00064456
0.000640833
0.000639997
0.000638844
0.000637454
0.000635895
0.000634229
0.000632507
0.000630774
0.000629064
0.000627407
0.000625823
0.000624331
0.000622942
0.000621663
0.000620498
0.00061945
0.000618516
0.000617696
0.000616984
0.000616376
0.000615867
0.000615449
0.000615117
0.000614865
0.000614685
0.000614571
0.000614517
0.000611217
0.000610475
0.000609453
0.000608219
0.000606837
0.000605359
0.000603833
0.000602296
0.00060078
0.00059931
0.000597907
0.000596585
0.000595353
0.00059422
0.000593188
0.00059226
0.000591433
0.000590706
0.000590076
0.000589538
0.000589087
0.000588718
0.000588425
0.000588201
0.000588042
0.000587942
0.000587894
0.00058496
0.000584301
0.000583393
0.000582298
0.000581071
0.000579759
0.000578404
0.000577039
0.000575694
0.00057439
0.000573145
0.000571971
0.000570879
0.000569874
0.000568959
0.000568135
0.000567403
0.000566759
0.0005662
0.000565724
0.000565324
0.000564997
0.000564738
0.00056454
0.000564399
0.00056431
0.000564268
0.000561648
0.000561063
0.000560255
0.000559282
0.00055819
0.000557024
0.000555819
0.000554606
0.00055341
0.000552252
0.000551145
0.000550103
0.000549133
0.00054824
0.000547427
0.000546696
0.000546046
0.000545474
0.000544979
0.000544556
0.000544202
0.000543912
0.000543682
0.000543507
0.000543382
0.000543303
0.000543266
0.000540915
0.000540394
0.000539675
0.000538808
0.000537836
0.000536797
0.000535724
0.000534644
0.000533579
0.000532548
0.000531563
0.000530635
0.000529772
0.000528978
0.000528255
0.000527605
0.000527027
0.000526519
0.000526079
0.000525703
0.000525389
0.000525131
0.000524927
0.000524771
0.000524661
0.000524591
0.000524558
0.000522438
0.000521972
0.000521331
0.000520557
0.000519689
0.000518762
0.000517805
0.000516841
0.000515892
0.000514971
0.000514093
0.000513266
0.000512496
0.000511788
0.000511144
0.000510565
0.00051005
0.000509598
0.000509206
0.000508872
0.000508592
0.000508363
0.000508181
0.000508043
0.000507945
0.000507883
0.000507853
0.00050593
0.000505513
0.000504939
0.000504247
0.000503471
0.000502642
0.000501785
0.000500924
0.000500074
0.000499252
0.000498467
0.000497727
0.000497039
0.000496407
0.000495832
0.000495314
0.000494855
0.000494451
0.000494101
0.000493803
0.000493554
0.00049335
0.000493188
0.000493065
0.000492977
0.000492922
0.000492896
0.000491139
0.000490765
0.00049025
0.000489629
0.000488933
0.00048819
0.000487422
0.000486649
0.000485888
0.00048515
0.000484446
0.000483784
0.000483167
0.000482601
0.000482086
0.000481623
0.000481211
0.00048085
0.000480537
0.000480271
0.000480048
0.000479865
0.000479721
0.000479611
0.000479533
0.000479484
0.00047946
0.000477844
0.000477508
0.000477044
0.000476485
0.000475859
0.00047519
0.000474499
0.000473804
0.00047312
0.000472456
0.000471824
0.000471228
0.000470674
0.000470165
0.000469703
0.000469287
0.000468917
0.000468593
0.000468313
0.000468074
0.000467874
0.000467711
0.000467581
0.000467483
0.000467413
0.000467369
0.000467348
0.000465849
0.000465546
0.000465127
0.000464623
0.000464057
0.000463453
0.00046283
0.000462203
0.000461585
0.000460986
0.000460416
0.000459878
0.000459379
0.00045892
0.000458503
0.000458129
0.000457796
0.000457505
0.000457252
0.000457037
0.000456858
0.000456711
0.000456595
0.000456506
0.000456444
0.000456404
0.000456386
0.000454984
0.000454709
0.000454329
0.000453872
0.00045336
0.000452813
0.000452248
0.00045168
0.00045112
0.000450579
0.000450062
0.000449576
0.000449124
0.000448709
0.000448332
0.000447994
0.000447693
0.00044743
0.000447202
0.000447008
0.000446846
0.000446714
0.000446609
0.00044653
0.000446473
0.000446438
0.000446421
0.000445099
0.000444849
0.000444504
0.000444088
0.000443622
0.000443125
0.000442611
0.000442095
0.000441586
0.000441094
0.000440624
0.000440183
0.000439773
0.000439396
0.000439054
0.000438747
0.000438475
0.000438236
0.00043803
0.000437854
0.000437708
0.000437588
0.000437494
0.000437422
0.000437371
0.000437339
0.000437324
0.000436066
0.000435838
0.000435523
0.000435144
0.000434719
0.000434265
0.000433796
0.000433325
0.000432861
0.000432413
0.000431985
0.000431583
0.000431209
0.000430866
0.000430555
0.000430276
0.000430029
0.000429812
0.000429624
0.000429465
0.000429332
0.000429224
0.000429138
0.000429073
0.000429027
0.000428998
0.000428985
0.000427779
0.00042757
0.000427282
0.000426935
0.000426546
0.00042613
0.000425702
0.000425271
0.000424847
0.000424437
0.000424046
0.000423679
0.000423338
0.000423026
0.000422742
0.000422487
0.000422262
0.000422065
0.000421894
0.00042175
0.000421629
0.00042153
0.000421453
0.000421394
0.000421352
0.000421326
0.000421314
0.000420151
0.000419959
0.000419695
0.000419377
0.000419021
0.00041864
0.000418248
0.000417854
0.000417466
0.000417091
0.000416734
0.000416398
0.000416087
0.000415801
0.000415543
0.000415311
0.000415105
0.000414926
0.000414771
0.000414639
0.00041453
0.000414441
0.00041437
0.000414317
0.000414279
0.000414256
0.000414245
0.000413118
0.000412943
0.000412701
0.00041241
0.000412084
0.000411736
0.000411377
0.000411017
0.000410662
0.00041032
0.000409994
0.000409688
0.000409405
0.000409145
0.00040891
0.000408699
0.000408513
0.00040835
0.00040821
0.000408091
0.000407991
0.000407911
0.000407847
0.000407799
0.000407766
0.000407744
0.000407734
0.000406642
0.000406482
0.000406262
0.000405996
0.000405699
0.000405383
0.000405057
0.000404729
0.000404408
0.000404097
0.000403802
0.000403525
0.000403268
0.000403034
0.000402821
0.000402631
0.000402464
0.000402317
0.000402191
0.000402084
0.000401996
0.000401924
0.000401867
0.000401824
0.000401794
0.000401775
0.000401766
0.000400709
0.000400564
0.000400366
0.000400126
0.000399859
0.000399574
0.000399281
0.000398987
0.000398698
0.00039842
0.000398156
0.000397908
0.000397679
0.00039747
0.000397281
0.000397113
0.000396964
0.000396834
0.000396723
0.000396629
0.000396551
0.000396487
0.000396438
0.0003964
0.000396374
0.000396357
0.00039635
0.00039533
0.000395202
0.000395025
0.000394814
0.000394577
0.000394325
0.000394067
0.000393808
0.000393554
0.00039331
0.000393079
0.000392863
0.000392663
0.000392481
0.000392317
0.000392171
0.000392042
0.00039193
0.000391834
0.000391753
0.000391686
0.000391632
0.00039159
0.000391558
0.000391536
0.000391522
0.000391515
0.000390535
0.000390424
0.000390272
0.00039009
0.000389886
0.00038967
0.000389448
0.000389227
0.00038901
0.000388803
0.000388606
0.000388423
0.000388254
0.000388101
0.000387963
0.000387841
0.000387734
0.000387641
0.000387561
0.000387494
0.000387439
0.000387395
0.00038736
0.000387334
0.000387316
0.000387305
0.0003873
0.000386355
0.000386262
0.000386135
0.000385983
0.000385813
0.000385633
0.000385449
0.000385266
0.000385087
0.000384916
0.000384754
0.000384604
0.000384466
0.000384341
0.000384229
0.00038413
0.000384043
0.000383969
0.000383905
0.000383851
0.000383807
0.000383772
0.000383745
0.000383725
0.00038371
0.000383702
0.000383698
0.000382784
0.000382708
0.000382602
0.000382476
0.000382336
0.000382187
0.000382034
0.000381881
0.000381732
0.000381589
0.000381453
0.000381326
0.000381208
0.0003811
0.000381002
0.000380912
0.000380833
0.000380763
0.000380703
0.000380652
0.000380609
0.000380575
0.000380548
0.000380527
0.000380513
0.000380504
0.0003805
0.000379717
0.000379647
0.00037955
0.000379431
0.000379296
0.000379151
0.000379
0.000378849
0.000378698
0.000378552
0.000378411
0.000378278
0.000378152
0.000378036
0.00037793
0.000377834
0.000377748
0.000377673
0.000377608
0.000377552
0.000377506
0.000377468
0.000377438
0.000377415
0.000377399
0.000377389
0.000377384
0.000376811
0.000376737
0.000376635
0.000376511
0.000376373
0.000376225
0.000376072
0.000375918
0.000375766
0.000375618
0.000375478
0.000375345
0.000375222
0.000375108
0.000375005
0.000374913
0.000374831
0.000374759
0.000374697
0.000374644
0.0003746
0.000374564
0.000374536
0.000374515
0.0003745
0.00037449
0.000374486
0.000374072
0.000374006
0.000373915
0.000373805
0.000373683
0.000373552
0.000373418
0.000373283
0.000373151
0.000373024
0.000372902
0.000372789
0.000372684
0.000372587
0.0003725
0.000372422
0.000372353
0.000372293
0.000372241
0.000372197
0.000372161
0.000372131
0.000372108
0.00037209
0.000372078
0.00037207
0.000372066
0.00037178
0.000371728
0.000371657
0.000371572
0.000371477
0.000371376
0.000371272
0.000371169
0.000371068
0.000370971
0.000370879
0.000370793
0.000370713
0.000370641
0.000370576
0.000370517
0.000370466
0.000370421
0.000370382
0.00037035
0.000370322
0.0003703
0.000370283
0.00037027
0.000370261
0.000370255
0.000370252
0.000370069
0.000370033
0.000369984
0.000369924
0.000369859
0.000369789
0.000369717
0.000369646
0.000369576
0.000369509
0.000369446
0.000369387
0.000369333
0.000369283
0.000369238
0.000369198
0.000369163
0.000369132
0.000369105
0.000369083
0.000369064
0.000369049
0.000369037
0.000369028
0.000369021
0.000369017
0.000369016
0.000368913
0.000368889
0.000368857
0.000368819
0.000368776
0.00036873
0.000368684
0.000368637
0.00036859
0.000368546
0.000368504
0.000368464
0.000368427
0.000368393
0.000368362
0.000368335
0.00036831
0.000368289
0.00036827
0.000368254
0.000368241
0.000368231
0.000368222
0.000368216
0.000368211
0.000368208
0.000368207
0.000368165
0.000368149
0.000368127
0.0003681
0.000368069
0.000368037
0.000368003
0.000367968
0.000367934
0.0003679
0.000367868
0.000367837
0.000367809
0.000367782
0.000367757
0.000367735
0.000367716
0.000367698
0.000367683
0.00036767
0.000367659
0.00036765
0.000367643
0.000367638
0.000367634
0.000367631
0.00036763
0.000367633
0.000367619
0.000367599
0.000367575
0.000367547
0.000367518
0.000367486
0.000367454
0.000367422
0.00036739
0.000367359
0.00036733
0.000367302
0.000367276
0.000367252
0.000367231
0.000367211
0.000367194
0.000367179
0.000367166
0.000367155
0.000367146
0.000367139
0.000367134
0.00036713
0.000367128
0.000367126
0.000367161
0.000367146
0.000367124
0.000367098
0.000367069
0.000367037
0.000367003
0.000366969
0.000366934
0.0003669
0.000366867
0.000366835
0.000366804
0.000366776
0.000366749
0.000366725