/*--------------------------------*- C++ -*----------------------------------*\
| =========                 |                                                 |
| \\      /  F ield         | OpenFOAM: The Open Source CFD Toolbox           |
|  \\    /   O peration     | Version:  2106                                  |
|   \\  /    A nd           | Website:  www.openfoam.com                      |
|    \\/     M anipulation  |                                                 |
\*---------------------------------------------------------------------------*/
FoamFile
{
    version     2.0;
    format      ascii;
    arch        "LSB;label=32;scalar=64";
    class       volScalarField;
    location    "160.00011";
    object      CH3COCH2_0;
}
// * * * * * * * * * * * * * * * * * * * * * * * * * * * * * * * * * * * * * //

dimensions      [0 0 0 0 0 0 0];

internalField   nonuniform List<scalar> 
3360
(
4.11854e-21
4.25102e-21
4.43538e-21
4.66088e-21
4.91813e-21
5.19869e-21
5.49493e-21
5.79998e-21
6.10771e-21
6.41271e-21
6.71028e-21
6.99647e-21
7.26797e-21
7.52216e-21
7.75707e-21
7.9713e-21
8.16399e-21
8.33477e-21
8.48372e-21
8.61128e-21
8.71822e-21
8.80555e-21
8.87454e-21
8.92658e-21
8.96318e-21
8.98596e-21
8.99653e-21
1.80631e-20
1.87268e-20
1.96633e-20
2.08295e-20
2.21898e-20
2.37129e-20
2.53711e-20
2.71388e-20
2.89923e-20
3.09093e-20
3.28682e-20
3.48481e-20
3.68285e-20
3.87888e-20
4.07092e-20
4.25699e-20
4.43516e-20
4.60356e-20
4.76041e-20
4.90401e-20
5.03283e-20
5.14551e-20
5.24087e-20
5.318e-20
5.37621e-20
5.41508e-20
5.43446e-20
5.66543e-20
5.91398e-20
6.26715e-20
6.71094e-20
7.23371e-20
7.82502e-20
8.47492e-20
9.17361e-20
9.91121e-20
1.06776e-19
1.14624e-19
1.22554e-19
1.30464e-19
1.38253e-19
1.45826e-19
1.53089e-19
1.59957e-19
1.66353e-19
1.72212e-19
1.77478e-19
1.82109e-19
1.86075e-19
1.89357e-19
1.91952e-19
1.93865e-19
1.95113e-19
1.9572e-19
1.64913e-19
1.73101e-19
1.84814e-19
1.99633e-19
2.17207e-19
2.37209e-19
2.5931e-19
2.83171e-19
3.08434e-19
3.34725e-19
3.61656e-19
3.88834e-19
4.15867e-19
4.42374e-19
4.67995e-19
4.92395e-19
5.15283e-19
5.36406e-19
5.55566e-19
5.7261e-19
5.8744e-19
6.00003e-19
6.10292e-19
6.1834e-19
6.24212e-19
6.28004e-19
6.29833e-19
4.81538e-19
5.07353e-19
5.44351e-19
5.9127e-19
6.47035e-19
7.10616e-19
7.80953e-19
8.56922e-19
9.37327e-19
1.02091e-18
1.10635e-18
1.19236e-18
1.27762e-18
1.36092e-18
1.4411e-18
1.51715e-18
1.58819e-18
1.65349e-18
1.71248e-18
1.76477e-18
1.81009e-18
1.84837e-18
1.87962e-18
1.90399e-18
1.92173e-18
1.93316e-18
1.93866e-18
1.41896e-18
1.49819e-18
1.61189e-18
1.75619e-18
1.9278e-18
2.12352e-18
2.34003e-18
2.57381e-18
2.82109e-18
3.07793e-18
3.34022e-18
3.60388e-18
3.86489e-18
4.11946e-18
4.3641e-18
4.59571e-18
4.81165e-18
5.00978e-18
5.18846e-18
5.34653e-18
5.48336e-18
5.5987e-18
5.69274e-18
5.76598e-18
5.81922e-18
5.85348e-18
5.86995e-18
4.21234e-18
4.45293e-18
4.79818e-18
5.23639e-18
5.75748e-18
6.35163e-18
7.00865e-18
7.71766e-18
8.4671e-18
9.24482e-18
1.00384e-17
1.08353e-17
1.16234e-17
1.23913e-17
1.31286e-17
1.3826e-17
1.44757e-17
1.50714e-17
1.56082e-17
1.60829e-17
1.64935e-17
1.68396e-17
1.71216e-17
1.73412e-17
1.75008e-17
1.76034e-17
1.76528e-17
1.25463e-17
1.32698e-17
1.43085e-17
1.56274e-17
1.71961e-17
1.89851e-17
2.09634e-17
2.30982e-17
2.53543e-17
2.76951e-17
3.00827e-17
3.24796e-17
3.48492e-17
3.71572e-17
3.93721e-17
4.14663e-17
4.34164e-17
4.52035e-17
4.68134e-17
4.82362e-17
4.94666e-17
5.05029e-17
5.13472e-17
5.20044e-17
5.24818e-17
5.27888e-17
5.29363e-17
3.74673e-17
3.96403e-17
4.27595e-17
4.67194e-17
5.14289e-17
5.67987e-17
6.27354e-17
6.91399e-17
7.59064e-17
8.29242e-17
9.00801e-17
9.72612e-17
1.04358e-16
1.11268e-16
1.17898e-16
1.24165e-16
1.29999e-16
1.35344e-16
1.40159e-16
1.44413e-16
1.48092e-16
1.51191e-16
1.53715e-16
1.5568e-16
1.57107e-16
1.58025e-16
1.58466e-16
1.11894e-16
1.18399e-16
1.27737e-16
1.39593e-16
1.53694e-16
1.69771e-16
1.87545e-16
2.06718e-16
2.26973e-16
2.47977e-16
2.69391e-16
2.90877e-16
3.12107e-16
3.32774e-16
3.52598e-16
3.71333e-16
3.8877e-16
4.04743e-16
4.19126e-16
4.31834e-16
4.42819e-16
4.5207e-16
4.59604e-16
4.65466e-16
4.69724e-16
4.72462e-16
4.73778e-16
3.34323e-16
3.53783e-16
3.81716e-16
4.17173e-16
4.59335e-16
5.07394e-16
5.60513e-16
6.17795e-16
6.7829e-16
7.41004e-16
8.04922e-16
8.69034e-16
9.32364e-16
9.93995e-16
1.0531e-15
1.10893e-15
1.16089e-15
1.20848e-15
1.25132e-15
1.28917e-15
1.32188e-15
1.34942e-15
1.37185e-15
1.3893e-15
1.40198e-15
1.41013e-15
1.41404e-15
9.97895e-16
1.05596e-15
1.13931e-15
1.24509e-15
1.37085e-15
1.51417e-15
1.67253e-15
1.84326e-15
2.0235e-15
2.21029e-15
2.4006e-15
2.59142e-15
2.77983e-15
2.96313e-15
3.13884e-15
3.30478e-15
3.45915e-15
3.60047e-15
3.72765e-15
3.83997e-15
3.93701e-15
4.0187e-15
4.0852e-15
4.13694e-15
4.1745e-15
4.19865e-15
4.21024e-15
2.97494e-15
3.14792e-15
3.3961e-15
3.71096e-15
4.0851e-15
4.51125e-15
4.98185e-15
5.48889e-15
6.02384e-15
6.57788e-15
7.14198e-15
7.70721e-15
8.265e-15
8.80729e-15
9.32681e-15
9.8172e-15
1.02731e-14
1.06903e-14
1.10656e-14
1.13969e-14
1.1683e-14
1.19238e-14
1.21198e-14
1.22722e-14
1.23828e-14
1.24539e-14
1.2488e-14
8.84119e-15
9.35407e-15
1.00897e-14
1.10225e-14
1.21303e-14
1.33913e-14
1.47828e-14
1.62808e-14
1.78599e-14
1.94939e-14
2.11561e-14
2.28201e-14
2.44607e-14
2.60543e-14
2.75796e-14
2.90182e-14
3.03545e-14
3.15764e-14
3.26747e-14
3.36435e-14
3.44798e-14
3.5183e-14
3.5755e-14
3.61996e-14
3.65221e-14
3.67294e-14
3.68289e-14
2.6167e-14
2.76793e-14
2.98469e-14
3.25933e-14
3.58517e-14
3.95566e-14
4.36399e-14
4.80301e-14
5.2652e-14
5.74279e-14
6.22794e-14
6.71294e-14
7.19045e-14
7.65366e-14
8.09644e-14
8.51352e-14
8.9005e-14
9.25394e-14
9.57131e-14
9.851e-14
1.00922e-13
1.02948e-13
1.04596e-13
1.05875e-13
1.06803e-13
1.07399e-13
1.07685e-13
7.69132e-14
8.13282e-14
8.76513e-14
9.56543e-14
1.05137e-13
1.15903e-13
1.27749e-13
1.40465e-13
1.53827e-13
1.67609e-13
1.81583e-13
1.95527e-13
2.09231e-13
2.225e-13
2.35161e-13
2.47068e-13
2.58097e-13
2.68154e-13
2.77172e-13
2.85108e-13
2.91943e-13
2.97679e-13
3.02337e-13
3.05951e-13
3.08569e-13
3.10249e-13
3.11054e-13
2.23888e-13
2.36602e-13
2.54788e-13
2.77772e-13
3.04955e-13
3.35755e-13
3.69572e-13
4.05784e-13
4.43747e-13
4.82804e-13
5.22308e-13
5.61628e-13
6.00174e-13
6.37409e-13
6.72857e-13
7.06117e-13
7.36861e-13
7.64841e-13
7.89882e-13
8.1188e-13
8.30795e-13
8.46646e-13
8.59498e-13
8.69459e-13
8.76667e-13
8.81287e-13
8.83501e-13
6.42544e-13
6.78415e-13
7.2965e-13
7.94274e-13
8.70534e-13
9.56717e-13
1.05108e-12
1.15183e-12
1.25713e-12
1.36514e-12
1.47404e-12
1.58212e-12
1.68774e-12
1.78948e-12
1.88608e-12
1.97646e-12
2.0598e-12
2.13547e-12
2.20304e-12
2.26228e-12
2.31312e-12
2.35565e-12
2.39007e-12
2.41671e-12
2.43597e-12
2.44829e-12
2.45419e-12
1.80737e-12
1.90561e-12
2.04568e-12
2.22194e-12
2.42936e-12
2.66306e-12
2.91812e-12
3.18952e-12
3.47221e-12
3.76117e-12
4.05156e-12
4.33878e-12
4.61863e-12
4.88736e-12
5.14176e-12
5.37918e-12
5.59754e-12
5.79532e-12
5.97155e-12
6.12573e-12
6.25781e-12
6.36809e-12
6.45723e-12
6.52611e-12
6.57583e-12
6.60762e-12
6.62281e-12
4.94437e-12
5.20176e-12
5.56794e-12
6.02744e-12
6.56647e-12
7.1717e-12
7.82987e-12
8.52772e-12
9.25205e-12
9.98995e-12
1.07291e-11
1.1458e-11
1.21663e-11
1.28447e-11
1.34854e-11
1.40822e-11
1.463e-11
1.51254e-11
1.55662e-11
1.59513e-11
1.62808e-11
1.65558e-11
1.67778e-11
1.69492e-11
1.70728e-11
1.71518e-11
1.71896e-11
1.30531e-11
1.36837e-11
1.45778e-11
1.56954e-11
1.70003e-11
1.84583e-11
2.00358e-11
2.17001e-11
2.34192e-11
2.51627e-11
2.69018e-11
2.86102e-11
3.02646e-11
3.18445e-11
3.33329e-11
3.47162e-11
3.59839e-11
3.71288e-11
3.81464e-11
3.9035e-11
3.97952e-11
4.04294e-11
4.09417e-11
4.13375e-11
4.16232e-11
4.1806e-11
4.18935e-11
3.30901e-11
3.44849e-11
3.64489e-11
3.88808e-11
4.16891e-11
4.47871e-11
4.80926e-11
5.1527e-11
5.5017e-11
5.84953e-11
6.19016e-11
6.51838e-11
6.82982e-11
7.12104e-11
7.38946e-11
7.63339e-11
7.85187e-11
8.04466e-11
8.21211e-11
8.35502e-11
8.47456e-11
8.57215e-11
8.64939e-11
8.70793e-11
8.74946e-11
8.77562e-11
8.78796e-11
8.01757e-11
8.27939e-11
8.64063e-11
9.0753e-11
9.55877e-11
1.00675e-10
1.0579e-10
1.10728e-10
1.15306e-10
1.19367e-10
1.22791e-10
1.25492e-10
1.27425e-10
1.28587e-10
1.2901e-10
1.28763e-10
1.27936e-10
1.26642e-10
1.25004e-10
1.23148e-10
1.21201e-10
1.19279e-10
1.17488e-10
1.15921e-10
1.14659e-10
1.13768e-10
1.13301e-10
1.75837e-10
1.78881e-10
1.82714e-10
1.86699e-10
1.90219e-10
1.92716e-10
1.93732e-10
1.92961e-10
1.90287e-10
1.85791e-10
1.79736e-10
1.72511e-10
1.64568e-10
1.56348e-10
1.48232e-10
1.40509e-10
1.33375e-10
1.26937e-10
1.21241e-10
1.16289e-10
1.12059e-10
1.08516e-10
1.05625e-10
1.03353e-10
1.01673e-10
1.00565e-10
1.00015e-10
2.57801e-10
2.54147e-10
2.48531e-10
2.41011e-10
2.31859e-10
2.21575e-10
2.10793e-10
2.00143e-10
1.90123e-10
1.8104e-10
1.73001e-10
1.6596e-10
1.59778e-10
1.54281e-10
1.49302e-10
1.44709e-10
1.40413e-10
1.36372e-10
1.32579e-10
1.29054e-10
1.25835e-10
1.22963e-10
1.20485e-10
1.18443e-10
1.16871e-10
1.15802e-10
1.15259e-10
2.30666e-10
2.28728e-10
2.26075e-10
2.22851e-10
2.19098e-10
2.14752e-10
2.09692e-10
2.03805e-10
1.97053e-10
1.8951e-10
1.81356e-10
1.72837e-10
1.64213e-10
1.55722e-10
1.47555e-10
1.39853e-10
1.32713e-10
1.26193e-10
1.20328e-10
1.15136e-10
1.1062e-10
1.0678e-10
1.03608e-10
1.01097e-10
9.92324e-11
9.8003e-11
9.73952e-11
2.26936e-10
2.24443e-10
2.20658e-10
2.15611e-10
2.09415e-10
2.02267e-10
1.94421e-10
1.86148e-10
1.77705e-10
1.69313e-10
1.61155e-10
1.53365e-10
1.46016e-10
1.39159e-10
1.32824e-10
1.27023e-10
1.2176e-10
1.1703e-10
1.12824e-10
1.09131e-10
1.0594e-10
1.03239e-10
1.01016e-10
9.9259e-11
9.7958e-11
9.71019e-11
9.66794e-11
1.7805e-10
1.77139e-10
1.75758e-10
1.73927e-10
1.71699e-10
1.6916e-10
1.66413e-10
1.63569e-10
1.60731e-10
1.57987e-10
1.55408e-10
1.53045e-10
1.50931e-10
1.49082e-10
1.47501e-10
1.46182e-10
1.45108e-10
1.44259e-10
1.43609e-10
1.43129e-10
1.42792e-10
1.42569e-10
1.42434e-10
1.42362e-10
1.42332e-10
1.42325e-10
1.42328e-10
1.46978e-10
1.48637e-10
1.50937e-10
1.53764e-10
1.57055e-10
1.60792e-10
1.64985e-10
1.69666e-10
1.74869e-10
1.80619e-10
1.87031e-10
1.94081e-10
2.01724e-10
2.0989e-10
2.18481e-10
2.27373e-10
2.36422e-10
2.45463e-10
2.54324e-10
2.62823e-10
2.70781e-10
2.78023e-10
2.84371e-10
2.89683e-10
2.93837e-10
2.96706e-10
2.98181e-10
1.49581e-10
1.54153e-10
1.60742e-10
1.69192e-10
1.7943e-10
1.91433e-10
2.05209e-10
2.20776e-10
2.3814e-10
2.57281e-10
2.78144e-10
3.00618e-10
3.24549e-10
3.4973e-10
3.7581e-10
4.02367e-10
4.28957e-10
4.55119e-10
4.80387e-10
5.04298e-10
5.26406e-10
5.46287e-10
5.63556e-10
5.77864e-10
5.88914e-10
5.96461e-10
6.00311e-10
2.05916e-10
2.1425e-10
2.26326e-10
2.41891e-10
2.60817e-10
2.83051e-10
3.08387e-10
3.36606e-10
3.67468e-10
4.00686e-10
4.35916e-10
4.7276e-10
5.10765e-10
5.49439e-10
5.88257e-10
6.2668e-10
6.64163e-10
7.00174e-10
7.34198e-10
7.65754e-10
7.94397e-10
8.1973e-10
8.41398e-10
8.59114e-10
8.72634e-10
8.81769e-10
8.86381e-10
3.27505e-10
3.38812e-10
3.54943e-10
3.75278e-10
3.99292e-10
4.265e-10
4.56426e-10
4.88596e-10
5.22532e-10
5.57757e-10
5.93797e-10
6.30186e-10
6.66472e-10
7.02225e-10
7.3704e-10
7.70539e-10
8.02374e-10
8.3223e-10
8.59824e-10
8.84902e-10
9.07241e-10
9.26663e-10
9.43011e-10
9.56155e-10
9.66e-10
9.72483e-10
9.75686e-10
4.65247e-10
4.75056e-10
4.88775e-10
5.05625e-10
5.24919e-10
5.46036e-10
5.68417e-10
5.91562e-10
6.15029e-10
6.38434e-10
6.61445e-10
6.83777e-10
7.05189e-10
7.25471e-10
7.44443e-10
7.6195e-10
7.77845e-10
7.92105e-10
8.04819e-10
8.1607e-10
8.25889e-10
8.34294e-10
8.4129e-10
8.46881e-10
8.51067e-10
8.5385e-10
8.55236e-10
5.39598e-10
5.44383e-10
5.50898e-10
5.58617e-10
5.67072e-10
5.75856e-10
5.84619e-10
5.93066e-10
6.00954e-10
6.08087e-10
6.14406e-10
6.20068e-10
6.25173e-10
6.29785e-10
6.33963e-10
6.37753e-10
6.41193e-10
6.4431e-10
6.47127e-10
6.49654e-10
6.51902e-10
6.53866e-10
6.5554e-10
6.56908e-10
6.57958e-10
6.58673e-10
6.59038e-10
5.1614e-10
5.1557e-10
5.14679e-10
5.13442e-10
5.11846e-10
5.09892e-10
5.07608e-10
5.05036e-10
5.02238e-10
4.99284e-10
4.96254e-10
4.93227e-10
4.90274e-10
4.87457e-10
4.84823e-10
4.82408e-10
4.80237e-10
4.78323e-10
4.7667e-10
4.75273e-10
4.74124e-10
4.73204e-10
4.72496e-10
4.71978e-10
4.71628e-10
4.71419e-10
4.71326e-10
4.22201e-10
4.19422e-10
4.15544e-10
4.10799e-10
4.05392e-10
3.99514e-10
3.93338e-10
3.87016e-10
3.80683e-10
3.74457e-10
3.68432e-10
3.62686e-10
3.57279e-10
3.52253e-10
3.47639e-10
3.43452e-10
3.39701e-10
3.36381e-10
3.33486e-10
3.31e-10
3.28906e-10
3.27184e-10
3.25809e-10
3.24759e-10
3.24008e-10
3.23531e-10
3.23305e-10
3.14763e-10
3.11709e-10
3.07495e-10
3.02409e-10
2.96704e-10
2.90604e-10
2.84298e-10
2.77946e-10
2.71678e-10
2.65598e-10
2.59785e-10
2.54299e-10
2.49181e-10
2.44457e-10
2.40143e-10
2.36244e-10
2.32757e-10
2.29673e-10
2.26982e-10
2.24667e-10
2.22711e-10
2.21095e-10
2.19799e-10
2.18802e-10
2.18085e-10
2.17627e-10
2.17407e-10
2.21912e-10
2.1941e-10
2.15974e-10
2.11848e-10
2.0725e-10
2.02363e-10
1.97344e-10
1.9232e-10
1.87391e-10
1.82635e-10
1.7811e-10
1.73856e-10
1.69902e-10
1.66263e-10
1.62946e-10
1.59952e-10
1.57277e-10
1.54914e-10
1.5285e-10
1.51074e-10
1.49572e-10
1.48329e-10
1.4733e-10
1.4656e-10
1.46004e-10
1.45647e-10
1.45476e-10
1.52e-10
1.50201e-10
1.47734e-10
1.44778e-10
1.41491e-10
1.38006e-10
1.34435e-10
1.30869e-10
1.27377e-10
1.24014e-10
1.20819e-10
1.1782e-10
1.15035e-10
1.12473e-10
1.1014e-10
1.08034e-10
1.06152e-10
1.04489e-10
1.03037e-10
1.01786e-10
1.00727e-10
9.98499e-11
9.91439e-11
9.85991e-11
9.82053e-11
9.79525e-11
9.78309e-11
1.03153e-10
1.01936e-10
1.00269e-10
9.82721e-11
9.60524e-11
9.37002e-11
9.12908e-11
8.88848e-11
8.65297e-11
8.42616e-11
8.21069e-11
8.00838e-11
7.82044e-11
7.64754e-11
7.48997e-11
7.34772e-11
7.22056e-11
7.10809e-11
7.00981e-11
6.92513e-11
6.85338e-11
6.79389e-11
6.74598e-11
6.70899e-11
6.68223e-11
6.66504e-11
6.65677e-11
7.0287e-11
6.94852e-11
6.83853e-11
6.70679e-11
6.56025e-11
6.40488e-11
6.24563e-11
6.0865e-11
5.93062e-11
5.78038e-11
5.63753e-11
5.50331e-11
5.37851e-11
5.26361e-11
5.15882e-11
5.06414e-11
4.97945e-11
4.90449e-11
4.83893e-11
4.78242e-11
4.73452e-11
4.69479e-11
4.66278e-11
4.63805e-11
4.62015e-11
4.60864e-11
4.6031e-11
4.8494e-11
4.79673e-11
4.72445e-11
4.63781e-11
4.54135e-11
4.43898e-11
4.33394e-11
4.22887e-11
4.12583e-11
4.02641e-11
3.93179e-11
3.84278e-11
3.75995e-11
3.68361e-11
3.61393e-11
3.55092e-11
3.49451e-11
3.44455e-11
3.40084e-11
3.36312e-11
3.33115e-11
3.30462e-11
3.28325e-11
3.26673e-11
3.25477e-11
3.24708e-11
3.24337e-11
3.40447e-11
3.3696e-11
3.32171e-11
3.26426e-11
3.20024e-11
3.13222e-11
3.06235e-11
2.99238e-11
2.92368e-11
2.85733e-11
2.7941e-11
2.73457e-11
2.67911e-11
2.62795e-11
2.58122e-11
2.53893e-11
2.50105e-11
2.46747e-11
2.43808e-11
2.41271e-11
2.39119e-11
2.37333e-11
2.35895e-11
2.34783e-11
2.33978e-11
2.3346e-11
2.33211e-11
2.4383e-11
2.41488e-11
2.3827e-11
2.34406e-11
2.30097e-11
2.25514e-11
2.20801e-11
2.16076e-11
2.11432e-11
2.06942e-11
2.0266e-11
1.98624e-11
1.94861e-11
1.91387e-11
1.88211e-11
1.85335e-11
1.82757e-11
1.80472e-11
1.7847e-11
1.76741e-11
1.75274e-11
1.74056e-11
1.73075e-11
1.72317e-11
1.71769e-11
1.71416e-11
1.71246e-11
1.78373e-11
1.76774e-11
1.74574e-11
1.71932e-11
1.68983e-11
1.65843e-11
1.62612e-11
1.5937e-11
1.5618e-11
1.53093e-11
1.50146e-11
1.47366e-11
1.44773e-11
1.42377e-11
1.40186e-11
1.382e-11
1.3642e-11
1.3484e-11
1.33456e-11
1.32261e-11
1.31246e-11
1.30404e-11
1.29725e-11
1.292e-11
1.2882e-11
1.28576e-11
1.28459e-11
1.33346e-11
1.32235e-11
1.30706e-11
1.28867e-11
1.26814e-11
1.24626e-11
1.22373e-11
1.2011e-11
1.17883e-11
1.15725e-11
1.13664e-11
1.11718e-11
1.09902e-11
1.08223e-11
1.06686e-11
1.05293e-11
1.04044e-11
1.02935e-11
1.01963e-11
1.01124e-11
1.00411e-11
9.98189e-12
9.93416e-12
9.89726e-12
9.87055e-12
9.85339e-12
9.84513e-12
1.01881e-11
1.01095e-11
1.00014e-11
9.87134e-12
9.72597e-12
9.57102e-12
9.4113e-12
9.25078e-12
9.09265e-12
8.93938e-12
8.79287e-12
8.65451e-12
8.52526e-12
8.40573e-12
8.29628e-12
8.19705e-12
8.10798e-12
8.02893e-12
7.95963e-12
7.89974e-12
7.84889e-12
7.80666e-12
7.7726e-12
7.74628e-12
7.72721e-12
7.71496e-12
7.70906e-12
7.95506e-12
7.89863e-12
7.82095e-12
7.72746e-12
7.62292e-12
7.51142e-12
7.39642e-12
7.28077e-12
7.16677e-12
7.05622e-12
6.95048e-12
6.85057e-12
6.75718e-12
6.67079e-12
6.59165e-12
6.51987e-12
6.45543e-12
6.39822e-12
6.34805e-12
6.30469e-12
6.26787e-12
6.23729e-12
6.21263e-12
6.19357e-12
6.17976e-12
6.17089e-12
6.16662e-12
6.34684e-12
6.30571e-12
6.24907e-12
6.18087e-12
6.10457e-12
6.02316e-12
5.93914e-12
5.8546e-12
5.77121e-12
5.6903e-12
5.61288e-12
5.53968e-12
5.47124e-12
5.40789e-12
5.34984e-12
5.29717e-12
5.24987e-12
5.20786e-12
5.17102e-12
5.13918e-12
5.11213e-12
5.08967e-12
5.07155e-12
5.05754e-12
5.0474e-12
5.04088e-12
5.03774e-12
5.17251e-12
5.14211e-12
5.10024e-12
5.0498e-12
4.99335e-12
4.93308e-12
4.87084e-12
4.80819e-12
4.74637e-12
4.68634e-12
4.62887e-12
4.57451e-12
4.52366e-12
4.47658e-12
4.43341e-12
4.39423e-12
4.35903e-12
4.32777e-12
4.30034e-12
4.27663e-12
4.25649e-12
4.23975e-12
4.22626e-12
4.21582e-12
4.20826e-12
4.20341e-12
4.20107e-12
4.30384e-12
4.28108e-12
4.24972e-12
4.21193e-12
4.16962e-12
4.12442e-12
4.07773e-12
4.0307e-12
3.98426e-12
3.93915e-12
3.89594e-12
3.85505e-12
3.81678e-12
3.78132e-12
3.74881e-12
3.71928e-12
3.69275e-12
3.66917e-12
3.64848e-12
3.63059e-12
3.61539e-12
3.60276e-12
3.59257e-12
3.58469e-12
3.57899e-12
3.57532e-12
3.57355e-12
3.6534e-12
3.63615e-12
3.61237e-12
3.58371e-12
3.55161e-12
3.5173e-12
3.48183e-12
3.44609e-12
3.41078e-12
3.37647e-12
3.34357e-12
3.31243e-12
3.28327e-12
3.25624e-12
3.23143e-12
3.2089e-12
3.18865e-12
3.17065e-12
3.15484e-12
3.14117e-12
3.12955e-12
3.1199e-12
3.11211e-12
3.10608e-12
3.10171e-12
3.09891e-12
3.09756e-12
3.16071e-12
3.14749e-12
3.12925e-12
3.10725e-12
3.08261e-12
3.05625e-12
3.029e-12
3.00151e-12
2.97434e-12
2.94792e-12
2.92259e-12
2.89858e-12
2.87609e-12
2.85524e-12
2.83609e-12
2.81869e-12
2.80304e-12
2.78913e-12
2.77691e-12
2.76633e-12
2.75734e-12
2.74986e-12
2.74383e-12
2.73916e-12
2.73578e-12
2.73361e-12
2.73256e-12
2.78338e-12
2.77312e-12
2.75897e-12
2.7419e-12
2.72276e-12
2.70229e-12
2.6811e-12
2.65972e-12
2.63858e-12
2.618e-12
2.59826e-12
2.57954e-12
2.562e-12
2.54572e-12
2.53076e-12
2.51716e-12
2.50493e-12
2.49404e-12
2.48448e-12
2.4762e-12
2.46915e-12
2.4633e-12
2.45857e-12
2.45491e-12
2.45226e-12
2.45055e-12
2.44973e-12
2.49131e-12
2.48327e-12
2.47217e-12
2.45877e-12
2.44374e-12
2.42765e-12
2.411e-12
2.39418e-12
2.37754e-12
2.36133e-12
2.34577e-12
2.33101e-12
2.31716e-12
2.30431e-12
2.29249e-12
2.28174e-12
2.27206e-12
2.26344e-12
2.25587e-12
2.24931e-12
2.24373e-12
2.23908e-12
2.23533e-12
2.23243e-12
2.23032e-12
2.22897e-12
2.22831e-12
2.26289e-12
2.25651e-12
2.24771e-12
2.23708e-12
2.22514e-12
2.21236e-12
2.19913e-12
2.18575e-12
2.17251e-12
2.1596e-12
2.1472e-12
2.13542e-12
2.12437e-12
2.1141e-12
2.10466e-12
2.09606e-12
2.08832e-12
2.08142e-12
2.07535e-12
2.07009e-12
2.06561e-12
2.06189e-12
2.05887e-12
2.05654e-12
2.05485e-12
2.05376e-12
2.05324e-12
2.08243e-12
2.07732e-12
2.07026e-12
2.06173e-12
2.05216e-12
2.04189e-12
2.03126e-12
2.0205e-12
2.00984e-12
1.99945e-12
1.98945e-12
1.97996e-12
1.97104e-12
1.96274e-12
1.95511e-12
1.94816e-12
1.94189e-12
1.9363e-12
1.93138e-12
1.92712e-12
1.92348e-12
1.92046e-12
1.91801e-12
1.91612e-12
1.91474e-12
1.91386e-12
1.91343e-12
1.93845e-12
1.9343e-12
1.92858e-12
1.92167e-12
1.9139e-12
1.90557e-12
1.89693e-12
1.88819e-12
1.87951e-12
1.87105e-12
1.86291e-12
1.85516e-12
1.84788e-12
1.84111e-12
1.83487e-12
1.82918e-12
1.82405e-12
1.81947e-12
1.81544e-12
1.81194e-12
1.80896e-12
1.80648e-12
1.80447e-12
1.80291e-12
1.80178e-12
1.80105e-12
1.8007e-12
1.82244e-12
1.81905e-12
1.81436e-12
1.80869e-12
1.80232e-12
1.79549e-12
1.78839e-12
1.78121e-12
1.77407e-12
1.76711e-12
1.7604e-12
1.75402e-12
1.74801e-12
1.74242e-12
1.73726e-12
1.73256e-12
1.72831e-12
1.72451e-12
1.72117e-12
1.71827e-12
1.7158e-12
1.71373e-12
1.71206e-12
1.71076e-12
1.70982e-12
1.70922e-12
1.70892e-12
1.72807e-12
1.72526e-12
1.72138e-12
1.71669e-12
1.71141e-12
1.70574e-12
1.69985e-12
1.69388e-12
1.68795e-12
1.68216e-12
1.67657e-12
1.67125e-12
1.66624e-12
1.66157e-12
1.65726e-12
1.65333e-12
1.64977e-12
1.6466e-12
1.64379e-12
1.64136e-12
1.63928e-12
1.63755e-12
1.63614e-12
1.63505e-12
1.63426e-12
1.63375e-12
1.6335e-12
1.65056e-12
1.64822e-12
1.64497e-12
1.64104e-12
1.63662e-12
1.63187e-12
1.62693e-12
1.62192e-12
1.61694e-12
1.61207e-12
1.60737e-12
1.60289e-12
1.59866e-12
1.59472e-12
1.59108e-12
1.58776e-12
1.58475e-12
1.58206e-12
1.57968e-12
1.57762e-12
1.57585e-12
1.57438e-12
1.57319e-12
1.57226e-12
1.57159e-12
1.57115e-12
1.57094e-12
1.58632e-12
1.58434e-12
1.58159e-12
1.57827e-12
1.57453e-12
1.57051e-12
1.56632e-12
1.56207e-12
1.55784e-12
1.5537e-12
1.54971e-12
1.54589e-12
1.54229e-12
1.53893e-12
1.53582e-12
1.53298e-12
1.53041e-12
1.52811e-12
1.52607e-12
1.5243e-12
1.52279e-12
1.52153e-12
1.5205e-12
1.5197e-12
1.51912e-12
1.51875e-12
1.51857e-12
1.53258e-12
1.53088e-12
1.52854e-12
1.5257e-12
1.5225e-12
1.51906e-12
1.51548e-12
1.51184e-12
1.50821e-12
1.50466e-12
1.50122e-12
1.49794e-12
1.49484e-12
1.49194e-12
1.48927e-12
1.48681e-12
1.48459e-12
1.4826e-12
1.48084e-12
1.4793e-12
1.47799e-12
1.4769e-12
1.476e-12
1.47531e-12
1.47481e-12
1.47448e-12
1.47432e-12
1.4872e-12
1.48574e-12
1.48372e-12
1.48127e-12
1.47851e-12
1.47554e-12
1.47244e-12
1.46929e-12
1.46614e-12
1.46306e-12
1.46008e-12
1.45723e-12
1.45453e-12
1.45201e-12
1.44968e-12
1.44754e-12
1.4456e-12
1.44386e-12
1.44232e-12
1.44098e-12
1.43983e-12
1.43887e-12
1.43809e-12
1.43748e-12
1.43704e-12
1.43675e-12
1.43661e-12
1.44855e-12
1.44728e-12
1.44552e-12
1.44339e-12
1.44098e-12
1.43838e-12
1.43567e-12
1.43292e-12
1.43017e-12
1.42747e-12
1.42486e-12
1.42236e-12
1.41999e-12
1.41777e-12
1.41572e-12
1.41383e-12
1.41212e-12
1.41059e-12
1.40923e-12
1.40804e-12
1.40703e-12
1.40618e-12
1.40548e-12
1.40495e-12
1.40455e-12
1.4043e-12
1.40418e-12
1.41533e-12
1.41421e-12
1.41267e-12
1.41079e-12
1.40867e-12
1.40638e-12
1.40399e-12
1.40156e-12
1.39913e-12
1.39674e-12
1.39443e-12
1.39221e-12
1.39012e-12
1.38815e-12
1.38632e-12
1.38465e-12
1.38313e-12
1.38176e-12
1.38055e-12
1.37949e-12
1.37858e-12
1.37782e-12
1.3772e-12
1.37672e-12
1.37637e-12
1.37614e-12
1.37603e-12
1.38652e-12
1.38553e-12
1.38415e-12
1.38249e-12
1.3806e-12
1.37857e-12
1.37644e-12
1.37427e-12
1.37211e-12
1.36998e-12
1.36791e-12
1.36593e-12
1.36405e-12
1.36229e-12
1.36065e-12
1.35914e-12
1.35778e-12
1.35655e-12
1.35546e-12
1.3545e-12
1.35368e-12
1.353e-12
1.35244e-12
1.352e-12
1.35169e-12
1.35148e-12
1.35138e-12
1.36131e-12
1.36042e-12
1.35919e-12
1.35769e-12
1.356e-12
1.35417e-12
1.35226e-12
1.35031e-12
1.34836e-12
1.34644e-12
1.34458e-12
1.34279e-12
1.34109e-12
1.3395e-12
1.33802e-12
1.33665e-12
1.33541e-12
1.3343e-12
1.3333e-12
1.33244e-12
1.33169e-12
1.33107e-12
1.33056e-12
1.33016e-12
1.32987e-12
1.32968e-12
1.32959e-12
1.33904e-12
1.33824e-12
1.33713e-12
1.33577e-12
1.33424e-12
1.33258e-12
1.33085e-12
1.32908e-12
1.32731e-12
1.32556e-12
1.32386e-12
1.32223e-12
1.32068e-12
1.31923e-12
1.31787e-12
1.31663e-12
1.31549e-12
1.31447e-12
1.31356e-12
1.31276e-12
1.31208e-12
1.31151e-12
1.31104e-12
1.31067e-12
1.3104e-12
1.31023e-12
1.31015e-12
1.31919e-12
1.31845e-12
1.31744e-12
1.3162e-12
1.3148e-12
1.31328e-12
1.31169e-12
1.31007e-12
1.30844e-12
1.30684e-12
1.30528e-12
1.30378e-12
1.30235e-12
1.30101e-12
1.29976e-12
1.29861e-12
1.29756e-12
1.29662e-12
1.29578e-12
1.29504e-12
1.29441e-12
1.29387e-12
1.29344e-12
1.2931e-12
1.29285e-12
1.29269e-12
1.29261e-12
1.3013e-12
1.30063e-12
1.29969e-12
1.29855e-12
1.29725e-12
1.29585e-12
1.29438e-12
1.29288e-12
1.29137e-12
1.28989e-12
1.28844e-12
1.28705e-12
1.28572e-12
1.28447e-12
1.28331e-12
1.28224e-12
1.28126e-12
1.28037e-12
1.27959e-12
1.2789e-12
1.27831e-12
1.27781e-12
1.2774e-12
1.27709e-12
1.27685e-12
1.2767e-12
1.27663e-12
1.28502e-12
1.28439e-12
1.28351e-12
1.28245e-12
1.28124e-12
1.27993e-12
1.27856e-12
1.27716e-12
1.27575e-12
1.27436e-12
1.273e-12
1.27169e-12
1.27045e-12
1.26928e-12
1.26818e-12
1.26717e-12
1.26625e-12
1.26542e-12
1.26468e-12
1.26403e-12
1.26347e-12
1.263e-12
1.26262e-12
1.26232e-12
1.2621e-12
1.26195e-12
1.26188e-12
1.27002e-12
1.26942e-12
1.2686e-12
1.2676e-12
1.26646e-12
1.26523e-12
1.26393e-12
1.26261e-12
1.26128e-12
1.25996e-12
1.25867e-12
1.25743e-12
1.25625e-12
1.25514e-12
1.2541e-12
1.25314e-12
1.25226e-12
1.25147e-12
1.25077e-12
1.25015e-12
1.24962e-12
1.24917e-12
1.2488e-12
1.24852e-12
1.24831e-12
1.24817e-12
1.2481e-12
1.25602e-12
1.25546e-12
1.25467e-12
1.25372e-12
1.25264e-12
1.25146e-12
1.25022e-12
1.24896e-12
1.24768e-12
1.24642e-12
1.24519e-12
1.24401e-12
1.24288e-12
1.24181e-12
1.24081e-12
1.23989e-12
1.23905e-12
1.23829e-12
1.23761e-12
1.23701e-12
1.2365e-12
1.23607e-12
1.23572e-12
1.23544e-12
1.23524e-12
1.23511e-12
1.23504e-12
1.24278e-12
1.24224e-12
1.24148e-12
1.24057e-12
1.23952e-12
1.23839e-12
1.23719e-12
1.23597e-12
1.23474e-12
1.23352e-12
1.23233e-12
1.23118e-12
1.23008e-12
1.22905e-12
1.22808e-12
1.22719e-12
1.22637e-12
1.22563e-12
1.22497e-12
1.22439e-12
1.22389e-12
1.22347e-12
1.22313e-12
1.22286e-12
1.22267e-12
1.22254e-12
1.22248e-12
1.23007e-12
1.22954e-12
1.22881e-12
1.22791e-12
1.22689e-12
1.22578e-12
1.22462e-12
1.22342e-12
1.22222e-12
1.22103e-12
1.21986e-12
1.21873e-12
1.21766e-12
1.21664e-12
1.21569e-12
1.21481e-12
1.21401e-12
1.21329e-12
1.21264e-12
1.21207e-12
1.21158e-12
1.21117e-12
1.21083e-12
1.21057e-12
1.21038e-12
1.21025e-12
1.21019e-12
1.21766e-12
1.21714e-12
1.21642e-12
1.21553e-12
1.21453e-12
1.21343e-12
1.21228e-12
1.2111e-12
1.20991e-12
1.20872e-12
1.20757e-12
1.20645e-12
1.20538e-12
1.20438e-12
1.20343e-12
1.20256e-12
1.20177e-12
1.20105e-12
1.2004e-12
1.19984e-12
1.19936e-12
1.19895e-12
1.19861e-12
1.19835e-12
1.19816e-12
1.19804e-12
1.19798e-12
1.20536e-12
1.20484e-12
1.20411e-12
1.20322e-12
1.20222e-12
1.20112e-12
1.19997e-12
1.19878e-12
1.19759e-12
1.1964e-12
1.19524e-12
1.19412e-12
1.19305e-12
1.19204e-12
1.19109e-12
1.19022e-12
1.18942e-12
1.1887e-12
1.18806e-12
1.18749e-12
1.18701e-12
1.1866e-12
1.18626e-12
1.186e-12
1.18581e-12
1.18569e-12
1.18563e-12
1.19293e-12
1.19241e-12
1.19167e-12
1.19077e-12
1.18975e-12
1.18864e-12
1.18747e-12
1.18627e-12
1.18506e-12
1.18385e-12
1.18267e-12
1.18154e-12
1.18045e-12
1.17942e-12
1.17846e-12
1.17758e-12
1.17677e-12
1.17604e-12
1.17539e-12
1.17482e-12
1.17433e-12
1.17392e-12
1.17358e-12
1.17332e-12
1.17313e-12
1.173e-12
1.17294e-12
1.18018e-12
1.17964e-12
1.17888e-12
1.17796e-12
1.17691e-12
1.17577e-12
1.17457e-12
1.17334e-12
1.17209e-12
1.17085e-12
1.16964e-12
1.16848e-12
1.16736e-12
1.16631e-12
1.16533e-12
1.16442e-12
1.16359e-12
1.16285e-12
1.16218e-12
1.1616e-12
1.1611e-12
1.16069e-12
1.16035e-12
1.16008e-12
1.15989e-12
1.15977e-12
1.15971e-12
1.16687e-12
1.16631e-12
1.16552e-12
1.16457e-12
1.16348e-12
1.16229e-12
1.16105e-12
1.15976e-12
1.15847e-12
1.15718e-12
1.15593e-12
1.15472e-12
1.15356e-12
1.15248e-12
1.15146e-12
1.15053e-12
1.14967e-12
1.14891e-12
1.14823e-12
1.14764e-12
1.14713e-12
1.1467e-12
1.14636e-12
1.14609e-12
1.1459e-12
1.14577e-12
1.14571e-12
1.15278e-12
1.15219e-12
1.15137e-12
1.15036e-12
1.14922e-12
1.14798e-12
1.14667e-12
1.14532e-12
1.14397e-12
1.14262e-12
1.14131e-12
1.14005e-12
1.13884e-12
1.13771e-12
1.13666e-12
1.13569e-12
1.13481e-12
1.13402e-12
1.13332e-12
1.13271e-12
1.1322e-12
1.13177e-12
1.13142e-12
1.13115e-12
1.13095e-12
1.13083e-12
1.13077e-12
1.13768e-12
1.13706e-12
1.13619e-12
1.13513e-12
1.13392e-12
1.13261e-12
1.13123e-12
1.12981e-12
1.12838e-12
1.12697e-12
1.1256e-12
1.12427e-12
1.12302e-12
1.12183e-12
1.12074e-12
1.11973e-12
1.11882e-12
1.11801e-12
1.1173e-12
1.11668e-12
1.11615e-12
1.11571e-12
1.11536e-12
1.11509e-12
1.1149e-12
1.11478e-12
1.11472e-12
1.1214e-12
1.12074e-12
1.11982e-12
1.1187e-12
1.11742e-12
1.11604e-12
1.11458e-12
1.11308e-12
1.11157e-12
1.11008e-12
1.10863e-12
1.10722e-12
1.10588e-12
1.10461e-12
1.10341e-12
1.10228e-12
1.10124e-12
1.1003e-12
1.09946e-12
1.09872e-12
1.0981e-12
1.09757e-12
1.09715e-12
1.09682e-12
1.09658e-12
1.09643e-12
1.09636e-12
1.1038e-12
1.10308e-12
1.10206e-12
1.10079e-12
1.09931e-12
1.09769e-12
1.09597e-12
1.0942e-12
1.09241e-12
1.09063e-12
1.08889e-12
1.0872e-12
1.08558e-12
1.08404e-12
1.08261e-12
1.08128e-12
1.08008e-12
1.07901e-12
1.07806e-12
1.07723e-12
1.07653e-12
1.07595e-12
1.07548e-12
1.07512e-12
1.07487e-12
1.0747e-12
1.07462e-12
1.08263e-12
1.08175e-12
1.08052e-12
1.07902e-12
1.07732e-12
1.07547e-12
1.07353e-12
1.07154e-12
1.06955e-12
1.06759e-12
1.06569e-12
1.06387e-12
1.06215e-12
1.06055e-12
1.05908e-12
1.05775e-12
1.05655e-12
1.05549e-12
1.05457e-12
1.05378e-12
1.05311e-12
1.05257e-12
1.05214e-12
1.05182e-12
1.05159e-12
1.05145e-12
1.05138e-12
1.05828e-12
1.05736e-12
1.05608e-12
1.05453e-12
1.05278e-12
1.05089e-12
1.04892e-12
1.04692e-12
1.04493e-12
1.04299e-12
1.04113e-12
1.03936e-12
1.03772e-12
1.03621e-12
1.03484e-12
1.03361e-12
1.03253e-12
1.0316e-12
1.0308e-12
1.03013e-12
1.02959e-12
1.02915e-12
1.02882e-12
1.02858e-12
1.02841e-12
1.02831e-12
1.02827e-12
1.03289e-12
1.032e-12
1.03076e-12
1.02926e-12
1.02758e-12
1.02578e-12
1.02392e-12
1.02205e-12
1.02022e-12
1.01846e-12
1.01679e-12
1.01525e-12
1.01384e-12
1.01258e-12
1.01147e-12
1.0105e-12
1.00969e-12
1.00901e-12
1.00847e-12
1.00804e-12
1.00772e-12
1.00748e-12
1.00733e-12
1.00723e-12
1.00717e-12
1.00715e-12
1.00714e-12
1.00802e-12
1.00723e-12
1.00614e-12
1.00483e-12
1.00338e-12
1.00186e-12
1.00031e-12
9.98802e-13
9.97359e-13
9.96019e-13
9.94805e-13
9.93734e-13
9.92817e-13
9.92057e-13
9.91453e-13
9.90998e-13
9.90681e-13
9.90488e-13
9.90403e-13
9.90406e-13
9.90477e-13
9.90596e-13
9.90741e-13
9.90891e-13
9.91026e-13
9.91128e-13
9.91187e-13
9.85989e-13
9.85421e-13
9.84658e-13
9.83772e-13
9.82828e-13
9.81885e-13
9.80993e-13
9.80195e-13
9.79523e-13
9.79001e-13
9.78645e-13
9.78464e-13
9.78456e-13
9.78616e-13
9.7893e-13
9.79383e-13
9.79951e-13
9.80609e-13
9.8133e-13
9.82084e-13
9.82839e-13
9.83566e-13
9.84235e-13
9.84815e-13
9.85279e-13
9.85603e-13
9.85776e-13
9.70536e-13
9.70395e-13
9.70244e-13
9.70133e-13
9.70112e-13
9.70225e-13
9.70508e-13
9.70989e-13
9.71688e-13
9.72615e-13
9.73769e-13
9.75143e-13
9.7672e-13
9.78477e-13