/*--------------------------------*- C++ -*----------------------------------*\
| =========                 |                                                 |
| \\      /  F ield         | OpenFOAM: The Open Source CFD Toolbox           |
|  \\    /   O peration     | Version:  2106                                  |
|   \\  /    A nd           | Website:  www.openfoam.com                      |
|    \\/     M anipulation  |                                                 |
\*---------------------------------------------------------------------------*/
FoamFile
{
    version     2.0;
    format      ascii;
    arch        "LSB;label=32;scalar=64";
    class       volScalarField;
    location    "160.00011";
    object      H_0;
}
// * * * * * * * * * * * * * * * * * * * * * * * * * * * * * * * * * * * * * //

dimensions      [0 0 0 0 0 0 0];

internalField   nonuniform List<scalar> 
3360
(
3.78981e-26
3.91178e-26
4.08152e-26
4.28915e-26
4.526e-26
4.78433e-26
5.05709e-26
5.33796e-26
5.62131e-26
5.90214e-26
6.17615e-26
6.43966e-26
6.68966e-26
6.92372e-26
7.14003e-26
7.33729e-26
7.51473e-26
7.67199e-26
7.80915e-26
7.92661e-26
8.02508e-26
8.1055e-26
8.16902e-26
8.21694e-26
8.25065e-26
8.27163e-26
8.28136e-26
1.66275e-25
1.72388e-25
1.81014e-25
1.91756e-25
2.04284e-25
2.18314e-25
2.33586e-25
2.49868e-25
2.66941e-25
2.84598e-25
3.02641e-25
3.20877e-25
3.39118e-25
3.57174e-25
3.74862e-25
3.92e-25
4.08411e-25
4.23921e-25
4.38367e-25
4.51594e-25
4.63458e-25
4.73836e-25
4.82619e-25
4.89723e-25
4.95084e-25
4.98664e-25
5.00449e-25
5.21834e-25
5.44741e-25
5.77291e-25
6.18193e-25
6.66375e-25
7.20874e-25
7.80775e-25
8.45174e-25
9.13159e-25
9.83797e-25
1.05614e-24
1.12923e-24
1.20214e-24
1.27394e-24
1.34374e-24
1.41068e-24
1.47399e-24
1.53295e-24
1.58695e-24
1.63549e-24
1.67818e-24
1.71473e-24
1.74499e-24
1.76891e-24
1.78654e-24
1.79804e-24
1.80363e-24
1.52024e-24
1.59576e-24
1.70381e-24
1.84051e-24
2.00262e-24
2.18714e-24
2.39103e-24
2.61115e-24
2.84422e-24
3.08677e-24
3.33524e-24
3.58599e-24
3.8354e-24
4.07997e-24
4.31636e-24
4.54149e-24
4.75267e-24
4.94757e-24
5.12434e-24
5.28161e-24
5.41843e-24
5.53435e-24
5.62928e-24
5.70352e-24
5.7577e-24
5.79268e-24
5.80956e-24
4.44349e-24
4.68187e-24
5.02353e-24
5.45681e-24
5.9718e-24
6.559e-24
7.20861e-24
7.91028e-24
8.65295e-24
9.42497e-24
1.02143e-23
1.10087e-23
1.17964e-23
1.25659e-23
1.33067e-23
1.40093e-23
1.46657e-23
1.52689e-23
1.5814e-23
1.6297e-23
1.67158e-23
1.70694e-23
1.73581e-23
1.75832e-23
1.77471e-23
1.78527e-23
1.79035e-23
1.31099e-23
1.38425e-23
1.48939e-23
1.62285e-23
1.78157e-23
1.96259e-23
2.16287e-23
2.37915e-23
2.60795e-23
2.8456e-23
3.08833e-23
3.33233e-23
3.57392e-23
3.80955e-23
4.03602e-23
4.25044e-23
4.45036e-23
4.63381e-23
4.79925e-23
4.94562e-23
5.07232e-23
5.17912e-23
5.2662e-23
5.33402e-23
5.38332e-23
5.41504e-23
5.43029e-23
3.89804e-23
4.12098e-23
4.44092e-23
4.84706e-23
5.3301e-23
5.88097e-23
6.49024e-23
7.14789e-23
7.84319e-23
8.5649e-23
9.30146e-23
1.00413e-22
1.07732e-22
1.14865e-22
1.21715e-22
1.28196e-22
1.34235e-22
1.39772e-22
1.44764e-22
1.49179e-22
1.52999e-22
1.56218e-22
1.58843e-22
1.60887e-22
1.62372e-22
1.63328e-22
1.63788e-22
1.16372e-22
1.23099e-22
1.32758e-22
1.45025e-22
1.59623e-22
1.76276e-22
1.94701e-22
2.14592e-22
2.35626e-22
2.57461e-22
2.79745e-22
3.02129e-22
3.24272e-22
3.45851e-22
3.66573e-22
3.86177e-22
4.04443e-22
4.21192e-22
4.3629e-22
4.49642e-22
4.61195e-22
4.70934e-22
4.78873e-22
4.85058e-22
4.89555e-22
4.9245e-22
4.93843e-22
3.4882e-22
3.69138e-22
3.98317e-22
4.35384e-22
4.79501e-22
5.29848e-22
5.85565e-22
6.45736e-22
7.09381e-22
7.75469e-22
8.42941e-22
9.10739e-22
9.77831e-22
1.04324e-21
1.10609e-21
1.16557e-21
1.22103e-21
1.27192e-21
1.31782e-21
1.35845e-21
1.39364e-21
1.42334e-21
1.44758e-21
1.46649e-21
1.48026e-21
1.48914e-21
1.49343e-21
1.04826e-21
1.10969e-21
1.19796e-21
1.31017e-21
1.44383e-21
1.5965e-21
1.7656e-21
1.9484e-21
2.14196e-21
2.34315e-21
2.54879e-21
2.75566e-21
2.96061e-21
3.16067e-21
3.35311e-21
3.5355e-21
3.70577e-21
3.86222e-21
4.00356e-21
4.12887e-21
4.23759e-21
4.32952e-21
4.40472e-21
4.46354e-21
4.50651e-21
4.53433e-21
4.5478e-21
3.16537e-21
3.35234e-21
3.62118e-21
3.96323e-21
4.3711e-21
4.83755e-21
5.35495e-21
5.91512e-21
6.50921e-21
7.12784e-21
7.7613e-21
8.39976e-21
9.03359e-21
9.6536e-21
1.02513e-20
1.08191e-20
1.13505e-20
1.184e-20
1.22835e-20
1.26778e-20
1.30211e-20
1.33125e-20
1.35518e-20
1.37399e-20
1.3878e-20
1.3968e-20
1.40119e-20
9.61729e-21
1.01914e-20
1.10181e-20
1.20715e-20
1.333e-20
1.47724e-20
1.63764e-20
1.81175e-20
1.99692e-20
2.19033e-20
2.38898e-20
2.58985e-20
2.78993e-20
2.98632e-20
3.17633e-20
3.3575e-20
3.52769e-20
3.68513e-20
3.82836e-20
3.95633e-20
4.0683e-20
4.16386e-20
4.24286e-20
4.30537e-20
4.35166e-20
4.38208e-20
4.39707e-20
2.95186e-20
3.131e-20
3.38936e-20
3.71936e-20
4.11472e-20
4.56931e-20
5.07662e-20
5.62945e-20
6.21986e-20
6.8392e-20
7.47826e-20
8.12751e-20
8.77738e-20
9.4185e-20
1.0042e-19
1.06397e-19
1.12044e-19
1.17298e-19
1.22109e-19
1.26435e-19
1.30248e-19
1.33528e-19
1.36262e-19
1.38447e-19
1.40082e-19
1.41169e-19
1.41712e-19
9.1905e-20
9.76156e-20
1.05874e-19
1.16459e-19
1.29195e-19
1.43909e-19
1.60416e-19
1.78508e-19
1.97945e-19
2.18462e-19
2.39769e-19
2.6156e-19
2.8352e-19
3.05333e-19
3.26697e-19
3.47325e-19
3.66958e-19
3.85367e-19
4.02357e-19
4.17767e-19
4.3147e-19
4.43371e-19
4.53397e-19
4.61497e-19
4.67631e-19
4.71763e-19
4.73854e-19
2.92459e-19
3.11245e-19
3.38509e-19
3.73625e-19
4.16117e-19
4.65528e-19
5.21354e-19
5.82998e-19
6.4975e-19
7.20784e-19
7.95169e-19
8.71884e-19
9.49853e-19
1.02797e-18
1.10515e-18
1.18033e-18
1.25253e-18
1.32085e-18
1.38449e-18
1.44279e-18
1.49516e-18
1.54112e-18
1.58028e-18
1.61228e-18
1.63681e-18
1.65354e-18
1.66212e-18
9.59595e-19
1.02397e-18
1.11786e-18
1.23955e-18
1.3879e-18
1.56186e-18
1.76018e-18
1.98124e-18
2.22298e-18
2.48279e-18
2.75759e-18
3.04386e-18
3.33772e-18
3.63509e-18
3.93177e-18
4.22362e-18
4.50665e-18
4.77711e-18
5.03158e-18
5.26699e-18
5.48061e-18
5.67004e-18
5.83309e-18
5.96775e-18
6.07204e-18
6.14392e-18
6.18113e-18
3.28707e-18
3.51978e-18
3.86117e-18
4.30706e-18
4.8555e-18
5.50496e-18
6.25315e-18
7.09623e-18
8.02833e-18
9.04121e-18
1.01243e-17
1.12647e-17
1.24476e-17
1.3657e-17
1.48758e-17
1.60865e-17
1.72718e-17
1.84152e-17
1.95009e-17
2.05144e-17
2.14424e-17
2.22723e-17
2.29927e-17
2.35925e-17
2.40606e-17
2.43854e-17
2.45546e-17
1.19271e-17
1.28248e-17
1.41505e-17
1.58967e-17
1.80655e-17
2.06611e-17
2.36845e-17
2.71296e-17
3.09811e-17
3.52123e-17
3.97847e-17
4.46485e-17
4.97434e-17
5.50009e-17
6.03464e-17
6.57017e-17
7.09877e-17
7.61262e-17
8.10417e-17
8.56624e-17
8.99205e-17
9.3752e-17
9.70962e-17
9.98936e-17
1.02085e-16
1.03611e-16
1.04408e-16
4.65777e-17
5.03097e-17
5.58573e-17
6.32247e-17
7.24606e-17
8.36232e-17
9.67566e-17
1.11872e-16
1.28933e-16
1.4785e-16
1.6847e-16
1.90583e-16
2.13923e-16
2.38178e-16
2.62999e-16
2.88017e-16
3.12848e-16
3.3711e-16
3.60425e-16
3.82432e-16
4.02782e-16
4.21147e-16
4.37208e-16
4.50662e-16
4.61206e-16
4.68542e-16
4.72366e-16
1.98507e-16
2.15302e-16
2.40399e-16
2.73945e-16
3.16297e-16
3.67857e-16
4.28951e-16
4.99737e-16
5.80134e-16
6.69772e-16
7.67972e-16
8.73747e-16
9.85823e-16
1.10268e-15
1.22263e-15
1.34382e-15
1.46437e-15
1.58234e-15
1.69585e-15
1.80307e-15
1.90224e-15
1.99168e-15
2.06983e-15
2.13516e-15
2.18622e-15
2.22162e-15
2.23999e-15
9.30311e-16
1.01193e-15
1.13424e-15
1.29821e-15
1.50584e-15
1.75928e-15
2.06018e-15
2.40929e-15
2.80605e-15
3.2484e-15
3.73269e-15
4.25372e-15
4.8049e-15
5.37849e-15
5.9659e-15
6.55798e-15
7.14532e-15
7.7185e-15
8.26834e-15
8.78601e-15
9.26312e-15
9.69181e-15
1.00647e-14
1.0375e-14
1.06163e-14
1.07825e-14
1.08683e-14
4.76959e-15
5.19388e-15
5.82939e-15
6.68063e-15
7.7567e-15
9.06669e-15
1.06165e-14
1.24063e-14
1.44294e-14
1.66708e-14
1.91076e-14
2.17095e-14
2.444e-14
2.7258e-14
3.01191e-14
3.2978e-14
3.5789e-14
3.85082e-14
4.10935e-14
4.35059e-14
4.57096e-14
4.76719e-14
4.93636e-14
5.07584e-14
5.18331e-14
5.25669e-14
5.29417e-14
2.6098e-14
2.84162e-14
3.18834e-14
3.65182e-14
4.2362e-14
4.94551e-14
5.78194e-14
6.74473e-14
7.8294e-14
9.0275e-14
1.03266e-13
1.17107e-13
1.31609e-13
1.46558e-13
1.61724e-13
1.76868e-13
1.91749e-13
2.06127e-13
2.19773e-13
2.32473e-13
2.44028e-13
2.54263e-13
2.63024e-13
2.70185e-13
2.75643e-13
2.79324e-13
2.81177e-13
1.4615e-13
1.59287e-13
1.79005e-13
2.05507e-13
2.39185e-13
2.80493e-13
3.29862e-13
3.87632e-13
4.54002e-13
5.28981e-13
6.12352e-13
7.0364e-13
8.02095e-13
9.06684e-13
1.0161e-12
1.12879e-12
1.24295e-12
1.35664e-12
1.46775e-12
1.57412e-12
1.67355e-12
1.76391e-12
1.84316e-12
1.90943e-12
1.96103e-12
1.99653e-12
2.01474e-12
8.40728e-13
9.23352e-13
1.04887e-12
1.22024e-12
1.44208e-12
1.71981e-12
2.05897e-12
2.46458e-12
2.94034e-12
3.48777e-12
4.1054e-12
4.78802e-12
5.52643e-12
6.30762e-12
7.11551e-12
7.93212e-12
8.73897e-12
9.5183e-12
1.02541e-11
1.09328e-11
1.15432e-11
1.2077e-11
1.25278e-11
1.28915e-11
1.31654e-11
1.3348e-11
1.34391e-11
5.48132e-12
6.06625e-12
6.95075e-12
8.14571e-12
9.66261e-12
1.15032e-11
1.36522e-11
1.60744e-11
1.87163e-11
2.15122e-11
2.4393e-11
2.72926e-11
3.01527e-11
3.29248e-11
3.55693e-11
3.80553e-11
4.03586e-11
4.24613e-11
4.43507e-11
4.6019e-11
4.74626e-11
4.86814e-11
4.96786e-11
5.04595e-11
5.10311e-11
5.14018e-11
5.15817e-11
3.15113e-11
3.40372e-11
3.77027e-11
4.24146e-11
4.80908e-11
5.46462e-11
6.19859e-11
7.00039e-11
7.85832e-11
8.75976e-11
9.69155e-11
1.064e-10
1.15901e-10
1.25272e-10
1.34378e-10
1.43093e-10
1.51304e-10
1.58917e-10
1.65852e-10
1.72049e-10
1.77465e-10
1.82073e-10
1.85863e-10
1.88841e-10
1.91023e-10
1.92438e-10
1.93123e-10
1.08067e-10
1.16167e-10
1.28042e-10
1.4354e-10
1.62579e-10
1.85091e-10
2.10985e-10
2.4012e-10
2.72297e-10
3.07244e-10
3.44618e-10
3.83998e-10
4.24897e-10
4.66771e-10
5.09028e-10
5.51049e-10
5.92198e-10
6.31844e-10
6.69371e-10
7.042e-10
7.35798e-10
7.63693e-10
7.87483e-10
8.0684e-10
8.21522e-10
8.31365e-10
8.36288e-10
3.13e-10
3.3897e-10
3.77597e-10
4.28978e-10
4.93593e-10
5.72085e-10
6.65117e-10
7.7325e-10
8.96837e-10
1.03592e-09
1.19064e-09
1.36018e-09
1.54327e-09
1.73811e-09
1.94233e-09
2.15308e-09
2.36704e-09
2.5805e-09
2.78951e-09
2.98995e-09
3.17763e-09
3.34849e-09
3.49848e-09
3.6241e-09
3.72226e-09
3.79003e-09
3.82486e-09
8.86617e-10
9.66198e-10
1.08575e-09
1.24683e-09
1.45242e-09
1.70621e-09
2.01205e-09
2.37353e-09
2.79354e-09
3.27385e-09
3.81479e-09
4.41492e-09
5.07086e-09
5.77725e-09
6.52536e-09
7.30393e-09
8.09991e-09
8.89873e-09
9.68474e-09
1.04416e-08
1.11528e-08
1.18021e-08
1.2374e-08
1.28539e-08
1.3229e-08
1.34879e-08
1.36212e-08
2.62331e-09
2.84294e-09
3.1714e-09
3.61138e-09
4.16914e-09
4.85264e-09
5.66743e-09
6.61748e-09
7.70424e-09
8.92572e-09
1.02758e-08
1.17439e-08
1.33149e-08
1.49695e-08
1.66843e-08
1.84329e-08
2.01863e-08
2.19141e-08
2.3585e-08
2.5168e-08
2.66331e-08
2.79518e-08
2.90979e-08
3.00484e-08
3.07832e-08
3.12854e-08
3.15415e-08
7.296e-09
7.77542e-09
8.47931e-09
9.39943e-09
1.0532e-08
1.18737e-08
1.34194e-08
1.51607e-08
1.70848e-08
1.91743e-08
2.14068e-08
2.37558e-08
2.61909e-08
2.86787e-08
3.11837e-08
3.36694e-08
3.60991e-08
3.84365e-08
4.06471e-08
4.2698e-08
4.45592e-08
4.62042e-08
4.76093e-08
4.87545e-08
4.96234e-08
5.02036e-08
5.04935e-08
1.6327e-08
1.70594e-08
1.81127e-08
1.94534e-08
2.10534e-08
2.28856e-08
2.49221e-08
2.71328e-08
2.94859e-08
3.19475e-08
3.44822e-08
3.70539e-08
3.9626e-08
4.21623e-08
4.46275e-08
4.69877e-08
4.92103e-08
5.12726e-08
5.31623e-08
5.48696e-08
5.63836e-08
5.7695e-08
5.8796e-08
5.96807e-08
6.03454e-08
6.07879e-08
6.10083e-08
2.83465e-08
2.91331e-08
3.02428e-08
3.16204e-08
3.32163e-08
3.49835e-08
3.68769e-08
3.88521e-08
4.08662e-08
4.2878e-08
4.48561e-08
4.67871e-08
4.8656e-08
5.04465e-08
5.21454e-08
5.37407e-08
5.52226e-08
5.65829e-08
5.78152e-08
5.89145e-08
5.98779e-08
6.0703e-08
6.13882e-08
6.19335e-08
6.23393e-08
6.26073e-08
6.27398e-08
3.9335e-08
3.98875e-08
4.06541e-08
4.15858e-08
4.26393e-08
4.37759e-08
4.49616e-08
4.61674e-08
4.73687e-08
4.85457e-08
4.9683e-08
5.07688e-08
5.17945e-08
5.27539e-08
5.36426e-08
5.44582e-08
5.51994e-08
5.58658e-08
5.64578e-08
5.69765e-08
5.74231e-08
5.77995e-08
5.81074e-08
5.83493e-08
5.85272e-08
5.86435e-08
5.87004e-08
4.55417e-08
4.58126e-08
4.61812e-08
4.66176e-08
4.70957e-08
4.75932e-08
4.80918e-08
4.85772e-08
4.90386e-08
4.94686e-08
4.98628e-08
5.02188e-08
5.0536e-08
5.08153e-08
5.10585e-08
5.1268e-08
5.14465e-08
5.1597e-08
5.17224e-08
5.18255e-08
5.1909e-08
5.19752e-08
5.20265e-08
5.20646e-08
5.20913e-08
5.21079e-08
5.21157e-08
4.71967e-08
4.72263e-08
4.72596e-08
4.72878e-08
4.73036e-08
4.73011e-08
4.72765e-08
4.72283e-08
4.71562e-08
4.70616e-08
4.69471e-08
4.68159e-08
4.66717e-08
4.65184e-08
4.63601e-08
4.62006e-08
4.60433e-08
4.58917e-08
4.57486e-08
4.56164e-08
4.54973e-08
4.5393e-08
4.53046e-08
4.52333e-08
4.51797e-08
4.51439e-08
4.51261e-08
4.5408e-08
4.52825e-08
4.51031e-08
4.48766e-08
4.46091e-08
4.43068e-08
4.39756e-08
4.36218e-08
4.32515e-08
4.28709e-08
4.24858e-08
4.21017e-08
4.17238e-08
4.13566e-08
4.10042e-08
4.06703e-08
4.03579e-08
4.00695e-08
3.98071e-08
3.95725e-08
3.93667e-08
3.91904e-08
3.90442e-08
3.89281e-08
3.88419e-08
3.87852e-08
3.87573e-08
4.16647e-08
4.1466e-08
4.11876e-08
4.08446e-08
4.04506e-08
4.00176e-08
3.95567e-08
3.90776e-08
3.85893e-08
3.80995e-08
3.76151e-08
3.71419e-08
3.66852e-08
3.6249e-08
3.5837e-08
3.54519e-08
3.50962e-08
3.47715e-08
3.44791e-08
3.42198e-08
3.39942e-08
3.38024e-08
3.36442e-08
3.35193e-08
3.3427e-08
3.33666e-08
3.33369e-08
3.72082e-08
3.69918e-08
3.66906e-08
3.63225e-08
3.59036e-08
3.54478e-08
3.49674e-08
3.44733e-08
3.39747e-08
3.34793e-08
3.29939e-08
3.25238e-08
3.20737e-08
3.1647e-08
3.12466e-08
3.08748e-08
3.05332e-08
3.0223e-08
2.9945e-08
2.96994e-08
2.94866e-08
2.93062e-08
2.91578e-08
2.9041e-08
2.89549e-08
2.88986e-08
2.88711e-08
3.28159e-08
3.26116e-08
3.23279e-08
3.19826e-08
3.15912e-08
3.11674e-08
3.0723e-08
3.0268e-08
2.9811e-08
2.93592e-08
2.89184e-08
2.84933e-08
2.80878e-08
2.77048e-08
2.73467e-08
2.70151e-08
2.67114e-08
2.64363e-08
2.61902e-08
2.59733e-08
2.57857e-08
2.56269e-08
2.54966e-08
2.5394e-08
2.53185e-08
2.52692e-08
2.52451e-08
2.88659e-08
2.86858e-08
2.8436e-08
2.81326e-08
2.77894e-08
2.74186e-08
2.70306e-08
2.66344e-08
2.62373e-08
2.58456e-08
2.54643e-08
2.50973e-08
2.47478e-08
2.44184e-08
2.41108e-08
2.38265e-08
2.35664e-08
2.3331e-08
2.31207e-08
2.29356e-08
2.27755e-08
2.26402e-08
2.25291e-08
2.24418e-08
2.23776e-08
2.23356e-08
2.23151e-08
2.54814e-08
2.5328e-08
2.51154e-08
2.48573e-08
2.45657e-08
2.42509e-08
2.39218e-08
2.35861e-08
2.325e-08
2.29188e-08
2.25966e-08
2.22867e-08
2.19919e-08
2.17142e-08
2.14551e-08
2.12157e-08
2.09967e-08
2.07987e-08
2.06218e-08
2.04661e-08
2.03316e-08
2.02178e-08
2.01245e-08
2.00511e-08
1.99972e-08
1.99619e-08
1.99447e-08
2.26526e-08
2.2524e-08
2.23458e-08
2.21295e-08
2.18851e-08
2.16214e-08
2.13459e-08
2.10648e-08
2.07834e-08
2.05061e-08
2.02365e-08
1.99772e-08
1.97305e-08
1.94982e-08
1.92813e-08
1.9081e-08
1.88978e-08
1.87321e-08
1.85841e-08
1.84539e-08
1.83413e-08
1.82461e-08
1.8168e-08
1.81066e-08
1.80613e-08
1.80318e-08
1.80174e-08
2.03141e-08
2.02068e-08
2.00581e-08
1.98776e-08
1.96737e-08
1.94536e-08
1.92235e-08
1.89887e-08
1.87537e-08
1.8522e-08
1.82966e-08
1.80799e-08
1.78736e-08
1.76791e-08
1.74977e-08
1.733e-08
1.71766e-08
1.70378e-08
1.69138e-08
1.68046e-08
1.67102e-08
1.66304e-08
1.65648e-08
1.65133e-08
1.64754e-08
1.64506e-08
1.64385e-08
1.83858e-08
1.82962e-08
1.81719e-08
1.8021e-08
1.78505e-08
1.76663e-08
1.74738e-08
1.72772e-08
1.70803e-08
1.6886e-08
1.6697e-08
1.6515e-08
1.63418e-08
1.61785e-08
1.60259e-08
1.58849e-08
1.57558e-08
1.56389e-08
1.55345e-08
1.54425e-08
1.53629e-08
1.52956e-08
1.52404e-08
1.51969e-08
1.51649e-08
1.5144e-08
1.51337e-08
1.6792e-08
1.67167e-08
1.66123e-08
1.64855e-08
1.63421e-08
1.61872e-08
1.6025e-08
1.58594e-08
1.56934e-08
1.55296e-08
1.537e-08
1.52163e-08
1.50699e-08
1.49317e-08
1.48026e-08
1.46832e-08
1.45738e-08
1.44747e-08
1.43861e-08
1.43081e-08
1.42405e-08
1.41834e-08
1.41364e-08
1.40995e-08
1.40723e-08
1.40545e-08
1.40458e-08
1.54675e-08
1.54039e-08
1.53155e-08
1.52082e-08
1.50867e-08
1.49554e-08
1.48179e-08
1.46773e-08
1.45363e-08
1.4397e-08
1.42612e-08
1.41304e-08
1.40056e-08
1.38878e-08
1.37776e-08
1.36757e-08
1.35822e-08
1.34975e-08
1.34217e-08
1.33549e-08
1.3297e-08
1.3248e-08
1.32078e-08
1.31761e-08
1.31528e-08
1.31376e-08
1.31301e-08
1.43596e-08
1.43052e-08
1.42299e-08
1.41382e-08
1.40345e-08
1.39222e-08
1.38046e-08
1.36843e-08
1.35635e-08
1.34441e-08
1.33276e-08
1.32152e-08
1.3108e-08
1.30067e-08
1.29119e-08
1.2824e-08
1.27435e-08
1.26704e-08
1.2605e-08
1.25473e-08
1.24974e-08
1.2455e-08
1.24202e-08
1.23928e-08
1.23726e-08
1.23594e-08
1.2353e-08
1.34259e-08
1.33791e-08
1.33143e-08
1.32354e-08
1.3146e-08
1.30493e-08
1.29478e-08
1.28439e-08
1.27395e-08
1.26363e-08
1.25354e-08
1.24381e-08
1.23452e-08
1.22573e-08
1.2175e-08
1.20987e-08
1.20286e-08
1.19651e-08
1.19081e-08
1.18579e-08
1.18143e-08
1.17774e-08
1.17471e-08
1.17231e-08
1.17055e-08
1.1694e-08
1.16883e-08
1.26333e-08
1.25928e-08
1.25365e-08
1.2468e-08
1.23904e-08
1.23062e-08
1.2218e-08
1.21275e-08
1.20366e-08
1.19465e-08
1.18585e-08
1.17735e-08
1.16923e-08
1.16154e-08
1.15433e-08
1.14764e-08
1.1415e-08
1.13593e-08
1.13093e-08
1.12652e-08
1.12269e-08
1.11944e-08
1.11677e-08
1.11467e-08
1.11311e-08
1.1121e-08
1.1116e-08
1.1956e-08
1.19205e-08
1.18713e-08
1.18113e-08
1.17433e-08
1.16696e-08
1.15922e-08
1.15128e-08
1.14329e-08
1.13537e-08
1.12763e-08
1.12015e-08
1.11299e-08
1.1062e-08
1.09984e-08
1.09394e-08
1.08851e-08
1.08358e-08
1.07916e-08
1.07525e-08
1.07185e-08
1.06898e-08
1.06661e-08
1.06474e-08
1.06336e-08
1.06246e-08
1.06202e-08
1.13734e-08
1.13422e-08
1.12988e-08
1.12459e-08
1.11859e-08
1.11208e-08
1.10524e-08
1.09821e-08
1.09114e-08
1.08413e-08
1.07726e-08
1.07062e-08
1.06426e-08
1.05824e-08
1.05258e-08
1.04732e-08
1.04249e-08
1.03809e-08
1.03415e-08
1.03066e-08
1.02763e-08
1.02506e-08
1.02294e-08
1.02127e-08
1.02004e-08
1.01923e-08
1.01884e-08
1.08696e-08
1.08419e-08
1.08034e-08
1.07564e-08
1.0703e-08
1.06451e-08
1.05842e-08
1.05216e-08
1.04586e-08
1.0396e-08
1.03347e-08
1.02753e-08
1.02185e-08
1.01645e-08
1.01138e-08
1.00667e-08
1.00234e-08
9.9839e-09
9.94847e-09
9.91712e-09
9.88988e-09
9.86674e-09
9.84768e-09
9.83264e-09
9.82152e-09
9.81424e-09
9.81067e-09
1.04317e-08
1.04069e-08
1.03725e-08
1.03304e-08
1.02827e-08
1.02308e-08
1.01762e-08
1.01201e-08
1.00635e-08
1.00073e-08
9.9522e-09
9.89879e-09
9.84758e-09
9.79897e-09
9.75327e-09
9.71074e-09
9.67158e-09
9.63592e-09
9.60388e-09
9.57551e-09
9.55084e-09
9.52988e-09
9.51261e-09
9.49896e-09
9.48888e-09
9.48227e-09
9.47902e-09
1.00494e-08
1.00271e-08
9.99609e-09
9.95825e-09
9.91524e-09
9.86848e-09
9.81924e-09
9.7686e-09
9.71749e-09
9.66667e-09
9.61682e-09
9.56847e-09
9.52206e-09
9.47798e-09
9.4365e-09
9.39788e-09
9.36228e-09
9.32985e-09
9.30069e-09
9.27485e-09
9.25237e-09
9.23327e-09
9.2175e-09
9.20505e-09
9.19584e-09
9.1898e-09
9.18684e-09
9.71428e-09
9.69411e-09
9.66604e-09
9.63178e-09
9.5928e-09
9.55041e-09
9.50573e-09
9.45975e-09
9.4133e-09
9.36709e-09
9.32172e-09
9.27768e-09
9.23538e-09
9.19516e-09
9.15729e-09
9.122e-09
9.08945e-09
9.05978e-09
9.03308e-09
9.00941e-09
8.9888e-09
8.97127e-09
8.95681e-09
8.94537e-09
8.93691e-09
8.93136e-09
8.92863e-09
9.41949e-09
9.40113e-09
9.37558e-09
9.34437e-09
9.30885e-09
9.27019e-09
9.22943e-09
9.18744e-09
9.145e-09
9.10273e-09
9.0612e-09
9.02086e-09
8.98208e-09
8.94518e-09
8.91041e-09
8.87798e-09
8.84805e-09
8.82074e-09
8.79615e-09
8.77434e-09
8.75534e-09
8.73917e-09
8.72582e-09
8.71526e-09
8.70744e-09
8.70231e-09
8.69979e-09
9.15925e-09
9.14246e-09
9.11907e-09
9.09049e-09
9.05794e-09
9.0225e-09
8.9851e-09
8.94655e-09
8.90754e-09
8.86868e-09
8.83046e-09
8.7933e-09
8.75755e-09
8.72351e-09
8.69141e-09
8.66144e-09
8.63377e-09
8.6085e-09
8.58574e-09
8.56553e-09
8.54791e-09
8.53291e-09
8.52052e-09
8.51071e-09
8.50345e-09
8.49868e-09
8.49634e-09
8.92871e-09
8.91326e-09
8.89174e-09
8.86542e-09
8.83544e-09
8.80277e-09
8.76828e-09
8.73269e-09
8.69666e-09
8.66073e-09
8.62537e-09
8.59096e-09
8.55783e-09
8.52626e-09
8.49646e-09
8.46863e-09
8.44291e-09
8.4194e-09
8.39821e-09
8.37939e-09
8.36297e-09
8.34898e-09
8.33742e-09
8.32827e-09
8.32148e-09
8.31703e-09
8.31483e-09
8.72368e-09
8.7094e-09
8.68948e-09
8.66513e-09
8.63737e-09
8.6071e-09
8.57511e-09
8.54209e-09
8.50863e-09
8.47524e-09
8.44235e-09
8.41032e-09
8.37946e-09
8.35002e-09
8.32222e-09
8.29623e-09
8.2722e-09
8.25022e-09
8.23039e-09
8.21277e-09
8.19739e-09
8.18428e-09
8.17344e-09
8.16485e-09
8.15848e-09
8.15429e-09
8.15223e-09
8.54054e-09
8.52725e-09
8.50873e-09
8.48608e-09
8.46023e-09
8.43203e-09
8.40221e-09
8.37141e-09
8.34018e-09
8.30898e-09
8.27823e-09
8.24826e-09
8.21936e-09
8.19178e-09
8.1657e-09
8.14131e-09
8.11874e-09
8.09809e-09
8.07944e-09
8.06285e-09
8.04838e-09
8.03602e-09
8.0258e-09
8.0177e-09
8.01169e-09
8.00774e-09
8.00579e-09
8.37604e-09
8.36363e-09
8.34631e-09
8.32512e-09
8.30093e-09
8.27452e-09
8.24657e-09
8.21769e-09
8.18838e-09
8.15908e-09
8.13017e-09
8.10198e-09
8.07477e-09
8.04879e-09
8.02421e-09
8.0012e-09
7.97989e-09
7.96038e-09
7.94275e-09
7.92706e-09
7.91336e-09
7.90166e-09
7.89198e-09
7.8843e-09
7.8786e-09
7.87485e-09
7.87301e-09
8.22731e-09
8.21564e-09
8.19936e-09
8.17942e-09
8.15665e-09
8.13178e-09
8.10545e-09
8.07821e-09
8.05055e-09
8.02288e-09
7.99556e-09
7.9689e-09
7.94315e-09
7.91854e-09
7.89524e-09
7.87342e-09
7.85319e-09
7.83467e-09
7.81792e-09
7.803e-09
7.78997e-09
7.77884e-09
7.76961e-09
7.7623e-09
7.75687e-09
7.7533e-09
7.75154e-09
8.09167e-09
8.08064e-09
8.06524e-09
8.04637e-09
8.02482e-09
8.00126e-09
7.9763e-09
7.95047e-09
7.92421e-09
7.89793e-09
7.87197e-09
7.84661e-09
7.82211e-09
7.79866e-09
7.77646e-09
7.75565e-09
7.73635e-09
7.71866e-09
7.70266e-09
7.68841e-09
7.67594e-09
7.66529e-09
7.65647e-09
7.64946e-09
7.64426e-09
7.64084e-09
7.63915e-09
7.96664e-09
7.95614e-09
7.94149e-09
7.92352e-09
7.90299e-09
7.88054e-09
7.85674e-09
7.83208e-09
7.80701e-09
7.7819e-09
7.75708e-09
7.73282e-09
7.70936e-09
7.6869e-09
7.66562e-09
7.64566e-09
7.62714e-09
7.61015e-09
7.59478e-09
7.58108e-09
7.5691e-09
7.55885e-09
7.55036e-09
7.54362e-09
7.53861e-09
7.53531e-09
7.53369e-09
7.84983e-09
7.83978e-09
7.82573e-09
7.80852e-09
7.78883e-09
7.76729e-09
7.74444e-09
7.72076e-09
7.69666e-09
7.67251e-09
7.64862e-09
7.62526e-09
7.60266e-09
7.58102e-09
7.56049e-09
7.54123e-09
7.52335e-09
7.50695e-09
7.4921e-09
7.47885e-09
7.46726e-09
7.45735e-09
7.44913e-09
7.44261e-09
7.43776e-09
7.43456e-09
7.43299e-09
7.73892e-09
7.72922e-09
7.71567e-09
7.69904e-09
7.68003e-09
7.65921e-09
7.63712e-09
7.61421e-09
7.59089e-09
7.5675e-09
7.54436e-09
7.52171e-09
7.49979e-09
7.47879e-09
7.45886e-09
7.44016e-09
7.42279e-09
7.40684e-09
7.3924e-09
7.37952e-09
7.36824e-09
7.3586e-09
7.35059e-09
7.34424e-09
7.33952e-09
7.3364e-09
7.33487e-09
7.63158e-09
7.62214e-09
7.60896e-09
7.59278e-09
7.57427e-09
7.55399e-09
7.53247e-09
7.51014e-09
7.4874e-09
7.46458e-09
7.44199e-09
7.41988e-09
7.39846e-09
7.37794e-09
7.35846e-09
7.34016e-09
7.32317e-09
7.30756e-09
7.29343e-09
7.28081e-09
7.26977e-09
7.26032e-09
7.25248e-09
7.24625e-09
7.24163e-09
7.23857e-09
7.23707e-09
7.52542e-09
7.51617e-09
7.50323e-09
7.48735e-09
7.46918e-09
7.44927e-09
7.42812e-09
7.40617e-09
7.38381e-09
7.36137e-09
7.33914e-09
7.31738e-09
7.29629e-09
7.27608e-09
7.25689e-09
7.23886e-09
7.22211e-09
7.20673e-09
7.1928e-09
7.18036e-09
7.16947e-09
7.16015e-09
7.15242e-09
7.14627e-09
7.14171e-09
7.1387e-09
7.13721e-09
7.41799e-09
7.40882e-09
7.39601e-09
7.38029e-09
7.36228e-09
7.34254e-09
7.32158e-09
7.29981e-09
7.27763e-09
7.25537e-09
7.23331e-09
7.21171e-09
7.19078e-09
7.1707e-09
7.15165e-09
7.13374e-09
7.11711e-09
7.10183e-09
7.08798e-09
7.07562e-09
7.0648e-09
7.05554e-09
7.04786e-09
7.04175e-09
7.03722e-09
7.03423e-09
7.03275e-09
7.30666e-09
7.29749e-09
7.28468e-09
7.26895e-09
7.25093e-09
7.23118e-09
7.2102e-09
7.18842e-09
7.16621e-09
7.14392e-09
7.12183e-09
7.10019e-09
7.07923e-09
7.05912e-09
7.04003e-09
7.0221e-09
7.00543e-09
6.99013e-09
6.97626e-09
6.96389e-09
6.95305e-09
6.94378e-09
6.93609e-09
6.92997e-09
6.92543e-09
6.92244e-09
6.92096e-09
7.18865e-09
7.17939e-09
7.16644e-09
7.15054e-09
7.13233e-09
7.11237e-09
7.09116e-09
7.06914e-09
7.04669e-09
7.02415e-09
7.00182e-09
6.97995e-09
6.95875e-09
6.93843e-09
6.91914e-09
6.90102e-09
6.88418e-09
6.86872e-09
6.85471e-09
6.84222e-09
6.83127e-09
6.82191e-09
6.81415e-09
6.80798e-09
6.8034e-09
6.80038e-09
6.79889e-09
7.06097e-09
7.05151e-09
7.03829e-09
7.02206e-09
7.00346e-09
6.98307e-09
6.96141e-09
6.93893e-09
6.916e-09
6.89299e-09
6.8702e-09
6.84787e-09
6.82625e-09
6.80552e-09
6.78584e-09
6.76736e-09
6.7502e-09
6.73444e-09
6.72017e-09
6.70745e-09
6.69631e-09
6.68678e-09
6.67888e-09
6.67261e-09
6.66795e-09
6.66488e-09
6.66337e-09
6.92041e-09
6.91065e-09
6.897e-09
6.88025e-09
6.86106e-09
6.84003e-09
6.81769e-09
6.7945e-09
6.77086e-09
6.74714e-09
6.72365e-09
6.70065e-09
6.67838e-09
6.65703e-09
6.63679e-09
6.61778e-09
6.60013e-09
6.58394e-09
6.56928e-09
6.55621e-09
6.54477e-09
6.535e-09
6.52689e-09
6.52046e-09
6.51569e-09
6.51254e-09
6.51099e-09
6.76353e-09
6.75335e-09
6.73913e-09
6.72168e-09
6.70168e-09
6.67978e-09
6.65651e-09
6.63236e-09
6.60776e-09
6.58308e-09
6.55865e-09
6.53475e-09
6.51161e-09
6.48944e-09
6.46843e-09
6.44871e-09
6.43041e-09
6.41363e-09
6.39845e-09
6.38492e-09
6.37309e-09
6.36298e-09
6.35461e-09
6.34796e-09
6.34303e-09
6.33979e-09
6.33819e-09
6.58672e-09
6.57602e-09
6.56106e-09
6.5427e-09
6.52169e-09
6.49866e-09
6.47422e-09
6.44886e-09
6.42305e-09
6.39716e-09
6.37154e-09
6.34649e-09
6.32226e-09
6.29907e-09
6.27709e-09
6.25648e-09
6.23737e-09
6.21985e-09
6.20401e-09
6.18991e-09
6.17758e-09
6.16706e-09
6.15835e-09
6.15144e-09
6.14631e-09
6.14294e-09
6.14128e-09
6.38626e-09
6.37491e-09
6.35906e-09
6.3396e-09
6.31734e-09
6.29297e-09
6.2671e-09
6.24028e-09
6.21299e-09
6.18565e-09
6.15861e-09
6.13218e-09
6.10664e-09
6.08221e-09
6.05907e-09
6.0374e-09
6.01731e-09
5.99892e-09
5.9823e-09
5.96751e-09
5.9546e-09
5.94358e-09
5.93446e-09
5.92724e-09
5.92188e-09
5.91836e-09
5.91662e-09
6.1584e-09
6.1463e-09
6.1294e-09
6.10867e-09
6.08495e-09
6.059e-09
6.03147e-09
6.00296e-09
5.97396e-09
5.94492e-09
5.91624e-09
5.88823e-09
5.86117e-09
5.83532e-09
5.81086e-09
5.78796e-09
5.76676e-09
5.74736e-09
5.72985e-09
5.71428e-09
5.70069e-09
5.68911e-09
5.67953e-09
5.67195e-09
5.66633e-09
5.66263e-09
5.66082e-09
5.89964e-09
5.88668e-09
5.8686e-09
5.84642e-09
5.82107e-09
5.79334e-09
5.76395e-09
5.73353e-09
5.70263e-09
5.67171e-09
5.64119e-09
5.61141e-09
5.58269e-09
5.55526e-09
5.52934e-09
5.50509e-09
5.48267e-09
5.46217e-09
5.44368e-09
5.42725e-09
5.41293e-09
5.40073e-09
5.39065e-09
5.38268e-09
5.37677e-09
5.37289e-09
5.37099e-09
5.6069e-09
5.59302e-09
5.57364e-09
5.5499e-09
5.52277e-09
5.49313e-09
5.46173e-09
5.42927e-09
5.39631e-09
5.36338e-09
5.3309e-09
5.29925e-09
5.26875e-09
5.23966e-09
5.2122e-09
5.18654e-09
5.16283e-09
5.14118e-09
5.12167e-09
5.10435e-09
5.08927e-09
5.07643e-09
5.06584e-09
5.05746e-09
5.05126e-09
5.04719e-09
5.04519e-09
5.278e-09
5.26315e-09
5.24243e-09
5.21706e-09
5.1881e-09
5.15648e-09
5.12303e-09
5.08846e-09
5.05342e-09
5.01844e-09
4.98398e-09
4.95045e-09
4.91817e-09
4.88742e-09
4.85842e-09
4.83136e-09
4.80638e-09
4.7836e-09
4.76309e-09
4.74491e-09
4.72909e-09
4.71564e-09
4.70454e-09
4.69577e-09
4.68929e-09
4.68504e-09
4.68295e-09
4.91215e-09
4.89635e-09
4.87432e-09
4.84737e-09
4.81663e-09
4.7831e-09
4.74767e-09
4.71111e-09
4.67409e-09
4.63718e-09
4.60087e-09
4.56558e-09
4.53165e-09
4.49937e-09
4.46897e-09
4.44063e-09
4.41451e-09
4.3907e-09
4.3693e-09
4.35034e-09
4.33386e-09
4.31986e-09
4.30832e-09
4.29921e-09
4.29248e-09
4.28807e-09
4.28591e-09
4.51071e-09
4.49407e-09
4.47089e-09
4.44254e-09
4.41023e-09
4.37504e-09
4.3379e-09
4.29961e-09
4.2609e-09
4.22234e-09
4.18446e-09
4.14765e-09
4.11228e-09
4.07861e-09
4.04686e-09
4.01719e-09
3.98978e-09
3.96478e-09
3.94228e-09
3.92234e-09
3.905e-09
3.89026e-09
3.87811e-09
3.86852e-09
3.86143e-09
3.85678e-09
3.8545e-09
4.0778e-09
4.06045e-09
4.03623e-09
4.00654e-09
3.9726e-09
3.93559e-09
3.89655e-09
3.85635e-09
3.81572e-09
3.77529e-09
3.73559e-09
3.69706e-09
3.66004e-09
3.62484e-09
3.59173e-09
3.5609e-09
3.53251e-09
3.50668e-09
3.48348e-09
3.46296e-09
3.44514e-09
3.43001e-09
3.41755e-09
3.40771e-09
3.40045e-09
3.3957e-09
3.39336e-09
3.61307e-09
3.59492e-09
3.56967e-09
3.53886e-09
3.50385e-09
3.46581e-09
3.42579e-09
3.38468e-09
3.34325e-09
3.30215e-09
3.26191e-09
3.22297e-09
3.18571e-09
3.15041e-09
3.11731e-09
3.08657e-09
3.05833e-09
3.03269e-09
3.0097e-09
2.9894e-09
2.97179e-09
2.95685e-09
2.94457e-09
2.93488e-09
2.92774e-09
2.92306e-09
2.92077e-09
3.12972e-09
3.11166e-09
3.08656e-09
3.05599e-09
3.02131e-09
2.98371e-09
2.94423e-09
2.90378e-09
2.86309e-09
2.82282e-09
2.78348e-09
2.74551e-09
2.70924e-09
2.67496e-09
2.64286e-09
2.61311e-09
2.58583e-09
2.56109e-09
2.53895e-09
2.51941e-09
2.50248e-09
2.48814e-09
2.47635e-09
2.46706e-09
2.46021e-09
2.45573e-09
2.45354e-09
2.64872e-09
2.6313e-09
2.60712e-09
2.5777e-09
2.54439e-09
2.50834e-09
2.47057e-09
2.43195e-09
2.39319e-09
2.3549e-09
2.31758e-09
2.28163e-09
2.24736e-09
2.21502e-09
2.1848e-09
2.15684e-09
2.13123e-09
2.10804e-09
2.0873e-09
2.06902e-09
2.0532e-09
2.03981e-09
2.02881e-09
2.02015e-09
2.01377e-09
2.00959e-09
2.00755e-09
2.18705e-09
2.17077e-09
2.14819e-09
2.12077e-09
2.08977e-09
2.05629e-09
2.02128e-09
1.98555e-09
1.94977e-09
1.91451e-09
1.8802e-09
1.84721e-09
1.81583e-09
1.78627e-09
1.75869e-09
1.7332e-09
1.70989e-09
1.68881e-09
1.66998e-09
1.65339e-09
1.63905e-09
1.62691e-09
1.61695e-09
1.60911e-09
1.60333e-09
1.59956e-09
1.59771e-09
1.76018e-09
1.74545e-09
1.72507e-09
1.70034e-09
1.67243e-09
1.64235e-09
1.61095e-09
1.57896e-09
1.547e-09
1.51556e-09
1.48503e-09
1.45573e-09
1.4279e-09
1.40173e-09
1.37735e-09
1.35485e-09
1.3343e-09
1.31573e-09
1.29916e-09
1.28458e-09
1.27197e-09
1.26131e-09
1.25256e-09
1.24568e-09
1.24061e-09
1.23729e-09
1.23567e-09
1.38018e-09
1.36729e-09
1.34947e-09
1.32788e-09
1.30354e-09
1.27736e-09
1.25008e-09
1.22234e-09
1.19468e-09
1.16752e-09
1.1412e-09
1.11599e-09
1.09209e-09
1.06964e-09
1.04876e-09
1.02952e-09
1.01197e-09