/*--------------------------------*- C++ -*----------------------------------*\
| =========                 |                                                 |
| \\      /  F ield         | OpenFOAM: The Open Source CFD Toolbox           |
|  \\    /   O peration     | Version:  2212                                  |
|   \\  /    A nd           | Website:  www.openfoam.com                      |
|    \\/     M anipulation  |                                                 |
\*---------------------------------------------------------------------------*/
FoamFile
{
    version     2.0;
    format      ascii;
    arch        "LSB;label=32;scalar=64";
    class       volScalarField;
    location    "9.0545968";
    object      C2H4_0;
}
// * * * * * * * * * * * * * * * * * * * * * * * * * * * * * * * * * * * * * //

dimensions      [0 0 0 0 0 0 0];

internalField   nonuniform List<scalar> 
33600
(
3.32291e-27
3.41951e-27
3.5654e-27
3.76026e-27
4.00449e-27
4.29899e-27
4.64502e-27
5.04412e-27
5.49804e-27
6.00862e-27
6.57778e-27
7.20735e-27
7.89899e-27
8.65408e-27
9.47359e-27
1.03579e-26
1.13066e-26
1.23184e-26
1.33907e-26
1.45195e-26
1.56989e-26
1.69206e-26
1.81725e-26
1.94349e-26
2.06675e-26
2.17801e-26
2.25497e-26
1.07235e-26
1.10363e-26
1.15087e-26
1.21396e-26
1.29305e-26
1.38842e-26
1.5005e-26
1.62977e-26
1.77682e-26
1.94225e-26
2.1267e-26
2.33076e-26
2.55498e-26
2.79983e-26
3.06564e-26
3.35254e-26
3.66043e-26
3.98888e-26
4.33709e-26
4.70375e-26
5.08699e-26
5.48425e-26
5.89203e-26
6.30589e-26
6.71778e-26
7.11298e-26
7.42931e-26
1.97302e-26
2.03092e-26
2.11836e-26
2.23515e-26
2.38156e-26
2.55814e-26
2.76567e-26
3.0051e-26
3.27752e-26
3.58409e-26
3.92599e-26
4.3044e-26
4.72037e-26
5.17484e-26
5.6685e-26
6.20172e-26
6.77451e-26
7.38635e-26
8.03619e-26
8.72235e-26
9.44247e-26
1.01936e-25
1.09715e-25
1.17702e-25
1.25736e-25
1.33419e-25
1.39273e-25
3.05465e-26
3.14504e-26
3.28156e-26
3.4639e-26
3.69251e-26
3.96829e-26
4.29249e-26
4.66666e-26
5.09254e-26
5.57203e-26
6.10707e-26
6.6996e-26
7.35145e-26
8.06427e-26
8.83942e-26
9.67789e-26
1.05802e-25
1.15464e-25
1.2576e-25
1.36679e-25
1.48205e-25
1.60311e-25
1.72942e-25
1.85974e-25
1.9904e-25
2.11215e-25
2.19943e-25
4.33969e-26
4.46946e-26
4.66544e-26
4.92723e-26
5.25552e-26
5.65165e-26
6.11753e-26
6.65545e-26
7.26808e-26
7.95829e-26
8.72909e-26
9.58354e-26
1.05246e-25
1.15552e-25
1.26778e-25
1.38949e-25
1.52082e-25
1.66193e-25
1.81293e-25
1.97388e-25
2.14471e-25
2.32508e-25
2.51385e-25
2.70808e-25
2.90014e-25
3.07305e-25
3.19038e-25
5.85325e-26
6.03043e-26
6.29802e-26
6.65553e-26
7.10399e-26
7.64535e-26
8.28236e-26
9.01838e-26
9.85727e-26
1.08033e-25
1.1861e-25
1.3035e-25
1.43301e-25
1.57512e-25
1.73029e-25
1.89896e-25
2.0816e-25
2.2786e-25
2.49034e-25
2.71704e-25
2.95864e-25
3.21432e-25
3.48155e-25
3.75429e-25
4.01901e-25
4.24962e-25
4.39929e-25
7.62359e-26
7.85758e-26
8.21099e-26
8.68328e-26
9.27596e-26
9.99182e-26
1.08348e-25
1.18095e-25
1.29217e-25
1.41775e-25
1.55835e-25
1.71469e-25
1.88751e-25
2.07758e-25
2.2857e-25
2.51267e-25
2.7593e-25
3.02636e-25
3.3145e-25
3.62406e-25
3.95465e-25
4.30435e-25
4.66811e-25
5.03518e-25
5.38468e-25
5.6805e-25
5.86596e-25
9.68289e-26
9.98467e-26
1.04405e-25
1.10499e-25
1.18151e-25
1.274e-25
1.383e-25
1.50918e-25
1.65334e-25
1.81635e-25
1.9992e-25
2.20293e-25
2.42867e-25
2.67762e-25
2.95103e-25
3.25019e-25
3.57639e-25
3.93084e-25
4.31441e-25
4.72731e-25
5.16834e-25
5.63358e-25
6.11421e-25
6.59332e-25
7.04129e-25
7.41149e-25
7.63745e-25
1.20681e-25
1.24504e-25
1.30282e-25
1.3801e-25
1.47719e-25
1.59465e-25
1.73323e-25
1.89387e-25
2.07766e-25
2.28587e-25
2.51988e-25
2.78123e-25
3.07157e-25
3.39268e-25
3.74642e-25
4.13472e-25
4.55945e-25
5.0222e-25
5.52397e-25
6.06446e-25
6.64095e-25
7.24649e-25
7.86716e-25
8.47845e-25
9.04084e-25
9.49657e-25
9.76901e-25
1.48216e-25
1.52997e-25
1.60222e-25
1.69892e-25
1.82051e-25
1.96775e-25
2.14169e-25
2.34362e-25
2.57506e-25
2.83775e-25
3.13367e-25
3.46498e-25
3.83405e-25
4.2434e-25
4.6957e-25
5.19362e-25
5.73965e-25
6.33575e-25
6.98275e-25
7.67931e-25
8.42036e-25
9.19477e-25
9.98211e-25
1.07489e-24
1.14445e-24
1.19992e-24
1.23254e-24
1.7993e-25
1.85843e-25
1.94784e-25
2.06759e-25
2.2183e-25
2.40102e-25
2.61718e-25
2.86853e-25
3.15717e-25
3.48549e-25
3.85621e-25
4.27234e-25
4.73714e-25
5.25412e-25
5.82689e-25
6.45899e-25
7.15356e-25
7.91277e-25
8.73688e-25
9.62289e-25
1.05624e-24
1.15387e-24
1.25236e-24
1.3473e-24
1.4324e-24
1.49938e-24
1.53827e-24
2.16394e-25
2.23646e-25
2.34619e-25
2.49325e-25
2.67854e-25
2.90348e-25
3.16999e-25
3.48045e-25
3.83768e-25
4.24494e-25
4.7059e-25
5.22465e-25
5.80561e-25
6.45344e-25
7.17291e-25
7.96851e-25
8.84399e-25
9.80148e-25
1.08402e-24
1.19547e-24
1.31321e-24
1.43489e-24
1.55673e-24
1.67311e-24
1.77637e-24
1.85677e-24
1.90297e-24
2.58278e-25
2.67112e-25
2.80486e-25
2.98427e-25
3.21058e-25
3.4857e-25
3.81221e-25
4.19327e-25
4.63267e-25
5.13474e-25
5.70439e-25
6.34705e-25
7.06853e-25
7.87495e-25
8.77235e-25
9.76628e-25
1.0861e-24
1.20583e-24
1.33557e-24
1.47444e-24
1.62058e-24
1.77079e-24
1.92018e-24
2.06174e-24
2.18625e-24
2.28234e-24
2.33709e-24
3.0636e-25
3.17061e-25
3.33272e-25
3.55041e-25
3.82534e-25
4.16006e-25
4.55799e-25
5.02331e-25
5.561e-25
6.17678e-25
6.87709e-25
7.66899e-25
8.56004e-25
9.55801e-25
1.06704e-24
1.1904e-24
1.32631e-24
1.4749e-24
1.63569e-24
1.80732e-24
1.98724e-24
2.17124e-24
2.3531e-24
2.52424e-24
2.67363e-24
2.78807e-24
2.85282e-24
3.6155e-25
3.74453e-25
3.94014e-25
4.20309e-25
4.5356e-25
4.94105e-25
5.42392e-25
5.98968e-25
6.6448e-25
7.39673e-25
8.25379e-25
9.22506e-25
1.03201e-24
1.15488e-24
1.29201e-24
1.4442e-24
1.6119e-24
1.79509e-24
1.99298e-24
2.20364e-24
2.42364e-24
2.64758e-24
2.86768e-24
3.07353e-24
3.2521e-24
3.38802e-24
3.46447e-24
4.24911e-25
4.4041e-25
4.63923e-25
4.95565e-25
5.35632e-25
5.84565e-25
6.42944e-25
7.11478e-25
7.91001e-25
8.82469e-25
9.86944e-25
1.10558e-24
1.23957e-24
1.39013e-24
1.55835e-24
1.74511e-24
1.95086e-24
2.1754e-24
2.41751e-24
2.67454e-24
2.94201e-24
3.21307e-24
3.47818e-24
3.72481e-24
3.93757e-24
4.09866e-24
4.18882e-24
4.97683e-25
5.1624e-25
5.44415e-25
5.82372e-25
6.30499e-25
6.8937e-25
7.59729e-25
8.42485e-25
9.38701e-25
1.04959e-24
1.1765e-24
1.32086e-24
1.48417e-24
1.66788e-24
1.8733e-24
2.1014e-24
2.3526e-24
2.6264e-24
2.92107e-24
3.23307e-24
3.55665e-24
3.88329e-24
4.20134e-24
4.49584e-24
4.7487e-24
4.93927e-24
5.04549e-24
5.81317e-25
6.03474e-25
6.37145e-25
6.82554e-25
7.40209e-25
8.10845e-25
8.95412e-25
9.9506e-25
1.11114e-24
1.24517e-24
1.39883e-24
1.57391e-24
1.77222e-24
1.99554e-24
2.24536e-24
2.52277e-24
2.82808e-24
3.16045e-24
3.51746e-24
3.89452e-24
4.28435e-24
4.67645e-24
5.05675e-24
5.40745e-24
5.70732e-24
5.93244e-24
6.05747e-24
6.77505e-25
7.03901e-25
7.44045e-25
7.98246e-25
8.67155e-25
9.51709e-25
1.05311e-24
1.1728e-24
1.31247e-24
1.47403e-24
1.65955e-24
1.87123e-24
2.11127e-24
2.38178e-24
2.68449e-24
3.02057e-24
3.39018e-24
3.79203e-24
4.22285e-24
4.67678e-24
5.14475e-24
5.61392e-24
6.06738e-24
6.48404e-24
6.83903e-24
7.10463e-24
7.2517e-24
7.88225e-25
8.19608e-25
8.67376e-25
9.31942e-25
1.01414e-24
1.11514e-24
1.23646e-24
1.37991e-24
1.54759e-24
1.74185e-24
1.96524e-24
2.22044e-24
2.51012e-24
2.83675e-24
3.20233e-24
3.60808e-24
4.05394e-24
4.53806e-24
5.05616e-24
5.60083e-24
6.16086e-24
6.72069e-24
7.2601e-24
7.75416e-24
8.1738e-24
8.48683e-24
8.65969e-24
9.15786e-25
9.53034e-25
1.00978e-24
1.08656e-24
1.18442e-24
1.30486e-24
1.44974e-24
1.62132e-24
1.82218e-24
2.05523e-24
2.32358e-24
2.63047e-24
2.97909e-24
3.37234e-24
3.8125e-24
4.30083e-24
4.83699e-24
5.41841e-24
6.03957e-24
6.69121e-24
7.35963e-24
8.02607e-24
8.66641e-24
9.25129e-24
9.7467e-24
1.01153e-23
1.03184e-23
1.06289e-24
1.10703e-24
1.17434e-24
1.2655e-24
1.38184e-24
1.52521e-24
1.69793e-24
1.90278e-24
2.14294e-24
2.42194e-24
2.74357e-24
3.11174e-24
3.53024e-24
4.00245e-24
4.53097e-24
5.11705e-24
5.75997e-24
6.4563e-24
7.19902e-24
7.97669e-24
8.77264e-24
9.56435e-24
1.03232e-23
1.10146e-23
1.15988e-23
1.20325e-23
1.2271e-23
1.23267e-24
1.28493e-24
1.36465e-24
1.47275e-24
1.61087e-24
1.78129e-24
1.98687e-24
2.23103e-24
2.51766e-24
2.85104e-24
3.23575e-24
3.67648e-24
4.1777e-24
4.74338e-24
5.37641e-24
6.07803e-24
6.84704e-24
7.67893e-24
8.56491e-24
9.49092e-24
1.04368e-23
1.13757e-23
1.22736e-23
1.30899e-23
1.37783e-23
1.42883e-23
1.45682e-23
1.42883e-24
1.49061e-24
1.58494e-24
1.71296e-24
1.87672e-24
2.07903e-24
2.32339e-24
2.61396e-24
2.95548e-24
3.35314e-24
3.81244e-24
4.33897e-24
4.93802e-24
5.61418e-24
6.37069e-24
7.20873e-24
8.12649e-24
9.11816e-24
1.01728e-23
1.12733e-23
1.23955e-23
1.35071e-23
1.45682e-23
1.5531e-23
1.63414e-23
1.69407e-23
1.72692e-23
1.65565e-24
1.72862e-24
1.84012e-24
1.99158e-24
2.18552e-24
2.42538e-24
2.71545e-24
3.06078e-24
3.4671e-24
3.94066e-24
4.48807e-24
5.11595e-24
5.83054e-24
6.63715e-24
7.5394e-24
8.53835e-24
9.63143e-24
1.08113e-23
1.20644e-23
1.33701e-23
1.46993e-23
1.60138e-23
1.72663e-23
1.84008e-23
1.93541e-23
2.00581e-23
2.04433e-23
1.91815e-24
2.00426e-24
2.13594e-24
2.31495e-24
2.5444e-24
2.82848e-24
3.1724e-24
3.58228e-24
4.06501e-24
4.62813e-24
5.2795e-24
6.02699e-24
6.87792e-24
7.83842e-24
8.91251e-24
1.01011e-23
1.14006e-23
1.28019e-23
1.42884e-23
1.58352e-23
1.74075e-23
1.896e-23
2.04369e-23
2.17727e-23
2.28935e-23
2.372e-23
2.41718e-23
2.2222e-24
2.32374e-24
2.47911e-24
2.69051e-24
2.96171e-24
3.29782e-24
3.70515e-24
4.19105e-24
4.76385e-24
5.43253e-24
6.20649e-24
7.095e-24
8.10667e-24
9.24853e-24
1.05251e-23
1.19369e-23
1.34795e-23
1.51412e-23
1.6902e-23
1.8732e-23
2.05895e-23
2.24212e-23
2.41614e-23
2.5733e-23
2.705e-23
2.802e-23
2.85497e-23
2.57464e-24
2.6943e-24
2.87749e-24
3.12693e-24
3.44721e-24
3.84452e-24
4.32644e-24
4.90186e-24
5.58072e-24
6.37376e-24
7.29213e-24
8.3468e-24
9.5478e-24
1.09033e-23
1.24181e-23
1.40927e-23
1.5921e-23
1.78889e-23
1.9972e-23
2.21344e-23
2.43267e-23
2.64859e-23
2.85346e-23
3.03826e-23
3.19293e-23
3.30674e-23
3.36882e-23
2.98347e-24
3.12438e-24
3.34023e-24
3.63435e-24
4.0123e-24
4.48155e-24
5.05121e-24
5.73194e-24
6.53563e-24
7.47506e-24
8.56346e-24
9.81374e-24
1.12376e-23
1.28445e-23
1.46397e-23
1.66233e-23
1.87875e-23
2.1115e-23
2.35765e-23
2.61291e-23
2.87142e-23
3.12573e-23
3.36675e-23
3.58393e-23
3.76551e-23
3.89899e-23
3.97174e-23
3.45804e-24
3.62388e-24
3.87806e-24
4.22463e-24
4.67032e-24
5.22409e-24
5.8969e-24
6.70147e-24
7.65199e-24
8.76365e-24
1.00521e-23
1.15325e-23
1.32186e-23
1.51211e-23
1.7246e-23
1.95928e-23
2.21517e-23
2.49015e-23
2.78072e-23
3.08175e-23
3.38633e-23
3.68564e-23
3.96902e-23
4.22413e-23
4.43722e-23
4.59373e-23
4.67897e-23
4.00926e-24
4.20434e-24
4.50349e-24
4.91163e-24
5.43685e-24
6.0899e-24
6.8839e-24
7.83403e-24
8.95717e-24
1.02714e-23
1.1795e-23
1.35461e-23
1.55404e-23
1.77905e-23
2.03029e-23
2.30763e-23
2.60986e-23
2.93443e-23
3.27712e-23
3.63184e-23
3.99042e-23
4.34247e-23
4.6755e-23
4.97501e-23
5.225e-23
5.40847e-23
5.50832e-23
4.64988e-24
4.87926e-24
5.23116e-24
5.71153e-24
6.33009e-24
7.09972e-24
8.03607e-24
9.15721e-24
1.04832e-23
1.20354e-23
1.38355e-23
1.59047e-23
1.82613e-23
2.09197e-23
2.38872e-23
2.71616e-23
3.0728e-23
3.45555e-23
3.85938e-23
4.27706e-23
4.69894e-23
5.1128e-23
5.50397e-23
5.8555e-23
6.14868e-23
6.36371e-23
6.48067e-23
5.39481e-24
5.66439e-24
6.07815e-24
6.64326e-24
7.37136e-24
8.27782e-24
9.38129e-24
1.07033e-23
1.22675e-23
1.40993e-23
1.62243e-23
1.8667e-23
2.14492e-23
2.45871e-23
2.8089e-23
3.19516e-23
3.61565e-23
4.06665e-23
4.54218e-23
5.03367e-23
5.52973e-23
6.01601e-23
6.47527e-23
6.88772e-23
7.23147e-23
7.48343e-23
7.6204e-23
6.26146e-24
6.57817e-24
7.06445e-24
7.72893e-24
8.58553e-24
9.65255e-24
1.09522e-23
1.25099e-23
1.43539e-23
1.6514e-23
1.90204e-23
2.19019e-23
2.51837e-23
2.88847e-23
3.30138e-23
3.75665e-23
4.25204e-23
4.78309e-23
5.34268e-23
5.92069e-23
6.50367e-23
7.07477e-23
7.61379e-23
8.09755e-23
8.50049e-23
8.79568e-23
8.95606e-23
7.27016e-24
7.64211e-24
8.21341e-24
8.99441e-24
1.00017e-23
1.12571e-23
1.27869e-23
1.46213e-23
1.67936e-23
1.93391e-23
2.22932e-23
2.56897e-23
2.9558e-23
3.39197e-23
3.87847e-23
4.4147e-23
4.99794e-23
5.62284e-23
6.28097e-23
6.96036e-23
7.64518e-23
8.31563e-23
8.94804e-23
9.51529e-23
9.98752e-23
1.03333e-22
1.05211e-22
8.4447e-24
8.88137e-24
9.55232e-24
1.04699e-23
1.16539e-23
1.31301e-23
1.49299e-23
1.70889e-23
1.96466e-23
2.26443e-23
2.61238e-23
3.01246e-23
3.4681e-23
3.98178e-23
4.55461e-23
5.18579e-23
5.87202e-23
6.60694e-23
7.38056e-23
8.17873e-23
8.98284e-23
9.76964e-23
1.05114e-22
1.11764e-22
1.17297e-22
1.21347e-22
1.23545e-22
9.81285e-24
1.03254e-23
1.11131e-23
1.21907e-23
1.35818e-23
1.53171e-23
1.74335e-23
1.99732e-23
2.29828e-23
2.6511e-23
3.06068e-23
3.53166e-23
4.06801e-23
4.67261e-23
5.34667e-23
6.08917e-23
6.89613e-23
7.76e-23
8.66893e-23
9.60625e-23
1.05501e-22
1.14731e-22
1.23429e-22
1.31223e-22
1.37705e-22
1.42447e-22
1.45021e-22
1.14071e-23
1.20084e-23
1.29329e-23
1.41982e-23
1.58321e-23
1.78709e-23
2.03585e-23
2.33447e-23
2.68842e-23
3.10346e-23
3.58533e-23
4.13945e-23
4.77045e-23
5.48164e-23
6.27439e-23
7.14738e-23
8.09585e-23
9.11081e-23
1.01783e-22
1.12786e-22
1.2386e-22
1.34686e-22
1.44882e-22
1.54015e-22
1.61608e-22
1.6716e-22
1.70173e-22
1.32653e-23
1.39707e-23
1.50555e-23
1.65405e-23
1.84589e-23
2.08536e-23
2.37762e-23
2.72858e-23
3.14467e-23
3.63265e-23
4.19927e-23
4.85087e-23
5.59284e-23
6.429e-23
7.36086e-23
8.38679e-23
9.50107e-23
1.0693e-22
1.19462e-22
1.32374e-22
1.45364e-22
1.58057e-22
1.70008e-22
1.80707e-22
1.896e-22
1.96101e-22
1.99627e-22
1.54319e-23
1.62592e-23
1.75317e-23
1.92742e-23
2.15258e-23
2.43375e-23
2.777e-23
3.1893e-23
3.67823e-23
4.25172e-23
4.91769e-23
5.68356e-23
6.55559e-23
7.53822e-23
8.63311e-23
9.83823e-23
1.11468e-22
1.25461e-22
1.40167e-22
1.55314e-22
1.70548e-22
1.85427e-22
1.99431e-22
2.11964e-22
2.22377e-22
2.29988e-22
2.34115e-22
1.79588e-23
1.89287e-23
2.0421e-23
2.24651e-23
2.51072e-23
2.84073e-23
3.24374e-23
3.72792e-23
4.3022e-23
4.97591e-23
5.75832e-23
6.6581e-23
7.68257e-23
8.83682e-23
1.01227e-22
1.15378e-22
1.30739e-22
1.47161e-22
1.64414e-22
1.82178e-22
2.00038e-22
2.17476e-22
2.33883e-22
2.48562e-22
2.60755e-22
2.69663e-22
2.74492e-22
2.09064e-23
2.20434e-23
2.37931e-23
2.61904e-23
2.92898e-23
3.31621e-23
3.78922e-23
4.35762e-23
5.03191e-23
5.82305e-23
6.7419e-23
7.7986e-23
9.00167e-23
1.0357e-22
1.18667e-22
1.35277e-22
1.53303e-22
1.72569e-22
1.92804e-22
2.13633e-22
2.34566e-22
2.55e-22
2.74218e-22
2.91409e-22
3.05683e-22
3.1611e-22
3.21761e-22
2.43455e-23
2.56782e-23
2.77293e-23
3.05402e-23
3.41751e-23
3.87177e-23
4.42677e-23
5.09383e-23
5.88529e-23
6.814e-23
7.89271e-23
9.13324e-23
1.05455e-22
1.21364e-22
1.39083e-22
1.58573e-22
1.7972e-22
2.02316e-22
2.26043e-22
2.50459e-22
2.7499e-22
2.98929e-22
3.21438e-22
3.41567e-22
3.58277e-22
3.70481e-22
3.77093e-22
2.8359e-23
2.99207e-23
3.23248e-23
3.56198e-23
3.98819e-23
4.52094e-23
5.17197e-23
5.95459e-23
6.8833e-23
7.97316e-23
9.23911e-23
1.0695e-22
1.23524e-22
1.42192e-22
1.6298e-22
1.85843e-22
2.10645e-22
2.37141e-22
2.64955e-22
2.93569e-22
3.22311e-22
3.50353e-22
3.76713e-22
4.0028e-22
4.19839e-22
4.34121e-22
4.41858e-22
3.30436e-23
3.48734e-23
3.76905e-23
4.15525e-23
4.65489e-23
5.27955e-23
6.04303e-23
6.961e-23
8.05044e-23
9.32905e-23
1.08143e-22
1.25224e-22
1.44668e-22
1.66567e-22
1.9095e-22
2.17763e-22
2.46844e-22
2.77905e-22
3.10503e-22
3.44032e-22
3.77703e-22
4.10545e-22
4.41411e-22
4.69e-22
4.91893e-22
5.08605e-22
5.17658e-22
3.85124e-23
4.0656e-23
4.39567e-23
4.84823e-23
5.43384e-23
6.1661e-23
7.06126e-23
8.13771e-23
9.41539e-23
1.0915e-22
1.26571e-22
1.46606e-22
1.69411e-22
1.95094e-22
2.23686e-22
2.55123e-22
2.89214e-22
3.25618e-22
3.63817e-22
4.03097e-22
4.42536e-22
4.80995e-22
5.17133e-22
5.49427e-22
5.7622e-22
5.95776e-22
6.06367e-22
4.48976e-23
4.74084e-23
5.1275e-23
5.65775e-23
6.344e-23
7.20224e-23
8.25157e-23
9.51357e-23
1.10117e-22
1.27701e-22
1.48129e-22
1.71622e-22
1.98363e-22
2.28476e-22
2.61996e-22
2.98847e-22
3.38802e-22
3.8146e-22
4.26214e-22
4.72226e-22
5.18414e-22
5.63446e-22
6.05751e-22
6.43551e-22
6.74906e-22
6.97788e-22
7.10179e-22
5.23537e-23
5.52942e-23
5.98233e-23
6.60351e-23
7.40755e-23
8.41327e-23
9.64308e-23
1.11223e-22
1.28785e-22
1.494e-22
1.73349e-22
2.00891e-22
2.32239e-22
2.67538e-22
3.06828e-22
3.50016e-22
3.96835e-22
4.46814e-22
4.99238e-22
5.53127e-22
6.07213e-22
6.59935e-22
7.09457e-22
7.53697e-22
7.90387e-22
8.17161e-22
8.31656e-22
6.10614e-23
6.45049e-23
6.98092e-23
7.70851e-23
8.65043e-23
9.82877e-23
1.12698e-22
1.30034e-22
1.50616e-22
1.74779e-22
2.0285e-22
2.35132e-22
2.71875e-22
3.13245e-22
3.59288e-22
4.09893e-22
4.64746e-22
5.23293e-22
5.84694e-22
6.47801e-22
7.11127e-22
7.72846e-22
8.3081e-22
8.82584e-22
9.25517e-22
9.56841e-22
9.73798e-22
7.12318e-23
7.52638e-23
8.14753e-23
8.99966e-23
1.01029e-22
1.14833e-22
1.31717e-22
1.52029e-22
1.76148e-22
2.04463e-22
2.37359e-22
2.7519e-22
3.18247e-22
3.66724e-22
4.20671e-22
4.79958e-22
5.44213e-22
6.12786e-22
6.84692e-22
7.58584e-22
8.32721e-22
9.04967e-22
9.72807e-22
1.03339e-21
1.08363e-21
1.12027e-21
1.14011e-21
8.3112e-23
8.78326e-23
9.51057e-23
1.05084e-22
1.18006e-22
1.34174e-22
1.53952e-22
1.77748e-22
2.06005e-22
2.39182e-22
2.77726e-22
3.22052e-22
3.725e-22
4.29293e-22
4.92492e-22
5.61939e-22
6.37198e-22
7.17503e-22
8.01701e-22
8.88212e-22
9.74998e-22
1.05956e-21
1.13895e-21
1.20985e-21
1.26862e-21
1.31149e-21
1.3347e-21
9.69905e-23
1.02517e-22
1.11032e-22
1.22716e-22
1.37847e-22
1.56783e-22
1.79947e-22
2.07822e-22
2.40923e-22
2.79788e-22
3.24943e-22
3.76871e-22
4.35968e-22
5.02496e-22
5.76522e-22
6.57859e-22
7.45994e-22
8.40027e-22
9.38607e-22
1.03988e-21
1.14147e-21
1.24043e-21
1.33334e-21
1.41629e-21
1.48506e-21
1.53521e-21
1.56235e-21
1.13205e-22
1.19674e-22
1.29642e-22
1.43322e-22
1.61039e-22
1.83212e-22
2.10341e-22
2.42987e-22
2.81758e-22
3.27281e-22
3.80173e-22
4.40997e-22
5.10217e-22
5.88137e-22
6.74833e-22
7.70082e-22
8.73284e-22
9.8338e-22
1.09879e-21
1.21734e-21
1.33623e-21
1.45205e-21
1.56077e-21
1.65782e-21
1.73827e-21
1.79694e-21
1.82869e-21
1.3215e-22
1.39722e-22
1.5139e-22
1.67404e-22
1.88147e-22
2.14109e-22
2.45876e-22
2.84107e-22
3.29512e-22
3.82827e-22
4.44772e-22
5.16008e-22
5.97074e-22
6.88324e-22
7.89846e-22
9.01376e-22
1.02221e-21
1.1511e-21
1.28619e-21
1.42495e-21
1.56409e-21
1.69963e-21
1.82683e-21
1.94039e-21
2.0345e-21
2.10313e-21
2.14026e-21
1.54286e-22
1.63148e-22
1.76806e-22
1.95552e-22
2.19834e-22
2.5023e-22
2.87425e-22
3.3219e-22
3.85358e-22
4.47791e-22
5.2033e-22
6.03748e-22
6.98676e-22
8.05525e-22
9.24395e-22
1.05497e-21
1.19643e-21
1.34731e-21
1.50543e-21
1.66783e-21
1.83067e-21
1.98926e-21
2.13809e-21
2.27094e-21
2.38103e-21
2.46131e-21
2.50475e-21
1.80153e-22
1.90525e-22
2.0651e-22
2.28452e-22
2.56876e-22
2.92459e-22
3.36004e-22
3.88414e-22
4.50667e-22
5.23768e-22
6.08705e-22
7.06378e-22
8.17525e-22
9.42626e-22
1.08179e-21
1.23466e-21
1.40025e-21
1.57685e-21
1.76192e-21
1.95197e-21
2.14252e-21
2.32808e-21
2.50221e-21
2.65763e-21
2.78641e-21
2.88031e-21
2.93111e-21
2.10382e-22
2.2252e-22
2.41228e-22
2.66908e-22
3.00177e-22
3.41829e-22
3.92804e-22
4.5416e-22
5.27041e-22
6.12626e-22
7.12067e-22
8.2642e-22
9.56545e-22
1.103e-21
1.26592e-21
1.44486e-21
1.63868e-21
1.84537e-21
2.06196e-21
2.28436e-21
2.50732e-21
2.72444e-21
2.92815e-21
3.10996e-21
3.26061e-21
3.37044e-21
3.42985e-21
2.4571e-22
2.59913e-22
2.81806e-22
3.1186e-22
3.50798e-22
3.9955e-22
4.59217e-22
5.3104e-22
6.16356e-22
7.16546e-22
8.32958e-22
9.66826e-22
1.11916e-21
1.29059e-21
1.48129e-21
1.69074e-21
1.91759e-21
2.15949e-21
2.41294e-21
2.67318e-21
2.93406e-21
3.18807e-21
3.4264e-21
3.63907e-21
3.81528e-21
3.94374e-21
4.01324e-21
2.86998e-22
3.03617e-22
3.29236e-22
3.64406e-22
4.09976e-22
4.67034e-22
5.3687e-22
6.20938e-22
7.20804e-22
8.3808e-22
9.74349e-22
1.13105e-21
1.30935e-21
1.51002e-21
1.73323e-21
1.97836e-21
2.24384e-21
2.52692e-21
2.82351e-21
3.12801e-21
3.43323e-21
3.73041e-21
4.0092e-21
4.25798e-21
4.46409e-21
4.61433e-21
4.69561e-21
3.35254e-22
3.547e-22
3.84677e-22
4.25832e-22
4.7916e-22
5.45935e-22
6.27668e-22
7.26061e-22
8.42947e-22
9.80214e-22
1.13971e-21
1.32312e-21
1.53182e-21
1.76668e-21
2.02791e-21
2.31479e-21
2.62547e-21
2.95672e-21
3.30375e-21
3.66002e-21
4.01712e-21
4.36477e-21
4.6909e-21
4.9819e-21
5.22297e-21
5.39869e-21
5.49375e-21
3.91657e-22
4.1441e-22
4.49484e-22
4.9764e-22
5.60043e-22
6.38184e-22
7.33834e-22
8.48986e-22
9.85783e-22
1.14644e-21
1.33311e-21
1.54777e-21
1.79202e-21
2.06688e-21
2.37259e-21
2.70831e-21
3.07185e-21
3.45945e-21
3.86549e-21
4.28231e-21
4.70008e-21
5.10676e-21
5.48825e-21
5.82862e-21
6.11058e-21
6.3161e-21
6.42727e-21
4.57585e-22
4.84204e-22
5.25242e-22
5.81587e-22
6.54604e-22
7.46042e-22
8.57972e-22
9.92728e-22
1.15282e-21
1.34083e-21
1.55929e-21
1.81051e-21
2.09634e-21
2.418e-21
2.77575e-21
3.16859e-21
3.59397e-21
4.04748e-21
4.52254e-21
5.01018e-21
5.49889e-21
5.97462e-21
6.42085e-21
6.81897e-21
7.14874e-21
7.38911e-21
7.51911e-21
5.34648e-22
5.6579e-22
6.13802e-22
6.79726e-22
7.6516e-22
8.72151e-22
1.00313e-21
1.16081e-21
1.34815e-21
1.56817e-21
1.82382e-21
2.11779e-21
2.45228e-21
2.82868e-21
3.24729e-21
3.70694e-21
4.20466e-21
4.73525e-21
5.29103e-21
5.86151e-21
6.43321e-21
6.98968e-21
7.51163e-21
7.97727e-21
8.36296e-21
8.64406e-21
8.7961e-21
6.24729e-22
6.61162e-22
7.17332e-22
7.94459e-22
8.94417e-22
1.0196e-21
1.17285e-21
1.35736e-21
1.57657e-21
1.83403e-21
2.13318e-21
2.47717e-21
2.86856e-21
3.30899e-21
3.79879e-21
4.3366e-21
4.91892e-21
5.53968e-21
6.18988e-21
6.85722e-21
7.52597e-21
8.17688e-21
8.78737e-21
9.33197e-21
9.78305e-21
1.01118e-20
1.02896e-20
7.30032e-22
7.72652e-22
8.38363e-22
9.28595e-22
1.04554e-21
1.192e-21
1.37131e-21
1.5872e-21
1.84369e-21
2.14493e-21
2.49497e-21
2.89747e-21
3.35543e-21
3.87075e-21
4.44382e-21
5.07305e-21
5.75432e-21
6.48054e-21
7.24115e-21
8.02179e-21
8.80404e-21
9.56538e-21
1.02794e-20
1.09164e-20
1.14439e-20
1.18284e-20
1.20363e-20
8.5313e-22
9.02986e-22
9.79857e-22
1.08542e-21
1.22223e-21
1.39358e-21
1.60337e-21
1.85595e-21
2.15606e-21
2.50852e-21
2.91807e-21
3.38901e-21
3.92483e-21
4.52775e-21
5.19822e-21
5.93436e-21
6.73137e-21
7.58092e-21
8.47068e-21
9.38382e-21
1.02988e-20
1.11893e-20
1.20244e-20
1.27693e-20
1.33863e-20
1.38359e-20
1.4079e-20
9.97033e-22
1.05535e-21
1.14528e-21
1.26876e-21
1.42882e-21
1.62928e-21
1.87471e-21
2.17023e-21
2.52134e-21
2.93371e-21
3.41287e-21
3.96386e-21
4.59074e-21
5.29612e-21
6.08052e-21
6.94171e-21
7.87407e-21
8.86787e-21
9.90866e-21
1.09768e-20
1.2047e-20
1.30885e-20
1.40652e-20
1.49364e-20
1.56579e-20
1.61837e-20
1.6468e-20
1.16526e-21
1.23348e-21
1.33867e-21
1.48312e-21
1.67036e-21
1.90487e-21
2.19199e-21
2.53772e-21
2.94849e-21
3.43093e-21
3.99152e-21
4.63613e-21
5.36953e-21
6.19474e-21
7.11238e-21
8.11983e-21
9.21049e-21
1.0373e-20
1.15904e-20
1.28397e-20
1.40914e-20
1.53096e-20
1.64518e-20
1.74707e-20
1.83144e-20
1.89293e-20
1.92618e-20
1.36194e-21
1.44173e-21
1.56477e-21
1.73375e-21
1.95277e-21
2.22711e-21
2.56299e-21
2.96744e-21
3.44799e-21
4.01239e-21
4.66822e-21
5.42233e-21
6.28031e-21
7.24568e-21
8.31914e-21
9.49763e-21
1.07734e-20
1.21332e-20
1.35572e-20
1.50184e-20
1.64824e-20
1.79071e-20
1.9243e-20
2.04345e-20
2.14212e-20
2.21401e-20
2.25289e-20
1.59186e-21
1.6852e-21
1.82912e-21
2.02677e-21
2.28297e-21
2.60389e-21
2.99681e-21
3.46994e-21
4.0321e-21
4.69236e-21
5.45957e-21
6.34175e-21
7.34543e-21
8.47472e-21
9.73042e-21
1.1109e-20
1.26013e-20
1.41918e-20
1.58573e-20
1.75664e-20
1.92786e-20
2.09447e-20
2.2507e-20
2.39004e-20
2.50542e-20
2.5895e-20
2.63496e-20
1.86067e-21
1.96984e-21
2.13818e-21
2.36938e-21
2.66906e-21
3.04444e-21
3.50407e-21
4.05752e-21
4.71514e-21
5.48751e-21
6.38498e-21
7.41696e-21
8.59103e-21
9.91203e-21
1.13809e-20
1.29934e-20
1.47389e-20
1.65992e-20
1.85472e-20
2.0546e-20
2.25485e-20
2.4497e-20
2.63241e-20
2.79535e-20
2.93028e-20
3.02859e-20
3.08175e-20
2.17494e-21
2.30263e-21
2.49953e-21
2.76995e-21
3.12048e-21
3.55957e-21
4.09721e-21
4.74461e-21
5.51386e-21
6.41735e-21
7.46718e-21
8.67433e-21
1.00477e-20
1.15929e-20
1.3311e-20
1.51971e-20
1.72387e-20
1.94146e-20
2.16929e-20
2.40306e-20
2.63725e-20
2.86512e-20
3.07878e-20
3.26932e-20
3.4271e-20
3.54206e-20
3.60422e-20
2.54236e-21
2.69171e-21
2.92201e-21
3.2383e-21
3.64831e-21
4.1619e-21
4.79077e-21
5.54805e-21
6.44785e-21
7.50469e-21
8.7327e-21
1.01447e-20
1.17512e-20
1.35585e-20
1.55681e-20
1.77742e-20
2.01621e-20
2.27069e-20
2.53715e-20
2.81055e-20
3.08442e-20
3.3509e-20
3.60075e-20
3.82357e-20
4.00806e-20
4.14248e-20
4.21517e-20
2.97193e-21
3.14661e-21
3.41597e-21
3.78591e-21
4.26547e-21
4.86619e-21
5.60176e-21
6.48754e-21
7.54002e-21
8.77619e-21
1.02126e-20
1.18642e-20
1.37432e-20
1.58572e-20
1.82077e-20
2.07879e-20
2.35808e-20
2.6557e-20
2.96733e-20
3.28706e-20
3.60734e-20
3.91897e-20
4.21113e-20
4.47168e-20
4.68741e-20
4.84459e-20
4.92957e-20
3.47417e-21
3.67846e-21
3.9935e-21
4.42618e-21
4.98708e-21
5.6897e-21
6.55006e-21
7.5861e-21
8.81715e-21
1.0263e-20
1.19431e-20
1.3875e-20
1.60727e-20
1.85453e-20
2.12944e-20
2.43121e-20
2.75785e-20
3.10593e-20
3.47037e-20
3.84428e-20
4.21883e-20
4.58324e-20
4.92488e-20
5.22954e-20
5.48179e-20
5.66558e-20
5.76494e-20
4.06137e-21
4.3003e-21
4.66875e-21
5.1748e-21
5.83082e-21
6.65262e-21
7.6589e-21
8.87068e-21
1.03106e-20
1.20017e-20
1.39668e-20
1.62263e-20
1.87968e-20
2.16887e-20
2.4904e-20
2.84334e-20
3.22535e-20
3.63242e-20
4.05862e-20
4.49588e-20
4.93387e-20
5.35999e-20
5.75948e-20
6.11572e-20
6.41067e-20
6.62556e-20
6.74174e-20
4.74791e-21
5.02734e-21
5.45826e-21
6.05012e-21
6.81737e-21
7.77853e-21
8.95546e-21
1.03728e-20
1.20568e-20
1.40348e-20
1.63332e-20
1.89759e-20
2.19822e-20
2.53645e-20
2.9125e-20
3.32526e-20
3.77201e-20
4.24807e-20
4.74648e-20
5.25781e-20
5.76998e-20
6.26826e-20
6.73539e-20
7.15193e-20
7.4968e-20
7.74805e-20
7.88389e-20
5.5506e-21
5.8774e-21
6.38137e-21
7.07356e-21
7.9709e-21
9.09503e-21
1.04715e-20
1.21292e-20
1.40988e-20
1.64122e-20
1.91003e-20
2.21911e-20
2.57072e-20
2.96629e-20
3.40608e-20
3.8888e-20
4.41126e-20
4.96798e-20
5.55082e-20
6.14876e-20
6.74766e-20
7.3303e-20
7.87651e-20
8.36355e-20
8.76677e-20
9.06053e-20
9.21935e-20
6.48909e-21
6.87129e-21
7.46068e-21
8.27021e-21
9.31968e-21
1.06344e-20
1.22443e-20
1.4183e-20
1.64866e-20
1.91922e-20
2.23361e-20
2.59508e-20
3.0063e-20
3.46892e-20
3.98324e-20
4.54777e-20
5.15876e-20
5.80979e-20
6.49135e-20
7.19054e-20
7.89085e-20
8.57212e-20
9.21078e-20
9.78024e-20
1.02517e-19
1.05951e-19
1.07808e-19
7.58637e-21
8.03334e-21
8.72263e-21
9.66938e-21
1.08967e-20
1.24343e-20
1.43171e-20
1.65845e-20
1.92786e-20
2.24429e-20
2.61197e-20
3.03472e-20
3.51564e-20
4.05666e-20
4.65814e-20
5.31832e-20
6.03281e-20
6.79411e-20
7.5911e-20
8.40868e-20
9.22755e-20
1.00241e-19
1.07709e-19
1.14367e-19
1.19879e-19
1.23894e-19
1.26065e-19
8.86931e-21
9.39203e-21
1.01981e-20
1.13053e-20
1.27407e-20
1.45389e-20
1.67408e-20
1.93925e-20
2.25433e-20
2.6244e-20
3.0544e-20
3.5488e-20
4.11122e-20
4.74393e-20
5.44731e-20
6.21933e-20
7.05485e-20
7.94508e-20
8.87702e-20
9.83301e-20
1.07905e-19
1.17219e-19
1.2595e-19
1.33734e-19
1.40179e-19
1.44873e-19
1.47411e-19
1.03693e-20
1.09806e-20
1.19233e-20
1.32182e-20
1.48968e-20
1.69997e-20
1.95749e-20
2.2676e-20
2.63608e-20
3.06887e-20
3.57174e-20
4.14992e-20
4.80764e-20
5.54754e-20
6.37009e-20
7.27287e-20
8.24989e-20
9.29087e-20
1.03806e-19
1.14984e-19
1.26179e-19
1.37069e-19
1.47277e-19
1.56378e-19
1.63913e-19
1.69401e-19
1.72368e-19
1.21231e-20
1.2838e-20
1.39404e-20
1.54547e-20
1.74178e-20
1.98771e-20
2.28886e-20
2.65152e-20
3.08245e-20
3.58858e-20
4.17666e-20
4.85281e-20
5.62196e-20
6.48721e-20
7.44908e-20
8.50476e-20
9.64722e-20
1.08644e-19
1.21386e-19
1.34456e-19
1.47546e-19
1.60278e-19
1.72213e-19
1.82853e-19
1.91661e-19
1.98078e-19
2.01546e-19
1.41737e-20
1.50097e-20
1.62989e-20
1.80697e-20
2.03654e-20
2.32415e-20
2.67633e-20
3.10044e-20
3.60439e-20
4.19627e-20
4.88399e-20
5.67469e-20
6.57413e-20
7.58593e-20
8.71071e-20
9.94514e-20
1.1281e-19
1.27043e-19
1.41941e-19
1.57223e-19
1.72527e-19
1.87413e-19
2.01366e-19
2.13806e-19
2.24104e-19
2.31605e-19
2.35659e-19
1.65712e-20
1.75488e-20
1.90565e-20
2.11273e-20
2.3812e-20
2.71752e-20
3.12937e-20
3.62534e-20
4.21467e-20
4.90683e-20
5.71105e-20
6.63569e-20
7.68747e-20
8.87063e-20
1.01859e-19
1.16293e-19
1.31913e-19
1.48555e-19
1.65974e-19
1.83842e-19
2.01734e-19
2.19138e-19
2.35451e-19
2.49994e-19
2.62032e-19
2.70801e-19
2.75541e-19
1.93744e-20
2.05176e-20
2.22807e-20
2.47023e-20
2.78418e-20
3.17748e-20
3.6591e-20
4.23909e-20
4.92825e-20
5.73766e-20
6.6781e-20
7.75935e-20
8.98925e-20
1.03727e-19
1.19107e-19
1.35985e-19
1.54249e-19
1.73706e-19
1.94073e-19
2.14963e-19
2.35882e-19
2.56229e-19
2.75299e-19
2.923e-19
3.06373e-19
3.16624e-19
3.22165e-19
2.26519e-20
2.39888e-20
2.60504e-20
2.88822e-20
3.25535e-20
3.71528e-20
4.27848e-20
4.95672e-20
5.7626e-20
6.7091e-20
7.80882e-20
9.07317e-20
1.05113e-19
1.21291e-19
1.39273e-19
1.59008e-19
1.80363e-19
2.03113e-19
2.26925e-19
2.51348e-19
2.75805e-19
2.99591e-19
3.21885e-19
3.4176e-19
3.58211e-19
3.70193e-19
3.7667e-19
2.64839e-20
2.80472e-20
3.0458e-20
3.37695e-20
3.80626e-20
4.34409e-20
5.00268e-20
5.79579e-20
6.73816e-20
7.84496e-20
9.1309e-20
1.06093e-19
1.2291e-19
1.41826e-19
1.62852e-19
1.85926e-19
2.10895e-19
2.37493e-19
2.65333e-19
2.93886e-19
3.22478e-19
3.50285e-19
3.76347e-19
3.9958e-19
4.1881e-19
4.32817e-19
4.40388e-19
3.09643e-20
3.27923e-20
3.56115e-20
3.94837e-20
4.45039e-20
5.0793e-20
5.84944e-20
6.77685e-20
7.87881e-20
9.17302e-20
1.06767e-19
1.24054e-19
1.43718e-19
1.65835e-19
1.9042e-19
2.17399e-19
2.46591e-19
2.77688e-19
3.10236e-19
3.43617e-19
3.77042e-19
4.09549e-19
4.40015e-19
4.67173e-19
4.89651e-19
5.06023e-19
5.14872e-19
3.62027e-20
3.83402e-20
4.16368e-20
4.61648e-20
5.20351e-20
5.93893e-20
6.83947e-20
7.92393e-20
9.21248e-20
1.07258e-19
1.24841e-19
1.45054e-19
1.68046e-19
1.93906e-19
2.22651e-19
2.54194e-19
2.88324e-19
3.24681e-19
3.62732e-19
4.01755e-19
4.40829e-19
4.7883e-19
5.14442e-19
5.46187e-19
5.72462e-19
5.91598e-19
6.01941e-19
4.23273e-20
4.48268e-20
4.86815e-20
5.39763e-20
6.08406e-20
6.944e-20
7.99702e-20
9.2651e-20
1.07718e-19
1.25413e-19
1.45972e-19
1.69607e-19
1.96489e-19
2.26726e-19
2.60333e-19
2.97212e-19
3.37114e-19