/*--------------------------------*- C++ -*----------------------------------*\
| =========                 |                                                 |
| \\      /  F ield         | OpenFOAM: The Open Source CFD Toolbox           |
|  \\    /   O peration     | Version:  2212                                  |
|   \\  /    A nd           | Website:  www.openfoam.com                      |
|    \\/     M anipulation  |                                                 |
\*---------------------------------------------------------------------------*/
FoamFile
{
    version     2.0;
    format      ascii;
    arch        "LSB;label=32;scalar=64";
    class       volScalarField;
    location    "9.0545968";
    object      C4H61_0;
}
// * * * * * * * * * * * * * * * * * * * * * * * * * * * * * * * * * * * * * //

dimensions      [0 0 0 0 0 0 0];

internalField   nonuniform List<scalar> 
33600
(
4.73145e-28
4.869e-28
5.07674e-28
5.3542e-28
5.70197e-28
6.12131e-28
6.61404e-28
7.18233e-28
7.82867e-28
8.55572e-28
9.36616e-28
1.02626e-27
1.12475e-27
1.23227e-27
1.34896e-27
1.47488e-27
1.60997e-27
1.75404e-27
1.90673e-27
2.06747e-27
2.23541e-27
2.40937e-27
2.58764e-27
2.76738e-27
2.9429e-27
3.10133e-27
3.21091e-27
1.52691e-27
1.57144e-27
1.63871e-27
1.72855e-27
1.84117e-27
1.97697e-27
2.13655e-27
2.32063e-27
2.53002e-27
2.76559e-27
3.02822e-27
3.31879e-27
3.63807e-27
3.98673e-27
4.36522e-27
4.77374e-27
5.21215e-27
5.67985e-27
6.17568e-27
6.69779e-27
7.2435e-27
7.80916e-27
8.38982e-27
8.97913e-27
9.56564e-27
1.01284e-26
1.05788e-26
2.80936e-27
2.8918e-27
3.01632e-27
3.18262e-27
3.39109e-27
3.64252e-27
3.93803e-27
4.27897e-27
4.66687e-27
5.10341e-27
5.59026e-27
6.12908e-27
6.72141e-27
7.36854e-27
8.07148e-27
8.83076e-27
9.64636e-27
1.05176e-26
1.14429e-26
1.242e-26
1.34454e-26
1.45149e-26
1.56226e-26
1.67599e-26
1.7904e-26
1.8998e-26
1.98314e-26
4.34947e-27
4.47819e-27
4.67258e-27
4.93222e-27
5.25775e-27
5.65043e-27
6.11208e-27
6.64486e-27
7.25129e-27
7.93405e-27
8.69592e-27
9.53964e-27
1.04678e-26
1.14829e-26
1.25866e-26
1.37806e-26
1.50654e-26
1.64413e-26
1.79073e-26
1.94621e-26
2.11033e-26
2.28271e-26
2.46258e-26
2.64814e-26
2.83419e-26
3.00756e-26
3.13184e-26
6.17924e-27
6.36402e-27
6.64308e-27
7.01585e-27
7.48331e-27
8.04738e-27
8.71075e-27
9.47673e-27
1.03491e-26
1.13319e-26
1.24295e-26
1.36461e-26
1.49862e-26
1.64537e-26
1.80522e-26
1.97852e-26
2.16553e-26
2.36646e-26
2.58148e-26
2.81066e-26
3.05391e-26
3.31075e-26
3.57954e-26
3.85612e-26
4.1296e-26
4.37582e-26
4.54289e-26
8.33438e-27
8.58668e-27
8.96771e-27
9.47678e-27
1.01154e-26
1.08862e-26
1.17933e-26
1.28413e-26
1.40358e-26
1.53829e-26
1.6889e-26
1.85607e-26
2.0405e-26
2.24285e-26
2.46379e-26
2.70398e-26
2.96404e-26
3.24456e-26
3.54606e-26
3.86888e-26
4.2129e-26
4.57697e-26
4.9575e-26
5.34586e-26
5.72281e-26
6.05119e-26
6.2643e-26
1.08552e-26
1.11884e-26
1.16916e-26
1.23641e-26
1.3208e-26
1.42274e-26
1.54277e-26
1.68157e-26
1.83994e-26
2.01875e-26
2.21896e-26
2.44158e-26
2.68766e-26
2.95832e-26
3.25467e-26
3.57786e-26
3.92904e-26
4.30932e-26
4.71962e-26
5.16042e-26
5.63116e-26
6.12911e-26
6.64708e-26
7.16978e-26
7.66744e-26
8.08867e-26
8.35276e-26
1.37874e-26
1.42171e-26
1.48662e-26
1.5734e-26
1.68235e-26
1.81405e-26
1.96926e-26
2.14894e-26
2.35421e-26
2.58633e-26
2.84669e-26
3.13679e-26
3.45823e-26
3.81272e-26
4.20204e-26
4.62803e-26
5.09254e-26
5.59724e-26
6.14343e-26
6.73138e-26
7.35938e-26
8.02186e-26
8.70626e-26
9.38849e-26
1.00264e-25
1.05535e-25
1.08753e-25
1.71836e-26
1.77281e-26
1.85508e-26
1.96512e-26
2.10338e-26
2.27063e-26
2.46796e-26
2.6967e-26
2.95842e-26
3.25489e-26
3.58811e-26
3.96025e-26
4.37368e-26
4.83092e-26
5.33464e-26
5.88756e-26
6.49235e-26
7.15129e-26
7.86578e-26
8.63542e-26
9.45631e-26
1.03186e-25
1.12024e-25
1.20728e-25
1.28736e-25
1.35226e-25
1.39105e-25
2.11045e-26
2.17852e-26
2.2814e-26
2.4191e-26
2.59223e-26
2.8019e-26
3.04958e-26
3.33711e-26
3.66667e-26
4.04073e-26
4.46211e-26
4.93388e-26
5.4594e-26
6.04231e-26
6.68636e-26
7.39537e-26
8.17289e-26
9.02172e-26
9.94301e-26
1.09349e-25
1.19901e-25
1.30928e-25
1.4214e-25
1.53058e-25
1.62963e-25
1.70862e-25
1.75508e-25
2.56202e-26
2.64622e-26
2.77353e-26
2.94404e-26
3.15865e-26
3.41884e-26
3.72664e-26
4.08455e-26
4.49555e-26
4.96307e-26
5.49096e-26
6.0835e-26
6.74536e-26
7.48152e-26
8.29711e-26
9.1972e-26
1.01862e-25
1.12673e-25
1.24408e-25
1.37025e-25
1.50403e-25
1.64306e-25
1.7833e-25
1.91849e-25
2.03966e-25
2.13504e-25
2.19042e-25
3.08124e-26
3.18451e-26
3.34075e-26
3.55016e-26
3.814e-26
4.1343e-26
4.5138e-26
4.95587e-26
5.46455e-26
6.04447e-26
6.70087e-26
7.43955e-26
8.2668e-26
9.18929e-26
1.02138e-25
1.13467e-25
1.25933e-25
1.39568e-25
1.54359e-25
1.70229e-25
1.86995e-25
2.04322e-25
2.21671e-25
2.38244e-25
2.52947e-25
2.64396e-25
2.70975e-25
3.67762e-26
3.80342e-26
3.99386e-26
4.24934e-26
4.57158e-26
4.96335e-26
5.42827e-26
5.97089e-26
6.59657e-26
7.3115e-26
8.12267e-26
9.03778e-26
1.00651e-25
1.12134e-25
1.24913e-25
1.39066e-25
1.54655e-25
1.71704e-25
1.90179e-25
2.09953e-25
2.30762e-25
2.52153e-25
2.73425e-25
2.93584e-25
3.11313e-25
3.24996e-25
3.32792e-25
4.36227e-26
4.51466e-26
4.7455e-26
5.05548e-26
5.44696e-26
5.92359e-26
6.49022e-26
7.15282e-26
7.91847e-26
8.79532e-26
9.79253e-26
1.09202e-25
1.2189e-25
1.36101e-25
1.51941e-25
1.69506e-25
1.88861e-25
2.10019e-25
2.32914e-25
2.57355e-25
2.82975e-25
3.09176e-25
3.35072e-25
3.59442e-25
3.80715e-25
3.97011e-25
4.06231e-25
5.14814e-26
5.33188e-26
5.61042e-26
5.98485e-26
6.45832e-26
7.03568e-26
7.72326e-26
8.52888e-26
9.46175e-26
1.05325e-25
1.17529e-25
1.31359e-25
1.46953e-25
1.64448e-25
1.83976e-25
2.05647e-25
2.29527e-25
2.55613e-25
2.83792e-25
3.1379e-25
3.45118e-25
3.77005e-25
4.08347e-25
4.37661e-25
4.63089e-25
4.82443e-25
4.93331e-25
6.05036e-26
6.27106e-26
6.60588e-26
7.05645e-26
7.62698e-26
8.32377e-26
9.15507e-26
1.0131e-25
1.12634e-25
1.25658e-25
1.40535e-25
1.57428e-25
1.76509e-25
1.97947e-25
2.21901e-25
2.48495e-25
2.77795e-25
3.09769e-25
3.44244e-25
3.80845e-25
4.18932e-25
4.57532e-25
4.95283e-25
5.30403e-25
5.607e-25
5.83638e-25
5.96477e-25
7.0866e-26
7.35083e-26
7.75204e-26
8.29253e-26
8.97784e-26
9.81615e-26
1.0818e-25
1.19964e-25
1.33665e-25
1.49456e-25
1.67527e-25
1.88083e-25
2.11338e-25
2.37498e-25
2.6675e-25
2.99231e-25
3.35001e-25
3.73991e-25
4.1595e-25
4.60379e-25
5.06457e-25
5.5297e-25
5.9826e-25
6.40198e-25
6.76204e-25
7.03341e-25
7.18467e-25
8.27749e-26
8.593e-26
9.07246e-26
9.71907e-26
1.05401e-25
1.15459e-25
1.27501e-25
1.41691e-25
1.5822e-25
1.77305e-25
1.99186e-25
2.24117e-25
2.52357e-25
2.84156e-25
3.19732e-25
3.59234e-25
4.0271e-25
4.50039e-25
5.00877e-25
5.54569e-25
6.10081e-25
6.65917e-25
7.20072e-25
7.70011e-25
8.12713e-25
8.44769e-25
8.62574e-25
9.64716e-26
1.0023e-25
1.05947e-25
1.13665e-25
1.23477e-25
1.35517e-25
1.49956e-25
1.67e-25
1.8689e-25
2.09895e-25
2.36313e-25
2.66455e-25
3.00637e-25
3.39156e-25
3.82263e-25
4.30121e-25
4.82752e-25
5.39975e-25
6.01324e-25
6.65964e-25
7.32602e-25
7.99413e-25
8.63985e-25
9.23318e-25
9.7387e-25
1.01169e-24
1.03263e-24
1.12238e-25
1.16706e-25
1.23508e-25
1.32702e-25
1.44407e-25
1.58789e-25
1.76065e-25
1.96492e-25
2.20369e-25
2.48031e-25
2.79842e-25
3.16183e-25
3.57433e-25
4.03944e-25
4.56003e-25
5.13781e-25
5.77272e-25
6.46211e-25
7.19989e-25
7.97549e-25
8.77298e-25
9.57019e-25
1.03383e-24
1.10419e-24
1.16394e-24
1.20852e-24
1.23313e-24
1.30402e-25
1.35706e-25
1.43786e-25
1.54719e-25
1.68655e-25
1.85805e-25
2.06436e-25
2.30868e-25
2.59471e-25
2.92657e-25
3.3087e-25
3.7457e-25
4.24214e-25
4.80212e-25
5.42892e-25
6.1243e-25
6.88779e-25
7.71574e-25
8.60027e-25
9.52822e-25
1.04801e-24
1.14291e-24
1.23409e-24
1.31738e-24
1.38793e-24
1.44042e-24
1.46934e-24
1.51348e-25
1.57634e-25
1.67218e-25
1.802e-25
1.96767e-25
2.17183e-25
2.41778e-25
2.70948e-25
3.05146e-25
3.44876e-25
3.90676e-25
4.43104e-25
5.02697e-25
5.69941e-25
6.45202e-25
7.2866e-25
8.20213e-25
9.19371e-25
1.02513e-24
1.13588e-24
1.24922e-24
1.36196e-24
1.47002e-24
1.56848e-24
1.65167e-24
1.71344e-24
1.7474e-24
1.75525e-25
1.82966e-25
1.94319e-25
2.09712e-25
2.2938e-25
2.53647e-25
2.82923e-25
3.17691e-25
3.58506e-25
4.05979e-25
4.60763e-25
5.23522e-25
5.94897e-25
6.75449e-25
7.65594e-25
8.65505e-25
9.75014e-25
1.09348e-24
1.21964e-24
1.35151e-24
1.48621e-24
1.6199e-24
1.74777e-24
1.86401e-24
1.96204e-24
2.03466e-24
2.07452e-24
2.03457e-25
2.12255e-25
2.25688e-25
2.43918e-25
2.67237e-25
2.96045e-25
3.30842e-25
3.7222e-25
4.20852e-25
4.77478e-25
5.42884e-25
6.17861e-25
7.03167e-25
7.99452e-25
9.07181e-25
1.02652e-24
1.15721e-24
1.29843e-24
1.44861e-24
1.60533e-24
1.76512e-24
1.92343e-24
2.07453e-24
2.21164e-24
2.32703e-24
2.41238e-24
2.45915e-24
2.35756e-25
2.46147e-25
2.62025e-25
2.83592e-25
3.11209e-25
3.45366e-25
3.86672e-25
4.35847e-25
4.93706e-25
5.61142e-25
6.39093e-25
7.28504e-25
8.30264e-25
9.45126e-25
1.07361e-24
1.21586e-24
1.37152e-24
1.53953e-24
1.71798e-24
1.90391e-24
2.09319e-24
2.28038e-24
2.45874e-24
2.6203e-24
2.75605e-24
2.8563e-24
2.91117e-24
2.73136e-25
2.85398e-25
3.04149e-25
3.2964e-25
3.62314e-25
4.02767e-25
4.51742e-25
5.10108e-25
5.7885e-25
6.59038e-25
7.51795e-25
8.58238e-25
9.79413e-25
1.11619e-24
1.26914e-24
1.4384e-24
1.62346e-24
1.823e-24
2.03469e-24
2.25496e-24
2.47885e-24
2.69993e-24
2.91026e-24
3.10048e-24
3.26008e-24
3.37779e-24
3.44212e-24
3.16432e-25
3.30892e-25
3.53017e-25
3.83119e-25
4.21739e-25
4.69602e-25
5.27605e-25
5.96798e-25
6.78365e-25
7.73587e-25
8.838e-25
1.01033e-24
1.15439e-24
1.31699e-24
1.49878e-24
1.69983e-24
1.91949e-24
2.15613e-24
2.40688e-24
2.66747e-24
2.93199e-24
3.19284e-24
3.44064e-24
3.66445e-24
3.85199e-24
3.99013e-24
4.06556e-24
3.6662e-25
3.83658e-25
4.09745e-25
4.45265e-25
4.90874e-25
5.47451e-25
6.16078e-25
6.98018e-25
7.94689e-25
9.0762e-25
1.0384e-24
1.18859e-24
1.35961e-24
1.55263e-24
1.76836e-24
2.00682e-24
2.26718e-24
2.54741e-24
2.84406e-24
3.15199e-24
3.46419e-24
3.77167e-24
4.0634e-24
4.32657e-24
4.54683e-24
4.7089e-24
4.7973e-24
4.24837e-25
4.44903e-25
4.7564e-25
5.17523e-25
5.71344e-25
6.38165e-25
7.19287e-25
8.16224e-25
9.30671e-25
1.06445e-24
1.21944e-24
1.39748e-24
1.60025e-24
1.82907e-24
2.08472e-24
2.36719e-24
2.67539e-24
3.00683e-24
3.35736e-24
3.72086e-24
4.08899e-24
4.45114e-24
4.79437e-24
5.10364e-24
5.36222e-24
5.5523e-24
5.6559e-24
4.92416e-25
5.16032e-25
5.52228e-25
6.0158e-25
6.65047e-25
7.43905e-25
8.39714e-25
9.54287e-25
1.08964e-24
1.24795e-24
1.43143e-24
1.64224e-24
1.88235e-24
2.15327e-24
2.45587e-24
2.79006e-24
3.15446e-24
3.54605e-24
3.95984e-24
4.38852e-24
4.82225e-24
5.24848e-24
5.65204e-24
6.01532e-24
6.31878e-24
6.54166e-24
6.66304e-24
5.7091e-25
5.9869e-25
6.4129e-25
6.99409e-25
7.74202e-25
8.67198e-25
9.80266e-25
1.11557e-24
1.27551e-24
1.46265e-24
1.67963e-24
1.92898e-24
2.21299e-24
2.5334e-24
2.89118e-24
3.28613e-24
3.71653e-24
4.17873e-24
4.66674e-24
5.17188e-24
5.68251e-24
6.18386e-24
6.65811e-24
7.08464e-24
7.44064e-24
7.70192e-24
7.84411e-24
6.62136e-25
6.94799e-25
7.44911e-25
8.13317e-25
9.01402e-25
1.011e-24
1.14434e-24
1.30399e-24
1.49282e-24
1.71386e-24
1.97021e-24
2.26486e-24
2.60045e-24
2.97902e-24
3.40161e-24
3.86791e-24
4.37578e-24
4.92084e-24
5.49592e-24
6.09072e-24
6.6915e-24
7.28087e-24
7.83791e-24
8.33852e-24
8.75603e-24
9.06225e-24
9.2288e-24
7.68215e-25
8.06604e-25
8.65525e-25
9.45998e-25
1.04968e-24
1.17876e-24
1.3359e-24
1.52416e-24
1.74691e-24
2.00777e-24
2.31037e-24
2.65823e-24
3.05443e-24
3.50129e-24
3.99998e-24
4.55003e-24
5.14883e-24
5.79108e-24
6.46827e-24
7.16819e-24
7.87461e-24
8.5671e-24
9.22113e-24
9.80848e-24
1.0298e-23
1.06568e-23
1.08519e-23
8.91628e-25
9.36728e-25
1.00598e-24
1.1006e-24
1.22258e-24
1.37453e-24
1.5596e-24
1.78143e-24
2.04403e-24
2.35164e-24
2.70856e-24
3.1189e-24
3.58625e-24
4.11328e-24
4.70129e-24
5.34963e-24
6.0551e-24
6.81134e-24
7.60825e-24
8.43137e-24
9.26158e-24
1.00749e-23
1.08425e-23
1.15314e-23
1.21052e-23
1.25256e-23
1.2754e-23
1.03527e-24
1.08824e-24
1.16959e-24
1.28081e-24
1.42425e-24
1.60302e-24
1.82087e-24
2.0821e-24
2.39146e-24
2.75395e-24
3.17463e-24
3.65831e-24
4.20918e-24
4.8303e-24
5.52312e-24
6.28675e-24
7.11731e-24
8.00722e-24
8.94445e-24
9.91195e-24
1.08872e-23
1.1842e-23
1.27426e-23
1.35504e-23
1.42229e-23
1.47153e-23
1.49827e-23
1.20253e-24
1.26471e-24
1.36026e-24
1.49093e-24
1.65953e-24
1.86976e-24
2.12605e-24
2.43351e-24
2.79773e-24
3.22462e-24
3.72013e-24
4.28987e-24
4.93873e-24
5.67024e-24
6.48599e-24
7.38483e-24
8.36207e-24
9.40866e-24
1.05104e-23
1.1647e-23
1.27921e-23
1.39126e-23
1.49689e-23
1.59159e-23
1.67039e-23
1.72806e-23
1.75937e-23
1.39736e-24
1.47034e-24
1.58252e-24
1.73598e-24
1.93408e-24
2.18119e-24
2.48257e-24
2.84425e-24
3.27283e-24
3.77527e-24
4.35854e-24
5.02925e-24
5.79305e-24
6.65403e-24
7.61395e-24
8.67132e-24
9.8205e-24
1.10507e-23
1.23451e-23
1.36799e-23
1.5024e-23
1.63385e-23
1.75771e-23
1.8687e-23
1.96102e-23
2.02855e-23
2.0652e-23
1.62438e-24
1.71002e-24
1.84167e-24
2.02185e-24
2.25453e-24
2.54487e-24
2.89911e-24
3.32437e-24
3.82842e-24
4.41946e-24
5.10567e-24
5.89478e-24
6.79337e-24
7.80616e-24
8.9351e-24
1.01783e-23
1.1529e-23
1.29744e-23
1.44945e-23
1.60615e-23
1.76386e-23
1.91802e-23
2.06323e-23
2.19329e-23
2.30141e-23
2.38049e-23
2.42339e-23
1.88901e-24
1.98946e-24
2.14394e-24
2.35542e-24
2.6286e-24
2.96962e-24
3.38582e-24
3.88561e-24
4.47815e-24
5.17307e-24
5.97998e-24
6.90791e-24
7.96453e-24
9.15528e-24
1.04823e-23
1.19433e-23
1.35302e-23
1.52276e-23
1.70122e-23
1.8851e-23
2.07009e-23
2.25086e-23
2.42104e-23
2.57342e-23
2.70005e-23
2.79264e-23
2.84285e-23
2.19755e-24
2.31535e-24
2.49656e-24
2.74471e-24
3.06536e-24
3.46575e-24
3.95457e-24
4.54171e-24
5.23797e-24
6.05467e-24
7.00307e-24
8.09372e-24
9.33557e-24
1.07349e-23
1.22941e-23
1.40103e-23
1.58738e-23
1.78666e-23
1.99609e-23
2.2118e-23
2.42874e-23
2.64063e-23
2.84006e-23
3.01855e-23
3.16684e-23
3.27522e-23
3.33399e-23
2.55738e-24
2.69551e-24
2.90802e-24
3.19911e-24
3.57537e-24
4.04532e-24
4.61923e-24
5.30874e-24
6.12656e-24
7.08597e-24
8.20019e-24
9.48155e-24
1.09405e-23
1.25842e-23
1.44155e-23
1.64307e-23
1.86182e-23
2.09569e-23
2.34139e-23
2.59437e-23
2.8487e-23
3.09704e-23
3.33069e-23
3.53974e-23
3.71337e-23
3.84024e-23
3.90901e-23
2.97713e-24
3.13906e-24
3.38823e-24
3.72962e-24
4.171e-24
4.72245e-24
5.39604e-24
6.20549e-24
7.16574e-24
8.29238e-24
9.6009e-24
1.11057e-23
1.2819e-23
1.47491e-23
1.68991e-23
1.92645e-23
2.18316e-23
2.45753e-23
2.74569e-23
3.04231e-23
3.34042e-23
3.63142e-23
3.90511e-23
4.14993e-23
4.35321e-23
4.5017e-23
4.58218e-23
3.4669e-24
3.65668e-24
3.94878e-24
4.34906e-24
4.86671e-24
5.5136e-24
6.30396e-24
7.25392e-24
8.38103e-24
9.70359e-24
1.12398e-23
1.30064e-23
1.50176e-23
1.72832e-23
1.98065e-23
2.25821e-23
2.55937e-23
2.88116e-23
3.21905e-23
3.56675e-23
3.91611e-23
4.25702e-23
4.57758e-23
4.86424e-23
5.10221e-23
5.276e-23
5.37017e-23
4.03845e-24
4.26084e-24
4.6032e-24
5.07244e-24
5.6794e-24
6.43808e-24
7.36519e-24
8.47972e-24
9.80228e-24
1.13543e-23
1.31572e-23
1.52305e-23
1.75907e-23
2.02492e-23
2.32097e-23
2.64656e-23
2.99977e-23
3.3771e-23
3.7732e-23
4.1807e-23
4.59002e-23
4.98936e-23
5.36476e-23
5.70037e-23
5.97892e-23
6.18231e-23
6.2925e-23
4.70557e-24
4.96614e-24
5.36733e-24
5.91731e-24
6.62884e-24
7.5184e-24
8.60566e-24
9.91293e-24
1.14644e-23
1.32853e-23
1.54004e-23
1.78329e-23
2.06019e-23
2.37206e-23
2.7193e-23
3.10114e-23
3.51529e-23
3.95762e-23
4.42186e-23
4.89935e-23
5.37886e-23
5.84657e-23
6.28613e-23
6.67903e-23
7.00505e-23
7.24306e-23
7.37198e-23
5.48437e-24
5.78963e-24
6.25967e-24
6.90417e-24
7.73813e-24
8.78094e-24
1.00557e-23
1.15887e-23
1.34082e-23
1.55439e-23
1.80248e-23
2.08779e-23
2.41256e-23
2.77831e-23
3.18549e-23
3.63319e-23
4.11868e-23
4.63711e-23
5.18111e-23
5.74051e-23
6.30216e-23
6.84986e-23
7.36451e-23
7.82442e-23
8.20598e-23
8.48449e-23
8.63532e-23
6.39367e-24
6.75123e-24
7.30188e-24
8.057e-24
9.03428e-24
1.02565e-23
1.17508e-23
1.35481e-23
1.56815e-23
1.81857e-23
2.10949e-23
2.44405e-23
2.82487e-23
3.25371e-23
3.73108e-23
4.25587e-23
4.82488e-23
5.43238e-23
6.06972e-23
6.72499e-23
7.38276e-23
8.02407e-23
8.62655e-23
9.16487e-23
9.61139e-23
9.93727e-23
1.01137e-22
7.45549e-24
7.87425e-24
8.51923e-24
9.40384e-24
1.05489e-23
1.19811e-23
1.37325e-23
1.58391e-23
1.834e-23
2.12758e-23
2.46864e-23
2.86087e-23
3.30731e-23
3.81e-23
4.36953e-23
4.98457e-23
5.65134e-23
6.36309e-23
7.10968e-23
7.87713e-23
8.64737e-23
9.3982e-23
1.01035e-22
1.07335e-22
1.1256e-22
1.16373e-22
1.18437e-22
8.69554e-24
9.18592e-24
9.94131e-24
1.09775e-23
1.23189e-23
1.39969e-23
1.60492e-23
1.85179e-23
2.1449e-23
2.48901e-23
2.88877e-23
3.34851e-23
3.87177e-23
4.46092e-23
5.11663e-23
5.8373e-23
6.61848e-23
7.45225e-23
8.32668e-23
9.2254e-23
1.01272e-22
1.10062e-22
1.18317e-22
1.2569e-22
1.31804e-22
1.36265e-22
1.3868e-22
1.01439e-23
1.07181e-23
1.16027e-23
1.28162e-23
1.43874e-23
1.63532e-23
1.87576e-23
2.16503e-23
2.5085e-23
2.91174e-23
3.38023e-23
3.91898e-23
4.53217e-23
5.22252e-23
5.9908e-23
6.83511e-23
7.75019e-23
8.72675e-23
9.75079e-23
1.08031e-22
1.18589e-22
1.28878e-22
1.38539e-22
1.47167e-22
1.54321e-22
1.5954e-22
1.62365e-22
1.18358e-23
1.2508e-23
1.35438e-23
1.49649e-23
1.6805e-23
1.91075e-23
2.19241e-23
2.5313e-23
2.93371e-23
3.40618e-23
3.9551e-23
4.58635e-23
5.30479e-23
6.11359e-23
7.01363e-23
8.00263e-23
9.07442e-23
1.02181e-22
1.14171e-22
1.26492e-22
1.38851e-22
1.50894e-22
1.622e-22
1.72297e-22
1.80667e-22
1.86773e-22
1.90077e-22
1.38122e-23
1.45992e-23
1.58119e-23
1.74758e-23
1.96306e-23
2.23272e-23
2.56262e-23
2.95958e-23
3.43098e-23
3.98447e-23
4.62753e-23
5.36704e-23
6.20866e-23
7.1561e-23
8.21033e-23
9.36866e-23
1.06238e-22
1.1963e-22
1.33669e-22
1.48092e-22
1.62559e-22
1.76653e-22
1.89884e-22
2.01698e-22
2.11491e-22
2.18633e-22
2.22499e-22
1.61213e-23
1.70426e-23
1.84622e-23
2.04103e-23
2.29334e-23
2.60911e-23
2.99546e-23
3.46038e-23
4.01252e-23
4.66082e-23
5.41407e-23
6.28028e-23
7.26606e-23
8.37573e-23
9.6104e-23
1.09669e-22
1.24366e-22
1.40045e-22
1.56481e-22
1.73364e-22
1.90296e-22
2.0679e-22
2.22273e-22
2.36095e-22
2.47552e-22
2.55907e-22
2.60429e-22
1.88192e-23
1.98976e-23
2.15593e-23
2.38399e-23
2.67939e-23
3.04913e-23
3.50153e-23
4.04597e-23
4.6926e-23
5.45187e-23
6.33405e-23
7.34853e-23
8.50301e-23
9.80253e-23
1.12483e-22
1.28367e-22
1.45575e-22
1.6393e-22
1.8317e-22
2.0293e-22
2.22747e-22
2.42049e-22
2.60165e-22
2.76336e-22
2.89739e-22
2.99513e-22
3.04801e-22
2.19717e-23
2.32338e-23
2.51789e-23
2.78485e-23
3.13066e-23
3.56353e-23
4.09323e-23
4.73073e-23
5.48792e-23
6.37704e-23
7.41009e-23
8.59808e-23
9.94997e-23
1.14716e-22
1.31645e-22
1.50241e-22
1.70387e-22
1.91874e-22
2.14393e-22
2.3752e-22
2.60711e-22
2.83297e-22
3.04493e-22
3.23412e-22
3.39091e-22
3.50524e-22
3.56709e-22
2.56555e-23
2.71326e-23
2.94091e-23
3.25338e-23
3.65818e-23
4.16492e-23
4.78505e-23
5.53145e-23
6.418e-23
7.45906e-23
8.66866e-23
1.00597e-22
1.16426e-22
1.34242e-22
1.54061e-22
1.75831e-22
1.99413e-22
2.24564e-22
2.5092e-22
2.77986e-22
3.05123e-22
3.3155e-22
3.56349e-22
3.78482e-22
3.96823e-22
4.10196e-22
4.17431e-22
2.99604e-23
3.1689e-23
3.43532e-23
3.80104e-23
4.27484e-23
4.86802e-23
5.59396e-23
6.46775e-23
7.50568e-23
8.72451e-23
1.01407e-22
1.17692e-22
1.36224e-22
1.57081e-22
1.80283e-22
2.05766e-22
2.33369e-22
2.62805e-22
2.93651e-22
3.25323e-22
3.57077e-22
3.87997e-22
4.1701e-22
4.42902e-22
4.64356e-22
4.79997e-22
4.88459e-22
3.49915e-23
3.70142e-23
4.01321e-23
4.44121e-23
4.99574e-23
5.69003e-23
6.53977e-23
7.56262e-23
8.77764e-23
1.02045e-22
1.18623e-22
1.37688e-22
1.59382e-22
1.83797e-22
2.10956e-22
2.40784e-22
2.7309e-22
3.0754e-22
3.43636e-22
3.80698e-22
4.17851e-22
4.54026e-22
4.87967e-22
5.18256e-22
5.4335e-22
5.61645e-22
5.71542e-22
4.08715e-23
4.32383e-23
4.68867e-23
5.18954e-23
5.83852e-23
6.6511e-23
7.64566e-23
8.8429e-23
1.02651e-22
1.19353e-22
1.38759e-22
1.61076e-22
1.86469e-22
2.15047e-22
2.46835e-22
2.81745e-22
3.19553e-22
3.59869e-22
4.02107e-22
4.45472e-22
4.88941e-22
5.31263e-22
5.70968e-22
6.06398e-22
6.3575e-22
6.57148e-22
6.68723e-22
4.77438e-23
5.05132e-23
5.47823e-23
6.06433e-23
6.82379e-23
7.77475e-23
8.93874e-23
1.034e-22
1.20046e-22
1.39595e-22
1.6231e-22
1.8843e-22
2.18151e-22
2.51599e-22
2.88802e-22
3.29658e-22
3.73903e-22
4.21079e-22
4.70502e-22
5.21239e-22
5.72096e-22
6.21606e-22
6.68053e-22
7.09495e-22
7.43827e-22
7.68854e-22
7.82391e-22
5.57764e-23
5.90166e-23
6.40117e-23
7.08697e-23
7.97567e-23
9.08851e-23
1.04507e-22
1.20906e-22
1.40388e-22
1.63268e-22
1.89852e-22
2.20423e-22
2.55207e-22
2.94353e-22
3.3789e-22
3.85701e-22
4.37475e-22
4.92675e-22
5.50502e-22
6.09863e-22
6.6936e-22
7.27278e-22
7.81608e-22
8.30083e-22
8.70238e-22
8.99508e-22
9.1534e-22
6.51654e-23
6.89563e-23
7.48006e-23
8.28249e-23
9.32236e-23
1.06246e-22
1.22186e-22
1.41377e-22
1.64176e-22
1.90952e-22
2.22064e-22
2.57841e-22
2.98548e-22
3.44358e-22
3.95306e-22
4.51252e-22
5.11833e-22
5.7642e-22
6.44076e-22
7.13523e-22
7.83124e-22
8.50875e-22
9.14426e-22
9.71124e-22
1.01809e-21
1.05232e-21
1.07084e-21
7.61402e-23
8.05752e-23
8.74128e-23
9.68013e-23
1.08968e-22
1.24205e-22
1.42858e-22
1.65315e-22
1.91995e-22
2.23328e-22
2.59736e-22
3.01603e-22
3.49239e-22
4.02844e-22
4.6246e-22
5.27922e-22
5.98805e-22
6.7437e-22
7.53522e-22
8.34767e-22
9.16186e-22
9.95437e-22
1.06977e-21
1.13609e-21
1.19101e-21
1.23105e-21
1.2527e-21
8.8969e-23
9.41575e-23
1.02157e-22
1.13141e-22
1.27376e-22
1.45204e-22
1.67029e-22
1.93307e-22
2.24526e-22
2.61191e-22
3.03794e-22
3.52784e-22
4.08525e-22
4.71248e-22
5.41004e-22
6.17597e-22
7.00528e-22
7.88935e-22
8.81533e-22
9.76573e-22
1.07181e-21
1.16451e-21
1.25146e-21
1.32902e-21
1.39326e-21
1.44008e-21
1.4654e-21
1.03966e-22
1.10035e-22
1.19393e-22
1.32244e-22
1.48898e-22
1.69757e-22
1.95293e-22
2.26039e-22
2.62567e-22
3.05469e-22
3.55319e-22
4.12641e-22
4.77862e-22
5.51252e-22
6.32867e-22
7.22478e-22
8.19502e-22
9.22928e-22
1.03125e-21
1.14243e-21
1.25383e-21
1.36226e-21
1.46395e-21
1.55466e-21
1.62979e-21
1.68455e-21
1.71416e-21
1.21496e-22
1.28597e-22
1.39544e-22
1.54578e-22
1.74062e-22
1.98465e-22
2.28341e-22
2.64314e-22
3.07053e-22
3.57249e-22
4.15576e-22
4.82645e-22
5.58954e-22
6.44819e-22
7.40306e-22
8.45144e-22
9.58651e-22
1.07964e-21
1.20636e-21
1.3364e-21
1.46671e-21
1.59353e-21
1.71247e-21
1.81856e-21
1.90642e-21
1.97045e-21
2.00508e-21
1.4199e-22
1.50296e-22
1.63103e-22
1.80689e-22
2.03483e-22
2.32032e-22
2.66985e-22
3.09071e-22
3.59075e-22
4.17803e-22
4.86044e-22
5.64513e-22
6.53791e-22
7.54249e-22
8.65959e-22
9.88608e-22
1.12139e-21
1.26293e-21
1.41115e-21
1.56327e-21
1.71568e-21
1.86401e-21
2.00311e-21
2.12718e-21
2.22994e-21
2.30482e-21
2.34531e-21
1.65949e-22
1.75665e-22
1.90645e-22
2.11217e-22
2.37882e-22
2.7128e-22
3.12171e-22
3.61408e-22
4.19908e-22
4.88616e-22
5.68453e-22
6.60256e-22
7.64704e-22
8.82228e-22
1.01291e-21
1.15639e-21
1.31172e-21
1.47728e-21
1.65066e-21
1.82858e-21
2.00685e-21
2.18033e-21
2.34301e-21
2.48812e-21
2.60828e-21
2.69585e-21
2.7432e-21
1.93958e-22
2.05322e-22
2.22846e-22
2.4691e-22
2.78102e-22
3.17172e-22
3.65008e-22
4.22607e-22
4.91045e-22
5.71426e-22
6.64826e-22
7.72224e-22
8.94414e-22
1.0319e-21
1.18478e-21
1.35262e-21
1.53431e-21
1.72797e-21
1.93077e-21
2.13887e-21
2.34737e-21
2.55026e-21
2.74052e-21
2.91021e-21
3.05073e-21
3.15313e-21
3.2085e-21
2.26703e-22
2.39996e-22
2.60493e-22
2.88641e-22
3.25128e-22
3.70831e-22
4.2679e-22
4.94171e-22
5.74232e-22
6.68264e-22
7.77527e-22
9.03165e-22
1.04611e-21
1.20693e-21
1.38577e-21
1.5821e-21
1.79463e-21
2.02115e-21
2.25834e-21
2.50174e-21
2.74559e-21
2.98288e-21
3.20538e-21
3.40382e-21
3.56815e-21
3.68789e-21
3.75264e-21
2.64986e-22
2.80534e-22
3.04508e-22
3.37434e-22
3.80113e-22
4.33574e-22
4.99032e-22
5.77853e-22
6.71508e-22
7.81507e-22
9.09322e-22
1.05629e-21
1.2235e-21
1.41163e-21
1.62082e-21
1.85047e-21
2.09906e-21
2.36401e-21
2.64144e-21
2.9261e-21
3.21129e-21
3.4888e-21
3.749e-21
3.98106e-21
4.17322e-21
4.31324e-21
4.38895e-21
3.09743e-22
3.27928e-22
3.5597e-22
3.94482e-22
4.44403e-22
5.06937e-22
5.83505e-22
6.75706e-22
7.8526e-22
9.13932e-22
1.06345e-21
1.23537e-21
1.43096e-21
1.65102e-21
1.89571e-21
2.16432e-21
2.45508e-21
2.76496e-21
3.08944e-21
3.42237e-21
3.7559e-21
4.08042e-21
4.38471e-21
4.65608e-21
4.88078e-21
5.04451e-21
5.13304e-21
3.6207e-22
3.83339e-22
4.16137e-22
4.61183e-22
5.19574e-22
5.92719e-22
6.82281e-22
7.9013e-22
9.18276e-22
1.06879e-21
1.24368e-21
1.44478e-21
1.67356e-21
1.93096e-21
2.21717e-21
2.53134e-21
2.87143e-21
3.23385e-21
3.61334e-21
4.00271e-21
4.39276e-21
4.77227e-21
5.1281e-21
5.44543e-21
5.70819e-21
5.89963e-21
6.00314e-21
4.23248e-22
4.48124e-22
4.86485e-22
5.39171e-22
6.07468e-22
6.93022e-22
7.97779e-22
9.23929e-22
1.07382e-21
1.24987e-21
1.45444e-21
1.68966e-21
1.95726e-21
2.25834e-21
2.59309e-21
2.96055e-21
3.35831e-21
3.78218e-21
4.22599e-21
4.68135e-21
5.13749e-21
5.5813e-21
5.9974e-21
6.36847e-21
6.67571e-21
6.89956e-21
7.0206e-21
4.94775e-22
5.23869e-22
5.68735e-22
6.30356e-22
7.10238e-22
8.10304e-22
9.32833e-22
1.08038e-21
1.25571e-21
1.46163e-21
1.7009e-21
1.97603e-21
2.28902e-21
2.64117e-21
3.03269e-21
3.46247e-21
3.92766e-21
4.42339e-21
4.94243e-21
5.47494e-21
6.00836e-21
6.52735e-21
7.01391e-21
7.44781e-21
7.80706e-21
8.06881e-21
8.21032e-21
5.78401e-22
6.12429e-22
6.64903e-22
7.36973e-22
8.30402e-22
9.47439e-22
1.09075e-21
1.26333e-21
1.46839e-21
1.70925e-21
1.98911e-21
2.3109e-21
2.67698e-21
3.08885e-21
3.54676e-21
4.04941e-21
4.59346e-21
5.17321e-21
5.7802e-21
6.40294e-21
7.02672e-21
7.63359e-21
8.20255e-21
8.7099e-21
9.12997e-21
9.43601e-21
9.60147e-21
6.76176e-22
7.15973e-22
7.77343e-22
8.61633e-22
9.70904e-22
1.10779e-21
1.27541e-21
1.47725e-21
1.7171e-21
1.9988e-21
2.32612e-21
2.70249e-21
3.13065e-21
3.61235e-21
4.14791e-21
4.73576e-21
5.37202e-21
6.05002e-21
6.75985e-21
7.48808e-21
8.21751e-21
8.92715e-21
9.59243e-21
1.01857e-20
1.06768e-20
1.10347e-20
1.12281e-20
7.90493e-22
8.37035e-22
9.08809e-22
1.00739e-21
1.13519e-21
1.29528e-21
1.49132e-21
1.7274e-21
2.00791e-21
2.33739e-21
2.72022e-21
3.1604e-21
3.66116e-21
4.22452e-21
4.85086e-21
5.53835e-21
6.28244e-21
7.07531e-21
7.90539e-21
8.75696e-21
9.60991e-21
1.04397e-20
1.12176e-20
1.19112e-20
1.24855e-20
1.29039e-20
1.31301e-20
9.24151e-22
9.78582e-22
1.06252e-21
1.17781e-21
1.32728e-21
1.51451e-21
1.74379e-21
2.01989e-21
2.34797e-21
2.73331e-21
3.18105e-21
3.69586e-21
4.28151e-21
4.94037e-21
5.67286e-21
6.47685e-21
7.34701e-21
8.2742e-21
9.24488e-21
1.02407e-20
1.1238e-20
1.22083e-20
1.31179e-20
1.39289e-20
1.46003e-20
1.50895e-20
1.53539e-20
1.08042e-21
1.14408e-21
1.24225e-21
1.37708e-21
1.55188e-21
1.77086e-21
2.039e-21
2.36191e-21
2.74561e-21
3.19627e-21
3.71991e-21
4.32199e-21
5.0069e-21
5.77743e-21
6.63405e-21
7.57426e-21
8.59184e-21
9.67608e-21
1.08111e-20
1.19755e-20
1.31418e-20
1.42763e-20
1.53398e-20
1.6288e-20
1.7073e-20
1.76449e-20
1.79541e-20
1.26314e-21
1.33758e-21
1.45238e-21
1.61007e-21
1.8145e-21
2.07059e-21
2.38419e-21
2.76183e-21
3.21057e-21
3.73762e-21
4.35002e-21
5.05414e-21
5.85513e-21
6.75622e-21
7.75798e-21
8.85748e-21
1.00474e-20
1.13153e-20
1.26425e-20
1.40041e-20
1.53677e-20
1.66942e-20
1.79376e-20
1.90463e-20
1.99641e-20
2.06327e-20
2.09942e-20
1.47677e-21
1.56382e-21
1.69808e-21
1.88249e-21
2.12156e-21
2.42106e-21
2.7878e-21
3.22946e-21
3.75425e-21
4.37062e-21
5.08681e-21
5.91025e-21
6.84697e-21
7.90073e-21
9.0722e-21
1.03579e-20
1.17494e-20
1.3232e-20
1.47839e-20
1.63759e-20
1.79703e-20
1.95213e-20
2.09751e-20
2.22713e-20
2.33443e-20
2.4126e-20
2.45486e-20
1.72654e-21
1.82835e-21
1.98536e-21
2.20102e-21
2.4806e-21
2.83085e-21
3.25974e-21
3.77624e-21
4.38997e-21
5.11079e-21
5.94833e-21
6.9113e-21
8.00672e-21
9.239e-21
1.06089e-20
1.21124e-20
1.37395e-20
1.5473e-20
1.72877e-20
1.91491e-20
2.10133e-20
2.28267e-20
2.45264e-20
2.60419e-20
2.72963e-20
2.82102e-20
2.87042e-20
2.01858e-21
2.13764e-21
2.32125e-21
2.57344e-21
2.9004e-21
3.31e-21
3.81157e-21
4.41559e-21
5.1333e-21
5.97626e-21
6.95571e-21
8.08182e-21
9.3628e-21
1.08038e-20
1.24057e-20
1.41638e-20
1.60664e-20
1.80934e-20
2.02152e-20
2.23916e-20
2.45712e-20
2.66913e-20
2.86785e-20
3.04502e-20
3.19168e-20
3.29851e-20
3.35626e-20
2.36003e-21
2.49926e-21
2.71398e-21
3.0089e-21
3.39125e-21
3.87024e-21
4.4568e-21
5.16315e-21
6.00247e-21
6.98824e-21
8.13361e-21
9.45047e-21
1.09484e-20
1.26335e-20
1.45066e-20
1.65624e-20
1.8787e-20
2.11571e-20
2.3638e-20
2.61827e-20
2.8731e-20
3.12096e-20
3.35329e-20
3.56041e-20
3.73186e-20
3.85674e-20
3.92425e-20
2.75926e-21
2.92207e-21
3.17316e-21
3.51805e-21
3.96517e-21
4.52531e-21
5.21123e-21
6.03725e-21
7.01875e-21
8.1715e-21
9.51088e-21
1.10508e-20
1.28024e-20
1.47728e-20
1.69631e-20
1.93669e-20
2.1968e-20
2.47392e-20
2.76399e-20
3.0615e-20
3.35943e-20
3.64921e-20
3.92081e-20
4.16294e-20
4.36337e-20
4.50936e-20
4.58828e-20
3.22604e-21
3.41643e-21
3.71005e-21
4.11335e-21
4.63621e-21
5.29124e-21
6.09335e-21
7.05929e-21
8.20703e-21
9.55504e-21
1.11213e-20
1.29219e-20
1.49702e-20
1.72742e-20
1.98352e-20
2.26459e-20
2.56872e-20
2.89273e-20
3.23186e-20
3.5797e-20
3.92801e-20
4.26678e-20
4.5843e-20
4.86735e-20
5.10165e-20
5.2723e-20
5.36455e-20
3.77179e-21
3.99443e-21
4.33778e-21
4.8094e-21
5.42082e-21
6.18679e-21
7.12476e-21
8.2543e-21
9.59643e-21
1.11727e-20
1.30042e-20
1.51098e-20
1.75048e-20
2.01988e-20
2.31934e-20
2.64796e-20
3.00356e-20
3.38238e-20
3.77888e-20
4.18553e-20
4.59274e-20
4.98878e-20
5.35995e-20
5.69084e-20
5.96472e-20
6.1642e-20
6.27202e-20
4.40988e-21
4.67023e-21
5.07173e-21
5.62321e-21
6.33818e-21
7.23388e-21
8.3307e-21
9.65153e-21
1.12209e-20
1.30642e-20
1.52057e-20
1.76678e-20
2.04682e-20
2.36182e-20
2.71196e-20
3.09619e-20
3.51195e-20
3.95484e-20
4.41839e-20
4.8938e-20
5.36984e-20
5.83282e-20
6.26672e-20
6.6535e-20
6.97364e-20
7.20681e-20
7.33285e-20
5.15593e-21
5.46036e-21
5.92985e-21
6.57473e-21
7.41078e-21
8.45816e-21
9.74071e-21
1.12852e-20
1.31204e-20
1.52756e-20
1.77798e-20
2.06586e-20
2.39331e-20
2.76161e-20
3.171e-20
3.62023e-20
4.10632e-20
4.62411e-20
5.16604e-20
5.72182e-20
6.27831e-20
6.81952e-20
7.32672e-20
7.77884e-20
8.15304e-20
8.42559e-20
8.5729e-20
6.02819e-21
6.38417e-21
6.93316e-21
7.68724e-21
8.66486e-21
9.88959e-21
1.13893e-20
1.31953e-20
1.53412e-20
1.78613e-20
2.07893e-20
2.41554e-20
2.7984e-20
3.22903e-20
3.70768e-20
4.2329e-20