/*--------------------------------*- C++ -*----------------------------------*\
| =========                 |                                                 |
| \\      /  F ield         | OpenFOAM: The Open Source CFD Toolbox           |
|  \\    /   O peration     | Version:  2212                                  |
|   \\  /    A nd           | Website:  www.openfoam.com                      |
|    \\/     M anipulation  |                                                 |
\*---------------------------------------------------------------------------*/
FoamFile
{
    version     2.0;
    format      ascii;
    arch        "LSB;label=32;scalar=64";
    class       volScalarField;
    location    "9.0545968";
    object      C8H8_0;
}
// * * * * * * * * * * * * * * * * * * * * * * * * * * * * * * * * * * * * * //

dimensions      [0 0 0 0 0 0 0];

internalField   nonuniform List<scalar> 
33600
(
1.18933e-28
1.22391e-28
1.27613e-28
1.34587e-28
1.4333e-28
1.53871e-28
1.66257e-28
1.80542e-28
1.96789e-28
2.15065e-28
2.35438e-28
2.57973e-28
2.82729e-28
3.09757e-28
3.39091e-28
3.70744e-28
4.04702e-28
4.40919e-28
4.79302e-28
5.19706e-28
5.61922e-28
6.05653e-28
6.50463e-28
6.95647e-28
7.39768e-28
7.79593e-28
8.0714e-28
3.83814e-28
3.9501e-28
4.1192e-28
4.34504e-28
4.62812e-28
4.9695e-28
5.37064e-28
5.83337e-28
6.35972e-28
6.95187e-28
7.61208e-28
8.34249e-28
9.14508e-28
1.00215e-27
1.09729e-27
1.19999e-27
1.31019e-27
1.42776e-27
1.5524e-27
1.68365e-27
1.82082e-27
1.96302e-27
2.10898e-27
2.25712e-27
2.40455e-27
2.54601e-27
2.65924e-27
7.06183e-28
7.26906e-28
7.58206e-28
8.0001e-28
8.52415e-28
9.15618e-28
9.899e-28
1.0756e-27
1.17311e-27
1.28285e-27
1.40523e-27
1.54068e-27
1.68957e-27
1.85225e-27
2.02895e-27
2.21981e-27
2.42483e-27
2.64384e-27
2.87644e-27
3.12205e-27
3.37981e-27
3.64866e-27
3.92712e-27
4.21301e-27
4.5006e-27
4.7756e-27
4.98511e-27
1.09332e-27
1.12567e-27
1.17454e-27
1.2398e-27
1.32163e-27
1.42035e-27
1.53639e-27
1.67032e-27
1.82276e-27
1.99439e-27
2.1859e-27
2.398e-27
2.63132e-27
2.88647e-27
3.16393e-27
3.46405e-27
3.78704e-27
4.13289e-27
4.50143e-27
4.89227e-27
5.30481e-27
5.73813e-27
6.19028e-27
6.65675e-27
7.12442e-27
7.56023e-27
7.87263e-27
1.55326e-27
1.59971e-27
1.66986e-27
1.76357e-27
1.88107e-27
2.02287e-27
2.18962e-27
2.38217e-27
2.60145e-27
2.84851e-27
3.12441e-27
3.43025e-27
3.76711e-27
4.136e-27
4.53784e-27
4.97347e-27
5.44355e-27
5.94865e-27
6.48915e-27
7.06526e-27
7.67674e-27
8.32236e-27
8.99805e-27
9.6933e-27
1.03808e-26
1.09997e-26
1.14197e-26
2.095e-27
2.15842e-27
2.2542e-27
2.38217e-27
2.54269e-27
2.73646e-27
2.96448e-27
3.22793e-27
3.5282e-27
3.86682e-27
4.24541e-27
4.66565e-27
5.12924e-27
5.6379e-27
6.19331e-27
6.79709e-27
7.45081e-27
8.15598e-27
8.91387e-27
9.72536e-27
1.05901e-26
1.15053e-26
1.24619e-26
1.34381e-26
1.43857e-26
1.52112e-26
1.57469e-26
2.72864e-27
2.8124e-27
2.9389e-27
3.10795e-27
3.3201e-27
3.57633e-27
3.87805e-27
4.22697e-27
4.62507e-27
5.07456e-27
5.57784e-27
6.13744e-27
6.75605e-27
7.43641e-27
8.18136e-27
8.99378e-27
9.87657e-27
1.08325e-26
1.18639e-26
1.2972e-26
1.41553e-26
1.5407e-26
1.67091e-26
1.80231e-26
1.92741e-26
2.03329e-26
2.09968e-26
3.46572e-27
3.57374e-27
3.7369e-27
3.95504e-27
4.22893e-27
4.55998e-27
4.95013e-27
5.40181e-27
5.91781e-27
6.50131e-27
7.15579e-27
7.88503e-27
8.69306e-27
9.58417e-27
1.05628e-26
1.16337e-26
1.28013e-26
1.407e-26
1.5443e-26
1.6921e-26
1.84997e-26
2.0165e-26
2.18854e-26
2.36004e-26
2.52039e-26
2.6529e-26
2.73378e-26
4.31943e-27
4.4563e-27
4.66311e-27
4.93973e-27
5.28727e-27
5.7077e-27
6.20374e-27
6.77874e-27
7.43662e-27
8.18189e-27
9.01952e-27
9.95501e-27
1.09943e-26
1.21437e-26
1.34099e-26
1.47998e-26
1.63201e-26
1.79765e-26
1.97726e-26
2.17073e-26
2.37708e-26
2.59384e-26
2.81601e-26
3.03482e-26
3.23613e-26
3.39926e-26
3.49678e-26
5.30502e-27
5.47612e-27
5.73475e-27
6.08088e-27
6.51611e-27
7.04316e-27
7.66577e-27
8.38856e-27
9.21698e-27
1.01573e-26
1.12165e-26
1.24024e-26
1.37235e-26
1.51888e-26
1.68078e-26
1.85901e-26
2.05446e-26
2.26784e-26
2.49943e-26
2.74877e-26
3.01403e-26
3.29123e-26
3.57306e-26
3.84752e-26
4.09651e-26
4.29507e-26
4.41186e-26
6.44013e-27
6.65178e-27
6.97183e-27
7.40045e-27
7.93992e-27
8.59397e-27
9.3677e-27
1.02674e-26
1.13006e-26
1.24758e-26
1.38028e-26
1.52923e-26
1.69561e-26
1.88066e-26
2.08569e-26
2.31195e-26
2.56057e-26
2.83233e-26
3.12733e-26
3.44447e-26
3.78077e-26
4.13026e-26
4.4828e-26
4.82264e-26
5.12725e-26
5.36701e-26
5.50623e-26
7.7453e-27
8.0049e-27
8.39764e-27
8.92406e-27
9.5873e-27
1.03925e-26
1.13464e-26
1.24577e-26
1.37364e-26
1.51942e-26
1.68442e-26
1.87011e-26
2.07806e-26
2.30996e-26
2.56749e-26
2.85228e-26
3.16566e-26
3.5084e-26
3.88023e-26
4.27917e-26
4.70062e-26
5.13619e-26
5.57231e-26
5.98891e-26
6.35853e-26
6.64634e-26
6.81172e-26
9.24445e-27
9.56068e-27
1.00394e-26
1.06816e-26
1.14917e-26
1.24765e-26
1.36452e-26
1.50092e-26
1.6582e-26
1.83792e-26
2.04183e-26
2.27187e-26
2.53013e-26
2.81879e-26
3.14002e-26
3.4958e-26
3.88766e-26
4.31623e-26
4.78066e-26
5.27775e-26
5.80086e-26
6.33857e-26
6.87331e-26
7.38006e-26
7.82575e-26
8.1697e-26
8.36568e-26
1.09655e-26
1.13485e-26
1.19288e-26
1.2708e-26
1.36921e-26
1.48903e-26
1.63147e-26
1.79803e-26
1.9905e-26
2.21092e-26
2.4616e-26
2.74506e-26
3.06402e-26
3.42125e-26
3.81945e-26
4.26099e-26
4.74753e-26
5.27942e-26
5.85495e-26
6.46934e-26
7.11337e-26
7.77203e-26
8.42301e-26
9.03561e-26
9.5704e-26
9.98003e-26
1.02118e-25
1.29409e-26
1.34028e-26
1.4103e-26
1.50442e-26
1.62344e-26
1.76858e-26
1.94142e-26
2.14394e-26
2.37844e-26
2.6476e-26
2.95439e-26
3.30206e-26
3.69405e-26
4.13385e-26
4.62475e-26
5.1695e-26
5.7698e-26
6.42555e-26
7.13391e-26
7.88801e-26
8.67553e-26
9.47714e-26
1.0265e-25
1.10019e-25
1.16411e-25
1.21277e-25
1.24013e-25
1.52089e-26
1.57637e-26
1.66054e-26
1.7738e-26
1.91722e-26
2.09238e-26
2.30135e-26
2.54667e-26
2.83133e-26
3.15874e-26
3.53272e-26
3.95737e-26
4.43702e-26
4.97595e-26
5.57811e-26
6.24663e-26
6.98316e-26
7.78694e-26
8.65358e-26
9.57367e-26
1.05311e-25
1.15014e-25
1.24504e-25
1.33333e-25
1.40949e-25
1.46715e-25
1.49943e-25
1.78137e-26
1.8478e-26
1.94865e-26
2.08452e-26
2.25679e-26
2.46752e-26
2.71938e-26
3.01561e-26
3.36002e-26
3.75696e-26
4.21123e-26
4.72799e-26
5.31257e-26
5.97019e-26
6.70551e-26
7.52204e-26
8.42123e-26
9.40137e-26
1.04562e-25
1.1573e-25
1.27313e-25
1.39006e-25
1.50391e-25
1.60934e-25
1.69985e-25
1.76807e-25
1.80609e-25
2.08074e-26
2.16005e-26
2.28057e-26
2.44312e-26
2.6495e-26
2.90235e-26
3.20506e-26
3.56176e-26
3.97727e-26
4.45704e-26
5.00709e-26
5.6338e-26
6.34371e-26
7.14309e-26
8.03738e-26
9.03042e-26
1.01233e-25
1.13131e-25
1.25911e-25
1.39408e-25
1.53363e-25
1.67399e-25
1.81013e-25
1.93567e-25
2.04301e-25
2.1236e-25
2.16836e-25
2.42504e-26
2.51952e-26
2.66322e-26
2.85724e-26
3.1039e-26
3.40657e-26
3.76954e-26
4.19799e-26
4.69797e-26
5.27629e-26
5.94038e-26
6.69811e-26
7.55739e-26
8.52569e-26
9.60932e-26
1.08124e-25
1.21354e-25
1.35739e-25
1.51162e-25
1.67411e-25
1.84163e-25
2.00958e-25
2.17191e-25
2.32106e-25
2.44814e-25
2.54322e-25
2.59586e-25
2.82136e-26
2.93369e-26
3.10469e-26
3.3358e-26
3.63003e-26
3.99158e-26
4.42587e-26
4.93936e-26
5.53959e-26
6.23496e-26
7.03464e-26
7.94818e-26
8.98514e-26
1.01544e-25
1.1463e-25
1.29155e-25
1.45115e-25
1.62446e-25
1.80992e-25
2.0049e-25
2.20537e-25
2.40578e-25
2.59888e-25
2.77574e-25
2.92596e-25
3.03802e-25
3.0999e-25
3.27796e-26
3.4113e-26
3.61442e-26
3.88926e-26
4.23958e-26
4.6707e-26
5.18932e-26
5.80351e-26
6.52254e-26
7.35677e-26
8.31738e-26
9.41594e-26
1.06639e-25
1.20716e-25
1.36473e-25
1.53954e-25
1.73147e-25
1.9396e-25
2.16196e-25
2.39523e-25
2.63451e-25
2.87308e-25
3.10231e-25
3.31168e-25
3.48903e-25
3.62098e-25
3.69368e-25
3.80451e-26
3.96254e-26
4.20346e-26
4.52979e-26
4.94626e-26
5.45948e-26
6.07776e-26
6.81104e-26
7.67072e-26
8.66946e-26
9.82082e-26
1.11388e-25
1.26369e-25
1.43273e-25
1.62192e-25
1.83172e-25
2.06187e-25
2.31114e-25
2.57702e-25
2.85541e-25
3.14034e-25
3.42376e-25
3.69541e-25
3.94292e-25
4.15206e-25
4.30733e-25
4.3927e-25
4.41228e-26
4.59932e-26
4.88472e-26
5.27167e-26
5.76608e-26
6.37613e-26
7.11207e-26
7.98608e-26
9.0121e-26
1.02055e-25
1.15827e-25
1.31604e-25
1.49546e-25
1.69796e-25
1.92457e-25
2.17573e-25
2.45102e-25
2.74882e-25
3.06598e-25
3.39748e-25
3.73609e-25
4.07219e-25
4.39363e-25
4.68586e-25
4.93228e-25
5.11485e-25
5.21506e-25
5.11443e-26
5.33558e-26
5.67327e-26
6.13155e-26
6.71775e-26
7.44194e-26
8.31668e-26
9.35685e-26
1.05794e-25
1.20029e-25
1.36471e-25
1.55319e-25
1.76764e-25
2.00969e-25
2.2805e-25
2.5805e-25
2.90904e-25
3.26404e-25
3.64159e-25
4.03556e-25
4.43727e-25
4.83523e-25
5.21508e-25
5.55975e-25
5.84984e-25
6.0644e-25
6.18198e-25
5.92636e-26
6.18757e-26
6.58672e-26
7.1289e-26
7.82314e-26
8.68178e-26
9.72016e-26
1.09563e-25
1.24108e-25
1.41061e-25
1.60657e-25
1.83133e-25
2.08714e-25
2.37589e-25
2.69888e-25
3.05648e-25
3.44779e-25
3.87015e-25
4.31875e-25
4.78617e-25
5.26199e-25
5.73257e-25
6.18095e-25
6.58709e-25
6.92835e-25
7.18038e-25
7.3183e-25
6.86603e-26
7.17429e-26
7.64565e-26
8.28646e-26
9.10782e-26
1.01248e-25
1.13559e-25
1.28232e-25
1.45512e-25
1.65671e-25
1.88988e-25
2.15747e-25
2.46209e-25
2.80593e-25
3.19043e-25
3.61592e-25
4.08114e-25
4.58278e-25
5.11494e-25
5.66866e-25
6.23151e-25
6.78729e-25
7.31603e-25
7.79423e-25
8.19545e-25
8.49135e-25
8.65308e-25
7.95442e-26
8.31792e-26
8.8741e-26
9.63084e-26
1.06017e-25
1.18049e-25
1.3263e-25
1.50024e-25
1.70529e-25
1.94467e-25
2.22173e-25
2.5398e-25
2.90196e-25
3.31073e-25
3.76771e-25
4.27313e-25
4.82534e-25
5.42021e-25
6.05058e-25
6.70568e-25
7.37067e-25
8.02641e-25
8.64937e-25
9.212e-25
9.68345e-25
1.00307e-24
1.02203e-24
9.21605e-26
9.64438e-26
1.03002e-25
1.11931e-25
1.23396e-25
1.37619e-25
1.54871e-25
1.7547e-25
1.99771e-25
2.28161e-25
2.61037e-25
2.98792e-25
3.41787e-25
3.9031e-25
4.4454e-25
5.04489e-25
5.6994e-25
6.40387e-25
7.14961e-25
7.92372e-25
8.70858e-25
9.48154e-25
1.02149e-24
1.08765e-24
1.14302e-24
1.18377e-24
1.20599e-24
1.06796e-25
1.1184e-25
1.19567e-25
1.30095e-25
1.43625e-25
1.60423e-25
1.80816e-25
2.05185e-25
2.33956e-25
2.67586e-25
3.06549e-25
3.51307e-25
4.0228e-25
4.59803e-25
5.24071e-25
5.95082e-25
6.72559e-25
7.55881e-25
8.44002e-25
9.35382e-25
1.02793e-24
1.11897e-24
1.20525e-24
1.283e-24
1.34801e-24
1.39579e-24
1.42184e-24
1.23784e-25
1.29721e-25
1.3882e-25
1.51226e-25
1.67181e-25
1.87005e-25
2.1109e-25
2.39893e-25
2.7392e-25
3.13716e-25
3.5984e-25
4.12838e-25
4.73198e-25
5.41305e-25
6.17376e-25
7.01388e-25
7.92994e-25
8.91437e-25
9.9546e-25
1.10323e-24
1.21226e-24
1.31942e-24
1.42087e-24
1.51219e-24
1.58848e-24
1.64451e-24
1.67503e-24
1.43516e-25
1.505e-25
1.61209e-25
1.75819e-25
1.94621e-25
2.17999e-25
2.46423e-25
2.80437e-25
3.20644e-25
3.6769e-25
4.22236e-25
4.84922e-25
5.56318e-25
6.36867e-25
7.26809e-25
8.26096e-25
9.34295e-25
1.05049e-24
1.17317e-24
1.30016e-24
1.42853e-24
1.55457e-24
1.67379e-24
1.78102e-24
1.87051e-24
1.93619e-24
1.97194e-24
1.66449e-25
1.7466e-25
1.87258e-25
2.04454e-25
2.26598e-25
2.5415e-25
2.8767e-25
3.27805e-25
3.75274e-25
4.30841e-25
4.95285e-25
5.69357e-25
6.53723e-25
7.48891e-25
8.55127e-25
9.72351e-25
1.10003e-24
1.23705e-24
1.38162e-24
1.53115e-24
1.68218e-24
1.83035e-24
1.97038e-24
2.09624e-24
2.2012e-24
2.27818e-24
2.32005e-24
1.93116e-25
2.02767e-25
2.17579e-25
2.37809e-25
2.63874e-25
2.96324e-25
3.35827e-25
3.83152e-25
4.39151e-25
5.04727e-25
5.808e-25
6.68249e-25
7.67849e-25
8.80186e-25
1.00555e-24
1.14383e-24
1.29437e-24
1.45583e-24
1.62607e-24
1.80202e-24
1.97961e-24
2.1537e-24
2.31812e-24
2.46578e-24
2.58884e-24
2.67904e-24
2.72808e-24
2.24141e-25
2.35478e-25
2.52887e-25
2.76674e-25
3.0734e-25
3.45538e-25
3.92063e-25
4.47829e-25
5.13843e-25
5.91173e-25
6.809e-25
7.84057e-25
9.01545e-25
1.03404e-24
1.18186e-24
1.34485e-24
1.5222e-24
1.71231e-24
1.91265e-24
2.11958e-24
2.32829e-24
2.53275e-24
2.72572e-24
2.89891e-24
3.04316e-24
3.14884e-24
3.20626e-24
2.60251e-25
2.73566e-25
2.94018e-25
3.21977e-25
3.58037e-25
4.02978e-25
4.57743e-25
5.23415e-25
6.01184e-25
6.92311e-25
7.98068e-25
9.19662e-25
1.05815e-24
1.21429e-24
1.38846e-24
1.58043e-24
1.78923e-24
2.01295e-24
2.24857e-24
2.49179e-24
2.73696e-24
2.97699e-24
3.2034e-24
3.40647e-24
3.57554e-24
3.69932e-24
3.76655e-24
3.02298e-25
3.1793e-25
3.4195e-25
3.74798e-25
4.17184e-25
4.70033e-25
5.34464e-25
6.11756e-25
7.03319e-25
8.10636e-25
9.35202e-25
1.07843e-24
1.24155e-24
1.42545e-24
1.63052e-24
1.85649e-24
2.10216e-24
2.36527e-24
2.64223e-24
2.92798e-24
3.21586e-24
3.49754e-24
3.7631e-24
4.00116e-24
4.19926e-24
4.34424e-24
4.42295e-24
3.51276e-25
3.69623e-25
3.97823e-25
4.36403e-25
4.86204e-25
5.48325e-25
6.2409e-25
7.15013e-25
8.22755e-25
9.49065e-25
1.0957e-24
1.26431e-24
1.45632e-24
1.67277e-24
1.91409e-24
2.17991e-24
2.46881e-24
2.77808e-24
3.10348e-24
3.43905e-24
3.77695e-24
4.10741e-24
4.4188e-24
4.69782e-24
4.92989e-24
5.09967e-24
5.19181e-24
4.08348e-25
4.29876e-25
4.62973e-25
5.08269e-25
5.66761e-25
6.39752e-25
7.28806e-25
8.35711e-25
9.62427e-25
1.11101e-24
1.28352e-24
1.4819e-24
1.7078e-24
1.96241e-24
2.24622e-24
2.55876e-24
2.89832e-24
3.26168e-24
3.64384e-24
4.03776e-24
4.43424e-24
4.82181e-24
5.18685e-24
5.51382e-24
5.78565e-24
5.98445e-24
6.0923e-24
4.74873e-25
5.00125e-25
5.3896e-25
5.92124e-25
6.60801e-25
7.4653e-25
8.51161e-25
9.76804e-25
1.12577e-24
1.30047e-24
1.50332e-24
1.73659e-24
2.00222e-24
2.30158e-24
2.63519e-24
3.00248e-24
3.4014e-24
3.82814e-24
4.27678e-24
4.73905e-24
5.20411e-24
5.65855e-24
6.08639e-24
6.46946e-24
6.78782e-24
7.02057e-24
7.1468e-24
5.52437e-25
5.82052e-25
6.27607e-25
6.89989e-25
7.70598e-25
8.71255e-25
9.94141e-25
1.14175e-24
1.31678e-24
1.5221e-24
1.76052e-24
2.0347e-24
2.3469e-24
2.69869e-24
3.09067e-24
3.52212e-24
3.99059e-24
4.49157e-24
5.01807e-24
5.56036e-24
6.10574e-24
6.63844e-24
7.1398e-24
7.58852e-24
7.96132e-24
8.2338e-24
8.38153e-24
6.42896e-25
6.77621e-25
7.31046e-25
8.04224e-25
8.98812e-25
1.01696e-24
1.16123e-24
1.33457e-24
1.54017e-24
1.78136e-24
2.06147e-24
2.3836e-24
2.75037e-24
3.16361e-24
3.62398e-24
4.13059e-24
4.68054e-24
5.26846e-24
5.88615e-24
6.52214e-24
7.16153e-24
7.78585e-24
8.37324e-24
8.89879e-24
9.3353e-24
9.65425e-24
9.82714e-24
7.4842e-25
7.89127e-25
8.51768e-25
9.37591e-25
1.04855e-24
1.18718e-24
1.35652e-24
1.56001e-24
1.80141e-24
2.08465e-24
2.41361e-24
2.79191e-24
3.22263e-24
3.70786e-24
4.24835e-24
4.843e-24
5.48837e-24
6.17812e-24
6.90258e-24
7.64827e-24
8.39772e-24
9.12928e-24
9.81734e-24
1.04328e-23
1.09438e-23
1.13172e-23
1.15195e-23
8.71543e-25
9.19253e-25
9.92685e-25
1.09331e-24
1.22345e-24
1.38608e-24
1.58477e-24
1.82358e-24
2.10693e-24
2.43942e-24
2.82561e-24
3.26974e-24
3.77536e-24
4.34492e-24
4.97926e-24
5.67704e-24
6.43415e-24
7.24314e-24
8.09259e-24
8.96672e-24
9.84498e-24
1.0702e-23
1.15079e-23
1.22286e-23
1.28268e-23
1.32638e-23
1.35005e-23
1.01523e-24
1.07114e-24
1.1572e-24
1.27517e-24
1.42776e-24
1.61848e-24
1.85156e-24
2.13175e-24
2.46423e-24
2.85442e-24
3.30764e-24
3.82887e-24
4.42223e-24
5.09058e-24
5.83483e-24
6.65337e-24
7.54133e-24
8.48992e-24
9.48571e-24
1.05102e-23
1.15392e-23
1.25431e-23
1.34869e-23
1.43306e-23
1.50309e-23
1.55422e-23
1.58192e-23
1.18294e-24
1.24845e-24
1.3493e-24
1.48757e-24
1.66644e-24
1.89007e-24
2.16341e-24
2.49205e-24
2.88209e-24
3.33985e-24
3.87159e-24
4.48311e-24
5.17924e-24
5.96327e-24
6.83623e-24
7.79617e-24
8.83735e-24
9.94936e-24
1.11165e-23
1.23169e-23
1.35224e-23
1.46982e-23
1.58032e-23
1.6791e-23
1.76106e-23
1.8209e-23
1.85331e-23
1.37873e-24
1.45547e-24
1.57364e-24
1.73566e-24
1.94531e-24
2.20747e-24
2.52795e-24
2.91333e-24
3.37076e-24
3.90766e-24
4.53135e-24
5.24862e-24
6.06509e-24
6.98457e-24
8.00824e-24
9.13375e-24
1.03543e-23
1.16576e-23
1.30252e-23
1.44315e-23
1.58435e-23
1.72205e-23
1.85143e-23
1.96705e-23
2.06298e-23
2.13299e-23
2.17091e-23
1.60732e-24
1.69721e-24
1.83564e-24
2.02548e-24
2.27116e-24
2.57843e-24
2.9541e-24
3.40591e-24
3.94225e-24
4.57181e-24
5.30318e-24
6.14427e-24
7.10164e-24
8.17973e-24
9.37984e-24
1.06992e-23
1.21297e-23
1.36569e-23
1.52592e-23
1.69065e-23
1.85602e-23
2.01724e-23
2.16871e-23
2.30404e-23
2.4163e-23
2.49823e-23
2.54259e-23
1.87426e-24
1.97953e-24
2.14168e-24
2.36407e-24
2.65193e-24
3.01199e-24
3.45228e-24
3.98188e-24
4.6106e-24
5.34866e-24
6.20608e-24
7.19214e-24
8.31449e-24
9.57826e-24
1.09849e-23
1.25311e-23
1.42074e-23
1.59967e-23
1.78737e-23
1.9803e-23
2.17394e-23
2.3627e-23
2.54e-23
2.6984e-23
2.82976e-23
2.92561e-23
2.97751e-23
2.186e-24
2.30929e-24
2.49919e-24
2.75968e-24
3.0969e-24
3.51876e-24
4.03469e-24
4.65534e-24
5.39222e-24
6.25728e-24
7.26229e-24
8.41807e-24
9.73354e-24
1.12147e-23
1.28631e-23
1.46749e-23
1.66388e-23
1.87349e-23
2.09332e-23
2.31926e-23
2.54599e-23
2.76696e-23
2.97449e-23
3.15985e-23
3.31356e-23
3.42571e-23
3.48642e-23
2.55012e-24
2.69447e-24
2.91685e-24
3.22193e-24
3.61693e-24
4.11113e-24
4.71559e-24
5.44281e-24
6.3063e-24
7.32004e-24
8.49781e-24
9.85225e-24
1.13938e-23
1.31294e-23
1.50608e-23
1.71834e-23
1.94839e-23
2.1939e-23
2.45135e-23
2.7159e-23
2.98133e-23
3.23999e-23
3.48288e-23
3.6998e-23
3.87965e-23
4.01086e-23
4.08188e-23
2.97545e-24
3.14446e-24
3.40484e-24
3.7621e-24
4.2247e-24
4.80356e-24
5.51165e-24
6.36361e-24
7.37528e-24
8.56306e-24
9.94305e-24
1.153e-23
1.33362e-23
1.53695e-23
1.76322e-23
2.01186e-23
2.28131e-23
2.56882e-23
2.87027e-23
3.18001e-23
3.49073e-23
3.79348e-23
4.07773e-23
4.33156e-23
4.54199e-23
4.69548e-23
4.77856e-23
3.47233e-24
3.67018e-24
3.97504e-24
4.39335e-24
4.93507e-24
5.613e-24
6.44235e-24
7.44031e-24
8.62542e-24
1.00169e-23
1.16336e-23
1.34927e-23
1.56085e-23
1.79904e-23
2.06407e-23
2.35528e-23
2.67083e-23
3.0075e-23
3.36044e-23
3.72304e-23
4.08674e-23
4.44107e-23
4.77371e-23
5.07071e-23
5.3169e-23
5.49647e-23
5.59365e-23
4.05283e-24
4.28444e-24
4.64133e-24
5.13108e-24
5.76538e-24
6.55924e-24
7.53051e-24
8.69932e-24
1.00874e-23
1.17173e-23
1.36109e-23
1.57886e-23
1.82668e-23
2.10566e-23
2.41606e-23
2.75708e-23
3.12657e-23
3.52075e-23
3.93394e-23
4.35838e-23
4.78407e-23
5.19874e-23
5.58797e-23
5.93547e-23
6.22349e-23
6.43355e-23
6.54722e-23
4.73109e-24
5.00218e-24
5.41995e-24
5.99329e-24
6.73592e-24
7.66544e-24
8.80278e-24
1.01715e-23
1.17971e-23
1.3706e-23
1.59238e-23
1.84742e-23
2.13766e-23
2.46436e-23
2.82784e-23
3.22715e-23
3.65976e-23
4.12123e-23
4.60491e-23
5.1017e-23
5.59989e-23
6.08515e-23
6.54058e-23
6.94714e-23
7.28409e-23
7.52981e-23
7.66277e-23
5.52362e-24
5.84091e-24
6.3299e-24
7.00104e-24
7.87041e-24
8.95866e-24
1.02903e-23
1.1893e-23
1.37966e-23
1.60318e-23
1.8629e-23
2.16156e-23
2.50143e-23
2.88398e-23
3.30957e-23
3.77708e-23
4.28354e-23
4.82373e-23
5.38987e-23
5.97131e-23
6.55432e-23
7.12214e-23
7.65501e-23
8.13065e-23
8.52482e-23
8.81224e-23
8.96776e-23
6.44973e-24
6.82106e-24
7.39338e-24
8.17894e-24
9.1966e-24
1.04706e-23
1.20296e-23
1.3906e-23
1.61348e-23
1.87521e-23
2.1793e-23
2.529e-23
2.92695e-23
3.37485e-23
3.87311e-23
4.42042e-23
5.01328e-23
5.64557e-23
6.30818e-23
6.98863e-23
7.67086e-23
8.33525e-23
8.9587e-23
9.51514e-23
9.97623e-23
1.03124e-22
1.04943e-22
7.53199e-24
7.96655e-24
8.63635e-24
9.55576e-24
1.07469e-23
1.22382e-23
1.40632e-23
1.62599e-23
1.88693e-23
2.19334e-23
2.54938e-23
2.95879e-23
3.42468e-23
3.94904e-23
4.53233e-23
5.173e-23
5.86694e-23
6.60698e-23
7.38244e-23
8.17871e-23
8.977e-23
9.75434e-23
1.04837e-22
1.11347e-22
1.1674e-22
1.20673e-22
1.228e-22
8.79681e-24
9.30532e-24
1.00892e-23
1.11652e-23
1.25593e-23
1.43047e-23
1.6441e-23
1.90124e-23
2.2067e-23
2.56541e-23
2.98221e-23
3.4615e-23
4.00688e-23
4.6207e-23
5.30347e-23
6.05335e-23
6.86554e-23
7.73163e-23
8.6391e-23
9.57085e-23
1.05049e-22
1.14144e-22
1.22676e-22
1.30291e-22
1.366e-22
1.41199e-22
1.43688e-22
1.0275e-23
1.08701e-23
1.17873e-23
1.30465e-23
1.4678e-23
1.67209e-23
1.92212e-23
2.22311e-23
2.58066e-23
3.00055e-23
3.48843e-23
4.04947e-23
4.68786e-23
5.40633e-23
6.20548e-23
7.08314e-23
8.03365e-23
9.04719e-23
1.01091e-22
1.11993e-22
1.22921e-22
1.33561e-22
1.43543e-22
1.5245e-22
1.5983e-22
1.65209e-22
1.68119e-22
1.20028e-23
1.2699e-23
1.37722e-23
1.52457e-23
1.7155e-23
1.95457e-23
2.2472e-23
2.59948e-23
3.01797e-23
3.50944e-23
4.08049e-23
4.73716e-23
5.48437e-23
6.32527e-23
7.26056e-23
8.28769e-23
9.40003e-23
1.0586e-22
1.18286e-22
1.31041e-22
1.43827e-22
1.56274e-22
1.67951e-22
1.7837e-22
1.87001e-22
1.93293e-22
1.96696e-22
1.40222e-23
1.48368e-23
1.60925e-23
1.78167e-23
2.00509e-23
2.28486e-23
2.62732e-23
3.0396e-23
3.52938e-23
4.10457e-23
4.77293e-23
5.54148e-23
6.41597e-23
7.4001e-23
8.49465e-23
9.69663e-23
1.09983e-22
1.2386e-22
1.38398e-22
1.53322e-22
1.68279e-22
1.8284e-22
1.96499e-22
2.08686e-22
2.18781e-22
2.2614e-22
2.3012e-22
1.63826e-23
1.73356e-23
1.88049e-23
2.08222e-23
2.34365e-23
2.67103e-23
3.07177e-23
3.55424e-23
4.12742e-23
4.80057e-23
5.58275e-23
6.48218e-23
7.50558e-23
8.65725e-23
9.93811e-23
1.13446e-22
1.28677e-22
1.44914e-22
1.61923e-22
1.79382e-22
1.9688e-22
2.13913e-22
2.2989e-22
2.44145e-22
2.55952e-22
2.64558e-22
2.69213e-22
1.91417e-23
2.02567e-23
2.19756e-23
2.43359e-23
2.73947e-23
3.12254e-23
3.59147e-23
4.15605e-23
4.82679e-23
5.61452e-23
6.52984e-23
7.58238e-23
8.77997e-23
1.01276e-22
1.16264e-22
1.32721e-22
1.50542e-22
1.69539e-22
1.89438e-22
2.09864e-22
2.30333e-22
2.50257e-22
2.68945e-22
2.85617e-22
2.99426e-22
3.09491e-22
3.14934e-22
2.23669e-23
2.36713e-23
2.56823e-23
2.84438e-23
3.20226e-23
3.65046e-23
4.19915e-23
4.85977e-23
5.64463e-23
6.5664e-23
7.63747e-23
8.8691e-23
1.02704e-22
1.18473e-22
1.3601e-22
1.55266e-22
1.76115e-22
1.98341e-22
2.21621e-22
2.45515e-22
2.69459e-22
2.92764e-22
3.14622e-22
3.34121e-22
3.50272e-22
3.62042e-22
3.68408e-22
2.6137e-23
2.7663e-23
3.00157e-23
3.32463e-23
3.74333e-23
4.26772e-23
4.90971e-23
5.68267e-23
6.60101e-23
7.67957e-23
8.93282e-23
1.03739e-22
1.20136e-22
1.38587e-22
1.59105e-22
1.81634e-22
2.06026e-22
2.32028e-22
2.59261e-22
2.87211e-22
3.15219e-22
3.42478e-22
3.68044e-22
3.90849e-22
4.09738e-22
4.23503e-22
4.30948e-22
3.05444e-23
3.23294e-23
3.50817e-23
3.88611e-23
4.37595e-23
4.98946e-23
5.74056e-23
6.64492e-23
7.71941e-23
8.98136e-23
1.04477e-22
1.21339e-22
1.40523e-22
1.6211e-22
1.86116e-22
2.12473e-22
2.41009e-22
2.71427e-22
3.03284e-22
3.35978e-22
3.68738e-22
4.00622e-22
4.30523e-22
4.57194e-22
4.79284e-22
4.95382e-22
5.04088e-22
3.56967e-23
3.77848e-23
4.10043e-23
4.54256e-23
5.11561e-23
5.83334e-23
6.71208e-23
7.77014e-23
9.02725e-23
1.05037e-22
1.22193e-22
1.41921e-22
1.64366e-22
1.89621e-22
2.17706e-22
2.4854e-22
2.81923e-22
3.17505e-22
3.5477e-22
3.93012e-22
4.3133e-22
4.68621e-22
5.03592e-22
5.34785e-22
5.60618e-22
5.79443e-22
5.89623e-22
4.17199e-23
4.41624e-23
4.79286e-23
5.31005e-23
5.98042e-23
6.82006e-23
7.84808e-23
9.08591e-23
1.05566e-22
1.2284e-22
1.42911e-22
1.65991e-22
1.9225e-22
2.21796e-22
2.54651e-22
2.90722e-22
3.29773e-22
3.71395e-22
4.14984e-22
4.59715e-22
5.04532e-22
5.48146e-22
5.89046e-22
6.25525e-22
6.55735e-22
6.7775e-22
6.89654e-22
4.87615e-23
5.16186e-23
5.60239e-23
6.20738e-23
6.99157e-23
7.9738e-23
9.17641e-23
1.06245e-22
1.23451e-22
1.43659e-22
1.6714e-22
1.9414e-22
2.24859e-22
2.59424e-22
2.97858e-22
3.40054e-22
3.85734e-22
4.3442e-22
4.85404e-22
5.37723e-22
5.90141e-22
6.41149e-22
6.88981e-22
7.31642e-22
7.6697e-22
7.92714e-22
8.06635e-22
5.69938e-23
6.03356e-23
6.54886e-23
7.25653e-23
8.17383e-23
9.32283e-23
1.07296e-22
1.24236e-22
1.44364e-22
1.68004e-22
1.95474e-22
2.2706e-22
2.62996e-22
3.03429e-22
3.48389e-22
3.97747e-22
4.51179e-22
5.08126e-22
5.6776e-22
6.28951e-22
6.90257e-22
7.49912e-22
8.0585e-22
8.55739e-22
8.97052e-22
9.27155e-22
9.43433e-22
6.66182e-23
7.0527e-23
7.65543e-23
8.48319e-23
9.55618e-23
1.09002e-22
1.25458e-22
1.45275e-22
1.6882e-22
1.96474e-22
2.28608e-22
2.65557e-22
3.07594e-22
3.54892e-22
4.07483e-22
4.65217e-22
5.27716e-22
5.94323e-22
6.64071e-22
7.35639e-22
8.07337e-22
8.77103e-22
9.42519e-22
1.00086e-21
1.04917e-21
1.08437e-21
1.10341e-21
7.78703e-23
8.24421e-23
8.94919e-23
9.91741e-23
1.11725e-22
1.27446e-22
1.46696e-22
1.69875e-22
1.97418e-22
2.29767e-22
2.67355e-22
3.10577e-22
3.59749e-22
4.15074e-22
4.7659e-22
5.44121e-22
6.17221e-22
6.95127e-22
7.76701e-22
8.60402e-22
9.44253e-22
1.02584e-21
1.10234e-21
1.17057e-21
1.22706e-21
1.26822e-21
1.29048e-21
9.10256e-23
9.63728e-23
1.04618e-22
1.15943e-22
1.30623e-22
1.49012e-22
1.71528e-22
1.98642e-22
2.30859e-22
2.68698e-22
3.12667e-22
3.63224e-22
4.20741e-22
4.85454e-22
5.57407e-22
6.36394e-22
7.21893e-22
8.13009e-22
9.08414e-22
1.0063e-21
1.10436e-21
1.19978e-21
1.28924e-21
1.36901e-21
1.43507e-21
1.4832e-21
1.50923e-21
1.06406e-22
1.1266e-22
1.22304e-22
1.3555e-22
1.5272e-22
1.74229e-22
2.00565e-22
2.3228e-22
2.69964e-22
3.14224e-22
3.65654e-22
4.24789e-22
4.92066e-22
5.67758e-22
6.51916e-22
7.44299e-22
8.44297e-22
9.50862e-22
1.06244e-21
1.17692e-21
1.2916e-21
1.40317e-21
1.50778e-21
1.60107e-21
1.67831e-21
1.73459e-21
1.76502e-21
1.24388e-22
1.31703e-22
1.42982e-22
1.58474e-22
1.78557e-22
2.03714e-22
2.34519e-22
2.71614e-22
3.15691e-22
3.67461e-22
4.27616e-22
4.96784e-22
5.75473e-22
6.64004e-22
7.62436e-22
8.70485e-22
9.87438e-22
1.11207e-21
1.24256e-21
1.37643e-21
1.51054e-21
1.64101e-21
1.76334e-21
1.87243e-21
1.96274e-21
2.02855e-21
2.06413e-21
1.45412e-22
1.53967e-22
1.67159e-22
1.85278e-22
2.08767e-22
2.38191e-22
2.7422e-22
3.17608e-22
3.69162e-22
4.29713e-22
5.00072e-22
5.80973e-22
6.73008e-22
7.76554e-22
8.91677e-22
1.01805e-21
1.15482e-21
1.30058e-21
1.45318e-21
1.60974e-21
1.76656e-21
1.91913e-21
2.06217e-21
2.18972e-21
2.29533e-21
2.37227e-21
2.41387e-21
1.69994e-22
1.79999e-22
1.95427e-22
2.16619e-22
2.4409e-22
2.78504e-22
3.20643e-22
3.71389e-22
4.31687e-22
5.02509e-22
5.84801e-22
6.79421e-22
7.87064e-22
9.08167e-22
1.04281e-21
1.1906e-21
1.35056e-21
1.52101e-21
1.69947e-21
1.88255e-21
2.06593e-21
2.24434e-21
2.4116e-21
2.56074e-21
2.68422e-21
2.77418e-21
2.82282e-21
1.98733e-22
2.10434e-22
2.28479e-22
2.53263e-22
2.85392e-22
3.25641e-22
3.74926e-22
4.34277e-22
5.048e-22
5.87632e-22
6.83878e-22
7.94543e-22
9.20437e-22
1.06207e-21
1.21954e-21
1.39237e-21
1.57944e-21
1.77878e-21
1.98746e-21
2.20156e-21
2.41599e-21
2.62461e-21
2.82018e-21
2.99457e-21
3.13894e-21
3.24412e-21
3.30099e-21
2.32336e-22
2.4602e-22
2.67123e-22
2.96108e-22
3.33684e-22
3.80757e-22
4.38398e-22
5.07813e-22
5.90293e-22
6.87169e-22
7.99734e-22
9.29161e-22
1.0764e-21
1.24204e-21
1.42619e-21
1.62832e-21
1.84709e-21
2.08019e-21
2.32422e-21
2.57457e-21
2.82532e-21
3.06925e-21
3.29792e-21
3.50182e-21
3.67062e-21
3.7936e-21
3.86008e-21
2.71624e-22
2.87627e-22
3.12307e-22
3.46205e-22
3.9015e-22
4.45203e-22
5.12616e-22
5.93798e-22
6.90262e-22
8.03561e-22
9.35208e-22
1.08657e-21
1.25877e-21
1.45248e-21
1.66784e-21
1.90422e-21
2.16004e-21
2.43263e-21
2.71799e-21
3.01073e-21
3.30393e-21
3.58915e-21
3.85652e-21
4.09491e-21
4.29227e-21
4.43605e-21
4.51378e-21
3.17559e-22
3.36275e-22
3.65137e-22
4.0478e-22
4.56174e-22
5.20558e-22
5.99398e-22
6.94341e-22
8.07156e-22
9.39659e-22
1.09362e-21
1.27064e-21
1.47202e-21
1.69856e-21
1.95041e-21
2.22683e-21
2.52599e-21
2.84474e-21
3.17842e-21
3.52072e-21
3.86354e-21
4.19703e-21
4.50964e-21
4.78837e-21
5.01912e-21
5.18721e-21
5.27808e-21
3.71267e-22
3.93154e-22
4.26907e-22
4.73269e-22
5.33372e-22
6.08668e-22
7.0087e-22
8.11905e-22
9.4384e-22
1.0988e-21
1.27885e-21
1.48587e-21
1.72137e-21
1.98629e-21
2.28081e-21
2.60405e-21
2.95388e-21
3.3266e-21
3.71678e-21
4.11702e-21
4.51786e-21
4.90778e-21
5.27328e-21
5.59916e-21
5.86893e-21
6.06544e-21
6.17168e-21
4.34062e-22
4.59657e-22
4.9913e-22
5.53348e-22
6.23636e-22
7.11692e-22
8.19519e-22
9.49371e-22
1.10366e-21
1.28488e-21
1.49545e-21
1.73755e-21
2.01294e-21
2.32274e-21
2.66715e-21
3.04513e-21
3.4542e-21
3.89003e-21
4.34625e-21
4.81423e-21
5.2829e-21
5.73879e-21
6.16612e-21
6.5471e-21
6.86249e-21
7.09223e-21
7.21643e-21
5.07482e-22
5.37414e-22
5.83575e-22
6.46979e-22
7.29177e-22
8.32153e-22
9.58252e-22
1.11011e-21
1.29054e-21
1.50247e-21
1.74871e-21
2.03182e-21
2.35387e-21
2.71615e-21
3.11888e-21
3.56087e-21
4.03919e-21
4.5488e-21
5.08224e-21
5.62941e-21
6.17738e-21
6.71038e-21
7.20998e-21
7.65539e-21
8.0241e-21
8.29268e-21
8.43787e-21
5.93326e-22
6.28329e-22
6.8231e-22
7.56455e-22
8.5258e-22
9.73003e-22
1.12047e-21
1.29805e-21
1.50906e-21
1.75689e-21
2.04484e-21
2.37591e-21
2.75251e-21
3.17614e-21
3.64706e-21
4.16389e-21
4.72319e-21
5.31905e-21
5.94276e-21
6.5825e-21
7.22317e-21
7.84632e-21
8.4304e-21
8.95112e-21
9.38215e-21
9.69613e-21
9.86585e-21
6.93694e-22
7.34627e-22
7.97752e-22
8.84458e-22
9.96868e-22
1.13769e-21
1.31014e-21
1.5178e-21
1.76456e-21
2.05437e-21
2.3911e-21
2.77824e-21
3.21861e-21
3.71398e-21
4.26464e-21
4.86896e-21
5.52292e-21
6.21961e-21
6.94886e-21
7.69682e-21
8.44585e-21
9.17438e-21
9.85721e-21
1.04659e-20
1.09698e-20
1.13369e-20
1.15353e-20
8.11045e-22
8.58911e-22
9.32729e-22
1.03412e-21
1.16557e-21
1.33025e-21
1.53191e-21
1.77475e-21
2.0633e-21
2.4022e-21
2.79596e-21
3.24866e-21
3.76361e-21
4.34284e-21
4.98672e-21
5.69333e-21
6.45795e-21
7.27253e-21
8.12514e-21
8.99962e-21
9.8753e-21
1.0727e-20
1.15253e-20
1.22369e-20
1.28259e-20
1.3255e-20
1.34869e-20
9.48251e-22
1.00422e-21
1.09054e-21
1.20911e-21
1.36283e-21
1.5554e-21
1.79121e-21
2.07518e-21
2.41261e-21
2.8089e-21
3.26934e-21
3.7987e-21
4.40082e-21
5.07811e-21
5.83097e-21
6.65716e-21
7.55117e-21
8.50355e-21
9.50037e-21
1.05227e-20
1.15465e-20
1.25422e-20
1.34753e-20
1.43072e-20
1.49957e-20
1.54972e-20
1.57683e-20
1.10867e-21
1.17412e-21
1.27506e-21
1.41371e-21
1.59346e-21
1.81865e-21
2.09439e-21
2.42646e-21
2.82102e-21
3.28442e-21
3.82282e-21
4.4418e-21
5.14586e-21
5.93779e-21
6.81806e-21
7.78405e-21
8.8293e-21
9.94277e-21
1.11082e-20
1.23034e-20
1.35002e-20
1.46641e-20
1.5755e-20
1.67274e-20
1.75323e-20
1.81185e-20
1.84353e-20
1.29623e-21
1.37277e-21
1.4908e-21
1.65293e-21
1.86312e-21
2.12644e-21
2.44888e-21
2.83718e-21
3.29855e-21
3.8404e-21
4.46995e-21
5.19372e-21
6.01694e-21
6.9429e-21
7.97212e-21
9.10153e-21
1.03236e-20
1.16254e-20
1.29878e-20
1.43851e-20
1.57842e-20
1.71448e-20
1.84199e-20
1.95566e-20
2.04974e-20
2.11826e-20
2.15529e-20
1.51553e-21
1.60502e-21
1.74304e-21
1.93262e-21
2.1784e-21
2.48631e-21
2.86335e-21
3.31739e-21
3.85687e-21
4.49046e-21
5.22658e-21
6.07284e-21
7.03538e-21
8.11802e-21
9.32137e-21
1.06418e-20
1.20706e-20