/*--------------------------------*- C++ -*----------------------------------*\
| =========                 |                                                 |
| \\      /  F ield         | OpenFOAM: The Open Source CFD Toolbox           |
|  \\    /   O peration     | Version:  2212                                  |
|   \\  /    A nd           | Website:  www.openfoam.com                      |
|    \\/     M anipulation  |                                                 |
\*---------------------------------------------------------------------------*/
FoamFile
{
    version     2.0;
    format      ascii;
    arch        "LSB;label=32;scalar=64";
    class       volScalarField;
    location    "9.0545968";
    object      C9H8_0;
}
// * * * * * * * * * * * * * * * * * * * * * * * * * * * * * * * * * * * * * //

dimensions      [0 0 0 0 0 0 0];

internalField   nonuniform List<scalar> 
33600
(
8.40943e-27
8.6539e-27
9.02312e-27
9.51626e-27
1.01344e-26
1.08797e-26
1.17554e-26
1.27655e-26
1.39142e-26
1.52064e-26
1.66468e-26
1.82402e-26
1.99906e-26
2.19015e-26
2.39756e-26
2.62135e-26
2.86146e-26
3.11752e-26
3.3889e-26
3.67458e-26
3.97307e-26
4.28226e-26
4.59909e-26
4.91856e-26
5.23051e-26
5.5121e-26
5.70686e-26
2.71384e-26
2.793e-26
2.91256e-26
3.07224e-26
3.27239e-26
3.51376e-26
3.79739e-26
4.12456e-26
4.49671e-26
4.91539e-26
5.38218e-26
5.89861e-26
6.46608e-26
7.08576e-26
7.75846e-26
8.48454e-26
9.26375e-26
1.0095e-25
1.09762e-25
1.19042e-25
1.28741e-25
1.38795e-25
1.49115e-25
1.59589e-25
1.70013e-25
1.80015e-25
1.88021e-25
4.99321e-26
5.13974e-26
5.36104e-26
5.65661e-26
6.02714e-26
6.47402e-26
6.99923e-26
7.60518e-26
8.29463e-26
9.07049e-26
9.93579e-26
1.08935e-25
1.19462e-25
1.30964e-25
1.43457e-25
1.56952e-25
1.71448e-25
1.86933e-25
2.03379e-25
2.20744e-25
2.38969e-25
2.57978e-25
2.77666e-25
2.9788e-25
3.18213e-25
3.37657e-25
3.5247e-25
7.73052e-26
7.95929e-26
8.30479e-26
8.76626e-26
9.34483e-26
1.00428e-25
1.08633e-25
1.18102e-25
1.2888e-25
1.41015e-25
1.54556e-25
1.69552e-25
1.86049e-25
2.04089e-25
2.23706e-25
2.44927e-25
2.67763e-25
2.92216e-25
3.18273e-25
3.45907e-25
3.75075e-25
4.05713e-25
4.37682e-25
4.70663e-25
5.03729e-25
5.34543e-25
5.56631e-25
1.09827e-25
1.13111e-25
1.18071e-25
1.24696e-25
1.33004e-25
1.4303e-25
1.5482e-25
1.68434e-25
1.83938e-25
2.01406e-25
2.20914e-25
2.42538e-25
2.66355e-25
2.92437e-25
3.20849e-25
3.51649e-25
3.84886e-25
4.20599e-25
4.58814e-25
4.99548e-25
5.42781e-25
5.8843e-25
6.36204e-25
6.8536e-25
7.33966e-25
7.77729e-25
8.07422e-25
1.48131e-25
1.52615e-25
1.59387e-25
1.68435e-25
1.79785e-25
1.93485e-25
2.09607e-25
2.28234e-25
2.49465e-25
2.73407e-25
3.00174e-25
3.29887e-25
3.62665e-25
3.98629e-25
4.37898e-25
4.80588e-25
5.26809e-25
5.76667e-25
6.30253e-25
6.87628e-25
7.48771e-25
8.13479e-25
8.81111e-25
9.50135e-25
1.01713e-24
1.0755e-24
1.11337e-24
1.92934e-25
1.98856e-25
2.078e-25
2.19753e-25
2.34752e-25
2.52869e-25
2.74202e-25
2.98872e-25
3.27019e-25
3.588e-25
3.94384e-25
4.3395e-25
4.77688e-25
5.25792e-25
5.78463e-25
6.35904e-25
6.98321e-25
7.65909e-25
8.38833e-25
9.17178e-25
1.00084e-24
1.08934e-24
1.18141e-24
1.27431e-24
1.36276e-24
1.43762e-24
1.48456e-24
2.4505e-25
2.52687e-25
2.64224e-25
2.79647e-25
2.99012e-25
3.22418e-25
3.50004e-25
3.81939e-25
4.18423e-25
4.59678e-25
5.05953e-25
5.57513e-25
6.14644e-25
6.77648e-25
7.46843e-25
8.22556e-25
9.05113e-25
9.94816e-25
1.09189e-24
1.19639e-24
1.308e-24
1.42575e-24
1.54739e-24
1.66864e-24
1.78202e-24
1.87571e-24
1.93289e-24
3.05413e-25
3.1509e-25
3.29712e-25
3.4927e-25
3.73843e-25
4.03569e-25
4.38641e-25
4.79295e-25
5.2581e-25
5.78503e-25
6.37727e-25
7.0387e-25
7.77349e-25
8.58616e-25
9.48143e-25
1.04641e-24
1.1539e-24
1.27102e-24
1.39801e-24
1.5348e-24
1.6807e-24
1.83395e-24
1.99103e-24
2.14574e-24
2.28807e-24
2.4034e-24
2.47236e-24
3.75099e-25
3.87197e-25
4.05483e-25
4.29956e-25
4.60728e-25
4.97993e-25
5.42014e-25
5.93118e-25
6.5169e-25
7.18174e-25
7.93066e-25
8.76914e-25
9.70318e-25
1.07392e-24
1.18839e-24
1.3144e-24
1.45259e-24
1.60346e-24
1.7672e-24
1.94349e-24
2.13104e-24
2.32703e-24
2.52629e-24
2.72034e-24
2.89638e-24
3.03677e-24
3.11935e-24
4.55359e-25
4.70323e-25
4.92952e-25
5.23257e-25
5.61399e-25
6.07644e-25
6.62349e-25
7.25962e-25
7.9901e-25
8.82103e-25
9.75926e-25
1.08124e-24
1.19887e-24
1.32971e-24
1.47467e-24
1.63465e-24
1.81043e-24
2.00257e-24
2.21114e-24
2.43537e-24
2.67314e-24
2.92025e-24
3.1695e-24
3.40977e-24
3.62515e-24
3.79466e-24
3.89309e-24
5.47642e-25
5.65996e-25
5.93765e-25
6.30984e-25
6.77877e-25
7.34805e-25
8.02254e-25
8.80825e-25
9.71234e-25
1.0743e-24
1.19097e-24
1.32225e-24
1.46928e-24
1.63324e-24
1.81532e-24
2.01668e-24
2.23825e-24
2.48057e-24
2.74347e-24
3.02553e-24
3.32351e-24
3.63146e-24
3.93981e-24
4.23436e-24
4.49569e-24
4.69917e-24
4.8161e-24
6.53639e-25
6.75998e-25
7.09844e-25
7.55251e-25
8.12525e-25
8.82154e-25
9.64786e-25
1.06123e-24
1.17243e-24
1.2995e-24
1.44367e-24
1.60631e-24
1.78891e-24
1.993e-24
2.22012e-24
2.47167e-24
2.74872e-24
3.05173e-24
3.38009e-24
3.73155e-24
4.10139e-24
4.48157e-24
4.85964e-24
5.21793e-24
5.53304e-24
5.77622e-24
5.91478e-24
7.75325e-25
8.02408e-25
8.43436e-25
8.98529e-25
9.68108e-25
1.05282e-24
1.15353e-24
1.27129e-24
1.40737e-24
1.56322e-24
1.74046e-24
1.94087e-24
2.16638e-24
2.41895e-24
2.70049e-24
3.01268e-24
3.35667e-24
3.73272e-24
4.13964e-24
4.57402e-24
5.02937e-24
5.49505e-24
5.95531e-24
6.38843e-24
6.76653e-24
7.05615e-24
7.22002e-24
9.15e-25
9.47656e-25
9.97162e-25
1.06371e-24
1.14786e-24
1.25048e-24
1.37268e-24
1.51586e-24
1.68167e-24
1.87197e-24
2.08888e-24
2.33469e-24
2.61184e-24
2.92278e-24
3.26986e-24
3.65501e-24
4.07943e-24
4.54307e-24
5.04389e-24
5.57705e-24
6.13384e-24
6.70059e-24
7.25763e-24
7.77864e-24
8.23056e-24
8.57455e-24
8.76805e-24
1.07535e-24
1.11458e-24
1.17409e-24
1.25417e-24
1.35557e-24
1.47941e-24
1.62716e-24
1.80061e-24
2.00187e-24
2.23336e-24
2.49777e-24
2.79801e-24
3.13713e-24
3.51817e-24
3.9439e-24
4.41656e-24
4.93731e-24
5.50559e-24
6.11832e-24
6.76883e-24
7.44576e-24
8.13179e-24
8.80274e-24
9.42694e-24
9.96541e-24
1.03731e-23
1.06013e-23
1.25953e-24
1.30649e-24
1.3778e-24
1.47386e-24
1.59566e-24
1.74466e-24
1.92272e-24
2.13216e-24
2.37567e-24
2.65632e-24
2.97749e-24
3.34285e-24
3.75616e-24
4.22111e-24
4.741e-24
5.3183e-24
5.95404e-24
6.64701e-24
7.39276e-24
8.18241e-24
9.00134e-24
9.82803e-24
1.0633e-23
1.13783e-23
1.20183e-23
1.25006e-23
1.27694e-23
1.47119e-24
1.52726e-24
1.61248e-24
1.7274e-24
1.87332e-24
2.05209e-24
2.26611e-24
2.51831e-24
2.81208e-24
3.15129e-24
3.54018e-24
3.98328e-24
4.4852e-24
5.05037e-24
5.68265e-24
6.38474e-24
7.15743e-24
7.99863e-24
8.90216e-24
9.85645e-24
1.08431e-23
1.18354e-23
1.27979e-23
1.36855e-23
1.44445e-23
1.50142e-23
1.53306e-23
1.71462e-24
1.78143e-24
1.88302e-24
2.0202e-24
2.1946e-24
2.40859e-24
2.66521e-24
2.96814e-24
3.32164e-24
3.73052e-24
4.20004e-24
4.73577e-24
5.34329e-24
6.02789e-24
6.79403e-24
7.64461e-24
8.58003e-24
9.59706e-24
1.06874e-23
1.18363e-23
1.30206e-23
1.42081e-23
1.53557e-23
1.64102e-23
1.73087e-23
1.79809e-23
1.83531e-23
1.99483e-24
2.07426e-24
2.19515e-24
2.35856e-24
2.56658e-24
2.82221e-24
3.12926e-24
3.49231e-24
3.91667e-24
4.40832e-24
4.9737e-24
5.61959e-24
6.35273e-24
7.17937e-24
8.10462e-24
9.13151e-24
1.02599e-23
1.14852e-23
1.27965e-23
1.41749e-23
1.55923e-23
1.70092e-23
1.83744e-23
1.96248e-23
2.06869e-23
2.14791e-23
2.19166e-23
2.31767e-24
2.41194e-24
2.55555e-24
2.74987e-24
2.99755e-24
3.30236e-24
3.66903e-24
4.10327e-24
4.61164e-24
5.20145e-24
5.88061e-24
6.65731e-24
7.53962e-24
8.53489e-24
9.6489e-24
1.08848e-23
1.22418e-23
1.37133e-23
1.52854e-23
1.69346e-23
1.86263e-23
2.0313e-23
2.19336e-23
2.34139e-23
2.46677e-23
2.56007e-23
2.61147e-23
2.68995e-24
2.80168e-24
2.97202e-24
3.20274e-24
3.49719e-24
3.86004e-24
4.29718e-24
4.81561e-24
5.42342e-24
6.12954e-24
6.94356e-24
7.87535e-24
8.93452e-24
1.01296e-23
1.14673e-23
1.29506e-23
1.45777e-23
1.63401e-23
1.82198e-23
2.0188e-23
2.22025e-23
2.42063e-23
2.61268e-23
2.78767e-23
2.93553e-23
3.0453e-23
3.10566e-23
3.11966e-24
3.2519e-24
3.45369e-24
3.72726e-24
4.07682e-24
4.50813e-24
5.02845e-24
5.64639e-24
6.37179e-24
7.21554e-24
8.18921e-24
9.30463e-24
1.05732e-23
1.20048e-23
1.3607e-23
1.53827e-23
1.7329e-23
1.94344e-23
2.16768e-23
2.40204e-23
2.64144e-23
2.87906e-23
3.10632e-23
3.31292e-23
3.48714e-23
3.61622e-23
3.68706e-23
3.6161e-24
3.77246e-24
4.0112e-24
4.33521e-24
4.74966e-24
5.26167e-24
5.88012e-24
6.61553e-24
7.47987e-24
8.4863e-24
9.64875e-24
1.09813e-23
1.24975e-23
1.42088e-23
1.61234e-23
1.82444e-23
2.05672e-23
2.3077e-23
2.57463e-23
2.85316e-23
3.13716e-23
3.41852e-23
3.68707e-23
3.93075e-23
4.13584e-23
4.28753e-23
4.37066e-23
4.19015e-24
4.37483e-24
4.65703e-24
5.04035e-24
5.53119e-24
6.13826e-24
6.87239e-24
7.74638e-24
8.77472e-24
9.97326e-24
1.13587e-23
1.29478e-23
1.47564e-23
1.67978e-23
1.90813e-23
2.16096e-23
2.43761e-23
2.73621e-23
3.05337e-23
3.38383e-23
3.72023e-23
4.05292e-23
4.36993e-23
4.65706e-23
4.89833e-23
5.07651e-23
5.17402e-23
4.85451e-24
5.07245e-24
5.40571e-24
5.85877e-24
6.43947e-24
7.15845e-24
8.02888e-24
9.06623e-24
1.0288e-23
1.17132e-23
1.33617e-23
1.52536e-23
1.74072e-23
1.98381e-23
2.25566e-23
2.55647e-23
2.88538e-23
3.24003e-23
3.61626e-23
4.00774e-23
4.40567e-23
4.7986e-23
5.17241e-23
5.51049e-23
5.79414e-23
6.00334e-23
6.11768e-23
5.62402e-24
5.88101e-24
6.27423e-24
6.80925e-24
7.49564e-24
8.34631e-24
9.3772e-24
1.0607e-23
1.20567e-23
1.3749e-23
1.57079e-23
1.79566e-23
2.05171e-23
2.3407e-23
2.66378e-23
3.02111e-23
3.41152e-23
3.83209e-23
4.27775e-23
4.74089e-23
5.21103e-23
5.67463e-23
6.11505e-23
6.51282e-23
6.84613e-23
7.09165e-23
7.2257e-23
6.516e-24
6.81884e-24
7.28247e-24
7.91378e-24
8.72438e-24
9.72993e-24
1.09496e-23
1.2406e-23
1.41241e-23
1.61312e-23
1.84555e-23
2.11248e-23
2.41645e-23
2.7595e-23
3.1429e-23
3.56673e-23
4.02947e-23
4.52751e-23
5.05474e-23
5.60202e-23
6.1569e-23
6.70337e-23
7.22188e-23
7.6896e-23
8.08106e-23
8.36911e-23
8.52623e-23
7.55071e-24
7.90733e-24
8.45363e-24
9.19801e-24
1.01546e-23
1.13422e-23
1.2784e-23
1.45068e-23
1.65409e-23
1.89185e-23
2.16732e-23
2.48375e-23
2.84413e-23
3.25081e-23
3.70518e-23
4.20721e-23
4.75496e-23
5.34404e-23
5.96704e-23
6.61307e-23
7.26735e-23
7.91099e-23
8.52101e-23
9.07067e-23
9.53024e-23
9.86808e-23
1.00522e-22
8.75179e-24
9.17151e-24
9.81482e-24
1.0692e-23
1.182e-23
1.32215e-23
1.49243e-23
1.69606e-23
1.93663e-23
2.21799e-23
2.54408e-23
2.91877e-23
3.3455e-23
3.82701e-23
4.36482e-23
4.95877e-23
5.60641e-23
6.30239e-23
7.03781e-23
7.7997e-23
8.57056e-23
9.3281e-23
1.00453e-22
1.0691e-22
1.12303e-22
1.16265e-22
1.18422e-22
1.01469e-23
1.06406e-23
1.13977e-23
1.24307e-23
1.376e-23
1.54128e-23
1.74223e-23
1.98271e-23
2.26696e-23
2.59957e-23
2.98521e-23
3.42839e-23
3.93315e-23
4.50262e-23
5.13849e-23
5.84043e-23
6.60537e-23
7.42683e-23
8.29417e-23
9.19196e-23
1.00995e-22
1.09905e-22
1.18334e-22
1.25915e-22
1.32242e-22
1.36886e-22
1.39413e-22
1.17682e-23
1.23488e-23
1.32394e-23
1.44552e-23
1.60207e-23
1.79686e-23
2.03384e-23
2.31759e-23
2.65319e-23
3.04604e-23
3.50165e-23
4.02533e-23
4.62178e-23
5.2946e-23
6.04567e-23
6.87441e-23
7.77706e-23
8.74578e-23
9.76786e-23
1.0825e-22
1.18927e-22
1.29402e-22
1.39303e-22
1.482e-22
1.5562e-22
1.61063e-22
1.64023e-22
1.36536e-23
1.43359e-23
1.53831e-23
1.68133e-23
1.86561e-23
2.09503e-23
2.37431e-23
2.70889e-23
3.10479e-23
3.56841e-23
4.10622e-23
4.72447e-23
5.42863e-23
6.22283e-23
7.10914e-23
8.08674e-23
9.15098e-23
1.02925e-22
1.1496e-22
1.274e-22
1.39955e-22
1.52262e-22
1.63886e-22
1.74325e-22
1.83025e-22
1.89402e-22
1.92869e-22
1.5847e-23
1.66486e-23
1.78793e-23
1.95611e-23
2.1729e-23
2.44296e-23
2.77189e-23
3.16614e-23
3.63285e-23
4.17956e-23
4.81391e-23
5.54321e-23
6.37382e-23
7.31052e-23
8.35558e-23
9.50785e-23
1.07617e-22
1.21057e-22
1.35221e-22
1.4985e-22
1.64605e-22
1.79059e-22
1.92702e-22
2.04946e-22
2.15144e-22
2.22615e-22
2.26675e-22
1.83999e-23
1.93413e-23
2.07872e-23
2.27639e-23
2.53133e-23
2.84906e-23
3.23624e-23
3.70052e-23
4.25033e-23
4.89458e-23
5.64226e-23
6.5019e-23
7.48094e-23
8.58487e-23
9.8162e-23
1.11734e-22
1.26495e-22
1.42311e-22
1.58969e-22
1.76164e-22
1.93497e-22
2.10466e-22
2.26472e-22
2.40829e-22
2.52781e-22
2.61532e-22
2.66285e-22
2.13726e-23
2.24778e-23
2.41759e-23
2.64983e-23
2.94949e-23
3.32312e-23
3.77863e-23
4.32507e-23
4.9724e-23
5.73111e-23
6.61176e-23
7.62436e-23
8.77756e-23
1.00777e-22
1.15275e-22
1.3125e-22
1.48618e-22
1.67219e-22
1.86799e-22
2.07001e-22
2.27353e-22
2.47267e-22
2.66041e-22
2.82871e-22
2.96875e-22
3.07125e-22
3.1269e-22
2.48353e-23
2.61324e-23
2.81261e-23
3.08536e-23
3.43745e-23
3.87663e-23
4.41227e-23
5.05507e-23
5.81679e-23
6.70976e-23
7.74641e-23
8.93844e-23
1.02959e-22
1.18261e-22
1.35322e-22
1.54114e-22
1.74539e-22
1.96403e-22
2.19408e-22
2.43131e-22
2.6702e-22
2.90382e-22
3.12396e-22
3.32122e-22
3.48528e-22
3.60531e-22
3.67045e-22
2.88702e-23
3.03922e-23
3.27321e-23
3.59344e-23
4.00697e-23
4.52299e-23
5.15258e-23
5.90838e-23
6.80423e-23
7.85467e-23
9.07427e-23
1.04767e-22
1.20738e-22
1.38738e-22
1.58802e-22
1.80898e-22
2.04903e-22
2.30592e-22
2.57609e-22
2.85458e-22
3.13487e-22
3.40887e-22
3.66694e-22
3.89809e-22
4.09026e-22
4.23081e-22
4.30705e-22
3.35734e-23
3.53587e-23
3.81042e-23
4.18628e-23
4.67181e-23
5.27789e-23
6.0176e-23
6.90586e-23
7.95898e-23
9.19405e-23
1.06282e-22
1.22773e-22
1.41553e-22
1.62716e-22
1.86301e-22
2.12267e-22
2.4047e-22
2.70638e-22
3.02356e-22
3.35036e-22
3.67914e-22
4.00041e-22
4.30288e-22
4.57369e-22
4.79875e-22
4.9633e-22
5.05254e-22
3.9057e-23
4.11507e-23
4.43713e-23
4.87816e-23
5.44804e-23
6.15966e-23
7.02843e-23
8.07195e-23
9.3094e-23
1.07609e-22
1.24465e-22
1.43849e-22
1.6592e-22
1.9079e-22
2.18502e-22
2.49003e-22
2.82123e-22
3.1754e-22
3.54761e-22
3.93099e-22
4.31655e-22
4.69315e-22
5.04758e-22
5.36481e-22
5.62836e-22
5.82099e-22
5.92543e-22
4.54522e-23
4.79072e-23
5.16842e-23
5.68577e-23
6.35448e-23
7.18973e-23
8.20972e-23
9.43518e-23
1.08887e-22
1.25938e-22
1.45741e-22
1.68514e-22
1.94444e-22
2.23658e-22
2.56204e-22
2.9202e-22
3.30899e-22
3.72463e-22
4.1613e-22
4.61092e-22
5.06294e-22
5.50431e-22
5.91957e-22
6.29111e-22
6.5997e-22
6.82518e-22
6.9474e-22
5.29125e-23
5.57903e-23
6.02189e-23
6.62863e-23
7.41308e-23
8.39317e-23
9.59033e-23
1.10289e-22
1.27356e-22
1.47379e-22
1.70635e-22
1.9738e-22
2.2783e-22
2.62134e-22
3.00344e-22
3.42384e-22
3.88009e-22
4.36771e-22
4.87987e-22
5.40704e-22
5.93687e-22
6.45404e-22
6.94048e-22
7.37558e-22
7.73686e-22
8.00077e-22
8.1438e-22
6.16169e-23
6.49899e-23
7.01813e-23
7.72955e-23
8.64956e-23
9.79927e-23
1.1204e-22
1.28923e-22
1.48955e-22
1.72461e-22
1.99762e-22
2.3116e-22
2.66906e-22
3.07172e-22
3.52017e-22
4.01347e-22
4.54871e-22
5.12063e-22
5.72115e-22
6.33912e-22
6.96001e-22
7.56591e-22
8.13563e-22
8.6451e-22
9.06803e-22
9.37691e-22
9.54427e-22
7.17751e-23
7.57277e-23
8.18122e-23
9.0152e-23
1.00939e-22
1.14423e-22
1.30901e-22
1.50709e-22
1.74214e-22
2.01799e-22
2.3384e-22
2.70688e-22
3.12637e-22
3.59886e-22
4.12501e-22
4.70368e-22
5.33143e-22
6.00204e-22
6.70602e-22
7.43026e-22
8.15774e-22
8.86747e-22
9.53466e-22
1.01311e-21
1.06262e-21
1.09877e-21
1.11835e-21
8.36318e-23
8.82628e-23
9.5393e-23
1.05168e-22
1.17814e-22
1.33624e-22
1.52947e-22
1.76181e-22
2.03755e-22
2.36117e-22
2.73709e-22
3.16941e-22
3.66154e-22
4.21581e-22
4.83295e-22
5.51159e-22
6.24765e-22
7.03379e-22
7.85887e-22
8.7075e-22
9.55972e-22
1.0391e-21
1.11722e-21
1.18705e-21
1.24499e-21
1.28729e-21
1.3102e-21
9.74732e-23
1.02898e-22
1.11252e-22
1.22707e-22
1.37529e-22
1.56062e-22
1.78719e-22
2.05964e-22
2.38302e-22
2.76258e-22
3.20351e-22
3.71058e-22
4.28779e-22
4.93782e-22
5.66151e-22
6.45718e-22
7.32004e-22
8.24143e-22
9.20826e-22
1.02025e-21
1.12007e-21
1.21741e-21
1.30888e-21
1.39061e-21
1.45843e-21
1.50793e-21
1.53473e-21
1.13634e-22
1.19989e-22
1.29775e-22
1.43196e-22
1.60565e-22
1.82287e-22
2.08846e-22
2.40787e-22
2.78704e-22
3.23211e-22
3.74915e-22
4.34376e-22
5.02058e-22
5.78274e-22
6.63116e-22
7.56385e-22
8.57514e-22
9.65483e-22
1.07876e-21
1.19521e-21
1.31212e-21
1.4261e-21
1.53317e-21
1.62885e-21
1.70821e-21
1.76612e-21
1.79749e-21
1.32505e-22
1.39948e-22
1.51411e-22
1.67133e-22
1.87483e-22
2.12938e-22
2.44065e-22
2.81505e-22
3.25953e-22
3.7813e-22
4.38746e-22
5.08455e-22
5.878e-22
6.77142e-22
7.76587e-22
8.85896e-22
1.0044e-21
1.1309e-21
1.26359e-21
1.39998e-21
1.53687e-21
1.67032e-21
1.79566e-21
1.90763e-21
2.0005e-21
2.06826e-21
2.10495e-21
1.54545e-22
1.6326e-22
1.76685e-22
1.95101e-22
2.18941e-22
2.48765e-22
2.85239e-22
3.29115e-22
3.81209e-22
4.42366e-22
5.13415e-22
5.95122e-22
6.8812e-22
7.92828e-22
9.09366e-22
1.03745e-21
1.17628e-21
1.32447e-21
1.47988e-21
1.6396e-21
1.79989e-21
1.9561e-21
2.10281e-21
2.23385e-21
2.34252e-21
2.4218e-21
2.46472e-21
1.80286e-22
1.90491e-22
2.06213e-22
2.2778e-22
2.55704e-22
2.90642e-22
3.33375e-22
3.84786e-22
4.4583e-22
5.17497e-22
6.00759e-22
6.96511e-22
8.0549e-22
9.28185e-22
1.06473e-21
1.21479e-21
1.37742e-21
1.55098e-21
1.73298e-21
1.92e-21
2.10765e-21
2.29051e-21
2.46222e-21
2.61556e-21
2.74271e-21
2.83546e-21
2.88567e-21
2.10355e-22
2.22303e-22
2.40711e-22
2.65968e-22
2.98671e-22
3.39594e-22
3.89652e-22
4.49882e-22
5.21402e-22
6.05372e-22
7.0293e-22
8.15121e-22
9.42806e-22
1.08655e-21
1.24651e-21
1.42229e-21
1.61277e-21
1.81603e-21
2.02914e-21
2.2481e-21
2.46776e-21
2.68179e-21
2.88274e-21
3.06218e-21
3.21094e-21
3.31945e-21
3.37818e-21
2.45482e-22
2.59469e-22
2.81021e-22
3.10594e-22
3.48891e-22
3.96817e-22
4.55448e-22
5.25999e-22
6.0978e-22
7.0815e-22
8.22439e-22
9.53871e-22
1.10345e-21
1.27183e-21
1.4592e-21
1.66506e-21
1.88814e-21
2.12614e-21
2.37566e-21
2.63199e-21
2.88911e-21
3.1396e-21
3.37475e-21
3.58471e-21
3.75876e-21
3.8857e-21
3.9544e-21
2.86521e-22
3.02894e-22
3.28125e-22
3.62748e-22
4.0759e-22
4.63712e-22
5.32376e-22
6.15004e-22
7.13135e-22
8.28356e-22
9.62227e-22
1.11618e-21
1.29138e-21
1.4886e-21
1.70803e-21
1.94911e-21
2.21032e-21
2.48898e-21
2.78108e-21
3.08114e-21
3.38207e-21
3.67522e-21
3.95038e-21
4.19604e-21
4.39966e-21
4.54815e-21
4.62851e-21
3.3447e-22
3.53635e-22
3.8317e-22
4.23702e-22
4.76202e-22
5.41914e-22
6.22318e-22
7.19081e-22
8.34004e-22
9.68946e-22
1.12573e-21
1.30603e-21
1.51122e-21
1.74218e-21
1.99913e-21
2.28142e-21
2.58725e-21
2.91348e-21
3.25541e-21
3.60662e-21
3.95881e-21
4.30185e-21
4.62382e-21
4.91123e-21
5.14943e-21
5.32314e-21
5.41713e-21
3.90498e-22
4.12929e-22
4.47498e-22
4.94944e-22
5.56404e-22
6.33338e-22
7.27479e-22
8.40781e-22
9.75353e-22
1.13337e-21
1.31698e-21
1.52811e-21
1.76838e-21
2.03882e-21
2.33969e-21
2.67019e-21
3.02823e-21
3.41011e-21
3.81034e-21
4.22137e-21
4.63353e-21
5.03494e-21
5.41165e-21
5.7479e-21
6.02655e-21
6.22974e-21
6.33968e-21
4.55969e-22
4.82221e-22
5.22681e-22
5.78215e-22
6.50158e-22
7.40221e-22
8.50435e-22
9.83089e-22
1.14065e-21
1.32568e-21
1.54066e-21
1.78787e-21
2.0692e-21
2.38583e-21
2.73808e-21
3.12499e-21
3.5441e-21
3.9911e-21
4.45952e-21
4.94055e-21
5.42285e-21
5.89253e-21
6.33327e-21
6.72664e-21
7.0526e-21
7.29026e-21
7.41885e-21
5.3248e-22
5.63201e-22
6.10552e-22
6.75549e-22
7.59757e-22
8.6518e-22
9.94199e-22
1.1495e-21
1.33396e-21
1.55058e-21
1.80227e-21
2.09171e-21
2.42106e-21
2.79175e-21
3.20411e-21
3.65702e-21
4.14759e-21
4.67075e-21
5.21895e-21
5.78186e-21
6.34621e-21
6.89574e-21
7.41137e-21
7.87154e-21
8.25283e-21
8.53082e-21
8.68121e-21
6.21895e-22
6.57845e-22
7.13257e-22
7.89325e-22
8.8788e-22
1.01127e-21
1.16229e-21
1.34408e-21
1.56002e-21
1.81361e-21
2.10826e-21
2.44709e-21
2.83264e-21
3.26657e-21
3.74925e-21
4.27937e-21
4.85353e-21
5.4658e-21
6.10733e-21
6.76601e-21
7.42632e-21
8.06925e-21
8.67247e-21
9.21077e-21
9.65677e-21
9.98192e-21
1.01578e-20
7.26398e-22
7.68463e-22
8.33306e-22
9.22323e-22
1.03766e-21
1.18208e-21
1.35884e-21
1.57162e-21
1.82439e-21
2.12122e-21
2.46613e-21
2.86275e-21
3.31405e-21
3.82196e-21
4.38691e-21
5.00736e-21
5.67931e-21
6.39582e-21
7.14651e-21
7.91722e-21
8.68978e-21
9.44194e-21
1.01476e-20
1.07773e-20
1.1299e-20
1.16793e-20
1.1885e-20
8.48538e-22
8.97757e-22
9.7363e-22
1.0778e-21
1.21277e-21
1.38178e-21
1.58866e-21
1.8377e-21
2.13354e-21
2.48098e-21
2.88468e-21
3.3489e-21
3.87713e-21
4.47159e-21
5.13278e-21
5.8589e-21
6.64525e-21
7.48368e-21
8.36206e-21
9.2638e-21
1.01677e-20
1.10476e-20
1.18731e-20
1.26096e-20
1.32198e-20
1.36646e-20
1.39051e-20
9.91298e-22
1.04889e-21
1.13766e-21
1.25955e-21
1.41749e-21
1.61527e-21
1.85737e-21
2.14883e-21
2.49507e-21
2.9017e-21
3.37418e-21
3.9175e-21
4.53571e-21
5.23143e-21
6.00521e-21
6.85493e-21
7.77509e-21
8.75614e-21
9.78387e-21
1.08389e-20
1.18963e-20
1.29256e-20
1.38912e-20
1.47528e-20
1.54664e-20
1.59866e-20
1.6268e-20
1.15817e-21
1.22554e-21
1.32941e-21
1.47202e-21
1.65683e-21
1.88827e-21
2.17157e-21
2.51265e-21
2.91785e-21
3.39373e-21
3.94667e-21
4.58252e-21
5.30599e-21
6.12015e-21
7.02563e-21
8.01994e-21
9.09662e-21
1.02445e-20
1.14469e-20
1.26812e-20
1.39182e-20
1.51223e-20
1.62518e-20
1.72594e-20
1.80941e-20
1.87025e-20
1.90316e-20
1.35322e-21
1.43204e-21
1.55356e-21
1.72042e-21
1.93666e-21
2.20746e-21
2.53897e-21
2.93809e-21
3.41226e-21
3.96914e-21
4.61621e-21
5.36028e-21
6.2069e-21
7.1596e-21
8.21914e-21
9.38257e-21
1.06423e-20
1.19853e-20
1.33921e-20
1.4836e-20
1.6283e-20
1.76915e-20
1.90126e-20
2.01912e-20
2.11674e-20
2.1879e-20
2.22638e-20
1.58122e-21
1.67343e-21
1.8156e-21
2.01082e-21
2.26382e-21
2.58067e-21
2.96856e-21
3.43557e-21
3.99042e-21
4.64205e-21
5.39923e-21
6.26991e-21
7.26056e-21
8.37533e-21
9.61507e-21
1.09763e-20
1.24502e-20
1.40214e-20
1.56671e-20
1.73563e-20
1.90489e-20
2.06965e-20
2.22417e-20
2.36201e-20
2.47619e-20
2.5594e-20
2.6044e-20
1.84775e-21
1.95562e-21
2.12194e-21
2.35033e-21
2.64632e-21
3.01703e-21
3.47087e-21
4.01731e-21
4.66652e-21
5.42899e-21
6.31495e-21
7.33373e-21
8.49286e-21
9.79719e-21
1.12477e-20
1.28403e-20
1.45647e-20
1.64028e-20
1.8328e-20
2.03039e-20
2.22839e-20
2.42109e-20
2.60182e-20
2.76304e-20
2.89657e-20
2.99388e-20
3.04651e-20
2.15932e-21
2.28551e-21
2.48008e-21
2.74726e-21
3.09354e-21
3.52725e-21
4.05823e-21
4.69756e-21
5.45715e-21
6.34926e-21
7.38587e-21
8.57787e-21
9.93408e-21
1.14601e-20
1.31572e-20
1.50204e-20
1.70377e-20
1.91881e-20
2.14401e-20
2.37514e-20
2.60673e-20
2.83212e-20
3.0435e-20
3.23205e-20
3.38821e-20
3.50201e-20
3.56355e-20
2.52355e-21
2.67117e-21
2.89877e-21
3.21132e-21
3.61643e-21
4.12382e-21
4.74503e-21
5.49301e-21
6.3817e-21
7.42546e-21
8.63828e-21
1.00329e-20
1.16196e-20
1.3405e-20
1.53904e-20
1.75701e-20
1.99301e-20
2.24455e-20
2.50798e-20
2.77833e-20
3.04921e-20
3.31283e-20
3.56005e-20
3.78056e-20
3.96318e-20
4.09626e-20
4.16823e-20
2.94936e-21
3.12203e-21
3.38827e-21
3.75389e-21
4.22779e-21
4.82137e-21
5.54811e-21
6.42317e-21
7.46287e-21
8.68399e-21
1.01029e-20
1.17345e-20
1.35908e-20
1.56795e-20
1.80021e-20
2.05521e-20
2.33127e-20
2.62551e-20
2.93365e-20
3.24987e-20
3.5667e-20
3.87502e-20
4.16414e-20
4.42203e-20
4.63559e-20
4.79122e-20
4.87538e-20
3.44715e-21
3.64913e-21
3.96056e-21
4.38825e-21
4.94261e-21
5.63698e-21
6.48715e-21
7.51085e-21
8.72717e-21
1.01557e-20
1.18157e-20
1.37244e-20
1.58961e-20
1.83395e-20
2.10566e-20
2.40395e-20
2.72687e-20
3.07105e-20
3.43147e-20
3.80133e-20
4.17189e-20
4.53248e-20
4.87061e-20
5.1722e-20
5.42194e-20
5.60393e-20
5.70234e-20
4.02912e-21
4.26536e-21
4.62964e-21
5.12992e-21
5.77839e-21
6.59065e-21
7.58517e-21
8.78272e-21
1.02056e-20
1.18768e-20
1.38187e-20
1.60516e-20
1.8592e-20
2.14504e-20
2.46287e-20
2.8118e-20
3.18952e-20
3.5921e-20
4.01367e-20
4.44625e-20
4.87963e-20
5.30135e-20
5.69679e-20
6.04947e-20
6.34152e-20
6.55433e-20
6.66941e-20
4.7095e-21
4.98583e-21
5.41191e-21
5.99709e-21
6.75561e-21
7.70575e-21
8.86911e-21
1.027e-20
1.19345e-20
1.38894e-20
1.6161e-20
1.87731e-20
2.17448e-20
2.50884e-20
2.88062e-20
3.28876e-20
3.73058e-20
4.20145e-20
4.69452e-20
5.20045e-20
5.7073e-20
6.2005e-20
6.66294e-20
7.07537e-20
7.41689e-20
7.66574e-20
7.80029e-20
5.50495e-21
5.82815e-21
6.32652e-21
7.01098e-21
7.89822e-21
9.0096e-21
1.03704e-20
1.20091e-20
1.39561e-20
1.6243e-20
1.89002e-20
2.19557e-20
2.54318e-20
2.93429e-20
3.36916e-20
3.84655e-20
4.36332e-20
4.91406e-20
5.49073e-20
6.08243e-20
6.6752e-20
7.25197e-20
7.79276e-20
8.27506e-20
8.67441e-20
8.96539e-20
9.12273e-20
6.43493e-21
6.81295e-21
7.39586e-21
8.19643e-21
9.2342e-21
1.05342e-20
1.21259e-20
1.40427e-20
1.63202e-20
1.89951e-20
2.21034e-20
2.56774e-20
2.97435e-20
3.43182e-20
3.94048e-20
4.49885e-20
5.10327e-20
5.7474e-20
6.42184e-20
7.11384e-20
7.80706e-20
8.48156e-20
9.11396e-20
9.67794e-20
1.01449e-19
1.04852e-19
1.06691e-19
7.52223e-21
7.96435e-21
8.64612e-21
9.58248e-21
1.07963e-20
1.23168e-20
1.41786e-20
1.64206e-20
1.90846e-20
2.22135e-20
2.58492e-20
3.00297e-20
3.47856e-20
4.01365e-20
4.60859e-20
5.26167e-20
5.96858e-20
6.72191e-20
7.51068e-20
8.31997e-20
9.13065e-20
9.91941e-20
1.06589e-19
1.13184e-19
1.18645e-19
1.22623e-19
1.24774e-19
8.79344e-21
9.31053e-21
1.01079e-20
1.12031e-20
1.26228e-20
1.44012e-20
1.65789e-20
1.92012e-20
2.23172e-20
2.59769e-20
3.02294e-20
3.51191e-20
4.06819e-20
4.69404e-20
5.38988e-20
6.15371e-20
6.98047e-20
7.86151e-20
8.78397e-20
9.73038e-20
1.06784e-19
1.16008e-19
1.24655e-19
1.32367e-19
1.38752e-19
1.43403e-19
1.45919e-19
1.02797e-20
1.08845e-20
1.18171e-20
1.30979e-20
1.47584e-20
1.68385e-20
1.93855e-20
2.24527e-20
2.60972e-20
3.03777e-20
3.53516e-20
4.10707e-20
4.75769e-20
5.48968e-20
6.30352e-20
7.19685e-20
8.16377e-20
9.19413e-20
1.02729e-19
1.13797e-19
1.24883e-19
1.35669e-19
1.4578e-19
1.54797e-19
1.62263e-19
1.67702e-19
1.70643e-19
1.20174e-20
1.27247e-20
1.38154e-20
1.53135e-20
1.72555e-20
1.96883e-20
2.26673e-20
2.62546e-20
3.05173e-20
3.55238e-20
4.13413e-20
4.80303e-20
5.56398e-20
6.42009e-20
7.3719e-20
8.41667e-20
9.54747e-20
1.07524e-19
1.2014e-19
1.33082e-19
1.46046e-19
1.58658e-19
1.70482e-19
1.81026e-19
1.89755e-19
1.96114e-19
1.99552e-19
1.40491e-20
1.48763e-20
1.61519e-20
1.79039e-20
2.01752e-20
2.30205e-20
2.65047e-20
3.07004e-20
3.56858e-20
4.15414e-20
4.83453e-20
5.61685e-20
6.50683e-20
7.50807e-20
8.62123e-20
9.84307e-20
1.11655e-19
1.25746e-19
1.40499e-19
1.55634e-19
1.70793e-19
1.8554e-19
1.99366e-19
2.11693e-19
2.219e-19
2.29335e-19
2.33355e-19
1.64246e-20
1.7392e-20
1.88838e-20
2.09328e-20
2.35892e-20
2.69169e-20
3.09917e-20
3.58988e-20
4.17295e-20
4.85779e-20
5.65354e-20
6.5685e-20
7.60934e-20
8.7803e-20
1.00821e-19
1.1511e-19
1.30575e-19
1.47054e-19
1.64305e-19
1.82003e-19
1.99729e-19
2.16973e-19
2.33138e-19
2.47552e-19
2.59485e-19
2.68179e-19
2.72879e-19
1.92019e-20
2.03333e-20
2.2078e-20
2.44743e-20
2.75809e-20
3.14727e-20
3.62383e-20
4.19773e-20
4.87966e-20
5.68059e-20
6.61124e-20
7.68129e-20
8.89856e-20
1.0268e-19
1.17904e-19
1.34614e-19
1.52699e-19
1.71969e-19
1.92142e-19
2.12836e-19
2.33563e-19
2.53726e-19
2.72627e-19
2.8948e-19
3.03431e-19
3.13595e-19
3.1909e-19
2.24492e-20
2.37723e-20
2.58126e-20
2.86151e-20
3.22483e-20
3.67997e-20
4.23731e-20
4.90849e-20
5.70601e-20
6.64271e-20
7.7311e-20
8.98251e-20
1.04061e-19
1.20075e-19
1.37879e-19
1.5742e-19
1.78568e-19
2.01102e-19
2.24691e-19
2.48888e-19
2.73123e-19
2.96699e-19
3.18798e-19
3.38502e-19
3.54813e-19
3.66696e-19
3.7312e-19
2.6246e-20
2.77932e-20
3.01793e-20
3.34567e-20
3.77056e-20
4.30285e-20
4.95465e-20
5.73958e-20
6.67227e-20
7.76772e-20
9.04056e-20
1.0504e-19
1.21688e-19
1.40416e-19
1.61236e-19
1.84087e-19
2.08817e-19
2.35166e-19
2.62748e-19
2.91042e-19
3.19379e-19
3.46943e-19
3.72781e-19
3.95818e-19
4.14888e-19
4.28781e-19
4.36291e-19
3.06851e-20
3.24945e-20
3.5285e-20
3.91177e-20
4.40866e-20
5.03115e-20
5.79341e-20
6.71136e-20
7.8021e-20
9.08319e-20
1.05717e-19
1.22832e-19
1.423e-19
1.64201e-19
1.88547e-19
2.15268e-19
2.44186e-19
2.74995e-19
3.07247e-19
3.40329e-19
3.73461e-19
4.05689e-19
4.35897e-19
4.6283e-19
4.85126e-19
5.01367e-19
5.10146e-19
3.58754e-20
3.79914e-20
4.12546e-20
4.57368e-20
5.15476e-20
5.88272e-20
6.77414e-20
7.84764e-20
9.1232e-20
1.06214e-19
1.23621e-19
1.43635e-19
1.66401e-19
1.92011e-19
2.20481e-19
2.51727e-19
2.8554e-19
3.21566e-19
3.59276e-19
3.97956e-19
4.36693e-19
4.74373e-19
5.0969e-19
5.41178e-19
5.67243e-19
5.86229e-19
5.96493e-19
4.19439e-20
4.44183e-20
4.82344e-20
5.34759e-20
6.02712e-20
6.87842e-20
7.92088e-20
9.17625e-20
1.06679e-19
1.24199e-19
1.44555e-19
1.67959e-19
1.94582e-19
2.24529e-19
2.5782e-19
2.94356e-19
3.33893e-19
3.76016e-19
4.20108e-19
4.65333e-19
5.10623e-19
5.54675e-19
5.95965e-19
6.32775e-19
6.63246e-19
6.85442e-19
6.9744e-19
4.90392e-20
5.19328e-20
5.63953e-20
6.25248e-20
7.04713e-20
8.04264e-20
9.2617e-20
1.07297e-19
1.24741e-19
1.45229e-19
1.69033e-19
1.96401e-19
2.27532e-19
2.6255e-19
3.01478e-19
3.44199e-19
3.90428e-19
4.39679e-19
4.91231e-19
5.44106e-19
5.97056e-19
6.48558e-19
6.96828e-19
7.39862e-19
7.75482e-19
8.01428e-19
8.15454e-19
5.7335e-20
6.07188e-20
6.59371e-20
7.31049e-20
8.23974e-20
9.4039e-20
1.08295e-19
1.25462e-19
1.4586e-19
1.69818e-19
1.97653e-19
2.29656e-19
2.66058e-19
3.07006e-19
3.52523e-19
4.02475e-19
4.56528e-19
5.14112e-19
5.74385e-19
6.36204e-19
6.98108e-19
7.58317e-19
8.14747e-19
8.65053e-19
9.06693e-19
9.37023e-19
9.53417e-19
6.70344e-20
7.09913e-20
7.70935e-20
8.54753e-20
9.63418e-20
1.09955e-19
1.26625e-19
1.467e-19
1.70553e-19
1.98568e-19
2.31117e-19
2.68539e-19
3.11105e-19
3.58984e-19
4.12205e-19
4.7061e-19
5.3381e-19
6.01135e-19
6.71603e-19
7.43876e-19
8.16246e-19
8.86633e-19
9.526e-19
1.01141e-18
1.06008e-18
1.09553e-18
1.1147e-18
7.83749e-20
8.30019e-20
9.01376e-20
9.9939e-20
1.12646e-19
1.28565e-19
1.48058e-19
1.71532e-19
1.99425e-19
2.32184e-19
2.70244e-19
3.14002e-19
3.63773e-19
4.19756e-19
4.81984e-19
5.50272e-19
6.24163e-19
7.02877e-19
7.85261e-19
8.69754e-19
9.54358e-19
1.03664e-18
1.11376e-18
1.1825e-18
1.23939e-18
1.28083e-18
1.30323e-18
9.16341e-20
9.70446e-20
1.05389e-19
1.1685e-19
1.31709e-19
1.50323e-19
1.73117e-19
2.00567e-19
2.33182e-19
2.71487e-19
3.15992e-19
3.67156e-19
4.25351e-19
4.90809e-19
5.63567e-19
6.43408e-19
7.29797e-19
8.21823e-19
9.18137e-19
1.01691e-18
1.11582e-18
1.212e-18
1.30215e-18
1.3825e-18
1.449e-18
1.49744e-18
1.52362e-18
1.07136e-19
1.13463e-19
1.2322e-19
1.36622e-19
1.53997e-19
1.75763e-19
2.02417e-19
2.34514e-19
2.72651e-19
3.17441e-19
3.69479e-19
4.29303e-19
4.97347e-19
5.73881e-19
6.58949e-19