/*--------------------------------*- C++ -*----------------------------------*\
| =========                 |                                                 |
| \\      /  F ield         | OpenFOAM: The Open Source CFD Toolbox           |
|  \\    /   O peration     | Version:  2212                                  |
|   \\  /    A nd           | Website:  www.openfoam.com                      |
|    \\/     M anipulation  |                                                 |
\*---------------------------------------------------------------------------*/
FoamFile
{
    version     2.0;
    format      ascii;
    arch        "LSB;label=32;scalar=64";
    class       volScalarField;
    location    "9.0545968";
    object      CH2CO;
}
// * * * * * * * * * * * * * * * * * * * * * * * * * * * * * * * * * * * * * //

dimensions      [0 0 0 0 0 0 0];

internalField   nonuniform List<scalar> 
33600
(
7.1042e-25
7.31072e-25
7.62263e-25
8.03921e-25
8.56136e-25
9.19098e-25
9.93076e-25
1.0784e-24
1.17544e-24
1.2846e-24
1.40628e-24
1.54088e-24
1.68875e-24
1.85018e-24
2.02538e-24
2.21444e-24
2.41726e-24
2.63358e-24
2.86283e-24
3.10416e-24
3.3563e-24
3.6175e-24
3.88514e-24
4.15501e-24
4.41854e-24
4.65641e-24
4.82094e-24
2.29263e-24
2.35949e-24
2.46049e-24
2.59538e-24
2.76447e-24
2.96837e-24
3.20797e-24
3.48434e-24
3.79872e-24
4.15241e-24
4.54673e-24
4.98299e-24
5.46236e-24
5.98584e-24
6.55411e-24
7.16747e-24
7.82571e-24
8.52791e-24
9.27235e-24
1.00563e-23
1.08756e-23
1.17249e-23
1.25967e-23
1.34815e-23
1.43621e-23
1.5207e-23
1.58833e-23
4.21821e-24
4.34199e-24
4.52894e-24
4.77863e-24
5.09164e-24
5.46914e-24
5.91282e-24
6.4247e-24
7.00712e-24
7.66253e-24
8.3935e-24
9.20249e-24
1.00918e-23
1.10634e-23
1.21188e-23
1.32588e-23
1.44834e-23
1.57914e-23
1.71807e-23
1.86477e-23
2.01872e-23
2.1793e-23
2.34562e-23
2.51637e-23
2.68814e-23
2.8524e-23
2.97753e-23
6.53066e-24
6.72391e-24
7.01578e-24
7.40561e-24
7.89436e-24
8.48395e-24
9.17706e-24
9.977e-24
1.08875e-23
1.19126e-23
1.30565e-23
1.43233e-23
1.57169e-23
1.72408e-23
1.8898e-23
2.06906e-23
2.26197e-23
2.46854e-23
2.68866e-23
2.92209e-23
3.16849e-23
3.42731e-23
3.69736e-23
3.97597e-23
4.25531e-23
4.51561e-23
4.7022e-23
9.27802e-24
9.55545e-24
9.97444e-24
1.05341e-23
1.1236e-23
1.20829e-23
1.30789e-23
1.42289e-23
1.55387e-23
1.70143e-23
1.86622e-23
2.04889e-23
2.25009e-23
2.47041e-23
2.71043e-23
2.97061e-23
3.25138e-23
3.55307e-23
3.87589e-23
4.21999e-23
4.5852e-23
4.97082e-23
5.37439e-23
5.78964e-23
6.20025e-23
6.56993e-23
6.82076e-23
1.25139e-23
1.28927e-23
1.34648e-23
1.42291e-23
1.51879e-23
1.63453e-23
1.77071e-23
1.92807e-23
2.10742e-23
2.30967e-23
2.53579e-23
2.78678e-23
3.06368e-23
3.36749e-23
3.69921e-23
4.05984e-23
4.45029e-23
4.87146e-23
5.32413e-23
5.80881e-23
6.32532e-23
6.87194e-23
7.44326e-23
8.02634e-23
8.59231e-23
9.08532e-23
9.40529e-23
1.62988e-23
1.6799e-23
1.75546e-23
1.85643e-23
1.98314e-23
2.13619e-23
2.3164e-23
2.5248e-23
2.76257e-23
3.03104e-23
3.33164e-23
3.66588e-23
4.03535e-23
4.44171e-23
4.88665e-23
5.37189e-23
5.89915e-23
6.4701e-23
7.08612e-23
7.74794e-23
8.45471e-23
9.20232e-23
9.98001e-23
1.07648e-22
1.1512e-22
1.21444e-22
1.25409e-22
2.07015e-23
2.13466e-23
2.23212e-23
2.36241e-23
2.52599e-23
2.72372e-23
2.95675e-23
3.22653e-23
3.53472e-23
3.88323e-23
4.27413e-23
4.70969e-23
5.1923e-23
5.72453e-23
6.30905e-23
6.94863e-23
7.64603e-23
8.4038e-23
9.22383e-23
1.01066e-22
1.10495e-22
1.20441e-22
1.30716e-22
1.40959e-22
1.50537e-22
1.58451e-22
1.63282e-22
2.58008e-23
2.66183e-23
2.78535e-23
2.95057e-23
3.15814e-23
3.40926e-23
3.70553e-23
4.04896e-23
4.4419e-23
4.88702e-23
5.38731e-23
5.94605e-23
6.56677e-23
7.25327e-23
8.00954e-23
8.83969e-23
9.74771e-23
1.0737e-22
1.18098e-22
1.29653e-22
1.41978e-22
1.54923e-22
1.68193e-22
1.81262e-22
1.93285e-22
2.03028e-22
2.08853e-22
3.16878e-23
3.27097e-23
3.42545e-23
3.63218e-23
3.89213e-23
4.20692e-23
4.57879e-23
5.01049e-23
5.50528e-23
6.0669e-23
6.69955e-23
7.40786e-23
8.19688e-23
9.07204e-23
1.0039e-22
1.11035e-22
1.22709e-22
1.35453e-22
1.49285e-22
1.64177e-22
1.8002e-22
1.96576e-22
2.13408e-22
2.29801e-22
2.44672e-22
2.56531e-22
2.63506e-22
3.84678e-23
3.9732e-23
4.16435e-23
4.42036e-23
4.74257e-23
5.13321e-23
5.59534e-23
6.13271e-23
6.74978e-23
7.4517e-23
8.24427e-23
9.13391e-23
1.01276e-22
1.12329e-22
1.24574e-22
1.38088e-22
1.52937e-22
1.69168e-22
1.86787e-22
2.05728e-22
2.25814e-22
2.46688e-22
2.67743e-22
2.8804e-22
3.06233e-22
3.20553e-22
3.28867e-22
4.62637e-23
4.78141e-23
5.01599e-23
5.3304e-23
5.72653e-23
6.20743e-23
6.7772e-23
7.44093e-23
8.20465e-23
9.07534e-23
1.00608e-22
1.11699e-22
1.24119e-22
1.37969e-22
1.5335e-22
1.7036e-22
1.89077e-22
2.09547e-22
2.31754e-22
2.55581e-22
2.80752e-22
3.06767e-22
3.32814e-22
3.57695e-22
3.79771e-22
3.9696e-22
4.06837e-22
5.5218e-23
5.71067e-23
5.99659e-23
6.38016e-23
6.86399e-23
7.45217e-23
8.15021e-23
8.96489e-23
9.90427e-23
1.09777e-22
1.21955e-22
1.35694e-22
1.51119e-22
1.68359e-22
1.87545e-22
2.08794e-22
2.32198e-22
2.57794e-22
2.85532e-22
3.15221e-22
3.46463e-22
3.78578e-22
4.10515e-22
4.4078e-22
4.67399e-22
4.87941e-22
4.99645e-22
6.54976e-23
6.77855e-23
7.12512e-23
7.59052e-23
8.17829e-23
8.8939e-23
9.74462e-23
1.07394e-22
1.1889e-22
1.32054e-22
1.47026e-22
1.63956e-22
1.83006e-22
2.04342e-22
2.28124e-22
2.54495e-22
2.83554e-22
3.1532e-22
3.49694e-22
3.86388e-22
4.24852e-22
4.6419e-22
5.03069e-22
5.39656e-22
5.71595e-22
5.9606e-22
6.09903e-22
7.72968e-23
8.00554e-23
8.42374e-23
8.98589e-23
9.69676e-23
1.05636e-22
1.15959e-22
1.28054e-22
1.4206e-22
1.58136e-22
1.76459e-22
1.97224e-22
2.20635e-22
2.46902e-22
2.76221e-22
3.08755e-22
3.44608e-22
3.83772e-22
4.26078e-22
4.71116e-22
5.1815e-22
5.66025e-22
6.13079e-22
6.5709e-22
6.95265e-22
7.24323e-22
7.40668e-22
9.08429e-23
9.41564e-23
9.91834e-23
1.05948e-22
1.14514e-22
1.24975e-22
1.37456e-22
1.52108e-22
1.69109e-22
1.88664e-22
2.11e-22
2.36362e-22
2.65009e-22
2.97196e-22
3.33159e-22
3.73086e-22
4.17075e-22
4.65079e-22
5.16838e-22
5.71789e-22
6.2897e-22
6.86921e-22
7.43598e-22
7.96325e-22
8.41811e-22
8.76249e-22
8.95525e-22
1.06401e-22
1.10368e-22
1.16392e-22
1.24507e-22
1.34796e-22
1.47382e-22
1.62424e-22
1.80116e-22
2.00686e-22
2.24393e-22
2.51524e-22
2.82387e-22
3.173e-22
3.56576e-22
4.00492e-22
4.49258e-22
5.02961e-22
5.61498e-22
6.24493e-22
6.91196e-22
7.60374e-22
8.30206e-22
8.98201e-22
9.61162e-22
1.01522e-21
1.05596e-21
1.07867e-21
1.24281e-22
1.29018e-22
1.36217e-22
1.45925e-22
1.58251e-22
1.73352e-22
1.91431e-22
2.12735e-22
2.37551e-22
2.66205e-22
2.99056e-22
3.36486e-22
3.78884e-22
4.26626e-22
4.80036e-22
5.39343e-22
6.04614e-22
6.75672e-22
7.51995e-22
8.32606e-22
9.15947e-22
9.99775e-22
1.08108e-21
1.15605e-21
1.22016e-21
1.26829e-21
1.29502e-21
1.44845e-22
1.50488e-22
1.59071e-22
1.70658e-22
1.8539e-22
2.03467e-22
2.25145e-22
2.50734e-22
2.80595e-22
3.15134e-22
3.54796e-22
4.0005e-22
4.51369e-22
5.09199e-22
5.73917e-22
6.45767e-22
7.24784e-22
8.10694e-22
9.02799e-22
9.99844e-22
1.09989e-21
1.20019e-21
1.29714e-21
1.38621e-21
1.46211e-21
1.51889e-21
1.55033e-21
1.68516e-22
1.75225e-22
1.85438e-22
1.99241e-22
2.16813e-22
2.38407e-22
2.64344e-22
2.95012e-22
3.3086e-22
3.7239e-22
4.20149e-22
4.74709e-22
5.36639e-22
6.06467e-22
6.84624e-22
7.71368e-22
8.66688e-22
9.70188e-22
1.08095e-21
1.19739e-21
1.31712e-21
1.43681e-21
1.55213e-21
1.65775e-21
1.74746e-21
1.81438e-21
1.85134e-21
1.95787e-22
2.03751e-22
2.15882e-22
2.32296e-22
2.53219e-22
2.78967e-22
3.09941e-22
3.46622e-22
3.89565e-22
4.39388e-22
4.96758e-22
5.62367e-22
6.36898e-22
7.20969e-22
8.15072e-22
9.19471e-22
1.03409e-21
1.15839e-21
1.29119e-21
1.4305e-21
1.5734e-21
1.71588e-21
1.85278e-21
1.97782e-21
2.08373e-21
2.16253e-21
2.20595e-21
2.27236e-22
2.36674e-22
2.51063e-22
2.70552e-22
2.95425e-22
3.26076e-22
3.63002e-22
4.06796e-22
4.58138e-22
5.17786e-22
5.86548e-22
6.65258e-22
7.54727e-22
8.5568e-22
9.68671e-22
1.09397e-21
1.23142e-21
1.38028e-21
1.53907e-21
1.70532e-21
1.87549e-21
2.04474e-21
2.20697e-21
2.35479e-21
2.47969e-21
2.57241e-21
2.6234e-21
2.63535e-22
2.74706e-22
2.91751e-22
3.1486e-22
3.44388e-22
3.80822e-22
4.24774e-22
4.76973e-22
5.38249e-22
6.09522e-22
6.91769e-22
7.85991e-22
8.93147e-22
1.01408e-21
1.14942e-21
1.29941e-21
1.46382e-21
1.64167e-21
1.83108e-21
2.02905e-21
2.23127e-21
2.43199e-21
2.62395e-21
2.79847e-21
2.94563e-21
3.05466e-21
3.1145e-21
3.05471e-22
3.18678e-22
3.38846e-22
3.66216e-22
4.01225e-22
4.44475e-22
4.96717e-22
5.58838e-22
6.3185e-22
7.16865e-22
8.15059e-22
9.27623e-22
1.05569e-21
1.20025e-21
1.36198e-21
1.54114e-21
1.73735e-21
1.94935e-21
2.17482e-21
2.4101e-21
2.65e-21
2.88766e-21
3.11451e-21
3.32034e-21
3.49358e-21
3.62172e-21
3.69193e-21
3.53962e-22
3.69562e-22
3.934e-22
4.25781e-22
4.67242e-22
5.18522e-22
5.80536e-22
6.54363e-22
7.41228e-22
8.4247e-22
9.59499e-22
1.09373e-21
1.2465e-21
1.41895e-21
1.61183e-21
1.8254e-21
2.05908e-21
2.31132e-21
2.57922e-21
2.85836e-21
3.14252e-21
3.42354e-21
3.69131e-21
3.93385e-21
4.13765e-21
4.28816e-21
4.37052e-21
4.10083e-22
4.28492e-22
4.56643e-22
4.94914e-22
5.43967e-22
6.047e-22
6.78226e-22
7.65852e-22
8.69054e-22
9.89441e-22
1.1287e-21
1.2885e-21
1.47042e-21
1.67576e-21
1.90539e-21
2.15949e-21
2.43731e-21
2.73689e-21
3.05469e-21
3.38537e-21
3.72149e-21
4.0534e-21
4.36916e-21
4.65473e-21
4.89433e-21
5.07104e-21
5.16762e-21
4.75085e-22
4.96793e-22
5.30009e-22
5.75203e-22
6.33183e-22
7.0504e-22
7.9212e-22
8.96001e-22
1.01846e-21
1.16141e-21
1.32687e-21
1.51683e-21
1.73311e-21
1.97722e-21
2.25013e-21
2.55197e-21
2.88174e-21
3.23699e-21
3.61344e-21
4.00465e-21
4.40178e-21
4.79337e-21
5.16539e-21
5.50139e-21
5.78293e-21
5.99032e-21
6.10355e-21
5.50433e-22
5.76013e-22
6.15177e-22
6.68504e-22
7.36977e-22
8.21916e-22
9.24945e-22
1.04796e-21
1.19309e-21
1.36264e-21
1.55897e-21
1.78445e-21
2.0412e-21
2.33098e-21
2.65484e-21
3.01285e-21
3.40372e-21
3.82441e-21
4.26975e-21
4.73204e-21
5.20074e-21
5.66234e-21
6.10031e-21
6.49539e-21
6.82605e-21
7.06936e-21
7.20208e-21
6.37836e-22
6.6796e-22
7.14106e-22
7.76985e-22
8.57787e-22
9.58104e-22
1.07989e-21
1.22542e-21
1.39724e-21
1.59808e-21
1.83076e-21
2.09806e-21
2.40246e-21
2.74598e-21
3.12979e-21
3.55385e-21
4.01653e-21
4.51412e-21
5.04036e-21
5.58605e-21
6.13872e-21
6.68239e-21
7.19766e-21
7.66195e-21
8.05014e-21
8.33551e-21
8.49104e-21
7.39293e-22
7.74747e-22
8.29088e-22
9.0318e-22
9.98462e-22
1.11685e-21
1.26069e-21
1.4327e-21
1.6359e-21
1.87356e-21
2.14901e-21
2.46551e-21
2.82597e-21
3.2327e-21
3.68698e-21
4.18868e-21
4.73574e-21
5.32362e-21
5.94482e-21
6.58838e-21
7.23951e-21
7.87939e-21
8.48523e-21
9.0306e-21
9.48616e-21
9.82076e-21
1.0003e-20
8.57137e-22
8.98843e-22
9.62797e-22
1.05005e-21
1.16234e-21
1.30195e-21
1.4717e-21
1.67482e-21
1.91493e-21
2.19589e-21
2.52163e-21
2.89598e-21
3.32235e-21
3.80337e-21
4.34049e-21
4.9334e-21
5.57954e-21
6.27342e-21
7.00604e-21
7.76439e-21
8.53096e-21
9.28361e-21
9.99557e-21
1.06359e-20
1.11703e-20
1.15626e-20
1.1776e-20
9.94094e-22
1.04313e-21
1.11836e-21
1.22106e-21
1.3533e-21
1.51784e-21
1.71801e-21
1.9577e-21
2.24118e-21
2.57301e-21
2.95786e-21
3.40021e-21
3.90403e-21
4.47235e-21
5.10676e-21
5.80679e-21
6.56924e-21
7.3875e-21
8.25083e-21
9.14378e-21
1.00457e-20
1.09305e-20
1.17667e-20
1.25182e-20
1.3145e-20
1.36047e-20
1.38548e-20
1.15335e-21
1.21098e-21
1.29944e-21
1.42025e-21
1.57591e-21
1.7697e-21
2.0056e-21
2.28823e-21
2.62264e-21
3.01425e-21
3.46854e-21
3.99076e-21
4.58555e-21
5.2564e-21
6.00505e-21
6.83082e-21
7.72976e-21
8.69394e-21
9.71056e-21
1.07613e-20
1.18218e-20
1.28614e-20
1.38432e-20
1.4725e-20
1.54599e-20
1.59985e-20
1.62913e-20
1.33863e-21
1.40634e-21
1.5103e-21
1.65235e-21
1.83548e-21
2.0636e-21
2.34144e-21
2.67446e-21
3.06868e-21
3.53048e-21
4.06631e-21
4.68234e-21
5.38394e-21
6.17515e-21
7.0579e-21
8.0312e-21
9.09027e-21
1.02256e-20
1.14219e-20
1.26576e-20
1.39039e-20
1.51249e-20
1.62772e-20
1.73114e-20
1.81728e-20
1.88039e-20
1.91468e-20
1.55427e-21
1.63379e-21
1.75593e-21
1.9229e-21
2.13824e-21
2.40662e-21
2.73367e-21
3.12584e-21
3.59026e-21
4.13445e-21
4.766e-21
5.49212e-21
6.3191e-21
7.25156e-21
8.29164e-21
9.43802e-21
1.06849e-20
1.20208e-20
1.34278e-20
1.48803e-20
1.63443e-20
1.77776e-20
1.91296e-20
2.03423e-20
2.13519e-20
2.20911e-20
2.24926e-20
1.80537e-21
1.89873e-21
2.04217e-21
2.23834e-21
2.49145e-21
2.80706e-21
3.19182e-21
3.65339e-21
4.20018e-21
4.84104e-21
5.58491e-21
6.44024e-21
7.41432e-21
8.5125e-21
9.73713e-21
1.10865e-20
1.25535e-20
1.41247e-20
1.57786e-20
1.7485e-20
1.9204e-20
2.08861e-20
2.24719e-20
2.38935e-20
2.50764e-20
2.59422e-20
2.64122e-20
2.09787e-21
2.20743e-21
2.37583e-21
2.60623e-21
2.90363e-21
3.2746e-21
3.72705e-21
4.27001e-21
4.91341e-21
5.66769e-21
6.54333e-21
7.55021e-21
8.69685e-21
9.98938e-21
1.14304e-20
1.30178e-20
1.4743e-20
1.65898e-20
1.85329e-20
2.05368e-20
2.25545e-20
2.45279e-20
2.63873e-20
2.80535e-20
2.94393e-20
3.04532e-20
3.10033e-20
2.43869e-21
2.56725e-21
2.7649e-21
3.03539e-21
3.38469e-21
3.82057e-21
4.35237e-21
4.99078e-21
5.74748e-21
6.63477e-21
7.66494e-21
8.84956e-21
1.01985e-20
1.1719e-20
1.34138e-20
1.52801e-20
1.73078e-20
1.94776e-20
2.17597e-20
2.4112e-20
2.64795e-20
2.87939e-20
3.09737e-20
3.29261e-20
3.45493e-20
3.57365e-20
3.63805e-20
2.83596e-21
2.98676e-21
3.21867e-21
3.53615e-21
3.94627e-21
4.45822e-21
5.08304e-21
5.83333e-21
6.72287e-21
7.76611e-21
8.97747e-21
1.03705e-20
1.19567e-20
1.37443e-20
1.57365e-20
1.79297e-20
2.03119e-20
2.28602e-20
2.55392e-20
2.82996e-20
3.10767e-20
3.37903e-20
3.63452e-20
3.86326e-20
4.05337e-20
4.19235e-20
4.26773e-20
3.29915e-21
3.47601e-21
3.74805e-21
4.12057e-21
4.60194e-21
5.20302e-21
5.93686e-21
6.81829e-21
7.86354e-21
9.08958e-21
1.05133e-20
1.21506e-20
1.40149e-20
1.61156e-20
1.84564e-20
2.10327e-20
2.38302e-20
2.68218e-20
2.99657e-20
3.3204e-20
3.64606e-20
3.96416e-20
4.26354e-20
4.53149e-20
4.7541e-20
4.91681e-20
5.00502e-20
3.83935e-21
4.04671e-21
4.36575e-21
4.80274e-21
5.36758e-21
6.0731e-21
6.93466e-21
7.96977e-21
9.1975e-21
1.06378e-20
1.23105e-20
1.42341e-20
1.64242e-20
1.88919e-20
2.1641e-20
2.46662e-20
2.79501e-20
3.14609e-20
3.51493e-20
3.89471e-20
4.27651e-20
4.64932e-20
5.00007e-20
5.31389e-20
5.57455e-20
5.765e-20
5.86824e-20
4.4695e-21
4.71259e-21
5.08665e-21
5.59915e-21
6.26176e-21
7.08961e-21
8.10082e-21
9.31598e-21
1.07575e-20
1.24489e-20
1.44132e-20
1.66723e-20
1.92443e-20
2.21418e-20
2.53693e-20
2.89202e-20
3.2774e-20
3.68928e-20
4.12187e-20
4.56716e-20
5.01468e-20
5.45152e-20
5.86238e-20
6.2299e-20
6.53506e-20
6.75797e-20
6.87878e-20
5.20475e-21
5.48965e-21
5.92816e-21
6.52907e-21
7.30618e-21
8.27731e-21
9.46381e-21
1.08899e-20
1.25819e-20
1.45674e-20
1.68735e-20
1.95256e-20
2.25448e-20
2.59459e-20
2.97338e-20
3.39005e-20
3.84216e-20
4.32523e-20
4.83247e-20
5.35444e-20
5.87888e-20
6.39066e-20
6.87188e-20
7.3022e-20
7.65944e-20
7.92033e-20
8.06169e-20
6.06278e-21
6.39664e-21
6.91059e-21
7.61503e-21
8.52621e-21
9.66514e-21
1.10569e-20
1.27301e-20
1.47155e-20
1.70455e-20
1.97519e-20
2.28643e-20
2.64076e-20
3.03985e-20
3.48427e-20
3.97305e-20
4.50329e-20
5.06972e-20
5.66434e-20
6.27607e-20
6.89054e-20
7.49002e-20
8.05357e-20
8.55739e-20
8.97554e-20
9.28086e-20
9.44627e-20
7.06428e-21
7.45545e-21
8.05772e-21
8.88335e-21
9.95151e-21
1.12869e-20
1.29191e-20
1.48816e-20
1.72107e-20
1.99442e-20
2.31194e-20
2.67711e-20
3.09279e-20
3.56096e-20
4.08224e-20
4.65545e-20
5.27717e-20
5.94119e-20
6.6381e-20
7.3549e-20
8.07473e-20
8.77684e-20
9.43671e-20
1.00265e-19
1.05159e-19
1.08732e-19
1.10668e-19
8.23343e-21
8.69168e-21
9.39732e-21
1.03648e-20
1.16168e-20
1.31823e-20
1.5096e-20
1.73973e-20
2.01287e-20
2.33348e-20
2.70591e-20
3.13422e-20
3.62176e-20
4.17081e-20
4.78208e-20
5.45416e-20
6.18297e-20
6.96123e-20
7.77786e-20
8.61763e-20
9.46076e-20
1.0283e-19
1.10555e-19
1.17459e-19
1.23187e-19
1.27368e-19
1.29632e-19
9.59848e-21
1.01352e-20
1.09619e-20
1.20955e-20
1.35626e-20
1.53974e-20
1.76407e-20
2.03386e-20
2.35413e-20
2.73007e-20
3.16679e-20
3.66903e-20
4.24072e-20
4.88448e-20
5.6011e-20
6.38891e-20
7.24309e-20
8.15506e-20
9.11183e-20
1.00955e-19
1.10829e-19
1.20456e-19
1.29501e-19
1.37582e-19
1.44285e-19
1.49177e-19
1.51826e-19
1.11925e-20
1.18211e-20
1.27894e-20
1.41174e-20
1.58363e-20
1.79864e-20
2.06155e-20
2.37779e-20
2.75323e-20
3.19394e-20
3.70594e-20
4.29475e-20
4.96494e-20
5.71957e-20
6.55953e-20
7.48282e-20
8.48375e-20
9.55222e-20
1.0673e-19
1.18251e-19
1.29813e-19
1.41084e-19
1.51671e-19
1.61129e-19
1.68973e-19
1.74697e-19
1.77796e-19
1.30541e-20
1.37902e-20
1.49242e-20
1.64797e-20
1.84934e-20
2.10125e-20
2.40933e-20
2.77994e-20
3.21995e-20
3.73651e-20
4.33664e-20
5.02678e-20
5.81229e-20
6.69671e-20
7.68105e-20
8.76291e-20
9.93559e-20
1.11872e-19
1.24999e-19
1.3849e-19
1.52028e-19
1.65223e-19
1.77615e-19
1.88683e-19
1.97862e-19
2.04558e-19
2.08184e-19
1.52284e-20
1.60903e-20
1.74183e-20
1.924e-20
2.15986e-20
2.45497e-20
2.81591e-20
3.25016e-20
3.76578e-20
4.37112e-20
5.0744e-20
5.88317e-20
6.80366e-20
7.84001e-20
8.99334e-20
1.02608e-19
1.16345e-19
1.31005e-19
1.46377e-19
1.62174e-19
1.78024e-19
1.93469e-19
2.07972e-19
2.20924e-19
2.31664e-19
2.39498e-19
2.43739e-19
1.77682e-20
1.87774e-20
2.03322e-20
2.24655e-20
2.52279e-20
2.86844e-20
3.29126e-20
3.8e-20
4.4041e-20
5.11335e-20
5.93738e-20
6.885e-20
7.9635e-20
9.17766e-20
1.05288e-19
1.20134e-19
1.36224e-19
1.53392e-19
1.71392e-19
1.89887e-19
2.0844e-19
2.26518e-19
2.43491e-19
2.58647e-19
2.71213e-19
2.80378e-19
2.85339e-19
2.07352e-20
2.19166e-20
2.3737e-20
2.62349e-20
2.94697e-20
3.35178e-20
3.84702e-20
4.44292e-20
5.15059e-20
5.98147e-20
6.94681e-20
8.05695e-20
9.32037e-20
1.07426e-19
1.23252e-19
1.40641e-19
1.59483e-19
1.79585e-19
2.0066e-19
2.22312e-19
2.44029e-19
2.65187e-19
2.85049e-19
3.02783e-19
3.17484e-19
3.28206e-19
3.34008e-19
2.42016e-20
2.55846e-20
2.77157e-20
3.06401e-20
3.44277e-20
3.91681e-20
4.49678e-20
5.19471e-20
6.02357e-20
6.99679e-20
8.12754e-20
9.42787e-20
1.09077e-19
1.25735e-19
1.44269e-19
1.64632e-19
1.86695e-19
2.10232e-19
2.34905e-19
2.60249e-19
2.85667e-19
3.10428e-19
3.33669e-19
3.54419e-19
3.71617e-19
3.84159e-19
3.90947e-19
2.82517e-20
2.98704e-20
3.23651e-20
3.57886e-20
4.02231e-20
4.57735e-20
5.25648e-20
6.07379e-20
7.04449e-20
8.18428e-20
9.50858e-20
1.10315e-19
1.27646e-19
1.47154e-19
1.68858e-19
1.92701e-19
2.18533e-19
2.46088e-19
2.74969e-19
3.04633e-19
3.34381e-19
3.63356e-19
3.9055e-19
4.14827e-19
4.34946e-19
4.49618e-19
4.57557e-19
3.29841e-20
3.48787e-20
3.77986e-20
4.18062e-20
4.69974e-20
5.34956e-20
6.14472e-20
7.10173e-20
8.2384e-20
9.57311e-20
1.11239e-19
1.29073e-19
1.49367e-19
1.7221e-19
1.97622e-19
2.25538e-19
2.55779e-19
2.88035e-19
3.2184e-19
3.56558e-19
3.91371e-19
4.25275e-19
4.57094e-19
4.85495e-19
5.09031e-19
5.26193e-19
5.35479e-19
3.85141e-20
4.07315e-20
4.41489e-20
4.88397e-20
5.49164e-20
6.25235e-20
7.18327e-20
8.30374e-20
9.6346e-20
1.11974e-19
1.30132e-19
1.51013e-19
1.74775e-19
2.0152e-19
2.31272e-19
2.63952e-19
2.99353e-19
3.37108e-19
3.76673e-19
4.17303e-19
4.5804e-19
4.97711e-19
5.34937e-19
5.68163e-19
5.95695e-19
6.15769e-19
6.2663e-19
4.49766e-20
4.75715e-20
5.1571e-20
5.7061e-20
6.41736e-20
7.30781e-20
8.39757e-20
9.70929e-20
1.12674e-19
1.3097e-19
1.5223e-19
1.76677e-19
2.04496e-19
2.35806e-19
2.70635e-19
3.0889e-19
3.50325e-19
3.94514e-19
4.40818e-19
4.88363e-19
5.3603e-19
5.82446e-19
6.25998e-19
6.64866e-19
6.97071e-19
7.20552e-19
7.33254e-19
5.25291e-20
5.55656e-20
6.0246e-20
6.6671e-20
7.49955e-20
8.5418e-20
9.81739e-20
1.13529e-19
1.31768e-19
1.53187e-19
1.78074e-19
2.06694e-19
2.39259e-19
2.75911e-19
3.1668e-19
3.61456e-19
4.09952e-19
4.61668e-19
5.15853e-19
5.71488e-19
6.27261e-19
6.81565e-19
7.32516e-19
7.77983e-19
8.15654e-19
8.43117e-19
8.57974e-19
6.13559e-20
6.4909e-20
7.03859e-20
7.79047e-20
8.76469e-20
9.98451e-20
1.14775e-19
1.32748e-19
1.54097e-19
1.7917e-19
2.08302e-19
2.41802e-19
2.79921e-19
3.22821e-19
3.70539e-19
4.22945e-19
4.79701e-19
5.4022e-19
6.03626e-19
6.68724e-19
7.33978e-19
7.97509e-19
8.57112e-19
9.10297e-19
9.5436e-19
9.8648e-19
1.00386e-18
7.16725e-20
7.58298e-20
8.22384e-20
9.10367e-20
1.02437e-19
1.16713e-19
1.34186e-19
1.55221e-19
1.8021e-19
2.09556e-19
2.43654e-19
2.82865e-19
3.27481e-19
3.77692e-19
4.33539e-19
4.94869e-19
5.61288e-19
6.32105e-19
7.06297e-19
7.82462e-19
8.58804e-19
9.33127e-19
1.00285e-18
1.06506e-18
1.1166e-18
1.15417e-18
1.17449e-18
8.37307e-20
8.85948e-20
9.60932e-20
1.06388e-19
1.19729e-19
1.36435e-19
1.56883e-19
1.81501e-19
2.10746e-19
2.45092e-19
2.85e-19
3.30891e-19
3.83108e-19
4.4187e-19
5.07227e-19
5.78998e-19
6.56719e-19
7.39583e-19
8.26389e-19
9.15499e-19
1.00481e-18
1.09175e-18
1.17331e-18
1.24608e-18
1.30636e-18
1.3503e-18
1.37406e-18
9.78251e-20
1.03516e-19
1.12289e-19
1.24335e-19
1.39945e-19
1.59493e-19
1.83422e-19
2.12231e-19
2.46456e-19
2.86651e-19
3.33355e-19
3.87061e-19
4.48169e-19
5.16936e-19
5.93416e-19
6.77399e-19
7.68341e-19
8.65295e-19
9.66856e-19
1.07111e-18
1.17559e-18
1.27729e-18
1.37269e-18
1.4578e-18
1.5283e-18
1.57969e-18
1.60748e-18
1.143e-19
1.20958e-19
1.31222e-19
1.45316e-19
1.6358e-19
1.86453e-19
2.14454e-19
2.48165e-19
2.88216e-19
3.35252e-19
3.89906e-19
4.52754e-19
5.24263e-19
6.04732e-19
6.94225e-19
7.92493e-19
8.98898e-19
1.01233e-18
1.13115e-18
1.25311e-18
1.37533e-18
1.4943e-18
1.60588e-18
1.70543e-18
1.78789e-18
1.84799e-18
1.88049e-18
1.33558e-19
1.41347e-19
1.53355e-19
1.69844e-19
1.91213e-19
2.17976e-19
2.50739e-19
2.90185e-19
3.37049e-19
3.92089e-19
4.56043e-19
5.29584e-19
6.13259e-19
7.07417e-19
8.1213e-19
9.27107e-19
1.0516e-18
1.18431e-18
1.32331e-18
1.46598e-18
1.60895e-18
1.74811e-18
1.87862e-18
1.99505e-18
2.09149e-18
2.16177e-18
2.19978e-18
1.5607e-19
1.65182e-19
1.7923e-19
1.9852e-19
2.23522e-19
2.54833e-19
2.93166e-19
3.3932e-19
3.94155e-19
4.58557e-19
5.33389e-19
6.19439e-19
7.17344e-19
8.27513e-19
9.50029e-19
1.08455e-18
1.2302e-18
1.38545e-18
1.54806e-18
1.71495e-18
1.88219e-18
2.04495e-18
2.1976e-18
2.33377e-18
2.44656e-18
2.52875e-18
2.5732e-18
1.82387e-19
1.93046e-19
2.0948e-19
2.32047e-19
2.61296e-19
2.97928e-19
3.42777e-19
3.96777e-19
4.60935e-19
5.36287e-19
6.23843e-19
7.24524e-19
8.39074e-19
9.67971e-19
1.11131e-18
1.26869e-18
1.43908e-18
1.6207e-18
1.81092e-18
2.00614e-18
2.20175e-18
2.39212e-18
2.57066e-18
2.72992e-18
2.86181e-18
2.95793e-18
3.00992e-18
2.13152e-19
2.2562e-19
2.44844e-19
2.71244e-19
3.05461e-19
3.48317e-19
4.00787e-19
4.63964e-19
5.39027e-19
6.27187e-19
7.29626e-19
8.4742e-19
9.81439e-19
1.13224e-18
1.29993e-18
1.48405e-18
1.68337e-18
1.89583e-18
2.11834e-18
2.34669e-18
2.57548e-18
2.79815e-18
3.00695e-18
3.19321e-18
3.34745e-18
3.45986e-18
3.52065e-18
2.49117e-19
2.63701e-19
2.86189e-19
3.17071e-19
3.57099e-19
4.07235e-19
4.68618e-19
5.42529e-19
6.30346e-19
7.33487e-19
8.53334e-19
9.91143e-19
1.14793e-18
1.32435e-18
1.52053e-18
1.73591e-18
1.96908e-18
2.21761e-18
2.47788e-18
2.74496e-18
3.01257e-18
3.27299e-18
3.51719e-18
3.73501e-18
3.9154e-18
4.04684e-18
4.11792e-18
2.91163e-19
3.08222e-19
3.34527e-19
3.70651e-19
4.17475e-19
4.76125e-19
5.47933e-19
6.34399e-19
7.37134e-19
8.57796e-19
9.98002e-19
1.15922e-18
1.34265e-18
1.54903e-18
1.77852e-18
2.03047e-18
2.30322e-18
2.59393e-18
2.89835e-18
3.21075e-18
3.52373e-18
3.8283e-18
4.1139e-18
4.36863e-18
4.57957e-18
4.73329e-18
4.81641e-18
3.40318e-19
3.60272e-19
3.91041e-19
4.33296e-19
4.88069e-19
5.56675e-19
6.40676e-19
7.41826e-19
8.62008e-19
1.00316e-18
1.16718e-18
1.35578e-18
1.57036e-18
1.81178e-18
2.08024e-18
2.37495e-18
2.69399e-18
3.03402e-18
3.39009e-18
3.75547e-18
4.12152e-18
4.47772e-18
4.81172e-18
5.10961e-18
5.35628e-18
5.53603e-18
5.63322e-18
3.97786e-19
4.21125e-19
4.57114e-19
5.0654e-19
5.70608e-19
6.50861e-19
7.49122e-19
8.67444e-19
1.00803e-18
1.17316e-18
1.36503e-18
1.58565e-18
1.83665e-18
2.11906e-18
2.43308e-18
2.77782e-18
3.15099e-18
3.5487e-18
3.96516e-18
4.39249e-18
4.8206e-18
5.23717e-18
5.62776e-18
5.97612e-18
6.26457e-18
6.47476e-18
6.58841e-18
4.64972e-19
4.92271e-19
5.34365e-19
5.92177e-19
6.67117e-19
7.60989e-19
8.75929e-19
1.01434e-18
1.17879e-18
1.37194e-18
1.59639e-18
1.85446e-18
2.14807e-18
2.47841e-18
2.84572e-18
3.24894e-18
3.68542e-18
4.15059e-18
4.63767e-18
5.13745e-18
5.63812e-18
6.12528e-18
6.58205e-18
6.98941e-18
7.32672e-18
7.57249e-18
7.70538e-18
5.43523e-19
5.75451e-19
6.24686e-19
6.92305e-19
7.79959e-19
8.8976e-19
1.0242e-18
1.1861e-18
1.37847e-18
1.6044e-18
1.86694e-18
2.16881e-18
2.51225e-18
2.89865e-18
3.32828e-18
3.7999e-18
4.31041e-18
4.85446e-18
5.42412e-18
6.00861e-18
6.59413e-18
7.16383e-18
7.69798e-18
8.17433e-18
8.56876e-18
8.85614e-18
9.01153e-18
6.35359e-19
6.72703e-19
7.30288e-19
8.09376e-19
9.119e-19
1.04033e-18
1.19758e-18
1.38695e-18
1.61196e-18
1.87624e-18
2.18332e-18
2.53642e-18
2.93812e-18
3.39008e-18
3.89258e-18
4.4442e-18
5.04128e-18
5.67757e-18
6.34379e-18
7.02734e-18
7.71207e-18
8.37829e-18
9.00291e-18
9.55993e-18
1.00211e-17
1.03572e-17
1.05389e-17
7.42731e-19
7.86406e-19
8.53757e-19
9.46258e-19
1.06617e-18
1.21638e-18
1.40032e-18
1.62181e-18
1.88499e-18
2.19411e-18
2.55329e-18
2.96629e-18
3.43614e-18
3.96476e-18
4.55249e-18
5.19764e-18
5.89596e-18
6.64011e-18
7.41925e-18
8.21862e-18
9.01936e-18
9.79842e-18
1.05288e-17
1.11802e-17
1.17194e-17
1.21123e-17
1.23248e-17
8.68267e-19
9.19347e-19
9.98117e-19
1.1063e-18
1.24655e-18
1.42224e-18
1.63737e-18
1.89644e-18
2.20427e-18
2.56582e-18
2.98593e-18
3.46898e-18
4.01852e-18
4.63678e-18
5.32418e-18
6.07871e-18
6.89541e-18
7.76568e-18
8.67685e-18
9.61166e-18
1.0548e-17
1.1459e-17
1.23131e-17
1.30747e-17
1.37053e-17
1.41647e-17
1.44131e-17
1.01504e-18
1.07478e-18
1.1669e-18
1.29344e-18
1.45747e-18
1.66295e-18
1.91456e-18
2.21757e-18
2.5776e-18
3.00047e-18
3.49183e-18
4.05681e-18
4.69954e-18
5.42263e-18
6.22657e-18
7.10901e-18
8.06413e-18
9.08188e-18
1.01474e-17
1.12406e-17
1.23356e-17
1.34008e-17
1.43995e-17
1.529e-17
1.60273e-17
1.65645e-17
1.68549e-17
1.18665e-18
1.25651e-18
1.36425e-18
1.51224e-18
1.70408e-18
1.9444e-18
2.23868e-18
2.59307e-18
3.01416e-18
3.50874e-18
4.08342e-18
4.74419e-18
5.4959e-18
6.34158e-18
7.28179e-18
8.3138e-18
9.43077e-18
1.0621e-17
1.1867e-17
1.31453e-17
1.44257e-17
1.56714e-17
1.68391e-17
1.78803e-17
1.87424e-17
1.93704e-17
1.971e-17
1.38728e-18
1.46899e-18
1.595e-18
1.76807e-18
1.99243e-18
2.2735e-18
2.61767e-18
3.03214e-18
3.52463e-18
4.10307e-18
4.77518e-18
5.54798e-18
6.42712e-18
7.41615e-18
8.51572e-18
9.72261e-18
1.10288e-17
1.24207e-17
1.38778e-17
1.53726e-17
1.68698e-17
1.83263e-17
1.96916e-17
2.09091e-17
2.1917e-17
2.26513e-17
2.30482e-17
1.62187e-18
1.71743e-18
1.86479e-18
2.06719e-18
2.32959e-18
2.6583e-18
3.06082e-18
3.54556e-18
4.12153e-18
4.79803e-18
5.58409e-18
6.48789e-18
7.51603e-18
8.67269e-18
9.95858e-18
1.137e-17
1.28975e-17
1.45251e-17
1.62289e-17
1.79768e-17
1.97275e-17
2.14305e-17
2.3027e-17
2.44504e-17
2.56288e-17
2.64873e-17
2.69514e-17
1.89615e-18
2.0079e-18
2.18023e-18
2.41694e-18
2.72381e-18
3.10824e-18
3.57899e-18
4.14589e-18
4.8195e-18
5.61067e-18
6.52996e-18
7.58694e-18
8.78933e-18
1.0142e-17
1.16458e-17
1.32962e-17
1.50825e-17
1.69857e-17
1.89781e-17
2.10219e-17
2.30689e-17
2.50601e-17
2.69267e-17
2.8591e-17
2.99687e-17
3.09724e-17
3.1515e-17
2.21683e-18
2.34752e-18
2.54906e-18
2.82588e-18
3.18475e-18
3.63434e-18
4.18487e-18
4.84785e-18
5.63563e-18
6.56089e-18
7.63597e-18
8.87207e-18
1.02782e-17
1.186e-17
1.36186e-17
1.55486e-17
1.76374e-17
1.98629e-17
2.21926e-17
2.45824e-17
2.69758e-17
2.93039e-17
3.14863e-17
3.34321e-17
3.50428e-17
3.62162e-17
3.68505e-17
2.59178e-18
2.74461e-18
2.9803e-18
3.30403e-18
3.72371e-18
4.24949e-18
4.89332e-18
5.66865e-18
6.58993e-18
7.67198e-18
8.92924e-18
1.03748e-17
1.20191e-17
1.38689e-17
1.59253e-17
1.81823e-17
2.06247e-17
2.3227e-17
2.59511e-17
2.87453e-17
3.15437e-17
3.42658e-17
3.68173e-17
3.90921e-17
4.09753e-17
4.2347e-17
4.30886e-17
3.03017e-18
3.20889e-18
3.48451e-18
3.86309e-18
4.35389e-18
4.96875e-18
5.72168e-18
6.62839e-18
7.70577e-18
8.97116e-18
1.04414e-17
1.21319e-17
1.40548e-17
1.62179e-17
1.86226e-17
2.12617e-17
2.41177e-17
2.71605e-17
3.03456e-17
3.36127e-17
3.68845e-17
4.00671e-17
4.30501e-17
4.57096e-17
4.79111e-17
4.95148e-17
5.03817e-17
3.54273e-18
3.75173e-18
4.07405e-18
4.51677e-18
5.09072e-18
5.80976e-18
6.69025e-18
7.75058e-18
9.01049e-18
1.04903e-17
1.22096e-17
1.41864e-17
1.6435e-17
1.89645e-17
2.17763e-17
2.48623e-17
2.82017e-17
3.17595e-17
3.54836e-17
3.93035e-17
4.31288e-17
4.68496e-17
5.03371e-17
5.34462e-17
5.60199e-17
5.78946e-17
5.8908e-17
4.14202e-18
4.38643e-18
4.76335e-18
5.28106e-18
5.95225e-18
6.79309e-18
7.82275e-18
9.06271e-18
1.05361e-17
1.22665e-17
1.42771e-17
1.65887e-17
1.92181e-17
2.21759e-17
2.54638e-17
2.90721e-17
3.29768e-17
3.71367e-17
4.14909e-17
4.5957e-17
5.04293e-17
5.47793e-17
5.88563e-17
6.24911e-17
6.54997e-17
6.76912e-17
6.88758e-17
4.84272e-18
5.12852e-18
5.56928e-18
6.17469e-18
6.95957e-18
7.94285e-18
9.14692e-18
1.05969e-17
1.23198e-17
1.43434e-17
1.66944e-17
1.93975e-17
2.24722e-17
2.59307e-17
2.97752e-17
3.39943e-17
3.85598e-17
4.34236e-17
4.85144e-17
5.37358e-17
5.89644e-17
6.40498e-17
6.88161e-17
7.30651e-17
7.65821e-17
7.91439e-17
8.05286e-17
5.66196e-18
5.99617e-18
6.51159e-18
7.21954e-18
8.13736e-18
9.28718e-18
1.06952e-17
1.23908e-17
1.44055e-17
1.67717e-17
1.95209e-17
2.26817e-17
2.62769e-17
3.03209e-17
3.48162e-17
3.97493e-17
4.50873e-17
5.07738e-17
5.67257e-17
6.28301e-17
6.89427e-17
7.48878e-17
8.04596e-17
8.54266e-17
8.95378e-17
9.25323e-17
9.41509e-17
6.61982e-18
7.01063e-18
7.61333e-18
8.44119e-18
9.51445e-18
1.0859e-17
1.25055e-17
1.44882e-17
1.68441e-17
1.9611e-17
2.28257e-17
2.65216e-17
3.07254e-17
3.54539e-17
4.07099e-17
4.64777e-17
5.27188e-17
5.93672e-17
6.63256e-17
7.34621e-17
8.06081e-17
8.75579e-17
9.40713e-17
9.98774e-17
1.04683e-16
1.08183e-16
1.10075e-16
7.73973e-18
8.19672e-18
8.90149e-18
9.86954e-18
1.11245e-17
1.26968e-17
1.46221e-17
1.69405e-17
1.96953e-17
2.29307e-17
2.66897e-17
3.10112e-17
3.59265e-17
4.14553e-17
4.76007e-17
5.43443e-17
6.1641e-17
6.94137e-17
7.75487e-17
8.58917e-17
9.42453e-17
1.0237e-16
1.09983e-16
1.1677e-16
1.22387e-16
1.26479e-16
1.2869e-16
9.04911e-18
9.58348e-18
1.04076e-17
1.15396e-17
1.30071e-17
1.48455e-17
1.70968e-17
1.98078e-17
2.3029e-17
2.68121e-17
3.12074e-17
3.62603e-17
4.20075e-17
4.84718e-17
5.56569e-17