/*--------------------------------*- C++ -*----------------------------------*\
| =========                 |                                                 |
| \\      /  F ield         | OpenFOAM: The Open Source CFD Toolbox           |
|  \\    /   O peration     | Version:  2212                                  |
|   \\  /    A nd           | Website:  www.openfoam.com                      |
|    \\/     M anipulation  |                                                 |
\*---------------------------------------------------------------------------*/
FoamFile
{
    version     2.0;
    format      ascii;
    arch        "LSB;label=32;scalar=64";
    class       volScalarField;
    location    "9.0545968";
    object      CH3CO_0;
}
// * * * * * * * * * * * * * * * * * * * * * * * * * * * * * * * * * * * * * //

dimensions      [0 0 0 0 0 0 0];

internalField   nonuniform List<scalar> 
33600
(
2.58861e-51
2.595e-51
2.605e-51
2.619e-51
2.6376e-51
2.66159e-51
2.69196e-51
2.72989e-51
2.77684e-51
2.83448e-51
2.90476e-51
2.98991e-51
3.09242e-51
3.21506e-51
3.36083e-51
3.53292e-51
3.73462e-51
3.96922e-51
4.23983e-51
4.54913e-51
4.8991e-51
5.2906e-51
5.72254e-51
6.19019e-51
6.67945e-51
7.15279e-51
7.50376e-51
3.63462e-51
3.68661e-51
3.76797e-51
3.88193e-51
4.03337e-51
4.2287e-51
4.47598e-51
4.78503e-51
5.1676e-51
5.63747e-51
6.21061e-51
6.90523e-51
7.74182e-51
8.74309e-51
9.93372e-51
1.134e-50
1.29891e-50
1.49082e-50
1.71232e-50
1.96566e-50
2.25256e-50
2.57388e-50
2.9292e-50
3.31622e-50
3.72749e-50
4.14427e-50
4.48796e-50
5.63178e-51
5.80213e-51
6.06875e-51
6.44235e-51
6.939e-51
7.57988e-51
8.39163e-51
9.40679e-51
1.06642e-50
1.22097e-50
1.40961e-50
1.63841e-50
1.91421e-50
2.2446e-50
2.63787e-50
3.10292e-50
3.64907e-50
4.28583e-50
5.02254e-50
5.86809e-50
6.83035e-50
7.91584e-50
9.1282e-50
1.04655e-49
1.19033e-49
1.33584e-49
1.45092e-49
9.53988e-51
9.94661e-51
1.05833e-50
1.1476e-50
1.26633e-50
1.41964e-50
1.61398e-50
1.85724e-50
2.15883e-50
2.52988e-50
2.9833e-50
3.53393e-50
4.19854e-50
4.99593e-50
5.9468e-50
7.07362e-50
8.40042e-50
9.95248e-50
1.17559e-49
1.38373e-49
1.62228e-49
1.8937e-49
2.19961e-49
2.53926e-49
2.90377e-49
3.26386e-49
3.53264e-49
1.63513e-50
1.71763e-50
1.84682e-50
2.02804e-50
2.26927e-50
2.58105e-50
2.97668e-50
3.47246e-50
4.08795e-50
4.84625e-50
5.77435e-50
6.90338e-50
8.26886e-50
9.91088e-50
1.18742e-49
1.42082e-49
1.69671e-49
2.02096e-49
2.39984e-49
2.84004e-49
3.34826e-49
3.93062e-49
4.59019e-49
5.32175e-49
6.09686e-49
6.83702e-49
7.36016e-49
2.73949e-50
2.89098e-50
3.1283e-50
3.46145e-50
3.90533e-50
4.47971e-50
5.20955e-50
6.12551e-50
7.26451e-50
8.67043e-50
1.03947e-49
1.24973e-49
1.50469e-49
1.81222e-49
2.18122e-49
2.62172e-49
3.14489e-49
3.76312e-49
4.48999e-49
5.3399e-49
6.32706e-49
7.46306e-49
8.75018e-49
1.01679e-48
1.1643e-48
1.30053e-48
1.39254e-48
4.44578e-50
4.70588e-50
5.11361e-50
5.68648e-50
6.45069e-50
7.44096e-50
8.70133e-50
1.0286e-49
1.22608e-49
1.47039e-49
1.77082e-49
2.13821e-49
2.5852e-49
3.12637e-49
3.77848e-49
4.56065e-49
5.49456e-49
6.60449e-49
7.91708e-49
9.46017e-49
1.12598e-48
1.33336e-48
1.56753e-48
1.82275e-48
2.08318e-48
2.3166e-48
2.46872e-48
6.99283e-50
7.41842e-50
8.08605e-50
9.02514e-50
1.02796e-49
1.1908e-49
1.39845e-49
1.66012e-49
1.987e-49
2.39255e-49
2.89279e-49
3.50667e-49
4.25643e-49
5.16808e-49
6.27182e-49
7.60248e-49
9.19989e-49
1.11087e-48
1.33775e-48
1.60555e-48
1.91852e-48
2.27873e-48
2.6831e-48
3.11857e-48
3.55466e-48
3.93576e-48
4.17722e-48
1.06986e-49
1.13703e-49
1.24248e-49
1.39101e-49
1.58974e-49
1.84821e-49
2.17856e-49
2.59594e-49
3.11883e-49
3.76966e-49
4.57531e-49
5.56785e-49
6.78532e-49
8.27257e-49
1.00822e-48
1.22751e-48
1.49214e-48
1.80989e-48
2.18909e-48
2.63783e-48
3.16242e-48
3.76436e-48
4.43523e-48
5.14894e-48
5.8516e-48
6.45287e-48
6.82547e-48
1.59853e-49
1.70161e-49
1.86362e-49
2.09213e-49
2.39846e-49
2.79776e-49
3.30944e-49
3.95778e-49
4.77268e-49
5.7906e-49
7.05563e-49
8.62078e-49
1.05494e-48
1.29169e-48
1.5812e-48
1.93379e-48
2.36128e-48
2.87669e-48
3.49362e-48
4.22462e-48
5.07821e-48
6.05359e-48
7.13223e-48
8.26648e-48
9.36649e-48
1.02915e-47
1.08548e-47
2.34131e-49
2.49606e-49
2.73955e-49
3.08356e-49
3.5457e-49
4.14958e-49
4.92565e-49
5.91215e-49
7.15652e-49
8.71696e-49
1.06644e-48
1.30847e-48
1.60813e-48
1.97775e-48
2.43195e-48
2.98769e-48
3.66428e-48
4.48273e-48
5.46434e-48
6.62769e-48
7.98329e-48
9.52482e-48
1.12163e-47
1.2976e-47
1.46604e-47
1.60565e-47
1.68948e-47
3.37251e-49
3.60074e-49
3.96033e-49
4.46931e-49
5.15461e-49
6.05255e-49
7.2101e-49
8.68665e-49
1.05563e-48
1.29104e-48
1.58614e-48
1.95458e-48
2.41292e-48
2.98097e-48
3.68219e-48
4.54381e-48
5.59649e-48
6.87312e-48
8.406e-48
1.02216e-47
1.23314e-47
1.47184e-47
1.7318e-47
1.99964e-47
2.25312e-47
2.46072e-47
2.58396e-47
4.79074e-49
5.12257e-49
5.64611e-49
6.38863e-49
7.39085e-49
8.70786e-49
1.04113e-48
1.25921e-48
1.53646e-48
1.88705e-48
2.32849e-48
2.88222e-48
3.57424e-48
4.43582e-48
5.5039e-48
6.82119e-48
8.43532e-48
1.03965e-47
1.27523e-47
1.55393e-47
1.87679e-47
2.24021e-47
2.63322e-47
3.03464e-47
3.41086e-47
3.7159e-47
3.89529e-47
6.72701e-49
7.20381e-49
7.95726e-49
9.0281e-49
1.04773e-48
1.23875e-48
1.48668e-48
1.8053e-48
2.21204e-48
2.72861e-48
3.38197e-48
4.20526e-48
5.23879e-48
6.53105e-48
8.13924e-48
1.01291e-47
1.25731e-47
1.55463e-47
1.91177e-47
2.33358e-47
2.82064e-47
3.36617e-47
3.95231e-47
4.5464e-47
5.09854e-47
5.54242e-47
5.80144e-47
9.35546e-49
1.0034e-48
1.1108e-48
1.26379e-48
1.47139e-48
1.74592e-48
2.1035e-48
2.56486e-48
3.15626e-48
3.91064e-48
4.86902e-48
6.08199e-48
7.61124e-48
9.53087e-48
1.19281e-47
1.49024e-47
1.85626e-47
2.30188e-47
2.83691e-47
3.46763e-47
4.19351e-47
5.00272e-47
5.86707e-47
6.73718e-47
7.54e-47
8.18078e-47
8.55224e-47
1.2908e-48
1.3866e-48
1.53849e-48
1.75535e-48
2.05047e-48
2.44202e-48
2.95389e-48
3.61694e-48
4.47041e-48
5.56379e-48
6.95887e-48
8.73203e-48
1.09765e-47
1.38042e-47
1.73462e-47
2.17514e-47
2.71802e-47
3.37925e-47
4.17253e-47
5.10583e-47
6.17646e-47
7.36478e-47
8.62729e-47
9.89062e-47
1.10489e-46
1.19677e-46
1.24974e-46
1.76935e-48
1.90372e-48
2.11714e-48
2.42258e-48
2.83944e-48
3.39434e-48
4.12247e-48
5.06936e-48
6.29325e-48
7.86778e-48
9.88518e-48
1.24597e-47
1.57306e-47
1.98651e-47
2.50582e-47
3.15295e-47
3.95133e-47
4.92386e-47
6.08951e-47
7.4581e-47
9.02318e-47
1.07533e-46
1.25826e-46
1.44033e-46
1.60636e-46
1.73736e-46
1.81253e-46
2.41246e-48
2.5999e-48
2.89816e-48
3.32604e-48
3.91173e-48
4.69399e-48
5.72423e-48
7.06927e-48
8.81482e-48
1.10696e-47
1.39703e-47
1.76859e-47
2.2423e-47
2.84286e-47
3.59898e-47
4.54276e-47
5.70808e-47
7.12743e-47
8.82678e-47
1.08179e-46
1.30883e-46
1.55886e-46
1.8221e-46
2.08287e-46
2.31952e-46
2.50541e-46
2.61163e-46
3.27521e-48
3.53551e-48
3.95047e-48
4.54722e-48
5.36646e-48
6.46432e-48
7.91548e-48
9.81735e-48
1.22953e-47
1.55087e-47
1.96582e-47
2.49925e-47
3.18149e-47
4.04873e-47
5.14289e-47
6.51047e-47
8.20003e-47
1.02573e-46
1.27177e-46
1.55947e-46
1.88662e-46
2.24569e-46
2.62223e-46
2.99373e-46
3.32944e-46
3.59209e-46
3.74165e-46
4.43132e-48
4.79148e-48
5.36665e-48
6.19584e-48
7.3375e-48
8.8725e-48
1.09087e-47
1.35874e-47
1.70907e-47
2.16509e-47
2.75606e-47
3.51827e-47
4.49596e-47
5.74177e-47
7.31637e-47
9.28668e-47
1.17218e-46
1.46857e-46
1.82262e-46
2.23584e-46
2.7045e-46
3.21731e-46
3.75321e-46
4.27998e-46
4.75427e-46
5.12404e-46
5.33397e-46
5.97956e-48
6.47634e-48
7.27116e-48
8.41976e-48
1.00058e-47
1.21451e-47
1.4993e-47
1.8753e-47
2.36884e-47
3.01357e-47
3.8519e-47
4.93646e-47
6.33132e-47
8.11253e-47
1.03674e-46
1.31914e-46
1.66825e-46
2.09297e-46
2.59971e-46
3.19009e-46
3.85809e-46
4.58695e-46
5.34626e-46
6.0902e-46
6.75786e-46
7.27681e-46
7.57065e-46
8.05236e-48
8.73586e-48
9.83144e-48
1.14184e-47
1.3616e-47
1.65896e-47
2.05614e-47
2.58236e-47
3.2755e-47
4.18401e-47
5.36906e-47
6.9065e-47
8.8886e-47
1.14245e-46
1.46392e-46
1.86684e-46
2.36497e-46
2.97068e-46
3.69253e-46
4.53209e-46
5.47996e-46
6.51157e-46
7.58328e-46
8.63025e-46
9.56717e-46
1.02935e-45
1.07038e-45
1.08275e-47
1.1766e-47
1.3273e-47
1.54611e-47
1.84993e-47
2.2623e-47
2.81491e-47
3.54948e-47
4.52026e-47
5.79673e-47
7.4666e-47
9.63869e-47
1.24451e-46
1.60419e-46
2.06066e-46
2.63314e-46
3.34093e-46
4.20108e-46
5.22503e-46
6.41405e-46
7.75381e-46
9.20854e-46
1.07161e-45
1.2185e-45
1.34962e-45
1.45102e-45
1.50819e-45
1.45441e-47
1.58306e-47
1.79e-47
2.09114e-47
2.51041e-47
3.08118e-47
3.84841e-47
4.87153e-47
6.22788e-47
8.01663e-47
1.0363e-46
1.34224e-46
1.73832e-46
2.2467e-46
2.89256e-46
3.70296e-46
4.70483e-46
5.92169e-46
7.36875e-46
9.04661e-46
1.09337e-45
1.29785e-45
1.50927e-45
1.7148e-45
1.89786e-45
2.03914e-45
2.11864e-45
1.95238e-47
2.1285e-47
2.41228e-47
2.82614e-47
3.40383e-47
4.1925e-47
5.2558e-47
6.67803e-47
8.56902e-47
1.10698e-46
1.43584e-46
1.86558e-46
2.42292e-46
3.13928e-46
4.05015e-46
5.19351e-46
6.60689e-46
8.32257e-46
1.03608e-45
1.27209e-45
1.53708e-45
1.82368e-45
2.11941e-45
2.40631e-45
2.66133e-45
2.85778e-45
2.96817e-45
2.61999e-47
2.86084e-47
3.24955e-47
3.81765e-47
4.6126e-47
5.70081e-47
7.17214e-47
9.14573e-47
1.17771e-46
1.52659e-46
1.98647e-46
2.58861e-46
3.37081e-46
4.3774e-46
5.65828e-46
7.26659e-46
9.25445e-46
1.16661e-45
1.45285e-45
1.78387e-45
2.15498e-45
2.55566e-45
2.96836e-45
3.368e-45
3.7226e-45
3.99533e-45
4.14835e-45
3.51568e-47
3.84477e-47
4.37675e-47
5.15581e-47
6.24853e-47
7.74824e-47
9.78139e-47
1.25159e-46
1.61713e-46
2.10295e-46
2.7447e-46
3.58652e-46
4.68168e-46
6.09252e-46
7.88899e-46
1.01452e-45
1.29335e-45
1.63144e-45
2.03236e-45
2.49546e-45
3.01394e-45
3.57285e-45
4.14759e-45
4.70324e-45
5.19549e-45
5.57353e-45
5.78538e-45
4.71831e-47
5.1677e-47
5.89523e-47
6.96273e-47
8.46342e-47
1.05281e-46
1.33343e-46
1.7118e-46
2.21881e-46
2.89417e-46
3.78806e-46
4.96259e-46
6.49262e-46
8.46555e-46
1.09792e-45
1.41367e-45
1.80381e-45
2.27663e-45
2.83685e-45
3.48328e-45
4.20608e-45
4.98417e-45
5.78312e-45
6.5544e-45
7.2367e-45
7.76003e-45
8.05296e-45
6.33445e-47
6.9478e-47
7.94222e-47
9.40404e-47
1.14634e-46
1.43034e-46
1.81725e-46
2.34019e-46
3.04247e-46
3.97989e-46
5.22289e-46
6.85862e-46
8.992e-46
1.17453e-45
1.52549e-45
1.96641e-45
2.5111e-45
3.1709e-45
3.95208e-45
4.85257e-45
5.85831e-45
6.9396e-45
8.04841e-45
9.11741e-45
1.00619e-44
1.07855e-44
1.11901e-44
8.50816e-47
9.34501e-47
1.07037e-46
1.27044e-46
1.55288e-46
1.94321e-46
2.4762e-46
3.19816e-46
4.16975e-46
5.46912e-46
7.19495e-46
9.46921e-46
1.24386e-45
1.62737e-45
2.11644e-45
2.73095e-45
3.48992e-45
4.40886e-45
5.49608e-45
6.74823e-45
8.14526e-45
9.64552e-45
1.11821e-44
1.26618e-44
1.39677e-44
1.49671e-44
1.55255e-44
1.14344e-46
1.25759e-46
1.44316e-46
1.71689e-46
2.10404e-46
2.64018e-46
3.37381e-46
4.36959e-46
5.71231e-46
7.51115e-46
9.90405e-46
1.30614e-45
1.71878e-45
2.25208e-45
2.93242e-45
3.78732e-45
4.843e-45
6.12061e-45
7.63121e-45
9.36954e-45
1.13071e-44
1.33858e-44
1.55125e-44
1.75582e-44
1.93618e-44
2.07409e-44
2.15107e-44
1.53773e-46
1.69341e-46
1.94681e-46
2.32118e-46
2.85163e-46
3.58764e-46
4.59674e-46
5.96905e-46
7.82282e-46
1.03103e-45
1.3624e-45
1.80013e-45
2.37272e-45
3.11318e-45
4.0581e-45
5.24554e-45
6.71158e-45
8.48508e-45
1.05807e-44
1.29905e-44
1.56742e-44
1.85505e-44
2.14905e-44
2.43159e-44
2.68045e-44
2.87057e-44
2.97664e-44
2.06946e-46
2.28177e-46
2.62774e-46
3.13962e-46
3.86615e-46
4.87606e-46
6.2632e-46
8.15301e-46
1.07101e-45
1.41465e-45
1.87301e-45
2.47912e-45
3.2726e-45
4.29928e-45
5.6098e-45
7.25675e-45
9.28972e-45
1.17481e-44
1.46514e-44
1.79876e-44
2.17001e-44
2.56757e-44
2.97358e-44
3.36341e-44
3.7065e-44
3.96843e-44
4.11445e-44
2.78716e-46
3.07668e-46
3.54899e-46
4.24878e-46
5.24357e-46
6.62871e-46
8.53451e-46
1.11352e-45
1.46596e-45
1.94025e-45
2.57361e-45
3.41195e-45
4.51023e-45
5.93195e-45
7.7472e-45
1.00285e-44
1.2844e-44
1.62474e-44
2.02647e-44
2.48781e-44
3.00081e-44
3.54975e-44
4.10991e-44
4.64734e-44
5.11997e-44
5.48055e-44
5.68146e-44
3.75668e-46
4.15149e-46
4.79625e-46
5.75277e-46
7.11455e-46
9.01368e-46
1.16308e-45
1.52077e-45
2.00618e-45
2.66024e-45
3.53462e-45
4.69297e-45
6.21147e-45
8.17803e-45
1.06894e-44
1.38457e-44
1.77402e-44
2.24465e-44
2.79992e-44
3.4372e-44
4.14539e-44
4.90265e-44
5.67484e-44
6.41516e-44
7.0658e-44
7.56187e-44
7.83814e-44
5.06742e-46
5.60586e-46
6.486e-46
7.79332e-46
9.6571e-46
1.22601e-45
1.58525e-45
2.07693e-45
2.74506e-45
3.64636e-45
4.85244e-45
6.45148e-45
8.54893e-45
1.12663e-44
1.47372e-44
1.90992e-44
2.44808e-44
3.0982e-44
3.8649e-44
4.74439e-44
5.72115e-44
6.76493e-44
7.82859e-44
8.84771e-44
9.74282e-44
1.04249e-43
1.08046e-43
6.84086e-46
7.57521e-46
8.77668e-46
1.05633e-45
1.31137e-45
1.66806e-45
2.16099e-45
2.83652e-45
3.75559e-45
4.99674e-45
6.65908e-45
8.86463e-45
1.17591e-44
1.55104e-44
2.03027e-44
2.63254e-44
3.37547e-44
4.27269e-44
5.33039e-44
6.54309e-44
7.8892e-44
9.32683e-44
1.0791e-43
1.2193e-43
1.34238e-43
1.43612e-43
1.48828e-43
9.24207e-46
1.02437e-45
1.18839e-45
1.43254e-45
1.78149e-45
2.27013e-45
2.94628e-45
3.87402e-45
5.13761e-45
6.84568e-45
9.13528e-45
1.2175e-44
1.61663e-44
2.13405e-44
2.79516e-44
3.62598e-44
4.65069e-44
5.88789e-44
7.34584e-44
9.01671e-44
1.08705e-43
1.28492e-43
1.48634e-43
1.67911e-43
1.84825e-43
1.97702e-43
2.04864e-43
1.24955e-45
1.38619e-45
1.6101e-45
1.94375e-45
2.42114e-45
3.09041e-45
4.01758e-45
5.29118e-45
7.0276e-45
9.37693e-45
1.25285e-44
1.67151e-44
2.22145e-44
2.93459e-44
3.84587e-44
4.99108e-44
6.40334e-44
8.10804e-44
1.01162e-43
1.24167e-43
1.49679e-43
1.76899e-43
2.04591e-43
2.31083e-43
2.54316e-43
2.71996e-43
2.81827e-43
1.69066e-45
1.87706e-45
2.18277e-45
2.63871e-45
3.29174e-45
4.20825e-45
5.47931e-45
7.22708e-45
9.61222e-45
1.28419e-44
1.71773e-44
2.29398e-44
3.05122e-44
4.03341e-44
5.28864e-44
6.86606e-44
8.81106e-44
1.11583e-43
1.39225e-43
1.70879e-43
2.05969e-43
2.4339e-43
2.81445e-43
3.17833e-43
3.49733e-43
3.74e-43
3.87488e-43
2.28908e-45
2.54342e-45
2.96081e-45
3.58386e-45
4.47709e-45
5.73198e-45
7.47405e-45
9.87175e-45
1.31466e-44
1.75844e-44
2.35454e-44
3.14723e-44
4.18926e-44
5.54116e-44
7.26902e-44
9.44034e-44
1.21173e-43
1.53471e-43
1.91497e-43
2.35028e-43
2.83264e-43
3.34685e-43
3.86956e-43
4.36918e-43
4.807e-43
5.13995e-43
5.32495e-43
3.1014e-45
3.44846e-45
4.01838e-45
4.86979e-45
6.0915e-45
7.80945e-45
1.01966e-44
1.34849e-44
1.79798e-44
2.40751e-44
3.22671e-44
4.31656e-44
5.7497e-44
7.60937e-44
9.98641e-44
1.29735e-43
1.66557e-43
2.10975e-43
2.63256e-43
3.23088e-43
3.89363e-43
4.59989e-43
5.31756e-43
6.00328e-43
6.60398e-43
7.06064e-43
7.31433e-43
4.20465e-45
4.6783e-45
5.45655e-45
6.62004e-45
8.29092e-45
1.06425e-44
1.39128e-44
1.84214e-44
2.45889e-44
3.29574e-44
4.42104e-44
5.91875e-44
7.88877e-44
1.04456e-43
1.37139e-43
1.78209e-43
2.28831e-43
2.89886e-43
3.61731e-43
4.43928e-43
5.34949e-43
6.31912e-43
7.30409e-43
8.24489e-43
9.06879e-43
9.69497e-43
1.00427e-42
5.70378e-45
6.35027e-45
7.41308e-45
9.00306e-45
1.12881e-44
1.45067e-44
1.89862e-44
2.51665e-44
3.36261e-44
4.51116e-44
6.05633e-44
8.11361e-44
1.08204e-43
1.43339e-43
1.88256e-43
2.44696e-43
3.14257e-43
3.98138e-43
4.96823e-43
6.09697e-43
7.34652e-43
8.67724e-43
1.00286e-42
1.13189e-42
1.24487e-42
1.3307e-42
1.37836e-42
7.74181e-45
8.6243e-45
1.00758e-44
1.22487e-44
1.53736e-44
1.97784e-44
2.59132e-44
3.43829e-44
4.59836e-44
6.17417e-44
8.29508e-44
1.11199e-43
1.48374e-43
1.96636e-43
2.58336e-43
3.35864e-43
4.31406e-43
5.46599e-43
6.82093e-43
8.37032e-43
1.00851e-42
1.19107e-42
1.37641e-42
1.55334e-42
1.7082e-42
1.82583e-42
1.89114e-42
1.05137e-44
1.17184e-44
1.37009e-44
1.66704e-44
2.09437e-44
2.69713e-44
3.53718e-44
4.69768e-44
6.28806e-44
8.44945e-44
1.13596e-43
1.52369e-43
2.03404e-43
2.6967e-43
3.54391e-43
4.60843e-43
5.92015e-43
7.50145e-43
9.36109e-43
1.14871e-42
1.38395e-42
1.63433e-42
1.88846e-42
2.13099e-42
2.34321e-42
2.50439e-42
2.59384e-42
1.4285e-44
1.59299e-44
1.86379e-44
2.2696e-44
2.85397e-44
3.67872e-44
4.82887e-44
6.41865e-44
8.59846e-44
1.15622e-43
1.55542e-43
2.08741e-43
2.78781e-43
3.69733e-43
4.8602e-43
6.3213e-43
8.12155e-43
1.02915e-42
1.28429e-42
1.57592e-42
1.89853e-42
2.24183e-42
2.59018e-42
2.92254e-42
3.21332e-42
3.4341e-42
3.55661e-42
1.94183e-44
2.16643e-44
2.53634e-44
3.09095e-44
3.89003e-44
5.01845e-44
6.59297e-44
8.77046e-44
1.17575e-43
1.58205e-43
2.12948e-43
2.8592e-43
3.8201e-43
5.06801e-43
6.6636e-43
8.66834e-43
1.11382e-42
1.41149e-42
1.76144e-42
2.16136e-42
2.60366e-42
3.07422e-42
3.5516e-42
4.00698e-42
4.40529e-42
4.70767e-42
4.87542e-42
2.64076e-44
2.94747e-44
3.45279e-44
4.21078e-44
5.30343e-44
6.84723e-44
9.00244e-44
1.19844e-43
1.60769e-43
2.16454e-43
2.91506e-43
3.91572e-43
5.2336e-43
6.94528e-43
9.13392e-43
1.18837e-42
1.52712e-42
1.93534e-42
2.41517e-42
2.96343e-42
3.56968e-42
4.21453e-42
4.86858e-42
5.49237e-42
6.03788e-42
6.45192e-42
6.68159e-42
3.59271e-44
4.01158e-44
4.70192e-44
5.73788e-44
7.23192e-44
9.34387e-44
1.22936e-43
1.63768e-43
2.19826e-43
2.9613e-43
3.99e-43
5.36184e-43
7.16883e-43
9.51597e-43
1.25172e-42
1.62878e-42
2.09326e-42
2.65292e-42
3.31067e-42
4.0621e-42
4.89285e-42
5.77635e-42
6.67227e-42
7.52658e-42
8.27354e-42
8.84039e-42
9.15475e-42
4.88964e-44
5.46173e-44
6.40489e-44
7.82078e-44
9.86362e-44
1.27526e-43
1.67895e-43
2.23797e-43
3.00573e-43
4.05109e-43
5.46076e-43
7.34102e-43
9.81801e-43
1.30357e-42
1.71501e-42
2.23191e-42
2.86861e-42
3.6357e-42
4.53712e-42
5.56677e-42
6.70491e-42
7.9151e-42
9.14209e-42
1.03119e-41
1.13345e-41
1.21104e-41
1.25407e-41
6.65706e-44
7.43846e-44
8.72707e-44
1.06623e-43
1.34554e-43
1.74072e-43
2.29313e-43
3.05838e-43
4.10973e-43
5.54162e-43
7.47296e-43
1.00495e-42
1.34441e-42
1.78541e-42
2.34932e-42
3.05775e-42
3.93031e-42
4.98147e-42
6.21655e-42
7.6271e-42
9.18605e-42
1.08434e-41
1.25235e-41
1.4125e-41
1.55248e-41
1.65867e-41
1.71754e-41
9.06621e-44
1.01336e-43
1.18943e-43
1.45392e-43
1.83583e-43
2.37635e-43
3.1322e-43
4.17964e-43
5.61912e-43
7.58013e-43
1.02257e-42
1.37556e-42
1.84068e-42
2.44495e-42
3.21766e-42
4.18837e-42
5.3839e-42
6.82399e-42
8.51586e-42
1.04478e-41
1.25828e-41
1.48521e-41
1.71522e-41
1.93444e-41
2.12602e-41
2.27133e-41
2.35188e-41
1.23509e-43
1.3809e-43
1.62147e-43
1.98299e-43
2.50515e-43
3.24443e-43
4.27857e-43
5.71212e-43
7.68275e-43
1.0368e-42
1.39913e-42
1.88264e-42
2.5198e-42
3.34764e-42
4.40622e-42
5.73604e-42
7.37373e-42
9.34627e-42
1.16634e-41
1.43091e-41
1.72323e-41
2.0339e-41
2.34874e-41
2.64877e-41
2.91092e-41
3.10974e-41
3.21993e-41
1.68301e-43
1.8822e-43
2.21093e-43
2.70506e-43
3.41897e-43
4.43006e-43
5.84486e-43
7.80662e-43
1.05041e-42
1.41805e-42
1.9142e-42
2.57638e-42
3.44907e-42
4.58295e-42
6.0329e-42
7.8543e-42
1.00973e-41
1.27986e-41
1.59715e-41
1.95939e-41
2.35956e-41
2.78481e-41
3.21571e-41
3.62626e-41
3.98495e-41
4.25693e-41
4.40764e-41
2.29394e-43
2.56608e-43
3.01529e-43
3.69066e-43
4.66674e-43
6.04951e-43
7.98493e-43
1.06693e-42
1.43612e-42
1.93939e-42
2.6187e-42
3.52543e-42
4.72049e-42
6.27329e-42
8.25894e-42
1.07532e-41
1.38246e-41
1.75233e-41
2.18673e-41
2.68261e-41
3.23035e-41
3.81234e-41
4.40197e-41
4.9637e-41
5.45439e-41
5.82642e-41
6.03251e-41
3.12737e-43
3.49918e-43
4.11302e-43
5.03614e-43
6.37061e-43
8.26162e-43
1.09091e-42
1.45819e-42
1.96344e-42
2.65229e-42
3.58223e-42
4.82363e-42
6.45989e-42
8.58603e-42
1.13048e-41
1.47199e-41
1.8925e-41
2.39885e-41
2.99349e-41
3.6722e-41
4.42182e-41
5.2182e-41
6.02494e-41
6.79339e-41
7.46458e-41
7.97339e-41
8.25519e-41
4.26449e-43
4.77249e-43
5.61133e-43
6.87309e-43
8.69752e-43
1.12835e-42
1.49047e-42
1.99296e-42
2.68432e-42
3.6271e-42
4.89998e-42
6.59932e-42
8.83934e-42
1.17501e-41
1.54721e-41
2.01473e-41
2.59035e-41
3.28344e-41
4.09729e-41
5.02612e-41
6.05186e-41
7.14146e-41
8.24509e-41
9.29621e-41
1.02142e-40
1.091e-40
1.12952e-40
5.81617e-43
6.51028e-43
7.65661e-43
9.38123e-43
1.18755e-42
1.54116e-42
2.03645e-42
2.72386e-42
3.66982e-42
4.95996e-42
6.70204e-42
9.02797e-42
1.20941e-41
1.60783e-41
2.11731e-41
2.75722e-41
3.54507e-41
4.49362e-41
5.60735e-41
6.87827e-41
8.28166e-41
9.77224e-41
1.12818e-40
1.27194e-40
1.39747e-40
1.49261e-40
1.54527e-40
7.93386e-43
8.88228e-43
1.04488e-42
1.28061e-42
1.6216e-42
2.10513e-42
2.78253e-42
3.72284e-42
5.01704e-42
6.78235e-42
9.16629e-42
1.23494e-41
1.65458e-41
2.19987e-41
2.89715e-41
3.77292e-41
4.85107e-41
6.14906e-41
7.67294e-41
9.41173e-41
1.13315e-40
1.33704e-40
1.5435e-40
1.74009e-40
1.91173e-40
2.04179e-40
2.11378e-40
1.08243e-42
1.21203e-42
1.42612e-42
1.74832e-42
2.21448e-42
2.87563e-42
3.80203e-42
5.08821e-42
6.85869e-42
9.27395e-42
1.25359e-41
1.68917e-41
2.26341e-41
3.00962e-41
3.9638e-41
5.16219e-41
6.63743e-41
8.41334e-41
1.04981e-40
1.28767e-40
1.55027e-40
1.82911e-40
2.11145e-40
2.38025e-40
2.61491e-40
2.7927e-40
2.89107e-40
1.477e-42
1.65409e-42
1.94666e-42
2.38706e-42
3.02434e-42
3.92832e-42
5.19519e-42
6.95434e-42
9.37619e-42
1.26804e-41
1.71433e-41
2.31031e-41
3.09603e-41
4.11706e-41
5.42263e-41
7.06227e-41
9.0806e-41
1.15101e-40
1.43619e-40
1.76153e-40
2.12067e-40
2.50198e-40
2.88803e-40
3.25553e-40
3.57631e-40
3.8193e-40
3.95372e-40
2.01567e-42
2.25765e-42
2.6575e-42
3.25944e-42
4.13062e-42
5.3666e-42
7.09899e-42
9.50487e-42
1.28175e-41
1.73374e-41
2.34428e-41
3.15964e-41
4.2346e-41
5.6315e-41
7.41765e-41
9.66075e-41
1.24217e-40
1.5745e-40
1.96456e-40
2.40949e-40
2.9006e-40
3.42199e-40
3.94978e-40
4.45215e-40
4.8906e-40
5.22267e-40
5.40631e-40
2.75111e-42
3.08179e-42
3.62823e-42
4.45098e-42
5.64189e-42
7.33172e-42
9.70057e-42
1.29908e-41
1.75214e-41
2.37039e-41
3.20555e-41
4.32092e-41
5.79146e-41
7.70239e-41
1.01457e-40
1.3214e-40
1.69905e-40
2.15357e-40
2.68701e-40
3.29544e-40
3.96694e-40
4.67976e-40
5.40125e-40
6.08791e-40
6.68712e-40
7.14087e-40
7.39173e-40
3.75531e-42
4.20718e-42
4.95398e-42
6.07852e-42
7.70647e-42
1.00167e-41
1.32557e-41
1.7755e-41
2.39512e-41
3.2407e-41
4.38302e-41
5.90866e-41
7.92013e-41
1.0534e-40
1.38759e-40
1.80725e-40
2.32375e-40
2.94532e-40
3.67475e-40
4.50666e-40
5.4247e-40
6.39912e-40
7.38529e-40
8.32374e-40
9.14255e-40
9.76247e-40
1.01051e-39
5.12656e-42
5.74406e-42
6.76467e-42
8.30168e-42
1.0527e-41
1.36854e-41
1.8114e-41
2.42663e-41
3.27397e-41
4.43039e-41
5.99271e-41
8.07933e-41
1.08304e-40
1.44053e-40
1.8976e-40
2.47152e-40
3.17782e-40
4.02775e-40
5.02508e-40
6.16241e-40
7.41736e-40
8.74925e-40
1.0097e-39
1.13794e-39
1.24982e-39
1.3345e-39
1.38129e-39
6.99915e-42
7.84298e-42
9.23779e-42
1.13385e-41
1.43804e-41
1.86981e-41
2.47529e-41
3.31651e-41
4.47519e-41
6.0566e-41
8.19316e-41
1.10468e-40
1.48092e-40
1.9698e-40
2.59484e-40
3.37964e-40
4.34539e-40
5.50745e-40
6.87092e-40
8.42563e-40
1.01409e-39
1.19612e-39
1.3803e-39
1.55552e-39
1.70835e-39
1.82402e-39
1.8879e-39
9.5565e-42
1.07096e-41
1.26158e-41
1.54871e-41
1.96449e-41
2.55474e-41
3.38251e-41
4.53267e-41
6.11698e-41
8.27942e-41
1.1201e-40
1.51033e-40
2.02481e-40
2.69333e-40
3.54799e-40
4.62104e-40
5.94141e-40
7.53005e-40
9.39386e-40
1.15189e-39
1.38632e-39
1.63506e-39
1.88671e-39
2.12609e-39
2.33486e-39
2.49282e-39
2.58003e-39
1.30492e-41
1.4625e-41
1.72301e-41
2.11543e-41
2.68375e-41
3.4906e-41
4.62224e-41
6.19471e-41
8.36086e-41
1.13176e-40
1.53125e-40
2.06482e-40
2.76829e-40
3.68235e-40
4.85087e-40
6.31789e-40
8.12291e-40
1.02945e-39
1.2842e-39
1.57462e-39
1.89497e-39
2.23484e-39
2.57864e-39
2.90563e-39
3.19076e-39
3.40646e-39
3.52549e-39
1.78195e-41
1.99729e-41
2.3533e-41
2.88963e-41
3.66643e-41
4.76934e-41
6.31631e-41
8.46605e-41
1.14276e-40
1.547e-40
2.0932e-40
2.82272e-40
3.78452e-40
5.03419e-40
6.63167e-40
8.6371e-40
1.11044e-39
1.40725e-39
1.7554e-39
2.15227e-39
2.58998e-39
3.05431e-39
3.52395e-39
3.97056e-39
4.35993e-39
4.65442e-39
4.81684e-39
2.4335e-41
2.72777e-41
3.2143e-41
3.94729e-41
5.00901e-41
6.51655e-41
8.63121e-41
1.157e-40
1.56186e-40
2.11452e-40
2.86124e-40
3.85859e-40
5.17345e-40
6.8818e-40
9.06551e-40
1.18067e-39
1.51789e-39
1.92352e-39
2.39928e-39
2.94153e-39
3.53954e-39
4.17382e-39
4.81527e-39
5.42518e-39
5.95683e-39
6.35882e-39
6.58042e-39
3.32345e-41
3.72557e-41
4.39046e-41
5.39221e-41
6.84332e-41
8.90387e-41
1.17944e-40
1.58116e-40
2.13461e-40
2.89011e-40
3.9109e-40
5.27429e-40
7.07168e-40
9.40685e-40
1.23916e-39
1.61381e-39
2.07467e-39
2.62896e-39
3.27901e-39
4.01984e-39
4.83673e-39
5.70307e-39
6.57907e-39
7.41187e-39
8.13767e-39
8.68631e-39
8.98859e-39
4.53905e-41
5.08855e-41
5.99715e-41
7.36619e-41
9.34943e-41
1.21657e-40
1.61166e-40
2.16077e-40
2.9173e-40
3.95002e-40
5.34537e-40
7.20899e-40
9.66577e-40
1.28575e-39
1.69368e-39
2.20567e-39
2.83542e-39
3.59277e-39
4.48086e-39
5.49286e-39
6.60862e-39
7.79177e-39
8.98792e-39
1.01249e-38
1.11156e-38
1.18643e-38
1.22765e-38
6.19949e-41
6.95037e-41
8.19202e-41
1.00629e-40
1.27734e-40
1.66225e-40
2.20225e-40
2.95278e-40
3.98683e-40
5.3984e-40
7.30561e-40
9.8528e-40
1.32106e-39
1.75725e-39
2.31472e-39
3.01434e-39
3.87479e-39
4.90948e-39
6.12264e-39
7.5049e-39
9.02867e-39
1.06442e-38
1.22773e-38
1.38294e-38
1.51814e-38
1.62029e-38
1.6765e-38
8.46759e-41
9.49365e-41
1.11904e-40
1.37471e-40
1.74512e-40
2.27117e-40
3.0092e-40
4.03499e-40
5.44828e-40
7.37755e-40
9.98418e-40
1.34654e-39
1.80542e-39
2.4015e-39
3.16324e-39
4.11914e-39
5.29468e-39
6.7081e-39
8.36512e-39
1.02529e-38
1.23336e-38
1.45393e-38
1.67687e-38
1.88869e-38
2.07319e-38
2.21252e-38
2.28914e-38
1.15658e-40
1.29678e-40
1.52864e-40
1.87802e-40
2.38422e-40
3.10313e-40
4.11175e-40
5.51366e-40
7.44517e-40
1.00818e-39
1.36441e-39
1.84014e-39
2.4672e-39
3.28169e-39
4.32246e-39
5.62839e-39
7.23421e-39
9.16477e-39
1.14278e-38
1.40055e-38
1.68464e-38
1.98575e-38
2.29002e-38
2.57909e-38
2.83079e-38
3.02082e-38
3.12524e-38
1.57978e-40
1.77136e-40
2.08818e-40
2.56561e-40
3.25733e-40
4.23976e-40
5.61813e-40
7.53396e-40
1.01735e-39
1.37767e-39
1.86446e-39
2.51453e-39
3.37133e-39
4.48415e-39
5.90601e-39
7.68994e-39
9.8833e-39
1.25199e-38
1.56101e-38
1.91296e-38
2.30077e-38
2.71176e-38
3.12699e-38
3.52139e-38
3.86473e-38
4.12384e-38
4.26611e-38
2.15787e-40
2.41964e-40
2.85254e-40
3.50492e-40
4.45014e-40
5.79263e-40
7.67619e-40
1.02942e-39
1.39012e-39
1.88247e-39
2.54763e-39
3.43585e-39
4.60646e-39
6.12673e-39
8.06902e-39
1.05057e-38
1.35012e-38
1.71015e-38
2.13208e-38
2.61254e-38
3.14188e-38
3.70276e-38
4.26932e-38
4.80734e-38
5.27558e-38
5.62881e-38
5.82261e-38
2.94753e-40
3.30519e-40
3.89669e-40
4.7881e-40
6.07967e-40
7.91409e-40
1.04878e-39
1.40652e-39
1.89938e-39
2.57211e-39
3.48093e-39
4.69443e-39
6.29363e-39
8.37034e-39
1.10233e-38
1.4351e-38
1.84416e-38
2.33574e-38
2.91174e-38
3.56755e-38
4.28996e-38
5.05526e-38
5.82817e-38
6.56198e-38
7.20044e-38
7.68188e-38
7.94577e-38
4.02617e-40
4.51484e-40
5.32302e-40
6.54099e-40
8.30573e-40
1.08122e-39
1.43289e-39
1.92168e-39
2.59508e-39
3.51421e-39
4.75582e-39
6.41359e-39
8.59809e-39
1.14346e-38
1.50578e-38
1.96021e-38
2.51872e-38
3.18983e-38
3.97606e-38
4.87108e-38
5.85682e-38
6.90089e-38
7.95511e-38
8.95576e-38
9.82614e-38
1.04822e-37
1.08414e-37
5.49953e-40
6.16718e-40
7.27137e-40
8.93546e-40
1.13466e-39
1.47712e-39
1.9576e-39
2.62541e-39
3.54542e-39
4.8011e-39
6.49724e-39
8.76171e-39
1.17454e-38
1.56194e-38
2.05671e-38
2.67718e-38
3.43967e-38
4.35574e-38
5.42877e-38
6.65007e-38
7.9949e-38
9.41903e-38
1.08567e-37
1.2221e-37
1.34072e-37
1.43009e-37
1.47898e-37
7.51202e-40
8.42417e-40
9.93273e-40
1.22062e-39
1.55004e-39
2.01792e-39
2.67435e-39
3.58669e-39
4.84352e-39
6.55884e-39
8.87569e-39
1.19686e-38
1.60436e-38
2.13337e-38
2.80894e-38
3.65603e-38
4.69685e-38
5.94711e-38
7.41134e-38
9.0776e-38
1.0912e-37
1.28542e-37
1.48144e-37
1.6674e-37
1.82905e-37
1.95077e-37
2.01728e-37
1.02608e-39
1.1507e-39
1.35679e-39
1.66739e-39
2.11743e-39
2.75661e-39
3.65337e-39
4.89969e-39
6.61654e-39
8.95955e-39
1.2124e-38
1.63481e-38
2.19127e-38
2.9136e-38
3.83591e-38
4.99224e-38
6.4128e-38
8.11892e-38
1.01167e-37
1.23896e-37
1.48915e-37
1.75397e-37
2.02118e-37
2.2746e-37
2.49482e-37
2.66054e-37
2.75099e-37
1.40153e-39
1.57177e-39
1.85331e-39
2.27762e-39
2.89241e-39
3.76557e-39
4.99057e-39
6.693e-39
9.03806e-39
1.22382e-38
1.65599e-38
2.23282e-38
2.99264e-38
3.9788e-38
5.23783e-38
6.81607e-38
8.75463e-38
1.10825e-37
1.38077e-37
1.69077e-37
2.03191e-37
2.39293e-37
2.75711e-37
3.1024e-37
3.40232e-37
3.62791e-37
3.75087e-37
1.91432e-39
2.14687e-39
2.53147e-39
3.11108e-39
3.95089e-39
5.14361e-39
6.81687e-39
9.14217e-39
1.2345e-38
1.67154e-38
2.2617e-38
3.04933e-38
4.08669e-38
5.4329e-38
7.15135e-38
9.30515e-38
1.19502e-37
1.51258e-37
1.88428e-37
2.307e-37
2.77208e-37
3.26413e-37
3.76036e-37
4.2307e-37
4.63908e-37
4.94606e-37
5.11316e-37
2.61467e-39
2.93232e-39
3.45766e-39
4.24938e-39
5.39649e-39
7.02561e-39
9.311e-39
1.24868e-38
1.68609e-38
2.28289e-38
3.08872e-38
4.16405e-38
5.58017e-38
7.41766e-38
9.76285e-38
1.27017e-37
1.63101e-37
2.06415e-37
2.57102e-37
3.14734e-37
3.78126e-37
4.45177e-37
5.12777e-37
5.76829e-37
6.3242e-37
6.74179e-37
6.96878e-37
3.57113e-39
4.005e-39
4.72256e-39
5.80395e-39
7.37071e-39
9.59574e-39
1.2717e-38
1.7054e-38
2.3027e-38
3.11759e-38
4.21778e-38
5.68576e-38
7.61869e-38
1.01264e-37
1.33265e-37
1.73358e-37
2.22578e-37
2.81646e-37
3.50754e-37
4.29312e-37
5.15698e-37
6.07045e-37
6.99113e-37
7.86319e-37
8.6197e-37
9.18759e-37
9.4958e-37
4.8773e-39
5.4699e-39
6.44995e-39
7.92688e-39
1.00667e-38
1.31054e-38
1.73678e-38
2.32901e-38
3.14458e-38
4.25715e-38
5.75906e-38
7.76281e-38
1.04008e-37
1.38227e-37
1.81887e-37
2.36577e-37
3.03702e-37
3.8424e-37
4.78444e-37
5.85503e-37
7.032e-37
8.27619e-37
9.52979e-37
1.07167e-36
1.17459e-36
1.25179e-36
1.29363e-36
6.66098e-39
7.47032e-39
8.80879e-39
1.08258e-38
1.3748e-38
1.78976e-38
2.37179e-38
3.18043e-38
4.29392e-38
5.81274e-38
7.86283e-38
1.05975e-37
1.41974e-37
1.88661e-37
2.48217e-37
3.22805e-37
4.14333e-37
5.24124e-37
6.52513e-37
7.98383e-37
9.58701e-37
1.12812e-36
1.29877e-36
1.46028e-36
1.60025e-36
1.70516e-36
1.76191e-36
9.09659e-39
1.02019e-38
1.20297e-38
1.47841e-38
1.87745e-38
2.44406e-38
3.23876e-38
4.34278e-38
5.86285e-38
7.93604e-38
1.07341e-37
1.44659e-37
1.93775e-37
2.57464e-37
3.38692e-37
4.40401e-37
5.65179e-37
7.14819e-37
8.89761e-37
1.08847e-36
1.30679e-36
1.53743e-36
1.76966e-36
1.98936e-36
2.17966e-36
2.32218e-36
2.39912e-36
1.24222e-38
1.39315e-38
1.64275e-38
2.01886e-38
2.56372e-38
3.33735e-38
4.42231e-38
5.92945e-38
8.00435e-38
1.08339e-37
1.46522e-37
1.97441e-37
2.64446e-37
3.51314e-37
4.62082e-37
6.00747e-37