/*--------------------------------*- C++ -*----------------------------------*\
| =========                 |                                                 |
| \\      /  F ield         | OpenFOAM: The Open Source CFD Toolbox           |
|  \\    /   O peration     | Version:  2212                                  |
|   \\  /    A nd           | Website:  www.openfoam.com                      |
|    \\/     M anipulation  |                                                 |
\*---------------------------------------------------------------------------*/
FoamFile
{
    version     2.0;
    format      ascii;
    arch        "LSB;label=32;scalar=64";
    class       volScalarField;
    location    "9.0545968";
    object      CO_0;
}
// * * * * * * * * * * * * * * * * * * * * * * * * * * * * * * * * * * * * * //

dimensions      [0 0 0 0 0 0 0];

internalField   nonuniform List<scalar> 
33600
(
2.43136e-26
2.50204e-26
2.60879e-26
2.75136e-26
2.93006e-26
3.14555e-26
3.39873e-26
3.69075e-26
4.02288e-26
4.39647e-26
4.81292e-26
5.27357e-26
5.77963e-26
6.33213e-26
6.93175e-26
7.57879e-26
8.27296e-26
9.01328e-26
9.79788e-26
1.06238e-25
1.14868e-25
1.23807e-25
1.32967e-25
1.42203e-25
1.51222e-25
1.59363e-25
1.64994e-25
7.84633e-26
8.07518e-26
8.42085e-26
8.88251e-26
9.46119e-26
1.0159e-25
1.0979e-25
1.19249e-25
1.30009e-25
1.42113e-25
1.55609e-25
1.7054e-25
1.86946e-25
2.04862e-25
2.24311e-25
2.45303e-25
2.67831e-25
2.91863e-25
3.17341e-25
3.4417e-25
3.72211e-25
4.01278e-25
4.31115e-25
4.61397e-25
4.91535e-25
5.20451e-25
5.43597e-25
1.44365e-25
1.48601e-25
1.55e-25
1.63545e-25
1.74258e-25
1.87177e-25
2.02362e-25
2.19881e-25
2.39814e-25
2.62245e-25
2.87262e-25
3.1495e-25
3.45386e-25
3.7864e-25
4.1476e-25
4.53776e-25
4.95686e-25
5.40453e-25
5.88002e-25
6.38207e-25
6.90898e-25
7.45855e-25
8.02776e-25
8.61217e-25
9.20004e-25
9.7622e-25
1.01905e-24
2.23507e-25
2.30121e-25
2.4011e-25
2.53451e-25
2.70179e-25
2.90357e-25
3.14079e-25
3.41456e-25
3.72618e-25
4.07701e-25
4.4685e-25
4.90205e-25
5.379e-25
5.90057e-25
6.46774e-25
7.08124e-25
7.74147e-25
8.44845e-25
9.20179e-25
1.00007e-24
1.0844e-24
1.17298e-24
1.26541e-24
1.36076e-24
1.45636e-24
1.54545e-24
1.6093e-24
3.17533e-25
3.27028e-25
3.41368e-25
3.60523e-25
3.84543e-25
4.13528e-25
4.47615e-25
4.86975e-25
5.31801e-25
5.82303e-25
6.38702e-25
7.01221e-25
7.7008e-25
8.45486e-25
9.27629e-25
1.01668e-24
1.11277e-24
1.21602e-24
1.32651e-24
1.44427e-24
1.56926e-24
1.70124e-24
1.83936e-24
1.98148e-24
2.12201e-24
2.24853e-24
2.33438e-24
4.28279e-25
4.41243e-25
4.60823e-25
4.86982e-25
5.19795e-25
5.59406e-25
6.06015e-25
6.59869e-25
7.2125e-25
7.90469e-25
8.67858e-25
9.53761e-25
1.04853e-24
1.1525e-24
1.26604e-24
1.38946e-24
1.52309e-24
1.66723e-24
1.82216e-24
1.98804e-24
2.16481e-24
2.35189e-24
2.54742e-24
2.74698e-24
2.94068e-24
3.10941e-24
3.21892e-24
5.57814e-25
5.74935e-25
6.00793e-25
6.35351e-25
6.78717e-25
7.31095e-25
7.92772e-25
8.64096e-25
9.45473e-25
1.03736e-24
1.14023e-24
1.25463e-24
1.38108e-24
1.52015e-24
1.67243e-24
1.8385e-24
2.01896e-24
2.21436e-24
2.42519e-24
2.6517e-24
2.89359e-24
3.14945e-24
3.41562e-24
3.6842e-24
3.93992e-24
4.15637e-24
4.29207e-24
7.08492e-25
7.30572e-25
7.63926e-25
8.08517e-25
8.64504e-25
9.32176e-25
1.01193e-24
1.10426e-24
1.20974e-24
1.32901e-24
1.4628e-24
1.61186e-24
1.77704e-24
1.95919e-24
2.15924e-24
2.37814e-24
2.61682e-24
2.87616e-24
3.15682e-24
3.45893e-24
3.78163e-24
4.12204e-24
4.47372e-24
4.82428e-24
5.15206e-24
5.42293e-24
5.58826e-24
8.83013e-25
9.10992e-25
9.53267e-25
1.00981e-24
1.08085e-24
1.1668e-24
1.26819e-24
1.38573e-24
1.52021e-24
1.67256e-24
1.84378e-24
2.035e-24
2.24744e-24
2.4824e-24
2.74123e-24
3.02534e-24
3.33611e-24
3.6747e-24
4.04184e-24
4.43732e-24
4.85913e-24
5.3022e-24
5.75634e-24
6.20361e-24
6.61511e-24
6.94856e-24
7.1479e-24
1.08449e-24
1.11947e-24
1.17234e-24
1.24309e-24
1.33206e-24
1.43979e-24
1.56706e-24
1.71481e-24
1.88415e-24
2.07636e-24
2.29289e-24
2.5353e-24
2.80534e-24
3.10486e-24
3.43581e-24
3.80013e-24
4.19965e-24
4.63582e-24
5.10922e-24
5.61889e-24
6.16111e-24
6.72774e-24
7.30383e-24
7.86485e-24
8.37381e-24
8.77969e-24
9.01842e-24
1.31654e-24
1.3598e-24
1.42522e-24
1.51284e-24
1.62311e-24
1.75681e-24
1.91497e-24
2.09888e-24
2.31008e-24
2.55031e-24
2.82156e-24
3.12604e-24
3.46613e-24
3.8444e-24
4.26349e-24
4.72599e-24
5.2342e-24
5.78971e-24
6.3927e-24
7.04098e-24
7.7284e-24
8.4428e-24
9.16342e-24
9.85807e-24
1.04807e-23
1.09708e-23
1.12554e-23
1.58334e-24
1.63641e-24
1.71669e-24
1.8243e-24
1.95987e-24
2.12446e-24
2.31946e-24
2.54662e-24
2.808e-24
3.10599e-24
3.44327e-24
3.82284e-24
4.24792e-24
4.72193e-24
5.24836e-24
5.83049e-24
6.47107e-24
7.17166e-24
7.93171e-24
8.74717e-24
9.60866e-24
1.0499e-23
1.13904e-23
1.2242e-23
1.29975e-23
1.35858e-23
1.39239e-23
1.8898e-24
1.95444e-24
2.0523e-24
2.18357e-24
2.34916e-24
2.55046e-24
2.78936e-24
3.06819e-24
3.38969e-24
3.75705e-24
4.17386e-24
4.64408e-24
5.17199e-24
5.76203e-24
6.41866e-24
7.14591e-24
7.9469e-24
8.82293e-24
9.77226e-24
1.07883e-23
1.18576e-23
1.29567e-23
1.40498e-23
1.50856e-23
1.59966e-23
1.66997e-23
1.71002e-23
2.24161e-24
2.31991e-24
2.43853e-24
2.59781e-24
2.79897e-24
3.04389e-24
3.33505e-24
3.67552e-24
4.06894e-24
4.5195e-24
5.03191e-24
5.61134e-24
6.26331e-24
6.99352e-24
7.80747e-24
8.71002e-24
9.70453e-24
1.07917e-23
1.19682e-23
1.3224e-23
1.45405e-23
1.58868e-23
1.72174e-23
1.84696e-23
1.95627e-23
2.04e-23
2.08738e-23
2.64544e-24
2.73985e-24
2.88298e-24
3.07537e-24
3.31866e-24
3.61533e-24
3.96864e-24
4.3826e-24
4.86195e-24
5.41213e-24
6.03923e-24
6.7499e-24
7.55116e-24
8.45014e-24
9.45356e-24
1.05671e-23
1.17941e-23
1.31345e-23
1.45824e-23
1.61238e-23
1.77336e-23
1.93721e-23
2.09825e-23
2.24888e-23
2.37953e-23
2.47898e-23
2.53492e-23
3.10904e-24
3.22245e-24
3.3945e-24
3.62602e-24
3.91918e-24
4.27722e-24
4.70437e-24
5.20583e-24
5.78769e-24
6.45695e-24
7.22138e-24
8.08941e-24
9.06984e-24
1.01714e-23
1.14023e-23
1.27688e-23
1.42743e-23
1.59172e-23
1.76887e-23
1.95694e-23
2.15264e-23
2.35097e-23
2.54495e-23
2.72541e-23
2.88108e-23
2.99895e-23
3.06492e-23
3.64151e-24
3.77729e-24
3.98345e-24
4.26117e-24
4.61331e-24
5.04407e-24
5.55888e-24
6.16439e-24
6.8684e-24
7.67976e-24
8.60832e-24
9.6646e-24
1.08595e-23
1.22037e-23
1.37067e-23
1.53758e-23
1.72137e-23
1.92172e-23
2.13732e-23
2.36561e-23
2.60237e-23
2.84137e-23
3.07408e-23
3.28957e-23
3.47458e-23
3.61401e-23
3.69174e-23
4.25346e-24
4.41558e-24
4.66194e-24
4.9942e-24
5.41605e-24
5.93289e-24
6.55165e-24
7.28077e-24
8.13009e-24
9.11078e-24
1.02351e-23
1.15161e-23
1.29672e-23
1.46012e-23
1.64291e-23
1.84589e-23
2.06928e-23
2.31247e-23
2.57369e-23
2.84958e-23
3.13482e-23
3.42172e-23
3.69998e-23
3.95658e-23
4.17599e-23
4.34071e-23
4.43219e-23
4.95726e-24
5.15039e-24
5.44412e-24
5.8407e-24
6.3449e-24
6.96358e-24
7.7055e-24
8.58128e-24
9.60326e-24
1.07854e-23
1.21428e-23
1.36916e-23
1.5448e-23
1.74272e-23
1.96422e-23
2.21012e-23
2.48056e-23
2.77459e-23
3.08982e-23
3.42196e-23
3.76436e-23
4.10765e-23
4.43944e-23
4.74431e-23
5.00405e-23
5.19839e-23
5.30599e-23
5.76738e-24
5.99701e-24
6.34653e-24
6.81894e-24
7.42035e-24
8.15939e-24
9.04708e-24
1.00967e-23
1.13236e-23
1.27449e-23
1.43795e-23
1.62468e-23
1.83663e-23
2.07562e-23
2.34311e-23
2.63999e-23
2.96623e-23
3.32046e-23
3.69955e-23
4.09807e-23
4.50784e-23
4.91747e-23
5.31214e-23
5.67364e-23
5.98068e-23
6.20973e-23
6.33621e-23
6.70074e-24
6.97328e-24
7.38847e-24
7.95025e-24
8.66633e-24
9.54754e-24
1.06076e-23
1.1863e-23
1.33328e-23
1.50379e-23
1.70014e-23
1.92469e-23
2.17977e-23
2.46751e-23
2.78957e-23
3.14688e-23
3.53918e-23
3.9646e-23
4.41909e-23
4.8959e-23
5.38497e-23
5.8726e-23
6.34113e-23
6.76907e-23
7.13156e-23
7.40127e-23
7.54987e-23
7.77705e-24
8.10005e-24
8.59252e-24
9.25955e-24
1.01108e-23
1.11599e-23
1.24236e-23
1.39225e-23
1.56797e-23
1.77211e-23
2.00745e-23
2.27683e-23
2.58304e-23
2.92856e-23
3.31527e-23
3.74409e-23
4.21452e-23
4.72401e-23
5.26745e-23
5.83646e-23
6.41885e-23
6.99814e-23
7.55338e-23
8.05926e-23
8.48674e-23
8.80409e-23
8.97859e-23
9.01937e-24
9.4017e-24
9.98506e-24
1.0776e-23
1.17866e-23
1.30335e-23
1.45378e-23
1.63243e-23
1.84215e-23
2.08608e-23
2.36757e-23
2.69004e-23
3.05679e-23
3.47068e-23
3.93387e-23
4.44724e-23
5.00991e-23
5.6186e-23
6.26686e-23
6.94441e-23
7.63652e-23
8.32348e-23
8.98048e-23
9.57777e-23
1.00814e-22
1.04546e-22
1.06594e-22
1.04546e-23
1.09067e-23
1.15969e-23
1.25336e-23
1.37318e-23
1.52121e-23
1.7e-23
1.91261e-23
2.1625e-23
2.45346e-23
2.78953e-23
3.17478e-23
3.6131e-23
4.10784e-23
4.66137e-23
5.27456e-23
5.94607e-23
6.67167e-23
7.44335e-23
8.24859e-23
9.06965e-23
9.88304e-23
1.06594e-22
1.13639e-22
1.19568e-22
1.23954e-22
1.26357e-22
1.21142e-23
1.26482e-23
1.3464e-23
1.45722e-23
1.59913e-23
1.77463e-23
1.98687e-23
2.23955e-23
2.53684e-23
2.88334e-23
3.28388e-23
3.74329e-23
4.26615e-23
4.85634e-23
5.51651e-23
6.24743e-23
7.04722e-23
7.9105e-23
8.8274e-23
9.78276e-23
1.07553e-22
1.17171e-22
1.26335e-22
1.34637e-22
1.41612e-22
1.46763e-22
1.49582e-22
1.4035e-23
1.4665e-23
1.56285e-23
1.69383e-23
1.86171e-23
2.06957e-23
2.32122e-23
2.62112e-23
2.97433e-23
3.38636e-23
3.86296e-23
4.40989e-23
5.03251e-23
5.73529e-23
6.52119e-23
7.39086e-23
8.34173e-23
9.36703e-23
1.04547e-22
1.15865e-22
1.27369e-22
1.38728e-22
1.49535e-22
1.59309e-22
1.67509e-22
1.73557e-22
1.76863e-22
1.62596e-23
1.70026e-23
1.81394e-23
1.96862e-23
2.16706e-23
2.41299e-23
2.71102e-23
3.06655e-23
3.48566e-23
3.97493e-23
4.54123e-23
5.19135e-23
5.93157e-23
6.76706e-23
7.70109e-23
8.73413e-23
9.86279e-23
1.10786e-22
1.2367e-22
1.3706e-22
1.50652e-22
1.64054e-22
1.76787e-22
1.88286e-22
1.97922e-22
2.0502e-22
2.08895e-22
1.88384e-23
1.97139e-23
2.10543e-23
2.28794e-23
2.52229e-23
2.813e-23
3.16562e-23
3.58664e-23
4.08336e-23
4.66362e-23
5.33558e-23
6.10727e-23
6.98603e-23
7.97781e-23
9.08622e-23
1.03115e-22
1.16493e-22
1.30891e-22
1.46133e-22
1.61955e-22
1.77996e-22
1.93795e-22
2.08784e-22
2.22306e-22
2.33623e-22
2.41951e-22
2.46493e-22
2.18298e-23
2.28608e-23
2.44402e-23
2.65922e-23
2.93576e-23
3.2791e-23
3.69592e-23
4.19401e-23
4.78206e-23
5.46943e-23
6.2658e-23
7.18062e-23
8.22246e-23
9.39816e-23
1.07117e-22
1.21631e-22
1.37466e-22
1.54496e-22
1.72507e-22
1.91184e-22
2.10099e-22
2.28706e-22
2.46342e-22
2.62232e-22
2.75518e-22
2.85285e-22
2.90608e-22
2.53022e-23
2.65156e-23
2.83754e-23
3.09112e-23
3.41723e-23
3.82242e-23
4.3147e-23
4.9034e-23
5.59888e-23
6.41228e-23
7.35502e-23
8.43823e-23
9.67192e-23
1.10639e-22
1.26188e-22
1.43359e-22
1.62082e-22
1.82202e-22
2.03463e-22
2.25489e-22
2.47774e-22
2.69674e-22
2.9041e-22
3.09075e-22
3.24667e-22
3.36119e-22
3.42355e-22
2.93354e-23
3.07628e-23
3.29517e-23
3.59379e-23
3.97809e-23
4.45592e-23
5.03688e-23
5.73209e-23
6.55387e-23
7.51545e-23
8.63031e-23
9.91153e-23
1.13708e-22
1.30171e-22
1.48554e-22
1.68847e-22
1.90961e-22
2.14709e-22
2.39784e-22
2.65738e-22
2.91975e-22
3.17734e-22
3.42101e-22
3.64017e-22
3.82308e-22
3.95733e-22
4.03039e-22
3.40228e-23
3.57011e-23
3.82759e-23
4.17907e-23
4.63167e-23
5.1948e-23
5.87991e-23
6.70024e-23
7.67045e-23
8.80617e-23
1.01233e-22
1.16373e-22
1.33616e-22
1.53067e-22
1.7478e-22
1.98739e-22
2.24834e-22
2.52839e-22
2.82387e-22
3.12949e-22
3.43817e-22
3.74099e-22
4.0272e-22
4.28442e-22
4.49893e-22
4.65627e-22
4.74184e-22
3.94733e-23
4.14458e-23
4.44733e-23
4.86081e-23
5.39355e-23
6.0568e-23
6.8642e-23
7.83147e-23
8.97602e-23
1.03163e-22
1.18711e-22
1.36585e-22
1.56942e-22
1.79902e-22
2.05525e-22
2.33787e-22
2.64553e-22
2.97553e-22
3.32347e-22
3.68309e-22
4.04605e-22
4.40185e-22
4.7379e-22
5.03968e-22
5.2912e-22
5.47556e-22
5.57577e-22
4.58145e-23
4.81318e-23
5.16899e-23
5.65519e-23
6.28195e-23
7.06268e-23
8.0136e-23
9.15338e-23
1.05026e-22
1.20831e-22
1.3917e-22
1.60254e-22
1.84267e-22
2.11346e-22
2.41559e-22
2.7487e-22
3.11118e-22
3.49974e-22
3.90919e-22
4.33211e-22
4.75867e-22
5.17654e-22
5.57094e-22
5.9249e-22
6.21973e-22
6.43572e-22
6.55307e-22
5.31951e-23
5.59166e-23
6.00967e-23
6.58112e-23
7.31815e-23
8.23669e-23
9.35601e-23
1.06982e-22
1.22877e-22
1.41502e-22
1.63117e-22
1.87969e-22
2.16273e-22
2.48187e-22
2.83784e-22
3.23019e-22
3.65694e-22
4.11418e-22
4.59573e-22
5.09283e-22
5.59391e-22
6.08447e-22
6.5472e-22
6.96225e-22
7.30778e-22
7.56077e-22
7.69818e-22
6.1789e-23
6.49841e-23
6.98934e-23
7.66073e-23
8.52703e-23
9.6072e-23
1.09241e-22
1.25038e-22
1.43752e-22
1.65686e-22
1.91145e-22
2.20419e-22
2.53758e-22
2.91343e-22
3.33257e-22
3.79439e-22
4.2965e-22
4.83424e-22
5.40029e-22
5.9843e-22
6.57266e-22
7.14836e-22
7.6911e-22
8.17766e-22
8.58251e-22
8.87883e-22
9.03968e-22
7.17997e-23
7.55496e-23
8.13132e-23
8.91984e-23
9.93771e-23
1.12074e-22
1.27559e-22
1.46142e-22
1.68163e-22
1.93978e-22
2.23947e-22
2.58408e-22
2.97653e-22
3.4189e-22
3.91211e-22
4.45539e-22
5.04584e-22
5.67792e-22
6.34298e-22
7.02881e-22
7.7194e-22
8.39478e-22
9.03119e-22
9.60145e-22
1.00758e-21
1.04227e-21
1.0611e-21
8.34645e-23
8.78644e-23
9.4629e-23
1.03887e-22
1.15842e-22
1.3076e-22
1.48961e-22
1.70811e-22
1.96709e-22
2.27077e-22
2.62335e-22
3.02879e-22
3.49049e-22
4.01087e-22
4.59091e-22
5.22967e-22
5.92366e-22
6.6663e-22
7.44735e-22
8.25243e-22
9.06274e-22
9.85484e-22
1.06009e-21
1.12691e-21
1.18247e-21
1.2231e-21
1.24514e-21
9.70611e-23
1.02222e-22
1.1016e-22
1.21026e-22
1.35062e-22
1.52584e-22
1.73968e-22
1.99647e-22
2.30092e-22
2.65798e-22
3.07257e-22
3.54934e-22
4.09223e-22
4.70404e-22
5.38588e-22
6.13654e-22
6.95185e-22
7.82401e-22
8.74092e-22
9.68568e-22
1.06362e-21
1.15649e-21
1.24393e-21
1.32222e-21
1.38729e-21
1.43485e-21
1.46065e-21
1.12914e-22
1.18967e-22
1.28278e-22
1.41027e-22
1.57503e-22
1.78075e-22
2.03191e-22
2.33358e-22
2.69132e-22
3.11094e-22
3.59823e-22
4.15861e-22
4.79667e-22
5.51565e-22
6.31677e-22
7.19855e-22
8.156e-22
9.17988e-22
1.02559e-21
1.13642e-21
1.24788e-21
1.35676e-21
1.45922e-21
1.55093e-21
1.62712e-21
1.68281e-21
1.713e-21
1.31403e-22
1.385e-22
1.49419e-22
1.64375e-22
1.83707e-22
2.07854e-22
2.37341e-22
2.72768e-22
3.14788e-22
3.64083e-22
4.21331e-22
4.87167e-22
5.62127e-22
6.46583e-22
7.40672e-22
8.44211e-22
9.56607e-22
1.07676e-21
1.203e-21
1.33298e-21
1.46366e-21
1.59126e-21
1.7113e-21
1.81871e-21
1.90792e-21
1.97311e-21
2.00844e-21
1.5297e-22
1.61289e-22
1.74092e-22
1.91633e-22
2.14311e-22
2.42644e-22
2.77254e-22
3.18843e-22
3.68181e-22
4.26067e-22
4.93299e-22
5.70617e-22
6.58644e-22
7.57814e-22
8.68277e-22
9.8981e-22
1.12171e-21
1.26268e-21
1.41073e-21
1.56314e-21
1.7163e-21
1.86581e-21
2.00644e-21
2.13222e-21
2.23666e-21
2.31296e-21
2.3543e-21
1.78134e-22
1.87885e-22
2.02893e-22
2.2346e-22
2.50056e-22
2.83294e-22
3.23903e-22
3.72711e-22
4.30622e-22
4.98575e-22
5.77503e-22
6.68272e-22
7.71609e-22
8.88013e-22
1.01766e-21
1.16026e-21
1.315e-21
1.48033e-21
1.65394e-21
1.83259e-21
2.01208e-21
2.18724e-21
2.35194e-21
2.49922e-21
2.62149e-21
2.71078e-21
2.75917e-21
2.075e-22
2.18927e-22
2.36517e-22
2.60627e-22
2.91813e-22
3.30793e-22
3.78428e-22
4.35692e-22
5.03645e-22
5.8339e-22
6.76018e-22
7.82544e-22
9.03813e-22
1.04041e-21
1.19251e-21
1.3598e-21
1.54128e-21
1.73514e-21
1.93865e-21
2.14802e-21
2.35833e-21
2.56351e-21
2.75638e-21
2.92882e-21
3.07194e-21
3.17643e-21
3.23305e-21
2.41777e-22
2.55166e-22
2.75778e-22
3.04036e-22
3.40595e-22
3.863e-22
4.42163e-22
5.0933e-22
5.89044e-22
6.82599e-22
7.91275e-22
9.16254e-22
1.05853e-21
1.21876e-21
1.39717e-21
1.59336e-21
1.80614e-21
2.03341e-21
2.27193e-21
2.51726e-21
2.76363e-21
3.00393e-21
3.22978e-21
3.43164e-21
3.59915e-21
3.72144e-21
3.78767e-21
2.81792e-22
2.97476e-22
3.21627e-22
3.54741e-22
3.97589e-22
4.51169e-22
5.16667e-22
5.95429e-22
6.88917e-22
7.98645e-22
9.26112e-22
1.0727e-21
1.23957e-21
1.42749e-21
1.6367e-21
1.86672e-21
2.11616e-21
2.38252e-21
2.66202e-21
2.94944e-21
3.23801e-21
3.51941e-21
3.78383e-21
4.02013e-21
4.21617e-21
4.35926e-21
4.43676e-21
3.28512e-22
3.46883e-22
3.75175e-22
4.13973e-22
4.64185e-22
5.26982e-22
6.03761e-22
6.96101e-22
8.05715e-22
9.34381e-22
1.08385e-21
1.25575e-21
1.45141e-21
1.67174e-21
1.91701e-21
2.18664e-21
2.47899e-21
2.79112e-21
3.11858e-21
3.45525e-21
3.79321e-21
4.1227e-21
4.43225e-21
4.70883e-21
4.93825e-21
5.10568e-21
5.19634e-21
3.83068e-22
4.04583e-22
4.37722e-22
4.83173e-22
5.42004e-22
6.15592e-22
7.05576e-22
8.13812e-22
9.42307e-22
1.09315e-21
1.26838e-21
1.4699e-21
1.69928e-21
1.95756e-21
2.24504e-21
2.56104e-21
2.90362e-21
3.26931e-21
3.6529e-21
4.0472e-21
4.44294e-21
4.82871e-21
5.19106e-21
5.51476e-21
5.78323e-21
5.97913e-21
6.08519e-21
4.46781e-22
4.71977e-22
5.10788e-22
5.64025e-22
6.32945e-22
7.19163e-22
8.24606e-22
9.51449e-22
1.10205e-21
1.27884e-21
1.48424e-21
1.72045e-21
1.98929e-21
2.29199e-21
2.62889e-21
2.99916e-21
3.40052e-21
3.8289e-21
4.27818e-21
4.73993e-21
5.20328e-21
5.65488e-21
6.079e-21
6.45783e-21
6.77197e-21
7.00116e-21
7.12524e-21
5.21198e-22
5.50699e-22
5.96148e-22
6.58498e-22
7.39225e-22
8.40226e-22
9.63763e-22
1.11239e-21
1.28886e-21
1.49604e-21
1.73674e-21
2.01355e-21
2.3286e-21
2.6833e-21
3.07803e-21
3.51183e-21
3.98198e-21
4.48372e-21
5.00986e-21
5.55053e-21
6.09299e-21
6.62161e-21
7.11799e-21
7.5613e-21
7.92886e-21
8.19701e-21
8.34215e-21
6.08124e-22
6.42665e-22
6.95881e-22
7.68894e-22
8.63438e-22
9.81741e-22
1.12645e-21
1.30057e-21
1.50733e-21
1.75008e-21
2.03211e-21
2.35644e-21
2.72556e-21
3.14112e-21
3.60354e-21
4.11168e-21
4.66235e-21
5.24994e-21
5.86601e-21
6.49901e-21
7.13402e-21
7.75275e-21
8.33367e-21
8.8524e-21
9.28246e-21
9.59615e-21
9.76594e-21
7.09672e-22
7.50108e-22
8.12413e-22
8.97904e-22
1.00862e-21
1.14717e-21
1.31666e-21
1.52062e-21
1.76282e-21
2.0472e-21
2.37759e-21
2.75755e-21
3.18996e-21
3.67674e-21
4.21839e-21
4.81352e-21
5.45841e-21
6.14644e-21
6.86775e-21
7.60878e-21
8.35207e-21
9.07621e-21
9.75601e-21
1.0363e-20
1.08661e-20
1.12331e-20
1.14317e-20
8.28312e-22
8.75645e-22
9.48584e-22
1.04868e-21
1.17831e-21
1.34055e-21
1.53905e-21
1.77792e-21
2.06161e-21
2.3947e-21
2.7817e-21
3.22675e-21
3.73323e-21
4.30337e-21
4.93772e-21
5.63466e-21
6.38979e-21
7.19536e-21
8.03979e-21
8.90721e-21
9.77717e-21
1.06246e-20
1.14201e-20
1.21303e-20
1.27189e-20
1.31482e-20
1.33805e-20
9.66929e-22
1.02233e-21
1.10771e-21
1.22489e-21
1.37666e-21
1.56663e-21
1.79906e-21
2.07879e-21
2.41102e-21
2.80113e-21
3.25438e-21
3.7756e-21
4.36876e-21
5.03644e-21
5.77928e-21
6.59534e-21
7.47945e-21
8.42254e-21
9.41102e-21
1.04263e-20
1.14444e-20
1.24361e-20
1.33669e-20
1.41978e-20
1.48864e-20
1.53885e-20
1.56603e-20
1.1289e-21
1.19374e-21
1.29368e-21
1.43084e-21
1.60852e-21
1.83092e-21
2.10307e-21
2.43061e-21
2.81965e-21
3.27646e-21
3.80724e-21
4.4176e-21
5.11219e-21
5.894e-21
6.76377e-21
7.71921e-21
8.75424e-21
9.85822e-21
1.10152e-20
1.22035e-20
1.3395e-20
1.45554e-20
1.56444e-20
1.66164e-20
1.7422e-20
1.80094e-20
1.83272e-20
1.31817e-21
1.39406e-21
1.51102e-21
1.67157e-21
1.87955e-21
2.13991e-21
2.45852e-21
2.84201e-21
3.29751e-21
3.83239e-21
4.45387e-21
5.16854e-21
5.98181e-21
6.89717e-21
7.91546e-21
9.03397e-21
1.02456e-20
1.15378e-20
1.28919e-20
1.42825e-20
1.56768e-20
1.70346e-20
1.83087e-20
1.94458e-20
2.03882e-20
2.10752e-20
2.14469e-20
1.53935e-21
1.62816e-21
1.76505e-21
1.95295e-21
2.19638e-21
2.50115e-21
2.87413e-21
3.32307e-21
3.85634e-21
4.48256e-21
5.21017e-21
6.04689e-21
6.99902e-21
8.07063e-21
9.26268e-21
1.0572e-20
1.19902e-20
1.35026e-20
1.50873e-20
1.67146e-20
1.83461e-20
1.99347e-20
2.14253e-20
2.27556e-20
2.38578e-20
2.46615e-20
2.50962e-20
1.79784e-21
1.90177e-21
2.06196e-21
2.28186e-21
2.56677e-21
2.92349e-21
3.36007e-21
3.8856e-21
4.50986e-21
5.24294e-21
6.09473e-21
7.07424e-21
8.18883e-21
9.44326e-21
1.08386e-20
1.23711e-20
1.4031e-20
1.58009e-20
1.76555e-20
1.95597e-20
2.14685e-20
2.33271e-20
2.5071e-20
2.66271e-20
2.79164e-20
2.88564e-20
2.93649e-20
2.09995e-21
2.22155e-21
2.409e-21
2.66634e-21
2.99978e-21
3.41727e-21
3.92826e-21
4.54338e-21
5.2741e-21
6.13221e-21
7.12929e-21
8.27586e-21
9.58052e-21
1.10488e-20
1.2682e-20
1.44756e-20
1.64182e-20
1.84895e-20
2.06596e-20
2.28876e-20
2.5121e-20
2.72954e-20
2.93354e-20
3.11557e-20
3.26638e-20
3.37631e-20
3.43578e-20
2.45304e-21
2.59533e-21
2.81467e-21
3.1158e-21
3.50599e-21
3.99458e-21
4.59263e-21
5.31257e-21
6.16782e-21
7.17221e-21
8.33925e-21
9.68127e-21
1.12083e-20
1.29268e-20
1.48382e-20
1.69373e-20
1.92105e-20
2.16343e-20
2.41736e-20
2.67804e-20
2.93933e-20
3.19371e-20
3.43234e-20
3.64526e-20
3.82165e-20
3.95023e-20
4.01979e-20
2.86574e-21
3.03222e-21
3.28886e-21
3.64122e-21
4.09781e-21
4.66957e-21
5.36945e-21
6.21201e-21
7.21296e-21
8.38846e-21
9.75435e-21
1.1325e-20
1.31122e-20
1.51234e-20
1.73603e-20
1.98167e-20
2.24767e-20
2.53128e-20
2.82839e-20
3.13337e-20
3.43905e-20
3.73662e-20
4.01576e-20
4.26482e-20
4.47113e-20
4.62151e-20
4.70285e-20
3.34813e-21
3.54291e-21
3.84318e-21
4.25545e-21
4.78972e-21
5.45877e-21
6.27777e-21
7.26377e-21
8.43515e-21
9.81084e-21
1.14093e-20
1.32475e-20
1.53389e-20
1.76925e-20
2.03102e-20
2.31846e-20
2.62971e-20
2.96154e-20
3.30915e-20
3.66596e-20
4.02355e-20
4.37164e-20
4.69815e-20
4.98946e-20
5.23075e-20
5.40663e-20
5.50176e-20
3.912e-21
4.13987e-21
4.49117e-21
4.97354e-21
5.59866e-21
6.38151e-21
7.33985e-21
8.49365e-21
9.86441e-21
1.14743e-20
1.33449e-20
1.54959e-20
1.79433e-20
2.06975e-20
2.37604e-20
2.71237e-20
3.07655e-20
3.46479e-20
3.87146e-20
4.28888e-20
4.70719e-20
5.11437e-20
5.49628e-20
5.83699e-20
6.1192e-20
6.32489e-20
6.43614e-20
4.57113e-21
4.8377e-21
5.2487e-21
5.81304e-21
6.54443e-21
7.4604e-21
8.58173e-21
9.93181e-21
1.15358e-20
1.34196e-20
1.56085e-20
1.81255e-20
2.09893e-20
2.42119e-20
2.77958e-20
3.1731e-20
3.59919e-20
4.0534e-20
4.52915e-20
5.01745e-20
5.50678e-20
5.98305e-20
6.42975e-20
6.82824e-20
7.1583e-20
7.39885e-20
7.52895e-20
5.34162e-21
5.65348e-21
6.13429e-21
6.79451e-21
7.6502e-21
8.72187e-21
1.00339e-20
1.16135e-20
1.34903e-20
1.56945e-20
1.82557e-20
2.12008e-20
2.45517e-20
2.83223e-20
3.25156e-20
3.71196e-20
4.21045e-20
4.74183e-20
5.29838e-20
5.86958e-20
6.44195e-20
6.99903e-20
7.52149e-20
7.98755e-20
8.37356e-20
8.65487e-20
8.80701e-20
6.24233e-21
6.60714e-21
7.1696e-21
7.94198e-21
8.94305e-21
1.01968e-20
1.17318e-20
1.358e-20
1.57759e-20
1.83549e-20
2.13516e-20
2.47974e-20
2.8718e-20
3.31296e-20
3.80355e-20
4.34219e-20
4.92537e-20
5.54699e-20
6.19803e-20
6.86618e-20
7.53568e-20
8.18726e-20
8.79832e-20
9.34339e-20
9.79482e-20
1.01238e-19
1.03017e-19
7.29528e-21
7.72202e-21
8.37998e-21
9.28353e-21
1.04546e-20
1.19214e-20
1.37173e-20
1.58796e-20
1.84486e-20
2.1466e-20
2.49721e-20
2.90037e-20
3.35906e-20
3.87519e-20
4.44914e-20
5.07928e-20
5.76149e-20
6.48866e-20
7.25021e-20
8.03175e-20
8.81482e-20
9.57691e-20
1.02916e-19
1.0929e-19
1.1457e-19
1.18417e-19
1.20497e-19
8.52622e-21
9.02539e-21
9.79506e-21
1.0852e-20
1.2222e-20
1.39379e-20
1.60388e-20
1.85685e-20
2.15741e-20
2.51042e-20
2.92061e-20
3.39227e-20
3.9289e-20
4.53272e-20
5.20416e-20
5.94131e-20
6.73936e-20
7.58997e-20
8.48076e-20
9.39489e-20
1.03108e-19
1.12021e-19
1.20379e-19
1.27834e-19
1.34008e-19
1.38507e-19
1.4094e-19
9.96528e-21
1.05492e-20
1.14495e-20
1.26858e-20
1.42884e-20
1.62958e-20
1.87535e-20
2.17128e-20
2.5229e-20
2.93588e-20
3.41575e-20
3.96754e-20
4.59533e-20
5.30169e-20
6.08715e-20
6.94947e-20
7.88299e-20
8.87795e-20
9.91988e-20
1.09891e-19
1.20603e-19
1.31027e-19
1.40802e-19
1.4952e-19
1.5674e-19
1.62001e-19
1.64846e-19
1.16477e-20
1.23306e-20
1.33837e-20
1.48299e-20
1.67046e-20
1.90527e-20
2.19277e-20
2.53896e-20
2.9503e-20
3.43342e-20
3.99479e-20
4.64029e-20
5.37468e-20
6.20099e-20
7.1198e-20
8.12849e-20
9.22044e-20
1.03842e-19
1.16029e-19
1.28534e-19
1.41063e-19
1.53254e-19
1.64686e-19
1.74881e-19
1.83324e-19
1.89476e-19
1.92802e-19
1.36145e-20
1.44134e-20
1.56451e-20
1.73368e-20
1.95296e-20
2.22763e-20
2.56394e-20
2.9689e-20
3.45008e-20
4.01523e-20
4.67192e-20
5.42703e-20
6.28611e-20
7.25269e-20
8.32745e-20
9.50733e-20
1.07846e-19
1.21458e-19
1.35711e-19
1.50337e-19
1.64989e-19
1.79247e-19
1.92615e-19
2.04538e-19
2.14411e-19
2.21605e-19
2.25494e-19
1.59141e-20
1.68484e-20
1.82891e-20
2.02678e-20
2.28327e-20
2.60455e-20
2.99794e-20
3.47165e-20
4.03451e-20
4.6956e-20
5.46377e-20
6.34706e-20
7.35196e-20
8.48259e-20
9.73974e-20
1.11198e-19
1.26137e-19
1.42058e-19
1.58729e-19
1.75834e-19
1.9297e-19
2.09643e-19
2.25277e-19
2.39219e-19
2.50764e-19
2.59176e-19
2.63724e-19
1.86025e-20
1.96953e-20
2.13804e-20
2.36947e-20
2.66948e-20
3.04528e-20
3.50543e-20
4.05953e-20
4.71792e-20
5.49122e-20
6.38977e-20
7.42296e-20
8.59839e-20
9.92088e-20
1.13913e-19
1.30055e-19
1.47528e-19
1.66148e-19
1.85646e-19
2.0565e-19
2.2569e-19
2.45189e-19
2.63471e-19
2.79774e-19
2.93274e-19
3.0311e-19
3.08428e-19
2.17457e-20
2.30238e-20
2.49947e-20
2.77016e-20
3.12106e-20
3.56061e-20
4.09884e-20
4.74696e-20
5.51708e-20
6.42159e-20
7.47261e-20
8.68112e-20
1.0056e-19
1.16028e-19
1.33227e-19
1.52107e-19
1.72542e-19
1.9432e-19
2.17122e-19
2.40517e-19
2.63953e-19
2.86755e-19
3.08133e-19
3.27198e-19
3.42983e-19
3.54484e-19
3.60702e-19
2.54206e-20
2.69154e-20
2.92206e-20
3.23865e-20
3.64907e-20
4.16318e-20
4.79271e-20
5.55079e-20
6.45156e-20
7.50954e-20
8.73888e-20
1.01524e-19
1.17605e-19
1.35697e-19
1.55813e-19
1.77894e-19
2.01795e-19
2.27264e-19
2.53931e-19
2.8129e-19
3.08696e-19
3.3536e-19
3.60359e-19
3.82651e-19
4.01109e-19
4.14557e-19
4.21828e-19
2.97172e-20
3.14655e-20
3.41614e-20
3.78643e-20
4.26644e-20
4.86776e-20
5.60406e-20
6.49073e-20
7.5443e-20
8.78175e-20
1.02196e-19
1.18729e-19
1.37538e-19
1.58698e-19
1.82225e-19
2.0805e-19
2.36002e-19
2.65788e-19
2.96974e-19
3.28968e-19
3.61017e-19
3.92197e-19
4.21428e-19
4.47495e-19
4.69077e-19
4.848e-19
4.93301e-19
3.47406e-20
3.67853e-20
3.99384e-20
4.4269e-20
4.98831e-20
5.6916e-20
6.55277e-20
7.58982e-20
8.82208e-20
1.02694e-19
1.19511e-19
1.38848e-19
1.60846e-19
1.85595e-19
2.1311e-19
2.43313e-19
2.76002e-19
3.10836e-19
3.47306e-19
3.8472e-19
4.22197e-19
4.58656e-19
4.92837e-19
5.23316e-19
5.4855e-19
5.66935e-19
5.76874e-19
4.0614e-20
4.30052e-20
4.66928e-20
5.17577e-20
5.83236e-20
6.6549e-20
7.6621e-20
8.87501e-20
1.03162e-19
1.2009e-19
1.39759e-19
1.62374e-19
1.88102e-19
2.17047e-19
2.49226e-19
2.84548e-19
3.22777e-19
3.63513e-19
4.0616e-19
4.49912e-19
4.93735e-19
5.36368e-19
5.76334e-19
6.11972e-19
6.41477e-19
6.62971e-19
6.74593e-19
4.7481e-20
5.02776e-20
5.45902e-20
6.05137e-20
6.81927e-20
7.78126e-20
8.95923e-20
1.03778e-19
1.20634e-19
1.40431e-19
1.63435e-19
1.89885e-19
2.19974e-19
2.53825e-19
2.91459e-19
3.32766e-19
3.77473e-19
4.25109e-19
4.7498e-19
5.26141e-19
5.77384e-19
6.27234e-19
6.73965e-19
7.15634e-19
7.5013e-19
7.75262e-19
7.88848e-19
5.551e-20
5.87805e-20
6.38241e-20
7.07515e-20
7.97323e-20
9.09828e-20
1.04759e-19
1.2135e-19
1.41063e-19
1.64217e-19
1.91121e-19
2.22054e-19
2.57243e-19
2.96831e-19
3.40842e-19
3.89148e-19
4.41429e-19
4.97134e-19
5.55451e-19
6.15275e-19
6.75193e-19
7.3348e-19
7.8812e-19
8.36839e-19
8.77171e-19
9.06554e-19
9.22438e-19
6.48974e-20
6.87221e-20
7.46205e-20
8.2722e-20
9.32249e-20
1.06382e-19
1.22494e-19
1.41897e-19
1.64952e-19
1.9203e-19
2.23494e-19
2.5967e-19
3.00823e-19
3.47119e-19
3.98587e-19
4.55077e-19
5.16213e-19
5.81353e-19
6.49544e-19
7.19496e-19
7.89555e-19
8.57707e-19
9.21593e-19
9.78553e-19
1.02571e-18
1.06006e-18
1.07863e-18
7.58731e-20
8.0346e-20
8.72439e-20
9.67184e-20
1.09001e-19
1.24389e-19
1.43231e-19
1.65922e-19
1.92885e-19
2.24553e-19
2.61348e-19
3.03655e-19
3.51781e-19
4.05921e-19
4.66108e-19
5.32166e-19
6.03657e-19
6.79826e-19
7.59563e-19
8.41356e-19
9.23272e-19
1.00296e-18
1.07765e-18
1.14425e-18
1.19938e-18
1.23954e-18
1.26125e-18
8.8706e-20
9.39368e-20
1.02003e-19
1.13083e-19
1.27448e-19
1.45443e-19
1.67478e-19
1.94015e-19
2.25547e-19
2.62581e-19
3.05612e-19
3.55087e-19
4.11367e-19
4.74678e-19
5.4506e-19
6.22306e-19
7.05901e-19
7.94967e-19
8.88201e-19
9.83837e-19
1.07962e-18
1.17278e-18
1.26011e-18
1.33797e-18
1.40242e-18
1.44937e-18
1.47475e-18
1.0371e-19
1.09827e-19
1.19261e-19
1.32218e-19
1.49016e-19
1.7006e-19
1.9583e-19
2.26863e-19
2.63737e-19
3.07047e-19
3.57368e-19
4.15225e-19
4.81039e-19
5.55074e-19
6.37375e-19
7.27702e-19
8.25451e-19
9.29594e-19
1.03861e-18
1.15043e-18
1.26241e-18
1.37133e-18
1.47343e-18
1.56446e-18
1.63981e-18
1.69469e-18
1.72436e-18
1.21253e-19
1.28407e-19
1.39438e-19
1.54591e-19
1.74235e-19
1.98844e-19
2.2898e-19
2.65271e-19
3.08393e-19
3.59039e-19
4.17886e-19
4.85543e-19
5.62504e-19
6.49077e-19
7.45316e-19
8.50935e-19
9.65231e-19
1.087e-18
1.21446e-18
1.3452e-18
1.47613e-18
1.60347e-18
1.72284e-18
1.82925e-18
1.91734e-18
1.9815e-18
2.01618e-18
1.41765e-19
1.5013e-19
1.6303e-19
1.80749e-19
2.03721e-19
2.325e-19
2.67741e-19
3.1018e-19
3.60607e-19
4.19833e-19
4.88646e-19
5.67763e-19
6.57758e-19
7.58991e-19
8.71523e-19
9.95022e-19
1.12866e-18
1.27104e-18
1.42007e-18
1.57292e-18
1.72599e-18
1.87487e-18
2.01442e-18
2.13882e-18
2.24179e-18
2.3168e-18
2.35734e-18
1.65747e-19
1.75528e-19
1.90614e-19
2.11335e-19
2.38198e-19
2.71852e-19
3.13062e-19
3.6269e-19
4.21658e-19
4.90915e-19
5.71384e-19
6.63898e-19
7.69132e-19
8.87504e-19
1.01909e-18
1.16349e-18
1.31975e-18
1.48621e-18
1.66045e-18
1.83916e-18
2.01811e-18
2.19217e-18
2.3553e-18
2.50073e-18
2.6211e-18
2.70878e-18
2.75617e-18
1.93786e-19
2.05225e-19
2.22865e-19
2.47096e-19
2.78509e-19
3.17863e-19
3.66053e-19
4.24086e-19
4.93042e-19
5.74028e-19
6.68123e-19
7.76303e-19
8.99353e-19
1.03776e-18
1.19162e-18
1.36046e-18
1.54316e-18
1.73778e-18
1.94149e-18
2.15042e-18
2.35963e-18
2.56311e-18
2.75381e-18
2.92381e-18
3.06452e-18
3.16701e-18
3.22241e-18
2.2657e-19
2.39945e-19
2.60574e-19
2.88908e-19
3.25641e-19
3.7166e-19
4.28012e-19
4.95873e-19
5.76505e-19
6.71205e-19
7.81232e-19
9.07727e-19
1.05161e-18
1.21345e-18
1.39334e-18
1.59075e-18
1.80435e-18
2.0319e-18
2.27006e-18
2.51431e-18
2.75889e-18
2.99676e-18
3.21968e-18
3.4184e-18
3.58288e-18
3.70268e-18
3.76743e-18
2.649e-19
2.80541e-19
3.04662e-19
3.37794e-19
3.80748e-19
4.3456e-19
5.00455e-19
5.79807e-19
6.74092e-19
7.84826e-19
9.1348e-19
1.06139e-18
1.22962e-18
1.41885e-18
1.62918e-18
1.85999e-18
2.10972e-18
2.37575e-18
2.65418e-18
2.93973e-18
3.22564e-18
3.5037e-18
3.76429e-18
3.99657e-18
4.18883e-18
4.32885e-18
4.40454e-18
3.09714e-19
3.28004e-19
3.5621e-19
3.94952e-19
4.4518e-19
5.08103e-19
5.85155e-19
6.77943e-19
7.88191e-19
9.17671e-19
1.0681e-18
1.24105e-18
1.43775e-18
1.659e-18
1.90491e-18
2.17476e-18