/*--------------------------------*- C++ -*----------------------------------*\
| =========                 |                                                 |
| \\      /  F ield         | OpenFOAM: The Open Source CFD Toolbox           |
|  \\    /   O peration     | Version:  2212                                  |
|   \\  /    A nd           | Website:  www.openfoam.com                      |
|    \\/     M anipulation  |                                                 |
\*---------------------------------------------------------------------------*/
FoamFile
{
    version     2.0;
    format      ascii;
    arch        "LSB;label=32;scalar=64";
    class       volScalarField;
    location    "9.0545968";
    object      H_0;
}
// * * * * * * * * * * * * * * * * * * * * * * * * * * * * * * * * * * * * * //

dimensions      [0 0 0 0 0 0 0];

internalField   nonuniform List<scalar> 
33600
(
2.13147e-32
2.19344e-32
2.28703e-32
2.41203e-32
2.5687e-32
2.75762e-32
2.9796e-32
3.23562e-32
3.5268e-32
3.85434e-32
4.21946e-32
4.62333e-32
5.06701e-32
5.55141e-32
6.07712e-32
6.64441e-32
7.25301e-32
7.90208e-32
8.58998e-32
9.31411e-32
1.00707e-31
1.08544e-31
1.16575e-31
1.24673e-31
1.3258e-31
1.39718e-31
1.44655e-31
6.87857e-32
7.07921e-32
7.38227e-32
7.78701e-32
8.29436e-32
8.90617e-32
9.6251e-32
1.04544e-31
1.13977e-31
1.2459e-31
1.36422e-31
1.49512e-31
1.63896e-31
1.79604e-31
1.96655e-31
2.1506e-31
2.34811e-31
2.55881e-31
2.78219e-31
3.01741e-31
3.26326e-31
3.5181e-31
3.7797e-31
4.04519e-31
4.30942e-31
4.56294e-31
4.76586e-31
1.26559e-31
1.30273e-31
1.35883e-31
1.43375e-31
1.52767e-31
1.64094e-31
1.77407e-31
1.92766e-31
2.10242e-31
2.29909e-31
2.51842e-31
2.76116e-31
3.02802e-31
3.31956e-31
3.63624e-31
3.97831e-31
4.34575e-31
4.73825e-31
5.15513e-31
5.59531e-31
6.05727e-31
6.53911e-31
7.03815e-31
7.55053e-31
8.06594e-31
8.55881e-31
8.93428e-31
1.9594e-31
2.01739e-31
2.10496e-31
2.22193e-31
2.36859e-31
2.5455e-31
2.75347e-31
2.9935e-31
3.2667e-31
3.5743e-31
3.91753e-31
4.29764e-31
4.7158e-31
5.17308e-31
5.67034e-31
6.20823e-31
6.78708e-31
7.40693e-31
8.06741e-31
8.76788e-31
9.50723e-31
1.02838e-30
1.10942e-30
1.19302e-30
1.27684e-30
1.35494e-30
1.41093e-30
2.7837e-31
2.86694e-31
2.99266e-31
3.1606e-31
3.3712e-31
3.62532e-31
3.92417e-31
4.26925e-31
4.66226e-31
5.10503e-31
5.5995e-31
6.14763e-31
6.75135e-31
7.41247e-31
8.13266e-31
8.91338e-31
9.75588e-31
1.06611e-30
1.16298e-30
1.26623e-30
1.37582e-30
1.49153e-30
1.61263e-30
1.73723e-30
1.86044e-30
1.97137e-30
2.04663e-30
3.75458e-31
3.86824e-31
4.0399e-31
4.26924e-31
4.55693e-31
4.90421e-31
5.31285e-31
5.78501e-31
6.32316e-31
6.93003e-31
7.60854e-31
8.36169e-31
9.19254e-31
1.01042e-30
1.10996e-30
1.21817e-30
1.33533e-30
1.46171e-30
1.59754e-30
1.74298e-30
1.89796e-30
2.06198e-30
2.23342e-30
2.40838e-30
2.57821e-30
2.72615e-30
2.82216e-30
4.89018e-31
5.04028e-31
5.26699e-31
5.56997e-31
5.95018e-31
6.4094e-31
6.95015e-31
7.57547e-31
8.28895e-31
9.09452e-31
9.9965e-31
1.09994e-30
1.21081e-30
1.33274e-30
1.46626e-30
1.61186e-30
1.77007e-30
1.9414e-30
2.12625e-30
2.32484e-30
2.53692e-30
2.76125e-30
2.99461e-30
3.2301e-30
3.4543e-30
3.64408e-30
3.76305e-30
6.21114e-31
6.40473e-31
6.69716e-31
7.08811e-31
7.57897e-31
8.17227e-31
8.87151e-31
9.681e-31
1.06058e-30
1.16515e-30
1.28245e-30
1.41314e-30
1.55796e-30
1.71767e-30
1.89306e-30
2.08498e-30
2.29425e-30
2.52163e-30
2.7677e-30
3.03259e-30
3.31552e-30
3.61398e-30
3.92232e-30
4.22968e-30
4.51706e-30
4.75456e-30
4.89951e-30
7.74115e-31
7.98645e-31
8.35709e-31
8.85284e-31
9.4757e-31
1.02292e-30
1.11182e-30
1.21487e-30
1.33278e-30
1.46635e-30
1.61647e-30
1.78413e-30
1.97038e-30
2.17638e-30
2.40332e-30
2.65242e-30
2.92489e-30
3.22176e-30
3.54366e-30
3.8904e-30
4.26023e-30
4.64871e-30
5.04689e-30
5.43904e-30
5.79984e-30
6.0922e-30
6.26698e-30
9.50749e-31
9.81415e-31
1.02777e-30
1.0898e-30
1.1678e-30
1.26226e-30
1.37384e-30
1.50338e-30
1.65185e-30
1.82038e-30
2.01022e-30
2.22276e-30
2.45952e-30
2.72213e-30
3.01229e-30
3.33172e-30
3.68202e-30
4.06444e-30
4.47951e-30
4.92637e-30
5.40178e-30
5.89859e-30
6.4037e-30
6.8956e-30
7.34185e-30
7.69772e-30
7.90704e-30
1.15418e-30
1.19211e-30
1.24947e-30
1.32629e-30
1.42298e-30
1.5402e-30
1.67886e-30
1.84011e-30
2.02528e-30
2.2359e-30
2.47373e-30
2.74069e-30
3.03887e-30
3.37053e-30
3.73798e-30
4.14349e-30
4.58908e-30
5.07614e-30
5.60484e-30
6.17325e-30
6.77597e-30
7.40235e-30
8.03419e-30
8.64325e-30
9.1892e-30
9.6189e-30
9.86841e-30
1.38809e-30
1.43462e-30
1.50501e-30
1.59935e-30
1.71822e-30
1.86252e-30
2.03349e-30
2.23266e-30
2.46183e-30
2.7231e-30
3.01882e-30
3.35162e-30
3.72432e-30
4.13993e-30
4.60149e-30
5.1119e-30
5.67355e-30
6.28783e-30
6.95423e-30
7.66923e-30
8.42458e-30
9.20523e-30
9.98686e-30
1.07335e-29
1.1396e-29
1.19118e-29
1.22082e-29
1.65677e-30
1.71344e-30
1.79924e-30
1.91434e-30
2.05952e-30
2.23602e-30
2.44548e-30
2.68994e-30
2.97183e-30
3.29392e-30
3.65938e-30
4.07166e-30
4.53452e-30
5.05187e-30
5.62759e-30
6.26524e-30
6.96755e-30
7.73566e-30
8.56804e-30
9.45894e-30
1.03965e-29
1.13602e-29
1.23186e-29
1.32268e-29
1.40256e-29
1.46421e-29
1.49933e-29
1.96521e-30
2.03386e-30
2.13786e-30
2.27752e-30
2.45389e-30
2.66862e-30
2.9239e-30
3.22242e-30
3.56737e-30
3.96242e-30
4.41169e-30
4.91973e-30
5.49138e-30
6.13162e-30
6.8453e-30
7.63666e-30
8.50866e-30
9.46194e-30
1.04935e-29
1.15946e-29
1.27489e-29
1.39294e-29
1.50961e-29
1.6194e-29
1.71525e-29
1.78867e-29
1.83021e-29
2.31925e-30
2.40203e-30
2.52752e-30
2.69621e-30
2.90953e-30
3.16964e-30
3.47942e-30
3.84237e-30
4.26266e-30
4.74506e-30
5.2949e-30
5.91801e-30
6.62056e-30
7.40879e-30
8.28861e-30
9.26494e-30
1.03408e-29
1.15161e-29
1.27857e-29
1.41373e-29
1.55487e-29
1.69854e-29
1.83975e-29
1.97182e-29
2.08639e-29
2.17359e-29
2.22264e-29
2.72572e-30
2.82515e-30
2.976e-30
3.17899e-30
3.43603e-30
3.74996e-30
4.12448e-30
4.56416e-30
5.07434e-30
5.66114e-30
6.3314e-30
7.0925e-30
7.95215e-30
8.91805e-30
9.99729e-30
1.11955e-29
1.25155e-29
1.39561e-29
1.55094e-29
1.71584e-29
1.88744e-29
2.06136e-29
2.23144e-29
2.38968e-29
2.52618e-29
2.62953e-29
2.68738e-29
3.19256e-30
3.31161e-30
3.49236e-30
3.73587e-30
4.04463e-30
4.42231e-30
4.8737e-30
5.40461e-30
6.02189e-30
6.73331e-30
7.54748e-30
8.47364e-30
9.52137e-30
1.07e-29
1.20179e-29
1.34814e-29
1.5093e-29
1.68497e-29
1.87402e-29
2.07419e-29
2.2818e-29
2.49136e-29
2.69542e-29
2.88437e-29
3.0466e-29
3.16887e-29
3.23702e-29
3.72909e-30
3.87123e-30
4.08724e-30
4.37857e-30
4.74845e-30
5.20162e-30
5.74415e-30
6.38345e-30
7.12815e-30
7.98804e-30
8.97387e-30
1.00971e-29
1.13695e-29
1.28022e-29
1.4405e-29
1.61848e-29
1.81436e-29
2.02761e-29
2.25666e-29
2.49858e-29
2.74869e-29
3.00026e-29
3.24426e-29
3.46927e-29
3.66167e-29
3.8061e-29
3.88632e-29
4.34615e-30
4.51549e-30
4.77304e-30
5.12077e-30
5.56285e-30
6.10531e-30
6.75584e-30
7.52375e-30
8.41985e-30
9.45636e-30
1.06466e-29
1.20047e-29
1.35447e-29
1.52802e-29
1.72224e-29
1.93787e-29
2.175e-29
2.43283e-29
2.70924e-29
3.00048e-29
3.30073e-29
3.60176e-29
3.8927e-29
4.16003e-29
4.3878e-29
4.55821e-29
4.65257e-29
5.05645e-30
5.25779e-30
5.56425e-30
5.97848e-30
6.5058e-30
7.15381e-30
7.93217e-30
8.8525e-30
9.92827e-30
1.11746e-29
1.26078e-29
1.42452e-29
1.61037e-29
1.81993e-29
2.05449e-29
2.31481e-29
2.60088e-29
2.91149e-29
3.24391e-29
3.59337e-29
3.95269e-29
4.31189e-29
4.65798e-29
4.97498e-29
5.24423e-29
5.44508e-29
5.55599e-29
5.87481e-30
6.11378e-30
6.47782e-30
6.97041e-30
7.59829e-30
8.37097e-30
9.30049e-30
1.04013e-29
1.169e-29
1.31852e-29
1.49069e-29
1.68759e-29
1.91126e-29
2.16357e-29
2.44598e-29
2.75929e-29
3.1033e-29
3.47634e-29
3.87489e-29
4.293e-29
4.72187e-29
5.14947e-29
5.56033e-29
5.9356e-29
6.25347e-29
6.48998e-29
6.62029e-29
6.81851e-30
7.10174e-30
7.53355e-30
8.11843e-30
8.86486e-30
9.78469e-30
1.08928e-29
1.22071e-29
1.37479e-29
1.5538e-29
1.76016e-29
1.99637e-29
2.26488e-29
2.56786e-29
2.90696e-29
3.283e-29
3.69551e-29
4.14229e-29
4.61884e-29
5.11781e-29
5.62852e-29
6.13651e-29
6.62341e-29
7.06704e-29
7.4419e-29
7.7202e-29
7.87321e-29
7.9078e-30
8.24304e-30
8.75455e-30
9.44808e-30
1.03342e-29
1.14276e-29
1.27466e-29
1.43131e-29
1.61521e-29
1.82911e-29
2.07594e-29
2.35871e-29
2.68031e-29
3.04325e-29
3.44942e-29
3.8996e-29
4.39302e-29
4.92678e-29
5.49526e-29
6.08943e-29
6.69636e-29
7.29878e-29
7.87493e-29
8.39872e-29
8.84039e-29
9.16764e-29
9.34725e-29
9.16626e-30
9.56262e-30
1.01679e-29
1.09892e-29
1.20399e-29
1.33379e-29
1.49057e-29
1.677e-29
1.89612e-29
2.15126e-29
2.44596e-29
2.78378e-29
3.16815e-29
3.60199e-29
4.08739e-29
4.6251e-29
5.21398e-29
5.85027e-29
6.52699e-29
7.23314e-29
7.95317e-29
8.66648e-29
9.34734e-29
9.96513e-29
1.04851e-28
1.08697e-28
1.10804e-28
1.06215e-29
1.10896e-29
1.1805e-29
1.27768e-29
1.40211e-29
1.55601e-29
1.74212e-29
1.96368e-29
2.22438e-29
2.52823e-29
2.87945e-29
3.28232e-29
3.74083e-29
4.25838e-29
4.8373e-29
5.47827e-29
6.17964e-29
6.93669e-29
7.74077e-29
8.57859e-29
9.43146e-29
1.02749e-28
1.10786e-28
1.18066e-28
1.24183e-28
1.28701e-28
1.31173e-28
1.23056e-29
1.28581e-29
1.3703e-29
1.48515e-29
1.63237e-29
1.81464e-29
2.0353e-29
2.29828e-29
2.60802e-29
2.96933e-29
3.38727e-29
3.86688e-29
4.41288e-29
5.02918e-29
5.71837e-29
6.48102e-29
7.31489e-29
8.21405e-29
9.16791e-29
1.01604e-28
1.11693e-28
1.21655e-28
1.31133e-28
1.39704e-28
1.46896e-28
1.522e-28
1.55099e-28
1.42564e-29
1.49079e-29
1.59048e-29
1.72611e-29
1.90012e-29
2.11577e-29
2.37712e-29
2.68889e-29
3.05641e-29
3.48547e-29
3.98207e-29
4.55218e-29
5.20132e-29
5.93401e-29
6.75311e-29
7.65905e-29
8.64886e-29
9.71514e-29
1.08451e-28
1.20193e-28
1.32113e-28
1.43867e-28
1.55033e-28
1.65118e-28
1.73569e-28
1.79794e-28
1.83193e-28
1.65176e-29
1.72854e-29
1.84608e-29
2.00612e-29
2.21162e-29
2.46655e-29
2.77576e-29
3.14497e-29
3.58056e-29
4.08941e-29
4.67868e-29
5.35542e-29
6.12606e-29
6.99582e-29
7.96787e-29
9.04242e-29
1.02156e-28
1.14784e-28
1.28151e-28
1.42027e-28
1.56095e-28
1.69951e-28
1.83097e-28
1.94956e-28
2.04881e-28
2.12185e-28
2.16168e-28
1.91408e-29
2.00448e-29
2.14298e-29
2.33169e-29
2.5742e-29
2.87529e-29
3.24081e-29
3.6776e-29
4.19328e-29
4.79608e-29
5.49446e-29
6.29673e-29
7.2104e-29
8.24147e-29
9.39346e-29
1.06663e-28
1.20551e-28
1.35487e-28
1.51282e-28
1.67662e-28
1.84252e-28
2.00571e-28
2.16038e-28
2.29975e-28
2.41627e-28
2.50193e-28
2.54861e-28
2.21857e-29
2.32497e-29
2.48807e-29
2.71044e-29
2.99641e-29
3.35174e-29
3.78345e-29
4.29971e-29
4.90962e-29
5.62294e-29
6.4497e-29
7.39966e-29
8.48159e-29
9.7024e-29
1.1066e-28
1.25719e-28
1.4214e-28
1.59786e-28
1.78433e-28
1.97751e-28
2.17296e-28
2.36504e-28
2.5469e-28
2.71061e-28
2.84736e-28
2.9478e-28
3.00249e-28
2.57225e-29
2.69742e-29
2.88937e-29
3.15125e-29
3.48825e-29
3.90729e-29
4.41677e-29
5.02644e-29
5.74713e-29
6.59041e-29
7.56814e-29
8.69177e-29
9.97155e-29
1.14154e-28
1.30276e-28
1.48074e-28
1.67469e-28
1.88298e-28
2.10289e-28
2.33053e-28
2.56065e-28
2.78658e-28
3.0003e-28
3.19252e-28
3.35295e-28
3.47069e-28
3.53477e-28
2.98329e-29
3.13047e-29
3.35627e-29
3.66451e-29
4.06142e-29
4.55527e-29
5.15609e-29
5.87551e-29
6.72637e-29
7.7224e-29
8.87756e-29
1.02053e-28
1.17176e-28
1.34235e-28
1.53279e-28
1.74292e-28
1.97179e-28
2.21742e-28
2.47658e-28
2.74463e-28
3.01537e-28
3.28098e-28
3.53202e-28
3.75762e-28
3.94578e-28
4.08378e-28
4.15883e-28
3.46128e-29
3.63426e-29
3.89976e-29
4.26237e-29
4.72957e-29
5.31123e-29
6.01931e-29
6.86761e-29
7.87138e-29
9.04684e-29
1.04105e-28
1.1978e-28
1.37634e-28
1.57771e-28
1.80244e-28
2.05032e-28
2.32017e-28
2.60961e-28
2.91479e-28
3.23022e-28
3.54858e-28
3.86067e-28
4.15542e-28
4.42013e-28
4.64075e-28
4.80245e-28
4.89035e-28
4.01737e-29
4.2206e-29
4.53264e-29
4.95902e-29
5.50869e-29
6.19339e-29
7.02735e-29
8.02696e-29
9.21027e-29
1.05964e-28
1.22048e-28
1.4054e-28
1.61601e-28
1.85352e-28
2.1185e-28
2.41068e-28
2.72861e-28
3.06942e-28
3.42857e-28
3.79953e-28
4.17369e-28
4.54022e-28
4.88618e-28
5.19666e-28
5.45527e-28
5.64473e-28
5.74766e-28
4.66463e-29
4.9033e-29
5.26991e-29
5.77107e-29
6.41744e-29
7.22302e-29
8.20469e-29
9.38187e-29
1.07759e-28
1.24094e-28
1.43052e-28
1.64849e-28
1.89674e-28
2.17665e-28
2.48888e-28
2.83302e-28
3.20734e-28
3.6084e-28
4.03079e-28
4.46684e-28
4.90637e-28
5.33668e-28
5.74259e-28
6.10667e-28
6.40976e-28
6.63169e-28
6.75222e-28
5.41832e-29
5.69853e-29
6.12908e-29
6.7179e-29
7.47767e-29
8.42501e-29
9.57995e-29
1.09655e-28
1.26068e-28
1.45306e-28
1.67635e-28
1.93311e-28
2.22553e-28
2.5552e-28
2.92283e-28
3.32792e-28
3.76835e-28
4.24004e-28
4.73657e-28
5.24887e-28
5.76498e-28
6.26999e-28
6.7461e-28
7.17292e-28
7.52808e-28
7.78801e-28
7.92911e-28
6.29626e-29
6.62514e-29
7.13062e-29
7.82218e-29
8.71489e-29
9.82845e-29
1.11866e-28
1.28165e-28
1.47479e-28
1.70121e-28
1.96407e-28
2.26633e-28
2.61056e-28
2.99858e-28
3.4312e-28
3.90775e-28
4.42569e-28
4.98015e-28
5.56355e-28
6.16518e-28
6.77099e-28
7.36347e-28
7.92177e-28
8.42204e-28
8.83813e-28
9.14254e-28
9.30773e-28
7.3193e-29
7.70519e-29
8.29848e-29
9.11043e-29
1.01589e-28
1.14674e-28
1.30637e-28
1.49802e-28
1.72517e-28
1.99153e-28
2.30079e-28
2.65642e-28
3.0614e-28
3.51786e-28
4.02666e-28
4.58698e-28
5.19576e-28
5.84722e-28
6.5324e-28
7.23867e-28
7.94953e-28
8.64443e-28
9.29895e-28
9.8852e-28
1.03726e-27
1.0729e-27
1.09224e-27
8.51179e-29
8.96446e-29
9.6606e-29
1.06136e-28
1.18447e-28
1.33815e-28
1.52572e-28
1.75095e-28
2.01799e-28
2.33117e-28
2.69483e-28
3.11304e-28
3.58925e-28
4.12593e-28
4.72404e-28
5.38254e-28
6.09777e-28
6.86289e-28
7.66728e-28
8.49611e-28
9.32999e-28
1.01448e-27
1.0912e-27
1.15988e-27
1.21697e-27
1.2587e-27
1.28134e-27
9.90219e-29
1.04331e-28
1.12497e-28
1.2368e-28
1.3813e-28
1.56174e-28
1.78204e-28
2.04664e-28
2.36044e-28
2.72851e-28
3.15594e-28
3.6475e-28
4.20721e-28
4.83792e-28
5.5407e-28
6.31425e-28
7.1542e-28
8.05245e-28
8.99648e-28
9.96885e-28
1.09468e-27
1.1902e-27
1.2801e-27
1.36056e-27
1.42741e-27
1.47627e-27
1.50276e-27
1.15238e-28
1.21463e-28
1.3104e-28
1.44158e-28
1.61115e-28
1.82294e-28
2.08159e-28
2.39234e-28
2.76092e-28
3.19333e-28
3.69551e-28
4.27303e-28
4.9306e-28
5.6715e-28
6.49692e-28
7.40527e-28
8.39133e-28
9.44552e-28
1.05531e-27
1.16935e-27
1.28401e-27
1.39596e-27
1.50129e-27
1.59554e-27
1.67382e-27
1.73102e-27
1.76202e-27
1.34155e-28
1.41452e-28
1.52681e-28
1.68067e-28
1.87959e-28
2.12811e-28
2.43169e-28
2.79651e-28
3.22929e-28
3.73708e-28
4.32685e-28
5.00512e-28
5.77735e-28
6.64735e-28
7.61646e-28
8.68271e-28
9.83991e-28
1.10767e-27
1.23758e-27
1.3713e-27
1.5057e-27
1.63689e-27
1.76029e-27
1.87066e-27
1.96232e-27
2.02927e-27
2.06555e-27
1.56227e-28
1.6478e-28
1.77944e-28
1.95984e-28
2.19314e-28
2.48469e-28
2.8409e-28
3.26905e-28
3.77705e-28
4.37316e-28
5.06556e-28
5.86185e-28
6.76843e-28
7.78967e-28
8.92709e-28
1.01783e-27
1.15359e-27
1.29866e-27
1.45099e-27
1.60775e-27
1.76526e-27
1.91897e-27
2.0635e-27
2.19275e-27
2.30005e-27
2.37842e-27
2.42088e-27
1.81986e-28
1.92009e-28
2.07438e-28
2.28587e-28
2.55942e-28
2.90136e-28
3.31922e-28
3.82156e-28
4.41767e-28
5.11724e-28
5.92986e-28
6.86441e-28
7.92835e-28
9.12676e-28
1.04613e-27
1.19291e-27
1.35215e-27
1.52226e-27
1.70084e-27
1.88457e-27
2.06913e-27
2.24919e-27
2.41846e-27
2.5698e-27
2.69541e-27
2.78713e-27
2.83682e-27
2.12052e-28
2.23796e-28
2.41878e-28
2.66665e-28
2.98735e-28
3.38829e-28
3.87834e-28
4.46757e-28
5.16688e-28
5.98763e-28
6.94106e-28
8.03756e-28
9.28581e-28
1.06917e-27
1.22571e-27
1.39786e-27
1.58458e-27
1.78401e-27
1.99333e-27
2.20863e-27
2.42485e-27
2.63575e-27
2.83397e-27
3.01116e-27
3.15819e-27
3.26553e-27
3.32368e-27
2.47153e-28
2.60911e-28
2.82097e-28
3.11145e-28
3.48733e-28
3.95736e-28
4.53195e-28
5.22293e-28
6.04309e-28
7.00577e-28
8.12411e-28
9.41027e-28
1.08744e-27
1.25232e-27
1.4359e-27
1.63775e-27
1.85664e-27
2.0904e-27
2.3357e-27
2.58795e-27
2.84123e-27
3.08823e-27
3.32033e-27
3.52775e-27
3.69985e-27
3.82547e-27
3.89351e-27
2.88137e-28
3.04253e-28
3.29072e-28
3.63107e-28
4.07156e-28
4.62247e-28
5.29604e-28
6.10616e-28
7.06785e-28
8.19672e-28
9.50817e-28
1.10164e-27
1.27333e-27
1.46667e-27
1.6819e-27
1.91852e-27
2.17508e-27
2.44902e-27
2.73643e-27
3.03193e-27
3.32858e-27
3.61782e-27
3.88957e-27
4.13238e-27
4.3338e-27
4.48081e-27
4.56043e-27
3.35996e-28
3.54871e-28
3.83943e-28
4.23816e-28
4.75428e-28
5.39987e-28
6.18933e-28
7.13893e-28
8.26632e-28
9.58978e-28
1.11274e-27
1.28956e-27
1.49084e-27
1.71749e-27
1.96978e-27
2.24711e-27
2.54778e-27
2.86875e-27
3.20545e-27
3.55158e-27
3.89898e-27
4.23765e-27
4.55578e-27
4.84e-27
5.07573e-27
5.24776e-27
5.34092e-27
3.91891e-28
4.13994e-28
4.48043e-28
4.94749e-28
5.55214e-28
6.30857e-28
7.23368e-28
8.34658e-28
9.66796e-28
1.12192e-27
1.30215e-27
1.50943e-27
1.74536e-27
2.011e-27
2.30668e-27
2.63166e-27
2.98395e-27
3.35998e-27
3.75437e-27
4.15974e-27
4.56654e-27
4.96305e-27
5.33546e-27
5.66812e-27
5.944e-27
6.1453e-27
6.25431e-27
4.57177e-28
4.83059e-28
5.22933e-28
5.77635e-28
6.48461e-28
7.37077e-28
8.45468e-28
9.75874e-28
1.13072e-27
1.31252e-27
1.52374e-27
1.76666e-27
2.04315e-27
2.35445e-27
2.70091e-27
3.08167e-27
3.49438e-27
3.93484e-27
4.39675e-27
4.87145e-27
5.34776e-27
5.81196e-27
6.24788e-27
6.63722e-27
6.96007e-27
7.19562e-27
7.32316e-27
5.33441e-28
5.63745e-28
6.10435e-28
6.74495e-28
7.57447e-28
8.61247e-28
9.88224e-28
1.14101e-27
1.32244e-27
1.53546e-27
1.78296e-27
2.0676e-27
2.39156e-27
2.7563e-27
3.16221e-27
3.60826e-27
4.09169e-27
4.60757e-27
5.14849e-27
5.70433e-27
6.26197e-27
6.80537e-27
7.3156e-27
7.77126e-27
8.14906e-27
8.42469e-27
8.57392e-27
6.22537e-28
6.58015e-28
7.12681e-28
7.87692e-28
8.84834e-28
1.0064e-27
1.15513e-27
1.33411e-27
1.54665e-27
1.79621e-27
2.08618e-27
2.41966e-27
2.7992e-27
3.22649e-27
3.70197e-27
4.22444e-27
4.79064e-27
5.39477e-27
6.02817e-27
6.67894e-27
7.33177e-27
7.96783e-27
8.56501e-27
9.09826e-27
9.54036e-27
9.86287e-27
1.00375e-26
7.26633e-28
7.68164e-28
8.32163e-28
9.19988e-28
1.03374e-27
1.1761e-27
1.35029e-27
1.55991e-27
1.80888e-27
2.10121e-27
2.44088e-27
2.83152e-27
3.2761e-27
3.7766e-27
4.33352e-27
4.94543e-27
5.60848e-27
6.3159e-27
7.05751e-27
7.81939e-27
8.58358e-27
9.32807e-27
1.0027e-26
1.0651e-26
1.11683e-26
1.15457e-26
1.175e-26
8.48263e-28
8.96877e-28
9.71796e-28
1.07461e-27
1.2078e-27
1.3745e-27
1.57848e-27
1.82397e-27
2.11555e-27
2.45795e-27
2.85579e-27
3.31332e-27
3.83404e-27
4.42022e-27
5.07244e-27
5.78902e-27
6.56542e-27
7.39371e-27
8.26195e-27
9.15383e-27
1.00483e-26
1.09197e-26
1.17376e-26
1.24679e-26
1.30732e-26
1.35148e-26
1.37539e-26
9.90391e-28
1.04729e-27
1.13499e-27
1.25535e-27
1.41127e-27
1.60645e-27
1.84529e-27
2.13276e-27
2.47422e-27
2.8752e-27
3.34112e-27
3.87695e-27
4.48676e-27
5.17321e-27
5.93697e-27
6.77603e-27
7.68509e-27
8.65481e-27
9.67122e-27
1.07152e-26
1.17622e-26
1.2782e-26
1.37392e-26
1.45938e-26
1.53021e-26
1.58187e-26
1.60985e-26
1.15648e-27
1.22308e-27
1.32572e-27
1.46661e-27
1.64913e-27
1.87763e-27
2.15728e-27
2.49387e-27
2.89369e-27
3.36323e-27
3.90882e-27
4.53627e-27
5.25035e-27
6.05415e-27
6.94842e-27
7.93082e-27
8.99511e-27
1.01303e-26
1.13201e-26
1.25421e-26
1.37675e-26
1.4961e-26
1.60812e-26
1.70812e-26
1.791e-26
1.85145e-26
1.88418e-26
1.35059e-27
1.42853e-27
1.54866e-27
1.71356e-27
1.92721e-27
2.1947e-27
2.52208e-27
2.91615e-27
3.38428e-27
3.93404e-27
4.57286e-27
5.30754e-27
6.14363e-27
7.08475e-27
8.13175e-27
9.28189e-27
1.05278e-26
1.18567e-26
1.32494e-26
1.46797e-26
1.61138e-26
1.75106e-26
1.88214e-26
1.99915e-26
2.09613e-26
2.16686e-26
2.20516e-26
1.57745e-27
1.66865e-27
1.80925e-27
2.00225e-27
2.25232e-27
2.56543e-27
2.94866e-27
3.40999e-27
3.95803e-27
4.60167e-27
5.34959e-27
6.20973e-27
7.1886e-27
8.29041e-27
9.51614e-27
1.08625e-26
1.2321e-26
1.38765e-26
1.55066e-26
1.71806e-26
1.8859e-26
2.04936e-26
2.20275e-26
2.33967e-26
2.45314e-26
2.53591e-26
2.58073e-26
1.8426e-27
1.94933e-27
2.11386e-27
2.33973e-27
2.63241e-27
2.99889e-27
3.44747e-27
3.9875e-27
4.62906e-27
5.38254e-27
6.25812e-27
7.26508e-27
8.41102e-27
9.70086e-27
1.11357e-26
1.27118e-26
1.4419e-26
1.62396e-26
1.81475e-26
2.01066e-26
2.20709e-26
2.39837e-26
2.57786e-26
2.73807e-26
2.87085e-26
2.9677e-26
3.02014e-26
2.15252e-27
2.27741e-27
2.46994e-27
2.73427e-27
3.0768e-27
3.50572e-27
4.03076e-27
4.66287e-27
5.41385e-27
6.29586e-27
7.32081e-27
8.49957e-27
9.841e-27
1.13509e-26
1.30304e-26
1.48752e-26
1.68734e-26
1.90044e-26
2.12373e-26
2.35301e-26
2.58287e-26
2.8067e-26
3.01674e-26
3.20421e-26
3.35958e-26
3.4729e-26
3.53428e-26
2.51479e-27
2.66092e-27
2.88621e-27
3.19553e-27
3.59638e-27
4.09835e-27
4.71285e-27
5.45269e-27
6.33169e-27
7.36408e-27
8.56381e-27
9.94358e-27
1.15138e-26
1.32811e-26
1.5247e-26
1.74062e-26
1.97449e-26
2.22389e-26
2.48521e-26
2.75353e-26
3.02253e-26
3.28446e-26
3.53023e-26
3.7496e-26
3.93139e-26
4.064e-26
4.13583e-26
2.93826e-27
3.10925e-27
3.37285e-27
3.7348e-27
4.20388e-27
4.79132e-27
5.51048e-27
6.37636e-27
7.40514e-27
8.6135e-27
1.00177e-26
1.16327e-26
1.34705e-26
1.5539e-26
1.784e-26
2.03672e-26
2.31043e-26
2.60231e-26
2.90813e-26
3.22213e-26
3.53691e-26
3.84342e-26
4.13102e-26
4.3877e-26
4.60043e-26
4.7556e-26
4.83967e-26
3.4333e-27
3.63336e-27
3.94179e-27
4.36531e-27
4.91419e-27
5.60163e-27
6.44323e-27
7.45658e-27
8.66061e-27
1.00748e-26
1.17183e-26
1.36085e-26
1.57595e-26
1.81805e-26
2.08735e-26
2.38312e-26
2.70345e-26
3.04503e-26
3.40292e-26
3.77038e-26
4.13873e-26
4.4974e-26
4.83393e-26
5.13429e-26
5.38321e-26
5.5648e-26
5.6632e-26
4.01202e-27
4.24608e-27
4.60695e-27
5.10249e-27
5.74475e-27
6.54916e-27
7.53401e-27
8.71988e-27
1.01289e-26
1.1784e-26
1.37075e-26
1.59196e-26
1.8437e-26
2.12704e-26
2.44221e-26
2.78835e-26
3.16324e-26
3.56298e-26
3.9818e-26
4.4118e-26
4.84284e-26
5.26254e-26
5.65634e-26
6.00781e-26
6.2991e-26
6.5116e-26
6.62678e-26
4.68858e-27
4.96242e-27
5.38463e-27
5.96442e-27
6.71591e-27
7.65716e-27
8.80959e-27
1.01973e-26
1.18462e-26
1.37831e-26
1.60341e-26
1.8623e-26
2.15691e-26
2.4885e-26
2.85734e-26
3.26243e-26
3.70114e-26
4.16894e-26
4.65905e-26
5.16223e-26
5.66664e-26
6.15776e-26
6.61857e-26
7.02986e-26
7.37073e-26
7.61942e-26
7.75425e-26
5.47956e-27
5.79992e-27
6.29389e-27
6.97224e-27
7.8515e-27
8.95284e-27
1.03013e-26
1.19252e-26
1.38547e-26
1.61213e-26
1.87555e-26
2.17852e-26
2.52329e-26
2.91134e-26
3.34298e-26
3.81703e-26
4.33043e-26
4.87786e-26
5.45139e-26
6.04022e-26
6.63047e-26
7.20517e-26
7.74441e-26
8.22569e-26
8.6246e-26
8.91566e-26
9.07349e-26
6.40433e-27
6.77911e-27
7.35701e-27
8.15065e-27
9.17939e-27
1.0468e-26
1.20458e-26
1.39459e-26
1.62039e-26
1.88562e-26
2.19387e-26
2.54841e-26
2.95187e-26
3.40598e-26
3.9111e-26
4.46584e-26
5.06663e-26
5.70724e-26
6.37839e-26
7.06743e-26
7.75814e-26
8.43066e-26
9.06168e-26
9.62489e-26
1.00917e-25
1.04324e-25
1.06172e-25
7.48554e-27
7.92399e-27
8.60007e-27
9.52858e-27
1.07322e-26
1.22399e-26
1.4086e-26
1.63093e-26
1.89513e-26
2.2055e-26
2.56621e-26
2.98108e-26
3.45321e-26
3.98461e-26
4.5757e-26
5.22487e-26
5.92792e-26
6.67756e-26
7.46294e-26
8.26926e-26
9.07753e-26
9.86452e-26
1.0603e-25
1.12621e-25
1.18084e-25
1.22072e-25
1.24235e-25
8.7497e-27
9.26262e-27
1.00536e-26
1.11398e-26
1.2548e-26
1.43119e-26
1.6472e-26
1.90734e-26
2.21648e-26
2.57964e-26
3.00172e-26
3.48719e-26
4.03967e-26
4.6615e-26
5.35319e-26
6.11285e-26
6.93555e-26
7.81278e-26
8.73183e-26
9.6754e-26
1.06213e-25
1.15422e-25
1.24064e-25
1.31777e-25
1.38172e-25
1.42839e-25
1.45372e-25
1.02278e-26
1.08278e-26
1.17531e-26
1.30239e-26
1.46713e-26
1.67351e-26
1.92624e-26
2.23061e-26
2.59232e-26
3.01726e-26
3.51114e-26
4.07921e-26
4.7257e-26
5.45334e-26
6.26275e-26
7.15168e-26
8.1144e-26
9.14093e-26
1.02164e-25
1.13206e-25
1.24275e-25
1.35052e-25
1.45166e-25
1.54193e-25
1.61677e-25
1.67141e-25
1.70108e-25
1.19561e-26
1.2658e-26
1.37405e-26
1.52271e-26
1.71545e-26
1.9569e-26
2.25258e-26
2.6087e-26
3.03192e-26
3.52912e-26
4.10702e-26
4.77172e-26
5.5282e-26
6.37966e-26
7.3268e-26
8.36701e-26
9.49358e-26
1.06948e-25
1.19534e-25
1.32455e-25
1.45409e-25
1.58022e-25
1.69857e-25
1.80423e-25
1.89183e-25
1.9558e-25
1.99054e-25
1.3977e-26
1.47981e-26
1.60644e-26
1.78036e-26
2.00583e-26
2.28831e-26
2.63425e-26
3.0509e-26
3.54609e-26
4.12784e-26
4.80403e-26
5.5818e-26
6.46698e-26
7.46331e-26
8.57162e-26
9.78885e-26
1.11072e-25
1.25129e-25
1.39857e-25
1.54978e-25
1.70137e-25
1.84899e-25
1.98751e-25
2.11118e-25
2.21372e-25
2.2886e-25
2.3293e-25
1.63401e-26
1.73006e-26
1.87819e-26
2.08165e-26
2.34543e-26
2.6759e-26
3.08063e-26
3.56811e-26
4.14748e-26
4.82816e-26
5.61934e-26
6.52941e-26
7.56518e-26
8.73103e-26
1.00279e-25
1.14523e-25
1.2995e-25
1.464e-25
1.63636e-25
1.81332e-25
1.99073e-25
2.16349e-25
2.32562e-25
2.47037e-25
2.59041e-25
2.67808e-25
2.72575e-25
1.91033e-26
2.02269e-26
2.19597e-26
2.43399e-26
2.74258e-26
3.1292e-26
3.60271e-26
4.17304e-26
4.8509e-26
5.64732e-26
6.57305e-26
7.63792e-26
8.84988e-26
1.02141e-25
1.17317e-25
1.33985e-25
1.52037e-25
1.71288e-25
1.91458e-25
2.12169e-25
2.32932e-25
2.53151e-25
2.72128e-25
2.89072e-25
3.03125e-25
3.13391e-25
3.18976e-25
2.23345e-26
2.36489e-26
2.5676e-26
2.84604e-26
3.20704e-26
3.65935e-26
4.21332e-26
4.88058e-26
5.67368e-26
6.60551e-26
7.68867e-26
8.93465e-26
1.03528e-25
1.19491e-25
1.37249e-25
1.56754e-25
1.7788e-25
2.00409e-25
2.24014e-25
2.48252e-25
2.72553e-25
2.96219e-25
3.18431e-25
3.38266e-25
3.54719e-25
3.66741e-25
3.73285e-25
2.61132e-26
2.76507e-26
3.00219e-26
3.32792e-26
3.75024e-26
4.27939e-26
4.92749e-26
5.70816e-26
6.63608e-26
7.72634e-26
8.9937e-26
1.04516e-25
1.2111e-25
1.39789e-25
1.6057e-25
1.83395e-25
2.08117e-25
2.34482e-25
2.62108e-25
2.90475e-25
3.18918e-25
3.46619e-25
3.72621e-25
3.95841e-25
4.15104e-25
4.29184e-25
4.36852e-25
3.05319e-26
3.23305e-26
3.51044e-26
3.89148e-26
4.38553e-26
5.00458e-26
5.7628e-26
6.67615e-26
7.7618e-26
9.03743e-26
1.05203e-25
1.22262e-25
1.41679e-25
1.63537e-25
1.87854e-25
2.14565e-25
2.43497e-25
2.74352e-25
3.06684e-25
3.39886e-25
3.73177e-25
4.05603e-25
4.36041e-25
4.63227e-25
4.85783e-25
5.02274e-25
5.11261e-25
3.56995e-26
3.78034e-26
4.10483e-26
4.55058e-26
5.12855e-26
5.85276e-26
6.73982e-26
7.80839e-26
9.07859e-26
1.05711e-25
1.23062e-25
1.43022e-25
1.65743e-25
1.9132e-25
2.19777e-25
2.51035e-25
2.84894e-25
3.21005e-25
3.58847e-25
3.97709e-25
4.36677e-25
4.74635e-25
5.10269e-25
5.42099e-25
5.68513e-25
5.8783e-25
5.98365e-25
4.17427e-26
4.42039e-26
4.79997e-26
5.32142e-26
5.99756e-26
6.84481e-26
7.88259e-26
9.13278e-26
1.06189e-25
1.23652e-25
1.43954e-25
1.6731e-25
1.93896e-25
2.23827e-25
2.57127e-25
2.93708e-25
3.33335e-25
3.75598e-25
4.1989e-25
4.65378e-25
5.10994e-25
5.5543e-25
5.9715e-25
6.3442e-25
6.65354e-25
6.87984e-25
7.00335e-25
4.88103e-26
5.16893e-26
5.61297e-26
6.22298e-26
7.01397e-26
8.00515e-26
9.21928e-26
1.0682e-25
1.24207e-25
1.4464e-25
1.68394e-25
1.95723e-25
2.26834e-25
2.61859e-25
3.00829e-25
3.43641e-25
3.90018e-25
4.39485e-25
4.91328e-25
5.44574e-25
5.97974e-25
6.49997e-25
6.98845e-25
7.42489e-25
7.7872e-25
8.05234e-25
8.19716e-25
5.70759e-26
6.04437e-26
6.56382e-26
7.27743e-26
8.20278e-26
9.36236e-26
1.07828e-25
1.24941e-25
1.45285e-25
1.69192e-25
1.96987e-25
2.28966e-25
2.65371e-25
3.06359e-25
3.51965e-25
4.02069e-25
4.5635e-25
5.14249e-25
5.74933e-25
6.37264e-25
6.99779e-25
7.60688e-25
8.17887e-25
8.68998e-25
9.11437e-25
9.42505e-25
9.59489e-25
6.67429e-26
7.06826e-26
7.67592e-26
8.51072e-26
9.59327e-26
1.09499e-25
1.26117e-25
1.46139e-25
1.69942e-25
1.97914e-25
2.30438e-25
2.67858e-25
3.1046e-25
3.58427e-25
4.11801e-25
4.70441e-25
5.33974e-25
6.01745e-25
6.72782e-25
7.45752e-25
8.18943e-25
8.90261e-25
9.57242e-25
1.0171e-24
1.06682e-24
1.10323e-24
1.12315e-24
7.80491e-26
8.26578e-26
8.97663e-26
9.95324e-26
1.12197e-25
1.28068e-25
1.47511e-25
1.70936e-25
1.98786e-25
2.31517e-25
2.69573e-25
3.13363e-25
3.63217e-25
4.19352e-25
4.81818e-25
5.50452e-25
6.24816e-25
7.04148e-25
7.87307e-25
8.72736e-25
9.58432e-25
1.04194e-24
1.12039e-24
1.1905e-24
1.24875e-24
1.29142e-24
1.31479e-24
9.12727e-26
9.66641e-26
1.0498e-25
1.16405e-25
1.31221e-25
1.49789e-25
1.72537e-25
1.99945e-25
2.32531e-25
2.70829e-25
3.15361e-25
3.66604e-25
4.24946e-25
4.90643e-25
5.63753e-25
6.44087e-25
7.31133e-25
8.24e-25
9.21356e-25
1.02138e-24
1.12172e-24
1.21952e-24
1.31139e-24
1.39352e-24
1.46177e-24
1.5118e-24
1.53922e-24
1.06739e-25
1.13046e-25
1.22775e-25
1.36141e-25
1.53474e-25
1.75198e-25
2.01812e-25
2.33881e-25
2.72009e-25
3.16822e-25
3.68933e-25
4.28899e-25
4.97178e-25
5.74066e-25
6.59638e-25
7.53669e-25
8.55565e-25
9.64283e-25
1.07826e-24
1.19538e-24
1.31288e-24
1.42741e-24
1.53503e-24
1.63125e-24
1.71123e-24
1.76987e-24
1.80206e-24
1.2483e-25
1.32208e-25
1.43589e-25
1.59226e-25
1.79505e-25
2.04921e-25
2.3606e-25
2.73581e-25
3.18195e-25
3.70634e-25
4.31614e-25
5.01791e-25
5.817e-25
6.71691e-25
7.71851e-25
8.8192e-25
1.0012e-24
1.12849e-24
1.26194e-24
1.39908e-24
1.53668e-24
1.67083e-24
1.79689e-24
1.90963e-24
2.00336e-24
2.07213e-24
2.10992e-24
1.4599e-25
1.54621e-25
1.67936e-25
1.86229e-25
2.09955e-25
2.39691e-25
2.76125e-25
3.20027e-25
3.72231e-25
4.33594e-25
5.04956e-25
5.87084e-25
6.80608e-25
7.85938e-25
9.03178e-25
1.03203e-24
1.17168e-24
1.3207e-24
1.47696e-24
1.63756e-24
1.79872e-24
1.95585e-24
2.10354e-24
2.23564e-24
2.34551e-24
2.42616e-24
2.47053e-24
1.7074e-25
1.80838e-25
1.96415e-25
2.17817e-25
2.45575e-25
2.80367e-25
3.22996e-25
3.74367e-25
4.35453e-25
5.07261e-25
5.90774e-25
6.86893e-25
7.96354e-25
9.19643e-25
1.05688e-24
1.20772e-24
1.37122e-24
1.54571e-24
1.7287e-24
1.91677e-24
2.10554e-24
2.28961e-24
2.46265e-24
2.61747e-24
2.74626e-24
2.84086e-24
2.89297e-24
1.99692e-25
2.11506e-25
2.29729e-25
2.54769e-25
2.87245e-25
3.27953e-25
3.77832e-25
4.37942e-25
5.09425e-25
5.93458e-25
6.91195e-25
8.0369e-25
9.31811e-25
1.07613e-24
1.23679e-24
1.41338e-24
1.60481e-24
1.80913e-24
2.02342e-24
2.2437e-24
2.46482e-24
2.68048e-24
2.88323e-24
3.06469e-24
3.2157e-24
3.32668e-24
3.38789e-24
2.33558e-25
2.47379e-25
2.687e-25
2.97996e-25
3.35994e-25
3.83624e-25
4.41988e-25
5.12327e-25
5.95977e-25
6.9432e-25
8.08706e-25
9.40375e-25
1.09034e-24
1.25928e-24
1.44736e-24
1.65412e-24
1.87827e-24
2.11753e-24
2.36851e-24
2.62653e-24
2.88557e-24
3.13825e-24
3.37586e-24
3.58857e-24
3.76565e-24
3.89586e-24
3.96779e-24
2.73174e-25
2.89345e-25
3.14289e-25
3.48566e-25
3.93025e-25
4.48756e-25
5.1705e-25
5.9936e-25
6.97253e-25
8.12345e-25
9.46223e-25
1.10034e-24
1.27589e-24
1.47365e-24
1.69385e-24
1.93594e-24
2.19842e-24