/*--------------------------------*- C++ -*----------------------------------*\
| =========                 |                                                 |
| \\      /  F ield         | OpenFOAM: The Open Source CFD Toolbox           |
|  \\    /   O peration     | Version:  2212                                  |
|   \\  /    A nd           | Website:  www.openfoam.com                      |
|    \\/     M anipulation  |                                                 |
\*---------------------------------------------------------------------------*/
FoamFile
{
    version     2.0;
    format      ascii;
    arch        "LSB;label=32;scalar=64";
    class       volVectorField;
    location    "9.0545968";
    object      U_0;
}
// * * * * * * * * * * * * * * * * * * * * * * * * * * * * * * * * * * * * * //

dimensions      [0 1 -1 0 0 0 0];

internalField   nonuniform List<vector> 
33600
(
(0.134265 -0.000265581 3.23416e-13)
(0.134273 -0.000424316 1.34068e-12)
(0.13427 -0.000606693 2.47908e-12)
(0.134272 -0.000785162 3.13355e-12)
(0.134272 -0.000982735 3.55344e-12)
(0.134274 -0.00118904 4.02235e-12)
(0.134275 -0.00141579 4.70767e-12)
(0.134276 -0.00166216 5.81641e-12)
(0.134279 -0.00193575 8.03937e-12)
(0.134281 -0.00224073 1.3803e-11)
(0.134285 -0.00258495 3.13848e-11)
(0.134291 -0.00297688 1.15929e-11)
(0.134298 -0.00342765 4.71094e-12)
(0.134308 -0.00395263 1.54569e-12)
(0.134324 -0.0045701 -4.37392e-13)
(0.13435 -0.00531055 -2.27587e-12)
(0.13439 -0.00620662 -4.93237e-12)
(0.13446 -0.007328 -9.62852e-12)
(0.134579 -0.00873262 -4.91792e-12)
(0.134792 -0.0106034 -2.71925e-12)
(0.135161 -0.0130076 -1.74854e-12)
(0.13581 -0.0164772 -1.28352e-12)
(0.136893 -0.0207477 -1.04836e-12)
(0.138461 -0.0274842 -8.47449e-13)
(0.139921 -0.0329551 -6.20196e-13)
(0.135692 -0.0428555 -3.85659e-13)
(0.10132 -0.022864 -1.21739e-13)
(0.134839 -0.000810225 1.66878e-13)
(0.134875 -0.00129951 4.51615e-12)
(0.134887 -0.00184561 9.27718e-12)
(0.134917 -0.00239296 1.14424e-11)
(0.134949 -0.00298581 1.266e-11)
(0.134992 -0.00360985 1.41314e-11)
(0.135043 -0.00428814 1.63199e-11)
(0.135107 -0.0050237 1.94818e-11)
(0.135183 -0.00583355 2.46247e-11)
(0.135276 -0.0067298 3.60594e-11)
(0.135388 -0.00773099 6.29908e-11)
(0.135524 -0.00885723 2.90058e-11)
(0.135692 -0.0101333 1.31465e-11)
(0.1359 -0.0115903 4.41093e-12)
(0.136162 -0.0132634 -1.56206e-12)
(0.136497 -0.0152019 -6.93548e-12)
(0.136934 -0.0174519 -1.33482e-11)
(0.137515 -0.0200932 -2.25774e-11)
(0.138302 -0.0231602 -1.32999e-11)
(0.139373 -0.0267766 -8.27623e-12)
(0.140837 -0.0308166 -5.67297e-12)
(0.142725 -0.0354291 -4.32982e-12)
(0.14498 -0.0396111 -3.7592e-12)
(0.146379 -0.0434077 -3.13613e-12)
(0.144829 -0.0420699 -2.30429e-12)
(0.129491 -0.0364601 -1.32444e-12)
(0.0832964 -0.0118252 -4.27269e-13)
(0.136062 -0.00135798 -5.22363e-12)
(0.136128 -0.0021737 7.45363e-12)
(0.136175 -0.00307756 2.03531e-11)
(0.136258 -0.00398767 2.31834e-11)
(0.136354 -0.00496523 2.42146e-11)
(0.136478 -0.00599313 2.63646e-11)
(0.136627 -0.00710232 3.0079e-11)
(0.136808 -0.00829853 3.46834e-11)
(0.137024 -0.00960453 3.88237e-11)
(0.137283 -0.0110366 4.84742e-11)
(0.137593 -0.0126182 7.01683e-11)
(0.137963 -0.0143732 3.64367e-11)
(0.138406 -0.0163291 1.76191e-11)
(0.138942 -0.0185172 5.74597e-12)
(0.13959 -0.0209678 -3.07108e-12)
(0.140378 -0.0237172 -1.09509e-11)
(0.14134 -0.0267839 -1.9203e-11)
(0.142508 -0.0301948 -2.75341e-11)
(0.143914 -0.0338926 -1.8991e-11)
(0.145535 -0.0378415 -1.27484e-11)
(0.147284 -0.0416696 -9.31989e-12)
(0.148714 -0.0451328 -7.31785e-12)
(0.149027 -0.0468288 -7.51984e-12)
(0.145821 -0.0462327 -6.58751e-12)
(0.135715 -0.0396694 -4.58731e-12)
(0.107817 -0.0277652 -2.64243e-12)
(0.0531743 -0.00646606 -8.30073e-13)
(0.137881 -0.0018875 -3.20457e-11)
(0.137984 -0.0030209 8.46228e-12)
(0.138082 -0.0042706 4.39971e-11)
(0.138235 -0.00552718 4.06543e-11)
(0.138419 -0.00686836 3.83455e-11)
(0.138653 -0.00827248 4.05341e-11)
(0.138933 -0.00977638 4.67184e-11)
(0.139269 -0.0113857 5.47221e-11)
(0.139668 -0.0131253 5.08807e-11)
(0.140138 -0.0150107 5.00004e-11)
(0.140691 -0.0170637 4.9731e-11)
(0.141339 -0.019303 3.29413e-11)
(0.142098 -0.0217472 1.75512e-11)
(0.142986 -0.0244114 5.24723e-12)
(0.14402 -0.0273007 -4.99145e-12)
(0.145216 -0.0304105 -1.4362e-11)
(0.146583 -0.0336996 -2.38625e-11)
(0.148102 -0.0371018 -3.48761e-11)
(0.149718 -0.0404416 -2.29332e-11)
(0.151243 -0.0434936 -1.52794e-11)
(0.152318 -0.045738 -1.22743e-11)
(0.152168 -0.0466656 -7.53621e-12)
(0.149555 -0.0451008 -1.30128e-11)
(0.141865 -0.0405205 -1.19883e-11)
(0.125354 -0.0307237 -8.17919e-12)
(0.092947 -0.0174986 -4.43024e-12)
(0.0410035 -0.00303453 -1.26973e-12)
(0.140289 -0.00238944 -1.4602e-10)
(0.140434 -0.00382121 5.04211e-12)
(0.140593 -0.00539451 1.09115e-10)
(0.14083 -0.00697093 6.45443e-11)
(0.141121 -0.00864356 5.3196e-11)
(0.141483 -0.010384 5.49136e-11)
(0.141915 -0.0122327 6.63557e-11)
(0.142429 -0.0141925 9.35719e-11)
(0.14303 -0.0162864 6.4528e-11)
(0.143729 -0.0185249 5.1988e-11)
(0.144536 -0.0209225 4.27179e-11)
(0.145461 -0.0234862 2.93442e-11)
(0.146514 -0.0262174 1.58696e-11)
(0.147701 -0.0291068 3.77887e-12)
(0.149021 -0.0321254 -7.03167e-12)
(0.150457 -0.0352212 -1.71541e-11)
(0.151962 -0.0382942 -2.73169e-11)
(0.153435 -0.0411986 -3.85979e-11)
(0.154687 -0.0436795 -2.47036e-11)
(0.155346 -0.045408 -1.31185e-11)
(0.154882 -0.0458539 -1.80127e-11)
(0.152241 -0.0445679 -2.42689e-11)
(0.146035 -0.0406493 -2.72892e-11)
(0.133561 -0.0337222 -2.32592e-11)
(0.112414 -0.0233963 -1.29972e-11)
(0.0784766 -0.0115806 -6.17704e-12)
(0.0310171 -0.00148263 -1.20845e-12)
(0.143235 -0.00285162 -8.11544e-11)
(0.143424 -0.00455638 5.75973e-12)
(0.143652 -0.00642356 7.94856e-11)
(0.14398 -0.00828581 6.91153e-11)
(0.144384 -0.0102495 6.18456e-11)
(0.144882 -0.0122777 6.38718e-11)
(0.145472 -0.0144125 7.35912e-11)
(0.146165 -0.0166507 8.56526e-11)
(0.146965 -0.0190109 6.84514e-11)
(0.147879 -0.0214947 5.3119e-11)
(0.148913 -0.024105 4.00394e-11)
(0.150067 -0.0268328 2.6783e-11)
(0.151338 -0.0296581 1.39545e-11)
(0.152711 -0.0325436 2.08092e-12)
(0.154154 -0.0354252 -8.86065e-12)
(0.155602 -0.0382088 -1.91905e-11)
(0.156948 -0.0407453 -2.94111e-11)
(0.157996 -0.0428445 -4.01901e-11)
(0.158438 -0.044198 -2.74409e-11)
(0.15781 -0.0445076 -1.93761e-11)
(0.155427 -0.0433165 -2.12994e-11)
(0.150209 -0.040204 -2.57256e-11)
(0.140742 -0.0347259 -2.67464e-11)
(0.125152 -0.0269862 -2.26397e-11)
(0.101748 -0.0173994 -1.41697e-11)
(0.068489 -0.00768261 -6.17501e-12)
(0.0257578 -0.000745418 1.93909e-12)
(0.146675 -0.00326521 -1.91897e-10)
(0.146907 -0.00521196 -6.43914e-12)
(0.147204 -0.00733709 1.18743e-10)
(0.147623 -0.0094453 7.61517e-11)
(0.148139 -0.0116539 6.59654e-11)
(0.148769 -0.0139158 6.79097e-11)
(0.149509 -0.0162729 7.99269e-11)
(0.150366 -0.0187142 1.07009e-10)
(0.151339 -0.0212515 7.47908e-11)
(0.152431 -0.0238752 5.4611e-11)
(0.153634 -0.0265751 3.88447e-11)
(0.154937 -0.0293248 2.49373e-11)
(0.156315 -0.0320835 1.2219e-11)
(0.157725 -0.0347881 5.38924e-13)
(0.159095 -0.0373478 -1.02527e-11)
(0.160312 -0.0396359 -2.0359e-11)
(0.161199 -0.0414868 -2.99549e-11)
(0.161481 -0.042668 -3.86635e-11)
(0.160794 -0.0429399 -2.62431e-11)
(0.158585 -0.0419995 -1.4631e-11)
(0.154116 -0.0395282 -2.19007e-11)
(0.146394 -0.0353005 -3.14206e-11)
(0.134329 -0.029211 -3.22943e-11)
(0.116551 -0.0215977 -2.76826e-11)
(0.0921247 -0.0131731 -1.57075e-11)
(0.0602568 -0.00537219 -7.1951e-12)
(0.0217723 -0.000386831 -8.93414e-13)
(0.150543 -0.0036232 -6.97861e-11)
(0.150815 -0.00577728 -2.09374e-11)
(0.151179 -0.00812038 5.67859e-11)
(0.151682 -0.0104313 6.34939e-11)
(0.152301 -0.0128354 6.14669e-11)
(0.153047 -0.0152752 6.25931e-11)
(0.153915 -0.0177902 6.9572e-11)
(0.154905 -0.0203607 8.15415e-11)
(0.156009 -0.0229903 7.43037e-11)
(0.157219 -0.0256578 5.47164e-11)
(0.158515 -0.0283398 3.76445e-11)
(0.159866 -0.0309937 2.32613e-11)
(0.161224 -0.0335607 1.06367e-11)
(0.162513 -0.0359594 -7.36597e-13)
(0.163624 -0.0380789 -1.1114e-11)
(0.164394 -0.0397849 -2.0631e-11)
(0.164589 -0.0408888 -2.92673e-11)
(0.163905 -0.0412126 -3.8563e-11)
(0.161919 -0.0405201 -2.44711e-11)
(0.15807 -0.0386003 -1.7605e-11)
(0.151679 -0.035267 -1.83354e-11)
(0.14192 -0.030474 -1.64978e-11)
(0.127957 -0.0243278 -2.26409e-11)
(0.108936 -0.0172729 -2.10185e-11)
(0.0843992 -0.0100913 -1.36776e-11)
(0.0542064 -0.00388726 -6.08759e-12)
(0.019213 -0.00022424 1.73757e-12)
(0.154776 -0.00392134 -5.13401e-11)
(0.155084 -0.00624576 -9.82638e-11)
(0.155505 -0.0087647 3.81296e-11)
(0.15608 -0.0112336 5.60966e-11)
(0.156784 -0.0137834 5.3752e-11)
(0.157623 -0.0163459 4.96559e-11)
(0.158586 -0.0189573 4.89681e-11)
(0.159666 -0.0215887 6.71892e-11)
(0.160847 -0.0242354 8.80439e-11)
(0.162105 -0.0268654 5.51453e-11)
(0.163406 -0.0294435 3.57522e-11)
(0.164697 -0.031914 2.12383e-11)
(0.165904 -0.0342061 8.99933e-12)
(0.166923 -0.0362257 -1.82734e-12)
(0.167608 -0.0378598 -1.15279e-11)
(0.167755 -0.0389617 -2.00497e-11)
(0.167111 -0.0393848 -2.73935e-11)
(0.165332 -0.038956 -3.3685e-11)
(0.161993 -0.0375087 -1.62868e-11)
(0.156573 -0.0349135 -1.08218e-11)
(0.148483 -0.0311032 -1.67891e-11)
(0.13708 -0.0261463 -1.73179e-11)
(0.121783 -0.0202738 -1.89579e-11)
(0.1021 -0.0139518 -2.09252e-11)
(0.0778895 -0.0078931 -1.2104e-11)
(0.0493363 -0.00292338 -5.917e-12)
(0.0172309 -0.000135666 -1.14826e-12)
(0.159304 -0.0041577 -1.05694e-11)
(0.159638 -0.00661473 6.42171e-12)
(0.160106 -0.00926704 1.11429e-10)
(0.160735 -0.0118498 6.60612e-11)
(0.1615 -0.0144971 4.68616e-11)
(0.162401 -0.0171305 2.95724e-11)
(0.16342 -0.0197821 -7.90626e-13)
(0.164541 -0.0224143 4.00257e-11)
(0.165735 -0.025015 5.51772e-11)
(0.166966 -0.0275424 4.40556e-11)
(0.168181 -0.0299524 3.05467e-11)
(0.169307 -0.0321808 1.81392e-11)
(0.170247 -0.0341491 7.02075e-12)
(0.170868 -0.0357621 -2.94381e-12)
(0.170997 -0.0369034 -1.17535e-11)
(0.170414 -0.037452 -1.9325e-11)
(0.168841 -0.0372731 -2.51451e-11)
(0.165935 -0.0362389 -2.75722e-11)
(0.161295 -0.0342426 -2.05363e-11)
(0.154464 -0.0312296 -1.74964e-11)
(0.144963 -0.027221 -2.08061e-11)
(0.132319 -0.0223594 -1.5924e-11)
(0.116155 -0.0169284 -1.32773e-11)
(0.0962322 -0.0113656 -1.18731e-11)
(0.072591 -0.00627534 -7.07352e-12)
(0.0455486 -0.00226278 -3.9761e-12)
(0.0157804 -9.22572e-05 -1.15323e-12)
(0.164057 -0.00433264 9.26347e-12)
(0.164408 -0.0068851 3.41773e-11)
(0.164907 -0.00962947 8.46986e-11)
(0.165569 -0.0122841 6.25644e-11)
(0.166368 -0.0149839 3.99859e-11)
(0.167296 -0.0176414 1.98824e-11)
(0.168327 -0.0202844 4.27538e-12)
(0.169434 -0.0228673 2.49293e-11)
(0.170577 -0.0253718 3.72771e-11)
(0.171706 -0.0277489 3.36441e-11)
(0.172749 -0.0299486 2.45339e-11)
(0.173616 -0.031902 1.44213e-11)
(0.174187 -0.0335297 4.69149e-12)
(0.174311 -0.0347386 -4.25039e-12)
(0.173798 -0.0354262 -1.22535e-11)
(0.172414 -0.0354868 -1.92696e-11)
(0.169881 -0.0348163 -2.5406e-11)
(0.165874 -0.0333294 -3.23903e-11)
(0.160032 -0.0309731 -2.25193e-11)
(0.151973 -0.0277513 -1.67896e-11)
(0.141326 -0.0237444 -1.07293e-11)
(0.127761 -0.0191326 -1.05577e-11)
(0.11106 -0.0142081 -2.96825e-12)
(0.0911466 -0.0093575 -5.16082e-12)
(0.0681617 -0.00507232 1.87454e-12)
(0.042463 -0.00179439 -1.17589e-12)
(0.0146197 -6.49558e-05 -5.90254e-13)
(0.168966 -0.00444837 8.83314e-12)
(0.169323 -0.00706082 3.344e-11)
(0.169837 -0.00985836 1.25888e-10)
(0.170509 -0.0125462 6.48086e-11)
(0.171312 -0.0152582 3.28854e-11)
(0.172229 -0.017899 5.3741e-12)
(0.173226 -0.0204924 -2.76484e-11)
(0.174265 -0.0229863 1.03451e-11)
(0.175296 -0.0253575 2.94677e-11)
(0.176251 -0.0275524 2.66979e-11)
(0.177046 -0.0295181 1.91068e-11)
(0.177574 -0.031185 1.05204e-11)
(0.177699 -0.0324772 2.07e-12)
(0.177256 -0.0333096 -5.82283e-12)
(0.176047 -0.033595 -1.29495e-11)
(0.173838 -0.0332489 -1.91545e-11)
(0.170361 -0.0321986 -2.41129e-11)
(0.165321 -0.0303967 -2.65667e-11)
(0.158408 -0.027834 -2.08404e-11)
(0.149313 -0.0245567 -1.75213e-11)
(0.137762 -0.0206804 -1.90441e-11)
(0.123541 -0.0163981 -1.30284e-11)
(0.106544 -0.0119866 -8.80056e-12)
(0.0867954 -0.00777501 -7.20971e-12)
(0.0644855 -0.00415546 -3.39034e-12)
(0.0399643 -0.00145046 -1.98212e-12)
(0.013705 -4.9265e-05 -6.52523e-13)
(0.173967 -0.00450866 -1.98326e-11)
(0.174319 -0.00714825 -6.33167e-11)
(0.17483 -0.00996341 6.91134e-11)
(0.175488 -0.0126498 5.40322e-11)
(0.176264 -0.0153389 2.51774e-11)
(0.177132 -0.0179291 -1.59e-12)
(0.17805 -0.0204401 -1.92501e-11)
(0.178971 -0.0228153 6.66761e-12)
(0.179831 -0.0250281 4.24594e-11)
(0.180551 -0.0270228 2.32618e-11)
(0.181034 -0.0287462 1.39959e-11)
(0.181159 -0.0301315 6.31704e-12)
(0.180782 -0.0311093 -9.26407e-13)
(0.179729 -0.0316059 -7.76236e-12)
(0.177801 -0.0315509 -1.40678e-11)
(0.174773 -0.0308823 -1.97613e-11)
(0.170398 -0.0295562 -2.48757e-11)
(0.164414 -0.0275568 -3.0253e-11)
(0.156564 -0.0249079 -1.57784e-11)
(0.146609 -0.0216834 -1.25411e-11)
(0.134355 -0.0180157 -1.60252e-11)
(0.119677 -0.0140951 -1.34004e-11)
(0.102546 -0.010171 -1.09591e-11)
(0.0830467 -0.00651783 -1.20911e-11)
(0.0613872 -0.00344539 -5.3485e-12)
(0.037891 -0.00119038 -2.41408e-12)
(0.0129535 -3.80961e-05 -6.96449e-13)
(0.179 -0.00451839 -3.18955e-11)
(0.179336 -0.00715548 1.40987e-11)
(0.179825 -0.00995669 1.22103e-10)
(0.180445 -0.0126116 5.86112e-11)
(0.181165 -0.0152484 1.84935e-11)
(0.181948 -0.0177605 -1.59583e-11)
(0.182746 -0.0201644 -5.25697e-11)
(0.183501 -0.0224003 -1.35167e-11)
(0.184141 -0.02444 1.00171e-11)
(0.184574 -0.0262276 1.01647e-11)
(0.184694 -0.0277121 6.1985e-12)
(0.184371 -0.0288318 1.06256e-12)
(0.183455 -0.029526 -4.50152e-12)
(0.181771 -0.0297338 -1.0116e-11)
(0.179127 -0.0294019 -1.55457e-11)
(0.175311 -0.0284896 -2.06647e-11)
(0.1701 -0.0269773 -2.52941e-11)
(0.163272 -0.0248745 -2.83891e-11)
(0.154618 -0.0222279 -2.36469e-11)
(0.14396 -0.0191272 -1.96122e-11)
(0.131169 -0.0157096 -2.05103e-11)
(0.116184 -0.0121534 -1.37481e-11)
(0.0990301 -0.0086769 -8.76994e-12)
(0.0798235 -0.00550621 -6.43938e-12)
(0.0587717 -0.00288542 -2.72414e-12)
(0.0361659 -0.000989273 -1.37287e-12)
(0.0123365 -3.05993e-05 -4.35033e-13)
(0.184013 -0.0044832 -1.47214e-10)
(0.184322 -0.00709179 1.45693e-11)
(0.184772 -0.00985175 9.09745e-11)
(0.185331 -0.0124501 5.40828e-11)
(0.185965 -0.0150105 1.14345e-11)
(0.18663 -0.0174234 -2.57403e-11)
(0.187271 -0.0197026 -5.12786e-11)
(0.18782 -0.0217866 -2.99609e-11)
(0.188197 -0.0236471 -1.09147e-11)
(0.188302 -0.0252295 -3.80474e-12)
(0.188021 -0.026487 -2.93657e-12)
(0.18722 -0.0273644 -5.05339e-12)
(0.185747 -0.0278107 -8.60872e-12)
(0.183432 -0.0277782 -1.28181e-11)
(0.180091 -0.0272299 -1.72992e-11)
(0.175531 -0.0261437 -2.20347e-11)
(0.169557 -0.0245198 -2.77032e-11)
(0.161984 -0.0223862 -3.72947e-11)
(0.152648 -0.0198044 -3.49267e-11)
(0.14142 -0.0168714 -2.32884e-11)
(0.128223 -0.0137208 -1.40373e-11)
(0.113043 -0.0105148 -1.17631e-11)
(0.0959371 -0.00744093 -4.15726e-12)
(0.0770376 -0.0046843 -2.54133e-12)
(0.0565428 -0.00243751 3.33948e-12)
(0.0347106 -0.000830525 -5.07465e-15)
(0.0118193 -2.48578e-05 -2.20578e-13)
(0.188959 -0.00440913 -1.7367e-11)
(0.18923 -0.00696699 6.39896e-11)
(0.189625 -0.00966277 1.65737e-10)
(0.190102 -0.012184 6.6063e-11)
(0.190625 -0.0146495 4.75102e-12)
(0.191143 -0.0169478 -4.61682e-11)
(0.191594 -0.0190909 -1.00322e-10)
(0.191904 -0.021017 -5.49856e-11)
(0.191984 -0.0226988 -3.0048e-11)
(0.19173 -0.0240845 -1.75732e-11)
(0.191024 -0.0251322 -1.25119e-11)
(0.189729 -0.0257943 -1.16294e-11)
(0.187696 -0.0260299 -1.30365e-11)
(0.184762 -0.0258038 -1.56448e-11)
(0.180756 -0.0250934 -1.88359e-11)
(0.175507 -0.0238924 -2.22988e-11)
(0.168846 -0.0222162 -2.58934e-11)
(0.160622 -0.0201057 -2.91798e-11)
(0.150711 -0.0176304 -2.84193e-11)
(0.139025 -0.0148887 -2.61784e-11)
(0.125526 -0.0120063 -2.84826e-11)
(0.110232 -0.00912727 -1.75034e-11)
(0.0932194 -0.00641139 -9.58219e-12)
(0.0746258 -0.0040096 -5.40422e-12)
(0.054636 -0.00207448 -2.95045e-12)
(0.0334768 -0.000703319 -2.40928e-12)
(0.0113842 -2.05914e-05 -1.00166e-12)
(0.193798 -0.00430232 3.34105e-11)
(0.194022 -0.00679101 9.34286e-11)
(0.194347 -0.00940399 1.81079e-10)
(0.194723 -0.0118321 6.86219e-11)
(0.195114 -0.0141887 -3.02064e-12)
(0.195459 -0.0163623 -6.38158e-11)
(0.195694 -0.0183633 -1.24145e-10)
(0.195737 -0.0201309 -7.64957e-11)
(0.195496 -0.0216393 -4.71151e-11)
(0.194863 -0.0228408 -3.04806e-11)
(0.193717 -0.0236992 -2.19188e-11)
(0.191924 -0.0241744 -1.82913e-11)
(0.189339 -0.0242354 -1.75776e-11)
(0.185809 -0.0238584 -1.84932e-11)
(0.18118 -0.0230332 -2.02088e-11)
(0.175298 -0.0217658 -2.21474e-11)
(0.168024 -0.020083 -2.37805e-11)
(0.159237 -0.0180337 -2.43892e-11)
(0.148845 -0.0156912 -2.32885e-11)
(0.136793 -0.0131506 -2.4827e-11)
(0.123071 -0.0105276 -3.14795e-11)
(0.10772 -0.0079486 -2.20389e-11)
(0.090828 -0.00554868 -1.32651e-11)
(0.0725293 -0.00345097 -7.23866e-12)
(0.0529942 -0.00177695 -7.3249e-12)
(0.032422 -0.000599929 -6.43646e-12)
(0.0110139 -1.71959e-05 -2.81138e-12)
(0.198498 -0.00416879 5.45034e-11)
(0.198666 -0.00657349 1.00128e-10)
(0.198909 -0.00908907 1.32534e-10)
(0.199169 -0.0114121 6.10568e-11)
(0.199407 -0.0136503 -1.0892e-11)
(0.19956 -0.0156933 -7.74712e-11)
(0.199558 -0.0175504 -1.44661e-10)
(0.199315 -0.0191627 -9.35394e-11)
(0.198736 -0.0205068 -6.16077e-11)
(0.197712 -0.0215394 -4.20546e-11)
(0.196122 -0.02223 -3.0741e-11)
(0.193835 -0.0225464 -2.47551e-11)
(0.190715 -0.0224664 -2.20833e-11)
(0.18662 -0.021976 -2.13533e-11)
(0.181411 -0.0210754 -2.16105e-11)
(0.174956 -0.0197803 -2.21184e-11)
(0.16714 -0.0181249 -2.2103e-11)
(0.157867 -0.0161628 -2.02207e-11)
(0.147073 -0.0139673 -1.30145e-11)
(0.134729 -0.0116284 -1.74276e-11)
(0.120847 -0.00925039 -2.72414e-11)
(0.10548 -0.00694345 -2.86398e-11)
(0.0887223 -0.00482134 -1.48672e-11)
(0.0707022 -0.00298467 -9.74771e-13)
(0.0515749 -0.0015307 -1.32512e-11)
(0.0315156 -0.000514987 -1.45432e-11)
(0.0106973 -1.45232e-05 -7.88444e-12)
(0.203033 -0.00401422 7.07061e-11)
(0.203139 -0.00632354 1.25568e-10)
(0.203288 -0.00873081 1.92727e-10)
(0.203419 -0.0109404 7.26839e-11)
(0.20349 -0.0130543 -1.31959e-11)
(0.203434 -0.0149644 -8.61223e-11)
(0.203179 -0.0166792 -1.55514e-10)
(0.202637 -0.0181424 -1.06125e-10)
(0.201711 -0.0193335 -7.32805e-11)
(0.200291 -0.0202136 -5.19938e-11)
(0.19826 -0.0207583 -3.87111e-11)
(0.195493 -0.0209421 -3.08303e-11)
(0.191861 -0.0207511 -2.64578e-11)
(0.187235 -0.0201796 -2.42405e-11)
(0.181493 -0.019236 -2.32139e-11)
(0.174521 -0.0179428 -2.26803e-11)
(0.166226 -0.0163393 -2.21322e-11)
(0.156536 -0.0144808 -2.12866e-11)
(0.145408 -0.0124383 -2.06586e-11)
(0.132833 -0.0102954 -2.49772e-11)
(0.118837 -0.00814524 -3.40743e-11)
(0.103483 -0.00608309 -2.65638e-11)
(0.0868651 -0.00420478 -1.76139e-11)
(0.0691046 -0.00259268 -1.07646e-11)
(0.0503422 -0.00132514 -1.04919e-11)
(0.0307324 -0.000444493 -8.48391e-12)
(0.0104247 -1.23455e-05 -3.47242e-12)
(0.207383 -0.00384386 8.1056e-11)
(0.207421 -0.00604946 1.41025e-10)
(0.207468 -0.00834085 2.13397e-10)
(0.207459 -0.0104319 8.02787e-11)
(0.207352 -0.0124188 -1.33041e-11)
(0.207076 -0.0141964 -9.0042e-11)
(0.206559 -0.0157731 -1.60241e-10)
(0.20571 -0.0170954 -1.14045e-10)
(0.204432 -0.0181459 -8.19898e-11)
(0.202619 -0.0188903 -6.01753e-11)
(0.200156 -0.0193097 -4.57066e-11)
(0.196926 -0.0193851 -3.64153e-11)
(0.192809 -0.0191093 -3.06377e-11)
(0.18769 -0.0184837 -2.7124e-11)
(0.18146 -0.0175227 -2.49601e-11)
(0.174025 -0.0162539 -2.3521e-11)
(0.16531 -0.0147189 -2.25129e-11)
(0.155262 -0.0129731 -2.21813e-11)
(0.143856 -0.0110839 -2.36355e-11)
(0.131098 -0.00912764 -2.81179e-11)
(0.117025 -0.0071869 -3.5456e-11)
(0.101703 -0.00534393 -2.68185e-11)
(0.0852246 -0.00367941 -1.88801e-11)
(0.0677038 -0.00226103 -1.28235e-11)
(0.0492677 -0.00115227 -9.48484e-12)
(0.0300526 -0.000385515 -6.25911e-12)
(0.0101889 -1.0573e-05 -2.21106e-12)
(0.211534 -0.00366241 8.46199e-11)
(0.2115 -0.00575872 1.44093e-10)
(0.211439 -0.00792953 2.17365e-10)
(0.211282 -0.00989951 8.05951e-11)
(0.210989 -0.0117591 -1.3543e-11)
(0.210486 -0.0134071 -8.98573e-11)
(0.209699 -0.0148516 -1.58501e-10)
(0.20854 -0.0160425 -1.17358e-10)
(0.206913 -0.0169652 -8.80161e-11)
(0.204714 -0.0175903 -6.67716e-11)
(0.201834 -0.0179036 -5.17871e-11)
(0.198162 -0.017892 -4.15131e-11)
(0.19359 -0.0175539 -3.46088e-11)
(0.188014 -0.0168961 -2.99753e-11)
(0.181342 -0.0159378 -2.67477e-11)
(0.173493 -0.0147095 -2.42822e-11)
(0.16441 -0.0132538 -2.22418e-11)
(0.154055 -0.0116246 -2.09772e-11)
(0.142419 -0.00988481 -2.32131e-11)
(0.129517 -0.00810368 -2.70434e-11)
(0.115393 -0.00635402 -3.38397e-11)
(0.100115 -0.00470666 -2.60476e-11)
(0.0837731 -0.00322966 -1.84348e-11)
(0.0664723 -0.00197883 -1.18554e-11)
(0.0483276 -0.00100593 -8.43e-12)
(0.0294601 -0.000335803 -5.26384e-12)
(0.00998389 -9.10392e-06 -1.76969e-12)
(0.215477 -0.00347401 8.29956e-11)
(0.215367 -0.00545783 1.31837e-10)
(0.215193 -0.00750581 1.5702e-10)
(0.214884 -0.00935446 7.0337e-11)
(0.214399 -0.0110886 -1.46713e-11)
(0.213665 -0.0126113 -8.49505e-11)
(0.212608 -0.0139307 -1.32196e-10)
(0.211141 -0.0150003 -1.15696e-10)
(0.20917 -0.0158082 -9.22933e-11)
(0.206596 -0.0163294 -7.2371e-11)
(0.203315 -0.016554 -5.72277e-11)
(0.199227 -0.016474 -4.62404e-11)
(0.19423 -0.0160923 -3.84294e-11)
(0.188235 -0.0154201 -3.28519e-11)
(0.181161 -0.0144796 -2.86768e-11)
(0.172944 -0.0133029 -2.51361e-11)
(0.163539 -0.0119327 -2.13134e-11)
(0.152922 -0.01042 -1.43943e-11)
(0.141094 -0.00882335 -2.04739e-11)
(0.128079 -0.00720484 -2.07135e-11)
(0.113924 -0.00562852 -2.83368e-11)
(0.0986985 -0.00415539 -2.43839e-11)
(0.0824867 -0.00284298 -1.70482e-11)
(0.0653868 -0.00173748 -6.93494e-12)
(0.0475026 -0.000881314 -7.1598e-12)
(0.0289417 -0.000293637 -4.85364e-12)
(0.00980501 -7.88257e-06 -1.6568e-12)
(0.219206 -0.00328223 8.72544e-11)
(0.219019 -0.00515237 1.45562e-10)
(0.218729 -0.00707735 2.18045e-10)
(0.218264 -0.00880615 7.90517e-11)
(0.217586 -0.0104182 -1.59621e-11)
(0.21662 -0.0118212 -9.33249e-11)
(0.215295 -0.0130234 -1.62668e-10)
(0.213525 -0.0139818 -1.2581e-10)
(0.21122 -0.0146874 -9.89133e-11)
(0.208284 -0.0151188 -7.81977e-11)
(0.204623 -0.0152703 -6.24678e-11)
(0.200142 -0.0151378 -5.07805e-11)
(0.194752 -0.014728 -4.22045e-11)
(0.188373 -0.0140552 -3.58903e-11)
(0.180937 -0.0131435 -3.11108e-11)
(0.172393 -0.0120259 -2.72833e-11)
(0.162706 -0.0107436 -2.40959e-11)
(0.151865 -0.00934502 -2.19833e-11)
(0.139877 -0.0078835 -2.42616e-11)
(0.126773 -0.00641482 -2.7989e-11)
(0.112603 -0.00499516 -3.70136e-11)
(0.0974333 -0.00367704 -2.73952e-11)
(0.0813448 -0.00250922 -1.97296e-11)
(0.0644277 -0.00153011 -1.29025e-11)
(0.0467763 -0.000774659 -9.25808e-12)
(0.0284867 -0.000257668 -5.78744e-12)
(0.00964832 -6.8563e-06 -1.94732e-12)
(0.22272 -0.00309008 9.11887e-11)
(0.222455 -0.00484703 1.54735e-10)
(0.222047 -0.00665047 2.36123e-10)
(0.221427 -0.00826234 8.37527e-11)
(0.220555 -0.00975682 -1.88977e-11)
(0.21936 -0.0110465 -1.02759e-10)
(0.217771 -0.0121397 -1.8095e-10)
(0.215705 -0.0129971 -1.36672e-10)
(0.213077 -0.0136119 -1.06452e-10)
(0.209797 -0.0139666 -8.42619e-11)
(0.205777 -0.0140584 -6.76505e-11)
(0.200929 -0.0138868 -5.5232e-11)
(0.195176 -0.0134614 -4.59818e-11)
(0.188447 -0.0127985 -3.90797e-11)
(0.180685 -0.0119236 -3.38834e-11)
(0.17185 -0.0108692 -2.99509e-11)
(0.161917 -0.00967499 -2.71511e-11)
(0.150883 -0.00838602 -2.59193e-11)
(0.138762 -0.00705093 -2.73962e-11)
(0.125589 -0.00571951 -3.17093e-11)
(0.111414 -0.00444101 -3.97764e-11)
(0.0963024 -0.00326074 -3.02666e-11)
(0.0803294 -0.00222011 -2.23073e-11)
(0.0635785 -0.00135118 -1.57589e-11)
(0.0461353 -0.000682948 -1.15442e-11)
(0.0280861 -0.000226832 -7.45568e-12)
(0.0095106 -5.99029e-06 -2.60414e-12)
(0.226021 -0.00290002 9.0929e-11)
(0.225678 -0.00454563 1.5139e-10)
(0.225153 -0.00623034 2.18336e-10)
(0.224378 -0.00772924 7.87148e-11)
(0.223315 -0.00911147 -2.4027e-11)
(0.221894 -0.0102946 -1.10274e-10)
(0.220048 -0.0112873 -1.87751e-10)
(0.217696 -0.0120533 -1.45189e-10)
(0.214759 -0.0125881 -1.13534e-10)
(0.211152 -0.0128774 -9.01634e-11)
(0.206794 -0.0129213 -7.26954e-11)
(0.201606 -0.0127218 -5.95888e-11)
(0.195518 -0.0122906 -4.97464e-11)
(0.18847 -0.0116457 -4.23459e-11)
(0.180416 -0.0108127 -3.6774e-11)
(0.171322 -0.00982339 -3.26044e-11)
(0.161174 -0.00871551 -2.96044e-11)
(0.149975 -0.00753063 -2.77757e-11)
(0.137743 -0.00631291 -2.75581e-11)
(0.124516 -0.0051067 -3.15706e-11)
(0.110345 -0.00395517 -4.01703e-11)
(0.0952906 -0.00289745 -3.29005e-11)
(0.0794251 -0.00196885 -2.39033e-11)
(0.062825 -0.00119623 -1.61502e-11)
(0.0455681 -0.00060376 -1.41241e-11)
(0.0277323 -0.000200277 -1.05147e-11)
(0.00938919 -5.25434e-06 -4.13962e-12)
(0.229112 -0.00271404 8.7559e-11)
(0.228692 -0.00425123 1.36839e-10)
(0.228051 -0.00582105 1.58595e-10)
(0.227123 -0.0072117 6.52131e-11)
(0.225873 -0.00848756 -3.02373e-11)
(0.224232 -0.00957127 -1.16207e-10)
(0.222138 -0.0104714 -1.94241e-10)
(0.219512 -0.0111552 -1.51788e-10)
(0.216281 -0.0116199 -1.19649e-10)
(0.212365 -0.0118541 -9.55642e-11)
(0.207691 -0.0118599 -7.74508e-11)
(0.202187 -0.0116416 -6.37866e-11)
(0.195793 -0.0112125 -5.3456e-11)
(0.188456 -0.0105912 -4.56364e-11)
(0.180138 -0.00980318 -3.97153e-11)
(0.170815 -0.00887919 -3.5217e-11)
(0.160479 -0.00785458 -3.16607e-11)
(0.149137 -0.00676762 -2.81092e-11)
(0.136813 -0.00565821 -2.19857e-11)
(0.123545 -0.00456583 -2.34077e-11)
(0.109382 -0.00352835 -3.67536e-11)
(0.0943844 -0.00257961 -3.88045e-11)
(0.0786185 -0.00174982 -2.43876e-11)
(0.0621549 -0.00106157 -9.13414e-12)
(0.045065 -0.000535126 -1.95178e-11)
(0.0274191 -0.000177316 -1.83631e-11)
(0.00928185 -4.62626e-06 -9.22279e-12)
(0.232 -0.00253369 9.32949e-11)
(0.231503 -0.00396621 1.51328e-10)
(0.230748 -0.00542571 2.11748e-10)
(0.229672 -0.0067134 7.36859e-11)
(0.22824 -0.00788907 -3.08817e-11)
(0.226387 -0.00888038 -1.19085e-10)
(0.224054 -0.00969595 -1.98246e-10)
(0.221167 -0.010306 -1.56291e-10)
(0.217657 -0.0107095 -1.24444e-10)
(0.213452 -0.0108973 -1.00188e-10)
(0.208483 -0.0108734 -8.17614e-11)
(0.202688 -0.0106438 -6.77447e-11)
(0.196012 -0.0102226 -5.70652e-11)
(0.188413 -0.0096288 -4.89302e-11)
(0.179859 -0.00888738 -4.27574e-11)
(0.170332 -0.00802757 -3.8124e-11)
(0.159831 -0.00708236 -3.4734e-11)
(0.148367 -0.00608682 -3.24337e-11)
(0.135966 -0.00507693 -3.15884e-11)
(0.122666 -0.0040878 -3.5645e-11)
(0.108515 -0.00315266 -4.46407e-11)
(0.0935721 -0.00230088 -3.71444e-11)
(0.0778978 -0.00155835 -2.71168e-11)
(0.061558 -0.000944189 -1.8417e-11)
(0.0446177 -0.000475436 -1.59816e-11)
(0.0271411 -0.00015739 -1.17107e-11)
(0.00918669 -4.08747e-06 -4.52786e-12)
(0.23469 -0.00236014 1.06239e-10)
(0.23412 -0.00369233 1.66376e-10)
(0.233255 -0.00504664 2.32096e-10)
(0.232034 -0.00623695 8.13349e-11)
(0.230426 -0.00731876 -2.89265e-11)
(0.22837 -0.0082246 -1.19508e-10)
(0.225808 -0.00896306 -2.00681e-10)
(0.222674 -0.00950726 -1.58877e-10)
(0.218901 -0.00985742 -1.27687e-10)
(0.214424 -0.0100065 -1.03843e-10)
(0.209182 -0.00995997 -8.55149e-11)
(0.203118 -0.00972485 -7.14006e-11)
(0.196186 -0.00931597 -6.05324e-11)
(0.18835 -0.00875219 -5.21865e-11)
(0.179583 -0.00805766 -4.58269e-11)
(0.169876 -0.00726 -4.1087e-11)
(0.15923 -0.00638982 -3.78169e-11)
(0.14766 -0.00547914 -3.62648e-11)
(0.135194 -0.00456037 -3.73748e-11)
(0.121869 -0.00366471 -4.16648e-11)
(0.107735 -0.00282138 -4.94396e-11)
(0.092843 -0.00205589 -3.84245e-11)
(0.0772531 -0.00139055 -2.88318e-11)
(0.0610253 -0.000841562 -2.0748e-11)
(0.0442193 -0.000423361 -1.51467e-11)
(0.0268938 -0.00014004 -9.62105e-12)
(0.00910213 -3.62346e-06 -3.30127e-12)
(0.237193 -0.00219423 1.38997e-10)
(0.236551 -0.00343086 1.80378e-10)
(0.235579 -0.00468543 2.31329e-10)
(0.234219 -0.00578412 8.3218e-11)
(0.232443 -0.00677838 -2.62687e-11)
(0.230192 -0.00760544 -1.15424e-10)
(0.227413 -0.00827383 -1.96618e-10)
(0.224044 -0.00875929 -1.5712e-10)
(0.220025 -0.00906314 -1.2887e-10)
(0.215296 -0.00918015 -1.06451e-10)
(0.2098 -0.00911667 -8.87043e-11)
(0.20349 -0.00888072 -7.47499e-11)
(0.196323 -0.00848728 -6.38462e-11)
(0.188271 -0.0079549 -5.53797e-11)
(0.179315 -0.00730666 -4.88471e-11)
(0.169447 -0.00656851 -4.38432e-11)
(0.158673 -0.00576872 -4.01083e-11)
(0.147012 -0.00493646 -3.79584e-11)
(0.134491 -0.00410088 -4.04482e-11)
(0.121149 -0.00328973 -4.46251e-11)
(0.107031 -0.00252873 -5.07154e-11)
(0.092188 -0.00184011 -3.93185e-11)
(0.0766755 -0.00124313 -2.94493e-11)
(0.060549 -0.0007516 -2.0535e-11)
(0.0438637 -0.000377799 -1.45627e-11)
(0.0266734 -0.000124885 -8.87505e-12)
(0.0090268 -3.22217e-06 -2.9329e-12)
(0.239516 -0.00203653 2.69847e-10)
(0.238806 -0.00318262 1.94391e-10)
(0.237731 -0.00434309 1.82326e-10)
(0.236238 -0.00535595 7.59173e-11)
(0.2343 -0.00626885 -2.39963e-11)
(0.231864 -0.00702352 -1.05896e-10)
(0.228881 -0.00762838 -1.6165e-10)
(0.225292 -0.00806156 -1.50174e-10)
(0.221042 -0.00832529 -1.28664e-10)
(0.216077 -0.00841578 -1.0846e-10)
(0.210347 -0.00834014 -9.15443e-11)
(0.20381 -0.00810693 -7.78861e-11)
(0.19643 -0.00773109 -6.70519e-11)
(0.188184 -0.00723061 -5.85577e-11)
(0.179056 -0.00662742 -5.19161e-11)
(0.169045 -0.00594575 -4.65588e-11)
(0.158159 -0.00521162 -4.1527e-11)
(0.146418 -0.00445155 -3.45326e-11)
(0.133851 -0.00369176 -4.20194e-11)
(0.120496 -0.00295694 -4.63992e-11)
(0.106395 -0.00226978 -4.79787e-11)
(0.0915989 -0.00164967 -4.00745e-11)
(0.0761572 -0.00111332 -2.97118e-11)
(0.0601224 -0.000672542 -1.71667e-11)
(0.0435457 -0.000337827 -1.40268e-11)
(0.0264764 -0.000111611 -8.79674e-12)
(0.00895955 -2.87386e-06 -2.90676e-12)
(0.24167 -0.00188736 1.65668e-10)
(0.240894 -0.00294806 1.93528e-10)
(0.23972 -0.00402014 2.38561e-10)
(0.2381 -0.00495291 8.65312e-11)
(0.23601 -0.00579044 -2.16685e-11)
(0.233399 -0.00647876 -1.09291e-10)
(0.230222 -0.00702612 -1.8559e-10)
(0.226426 -0.00741285 -1.55196e-10)
(0.221961 -0.00764186 -1.31178e-10)
(0.216777 -0.00771059 -1.11056e-10)
(0.210832 -0.00762662 -9.44496e-11)
(0.204087 -0.00739887 -8.09673e-11)
(0.196513 -0.00704198 -7.02183e-11)
(0.18809 -0.00657326 -6.18165e-11)
(0.178809 -0.0060134 -5.53602e-11)
(0.16867 -0.00538494 -5.04596e-11)
(0.157686 -0.00471177 -4.68143e-11)
(0.145876 -0.00401797 -4.47514e-11)
(0.13327 -0.00332712 -4.79989e-11)