/*--------------------------------*- C++ -*----------------------------------*\
| =========                 |                                                 |
| \\      /  F ield         | OpenFOAM: The Open Source CFD Toolbox           |
|  \\    /   O peration     | Version:  2106                                  |
|   \\  /    A nd           | Website:  www.openfoam.com                      |
|    \\/     M anipulation  |                                                 |
\*---------------------------------------------------------------------------*/
FoamFile
{
    version     2.0;
    format      ascii;
    arch        "LSB;label=32;scalar=64";
    class       volScalarField;
    location    "160.00011";
    object      A1C2H;
}
// * * * * * * * * * * * * * * * * * * * * * * * * * * * * * * * * * * * * * //

dimensions      [0 0 0 0 0 0 0];

internalField   nonuniform List<scalar> 
3360
(
1.22952e-17
1.26908e-17
1.32414e-17
1.39148e-17
1.4683e-17
1.55209e-17
1.64056e-17
1.73166e-17
1.82356e-17
1.91465e-17
2.00352e-17
2.08899e-17
2.17007e-17
2.24599e-17
2.31615e-17
2.38013e-17
2.43768e-17
2.48868e-17
2.53317e-17
2.57126e-17
2.6032e-17
2.62929e-17
2.64989e-17
2.66543e-17
2.67636e-17
2.68317e-17
2.68632e-17
5.39361e-17
5.59185e-17
5.87159e-17
6.21995e-17
6.62627e-17
7.08124e-17
7.57654e-17
8.10456e-17
8.65822e-17
9.23084e-17
9.81598e-17
1.04074e-16
1.09989e-16
1.15845e-16
1.21581e-16
1.27139e-16
1.32461e-16
1.37492e-16
1.42176e-16
1.46466e-16
1.50314e-16
1.53679e-16
1.56528e-16
1.58832e-16
1.6057e-16
1.61731e-16
1.6231e-16
1.6923e-16
1.76657e-16
1.8721e-16
2.00471e-16
2.16093e-16
2.33762e-16
2.53183e-16
2.74062e-16
2.96103e-16
3.19005e-16
3.42457e-16
3.66155e-16
3.89792e-16
4.13071e-16
4.357e-16
4.57403e-16
4.77928e-16
4.97043e-16
5.14552e-16
5.3029e-16
5.44129e-16
5.55979e-16
5.6579e-16
5.73544e-16
5.79261e-16
5.82989e-16
5.84803e-16
4.92843e-16
5.17321e-16
5.52338e-16
5.96641e-16
6.49183e-16
7.08983e-16
7.7506e-16
8.46398e-16
9.2193e-16
1.00054e-15
1.08106e-15
1.16232e-15
1.24315e-15
1.3224e-15
1.39901e-15
1.47197e-15
1.5404e-15
1.60356e-15
1.66085e-15
1.71181e-15
1.75616e-15
1.79372e-15
1.82449e-15
1.84855e-15
1.86611e-15
1.87745e-15
1.88292e-15
1.43988e-15
1.5171e-15
1.62777e-15
1.76812e-15
1.93494e-15
2.12513e-15
2.33554e-15
2.56281e-15
2.80334e-15
3.05338e-15
3.30901e-15
3.5663e-15
3.82139e-15
4.07059e-15
4.31049e-15
4.53803e-15
4.75056e-15
4.94593e-15
5.12243e-15
5.27885e-15
5.41447e-15
5.52899e-15
5.62249e-15
5.69542e-15
5.7485e-15
5.7827e-15
5.79915e-15
4.2455e-15
4.48264e-15
4.82295e-15
5.25487e-15
5.76853e-15
6.35435e-15
7.00243e-15
7.70221e-15
8.44244e-15
9.21126e-15
9.99644e-15
1.07857e-14
1.15671e-14
1.23291e-14
1.30615e-14
1.37549e-14
1.44014e-14
1.49945e-14
1.55294e-14
1.60027e-14
1.64123e-14
1.67576e-14
1.70392e-14
1.72584e-14
1.74178e-14
1.75204e-14
1.75697e-14
1.26112e-14
1.33317e-14
1.43657e-14
1.56782e-14
1.72389e-14
1.90184e-14
2.09863e-14
2.31099e-14
2.53547e-14
2.76843e-14
3.00612e-14
3.24482e-14
3.4809e-14
3.71094e-14
3.9318e-14
4.14071e-14
4.33534e-14
4.51378e-14
4.6746e-14
4.8168e-14
4.93982e-14
5.04348e-14
5.12797e-14
5.19376e-14
5.24157e-14
5.27233e-14
5.28711e-14
3.75861e-14
3.97543e-14
4.28672e-14
4.68197e-14
5.15211e-14
5.68827e-14
6.28118e-14
6.921e-14
7.59721e-14
8.29879e-14
9.01443e-14
9.73286e-14
1.04431e-13
1.11349e-13
1.17988e-13
1.24266e-13
1.30111e-13
1.35468e-13
1.40294e-13
1.44559e-13
1.48247e-13
1.51354e-13
1.53885e-13
1.55855e-13
1.57286e-13
1.58206e-13
1.58649e-13
1.12318e-13
1.18834e-13
1.28188e-13
1.40063e-13
1.54187e-13
1.7029e-13
1.88094e-13
2.07301e-13
2.27595e-13
2.48642e-13
2.70104e-13
2.91642e-13
3.12928e-13
3.33654e-13
3.53539e-13
3.72335e-13
3.89834e-13
4.05868e-13
4.20309e-13
4.33072e-13
4.44107e-13
4.53401e-13
4.60973e-13
4.66867e-13
4.71148e-13
4.73902e-13
4.75225e-13
3.35661e-13
3.55179e-13
3.832e-13
4.18777e-13
4.61091e-13
5.09336e-13
5.62675e-13
6.20212e-13
6.80997e-13
7.44032e-13
8.08299e-13
8.72782e-13
9.36499e-13
9.98526e-13
1.05802e-12
1.11425e-12
1.16659e-12
1.21453e-12
1.2577e-12
1.29584e-12
1.32882e-12
1.35658e-12
1.37919e-12
1.39679e-12
1.40957e-12
1.41779e-12
1.42174e-12
1.00363e-12
1.06206e-12
1.14593e-12
1.2524e-12
1.379e-12
1.52332e-12
1.68282e-12
1.85484e-12
2.0365e-12
2.22483e-12
2.41678e-12
2.60932e-12
2.79951e-12
2.9846e-12
3.16209e-12
3.32979e-12
3.48584e-12
3.62876e-12
3.75743e-12
3.87109e-12
3.96934e-12
4.05206e-12
4.11942e-12
4.17184e-12
4.20991e-12
4.23439e-12
4.24615e-12
2.99804e-12
3.17251e-12
3.42294e-12
3.74079e-12
4.11867e-12
4.54932e-12
5.02518e-12
5.53818e-12
6.0798e-12
6.6411e-12
7.21298e-12
7.7864e-12
8.35261e-12
8.90345e-12
9.43147e-12
9.93017e-12
1.03941e-11
1.08188e-11
1.1201e-11
1.15386e-11
1.18302e-11
1.20757e-11
1.22756e-11
1.24311e-11
1.25439e-11
1.26165e-11
1.26514e-11
8.94625e-12
9.46635e-12
1.02126e-11
1.11593e-11
1.22843e-11
1.35657e-11
1.49807e-11
1.65053e-11
1.81139e-11
1.97798e-11
2.14761e-11
2.31757e-11
2.4853e-11
2.64837e-11
2.8046e-11
2.95206e-11
3.08917e-11
3.21463e-11
3.32749e-11
3.42711e-11
3.51316e-11
3.58557e-11
3.6445e-11
3.69033e-11
3.72359e-11
3.74498e-11
3.75525e-11
2.66199e-11
2.81632e-11
3.03767e-11
3.31837e-11
3.65171e-11
4.03113e-11
4.44982e-11
4.90055e-11
5.3757e-11
5.86736e-11
6.3675e-11
6.8682e-11
7.36184e-11
7.84134e-11
8.30031e-11
8.73316e-11
9.13527e-11
9.50293e-11
9.83342e-11
1.01249e-10
1.03766e-10
1.05882e-10
1.07603e-10
1.08941e-10
1.09912e-10
1.10535e-10
1.10835e-10
7.89261e-11
8.34806e-11
9.00085e-11
9.82794e-11
1.08092e-10
1.19248e-10
1.31543e-10
1.44763e-10
1.58679e-10
1.73058e-10
1.87665e-10
2.02267e-10
2.16643e-10
2.30588e-10
2.43919e-10
2.56475e-10
2.68125e-10
2.78766e-10
2.88321e-10
2.96741e-10
3.04002e-10
3.10104e-10
3.15063e-10
3.18916e-10
3.21709e-10
3.23503e-10
3.24364e-10
2.32645e-10
2.45957e-10
2.6502e-10
2.89145e-10
3.17728e-10
3.50175e-10
3.85875e-10
4.24189e-10
4.64447e-10
5.05967e-10
5.48062e-10
5.90063e-10
6.31336e-10
6.71298e-10
7.09429e-10
7.45284e-10
7.78496e-10
8.08782e-10
8.35938e-10
8.59835e-10
8.80418e-10
8.97691e-10
9.11716e-10
9.22599e-10
9.30484e-10
9.35543e-10
9.37969e-10
6.80467e-10
7.18869e-10
7.73793e-10
8.43186e-10
9.25237e-10
1.01818e-09
1.12019e-09
1.22939e-09
1.34385e-09
1.46157e-09
1.5806e-09
1.69906e-09
1.81516e-09
1.92729e-09
2.03403e-09
2.13416e-09
2.22671e-09
2.31093e-09
2.3863e-09
2.45251e-09
2.50943e-09
2.55714e-09
2.59582e-09
2.6258e-09
2.64749e-09
2.6614e-09
2.66806e-09
1.96933e-09
2.07808e-09
2.23333e-09
2.42905e-09
2.65986e-09
2.92052e-09
3.20572e-09
3.51e-09
3.8278e-09
4.15354e-09
4.48177e-09
4.80728e-09
5.12526e-09
5.43138e-09
5.72187e-09
5.99359e-09
6.24405e-09
6.47137e-09
6.67432e-09
6.8522e-09
7.00484e-09
7.13251e-09
7.23585e-09
7.31582e-09
7.37362e-09
7.41062e-09
7.42833e-09
5.62039e-09
5.92075e-09
6.34861e-09
6.88636e-09
7.51834e-09
8.22932e-09
9.00402e-09
9.82702e-09
1.06828e-08
1.15562e-08
1.24325e-08
1.32978e-08
1.41398e-08
1.49471e-08
1.57104e-08
1.64219e-08
1.70756e-08
1.76671e-08
1.81937e-08
1.86541e-08
1.90483e-08
1.93772e-08
1.9643e-08
1.98483e-08
1.99965e-08
2.00912e-08
2.01364e-08
1.57486e-08
1.65517e-08
1.76924e-08
1.9121e-08
2.07928e-08
2.26647e-08
2.46944e-08
2.68396e-08
2.90588e-08
3.1312e-08
3.35613e-08
3.57719e-08
3.79126e-08
3.99564e-08
4.18806e-08
4.36673e-08
4.53029e-08
4.6778e-08
4.80873e-08
4.92286e-08
5.02033e-08
5.10149e-08
5.16692e-08
5.21737e-08
5.25372e-08
5.27692e-08
5.288e-08
4.31052e-08
4.51677e-08
4.80879e-08
5.17295e-08
5.59702e-08
6.06936e-08
6.57862e-08
7.1138e-08
7.66428e-08
8.22006e-08
8.77185e-08
9.31132e-08
9.83115e-08
1.03251e-07
1.07882e-07
1.12164e-07
1.1607e-07
1.1958e-07
1.22686e-07
1.25385e-07
1.27685e-07
1.29595e-07
1.31132e-07
1.32315e-07
1.33166e-07
1.33709e-07
1.33967e-07
1.14571e-07
1.19623e-07
1.2675e-07
1.35598e-07
1.45849e-07
1.57203e-07
1.69373e-07
1.82087e-07
1.95088e-07
2.08139e-07
2.21025e-07
2.33558e-07
2.45575e-07
2.56943e-07
2.67554e-07
2.77327e-07
2.86209e-07
2.94165e-07
3.01184e-07
3.07269e-07
3.12438e-07
3.16724e-07
3.20165e-07
3.22809e-07
3.24708e-07
3.25917e-07
3.26492e-07
2.94008e-07
3.05751e-07
3.22261e-07
3.42667e-07
3.66189e-07
3.921e-07
4.19718e-07
4.48408e-07
4.77582e-07
5.06713e-07
5.35329e-07
5.63025e-07
5.89462e-07
6.14364e-07
6.37517e-07
6.58769e-07
6.78017e-07
6.9521e-07
7.10334e-07
7.23415e-07
7.34504e-07
7.43679e-07
7.51033e-07
7.56675e-07
7.60721e-07
7.63293e-07
7.64517e-07
7.24868e-07
7.50732e-07
7.86982e-07
8.31611e-07
8.82824e-07
9.38967e-07
9.98513e-07
1.06006e-06
1.12235e-06
1.18425e-06
1.2448e-06
1.30315e-06
1.35863e-06
1.4107e-06
1.45896e-06
1.50312e-06
1.54301e-06
1.57854e-06
1.60973e-06
1.63665e-06
1.65943e-06
1.67825e-06
1.69331e-06
1.70485e-06
1.71311e-06
1.71836e-06
1.72086e-06
1.71201e-06
1.76612e-06
1.84176e-06
1.93459e-06
2.04072e-06
2.15662e-06
2.27904e-06
2.40508e-06
2.53213e-06
2.65793e-06
2.78052e-06
2.89829e-06
3.00992e-06
3.11439e-06
3.21095e-06
3.2991e-06
3.37854e-06
3.44918e-06
3.51107e-06
3.5644e-06
3.60946e-06
3.64663e-06
3.67635e-06
3.69909e-06
3.71537e-06
3.7257e-06
3.7306e-06
3.87144e-06
3.97959e-06
4.13049e-06
4.31523e-06
4.52586e-06
4.75519e-06
4.99671e-06
5.24463e-06
5.49382e-06
5.73987e-06
5.97902e-06
6.2082e-06
6.42493e-06
6.62734e-06
6.81406e-06
6.98421e-06
7.1373e-06
7.27323e-06
7.39215e-06
7.49451e-06
7.5809e-06
7.65209e-06
7.70896e-06
7.75244e-06
7.78354e-06
7.80327e-06
7.81263e-06
8.39555e-06
8.60374e-06
8.89385e-06
9.24841e-06
9.65191e-06
1.00904e-05
1.05512e-05
1.10233e-05
1.14969e-05
1.19636e-05
1.24165e-05
1.28498e-05
1.32589e-05
1.36404e-05
1.39919e-05
1.43118e-05
1.45994e-05
1.48544e-05
1.50774e-05
1.52691e-05
1.54308e-05
1.55639e-05
1.56702e-05
1.57515e-05
1.58095e-05
1.58463e-05
1.58638e-05
1.75067e-05
1.78961e-05
1.84383e-05
1.91004e-05
1.98531e-05
2.06702e-05
2.15279e-05
2.24057e-05
2.32853e-05
2.41513e-05
2.49908e-05
2.57933e-05
2.65504e-05
2.72559e-05
2.79054e-05
2.84961e-05
2.90267e-05
2.94971e-05
2.99081e-05
3.02613e-05
3.05591e-05
3.08042e-05
3.09998e-05
3.11492e-05
3.12559e-05
3.13236e-05
3.13557e-05
3.51849e-05
3.58985e-05
3.6892e-05
3.81048e-05
3.94834e-05
4.09795e-05
4.255e-05
4.4157e-05
4.57672e-05
4.73526e-05
4.88893e-05
5.03582e-05
5.17441e-05
5.30355e-05
5.42244e-05
5.53058e-05
5.62771e-05
5.71381e-05
5.78903e-05
5.85367e-05
5.90816e-05
5.95301e-05
5.98879e-05
6.01612e-05
6.03564e-05
6.04802e-05
6.05388e-05
6.81675e-05
6.94534e-05
7.12445e-05
7.34326e-05
7.59218e-05
7.86257e-05
8.14673e-05
8.43783e-05
8.7299e-05
9.01783e-05
9.29732e-05
9.56483e-05
9.81756e-05
0.000100534
0.000102707
0.000104686
0.000106466
0.000108045
0.000109426
0.000110613
0.000111615
0.00011244
0.000113099
0.000113602
0.000113961
0.000114189
0.000114297
0.000126847
0.000129108
0.000132259
0.000136114
0.000140506
0.000145285
0.000150318
0.000155485
0.000160683
0.00016582
0.00017082
0.000175619
0.000180165
0.00018442
0.000188353
0.000191944
0.000195183
0.000198064
0.000200589
0.000202767
0.000204608
0.000206127
0.000207342
0.000208272
0.000208937
0.00020936
0.00020956
0.000224941
0.000228713
0.000233975
0.000240417
0.000247765
0.000255773
0.000264218
0.000272903
0.000281653
0.000290318
0.000298768
0.000306893
0.000314607
0.000321839
0.000328537
0.000334665
0.000340201
0.000345134
0.000349466
0.000353207
0.000356375
0.000358993
0.00036109
0.000362698
0.00036385
0.000364582
0.000364929
0.000376431
0.000382183
0.000390202
0.000400008
0.000411179
0.000423334
0.000436131
0.000449268
0.000462478
0.000475532
0.000488235
0.000500426
0.000511973
0.000522776
0.000532761
0.000541878
0.000550095
0.000557401
0.000563803
0.000569319
0.000573981
0.000577826
0.0005809
0.000583253
0.000584936
0.000586004
0.000586511
0.000589149
0.000596906
0.000607692
0.000620839
0.000635755
0.000651913
0.000668842
0.000686133
0.000703427
0.000720422
0.000736862
0.000752549
0.000767323
0.000781071
0.00079371
0.000805191
0.000815492
0.000824613
0.000832575
0.000839413
0.000845172
0.00084991
0.000853689
0.000856574
0.000858634
0.00085994
0.000860559
0.000857967
0.000867119
0.000879802
0.000895194
0.000912568
0.000931282
0.000950769
0.000970544
0.000990197
0.00100939
0.00102784
0.00104535
0.00106174
0.00107692
0.0010908
0.00110336
0.00111457
0.00112447
0.00113307
0.00114044
0.00114663
0.00115171
0.00115576
0.00115884
0.00116104
0.00116243
0.00116309
0.00116382
0.0011734
0.00118663
0.00120264
0.00122063
0.00123992
0.0012599
0.00128008
0.00130003
0.00131942
0.00133799
0.00135552
0.00137188
0.00138696
0.00140071
0.00141311
0.00142416
0.00143389
0.00144233
0.00144955
0.00145561
0.00146058
0.00146453
0.00146754
0.00146968
0.00147104
0.00147169
0.00148189
0.00149104
0.00150368
0.00151892
0.001536
0.00155426
0.00157313
0.00159212
0.00161085
0.00162901
0.00164635
0.0016627
0.00167791
0.00169193
0.00170468
0.00171617
0.00172641
0.00173541
0.00174322
0.0017499
0.0017555
0.00176009
0.00176375
0.00176654
0.00176853
0.00176979
0.00177038
0.00179089
0.00179915
0.00181054
0.00182426
0.00183963
0.00185605
0.00187299
0.00189003
0.00190682
0.00192309
0.00193861
0.00195324
0.00196686
0.0019794
0.00199082
0.00200111
0.00201027
0.00201834
0.00202535
0.00203134
0.00203637
0.0020405
0.00204379
0.0020463
0.0020481
0.00204923
0.00204977
0.00207777
0.00208501
0.00209499
0.00210701
0.00212048
0.00213487
0.00214972
0.00216467
0.00217941
0.00219369
0.00220734
0.0022202
0.00223219
0.00224324
0.00225331
0.00226239
0.00227049
0.00227762
0.00228383
0.00228914
0.00229361
0.00229727
0.0023002
0.00230243
0.00230403
0.00230504
0.00230553
0.00233726
0.00234355
0.00235222
0.00236268
0.0023744
0.00238694
0.00239989
0.00241294
0.00242582
0.00243832
0.00245027
0.00246155
0.00247208
0.00248179
0.00249065
0.00249865
0.0025058
0.0025121
0.00251758
0.00252228
0.00252624
0.00252949
0.00253209
0.00253407
0.00253549
0.00253639
0.00253682
0.0025692
0.00257468
0.00258226
0.0025914
0.00260165
0.00261263
0.00262398
0.00263543
0.00264675
0.00265774
0.00266827
0.00267822
0.00268751
0.0026961
0.00270394
0.00271102
0.00271736
0.00272295
0.00272782
0.00273199
0.00273551
0.00273841
0.00274072
0.00274248
0.00274375
0.00274455
0.00274494
0.002776
0.00278084
0.00278753
0.0027956
0.00280466
0.00281437
0.00282443
0.00283458
0.00284462
0.00285439
0.00286375
0.0028726
0.00288088
0.00288853
0.00289553
0.00290186
0.00290752
0.00291252
0.00291687
0.00292061
0.00292376
0.00292635
0.00292843
0.00293001
0.00293115
0.00293187
0.00293221
0.00296099
0.00296532
0.00297129
0.00297851
0.00298662
0.00299531
0.00300432
0.00301342
0.00302243
0.00303121
0.00303962
0.00304758
0.00305503
0.00306192
0.00306823
0.00307393
0.00307903
0.00308354
0.00308747
0.00309085
0.00309369
0.00309604
0.00309791
0.00309934
0.00310037
0.00310102
0.00310133
0.00312752
0.00313143
0.00313683
0.00314336
0.0031507
0.00315857
0.00316674
0.003175
0.00318317
0.00319113
0.00319877
0.00320601
0.00321278
0.00321904
0.00322478
0.00322997
0.00323461
0.00323872
0.00324229
0.00324537
0.00324796
0.00325009
0.0032518
0.0032531
0.00325403
0.00325463
0.00325491
0.00327857
0.00328215
0.00328709
0.00329306
0.00329978
0.00330699
0.00331446
0.00332202
0.00332952
0.00333681
0.00334382
0.00335045
0.00335667
0.00336241
0.00336768
0.00337244
0.0033767
0.00338047
0.00338376
0.00338658
0.00338896
0.00339092
0.00339248
0.00339368
0.00339454
0.00339508
0.00339534
0.00341671
0.00342001
0.00342457
0.00343009
0.0034363
0.00344296
0.00344986
0.00345685
0.00346378
0.00347053
0.003477
0.00348314
0.00348889
0.00349421
0.00349908
0.00350348
0.00350743
0.00351092
0.00351396
0.00351657
0.00351877
0.00352058
0.00352203
0.00352314
0.00352393
0.00352444
0.00352468
0.00354406
0.00354713
0.00355138
0.00355652
0.0035623
0.0035685
0.00357493
0.00358144
0.0035879
0.00359418
0.00360022
0.00360594
0.0036113
0.00361626
0.00362079
0.0036249
0.00362858
0.00363183
0.00363467
0.0036371
0.00363915
0.00364084
0.00364219
0.00364322
0.00364396
0.00364443
0.00364466
0.00366236
0.00366524
0.00366922
0.00367404
0.00367946
0.00368527
0.00369131
0.00369742
0.00370347
0.00370937
0.00371504
0.0037204
0.00372543
0.00373008
0.00373434
0.0037382
0.00374165
0.0037447
0.00374736
0.00374965
0.00375157
0.00375316
0.00375442
0.00375539
0.00375608
0.00375652
0.00375673
0.00377302
0.00377574
0.0037795
0.00378404
0.00378916
0.00379465
0.00380035
0.00380611
0.00381183
0.0038174
0.00382275
0.00382782
0.00383256
0.00383695
0.00384098
0.00384462
0.00384788
0.00385076
0.00385327
0.00385542
0.00385724
0.00385874
0.00385993
0.00386085
0.0038615
0.00386192
0.00386212
0.00387723
0.00387981
0.00388337
0.00388769
0.00389254
0.00389775
0.00390316
0.00390863
0.00391406
0.00391935
0.00392443
0.00392924
0.00393374
0.00393792
0.00394173
0.00394519
0.00394828
0.00395102
0.0039534
0.00395545
0.00395718
0.0039586
0.00395973
0.0039606
0.00396122
0.00396162
0.0039618
0.00397593
0.00397839
0.00398179
0.00398591
0.00399054
0.00399551
0.00400067
0.00400589
0.00401107
0.00401612
0.00402096
0.00402555
0.00402985
0.00403383
0.00403748
0.00404078
0.00404373
0.00404634
0.00404861
0.00405057
0.00405221
0.00405357
0.00405465
0.00405548
0.00405607
0.00405645
0.00405663
0.00406994
0.00407229
0.00407555
0.0040795
0.00408393
0.0040887
0.00409364
0.00409865
0.00410361
0.00410845
0.00411309
0.0041175
0.00412162
0.00412543
0.00412893
0.00413209
0.00413492
0.00413742
0.0041396
0.00414148
0.00414306
0.00414435
0.00414539
0.00414618
0.00414675
0.00414711
0.00414729
0.00415991
0.00416217
0.00416531
0.00416911
0.00417338
0.00417796
0.00418272
0.00418754
0.00419232
0.00419697
0.00420144
0.00420568
0.00420965
0.00421332
0.00421669
0.00421973
0.00422246
0.00422487
0.00422697
0.00422877
0.00423029
0.00423154
0.00423254
0.0042333
0.00423385
0.00423419
0.00423436
0.0042464
0.00424859
0.00425162
0.00425529
0.00425941
0.00426384
0.00426844
0.0042731
0.00427771
0.00428221
0.00428653
0.00429063
0.00429446
0.00429801
0.00430127
0.00430421
0.00430684
0.00430917
0.0043112
0.00431294
0.00431441
0.00431562
0.00431658
0.00431732
0.00431785
0.00431818
0.00431834
0.00432989
0.00433202
0.00433495
0.00433851
0.00434251
0.0043468
0.00435126
0.00435578
0.00436025
0.00436462
0.0043688
0.00437278
0.0043765
0.00437994
0.00438309
0.00438595
0.0043885
0.00439076
0.00439273
0.00439441
0.00439584
0.00439701
0.00439795
0.00439866
0.00439917
0.0043995
0.00439965
0.00441079
0.00441285
0.00441571
0.00441916
0.00442305
0.00442723
0.00443157
0.00443596
0.00444031
0.00444456
0.00444863
0.0044525
0.00445611
0.00445946
0.00446253
0.00446531
0.00446779
0.00446999
0.0044719
0.00447355
0.00447493
0.00447607
0.00447698
0.00447768
0.00447818
0.00447849
0.00447864
0.00448942
0.00449143
0.00449422
0.00449759
0.00450138
0.00450546
0.00450969
0.00451397
0.00451822
0.00452236
0.00452633
0.0045301
0.00453363
0.0045369
0.00453989
0.0045426
0.00454503
0.00454717
0.00454904
0.00455064
0.004552
0.00455311
0.004554
0.00455468
0.00455516
0.00455547
0.00455562
0.00456608
0.00456805
0.00457077
0.00457407
0.00457778
0.00458177
0.0045859
0.00459009
0.00459425
0.00459829
0.00460218
0.00460587
0.00460932
0.00461252
0.00461545
0.0046181
0.00462047
0.00462257
0.0046244
0.00462596
0.00462729
0.00462837
0.00462924
0.00462991
0.00463038
0.00463069
0.00463083
0.00464102
0.00464295
0.00464562
0.00464885
0.00465249
0.0046564
0.00466045
0.00466456
0.00466863
0.0046726
0.00467641
0.00468003
0.00468341
0.00468655
0.00468942
0.00469202
0.00469434
0.0046964
0.00469819
0.00469973
0.00470102
0.00470209
0.00470294
0.00470359
0.00470406
0.00470436
0.0047045
0.00471445
0.00471635
0.00471897
0.00472214
0.00472572
0.00472955
0.00473354
0.00473757
0.00474157
0.00474547
0.00474922
0.00475277
0.00475609
0.00475917
0.00476199
0.00476455
0.00476683
0.00476885
0.00477061
0.00477212
0.0047734
0.00477444
0.00477528
0.00477592
0.00477638
0.00477667
0.00477681
0.00478655
0.00478842
0.004791
0.00479412
0.00479763
0.00480141
0.00480533
0.0048093
0.00481324
0.00481707
0.00482076
0.00482425
0.00482753
0.00483056
0.00483333
0.00483585
0.0048381
0.00484008
0.00484182
0.0048433
0.00484456
0.00484559
0.00484641
0.00484704
0.00484749
0.00484778
0.00484792
0.00485747
0.00485931
0.00486185
0.00486493
0.00486839
0.00487211
0.00487597
0.00487988
0.00488376
0.00488755
0.00489118
0.00489462
0.00489785
0.00490084
0.00490357
0.00490605
0.00490827
0.00491023
0.00491193
0.0049134
0.00491464
0.00491565
0.00491646
0.00491708
0.00491753
0.00491781
0.00491795
0.00492732
0.00492914
0.00493164
0.00493468
0.0049381
0.00494177
0.00494558
0.00494944
0.00495327
0.004957
0.00496059
0.00496399
0.00496717
0.00497012
0.00497282
0.00497526
0.00497745
0.00497938
0.00498107
0.00498252
0.00498373
0.00498474
0.00498554
0.00498615
0.00498659
0.00498687
0.004987
0.00499621
0.004998
0.00500048
0.00500348
0.00500686
0.00501048
0.00501425
0.00501806
0.00502184
0.00502553
0.00502907
0.00503243
0.00503557
0.00503848
0.00504115
0.00504356
0.00504573
0.00504763
0.0050493
0.00505073
0.00505193
0.00505292
0.00505372
0.00505432
0.00505475
0.00505503
0.00505516
0.00506421
0.00506598
0.00506843
0.0050714
0.00507473
0.00507832
0.00508204
0.00508581
0.00508954
0.00509319
0.00509669
0.00510001
0.00510312
0.00510599
0.00510863
0.00511102
0.00511315
0.00511504
0.00511669
0.0051181
0.00511929
0.00512027
0.00512105
0.00512165
0.00512208
0.00512235
0.00512248
0.00513137
0.00513312
0.00513555
0.00513848
0.00514178
0.00514532
0.005149
0.00515273
0.00515642
0.00516003
0.00516349
0.00516677
0.00516984
0.00517269
0.00517529
0.00517765
0.00517976
0.00518163
0.00518326
0.00518465
0.00518583
0.0051868
0.00518757
0.00518816
0.00518859
0.00518886
0.00518898
0.00519772
0.00519946
0.00520185
0.00520475
0.00520801
0.00521152
0.00521516
0.00521884
0.00522249
0.00522606
0.00522948
0.00523273
0.00523577
0.00523858
0.00524116
0.00524349
0.00524558
0.00524742
0.00524903
0.00525041
0.00525157
0.00525253
0.0052533
0.00525388
0.0052543
0.00525456
0.00525469
0.00526327
0.00526498
0.00526735
0.00527021
0.00527344
0.00527691
0.0052805
0.00528415
0.00528776
0.00529128
0.00529467
0.00529787
0.00530088
0.00530366
0.00530621
0.00530851
0.00531058
0.0053124
0.00531399
0.00531535
0.0053165
0.00531745
0.00531821
0.00531878
0.0053192
0.00531946
0.00531958
0.00532799
0.00532968
0.00533202
0.00533485
0.00533804
0.00534146
0.00534502
0.00534862
0.00535219
0.00535567
0.00535901
0.00536218
0.00536515
0.0053679
0.00537041
0.00537269
0.00537473
0.00537653
0.0053781
0.00537945
0.00538058
0.00538152
0.00538226
0.00538283
0.00538324
0.0053835
0.00538362
0.00539185
0.00539352
0.00539582
0.00539862
0.00540177
0.00540515
0.00540865
0.00541221
0.00541573
0.00541916
0.00542246
0.00542559
0.00542852
0.00543123
0.00543371
0.00543596
0.00543797
0.00543975
0.0054413
0.00544262
0.00544375
0.00544467
0.0054454
0.00544597
0.00544637
0.00544662
0.00544675
0.00545476
0.00545641
0.00545869
0.00546144
0.00546454
0.00546787
0.00547133
0.00547483
0.0054783
0.00548169
0.00548494
0.00548802
0.0054909
0.00549357
0.00549602
0.00549823
0.00550021
0.00550196
0.00550349
0.0055048
0.0055059
0.00550681
0.00550754
0.00550809
0.00550849
0.00550874
0.00550886
0.00551665
0.00551827
0.00552051
0.00552322
0.00552627
0.00552955
0.00553295
0.00553639
0.0055398
0.00554313
0.00554633
0.00554936
0.00555219
0.00555482
0.00555722
0.0055594
0.00556134
0.00556306
0.00556456
0.00556585
0.00556693
0.00556783
0.00556854
0.00556908
0.00556947
0.00556972
0.00556984
0.00557738
0.00557897
0.00558116
0.00558382
0.00558682
0.00559003
0.00559337
0.00559674
0.00560009
0.00560336
0.00560649
0.00560946
0.00561224
0.00561481
0.00561717
0.0056193
0.00562121
0.0056229
0.00562437
0.00562563
0.00562669
0.00562756
0.00562826
0.0056288
0.00562918
0.00562942
0.00562954
0.00563679
0.00563834
0.00564049
0.00564309
0.00564602
0.00564916
0.00565243
0.00565573
0.005659
0.00566219
0.00566525
0.00566816
0.00567087
0.00567339
0.00567569
0.00567777
0.00567964
0.00568128
0.00568272
0.00568395
0.00568499
0.00568584
0.00568652
0.00568704
0.00568742
0.00568765
0.00568777
0.0056947
0.00569621
0.00569831
0.00570084
0.00570369
0.00570675
0.00570993
0.00571315
0.00571633
0.00571944
0.00572242
0.00572524
0.00572789
0.00573033
0.00573257
0.0057346
0.00573641
0.00573801
0.00573941
0.00574061
0.00574161
0.00574244
0.00574311
0.00574361
0.00574398
0.00574421
0.00574432
0.00575089
0.00575235
0.00575439
0.00575684
0.00575961
0.00576257
0.00576565
0.00576877
0.00577185
0.00577486
0.00577775
0.00578048
0.00578304
0.00578541
0.00578758
0.00578954
0.00579129
0.00579284
0.00579419
0.00579535
0.00579632
0.00579713
0.00579777
0.00579826
0.00579861
0.00579883
0.00579894
0.0058051
0.00580652
0.00580848
0.00581084
0.00581351
0.00581636
0.00581933
0.00582233
0.0058253
0.0058282
0.00583098
0.00583361
0.00583607
0.00583835
0.00584043
0.00584232
0.005844
0.00584549
0.00584679
0.00584791
0.00584884
0.00584961
0.00585023
0.0058507
0.00585104
0.00585125
0.00585135
0.00585707
0.00585843
0.0058603
0.00586257
0.00586512
0.00586785
0.00587069
0.00587356
0.0058764
0.00587916
0.00588182
0.00588433
0.00588669
0.00588886
0.00589085
0.00589265
0.00589426
0.00589568
0.00589692
0.00589798
0.00589888
0.00589961
0.0059002
0.00590065
0.00590097
0.00590117
0.00590127
0.0059065
0.00590779
0.00590957
0.00591172
0.00591414
0.00591673
0.00591942
0.00592214
0.00592483
0.00592746
0.00592997
0.00593235
0.00593458
0.00593664
0.00593852
0.00594023
0.00594175
0.00594309
0.00594426
0.00594527
0.00594611
0.00594681
0.00594737
0.00594779
0.00594809
0.00594829
0.00594838
0.00595308
0.00595429
0.00595596
0.00595798
0.00596026
0.00596269
0.00596522
0.00596777
0.0059703
0.00597276
0.00597512
0.00597736
0.00597944
0.00598137
0.00598314
0.00598473
0.00598616
0.00598742
0.00598851
0.00598945
0.00599025
0.0059909
0.00599142
0.00599181
0.0059921
0.00599228
0.00599236
0.00599651
0.00599763
0.00599919
0.00600107
0.00600318
0.00600544
0.00600779
0.00601016
0.0060125
0.00601479
0.00601697
0.00601904
0.00602098
0.00602276
0.0060244
0.00602588
0.00602719
0.00602836
0.00602937
0.00603024
0.00603097
0.00603158
0.00603206
0.00603242
0.00603269
0.00603285
0.00603293
0.0060365
0.00603753
0.00603896
0.00604068
0.00604262
0.0060447
0.00604685
0.00604902
0.00605117
0.00605325
0.00605526
0.00605715
0.00605892
0.00606055
0.00606204
0.00606339
0.0060646
0.00606566
0.00606659
0.00606738
0.00606805
0.0060686
0.00606903
0.00606937
0.00606961
0.00606976
0.00606983
0.00607282
0.00607375
0.00607504
0.0060766
0.00607835
0.00608023
0.00608217
0.00608413
0.00608607
0.00608796
0.00608976
0.00609147
0.00609306
0.00609453
0.00609587
0.00609709
0.00609817
0.00609913
0.00609996
0.00610067
0.00610127
0.00610176
0.00610216
0.00610246
0.00610267
0.00610281
0.00610287
0.00610529
0.00610613
0.00610728
0.00610867
0.00611023
0.00611189
0.00611362
0.00611536
0.00611709
0.00611876
0.00612036
0.00612187
0.00612328
0.00612459
0.00612578
0.00612685
0.00612781
0.00612865
0.00612939
0.00613002
0.00613055
0.00613098
0.00613133
0.0061316
0.00613179
0.00613191
0.00613196
0.00613386
0.00613459
0.0061356
0.00613682
0.00613818
0.00613964
0.00614115
0.00614267
0.00614418
0.00614564
0.00614703
0.00614835
0.00614959
0.00615072
0.00615176
0.00615269
0.00615353
0.00615427
0.00615491
0.00615545
0.00615592
0.0061563
0.0061566
0.00615683
0.00615699
0.0061571
0.00615715
0.00615855
0.00615918
0.00616005
0.0061611
0.00616227
0.00616353
0.00616483
0.00616614
0.00616743
0.00616868
0.00616988
0.00617102
0.00617207
0.00617305
0.00617393
0.00617473
0.00617545
0.00617608
0.00617663
0.0061771
0.00617749
0.00617781
0.00617807
0.00617827
0.00617841
0.0061785
0.00617854
0.00617951
0.00618004
0.00618077
0.00618166
0.00618265
0.00618371
0.00618481
0.00618591
0.006187
0.00618805
0.00618906
0.00619001
0.0061909
0.00619172
0.00619246
0.00619313
0.00619373
0.00619426
0.00619472
0.00619511
0.00619544
0.00619571
0.00619593
0.00619609
0.00619621
0.00619629
0.00619632
0.00619692
0.00619736
0.00619797
0.0061987
0.00619952
0.00620039
0.0062013
0.00620221
0.00620311
0.00620398
0.00620481
0.00620559
0.00620632
0.00620699
0.0062076
0.00620815
0.00620864
0.00620908
0.00620945
0.00620977
0.00621004
0.00621027
0.00621044
0.00621058
0.00621067
0.00621073
0.00621076
0.00621108
0.00621143
0.00621193
0.00621252
0.00621318
0.00621389
0.00621462
0.00621536
0.00621608
0.00621678
0.00621745
0.00621808
0.00621867
0.00621921
0.0062197
0.00622014
0.00622054
0.00622088
0.00622119
0.00622144
0.00622166
0.00622184
0.00622198
0.00622209
0.00622217
0.00622221
0.00622224
0.00622235
0.00622263
0.00622302
0.00622349
0.00622402
0.00622458
0.00622515
0.00622574
0.00622631
0.00622686
0.00622739
0.00622789
0.00622835
0.00622878
0.00622917
0.00622952
0.00622983
0.0062301
0.00623034
0.00623054
0.00623071
0.00623085
0.00623096
0.00623105
0.00623111
0.00623115
0.00623117
0.00623113
0.00623135
0.00623166
0.00623202
0.00623243
0.00623287
0.00623332
0.00623377
0.00623421
0.00623464
0.00623505
0.00623544
0.00623579
0.00623612
0.00623642
0.00623669
0.00623693
0.00623714
0.00623733
0.00623748
0.00623762
0.00623772
0.00623781
0.00623787
0.00623792
0.00623795
0.00623797
0.00623784
0.00623801
0.00623824
0.00623852
0.00623883
0.00623916
0.0062395
0.00623984
0.00624017
0.0062405
0.00624081
0.0062411
0.00624137
0.00624161
0.00624184
0.00624204
0.00624222
0.00624238
0.00624252
0.00624264
0.00624273
0.00624281
0.00624288
0.00624293
0.00624296
0.00624299
0.006243
0.00624282
0.00624294
0.00624311
0.00624332
0.00624354
0.00624378
0.00624403
0.00624428
0.00624452
0.00624476
0.00624498
0.00624519
0.00624539
0.00624557
0.00624573
0.00624587
0.006246
0.00624612
0.00624621
0.0062463
0.00624637
0.00624643
0.00624647
0.00624651
0.00624653
0.00624655
0.00624656
0.00624639
0.00624647
0.00624659
0.00624673
0.00624689
0.00624706
0.00624723
0.0062474
0.00624757
0.00624774
0.00624789
0.00624803
0.00624817
0.00624829
0.0062484
0.0062485
0.00624859
0.00624866
0.00624873
0.00624879
0.00624883
0.00624887
0.0062489
0.00624893
0.00624895
0.00624896
0.00624896
0.00624884
0.0062489
0.00624898
0.00624907
0.00624918
0.00624929
0.00624941
0.00624952
0.00624963
0.00624974
0.00624984
0.00624994
0.00625002
0.0062501
0.00625017
0.00625024
0.0062503
0.00625035
0.00625039
0.00625042
0.00625045
0.00625048
0.0062505
0.00625051
0.00625052
0.00625053
0.00625054
0.00625048
0.00625052
0.00625057
0.00625063
0.0062507
0.00625077
0.00625084
0.00625091
0.00625098
0.00625105
0.00625111
0.00625117
0.00625123
0.00625127
0.00625132
0.00625136
0.00625139
0.00625142
0.00625145
0.00625147