/*--------------------------------*- C++ -*----------------------------------*\
| =========                 |                                                 |
| \\      /  F ield         | OpenFOAM: The Open Source CFD Toolbox           |
|  \\    /   O peration     | Version:  2106                                  |
|   \\  /    A nd           | Website:  www.openfoam.com                      |
|    \\/     M anipulation  |                                                 |
\*---------------------------------------------------------------------------*/
FoamFile
{
    version     2.0;
    format      ascii;
    arch        "LSB;label=32;scalar=64";
    class       volScalarField;
    location    "160.00011";
    object      C2H3_0;
}
// * * * * * * * * * * * * * * * * * * * * * * * * * * * * * * * * * * * * * //

dimensions      [0 0 0 0 0 0 0];

internalField   nonuniform List<scalar> 
3360
(
2.26041e-21
2.33316e-21
2.4344e-21
2.55824e-21
2.69951e-21
2.85358e-21
3.01627e-21
3.1838e-21
3.3528e-21
3.5203e-21
3.68372e-21
3.8409e-21
3.99e-21
4.12961e-21
4.25863e-21
4.37628e-21
4.48211e-21
4.57591e-21
4.65772e-21
4.72778e-21
4.78651e-21
4.83448e-21
4.87237e-21
4.90095e-21
4.92105e-21
4.93356e-21
4.93937e-21
9.91734e-21
1.02819e-20
1.07964e-20
1.14371e-20
1.21844e-20
1.30211e-20
1.39321e-20
1.49032e-20
1.59215e-20
1.69746e-20
1.80507e-20
1.91385e-20
2.02264e-20
2.13034e-20
2.23583e-20
2.33805e-20
2.43593e-20
2.52845e-20
2.61461e-20
2.6935e-20
2.76426e-20
2.82616e-20
2.87855e-20
2.92092e-20
2.95289e-20
2.97425e-20
2.98489e-20
3.1124e-20
3.24903e-20
3.44317e-20
3.68712e-20
3.97449e-20
4.29954e-20
4.65681e-20
5.0409e-20
5.44638e-20
5.86769e-20
6.29914e-20
6.73509e-20
7.16995e-20
7.59819e-20
8.01449e-20
8.41377e-20
8.79135e-20
9.14302e-20
9.46513e-20
9.75465e-20
1.00092e-19
1.02273e-19
1.04077e-19
1.05504e-19
1.06556e-19
1.07242e-19
1.07575e-19
9.06694e-20
9.51739e-20
1.01618e-19
1.0977e-19
1.19439e-19
1.30443e-19
1.42603e-19
1.55731e-19
1.69631e-19
1.84096e-19
1.98915e-19
2.13869e-19
2.28744e-19
2.43329e-19
2.57427e-19
2.70854e-19
2.83448e-19
2.95072e-19
3.05615e-19
3.14995e-19
3.23155e-19
3.30069e-19
3.35731e-19
3.40159e-19
3.43391e-19
3.45478e-19
3.46485e-19
2.64993e-19
2.79207e-19
2.99581e-19
3.25417e-19
3.56125e-19
3.91138e-19
4.29872e-19
4.7171e-19
5.15991e-19
5.62021e-19
6.09082e-19
6.56448e-19
7.0341e-19
7.49288e-19
7.93454e-19
8.35345e-19
8.74474e-19
9.10442e-19
9.42936e-19
9.71735e-19
9.96704e-19
1.01779e-18
1.035e-18
1.04843e-18
1.0582e-18
1.0645e-18
1.06753e-18
7.81632e-19
8.25302e-19
8.87971e-19
9.67511e-19
1.0621e-18
1.16999e-18
1.28934e-18
1.41821e-18
1.55453e-18
1.69612e-18
1.84073e-18
1.98609e-18
2.12999e-18
2.27034e-18
2.40523e-18
2.53293e-18
2.652e-18
2.76124e-18
2.85976e-18
2.94692e-18
3.02237e-18
3.08597e-18
3.13782e-18
3.17821e-18
3.20757e-18
3.22646e-18
3.23554e-18
2.32273e-18
2.45547e-18
2.64596e-18
2.88774e-18
3.17526e-18
3.5031e-18
3.86564e-18
4.25689e-18
4.67045e-18
5.09964e-18
5.53757e-18
5.97735e-18
6.41231e-18
6.83614e-18
7.24305e-18
7.62797e-18
7.98657e-18
8.31535e-18
8.61165e-18
8.87366e-18
9.10032e-18
9.29133e-18
9.447e-18
9.56821e-18
9.6563e-18
9.71298e-18
9.74022e-18
6.92531e-18
7.32489e-18
7.89858e-18
8.62701e-18
9.49346e-18
1.04816e-17
1.15743e-17
1.27535e-17
1.39998e-17
1.52929e-17
1.66119e-17
1.7936e-17
1.92451e-17
2.05202e-17
2.17439e-17
2.29009e-17
2.39783e-17
2.49657e-17
2.58552e-17
2.66413e-17
2.73211e-17
2.78938e-17
2.83603e-17
2.87234e-17
2.89871e-17
2.91568e-17
2.92383e-17
2.07029e-17
2.19042e-17
2.36287e-17
2.5818e-17
2.84219e-17
3.13908e-17
3.46733e-17
3.82146e-17
4.19561e-17
4.58368e-17
4.97938e-17
5.3765e-17
5.76897e-17
6.15111e-17
6.51775e-17
6.86433e-17
7.18699e-17
7.48263e-17
7.7489e-17
7.98423e-17
8.1877e-17
8.35908e-17
8.4987e-17
8.60736e-17
8.68631e-17
8.73708e-17
8.76148e-17
6.18943e-17
6.54938e-17
7.06617e-17
7.72233e-17
8.50272e-17
9.39253e-17
1.03763e-16
1.14375e-16
1.25586e-16
1.37212e-16
1.49066e-16
1.60959e-16
1.72712e-16
1.84152e-16
1.95126e-16
2.05498e-16
2.15151e-16
2.23994e-16
2.31957e-16
2.38992e-16
2.45074e-16
2.50195e-16
2.54366e-16
2.57612e-16
2.5997e-16
2.61486e-16
2.62214e-16
1.85136e-16
1.95916e-16
2.1139e-16
2.31033e-16
2.54391e-16
2.81017e-16
3.10446e-16
3.42183e-16
3.75701e-16
4.10449e-16
4.45865e-16
4.81389e-16
5.1648e-16
5.50631e-16
5.8338e-16
6.14322e-16
6.43115e-16
6.69485e-16
6.93226e-16
7.14199e-16
7.32326e-16
7.47589e-16
7.60019e-16
7.6969e-16
7.76714e-16
7.81231e-16
7.83401e-16
5.53262e-16
5.85463e-16
6.31682e-16
6.90345e-16
7.60087e-16
8.39568e-16
9.27392e-16
1.02207e-15
1.12204e-15
1.22563e-15
1.33118e-15
1.43702e-15
1.54152e-15
1.64319e-15
1.74064e-15
1.83269e-15
1.91831e-15
1.9967e-15
2.06724e-15
2.12954e-15
2.18337e-15
2.22868e-15
2.26557e-15
2.29427e-15
2.3151e-15
2.3285e-15
2.33493e-15
1.65168e-15
1.7477e-15
1.88547e-15
2.06026e-15
2.26795e-15
2.50452e-15
2.76577e-15
3.04725e-15
3.34423e-15
3.6518e-15
3.96496e-15
4.27876e-15
4.58842e-15
4.88948e-15
5.1779e-15
5.45015e-15
5.70327e-15
5.93489e-15
6.14325e-15
6.32717e-15
6.48603e-15
6.61969e-15
6.72848e-15
6.81309e-15
6.8745e-15
6.91397e-15
6.93293e-15
4.91719e-15
5.20221e-15
5.61102e-15
6.12941e-15
6.74503e-15
7.44575e-15
8.21898e-15
9.05137e-15
9.92886e-15
1.08368e-14
1.17604e-14
1.26851e-14
1.35967e-14
1.44822e-14
1.53297e-14
1.6129e-14
1.68715e-14
1.75504e-14
1.81607e-14
1.8699e-14
1.91636e-14
1.95543e-14
1.98722e-14
2.01192e-14
2.02984e-14
2.04135e-14
2.04688e-14
1.4589e-14
1.54305e-14
1.66365e-14
1.81645e-14
1.99772e-14
2.20381e-14
2.43095e-14
2.67515e-14
2.93221e-14
3.19782e-14
3.46763e-14
3.73734e-14
4.00288e-14
4.26045e-14
4.50665e-14
4.73856e-14
4.95372e-14
5.15023e-14
5.32669e-14
5.48218e-14
5.61627e-14
5.72894e-14
5.82051e-14
5.89164e-14
5.94322e-14
5.97633e-14
5.99222e-14
4.30461e-14
4.55064e-14
4.90295e-14
5.3488e-14
5.87701e-14
6.4766e-14
7.13627e-14
7.8442e-14
8.58804e-14
9.35514e-14
1.01328e-13
1.09087e-13
1.16712e-13
1.24093e-13
1.31136e-13
1.37759e-13
1.43893e-13
1.49486e-13
1.54501e-13
1.58914e-13
1.62714e-13
1.65904e-13
1.68493e-13
1.70502e-13
1.71957e-13
1.72891e-13
1.73339e-13
1.26114e-13
1.33215e-13
1.43369e-13
1.56198e-13
1.71366e-13
1.88546e-13
2.07401e-13
2.27583e-13
2.48733e-13
2.70485e-13
2.92479e-13
3.14363e-13
3.35811e-13
3.56523e-13
3.76237e-13
3.94729e-13
4.1182e-13
4.27371e-13
4.41287e-13
4.53509e-13
4.64018e-13
4.72822e-13
4.7996e-13
4.85491e-13
4.89493e-13
4.92058e-13
4.93286e-13
3.66066e-13
3.86185e-13
4.14905e-13
4.51105e-13
4.93789e-13
5.41985e-13
5.94709e-13
6.50951e-13
7.09681e-13
7.6987e-13
8.3051e-13
8.9064e-13
9.49371e-13
1.0059e-12
1.05954e-12
1.10971e-12
1.15594e-12
1.1979e-12
1.23535e-12
1.26817e-12
1.29633e-12
1.31988e-12
1.33893e-12
1.35367e-12
1.36432e-12
1.37114e-12
1.3744e-12
1.05061e-12
1.10624e-12
1.18546e-12
1.285e-12
1.40193e-12
1.53343e-12
1.67667e-12
1.82877e-12
1.98689e-12
2.1482e-12
2.30999e-12
2.46973e-12
2.6251e-12
2.77406e-12
2.91487e-12
3.0461e-12
3.16664e-12
3.2757e-12
3.37277e-12
3.45761e-12
3.53023e-12
3.59081e-12
3.63974e-12
3.67752e-12
3.70477e-12
3.72218e-12
3.73049e-12
2.97616e-12
3.12533e-12
3.33708e-12
3.60204e-12
3.91179e-12
4.25828e-12
4.63356e-12
5.02977e-12
5.43923e-12
5.85454e-12
6.26875e-12
6.67548e-12
7.06903e-12
7.4445e-12
7.7978e-12
8.12565e-12
8.42563e-12
8.69605e-12
8.93595e-12
9.14501e-12
9.32346e-12
9.47198e-12
9.59166e-12
9.68388e-12
9.75028e-12
9.79262e-12
9.81282e-12
8.31748e-12
8.70442e-12
9.25134e-12
9.93189e-12
1.07223e-11
1.16001e-11
1.25434e-11
1.35312e-11
1.45435e-11
1.55616e-11
1.65685e-11
1.7549e-11
1.84901e-11
1.93809e-11
2.02128e-11
2.09793e-11
2.16759e-11
2.22998e-11
2.28502e-11
2.33272e-11
2.37324e-11
2.40682e-11
2.43378e-11
2.45448e-11
2.46934e-11
2.4788e-11
2.4833e-11
2.29352e-11
2.39127e-11
2.52873e-11
2.6986e-11
2.89425e-11
3.10942e-11
3.33817e-11
3.5749e-11
3.81442e-11
4.05204e-11
4.28367e-11
4.50582e-11
4.71568e-11
4.91111e-11
5.09058e-11
5.25314e-11
5.39836e-11
5.52623e-11
5.63711e-11
5.73162e-11
5.8106e-11
5.87501e-11
5.92594e-11
5.96449e-11
5.99178e-11
6.00893e-11
6.017e-11
6.21572e-11
6.46053e-11
6.8034e-11
7.2249e-11
7.70737e-11
8.23435e-11
8.79051e-11
9.36183e-11
9.93576e-11
1.05014e-10
1.10499e-10
1.15738e-10
1.20678e-10
1.25279e-10
1.29516e-10
1.33373e-10
1.36844e-10
1.39928e-10
1.4263e-10
1.44961e-10
1.46931e-10
1.48557e-10
1.49856e-10
1.50849e-10
1.51557e-10
1.52004e-10
1.52214e-10
1.63162e-10
1.69434e-10
1.78277e-10
1.89264e-10
2.02042e-10
2.16311e-10
2.31825e-10
2.48378e-10
2.65806e-10
2.83976e-10
3.02772e-10
3.22085e-10
3.41799e-10
3.61779e-10
3.81867e-10
4.01872e-10
4.21577e-10
4.40737e-10
4.59084e-10
4.76342e-10
4.92228e-10
5.0647e-10
5.18811e-10
5.29016e-10
5.36884e-10
5.42248e-10
5.44977e-10
4.27365e-10
4.47338e-10
4.76333e-10
5.13808e-10
5.59534e-10
6.1347e-10
6.7565e-10
7.46055e-10
8.24468e-10
9.10325e-10
1.0026e-09
1.09974e-09
1.19976e-09
1.30032e-09
1.39899e-09
1.49347e-09
1.58175e-09
1.66231e-09
1.73412e-09
1.79665e-09
1.84977e-09
1.89369e-09
1.92883e-09
1.95574e-09
1.97503e-09
1.98731e-09
1.99318e-09
1.36324e-09
1.45032e-09
1.57669e-09
1.7385e-09
1.9311e-09
2.14811e-09
2.38117e-09
2.62049e-09
2.85596e-09
3.07857e-09
3.28147e-09
3.46046e-09
3.6138e-09
3.74174e-09
3.84581e-09
3.9283e-09
3.99181e-09
4.03904e-09
4.07263e-09
4.09507e-09
4.1087e-09
4.11564e-09
4.11783e-09
4.11701e-09
4.11461e-09
4.11194e-09
4.11012e-09
4.26835e-09
4.44588e-09
4.68802e-09
4.97512e-09
5.2895e-09
5.61586e-09
5.9417e-09
6.25739e-09
6.55595e-09
6.8328e-09
7.08542e-09
7.31265e-09
7.51338e-09
7.68767e-09
7.83638e-09
7.96092e-09
8.06309e-09
8.14493e-09
8.20867e-09
8.25659e-09
8.29104e-09
8.31432e-09
8.32871e-09
8.33636e-09
8.33935e-09
8.33961e-09
8.33893e-09
8.01218e-09
8.3068e-09
8.71731e-09
9.21963e-09
9.79316e-09
1.04204e-08
1.10864e-08
1.17791e-08
1.24883e-08
1.32056e-08
1.39242e-08
1.46377e-08
1.53405e-08
1.60272e-08
1.66925e-08
1.73311e-08
1.79378e-08
1.85074e-08
1.90349e-08
1.95154e-08
1.99444e-08
2.0318e-08
2.0633e-08
2.08867e-08
2.10774e-08
2.12043e-08
2.12673e-08
1.3167e-08
1.37787e-08
1.46563e-08
1.57731e-08
1.7111e-08
1.86578e-08
2.04045e-08
2.23447e-08
2.44715e-08
2.67767e-08
2.92654e-08
3.19209e-08
3.47222e-08
3.76426e-08
4.06489e-08
4.37022e-08
4.67583e-08
4.9769e-08
5.26835e-08
5.54496e-08
5.80155e-08
6.03316e-08
6.23477e-08
6.40239e-08
6.53256e-08
6.6219e-08
6.66757e-08
2.32813e-08
2.46823e-08
2.67406e-08
2.94398e-08
3.27852e-08
3.67935e-08
4.14851e-08
4.68787e-08
5.29853e-08
5.98034e-08
6.73152e-08
7.54822e-08
8.42457e-08
9.35255e-08
1.03197e-07
1.1311e-07
1.23096e-07
1.32978e-07
1.42574e-07
1.51698e-07
1.6017e-07
1.67817e-07
1.74481e-07
1.80016e-07
1.843e-07
1.87231e-07
1.88728e-07
5.03697e-08
5.36268e-08
5.84334e-08
6.47675e-08
7.26549e-08
8.2145e-08
9.32421e-08
1.05932e-07
1.20174e-07
1.35888e-07
1.52949e-07
1.71188e-07
1.90389e-07
2.10299e-07
2.30629e-07
2.51067e-07
2.71286e-07
2.90954e-07
3.09742e-07
3.27334e-07
3.43434e-07
3.57773e-07
3.70109e-07
3.80242e-07
3.88005e-07
3.93264e-07
3.95925e-07
1.18546e-07
1.25101e-07
1.3465e-07
1.47007e-07
1.62046e-07
1.79647e-07
1.9967e-07
2.21939e-07
2.46233e-07
2.72283e-07
2.99773e-07
3.28348e-07
3.57623e-07
3.8719e-07
4.16632e-07
4.45534e-07
4.7349e-07
5.00115e-07
5.2505e-07
5.47968e-07
5.68577e-07
5.86634e-07
6.01928e-07
6.1429e-07
6.23592e-07
6.2975e-07
6.32803e-07
2.47736e-07
2.57647e-07
2.71844e-07
2.89825e-07
3.11158e-07
3.35431e-07
3.62224e-07
3.91103e-07
4.21614e-07
4.5329e-07
4.85657e-07
5.1824e-07
5.50572e-07
5.822e-07
6.12691e-07
6.4164e-07
6.68665e-07
6.93522e-07
7.16107e-07
7.36351e-07
7.5417e-07
7.69493e-07
7.82269e-07
7.92467e-07
8.0008e-07
8.05118e-07
8.07612e-07
4.28055e-07
4.3923e-07
4.54974e-07
4.74484e-07
4.97036e-07
5.21948e-07
5.48558e-07
5.76227e-07
6.04335e-07
6.32291e-07
6.59649e-07
6.86233e-07
7.11843e-07
7.36263e-07
7.5932e-07
7.80866e-07
8.00778e-07
8.18964e-07
8.35353e-07
8.49897e-07
8.62579e-07
8.73382e-07
8.82311e-07
8.89379e-07
8.94614e-07
8.98054e-07
8.99747e-07
6.1351e-07
6.22195e-07
6.34257e-07
6.48933e-07
6.65547e-07
6.83495e-07
7.02243e-07
7.21331e-07
7.40369e-07
7.59039e-07
7.77088e-07
7.94323e-07
8.10601e-07
8.25816e-07
8.39898e-07
8.52801e-07
8.64504e-07
8.75002e-07
8.84304e-07
8.92428e-07
8.994e-07
9.05254e-07
9.10025e-07
9.13757e-07
9.16492e-07
9.1827e-07
9.19137e-07
7.47752e-07
7.52994e-07
7.60165e-07
7.68722e-07
7.78186e-07
7.88143e-07
7.98247e-07
8.08219e-07
8.17844e-07
8.26962e-07
8.35465e-07
8.43285e-07
8.50389e-07
8.56769e-07
8.62438e-07
8.67423e-07
8.71761e-07
8.75495e-07
8.78672e-07
8.81336e-07
8.83535e-07
8.85313e-07
8.8671e-07
8.87764e-07
8.88511e-07
8.88981e-07
8.89204e-07
8.22493e-07
8.2429e-07
8.26658e-07
8.29337e-07
8.32101e-07
8.34764e-07
8.37185e-07
8.39263e-07
8.40938e-07
8.42184e-07
8.43e-07
8.4341e-07
8.4345e-07
8.43169e-07
8.42621e-07
8.41863e-07
8.40953e-07
8.39945e-07
8.3889e-07
8.37837e-07
8.36825e-07
8.35893e-07
8.35069e-07
8.3438e-07
8.33845e-07
8.33479e-07
8.33293e-07
8.41326e-07
8.40504e-07
8.39259e-07
8.37581e-07
8.35463e-07
8.32908e-07
8.29937e-07
8.26586e-07
8.22903e-07
8.18949e-07
8.1479e-07
8.10496e-07
8.06138e-07
8.01786e-07
7.97506e-07
7.93359e-07
7.89402e-07
7.85684e-07
7.82247e-07
7.79129e-07
7.76358e-07
7.73957e-07
7.71944e-07
7.7033e-07
7.69121e-07
7.68319e-07
7.67921e-07
8.19058e-07
8.16666e-07
8.13275e-07
8.09041e-07
8.041e-07
7.98579e-07
7.92599e-07
7.86276e-07
7.7972e-07
7.73036e-07
7.66321e-07
7.59663e-07
7.53144e-07
7.46835e-07
7.40801e-07
7.35097e-07
7.29769e-07
7.24857e-07
7.20393e-07
7.16401e-07
7.12899e-07
7.09901e-07
7.07411e-07
7.05433e-07
7.03963e-07
7.02995e-07
7.02518e-07
7.72856e-07
7.69758e-07
7.65417e-07
7.60072e-07
7.53932e-07
7.47183e-07
7.39996e-07
7.32522e-07
7.24896e-07
7.17237e-07
7.09652e-07
7.0223e-07
6.95051e-07
6.88182e-07
6.81678e-07
6.75587e-07
6.69945e-07
6.64783e-07
6.60124e-07
6.55982e-07
6.5237e-07
6.49291e-07
6.46746e-07
6.44732e-07
6.43242e-07
6.42263e-07
6.41782e-07
7.16519e-07
7.13282e-07
7.08765e-07
7.03236e-07
6.96925e-07
6.90039e-07
6.82758e-07
6.75241e-07
6.67627e-07
6.60033e-07
6.52561e-07
6.45296e-07
6.38309e-07
6.3166e-07
6.25397e-07
6.19557e-07
6.14171e-07
6.09262e-07
6.04846e-07
6.00933e-07
5.97529e-07
5.94635e-07
5.92249e-07
5.90365e-07
5.88972e-07
5.8806e-07
5.87612e-07
6.58959e-07
6.55888e-07
6.51614e-07
6.46397e-07
6.40461e-07
6.34007e-07
6.27208e-07
6.20215e-07
6.13157e-07
6.06143e-07
5.99265e-07
5.926e-07
5.86209e-07
5.80145e-07
5.74447e-07
5.69147e-07
5.6427e-07
5.59834e-07
5.5585e-07
5.52326e-07
5.49265e-07
5.46667e-07
5.44526e-07
5.42838e-07
5.41591e-07
5.40775e-07
5.40374e-07
6.04964e-07
6.02195e-07
5.98344e-07
5.9365e-07
5.8832e-07
5.82534e-07
5.76451e-07
5.70206e-07
5.63914e-07
5.57674e-07
5.51565e-07
5.45655e-07
5.39998e-07
5.34637e-07
5.29607e-07
5.24934e-07
5.20639e-07
5.16736e-07
5.13235e-07
5.10141e-07
5.07455e-07
5.05176e-07
5.03299e-07
5.0182e-07
5.00728e-07
5.00013e-07
4.99663e-07
5.56569e-07
5.54136e-07
5.50755e-07
5.46637e-07
5.41963e-07
5.36895e-07
5.31571e-07
5.26111e-07
5.20615e-07
5.15168e-07
5.09841e-07
5.04691e-07
4.99765e-07
4.951e-07
4.90726e-07
4.86665e-07
4.82934e-07
4.79546e-07
4.76507e-07
4.73822e-07
4.71493e-07
4.69518e-07
4.67892e-07
4.66609e-07
4.65663e-07
4.65043e-07
4.6474e-07
5.1423e-07
5.1212e-07
5.09187e-07
5.05616e-07
5.01565e-07
4.97173e-07
4.92561e-07
4.87832e-07
4.83075e-07
4.78361e-07
4.73752e-07
4.69297e-07
4.65037e-07
4.61003e-07
4.57222e-07
4.53712e-07
4.50488e-07
4.4756e-07
4.44935e-07
4.42616e-07
4.40604e-07
4.38897e-07
4.37493e-07
4.36386e-07
4.35569e-07
4.35033e-07
4.34771e-07
4.77621e-07
4.75798e-07
4.73265e-07
4.7018e-07
4.66682e-07
4.62888e-07
4.58905e-07
4.54821e-07
4.50711e-07
4.4664e-07
4.42658e-07
4.3881e-07
4.3513e-07
4.31645e-07
4.28378e-07
4.25345e-07
4.22559e-07
4.20028e-07
4.17759e-07
4.15754e-07
4.14015e-07
4.1254e-07
4.11326e-07
4.10369e-07
4.09663e-07
4.092e-07
4.08973e-07
4.46095e-07
4.4452e-07
4.42331e-07
4.39665e-07
4.3664e-07
4.3336e-07
4.29915e-07
4.26382e-07
4.22826e-07
4.19302e-07
4.15856e-07
4.12523e-07
4.09336e-07
4.06317e-07
4.03486e-07
4.00857e-07
3.98442e-07
3.96248e-07
3.9428e-07
3.92541e-07
3.91032e-07
3.89753e-07
3.887e-07
3.8787e-07
3.87257e-07
3.86856e-07
3.8666e-07
4.18937e-07
4.17571e-07
4.15673e-07
4.1336e-07
4.10735e-07
4.07888e-07
4.04896e-07
4.01828e-07
3.98738e-07
3.95675e-07
3.92678e-07
3.8978e-07
3.87006e-07
3.84378e-07
3.81913e-07
3.79623e-07
3.77518e-07
3.75606e-07
3.7389e-07
3.72374e-07
3.71058e-07
3.69942e-07
3.69023e-07
3.68298e-07
3.67763e-07
3.67413e-07
3.67242e-07
3.95472e-07
3.94281e-07
3.92626e-07
3.90609e-07
3.88319e-07
3.85835e-07
3.83223e-07
3.80543e-07
3.77844e-07
3.75167e-07
3.72546e-07
3.7001e-07
3.67582e-07
3.65281e-07
3.63122e-07
3.61116e-07
3.59271e-07
3.57594e-07
3.56089e-07
3.54758e-07
3.53603e-07
3.52623e-07
3.51816e-07
3.5118e-07
3.5071e-07
3.50402e-07
3.50252e-07
3.75109e-07
3.74065e-07
3.72613e-07
3.70844e-07
3.68835e-07
3.66654e-07
3.6436e-07
3.62005e-07
3.59632e-07
3.57277e-07
3.54971e-07
3.52739e-07
3.50601e-07
3.48573e-07
3.4667e-07
3.449e-07
3.43273e-07
3.41793e-07
3.40464e-07
3.39289e-07
3.38269e-07
3.37402e-07
3.36689e-07
3.36126e-07
3.35711e-07
3.35439e-07
3.35305e-07
3.57353e-07
3.56432e-07
3.55151e-07
3.53589e-07
3.51815e-07
3.49888e-07
3.47861e-07
3.45779e-07
3.43679e-07
3.41595e-07
3.39553e-07
3.37575e-07
3.3568e-07
3.33882e-07
3.32193e-07
3.30622e-07
3.29177e-07
3.27862e-07
3.26681e-07
3.25637e-07
3.24729e-07
3.23959e-07
3.23324e-07
3.22823e-07
3.22454e-07
3.22211e-07
3.22092e-07
3.41795e-07
3.40977e-07
3.3984e-07
3.38453e-07
3.36876e-07
3.35163e-07
3.33361e-07
3.31508e-07
3.29639e-07
3.27782e-07
3.25963e-07
3.24199e-07
3.22508e-07
3.20904e-07
3.19396e-07
3.17993e-07
3.16701e-07
3.15526e-07
3.1447e-07
3.13535e-07
3.12723e-07
3.12033e-07
3.11465e-07
3.11016e-07
3.10685e-07
3.10468e-07
3.10361e-07
3.281e-07
3.2737e-07
3.26354e-07
3.25114e-07
3.23705e-07
3.22173e-07
3.2056e-07
3.18902e-07
3.17228e-07
3.15565e-07
3.13933e-07
3.12351e-07
3.10834e-07
3.09393e-07
3.08039e-07
3.06778e-07
3.05616e-07
3.04559e-07
3.03608e-07
3.02767e-07
3.02036e-07
3.01414e-07
3.00902e-07
3.00498e-07
3.00199e-07
3.00003e-07
2.99907e-07
3.15995e-07
3.15339e-07
3.14426e-07
3.13312e-07
3.12045e-07
3.10668e-07
3.09217e-07
3.07723e-07
3.06216e-07
3.04717e-07
3.03246e-07
3.01818e-07
3.00449e-07
2.99148e-07
2.97924e-07
2.96784e-07
2.95733e-07
2.94777e-07
2.93916e-07
2.93154e-07
2.92492e-07
2.91929e-07
2.91465e-07
2.91098e-07
2.90827e-07
2.90649e-07
2.90562e-07
3.05255e-07
3.04663e-07
3.03838e-07
3.02832e-07
3.01687e-07
3.00441e-07
2.99128e-07
2.97777e-07
2.96411e-07
2.95053e-07
2.93719e-07
2.92425e-07
2.91182e-07
2.9e-07
2.88888e-07
2.87852e-07
2.86896e-07
2.86026e-07
2.85243e-07
2.84549e-07
2.83945e-07
2.83432e-07
2.83009e-07
2.82674e-07
2.82427e-07
2.82265e-07
2.82185e-07
2.95695e-07
2.95157e-07
2.94409e-07
2.93495e-07
2.92454e-07
2.91322e-07
2.90128e-07
2.88899e-07
2.87656e-07
2.86419e-07
2.85203e-07
2.84023e-07
2.82889e-07
2.8181e-07
2.80794e-07
2.79848e-07
2.78974e-07
2.78178e-07
2.77461e-07
2.76826e-07
2.76273e-07
2.75803e-07
2.75415e-07
2.75109e-07
2.74882e-07
2.74733e-07
2.7466e-07
2.87158e-07
2.86668e-07
2.85986e-07
2.85151e-07
2.84202e-07
2.83168e-07
2.82077e-07
2.80953e-07
2.79816e-07
2.78683e-07
2.7757e-07
2.76489e-07
2.75449e-07
2.7446e-07
2.73527e-07
2.72658e-07
2.71855e-07
2.71123e-07
2.70464e-07
2.6988e-07
2.69371e-07
2.68938e-07
2.6858e-07
2.68298e-07
2.68089e-07
2.67951e-07
2.67884e-07
2.79515e-07
2.79066e-07
2.78441e-07
2.77676e-07
2.76805e-07
2.75856e-07
2.74855e-07
2.73822e-07
2.72778e-07
2.71736e-07
2.70712e-07
2.69716e-07
2.68759e-07
2.67847e-07
2.66987e-07
2.66184e-07
2.65443e-07
2.64767e-07
2.64158e-07
2.63618e-07
2.63147e-07
2.62746e-07
2.62415e-07
2.62153e-07
2.6196e-07
2.61832e-07
2.6177e-07
2.72654e-07
2.7224e-07
2.71664e-07
2.7096e-07
2.70158e-07
2.69284e-07
2.6836e-07
2.67407e-07
2.66443e-07
2.65481e-07
2.64534e-07
2.63613e-07
2.62727e-07
2.61882e-07
2.61086e-07
2.60342e-07
2.59654e-07
2.59027e-07
2.58461e-07
2.57959e-07
2.57522e-07
2.57149e-07
2.56841e-07
2.56597e-07
2.56417e-07
2.56299e-07
2.5624e-07
2.66476e-07
2.66094e-07
2.65561e-07
2.6491e-07
2.64168e-07
2.63358e-07
2.62503e-07
2.6162e-07
2.60725e-07
2.59833e-07
2.58954e-07
2.58098e-07
2.57274e-07
2.56488e-07
2.55747e-07
2.55054e-07
2.54414e-07
2.53828e-07
2.53301e-07
2.52832e-07
2.52424e-07
2.52075e-07
2.51788e-07
2.5156e-07
2.51391e-07
2.5128e-07
2.51226e-07
2.60897e-07
2.60542e-07
2.60047e-07
2.59443e-07
2.58752e-07
2.58e-07
2.57204e-07
2.56382e-07
2.55549e-07
2.54717e-07
2.53897e-07
2.53098e-07
2.52329e-07
2.51595e-07
2.50902e-07
2.50253e-07
2.49654e-07
2.49106e-07
2.48612e-07
2.48172e-07
2.47789e-07
2.47462e-07
2.47192e-07
2.46978e-07
2.4682e-07
2.46716e-07
2.46664e-07
2.5584e-07
2.5551e-07
2.55048e-07
2.54484e-07
2.5384e-07
2.53137e-07
2.52393e-07
2.51624e-07
2.50845e-07
2.50066e-07
2.49298e-07
2.48549e-07
2.47827e-07
2.47138e-07
2.46487e-07
2.45878e-07
2.45315e-07
2.44799e-07
2.44334e-07
2.4392e-07
2.43559e-07
2.43251e-07
2.42996e-07
2.42794e-07
2.42645e-07
2.42546e-07
2.42498e-07
2.51239e-07
2.50929e-07
2.50497e-07
2.49968e-07
2.49364e-07
2.48704e-07
2.48006e-07
2.47284e-07
2.46551e-07
2.45818e-07
2.45096e-07
2.44391e-07
2.4371e-07
2.43061e-07
2.42446e-07
2.41871e-07
2.41339e-07
2.40852e-07
2.40412e-07
2.4002e-07
2.39678e-07
2.39387e-07
2.39146e-07
2.38954e-07
2.38812e-07
2.38719e-07
2.38673e-07
2.47031e-07
2.46739e-07
2.46332e-07
2.45833e-07
2.45264e-07
2.44642e-07
2.43983e-07
2.43302e-07
2.4261e-07
2.41918e-07
2.41234e-07
2.40567e-07
2.39923e-07
2.39308e-07
2.38726e-07
2.3818e-07
2.37675e-07
2.37212e-07
2.36794e-07
2.36422e-07
2.36097e-07
2.3582e-07
2.3559e-07
2.35408e-07
2.35273e-07
2.35184e-07
2.3514e-07
2.43157e-07
2.42881e-07
2.42496e-07
2.42024e-07
2.41485e-07
2.40896e-07
2.40272e-07
2.39625e-07
2.38968e-07
2.38311e-07
2.37661e-07
2.37027e-07
2.36415e-07
2.35829e-07
2.35274e-07
2.34754e-07
2.34272e-07
2.33831e-07
2.33432e-07
2.33077e-07
2.32766e-07
2.32501e-07
2.32281e-07
2.32107e-07
2.31978e-07
2.31893e-07
2.31851e-07
2.39566e-07
2.39303e-07
2.38937e-07
2.38488e-07
2.37975e-07
2.37413e-07
2.36818e-07
2.36202e-07
2.35575e-07
2.34947e-07
2.34327e-07
2.33721e-07
2.33135e-07
2.32574e-07
2.32043e-07
2.31545e-07
2.31083e-07
2.3066e-07
2.30277e-07
2.29936e-07
2.29638e-07
2.29383e-07
2.29172e-07
2.29005e-07
2.2888e-07
2.28799e-07
2.28758e-07
2.36205e-07
2.35954e-07
2.35603e-07
2.35173e-07
2.34682e-07
2.34144e-07
2.33574e-07
2.32982e-07
2.32381e-07
2.31778e-07
2.31182e-07
2.306e-07
2.30036e-07
2.29497e-07
2.28985e-07
2.28506e-07
2.28061e-07
2.27653e-07
2.27283e-07
2.26954e-07
2.26666e-07
2.2642e-07
2.26217e-07
2.26055e-07
2.25935e-07
2.25855e-07
2.25816e-07
2.33024e-07
2.32783e-07
2.32445e-07
2.32031e-07
2.31558e-07
2.31039e-07
2.30489e-07
2.29919e-07
2.29338e-07
2.28756e-07
2.2818e-07
2.27616e-07
2.27071e-07
2.26549e-07
2.26054e-07
2.25589e-07
2.25157e-07
2.24762e-07
2.24403e-07
2.24084e-07
2.23805e-07
2.23566e-07
2.23368e-07
2.2321e-07
2.23094e-07
2.23017e-07
2.22979e-07
2.29975e-07
2.29741e-07
2.29414e-07
2.29012e-07
2.28553e-07
2.2805e-07
2.27515e-07
2.26961e-07
2.26397e-07
2.25831e-07
2.2527e-07
2.24722e-07
2.24191e-07
2.23682e-07
2.23199e-07
2.22746e-07
2.22325e-07
2.21939e-07
2.2159e-07
2.21278e-07
2.21005e-07
2.20771e-07
2.20578e-07
2.20424e-07
2.2031e-07
2.20235e-07
2.20198e-07
2.27007e-07
2.26779e-07
2.26459e-07
2.26067e-07
2.25618e-07
2.25126e-07
2.24603e-07
2.24061e-07
2.23508e-07
2.22954e-07
2.22404e-07
2.21867e-07
2.21346e-07
2.20847e-07
2.20373e-07
2.19928e-07
2.19515e-07
2.19135e-07
2.18791e-07
2.18485e-07
2.18217e-07
2.17987e-07
2.17797e-07
2.17645e-07
2.17533e-07
2.17459e-07
2.17423e-07
2.2407e-07
2.23844e-07
2.2353e-07
2.23143e-07
2.22701e-07
2.22215e-07
2.217e-07
2.21165e-07
2.2062e-07
2.20072e-07
2.1953e-07
2.18998e-07
2.18483e-07
2.1799e-07
2.17521e-07
2.17081e-07
2.16672e-07
2.16296e-07
2.15956e-07
2.15652e-07
2.15387e-07
2.15159e-07
2.14971e-07
2.14821e-07
2.1471e-07
2.14636e-07
2.146e-07
2.21107e-07
2.20883e-07
2.2057e-07
2.20186e-07
2.19746e-07
2.19263e-07
2.18751e-07
2.18218e-07
2.17675e-07
2.1713e-07
2.16589e-07
2.1606e-07
2.15546e-07
2.15054e-07
2.14587e-07
2.14148e-07
2.1374e-07
2.13365e-07
2.13025e-07
2.12722e-07
2.12457e-07
2.1223e-07
2.12042e-07
2.11892e-07
2.11781e-07
2.11708e-07
2.11672e-07
2.1806e-07
2.17836e-07
2.17522e-07
2.17136e-07
2.16694e-07
2.1621e-07
2.15694e-07
2.15159e-07
2.14613e-07
2.14065e-07
2.13522e-07
2.12989e-07
2.12473e-07
2.11977e-07
2.11507e-07
2.11065e-07
2.10654e-07
2.10277e-07
2.09935e-07
2.09631e-07
2.09363e-07
2.09135e-07
2.08946e-07
2.08795e-07
2.08683e-07
2.08609e-07
2.08573e-07
2.14866e-07
2.14638e-07
2.1432e-07
2.13928e-07
2.1348e-07
2.12988e-07
2.12465e-07
2.11922e-07
2.11368e-07
2.10811e-07
2.10259e-07
2.09718e-07
2.09193e-07
2.0869e-07
2.08213e-07
2.07764e-07
2.07346e-07
2.06963e-07
2.06616e-07
2.06306e-07
2.06035e-07
2.05803e-07
2.05611e-07
2.05458e-07
2.05344e-07
2.0527e-07
2.05233e-07
2.11451e-07
2.11218e-07
2.10891e-07
2.1049e-07
2.1003e-07
2.09525e-07
2.08989e-07
2.08431e-07
2.07863e-07
2.07291e-07
2.06725e-07
2.0617e-07
2.05631e-07
2.05115e-07
2.04625e-07
2.04164e-07
2.03736e-07
2.03344e-07
2.02988e-07
2.0267e-07
2.02392e-07
2.02154e-07
2.01957e-07
2.01801e-07
2.01684e-07
2.01608e-07
2.0157e-07
2.07736e-07
2.07494e-07
2.07155e-07
2.06739e-07
2.06262e-07
2.05738e-07
2.05182e-07
2.04603e-07
2.04013e-07
2.03421e-07
2.02833e-07
2.02258e-07
2.017e-07
2.01164e-07
2.00656e-07
2.00179e-07
1.99736e-07
1.99329e-07
1.9896e-07
1.98632e-07
1.98344e-07
1.98098e-07
1.97894e-07
1.97732e-07
1.97612e-07
1.97533e-07
1.97494e-07
2.03629e-07
2.03375e-07
2.0302e-07
2.02583e-07
2.02083e-07
2.01534e-07
2.0095e-07
2.00343e-07
1.99725e-07
1.99103e-07
1.98488e-07
1.97884e-07
1.973e-07
1.9674e-07
1.96208e-07
1.95709e-07
1.95245e-07
1.94819e-07
1.94434e-07
1.94091e-07
1.93791e-07
1.93534e-07
1.93321e-07
1.93152e-07
1.93027e-07
1.92945e-07
1.92904e-07
1.99028e-07
1.98759e-07
1.98382e-07
1.97919e-07
1.97388e-07
1.96806e-07
1.96187e-07
1.95545e-07
1.94889e-07
1.94231e-07
1.93579e-07
1.92941e-07
1.92323e-07
1.91731e-07
1.91169e-07
1.90641e-07
1.90152e-07
1.89703e-07
1.89297e-07
1.88935e-07
1.88619e-07
1.88349e-07
1.88125e-07
1.87947e-07
1.87816e-07
1.87729e-07
1.87686e-07
1.93819e-07
1.9353e-07
1.93126e-07
1.9263e-07
1.92062e-07
1.91439e-07
1.90777e-07
1.90089e-07
1.89388e-07
1.88685e-07
1.87989e-07
1.87307e-07
1.86648e-07
1.86016e-07
1.85417e-07
1.84856e-07
1.84335e-07
1.83858e-07
1.83426e-07
1.83042e-07
1.82706e-07
1.8242e-07
1.82183e-07
1.81995e-07
1.81855e-07
1.81764e-07
1.81718e-07
1.87874e-07
1.87562e-07
1.87126e-07
1.8659e-07
1.85976e-07
1.85303e-07
1.84589e-07
1.83847e-07
1.83092e-07
1.82335e-07
1.81585e-07
1.80853e-07
1.80144e-07
1.79466e-07
1.78823e-07
1.78222e-07
1.77664e-07
1.77153e-07
1.76692e-07
1.76281e-07
1.75923e-07
1.75617e-07
1.75365e-07
1.75164e-07
1.75016e-07
1.74918e-07
1.7487e-07
1.8106e-07
1.8072e-07
1.80245e-07
1.79663e-07
1.78995e-07
1.78265e-07
1.77489e-07
1.76685e-07
1.75866e-07
1.75046e-07
1.74236e-07
1.73443e-07
1.72678e-07
1.71947e-07
1.71255e-07
1.70607e-07
1.70007e-07
1.69458e-07
1.68963e-07
1.68523e-07
1.68139e-07
1.67811e-07
1.67541e-07
1.67327e-07
1.67169e-07
1.67065e-07
1.67013e-07
1.73238e-07
1.72867e-07
1.72349e-07
1.71713e-07
1.70986e-07
1.70189e-07
1.69345e-07
1.6847e-07
1.6758e-07
1.6669e-07
1.65811e-07
1.64953e-07
1.64125e-07
1.63335e-07
1.62588e-07
1.61889e-07
1.61243e-07
1.60653e-07
1.60121e-07
1.59648e-07
1.59237e-07
1.58886e-07
1.58597e-07
1.58368e-07
1.58199e-07
1.58088e-07
1.58033e-07
1.64287e-07
1.63882e-07
1.63316e-07
1.62622e-07
1.61829e-07
1.60962e-07
1.60043e-07
1.59092e-07
1.58127e-07
1.57162e-07
1.5621e-07
1.55282e-07
1.54388e-07
1.53536e-07
1.52731e-07
1.51979e-07
1.51285e-07
1.50652e-07
1.50081e-07
1.49576e-07
1.49135e-07
1.48761e-07
1.48452e-07
1.48208e-07
1.48028e-07
1.4791e-07
1.47852e-07
1.5412e-07
1.5368e-07
1.53065e-07
1.52312e-07
1.51451e-07
1.50512e-07
1.49517e-07
1.4849e-07
1.47447e-07
1.46407e-07
1.45381e-07
1.44382e-07
1.43419e-07
1.425e-07
1.41631e-07
1.40816e-07
1.40062e-07
1.39372e-07
1.3875e-07
1.38199e-07
1.37718e-07
1.37309e-07
1.36971e-07
1.36705e-07
1.36507e-07
1.36378e-07
1.36315e-07
1.42715e-07
1.42239e-07
1.41572e-07
1.40752e-07
1.39811e-07
1.38782e-07
1.37694e-07
1.3657e-07
1.3543e-07
1.34293e-07
1.33173e-07
1.32083e-07
1.31032e-07
1.30031e-07
1.29086e-07
1.28205e-07
1.27392e-07
1.26651e-07
1.25985e-07
1.25395e-07
1.24882e-07
1.24446e-07
1.24087e-07
1.23803e-07
1.23593e-07
1.23456e-07
1.23389e-07
1.2987e-07
1.29348e-07
1.28621e-07
1.27732e-07
1.26719e-07
1.25616e-07
1.24452e-07
1.23254e-07
1.22043e-07
1.20839e-07
1.19656e-07
1.1851e-07
1.1741e-07
1.16366e-07
1.15385e-07
1.14473e-07
1.13634e-07
1.12871e-07
1.12186e-07
1.1158e-07
1.11054e-07
1.10608e-07
1.10241e-07
1.09952e-07
1.09738e-07
1.09598e-07
1.0953e-07
1.15856e-07
1.15314e-07
1.14561e-07
1.13642e-07
1.12597e-07
1.11462e-07
1.10267e-07
1.09039e-07
1.07801e-07
1.06573e-07
1.0537e-07
1.04207e-07
1.03093e-07
1.02039e-07
1.0105e-07
1.00133e-07
9.92898e-08
9.85249e-08
9.78394e-08
9.72343e-08
9.67097e-08
9.62651e-08
9.58996e-08
9.56116e-08
9.53993e-08
9.52604e-08
9.51923e-08
1.01263e-07
1.00718e-07
9.99619e-08
9.90403e-08
9.79943e-08
9.686e-08
9.56686e-08
9.44472e-08
9.32186e-08
9.20023e-08
9.08141e-08
8.96671e-08
8.85717e-08
8.75364e-08
8.65675e-08
8.56698e-08
8.48469e-08
8.4101e-08
8.34335e-08
8.28451e-08
8.23355e-08
8.19041e-08
8.15498e-08
8.12709e-08
8.10654e-08
8.09311e-08
8.08653e-08
8.66113e-08
8.6081e-08
8.53449e-08
8.44493e-08
8.34346e-08
8.23364e-08
8.11854e-08
8.00079e-08
7.88261e-08
7.76586e-08
7.65206e-08
7.54243e-08
7.43795e-08
7.33937e-08
7.24729e-08
7.16211e-08
7.08414e-08
7.01356e-08
6.95049e-08
6.89494e-08
6.84689e-08
6.80624e-08
6.77288e-08
6.74663e-08
6.72731e-08
6.71469e-08
6.70851e-08
7.24503e-08
7.19506e-08
7.12578e-08
7.0416e-08
6.94639e-08
6.84354e-08
6.73595e-08
6.6261e-08
6.51609e-08
6.40763e-08
6.30211e-08
6.20065e-08
6.10414e-08
6.01324e-08
5.92846e-08
5.85015e-08
5.77856e-08
5.71385e-08
5.65607e-08
5.60523e-08
5.56129e-08
5.52414e-08
5.49367e-08
5.46972e-08
5.45209e-08
5.44057e-08
5.43494e-08
5.92826e-08
5.88268e-08
5.81954e-08
5.74293e-08
5.65641e-08
5.5631e-08
5.46567e-08
5.3664e-08
5.26716e-08
5.16951e-08
5.0747e-08
4.98371e-08
4.89731e-08
4.81607e-08
4.74043e-08
4.67067e-08
4.60698e-08
4.54948e-08
4.4982e-08