/*--------------------------------*- C++ -*----------------------------------*\
| =========                 |                                                 |
| \\      /  F ield         | OpenFOAM: The Open Source CFD Toolbox           |
|  \\    /   O peration     | Version:  2106                                  |
|   \\  /    A nd           | Website:  www.openfoam.com                      |
|    \\/     M anipulation  |                                                 |
\*---------------------------------------------------------------------------*/
FoamFile
{
    version     2.0;
    format      ascii;
    arch        "LSB;label=32;scalar=64";
    class       volScalarField;
    location    "160.00011";
    object      C2H4_0;
}
// * * * * * * * * * * * * * * * * * * * * * * * * * * * * * * * * * * * * * //

dimensions      [0 0 0 0 0 0 0];

internalField   nonuniform List<scalar> 
3360
(
7.89309e-18
8.14707e-18
8.50052e-18
8.93284e-18
9.42603e-18
9.96391e-18
1.05319e-17
1.11167e-17
1.17067e-17
1.22914e-17
1.2862e-17
1.34106e-17
1.39312e-17
1.44185e-17
1.48689e-17
1.52796e-17
1.56491e-17
1.59765e-17
1.62621e-17
1.65067e-17
1.67117e-17
1.68792e-17
1.70114e-17
1.71112e-17
1.71814e-17
1.72251e-17
1.72453e-17
3.46252e-17
3.58979e-17
3.76937e-17
3.99301e-17
4.25385e-17
4.54592e-17
4.86389e-17
5.20286e-17
5.5583e-17
5.9259e-17
6.30154e-17
6.68121e-17
7.06096e-17
7.43688e-17
7.80513e-17
8.16193e-17
8.50359e-17
8.82651e-17
9.12727e-17
9.40263e-17
9.64965e-17
9.86571e-17
1.00486e-16
1.01965e-16
1.03081e-16
1.03826e-16
1.04198e-16
1.0864e-16
1.13408e-16
1.20183e-16
1.28696e-16
1.38725e-16
1.50068e-16
1.62535e-16
1.75939e-16
1.90089e-16
2.04791e-16
2.19847e-16
2.35059e-16
2.50234e-16
2.65178e-16
2.79705e-16
2.93638e-16
3.06814e-16
3.19086e-16
3.30326e-16
3.40429e-16
3.49313e-16
3.56921e-16
3.63219e-16
3.68197e-16
3.71866e-16
3.7426e-16
3.75425e-16
3.16389e-16
3.32103e-16
3.54583e-16
3.83024e-16
4.16754e-16
4.55144e-16
4.97563e-16
5.4336e-16
5.91849e-16
6.42312e-16
6.94004e-16
7.46171e-16
7.98059e-16
8.48939e-16
8.98117e-16
9.44954e-16
9.88887e-16
1.02943e-15
1.06621e-15
1.09893e-15
1.1274e-15
1.15151e-15
1.17126e-15
1.18671e-15
1.19798e-15
1.20526e-15
1.20877e-15
9.24355e-16
9.73928e-16
1.04498e-15
1.13508e-15
1.24217e-15
1.36427e-15
1.49934e-15
1.64524e-15
1.79966e-15
1.96017e-15
2.12428e-15
2.28945e-15
2.45321e-15
2.61319e-15
2.76719e-15
2.91327e-15
3.04971e-15
3.17513e-15
3.28843e-15
3.38885e-15
3.47592e-15
3.54943e-15
3.60946e-15
3.65627e-15
3.69035e-15
3.7123e-15
3.72287e-15
2.72547e-15
2.87771e-15
3.09618e-15
3.37346e-15
3.70321e-15
4.07929e-15
4.49533e-15
4.94457e-15
5.41978e-15
5.91333e-15
6.41739e-15
6.92408e-15
7.42568e-15
7.91491e-15
8.38507e-15
8.83019e-15
9.24521e-15
9.62599e-15
9.96939e-15
1.02732e-14
1.05362e-14
1.07579e-14
1.09386e-14
1.10794e-14
1.11817e-14
1.12475e-14
1.12792e-14
8.09595e-15
8.55853e-15
9.22233e-15
1.00649e-14
1.10668e-14
1.22092e-14
1.34725e-14
1.48358e-14
1.62769e-14
1.77724e-14
1.92983e-14
2.08307e-14
2.23463e-14
2.3823e-14
2.52408e-14
2.6582e-14
2.78315e-14
2.8977e-14
3.00094e-14
3.09223e-14
3.1712e-14
3.23775e-14
3.29199e-14
3.33422e-14
3.36492e-14
3.38466e-14
3.39415e-14
2.4129e-14
2.55209e-14
2.75193e-14
3.00567e-14
3.30749e-14
3.65168e-14
4.03232e-14
4.44306e-14
4.87716e-14
5.32755e-14
5.78697e-14
6.24818e-14
6.70415e-14
7.14826e-14
7.57447e-14
7.97746e-14
8.35272e-14
8.69662e-14
9.00641e-14
9.28022e-14
9.51699e-14
9.71643e-14
9.87891e-14
1.00054e-13
1.00972e-13
1.01563e-13
1.01847e-13
7.21045e-14
7.62878e-14
8.22926e-14
8.99161e-14
9.89827e-14
1.09321e-13
1.2075e-13
1.33081e-13
1.46108e-13
1.5962e-13
1.73398e-13
1.87225e-13
2.0089e-13
2.14195e-13
2.2696e-13
2.39027e-13
2.50261e-13
2.60554e-13
2.69825e-13
2.78018e-13
2.85102e-13
2.91069e-13
2.9593e-13
2.99713e-13
3.02462e-13
3.04229e-13
3.05079e-13
2.15484e-13
2.28013e-13
2.46002e-13
2.68842e-13
2.96005e-13
3.26977e-13
3.61219e-13
3.98156e-13
4.37178e-13
4.77644e-13
5.18901e-13
5.60298e-13
6.01202e-13
6.41022e-13
6.79217e-13
7.15314e-13
7.48912e-13
7.7969e-13
8.07403e-13
8.31889e-13
8.53056e-13
8.70881e-13
8.85398e-13
8.96694e-13
9.04899e-13
9.10175e-13
9.1271e-13
6.44296e-13
6.81808e-13
7.35651e-13
8.04001e-13
8.85274e-13
9.7792e-13
1.08032e-12
1.19075e-12
1.30737e-12
1.42827e-12
1.5515e-12
1.6751e-12
1.79719e-12
1.91602e-12
2.02996e-12
2.13762e-12
2.2378e-12
2.32955e-12
2.41215e-12
2.48512e-12
2.54819e-12
2.60129e-12
2.64454e-12
2.67819e-12
2.70263e-12
2.71834e-12
2.72589e-12
1.92464e-12
2.03665e-12
2.19742e-12
2.40147e-12
2.64406e-12
2.92052e-12
3.226e-12
3.55533e-12
3.90303e-12
4.26337e-12
4.6305e-12
4.99861e-12
5.36211e-12
5.71573e-12
6.0547e-12
6.37485e-12
6.67266e-12
6.94531e-12
7.19069e-12
7.40738e-12
7.59461e-12
7.75221e-12
7.88052e-12
7.98033e-12
8.05281e-12
8.0994e-12
8.12178e-12
5.7432e-12
6.07709e-12
6.55614e-12
7.16391e-12
7.88611e-12
8.70871e-12
9.61713e-12
1.05959e-11
1.16285e-11
1.2698e-11
1.37869e-11
1.48781e-11
1.59548e-11
1.70017e-11
1.80046e-11
1.89513e-11
1.98315e-11
2.06369e-11
2.13614e-11
2.2001e-11
2.25534e-11
2.30182e-11
2.33965e-11
2.36907e-11
2.39043e-11
2.40415e-11
2.41075e-11
1.70891e-11
1.80799e-11
1.95009e-11
2.13028e-11
2.34428e-11
2.58786e-11
2.85664e-11
3.146e-11
3.45103e-11
3.76666e-11
4.08773e-11
4.40916e-11
4.72607e-11
5.03389e-11
5.32853e-11
5.60641e-11
5.86455e-11
6.10057e-11
6.31274e-11
6.49989e-11
6.66143e-11
6.79727e-11
6.90777e-11
6.99365e-11
7.05597e-11
7.09601e-11
7.11523e-11
5.0668e-11
5.35919e-11
5.77826e-11
6.30922e-11
6.93914e-11
7.65534e-11
8.44467e-11
9.29329e-11
1.01867e-10
1.11098e-10
1.20475e-10
1.29849e-10
1.39078e-10
1.4803e-10
1.56588e-10
1.64649e-10
1.72128e-10
1.78959e-10
1.85093e-10
1.90498e-10
1.9516e-10
1.99077e-10
2.0226e-10
2.04733e-10
2.06527e-10
2.07678e-10
2.08231e-10
1.49351e-10
1.57896e-10
1.70134e-10
1.85622e-10
2.03971e-10
2.24801e-10
2.4772e-10
2.72316e-10
2.9816e-10
3.24815e-10
3.51838e-10
3.78801e-10
4.05297e-10
4.30951e-10
4.5543e-10
4.78448e-10
4.9977e-10
5.19212e-10
5.36645e-10
5.51986e-10
5.652e-10
5.76288e-10
5.85292e-10
5.92279e-10
5.97341e-10
6.00588e-10
6.02146e-10
4.36839e-10
4.61492e-10
4.96751e-10
5.41299e-10
5.93973e-10
6.53637e-10
7.19126e-10
7.89232e-10
8.62706e-10
9.3828e-10
1.0147e-09
1.09074e-09
1.16528e-09
1.23726e-09
1.30578e-09
1.37006e-09
1.42947e-09
1.48354e-09
1.53193e-09
1.57443e-09
1.61097e-09
1.6416e-09
1.66643e-09
1.68568e-09
1.6996e-09
1.70853e-09
1.71281e-09
1.26425e-09
1.33406e-09
1.43373e-09
1.55938e-09
1.70755e-09
1.87489e-09
2.05798e-09
2.25331e-09
2.45733e-09
2.66644e-09
2.87715e-09
3.08612e-09
3.29025e-09
3.48677e-09
3.67325e-09
3.84769e-09
4.00847e-09
4.15441e-09
4.28469e-09
4.39888e-09
4.49687e-09
4.57883e-09
4.64517e-09
4.69651e-09
4.73361e-09
4.75737e-09
4.76874e-09
3.60814e-09
3.80097e-09
4.07563e-09
4.42086e-09
4.82656e-09
5.28298e-09
5.78032e-09
6.30865e-09
6.85805e-09
7.41873e-09
7.98126e-09
8.53679e-09
9.07726e-09
9.59554e-09
1.00855e-08
1.05423e-08
1.09619e-08
1.13417e-08
1.16797e-08
1.19753e-08
1.22283e-08
1.24395e-08
1.26101e-08
1.27419e-08
1.2837e-08
1.28978e-08
1.29269e-08
1.01103e-08
1.06258e-08
1.13581e-08
1.22752e-08
1.33484e-08
1.45502e-08
1.58531e-08
1.72303e-08
1.86549e-08
2.01014e-08
2.15453e-08
2.29644e-08
2.43386e-08
2.56506e-08
2.68859e-08
2.80328e-08
2.90828e-08
3.00297e-08
3.08702e-08
3.16029e-08
3.22285e-08
3.27495e-08
3.31695e-08
3.34934e-08
3.37267e-08
3.38757e-08
3.39468e-08
2.76728e-08
2.89969e-08
3.08715e-08
3.32093e-08
3.59317e-08
3.8964e-08
4.22332e-08
4.56688e-08
4.92027e-08
5.27705e-08
5.63127e-08
5.97758e-08
6.31127e-08
6.62837e-08
6.92563e-08
7.20052e-08
7.45122e-08
7.67655e-08
7.87591e-08
8.04922e-08
8.19683e-08
8.31946e-08
8.41812e-08
8.49406e-08
8.54867e-08
8.58349e-08
8.60009e-08
7.35523e-08
7.67955e-08
8.13711e-08
8.70516e-08
9.36326e-08
1.00922e-07
1.08734e-07
1.16896e-07
1.25242e-07
1.33621e-07
1.41893e-07
1.49939e-07
1.57654e-07
1.64951e-07
1.71762e-07
1.78036e-07
1.83738e-07
1.88845e-07
1.93351e-07
1.97257e-07
2.00575e-07
2.03326e-07
2.05535e-07
2.07232e-07
2.08451e-07
2.09227e-07
2.09596e-07
1.8874e-07
1.96279e-07
2.06879e-07
2.19981e-07
2.35084e-07
2.5172e-07
2.69453e-07
2.87873e-07
3.06605e-07
3.25309e-07
3.43682e-07
3.61465e-07
3.78439e-07
3.94428e-07
4.09294e-07
4.22939e-07
4.35297e-07
4.46336e-07
4.56047e-07
4.64446e-07
4.71566e-07
4.77456e-07
4.82178e-07
4.85801e-07
4.88398e-07
4.9005e-07
4.90836e-07
4.65274e-07
4.81884e-07
5.05166e-07
5.3383e-07
5.66722e-07
6.02782e-07
6.41028e-07
6.80562e-07
7.20571e-07
7.60335e-07
7.99224e-07
8.36708e-07
8.72349e-07
9.05801e-07
9.36802e-07
9.65171e-07
9.90795e-07
1.01362e-06
1.03366e-06
1.05096e-06
1.06559e-06
1.07768e-06
1.08736e-06
1.09477e-06
1.10008e-06
1.10345e-06
1.10506e-06
1.09858e-06
1.13335e-06
1.18197e-06
1.24163e-06
1.30984e-06
1.38433e-06
1.46303e-06
1.54404e-06
1.62572e-06
1.70659e-06
1.78541e-06
1.86113e-06
1.9329e-06
2.00007e-06
2.06216e-06
2.11884e-06
2.16992e-06
2.21534e-06
2.25514e-06
2.28943e-06
2.3184e-06
2.3423e-06
2.36141e-06
2.37603e-06
2.3865e-06
2.39314e-06
2.39629e-06
2.48261e-06
2.5522e-06
2.64929e-06
2.76816e-06
2.9037e-06
3.05127e-06
3.2067e-06
3.36623e-06
3.52659e-06
3.68491e-06
3.83878e-06
3.98623e-06
4.12565e-06
4.25585e-06
4.37594e-06
4.48536e-06
4.5838e-06
4.67119e-06
4.74765e-06
4.81344e-06
4.86897e-06
4.91473e-06
4.95127e-06
4.97922e-06
4.9992e-06
5.01187e-06
5.01789e-06
5.37447e-06
5.50859e-06
5.6955e-06
5.92394e-06
6.18393e-06
6.46644e-06
6.76339e-06
7.06759e-06
7.37275e-06
7.6735e-06
7.9653e-06
8.24445e-06
8.50802e-06
8.7538e-06
8.98021e-06
9.18626e-06
9.37143e-06
9.53565e-06
9.67918e-06
9.80259e-06
9.90666e-06
9.99235e-06
1.00607e-05
1.0113e-05
1.01504e-05
1.0174e-05
1.01853e-05
1.1158e-05
1.14095e-05
1.17597e-05
1.21874e-05
1.26739e-05
1.32022e-05
1.37571e-05
1.43252e-05
1.48947e-05
1.54557e-05
1.59997e-05
1.65198e-05
1.70107e-05
1.74683e-05
1.78897e-05
1.8273e-05
1.86174e-05
1.89227e-05
1.91894e-05
1.94187e-05
1.96119e-05
1.9771e-05
1.98979e-05
1.99948e-05
2.00641e-05
2.0108e-05
2.01288e-05
2.22337e-05
2.26958e-05
2.33396e-05
2.41264e-05
2.50217e-05
2.59948e-05
2.70178e-05
2.80663e-05
2.91187e-05
3.01566e-05
3.11645e-05
3.21295e-05
3.30416e-05
3.3893e-05
3.4678e-05
3.53932e-05
3.60365e-05
3.66076e-05
3.71071e-05
3.75369e-05
3.78996e-05
3.81983e-05
3.84369e-05
3.86193e-05
3.87496e-05
3.88323e-05
3.88715e-05
4.24511e-05
4.32819e-05
4.44409e-05
4.58596e-05
4.74773e-05
4.92396e-05
5.10974e-05
5.30071e-05
5.49303e-05
5.68336e-05
5.86887e-05
6.0472e-05
6.21642e-05
6.37505e-05
6.52195e-05
6.65634e-05
6.77774e-05
6.88594e-05
6.98099e-05
7.06308e-05
7.13263e-05
7.19012e-05
7.2362e-05
7.27153e-05
7.29686e-05
7.31297e-05
7.32063e-05
7.72697e-05
7.87047e-05
8.07092e-05
8.31675e-05
8.59774e-05
8.90468e-05
9.22926e-05
9.56403e-05
9.9024e-05
0.000102386
0.000105676
0.000108851
0.000111877
0.000114726
0.000117375
0.000119808
0.000122016
0.000123992
0.000125735
0.000127246
0.000128531
0.000129598
0.000130456
0.000131116
0.000131591
0.000131894
0.000132038
0.000133027
0.000135326
0.000138538
0.000142477
0.000146979
0.000151899
0.000157101
0.000162467
0.000167892
0.000173282
0.000178557
0.000183649
0.000188501
0.000193067
0.000197313
0.000201214
0.000204751
0.000207917
0.000210707
0.000213127
0.000215184
0.000216891
0.000218264
0.000219319
0.000220078
0.000220561
0.000220792
0.000214574
0.000217851
0.000222418
0.000228003
0.000234366
0.000241289
0.000248579
0.000256061
0.000263586
0.000271022
0.000278258
0.000285201
0.000291778
0.00029793
0.000303614
0.000308802
0.000313476
0.00031763
0.000321269
0.000324406
0.000327058
0.000329248
0.000331
0.000332343
0.000333305
0.000333917
0.000334207
0.000321649
0.000325694
0.000331311
0.000338144
0.00034588
0.000354239
0.000362972
0.000371862
0.000380724
0.000389402
0.000397767
0.000405723
0.000413197
0.000420132
0.000426495
0.000432263
0.00043743
0.000441999
0.000445982
0.0004494
0.000452278
0.000454644
0.000456531
0.000457972
0.000459001
0.000459654
0.000459963
0.000446599
0.000450904
0.000456857
0.000464062
0.000472169
0.000480871
0.000489899
0.000499024
0.000508058
0.000516844
0.000525262
0.000533218
0.000540644
0.000547494
0.000553743
0.000559378
0.0005644
0.00056882
0.000572658
0.000575938
0.00057869
0.000580945
0.000582739
0.000584105
0.000585079
0.000585695
0.000585987
0.000576892
0.000580978
0.000586613
0.000593408
0.000601019
0.000609149
0.00061754
0.00062598
0.000634292
0.000642336
0.000650007
0.000657223
0.000663931
0.000670095
0.000675697
0.000680731
0.000685205
0.000689132
0.000692534
0.000695436
0.000697866
0.000699855
0.000701434
0.000702636
0.000703492
0.000704033
0.000704289
0.00070161
0.000705185
0.000710105
0.000716025
0.00072264
0.000729686
0.00073694
0.000744216
0.000751364
0.000758264
0.000764829
0.000770993
0.000776712
0.000781959
0.00078672
0.000790995
0.00079479
0.000798119
0.000801001
0.000803458
0.000805516
0.000807199
0.000808536
0.000809554
0.000810278
0.000810737
0.000810954
0.000813933
0.000816915
0.000821017
0.000825949
0.000831457
0.00083732
0.000843352
0.000849398
0.000855335
0.000861065
0.000866515
0.000871632
0.00087638
0.000880736
0.000884691
0.000888243
0.000891398
0.000894167
0.000896566
0.000898612
0.000900327
0.000901731
0.000902847
0.000903697
0.000904303
0.000904687
0.000904868
0.000911514
0.000913958
0.000917322
0.000921367
0.000925887
0.000930701
0.000935657
0.000940629
0.000945515
0.000950236
0.000954731
0.000958955
0.00096288
0.000966485
0.000969761
0.000972708
0.000975328
0.00097763
0.000979626
0.000981332
0.000982762
0.000983935
0.000984868
0.000985579
0.000986087
0.000986408
0.000986561
0.000994975
0.000996985
0.000999754
0.00100309
0.00100681
0.00101079
0.00101489
0.001019
0.00102305
0.00102697
0.00103071
0.00103423
0.0010375
0.00104052
0.00104326
0.00104573
0.00104792
0.00104986
0.00105154
0.00105297
0.00105418
0.00105517
0.00105596
0.00105656
0.00105699
0.00105726
0.00105739
0.00106626
0.00106794
0.00107026
0.00107304
0.00107617
0.0010795
0.00108294
0.00108641
0.00108982
0.00109313
0.00109629
0.00109927
0.00110204
0.0011046
0.00110693
0.00110903
0.00111091
0.00111256
0.00111399
0.00111522
0.00111625
0.0011171
0.00111777
0.00111829
0.00111866
0.00111889
0.001119
0.00112761
0.00112904
0.00113102
0.0011334
0.00113607
0.00113892
0.00114187
0.00114484
0.00114778
0.00115062
0.00115335
0.00115592
0.00115831
0.00116052
0.00116254
0.00116436
0.00116599
0.00116742
0.00116866
0.00116973
0.00117063
0.00117137
0.00117196
0.0011724
0.00117273
0.00117293
0.00117303
0.00118105
0.0011823
0.00118402
0.00118609
0.00118842
0.00119092
0.0011935
0.0011961
0.00119867
0.00120117
0.00120356
0.00120582
0.00120793
0.00120987
0.00121165
0.00121326
0.00121469
0.00121596
0.00121706
0.001218
0.0012188
0.00121945
0.00121997
0.00122037
0.00122065
0.00122083
0.00122092
0.00122827
0.00122938
0.00123091
0.00123275
0.00123483
0.00123705
0.00123934
0.00124167
0.00124396
0.00124619
0.00124833
0.00125035
0.00125224
0.00125398
0.00125558
0.00125702
0.00125831
0.00125944
0.00126043
0.00126128
0.00126199
0.00126258
0.00126305
0.00126341
0.00126366
0.00126383
0.0012639
0.00127061
0.00127161
0.00127299
0.00127466
0.00127654
0.00127855
0.00128063
0.00128274
0.00128482
0.00128685
0.00128879
0.00129063
0.00129234
0.00129393
0.00129538
0.00129669
0.00129787
0.0012989
0.0012998
0.00130058
0.00130123
0.00130176
0.00130219
0.00130252
0.00130275
0.0013029
0.00130297
0.00130911
0.00131002
0.00131129
0.00131283
0.00131455
0.0013164
0.00131832
0.00132025
0.00132217
0.00132404
0.00132583
0.00132752
0.00132911
0.00133057
0.00133191
0.00133312
0.00133421
0.00133516
0.00133599
0.00133671
0.00133731
0.00133781
0.0013382
0.0013385
0.00133872
0.00133886
0.00133892
0.00134457
0.00134543
0.00134661
0.00134804
0.00134964
0.00135136
0.00135315
0.00135496
0.00135674
0.00135848
0.00136015
0.00136174
0.00136321
0.00136458
0.00136583
0.00136697
0.00136798
0.00136887
0.00136965
0.00137032
0.00137088
0.00137134
0.00137171
0.001372
0.0013722
0.00137233
0.00137239
0.00137764
0.00137844
0.00137955
0.0013809
0.00138241
0.00138403
0.00138571
0.00138742
0.0013891
0.00139074
0.00139232
0.00139381
0.00139521
0.0013965
0.00139768
0.00139875
0.0013997
0.00140055
0.00140128
0.00140191
0.00140245
0.00140288
0.00140323
0.0014035
0.00140369
0.00140381
0.00140387
0.00140879
0.00140956
0.00141061
0.00141189
0.00141333
0.00141487
0.00141647
0.00141809
0.00141969
0.00142125
0.00142275
0.00142417
0.0014255
0.00142673
0.00142786
0.00142888
0.00142979
0.00143059
0.0014313
0.0014319
0.0014324
0.00143282
0.00143315
0.00143341
0.00143359
0.00143371
0.00143376
0.00143842
0.00143915
0.00144016
0.00144139
0.00144276
0.00144424
0.00144578
0.00144733
0.00144887
0.00145037
0.00145181
0.00145317
0.00145445
0.00145563
0.00145671
0.00145769
0.00145857
0.00145934
0.00146001
0.00146059
0.00146108
0.00146148
0.0014618
0.00146204
0.00146222
0.00146233
0.00146238
0.00146682
0.00146752
0.0014685
0.00146968
0.00147101
0.00147244
0.00147393
0.00147543
0.00147691
0.00147836
0.00147975
0.00148107
0.00148231
0.00148345
0.0014845
0.00148544
0.00148629
0.00148704
0.00148769
0.00148825
0.00148872
0.00148911
0.00148942
0.00148966
0.00148982
0.00148993
0.00148998
0.00149424
0.00149492
0.00149587
0.00149702
0.00149832
0.0014997
0.00150115
0.0015026
0.00150405
0.00150546
0.00150681
0.0015081
0.0015093
0.00151041
0.00151143
0.00151235
0.00151317
0.0015139
0.00151453
0.00151508
0.00151554
0.00151592
0.00151622
0.00151645
0.00151661
0.00151672
0.00151677
0.00152087
0.00152154
0.00152247
0.00152359
0.00152486
0.00152621
0.00152762
0.00152905
0.00153046
0.00153184
0.00153316
0.00153442
0.00153559
0.00153668
0.00153767
0.00153857
0.00153938
0.00154009
0.00154071
0.00154125
0.0015417
0.00154206
0.00154236
0.00154258
0.00154275
0.00154285
0.0015429
0.00154688
0.00154754
0.00154845
0.00154955
0.00155079
0.00155212
0.00155351
0.00155491
0.00155629
0.00155765
0.00155895
0.00156018
0.00156133
0.0015624
0.00156338
0.00156426
0.00156505
0.00156575
0.00156636
0.00156689
0.00156733
0.00156769
0.00156798
0.0015682
0.00156836
0.00156846
0.00156851
0.00157239
0.00157304
0.00157394
0.00157502
0.00157625
0.00157756
0.00157892
0.0015803
0.00158167
0.001583
0.00158428
0.00158549
0.00158663
0.00158768
0.00158865
0.00158952
0.0015903
0.00159099
0.00159159
0.00159211
0.00159255
0.0015929
0.00159319
0.00159341
0.00159356
0.00159366
0.00159371
0.00159751
0.00159815
0.00159904
0.00160011
0.00160132
0.00160262
0.00160396
0.00160533
0.00160668
0.001608
0.00160926
0.00161047
0.00161159
0.00161263
0.00161359
0.00161445
0.00161522
0.0016159
0.0016165
0.00161701
0.00161744
0.00161779
0.00161808
0.00161829
0.00161845
0.00161855
0.00161859
0.00162233
0.00162296
0.00162384
0.0016249
0.0016261
0.00162739
0.00162872
0.00163007
0.00163141
0.00163272
0.00163398
0.00163517
0.00163628
0.00163732
0.00163826
0.00163912
0.00163989
0.00164056
0.00164115
0.00164166
0.00164209
0.00164244
0.00164272
0.00164293
0.00164309
0.00164318
0.00164323
0.00164691
0.00164754
0.00164841
0.00164947
0.00165066
0.00165193
0.00165326
0.0016546
0.00165594
0.00165724
0.00165848
0.00165967
0.00166078
0.0016618
0.00166274
0.0016636
0.00166436
0.00166503
0.00166562
0.00166612
0.00166655
0.0016669
0.00166718
0.00166739
0.00166754
0.00166764
0.00166768
0.00167131
0.00167194
0.00167281
0.00167386
0.00167504
0.00167632
0.00167764
0.00167898
0.0016803
0.0016816
0.00168284
0.00168402
0.00168512
0.00168615
0.00168708
0.00168793
0.00168869
0.00168936
0.00168995
0.00169045
0.00169087
0.00169122
0.0016915
0.00169171
0.00169186
0.00169196
0.001692
0.00169559
0.00169622
0.00169708
0.00169813
0.00169931
0.00170058
0.0017019
0.00170323
0.00170456
0.00170585
0.00170709
0.00170826
0.00170937
0.00171039
0.00171132
0.00171217
0.00171292
0.00171359
0.00171418
0.00171468
0.0017151
0.00171545
0.00171572
0.00171593
0.00171609
0.00171618
0.00171623
0.00171978
0.0017204
0.00172127
0.00172232
0.0017235
0.00172476
0.00172608
0.00172741
0.00172873
0.00173002
0.00173126
0.00173244
0.00173354
0.00173456
0.00173549
0.00173633
0.00173709
0.00173776
0.00173834
0.00173884
0.00173926
0.00173961
0.00173989
0.0017401
0.00174025
0.00174035
0.00174039
0.00174391
0.00174454
0.0017454
0.00174645
0.00174763
0.00174889
0.00175021
0.00175154
0.00175286
0.00175415
0.00175539
0.00175657
0.00175767
0.00175868
0.00175962
0.00176046
0.00176122
0.00176189
0.00176247
0.00176297
0.00176339
0.00176374
0.00176401
0.00176423
0.00176438
0.00176447
0.00176452
0.00176801
0.00176864
0.0017695
0.00177055
0.00177173
0.00177299
0.00177431
0.00177564
0.00177697
0.00177825
0.00177949
0.00178067
0.00178177
0.00178279
0.00178372
0.00178457
0.00178532
0.00178599
0.00178658
0.00178708
0.0017875
0.00178784
0.00178812
0.00178833
0.00178848
0.00178858
0.00178863
0.00179209
0.00179272
0.00179358
0.00179463
0.00179581
0.00179708
0.0017984
0.00179973
0.00180105
0.00180234
0.00180358
0.00180476
0.00180586
0.00180688
0.00180782
0.00180866
0.00180942
0.00181009
0.00181067
0.00181117
0.0018116
0.00181194
0.00181222
0.00181243
0.00181258
0.00181268
0.00181273
0.00181616
0.00181679
0.00181766
0.00181871
0.00181989
0.00182116
0.00182248
0.00182381
0.00182514
0.00182643
0.00182767
0.00182885
0.00182995
0.00183097
0.00183191
0.00183275
0.00183351
0.00183418
0.00183477
0.00183527
0.00183569
0.00183604
0.00183631
0.00183653
0.00183668
0.00183677
0.00183682
0.00184023
0.00184086
0.00184173
0.00184278
0.00184396
0.00184523
0.00184655
0.00184789
0.00184922
0.00185051
0.00185175
0.00185293
0.00185403
0.00185506
0.00185599
0.00185684
0.0018576
0.00185827
0.00185885
0.00185936
0.00185978
0.00186013
0.0018604
0.00186062
0.00186077
0.00186086
0.00186091
0.0018643
0.00186492
0.00186579
0.00186684
0.00186803
0.0018693
0.00187062
0.00187196
0.00187328
0.00187458
0.00187582
0.001877
0.00187811
0.00187913
0.00188006
0.00188091
0.00188167
0.00188234
0.00188293
0.00188343
0.00188385
0.0018842
0.00188448
0.00188469
0.00188484
0.00188494
0.00188499
0.00188834
0.00188897
0.00188984
0.00189089
0.00189207
0.00189334
0.00189466
0.001896
0.00189733
0.00189862
0.00189987
0.00190105
0.00190215
0.00190317
0.00190411
0.00190496
0.00190572
0.00190639
0.00190697
0.00190747
0.0019079
0.00190825
0.00190852
0.00190874
0.00190889
0.00190898
0.00190903
0.00191235
0.00191298
0.00191384
0.0019149
0.00191608
0.00191735
0.00191867
0.00192001
0.00192133
0.00192263
0.00192387
0.00192505
0.00192615
0.00192717
0.00192811
0.00192895
0.00192971
0.00193038
0.00193097
0.00193147
0.00193189
0.00193224
0.00193251
0.00193273
0.00193288
0.00193297
0.00193302
0.0019363
0.00193693
0.00193779
0.00193884
0.00194002
0.00194129
0.00194261
0.00194394
0.00194527
0.00194656
0.0019478
0.00194897
0.00195007
0.00195109
0.00195202
0.00195287
0.00195363
0.00195429
0.00195488
0.00195538
0.0019558
0.00195614
0.00195642
0.00195663
0.00195678
0.00195688
0.00195693
0.00196016
0.00196078
0.00196164
0.00196269
0.00196387
0.00196513
0.00196644
0.00196777
0.00196909
0.00197038
0.00197161
0.00197278
0.00197388
0.00197489
0.00197582
0.00197666
0.00197742
0.00197808
0.00197866
0.00197916
0.00197958
0.00197993
0.0019802
0.00198041
0.00198056
0.00198066
0.0019807
0.00198388
0.0019845
0.00198536
0.0019864
0.00198757
0.00198882
0.00199013
0.00199145
0.00199276
0.00199404
0.00199527
0.00199643
0.00199752
0.00199853
0.00199945
0.00200029
0.00200104
0.0020017
0.00200228
0.00200277
0.00200319
0.00200353
0.0020038
0.00200401
0.00200416
0.00200426
0.0020043
0.00200741
0.00200803
0.00200888
0.00200991
0.00201107
0.00201232
0.00201361
0.00201492
0.00201622
0.00201749
0.00201871
0.00201986
0.00202094
0.00202194
0.00202286
0.00202368
0.00202443
0.00202508
0.00202565
0.00202614
0.00202656
0.0020269
0.00202717
0.00202737
0.00202752
0.00202762
0.00202766
0.00203069
0.0020313
0.00203214
0.00203316
0.00203431
0.00203554
0.00203682
0.00203812
0.0020394
0.00204065
0.00204186
0.002043
0.00204406
0.00204505
0.00204596
0.00204678
0.00204751
0.00204816
0.00204872
0.0020492
0.00204961
0.00204995
0.00205021
0.00205042
0.00205057
0.00205066
0.0020507
0.00205364
0.00205424
0.00205507
0.00205607
0.0020572
0.00205842
0.00205968
0.00206095
0.00206222
0.00206345
0.00206464
0.00206576
0.00206681
0.00206778
0.00206867
0.00206948
0.0020702
0.00207083
0.00207139
0.00207186
0.00207227
0.0020726
0.00207286
0.00207306
0.0020732
0.0020733
0.00207334
0.00207616
0.00207675
0.00207756
0.00207855
0.00207966
0.00208085
0.00208209
0.00208334
0.00208458
0.00208579
0.00208695
0.00208804
0.00208907
0.00209003
0.0020909
0.00209169
0.00209239
0.00209301
0.00209356
0.00209402
0.00209442
0.00209474
0.002095
0.00209519
0.00209533
0.00209542
0.00209547
0.00209816
0.00209873
0.00209953
0.00210049
0.00210157
0.00210273
0.00210394
0.00210516
0.00210637
0.00210754
0.00210867
0.00210974
0.00211075
0.00211167
0.00211252
0.00211329
0.00211398
0.00211458
0.00211511
0.00211556
0.00211595
0.00211626
0.00211651
0.0021167
0.00211684
0.00211693
0.00211697
0.00211951
0.00212007
0.00212084
0.00212177
0.00212282
0.00212394
0.00212511
0.00212629
0.00212746
0.0021286
0.00212969
0.00213073
0.0021317
0.00213259
0.00213341
0.00213415
0.00213482
0.0021354
0.00213591
0.00213635
0.00213672
0.00213702
0.00213727
0.00213745
0.00213758
0.00213767
0.00213771
0.00214008
0.00214062
0.00214136
0.00214225
0.00214326
0.00214434
0.00214546
0.0021466
0.00214772
0.00214881
0.00214986
0.00215085
0.00215178
0.00215264
0.00215343
0.00215414
0.00215478
0.00215534
0.00215583
0.00215625
0.0021566
0.00215689
0.00215712
0.0021573
0.00215742
0.0021575
0.00215754
0.00215972
0.00216023
0.00216094
0.00216179
0.00216275
0.00216378
0.00216485
0.00216593
0.00216699
0.00216803
0.00216903
0.00216997
0.00217086
0.00217167
0.00217242
0.00217309
0.00217369
0.00217423
0.00217469
0.00217509
0.00217542
0.0021757
0.00217592
0.00217608
0.0021762
0.00217628
0.00217632
0.00217829
0.00217877
0.00217943
0.00218023
0.00218114
0.0021821
0.00218311
0.00218412
0.00218512
0.0021861
0.00218704
0.00218792
0.00218875
0.00218952
0.00219021
0.00219085
0.00219141
0.00219191
0.00219234
0.00219272
0.00219303
0.00219329
0.00219349
0.00219365
0.00219376
0.00219383
0.00219387
0.0021956
0.00219605
0.00219667
0.00219741
0.00219825
0.00219915
0.00220008
0.00220102
0.00220195
0.00220286
0.00220372
0.00220454
0.00220531
0.00220602
0.00220666
0.00220725
0.00220777
0.00220823
0.00220863
0.00220897
0.00220926
0.0022095
0.00220969
0.00220983
0.00220994
0.00221
0.00221003
0.00221153
0.00221194
0.0022125
0.00221318
0.00221395
0.00221477
0.00221562
0.00221647
0.00221732
0.00221815
0.00221894
0.00221968
0.00222038
0.00222102
0.00222161
0.00222214
0.00222261
0.00222303
0.0022234
0.00222371
0.00222397
0.00222419
0.00222436
0.00222449
0.00222458
0.00222464
0.00222467
0.00222591
0.00222628
0.00222678
0.0022274
0.00222808
0.00222882
0.00222958
0.00223034
0.0022311
0.00223184
0.00223254
0.00223321
0.00223383
0.0022344
0.00223493
0.0022354
0.00223582
0.00223619
0.00223651
0.00223679
0.00223702
0.00223721
0.00223737
0.00223748
0.00223756
0.00223762
0.00223764
0.00223864
0.00223896
0.0022394
0.00223994
0.00224054
0.00224119
0.00224185
0.00224252
0.00224318
0.00224382
0.00224444
0.00224502
0.00224556
0.00224606
0.00224651
0.00224692
0.00224729
0.00224761
0.00224789
0.00224813
0.00224833
0.00224849
0.00224863
0.00224873
0.0022488
0.00224884
0.00224887
0.00224963
0.00224991
0.00225029
0.00225075
0.00225126
0.00225181
0.00225237
0.00225294
0.00225351
0.00225405
0.00225458
0.00225507
0.00225553
0.00225595
0.00225633
0.00225668
0.00225699
0.00225726
0.0022575
0.0022577
0.00225787
0.00225801
0.00225812
0.0022582
0.00225826
0.0022583
0.00225832
0.00225888
0.00225911
0.00225943
0.00225981
0.00226023
0.00226069
0.00226116
0.00226163
0.0022621
0.00226255
0.00226298
0.00226339
0.00226377
0.00226411
0.00226443
0.00226472
0.00226497
0.00226519
0.00226539
0.00226555
0.00226569
0.00226581
0.0022659
0.00226597
0.00226602
0.00226605
0.00226606
0.00226645
0.00226663
0.00226689
0.0022672
0.00226754
0.00226791
0.00226829
0.00226867
0.00226904
0.0022694
0.00226975
0.00227007
0.00227038
0.00227065
0.00227091
0.00227113
0.00227134
0.00227151
0.00227167
0.0022718
0.00227191
0.002272
0.00227207
0.00227213
0.00227217
0.00227219
0.0022722
0.00227245
0.0022726
0.0022728
0.00227304
0.00227331
0.00227359
0.00227389
0.00227418
0.00227447
0.00227476
0.00227502
0.00227527
0.00227551
0.00227572
0.00227592
0.00227609
0.00227625
0.00227638
0.0022765
0.0022766
0.00227669
0.00227676
0.00227681
0.00227685
0.00227688
0.0022769
0.00227691
0.00227707
0.00227718
0.00227733
0.00227751
0.00227771
0.00227793
0.00227815
0.00227837
0.00227859
0.0022788
0.00227899
0.00227918
0.00227936
0.00227951
0.00227966
0.00227979
0.0022799
0.00228
0.00228009
0.00228017
0.00228023
0.00228028
0.00228032
0.00228035
0.00228037
0.00228039
0.00228039
0.00228049
0.00228057
0.00228068
0.00228081
0.00228096
0.00228111
0.00228127
0.00228143
0.00228159
0.00228174
0.00228188
0.00228201
0.00228214
0.00228225
0.00228235
0.00228244
0.00228253
0.0022826
0.00228266
0.00228271
0.00228275
0.00228279
0.00228282
0.00228284
0.00228286
0.00228287
0.00228287
0.00228294
0.00228299
0.00228307
0.00228316
0.00228326
0.00228337
0.00228348
0.00228359
0.00228369
0.0022838
0.00228389
0.00228399
0.00228407
0.00228415
0.00228422
0.00228428
0.00228433
0.00228438
0.00228442
0.00228446
0.00228449
0.00228451
0.00228453
0.00228455
0.00228456
0.00228456
0.00228457
0.00228463
0.00228466
0.00228471
0.00228477
0.00228484
0.00228491
0.00228498
0.00228505
0.00228512
0.00228519
0.00228526
0.00228532
0.00228537
0.00228542
0.00228547
0.00228551
0.00228555
0.00228558
0.00228561
0.00228563
0.00228565
0.00228566
0.00228568
0.00228569
0.00228569
0.0022857
0.0022857
0.00228575
0.00228577
0.0022858
0.00228584
0.00228588
0.00228593
0.00228597
0.00228602
0.00228606
0.00228611
0.00228614
0.00228618
0.00228622
0.00228625
0.00228627
0.0022863
0.00228632
0.00228634
0.00228635
0.00228637
0.00228638
0.00228639
0.00228639
0.0022864
0.0022864
0.00228641
0.00228641
0.00228647
0.00228648
0.0022865
0.00228652
0.00228654
0.00228656
0.00228659
0.00228661
0.00228663
0.00228666
0.00228668
0.00228669
0.00228671
0.00228672
0.00228674
0.00228675
0.00228676
0.00228677
0.00228677
0.00228678
0.00228678
0.00228679
0.00228679
0.00228679
0.00228679
0.00228679
0.0022868
0.00228687
0.00228688
0.00228689
0.00228689
0.0022869
0.00228691
0.00228692
0.00228693