/*--------------------------------*- C++ -*----------------------------------*\
| =========                 |                                                 |
| \\      /  F ield         | OpenFOAM: The Open Source CFD Toolbox           |
|  \\    /   O peration     | Version:  2106                                  |
|   \\  /    A nd           | Website:  www.openfoam.com                      |
|    \\/     M anipulation  |                                                 |
\*---------------------------------------------------------------------------*/
FoamFile
{
    version     2.0;
    format      ascii;
    arch        "LSB;label=32;scalar=64";
    class       volScalarField;
    location    "160.00011";
    object      C2H5_0;
}
// * * * * * * * * * * * * * * * * * * * * * * * * * * * * * * * * * * * * * //

dimensions      [0 0 0 0 0 0 0];

internalField   nonuniform List<scalar> 
3360
(
4.70198e-22
4.85327e-22
5.06382e-22
5.32136e-22
5.61516e-22
5.93558e-22
6.27391e-22
6.6223e-22
6.97376e-22
7.3221e-22
7.66196e-22
7.98882e-22
8.2989e-22
8.58923e-22
8.85753e-22
9.1022e-22
9.32228e-22
9.51734e-22
9.68747e-22
9.83316e-22
9.95529e-22
1.0055e-21
1.01338e-21
1.01933e-21
1.02351e-21
1.02611e-21
1.02732e-21
2.06265e-21
2.13846e-21
2.24544e-21
2.37867e-21
2.53405e-21
2.70804e-21
2.89746e-21
3.09939e-21
3.31112e-21
3.5301e-21
3.75388e-21
3.98005e-21
4.20627e-21
4.43021e-21
4.64958e-21
4.86213e-21
5.06565e-21
5.25802e-21
5.43719e-21
5.60122e-21
5.74838e-21
5.87708e-21
5.98602e-21
6.07412e-21
6.14061e-21
6.18502e-21
6.20716e-21
6.47179e-21
6.75581e-21
7.1594e-21
7.66653e-21
8.26394e-21
8.93967e-21
9.68236e-21
1.04808e-20
1.13237e-20
1.21995e-20
1.30964e-20
1.40027e-20
1.49066e-20
1.57969e-20
1.66623e-20
1.74923e-20
1.82772e-20
1.90082e-20
1.96778e-20
2.02796e-20
2.08089e-20
2.12621e-20
2.16372e-20
2.19338e-20
2.21524e-20
2.2295e-20
2.23644e-20
1.88476e-20
1.97837e-20
2.11228e-20
2.28171e-20
2.48264e-20
2.71133e-20
2.96403e-20
3.23684e-20
3.52569e-20
3.82631e-20
4.13424e-20
4.445e-20
4.75411e-20
5.05721e-20
5.35016e-20
5.62917e-20
5.89088e-20
6.13243e-20
6.35151e-20
6.54642e-20
6.71599e-20
6.85965e-20
6.97731e-20
7.06934e-20
7.13649e-20
7.17985e-20
7.20077e-20
5.50647e-20
5.80177e-20
6.22502e-20
6.76175e-20
7.3997e-20
8.12706e-20
8.93173e-20
9.80084e-20
1.07207e-19
1.16769e-19
1.26545e-19
1.36385e-19
1.4614e-19
1.5567e-19
1.64844e-19
1.73546e-19
1.81674e-19
1.89145e-19
1.95895e-19
2.01877e-19
2.07064e-19
2.11443e-19
2.15019e-19
2.17808e-19
2.19838e-19
2.21145e-19
2.21775e-19
1.62359e-19
1.71428e-19
1.84442e-19
2.0096e-19
2.20604e-19
2.43007e-19
2.67791e-19
2.94553e-19
3.22861e-19
3.52263e-19
3.8229e-19
4.12474e-19
4.42355e-19
4.71499e-19
4.99506e-19
5.26023e-19
5.50746e-19
5.7343e-19
5.93886e-19
6.11985e-19
6.2765e-19
6.40856e-19
6.51622e-19
6.60008e-19
6.66104e-19
6.70026e-19
6.71912e-19
4.82284e-19
5.0984e-19
5.49383e-19
5.99575e-19
6.5926e-19
7.27314e-19
8.02571e-19
8.83785e-19
9.69631e-19
1.05872e-18
1.14962e-18
1.24091e-18
1.33119e-18
1.41916e-18
1.50362e-18
1.58352e-18
1.65795e-18
1.72619e-18
1.78769e-18
1.84207e-18
1.88912e-18
1.92876e-18
1.96107e-18
1.98623e-18
2.00451e-18
2.01628e-18
2.02193e-18
1.43739e-18
1.52031e-18
1.63936e-18
1.79051e-18
1.97031e-18
2.17534e-18
2.40209e-18
2.64678e-18
2.90538e-18
3.17368e-18
3.44736e-18
3.72211e-18
3.99373e-18
4.25829e-18
4.51219e-18
4.75226e-18
4.9758e-18
5.18067e-18
5.36522e-18
5.52833e-18
5.66937e-18
5.78818e-18
5.88497e-18
5.96031e-18
6.01503e-18
6.05023e-18
6.06715e-18
4.29534e-18
4.54455e-18
4.90226e-18
5.3564e-18
5.89651e-18
6.51235e-18
7.19323e-18
7.92777e-18
8.70384e-18
9.50875e-18
1.03295e-17
1.11532e-17
1.19672e-17
1.27598e-17
1.35203e-17
1.42391e-17
1.49083e-17
1.55215e-17
1.60738e-17
1.65618e-17
1.69839e-17
1.73393e-17
1.76289e-17
1.78542e-17
1.8018e-17
1.81233e-17
1.81739e-17
1.28366e-17
1.3583e-17
1.46546e-17
1.60152e-17
1.76334e-17
1.94784e-17
2.15182e-17
2.37186e-17
2.60432e-17
2.84538e-17
3.09116e-17
3.33776e-17
3.58143e-17
3.81864e-17
4.04617e-17
4.26121e-17
4.46136e-17
4.6447e-17
4.8098e-17
4.95566e-17
5.08176e-17
5.18794e-17
5.27442e-17
5.34171e-17
5.39059e-17
5.42202e-17
5.43712e-17
3.83815e-17
4.06161e-17
4.38236e-17
4.78953e-17
5.27369e-17
5.82558e-17
6.43559e-17
7.09341e-17
7.78815e-17
8.50839e-17
9.24246e-17
9.97877e-17
1.07061e-16
1.14139e-16
1.20927e-16
1.2734e-16
1.33308e-16
1.38774e-16
1.43695e-16
1.48041e-16
1.51799e-16
1.54962e-16
1.57538e-16
1.59543e-16
1.60999e-16
1.61935e-16
1.62385e-16
1.14653e-16
1.21326e-16
1.30903e-16
1.43059e-16
1.5751e-16
1.73979e-16
1.92177e-16
2.11796e-16
2.32509e-16
2.53974e-16
2.75845e-16
2.97774e-16
3.19427e-16
3.40493e-16
3.60686e-16
3.79758e-16
3.97499e-16
4.13741e-16
4.28358e-16
4.41267e-16
4.52421e-16
4.61809e-16
4.69453e-16
4.75399e-16
4.79716e-16
4.82491e-16
4.83824e-16
3.42131e-16
3.62021e-16
3.90559e-16
4.26764e-16
4.69786e-16
5.1879e-16
5.72905e-16
6.3121e-16
6.92727e-16
7.56437e-16
8.21306e-16
8.86307e-16
9.50451e-16
1.01281e-15
1.07256e-15
1.12895e-15
1.18139e-15
1.22937e-15
1.27253e-15
1.31063e-15
1.34353e-15
1.37122e-15
1.39376e-15
1.41129e-15
1.42401e-15
1.43219e-15
1.43611e-15
1.01803e-15
1.07705e-15
1.1617e-15
1.26904e-15
1.39652e-15
1.54163e-15
1.70174e-15
1.87412e-15
2.05583e-15
2.24385e-15
2.43512e-15
2.6266e-15
2.81538e-15
2.99876e-15
3.17428e-15
3.33982e-15
3.49359e-15
3.6342e-15
3.76058e-15
3.87207e-15
3.9683e-15
4.04922e-15
4.11505e-15
4.16621e-15
4.20334e-15
4.22719e-15
4.23864e-15
3.0184e-15
3.19258e-15
3.44223e-15
3.75853e-15
4.13378e-15
4.56042e-15
5.03064e-15
5.53617e-15
6.06836e-15
6.61827e-15
7.17687e-15
7.73529e-15
8.28508e-15
8.81838e-15
9.32817e-15
9.80837e-15
1.02539e-14
1.06608e-14
1.10262e-14
1.13482e-14
1.16259e-14
1.18593e-14
1.20489e-14
1.21963e-14
1.23031e-14
1.23717e-14
1.24046e-14
8.89729e-15
9.40636e-15
1.01354e-14
1.1058e-14
1.21511e-14
1.33919e-14
1.47572e-14
1.62224e-14
1.7762e-14
1.93498e-14
2.09596e-14
2.25659e-14
2.41443e-14
2.56725e-14
2.71307e-14
2.85019e-14
2.9772e-14
3.09303e-14
3.19688e-14
3.28827e-14
3.36698e-14
3.43303e-14
3.48667e-14
3.52829e-14
3.55845e-14
3.57779e-14
3.58707e-14
2.60248e-14
2.74934e-14
2.95938e-14
3.22475e-14
3.53853e-14
3.89395e-14
4.28407e-14
4.70169e-14
5.13938e-14
5.58957e-14
6.04478e-14
6.49779e-14
6.94178e-14
7.37059e-14
7.77877e-14
8.1617e-14
8.51562e-14
8.8377e-14
9.12592e-14
9.37911e-14
9.59682e-14
9.77925e-14
9.92717e-14
1.00418e-13
1.01248e-13
1.0178e-13
1.02034e-13
7.53245e-14
7.9483e-14
8.54202e-14
9.29046e-14
1.01731e-13
1.11699e-13
1.22605e-13
1.34241e-13
1.46394e-13
1.5885e-13
1.71402e-13
1.8385e-13
1.96009e-13
2.07715e-13
2.18824e-13
2.29215e-13
2.38792e-13
2.47485e-13
2.55246e-13
2.62048e-13
2.67886e-13
2.72768e-13
2.7672e-13
2.79778e-13
2.81988e-13
2.83403e-13
2.8408e-13
2.15014e-13
2.26499e-13
2.42859e-13
2.63422e-13
2.87587e-13
3.14773e-13
3.44395e-13
3.75864e-13
4.08588e-13
4.41983e-13
4.75489e-13
5.08578e-13
5.4077e-13
5.7164e-13
6.00827e-13
6.28033e-13
6.53028e-13
6.75646e-13
6.95782e-13
7.13386e-13
7.28457e-13
7.41036e-13
7.51198e-13
7.59049e-13
7.64713e-13
7.68335e-13
7.70066e-13
6.0274e-13
6.33441e-13
6.7705e-13
7.31663e-13
7.95572e-13
8.67133e-13
9.44723e-13
1.02673e-12
1.11156e-12
1.1977e-12
1.28368e-12
1.36819e-12
1.45002e-12
1.52815e-12
1.6017e-12
1.67001e-12
1.73253e-12
1.78892e-12
1.83897e-12
1.8826e-12
1.91986e-12
1.95089e-12
1.9759e-12
1.99519e-12
2.00909e-12
2.01796e-12
2.02219e-12
1.65139e-12
1.73019e-12
1.84175e-12
1.98087e-12
2.14289e-12
2.32333e-12
2.51787e-12
2.72232e-12
2.9326e-12
3.14491e-12
3.35569e-12
3.56177e-12
3.76034e-12
3.94904e-12
4.12593e-12
4.28952e-12
4.43871e-12
4.57281e-12
4.69145e-12
4.79459e-12
4.88244e-12
4.95543e-12
5.01415e-12
5.05935e-12
5.09185e-12
5.11257e-12
5.12246e-12
4.39931e-12
4.59198e-12
4.8638e-12
5.20123e-12
5.59212e-12
6.02502e-12
6.48901e-12
6.97369e-12
7.46929e-12
7.96679e-12
8.458e-12
8.93573e-12
9.39379e-12
9.82709e-12
1.02315e-11
1.06041e-11
1.09427e-11
1.1246e-11
1.15135e-11
1.17455e-11
1.19426e-11
1.2106e-11
1.22372e-11
1.2338e-11
1.24104e-11
1.24565e-11
1.24784e-11
1.1348e-11
1.17938e-11
1.24203e-11
1.31946e-11
1.40867e-11
1.50691e-11
1.61158e-11
1.72029e-11
1.8308e-11
1.94111e-11
2.04946e-11
2.15431e-11
2.25437e-11
2.34862e-11
2.43625e-11
2.51668e-11
2.58952e-11
2.65459e-11
2.71183e-11
2.76134e-11
2.80332e-11
2.83805e-11
2.86589e-11
2.88725e-11
2.90257e-11
2.91231e-11
2.91694e-11
2.82988e-11
2.92686e-11
3.06266e-11
3.22962e-11
3.42092e-11
3.6303e-11
3.852e-11
4.08078e-11
4.31195e-11
4.54136e-11
4.76544e-11
4.98116e-11
5.18607e-11
5.37823e-11
5.55619e-11
5.71896e-11
5.86594e-11
5.99687e-11
6.11178e-11
6.21097e-11
6.29493e-11
6.3643e-11
6.41985e-11
6.46243e-11
6.49294e-11
6.51234e-11
6.52156e-11
6.84036e-11
7.03749e-11
7.31191e-11
7.6468e-11
8.02712e-11
8.43924e-11
8.87093e-11
9.31139e-11
9.75121e-11
1.01824e-10
1.05985e-10
1.09941e-10
1.13651e-10
1.17086e-10
1.20227e-10
1.23063e-10
1.25589e-10
1.27809e-10
1.29732e-10
1.3137e-10
1.32739e-10
1.33855e-10
1.34739e-10
1.35409e-10
1.35885e-10
1.36185e-10
1.36326e-10
1.60866e-10
1.64582e-10
1.69686e-10
1.75798e-10
1.82566e-10
1.89668e-10
1.96811e-10
2.03738e-10
2.10235e-10
2.16132e-10
2.21311e-10
2.25702e-10
2.29283e-10
2.32073e-10
2.34122e-10
2.35509e-10
2.36324e-10
2.3667e-10
2.36648e-10
2.36359e-10
2.35894e-10
2.35337e-10
2.34759e-10
2.3422e-10
2.33769e-10
2.33444e-10
2.33272e-10
3.57681e-10
3.63323e-10
3.70718e-10
3.78978e-10
3.87277e-10
3.94887e-10
4.01214e-10
4.05819e-10
4.08427e-10
4.08927e-10
4.07357e-10
4.03872e-10
3.98714e-10
3.92185e-10
3.84621e-10
3.76367e-10
3.67758e-10
3.591e-10
3.50669e-10
3.42698e-10
3.35385e-10
3.28886e-10
3.23325e-10
3.18792e-10
3.15352e-10
3.13044e-10
3.11889e-10
6.42787e-10
6.48362e-10
6.55237e-10
6.62232e-10
6.68335e-10
6.72774e-10
6.75059e-10
6.74979e-10
6.7257e-10
6.68062e-10
6.61809e-10
6.54234e-10
6.45773e-10
6.36832e-10
6.27764e-10
6.18856e-10
6.10333e-10
6.02357e-10
5.95041e-10
5.88459e-10
5.82656e-10
5.77658e-10
5.73477e-10
5.70122e-10
5.67596e-10
5.65906e-10
5.65057e-10
8.79892e-10
8.93061e-10
9.11357e-10
9.3377e-10
9.59589e-10
9.88383e-10
1.01997e-09
1.05434e-09
1.0916e-09
1.13189e-09
1.1749e-09
1.22074e-09
1.26931e-09
1.32031e-09
1.37326e-09
1.42745e-09
1.48207e-09
1.53615e-09
1.5887e-09
1.63865e-09
1.68499e-09
1.72676e-09
1.76299e-09
1.79299e-09
1.81621e-09
1.83212e-09
1.8402e-09
1.26075e-09
1.31091e-09
1.3839e-09
1.47859e-09
1.59471e-09
1.73256e-09
1.89277e-09
2.07604e-09
2.28294e-09
2.51367e-09
2.76789e-09
3.04457e-09
3.34189e-09
3.65722e-09
3.98636e-09
4.32411e-09
4.66476e-09
5.00221e-09
5.33016e-09
5.64223e-09
5.93219e-09
6.19407e-09
6.42235e-09
6.61207e-09
6.7589e-09
6.85939e-09
6.91075e-09
2.5807e-09
2.73402e-09
2.96043e-09
3.25927e-09
3.63239e-09
4.08307e-09
4.61275e-09
5.22227e-09
5.91129e-09
6.67765e-09
7.51701e-09
8.4226e-09
9.38518e-09
1.03932e-08
1.14328e-08
1.24886e-08
1.35438e-08
1.45807e-08
1.5581e-08
1.65269e-08
1.74007e-08
1.81864e-08
1.88683e-08
1.94332e-08
1.98696e-08
2.01676e-08
2.03195e-08
6.5861e-09
6.97056e-09
7.5339e-09
8.2688e-09
9.17185e-09
1.02405e-08
1.14713e-08
1.28586e-08
1.43936e-08
1.60638e-08
1.78533e-08
1.97423e-08
2.17075e-08
2.3723e-08
2.57607e-08
2.77908e-08
2.97832e-08
3.17074e-08
3.35339e-08
3.52344e-08
3.67828e-08
3.81556e-08
3.93316e-08
4.02927e-08
4.1024e-08
4.1514e-08
4.17596e-08
1.53742e-08
1.60666e-08
1.70652e-08
1.83411e-08
1.9871e-08
2.16324e-08
2.36018e-08
2.57535e-08
2.80591e-08
3.04876e-08
3.30055e-08
3.55776e-08
3.81675e-08
4.07383e-08
4.32532e-08
4.56764e-08
4.79733e-08
5.01177e-08
5.20929e-08
5.38854e-08
5.54809e-08
5.68673e-08
5.80343e-08
5.8974e-08
5.96811e-08
6.01525e-08
6.03874e-08
2.88717e-08
2.97387e-08
3.09657e-08
3.24953e-08
3.42761e-08
3.6259e-08
3.83959e-08
4.06393e-08
4.29423e-08
4.52595e-08
4.75535e-08
4.98053e-08
5.19944e-08
5.40996e-08
5.61029e-08
5.79884e-08
5.97425e-08
6.13541e-08
6.28144e-08
6.41166e-08
6.52574e-08
6.62335e-08
6.70434e-08
6.76868e-08
6.8165e-08
6.84802e-08
6.86357e-08
4.28704e-08
4.35578e-08
4.45127e-08
4.5675e-08
4.6991e-08
4.84127e-08
4.98976e-08
5.14088e-08
5.2915e-08
5.43906e-08
5.58153e-08
5.71737e-08
5.84543e-08
5.9649e-08
6.07525e-08
6.17616e-08
6.26751e-08
6.3493e-08
6.42165e-08
6.48473e-08
6.53879e-08
6.5841e-08
6.62096e-08
6.64979e-08
6.67092e-08
6.68467e-08
6.69137e-08
5.15077e-08
5.18591e-08
5.23363e-08
5.28998e-08
5.35149e-08
5.41522e-08
5.47876e-08
5.54024e-08
5.59831e-08
5.65203e-08
5.70087e-08
5.74459e-08
5.78319e-08
5.81684e-08
5.84583e-08
5.87054e-08
5.89136e-08
5.90871e-08
5.92301e-08
5.93463e-08
5.94393e-08
5.95124e-08
5.95682e-08
5.96094e-08
5.96379e-08
5.96555e-08
5.96637e-08
5.34856e-08
5.35162e-08
5.35483e-08
5.35713e-08
5.35761e-08
5.3556e-08
5.35072e-08
5.34282e-08
5.33197e-08
5.31845e-08
5.30262e-08
5.28495e-08
5.26595e-08
5.24612e-08
5.22597e-08
5.20595e-08
5.18648e-08
5.16795e-08
5.15065e-08
5.13485e-08
5.12075e-08
5.10852e-08
5.09826e-08
5.09005e-08
5.08393e-08
5.07988e-08
5.07788e-08
5.02102e-08
5.00458e-08
4.98121e-08
4.95192e-08
4.91765e-08
4.87928e-08
4.8377e-08
4.79377e-08
4.74832e-08
4.70213e-08
4.65594e-08
4.6104e-08
4.5661e-08
4.52354e-08
4.48315e-08
4.44529e-08
4.41022e-08
4.37818e-08
4.34932e-08
4.32375e-08
4.30152e-08
4.28265e-08
4.26712e-08
4.25487e-08
4.24585e-08
4.23995e-08
4.23707e-08
4.42907e-08
4.40538e-08
4.37235e-08
4.33192e-08
4.28583e-08
4.23563e-08
4.18268e-08
4.1282e-08
4.07323e-08
4.01868e-08
3.9653e-08
3.91372e-08
3.86445e-08
3.81789e-08
3.77437e-08
3.7341e-08
3.69726e-08
3.66395e-08
3.63424e-08
3.60813e-08
3.5856e-08
3.56659e-08
3.55103e-08
3.53883e-08
3.52988e-08
3.52405e-08
3.52121e-08
3.78238e-08
3.75876e-08
3.726e-08
3.68622e-08
3.64126e-08
3.59272e-08
3.54202e-08
3.49032e-08
3.43864e-08
3.3878e-08
3.33846e-08
3.29115e-08
3.24628e-08
3.20416e-08
3.16501e-08
3.129e-08
3.09622e-08
3.06672e-08
3.0405e-08
3.01755e-08
2.9978e-08
2.98119e-08
2.96763e-08
2.95703e-08
2.94926e-08
2.94422e-08
2.94176e-08
3.19226e-08
3.17172e-08
3.14331e-08
3.10891e-08
3.07016e-08
3.0285e-08
2.98513e-08
2.9411e-08
2.89725e-08
2.85426e-08
2.81269e-08
2.77296e-08
2.7354e-08
2.70025e-08
2.66766e-08
2.63775e-08
2.61059e-08
2.58618e-08
2.56454e-08
2.54562e-08
2.52937e-08
2.51572e-08
2.5046e-08
2.4959e-08
2.48954e-08
2.48542e-08
2.48341e-08
2.69696e-08
2.68014e-08
2.65691e-08
2.62882e-08
2.59722e-08
2.56329e-08
2.52803e-08
2.49228e-08
2.45673e-08
2.42193e-08
2.38832e-08
2.35624e-08
2.32595e-08
2.29763e-08
2.27141e-08
2.24736e-08
2.22554e-08
2.20595e-08
2.18859e-08
2.17343e-08
2.16041e-08
2.14949e-08
2.14059e-08
2.13364e-08
2.12856e-08
2.12526e-08
2.12366e-08
2.29713e-08
2.28371e-08
2.26518e-08
2.24277e-08
2.21758e-08
2.19053e-08
2.16243e-08
2.13396e-08
2.10565e-08
2.07794e-08
2.0512e-08
2.02568e-08
2.00159e-08
1.97907e-08
1.95823e-08
1.93912e-08
1.92179e-08
1.90623e-08
1.89245e-08
1.88041e-08
1.87008e-08
1.86141e-08
1.85435e-08
1.84884e-08
1.84481e-08
1.84219e-08
1.84092e-08
1.97926e-08
1.96863e-08
1.95394e-08
1.93618e-08
1.9162e-08
1.89475e-08
1.87246e-08
1.84987e-08
1.82741e-08
1.80542e-08
1.78419e-08
1.76393e-08
1.7448e-08
1.72692e-08
1.71037e-08
1.69519e-08
1.68142e-08
1.66907e-08
1.65812e-08
1.64856e-08
1.64035e-08
1.63346e-08
1.62786e-08
1.62348e-08
1.62028e-08
1.61821e-08
1.6172e-08
1.72709e-08
1.71864e-08
1.70696e-08
1.69283e-08
1.67694e-08
1.65987e-08
1.64213e-08
1.62413e-08
1.60623e-08
1.5887e-08
1.57177e-08
1.55561e-08
1.54034e-08
1.52607e-08
1.51285e-08
1.50073e-08
1.48974e-08
1.47987e-08
1.47112e-08
1.46348e-08
1.45692e-08
1.45142e-08
1.44694e-08
1.44344e-08
1.44089e-08
1.43923e-08
1.43842e-08
1.52601e-08
1.51925e-08
1.50989e-08
1.49857e-08
1.48582e-08
1.47213e-08
1.45789e-08
1.44344e-08
1.42905e-08
1.41496e-08
1.40135e-08
1.38835e-08
1.37606e-08
1.36457e-08
1.35392e-08
1.34416e-08
1.3353e-08
1.32735e-08
1.3203e-08
1.31414e-08
1.30886e-08
1.30442e-08
1.30081e-08
1.29799e-08
1.29594e-08
1.2946e-08
1.29395e-08
1.36427e-08
1.3588e-08
1.35122e-08
1.34206e-08
1.33174e-08
1.32064e-08
1.30909e-08
1.29737e-08
1.2857e-08
1.27426e-08
1.2632e-08
1.25263e-08
1.24264e-08
1.2333e-08
1.22464e-08
1.2167e-08
1.20949e-08
1.20301e-08
1.19728e-08
1.19226e-08
1.18796e-08
1.18436e-08
1.18142e-08
1.17913e-08
1.17745e-08
1.17636e-08
1.17584e-08
1.23281e-08
1.22833e-08
1.22213e-08
1.21463e-08
1.20618e-08
1.19709e-08
1.18763e-08
1.17802e-08
1.16844e-08
1.15905e-08
1.14997e-08
1.14129e-08
1.13309e-08
1.12541e-08
1.11829e-08
1.11176e-08
1.10583e-08
1.10051e-08
1.09579e-08
1.09167e-08
1.08813e-08
1.08516e-08
1.08275e-08
1.08086e-08
1.07948e-08
1.07859e-08
1.07816e-08
1.12479e-08
1.12108e-08
1.11596e-08
1.10975e-08
1.10276e-08
1.09524e-08
1.0874e-08
1.07943e-08
1.07149e-08
1.06371e-08
1.05617e-08
1.04897e-08
1.04216e-08
1.03578e-08
1.02987e-08
1.02444e-08
1.01952e-08
1.01509e-08
1.01117e-08
1.00775e-08
1.00481e-08
1.00234e-08
1.00033e-08
9.98767e-09
9.97623e-09
9.96881e-09
9.96521e-09
1.03509e-08
1.03199e-08
1.02771e-08
1.02253e-08
1.01668e-08
1.01038e-08
1.00382e-08
9.97157e-09
9.90509e-09
9.83986e-09
9.77672e-09
9.71633e-09
9.6592e-09
9.60571e-09
9.55611e-09
9.5106e-09
9.46926e-09
9.43214e-09
9.39924e-09
9.37049e-09
9.34583e-09
9.32514e-09
9.3083e-09
9.29516e-09
9.28556e-09
9.27934e-09
9.27632e-09
9.59866e-09
9.57256e-09
9.53645e-09
9.49267e-09
9.4433e-09
9.39013e-09
9.33472e-09
9.27836e-09
9.22216e-09
9.16699e-09
9.11358e-09
9.06248e-09
9.01413e-09
8.96885e-09
8.92686e-09
8.88832e-09
8.85331e-09
8.82188e-09
8.79401e-09
8.76967e-09
8.74879e-09
8.73127e-09
8.71701e-09
8.70589e-09
8.69777e-09
8.6925e-09
8.68995e-09
8.96213e-09
8.93992e-09
8.90917e-09
8.8719e-09
8.82984e-09
8.78454e-09
8.73732e-09
8.68927e-09
8.64134e-09
8.59428e-09
8.54871e-09
8.5051e-09
8.46382e-09
8.42516e-09
8.3893e-09
8.35639e-09
8.32649e-09
8.29965e-09
8.27585e-09
8.25506e-09
8.23723e-09
8.22227e-09
8.2101e-09
8.2006e-09
8.19367e-09
8.18918e-09
8.187e-09
8.41913e-09
8.40007e-09
8.37369e-09
8.34169e-09
8.30558e-09
8.26668e-09
8.2261e-09
8.18482e-09
8.14362e-09
8.10316e-09
8.06396e-09
8.02645e-09
7.99094e-09
7.95767e-09
7.92682e-09
7.89849e-09
7.87276e-09
7.84966e-09
7.82918e-09
7.81129e-09
7.79594e-09
7.78307e-09
7.7726e-09
7.76443e-09
7.75847e-09
7.7546e-09
7.75273e-09
7.95261e-09
7.93614e-09
7.91333e-09
7.88567e-09
7.85444e-09
7.82078e-09
7.78567e-09
7.74994e-09
7.71427e-09
7.67923e-09
7.64529e-09
7.61279e-09
7.58202e-09
7.55319e-09
7.52645e-09
7.50191e-09
7.4796e-09
7.45958e-09
7.44183e-09
7.42632e-09
7.41302e-09
7.40187e-09
7.39279e-09
7.38572e-09
7.38055e-09
7.37721e-09
7.37558e-09
7.54929e-09
7.53496e-09
7.51511e-09
7.49103e-09
7.46385e-09
7.43454e-09
7.40397e-09
7.37284e-09
7.34176e-09
7.31122e-09
7.28163e-09
7.2533e-09
7.22647e-09
7.20133e-09
7.17801e-09
7.15659e-09
7.13714e-09
7.11967e-09
7.10419e-09
7.09066e-09
7.07906e-09
7.06934e-09
7.06142e-09
7.05525e-09
7.05075e-09
7.04783e-09
7.04642e-09
7.19871e-09
7.18617e-09
7.16879e-09
7.14771e-09
7.1239e-09
7.09824e-09
7.07145e-09
7.04417e-09
7.01693e-09
6.99017e-09
6.96422e-09
6.93938e-09
6.91585e-09
6.89379e-09
6.87333e-09
6.85455e-09
6.83748e-09
6.82215e-09
6.80857e-09
6.7967e-09
6.78653e-09
6.77799e-09
6.77105e-09
6.76564e-09
6.76169e-09
6.75913e-09
6.75789e-09
6.89252e-09
6.88148e-09
6.86619e-09
6.84763e-09
6.82668e-09
6.80408e-09
6.78049e-09
6.75646e-09
6.73246e-09
6.70887e-09
6.68601e-09
6.6641e-09
6.64336e-09
6.62391e-09
6.60587e-09
6.5893e-09
6.57425e-09
6.56073e-09
6.54875e-09
6.53828e-09
6.5293e-09
6.52178e-09
6.51566e-09
6.51089e-09
6.50741e-09
6.50515e-09
6.50406e-09
6.62399e-09
6.61423e-09
6.60071e-09
6.5843e-09
6.56577e-09
6.54577e-09
6.5249e-09
6.50363e-09
6.48239e-09
6.4615e-09
6.44125e-09
6.42185e-09
6.40347e-09
6.38624e-09
6.37025e-09
6.35557e-09
6.34223e-09
6.33024e-09
6.31962e-09
6.31035e-09
6.30239e-09
6.29572e-09
6.2903e-09
6.28607e-09
6.28298e-09
6.28099e-09
6.28002e-09
6.38765e-09
6.37898e-09
6.36698e-09
6.3524e-09
6.33593e-09
6.31816e-09
6.29961e-09
6.2807e-09
6.26181e-09
6.24324e-09
6.22522e-09
6.20796e-09
6.19161e-09
6.17627e-09
6.16205e-09
6.14898e-09
6.1371e-09
6.12643e-09
6.11698e-09
6.10872e-09
6.10164e-09
6.0957e-09
6.09087e-09
6.0871e-09
6.08436e-09
6.08258e-09
6.08172e-09
6.17896e-09
6.17124e-09
6.16053e-09
6.14753e-09
6.13284e-09
6.11699e-09
6.10043e-09
6.08355e-09
6.06669e-09
6.0501e-09
6.03401e-09
6.01859e-09
6.00398e-09
5.99028e-09
5.97756e-09
5.96588e-09
5.95526e-09
5.94573e-09
5.93727e-09
5.92989e-09
5.92356e-09
5.91825e-09
5.91393e-09
5.91057e-09
5.90811e-09
5.90652e-09
5.90575e-09
5.99417e-09
5.98725e-09
5.97767e-09
5.96603e-09
5.95288e-09
5.93868e-09
5.92385e-09
5.90873e-09
5.89361e-09
5.87875e-09
5.86432e-09
5.85049e-09
5.83739e-09
5.8251e-09
5.81369e-09
5.80321e-09
5.79368e-09
5.78512e-09
5.77754e-09
5.77091e-09
5.76523e-09
5.76046e-09
5.75659e-09
5.75356e-09
5.75136e-09
5.74994e-09
5.74924e-09
5.8301e-09
5.82388e-09
5.81527e-09
5.80482e-09
5.793e-09
5.78024e-09
5.7669e-09
5.75331e-09
5.73971e-09
5.72634e-09
5.71336e-09
5.70091e-09
5.68912e-09
5.67805e-09
5.66778e-09
5.65834e-09
5.64976e-09
5.64205e-09
5.63522e-09
5.62925e-09
5.62412e-09
5.61983e-09
5.61634e-09
5.61362e-09
5.61163e-09
5.61035e-09
5.60973e-09
5.68405e-09
5.67846e-09
5.67069e-09
5.66127e-09
5.65061e-09
5.6391e-09
5.62707e-09
5.6148e-09
5.60253e-09
5.59046e-09
5.57874e-09
5.5675e-09
5.55684e-09
5.54685e-09
5.53756e-09
5.52903e-09
5.52128e-09
5.51431e-09
5.50813e-09
5.50273e-09
5.4981e-09
5.49422e-09
5.49106e-09
5.4886e-09
5.48681e-09
5.48564e-09
5.48508e-09
5.55374e-09
5.54868e-09
5.54166e-09
5.53313e-09
5.52349e-09
5.51307e-09
5.50218e-09
5.49107e-09
5.47996e-09
5.46903e-09
5.45841e-09
5.44822e-09
5.43856e-09
5.4295e-09
5.42108e-09
5.41334e-09
5.40631e-09
5.39999e-09
5.39438e-09
5.38948e-09
5.38528e-09
5.38176e-09
5.3789e-09
5.37666e-09
5.37503e-09
5.37398e-09
5.37347e-09
5.43717e-09
5.43258e-09
5.4262e-09
5.41846e-09
5.40971e-09
5.40025e-09
5.39036e-09
5.38027e-09
5.37017e-09
5.36023e-09
5.35058e-09
5.34131e-09
5.33253e-09
5.32428e-09
5.31662e-09
5.30958e-09
5.30318e-09
5.29742e-09
5.29232e-09
5.28786e-09
5.28403e-09
5.28083e-09
5.27822e-09
5.27618e-09
5.2747e-09
5.27374e-09
5.27328e-09
5.33261e-09
5.32843e-09
5.32263e-09
5.31558e-09
5.3076e-09
5.29898e-09
5.28997e-09
5.28077e-09
5.27156e-09
5.26249e-09
5.25368e-09
5.24523e-09
5.23721e-09
5.22968e-09
5.22268e-09
5.21625e-09
5.2104e-09
5.20515e-09
5.20048e-09
5.19641e-09
5.19291e-09
5.18998e-09
5.1876e-09
5.18574e-09
5.18438e-09
5.18351e-09
5.18308e-09
5.23855e-09
5.23473e-09
5.22943e-09
5.22298e-09
5.21569e-09
5.20781e-09
5.19956e-09
5.19114e-09
5.18271e-09
5.17441e-09
5.16634e-09
5.1586e-09
5.15125e-09
5.14435e-09
5.13794e-09
5.13204e-09
5.12668e-09
5.12186e-09
5.11758e-09
5.11384e-09
5.11064e-09
5.10795e-09
5.10576e-09
5.10406e-09
5.10282e-09
5.10201e-09
5.10162e-09
5.15365e-09
5.15014e-09
5.14528e-09
5.13936e-09
5.13267e-09
5.12543e-09
5.11785e-09
5.11012e-09
5.10237e-09
5.09474e-09
5.08732e-09
5.0802e-09
5.07344e-09
5.06709e-09
5.06119e-09
5.05576e-09
5.05082e-09
5.04638e-09
5.04245e-09
5.03901e-09
5.03605e-09
5.03358e-09
5.03157e-09
5.03e-09
5.02885e-09
5.02811e-09
5.02775e-09
5.0767e-09
5.07347e-09
5.06898e-09
5.06353e-09
5.05736e-09
5.05068e-09
5.04369e-09
5.03655e-09
5.0294e-09
5.02236e-09
5.01551e-09
5.00893e-09
5.00268e-09
4.99681e-09
4.99136e-09
4.98634e-09
4.98178e-09
4.97767e-09
4.97403e-09
4.97085e-09
4.96812e-09
4.96583e-09
4.96397e-09
4.96252e-09
4.96146e-09
4.96078e-09
4.96045e-09
5.00661e-09
5.00362e-09
4.99947e-09
4.99442e-09
4.9887e-09
4.98251e-09
4.97603e-09
4.96941e-09
4.96278e-09
4.95624e-09
4.94988e-09
4.94377e-09
4.93797e-09
4.93252e-09
4.92746e-09
4.9228e-09
4.91856e-09
4.91474e-09
4.91136e-09
4.90841e-09
4.90587e-09
4.90375e-09
4.90202e-09
4.90067e-09
4.89969e-09
4.89906e-09
4.89875e-09
4.9424e-09
4.93961e-09
4.93574e-09
4.93104e-09
4.92571e-09
4.91994e-09
4.9139e-09
4.90773e-09
4.90154e-09
4.89544e-09
4.88951e-09
4.88381e-09
4.87839e-09
4.8733e-09
4.86857e-09
4.86422e-09
4.86026e-09
4.8567e-09
4.85354e-09
4.85078e-09
4.84841e-09
4.84643e-09
4.84482e-09
4.84356e-09
4.84265e-09
4.84206e-09
4.84177e-09
4.88312e-09
4.88051e-09
4.87689e-09
4.87248e-09
4.86748e-09
4.86207e-09
4.8564e-09
4.85061e-09
4.8448e-09
4.83907e-09
4.8335e-09
4.82814e-09
4.82306e-09
4.81828e-09
4.81383e-09
4.80974e-09
4.80602e-09
4.80268e-09
4.79971e-09
4.79712e-09
4.7949e-09
4.79304e-09
4.79152e-09
4.79035e-09
4.78949e-09
4.78893e-09
4.78867e-09
4.82792e-09
4.82545e-09
4.82203e-09
4.81786e-09
4.81314e-09
4.80803e-09
4.80268e-09
4.7972e-09
4.79171e-09
4.78629e-09
4.78102e-09
4.77595e-09
4.77114e-09
4.76661e-09
4.76241e-09
4.75854e-09
4.75502e-09
4.75186e-09
4.74905e-09
4.74661e-09
4.74451e-09
4.74275e-09
4.74132e-09
4.74021e-09
4.7394e-09
4.73888e-09
4.73863e-09
4.77593e-09
4.77359e-09
4.77033e-09
4.76636e-09
4.76186e-09
4.75699e-09
4.75189e-09
4.74667e-09
4.74143e-09
4.73626e-09
4.73124e-09
4.7264e-09
4.72181e-09
4.7175e-09
4.71349e-09
4.7098e-09
4.70645e-09
4.70344e-09
4.70077e-09
4.69844e-09
4.69645e-09
4.69478e-09
4.69342e-09
4.69237e-09
4.6916e-09
4.69111e-09
4.69087e-09
4.72635e-09
4.72409e-09
4.72096e-09
4.71715e-09
4.71282e-09
4.70814e-09
4.70323e-09
4.6982e-09
4.69316e-09
4.68819e-09
4.68335e-09
4.6787e-09
4.67428e-09
4.67013e-09
4.66628e-09
4.66274e-09
4.65952e-09
4.65663e-09
4.65407e-09
4.65183e-09
4.64992e-09
4.64833e-09
4.64703e-09
4.64603e-09
4.6453e-09
4.64483e-09
4.6446e-09
4.67834e-09
4.67615e-09
4.67311e-09
4.6694e-09
4.6652e-09
4.66064e-09
4.65587e-09
4.65098e-09
4.64608e-09
4.64125e-09
4.63654e-09
4.63203e-09
4.62774e-09
4.62371e-09
4.61997e-09
4.61654e-09
4.61342e-09
4.61062e-09
4.60815e-09
4.60599e-09
4.60415e-09
4.60262e-09
4.60137e-09
4.60041e-09
4.59971e-09
4.59926e-09
4.59904e-09
4.63109e-09
4.62893e-09
4.62594e-09
4.6223e-09
4.61816e-09
4.61369e-09
4.60899e-09
4.60419e-09
4.59937e-09
4.59462e-09
4.59e-09
4.58557e-09
4.58136e-09
4.57741e-09
4.57375e-09
4.57039e-09
4.56735e-09
4.56462e-09
4.56221e-09
4.56012e-09
4.55833e-09
4.55685e-09
4.55564e-09
4.55471e-09
4.55404e-09
4.55361e-09
4.5534e-09
4.58374e-09
4.58159e-09
4.57862e-09
4.57499e-09
4.57088e-09
4.56642e-09
4.56175e-09
4.55698e-09
4.55219e-09
4.54747e-09
4.54289e-09
4.53849e-09
4.53432e-09
4.53041e-09
4.5268e-09
4.52349e-09
4.52049e-09
4.51781e-09
4.51545e-09
4.5134e-09
4.51166e-09
4.51021e-09
4.50905e-09
4.50815e-09
4.5075e-09
4.50708e-09
4.50688e-09
4.53542e-09
4.53326e-09
4.53026e-09
4.52661e-09
4.52247e-09
4.51799e-09
4.51329e-09
4.50848e-09
4.50367e-09
4.49894e-09
4.49434e-09
4.48993e-09
4.48577e-09
4.48187e-09
4.47827e-09
4.47498e-09
4.47201e-09
4.46936e-09
4.46704e-09
4.46503e-09
4.46332e-09
4.46191e-09
4.46078e-09
4.45991e-09
4.45929e-09
4.45889e-09
4.4587e-09
4.48525e-09
4.48305e-09
4.48e-09
4.47627e-09
4.47206e-09
4.46749e-09
4.46271e-09
4.45783e-09
4.45295e-09
4.44815e-09
4.4435e-09
4.43906e-09
4.43486e-09
4.43095e-09
4.42734e-09
4.42406e-09
4.4211e-09
4.41848e-09
4.41619e-09
4.41421e-09
4.41255e-09
4.41118e-09
4.41008e-09
4.40925e-09
4.40865e-09
4.40827e-09
4.40809e-09
4.43233e-09
4.43007e-09
4.42692e-09
4.42309e-09
4.41875e-09
4.41407e-09
4.40917e-09
4.40417e-09
4.39918e-09
4.39428e-09
4.38955e-09
4.38504e-09
4.38079e-09
4.37685e-09
4.37323e-09
4.36995e-09
4.36701e-09
4.36442e-09
4.36216e-09
4.36023e-09
4.35862e-09
4.3573e-09
4.35625e-09
4.35546e-09
4.3549e-09
4.35455e-09
4.35439e-09
4.3758e-09
4.37345e-09
4.37019e-09
4.36623e-09
4.36174e-09
4.3569e-09
4.35185e-09
4.34671e-09
4.34159e-09
4.33658e-09
4.33176e-09
4.32718e-09
4.32289e-09
4.31893e-09
4.31531e-09
4.31205e-09
4.30915e-09
4.30662e-09
4.30443e-09
4.30258e-09
4.30104e-09
4.2998e-09
4.29883e-09
4.29811e-09
4.2976e-09
4.29729e-09
4.29715e-09
4.31497e-09
4.31253e-09
4.30915e-09
4.30505e-09
4.30041e-09
4.29542e-09
4.29023e-09
4.28496e-09
4.27974e-09
4.27465e-09
4.26977e-09
4.26516e-09
4.26088e-09
4.25694e-09
4.25337e-09
4.25019e-09
4.24739e-09
4.24496e-09
4.24289e-09
4.24116e-09
4.23976e-09
4.23864e-09
4.23778e-09
4.23716e-09
4.23673e-09
4.23648e-09
4.23637e-09
4.24963e-09
4.24712e-09
4.24365e-09
4.23944e-09
4.23471e-09
4.22962e-09
4.22435e-09
4.21902e-09
4.21376e-09
4.20865e-09
4.20377e-09
4.19916e-09
4.19487e-09
4.1909e-09
4.18725e-09
4.18389e-09
4.18087e-09
4.17821e-09
4.17591e-09
4.17397e-09
4.17237e-09
4.17108e-09
4.17009e-09
4.16935e-09
4.16885e-09
4.16854e-09
4.1684e-09
4.18022e-09
4.17762e-09
4.17397e-09
4.16945e-09
4.1642e-09
4.1585e-09
4.15256e-09
4.14654e-09
4.14057e-09
4.13475e-09
4.12918e-09
4.1239e-09
4.11895e-09
4.11437e-09
4.1102e-09
4.10648e-09
4.10321e-09
4.10038e-09
4.09799e-09
4.096e-09
4.09439e-09
4.09312e-09
4.09216e-09
4.09146e-09
4.091e-09
4.09072e-09
4.0906e-09
4.09948e-09
4.09643e-09
4.09221e-09
4.08712e-09
4.0814e-09
4.0753e-09
4.06902e-09
4.06273e-09
4.05658e-09
4.05069e-09
4.04514e-09
4.04002e-09
4.03536e-09
4.03119e-09
4.02754e-09
4.02439e-09
4.02172e-09
4.01952e-09
4.01775e-09
4.01636e-09
4.01532e-09
4.01456e-09
4.01405e-09
4.01373e-09
4.01356e-09
4.01349e-09
4.01347e-09
4.01124e-09
4.00838e-09
4.00444e-09
3.99974e-09
3.99453e-09
3.98904e-09
3.98348e-09
3.97802e-09
3.9728e-09
3.96793e-09
3.96349e-09
3.95954e-09
3.95611e-09
3.95321e-09
3.95084e-09
3.94898e-09
3.94758e-09
3.94661e-09
3.946e-09
3.94571e-09
3.94566e-09
3.94579e-09
3.94605e-09
3.94636e-09
3.94667e-09
3.94692e-09
3.94707e-09
3.9281e-09
3.92579e-09
3.92268e-09
3.91901e-09
3.91504e-09
3.91099e-09
3.90702e-09
3.90331e-09
3.89997e-09
3.89709e-09
3.89472e-09
3.89291e-09
3.89165e-09
3.89094e-09
3.89073e-09
3.89099e-09
3.89165e-09
3.89264e-09
3.89389e-09
3.8953e-09
3.89679e-09
3.89829e-09
3.8997e-09
3.90096e-09
3.90199e-09
3.90272e-09
3.9031e-09
3.86069e-09
3.85943e-09
3.85779e-09
3.85599e-09
3.85423e-09
3.85267e-09
3.85147e-09
3.85073e-09
3.85053e-09
3.85093e-09
3.85195e-09
3.85358e-09
3.85579e-09
3.85853e-09
3.86172e-09
3.86528e-09
3.86912e-09
3.87312e-09
3.87718e-09
3.88118e-09
3.885e-09
3.88855e-09
3.89171e-09
3.89438e-09
3.89647e-09
3.89791e-09
3.89865e-09
3.82292e-09
3.82333e-09
3.82408e-09
3.82528e-09
3.82703e-09
3.82943e-09
3.83255e-09
3.83645e-09
3.84113e-09
3.8466e-09
3.85281e-09
3.85969e-09
3.86717e-09
3.87513e-09
3.88344e-09
3.89198e-09
3.9006e-09
3.90912e-09
3.91741e-09
3.9253e-09
3.93263e-09
3.93925e-09
3.94503e-09
3.94984e-09
3.95355e-09
3.95606e-09
3.95736e-09
3.83239e-09
3.8353e-09
3.83958e-09
3.84519e-09
3.85212e-09
3.86035e-09
3.86983e-09
3.88054e-09
3.8924e-09
3.90531e-09
3.91915e-09
3.93378e-09
3.94904e-09
3.96473e-09
3.98066e-09