/*--------------------------------*- C++ -*----------------------------------*\
| =========                 |                                                 |
| \\      /  F ield         | OpenFOAM: The Open Source CFD Toolbox           |
|  \\    /   O peration     | Version:  2106                                  |
|   \\  /    A nd           | Website:  www.openfoam.com                      |
|    \\/     M anipulation  |                                                 |
\*---------------------------------------------------------------------------*/
FoamFile
{
    version     2.0;
    format      ascii;
    arch        "LSB;label=32;scalar=64";
    class       volScalarField;
    location    "160.00011";
    object      C2H6;
}
// * * * * * * * * * * * * * * * * * * * * * * * * * * * * * * * * * * * * * //

dimensions      [0 0 0 0 0 0 0];

internalField   nonuniform List<scalar> 
3360
(
2.32877e-18
2.4037e-18
2.50798e-18
2.63553e-18
2.78105e-18
2.93974e-18
3.10731e-18
3.27986e-18
3.45393e-18
3.62645e-18
3.79478e-18
3.95666e-18
4.11024e-18
4.25403e-18
4.38691e-18
4.50809e-18
4.61709e-18
4.7137e-18
4.79795e-18
4.87011e-18
4.9306e-18
4.98001e-18
5.01903e-18
5.04847e-18
5.06918e-18
5.08206e-18
5.08804e-18
1.02158e-17
1.05913e-17
1.11211e-17
1.17809e-17
1.25505e-17
1.34122e-17
1.43504e-17
1.53505e-17
1.63991e-17
1.74837e-17
1.8592e-17
1.97122e-17
2.08326e-17
2.19417e-17
2.30282e-17
2.40809e-17
2.50889e-17
2.60416e-17
2.6929e-17
2.77414e-17
2.84702e-17
2.91077e-17
2.96472e-17
3.00836e-17
3.04129e-17
3.06328e-17
3.07425e-17
3.20531e-17
3.34598e-17
3.54587e-17
3.79704e-17
4.09292e-17
4.42759e-17
4.79542e-17
5.19088e-17
5.60836e-17
6.04212e-17
6.48633e-17
6.93517e-17
7.38288e-17
7.82378e-17
8.25238e-17
8.66347e-17
9.05221e-17
9.41427e-17
9.7459e-17
1.0044e-16
1.03061e-16
1.05305e-16
1.07164e-16
1.08632e-16
1.09715e-16
1.10421e-16
1.10765e-16
9.33471e-17
9.79834e-17
1.04616e-16
1.13007e-16
1.22959e-16
1.34285e-16
1.46801e-16
1.60312e-16
1.74618e-16
1.89507e-16
2.04758e-16
2.20149e-16
2.35459e-16
2.5047e-16
2.64979e-16
2.78798e-16
2.9176e-16
3.03723e-16
3.14574e-16
3.24227e-16
3.32626e-16
3.39741e-16
3.45568e-16
3.50126e-16
3.53452e-16
3.55599e-16
3.56635e-16
2.72721e-16
2.87347e-16
3.08309e-16
3.34892e-16
3.66487e-16
4.02512e-16
4.42365e-16
4.8541e-16
5.30969e-16
5.78327e-16
6.26744e-16
6.75477e-16
7.23792e-16
7.70992e-16
8.1643e-16
8.59527e-16
8.99783e-16
9.36786e-16
9.70215e-16
9.99843e-16
1.02553e-15
1.04722e-15
1.06493e-15
1.07874e-15
1.0888e-15
1.09527e-15
1.09839e-15
8.0412e-16
8.49036e-16
9.13493e-16
9.95301e-16
1.09259e-15
1.20355e-15
1.3263e-15
1.45884e-15
1.59904e-15
1.74466e-15
1.89338e-15
2.04287e-15
2.19087e-15
2.33521e-15
2.47392e-15
2.60525e-15
2.7277e-15
2.84004e-15
2.94136e-15
3.031e-15
3.10858e-15
3.17399e-15
3.22731e-15
3.26884e-15
3.29903e-15
3.31846e-15
3.3278e-15
2.38862e-15
2.5251e-15
2.72095e-15
2.96953e-15
3.26514e-15
3.60219e-15
3.97491e-15
4.37714e-15
4.80232e-15
5.24355e-15
5.69376e-15
6.14587e-15
6.59302e-15
7.02872e-15
7.44703e-15
7.84273e-15
8.21137e-15
8.54935e-15
8.85395e-15
9.12328e-15
9.35628e-15
9.55263e-15
9.71266e-15
9.83726e-15
9.92781e-15
9.98607e-15
1.00141e-14
7.119e-15
7.52967e-15
8.11928e-15
8.86791e-15
9.75838e-15
1.07739e-14
1.18969e-14
1.31088e-14
1.43895e-14
1.57184e-14
1.70738e-14
1.84346e-14
1.97799e-14
2.10902e-14
2.23476e-14
2.35366e-14
2.46438e-14
2.56584e-14
2.65724e-14
2.73803e-14
2.80788e-14
2.86673e-14
2.91466e-14
2.95197e-14
2.97908e-14
2.99651e-14
3.00489e-14
2.12736e-14
2.25079e-14
2.42795e-14
2.65287e-14
2.92038e-14
3.22538e-14
3.56261e-14
3.9264e-14
4.31077e-14
4.70942e-14
5.11592e-14
5.52386e-14
5.92703e-14
6.31959e-14
6.69622e-14
7.05223e-14
7.38368e-14
7.68736e-14
7.96089e-14
8.20262e-14
8.41163e-14
8.58767e-14
8.73108e-14
8.84271e-14
8.9238e-14
8.97595e-14
9.00102e-14
6.35761e-14
6.72728e-14
7.25802e-14
7.93187e-14
8.73331e-14
9.64711e-14
1.06574e-13
1.17472e-13
1.28985e-13
1.40924e-13
1.53096e-13
1.6531e-13
1.77378e-13
1.89126e-13
2.00395e-13
2.11046e-13
2.20958e-13
2.30039e-13
2.38215e-13
2.4544e-13
2.51685e-13
2.56944e-13
2.61227e-13
2.6456e-13
2.6698e-13
2.68537e-13
2.69285e-13
1.90092e-13
2.0116e-13
2.17046e-13
2.37212e-13
2.6119e-13
2.88524e-13
3.18736e-13
3.51316e-13
3.85725e-13
4.21396e-13
4.57752e-13
4.9422e-13
5.30242e-13
5.653e-13
5.98918e-13
6.3068e-13
6.60237e-13
6.87307e-13
7.11678e-13
7.33206e-13
7.51814e-13
7.67482e-13
7.80241e-13
7.9017e-13
7.9738e-13
8.02016e-13
8.04244e-13
5.67845e-13
6.00891e-13
6.48324e-13
7.08527e-13
7.80099e-13
8.61667e-13
9.51796e-13
1.04896e-12
1.15155e-12
1.25786e-12
1.36618e-12
1.47479e-12
1.58203e-12
1.68636e-12
1.78637e-12
1.88083e-12
1.96869e-12
2.04914e-12
2.12153e-12
2.18547e-12
2.24071e-12
2.28721e-12
2.32506e-12
2.35451e-12
2.37589e-12
2.38964e-12
2.39624e-12
1.69447e-12
1.79298e-12
1.93432e-12
2.11363e-12
2.32671e-12
2.56941e-12
2.83743e-12
3.12619e-12
3.43087e-12
3.74641e-12
4.06768e-12
4.38961e-12
4.7073e-12
5.01616e-12
5.31206e-12
5.59137e-12
5.85106e-12
6.08868e-12
6.30245e-12
6.49114e-12
6.65412e-12
6.79126e-12
6.90288e-12
6.98968e-12
7.05269e-12
7.09319e-12
7.11264e-12
5.04195e-12
5.33426e-12
5.75352e-12
6.28517e-12
6.91654e-12
7.63519e-12
8.4282e-12
9.28191e-12
1.01819e-11
1.11131e-11
1.20604e-11
1.30088e-11
1.39437e-11
1.48519e-11
1.57212e-11
1.65411e-11
1.73027e-11
1.79991e-11
1.8625e-11
1.91772e-11
1.96538e-11
2.00546e-11
2.03806e-11
2.0634e-11
2.08179e-11
2.0936e-11
2.09927e-11
1.49491e-11
1.58117e-11
1.70481e-11
1.86147e-11
2.04732e-11
2.25862e-11
2.49151e-11
2.74188e-11
3.00546e-11
3.27782e-11
3.55448e-11
3.83105e-11
4.10334e-11
4.36747e-11
4.61996e-11
4.85778e-11
5.07845e-11
5.27998e-11
5.46095e-11
5.62044e-11
5.75797e-11
5.87354e-11
5.96747e-11
6.04044e-11
6.09335e-11
6.12733e-11
6.14363e-11
4.40643e-11
4.65857e-11
5.01964e-11
5.47658e-11
6.01795e-11
6.63252e-11
7.3087e-11
8.03438e-11
8.7969e-11
9.58331e-11
1.03806e-10
1.11761e-10
1.19579e-10
1.27148e-10
1.3437e-10
1.41161e-10
1.47452e-10
1.53188e-10
1.58331e-10
1.62858e-10
1.66756e-10
1.70028e-10
1.72684e-10
1.74745e-10
1.76239e-10
1.77197e-10
1.77657e-10
1.28885e-10
1.36159e-10
1.46561e-10
1.59705e-10
1.75246e-10
1.92849e-10
2.12171e-10
2.32855e-10
2.54532e-10
2.7683e-10
2.99375e-10
3.21812e-10
3.43802e-10
3.6504e-10
3.85257e-10
4.04222e-10
4.21751e-10
4.37703e-10
4.51978e-10
4.64518e-10
4.75301e-10
4.84336e-10
4.91663e-10
4.97341e-10
5.0145e-10
5.04083e-10
5.05345e-10
3.73007e-10
3.93603e-10
4.2301e-10
4.6008e-10
5.03797e-10
5.53167e-10
6.07186e-10
6.64818e-10
7.2501e-10
7.86706e-10
8.48874e-10
9.10529e-10
9.70756e-10
1.02874e-09
1.08376e-09
1.13522e-09
1.18266e-09
1.22572e-09
1.26415e-09
1.29785e-09
1.32676e-09
1.35094e-09
1.37051e-09
1.38566e-09
1.39661e-09
1.40361e-09
1.40697e-09
1.06456e-09
1.12145e-09
1.20248e-09
1.30434e-09
1.42404e-09
1.5587e-09
1.70543e-09
1.86132e-09
2.02341e-09
2.18883e-09
2.3548e-09
2.51871e-09
2.67817e-09
2.83108e-09
2.97565e-09
3.11042e-09
3.23423e-09
3.34626e-09
3.44601e-09
3.53321e-09
3.60786e-09
3.67016e-09
3.7205e-09
3.75939e-09
3.78745e-09
3.80538e-09
3.81396e-09
2.98299e-09
3.1351e-09
3.35116e-09
3.62175e-09
3.93839e-09
4.29295e-09
4.67739e-09
5.0837e-09
5.50403e-09
5.9308e-09
6.35683e-09
6.77552e-09
7.18098e-09
7.56807e-09
7.93253e-09
8.27093e-09
8.58071e-09
8.8601e-09
9.10807e-09
9.32425e-09
9.50885e-09
9.66256e-09
9.78649e-09
9.88205e-09
9.95089e-09
9.99484e-09
1.00158e-08
8.16491e-09
8.55559e-09
9.1087e-09
9.79847e-09
1.06017e-08
1.14964e-08
1.2461e-08
1.34747e-08
1.45173e-08
1.557e-08
1.66152e-08
1.76369e-08
1.86215e-08
1.95571e-08
2.04342e-08
2.12453e-08
2.1985e-08
2.26498e-08
2.3238e-08
2.37494e-08
2.41849e-08
2.45467e-08
2.48378e-08
2.50619e-08
2.5223e-08
2.53258e-08
2.53747e-08
2.17027e-08
2.26597e-08
2.40098e-08
2.56859e-08
2.76277e-08
2.97784e-08
3.20837e-08
3.4492e-08
3.69547e-08
3.94269e-08
4.18679e-08
4.42419e-08
4.65182e-08
4.86714e-08
5.06813e-08
5.25326e-08
5.4215e-08
5.57221e-08
5.70515e-08
5.8204e-08
5.91832e-08
5.9995e-08
6.06468e-08
6.11476e-08
6.15072e-08
6.17362e-08
6.18452e-08
5.56955e-08
5.79204e-08
6.10484e-08
6.49148e-08
6.93715e-08
7.42809e-08
7.95137e-08
8.49496e-08
9.04774e-08
9.59968e-08
1.01419e-07
1.06667e-07
1.11676e-07
1.16394e-07
1.20781e-07
1.24808e-07
1.28455e-07
1.31713e-07
1.34578e-07
1.37057e-07
1.39158e-07
1.40897e-07
1.4229e-07
1.43359e-07
1.44126e-07
1.44613e-07
1.44845e-07
1.37323e-07
1.42225e-07
1.49097e-07
1.57558e-07
1.67267e-07
1.77911e-07
1.892e-07
2.00869e-07
2.12679e-07
2.24415e-07
2.35894e-07
2.46959e-07
2.57479e-07
2.67353e-07
2.76503e-07
2.84877e-07
2.9244e-07
2.99179e-07
3.05093e-07
3.10198e-07
3.14518e-07
3.18086e-07
3.20942e-07
3.2313e-07
3.24697e-07
3.25693e-07
3.26166e-07
3.24344e-07
3.34614e-07
3.48972e-07
3.66592e-07
3.86739e-07
4.0874e-07
4.31981e-07
4.55911e-07
4.80034e-07
5.0392e-07
5.27198e-07
5.49562e-07
5.70761e-07
5.90601e-07
6.08939e-07
6.2568e-07
6.40768e-07
6.54184e-07
6.65939e-07
6.76068e-07
6.84626e-07
6.91686e-07
6.9733e-07
7.0165e-07
7.04741e-07
7.06703e-07
7.07635e-07
7.3336e-07
7.53941e-07
7.82661e-07
8.17823e-07
8.57918e-07
9.01578e-07
9.47567e-07
9.94777e-07
1.04224e-06
1.0891e-06
1.13466e-06
1.17832e-06
1.21961e-06
1.25818e-06
1.29375e-06
1.32617e-06
1.35535e-06
1.38125e-06
1.40391e-06
1.42342e-06
1.43988e-06
1.45345e-06
1.46428e-06
1.47257e-06
1.4785e-06
1.48225e-06
1.48404e-06
1.58911e-06
1.62895e-06
1.68447e-06
1.75234e-06
1.82961e-06
1.91359e-06
2.0019e-06
2.09238e-06
2.18319e-06
2.2727e-06
2.35958e-06
2.44271e-06
2.52122e-06
2.59446e-06
2.66193e-06
2.72335e-06
2.77856e-06
2.82753e-06
2.87034e-06
2.90715e-06
2.93819e-06
2.96375e-06
2.98416e-06
2.99975e-06
3.0109e-06
3.01796e-06
3.02132e-06
3.30472e-06
3.38002e-06
3.48494e-06
3.61313e-06
3.759e-06
3.91747e-06
4.08402e-06
4.25461e-06
4.42574e-06
4.59438e-06
4.758e-06
4.91453e-06
5.06233e-06
5.20014e-06
5.3271e-06
5.44263e-06
5.54644e-06
5.6385e-06
5.71894e-06
5.7881e-06
5.8464e-06
5.89439e-06
5.93268e-06
5.96192e-06
5.98282e-06
5.99606e-06
6.00234e-06
6.59287e-06
6.73325e-06
6.92899e-06
7.16843e-06
7.44124e-06
7.73812e-06
8.05069e-06
8.37151e-06
8.69404e-06
9.01264e-06
9.32252e-06
9.61971e-06
9.90104e-06
1.0164e-05
1.04069e-05
1.06285e-05
1.08281e-05
1.10055e-05
1.11609e-05
1.12948e-05
1.14078e-05
1.1501e-05
1.15755e-05
1.16325e-05
1.16733e-05
1.16991e-05
1.17114e-05
1.2555e-05
1.28127e-05
1.31729e-05
1.36149e-05
1.41205e-05
1.46734e-05
1.52586e-05
1.58629e-05
1.64746e-05
1.70832e-05
1.76797e-05
1.82567e-05
1.88077e-05
1.93276e-05
1.98125e-05
2.02592e-05
2.06659e-05
2.10311e-05
2.13544e-05
2.1636e-05
2.18765e-05
2.2077e-05
2.2239e-05
2.23642e-05
2.24548e-05
2.25129e-05
2.25407e-05
2.25727e-05
2.30254e-05
2.36603e-05
2.44427e-05
2.53427e-05
2.63329e-05
2.73889e-05
2.84885e-05
2.96116e-05
3.07402e-05
3.18584e-05
3.29521e-05
3.40091e-05
3.50189e-05
3.59726e-05
3.68629e-05
3.7684e-05
3.84314e-05
3.91021e-05
3.9694e-05
4.02063e-05
4.0639e-05
4.09933e-05
4.12708e-05
4.1474e-05
4.16058e-05
4.16698e-05
3.77759e-05
3.8496e-05
3.95068e-05
4.07549e-05
4.21933e-05
4.37799e-05
4.54762e-05
4.72474e-05
4.90616e-05
5.08899e-05
5.27064e-05
5.44877e-05
5.62134e-05
5.78656e-05
5.94289e-05
6.08906e-05
6.22403e-05
6.34701e-05
6.45743e-05
6.55492e-05
6.63931e-05
6.71059e-05
6.76891e-05
6.81457e-05
6.84797e-05
6.8696e-05
6.88009e-05
5.81784e-05
5.91545e-05
6.05207e-05
6.22008e-05
6.41275e-05
6.62402e-05
6.84837e-05
7.08086e-05
7.31701e-05
7.55286e-05
7.78492e-05
8.01017e-05
8.22605e-05
8.43043e-05
8.62162e-05
8.79828e-05
8.95948e-05
9.1046e-05
9.23337e-05
9.34576e-05
9.44196e-05
9.52235e-05
9.58746e-05
9.63794e-05
9.67454e-05
9.69806e-05
9.70937e-05
8.18348e-05
8.29118e-05
8.44089e-05
8.62332e-05
8.8302e-05
9.05417e-05
9.28868e-05
9.52799e-05
9.76716e-05
0.00010002
0.000102291
0.000104457
0.000106497
0.000108395
0.000110141
0.000111728
0.000113153
0.000114417
0.000115522
0.000116473
0.000117276
0.000117939
0.000118469
0.000118875
0.000119167
0.000119352
0.00011944
0.000104737
0.000105678
0.000106974
0.000108536
0.000110284
0.000112148
0.000114068
0.000115993
0.000117883
0.000119705
0.000121434
0.000123054
0.000124551
0.00012592
0.000127156
0.000128261
0.000129237
0.00013009
0.000130823
0.000131446
0.000131964
0.000132387
0.000132721
0.000132974
0.000133153
0.000133266
0.000133319
0.000122616
0.000123263
0.000124146
0.000125198
0.00012636
0.00012758
0.000128815
0.000130033
0.000131206
0.000132317
0.000133352
0.000134303
0.000135166
0.000135941
0.000136629
0.000137233
0.000137758
0.000138208
0.000138591
0.000138911
0.000139174
0.000139385
0.00013955
0.000139674
0.00013976
0.000139814
0.00013984
0.000133402
0.000133741
0.000134201
0.000134742
0.000135329
0.000135935
0.000136537
0.000137118
0.000137665
0.000138171
0.000138632
0.000139044
0.000139409
0.000139729
0.000140005
0.000140242
0.000140442
0.00014061
0.000140749
0.000140862
0.000140954
0.000141025
0.00014108
0.00014112
0.000141147
0.000141164
0.000141172
0.000137638
0.000137751
0.0001379
0.00013807
0.000138249
0.000138424
0.000138589
0.000138738
0.000138869
0.00013898
0.00013907
0.000139142
0.000139197
0.000139238
0.000139265
0.000139283
0.000139292
0.000139295
0.000139294
0.00013929
0.000139284
0.000139277
0.000139271
0.000139265
0.00013926
0.000139256
0.000139255
0.000137232
0.000137211
0.000137179
0.000137134
0.000137077
0.000137008
0.000136927
0.000136836
0.000136738
0.000136633
0.000136525
0.000136416
0.000136308
0.000136203
0.000136102
0.000136008
0.00013592
0.00013584
0.000135769
0.000135706
0.000135652
0.000135607
0.00013557
0.000135542
0.000135521
0.000135508
0.000135502
0.000134125
0.000134039
0.000133918
0.00013377
0.0001336
0.000133414
0.000133217
0.000133013
0.000132808
0.000132605
0.000132406
0.000132215
0.000132034
0.000131864
0.000131707
0.000131563
0.000131434
0.000131318
0.000131216
0.000131129
0.000131054
0.000130993
0.000130944
0.000130906
0.000130879
0.000130861
0.000130853
0.000129719
0.000129607
0.000129451
0.000129262
0.000129048
0.000128817
0.000128576
0.000128331
0.000128087
0.000127848
0.000127617
0.000127397
0.000127191
0.000126999
0.000126822
0.000126662
0.000126519
0.000126392
0.000126281
0.000126185
0.000126105
0.000126038
0.000125985
0.000125944
0.000125915
0.000125897
0.000125888
0.00012485
0.000124732
0.000124568
0.00012437
0.000124147
0.000123907
0.000123657
0.000123404
0.000123154
0.000122909
0.000122674
0.000122451
0.000122241
0.000122048
0.00012187
0.00012171
0.000121566
0.000121439
0.000121328
0.000121232
0.000121152
0.000121086
0.000121033
0.000120993
0.000120964
0.000120946
0.000120937
0.000119961
0.000119845
0.000119685
0.000119492
0.000119274
0.00011904
0.000118797
0.000118552
0.000118309
0.000118072
0.000117844
0.000117629
0.000117427
0.00011724
0.000117069
0.000116914
0.000116776
0.000116654
0.000116547
0.000116456
0.000116379
0.000116315
0.000116265
0.000116226
0.000116198
0.000116181
0.000116172
0.000115259
0.000115149
0.000114997
0.000114813
0.000114606
0.000114384
0.000114154
0.000113922
0.000113691
0.000113467
0.000113251
0.000113047
0.000112856
0.00011268
0.000112518
0.000112372
0.000112241
0.000112125
0.000112025
0.000111938
0.000111865
0.000111805
0.000111758
0.000111721
0.000111695
0.000111678
0.00011167
0.000110825
0.000110721
0.000110578
0.000110406
0.000110212
0.000110003
0.000109787
0.000109569
0.000109352
0.000109141
0.000108939
0.000108747
0.000108568
0.000108402
0.00010825
0.000108113
0.00010799
0.000107881
0.000107787
0.000107706
0.000107637
0.000107581
0.000107536
0.000107502
0.000107477
0.000107462
0.000107454
0.000106678
0.000106582
0.000106448
0.000106286
0.000106104
0.000105909
0.000105706
0.000105501
0.000105299
0.000105101
0.000104911
0.000104732
0.000104563
0.000104408
0.000104266
0.000104137
0.000104022
0.00010392
0.000103831
0.000103755
0.000103691
0.000103638
0.000103596
0.000103564
0.000103541
0.000103527
0.00010352
0.000102811
0.000102721
0.000102595
0.000102444
0.000102273
0.00010209
0.0001019
0.000101708
0.000101517
0.000101332
0.000101154
0.000100985
0.000100828
0.000100682
0.000100548
0.000100428
0.00010032
0.000100224
0.000100141
0.00010007
0.000100009
9.99599e-05
9.99204e-05
9.98902e-05
9.98686e-05
9.98549e-05
9.98484e-05
9.9203e-05
9.91177e-05
9.89998e-05
9.88572e-05
9.86968e-05
9.85248e-05
9.83462e-05
9.81656e-05
9.79867e-05
9.78125e-05
9.76452e-05
9.74868e-05
9.73386e-05
9.72014e-05
9.70759e-05
9.69624e-05
9.68609e-05
9.67711e-05
9.66929e-05
9.66259e-05
9.65694e-05
9.65229e-05
9.64857e-05
9.64574e-05
9.64371e-05
9.64242e-05
9.6418e-05
9.58289e-05
9.57485e-05
9.56375e-05
9.55031e-05
9.5352e-05
9.51899e-05
9.50217e-05
9.48516e-05
9.4683e-05
9.45188e-05
9.43612e-05
9.4212e-05
9.40723e-05
9.3943e-05
9.38248e-05
9.37178e-05
9.36221e-05
9.35376e-05
9.34639e-05
9.34007e-05
9.33475e-05
9.33037e-05
9.32687e-05
9.3242e-05
9.32229e-05
9.32107e-05
9.32049e-05
9.26654e-05
9.25895e-05
9.24846e-05
9.23577e-05
9.2215e-05
9.20619e-05
9.19029e-05
9.17422e-05
9.1583e-05
9.14279e-05
9.1279e-05
9.1138e-05
9.10061e-05
9.0884e-05
9.07723e-05
9.06712e-05
9.05808e-05
9.0501e-05
9.04314e-05
9.03717e-05
9.03214e-05
9.028e-05
9.0247e-05
9.02218e-05
9.02037e-05
9.01922e-05
9.01868e-05
8.96907e-05
8.96188e-05
8.95194e-05
8.93993e-05
8.92641e-05
8.91191e-05
8.89686e-05
8.88164e-05
8.86655e-05
8.85186e-05
8.83776e-05
8.82441e-05
8.81191e-05
8.80035e-05
8.78977e-05
8.7802e-05
8.77164e-05
8.76408e-05
8.75749e-05
8.75184e-05
8.74708e-05
8.74316e-05
8.74003e-05
8.73764e-05
8.73593e-05
8.73485e-05
8.73433e-05
8.6885e-05
8.68168e-05
8.67224e-05
8.66084e-05
8.648e-05
8.63423e-05
8.61995e-05
8.6055e-05
8.59118e-05
8.57723e-05
8.56384e-05
8.55117e-05
8.5393e-05
8.52832e-05
8.51828e-05
8.5092e-05
8.50107e-05
8.49389e-05
8.48764e-05
8.48227e-05
8.47775e-05
8.47403e-05
8.47106e-05
8.46879e-05
8.46717e-05
8.46614e-05
8.46565e-05
8.42312e-05
8.41662e-05
8.40765e-05
8.39679e-05
8.38458e-05
8.37148e-05
8.35789e-05
8.34413e-05
8.33051e-05
8.31724e-05
8.3045e-05
8.29243e-05
8.28114e-05
8.2707e-05
8.26114e-05
8.2525e-05
8.24476e-05
8.23793e-05
8.23198e-05
8.22687e-05
8.22257e-05
8.21904e-05
8.21621e-05
8.21405e-05
8.21251e-05
8.21153e-05
8.21106e-05
8.17141e-05
8.16522e-05
8.15667e-05
8.14631e-05
8.13467e-05
8.12218e-05
8.10921e-05
8.0961e-05
8.0831e-05
8.07045e-05
8.0583e-05
8.04679e-05
8.03603e-05
8.02607e-05
8.01695e-05
8.00871e-05
8.00133e-05
7.99482e-05
7.98914e-05
7.98427e-05
7.98017e-05
7.9768e-05
7.97411e-05
7.97205e-05
7.97058e-05
7.96964e-05
7.9692e-05
7.93209e-05
7.92617e-05
7.91799e-05
7.9081e-05
7.89698e-05
7.88504e-05
7.87265e-05
7.86012e-05
7.8477e-05
7.83561e-05
7.824e-05
7.81301e-05
7.80272e-05
7.7932e-05
7.78449e-05
7.77662e-05
7.76957e-05
7.76335e-05
7.75792e-05
7.75327e-05
7.74935e-05
7.74613e-05
7.74356e-05
7.74159e-05
7.74018e-05
7.73929e-05
7.73886e-05
7.704e-05
7.69833e-05
7.69051e-05
7.68104e-05
7.67039e-05
7.65896e-05
7.6471e-05
7.63511e-05
7.62322e-05
7.61165e-05
7.60053e-05
7.59001e-05
7.58016e-05
7.57105e-05
7.56271e-05
7.55517e-05
7.54843e-05
7.54247e-05
7.53728e-05
7.53282e-05
7.52907e-05
7.52599e-05
7.52352e-05
7.52164e-05
7.52029e-05
7.51944e-05
7.51903e-05
7.48616e-05
7.48073e-05
7.47323e-05
7.46415e-05
7.45394e-05
7.44298e-05
7.43161e-05
7.42011e-05
7.40872e-05
7.39761e-05
7.38696e-05
7.37687e-05
7.36742e-05
7.35869e-05
7.35069e-05
7.34346e-05
7.33699e-05
7.33128e-05
7.3263e-05
7.32203e-05
7.31843e-05
7.31548e-05
7.31312e-05
7.31131e-05
7.31002e-05
7.3092e-05
7.30881e-05
7.27773e-05
7.27252e-05
7.26531e-05
7.2566e-05
7.24679e-05
7.23627e-05
7.22535e-05
7.21431e-05
7.20336e-05
7.1927e-05
7.18247e-05
7.17278e-05
7.16371e-05
7.15532e-05
7.14764e-05
7.1407e-05
7.13449e-05
7.129e-05
7.12422e-05
7.12012e-05
7.11667e-05
7.11382e-05
7.11156e-05
7.10982e-05
7.10858e-05
7.1078e-05
7.10742e-05
7.07796e-05
7.07295e-05
7.06602e-05
7.05764e-05
7.04821e-05
7.0381e-05
7.0276e-05
7.01698e-05
7.00646e-05
6.99621e-05
6.98637e-05
6.97705e-05
6.96833e-05
6.96026e-05
6.95288e-05
6.9462e-05
6.94023e-05
6.93495e-05
6.93036e-05
6.92641e-05
6.92309e-05
6.92036e-05
6.91818e-05
6.91651e-05
6.91532e-05
6.91456e-05
6.91421e-05
6.88622e-05
6.88139e-05
6.87472e-05
6.86666e-05
6.85758e-05
6.84784e-05
6.83774e-05
6.82752e-05
6.81739e-05
6.80752e-05
6.79805e-05
6.78908e-05
6.78068e-05
6.77291e-05
6.76581e-05
6.75938e-05
6.75363e-05
6.74855e-05
6.74413e-05
6.74033e-05
6.73713e-05
6.7345e-05
6.73241e-05
6.7308e-05
6.72965e-05
6.72892e-05
6.72858e-05
6.70194e-05
6.69729e-05
6.69087e-05
6.6831e-05
6.67435e-05
6.66497e-05
6.65523e-05
6.64538e-05
6.63562e-05
6.62611e-05
6.61699e-05
6.60834e-05
6.60025e-05
6.59277e-05
6.58592e-05
6.57973e-05
6.57419e-05
6.56929e-05
6.56503e-05
6.56137e-05
6.55829e-05
6.55576e-05
6.55374e-05
6.55219e-05
6.55108e-05
6.55038e-05
6.55005e-05
6.52466e-05
6.52018e-05
6.51398e-05
6.50649e-05
6.49806e-05
6.48901e-05
6.47962e-05
6.47012e-05
6.46071e-05
6.45154e-05
6.44274e-05
6.4344e-05
6.4266e-05
6.41938e-05
6.41278e-05
6.40681e-05
6.40147e-05
6.39675e-05
6.39264e-05
6.38911e-05
6.38614e-05
6.38369e-05
6.38174e-05
6.38025e-05
6.37919e-05
6.37851e-05
6.37819e-05
6.35397e-05
6.34964e-05
6.34366e-05
6.33643e-05
6.3283e-05
6.31957e-05
6.3105e-05
6.30134e-05
6.29226e-05
6.28341e-05
6.27492e-05
6.26688e-05
6.25935e-05
6.25239e-05
6.24602e-05
6.24025e-05
6.2351e-05
6.23055e-05
6.22658e-05
6.22318e-05
6.22031e-05
6.21795e-05
6.21607e-05
6.21464e-05
6.21361e-05
6.21295e-05
6.21264e-05
6.18952e-05
6.18534e-05
6.17957e-05
6.17259e-05
6.16474e-05
6.15631e-05
6.14756e-05
6.13872e-05
6.12995e-05
6.12141e-05
6.11322e-05
6.10546e-05
6.09819e-05
6.09147e-05
6.08532e-05
6.07976e-05
6.07478e-05
6.07039e-05
6.06656e-05
6.06328e-05
6.06051e-05
6.05824e-05
6.05642e-05
6.05503e-05
6.05404e-05
6.05341e-05
6.05311e-05
6.03102e-05
6.02699e-05
6.02142e-05
6.01468e-05
6.0071e-05
5.99896e-05
5.99052e-05
5.98198e-05
5.97352e-05
5.96527e-05
5.95736e-05
5.94987e-05
5.94286e-05
5.93637e-05
5.93043e-05
5.92506e-05
5.92026e-05
5.91602e-05
5.91233e-05
5.90916e-05
5.90649e-05
5.90429e-05
5.90254e-05
5.9012e-05
5.90024e-05
5.89963e-05
5.89934e-05
5.87824e-05
5.87435e-05
5.86898e-05
5.86247e-05
5.85515e-05
5.8473e-05
5.83915e-05
5.83091e-05
5.82274e-05
5.81478e-05
5.80714e-05
5.79991e-05
5.79314e-05
5.78688e-05
5.78115e-05
5.77597e-05
5.77134e-05
5.76724e-05
5.76368e-05
5.76062e-05
5.75804e-05
5.75592e-05
5.75423e-05
5.75294e-05
5.75202e-05
5.75143e-05
5.75115e-05
5.73101e-05
5.72725e-05
5.72206e-05
5.71578e-05
5.70872e-05
5.70114e-05
5.69328e-05
5.68533e-05
5.67745e-05
5.66977e-05
5.6624e-05
5.65542e-05
5.64889e-05
5.64285e-05
5.63733e-05
5.63233e-05
5.62786e-05
5.62391e-05
5.62047e-05
5.61752e-05
5.61503e-05
5.61299e-05
5.61136e-05
5.61011e-05
5.60922e-05
5.60865e-05
5.60838e-05
5.58917e-05
5.58555e-05
5.58055e-05
5.57449e-05
5.56768e-05
5.56037e-05
5.55279e-05
5.54512e-05
5.53752e-05
5.53012e-05
5.52302e-05
5.51629e-05
5.51e-05
5.50417e-05
5.49885e-05
5.49403e-05
5.48972e-05
5.48591e-05
5.4826e-05
5.47975e-05
5.47736e-05
5.47539e-05
5.47382e-05
5.47262e-05
5.47176e-05
5.47121e-05
5.47095e-05
5.45265e-05
5.44916e-05
5.44434e-05
5.43851e-05
5.43195e-05
5.42491e-05
5.41761e-05
5.41022e-05
5.4029e-05
5.39577e-05
5.38893e-05
5.38245e-05
5.37639e-05
5.37078e-05
5.36565e-05
5.36102e-05
5.35687e-05
5.3532e-05
5.35001e-05
5.34727e-05
5.34497e-05
5.34307e-05
5.34156e-05
5.3404e-05
5.33957e-05
5.33905e-05
5.3388e-05
5.3214e-05
5.31805e-05
5.31341e-05
5.3078e-05
5.30149e-05
5.29472e-05
5.28769e-05
5.28059e-05
5.27355e-05
5.26669e-05
5.26012e-05
5.25389e-05
5.24806e-05
5.24267e-05
5.23774e-05
5.23328e-05
5.22929e-05
5.22577e-05
5.2227e-05
5.22007e-05
5.21785e-05
5.21603e-05
5.21457e-05
5.21346e-05
5.21267e-05
5.21216e-05
5.21192e-05
5.19543e-05
5.19221e-05
5.18775e-05
5.18237e-05
5.17631e-05
5.16981e-05
5.16306e-05
5.15624e-05
5.14949e-05
5.14291e-05
5.1366e-05
5.13062e-05
5.12503e-05
5.11985e-05
5.11512e-05
5.11085e-05
5.10702e-05
5.10364e-05
5.1007e-05
5.09817e-05
5.09605e-05
5.0943e-05
5.09291e-05
5.09184e-05
5.09108e-05
5.09059e-05
5.09037e-05
5.07478e-05
5.0717e-05
5.06743e-05
5.06227e-05
5.05647e-05
5.05024e-05
5.04378e-05
5.03725e-05
5.03078e-05
5.02449e-05
5.01844e-05
5.01272e-05
5.00737e-05
5.00242e-05
4.9979e-05
4.9938e-05
4.99014e-05
4.98691e-05
4.98409e-05
4.98168e-05
4.97965e-05
4.97798e-05
4.97664e-05
4.97562e-05
4.97489e-05
4.97443e-05
4.97421e-05
4.95955e-05
4.9566e-05
4.95253e-05
4.9476e-05
4.94206e-05
4.93612e-05
4.92995e-05
4.92372e-05
4.91755e-05
4.91154e-05
4.90577e-05
4.90032e-05
4.89521e-05
4.89049e-05
4.88617e-05
4.88227e-05
4.87878e-05
4.8757e-05
4.87301e-05
4.87071e-05
4.86877e-05
4.86718e-05
4.86591e-05
4.86494e-05
4.86424e-05
4.8638e-05
4.86359e-05
4.84988e-05
4.84707e-05
4.84319e-05
4.83851e-05
4.83324e-05
4.82758e-05
4.82172e-05
4.8158e-05
4.80993e-05
4.80422e-05
4.79874e-05
4.79355e-05
4.7887e-05
4.78422e-05
4.78012e-05
4.77641e-05
4.7731e-05
4.77017e-05
4.76762e-05
4.76544e-05
4.7636e-05
4.76209e-05
4.76088e-05
4.75996e-05
4.7593e-05
4.75888e-05
4.75868e-05
4.74593e-05
4.74327e-05
4.7396e-05
4.73517e-05
4.73018e-05
4.72483e-05
4.71928e-05
4.71367e-05
4.70812e-05
4.70272e-05
4.69754e-05
4.69264e-05
4.68805e-05
4.68381e-05
4.67994e-05
4.67643e-05
4.6733e-05
4.67054e-05
4.66813e-05
4.66607e-05
4.66433e-05
4.6629e-05
4.66177e-05
4.6609e-05
4.66027e-05
4.65988e-05
4.65969e-05
4.64793e-05
4.64543e-05
4.64197e-05
4.6378e-05
4.6331e-05
4.62807e-05
4.62285e-05
4.61757e-05
4.61235e-05
4.60727e-05
4.6024e-05
4.5978e-05
4.59349e-05
4.58951e-05
4.58587e-05
4.58258e-05
4.57964e-05
4.57704e-05
4.57478e-05
4.57285e-05
4.57122e-05
4.56988e-05
4.56881e-05
4.56799e-05
4.56741e-05
4.56704e-05
4.56686e-05
4.55612e-05
4.55378e-05
4.55055e-05
4.54664e-05
4.54226e-05
4.53755e-05
4.53268e-05
4.52775e-05
4.52288e-05
4.51813e-05
4.51359e-05
4.50929e-05
4.50527e-05
4.50156e-05
4.49816e-05
4.4951e-05
4.49236e-05
4.48994e-05
4.48783e-05
4.48603e-05
4.48451e-05
4.48326e-05
4.48227e-05
4.48151e-05
4.48096e-05
4.48062e-05
4.48046e-05
4.47076e-05
4.46859e-05
4.4656e-05
4.46198e-05
4.45791e-05
4.45355e-05
4.44903e-05
4.44447e-05
4.43996e-05
4.43557e-05
4.43137e-05
4.42739e-05
4.42367e-05
4.42024e-05
4.4171e-05
4.41427e-05
4.41174e-05
4.40951e-05
4.40756e-05
4.4059e-05
4.4045e-05
4.40335e-05
4.40243e-05
4.40173e-05
4.40122e-05
4.40091e-05
4.40075e-05
4.39213e-05
4.39014e-05
4.38739e-05
4.38406e-05
4.38033e-05
4.37633e-05
4.37219e-05
4.36801e-05
4.36387e-05
4.35985e-05
4.356e-05
4.35236e-05
4.34896e-05
4.34582e-05
4.34296e-05
4.34037e-05
4.33805e-05
4.33602e-05
4.33424e-05
4.33272e-05
4.33144e-05
4.33039e-05
4.32955e-05
4.32891e-05
4.32845e-05
4.32816e-05
4.32802e-05
4.32048e-05
4.31867e-05
4.31617e-05
4.31316e-05
4.30977e-05
4.30615e-05
4.3024e-05
4.29861e-05
4.29487e-05
4.29123e-05
4.28775e-05
4.28446e-05
4.28139e-05
4.27855e-05
4.27596e-05
4.27363e-05
4.27154e-05
4.2697e-05
4.2681e-05
4.26673e-05
4.26558e-05
4.26463e-05
4.26387e-05
4.2633e-05
4.26288e-05
4.26262e-05
4.2625e-05
4.25603e-05
4.25441e-05
4.25218e-05
4.24948e-05
4.24646e-05
4.24322e-05
4.23987e-05
4.23649e-05
4.23315e-05
4.22991e-05
4.22681e-05
4.22387e-05
4.22114e-05
4.21862e-05
4.21631e-05
4.21424e-05
4.21238e-05
4.21075e-05
4.20933e-05
4.20811e-05
4.20709e-05
4.20624e-05
4.20557e-05
4.20506e-05
4.2047e-05
4.20447e-05
4.20436e-05
4.19895e-05
4.19752e-05
4.19556e-05
4.19319e-05
4.19053e-05
4.18768e-05
4.18474e-05
4.18177e-05
4.17885e-05
4.176e-05
4.17329e-05
4.17072e-05
4.16833e-05
4.16612e-05
4.16411e-05
4.1623e-05
4.16068e-05
4.15925e-05
4.15801e-05
4.15695e-05
4.15606e-05
4.15533e-05
4.15474e-05
4.1543e-05
4.15398e-05
4.15378e-05
4.15368e-05
4.14929e-05
4.14806e-05
4.14636e-05
4.14432e-05
4.14203e-05
4.13958e-05
4.13704e-05
4.13449e-05
4.13198e-05
4.12954e-05
4.12721e-05
4.12501e-05
4.12296e-05
4.12107e-05
4.11935e-05
4.1178e-05
4.11641e-05
4.1152e-05
4.11414e-05
4.11323e-05
4.11247e-05
4.11185e-05
4.11135e-05
4.11097e-05
4.1107e-05
4.11053e-05
4.11045e-05
4.10699e-05
4.10596e-05
4.10453e-05
4.10281e-05
4.10088e-05
4.09882e-05
4.09669e-05
4.09455e-05
4.09244e-05
4.09039e-05
4.08844e-05
4.0866e-05
4.08489e-05
4.08331e-05
4.08187e-05
4.08058e-05
4.07943e-05
4.07841e-05
4.07753e-05
4.07678e-05
4.07615e-05
4.07563e-05
4.07522e-05
4.0749e-05
4.07468e-05
4.07453e-05
4.07447e-05
4.07186e-05
4.07101e-05
4.06983e-05
4.06842e-05
4.06684e-05
4.06516e-05
4.06342e-05
4.06167e-05
4.05995e-05
4.05829e-05
4.0567e-05
4.0552e-05
4.05381e-05
4.05254e-05
4.05137e-05
4.05033e-05
4.04939e-05
4.04857e-05
4.04786e-05
4.04726e-05
4.04675e-05
4.04633e-05
4.04599e-05
4.04574e-05
4.04556e-05
4.04544e-05
4.04539e-05
4.0435e-05
4.04282e-05
4.04189e-05
4.04077e-05
4.03952e-05
4.03818e-05
4.03681e-05
4.03542e-05
4.03407e-05
4.03275e-05
4.0315e-05
4.03033e-05
4.02923e-05
4.02823e-05
4.02732e-05
4.0265e-05
4.02577e-05
4.02513e-05
4.02457e-05
4.0241e-05
4.0237e-05
4.02337e-05
4.02311e-05
4.02291e-05
4.02277e-05
4.02268e-05
4.02264e-05
4.02133e-05
4.02082e-05
4.0201e-05
4.01924e-05
4.01828e-05
4.01726e-05
4.01621e-05
4.01516e-05
4.01412e-05
4.01312e-05
4.01217e-05
4.01128e-05
4.01045e-05
4.00969e-05
4.009e-05
4.00838e-05
4.00783e-05
4.00735e-05
4.00693e-05
4.00657e-05
4.00627e-05
4.00603e-05
4.00583e-05
4.00568e-05
4.00558e-05
4.00551e-05
4.00548e-05
4.00462e-05
4.00424e-05
4.00371e-05
4.00308e-05
4.00237e-05
4.00162e-05
4.00085e-05
4.00008e-05
3.99932e-05
3.99859e-05
3.9979e-05
3.99725e-05
3.99664e-05
3.99609e-05
3.99559e-05
3.99514e-05
3.99475e-05
3.9944e-05
3.9941e-05
3.99384e-05
3.99362e-05
3.99345e-05
3.99331e-05
3.9932e-05
3.99312e-05
3.99308e-05
3.99305e-05
3.99251e-05
3.99224e-05
3.99187e-05
3.99142e-05
3.99093e-05
3.9904e-05
3.98986e-05
3.98932e-05
3.98879e-05
3.98828e-05
3.9878e-05
3.98735e-05
3.98693e-05
3.98655e-05
3.98621e-05
3.9859e-05
3.98563e-05
3.98539e-05
3.98518e-05
3.985e-05
3.98486e-05
3.98474e-05
3.98464e-05
3.98457e-05
3.98452e-05
3.98448e-05
3.98447e-05
3.98412e-05
3.98394e-05
3.98369e-05
3.9834e-05
3.98307e-05
3.98272e-05
3.98236e-05
3.98201e-05
3.98166e-05
3.98132e-05
3.98101e-05
3.98072e-05
3.98044e-05
3.9802e-05
3.97997e-05
3.97977e-05
3.9796e-05
3.97944e-05
3.97931e-05
3.9792e-05
3.9791e-05
3.97903e-05
3.97897e-05
3.97892e-05
3.97889e-05
3.97887e-05
3.97886e-05
3.97862e-05
3.97851e-05
3.97835e-05
3.97817e-05
3.97797e-05
3.97775e-05
3.97754e-05
3.97732e-05
3.97711e-05
3.97691e-05
3.97672e-05
3.97654e-05
3.97638e-05
3.97623e-05
3.9761e-05
3.97598e-05
3.97588e-05
3.97579e-05