/*--------------------------------*- C++ -*----------------------------------*\
| =========                 |                                                 |
| \\      /  F ield         | OpenFOAM: The Open Source CFD Toolbox           |
|  \\    /   O peration     | Version:  2106                                  |
|   \\  /    A nd           | Website:  www.openfoam.com                      |
|    \\/     M anipulation  |                                                 |
\*---------------------------------------------------------------------------*/
FoamFile
{
    version     2.0;
    format      ascii;
    arch        "LSB;label=32;scalar=64";
    class       volScalarField;
    location    "160.00011";
    object      C3H6_0;
}
// * * * * * * * * * * * * * * * * * * * * * * * * * * * * * * * * * * * * * //

dimensions      [0 0 0 0 0 0 0];

internalField   nonuniform List<scalar> 
3360
(
1.61168e-18
1.66354e-18
1.73571e-18
1.82398e-18
1.92468e-18
2.03451e-18
2.15048e-18
2.26989e-18
2.39035e-18
2.50975e-18
2.62624e-18
2.73827e-18
2.84456e-18
2.94407e-18
3.03603e-18
3.11989e-18
3.19532e-18
3.26218e-18
3.32049e-18
3.37043e-18
3.41229e-18
3.44648e-18
3.47349e-18
3.49386e-18
3.50819e-18
3.51711e-18
3.52125e-18
7.06997e-18
7.32982e-18
7.69649e-18
8.15312e-18
8.6857e-18
9.28206e-18
9.93128e-18
1.06234e-17
1.13491e-17
1.20997e-17
1.28667e-17
1.36419e-17
1.44173e-17
1.51848e-17
1.59367e-17
1.66652e-17
1.73628e-17
1.80222e-17
1.86362e-17
1.91985e-17
1.97029e-17
2.0144e-17
2.05174e-17
2.08194e-17
2.10473e-17
2.11995e-17
2.12753e-17
2.21822e-17
2.31556e-17
2.45389e-17
2.62771e-17
2.83246e-17
3.06406e-17
3.31861e-17
3.59228e-17
3.88118e-17
4.18136e-17
4.48876e-17
4.79936e-17
5.10919e-17
5.4143e-17
5.71091e-17
5.99538e-17
6.2644e-17
6.51496e-17
6.74445e-17
6.95072e-17
7.13211e-17
7.28744e-17
7.41603e-17
7.51767e-17
7.59259e-17
7.64146e-17
7.66525e-17
6.45979e-17
6.78063e-17
7.23959e-17
7.82027e-17
8.50892e-17
9.29271e-17
1.01588e-16
1.10938e-16
1.20838e-16
1.3114e-16
1.41694e-16
1.52345e-16
1.62939e-16
1.73326e-16
1.83367e-16
1.92929e-16
2.01899e-16
2.10177e-16
2.17686e-16
2.24365e-16
2.30177e-16
2.35101e-16
2.39133e-16
2.42287e-16
2.44589e-16
2.46075e-16
2.46792e-16
1.8872e-16
1.98841e-16
2.13346e-16
2.3174e-16
2.53604e-16
2.78531e-16
3.06108e-16
3.35894e-16
3.67419e-16
4.00189e-16
4.33693e-16
4.67413e-16
5.00846e-16
5.33506e-16
5.64947e-16
5.94769e-16
6.22624e-16
6.48229e-16
6.71361e-16
6.91862e-16
7.09637e-16
7.24645e-16
7.369e-16
7.46458e-16
7.53414e-16
7.57896e-16
7.60053e-16
5.56418e-16
5.87497e-16
6.32096e-16
6.88703e-16
7.56021e-16
8.32796e-16
9.17731e-16
1.00944e-15
1.10645e-15
1.20721e-15
1.31011e-15
1.41355e-15
1.51595e-15
1.61583e-15
1.71181e-15
1.80268e-15
1.8874e-15
1.96514e-15
2.03524e-15
2.09726e-15
2.15094e-15
2.1962e-15
2.2331e-15
2.26183e-15
2.28272e-15
2.29617e-15
2.30263e-15
1.65275e-15
1.74718e-15
1.88268e-15
2.05468e-15
2.25921e-15
2.49242e-15
2.75031e-15
3.02861e-15
3.32279e-15
3.62808e-15
3.93957e-15
4.25239e-15
4.56177e-15
4.86323e-15
5.15266e-15
5.42644e-15
5.6815e-15
5.91535e-15
6.12609e-15
6.31244e-15
6.47366e-15
6.60951e-15
6.72023e-15
6.80644e-15
6.86909e-15
6.9094e-15
6.92878e-15
4.92558e-15
5.20971e-15
5.61764e-15
6.1356e-15
6.75169e-15
7.45428e-15
8.23126e-15
9.0697e-15
9.95583e-15
1.08752e-14
1.1813e-14
1.27545e-14
1.36852e-14
1.45917e-14
1.54618e-14
1.62844e-14
1.70504e-14
1.77524e-14
1.83847e-14
1.89436e-14
1.94269e-14
1.9834e-14
2.01657e-14
2.04238e-14
2.06114e-14
2.0732e-14
2.07899e-14
1.47183e-14
1.55722e-14
1.67979e-14
1.8354e-14
2.02047e-14
2.23148e-14
2.46479e-14
2.71647e-14
2.98239e-14
3.25819e-14
3.53942e-14
3.82164e-14
4.10057e-14
4.37215e-14
4.63271e-14
4.87901e-14
5.10832e-14
5.31841e-14
5.50765e-14
5.67488e-14
5.81948e-14
5.94127e-14
6.04049e-14
6.11771e-14
6.17381e-14
6.20989e-14
6.22723e-14
4.39834e-14
4.65408e-14
5.02125e-14
5.48742e-14
6.04186e-14
6.67402e-14
7.37293e-14
8.12684e-14
8.9233e-14
9.74925e-14
1.05913e-13
1.14363e-13
1.22711e-13
1.30839e-13
1.38635e-13
1.46002e-13
1.5286e-13
1.59142e-13
1.64798e-13
1.69796e-13
1.74116e-13
1.77754e-13
1.80717e-13
1.83023e-13
1.84698e-13
1.85775e-13
1.86292e-13
1.31504e-13
1.3916e-13
1.50149e-13
1.64099e-13
1.80687e-13
1.99596e-13
2.20495e-13
2.43033e-13
2.66835e-13
2.91511e-13
3.16661e-13
3.41888e-13
3.66807e-13
3.91058e-13
4.14314e-13
4.36286e-13
4.56732e-13
4.75458e-13
4.92317e-13
5.07209e-13
5.20082e-13
5.3092e-13
5.39746e-13
5.46614e-13
5.51602e-13
5.54809e-13
5.5635e-13
3.92807e-13
4.15667e-13
4.48477e-13
4.90122e-13
5.39631e-13
5.96054e-13
6.58399e-13
7.25612e-13
7.96573e-13
8.70113e-13
9.45039e-13
1.02017e-12
1.09435e-12
1.16652e-12
1.2357e-12
1.30104e-12
1.36181e-12
1.41746e-12
1.46754e-12
1.51176e-12
1.54997e-12
1.58214e-12
1.60832e-12
1.62869e-12
1.64348e-12
1.65299e-12
1.65756e-12
1.17209e-12
1.24023e-12
1.33799e-12
1.46202e-12
1.60941e-12
1.77728e-12
1.96267e-12
2.1624e-12
2.37314e-12
2.5914e-12
2.81363e-12
3.0363e-12
3.25604e-12
3.46968e-12
3.67435e-12
3.86754e-12
4.04716e-12
4.21153e-12
4.35938e-12
4.4899e-12
4.60263e-12
4.69749e-12
4.77469e-12
4.83473e-12
4.87832e-12
4.90633e-12
4.91978e-12
3.48737e-12
3.68955e-12
3.97954e-12
4.34726e-12
4.78395e-12
5.281e-12
5.8295e-12
6.41997e-12
7.04244e-12
7.68653e-12
8.34173e-12
8.99766e-12
9.64434e-12
1.02725e-11
1.08738e-11
1.14408e-11
1.19676e-11
1.24492e-11
1.28822e-11
1.32641e-11
1.35937e-11
1.38709e-11
1.40964e-11
1.42717e-11
1.43988e-11
1.44805e-11
1.45198e-11
1.03391e-11
1.09357e-11
1.17909e-11
1.28743e-11
1.41597e-11
1.56211e-11
1.72318e-11
1.89634e-11
2.07864e-11
2.267e-11
2.45834e-11
2.64962e-11
2.83794e-11
3.02062e-11
3.19524e-11
3.35972e-11
3.51234e-11
3.65172e-11
3.77688e-11
3.88718e-11
3.9823e-11
4.06223e-11
4.1272e-11
4.17766e-11
4.21425e-11
4.23775e-11
4.24903e-11
3.04735e-11
3.22172e-11
3.47142e-11
3.78744e-11
4.16183e-11
4.58684e-11
5.05447e-11
5.55633e-11
6.08366e-11
6.62752e-11
7.1789e-11
7.72906e-11
8.26968e-11
8.79313e-11
9.29259e-11
9.76225e-11
1.01973e-10
1.0594e-10
1.09497e-10
1.12627e-10
1.15323e-10
1.17586e-10
1.19423e-10
1.20848e-10
1.21881e-10
1.22544e-10
1.22862e-10
8.91238e-11
9.41536e-11
1.01347e-10
1.10436e-10
1.21183e-10
1.33356e-10
1.46717e-10
1.6102e-10
1.76011e-10
1.9143e-10
2.07021e-10
2.22536e-10
2.37742e-10
2.52429e-10
2.66409e-10
2.79524e-10
2.91646e-10
3.02676e-10
3.12548e-10
3.2122e-10
3.28676e-10
3.34924e-10
3.3999e-10
3.43917e-10
3.46758e-10
3.4858e-10
3.49452e-10
2.579e-10
2.72141e-10
2.92474e-10
3.18106e-10
3.48333e-10
3.8247e-10
4.19821e-10
4.59671e-10
5.0129e-10
5.43951e-10
5.86937e-10
6.29568e-10
6.71212e-10
7.11303e-10
7.49347e-10
7.84933e-10
8.17734e-10
8.47506e-10
8.74084e-10
8.97381e-10
9.17371e-10
9.34092e-10
9.47626e-10
9.58099e-10
9.65668e-10
9.70514e-10
9.72833e-10
7.35906e-10
7.75237e-10
8.31261e-10
9.01678e-10
9.84432e-10
1.07753e-09
1.17898e-09
1.28674e-09
1.39881e-09
1.51318e-09
1.62792e-09
1.74124e-09
1.85149e-09
1.95721e-09
2.05716e-09
2.15033e-09
2.23593e-09
2.31339e-09
2.38235e-09
2.44264e-09
2.49425e-09
2.53733e-09
2.57213e-09
2.59902e-09
2.61842e-09
2.63082e-09
2.63675e-09
2.06154e-09
2.16668e-09
2.31602e-09
2.50304e-09
2.72191e-09
2.96699e-09
3.23271e-09
3.51356e-09
3.80411e-09
4.0991e-09
4.39359e-09
4.68301e-09
4.96327e-09
5.23085e-09
5.48278e-09
5.71671e-09
5.93085e-09
6.12398e-09
6.2954e-09
6.44483e-09
6.57244e-09
6.6787e-09
6.76437e-09
6.83042e-09
6.87801e-09
6.90839e-09
6.92289e-09
5.64062e-09
5.91056e-09
6.29273e-09
6.76933e-09
7.32436e-09
7.94255e-09
8.60907e-09
9.30952e-09
1.003e-08
1.07574e-08
1.14796e-08
1.21857e-08
1.28661e-08
1.35127e-08
1.41187e-08
1.46792e-08
1.51904e-08
1.56499e-08
1.60564e-08
1.64098e-08
1.67107e-08
1.69608e-08
1.7162e-08
1.73168e-08
1.74282e-08
1.74992e-08
1.7533e-08
1.49849e-08
1.56458e-08
1.65781e-08
1.77355e-08
1.90765e-08
2.05617e-08
2.21538e-08
2.38169e-08
2.55177e-08
2.7225e-08
2.89109e-08
3.05505e-08
3.21226e-08
3.36098e-08
3.49979e-08
3.62766e-08
3.74386e-08
3.84795e-08
3.93977e-08
4.01938e-08
4.08701e-08
4.14308e-08
4.1881e-08
4.22269e-08
4.24754e-08
4.26335e-08
4.27088e-08
3.84269e-08
3.99618e-08
4.21198e-08
4.47871e-08
4.78617e-08
5.12486e-08
5.48586e-08
5.86086e-08
6.24222e-08
6.62299e-08
6.99705e-08
7.35909e-08
7.70466e-08
8.03017e-08
8.33284e-08
8.61064e-08
8.86225e-08
9.08699e-08
9.2847e-08
9.4557e-08
9.60066e-08
9.7206e-08
9.81674e-08
9.89049e-08
9.94338e-08
9.97701e-08
9.99301e-08
9.46529e-08
9.80299e-08
1.02763e-07
1.0859e-07
1.15276e-07
1.22606e-07
1.3038e-07
1.38415e-07
1.46547e-07
1.54627e-07
1.6253e-07
1.70147e-07
1.77389e-07
1.84185e-07
1.90483e-07
1.96247e-07
2.01452e-07
2.06089e-07
2.1016e-07
2.13673e-07
2.16645e-07
2.191e-07
2.21066e-07
2.22571e-07
2.2365e-07
2.24335e-07
2.2466e-07
2.23298e-07
2.30354e-07
2.40219e-07
2.52324e-07
2.66162e-07
2.81272e-07
2.97232e-07
3.1366e-07
3.30219e-07
3.46613e-07
3.62586e-07
3.77929e-07
3.9247e-07
4.06077e-07
4.18652e-07
4.3013e-07
4.40473e-07
4.49669e-07
4.57725e-07
4.64666e-07
4.70531e-07
4.75368e-07
4.79235e-07
4.82195e-07
4.84313e-07
4.85657e-07
4.86295e-07
5.04235e-07
5.18334e-07
5.38007e-07
5.62088e-07
5.89543e-07
6.19433e-07
6.50911e-07
6.8322e-07
7.15693e-07
7.47754e-07
7.78916e-07
8.08777e-07
8.37016e-07
8.63389e-07
8.87717e-07
9.09886e-07
9.29833e-07
9.47543e-07
9.63038e-07
9.76374e-07
9.8763e-07
9.96906e-07
1.00431e-06
1.00998e-06
1.01403e-06
1.0166e-06
1.01782e-06
1.09153e-06
1.11876e-06
1.15671e-06
1.20309e-06
1.25589e-06
1.31328e-06
1.3736e-06
1.43542e-06
1.49744e-06
1.55857e-06
1.6179e-06
1.67467e-06
1.72829e-06
1.77829e-06
1.82437e-06
1.8663e-06
1.904e-06
1.93743e-06
1.96666e-06
1.9918e-06
2.013e-06
2.03045e-06
2.04439e-06
2.05504e-06
2.06265e-06
2.06747e-06
2.06976e-06
2.27104e-06
2.32248e-06
2.39414e-06
2.48168e-06
2.58127e-06
2.68944e-06
2.8031e-06
2.91949e-06
3.03622e-06
3.15122e-06
3.26278e-06
3.36949e-06
3.47022e-06
3.56413e-06
3.65063e-06
3.72934e-06
3.80006e-06
3.86276e-06
3.91756e-06
3.96466e-06
4.00437e-06
4.03706e-06
4.06314e-06
4.08307e-06
4.0973e-06
4.10632e-06
4.1106e-06
4.54413e-06
4.64017e-06
4.77406e-06
4.93777e-06
5.12423e-06
5.32704e-06
5.54045e-06
5.75938e-06
5.97934e-06
6.1965e-06
6.40758e-06
6.6099e-06
6.80131e-06
6.98015e-06
7.14522e-06
7.29573e-06
7.43124e-06
7.55162e-06
7.65701e-06
7.74775e-06
7.82436e-06
7.88752e-06
7.93797e-06
7.97656e-06
8.00415e-06
8.02165e-06
8.02995e-06
8.71012e-06
8.88791e-06
9.13633e-06
9.44108e-06
9.78955e-06
1.01703e-05
1.05732e-05
1.0989e-05
1.14095e-05
1.18277e-05
1.22373e-05
1.26332e-05
1.30111e-05
1.33674e-05
1.36994e-05
1.40052e-05
1.42834e-05
1.45331e-05
1.47542e-05
1.49466e-05
1.51109e-05
1.52479e-05
1.53585e-05
1.54441e-05
1.5506e-05
1.55457e-05
1.55647e-05
1.58339e-05
1.61532e-05
1.66011e-05
1.71532e-05
1.77886e-05
1.84881e-05
1.92345e-05
2.00123e-05
2.08075e-05
2.16076e-05
2.24012e-05
2.31786e-05
2.39312e-05
2.46514e-05
2.5333e-05
2.59706e-05
2.65599e-05
2.70977e-05
2.75814e-05
2.80094e-05
2.83807e-05
2.86952e-05
2.89533e-05
2.9156e-05
2.93047e-05
2.94015e-05
2.94485e-05
2.69239e-05
2.7452e-05
2.81945e-05
2.9113e-05
3.01739e-05
3.13474e-05
3.2606e-05
3.39246e-05
3.52803e-05
3.66522e-05
3.80209e-05
3.93692e-05
4.06813e-05
4.19433e-05
4.3143e-05
4.427e-05
4.53154e-05
4.62721e-05
4.71348e-05
4.78996e-05
4.85642e-05
4.91276e-05
4.95902e-05
4.99533e-05
5.02196e-05
5.03924e-05
5.04762e-05
4.23672e-05
4.31241e-05
4.41862e-05
4.54965e-05
4.70049e-05
4.86662e-05
5.0439e-05
5.22854e-05
5.41709e-05
5.60642e-05
5.79373e-05
5.97651e-05
6.15261e-05
6.32015e-05
6.4776e-05
6.62371e-05
6.75751e-05
6.87834e-05
6.98587e-05
7.07996e-05
7.16069e-05
7.2283e-05
7.28317e-05
7.32577e-05
7.3567e-05
7.37661e-05
7.38619e-05
6.12553e-05
6.21473e-05
6.33908e-05
6.49113e-05
6.66429e-05
6.85261e-05
7.05076e-05
7.25399e-05
7.4581e-05
7.65948e-05
7.85509e-05
8.04249e-05
8.21976e-05
8.38541e-05
8.53838e-05
8.67794e-05
8.80373e-05
8.91563e-05
9.01376e-05
9.09844e-05
9.17013e-05
9.2294e-05
9.27691e-05
9.31338e-05
9.33957e-05
9.35626e-05
9.36421e-05
8.07775e-05
8.16073e-05
8.27537e-05
8.41391e-05
8.5695e-05
8.73607e-05
8.90839e-05
9.08197e-05
9.25312e-05
9.41888e-05
9.57694e-05
9.72557e-05
9.86358e-05
9.99021e-05
0.000101051
0.000102081
0.000102994
0.000103794
0.000104485
0.000105072
0.000105563
0.000105963
0.000106281
0.000106522
0.000106693
0.000106801
0.000106852
9.70507e-05
9.76533e-05
9.84783e-05
9.94632e-05
0.000100554
0.000101702
0.00010287
0.000104025
0.000105142
0.000106203
0.000107195
0.00010811
0.000108944
0.000109694
0.000110362
0.000110951
0.000111464
0.000111906
0.000112282
0.000112596
0.000112856
0.000113064
0.000113228
0.00011335
0.000113436
0.00011349
0.000113516
0.000107492
0.000107818
0.00010826
0.00010878
0.000109346
0.00010993
0.000110511
0.000111071
0.0001116
0.000112089
0.000112533
0.000112931
0.000113284
0.000113592
0.000113858
0.000114085
0.000114277
0.000114438
0.000114571
0.000114679
0.000114765
0.000114833
0.000114885
0.000114923
0.000114949
0.000114964
0.000114972
0.000111745
0.000111843
0.000111972
0.000112117
0.000112266
0.00011241
0.000112541
0.000112655
0.000112749
0.000112823
0.000112878
0.000112916
0.000112937
0.000112945
0.000112943
0.000112933
0.000112917
0.000112897
0.000112876
0.000112854
0.000112833
0.000112814
0.000112797
0.000112783
0.000112773
0.000112766
0.000112763
0.000111063
0.000111013
0.00011094
0.000110845
0.000110731
0.000110599
0.000110451
0.000110292
0.000110124
0.000109951
0.000109776
0.000109602
0.000109432
0.000109269
0.000109115
0.000108971
0.000108839
0.00010872
0.000108614
0.000108521
0.000108442
0.000108375
0.000108322
0.000108281
0.000108251
0.000108232
0.000108223
0.000107163
0.000107033
0.000106852
0.00010663
0.000106377
0.0001061
0.000105809
0.000105509
0.000105208
0.00010491
0.00010462
0.000104341
0.000104078
0.000103832
0.000103604
0.000103396
0.000103209
0.000103042
0.000102896
0.00010277
0.000102664
0.000102576
0.000102505
0.000102451
0.000102412
0.000102388
0.000102376
0.000101506
0.000101342
0.000101115
0.000100838
0.000100526
0.00010019
9.98385e-05
9.94816e-05
9.91264e-05
9.87788e-05
9.84437e-05
9.81251e-05
9.78259e-05
9.75482e-05
9.72934e-05
9.70622e-05
9.6855e-05
9.66716e-05
9.65115e-05
9.63739e-05
9.62579e-05
9.61623e-05
9.6086e-05
9.60276e-05
9.59858e-05
9.59592e-05
9.59466e-05
9.51006e-05
9.49275e-05
9.46881e-05
9.43983e-05
9.4072e-05
9.37215e-05
9.33574e-05
9.29888e-05
9.26233e-05
9.2267e-05
9.19248e-05
9.16004e-05
9.12967e-05
9.10156e-05
9.07583e-05
9.05254e-05
9.03171e-05
9.0133e-05
8.99726e-05
8.98349e-05
8.9719e-05
8.96236e-05
8.95475e-05
8.94893e-05
8.94476e-05
8.94212e-05
8.94086e-05
8.85557e-05
8.83863e-05
8.81522e-05
8.78692e-05
8.7551e-05
8.72097e-05
8.68558e-05
8.64981e-05
8.61438e-05
8.5799e-05
8.54682e-05
8.51551e-05
8.48623e-05
8.45916e-05
8.4344e-05
8.41201e-05
8.392e-05
8.37433e-05
8.35894e-05
8.34574e-05
8.33462e-05
8.32548e-05
8.31819e-05
8.31262e-05
8.30863e-05
8.3061e-05
8.30489e-05
8.22061e-05
8.20461e-05
8.18251e-05
8.15579e-05
8.12577e-05
8.09359e-05
8.06024e-05
8.02655e-05
7.9932e-05
7.96076e-05
7.92965e-05
7.90022e-05
7.87271e-05
7.84728e-05
7.82404e-05
7.80303e-05
7.78425e-05
7.76767e-05
7.75323e-05
7.74085e-05
7.73043e-05
7.72187e-05
7.71503e-05
7.7098e-05
7.70606e-05
7.70369e-05
7.70256e-05
7.62174e-05
7.60688e-05
7.58636e-05
7.56156e-05
7.5337e-05
7.50384e-05
7.47289e-05
7.44163e-05
7.4107e-05
7.38062e-05
7.35178e-05
7.32449e-05
7.29899e-05
7.27542e-05
7.25388e-05
7.23441e-05
7.21701e-05
7.20165e-05
7.18828e-05
7.17681e-05
7.16715e-05
7.15922e-05
7.15288e-05
7.14804e-05
7.14458e-05
7.14238e-05
7.14133e-05
7.06577e-05
7.05209e-05
7.0332e-05
7.01037e-05
6.98472e-05
6.95723e-05
6.92874e-05
6.89997e-05
6.8715e-05
6.8438e-05
6.81726e-05
6.79215e-05
6.76868e-05
6.74699e-05
6.72716e-05
6.70924e-05
6.69323e-05
6.67909e-05
6.66679e-05
6.65623e-05
6.64735e-05
6.64004e-05
6.63421e-05
6.62976e-05
6.62657e-05
6.62455e-05
6.62359e-05
6.55422e-05
6.54168e-05
6.52435e-05
6.50342e-05
6.4799e-05
6.45469e-05
6.42857e-05
6.40219e-05
6.37608e-05
6.35069e-05
6.32635e-05
6.30332e-05
6.2818e-05
6.26191e-05
6.24373e-05
6.2273e-05
6.21262e-05
6.19966e-05
6.18838e-05
6.1787e-05
6.17055e-05
6.16386e-05
6.15851e-05
6.15443e-05
6.15151e-05
6.14965e-05
6.14877e-05
6.08584e-05
6.07436e-05
6.0585e-05
6.03934e-05
6.01781e-05
5.99474e-05
5.97084e-05
5.94669e-05
5.9228e-05
5.89955e-05
5.87728e-05
5.8562e-05
5.8365e-05
5.8183e-05
5.80166e-05
5.78662e-05
5.77319e-05
5.76133e-05
5.751e-05
5.74214e-05
5.73469e-05
5.72856e-05
5.72367e-05
5.71993e-05
5.71726e-05
5.71556e-05
5.71475e-05
5.65806e-05
5.64756e-05
5.63306e-05
5.61553e-05
5.59584e-05
5.57474e-05
5.55287e-05
5.53079e-05
5.50893e-05
5.48767e-05
5.4673e-05
5.44802e-05
5.43e-05
5.41336e-05
5.39814e-05
5.38439e-05
5.3721e-05
5.36125e-05
5.3518e-05
5.3437e-05
5.33689e-05
5.33128e-05
5.32681e-05
5.32339e-05
5.32095e-05
5.3194e-05
5.31866e-05
5.26777e-05
5.25816e-05
5.2449e-05
5.22887e-05
5.21086e-05
5.19156e-05
5.17156e-05
5.15135e-05
5.13136e-05
5.11192e-05
5.09328e-05
5.07566e-05
5.05918e-05
5.04395e-05
5.03004e-05
5.01746e-05
5.00622e-05
4.9963e-05
4.98766e-05
4.98026e-05
4.97402e-05
4.9689e-05
4.96481e-05
4.96169e-05
4.95945e-05
4.95803e-05
4.95736e-05
4.91172e-05
4.90293e-05
4.8908e-05
4.87613e-05
4.85965e-05
4.84199e-05
4.82369e-05
4.8052e-05
4.78691e-05
4.76912e-05
4.75207e-05
4.73594e-05
4.72086e-05
4.70693e-05
4.6942e-05
4.68269e-05
4.67241e-05
4.66333e-05
4.65543e-05
4.64866e-05
4.64296e-05
4.63827e-05
4.63453e-05
4.63167e-05
4.62963e-05
4.62833e-05
4.62771e-05
4.58678e-05
4.57873e-05
4.56762e-05
4.55418e-05
4.5391e-05
4.52292e-05
4.50617e-05
4.48924e-05
4.47249e-05
4.4562e-05
4.44059e-05
4.42582e-05
4.41202e-05
4.39927e-05
4.38761e-05
4.37708e-05
4.36766e-05
4.35936e-05
4.35212e-05
4.34592e-05
4.3407e-05
4.33641e-05
4.33299e-05
4.33037e-05
4.3285e-05
4.32731e-05
4.32675e-05
4.28998e-05
4.28261e-05
4.27242e-05
4.26011e-05
4.24628e-05
4.23147e-05
4.21611e-05
4.2006e-05
4.18525e-05
4.17033e-05
4.15602e-05
4.14249e-05
4.12984e-05
4.11815e-05
4.10747e-05
4.09782e-05
4.0892e-05
4.08159e-05
4.07496e-05
4.06928e-05
4.0645e-05
4.06056e-05
4.05743e-05
4.05503e-05
4.05332e-05
4.05223e-05
4.05171e-05
4.01862e-05
4.01186e-05
4.00252e-05
3.99123e-05
3.97854e-05
3.96495e-05
3.95087e-05
3.93664e-05
3.92256e-05
3.90887e-05
3.89575e-05
3.88334e-05
3.87174e-05
3.86102e-05
3.85123e-05
3.84237e-05
3.83446e-05
3.82748e-05
3.82141e-05
3.8162e-05
3.81181e-05
3.80821e-05
3.80533e-05
3.80313e-05
3.80156e-05
3.80056e-05
3.80009e-05
3.77025e-05
3.76404e-05
3.75546e-05
3.7451e-05
3.73345e-05
3.72097e-05
3.70804e-05
3.69498e-05
3.68206e-05
3.66949e-05
3.65744e-05
3.64604e-05
3.63539e-05
3.62555e-05
3.61656e-05
3.60843e-05
3.60117e-05
3.59477e-05
3.58919e-05
3.5844e-05
3.58038e-05
3.57707e-05
3.57443e-05
3.57241e-05
3.57097e-05
3.57005e-05
3.56962e-05
3.54264e-05
3.53694e-05
3.52906e-05
3.51953e-05
3.50883e-05
3.49736e-05
3.48547e-05
3.47347e-05
3.46159e-05
3.45004e-05
3.43897e-05
3.4285e-05
3.41871e-05
3.40967e-05
3.4014e-05
3.39394e-05
3.38726e-05
3.38137e-05
3.37625e-05
3.37185e-05
3.36815e-05
3.36511e-05
3.36269e-05
3.36083e-05
3.35951e-05
3.35867e-05
3.35827e-05
3.33383e-05
3.32858e-05
3.32133e-05
3.31257e-05
3.30272e-05
3.29217e-05
3.28124e-05
3.2702e-05
3.25927e-05
3.24865e-05
3.23846e-05
3.22883e-05
3.21983e-05
3.21151e-05
3.2039e-05
3.19703e-05
3.1909e-05
3.18548e-05
3.18076e-05
3.17672e-05
3.17332e-05
3.17052e-05
3.16829e-05
3.16658e-05
3.16536e-05
3.16459e-05
3.16422e-05
3.14205e-05
3.13721e-05
3.13054e-05
3.12247e-05
3.1134e-05
3.10369e-05
3.09362e-05
3.08345e-05
3.07339e-05
3.06361e-05
3.05423e-05
3.04536e-05
3.03707e-05
3.02941e-05
3.02241e-05
3.01608e-05
3.01043e-05
3.00544e-05
3.0011e-05
2.99738e-05
2.99424e-05
2.99167e-05
2.98961e-05
2.98804e-05
2.98692e-05
2.98621e-05
2.98587e-05
2.96571e-05
2.96125e-05
2.9551e-05
2.94766e-05
2.93931e-05
2.93035e-05
2.92108e-05
2.91171e-05
2.90243e-05
2.89342e-05
2.88477e-05
2.8766e-05
2.86896e-05
2.8619e-05
2.85545e-05
2.84961e-05
2.84441e-05
2.83981e-05
2.83581e-05
2.83238e-05
2.82949e-05
2.82711e-05
2.82522e-05
2.82377e-05
2.82274e-05
2.82208e-05
2.82177e-05
2.80341e-05
2.7993e-05
2.79362e-05
2.78676e-05
2.77906e-05
2.7708e-05
2.76224e-05
2.7536e-05
2.74505e-05
2.73673e-05
2.72876e-05
2.72122e-05
2.71417e-05
2.70766e-05
2.7017e-05
2.69633e-05
2.69152e-05
2.68728e-05
2.68359e-05
2.68043e-05
2.67776e-05
2.67557e-05
2.67383e-05
2.67249e-05
2.67154e-05
2.67093e-05
2.67065e-05
2.6539e-05
2.6501e-05
2.64487e-05
2.63854e-05
2.63142e-05
2.6238e-05
2.6159e-05
2.60792e-05
2.60003e-05
2.59235e-05
2.58499e-05
2.57803e-05
2.57152e-05
2.56551e-05
2.56002e-05
2.55506e-05
2.55062e-05
2.54671e-05
2.5433e-05
2.54038e-05
2.53792e-05
2.5359e-05
2.53429e-05
2.53306e-05
2.53217e-05
2.53162e-05
2.53135e-05
2.51606e-05
2.51256e-05
2.50772e-05
2.50187e-05
2.4953e-05
2.48826e-05
2.48096e-05
2.47359e-05
2.4663e-05
2.45921e-05
2.45241e-05
2.44598e-05
2.43997e-05
2.43442e-05
2.42935e-05
2.42476e-05
2.42067e-05
2.41705e-05
2.4139e-05
2.41121e-05
2.40894e-05
2.40707e-05
2.40558e-05
2.40444e-05
2.40363e-05
2.40311e-05
2.40287e-05
2.3889e-05
2.38566e-05
2.38119e-05
2.37578e-05
2.36971e-05
2.3632e-05
2.35646e-05
2.34965e-05
2.34291e-05
2.33636e-05
2.33008e-05
2.32413e-05
2.31858e-05
2.31345e-05
2.30876e-05
2.30452e-05
2.30074e-05
2.2974e-05
2.29449e-05
2.292e-05
2.2899e-05
2.28817e-05
2.2868e-05
2.28575e-05
2.285e-05
2.28452e-05
2.28429e-05
2.27152e-05
2.26852e-05
2.26439e-05
2.25939e-05
2.25378e-05
2.24776e-05
2.24153e-05
2.23523e-05
2.229e-05
2.22294e-05
2.21714e-05
2.21164e-05
2.20651e-05
2.20177e-05
2.19743e-05
2.19351e-05
2.19001e-05
2.18693e-05
2.18424e-05
2.18193e-05
2.17999e-05
2.1784e-05
2.17713e-05
2.17615e-05
2.17546e-05
2.17502e-05
2.17481e-05
2.16312e-05
2.16036e-05
2.15653e-05
2.15191e-05
2.14672e-05
2.14116e-05
2.13539e-05
2.12957e-05
2.12381e-05
2.11821e-05
2.11284e-05
2.10776e-05
2.10301e-05
2.09862e-05
2.09461e-05
2.09099e-05
2.08776e-05
2.0849e-05
2.08241e-05
2.08028e-05
2.07849e-05
2.07701e-05
2.07584e-05
2.07494e-05
2.0743e-05
2.07389e-05
2.0737e-05
2.06301e-05
2.06045e-05
2.05691e-05
2.05264e-05
2.04784e-05
2.04269e-05
2.03736e-05
2.03197e-05
2.02665e-05
2.02146e-05
2.0165e-05
2.0118e-05
2.00741e-05
2.00335e-05
1.99965e-05
1.9963e-05
1.9933e-05
1.99066e-05
1.98836e-05
1.98639e-05
1.98473e-05
1.98337e-05
1.98228e-05
1.98145e-05
1.98086e-05
1.98048e-05
1.9803e-05
1.97053e-05
1.96816e-05
1.96489e-05
1.96094e-05
1.9565e-05
1.95174e-05
1.94681e-05
1.94183e-05
1.9369e-05
1.93211e-05
1.92751e-05
1.92317e-05
1.91911e-05
1.91536e-05
1.91193e-05
1.90883e-05
1.90607e-05
1.90362e-05
1.9015e-05
1.89968e-05
1.89814e-05
1.89688e-05
1.89588e-05
1.89511e-05
1.89456e-05
1.89421e-05
1.89405e-05
1.88511e-05
1.88292e-05
1.8799e-05
1.87624e-05
1.87214e-05
1.86774e-05
1.86318e-05
1.85858e-05
1.85402e-05
1.84959e-05
1.84534e-05
1.84133e-05
1.83757e-05
1.83411e-05
1.83094e-05
1.82807e-05
1.82552e-05
1.82326e-05
1.82129e-05
1.81961e-05
1.81819e-05
1.81703e-05
1.8161e-05
1.81539e-05
1.81488e-05
1.81456e-05
1.8144e-05
1.80625e-05
1.80423e-05
1.80143e-05
1.79805e-05
1.79426e-05
1.79019e-05
1.78598e-05
1.78172e-05
1.77751e-05
1.77342e-05
1.7695e-05
1.76578e-05
1.76232e-05
1.75911e-05
1.75618e-05
1.75354e-05
1.75118e-05
1.74909e-05
1.74727e-05
1.74572e-05
1.74441e-05
1.74333e-05
1.74247e-05
1.74182e-05
1.74135e-05
1.74105e-05
1.74091e-05
1.73347e-05
1.73161e-05
1.72902e-05
1.7259e-05
1.7224e-05
1.71865e-05
1.71475e-05
1.71082e-05
1.70694e-05
1.70316e-05
1.69953e-05
1.69611e-05
1.6929e-05
1.68995e-05
1.68724e-05
1.6848e-05
1.68262e-05
1.68069e-05
1.67902e-05
1.67758e-05
1.67637e-05
1.67538e-05
1.67459e-05
1.67398e-05
1.67355e-05
1.67327e-05
1.67314e-05
1.66638e-05
1.66465e-05
1.66227e-05
1.65939e-05
1.65616e-05
1.65269e-05
1.6491e-05
1.64548e-05
1.64189e-05
1.6384e-05
1.63506e-05
1.6319e-05
1.62895e-05
1.62622e-05
1.62373e-05
1.62147e-05
1.61946e-05
1.61768e-05
1.61614e-05
1.61481e-05
1.6137e-05
1.61278e-05
1.61205e-05
1.61149e-05
1.6111e-05
1.61084e-05
1.61072e-05
1.60458e-05
1.60299e-05
1.6008e-05
1.59814e-05
1.59516e-05
1.59197e-05
1.58866e-05
1.58532e-05
1.58202e-05
1.57881e-05
1.57573e-05
1.57282e-05
1.57009e-05
1.56758e-05
1.56528e-05
1.56321e-05
1.56136e-05
1.55972e-05
1.5583e-05
1.55708e-05
1.55605e-05
1.55521e-05
1.55454e-05
1.55402e-05
1.55365e-05
1.55342e-05
1.55331e-05
1.54775e-05
1.54629e-05
1.54427e-05
1.54183e-05
1.53909e-05
1.53615e-05
1.53311e-05
1.53004e-05
1.527e-05
1.52404e-05
1.52121e-05
1.51853e-05
1.51603e-05
1.51372e-05
1.51161e-05
1.5097e-05
1.508e-05
1.50649e-05
1.50518e-05
1.50406e-05
1.50312e-05
1.50234e-05
1.50172e-05
1.50125e-05
1.50091e-05
1.5007e-05
1.5006e-05
1.49559e-05
1.49425e-05
1.49239e-05
1.49015e-05
1.48763e-05
1.48494e-05
1.48214e-05
1.47932e-05
1.47653e-05
1.47382e-05
1.47122e-05
1.46876e-05
1.46647e-05
1.46435e-05
1.46241e-05
1.46066e-05
1.45909e-05
1.45771e-05
1.45651e-05
1.45549e-05
1.45462e-05
1.45391e-05
1.45334e-05
1.45291e-05
1.4526e-05
1.4524e-05
1.45231e-05
1.44782e-05
1.44659e-05
1.44489e-05
1.44283e-05
1.44053e-05
1.43806e-05
1.4355e-05
1.43291e-05
1.43036e-05
1.42788e-05
1.4255e-05
1.42325e-05
1.42114e-05
1.4192e-05
1.41743e-05
1.41583e-05
1.4144e-05
1.41313e-05
1.41204e-05
1.41109e-05
1.4103e-05
1.40965e-05
1.40913e-05
1.40874e-05
1.40845e-05
1.40827e-05
1.40819e-05
1.40418e-05
1.40306e-05
1.4015e-05
1.39963e-05
1.39752e-05
1.39527e-05
1.39293e-05
1.39057e-05
1.38824e-05
1.38597e-05
1.3838e-05
1.38174e-05
1.37983e-05
1.37805e-05
1.37644e-05
1.37497e-05
1.37367e-05
1.37252e-05
1.37151e-05
1.37066e-05
1.36993e-05
1.36934e-05
1.36887e-05
1.3685e-05
1.36825e-05
1.36808e-05
1.368e-05
1.36446e-05
1.36343e-05
1.36202e-05
1.36031e-05
1.35839e-05
1.35634e-05
1.35421e-05
1.35207e-05
1.34994e-05
1.34788e-05
1.3459e-05
1.34403e-05
1.34229e-05
1.34068e-05
1.33921e-05
1.33788e-05
1.33669e-05
1.33564e-05
1.33473e-05
1.33395e-05
1.33329e-05
1.33275e-05
1.33232e-05
1.332e-05
1.33176e-05
1.33161e-05
1.33154e-05
1.32842e-05
1.32749e-05
1.32621e-05
1.32466e-05
1.32292e-05
1.32106e-05
1.31913e-05
1.31719e-05
1.31526e-05
1.31339e-05
1.3116e-05
1.30991e-05
1.30833e-05
1.30687e-05
1.30553e-05
1.30433e-05
1.30325e-05
1.30231e-05
1.30148e-05
1.30077e-05
1.30018e-05
1.29969e-05
1.2993e-05
1.299e-05
1.29879e-05
1.29866e-05
1.29859e-05
1.29588e-05
1.29504e-05
1.29388e-05
1.29248e-05
1.29091e-05
1.28923e-05
1.28749e-05
1.28573e-05
1.284e-05
1.28231e-05
1.28069e-05
1.27917e-05
1.27774e-05
1.27642e-05
1.27522e-05
1.27413e-05
1.27316e-05
1.27231e-05
1.27157e-05
1.27093e-05
1.27039e-05
1.26995e-05
1.2696e-05
1.26933e-05
1.26914e-05
1.26902e-05
1.26896e-05
1.26663e-05
1.26588e-05
1.26483e-05
1.26358e-05
1.26217e-05
1.26065e-05
1.25909e-05
1.25751e-05
1.25595e-05
1.25443e-05
1.25298e-05
1.25161e-05
1.25033e-05
1.24915e-05
1.24807e-05
1.24709e-05
1.24622e-05
1.24546e-05
1.24479e-05
1.24422e-05
1.24374e-05
1.24334e-05
1.24303e-05
1.24279e-05
1.24261e-05
1.2425e-05
1.24245e-05
1.24048e-05
1.2398e-05
1.23887e-05
1.23775e-05
1.23648e-05
1.23513e-05
1.23373e-05
1.23232e-05
1.23093e-05
1.22957e-05
1.22828e-05
1.22705e-05
1.22591e-05
1.22485e-05
1.22389e-05
1.22302e-05
1.22224e-05
1.22155e-05
1.22096e-05
1.22045e-05
1.22002e-05
1.21967e-05
1.21938e-05
1.21917e-05
1.21902e-05
1.21892e-05
1.21887e-05
1.21722e-05
1.21662e-05
1.21579e-05
1.21479e-05
1.21367e-05
1.21247e-05
1.21123e-05
1.20997e-05
1.20873e-05
1.20753e-05
1.20637e-05
1.20528e-05
1.20427e-05
1.20333e-05
1.20247e-05
1.2017e-05
1.20101e-05
1.2004e-05
1.19987e-05
1.19942e-05
1.19904e-05
1.19872e-05
1.19847e-05
1.19828e-05
1.19815e-05
1.19806e-05
1.19802e-05
1.19667e-05
1.19614e-05
1.19541e-05
1.19452e-05
1.19353e-05
1.19246e-05
1.19136e-05
1.19025e-05
1.18916e-05
1.18809e-05
1.18707e-05
1.18611e-05
1.18521e-05
1.18438e-05
1.18363e-05
1.18294e-05
1.18233e-05
1.18179e-05
1.18133e-05
1.18093e-05
1.18059e-05
1.18031e-05
1.18009e-05
1.17992e-05
1.1798e-05
1.17973e-05
1.17969e-05
1.17862e-05
1.17815e-05
1.1775e-05
1.17672e-05
1.17585e-05
1.17491e-05
1.17394e-05
1.17297e-05
1.172e-05
1.17107e-05
1.17017e-05
1.16932e-05
1.16853e-05
1.1678e-05
1.16714e-05
1.16654e-05
1.166e-05
1.16553e-05
1.16511e-05
1.16476e-05
1.16447e-05
1.16422e-05
1.16403e-05
1.16388e-05
1.16377e-05
1.16371e-05
1.16367e-05
1.16285e-05
1.16244e-05
1.16187e-05
1.16119e-05
1.16042e-05
1.1596e-05
1.15876e-05
1.1579e-05
1.15706e-05
1.15624e-05
1.15545e-05
1.15471e-05
1.15402e-05
1.15338e-05
1.1528e-05
1.15227e-05
1.1518e-05
1.15139e-05
1.15103e-05
1.15072e-05
1.15046e-05
1.15025e-05
1.15008e-05
1.14995e-05
1.14985e-05
1.1498e-05
1.14977e-05
1.14916e-05
1.1488e-05
1.14831e-05
1.14771e-05
1.14705e-05
1.14633e-05
1.1456e-05
1.14485e-05
1.14412e-05
1.1434e-05
1.14272e-05
1.14207e-05
1.14147e-05
1.14092e-05
1.14041e-05
1.13995e-05
1.13954e-05
1.13918e-05
1.13887e-05
1.1386e-05
1.13838e-05
1.13819e-05
1.13804e-05
1.13793e-05
1.13785e-05
1.1378e-05
1.13777e-05
1.13735e-05
1.13705e-05
1.13662e-05
1.13611e-05
1.13553e-05
1.13491e-05
1.13427e-05
1.13363e-05
1.13299e-05
1.13238e-05
1.13178e-05
1.13123e-05
1.13071e-05
1.13023e-05
1.12979e-05
1.12939e-05
1.12904e-05
1.12873e-05
1.12846e-05
1.12822e-05
1.12803e-05
1.12787e-05
1.12774e-05
1.12764e-05
1.12757e-05
1.12753e-05
1.12751e-05
1.12725e-05
1.12699e-05
1.12662e-05
1.12618e-05
1.12569e-05
1.12516e-05
1.12461e-05
1.12406e-05
1.12351e-05
1.12298e-05
1.12247e-05
1.12199e-05
1.12155e-05
1.12114e-05
1.12076e-05
1.12042e-05
1.12012e-05
1.11985e-05
1.11962e-05
1.11942e-05
1.11925e-05
1.11911e-05
1.119e-05
1.11892e-05
1.11886e-05
1.11882e-05
1.1188e-05
1.11869e-05
1.11846e-05
1.11815e-05
1.11777e-05
1.11735e-05
1.1169e-05
1.11644e-05
1.11597e-05
1.1155e-05
1.11505e-05
1.11462e-05
1.11422e-05
1.11384e-05
1.11349e-05
1.11317e-05
1.11288e-05
1.11262e-05
1.1124e-05
1.1122e-05
1.11203e-05
1.11189e-05
1.11177e-05
1.11168e-05
1.11161e-05
1.11156e-05
1.11152e-05
1.11151e-05
1.1115e-05
1.11131e-05
1.11105e-05
1.11073e-05
1.11038e-05
1.11e-05
1.10961e-05
1.10921e-05
1.10883e-05
1.10845e-05
1.10809e-05
1.10775e-05
1.10743e-05
1.10713e-05
1.10687e-05
1.10663e-05
1.10641e-05
1.10622e-05
1.10606e-05
1.10591e-05
1.1058e-05
1.1057e-05
1.10562e-05
1.10556e-05
1.10552e-05
1.10549e-05
1.10548e-05
1.10556e-05
1.1054e-05
1.10518e-05
1.10492e-05
1.10463e-05
1.10431e-05
1.10399e-05
1.10367e-05
1.10334e-05
1.10303e-05
1.10273e-05
1.10245e-05
1.10219e-05
1.10195e-05
1.10173e-05
1.10153e-05
1.10136e-05
1.1012e-05
1.10106e-05