/*--------------------------------*- C++ -*----------------------------------*\
| =========                 |                                                 |
| \\      /  F ield         | OpenFOAM: The Open Source CFD Toolbox           |
|  \\    /   O peration     | Version:  2106                                  |
|   \\  /    A nd           | Website:  www.openfoam.com                      |
|    \\/     M anipulation  |                                                 |
\*---------------------------------------------------------------------------*/
FoamFile
{
    version     2.0;
    format      ascii;
    arch        "LSB;label=32;scalar=64";
    class       volScalarField;
    location    "160.00011";
    object      C6H5;
}
// * * * * * * * * * * * * * * * * * * * * * * * * * * * * * * * * * * * * * //

dimensions      [0 0 0 0 0 0 0];

internalField   nonuniform List<scalar> 
3360
(
1.43638e-21
1.48262e-21
1.54696e-21
1.62566e-21
1.71545e-21
1.81337e-21
1.91676e-21
2.02323e-21
2.13064e-21
2.23709e-21
2.34096e-21
2.44085e-21
2.53561e-21
2.62434e-21
2.70634e-21
2.78111e-21
2.84837e-21
2.90799e-21
2.95998e-21
3.00451e-21
3.04183e-21
3.07232e-21
3.0964e-21
3.11457e-21
3.12734e-21
3.13529e-21
3.13898e-21
6.30253e-21
6.53426e-21
6.86125e-21
7.26847e-21
7.74343e-21
8.27527e-21
8.85425e-21
9.47148e-21
1.01187e-20
1.07881e-20
1.14721e-20
1.21634e-20
1.28549e-20
1.35394e-20
1.42099e-20
1.48596e-20
1.54817e-20
1.60697e-20
1.66174e-20
1.71188e-20
1.75686e-20
1.7962e-20
1.82949e-20
1.85642e-20
1.87675e-20
1.89032e-20
1.89709e-20
1.97822e-20
2.06507e-20
2.18848e-20
2.34356e-20
2.52624e-20
2.73287e-20
2.95997e-20
3.20414e-20
3.4619e-20
3.72972e-20
4.00399e-20
4.28113e-20
4.55756e-20
4.8298e-20
5.09444e-20
5.34826e-20
5.58829e-20
5.81185e-20
6.01661e-20
6.20066e-20
6.36251e-20
6.5011e-20
6.61583e-20
6.70652e-20
6.77337e-20
6.81697e-20
6.8382e-20
5.76394e-20
6.05034e-20
6.46003e-20
6.97837e-20
7.59311e-20
8.29279e-20
9.06591e-20
9.90061e-20
1.07844e-19
1.17041e-19
1.26463e-19
1.35972e-19
1.45429e-19
1.54703e-19
1.63667e-19
1.72205e-19
1.80212e-19
1.87603e-19
1.94307e-19
2.00271e-19
2.0546e-19
2.09856e-19
2.13456e-19
2.16272e-19
2.18327e-19
2.19654e-19
2.20294e-19
1.68495e-19
1.77535e-19
1.90491e-19
2.06922e-19
2.2645e-19
2.48717e-19
2.73351e-19
2.99957e-19
3.28119e-19
3.57393e-19
3.87322e-19
4.17446e-19
4.47313e-19
4.7649e-19
5.04579e-19
5.31221e-19
5.56107e-19
5.78982e-19
5.99648e-19
6.17965e-19
6.33845e-19
6.47254e-19
6.58202e-19
6.66742e-19
6.72957e-19
6.76961e-19
6.78889e-19
4.9712e-19
5.24898e-19
5.64761e-19
6.15357e-19
6.75528e-19
7.44154e-19
8.20074e-19
9.02053e-19
9.88771e-19
1.07884e-18
1.17083e-18
1.2633e-18
1.35484e-18
1.44412e-18
1.52993e-18
1.61117e-18
1.68691e-18
1.75641e-18
1.81908e-18
1.87453e-18
1.92253e-18
1.96299e-18
1.99598e-18
2.02167e-18
2.04034e-18
2.05236e-18
2.05814e-18
1.47764e-18
1.5621e-18
1.6833e-18
1.83714e-18
2.02008e-18
2.22868e-18
2.45935e-18
2.7083e-18
2.97145e-18
3.24454e-18
3.52319e-18
3.80303e-18
4.0798e-18
4.34948e-18
4.60841e-18
4.85334e-18
5.08153e-18
5.29074e-18
5.47928e-18
5.646e-18
5.79024e-18
5.91178e-18
6.01084e-18
6.08797e-18
6.14403e-18
6.18009e-18
6.19743e-18
4.40683e-18
4.66114e-18
5.02626e-18
5.48986e-18
6.04131e-18
6.6702e-18
7.36569e-18
8.1162e-18
8.90942e-18
9.73241e-18
1.05719e-17
1.14147e-17
1.22479e-17
1.30595e-17
1.38384e-17
1.45748e-17
1.52606e-17
1.58891e-17
1.64552e-17
1.69556e-17
1.73883e-17
1.77528e-17
1.80498e-17
1.82809e-17
1.84488e-17
1.85568e-17
1.86087e-17
1.31777e-17
1.39425e-17
1.50403e-17
1.64341e-17
1.80918e-17
1.99819e-17
2.20718e-17
2.43263e-17
2.67084e-17
2.9179e-17
3.16983e-17
3.42266e-17
3.67254e-17
3.91584e-17
4.14927e-17
4.36993e-17
4.57537e-17
4.7636e-17
4.93314e-17
5.08297e-17
5.21252e-17
5.32164e-17
5.41053e-17
5.47972e-17
5.52999e-17
5.56231e-17
5.57785e-17
3.94084e-17
4.17006e-17
4.49916e-17
4.91701e-17
5.41399e-17
5.98064e-17
6.60714e-17
7.28296e-17
7.99693e-17
8.73735e-17
9.49226e-17
1.02497e-16
1.09982e-16
1.17268e-16
1.24258e-16
1.30863e-16
1.37011e-16
1.42643e-16
1.47715e-16
1.52195e-16
1.56069e-16
1.59331e-16
1.61987e-16
1.64055e-16
1.65556e-16
1.66522e-16
1.66986e-16
1.17914e-16
1.24781e-16
1.34638e-16
1.47151e-16
1.62031e-16
1.78992e-16
1.9774e-16
2.17958e-16
2.39311e-16
2.61447e-16
2.8401e-16
3.06642e-16
3.28998e-16
3.50755e-16
3.7162e-16
3.91333e-16
4.09678e-16
4.26478e-16
4.41604e-16
4.54966e-16
4.66516e-16
4.7624e-16
4.8416e-16
4.90322e-16
4.94797e-16
4.97675e-16
4.99058e-16
3.52492e-16
3.73011e-16
4.02462e-16
4.39843e-16
4.84285e-16
5.34934e-16
5.909e-16
6.51238e-16
7.14942e-16
7.80963e-16
8.48229e-16
9.15677e-16
9.82279e-16
1.04707e-15
1.10918e-15
1.16785e-15
1.22242e-15
1.27238e-15
1.31734e-15
1.35705e-15
1.39136e-15
1.42024e-15
1.44375e-15
1.46204e-15
1.47532e-15
1.48386e-15
1.48796e-15
1.0527e-15
1.1139e-15
1.20171e-15
1.31312e-15
1.4455e-15
1.5963e-15
1.76283e-15
1.94225e-15
2.13157e-15
2.32764e-15
2.52728e-15
2.72733e-15
2.92474e-15
3.11668e-15
3.30056e-15
3.47414e-15
3.63552e-15
3.78319e-15
3.91604e-15
4.03331e-15
4.1346e-15
4.21982e-15
4.28919e-15
4.34314e-15
4.3823e-15
4.40747e-15
4.41955e-15
3.13536e-15
3.31703e-15
3.5776e-15
3.90802e-15
4.30044e-15
4.74711e-15
5.24002e-15
5.77067e-15
6.33009e-15
6.90895e-15
7.49782e-15
8.08735e-15
8.66858e-15
9.23317e-15
9.77359e-15
1.02833e-14
1.07567e-14
1.11897e-14
1.15788e-14
1.19221e-14
1.22184e-14
1.24675e-14
1.26702e-14
1.28277e-14
1.2942e-14
1.30155e-14
1.30507e-14
9.30852e-15
9.84447e-15
1.06126e-14
1.15859e-14
1.27406e-14
1.40535e-14
1.55004e-14
1.7056e-14
1.86937e-14
2.03859e-14
2.21048e-14
2.38232e-14
2.5515e-14
2.71561e-14
2.87248e-14
3.02024e-14
3.15734e-14
3.28255e-14
3.39498e-14
3.49406e-14
3.5795e-14
3.6513e-14
3.70965e-14
3.75498e-14
3.78785e-14
3.80895e-14
3.81908e-14
2.74991e-14
2.90623e-14
3.13006e-14
3.41331e-14
3.74886e-14
4.12973e-14
4.54873e-14
4.99836e-14
5.47075e-14
5.95788e-14
6.4517e-14
6.94436e-14
7.42841e-14
7.89703e-14
8.34413e-14
8.76449e-14
9.15382e-14
9.50881e-14
9.82707e-14
1.01071e-13
1.03483e-13
1.05507e-13
1.0715e-13
1.08425e-13
1.09349e-13
1.09941e-13
1.10225e-13
8.07757e-14
8.52568e-14
9.16631e-14
9.97532e-14
1.09314e-13
1.20136e-13
1.32008e-13
1.44707e-13
1.58008e-13
1.71679e-13
1.85494e-13
1.99232e-13
2.12689e-13
2.25677e-13
2.38032e-13
2.49617e-13
2.60319e-13
2.70053e-13
2.7876e-13
2.86405e-13
2.92977e-13
2.98482e-13
3.02944e-13
3.06401e-13
3.08903e-13
3.10506e-13
3.11274e-13
2.35757e-13
2.48249e-13
2.66059e-13
2.88471e-13
3.14845e-13
3.44561e-13
3.76993e-13
4.11504e-13
4.47451e-13
4.84197e-13
5.21123e-13
5.57647e-13
5.93233e-13
6.27405e-13
6.59756e-13
6.89947e-13
7.17717e-13
7.42873e-13
7.65291e-13
7.84908e-13
8.01716e-13
8.15757e-13
8.2711e-13
8.35888e-13
8.42226e-13
8.46281e-13
8.48221e-13
6.83407e-13
7.16718e-13
7.63969e-13
8.2303e-13
8.91983e-13
9.68979e-13
1.0522e-12
1.13984e-12
1.23016e-12
1.32148e-12
1.41225e-12
1.50105e-12
1.58663e-12
1.66796e-12
1.74417e-12
1.81461e-12
1.8788e-12
1.93645e-12
1.98741e-12
2.03168e-12
2.06935e-12
2.10063e-12
2.12578e-12
2.14514e-12
2.15905e-12
2.16793e-12
2.17216e-12
1.96048e-12
2.04305e-12
2.15903e-12
2.3021e-12
2.46649e-12
2.64671e-12
2.83754e-12
3.03406e-12
3.23179e-12
3.4267e-12
3.61536e-12
3.79495e-12
3.96325e-12
4.11869e-12
4.26023e-12
4.38735e-12
4.49996e-12
4.59832e-12
4.68293e-12
4.75453e-12
4.81396e-12
4.86215e-12
4.90004e-12
4.9286e-12
4.94876e-12
4.96139e-12
4.96733e-12
5.47889e-12
5.65874e-12
5.90643e-12
6.20387e-12
6.53426e-12
6.88199e-12
7.23294e-12
7.57479e-12
7.89739e-12
8.19285e-12
8.45568e-12
8.68266e-12
8.87263e-12
9.02625e-12
9.14559e-12
9.23381e-12
9.29476e-12
9.33273e-12
9.35211e-12
9.3572e-12
9.35204e-12
9.3403e-12
9.3252e-12
9.30948e-12
9.29543e-12
9.28482e-12
9.27903e-12
1.42573e-11
1.45535e-11
1.49436e-11
1.53828e-11
1.58298e-11
1.62482e-11
1.66082e-11
1.68877e-11
1.70726e-11
1.71567e-11
1.71408e-11
1.70313e-11
1.68393e-11
1.65784e-11
1.62643e-11
1.59128e-11
1.55392e-11
1.51579e-11
1.47819e-11
1.44225e-11
1.40891e-11
1.37899e-11
1.35314e-11
1.33187e-11
1.31557e-11
1.30454e-11
1.29897e-11
3.15324e-11
3.17115e-11
3.18912e-11
3.2001e-11
3.19817e-11
3.17909e-11
3.14063e-11
3.08254e-11
3.00623e-11
2.9144e-11
2.81045e-11
2.69811e-11
2.58103e-11
2.46253e-11
2.34543e-11
2.23205e-11
2.12421e-11
2.0233e-11
1.93034e-11
1.84609e-11
1.77115e-11
1.70594e-11
1.65086e-11
1.60621e-11
1.57231e-11
1.54943e-11
1.53787e-11
5.31335e-11
5.26355e-11
5.18587e-11
5.07906e-11
4.94362e-11
4.78236e-11
4.59997e-11
4.40238e-11
4.19583e-11
3.9862e-11
3.77851e-11
3.57672e-11
3.38374e-11
3.20151e-11
3.03126e-11
2.87362e-11
2.7289e-11
2.59715e-11
2.47834e-11
2.37239e-11
2.27927e-11
2.19898e-11
2.13158e-11
2.07722e-11
2.03608e-11
2.0084e-11
1.99443e-11
7.0983e-11
6.99582e-11
6.85012e-11
6.66861e-11
6.45902e-11
6.22941e-11
5.98757e-11
5.74053e-11
5.49415e-11
5.25299e-11
5.02036e-11
4.79845e-11
4.58864e-11
4.39166e-11
4.20787e-11
4.0374e-11
3.88025e-11
3.73644e-11
3.60602e-11
3.4891e-11
3.38583e-11
3.29647e-11
3.22128e-11
3.16057e-11
3.11463e-11
3.08377e-11
3.06823e-11
9.4126e-11
9.3306e-11
9.21427e-11
9.0694e-11
8.90162e-11
8.71641e-11
8.51881e-11
8.31324e-11
8.10347e-11
7.89261e-11
7.68328e-11
7.47758e-11
7.27704e-11
7.08302e-11
6.89678e-11
6.71946e-11
6.55209e-11
6.39569e-11
6.25122e-11
6.11962e-11
6.00183e-11
5.89872e-11
5.81115e-11
5.7399e-11
5.68568e-11
5.64908e-11
5.63059e-11
1.44608e-10
1.44795e-10
1.45001e-10
1.45175e-10
1.45279e-10
1.45289e-10
1.45195e-10
1.44995e-10
1.44693e-10
1.44296e-10
1.43811e-10
1.43246e-10
1.42607e-10
1.41903e-10
1.41142e-10
1.40334e-10
1.39492e-10
1.3863e-10
1.37765e-10
1.36915e-10
1.36101e-10
1.35342e-10
1.3466e-10
1.34077e-10
1.33612e-10
1.33286e-10
1.33115e-10
2.67464e-10
2.71338e-10
2.76757e-10
2.83433e-10
2.9113e-10
2.99655e-10
3.08843e-10
3.18551e-10
3.28648e-10
3.39006e-10
3.49501e-10
3.60005e-10
3.7039e-10
3.80528e-10
3.90296e-10
3.99576e-10
4.08262e-10
4.1626e-10
4.23494e-10
4.29907e-10
4.3546e-10
4.40135e-10
4.43932e-10
4.46871e-10
4.48989e-10
4.50336e-10
4.50974e-10
6.01573e-10
6.21006e-10
6.4904e-10
6.84944e-10
7.28219e-10
7.78486e-10
8.35411e-10
8.98646e-10
9.67778e-10
1.0423e-09
1.12162e-09
1.20498e-09
1.29146e-09
1.38e-09
1.46945e-09
1.55855e-09
1.64598e-09
1.73041e-09
1.81051e-09
1.88501e-09
1.95274e-09
2.01264e-09
2.06376e-09
2.1054e-09
2.13702e-09
2.15825e-09
2.16888e-09
1.61201e-09
1.69675e-09
1.82146e-09
1.98522e-09
2.18823e-09
2.43122e-09
2.71494e-09
3.03985e-09
3.40574e-09
3.81147e-09
4.25475e-09
4.73198e-09
5.23826e-09
5.76731e-09
6.31203e-09
6.86448e-09
7.41591e-09
7.95707e-09
8.47842e-09
8.97051e-09
9.42416e-09
9.83082e-09
1.01827e-08
1.04731e-08
1.06963e-08
1.08479e-08
1.09248e-08
4.95894e-09
5.29046e-09
5.78146e-09
6.43076e-09
7.24119e-09
8.21659e-09
9.36138e-09
1.06779e-08
1.21652e-08
1.38175e-08
1.56241e-08
1.75687e-08
1.96295e-08
2.17798e-08
2.39883e-08
2.62203e-08
2.84388e-08
3.06055e-08
3.26823e-08
3.4632e-08
3.64198e-08
3.8014e-08
3.93865e-08
4.05137e-08
4.13765e-08
4.19603e-08
4.2255e-08
1.59639e-08
1.70158e-08
1.85644e-08
2.05964e-08
2.31085e-08
2.60993e-08
2.95635e-08
3.34874e-08
3.7847e-08
4.26056e-08
4.77141e-08
5.31111e-08
5.87244e-08
6.44733e-08
7.02711e-08
7.60277e-08
8.16525e-08
8.70573e-08
9.21582e-08
9.68777e-08
1.01147e-07
1.04905e-07
1.08104e-07
1.107e-07
1.12661e-07
1.13965e-07
1.14613e-07
4.6758e-08
4.92718e-08
5.29192e-08
5.76143e-08
6.32898e-08
6.98793e-08
7.73083e-08
8.54888e-08
9.4317e-08
1.03674e-07
1.13428e-07
1.23438e-07
1.33554e-07
1.43627e-07
1.53505e-07
1.63044e-07
1.72093e-07
1.80535e-07
1.88292e-07
1.95305e-07
2.01515e-07
2.06878e-07
2.11364e-07
2.1495e-07
2.17627e-07
2.19399e-07
2.20274e-07
1.11945e-07
1.16232e-07
1.22345e-07
1.30039e-07
1.39097e-07
1.49311e-07
1.60467e-07
1.72348e-07
1.84726e-07
1.97354e-07
2.10013e-07
2.22558e-07
2.34845e-07
2.46727e-07
2.58081e-07
2.68794e-07
2.78775e-07
2.87945e-07
2.96247e-07
3.03636e-07
3.10086e-07
3.1558e-07
3.20115e-07
3.23698e-07
3.26344e-07
3.28076e-07
3.28924e-07
2.12287e-07
2.17336e-07
2.24417e-07
2.33142e-07
2.43163e-07
2.5416e-07
2.65839e-07
2.77928e-07
2.90183e-07
3.02388e-07
3.14356e-07
3.25931e-07
3.36984e-07
3.47411e-07
3.57135e-07
3.66098e-07
3.74262e-07
3.81605e-07
3.8812e-07
3.93809e-07
3.98685e-07
4.0277e-07
4.06088e-07
4.08672e-07
4.10554e-07
4.11771e-07
4.1236e-07
3.23604e-07
3.28034e-07
3.34154e-07
3.4155e-07
3.49853e-07
3.58735e-07
3.6791e-07
3.77137e-07
3.86213e-07
3.94979e-07
4.03311e-07
4.1112e-07
4.18344e-07
4.24947e-07
4.30914e-07
4.36246e-07
4.40956e-07
4.45066e-07
4.48607e-07
4.51611e-07
4.54115e-07
4.56157e-07
4.57772e-07
4.58999e-07
4.59871e-07
4.60422e-07
4.60682e-07
4.20353e-07
4.23091e-07
4.26806e-07
4.31188e-07
4.35962e-07
4.40895e-07
4.45795e-07
4.5051e-07
4.54929e-07
4.58974e-07
4.62601e-07
4.65787e-07
4.68534e-07
4.70856e-07
4.72779e-07
4.74339e-07
4.75573e-07
4.76525e-07
4.77234e-07
4.77742e-07
4.78086e-07
4.78303e-07
4.78423e-07
4.78477e-07
4.78488e-07
4.78479e-07
4.78467e-07
4.8471e-07
4.85531e-07
4.86578e-07
4.87707e-07
4.8879e-07
4.89726e-07
4.9044e-07
4.90884e-07
4.91036e-07
4.90892e-07
4.90466e-07
4.89786e-07
4.88887e-07
4.8781e-07
4.86599e-07
4.85299e-07
4.83954e-07
4.82604e-07
4.81287e-07
4.80038e-07
4.78884e-07
4.77853e-07
4.76964e-07
4.76235e-07
4.75678e-07
4.75302e-07
4.75113e-07
5.13941e-07
5.13248e-07
5.12214e-07
5.10844e-07
5.09143e-07
5.07124e-07
5.04809e-07
5.02229e-07
4.99424e-07
4.9644e-07
4.93327e-07
4.90137e-07
4.86919e-07
4.83724e-07
4.80598e-07
4.77583e-07
4.74717e-07
4.72035e-07
4.69564e-07
4.67327e-07
4.65346e-07
4.63634e-07
4.62203e-07
4.61057e-07
4.60201e-07
4.59635e-07
4.59354e-07
5.15505e-07
5.1389e-07
5.11602e-07
5.08745e-07
5.05414e-07
5.01693e-07
4.97666e-07
4.93412e-07
4.89006e-07
4.84518e-07
4.80014e-07
4.75554e-07
4.71193e-07
4.6698e-07
4.62955e-07
4.59156e-07
4.55614e-07
4.52352e-07
4.49393e-07
4.4675e-07
4.44436e-07
4.42457e-07
4.40818e-07
4.39517e-07
4.38552e-07
4.37918e-07
4.37606e-07
4.99689e-07
4.97656e-07
4.94806e-07
4.91297e-07
4.87266e-07
4.82836e-07
4.78118e-07
4.73214e-07
4.68211e-07
4.6319e-07
4.58219e-07
4.5336e-07
4.48663e-07
4.44173e-07
4.39926e-07
4.35953e-07
4.32278e-07
4.28919e-07
4.25891e-07
4.23203e-07
4.20861e-07
4.18868e-07
4.17223e-07
4.15924e-07
4.14963e-07
4.14334e-07
4.14025e-07
4.75203e-07
4.73083e-07
4.70125e-07
4.66504e-07
4.62371e-07
4.57861e-07
4.53092e-07
4.48169e-07
4.43183e-07
4.38212e-07
4.33322e-07
4.28571e-07
4.24004e-07
4.19661e-07
4.15572e-07
4.11764e-07
4.08255e-07
4.05059e-07
4.02188e-07
3.99646e-07
3.97438e-07
3.95563e-07
3.94019e-07
3.92801e-07
3.91902e-07
3.91313e-07
3.91025e-07
4.47904e-07
4.45881e-07
4.43064e-07
4.39625e-07
4.35712e-07
4.31456e-07
4.26972e-07
4.2236e-07
4.17705e-07
4.13079e-07
4.08543e-07
4.04149e-07
3.99937e-07
3.95942e-07
3.9219e-07
3.88702e-07
3.85495e-07
3.8258e-07
3.79965e-07
3.77654e-07
3.75648e-07
3.73946e-07
3.72546e-07
3.71443e-07
3.70629e-07
3.70097e-07
3.69836e-07
4.2115e-07
4.19305e-07
4.16741e-07
4.13613e-07
4.10061e-07
4.06203e-07
4.02146e-07
3.97979e-07
3.93781e-07
3.89616e-07
3.85538e-07
3.81593e-07
3.77816e-07
3.74238e-07
3.70881e-07
3.67765e-07
3.64901e-07
3.623e-07
3.59968e-07
3.57908e-07
3.56122e-07
3.54608e-07
3.53362e-07
3.5238e-07
3.51656e-07
3.51182e-07
3.5095e-07
3.96576e-07
3.94935e-07
3.92655e-07
3.89875e-07
3.8672e-07
3.83295e-07
3.79696e-07
3.76003e-07
3.72284e-07
3.68596e-07
3.64988e-07
3.61498e-07
3.58159e-07
3.54997e-07
3.52031e-07
3.49278e-07
3.46748e-07
3.44452e-07
3.42392e-07
3.40574e-07
3.38997e-07
3.3766e-07
3.36561e-07
3.35694e-07
3.35055e-07
3.34636e-07
3.34431e-07
3.74796e-07
3.73353e-07
3.71348e-07
3.68904e-07
3.6613e-07
3.63121e-07
3.59957e-07
3.56712e-07
3.53443e-07
3.50202e-07
3.4703e-07
3.43963e-07
3.41027e-07
3.38247e-07
3.35639e-07
3.33217e-07
3.30992e-07
3.28971e-07
3.27158e-07
3.25557e-07
3.24168e-07
3.22991e-07
3.22022e-07
3.21259e-07
3.20695e-07
3.20327e-07
3.20146e-07
3.55876e-07
3.54612e-07
3.52856e-07
3.50716e-07
3.48286e-07
3.45649e-07
3.42876e-07
3.4003e-07
3.37163e-07
3.34319e-07
3.31535e-07
3.28842e-07
3.26263e-07
3.23819e-07
3.21525e-07
3.19394e-07
3.17435e-07
3.15655e-07
3.14058e-07
3.12647e-07
3.11423e-07
3.10384e-07
3.09529e-07
3.08855e-07
3.08358e-07
3.08033e-07
3.07873e-07
3.39624e-07
3.38517e-07
3.36979e-07
3.35104e-07
3.32973e-07
3.30661e-07
3.28228e-07
3.25729e-07
3.23211e-07
3.20711e-07
3.18262e-07
3.15891e-07
3.13619e-07
3.11465e-07
3.09442e-07
3.07561e-07
3.05831e-07
3.04257e-07
3.02845e-07
3.01596e-07
3.00512e-07
2.99591e-07
2.98834e-07
2.98236e-07
2.97795e-07
2.97506e-07
2.97364e-07
3.25753e-07
3.24782e-07
3.2343e-07
3.21782e-07
3.19909e-07
3.17874e-07
3.15732e-07
3.13531e-07
3.1131e-07
3.09104e-07
3.06941e-07
3.04845e-07
3.02835e-07
3.00928e-07
2.99135e-07
2.97467e-07
2.95932e-07
2.94534e-07
2.93279e-07
2.92168e-07
2.91203e-07
2.90383e-07
2.89707e-07
2.89174e-07
2.8878e-07
2.88523e-07
2.88396e-07
3.13961e-07
3.13104e-07
3.11912e-07
3.10457e-07
3.08802e-07
3.07004e-07
3.05109e-07
3.0316e-07
3.01192e-07
2.99236e-07
2.97316e-07
2.95454e-07
2.93666e-07
2.91969e-07
2.90371e-07
2.88884e-07
2.87513e-07
2.86265e-07
2.85143e-07
2.84149e-07
2.83284e-07
2.8255e-07
2.81944e-07
2.81466e-07
2.81112e-07
2.8088e-07
2.80767e-07
3.03964e-07
3.03205e-07
3.02147e-07
3.00857e-07
2.99388e-07
2.97789e-07
2.96105e-07
2.9437e-07
2.92617e-07
2.90872e-07
2.89158e-07
2.87494e-07
2.85896e-07
2.84376e-07
2.82944e-07
2.8161e-07
2.80379e-07
2.79257e-07
2.78248e-07
2.77353e-07
2.76574e-07
2.75912e-07
2.75365e-07
2.74933e-07
2.74614e-07
2.74404e-07
2.74301e-07
2.95515e-07
2.94838e-07
2.93896e-07
2.92744e-07
2.91433e-07
2.90005e-07
2.88498e-07
2.86946e-07
2.85375e-07
2.8381e-07
2.82272e-07
2.80776e-07
2.79338e-07
2.77969e-07
2.76679e-07
2.75475e-07
2.74363e-07
2.73348e-07
2.72435e-07
2.71624e-07
2.70918e-07
2.70317e-07
2.69821e-07
2.69428e-07
2.69138e-07
2.68947e-07
2.68853e-07
2.88401e-07
2.87795e-07
2.8695e-07
2.85917e-07
2.84741e-07
2.83458e-07
2.82103e-07
2.80706e-07
2.79291e-07
2.7788e-07
2.76491e-07
2.75139e-07
2.73838e-07
2.72597e-07
2.71427e-07
2.70334e-07
2.69324e-07
2.68401e-07
2.67569e-07
2.6683e-07
2.66186e-07
2.65638e-07
2.65184e-07
2.64825e-07
2.64559e-07
2.64385e-07
2.64299e-07
2.82445e-07
2.81899e-07
2.81138e-07
2.80207e-07
2.79145e-07
2.77987e-07
2.76763e-07
2.75498e-07
2.74217e-07
2.72937e-07
2.71676e-07
2.70447e-07
2.69263e-07
2.68133e-07
2.67066e-07
2.66068e-07
2.65144e-07
2.643e-07
2.63538e-07
2.62861e-07
2.6227e-07
2.61766e-07
2.61349e-07
2.61019e-07
2.60774e-07
2.60613e-07
2.60534e-07
2.77498e-07
2.77004e-07
2.76314e-07
2.75471e-07
2.74508e-07
2.73457e-07
2.72344e-07
2.71194e-07
2.70027e-07
2.6886e-07
2.67709e-07
2.66587e-07
2.65503e-07
2.64468e-07
2.6349e-07
2.62573e-07
2.61725e-07
2.60948e-07
2.60246e-07
2.59622e-07
2.59076e-07
2.58611e-07
2.58226e-07
2.5792e-07
2.57694e-07
2.57545e-07
2.57471e-07
2.73434e-07
2.72984e-07
2.72357e-07
2.71589e-07
2.70712e-07
2.69753e-07
2.68737e-07
2.67686e-07
2.66618e-07
2.65549e-07
2.64493e-07
2.63461e-07
2.62465e-07
2.61512e-07
2.6061e-07
2.59764e-07
2.5898e-07
2.58261e-07
2.57611e-07
2.57033e-07
2.56527e-07
2.56094e-07
2.55736e-07
2.55452e-07
2.55241e-07
2.55102e-07
2.55034e-07
2.70146e-07
2.69736e-07
2.69162e-07
2.6846e-07
2.67656e-07
2.66778e-07
2.65846e-07
2.6488e-07
2.63898e-07
2.62913e-07
2.6194e-07
2.60988e-07
2.60067e-07
2.59185e-07
2.58349e-07
2.57564e-07
2.56836e-07
2.56168e-07
2.55563e-07
2.55024e-07
2.54552e-07
2.54148e-07
2.53813e-07
2.53547e-07
2.5335e-07
2.5322e-07
2.53156e-07
2.67544e-07
2.67167e-07
2.66641e-07
2.65995e-07
2.65256e-07
2.64447e-07
2.63588e-07
2.62697e-07
2.61789e-07
2.60879e-07
2.59977e-07
2.59094e-07
2.58238e-07
2.57418e-07
2.56639e-07
2.55908e-07
2.55228e-07
2.54603e-07
2.54037e-07
2.53532e-07
2.5309e-07
2.52711e-07
2.52396e-07
2.52147e-07
2.51961e-07
2.51838e-07
2.51778e-07
2.65548e-07
2.652e-07
2.64715e-07
2.64119e-07
2.63436e-07
2.62687e-07
2.61892e-07
2.61065e-07
2.60223e-07
2.59376e-07
2.58536e-07
2.57713e-07
2.56915e-07
2.56148e-07
2.5542e-07
2.54734e-07
2.54096e-07
2.5351e-07
2.52977e-07
2.52502e-07
2.52085e-07
2.51728e-07
2.51431e-07
2.51195e-07
2.51019e-07
2.50903e-07
2.50846e-07
2.64086e-07
2.63764e-07
2.63314e-07
2.62761e-07
2.62127e-07
2.61432e-07
2.60691e-07
2.59921e-07
2.59135e-07
2.58344e-07
2.57559e-07
2.56788e-07
2.56039e-07
2.55319e-07
2.54633e-07
2.53988e-07
2.53386e-07
2.52833e-07
2.5233e-07
2.5188e-07
2.51485e-07
2.51146e-07
2.50865e-07
2.50641e-07
2.50474e-07
2.50364e-07
2.50309e-07
2.63094e-07
2.62794e-07
2.62375e-07
2.6186e-07
2.61268e-07
2.60619e-07
2.59926e-07
2.59205e-07
2.58468e-07
2.57726e-07
2.56987e-07
2.56261e-07
2.55555e-07
2.54875e-07
2.54228e-07
2.53617e-07
2.53047e-07
2.52522e-07
2.52044e-07
2.51616e-07
2.5124e-07
2.50918e-07
2.50649e-07
2.50435e-07
2.50276e-07
2.50171e-07
2.50119e-07
2.62511e-07
2.62231e-07
2.61838e-07
2.61356e-07
2.60801e-07
2.60191e-07
2.5954e-07
2.58861e-07
2.58167e-07
2.57466e-07
2.56768e-07
2.56081e-07
2.55412e-07
2.54767e-07
2.54151e-07
2.5357e-07
2.53027e-07
2.52526e-07
2.5207e-07
2.51662e-07
2.51302e-07
2.50993e-07
2.50736e-07
2.50531e-07
2.50378e-07
2.50277e-07
2.50227e-07
2.6228e-07
2.62016e-07
2.61647e-07
2.61192e-07
2.60669e-07
2.60093e-07
2.59477e-07
2.58835e-07
2.58176e-07
2.57511e-07
2.56848e-07
2.56194e-07
2.55556e-07
2.54941e-07
2.54353e-07
2.53797e-07
2.53277e-07
2.52797e-07
2.52359e-07
2.51967e-07
2.51621e-07
2.51324e-07
2.51076e-07
2.50878e-07
2.50731e-07
2.50633e-07
2.50585e-07
2.62344e-07
2.62094e-07
2.61745e-07
2.61313e-07
2.60816e-07
2.60269e-07
2.59684e-07
2.59072e-07
2.58444e-07
2.57808e-07
2.57174e-07
2.56548e-07
2.55937e-07
2.55346e-07
2.54781e-07
2.54246e-07
2.53745e-07
2.53282e-07
2.5286e-07
2.52481e-07
2.52147e-07
2.51859e-07
2.51619e-07
2.51428e-07
2.51285e-07
2.5119e-07
2.51143e-07
2.62647e-07
2.62409e-07
2.62075e-07
2.61663e-07
2.61188e-07
2.60664e-07
2.60103e-07
2.59516e-07
2.58913e-07
2.58302e-07
2.57692e-07
2.57088e-07
2.56498e-07
2.55928e-07
2.55381e-07
2.54863e-07
2.54378e-07
2.53929e-07
2.53519e-07
2.53151e-07
2.52826e-07
2.52546e-07
2.52313e-07
2.52126e-07
2.51986e-07
2.51894e-07
2.51848e-07
2.63129e-07
2.62901e-07
2.62579e-07
2.62182e-07
2.61725e-07
2.6122e-07
2.60678e-07
2.60111e-07
2.59527e-07
2.58935e-07
2.58343e-07
2.57757e-07
2.57184e-07
2.56629e-07
2.56097e-07
2.55592e-07
2.55119e-07
2.54681e-07
2.5428e-07
2.5392e-07
2.53602e-07
2.53328e-07
2.53099e-07
2.52916e-07
2.5278e-07
2.52689e-07
2.52644e-07
2.6373e-07
2.63508e-07
2.63196e-07
2.62811e-07
2.62366e-07
2.61874e-07
2.61347e-07
2.60793e-07
2.60224e-07
2.59646e-07
2.59067e-07
2.58493e-07
2.57932e-07
2.57387e-07
2.56865e-07
2.5637e-07
2.55905e-07
2.55474e-07
2.5508e-07
2.54726e-07
2.54412e-07
2.54143e-07
2.53917e-07
2.53737e-07
2.53602e-07
2.53512e-07
2.53468e-07
2.64383e-07
2.64165e-07
2.63859e-07
2.63481e-07
2.63044e-07
2.6256e-07
2.62041e-07
2.61497e-07
2.60935e-07
2.60365e-07
2.59794e-07
2.59228e-07
2.58673e-07
2.58135e-07
2.57618e-07
2.57128e-07
2.56668e-07
2.56241e-07
2.5585e-07
2.55498e-07
2.55188e-07
2.5492e-07
2.54696e-07
2.54517e-07
2.54383e-07
2.54294e-07
2.5425e-07
2.65015e-07
2.64799e-07
2.64495e-07
2.64119e-07
2.63685e-07
2.63204e-07
2.62688e-07
2.62146e-07
2.61587e-07
2.61019e-07
2.60449e-07
2.59885e-07
2.59331e-07
2.58794e-07
2.58279e-07
2.57789e-07
2.57329e-07
2.56903e-07
2.56512e-07
2.56161e-07
2.55851e-07
2.55583e-07
2.55359e-07
2.5518e-07
2.55046e-07
2.54957e-07
2.54913e-07
2.65545e-07
2.65328e-07
2.65022e-07
2.64644e-07
2.64207e-07
2.63723e-07
2.63203e-07
2.62658e-07
2.62095e-07
2.61523e-07
2.60949e-07
2.6038e-07
2.59822e-07
2.59281e-07
2.58761e-07
2.58267e-07
2.57803e-07
2.57373e-07
2.5698e-07
2.56626e-07
2.56313e-07
2.56043e-07
2.55817e-07
2.55636e-07
2.55501e-07
2.55412e-07
2.55367e-07
2.65883e-07
2.65661e-07
2.65349e-07
2.64964e-07
2.64518e-07
2.64025e-07
2.63495e-07
2.62938e-07
2.62364e-07
2.61781e-07
2.61196e-07
2.60616e-07
2.60047e-07
2.59495e-07
2.58966e-07
2.58463e-07
2.57991e-07
2.57553e-07
2.57153e-07
2.56792e-07
2.56474e-07
2.56199e-07
2.5597e-07
2.55786e-07
2.55649e-07
2.55558e-07
2.55513e-07
2.65925e-07
2.65695e-07
2.65373e-07
2.64974e-07
2.64513e-07
2.64003e-07
2.63455e-07
2.6288e-07
2.62287e-07
2.61685e-07
2.61081e-07
2.60483e-07
2.59897e-07
2.59329e-07
2.58783e-07
2.58266e-07
2.5778e-07
2.5733e-07
2.56918e-07
2.56548e-07
2.56221e-07
2.55939e-07
2.55703e-07
2.55515e-07
2.55374e-07
2.55281e-07
2.55235e-07
2.65556e-07
2.65315e-07
2.64977e-07
2.64558e-07
2.64075e-07
2.6354e-07
2.62966e-07
2.62364e-07
2.61744e-07
2.61114e-07
2.60483e-07
2.59859e-07
2.59247e-07
2.58655e-07
2.58087e-07
2.57548e-07
2.57043e-07
2.56575e-07
2.56147e-07
2.55763e-07
2.55424e-07
2.55132e-07
2.54889e-07
2.54694e-07
2.54548e-07
2.54452e-07
2.54404e-07
2.64645e-07
2.64389e-07
2.64028e-07
2.63583e-07
2.63069e-07
2.62501e-07
2.61892e-07
2.61253e-07
2.60596e-07
2.59929e-07
2.59262e-07
2.58602e-07
2.57957e-07
2.57332e-07
2.56734e-07
2.56168e-07
2.55637e-07
2.55146e-07
2.54697e-07
2.54295e-07
2.5394e-07
2.53635e-07
2.5338e-07
2.53177e-07
2.53025e-07
2.52925e-07
2.52875e-07
2.63046e-07
2.62769e-07
2.62381e-07
2.61901e-07
2.61347e-07
2.60736e-07
2.60081e-07
2.59396e-07
2.58691e-07
2.57977e-07
2.57263e-07
2.56558e-07
2.5587e-07
2.55205e-07
2.54568e-07
2.53966e-07
2.53403e-07
2.52883e-07
2.52408e-07
2.51983e-07
2.51608e-07
2.51286e-07
2.51017e-07
2.50803e-07
2.50643e-07
2.50538e-07
2.50486e-07
2.60595e-07
2.60293e-07
2.5987e-07
2.59347e-07
2.58744e-07
2.58079e-07
2.57368e-07
2.56624e-07
2.5586e-07
2.55088e-07
2.54317e-07
2.53557e-07
2.52816e-07
2.521e-07
2.51417e-07
2.50771e-07
2.50168e-07
2.49612e-07
2.49105e-07
2.48651e-07
2.48252e-07
2.4791e-07
2.47625e-07
2.47397e-07
2.47228e-07
2.47116e-07
2.47061e-07
2.57117e-07
2.56784e-07
2.56318e-07
2.55742e-07
2.5508e-07
2.54351e-07
2.53571e-07
2.52757e-07
2.51923e-07
2.5108e-07
2.50241e-07
2.49414e-07
2.4861e-07
2.47834e-07
2.47095e-07
2.46398e-07
2.45747e-07
2.45148e-07
2.44603e-07
2.44116e-07
2.43688e-07
2.43321e-07
2.43016e-07
2.42773e-07
2.42592e-07
2.42473e-07
2.42414e-07
2.52422e-07
2.52053e-07
2.51536e-07
2.50899e-07
2.50167e-07
2.49362e-07
2.48502e-07
2.47605e-07
2.46688e-07
2.45763e-07
2.44844e-07
2.4394e-07
2.43061e-07
2.42216e-07
2.41412e-07
2.40654e-07
2.39949e-07
2.393e-07
2.38711e-07
2.38185e-07
2.37724e-07
2.37329e-07
2.37001e-07
2.3674e-07
2.36547e-07
2.36419e-07
2.36356e-07
2.46317e-07
2.45907e-07
2.45332e-07
2.44624e-07
2.43811e-07
2.42918e-07
2.41967e-07
2.40976e-07
2.39964e-07
2.38946e-07
2.37935e-07
2.36943e-07
2.3598e-07
2.35056e-07
2.34178e-07
2.33353e-07
2.32586e-07
2.31881e-07
2.31243e-07
2.30674e-07
2.30175e-07
2.29749e-07
2.29395e-07
2.29115e-07
2.28906e-07
2.28769e-07
2.28702e-07
2.38614e-07
2.38157e-07
2.37516e-07
2.36729e-07
2.35827e-07
2.34836e-07
2.33782e-07
2.32687e-07
2.3157e-07
2.30448e-07
2.29336e-07
2.28247e-07
2.27192e-07
2.26182e-07
2.25223e-07
2.24323e-07
2.23489e-07
2.22723e-07
2.22031e-07
2.21415e-07
2.20876e-07
2.20415e-07
2.20034e-07
2.19732e-07
2.19508e-07
2.19361e-07
2.19288e-07
2.29141e-07
2.28633e-07
2.27922e-07
2.27049e-07
2.26049e-07
2.24953e-07
2.23789e-07
2.22581e-07
2.21351e-07
2.20118e-07
2.18898e-07
2.17706e-07
2.16553e-07
2.15451e-07
2.14407e-07
2.13429e-07
2.12524e-07
2.11695e-07
2.10946e-07
2.10281e-07
2.097e-07
2.09204e-07
2.08794e-07
2.0847e-07
2.0823e-07
2.08072e-07
2.07994e-07
2.17767e-07
2.17206e-07
2.16421e-07
2.15458e-07
2.14356e-07
2.13151e-07
2.11873e-07
2.10549e-07
2.09203e-07
2.07857e-07
2.06527e-07
2.0523e-07
2.03978e-07
2.02783e-07
2.01654e-07
2.00598e-07
1.99621e-07
1.98729e-07
1.97925e-07
1.9721e-07
1.96588e-07
1.96058e-07
1.9562e-07
1.95274e-07
1.95018e-07
1.9485e-07
1.94767e-07
2.04428e-07
2.03813e-07
2.02955e-07
2.01903e-07
2.00702e-07
1.99389e-07
1.98e-07
1.96563e-07
1.95106e-07
1.9365e-07
1.92215e-07
1.90818e-07
1.89473e-07
1.8819e-07
1.86981e-07
1.85852e-07
1.8481e-07
1.83859e-07
1.83003e-07
1.82244e-07
1.81584e-07
1.81022e-07
1.80559e-07
1.80193e-07
1.79923e-07
1.79745e-07
1.79658e-07
1.89162e-07
1.88499e-07
1.87574e-07
1.86442e-07
1.8515e-07
1.83741e-07
1.82252e-07
1.80716e-07
1.79159e-07
1.77607e-07
1.7608e-07
1.74595e-07
1.73165e-07
1.71803e-07
1.70518e-07
1.69315e-07
1.68203e-07
1.67188e-07
1.66274e-07
1.65463e-07
1.64758e-07
1.64158e-07
1.63664e-07
1.63273e-07
1.62984e-07
1.62794e-07
1.62701e-07
1.72151e-07
1.71446e-07
1.70461e-07
1.69254e-07
1.67872e-07
1.66364e-07
1.64772e-07
1.63132e-07
1.61473e-07
1.59821e-07
1.58198e-07
1.56622e-07
1.55108e-07
1.53669e-07
1.52314e-07
1.51052e-07
1.49891e-07
1.48833e-07
1.47883e-07
1.47043e-07
1.46313e-07
1.45693e-07
1.45183e-07
1.4478e-07
1.44482e-07
1.44288e-07
1.44192e-07
1.53439e-07
1.52694e-07
1.51657e-07
1.50391e-07
1.48951e-07
1.47386e-07
1.45738e-07
1.44045e-07
1.42338e-07
1.40643e-07
1.38983e-07
1.37376e-07
1.35838e-07
1.3438e-07
1.33013e-07
1.31743e-07
1.30576e-07
1.29517e-07
1.28567e-07
1.27728e-07
1.27e-07
1.26383e-07
1.25875e-07
1.25475e-07
1.2518e-07
1.24987e-07
1.24893e-07
1.33671e-07
1.3292e-07
1.31877e-07
1.30606e-07
1.29164e-07
1.27599e-07
1.25956e-07
1.24272e-07
1.22577e-07
1.20899e-07
1.1926e-07
1.17677e-07
1.16165e-07
1.14736e-07
1.13398e-07
1.12158e-07
1.11021e-07
1.09991e-07
1.09068e-07
1.08254e-07
1.07549e-07
1.06952e-07
1.06462e-07
1.06076e-07
1.05791e-07
1.05605e-07
1.05514e-07
1.13701e-07
1.12969e-07
1.11954e-07
1.10719e-07
1.09319e-07
1.07805e-07
1.06218e-07
1.04595e-07
1.02966e-07
1.01358e-07
9.97896e-08
9.82792e-08
9.68398e-08
9.54819e-08
9.42135e-08
9.30403e-08
9.19664e-08
9.09944e-08
9.01256e-08
8.93605e-08
8.86985e-08
8.81386e-08
8.7679e-08
8.73174e-08
8.70511e-08
8.68771e-08
8.6792e-08
9.42998e-08
9.36109e-08
9.2656e-08
9.14962e-08
9.01849e-08
8.87689e-08
8.72884e-08
8.57777e-08
8.42655e-08
8.27753e-08
8.13264e-08
7.9934e-08
7.861e-08
7.73637e-08
7.62017e-08
7.51289e-08
7.41486e-08
7.32626e-08
7.24719e-08
7.17764e-08
7.11753e-08
7.06674e-08
7.02507e-08
6.99232e-08
6.96822e-08
6.95248e-08
6.94478e-08
7.62087e-08
7.55833e-08
7.47175e-08
7.36677e-08
7.24829e-08
7.12063e-08
6.98745e-08
6.85187e-08
6.71647e-08
6.58336e-08
6.45423e-08
6.33042e-08
6.21294e-08
6.10257e-08
5.99987e-08
5.90522e-08
5.81887e-08
5.74094e-08
5.67148e-08
5.61045e-08
5.55776e-08
5.51328e-08
5.47681e-08
5.44816e-08
5.42709e-08
5.41334e-08
5.40661e-08
6.00293e-08
5.94816e-08
5.87242e-08
5.78073e-08
5.67744e-08
5.56636e-08
5.45074e-08
5.33329e-08
5.21628e-08
5.10151e-08
4.99043e-08
4.88417e-08
4.78356e-08