/*--------------------------------*- C++ -*----------------------------------*\
| =========                 |                                                 |
| \\      /  F ield         | OpenFOAM: The Open Source CFD Toolbox           |
|  \\    /   O peration     | Version:  2106                                  |
|   \\  /    A nd           | Website:  www.openfoam.com                      |
|    \\/     M anipulation  |                                                 |
\*---------------------------------------------------------------------------*/
FoamFile
{
    version     2.0;
    format      ascii;
    arch        "LSB;label=32;scalar=64";
    class       volScalarField;
    location    "160.00011";
    object      CH3_0;
}
// * * * * * * * * * * * * * * * * * * * * * * * * * * * * * * * * * * * * * //

dimensions      [0 0 0 0 0 0 0];

internalField   nonuniform List<scalar> 
3360
(
2.43405e-21
2.51189e-21
2.6202e-21
2.75268e-21
2.90379e-21
3.06858e-21
3.24256e-21
3.42169e-21
3.60238e-21
3.78145e-21
3.95614e-21
4.12413e-21
4.28348e-21
4.43267e-21
4.57053e-21
4.69624e-21
4.80931e-21
4.90951e-21
4.9969e-21
5.07174e-21
5.13447e-21
5.18571e-21
5.22618e-21
5.2567e-21
5.27818e-21
5.29154e-21
5.29774e-21
1.06351e-20
1.10236e-20
1.15717e-20
1.22542e-20
1.30502e-20
1.39415e-20
1.49117e-20
1.59461e-20
1.70306e-20
1.81522e-20
1.92984e-20
2.04569e-20
2.16157e-20
2.27628e-20
2.38866e-20
2.49755e-20
2.60183e-20
2.70039e-20
2.7922e-20
2.87626e-20
2.95167e-20
3.01763e-20
3.07346e-20
3.11862e-20
3.15271e-20
3.17547e-20
3.18682e-20
3.31507e-20
3.45961e-20
3.66497e-20
3.92299e-20
4.2269e-20
4.5706e-20
4.94832e-20
5.35434e-20
5.78291e-20
6.22816e-20
6.68407e-20
7.14469e-20
7.60412e-20
8.05652e-20
8.49627e-20
8.91802e-20
9.31683e-20
9.68825e-20
1.00284e-19
1.03342e-19
1.0603e-19
1.08333e-19
1.10239e-19
1.11745e-19
1.12855e-19
1.1358e-19
1.13932e-19
9.57047e-20
1.00426e-19
1.07179e-19
1.15721e-19
1.2585e-19
1.37375e-19
1.50107e-19
1.6385e-19
1.78397e-19
1.93533e-19
2.09035e-19
2.24676e-19
2.4023e-19
2.5548e-19
2.70217e-19
2.84251e-19
2.97413e-19
3.09559e-19
3.20575e-19
3.30373e-19
3.38898e-19
3.46119e-19
3.52033e-19
3.56659e-19
3.60033e-19
3.62213e-19
3.63264e-19
2.76738e-19
2.91478e-19
3.126e-19
3.39379e-19
3.71199e-19
4.07469e-19
4.47582e-19
4.90895e-19
5.36724e-19
5.84349e-19
6.33026e-19
6.82007e-19
7.30557e-19
7.77976e-19
8.23616e-19
8.66895e-19
9.07314e-19
9.44461e-19
9.78016e-19
1.00775e-18
1.03353e-18
1.05529e-18
1.07306e-18
1.08692e-18
1.097e-18
1.1035e-18
1.10663e-18
8.06819e-19
8.51577e-19
9.15793e-19
9.97276e-19
1.09415e-18
1.20459e-18
1.32673e-18
1.45857e-18
1.59799e-18
1.74274e-18
1.89053e-18
2.03904e-18
2.18602e-18
2.32935e-18
2.46704e-18
2.59738e-18
2.71889e-18
2.83034e-18
2.93084e-18
3.01974e-18
3.09668e-18
3.16153e-18
3.2144e-18
3.25557e-18
3.2855e-18
3.30475e-18
3.31401e-18
2.36843e-18
2.50283e-18
2.69564e-18
2.94031e-18
3.23116e-18
3.56268e-18
3.92915e-18
4.32448e-18
4.74222e-18
5.17558e-18
5.61761e-18
6.06138e-18
6.50014e-18
6.92755e-18
7.3378e-18
7.72578e-18
8.08715e-18
8.41841e-18
8.71689e-18
8.98077e-18
9.20903e-18
9.40136e-18
9.55809e-18
9.68012e-18
9.76879e-18
9.82583e-18
9.85325e-18
6.97308e-18
7.37257e-18
7.94599e-18
8.67386e-18
9.53934e-18
1.0526e-17
1.16167e-17
1.27932e-17
1.40361e-17
1.53253e-17
1.66398e-17
1.7959e-17
1.92629e-17
2.05324e-17
2.17505e-17
2.29019e-17
2.39739e-17
2.49561e-17
2.58407e-17
2.66225e-17
2.72984e-17
2.78676e-17
2.83313e-17
2.86922e-17
2.89543e-17
2.91229e-17
2.92039e-17
2.05778e-17
2.17635e-17
2.3465e-17
2.56246e-17
2.81921e-17
3.11185e-17
3.43528e-17
3.78405e-17
4.15241e-17
4.53432e-17
4.92361e-17
5.31415e-17
5.7e-17
6.07559e-17
6.43584e-17
6.77629e-17
7.09318e-17
7.38346e-17
7.64487e-17
7.87585e-17
8.07554e-17
8.24371e-17
8.38069e-17
8.4873e-17
8.56474e-17
8.61454e-17
8.63847e-17
6.07093e-17
6.42153e-17
6.92478e-17
7.56353e-17
8.32295e-17
9.18851e-17
1.01451e-16
1.11766e-16
1.22658e-16
1.3395e-16
1.45458e-16
1.57001e-16
1.68404e-16
1.79501e-16
1.90142e-16
2.00197e-16
2.09553e-16
2.18122e-16
2.25836e-16
2.32651e-16
2.38541e-16
2.43501e-16
2.47539e-16
2.50682e-16
2.52964e-16
2.54431e-16
2.55137e-16
1.79119e-16
1.89478e-16
2.04344e-16
2.23209e-16
2.45634e-16
2.71186e-16
2.99418e-16
3.29851e-16
3.6198e-16
3.95276e-16
4.292e-16
4.63216e-16
4.96806e-16
5.29487e-16
5.60818e-16
5.90412e-16
6.17945e-16
6.43156e-16
6.65848e-16
6.85891e-16
7.03213e-16
7.17795e-16
7.29669e-16
7.38907e-16
7.45616e-16
7.49929e-16
7.52001e-16
5.27668e-16
5.5818e-16
6.01966e-16
6.57523e-16
7.2355e-16
7.98769e-16
8.81854e-16
9.71393e-16
1.06589e-15
1.16379e-15
1.26349e-15
1.36343e-15
1.46209e-15
1.55804e-15
1.64999e-15
1.73682e-15
1.81756e-15
1.89147e-15
1.95798e-15
2.0167e-15
2.06743e-15
2.11012e-15
2.14488e-15
2.17191e-15
2.19154e-15
2.20415e-15
2.21021e-15
1.55143e-15
1.64109e-15
1.76971e-15
1.93283e-15
2.12661e-15
2.34725e-15
2.59082e-15
2.85316e-15
3.12985e-15
3.41631e-15
3.70788e-15
3.99996e-15
4.2881e-15
4.56817e-15
4.8364e-15
5.08955e-15
5.32484e-15
5.54012e-15
5.73373e-15
5.90461e-15
6.05219e-15
6.17634e-15
6.27738e-15
6.35594e-15
6.41297e-15
6.44962e-15
6.46722e-15
4.54238e-15
4.80436e-15
5.18003e-15
5.6563e-15
6.22174e-15
6.86515e-15
7.57493e-15
8.33879e-15
9.14378e-15
9.97649e-15
1.08233e-14
1.16709e-14
1.25062e-14
1.33175e-14
1.40938e-14
1.48257e-14
1.55056e-14
1.61271e-14
1.66856e-14
1.71782e-14
1.76034e-14
1.79608e-14
1.82515e-14
1.84775e-14
1.86414e-14
1.87467e-14
1.87973e-14
1.32249e-14
1.39848e-14
1.50739e-14
1.64535e-14
1.80899e-14
1.995e-14
2.19995e-14
2.42025e-14
2.6521e-14
2.89162e-14
3.13487e-14
3.37798e-14
3.61729e-14
3.84937e-14
4.07118e-14
4.28007e-14
4.47385e-14
4.6508e-14
4.80968e-14
4.94966e-14
5.07036e-14
5.17177e-14
5.25419e-14
5.3182e-14
5.36461e-14
5.39441e-14
5.40871e-14
3.816e-14
4.03371e-14
4.34546e-14
4.73996e-14
5.2073e-14
5.73775e-14
6.32133e-14
6.94755e-14
7.60548e-14
8.28394e-14
8.97172e-14
9.65788e-14
1.03321e-13
1.09848e-13
1.16075e-13
1.2193e-13
1.27352e-13
1.32297e-13
1.36729e-13
1.4063e-13
1.43988e-13
1.46807e-13
1.49095e-13
1.50871e-13
1.52157e-13
1.52982e-13
1.53378e-13
1.0876e-13
1.14886e-13
1.23648e-13
1.34719e-13
1.47809e-13
1.62638e-13
1.78916e-13
1.96342e-13
2.14607e-13
2.33396e-13
2.52395e-13
2.71303e-13
2.89837e-13
3.07737e-13
3.24776e-13
3.40762e-13
3.55537e-13
3.68982e-13
3.81013e-13
3.91582e-13
4.00669e-13
4.08283e-13
4.14457e-13
4.19241e-13
4.22702e-13
4.24921e-13
4.25984e-13
3.04739e-13
3.21518e-13
3.45478e-13
3.75687e-13
4.1132e-13
4.51572e-13
4.95625e-13
5.4264e-13
5.91758e-13
6.42121e-13
6.92886e-13
7.43247e-13
7.92458e-13
8.39847e-13
8.84829e-13
9.26915e-13
9.65715e-13
1.00094e-12
1.03239e-12
1.05996e-12
1.08362e-12
1.10341e-12
1.11943e-12
1.13183e-12
1.14079e-12
1.14652e-12
1.14927e-12
8.35109e-13
8.79302e-13
9.42255e-13
1.02138e-12
1.11438e-12
1.21903e-12
1.33307e-12
1.45426e-12
1.58033e-12
1.70903e-12
1.8382e-12
1.96583e-12
2.09006e-12
2.20924e-12
2.32198e-12
2.42712e-12
2.52375e-12
2.61124e-12
2.68916e-12
2.75731e-12
2.81567e-12
2.86439e-12
2.90377e-12
2.9342e-12
2.95616e-12
2.9702e-12
2.97692e-12
2.22745e-12
2.33751e-12
2.49369e-12
2.68906e-12
2.91738e-12
3.17269e-12
3.44912e-12
3.74089e-12
4.04234e-12
4.34805e-12
4.6529e-12
4.95223e-12
5.24185e-12
5.51818e-12
5.7782e-12
6.01953e-12
6.24039e-12
6.43954e-12
6.61629e-12
6.7704e-12
6.90202e-12
7.01166e-12
7.1001e-12
7.16833e-12
7.21751e-12
7.24894e-12
7.26395e-12
5.76985e-12
6.02448e-12
6.3834e-12
6.82838e-12
7.34295e-12
7.91149e-12
8.5191e-12
9.15163e-12
9.79585e-12
1.04396e-11
1.10721e-11
1.16839e-11
1.22671e-11
1.28153e-11
1.33235e-11
1.37881e-11
1.42072e-11
1.45795e-11
1.49053e-11
1.51855e-11
1.54217e-11
1.56161e-11
1.57712e-11
1.58898e-11
1.59745e-11
1.60283e-11
1.60539e-11
1.45172e-11
1.50622e-11
1.58216e-11
1.67482e-11
1.77979e-11
1.8929e-11
2.0102e-11
2.12809e-11
2.24344e-11
2.35369e-11
2.45685e-11
2.55149e-11
2.63666e-11
2.71176e-11
2.77642e-11
2.83035e-11
2.87344e-11
2.90596e-11
2.92863e-11
2.94251e-11
2.94901e-11
2.9497e-11
2.9463e-11
2.94051e-11
2.93402e-11
2.92835e-11
2.92491e-11
3.51378e-11
3.62459e-11
3.77814e-11
3.96411e-11
4.17257e-11
4.39303e-11
4.61331e-11
4.82084e-11
5.00573e-11
5.16275e-11
5.29295e-11
5.40482e-11
5.51492e-11
5.64795e-11
5.83667e-11
6.07938e-11
6.35282e-11
6.63955e-11
6.92604e-11
7.20152e-11
7.45735e-11
7.68665e-11
7.88407e-11
8.04556e-11
8.16832e-11
8.25063e-11
8.29173e-11
7.86941e-11
8.07311e-11
8.37349e-11
8.79175e-11
9.39401e-11
1.03204e-10
1.16182e-10
1.32298e-10
1.51254e-10
1.72843e-10
1.96859e-10
2.23058e-10
2.51135e-10
2.80721e-10
3.11385e-10
3.42641e-10
3.73964e-10
4.04802e-10
4.34594e-10
4.62783e-10
4.88831e-10
5.12232e-10
5.32526e-10
5.49308e-10
5.62236e-10
5.71037e-10
5.75506e-10
2.72737e-10
2.99182e-10
3.38965e-10
3.9261e-10
4.61039e-10
5.45276e-10
6.46197e-10
7.64359e-10
8.99854e-10
1.05213e-09
1.21984e-09
1.40076e-09
1.59182e-09
1.78924e-09
1.98883e-09
2.18627e-09
2.37743e-09
2.5586e-09
2.72665e-09
2.87914e-09
3.01424e-09
3.13071e-09
3.22782e-09
3.30519e-09
3.3628e-09
3.40081e-09
3.41957e-09
1.66818e-09
1.83583e-09
2.08489e-09
2.41396e-09
2.82126e-09
3.30244e-09
3.84932e-09
4.44987e-09
5.08909e-09
5.75071e-09
6.41892e-09
7.07964e-09
7.72115e-09
8.33419e-09
8.91161e-09
9.44811e-09
9.93986e-09
1.03843e-08
1.07798e-08
1.11259e-08
1.14228e-08
1.16711e-08
1.18725e-08
1.20287e-08
1.21419e-08
1.22147e-08
1.22497e-08
8.47355e-09
9.09613e-09
9.99211e-09
1.11326e-08
1.24922e-08
1.40461e-08
1.57686e-08
1.76326e-08
1.9609e-08
2.16674e-08
2.37755e-08
2.59012e-08
2.80135e-08
3.00824e-08
3.208e-08
3.39806e-08
3.57616e-08
3.74042e-08
3.88932e-08
4.02172e-08
4.13687e-08
4.23439e-08
4.31423e-08
4.37666e-08
4.42219e-08
4.45157e-08
4.46573e-08
2.70103e-08
2.89708e-08
3.18368e-08
3.55633e-08
4.01238e-08
4.54958e-08
5.16522e-08
5.8556e-08
6.61567e-08
7.43879e-08
8.31669e-08
9.23944e-08
1.01956e-07
1.11724e-07
1.21562e-07
1.31325e-07
1.40868e-07
1.50046e-07
1.58717e-07
1.6675e-07
1.74024e-07
1.80435e-07
1.85892e-07
1.90324e-07
1.9368e-07
1.95925e-07
1.97046e-07
7.63893e-08
8.28633e-08
9.2493e-08
1.05304e-07
1.21417e-07
1.40993e-07
1.64198e-07
1.91172e-07
2.22001e-07
2.56693e-07
2.95229e-07
3.37408e-07
3.82904e-07
4.31258e-07
4.81878e-07
5.34045e-07
5.86932e-07
6.39621e-07
6.91134e-07
7.40455e-07
7.86563e-07
8.28464e-07
8.65184e-07
8.95878e-07
9.198e-07
9.36274e-07
9.44723e-07
2.21847e-07
2.4272e-07
2.74118e-07
3.16486e-07
3.70648e-07
4.37607e-07
5.18408e-07
6.14011e-07
7.2518e-07
8.52367e-07
9.95618e-07
1.15449e-06
1.328e-06
1.51461e-06
1.71199e-06
1.91717e-06
2.12673e-06
2.33681e-06
2.54332e-06
2.74196e-06
2.92843e-06
3.09848e-06
3.24809e-06
3.37353e-06
3.47143e-06
3.53895e-06
3.57369e-06
6.94928e-07
7.56048e-07
8.47596e-07
9.70426e-07
1.12636e-06
1.31763e-06
1.54601e-06
1.8128e-06
2.11858e-06
2.46291e-06
2.84417e-06
3.25947e-06
3.70459e-06
4.17409e-06
4.66136e-06
5.15887e-06
5.65836e-06
6.15108e-06
6.62806e-06
7.08034e-06
7.49924e-06
7.87658e-06
8.20471e-06
8.477e-06
8.68757e-06
8.83154e-06
8.90498e-06
2.05903e-06
2.20035e-06
2.40827e-06
2.68077e-06
3.01718e-06
3.41702e-06
3.87926e-06
4.40183e-06
4.98134e-06
5.6129e-06
6.29011e-06
7.00512e-06
7.74885e-06
8.51115e-06
9.28115e-06
1.00475e-05
1.07987e-05
1.15234e-05
1.22105e-05
1.28495e-05
1.34309e-05
1.3946e-05
1.43873e-05
1.47482e-05
1.50234e-05
1.52087e-05
1.5302e-05
4.8814e-06
5.11097e-06
5.44183e-06
5.86417e-06
6.36989e-06
6.95119e-06
7.59997e-06
8.30747e-06
9.06417e-06
9.85982e-06
1.06836e-05
1.15244e-05
1.23707e-05
1.32114e-05
1.40354e-05
1.4832e-05
1.55913e-05
1.63048e-05
1.69655e-05
1.75674e-05
1.8105e-05
1.85736e-05
1.89692e-05
1.92886e-05
1.95296e-05
1.96906e-05
1.97711e-05
8.8741e-06
9.13357e-06
9.50034e-06
9.95693e-06
1.04879e-05
1.10787e-05
1.17156e-05
1.23854e-05
1.30755e-05
1.37744e-05
1.44716e-05
1.51594e-05
1.58307e-05
1.64787e-05
1.70976e-05
1.76823e-05
1.82283e-05
1.8732e-05
1.91903e-05
1.96008e-05
1.9962e-05
2.02725e-05
2.05312e-05
2.07378e-05
2.08921e-05
2.09942e-05
2.10448e-05
1.27113e-05
1.2908e-05
1.31811e-05
1.35131e-05
1.38889e-05
1.42945e-05
1.47182e-05
1.51495e-05
1.55798e-05
1.6002e-05
1.64106e-05
1.68012e-05
1.71706e-05
1.75166e-05
1.78377e-05
1.81328e-05
1.84014e-05
1.86434e-05
1.88588e-05
1.9048e-05
1.92113e-05
1.93492e-05
1.94621e-05
1.95512e-05
1.9617e-05
1.96601e-05
1.96813e-05
1.49846e-05
1.50755e-05
1.51984e-05
1.53428e-05
1.54994e-05
1.56605e-05
1.58197e-05
1.59724e-05
1.61152e-05
1.62458e-05
1.63632e-05
1.64671e-05
1.65575e-05
1.66354e-05
1.67016e-05
1.67573e-05
1.68036e-05
1.68418e-05
1.68729e-05
1.68979e-05
1.69178e-05
1.69334e-05
1.69453e-05
1.6954e-05
1.69601e-05
1.69639e-05
1.69657e-05
1.53104e-05
1.53042e-05
1.52925e-05
1.52734e-05
1.52454e-05
1.52073e-05
1.51591e-05
1.5101e-05
1.50339e-05
1.49593e-05
1.48786e-05
1.47936e-05
1.47063e-05
1.46182e-05
1.45312e-05
1.44466e-05
1.43658e-05
1.42901e-05
1.42202e-05
1.41571e-05
1.41012e-05
1.40531e-05
1.4013e-05
1.3981e-05
1.39573e-05
1.39416e-05
1.3934e-05
1.4102e-05
1.4037e-05
1.39452e-05
1.38308e-05
1.36977e-05
1.35496e-05
1.33902e-05
1.32226e-05
1.30502e-05
1.28759e-05
1.27023e-05
1.25317e-05
1.23664e-05
1.22079e-05
1.20579e-05
1.19175e-05
1.17877e-05
1.16693e-05
1.15627e-05
1.14683e-05
1.13862e-05
1.13166e-05
1.12593e-05
1.12141e-05
1.11807e-05
1.11589e-05
1.11482e-05
1.21036e-05
1.20171e-05
1.18966e-05
1.17493e-05
1.15814e-05
1.13987e-05
1.12062e-05
1.10083e-05
1.08088e-05
1.06109e-05
1.04174e-05
1.02305e-05
1.00521e-05
9.88352e-06
9.72593e-06
9.58014e-06
9.44673e-06
9.32608e-06
9.2184e-06
9.12374e-06
9.04197e-06
8.97292e-06
8.91633e-06
8.87191e-06
8.83926e-06
8.81798e-06
8.80759e-06
9.93958e-06
9.85486e-06
9.73745e-06
9.5949e-06
9.43384e-06
9.26006e-06
9.0786e-06
8.89371e-06
8.70897e-06
8.5273e-06
8.35108e-06
8.18218e-06
8.02203e-06
7.87173e-06
7.73207e-06
7.60356e-06
7.48656e-06
7.38123e-06
7.2876e-06
7.20561e-06
7.13499e-06
7.07553e-06
7.02694e-06
6.98887e-06
6.96095e-06
6.94278e-06
6.93392e-06
7.96678e-06
7.89404e-06
7.79348e-06
7.67182e-06
7.53489e-06
7.38778e-06
7.23483e-06
7.07968e-06
6.92532e-06
6.77417e-06
6.62815e-06
6.48872e-06
6.35699e-06
6.23377e-06
6.11961e-06
6.01488e-06
5.91976e-06
5.83433e-06
5.75855e-06
5.6923e-06
5.63541e-06
5.58757e-06
5.54853e-06
5.51798e-06
5.4956e-06
5.48105e-06
5.47396e-06
6.3221e-06
6.26366e-06
6.18299e-06
6.08554e-06
5.97607e-06
5.8587e-06
5.73693e-06
5.61367e-06
5.4913e-06
5.37173e-06
5.25643e-06
5.14655e-06
5.04292e-06
4.94614e-06
4.85661e-06
4.77459e-06
4.70019e-06
4.63344e-06
4.57429e-06
4.52262e-06
4.47829e-06
4.44109e-06
4.41075e-06
4.38702e-06
4.36965e-06
4.35837e-06
4.35287e-06
5.0163e-06
4.97092e-06
4.9083e-06
4.83271e-06
4.74787e-06
4.65699e-06
4.56278e-06
4.46751e-06
4.373e-06
4.28074e-06
4.19185e-06
4.1072e-06
4.02742e-06
3.95296e-06
3.88413e-06
3.8211e-06
3.76396e-06
3.71272e-06
3.66733e-06
3.62769e-06
3.59369e-06
3.56516e-06
3.54194e-06
3.52378e-06
3.51049e-06
3.50186e-06
3.49766e-06
4.00597e-06
3.97126e-06
3.92337e-06
3.86557e-06
3.80071e-06
3.73124e-06
3.65925e-06
3.58646e-06
3.51427e-06
3.4438e-06
3.37592e-06
3.31128e-06
3.25037e-06
3.19353e-06
3.14099e-06
3.09288e-06
3.04926e-06
3.01015e-06
2.97549e-06
2.94523e-06
2.91926e-06
2.89747e-06
2.87972e-06
2.86586e-06
2.85574e-06
2.84917e-06
2.84597e-06
3.23349e-06
3.20705e-06
3.17058e-06
3.12655e-06
3.07713e-06
3.02419e-06
2.96932e-06
2.91383e-06
2.85878e-06
2.80504e-06
2.75325e-06
2.70393e-06
2.65744e-06
2.61404e-06
2.57392e-06
2.53717e-06
2.50384e-06
2.47395e-06
2.44746e-06
2.42432e-06
2.40446e-06
2.38779e-06
2.3742e-06
2.36358e-06
2.35583e-06
2.3508e-06
2.34835e-06
2.64489e-06
2.6247e-06
2.59685e-06
2.56322e-06
2.52546e-06
2.485e-06
2.44304e-06
2.40059e-06
2.35846e-06
2.3173e-06
2.27763e-06
2.23982e-06
2.20417e-06
2.17087e-06
2.14007e-06
2.11185e-06
2.08624e-06
2.06327e-06
2.0429e-06
2.0251e-06
2.00981e-06
1.99697e-06
1.9865e-06
1.97832e-06
1.97233e-06
1.96844e-06
1.96655e-06
2.19558e-06
2.18008e-06
2.15868e-06
2.13283e-06
2.10379e-06
2.07266e-06
2.04035e-06
2.00765e-06
1.97517e-06
1.94342e-06
1.9128e-06
1.8836e-06
1.85604e-06
1.83029e-06
1.80646e-06
1.78461e-06
1.76477e-06
1.74696e-06
1.73117e-06
1.71736e-06
1.70549e-06
1.69552e-06
1.68738e-06
1.68102e-06
1.67636e-06
1.67333e-06
1.67186e-06
1.85093e-06
1.83892e-06
1.82233e-06
1.80229e-06
1.77976e-06
1.7556e-06
1.7305e-06
1.70508e-06
1.67981e-06
1.65509e-06
1.63123e-06
1.60846e-06
1.58696e-06
1.56685e-06
1.54822e-06
1.53113e-06
1.51561e-06
1.50166e-06
1.48929e-06
1.47846e-06
1.46915e-06
1.46133e-06
1.45494e-06
1.44995e-06
1.44629e-06
1.44391e-06
1.44275e-06
1.58476e-06
1.57536e-06
1.56238e-06
1.54669e-06
1.52904e-06
1.51008e-06
1.49039e-06
1.47042e-06
1.45056e-06
1.43111e-06
1.41232e-06
1.39437e-06
1.37741e-06
1.36153e-06
1.34681e-06
1.3333e-06
1.32102e-06
1.30997e-06
1.30016e-06
1.29157e-06
1.28419e-06
1.27798e-06
1.2729e-06
1.26893e-06
1.26602e-06
1.26413e-06
1.26321e-06
1.3776e-06
1.37017e-06
1.3599e-06
1.34748e-06
1.3335e-06
1.31847e-06
1.30284e-06
1.28698e-06
1.2712e-06
1.25572e-06
1.24076e-06
1.22645e-06
1.21291e-06
1.20023e-06
1.18846e-06
1.17765e-06
1.16781e-06
1.15896e-06
1.15109e-06
1.1442e-06
1.13826e-06
1.13327e-06
1.12919e-06
1.12599e-06
1.12365e-06
1.12212e-06
1.12138e-06
1.21502e-06
1.20908e-06
1.20086e-06
1.19091e-06
1.17971e-06
1.16766e-06
1.15512e-06
1.14238e-06
1.12969e-06
1.11723e-06
1.10517e-06
1.09363e-06
1.0827e-06
1.07245e-06
1.06292e-06
1.05416e-06
1.04619e-06
1.039e-06
1.03261e-06
1.02701e-06
1.02218e-06
1.01812e-06
1.01479e-06
1.01219e-06
1.01027e-06
1.00903e-06
1.00842e-06
1.08631e-06
1.0815e-06
1.07486e-06
1.0668e-06
1.05772e-06
1.04795e-06
1.03776e-06
1.02741e-06
1.01708e-06
1.00693e-06
9.97097e-07
9.87674e-07
9.7874e-07
9.70352e-07
9.62552e-07
9.5537e-07
9.48822e-07
9.42918e-07
9.37662e-07
9.33049e-07
9.29071e-07
9.25718e-07
9.22975e-07
9.20822e-07
9.19242e-07
9.18213e-07
9.1771e-07
9.83521e-07
9.79587e-07
9.74143e-07
9.67544e-07
9.60099e-07
9.52079e-07
9.43713e-07
9.35197e-07
9.26691e-07
9.18327e-07
9.1021e-07
9.02424e-07
8.95033e-07
8.88085e-07
8.81617e-07
8.75654e-07
8.70212e-07
8.65301e-07
8.60923e-07
8.57077e-07
8.53758e-07
8.50957e-07
8.48664e-07
8.46863e-07
8.45541e-07
8.44678e-07
8.44257e-07
9.00703e-07
8.97447e-07
8.92938e-07
8.87468e-07
8.81293e-07
8.74633e-07
8.6768e-07
8.60593e-07
8.53507e-07
8.4653e-07
8.39751e-07
8.3324e-07
8.27051e-07
8.21227e-07
8.15798e-07
8.10786e-07
8.06208e-07
8.0207e-07
7.98379e-07
7.95132e-07
7.92328e-07
7.8996e-07
7.88018e-07
7.86493e-07
7.85371e-07
7.84639e-07
7.84281e-07
8.33389e-07
8.30662e-07
8.26885e-07
8.22299e-07
8.17118e-07
8.11524e-07
8.05677e-07
7.99711e-07
7.93738e-07
7.87849e-07
7.82121e-07
7.76611e-07
7.71368e-07
7.66427e-07
7.61815e-07
7.57553e-07
7.53654e-07
7.50127e-07
7.46976e-07
7.44202e-07
7.41804e-07
7.39776e-07
7.38112e-07
7.36803e-07
7.35841e-07
7.35212e-07
7.34904e-07
7.78198e-07
7.75889e-07
7.72688e-07
7.688e-07
7.64402e-07
7.5965e-07
7.54677e-07
7.49597e-07
7.44504e-07
7.39477e-07
7.3458e-07
7.29864e-07
7.2537e-07
7.21129e-07
7.17166e-07
7.13499e-07
7.10139e-07
7.07097e-07
7.04376e-07
7.01978e-07
6.99902e-07
6.98145e-07
6.96702e-07
6.95567e-07
6.9473e-07
6.94184e-07
6.93916e-07
7.32553e-07
7.30577e-07
7.27835e-07
7.24501e-07
7.20727e-07
7.16644e-07
7.12367e-07
7.07993e-07
7.03602e-07
6.99263e-07
6.95029e-07
6.90947e-07
6.87052e-07
6.83371e-07
6.79927e-07
6.76735e-07
6.73808e-07
6.71154e-07
6.68778e-07
6.66681e-07
6.64864e-07
6.63325e-07
6.62059e-07
6.61062e-07
6.60327e-07
6.59847e-07
6.59611e-07
6.9448e-07
6.92769e-07
6.90394e-07
6.87505e-07
6.84231e-07
6.80686e-07
6.76968e-07
6.7316e-07
6.69334e-07
6.65547e-07
6.61847e-07
6.58275e-07
6.54862e-07
6.51633e-07
6.48607e-07
6.458e-07
6.43222e-07
6.40882e-07
6.38783e-07
6.3693e-07
6.35322e-07
6.33959e-07
6.32837e-07
6.31953e-07
6.313e-07
6.30873e-07
6.30663e-07
6.6245e-07
6.60953e-07
6.58875e-07
6.56345e-07
6.53475e-07
6.50364e-07
6.47098e-07
6.43749e-07
6.40379e-07
6.3704e-07
6.33774e-07
6.30616e-07
6.27594e-07
6.24731e-07
6.22046e-07
6.19551e-07
6.17257e-07
6.15171e-07
6.133e-07
6.11645e-07
6.10208e-07
6.08988e-07
6.07983e-07
6.0719e-07
6.06605e-07
6.06221e-07
6.06033e-07
6.35273e-07
6.33951e-07
6.32114e-07
6.29875e-07
6.27334e-07
6.24577e-07
6.21679e-07
6.18704e-07
6.15707e-07
6.12733e-07
6.0982e-07
6.07e-07
6.04299e-07
6.01736e-07
5.99328e-07
5.97089e-07
5.95028e-07
5.93152e-07
5.91466e-07
5.89974e-07
5.88677e-07
5.87575e-07
5.86666e-07
5.85949e-07
5.85418e-07
5.8507e-07
5.849e-07
6.12014e-07
6.10835e-07
6.09195e-07
6.07196e-07
6.04924e-07
6.02457e-07
5.9986e-07
5.97192e-07
5.94501e-07
5.91827e-07
5.89204e-07
5.86663e-07
5.84224e-07
5.81908e-07
5.7973e-07
5.77701e-07
5.75832e-07
5.74129e-07
5.72597e-07
5.71239e-07
5.70058e-07
5.69053e-07
5.68224e-07
5.67569e-07
5.67084e-07
5.66766e-07
5.6661e-07
5.91934e-07
5.90872e-07
5.89395e-07
5.87592e-07
5.85542e-07
5.83313e-07
5.80966e-07
5.7855e-07
5.76111e-07
5.73685e-07
5.71303e-07
5.68991e-07
5.6677e-07
5.64659e-07
5.6267e-07
5.60816e-07
5.59106e-07
5.57546e-07
5.56142e-07
5.54896e-07
5.53811e-07
5.52887e-07
5.52124e-07
5.51521e-07
5.51074e-07
5.5078e-07
5.50636e-07
5.74437e-07
5.73473e-07
5.72129e-07
5.70489e-07
5.68623e-07
5.66592e-07
5.6445e-07
5.62245e-07
5.60014e-07
5.57794e-07
5.55611e-07
5.5349e-07
5.5145e-07
5.49509e-07
5.47678e-07
5.4597e-07
5.44392e-07
5.42951e-07
5.41653e-07
5.405e-07
5.39495e-07
5.38639e-07
5.37932e-07
5.37372e-07
5.36957e-07
5.36684e-07
5.3655e-07
5.59045e-07
5.5816e-07
5.56928e-07
5.55423e-07
5.53709e-07
5.51842e-07
5.49872e-07
5.4784e-07
5.45784e-07
5.43734e-07
5.41717e-07
5.39755e-07
5.37866e-07
5.36066e-07
5.34367e-07
5.3278e-07
5.31313e-07
5.29972e-07
5.28762e-07
5.27687e-07
5.2675e-07
5.2595e-07
5.25289e-07
5.24765e-07
5.24376e-07
5.24121e-07
5.23995e-07
5.45361e-07
5.44543e-07
5.43403e-07
5.4201e-07
5.40423e-07
5.38692e-07
5.36864e-07
5.34977e-07
5.33065e-07
5.31157e-07
5.29278e-07
5.27449e-07
5.25685e-07
5.24003e-07
5.22414e-07
5.20928e-07
5.19553e-07
5.18296e-07
5.1716e-07
5.1615e-07
5.15269e-07
5.14516e-07
5.13894e-07
5.134e-07
5.13034e-07
5.12793e-07
5.12675e-07
5.33056e-07
5.32293e-07
5.3123e-07
5.2993e-07
5.28447e-07
5.26829e-07
5.25118e-07
5.23352e-07
5.2156e-07
5.1977e-07
5.18006e-07
5.16286e-07
5.14627e-07
5.13043e-07
5.11545e-07
5.10143e-07
5.08845e-07
5.07656e-07
5.06582e-07
5.05627e-07
5.04792e-07
5.04079e-07
5.03489e-07
5.0302e-07
5.02673e-07
5.02444e-07
5.02331e-07
5.21849e-07
5.21132e-07
5.20132e-07
5.18908e-07
5.17511e-07
5.15987e-07
5.14373e-07
5.12705e-07
5.11011e-07
5.09319e-07
5.07648e-07
5.06019e-07
5.04446e-07
5.02942e-07
5.0152e-07
5.00187e-07
4.98952e-07
4.97821e-07
4.96798e-07
4.95887e-07
4.95091e-07
4.9441e-07
4.93847e-07
4.93399e-07
4.93067e-07
4.92848e-07
4.92741e-07
5.11498e-07
5.10817e-07
5.09869e-07
5.08707e-07
5.0738e-07
5.0593e-07
5.04395e-07
5.02807e-07
5.01194e-07
4.9958e-07
4.97986e-07
4.96429e-07
4.94926e-07
4.93488e-07
4.92126e-07
4.9085e-07
4.89666e-07
4.88581e-07
4.87599e-07
4.86725e-07
4.85959e-07
4.85306e-07
4.84763e-07
4.84333e-07
4.84013e-07
4.83803e-07
4.83699e-07
5.01782e-07
5.01131e-07
5.00223e-07
4.9911e-07
4.97839e-07
4.96449e-07
4.94976e-07
4.93451e-07
4.91901e-07
4.90349e-07
4.88815e-07
4.87317e-07
4.85868e-07
4.84481e-07
4.83168e-07
4.81936e-07
4.80792e-07
4.79744e-07
4.78794e-07
4.77948e-07
4.77208e-07
4.76575e-07
4.7605e-07
4.75633e-07
4.75323e-07
4.75119e-07
4.75018e-07
4.92504e-07
4.91875e-07
4.90998e-07
4.89922e-07
4.88692e-07
4.87347e-07
4.85921e-07
4.84444e-07
4.82942e-07
4.81437e-07
4.79948e-07
4.78493e-07
4.77085e-07
4.75737e-07
4.7446e-07
4.7326e-07
4.72147e-07
4.71126e-07
4.70201e-07
4.69376e-07
4.68654e-07
4.68036e-07
4.67524e-07
4.67117e-07
4.66814e-07
4.66615e-07
4.66517e-07
4.83472e-07
4.82859e-07
4.82003e-07
4.80953e-07
4.79753e-07
4.7844e-07
4.77046e-07
4.75602e-07
4.74132e-07
4.72659e-07
4.71202e-07
4.69776e-07
4.68396e-07
4.67075e-07
4.65821e-07
4.64644e-07
4.63551e-07
4.62548e-07
4.6164e-07
4.60829e-07
4.60119e-07
4.59512e-07
4.59008e-07
4.58608e-07
4.58311e-07
4.58114e-07
4.58018e-07
4.74503e-07
4.73899e-07
4.73056e-07
4.72022e-07
4.70838e-07
4.69543e-07
4.68168e-07
4.66742e-07
4.65291e-07
4.63836e-07
4.62395e-07
4.60985e-07
4.59621e-07
4.58313e-07
4.57072e-07
4.55907e-07
4.54825e-07
4.53832e-07
4.52931e-07
4.52128e-07
4.51425e-07
4.50823e-07
4.50324e-07
4.49927e-07
4.49632e-07
4.49437e-07
4.49341e-07
4.65413e-07
4.64812e-07
4.63972e-07
4.62942e-07
4.61763e-07
4.60473e-07
4.59102e-07
4.57681e-07
4.56234e-07
4.54782e-07
4.53344e-07
4.51937e-07
4.50575e-07
4.49269e-07
4.48029e-07
4.46866e-07
4.45784e-07
4.44791e-07
4.43892e-07
4.43089e-07
4.42386e-07
4.41785e-07
4.41286e-07
4.40889e-07
4.40594e-07
4.404e-07
4.40304e-07
4.56013e-07
4.55408e-07
4.54564e-07
4.53527e-07
4.52341e-07
4.51041e-07
4.49661e-07
4.4823e-07
4.46772e-07
4.45308e-07
4.4386e-07
4.42441e-07
4.41068e-07
4.39751e-07
4.38502e-07
4.37328e-07
4.36238e-07
4.35237e-07
4.3433e-07
4.33521e-07
4.32812e-07
4.32205e-07
4.31702e-07
4.31302e-07
4.31005e-07
4.30809e-07
4.30713e-07
4.4611e-07
4.45495e-07
4.44636e-07
4.43582e-07
4.42375e-07
4.41053e-07
4.39649e-07
4.38192e-07
4.36708e-07
4.35218e-07
4.33744e-07
4.323e-07
4.30902e-07
4.29562e-07
4.2829e-07
4.27096e-07
4.25986e-07
4.24968e-07
4.24045e-07
4.23222e-07
4.22501e-07
4.21885e-07
4.21373e-07
4.20967e-07
4.20665e-07
4.20466e-07
4.20367e-07
4.355e-07
4.34868e-07
4.33985e-07
4.32902e-07
4.31661e-07
4.30302e-07
4.28859e-07
4.27362e-07
4.25836e-07
4.24305e-07
4.2279e-07
4.21306e-07
4.1987e-07
4.18493e-07
4.17187e-07
4.1596e-07
4.14821e-07
4.13776e-07
4.12829e-07
4.11985e-07
4.11245e-07
4.10613e-07
4.10089e-07
4.09672e-07
4.09363e-07
4.09159e-07
4.09058e-07
4.23972e-07
4.23317e-07
4.224e-07
4.21276e-07
4.19988e-07
4.18578e-07
4.1708e-07
4.15526e-07
4.13943e-07
4.12355e-07
4.10783e-07
4.09245e-07
4.07756e-07
4.06329e-07
4.04976e-07
4.03706e-07
4.02527e-07
4.01445e-07
4.00465e-07
3.99592e-07
3.98828e-07
3.98175e-07
3.97633e-07
3.97203e-07
3.96883e-07
3.96673e-07
3.96569e-07
4.11309e-07
4.10622e-07
4.09662e-07
4.08485e-07
4.07136e-07
4.0566e-07
4.04092e-07
4.02465e-07
4.0081e-07
3.99149e-07
3.97505e-07
3.95898e-07
3.94342e-07
3.92852e-07
3.9144e-07
3.90114e-07
3.88885e-07
3.87757e-07
3.86736e-07
3.85827e-07
3.85031e-07
3.84352e-07
3.83788e-07
3.83341e-07
3.83009e-07
3.82791e-07
3.82683e-07
3.97288e-07
3.96563e-07
3.9555e-07
3.94308e-07
3.92885e-07
3.91328e-07
3.89675e-07
3.87961e-07
3.86216e-07
3.84467e-07
3.82737e-07
3.81046e-07
3.7941e-07
3.77844e-07
3.76361e-07
3.7497e-07
3.73679e-07
3.72497e-07
3.71427e-07
3.70475e-07
3.69642e-07
3.68931e-07
3.68342e-07
3.67875e-07
3.67528e-07
3.673e-07
3.67187e-07
3.81693e-07
3.80924e-07
3.79849e-07
3.7853e-07
3.77021e-07
3.75369e-07
3.73617e-07
3.71801e-07
3.69953e-07
3.68102e-07
3.66273e-07
3.64485e-07
3.62757e-07
3.61104e-07
3.59538e-07
3.58072e-07
3.56713e-07
3.55468e-07
3.54342e-07
3.53341e-07
3.52466e-07
3.51719e-07
3.51101e-07
3.50611e-07
3.50247e-07
3.50008e-07
3.49891e-07
3.64324e-07
3.63504e-07
3.62359e-07
3.60954e-07
3.59347e-07
3.5759e-07
3.55727e-07
3.53797e-07
3.51834e-07
3.4987e-07
3.47929e-07
3.46034e-07
3.44205e-07
3.42456e-07
3.40801e-07
3.39252e-07
3.37817e-07
3.36504e-07
3.35318e-07
3.34263e-07
3.33343e-07
3.32557e-07
3.31908e-07
3.31393e-07
3.31011e-07
3.30761e-07
3.30637e-07
3.45013e-07
3.44138e-07
3.42916e-07
3.41419e-07
3.39707e-07
3.37836e-07
3.35853e-07
3.33801e-07
3.31717e-07
3.29631e-07
3.27573e-07
3.25566e-07
3.23628e-07
3.21779e-07
3.2003e-07
3.18395e-07
3.16882e-07
3.15498e-07
3.14249e-07
3.1314e-07
3.12172e-07
3.11347e-07
3.10666e-07
3.10126e-07
3.09726e-07
3.09463e-07
3.09334e-07
3.23649e-07
3.22718e-07
3.21418e-07
3.19825e-07
3.18006e-07
3.16019e-07
3.13915e-07
3.11739e-07
3.09531e-07
3.07325e-07
3.05149e-07
3.03029e-07
3.00985e-07
2.99036e-07
2.97195e-07
2.95475e-07
2.93884e-07
2.92432e-07
2.91122e-07
2.89959e-07
2.88946e-07
2.88083e-07
2.8737e-07
2.86806e-07
2.86389e-07
2.86115e-07
2.8598e-07
3.0022e-07
2.99234e-07
2.97858e-07
2.96174e-07
2.94252e-07
2.92153e-07
2.89934e-07
2.87641e-07
2.85315e-07
2.82994e-07
2.80706e-07
2.78477e-07
2.76329e-07
2.74277e-07
2.72337e-07
2.70519e-07
2.68834e-07
2.67293e-07
2.65903e-07
2.64669e-07
2.63592e-07
2.62675e-07
2.61917e-07
2.61318e-07
2.60874e-07
2.60582e-07
2.60439e-07
2.74825e-07
2.73785e-07
2.72332e-07
2.70546e-07
2.68502e-07
2.66268e-07
2.63906e-07
2.61467e-07
2.58996e-07
2.56529e-07
2.541e-07
2.51735e-07
2.49457e-07
2.47285e-07
2.45235e-07
2.43321e-07
2.41555e-07
2.39943e-07
2.38491e-07
2.37204e-07
2.36084e-07
2.3513e-07
2.34344e-07
2.33722e-07
2.33262e-07
2.3296e-07
2.32812e-07
2.47217e-07
2.46113e-07
2.44574e-07
2.42694e-07
2.40551e-07
2.38219e-07
2.35758e-07
2.33222e-07
2.3066e-07
2.2811e-07
2.25605e-07
2.23175e-07
2.20842e-07
2.18624e-07
2.16539e-07
2.14597e-07
2.12808e-07
2.11179e-07
2.09715e-07
2.0842e-07
2.07293e-07
2.06336e-07
2.05547e-07
2.04924e-07
2.04463e-07
2.04161e-07
2.04013e-07
2.1801e-07
2.16888e-07
2.15327e-07
2.13421e-07
2.11255e-07
2.089e-07
2.06421e-07
2.03872e-07
2.01301e-07
1.98749e-07
1.96247e-07
1.93825e-07
1.91504e-07
1.89304e-07
1.87238e-07
1.85319e-07
1.83554e-07
1.81949e-07
1.80509e-07
1.79236e-07
1.78131e-07
1.77193e-07
1.7642e-07
1.75811e-07
1.75361e-07
1.75067e-07
1.74922e-07
1.8828e-07
1.8717e-07
1.85628e-07
1.83748e-07
1.81614e-07
1.79299e-07
1.76866e-07
1.74371e-07
1.71859e-07
1.69371e-07
1.66938e-07
1.64587e-07
1.62339e-07
1.60213e-07
1.5822e-07
1.56372e-07
1.54676e-07
1.53136e-07
1.51757e-07
1.50539e-07
1.49483e-07
1.48588e-07
1.47852e-07
1.47272e-07
1.46843e-07
1.46563e-07
1.46425e-07
1.58949e-07
1.57882e-07
1.56401e-07
1.54598e-07
1.52556e-07
1.50344e-07
1.48026e-07
1.45653e-07
1.43271e-07
1.40916e-07
1.3862e-07
1.36406e-07
1.34295e-07
1.32302e-07
1.30438e-07
1.28713e-07
1.27133e-07
1.25701e-07
1.24421e-07
1.23292e-07
1.22314e-07
1.21487e-07
1.20806e-07
1.20271e-07
1.19875e-07
1.19616e-07
1.19489e-07
1.30983e-07
1.29991e-07
1.28614e-07
1.26942e-07
1.2505e-07
1.23008e-07
1.20871e-07
1.1869e-07
1.16507e-07
1.14354e-07
1.1226e-07
1.10247e-07
1.08332e-07
1.06528e-07
1.04846e-07
1.03293e-07
1.01873e-07
1.00589e-07
9.9443e-08
9.84344e-08
9.75623e-08
9.6825e-08
9.62199e-08
9.57436e-08
9.53926e-08
9.51626e-08
9.50501e-08
1.05323e-07
1.04432e-07
1.03198e-07
1.01702e-07
1.00014e-07
9.81947e-08
9.62972e-08
9.43659e-08
9.24375e-08
9.05422e-08
8.87041e-08
8.69423e-08
8.52712e-08
8.3702e-08
8.22424e-08
8.08979e-08
7.96719e-08