/*--------------------------------*- C++ -*----------------------------------*\
| =========                 |                                                 |
| \\      /  F ield         | OpenFOAM: The Open Source CFD Toolbox           |
|  \\    /   O peration     | Version:  2106                                  |
|   \\  /    A nd           | Website:  www.openfoam.com                      |
|    \\/     M anipulation  |                                                 |
\*---------------------------------------------------------------------------*/
FoamFile
{
    version     2.0;
    format      ascii;
    arch        "LSB;label=32;scalar=64";
    class       volScalarField;
    location    "160.00011";
    object      CH4_0;
}
// * * * * * * * * * * * * * * * * * * * * * * * * * * * * * * * * * * * * * //

dimensions      [0 0 0 0 0 0 0];

internalField   nonuniform List<scalar> 
3360
(
0.000419988
0.000419988
0.000419988
0.000419988
0.000419988
0.000419988
0.000419988
0.000419988
0.000419988
0.000419988
0.000419988
0.000419988
0.000419988
0.000419988
0.000419988
0.000419988
0.000419988
0.000419988
0.000419988
0.000419988
0.000419988
0.000419988
0.000419988
0.000419988
0.000419988
0.000419988
0.000419988
0.000419988
0.000419988
0.000419988
0.000419988
0.000419988
0.000419988
0.000419988
0.000419988
0.000419988
0.000419988
0.000419988
0.000419988
0.000419988
0.000419988
0.000419988
0.000419988
0.000419988
0.000419988
0.000419988
0.000419988
0.000419988
0.000419988
0.000419988
0.000419988
0.000419988
0.000419988
0.000419988
0.000419988
0.000419988
0.000419988
0.000419988
0.000419988
0.000419988
0.000419988
0.000419988
0.000419988
0.000419988
0.000419988
0.000419988
0.000419988
0.000419988
0.000419988
0.000419988
0.000419988
0.000419988
0.000419988
0.000419988
0.000419988
0.000419988
0.000419988
0.000419988
0.000419988
0.000419988
0.000419988
0.000419988
0.000419988
0.000419988
0.000419988
0.000419988
0.000419988
0.000419988
0.000419988
0.000419988
0.000419988
0.000419988
0.000419988
0.000419988
0.000419988
0.000419988
0.000419988
0.000419988
0.000419988
0.000419988
0.000419988
0.000419988
0.000419988
0.000419988
0.000419988
0.000419988
0.000419988
0.000419988
0.000419988
0.000419988
0.000419988
0.000419988
0.000419988
0.000419988
0.000419988
0.000419988
0.000419988
0.000419988
0.000419988
0.000419988
0.000419988
0.000419988
0.000419988
0.000419988
0.000419988
0.000419988
0.000419988
0.000419988
0.000419988
0.000419988
0.000419988
0.000419988
0.000419988
0.000419988
0.000419988
0.000419988
0.000419988
0.000419988
0.000419988
0.000419988
0.000419988
0.000419988
0.000419988
0.000419988
0.000419988
0.000419988
0.000419988
0.000419988
0.000419988
0.000419988
0.000419988
0.000419988
0.000419988
0.000419988
0.000419988
0.000419988
0.000419988
0.000419988
0.000419988
0.000419988
0.000419988
0.000419988
0.000419988
0.000419988
0.000419988
0.000419988
0.000419988
0.000419988
0.000419988
0.000419988
0.000419988
0.000419988
0.000419988
0.000419988
0.000419988
0.000419988
0.000419988
0.000419988
0.000419988
0.000419988
0.000419988
0.000419988
0.000419988
0.000419988
0.000419988
0.000419988
0.000419988
0.000419988
0.000419988
0.000419988
0.000419988
0.000419988
0.000419988
0.000419988
0.000419988
0.000419988
0.000419988
0.000419988
0.000419988
0.000419988
0.000419988
0.000419988
0.000419988
0.000419988
0.000419988
0.000419988
0.000419988
0.000419988
0.000419988
0.000419988
0.000419988
0.000419988
0.000419988
0.000419988
0.000419988
0.000419988
0.000419988
0.000419988
0.000419988
0.000419988
0.000419988
0.000419988
0.000419988
0.000419988
0.000419988
0.000419988
0.000419988
0.000419988
0.000419988
0.000419988
0.000419988
0.000419988
0.000419988
0.000419988
0.000419988
0.000419988
0.000419988
0.000419988
0.000419988
0.000419988
0.000419988
0.000419988
0.000419988
0.000419988
0.000419988
0.000419988
0.000419988
0.000419988
0.000419988
0.000419988
0.000419988
0.000419988
0.000419988
0.000419988
0.000419988
0.000419988
0.000419988
0.000419988
0.000419988
0.000419988
0.000419988
0.000419988
0.000419988
0.000419988
0.000419988
0.000419988
0.000419988
0.000419988
0.000419988
0.000419988
0.000419988
0.000419988
0.000419988
0.000419988
0.000419988
0.000419988
0.000419988
0.000419988
0.000419988
0.000419988
0.000419988
0.000419988
0.000419988
0.000419988
0.000419988
0.000419988
0.000419988
0.000419988
0.000419988
0.000419988
0.000419988
0.000419988
0.000419988
0.000419988
0.000419988
0.000419988
0.000419988
0.000419988
0.000419988
0.000419988
0.000419988
0.000419988
0.000419988
0.000419988
0.000419988
0.000419988
0.000419988
0.000419988
0.000419988
0.000419988
0.000419988
0.000419988
0.000419988
0.000419988
0.000419988
0.000419988
0.000419988
0.000419988
0.000419988
0.000419988
0.000419988
0.000419988
0.000419988
0.000419988
0.000419988
0.000419988
0.000419988
0.000419988
0.000419988
0.000419988
0.000419988
0.000419988
0.000419988
0.000419988
0.000419988
0.000419988
0.000419988
0.000419988
0.000419988
0.000419988
0.000419988
0.000419988
0.000419988
0.000419988
0.000419988
0.000419988
0.000419988
0.000419988
0.000419988
0.000419988
0.000419988
0.000419988
0.000419988
0.000419988
0.000419988
0.000419988
0.000419988
0.000419988
0.000419988
0.000419988
0.000419988
0.000419988
0.000419988
0.000419988
0.000419988
0.000419988
0.000419988
0.000419988
0.000419988
0.000419988
0.000419988
0.000419988
0.000419988
0.000419988
0.000419988
0.000419988
0.000419988
0.000419988
0.000419988
0.000419988
0.000419988
0.000419988
0.000419988
0.000419988
0.000419988
0.000419988
0.000419988
0.000419988
0.000419988
0.000419988
0.000419988
0.000419988
0.000419988
0.000419988
0.000419988
0.000419988
0.000419988
0.000419988
0.000419988
0.000419988
0.000419988
0.000419988
0.000419988
0.000419988
0.000419988
0.000419988
0.000419988
0.000419988
0.000419988
0.000419988
0.000419988
0.000419988
0.000419988
0.000419988
0.000419988
0.000419988
0.000419988
0.000419988
0.000419988
0.000419988
0.000419988
0.000419988
0.000419988
0.000419988
0.000419988
0.000419988
0.000419988
0.000419988
0.000419988
0.000419988
0.000419988
0.000419988
0.000419988
0.000419988
0.000419988
0.000419988
0.000419988
0.000419988
0.000419989
0.000419989
0.000419989
0.000419989
0.000419989
0.000419989
0.000419989
0.000419989
0.000419989
0.000419989
0.000419989
0.000419989
0.000419989
0.000419989
0.000419989
0.000419989
0.000419989
0.000419989
0.000419989
0.000419989
0.000419989
0.000419989
0.000419989
0.000419989
0.000419989
0.000419989
0.000419989
0.00041999
0.00041999
0.00041999
0.00041999
0.00041999
0.00041999
0.00041999
0.000419991
0.000419991
0.000419991
0.000419991
0.000419991
0.000419991
0.000419991
0.000419991
0.000419991
0.000419991
0.000419992
0.000419992
0.000419992
0.000419992
0.000419991
0.000419991
0.000419991
0.000419991
0.000419992
0.000419992
0.000419992
0.000419993
0.000419993
0.000419994
0.000419994
0.000419994
0.000419995
0.000419995
0.000419996
0.000419996
0.000419996
0.000419996
0.000419997
0.000419997
0.000419997
0.000419997
0.000419997
0.000419998
0.000419998
0.000419998
0.000419998
0.000419996
0.000419996
0.000419997
0.000419997
0.000419998
0.000419999
0.00042
0.000420001
0.000420002
0.000420003
0.000420004
0.000420005
0.000420006
0.000420007
0.000420008
0.000420009
0.00042001
0.000420011
0.000420011
0.000420012
0.000420012
0.000420013
0.000420013
0.000420013
0.000420013
0.000420013
0.000420013
0.000420009
0.00042001
0.000420011
0.000420013
0.000420015
0.000420017
0.00042002
0.000420022
0.000420025
0.000420028
0.00042003
0.000420033
0.000420035
0.000420038
0.00042004
0.000420042
0.000420044
0.000420046
0.000420047
0.000420048
0.000420049
0.00042005
0.000420051
0.000420052
0.000420052
0.000420052
0.000420052
0.000420043
0.000420046
0.000420049
0.000420053
0.000420058
0.000420064
0.000420069
0.000420076
0.000420082
0.000420088
0.000420094
0.0004201
0.000420106
0.000420112
0.000420117
0.000420121
0.000420126
0.00042013
0.000420133
0.000420136
0.000420138
0.00042014
0.000420142
0.000420143
0.000420144
0.000420145
0.000420145
0.000420129
0.000420135
0.000420143
0.000420153
0.000420164
0.000420177
0.00042019
0.000420204
0.000420218
0.000420232
0.000420246
0.000420259
0.000420272
0.000420284
0.000420295
0.000420305
0.000420314
0.000420323
0.00042033
0.000420336
0.000420341
0.000420346
0.000420349
0.000420352
0.000420354
0.000420355
0.000420356
0.000420337
0.000420349
0.000420367
0.000420388
0.000420413
0.00042044
0.000420469
0.000420498
0.000420528
0.000420558
0.000420587
0.000420615
0.000420642
0.000420667
0.00042069
0.000420712
0.000420731
0.000420748
0.000420763
0.000420776
0.000420787
0.000420796
0.000420803
0.000420809
0.000420813
0.000420815
0.000420817
0.000420812
0.000420838
0.000420875
0.00042092
0.000420971
0.000421027
0.000421086
0.000421147
0.000421208
0.000421268
0.000421328
0.000421384
0.000421438
0.000421489
0.000421535
0.000421578
0.000421616
0.00042165
0.00042168
0.000421706
0.000421728
0.000421746
0.00042176
0.000421771
0.000421779
0.000421784
0.000421786
0.000421852
0.000421905
0.000421978
0.000422067
0.000422169
0.00042228
0.000422397
0.000422516
0.000422637
0.000422756
0.000422872
0.000422983
0.000423088
0.000423186
0.000423276
0.000423358
0.000423433
0.000423498
0.000423556
0.000423606
0.000423647
0.000423682
0.000423709
0.00042373
0.000423746
0.000423755
0.00042376
0.000424032
0.000424133
0.000424273
0.000424446
0.000424642
0.000424855
0.000425079
0.000425308
0.000425538
0.000425765
0.000425986
0.000426197
0.000426396
0.000426582
0.000426753
0.000426909
0.000427049
0.000427173
0.000427282
0.000427375
0.000427454
0.000427519
0.000427571
0.00042761
0.000427639
0.000427657
0.000427665
0.000428413
0.000428604
0.000428869
0.000429193
0.000429561
0.000429961
0.000430382
0.000430813
0.000431245
0.00043167
0.000432083
0.000432478
0.000432851
0.000433199
0.00043352
0.000433811
0.000434073
0.000434306
0.000434509
0.000434684
0.000434831
0.000434952
0.000435049
0.000435123
0.000435176
0.000435209
0.000435225
0.000436875
0.000437228
0.000437718
0.000438318
0.000439001
0.000439743
0.000440524
0.000441325
0.000442129
0.000442922
0.000443693
0.000444432
0.000445131
0.000445783
0.000446386
0.000446935
0.000447429
0.000447868
0.000448253
0.000448584
0.000448863
0.000449094
0.000449278
0.000449419
0.000449519
0.000449583
0.000449614
0.000452502
0.000453142
0.000454036
0.00045513
0.000456379
0.00045774
0.000459176
0.000460654
0.000462143
0.000463619
0.000465059
0.000466444
0.000467761
0.000468997
0.000470144
0.000471194
0.000472145
0.000472993
0.00047374
0.000474386
0.000474935
0.000475389
0.000475754
0.000476034
0.000476236
0.000476364
0.000476426
0.000479821
0.000480948
0.000482524
0.000484458
0.00048667
0.000489091
0.000491654
0.000494302
0.000496984
0.000499654
0.000502272
0.000504806
0.000507227
0.000509512
0.000511643
0.000513606
0.000515393
0.000516997
0.000518417
0.000519652
0.000520706
0.000521584
0.000522292
0.000522839
0.000523234
0.000523486
0.000523607
0.000524422
0.000526278
0.000528873
0.000532061
0.000535713
0.000539711
0.00054395
0.000548335
0.00055278
0.000557212
0.000561563
0.000565778
0.000569808
0.000573617
0.000577171
0.000580449
0.000583433
0.000586114
0.000588487
0.000590553
0.000592316
0.000593785
0.00059497
0.000595885
0.000596546
0.000596969
0.000597172
0.000591326
0.000594066
0.000597892
0.00060258
0.000607934
0.000613776
0.000619948
0.000626305
0.000632722
0.000639088
0.000645308
0.000651301
0.000657003
0.00066236
0.000667333
0.000671894
0.000676023
0.000679712
0.000682961
0.000685774
0.000688164
0.000690145
0.000691737
0.000692962
0.000693843
0.000694405
0.000694673
0.000681922
0.000685435
0.000690322
0.000696281
0.000703045
0.000710375
0.000718059
0.000725911
0.000733769
0.000741497
0.00074898
0.000756127
0.000762867
0.000769147
0.000774928
0.000780187
0.000784914
0.000789107
0.000792774
0.00079593
0.000798593
0.00080079
0.000802545
0.000803889
0.000804852
0.000805463
0.000805754
0.000791099
0.000794971
0.000800333
0.000806832
0.000814158
0.000822036
0.000830227
0.000838524
0.000846755
0.000854777
0.000862479
0.000869772
0.000876592
0.000882894
0.000888652
0.000893851
0.000898492
0.000902582
0.000906138
0.00090918
0.000911735
0.000913832
0.000915501
0.000916773
0.00091768
0.000918255
0.000918527
0.000907977
0.000911703
0.000916842
0.00092304
0.000929986
0.000937408
0.000945071
0.00095278
0.000960374
0.000967724
0.000974733
0.000981327
0.000987456
0.000993086
0.000998202
0.0010028
0.00100688
0.00101047
0.00101357
0.00101622
0.00101843
0.00102025
0.00102169
0.00102278
0.00102356
0.00102405
0.00102429
0.00102072
0.00102394
0.00102838
0.0010337
0.00103965
0.00104598
0.00105249
0.00105901
0.0010654
0.00107157
0.00107742
0.00108291
0.001088
0.00109266
0.00109688
0.00110066
0.00110402
0.00110696
0.0011095
0.00111166
0.00111347
0.00111496
0.00111613
0.00111702
0.00111766
0.00111806
0.00111825
0.00112096
0.00112355
0.00112711
0.00113139
0.00113616
0.00114122
0.00114641
0.00115161
0.0011567
0.0011616
0.00116625
0.00117061
0.00117464
0.00117833
0.00118167
0.00118467
0.00118733
0.00118966
0.00119167
0.00119339
0.00119482
0.001196
0.00119693
0.00119764
0.00119814
0.00119846
0.00119861
0.0012052
0.00120721
0.00120996
0.00121327
0.00121696
0.00122088
0.0012249
0.00122893
0.00123287
0.00123667
0.00124028
0.00124366
0.00124679
0.00124967
0.00125227
0.00125461
0.00125668
0.0012585
0.00126008
0.00126142
0.00126255
0.00126347
0.0012642
0.00126476
0.00126516
0.00126541
0.00126553
0.00127363
0.00127517
0.00127727
0.00127981
0.00128263
0.00128564
0.00128873
0.00129182
0.00129486
0.0012978
0.00130058
0.0013032
0.00130563
0.00130786
0.00130989
0.00131171
0.00131333
0.00131475
0.00131599
0.00131704
0.00131793
0.00131865
0.00131923
0.00131967
0.00131998
0.00132018
0.00132028
0.0013283
0.00132948
0.0013311
0.00133305
0.00133523
0.00133755
0.00133994
0.00134234
0.00134469
0.00134697
0.00134914
0.00135119
0.00135309
0.00135483
0.00135642
0.00135785
0.00135913
0.00136025
0.00136122
0.00136205
0.00136275
0.00136333
0.00136378
0.00136413
0.00136438
0.00136454
0.00136461
0.00137177
0.00137268
0.00137395
0.00137547
0.00137717
0.00137899
0.00138086
0.00138274
0.0013846
0.00138639
0.00138811
0.00138972
0.00139122
0.00139261
0.00139387
0.00139501
0.00139602
0.00139691
0.00139769
0.00139835
0.00139891
0.00139937
0.00139973
0.00140001
0.00140021
0.00140034
0.0014004
0.00140641
0.00140714
0.00140814
0.00140935
0.0014107
0.00141215
0.00141364
0.00141514
0.00141662
0.00141806
0.00141943
0.00142073
0.00142194
0.00142305
0.00142406
0.00142498
0.0014258
0.00142652
0.00142714
0.00142768
0.00142813
0.0014285
0.0014288
0.00142902
0.00142918
0.00142929
0.00142934
0.00143423
0.00143482
0.00143563
0.0014366
0.0014377
0.00143887
0.00144008
0.0014413
0.0014425
0.00144367
0.00144479
0.00144584
0.00144682
0.00144773
0.00144856
0.00144931
0.00144997
0.00145056
0.00145107
0.00145151
0.00145188
0.00145219
0.00145243
0.00145261
0.00145275
0.00145283
0.00145287
0.0014568
0.00145728
0.00145795
0.00145875
0.00145965
0.00146061
0.00146161
0.00146262
0.00146361
0.00146457
0.0014655
0.00146637
0.00146718
0.00146793
0.00146861
0.00146923
0.00146979
0.00147027
0.0014707
0.00147106
0.00147137
0.00147162
0.00147182
0.00147197
0.00147208
0.00147215
0.00147218
0.00147533
0.00147574
0.00147629
0.00147696
0.00147772
0.00147852
0.00147936
0.0014802
0.00148103
0.00148183
0.00148261
0.00148334
0.00148402
0.00148465
0.00148522
0.00148574
0.0014862
0.00148661
0.00148697
0.00148727
0.00148753
0.00148774
0.00148791
0.00148804
0.00148813
0.00148819
0.00148822
0.00149076
0.0014911
0.00149157
0.00149214
0.00149278
0.00149347
0.00149417
0.00149489
0.00149559
0.00149628
0.00149693
0.00149755
0.00149813
0.00149867
0.00149916
0.0014996
0.00149999
0.00150034
0.00150064
0.0015009
0.00150112
0.0015013
0.00150144
0.00150155
0.00150163
0.00150168
0.00150171
0.00150379
0.00150408
0.00150449
0.00150498
0.00150553
0.00150611
0.00150672
0.00150734
0.00150794
0.00150854
0.0015091
0.00150964
0.00151013
0.0015106
0.00151102
0.0015114
0.00151174
0.00151204
0.0015123
0.00151252
0.00151271
0.00151287
0.00151299
0.00151309
0.00151315
0.0015132
0.00151322
0.00151495
0.0015152
0.00151556
0.00151599
0.00151646
0.00151698
0.00151751
0.00151805
0.00151858
0.00151909
0.00151959
0.00152005
0.00152049
0.00152089
0.00152126
0.0015216
0.00152189
0.00152216
0.00152238
0.00152258
0.00152275
0.00152288
0.00152299
0.00152307
0.00152313
0.00152317
0.00152319
0.00152466
0.00152488
0.0015252
0.00152557
0.001526
0.00152645
0.00152692
0.0015274
0.00152787
0.00152833
0.00152876
0.00152918
0.00152956
0.00152992
0.00153025
0.00153054
0.00153081
0.00153104
0.00153124
0.00153142
0.00153156
0.00153168
0.00153178
0.00153185
0.00153191
0.00153194
0.00153196
0.00153323
0.00153343
0.00153371
0.00153405
0.00153443
0.00153484
0.00153526
0.00153569
0.00153611
0.00153652
0.00153691
0.00153729
0.00153763
0.00153796
0.00153825
0.00153852
0.00153875
0.00153896
0.00153914
0.0015393
0.00153943
0.00153954
0.00153963
0.00153969
0.00153974
0.00153977
0.00153978
0.00154091
0.00154109
0.00154135
0.00154166
0.001542
0.00154237
0.00154276
0.00154314
0.00154353
0.0015439
0.00154426
0.0015446
0.00154492
0.00154521
0.00154548
0.00154572
0.00154593
0.00154613
0.00154629
0.00154643
0.00154655
0.00154665
0.00154673
0.00154679
0.00154684
0.00154686
0.00154688
0.00154789
0.00154806
0.00154829
0.00154857
0.00154889
0.00154923
0.00154959
0.00154994
0.0015503
0.00155064
0.00155097
0.00155129
0.00155158
0.00155185
0.00155209
0.00155232
0.00155252
0.00155269
0.00155285
0.00155298
0.00155309
0.00155318
0.00155325
0.00155331
0.00155335
0.00155337
0.00155339
0.00155431
0.00155447
0.00155469
0.00155495
0.00155525
0.00155556
0.00155589
0.00155623
0.00155656
0.00155688
0.00155719
0.00155748
0.00155775
0.001558
0.00155823
0.00155844
0.00155863
0.00155879
0.00155893
0.00155906
0.00155916
0.00155925
0.00155931
0.00155937
0.0015594
0.00155943
0.00155944
0.0015603
0.00156044
0.00156065
0.0015609
0.00156118
0.00156148
0.00156179
0.0015621
0.00156241
0.00156271
0.001563
0.00156328
0.00156353
0.00156377
0.00156399
0.00156419
0.00156436
0.00156452
0.00156465
0.00156477
0.00156487
0.00156495
0.00156501
0.00156506
0.00156509
0.00156512
0.00156513
0.00156593
0.00156607
0.00156627
0.0015665
0.00156677
0.00156705
0.00156735
0.00156765
0.00156794
0.00156823
0.0015685
0.00156877
0.00156901
0.00156924
0.00156944
0.00156963
0.0015698
0.00156995
0.00157007
0.00157019
0.00157028
0.00157036
0.00157042
0.00157046
0.0015705
0.00157052
0.00157053
0.00157129
0.00157143
0.00157161
0.00157184
0.00157209
0.00157237
0.00157265
0.00157293
0.00157322
0.00157349
0.00157376
0.00157401
0.00157424
0.00157446
0.00157466
0.00157484
0.001575
0.00157514
0.00157526
0.00157537
0.00157546
0.00157553
0.00157559
0.00157564
0.00157567
0.00157569
0.0015757
0.00157643
0.00157656
0.00157674
0.00157696
0.0015772
0.00157747
0.00157774
0.00157802
0.00157829
0.00157856
0.00157881
0.00157905
0.00157928
0.00157949
0.00157968
0.00157986
0.00158001
0.00158015
0.00158027
0.00158037
0.00158046
0.00158053
0.00158058
0.00158063
0.00158066
0.00158068
0.00158069
0.0015814
0.00158152
0.0015817
0.00158191
0.00158214
0.0015824
0.00158266
0.00158293
0.0015832
0.00158346
0.00158371
0.00158394
0.00158416
0.00158437
0.00158455
0.00158472
0.00158487
0.00158501
0.00158512
0.00158522
0.00158531
0.00158538
0.00158543
0.00158547
0.0015855
0.00158552
0.00158553
0.00158622
0.00158634
0.00158651
0.00158672
0.00158695
0.0015872
0.00158746
0.00158772
0.00158798
0.00158823
0.00158847
0.0015887
0.00158892
0.00158912
0.0015893
0.00158947
0.00158961
0.00158974
0.00158986
0.00158996
0.00159004
0.00159011
0.00159016
0.0015902
0.00159023
0.00159025
0.00159026
0.00159093
0.00159105
0.00159121
0.00159142
0.00159164
0.00159189
0.00159214
0.0015924
0.00159265
0.0015929
0.00159314
0.00159336
0.00159358
0.00159377
0.00159395
0.00159411
0.00159426
0.00159439
0.0015945
0.00159459
0.00159467
0.00159474
0.00159479
0.00159483
0.00159486
0.00159488
0.00159489
0.00159554
0.00159566
0.00159583
0.00159603
0.00159625
0.00159649
0.00159674
0.00159699
0.00159724
0.00159749
0.00159772
0.00159794
0.00159815
0.00159835
0.00159852
0.00159868
0.00159882
0.00159895
0.00159906
0.00159915
0.00159923
0.0015993
0.00159935
0.00159939
0.00159942
0.00159944
0.00159945
0.00160009
0.00160021
0.00160037
0.00160056
0.00160079
0.00160102
0.00160127
0.00160152
0.00160177
0.00160201
0.00160224
0.00160246
0.00160266
0.00160285
0.00160303
0.00160319
0.00160333
0.00160345
0.00160356
0.00160365
0.00160373
0.0016038
0.00160385
0.00160389
0.00160392
0.00160393
0.00160394
0.00160457
0.00160469
0.00160485
0.00160504
0.00160526
0.0016055
0.00160574
0.00160599
0.00160623
0.00160647
0.0016067
0.00160692
0.00160712
0.00160731
0.00160748
0.00160764
0.00160778
0.0016079
0.00160801
0.0016081
0.00160818
0.00160824
0.00160829
0.00160833
0.00160836
0.00160838
0.00160839
0.00160901
0.00160912
0.00160928
0.00160947
0.00160969
0.00160992
0.00161016
0.00161041
0.00161065
0.00161089
0.00161111
0.00161133
0.00161153
0.00161172
0.00161189
0.00161204
0.00161218
0.0016123
0.00161241
0.0016125
0.00161258
0.00161264
0.00161269
0.00161273
0.00161276
0.00161278
0.00161278
0.0016134
0.00161351
0.00161367
0.00161386
0.00161407
0.0016143
0.00161454
0.00161479
0.00161503
0.00161526
0.00161549
0.0016157
0.0016159
0.00161608
0.00161625
0.00161641
0.00161654
0.00161667
0.00161677
0.00161686
0.00161694
0.001617
0.00161705
0.00161709
0.00161712
0.00161714
0.00161714
0.00161775
0.00161786
0.00161802
0.00161821
0.00161842
0.00161865
0.00161889
0.00161913
0.00161937
0.0016196
0.00161982
0.00162003
0.00162023
0.00162042
0.00162058
0.00162074
0.00162087
0.00162099
0.0016211
0.00162119
0.00162127
0.00162133
0.00162138
0.00162142
0.00162144
0.00162146
0.00162147
0.00162206
0.00162218
0.00162233
0.00162252
0.00162273
0.00162296
0.00162319
0.00162343
0.00162367
0.0016239
0.00162412
0.00162433
0.00162453
0.00162471
0.00162488
0.00162503
0.00162517
0.00162529
0.00162539
0.00162548
0.00162556
0.00162562
0.00162567
0.00162571
0.00162573
0.00162575
0.00162576
0.00162634
0.00162645
0.00162661
0.0016268
0.00162701
0.00162723
0.00162747
0.0016277
0.00162794
0.00162817
0.00162839
0.0016286
0.00162879
0.00162897
0.00162914
0.00162929
0.00162942
0.00162954
0.00162965
0.00162974
0.00162981
0.00162987
0.00162992
0.00162996
0.00162999
0.00163
0.00163001
0.00163059
0.0016307
0.00163085
0.00163104
0.00163124
0.00163147
0.0016317
0.00163194
0.00163217
0.0016324
0.00163262
0.00163282
0.00163302
0.0016332
0.00163336
0.00163351
0.00163364
0.00163376
0.00163386
0.00163395
0.00163403
0.00163409
0.00163414
0.00163417
0.0016342
0.00163422
0.00163423
0.00163479
0.0016349
0.00163505
0.00163524
0.00163544
0.00163566
0.00163589
0.00163613
0.00163636
0.00163658
0.0016368
0.00163701
0.0016372
0.00163738
0.00163754
0.00163769
0.00163782
0.00163794
0.00163804
0.00163812
0.0016382
0.00163826
0.00163831
0.00163834
0.00163837
0.00163839
0.00163839
0.00163895
0.00163906
0.00163921
0.00163939
0.00163959
0.00163981
0.00164004
0.00164027
0.0016405
0.00164072
0.00164094
0.00164114
0.00164133
0.00164151
0.00164167
0.00164181
0.00164194
0.00164206
0.00164216
0.00164225
0.00164232
0.00164238
0.00164243
0.00164246
0.00164249
0.00164251
0.00164251
0.00164305
0.00164316
0.00164331
0.00164349
0.00164369
0.00164391
0.00164413
0.00164436
0.00164458
0.0016448
0.00164502
0.00164522
0.0016454
0.00164558
0.00164574
0.00164588
0.00164601
0.00164612
0.00164622
0.00164631
0.00164638
0.00164644
0.00164648
0.00164652
0.00164655
0.00164656
0.00164657
0.0016471
0.0016472
0.00164735
0.00164752
0.00164772
0.00164793
0.00164816
0.00164838
0.0016486
0.00164882
0.00164903
0.00164922
0.00164941
0.00164958
0.00164974
0.00164988
0.00165
0.00165012
0.00165021
0.0016503
0.00165037
0.00165042
0.00165047
0.00165051
0.00165053
0.00165055
0.00165055
0.00165106
0.00165117
0.00165131
0.00165148
0.00165168
0.00165189
0.0016521
0.00165232
0.00165254
0.00165275
0.00165296
0.00165315
0.00165333
0.0016535
0.00165365
0.00165379
0.00165391
0.00165402
0.00165412
0.0016542
0.00165427
0.00165433
0.00165437
0.00165441
0.00165443
0.00165445
0.00165445
0.00165494
0.00165504
0.00165518
0.00165535
0.00165554
0.00165575
0.00165596
0.00165617
0.00165638
0.00165659
0.00165679
0.00165698
0.00165715
0.00165732
0.00165747
0.0016576
0.00165772
0.00165783
0.00165792
0.001658
0.00165807
0.00165812
0.00165817
0.0016582
0.00165823
0.00165824
0.00165825
0.00165871
0.00165881
0.00165895
0.00165911
0.0016593
0.0016595
0.0016597
0.00165991
0.00166012
0.00166032
0.00166051
0.00166069
0.00166086
0.00166102
0.00166116
0.0016613
0.00166141
0.00166152
0.00166161
0.00166168
0.00166175
0.0016618
0.00166184
0.00166188
0.0016619
0.00166191
0.00166192
0.00166236
0.00166246
0.00166259
0.00166275
0.00166293
0.00166312
0.00166331
0.00166352
0.00166371
0.00166391
0.00166409
0.00166427
0.00166443
0.00166459
0.00166472
0.00166485
0.00166496
0.00166506
0.00166515
0.00166522
0.00166529
0.00166534
0.00166538
0.00166541
0.00166543
0.00166545
0.00166545
0.00166587
0.00166596
0.00166608
0.00166623
0.0016664
0.00166659
0.00166678
0.00166697
0.00166716
0.00166734
0.00166752
0.00166769
0.00166785
0.00166799
0.00166812
0.00166824
0.00166835
0.00166845
0.00166853
0.0016686
0.00166866
0.00166871
0.00166875
0.00166878
0.0016688
0.00166881
0.00166882
0.0016692
0.00166929
0.00166941
0.00166955
0.00166971
0.00166988
0.00167006
0.00167025
0.00167043
0.0016706
0.00167077
0.00167093
0.00167108
0.00167121
0.00167134
0.00167145
0.00167155
0.00167164
0.00167172
0.00167179
0.00167184
0.00167189
0.00167193
0.00167196
0.00167198
0.00167199
0.001672
0.00167234
0.00167242
0.00167254
0.00167267
0.00167282
0.00167299
0.00167315
0.00167332
0.00167349
0.00167366
0.00167381
0.00167396
0.0016741
0.00167423
0.00167435
0.00167445
0.00167455
0.00167463
0.0016747
0.00167476
0.00167482
0.00167486
0.00167489
0.00167492
0.00167494
0.00167495
0.00167496
0.00167527
0.00167534
0.00167545
0.00167557
0.00167571
0.00167586
0.00167602
0.00167618
0.00167633
0.00167648
0.00167663
0.00167676
0.00167689
0.00167701
0.00167712
0.00167722
0.0016773
0.00167738
0.00167745
0.0016775
0.00167755
0.00167759
0.00167762
0.00167765
0.00167766
0.00167767
0.00167768
0.00167796
0.00167802
0.00167812
0.00167823
0.00167836
0.0016785
0.00167864
0.00167878
0.00167892
0.00167906
0.00167919
0.00167931
0.00167943
0.00167954
0.00167963
0.00167972
0.0016798
0.00167987
0.00167993
0.00167998
0.00168003
0.00168006
0.00168009
0.00168011
0.00168013
0.00168014
0.00168014
0.00168038
0.00168044
0.00168052
0.00168063
0.00168074
0.00168086
0.00168099
0.00168112
0.00168124
0.00168136
0.00168148
0.00168159
0.00168169
0.00168179
0.00168187
0.00168195
0.00168202
0.00168208
0.00168213
0.00168218
0.00168222
0.00168225
0.00168228
0.00168229
0.00168231
0.00168232
0.00168232
0.00168252
0.00168257
0.00168265
0.00168274
0.00168284
0.00168294
0.00168305
0.00168316
0.00168327
0.00168338
0.00168348
0.00168357
0.00168366
0.00168374
0.00168382
0.00168389
0.00168395
0.001684
0.00168404
0.00168408
0.00168412
0.00168414
0.00168416
0.00168418
0.00168419
0.0016842
0.0016842
0.00168437
0.00168442
0.00168448
0.00168455
0.00168464
0.00168473
0.00168482
0.00168491
0.001685
0.00168509
0.00168518
0.00168526
0.00168533
0.0016854
0.00168546
0.00168552
0.00168557
0.00168561
0.00168565
0.00168568
0.00168571
0.00168573
0.00168575
0.00168577
0.00168577
0.00168578
0.00168578
0.00168592
0.00168596
0.00168601
0.00168607
0.00168614
0.00168621
0.00168629
0.00168637
0.00168644
0.00168651
0.00168658
0.00168665
0.00168671
0.00168676
0.00168681
0.00168686
0.0016869
0.00168693
0.00168696
0.00168699
0.00168701
0.00168703
0.00168704
0.00168706
0.00168706
0.00168707
0.00168707
0.00168718
0.00168721
0.00168725
0.0016873
0.00168736
0.00168741
0.00168747
0.00168753
0.00168759
0.00168765
0.0016877
0.00168775
0.0016878
0.00168784
0.00168788
0.00168792
0.00168795
0.00168797
0.001688
0.00168802
0.00168803
0.00168805
0.00168806
0.00168807
0.00168807
0.00168808
0.00168808
0.00168817
0.0016882
0.00168823
0.00168826
0.0016883
0.00168835
0.00168839
0.00168844
0.00168848
0.00168852
0.00168856
0.0016886
0.00168863
0.00168866
0.00168869
0.00168872
0.00168874
0.00168876
0.00168878
0.00168879
0.0016888
0.00168881
0.00168882
0.00168883
0.00168883
0.00168883
0.00168883
0.00168892
0.00168894
0.00168896
0.00168898
0.00168901
0.00168904
0.00168907
0.0016891
0.00168914
0.00168916
0.00168919
0.00168922
0.00168924
0.00168926
0.00168928
0.0016893
0.00168931
0.00168933
0.00168934
0.00168935
0.00168935
0.00168936
0.00168936
0.00168937
0.00168937
0.00168937
0.00168937
0.00168946
0.00168947
0.00168948
0.0016895
0.00168952
0.00168954
0.00168956
0.00168958
0.00168959
0.00168961
0.00168963
0.00168964
0.00168966
0.00168967
0.00168968
0.00168969
0.0016897
0.00168971
0.00168972
0.00168972
0.00168973
0.00168973
0.00168973
0.00168973
0.00168974
0.00168974
0.00168974
0.00168982
0.00168983
0.00168984
0.00168985
0.00168986
0.00168987
0.00168988
0.00168989
0.0016899
0.00168991
0.00168992
0.00168992
0.00168993
0.00168994
0.00168994
0.00168995
0.00168995
0.00168995
0.00168996
0.00168996
0.00168996
0.00168996
0.00168996
0.00168996
0.00168996
0.00168996
0.00168996
0.00169005
0.00169006
0.00169006
0.00169006
0.00169007
0.00169007
0.00169008
0.00169008
0.00169008
0.00169009
0.00169009
0.00169009
0.00169009
0.00169009
0.00169009
0.00169009
0.0016901
0.0016901
0.00169009
0.00169009
0.00169009
0.00169009
0.00169009
0.00169009
0.00169009
0.00169009
0.00169009
0.00169019
0.00169019
0.00169019
0.00169019
0.00169019
0.00169019
0.00169019
0.00169019
0.00169019
0.00169018
0.00169018
0.00169018
0.00169018
0.00169017
0.00169017
0.00169017
0.00169016
0.00169016
0.00169016
0.00169016
0.00169015
0.00169015
0.00169015
0.00169015
0.00169015
0.00169015
0.00169015
0.00169026
0.00169026
0.00169025
0.00169025
0.00169025
0.00169024
0.00169023
0.00169023
0.00169022
0.00169022
0.00169021
0.0016902
0.0016902
0.00169019
0.00169018
0.00169018
0.00169017
0.00169017
0.00169016
0.00169016
0.00169016
0.00169015
0.00169015
0.00169015
0.00169015
0.00169015
0.00169015
0.00169027
0.00169027
0.00169026
0.00169025
0.00169025
0.00169024
0.00169023
0.00169022
0.00169021
0.0016902
0.00169019
0.00169018
0.00169017