/*--------------------------------*- C++ -*----------------------------------*\
| =========                 |                                                 |
| \\      /  F ield         | OpenFOAM: The Open Source CFD Toolbox           |
|  \\    /   O peration     | Version:  2106                                  |
|   \\  /    A nd           | Website:  www.openfoam.com                      |
|    \\/     M anipulation  |                                                 |
\*---------------------------------------------------------------------------*/
FoamFile
{
    version     2.0;
    format      ascii;
    arch        "LSB;label=32;scalar=64";
    class       volScalarField;
    location    "160.00011";
    object      H2_0;
}
// * * * * * * * * * * * * * * * * * * * * * * * * * * * * * * * * * * * * * //

dimensions      [0 0 0 0 0 0 0];

internalField   nonuniform List<scalar> 
3360
(
1.04152e-17
1.07504e-17
1.12168e-17
1.17872e-17
1.2438e-17
1.31478e-17
1.38972e-17
1.46689e-17
1.54474e-17
1.6219e-17
1.69718e-17
1.76958e-17
1.83827e-17
1.90258e-17
1.96201e-17
2.01621e-17
2.06496e-17
2.10816e-17
2.14585e-17
2.17812e-17
2.20517e-17
2.22727e-17
2.24472e-17
2.25789e-17
2.26715e-17
2.27291e-17
2.27559e-17
4.56893e-17
4.73686e-17
4.97383e-17
5.26893e-17
5.61312e-17
5.99852e-17
6.41809e-17
6.86538e-17
7.33439e-17
7.81945e-17
8.31512e-17
8.81611e-17
9.31721e-17
9.81325e-17
1.02992e-16
1.077e-16
1.12208e-16
1.16469e-16
1.20438e-16
1.24071e-16
1.27331e-16
1.30182e-16
1.32595e-16
1.34546e-16
1.36019e-16
1.37003e-16
1.37493e-16
1.43355e-16
1.49646e-16
1.58586e-16
1.6982e-16
1.83053e-16
1.9802e-16
2.14471e-16
2.32158e-16
2.50829e-16
2.70229e-16
2.90096e-16
3.1017e-16
3.30193e-16
3.49913e-16
3.69081e-16
3.87467e-16
4.04853e-16
4.21046e-16
4.35878e-16
4.49209e-16
4.60932e-16
4.70971e-16
4.79281e-16
4.85849e-16
4.90692e-16
4.9385e-16
4.95387e-16
4.17487e-16
4.38223e-16
4.67886e-16
5.05415e-16
5.49923e-16
6.0058e-16
6.56554e-16
7.16984e-16
7.80967e-16
8.47555e-16
9.15765e-16
9.84601e-16
1.05307e-15
1.12021e-15
1.1851e-15
1.2469e-15
1.30487e-15
1.35838e-15
1.40691e-15
1.45008e-15
1.48764e-15
1.51946e-15
1.54553e-15
1.56591e-15
1.58078e-15
1.59039e-15
1.59502e-15
1.21972e-15
1.28514e-15
1.37889e-15
1.49778e-15
1.63909e-15
1.8002e-15
1.97844e-15
2.17096e-15
2.37472e-15
2.58652e-15
2.80307e-15
3.02102e-15
3.2371e-15
3.4482e-15
3.65142e-15
3.84417e-15
4.02421e-15
4.1897e-15
4.33921e-15
4.47172e-15
4.58661e-15
4.68361e-15
4.76282e-15
4.82459e-15
4.86956e-15
4.89853e-15
4.91247e-15
3.59637e-15
3.79725e-15
4.08552e-15
4.45141e-15
4.88653e-15
5.38277e-15
5.93176e-15
6.52455e-15
7.1516e-15
7.80287e-15
8.468e-15
9.13658e-15
9.79847e-15
1.0444e-14
1.10644e-14
1.16518e-14
1.21994e-14
1.27019e-14
1.3155e-14
1.35559e-14
1.39029e-14
1.41954e-14
1.44339e-14
1.46196e-14
1.47547e-14
1.48415e-14
1.48833e-14
1.06829e-14
1.12933e-14
1.21692e-14
1.3281e-14
1.46031e-14
1.61105e-14
1.77775e-14
1.95764e-14
2.1478e-14
2.34514e-14
2.54649e-14
2.74869e-14
2.94868e-14
3.14354e-14
3.33063e-14
3.5076e-14
3.67247e-14
3.82363e-14
3.95986e-14
4.08032e-14
4.18452e-14
4.27234e-14
4.34391e-14
4.39964e-14
4.44014e-14
4.46619e-14
4.47872e-14
3.18392e-14
3.36759e-14
3.63128e-14
3.9661e-14
4.36436e-14
4.81853e-14
5.3208e-14
5.86279e-14
6.4356e-14
7.02991e-14
7.63613e-14
8.24472e-14
8.84639e-14
9.4324e-14
9.99481e-14
1.05266e-13
1.10217e-13
1.14755e-13
1.18843e-13
1.22456e-13
1.2558e-13
1.28212e-13
1.30356e-13
1.32025e-13
1.33237e-13
1.34017e-13
1.34391e-13
9.51447e-14
1.00665e-13
1.08588e-13
1.18648e-13
1.30612e-13
1.44253e-13
1.59335e-13
1.75605e-13
1.92796e-13
2.10625e-13
2.28806e-13
2.4705e-13
2.65082e-13
2.82639e-13
2.99483e-13
3.15406e-13
3.30229e-13
3.43811e-13
3.56045e-13
3.66856e-13
3.76203e-13
3.84077e-13
3.90491e-13
3.95483e-13
3.9911e-13
4.01443e-13
4.02563e-13
2.84339e-13
3.00872e-13
3.24609e-13
3.54747e-13
3.90591e-13
4.31459e-13
4.76643e-13
5.25383e-13
5.76873e-13
6.3027e-13
6.84711e-13
7.39334e-13
7.93309e-13
8.45853e-13
8.96253e-13
9.43885e-13
9.88219e-13
1.02883e-12
1.0654e-12
1.09771e-12
1.12564e-12
1.14916e-12
1.16832e-12
1.18322e-12
1.19405e-12
1.20101e-12
1.20436e-12
8.50173e-13
8.99671e-13
9.7072e-13
1.06091e-12
1.16815e-12
1.2904e-12
1.42552e-12
1.57123e-12
1.72512e-12
1.88466e-12
2.04726e-12
2.21036e-12
2.37147e-12
2.52826e-12
2.67861e-12
2.82067e-12
2.95286e-12
3.07393e-12
3.18292e-12
3.27921e-12
3.36243e-12
3.4325e-12
3.48957e-12
3.53397e-12
3.56622e-12
3.58696e-12
3.59692e-12
2.53964e-12
2.68744e-12
2.89958e-12
3.16883e-12
3.48893e-12
3.85374e-12
4.25683e-12
4.6914e-12
5.15021e-12
5.62568e-12
6.11012e-12
6.59587e-12
7.07551e-12
7.54212e-12
7.98941e-12
8.41186e-12
8.80483e-12
9.1646e-12
9.48839e-12
9.77432e-12
1.00214e-11
1.02293e-11
1.03987e-11
1.05304e-11
1.0626e-11
1.06875e-11
1.0717e-11
7.57838e-12
8.01896e-12
8.65109e-12
9.45306e-12
1.0406e-11
1.14915e-11
1.26902e-11
1.39817e-11
1.53443e-11
1.67555e-11
1.81924e-11
1.96322e-11
2.1053e-11
2.24344e-11
2.37578e-11
2.5007e-11
2.61684e-11
2.72312e-11
2.81872e-11
2.90311e-11
2.976e-11
3.03734e-11
3.08726e-11
3.12608e-11
3.15426e-11
3.17237e-11
3.18107e-11
2.25497e-11
2.38571e-11
2.57322e-11
2.81099e-11
3.09337e-11
3.41478e-11
3.76945e-11
4.15126e-11
4.55376e-11
4.97025e-11
5.39392e-11
5.81806e-11
6.23623e-11
6.64241e-11
7.0312e-11
7.39788e-11
7.7385e-11
8.04994e-11
8.3299e-11
8.57685e-11
8.79001e-11
8.96926e-11
9.11507e-11
9.2284e-11
9.31063e-11
9.36346e-11
9.38883e-11
6.68584e-11
7.07165e-11
7.62464e-11
8.32527e-11
9.15647e-11
1.01015e-10
1.11431e-10
1.22629e-10
1.34417e-10
1.46598e-10
1.58971e-10
1.71341e-10
1.83519e-10
1.95332e-10
2.06624e-10
2.1726e-10
2.27129e-10
2.36143e-10
2.44237e-10
2.5137e-10
2.57521e-10
2.62689e-10
2.6689e-10
2.70154e-10
2.7252e-10
2.7404e-10
2.74769e-10
1.97074e-10
2.0835e-10
2.24499e-10
2.44936e-10
2.69148e-10
2.96634e-10
3.26876e-10
3.59331e-10
3.93434e-10
4.28606e-10
4.64264e-10
4.99843e-10
5.34806e-10
5.68657e-10
6.00958e-10
6.31331e-10
6.59466e-10
6.85121e-10
7.08124e-10
7.28368e-10
7.45803e-10
7.60435e-10
7.72316e-10
7.81535e-10
7.88215e-10
7.925e-10
7.94555e-10
5.76425e-10
6.08957e-10
6.55482e-10
7.14265e-10
7.83771e-10
8.625e-10
9.48916e-10
1.04142e-09
1.13837e-09
1.2381e-09
1.33893e-09
1.43928e-09
1.53763e-09
1.63261e-09
1.72303e-09
1.80785e-09
1.88625e-09
1.95759e-09
2.02144e-09
2.07752e-09
2.12575e-09
2.16616e-09
2.19892e-09
2.22432e-09
2.24269e-09
2.25447e-09
2.26012e-09
1.66823e-09
1.76035e-09
1.89187e-09
2.05766e-09
2.25318e-09
2.47399e-09
2.71558e-09
2.97334e-09
3.24254e-09
3.51848e-09
3.79652e-09
4.07226e-09
4.34163e-09
4.60094e-09
4.84701e-09
5.07719e-09
5.28935e-09
5.48192e-09
5.65383e-09
5.80452e-09
5.93382e-09
6.04197e-09
6.12951e-09
6.19725e-09
6.24621e-09
6.27755e-09
6.29255e-09
4.76106e-09
5.0155e-09
5.37794e-09
5.83348e-09
6.36884e-09
6.97111e-09
7.62737e-09
8.32454e-09
9.0495e-09
9.78935e-09
1.05316e-08
1.12647e-08
1.19779e-08
1.26618e-08
1.33084e-08
1.39111e-08
1.44648e-08
1.49659e-08
1.5412e-08
1.5802e-08
1.61359e-08
1.64145e-08
1.66397e-08
1.68136e-08
1.69391e-08
1.70193e-08
1.70577e-08
1.33407e-08
1.4021e-08
1.49874e-08
1.61975e-08
1.76137e-08
1.91995e-08
2.09189e-08
2.27361e-08
2.46161e-08
2.65248e-08
2.84302e-08
3.03028e-08
3.21162e-08
3.38475e-08
3.54776e-08
3.69911e-08
3.83766e-08
3.96262e-08
4.07352e-08
4.17021e-08
4.25277e-08
4.32152e-08
4.37694e-08
4.41968e-08
4.45047e-08
4.47013e-08
4.47951e-08
3.65139e-08
3.82613e-08
4.07351e-08
4.38202e-08
4.74128e-08
5.14143e-08
5.57286e-08
6.02624e-08
6.49259e-08
6.96342e-08
7.43088e-08
7.88789e-08
8.32825e-08
8.74672e-08
9.139e-08
9.50177e-08
9.83261e-08
1.013e-07
1.03931e-07
1.06218e-07
1.08166e-07
1.09784e-07
1.11086e-07
1.12088e-07
1.12809e-07
1.13268e-07
1.13487e-07
9.70458e-08
1.01326e-07
1.07365e-07
1.14862e-07
1.23548e-07
1.33168e-07
1.43479e-07
1.54251e-07
1.65267e-07
1.76325e-07
1.87244e-07
1.97863e-07
2.08045e-07
2.17676e-07
2.26667e-07
2.34948e-07
2.42473e-07
2.49214e-07
2.55161e-07
2.60316e-07
2.64696e-07
2.68327e-07
2.71243e-07
2.73483e-07
2.75092e-07
2.76116e-07
2.76603e-07
2.4899e-07
2.58943e-07
2.72936e-07
2.90232e-07
3.1017e-07
3.32133e-07
3.55544e-07
3.79863e-07
4.04594e-07
4.29288e-07
4.53546e-07
4.77025e-07
4.99436e-07
5.20546e-07
5.40175e-07
5.58191e-07
5.74509e-07
5.89084e-07
6.01906e-07
6.12995e-07
6.22396e-07
6.30174e-07
6.36409e-07
6.41192e-07
6.44622e-07
6.46802e-07
6.4784e-07
6.13596e-07
6.35536e-07
6.66287e-07
7.04149e-07
7.47599e-07
7.95235e-07
8.45762e-07
8.97992e-07
9.50853e-07
1.00339e-06
1.05478e-06
1.10431e-06
1.1514e-06
1.19561e-06
1.23658e-06
1.27406e-06
1.30793e-06
1.3381e-06
1.36458e-06
1.38743e-06
1.40678e-06
1.42275e-06
1.43554e-06
1.44533e-06
1.45235e-06
1.45681e-06
1.45893e-06
1.44768e-06
1.49367e-06
1.55796e-06
1.63686e-06
1.72709e-06
1.82564e-06
1.92976e-06
2.03697e-06
2.14507e-06
2.25212e-06
2.35647e-06
2.45672e-06
2.55177e-06
2.64073e-06
2.72296e-06
2.79804e-06
2.86571e-06
2.92589e-06
2.97862e-06
3.02405e-06
3.06245e-06
3.09412e-06
3.11944e-06
3.13882e-06
3.15269e-06
3.16149e-06
3.16567e-06
3.26595e-06
3.35816e-06
3.48687e-06
3.64449e-06
3.82428e-06
4.02012e-06
4.22648e-06
4.4384e-06
4.65152e-06
4.86205e-06
5.06677e-06
5.26304e-06
5.44873e-06
5.62221e-06
5.78229e-06
5.92822e-06
6.05956e-06
6.17619e-06
6.27827e-06
6.36613e-06
6.4403e-06
6.50144e-06
6.55027e-06
6.58762e-06
6.61433e-06
6.63127e-06
6.63931e-06
7.04575e-06
7.2242e-06
7.47302e-06
7.77737e-06
8.12406e-06
8.50118e-06
8.89801e-06
9.305e-06
9.71379e-06
1.01172e-05
1.0509e-05
1.08843e-05
1.12392e-05
1.15704e-05
1.18759e-05
1.21543e-05
1.24047e-05
1.26269e-05
1.28214e-05
1.29888e-05
1.313e-05
1.32464e-05
1.33393e-05
1.34104e-05
1.34612e-05
1.34934e-05
1.35087e-05
1.45338e-05
1.48694e-05
1.53372e-05
1.59094e-05
1.65613e-05
1.72704e-05
1.80168e-05
1.87827e-05
1.95522e-05
2.03121e-05
2.10508e-05
2.1759e-05
2.24291e-05
2.30552e-05
2.36333e-05
2.41605e-05
2.46353e-05
2.50572e-05
2.54266e-05
2.57449e-05
2.60137e-05
2.62355e-05
2.64127e-05
2.65483e-05
2.66454e-05
2.6707e-05
2.67362e-05
2.86138e-05
2.92273e-05
3.00834e-05
3.11315e-05
3.23271e-05
3.36299e-05
3.50038e-05
3.64164e-05
3.78394e-05
3.92481e-05
4.06213e-05
4.19415e-05
4.31945e-05
4.4369e-05
4.54567e-05
4.64518e-05
4.73509e-05
4.81524e-05
4.88565e-05
4.94649e-05
4.99803e-05
5.04067e-05
5.07485e-05
5.10108e-05
5.1199e-05
5.13188e-05
5.13758e-05
5.35127e-05
5.45895e-05
5.60937e-05
5.79384e-05
6.00468e-05
6.23497e-05
6.47849e-05
6.72965e-05
6.9835e-05
7.23573e-05
7.48258e-05
7.72092e-05
7.94812e-05
8.1621e-05
8.36122e-05
8.54431e-05
8.71054e-05
8.85949e-05
8.991e-05
9.10521e-05
9.20248e-05
9.28333e-05
9.34846e-05
9.39867e-05
9.43487e-05
9.458e-05
9.46906e-05
9.43879e-05
9.61539e-05
9.86223e-05
0.000101652
0.000105118
0.000108909
0.000112924
0.000117072
0.000121272
0.000125452
0.000129553
0.00013352
0.00013731
0.000140887
0.000144224
0.000147298
0.000150096
0.000152609
0.000154832
0.000156767
0.000158419
0.000159795
0.000160905
0.000161763
0.000162383
0.00016278
0.00016297
0.000155889
0.00015851
0.000162169
0.000166654
0.000171776
0.000177366
0.000183273
0.00018936
0.000195507
0.000201609
0.000207577
0.000213334
0.000218817
0.000223976
0.000228772
0.000233178
0.000237174
0.000240752
0.000243908
0.000246647
0.000248978
0.000250913
0.000252472
0.000253672
0.000254537
0.000255088
0.000255351
0.000239745
0.000243171
0.000247939
0.000253759
0.000260374
0.000267553
0.000275092
0.00028281
0.00029055
0.000298178
0.000305581
0.000312667
0.000319363
0.000325614
0.000331378
0.000336629
0.000341354
0.000345547
0.000349217
0.000352378
0.000355049
0.000357253
0.000359016
0.000360367
0.000361335
0.000361951
0.000362243
0.000342584
0.00034649
0.000351904
0.000358476
0.000365898
0.000373894
0.000382224
0.000390679
0.000399081
0.000407285
0.000415172
0.000422652
0.00042966
0.000436149
0.000442087
0.00044746
0.000452264
0.000456504
0.000460196
0.00046336
0.00046602
0.000468206
0.000469947
0.000471277
0.000472226
0.000472827
0.000473113
0.000456061
0.000459975
0.000465381
0.000471914
0.000479249
0.000487105
0.000495237
0.000503438
0.000511537
0.000519396
0.000526909
0.000533995
0.000540597
0.000546675
0.00055221
0.000557193
0.000561628
0.000565526
0.000568907
0.000571794
0.000574213
0.000576195
0.000577769
0.000578968
0.000579822
0.000580362
0.000580618
0.000570221
0.000573807
0.000578747
0.000584699
0.000591358
0.000598462
0.000605785
0.00061314
0.000620375
0.000627368
0.000634028
0.000640287
0.000646098
0.000651432
0.000656276
0.000660625
0.000664486
0.000667873
0.000670805
0.000673304
0.000675396
0.000677107
0.000678466
0.000679499
0.000680234
0.000680699
0.000680919
0.000678029
0.000681128
0.000685392
0.000690521
0.000696251
0.000702351
0.00070863
0.000714924
0.000721105
0.00072707
0.000732743
0.000738068
0.000743007
0.000747537
0.000751646
0.000755335
0.000758608
0.000761479
0.000763964
0.000766082
0.000767855
0.000769305
0.000770457
0.000771333
0.000771957
0.000772352
0.000772538
0.000775761
0.000778364
0.000781946
0.000786253
0.000791064
0.000796186
0.000801457
0.000806742
0.000811933
0.000816945
0.000821714
0.000826192
0.000830348
0.000834163
0.000837627
0.000840739
0.000843503
0.000845929
0.000848032
0.000849825
0.000851328
0.000852559
0.000853538
0.000854283
0.000854814
0.00085515
0.000855309
0.000862511
0.000864688
0.000867686
0.000871293
0.000875326
0.000879624
0.000884053
0.000888499
0.000892871
0.000897099
0.000901128
0.000904917
0.000908439
0.000911677
0.000914622
0.000917271
0.000919628
0.0009217
0.000923498
0.000925034
0.000926323
0.00092738
0.000928221
0.000928862
0.00092932
0.00092961
0.000929747
0.000939024
0.000940867
0.000943406
0.000946465
0.00094989
0.000953546
0.000957318
0.000961112
0.00096485
0.000968471
0.000971928
0.000975185
0.000978218
0.000981011
0.000983555
0.000985848
0.000987891
0.00098969
0.000991253
0.00099259
0.000993713
0.000994635
0.00099537
0.00099593
0.000996331
0.000996585
0.000996705
0.00100672
0.00100831
0.0010105
0.00101315
0.00101612
0.00101929
0.00102257
0.00102587
0.00102913
0.00103229
0.00103531
0.00103817
0.00104083
0.00104328
0.00104552
0.00104755
0.00104935
0.00105094
0.00105232
0.00105351
0.0010545
0.00105532
0.00105597
0.00105647
0.00105683
0.00105705
0.00105716
0.00106711
0.00106851
0.00107045
0.00107279
0.00107541
0.00107822
0.00108113
0.00108406
0.00108696
0.00108978
0.00109247
0.00109502
0.0010974
0.0010996
0.00110161
0.00110342
0.00110504
0.00110647
0.00110771
0.00110878
0.00110967
0.00111041
0.001111
0.00111145
0.00111177
0.00111197
0.00111207
0.00112155
0.00112281
0.00112455
0.00112666
0.00112903
0.00113156
0.00113419
0.00113684
0.00113947
0.00114202
0.00114447
0.00114678
0.00114894
0.00115094
0.00115277
0.00115442
0.0011559
0.0011572
0.00115834
0.00115931
0.00116013
0.0011608
0.00116134
0.00116175
0.00116205
0.00116223
0.00116232
0.00117115
0.00117231
0.00117391
0.00117584
0.00117801
0.00118033
0.00118274
0.00118518
0.00118759
0.00118994
0.00119219
0.00119432
0.00119632
0.00119816
0.00119985
0.00120137
0.00120273
0.00120394
0.00120499
0.00120589
0.00120664
0.00120727
0.00120776
0.00120814
0.00120842
0.00120859
0.00120867
0.00121683
0.0012179
0.00121938
0.00122117
0.00122319
0.00122535
0.00122759
0.00122986
0.0012321
0.00123429
0.00123638
0.00123837
0.00124023
0.00124195
0.00124352
0.00124494
0.00124621
0.00124734
0.00124831
0.00124915
0.00124986
0.00125044
0.00125091
0.00125126
0.00125152
0.00125168
0.00125176
0.00125928
0.00126028
0.00126167
0.00126335
0.00126524
0.00126727
0.00126938
0.0012715
0.00127361
0.00127567
0.00127764
0.00127951
0.00128125
0.00128287
0.00128435
0.00128569
0.00128688
0.00128794
0.00128886
0.00128965
0.00129032
0.00129087
0.0012913
0.00129164
0.00129188
0.00129203
0.0012921
0.00129905
0.0013
0.00130132
0.00130291
0.00130469
0.00130661
0.00130861
0.00131062
0.00131262
0.00131456
0.00131643
0.0013182
0.00131986
0.00132139
0.00132279
0.00132406
0.00132519
0.0013262
0.00132707
0.00132782
0.00132845
0.00132897
0.00132938
0.0013297
0.00132993
0.00133007
0.00133014
0.00133658
0.00133749
0.00133874
0.00134026
0.00134196
0.00134379
0.00134569
0.00134761
0.00134951
0.00135136
0.00135314
0.00135483
0.00135641
0.00135787
0.00135921
0.00136042
0.0013615
0.00136245
0.00136329
0.001364
0.0013646
0.0013651
0.0013655
0.0013658
0.00136601
0.00136615
0.00136622
0.00137222
0.00137309
0.00137429
0.00137574
0.00137737
0.00137912
0.00138094
0.00138278
0.0013846
0.00138638
0.00138808
0.0013897
0.00139121
0.00139261
0.00139389
0.00139505
0.00139609
0.001397
0.0013978
0.00139849
0.00139906
0.00139954
0.00139992
0.00140021
0.00140042
0.00140055
0.00140061
0.00140624
0.00140707
0.00140822
0.00140962
0.00141119
0.00141287
0.00141462
0.00141639
0.00141814
0.00141985
0.00142149
0.00142305
0.0014245
0.00142585
0.00142708
0.0014282
0.00142919
0.00143008
0.00143084
0.0014315
0.00143206
0.00143252
0.00143288
0.00143316
0.00143336
0.00143349
0.00143355
0.00143885
0.00143965
0.00144076
0.00144211
0.00144362
0.00144525
0.00144694
0.00144864
0.00145034
0.00145199
0.00145357
0.00145507
0.00145648
0.00145778
0.00145897
0.00146004
0.00146101
0.00146186
0.0014626
0.00146324
0.00146377
0.00146421
0.00146457
0.00146483
0.00146503
0.00146515
0.00146521
0.00147022
0.001471
0.00147208
0.00147338
0.00147485
0.00147642
0.00147806
0.00147971
0.00148135
0.00148294
0.00148448
0.00148593
0.00148729
0.00148855
0.0014897
0.00149074
0.00149168
0.0014925
0.00149322
0.00149384
0.00149435
0.00149478
0.00149512
0.00149538
0.00149557
0.00149569
0.00149574
0.00150051
0.00150127
0.00150231
0.00150358
0.001505
0.00150652
0.00150811
0.00150971
0.0015113
0.00151285
0.00151434
0.00151575
0.00151707
0.00151829
0.00151941
0.00152042
0.00152133
0.00152213
0.00152283
0.00152342
0.00152393
0.00152434
0.00152467
0.00152493
0.00152511
0.00152522
0.00152528
0.00152982
0.00153056
0.00153157
0.0015328
0.00153418
0.00153567
0.00153721
0.00153877
0.00154032
0.00154182
0.00154327
0.00154464
0.00154593
0.00154711
0.0015482
0.00154918
0.00155006
0.00155084
0.00155152
0.0015521
0.00155259
0.00155299
0.00155332
0.00155356
0.00155374
0.00155385
0.0015539
0.00155825
0.00155897
0.00155996
0.00156115
0.0015625
0.00156395
0.00156545
0.00156697
0.00156847
0.00156994
0.00157135
0.00157268
0.00157393
0.00157509
0.00157615
0.00157711
0.00157797
0.00157872
0.00157938
0.00157995
0.00158043
0.00158082
0.00158113
0.00158137
0.00158154
0.00158165
0.0015817
0.00158588
0.00158657
0.00158754
0.00158871
0.00159002
0.00159143
0.00159289
0.00159437
0.00159584
0.00159727
0.00159865
0.00159995
0.00160117
0.0016023
0.00160333
0.00160426
0.0016051
0.00160584
0.00160648
0.00160704
0.0016075
0.00160788
0.00160819
0.00160842
0.00160859
0.0016087
0.00160875
0.00161276
0.00161344
0.00161438
0.00161552
0.0016168
0.00161818
0.00161961
0.00162105
0.00162249
0.00162389
0.00162523
0.0016265
0.00162769
0.00162879
0.0016298
0.00163071
0.00163153
0.00163225
0.00163288
0.00163341
0.00163387
0.00163424
0.00163454
0.00163477
0.00163493
0.00163504
0.00163508
0.00163895
0.00163961
0.00164054
0.00164165
0.0016429
0.00164425
0.00164564
0.00164706
0.00164846
0.00164982
0.00165113
0.00165238
0.00165354
0.00165461
0.0016556
0.00165649
0.00165729
0.00165799
0.00165861
0.00165913
0.00165958
0.00165994
0.00166023
0.00166046
0.00166062
0.00166072
0.00166076
0.00166449
0.00166514
0.00166604
0.00166713
0.00166836
0.00166967
0.00167104
0.00167242
0.00167379
0.00167513
0.00167641
0.00167762
0.00167876
0.00167981
0.00168077
0.00168165
0.00168242
0.00168311
0.00168371
0.00168423
0.00168466
0.00168502
0.0016853
0.00168552
0.00168568
0.00168578
0.00168582
0.00168943
0.00169006
0.00169094
0.00169201
0.00169321
0.00169449
0.00169583
0.00169718
0.00169852
0.00169983
0.00170108
0.00170227
0.00170338
0.00170441
0.00170535
0.0017062
0.00170697
0.00170764
0.00170823
0.00170873
0.00170916
0.00170951
0.00170978
0.00171
0.00171015
0.00171025
0.00171029
0.00171378
0.0017144
0.00171526
0.0017163
0.00171748
0.00171873
0.00172004
0.00172136
0.00172268
0.00172395
0.00172518
0.00172634
0.00172743
0.00172844
0.00172936
0.00173019
0.00173094
0.0017316
0.00173217
0.00173267
0.00173308
0.00173342
0.0017337
0.0017339
0.00173405
0.00173415
0.00173419
0.00173757
0.00173818
0.00173902
0.00174004
0.00174119
0.00174242
0.0017437
0.00174499
0.00174628
0.00174753
0.00174873
0.00174986
0.00175093
0.00175192
0.00175282
0.00175363
0.00175436
0.00175501
0.00175557
0.00175605
0.00175646
0.00175679
0.00175706
0.00175726
0.00175741
0.0017575
0.00175755
0.00176081
0.00176141
0.00176223
0.00176323
0.00176436
0.00176556
0.00176681
0.00176808
0.00176934
0.00177056
0.00177174
0.00177285
0.00177389
0.00177486
0.00177574
0.00177654
0.00177725
0.00177788
0.00177843
0.00177891
0.0017793
0.00177963
0.00177989
0.00178009
0.00178023
0.00178033
0.00178037
0.00178353
0.00178411
0.00178492
0.0017859
0.001787
0.00178818
0.0017894
0.00179064
0.00179187
0.00179307
0.00179422
0.00179531
0.00179633
0.00179727
0.00179814
0.00179892
0.00179962
0.00180024
0.00180077
0.00180124
0.00180163
0.00180195
0.0018022
0.0018024
0.00180254
0.00180262
0.00180267
0.00180573
0.0018063
0.00180709
0.00180804
0.00180912
0.00181028
0.00181147
0.00181269
0.00181389
0.00181506
0.00181619
0.00181725
0.00181825
0.00181917
0.00182002
0.00182078
0.00182147
0.00182207
0.0018226
0.00182305
0.00182343
0.00182374
0.00182399
0.00182418
0.00182432
0.00182441
0.00182445
0.00182741
0.00182797
0.00182874
0.00182968
0.00183073
0.00183186
0.00183303
0.00183421
0.00183539
0.00183654
0.00183764
0.00183868
0.00183965
0.00184056
0.00184138
0.00184213
0.0018428
0.00184339
0.0018439
0.00184434
0.00184472
0.00184502
0.00184527
0.00184545
0.00184559
0.00184567
0.00184571
0.00184858
0.00184912
0.00184988
0.00185079
0.00185182
0.00185292
0.00185407
0.00185523
0.00185638
0.00185749
0.00185857
0.00185959
0.00186054
0.00186142
0.00186223
0.00186296
0.00186361
0.00186419
0.00186469
0.00186512
0.00186549
0.00186578
0.00186602
0.0018662
0.00186633
0.00186642
0.00186646
0.00186922
0.00186976
0.0018705
0.00187139
0.00187239
0.00187347
0.00187459
0.00187572
0.00187684
0.00187793
0.00187898
0.00187997
0.0018809
0.00188176
0.00188255
0.00188326
0.0018839
0.00188446
0.00188495
0.00188537
0.00188573
0.00188602
0.00188625
0.00188643
0.00188656
0.00188664
0.00188668
0.00188935
0.00188987
0.00189059
0.00189145
0.00189243
0.00189348
0.00189457
0.00189568
0.00189677
0.00189783
0.00189886
0.00189983
0.00190073
0.00190157
0.00190234
0.00190303
0.00190365
0.0019042
0.00190468
0.00190509
0.00190543
0.00190572
0.00190594
0.00190612
0.00190624
0.00190632
0.00190636
0.00190893
0.00190943
0.00191013
0.00191098
0.00191193
0.00191296
0.00191402
0.00191509
0.00191615
0.00191719
0.00191819
0.00191913
0.00192001
0.00192083
0.00192157
0.00192225
0.00192285
0.00192339
0.00192385
0.00192425
0.00192458
0.00192486
0.00192508
0.00192525
0.00192537
0.00192545
0.00192548
0.00192795
0.00192844
0.00192912
0.00192995
0.00193087
0.00193187
0.0019329
0.00193394
0.00193497
0.00193598
0.00193695
0.00193786
0.00193872
0.00193951
0.00194023
0.00194089
0.00194148
0.00194199
0.00194245
0.00194283
0.00194316
0.00194343
0.00194364
0.0019438
0.00194392
0.001944
0.00194403
0.00194639
0.00194687
0.00194753
0.00194833
0.00194922
0.00195019
0.00195119
0.0019522
0.0019532
0.00195417
0.00195511
0.001956
0.00195683
0.00195759
0.0019583
0.00195893
0.0019595
0.00196
0.00196044
0.00196081
0.00196113
0.00196139
0.00196159
0.00196175
0.00196187
0.00196194
0.00196197
0.00196422
0.00196468
0.00196532
0.00196609
0.00196696
0.00196789
0.00196886
0.00196983
0.0019708
0.00197174
0.00197265
0.0019735
0.0019743
0.00197505
0.00197572
0.00197634
0.00197689
0.00197737
0.00197779
0.00197815
0.00197846
0.00197871
0.00197891
0.00197906
0.00197917
0.00197924
0.00197927
0.00198141
0.00198185
0.00198247
0.00198321
0.00198404
0.00198494
0.00198587
0.00198681
0.00198774
0.00198865
0.00198952
0.00199034
0.00199112
0.00199183
0.00199248
0.00199307
0.0019936
0.00199406
0.00199447
0.00199482
0.00199511
0.00199535
0.00199554
0.00199569
0.00199579
0.00199586
0.00199589
0.00199791
0.00199833
0.00199892
0.00199963
0.00200044
0.0020013
0.00200219
0.00200309
0.00200398
0.00200485
0.00200568
0.00200647
0.00200721
0.00200789
0.00200852
0.00200908
0.00200959
0.00201003
0.00201042
0.00201076
0.00201104
0.00201127
0.00201145
0.00201159
0.00201169
0.00201175
0.00201178
0.00201367
0.00201408
0.00201464
0.00201532
0.00201608
0.0020169
0.00201776
0.00201861
0.00201947
0.00202029
0.00202109
0.00202184
0.00202255
0.0020232
0.00202379
0.00202433
0.00202481
0.00202523
0.0020256
0.00202592
0.00202619
0.00202641
0.00202658
0.00202671
0.00202681
0.00202687
0.0020269
0.00202865
0.00202904
0.00202957
0.00203021
0.00203094
0.00203172
0.00203252
0.00203334
0.00203414
0.00203493
0.00203568
0.00203639
0.00203706
0.00203768
0.00203824
0.00203875
0.0020392
0.0020396
0.00203995
0.00204025
0.00204051
0.00204071
0.00204088
0.002041
0.00204109
0.00204115
0.00204118
0.00204279
0.00204315
0.00204365
0.00204426
0.00204494
0.00204568
0.00204643
0.0020472
0.00204796
0.0020487
0.0020494
0.00205007
0.0020507
0.00205128
0.00205181
0.00205228
0.00205271
0.00205309
0.00205341
0.0020537
0.00205393
0.00205413
0.00205428
0.0020544
0.00205449
0.00205454
0.00205456
0.00205602
0.00205636
0.00205683
0.0020574
0.00205804
0.00205872
0.00205943
0.00206014
0.00206085
0.00206154
0.0020622
0.00206282
0.0020634
0.00206394
0.00206443
0.00206487
0.00206527
0.00206562
0.00206593
0.00206619
0.00206641
0.00206659
0.00206673
0.00206684
0.00206692
0.00206697
0.00206699
0.0020683
0.00206861
0.00206905
0.00206957
0.00207016
0.00207079
0.00207144
0.0020721
0.00207275
0.00207339
0.00207399
0.00207457
0.00207511
0.0020756
0.00207605
0.00207646
0.00207683
0.00207715
0.00207743
0.00207767
0.00207787
0.00207804
0.00207817
0.00207827
0.00207834
0.00207839
0.00207841
0.00207956
0.00207984
0.00208024
0.00208072
0.00208125
0.00208183
0.00208242
0.00208302
0.00208362
0.00208419
0.00208475
0.00208527
0.00208576
0.00208621
0.00208662
0.00208699
0.00208732
0.00208761
0.00208787
0.00208808
0.00208827
0.00208842
0.00208854
0.00208863
0.00208869
0.00208873
0.00208875
0.00208974
0.00209
0.00209036
0.00209079
0.00209127
0.00209179
0.00209232
0.00209286
0.00209339
0.00209391
0.0020944
0.00209487
0.00209531
0.00209571
0.00209608
0.00209641
0.00209671
0.00209697
0.00209719
0.00209739
0.00209755
0.00209768
0.00209779
0.00209787
0.00209793
0.00209797
0.00209799
0.00209882
0.00209904
0.00209936
0.00209974
0.00210017
0.00210062
0.00210109
0.00210157
0.00210204
0.00210249
0.00210293
0.00210334
0.00210372
0.00210408
0.0021044
0.00210469
0.00210495
0.00210518
0.00210538
0.00210555
0.00210569
0.00210581
0.0021059
0.00210597
0.00210602
0.00210606
0.00210607
0.00210675
0.00210695
0.00210722
0.00210755
0.00210792
0.00210831
0.00210872
0.00210913
0.00210954
0.00210993
0.0021103
0.00211066
0.00211099
0.00211129
0.00211157
0.00211182
0.00211204
0.00211224
0.00211241
0.00211255
0.00211268
0.00211278
0.00211286
0.00211292
0.00211296
0.00211299
0.002113
0.00211354
0.0021137
0.00211393
0.00211421
0.00211452
0.00211486
0.0021152
0.00211555
0.00211589
0.00211622
0.00211653
0.00211683
0.0021171
0.00211736
0.00211759
0.0021178
0.00211799
0.00211815
0.00211829
0.00211841
0.00211851
0.0021186
0.00211866
0.00211871
0.00211875
0.00211877
0.00211878
0.00211919
0.00211933
0.00211952
0.00211975
0.00212
0.00212027
0.00212056
0.00212084
0.00212112
0.00212139
0.00212164
0.00212188
0.00212211
0.00212232
0.0021225
0.00212267
0.00212282
0.00212296
0.00212307
0.00212317
0.00212325
0.00212332
0.00212337
0.00212341
0.00212344
0.00212346
0.00212347
0.00212377
0.00212387
0.00212403
0.00212421
0.00212441
0.00212462
0.00212485
0.00212507
0.00212529
0.0021255
0.0021257
0.00212589
0.00212607
0.00212623
0.00212638
0.00212651
0.00212663
0.00212673
0.00212682
0.0021269
0.00212696
0.00212701
0.00212706
0.00212709
0.00212711
0.00212712
0.00212713
0.00212734
0.00212742
0.00212754
0.00212767
0.00212783
0.00212799
0.00212816
0.00212833
0.0021285
0.00212866
0.00212881
0.00212895
0.00212908
0.00212921
0.00212932
0.00212941
0.0021295
0.00212958
0.00212965
0.0021297
0.00212975
0.00212979
0.00212982
0.00212984
0.00212986
0.00212987
0.00212988
0.00213001
0.00213008
0.00213016
0.00213026
0.00213037
0.00213049
0.00213061
0.00213073
0.00213085
0.00213097
0.00213108
0.00213118
0.00213127
0.00213136
0.00213144
0.00213151
0.00213157
0.00213162
0.00213167
0.00213171
0.00213174
0.00213177
0.00213179
0.00213181
0.00213182
0.00213183
0.00213183
0.00213192
0.00213197
0.00213202
0.00213209
0.00213217
0.00213225
0.00213233
0.00213241
0.00213249
0.00213257
0.00213264
0.00213271
0.00213277
0.00213283
0.00213288
0.00213293
0.00213297
0.00213301
0.00213304
0.00213306
0.00213309
0.0021331
0.00213312
0.00213313
0.00213314
0.00213314
0.00213314
0.00213321
0.00213323
0.00213327
0.00213331
0.00213336
0.00213341
0.00213346
0.00213351
0.00213356
0.00213361
0.00213366
0.0021337
0.00213374
0.00213377
0.0021338
0.00213383
0.00213386
0.00213388
0.0021339
0.00213391
0.00213392
0.00213393
0.00213394
0.00213395
0.00213395
0.00213396
0.00213396
0.00213401
0.00213402
0.00213404
0.00213407
0.0021341
0.00213412
0.00213415
0.00213418
0.00213421
0.00213423
0.00213426
0.00213428
0.0021343
0.00213432
0.00213434
0.00213435
0.00213436
0.00213438
0.00213439
0.00213439
0.0021344
0.00213441
0.00213441
0.00213441
0.00213442
0.00213442
0.00213442
0.00213446
0.00213447
0.00213448
0.00213449
0.0021345
0.00213452
0.00213453
0.00213454
0.00213456
0.00213457
0.00213458
0.00213459
0.0021346
0.00213461
0.00213461
0.00213462
0.00213463
0.00213463
0.00213464
0.00213464
0.00213464
0.00213464
0.00213465
0.00213465
0.00213465
0.00213465
0.00213465
0.00213469
0.00213469
0.00213469
0.0021347
0.0021347
0.00213471
0.00213471
0.00213472
0.00213472
0.00213472
0.00213473
0.00213473
0.00213473
0.00213473
0.00213474
0.00213474
0.00213474
0.00213474
0.00213474
0.00213474
0.00213474
0.00213474
0.00213474
0.00213474
0.00213474
0.00213474
0.00213474
0.00213478
0.00213478
0.00213478
0.00213478
0.00213478
0.00213478
0.00213478
0.00213478
0.00213478
0.00213477
0.00213477
0.00213477
0.00213477
0.00213477
0.00213477
0.00213477
0.00213477
0.00213477
0.00213477
0.00213477
0.00213476
0.00213476
0.00213476
0.00213476
0.00213476
0.00213476
0.00213476
0.0021348
0.00213479
0.00213479
0.00213479
0.00213479
0.00213479
0.00213478