/*--------------------------------*- C++ -*----------------------------------*\
| =========                 |                                                 |
| \\      /  F ield         | OpenFOAM: The Open Source CFD Toolbox           |
|  \\    /   O peration     | Version:  2106                                  |
|   \\  /    A nd           | Website:  www.openfoam.com                      |
|    \\/     M anipulation  |                                                 |
\*---------------------------------------------------------------------------*/
FoamFile
{
    version     2.0;
    format      ascii;
    arch        "LSB;label=32;scalar=64";
    class       surfaceScalarField;
    location    "160.00011";
    object      phi_0;
}
// * * * * * * * * * * * * * * * * * * * * * * * * * * * * * * * * * * * * * //

dimensions      [1 0 -1 0 0 0 0];

oriented        oriented;

internalField   nonuniform List<scalar> 
6572
(
-1.49003e-10
4.14308e-10
3.90097e-11
-3.19743e-10
6.41383e-10
-5.41964e-10
8.33174e-10
-8.06934e-10
9.93245e-10
-1.10605e-09
1.12443e-09
-1.43058e-09
1.22902e-09
-1.7716e-09
1.30897e-09
-2.1199e-09
1.36596e-09
-2.46615e-09
1.40156e-09
-2.80099e-09
1.4173e-09
-3.11516e-09
1.4146e-09
-3.3994e-09
1.39474e-09
-3.64515e-09
1.35946e-09
-3.84447e-09
1.31035e-09
-3.99002e-09
1.24887e-09
-4.07517e-09
1.17648e-09
-4.09405e-09
1.09461e-09
-4.04168e-09
1.00474e-09
-3.91398e-09
9.08298e-10
-3.70789e-09
8.06741e-10
-3.42129e-09
7.01449e-10
-3.05301e-09
5.93699e-10
-2.60273e-09
4.84653e-10
-2.0709e-09
3.75358e-10
-1.45867e-09
2.66748e-10
-7.6778e-10
1.59622e-10
5.41725e-11
-1.01058e-10
4.8826e-10
2.71059e-11
-2.11649e-10
7.51974e-10
-3.48487e-10
9.70012e-10
-5.01221e-10
1.14598e-09
-6.59946e-10
1.28315e-09
-8.15482e-10
1.38456e-09
-9.59633e-10
1.45312e-09
-1.08541e-09
1.49174e-09
-1.18716e-09
1.50331e-09
-1.26081e-09
1.49094e-09
-1.30496e-09
1.45874e-09
-1.31934e-09
1.40912e-09
-1.30443e-09
1.34455e-09
-1.26161e-09
1.26753e-09
-1.19327e-09
1.18054e-09
-1.1027e-09
1.08591e-09
-9.93955e-10
9.85866e-10
-8.7166e-10
8.82444e-10
-7.40855e-10
7.77493e-10
-6.06765e-10
6.72651e-10
-4.74653e-10
5.69337e-10
-3.49711e-10
4.68756e-10
-2.3696e-10
3.71901e-10
-1.41256e-10
2.79654e-10
-6.70758e-11
1.92568e-10
-1.84921e-11
1.11038e-10
3.56805e-11
-8.0138e-11
5.47209e-10
2.11884e-11
-1.66953e-10
8.38789e-10
-2.71285e-10
1.07434e-09
-3.83348e-10
1.25804e-09
-4.94436e-10
1.39424e-09
-5.97222e-10
1.48735e-09
-6.86181e-10
1.54208e-09
-7.57466e-10
1.56302e-09
-8.08842e-10
1.55469e-09
-8.39375e-10
1.52148e-09
-8.48261e-10
1.46763e-09
-8.36244e-10
1.39711e-09
-8.04966e-10
1.31327e-09
-7.56782e-10
1.21935e-09
-6.94649e-10
1.1184e-09
-6.2194e-10
1.0132e-09
-5.42239e-10
9.06165e-10
-4.59144e-10
7.9935e-10
-3.76101e-10
6.94451e-10
-2.96239e-10
5.92789e-10
-2.22288e-10
4.95386e-10
-1.5655e-10
4.03018e-10
-1.00885e-10
3.16236e-10
-5.66335e-11
2.35402e-10
-2.47787e-11
1.60713e-10
-5.97388e-12
9.22335e-11
2.97066e-11
-3.77213e-11
5.74511e-10
1.04192e-11
-7.68603e-11
8.77928e-10
-1.22598e-10
1.12008e-09
-1.69968e-10
1.30541e-09
-2.14706e-10
1.43898e-09
-2.53559e-10
1.5262e-09
-2.84152e-10
1.57267e-09
-3.05121e-10
1.58399e-09
-3.15961e-10
1.56553e-09
-3.16899e-10
1.52242e-09
-3.08773e-10
1.4595e-09
-2.92814e-10
1.38115e-09
-2.70728e-10
1.29118e-09
-2.44379e-10
1.193e-09
-2.15529e-10
1.08955e-09
-1.85719e-10
9.8339e-10
-1.56221e-10
8.76668e-10
-1.28033e-10
7.71161e-10
-1.01886e-10
6.68304e-10
-7.83192e-11
5.69221e-10
-5.76989e-11
4.74766e-10
-4.02379e-11
3.85557e-10
-2.60132e-11
3.02012e-10
-1.49913e-11
2.2438e-10
-7.05138e-12
1.52773e-10
-2.00532e-12
8.71874e-11
2.77013e-11
-1.90958e-11
5.8863e-10
4.9772e-12
-3.92527e-11
8.98085e-10
-6.21901e-11
1.14302e-09
-8.51267e-11
1.32835e-09
-1.05989e-10
1.45984e-09
-1.23427e-10
1.54364e-09
-1.36602e-10
1.58585e-09
-1.45131e-10
1.59252e-09
-1.49034e-10
1.56944e-09
-1.48619e-10
1.522e-09
-1.443e-10
1.45519e-09
-1.36616e-10
1.37346e-09
-1.26231e-10
1.2808e-09
-1.13876e-10
1.18064e-09
-1.00283e-10
1.07596e-09
-8.61331e-11
9.6924e-10
-7.20224e-11
8.62557e-10
-5.84511e-11
7.5759e-10
-4.58214e-11
6.55675e-10
-3.44413e-11
5.57841e-10
-2.45332e-11
4.64858e-10
-1.62438e-11
3.77268e-10
-9.65552e-12
2.95424e-10
-4.7975e-12
2.19522e-10
-1.65559e-12
1.49631e-10
-1.81808e-13
8.57137e-11
2.75195e-11
-9.33853e-12
5.95256e-10
2.71284e-12
-1.8386e-11
9.07133e-10
-2.83587e-11
1.15299e-09
-3.79282e-11
1.33792e-09
-4.61053e-11
1.46802e-09
-5.229e-11
1.54982e-09
-5.62187e-11
1.58978e-09
-5.78856e-11
1.59419e-09
-5.74765e-11
1.56903e-09
-5.5305e-11
1.51983e-09
-5.17509e-11
1.45163e-09
-4.72123e-11
1.36893e-09
-4.20705e-11
1.27566e-09
-3.66654e-11
1.17524e-09
-3.12808e-11
1.07057e-09
-2.61376e-11
9.64097e-10
-2.13934e-11
8.57813e-10
-1.71473e-11
7.53344e-10
-1.34477e-11
6.51975e-10
-1.03018e-11
5.54695e-10
-7.6852e-12
4.62241e-10
-5.55065e-12
3.75133e-10
-3.83617e-12
2.93709e-10
-2.47184e-12
2.18158e-10
-1.38522e-12
1.48545e-10
-5.05533e-13
8.4834e-11
2.70139e-11
-4.78073e-12
5.9887e-10
1.16616e-12
-1.01099e-11
9.12462e-10
-1.63507e-11
1.15923e-09
-2.27815e-11
1.34435e-09
-2.87635e-11
1.474e-09
-3.37521e-11
1.55481e-09
-3.74463e-11
1.59347e-09
-3.97341e-11
1.59648e-09
-4.06431e-11
1.56993e-09
-4.02951e-11
1.51948e-09
-3.88675e-11
1.4502e-09
-3.65645e-11
1.36662e-09
-3.35962e-11
1.27269e-09
-3.0165e-11
1.17181e-09
-2.64564e-11
1.06687e-09
-2.26355e-11
9.60276e-10
-1.88446e-11
8.54022e-10
-1.52042e-11
7.49703e-10
-1.18138e-11
6.48584e-10
-8.75376e-12
5.51635e-10
-6.08742e-12
4.59575e-10
-3.86281e-12
3.72908e-10
-2.1144e-12
2.91961e-10
-8.6467e-13
2.16908e-10
-1.25435e-13
1.47805e-10
1.00755e-13
8.46078e-11
2.71147e-11
-1.83052e-12
6.00107e-10
5.93336e-13
-3.46083e-12
9.14092e-10
-5.23952e-12
1.16101e-09
-6.91979e-12
1.34603e-09
-8.30196e-12
1.47538e-09
-9.25484e-12
1.55576e-09
-9.72563e-12
1.59394e-09
-9.72908e-12
1.59648e-09
-9.32865e-12
1.56953e-09
-8.61627e-12
1.51877e-09
-7.69466e-12
1.44928e-09
-6.6637e-12
1.36559e-09
-5.61119e-12
1.27164e-09
-4.60755e-12
1.1708e-09
-3.70361e-12
1.06596e-09
-2.93067e-12
9.59503e-10
-2.30225e-12
8.53393e-10
-1.81664e-12
7.49218e-10
-1.46e-12
6.48228e-10
-1.20951e-12
5.51385e-10
-1.03643e-12
4.59402e-10
-9.08757e-13
3.72781e-10
-7.93567e-13
2.91846e-10
-6.58922e-13
2.16774e-10
-4.75281e-13
1.47622e-10
-2.16549e-13
8.43491e-11
2.68981e-11
-1.81947e-12
6.01507e-10
4.20304e-13
-3.88741e-12
9.1616e-10
-6.28582e-12
1.16341e-09
-8.73005e-12
1.34847e-09
-1.09951e-11
1.47765e-09
-1.29198e-11
1.55769e-09
-1.44044e-11
1.59543e-09
-1.54025e-11
1.59748e-09
-1.59097e-11
1.57004e-09
-1.59524e-11
1.51881e-09
-1.55775e-11
1.44891e-09
-1.48444e-11
1.36486e-09
-1.3819e-11
1.27061e-09
-1.2569e-11
1.16955e-09
-1.11611e-11
1.06455e-09
-9.65935e-12
9.58002e-10
-8.12338e-12
8.51857e-10
-6.60803e-12
7.47703e-10
-5.16268e-12
6.46783e-10
-3.83094e-12
5.50053e-10
-2.65051e-12
4.58222e-10
-1.65306e-12
3.71783e-10
-8.64241e-13
2.91057e-10
-3.0383e-13
2.16213e-10
1.41051e-14
1.47304e-10
8.08745e-14
8.42823e-11
2.6979e-11
-6.64857e-13
6.01934e-10
2.36958e-13
-1.2014e-12
9.16697e-10
-1.77364e-12
1.16398e-09
-2.30308e-12
1.349e-09
-2.72823e-12
1.47807e-09
-3.01166e-12
1.55797e-09
-3.14016e-12
1.59556e-09
-3.12071e-12
1.59746e-09
-2.97485e-12
1.5699e-09
-2.73277e-12
1.51857e-09
-2.42798e-12
1.4486e-09
-2.09324e-12
1.36452e-09
-1.75747e-12
1.27028e-09
-1.44398e-12
1.16924e-09
-1.16943e-12
1.06428e-09
-9.43707e-13
9.57776e-10
-7.70283e-13
8.51684e-10
-6.4691e-13
7.47579e-10
-5.66597e-13
6.46702e-10
-5.18714e-13
5.50005e-10
-4.90149e-13
4.58193e-10
-4.66337e-13
3.7176e-10
-4.32232e-13
2.91023e-10
-3.73159e-13
2.16154e-10
-2.75467e-13
1.47206e-10
-1.27008e-13
8.41339e-11
2.6852e-11
-1.01399e-12
6.02718e-10
2.30882e-13
-2.18189e-12
9.17865e-10
-3.55183e-12
1.16535e-09
-4.97055e-12
1.35042e-09
-6.31539e-12
1.47942e-09
-7.49527e-12
1.55915e-09
-8.44891e-12
1.59651e-09
-9.14126e-12
1.59815e-09
-9.559e-12
1.57031e-09
-9.70593e-12
1.51872e-09
-9.59873e-12
1.44849e-09
-9.26333e-12
1.36419e-09
-8.73189e-12
1.26974e-09
-8.04045e-12
1.16855e-09
-7.227e-12
1.06347e-09
-6.33004e-12
9.56879e-10
-5.38713e-12
8.50741e-10
-4.43547e-12
7.46627e-10
-3.50999e-12
6.45777e-10
-2.6428e-12
5.49138e-10
-1.86235e-12
4.57413e-10
-1.19302e-12
3.7109e-10
-6.54838e-13
2.90485e-10
-2.6345e-13
2.15763e-10
-3.01514e-14
1.46973e-10
3.78324e-14
8.40659e-11
2.68898e-11
-6.33537e-13
6.03146e-10
2.04853e-13
-1.212e-12
9.18443e-10
-1.87096e-12
1.16601e-09
-2.53778e-12
1.35109e-09
-3.15073e-12
1.48003e-09
-3.66428e-12
1.55966e-09
-4.05019e-12
1.5969e-09
-4.29606e-12
1.5984e-09
-4.40262e-12
1.57042e-09
-4.38049e-12
1.51869e-09
-4.24696e-12
1.44836e-09
-4.02314e-12
1.36396e-09
-3.73143e-12
1.26945e-09
-3.39367e-12
1.16821e-09
-3.02978e-12
1.0631e-09
-2.65685e-12
9.56506e-10
-2.28938e-12
8.50374e-10
-1.93725e-12
7.46275e-10
-1.60873e-12
6.45448e-10
-1.30902e-12
5.48838e-10
-1.04044e-12
4.57144e-10
-8.02785e-13
3.70853e-10
-5.9374e-13
2.90275e-10
-4.09402e-13
2.15579e-10
-2.44822e-13
1.46808e-10
-9.43779e-14
8.39154e-11
2.67955e-11
-1.62062e-12
6.04356e-10
4.10786e-13
-3.39553e-12
9.20218e-10
-5.48569e-12
1.1681e-09
-7.66665e-12
1.35327e-09
-9.74944e-12
1.48211e-09
-1.15865e-11
1.5615e-09
-1.30731e-11
1.59838e-09
-1.41453e-11
1.59947e-09
-1.47756e-11
1.57105e-09
-1.49676e-11
1.51889e-09
-1.47495e-11
1.44814e-09
-1.41678e-11
1.36338e-09
-1.32817e-11
1.26857e-09
-1.21574e-11
1.16709e-09
-1.08637e-11
1.06181e-09
-9.46856e-12
9.55111e-10
-8.0349e-12
8.4894e-10
-6.61967e-12
7.4486e-10
-5.26984e-12
6.44098e-10
-4.0242e-12
5.47593e-10
-2.9139e-12
4.56034e-10
-1.96312e-12
3.69902e-10
-1.18963e-12
2.89502e-10
-6.0543e-13
2.14994e-10
-2.17399e-13
1.4642e-10
-2.78867e-14
8.37259e-11
2.67676e-11
-1.76353e-12
6.05625e-10
4.94868e-13
-3.57005e-12
9.22025e-10
-5.67231e-12
1.1702e-09
-7.84041e-12
1.35544e-09
-9.8788e-12
1.48415e-09
-1.1637e-11
1.56326e-09
-1.30128e-11
1.59976e-09
-1.39499e-11
1.60041e-09
-1.44326e-11
1.57153e-09
-1.44787e-11
1.51893e-09
-1.41309e-11
1.4478e-09
-1.34491e-11
1.3627e-09
-1.25013e-11
1.26762e-09
-1.13588e-11
1.16595e-09
-1.00908e-11
1.06054e-09
-8.76156e-12
9.53782e-10
-7.42786e-12
8.47606e-10
-6.13655e-12
7.43569e-10
-4.92496e-12
6.42887e-10
-3.82116e-12
5.46489e-10
-2.84482e-12
4.55057e-10
-2.00826e-12
3.69065e-10
-1.31753e-12
2.88811e-10
-7.73501e-13
2.1445e-10
-3.72926e-13
1.4602e-10
-1.09369e-13
8.34624e-11
2.66582e-11
-2.89049e-12
6.07752e-10
7.62774e-13
-5.991e-12
9.25125e-10
-9.65301e-12
1.17387e-09
-1.3498e-11
1.35928e-09
-1.72032e-11
1.48785e-09
-2.05133e-11
1.56657e-09
-2.32442e-11
1.60249e-09
-2.52799e-11
1.60244e-09
-2.6565e-11
1.57282e-09
-2.70956e-11
1.51946e-09
-2.69086e-11
1.44761e-09
-2.60724e-11
1.36186e-09
-2.4678e-11
1.26622e-09
-2.283e-11
1.1641e-09
-2.06398e-11
1.05835e-09
-1.82187e-11
9.51361e-10
-1.56742e-11
8.45062e-10
-1.31069e-11
7.41002e-10
-1.06084e-11
6.40388e-10
-8.25843e-12
5.44139e-10
-6.12425e-12
4.52923e-10
-4.25978e-12
3.67201e-10
-2.70607e-12
2.87258e-10
-1.49204e-12
2.13236e-10
-6.35547e-13
1.45163e-10
-1.44665e-13
8.29715e-11
2.65135e-11
-3.68256e-12
6.10431e-10
1.004e-12
-7.54077e-12
9.28984e-10
-1.2067e-11
1.17839e-09
-1.67817e-11
1.364e-09
-2.12763e-11
1.49235e-09
-2.52318e-11
1.57052e-09
-2.84241e-11
1.60568e-09
-3.07195e-11
1.60474e-09
-3.2065e-11
1.57416e-09
-3.2474e-11
1.51987e-09
-3.20118e-11
1.44715e-09
-3.07814e-11
1.36063e-09
-2.8911e-11
1.26435e-09
-2.65416e-11
1.16173e-09
-2.38173e-11
1.05563e-09
-2.08774e-11
9.48421e-10
-1.78508e-11
8.42035e-10
-1.48522e-11
7.38003e-10
-1.198e-11
6.37516e-10
-9.31531e-12
5.41474e-10
-6.92195e-12
4.5053e-10
-4.8476e-12
3.65126e-10
-3.12504e-12
2.85535e-10
-1.77383e-12
2.11885e-10
-8.022e-13
1.44192e-10
-2.08887e-13
8.23782e-11
2.63047e-11
-4.72449e-12
6.13892e-10
1.26366e-12
-9.71612e-12
9.33975e-10
-1.55424e-11
1.18422e-09
-2.15648e-11
1.37002e-09
-2.72486e-11
1.49803e-09
-3.21854e-11
1.57546e-09
-3.60981e-11
1.6096e-09
-3.8832e-11
1.60747e-09
-4.03386e-11
1.57567e-09
-4.06555e-11
1.52019e-09
-3.98853e-11
1.44638e-09
-3.81742e-11
1.35892e-09
-3.56941e-11
1.26187e-09
-3.26272e-11
1.15866e-09
-2.91547e-11
1.05215e-09
-2.54486e-11
9.44715e-10
-2.16654e-11
8.38252e-10
-1.79427e-11
7.3428e-10
-1.43973e-11
6.33971e-10
-1.1125e-11
5.38202e-10
-8.20094e-12
4.47606e-10
-5.6813e-12
3.62607e-10
-3.60485e-12
2.83459e-10
-1.99497e-12
2.10275e-10
-8.61763e-13
1.43058e-10
-2.0417e-13
8.17206e-11
2.61005e-11
-5.53714e-12
6.17925e-10
1.50391e-12
-1.13113e-11
9.39749e-10
-1.80101e-11
1.19092e-09
-2.48839e-11
1.37689e-09
-3.13115e-11
1.50446e-09
-3.68281e-11
1.58098e-09
-4.11282e-11
1.6139e-09
-4.4053e-11
1.6104e-09
-4.55675e-11
1.57719e-09
-4.57345e-11
1.52036e-09
-4.4687e-11
1.44533e-09
-4.26042e-11
1.35684e-09
-3.96899e-11
1.25896e-09
-3.61555e-11
1.15513e-09
-3.22073e-11
1.04821e-09
-2.8037e-11
9.40544e-10
-2.3816e-11
8.34031e-10
-1.96923e-11
7.30157e-10
-1.57888e-11
6.30067e-10
-1.2204e-11
5.34617e-10
-9.01315e-12
4.44415e-10
-6.27029e-12
3.59864e-10
-4.01062e-12
2.81199e-10
-2.25305e-12
2.08518e-10
-1.00276e-12
1.41808e-10
-2.53663e-13
8.09715e-11
2.58468e-11
-6.21318e-12
6.22465e-10
1.67278e-12
-1.27022e-11
9.46239e-10
-2.01854e-11
1.1984e-09
-2.77996e-11
1.38451e-09
-3.48431e-11
1.5115e-09
-4.08041e-11
1.58694e-09
-4.53601e-11
1.61845e-09
-4.83584e-11
1.61339e-09
-4.97855e-11
1.57861e-09
-4.97346e-11
1.5203e-09
-4.83724e-11
1.44397e-09
-4.59108e-11
1.35438e-09
-4.25831e-11
1.25563e-09
-3.86254e-11
1.15117e-09
-3.42634e-11
1.04384e-09
-2.97032e-11
9.35984e-10
-2.51263e-11
8.29454e-10
-2.06868e-11
7.25717e-10
-1.6511e-11
6.25891e-10
-1.26985e-11
5.30805e-10
-9.32404e-12
4.41041e-10
-6.44002e-12
3.5698e-10
-4.07947e-12
2.78838e-10
-2.2588e-12
2.06697e-10
-9.80534e-13
1.4053e-10
-2.35949e-13
8.02269e-11
2.56109e-11
-6.32417e-12
6.2707e-10
1.71924e-12
-1.28593e-11
9.52774e-10
-2.03397e-11
1.20588e-09
-2.78806e-11
1.39205e-09
-3.47744e-11
1.5184e-09
-4.05196e-11
1.59268e-09
-4.48156e-11
1.62275e-09
-4.7537e-11
1.61612e-09
-4.86986e-11
1.57977e-09
-4.84176e-11
1.52002e-09
-4.6879e-11
1.44243e-09
-4.43053e-11
1.35181e-09
-4.09336e-11
1.25226e-09
-3.69978e-11
1.14723e-09
-3.27165e-11
1.03956e-09
-2.82854e-11
9.31553e-10
-2.38737e-11
8.25043e-10
-1.96225e-11
7.21466e-10
-1.56453e-11
6.21914e-10
-1.20297e-11
5.27189e-10
-8.83982e-12
4.37851e-10
-6.11932e-12
3.54259e-10
-3.894e-12
2.76613e-10
-2.17481e-12
2.04978e-10
-9.60492e-13
1.39316e-10
-2.39987e-13
7.95064e-11
2.53709e-11
-5.96027e-12
6.31419e-10
1.61172e-12
-1.2115e-11
9.58928e-10
-1.91157e-11
1.21288e-09
-2.61133e-11
1.39905e-09
-3.24428e-11
1.52473e-09
-3.76464e-11
1.59789e-09
-4.14631e-11
1.62656e-09
-4.37996e-11
1.61845e-09
-4.46919e-11
1.58067e-09
-4.42673e-11
1.5196e-09
-4.27103e-11
1.44087e-09
-4.02347e-11
1.34933e-09
-3.70622e-11
1.24909e-09
-3.34073e-11
1.14358e-09
-2.94675e-11
1.03562e-09
-2.54173e-11
9.27503e-10
-2.1406e-11
8.21031e-10
-1.75566e-11
7.17617e-10
-1.39675e-11
6.18325e-10
-1.0714e-11
5.23936e-10
-7.85091e-12
4.34988e-10
-5.41514e-12
3.51824e-10
-3.42833e-12
2.74626e-10
-1.89938e-12
2.03449e-10
-8.26764e-13
1.38243e-10
-2.00579e-13
7.88802e-11
2.51703e-11
-4.99349e-12
6.35052e-10
1.36047e-12
-1.01076e-11
9.64043e-10
-1.58929e-11
1.21867e-09
-2.16381e-11
1.40479e-09
-2.67945e-11
1.52988e-09
-3.09936e-11
1.60209e-09
-3.40347e-11
1.62961e-09
-3.58561e-11
1.62027e-09
-3.65006e-11
1.58131e-09
-3.60827e-11
1.51918e-09
-3.47593e-11
1.43955e-09
-3.27073e-11
1.34728e-09
-3.01071e-11
1.24649e-09
-2.71307e-11
1.1406e-09
-2.39349e-11
1.03243e-09
-2.06575e-11
9.24225e-10
-1.74155e-11
8.17789e-10
-1.43054e-11
7.14506e-10
-1.14041e-11
6.15424e-10
-8.77084e-12
5.21302e-10
-6.44901e-12
4.32666e-10
-4.46822e-12
3.49843e-10
-2.84633e-12
2.73004e-10
-1.59143e-12
2.02194e-10
-7.03509e-13
1.37355e-10
-1.76007e-13
7.83527e-11
2.49943e-11
-3.70872e-12
6.37757e-10
1.00411e-12
-7.51787e-12
9.67852e-10
-1.18206e-11
1.22297e-09
-1.60869e-11
1.40906e-09
-1.99124e-11
1.53371e-09
-2.30292e-11
1.6052e-09
-2.52937e-11
1.63187e-09
-2.66641e-11
1.62164e-09
-2.71731e-11
1.58182e-09
-2.69039e-11
1.51891e-09
-2.59693e-11
1.43861e-09
-2.44956e-11
1.3458e-09
-2.26114e-11
1.2446e-09
-2.04396e-11
1.13843e-09
-1.80929e-11
1.03008e-09
-1.56712e-11
9.21804e-10
-1.32604e-11
8.15378e-10
-1.09327e-11
7.12179e-10
-8.74717e-12
6.13238e-10
-6.75056e-12
5.19306e-10
-4.97874e-12
4.30894e-10
-3.4578e-12
3.48322e-10
-2.20541e-12
2.71752e-10
-1.23198e-12
2.0122e-10
-5.41691e-13
1.36665e-10
-1.33602e-13
7.79446e-11
2.48607e-11
-2.21517e-12
6.39368e-10
6.03552e-13
-4.48624e-12
9.70123e-10
-7.06237e-12
1.22554e-09
-9.63508e-12
1.41163e-09
-1.19683e-11
1.53604e-09
-1.39037e-11
1.60714e-09
-1.53538e-11
1.63332e-09
-1.62878e-11
1.62258e-09
-1.67173e-11
1.58225e-09
-1.66826e-11
1.51888e-09
-1.62413e-11
1.43817e-09
-1.54601e-11
1.34502e-09
-1.44089e-11
1.24355e-09
-1.31562e-11
1.13718e-09
-1.1767e-11
1.02869e-09
-1.03008e-11
9.20338e-10
-8.81124e-12
8.13889e-10
-7.34521e-12
7.10713e-10
-5.94329e-12
6.11836e-10
-4.63976e-12
5.18002e-10
-3.46289e-12
4.29717e-10
-2.43541e-12
3.47294e-10
-1.57486e-12
2.70891e-10
-8.94124e-13
2.0054e-10
-4.0183e-13
1.36172e-10
-1.02827e-13
7.76456e-11
2.47579e-11
-7.43592e-13
6.39914e-10
1.97963e-13
-1.53047e-12
9.7091e-10
-2.44932e-12
1.22646e-09
-3.40471e-12
1.41259e-09
-4.32069e-12
1.53696e-09
-5.14143e-12
1.60796e-09
-5.82914e-12
1.63401e-09
-6.36084e-12
1.62311e-09
-6.72523e-12
1.58261e-09
-6.92007e-12
1.51907e-09
-6.95019e-12
1.4382e-09
-6.82593e-12
1.3449e-09
-6.562e-12
1.24329e-09
-6.17655e-12
1.13679e-09
-5.69027e-12
1.0282e-09
-5.12566e-12
9.19773e-10
-4.50622e-12
8.13269e-10
-3.85581e-12
7.10062e-10
-3.19792e-12
6.11178e-10
-2.55517e-12
5.1736e-10
-1.94873e-12
4.29111e-10
-1.398e-12
3.46744e-10
-9.20252e-13
2.70414e-10
-5.30435e-13
2.0015e-10
-2.41064e-13
1.35883e-10
-6.21648e-14
7.74667e-11
2.46957e-11
6.76884e-13
6.39422e-10
-1.85031e-13
1.34874e-12
9.70238e-10
2.06978e-12
1.22574e-09
2.7284e-12
1.41193e-09
3.24427e-12
1.53644e-09
3.57126e-12
1.60763e-09
3.6947e-12
1.63388e-09
3.62507e-12
1.62318e-09
3.39056e-12
1.58285e-09
3.02972e-12
1.51943e-09
2.58517e-12
1.43865e-09
2.09865e-12
1.34539e-09
1.60756e-12
1.24378e-09
1.14282e-12
1.13726e-09
7.27806e-13
1.02862e-09
3.78202e-13
9.20122e-10
1.02402e-13
8.13545e-10
-9.76635e-14
7.10262e-10
-2.25473e-13
6.11306e-10
-2.8878e-13
5.17423e-10
-2.98484e-13
4.2912e-10
-2.67582e-13
3.46713e-10
-2.1023e-13
2.70356e-10
-1.40946e-13
2.00081e-10
-7.39508e-14
1.35816e-10
-2.26581e-14
7.74154e-11
2.46731e-11
1.99047e-12
6.37975e-10
-5.43768e-13
4.00988e-12
9.68218e-10
6.26382e-12
1.22349e-09
8.45744e-12
1.40973e-09
1.03672e-11
1.53453e-09
1.18485e-11
1.60615e-09
1.28301e-11
1.6329e-09
1.33013e-11
1.62271e-09
1.3296e-11
1.58285e-09
1.28776e-11
1.51985e-09
1.21262e-11
1.4394e-09
1.11272e-11
1.34638e-09
9.96403e-12
1.24494e-09
8.71305e-12
1.13851e-09
7.44005e-12
1.02989e-09
6.199e-12
9.21364e-10
5.03169e-12
8.14712e-10
3.96831e-12
7.11326e-10
3.02857e-12
6.12246e-10
2.22308e-12
5.18228e-10
1.55487e-12
4.29789e-10
1.02087e-12
3.47247e-10
6.13395e-13
2.70764e-10
3.21366e-13
2.00373e-10
1.31485e-13
1.36006e-10
2.91741e-14
7.75177e-11
2.47022e-11
3.22625e-12
6.35625e-10
-8.75735e-13
6.53968e-12
9.64905e-10
1.02893e-11
1.21974e-09
1.40114e-11
1.40601e-09
1.73457e-11
1.5312e-09
2.00481e-11
1.60345e-09
2.19839e-11
1.63097e-09
2.31103e-11
1.62158e-09
2.34552e-11
1.58251e-09
2.30958e-11
1.52021e-09
2.21397e-11
1.44035e-09
2.07093e-11
1.34781e-09
1.89297e-11
1.24672e-09
1.69206e-11
1.14052e-09
1.47908e-11
1.03202e-09
1.26347e-11
9.2352e-10
1.0531e-11
8.16816e-10
8.5426e-12
7.13314e-10
6.71755e-12
6.14071e-10
5.09151e-12
5.19854e-10
3.6847e-12
4.31195e-10
2.50895e-12
3.48423e-10
1.56754e-12
2.71705e-10
8.56832e-13
2.01083e-10
3.67853e-13
1.36495e-10
8.76417e-14
7.7798e-11
2.47899e-11
4.3473e-12
6.32456e-10
-1.17875e-12
8.84131e-12
9.60411e-10
1.39767e-11
1.2146e-09
1.91438e-11
1.40085e-09
2.38595e-11
1.52648e-09
2.77842e-11
1.59952e-09
3.07163e-11
1.62803e-09
3.25731e-11
1.61973e-09
3.33658e-11
1.58172e-09
3.31743e-11
1.5204e-09
3.21297e-11
1.4414e-09
3.03754e-11
1.34957e-09
2.80719e-11
1.24903e-09
2.53779e-11
1.14321e-09
2.24429e-11
1.03496e-09
1.94011e-11
9.26561e-10
1.63695e-11
8.19848e-10
1.3446e-11
7.16238e-10
1.07101e-11
6.16807e-10
8.22325e-12
5.22341e-10
6.03076e-12
4.33388e-10
4.1633e-12
3.5029e-10
2.63901e-12
2.73229e-10
1.46532e-12
2.02257e-10
6.40819e-13
1.37319e-10
1.56985e-13
7.82818e-11
2.49469e-11
5.31017e-12
6.28582e-10
-1.43588e-12
1.08355e-11
9.54886e-10
1.71989e-11
1.20824e-09
2.36697e-11
1.39437e-09
2.9659e-11
1.52049e-09
3.4741e-11
1.59444e-09
3.86495e-11
1.62413e-09
4.12583e-11
1.61712e-09
4.25552e-11
1.58042e-09
4.26135e-11
1.52034e-09
4.15661e-11
1.44245e-09
3.95825e-11
1.35155e-09
3.68505e-11
1.25176e-09
3.3562e-11
1.1465e-09
2.99024e-11
1.03862e-09
2.60434e-11
9.3042e-10
2.21385e-11
8.23753e-10
1.83208e-11
7.20055e-10
1.47019e-11
6.20426e-10
1.13706e-11
5.25672e-10
8.39937e-12
4.36359e-10
5.84013e-12
3.52849e-10
3.72831e-12
2.75341e-10
2.0849e-12
2.039e-10
9.1844e-13
1.38486e-10
2.27062e-13
7.89732e-11
2.51739e-11
6.01145e-12
6.24194e-10
-1.62384e-12
1.22938e-11
9.48603e-10
1.95728e-11
1.20096e-09
2.70345e-11
1.38691e-09
3.40139e-11
1.51351e-09
4.00193e-11
1.58844e-09
4.47315e-11
1.61941e-09
4.79854e-11
1.61386e-09
4.97437e-11
1.57866e-09
5.0068e-11
1.52002e-09
4.90848e-11
1.44343e-09
4.69806e-11
1.35366e-09
4.39609e-11
1.25478e-09
4.02408e-11
1.15022e-09
3.60331e-11
1.04282e-09
3.15387e-11
9.34915e-10
2.69411e-11
8.2835e-10
2.24027e-11
7.24594e-10
1.80626e-11
6.24766e-10
1.40366e-11
5.29698e-10
1.04178e-11
4.39978e-10
7.27763e-12
3.55989e-10
4.66807e-12
2.77951e-10
2.62326e-12
2.05945e-10
1.16192e-12
1.39947e-10
2.89434e-13
7.98456e-11
2.54634e-11
6.35614e-12
6.19553e-10
-1.71466e-12
1.30215e-11
9.41938e-10
2.07764e-11
1.19321e-09
2.87693e-11
1.37892e-09
3.62973e-11
1.50599e-09
4.28331e-11
1.5819e-09
4.80256e-11
1.61422e-09
5.16836e-11
1.6102e-09
5.37505e-11
1.57659e-09
5.42759e-11
1.51949e-09
5.33877e-11
1.44432e-09
5.12671e-11
1.35578e-09
4.81266e-11
1.25792e-09
4.41932e-11
1.15415e-09
3.96942e-11
1.04732e-09
3.48474e-11
9.39762e-10
2.98542e-11
8.33343e-10
2.48949e-11
7.29553e-10
2.01265e-11
6.29534e-10
1.56815e-11
5.34143e-10
1.1668e-11
4.43991e-10
8.17087e-12
3.59486e-10
5.25332e-12
2.80868e-10
2.95888e-12
2.0824e-10
1.31356e-12
1.41592e-10
3.28115e-13
8.08311e-11
2.57915e-11
6.27735e-12
6.14968e-10
-1.69281e-12
1.28713e-11
9.35344e-10
2.0561e-11
1.18552e-09
2.85106e-11
1.37097e-09
3.60259e-11
1.49847e-09
4.25813e-11
1.57535e-09
4.7822e-11
1.60898e-09
5.15494e-11
1.60648e-09
5.36979e-11
1.57445e-09
5.43078e-11
1.51888e-09
5.34993e-11
1.44513e-09
5.14471e-11
1.35783e-09
4.836e-11
1.261e-09
4.44629e-11
1.15805e-09
3.99829e-11
1.0518e-09
3.51388e-11
9.44606e-10
3.01343e-11
8.38348e-10
2.51523e-11
7.34535e-10
2.03528e-11
6.34334e-10
1.58712e-11
5.38625e-10
1.18188e-11
4.48044e-10
8.28302e-12
3.63022e-10
5.32968e-12
2.83822e-10
3.00445e-12
2.10565e-10
1.33517e-12
1.43262e-10
3.34078e-13
8.18322e-11
2.61256e-11
5.76963e-12
6.10754e-10
-1.55556e-12
1.18326e-11
9.29281e-10
1.89053e-11
1.17844e-09
2.62192e-11
1.36366e-09
3.31347e-11
1.49156e-09
3.91667e-11
1.56931e-09
4.39871e-11
1.60416e-09
4.74119e-11
1.60305e-09
4.93803e-11
1.57248e-09
4.99297e-11
1.51833e-09
4.91718e-11
1.44588e-09
4.72687e-11
1.35973e-09
4.44141e-11
1.26386e-09
4.08163e-11
1.16165e-09
3.66855e-11
1.05593e-09
3.22239e-11
9.49067e-10
2.76194e-11
8.42953e-10
2.30404e-11
7.39114e-10
1.86334e-11
6.38741e-10
1.45224e-11
5.42736e-10
1.08084e-11
4.51758e-10
7.57079e-12
3.6626e-10
4.86882e-12
2.86524e-10
2.74322e-12
2.12691e-10
1.21845e-12
1.44787e-10
3.0473e-13
8.27459e-11
2.64303e-11
4.89352e-12
6.07181e-10
-1.31987e-12
1.00307e-11
9.24144e-10
1.60157e-11
1.17246e-09
2.21935e-11
1.35748e-09
2.80203e-11
1.48573e-09
3.30852e-11
1.56425e-09
3.71123e-11
1.60013e-09
3.99496e-11
1.60021e-09
4.15504e-11
1.57088e-09
4.19519e-11
1.51793e-09
4.12536e-11
1.44658e-09
3.95971e-11
1.36139e-09
3.71492e-11
1.26631e-09
3.4088e-11
1.16471e-09
3.05918e-11
1.05943e-09
2.68312e-11
9.52828e-10
2.29634e-11
8.4682e-10
1.91285e-11
7.42949e-10
1.54479e-11
6.42422e-10
1.2023e-11
5.46161e-10
8.93623e-12
4.54845e-10
6.25133e-12
3.68945e-10
4.01526e-12
2.8876e-10
2.25963e-12
2.14446e-10
1.00255e-12
1.46044e-10
2.50483e-13
8.3498e-11
2.66808e-11
3.81992e-12
6.04392e-10
-1.03087e-12
7.82341e-12
9.2014e-10
1.24774e-11
1.16781e-09
1.72672e-11
1.35269e-09
2.17669e-11
1.48123e-09
2.56575e-11
1.56036e-09
2.87274e-11
1.59706e-09
3.08631e-11
1.59808e-09
3.2034e-11
1.56971e-09
3.22748e-11
1.51769e-09
3.16682e-11
1.44719e-09
3.03289e-11
1.36273e-09
2.83897e-11
1.26825e-09
2.59913e-11
1.16711e-09
2.32727e-11
1.06215e-09
2.03659e-11
9.55735e-10
1.73913e-11
8.49795e-10
1.44552e-11
7.45885e-10
1.16487e-11
6.45228e-10
9.04704e-12
5.48763e-10
6.71047e-12
4.57181e-10
4.68491e-12
3.7097e-10
3.00327e-12
2.90441e-10
1.6869e-12
2.15763e-10
7.47021e-13
1.46983e-10
1.86264e-13
8.40587e-11
2.6867e-11
2.75579e-12
6.0238e-10
-7.44232e-13
5.63746e-12
9.17259e-10
8.97733e-12
1.16447e-09
1.24005e-11
1.34927e-09
1.5599e-11
1.47803e-09
1.83443e-11
1.55761e-09
2.04876e-11
1.59492e-09
2.19523e-11
1.59661e-09
2.2722e-11
1.56894e-09
2.28275e-11
1.51759e-09
2.23331e-11
1.44768e-09
2.13253e-11
1.36374e-09
1.99025e-11
1.26967e-09
1.81668e-11
1.16884e-09
1.62183e-11
1.0641e-09
1.41509e-11
9.57802e-10
1.2049e-11
8.51897e-10
9.98617e-12
7.47948e-10
8.02471e-12
6.4719e-10
6.2153e-12
5.50572e-10
4.59766e-12
4.58799e-10
3.20138e-12
3.72367e-10
2.04693e-12
2.91596e-10
1.14678e-12
2.16663e-10
5.0651e-13
1.47624e-10
1.25921e-13
8.44393e-11
2.69929e-11
1.83357e-12
6.01042e-10
-4.95639e-13
3.7458e-12
9.15346e-10
5.95444e-12
1.16226e-09
8.2076e-12
1.34701e-09
1.02998e-11
1.47594e-09
1.20805e-11
1.55583e-09
1.34536e-11
1.59355e-09
1.43721e-11
1.5957e-09
1.48294e-11
1.56848e-09
1.48501e-11
1.51757e-09
1.44805e-11
1.44805e-09
1.37807e-11
1.36444e-09
1.28178e-11
1.27063e-09
1.16604e-11
1.17e-09
1.03746e-11
1.06538e-09
9.0218e-12
9.59155e-10
7.65627e-12
8.53262e-10
6.3248e-12
7.49279e-10
5.06621e-12
6.48448e-10
3.91157e-12
5.51727e-10
2.88466e-12
4.59826e-10
2.00263e-12
3.73249e-10
1.27678e-12
2.92322e-10
7.13334e-13
2.17226e-10
3.14239e-13
1.48023e-10
7.79185e-14
8.46756e-11
2.70709e-11
1.08866e-12
6.00248e-10
-2.94859e-13
2.21874e-12
9.14216e-10
3.51656e-12
1.16096e-09
4.83018e-12
1.3457e-09
6.0371e-12
1.47473e-09
7.04927e-12
1.55482e-09
7.81257e-12
1.59278e-09
8.3029e-12
1.59521e-09
8.52059e-12
1.56826e-09
8.48421e-12
1.5176e-09
8.22474e-12
1.44831e-09
7.78046e-12
1.36488e-09
7.19276e-12
1.27122e-09
6.50298e-12
1.17069e-09
5.75008e-12
1.06614e-09
4.96923e-12
9.59936e-10
4.19093e-12
8.54041e-10
3.4407e-12
7.50029e-10
2.7391e-12
6.4915e-10
2.10194e-12
5.52364e-10
1.54073e-12
4.60387e-10
1.0632e-12
3.73726e-10
6.73764e-13
2.92711e-10
3.74126e-13
2.17526e-10
1.63735e-13
1.48233e-10
4.02678e-14
8.47991e-11
2.71111e-11
5.77505e-13
5.99827e-10
-1.56378e-13
1.17413e-12
9.1362e-10
1.85359e-12
1.16028e-09
2.53323e-12
1.34502e-09
3.14759e-12
1.47412e-09
3.65102e-12
1.55432e-09
4.01708e-12
1.59242e-09
4.23598e-12
1.59499e-09
4.31115e-12
1.56819e-09
4.25551e-12
1.51766e-09
4.08807e-12
1.44848e-09
3.83104e-12
1.36514e-09
3.50746e-12
1.27154e-09
3.13964e-12
1.17106e-09
2.74797e-12
1.06653e-09
2.35022e-12
9.60333e-10
1.96129e-12
8.5443e-10
1.59305e-12
7.50398e-10
1.25455e-12
6.49488e-10
9.5226e-13
5.52666e-10
6.90358e-13
4.60649e-10
4.71104e-13
3.73945e-10
2.95174e-13
2.92887e-10
1.61988e-13
2.17659e-10
6.99954e-14
1.48325e-10
1.69379e-14
8.48522e-11
2.71281e-11
2.60779e-13
5.99638e-10
-7.12357e-14
5.26509e-13
9.13354e-10
8.24986e-13
1.15998e-09
1.11781e-12
1.34473e-09
1.37527e-12
1.47386e-09
1.5776e-12
1.55411e-09
1.71448e-12
1.59228e-09
1.78362e-12
1.59492e-09
1.78885e-12
1.56818e-09
1.73813e-12
1.51771e-09
1.64184e-12
1.44858e-09
1.51128e-12
1.36527e-09
1.35763e-12
1.2717e-09
1.19115e-12
1.17122e-09
1.0208e-12
1.0667e-09
8.53942e-13
9.605e-10
6.9631e-13
8.54587e-10
5.52071e-13
7.50542e-10
4.23969e-13
6.49616e-10
3.13526e-13
5.52776e-10
2.21256e-13
4.60741e-10
1.46868e-13
3.7402e-10
8.94716e-14
2.92944e-10
4.7746e-14
2.17701e-10
2.00887e-14
1.48353e-10
4.74329e-15
8.48675e-11
2.71328e-11
5.28835e-14
5.99599e-10
-1.46166e-14
1.0266e-13
9.13304e-10
1.51356e-13
1.15993e-09
1.88782e-13
1.34469e-09
2.08428e-13
1.47384e-09
2.07644e-13
1.55412e-09
1.87146e-13
1.5923e-09
1.50144e-13
1.59495e-09
1.01376e-13
1.56823e-09
4.62146e-14
1.51776e-09
-1.00705e-14
1.44863e-09
-6.28312e-14
1.36532e-09
-1.08372e-13
1.27174e-09
-1.44124e-13
1.17126e-09
-1.68675e-13
1.06672e-09
-1.81657e-13
9.60513e-10
-1.83599e-13
8.54589e-10
-1.7573e-13
7.50534e-10
-1.59799e-13
6.496e-10
-1.37889e-13
5.52755e-10
-1.12258e-13
4.60716e-10
-8.52047e-14
3.73993e-10
-5.89526e-14
2.92918e-10
-3.55711e-14
2.17677e-10
-1.69128e-14
1.48334e-10
-4.57937e-15
8.48552e-11
2.71282e-11
-7.22459e-14
5.99653e-10
1.89918e-14
-1.52909e-13
9.13385e-10
-2.53662e-13
1.16003e-09
-3.66975e-13
1.3448e-09
-4.85214e-13
1.47396e-09
-6.00975e-13
1.55423e-09
-7.07476e-13
1.59241e-09
-7.98921e-13
1.59505e-09
-8.70795e-13
1.5683e-09
-9.20026e-13
1.51781e-09
-9.45034e-13
1.44866e-09
-9.4567e-13
1.36532e-09
-9.23059e-13
1.27172e-09
-8.79398e-13
1.17122e-09
-8.17711e-13
1.06666e-09
-7.41604e-13
9.60437e-10
-6.55025e-13
8.54503e-10
-5.62055e-13
7.50441e-10
-4.66725e-13
6.49505e-10
-3.72868e-13
5.52661e-10
-2.84008e-13
4.60627e-10
-2.03282e-13
3.73912e-10
-1.33389e-13
2.92848e-10
-7.65699e-14
2.1762e-10
-3.4598e-14
1.48292e-10
-8.80179e-15
8.48294e-11
2.71194e-11
-1.37047e-13
5.99753e-10
3.67892e-14
-2.84055e-13
9.13532e-10
-4.60393e-13
1.16021e-09
-6.49435e-13
1.34499e-09
-8.36284e-13
1.47414e-09
-1.00845e-12
1.5544e-09
-1.15617e-12
1.59256e-09
-1.27254e-12
1.59516e-09
-1.35336e-12
1.56838e-09
-1.39697e-12
1.51786e-09
-1.40386e-12
1.44866e-09
-1.37632e-12
1.36529e-09
-1.31803e-12
1.27166e-09
-1.23366e-12
1.17113e-09
-1.12847e-12
1.06656e-09
-1.00806e-12
9.60317e-10
-8.78041e-13
8.54373e-10
-7.43815e-13
7.50307e-10
-6.10438e-13
6.49372e-10
-4.82481e-13
5.52533e-10
-3.63955e-13
4.60508e-10
-2.58269e-13
3.73806e-10
-1.6822e-13
2.92758e-10
-9.60019e-14
2.17548e-10
-4.32346e-14
1.48239e-10
-1.10099e-14
8.47971e-11
2.71084e-11
-1.66434e-13
5.99875e-10
4.46077e-14
-3.43908e-13
9.13709e-10
-5.54507e-13