/*--------------------------------*- C++ -*----------------------------------*\
| =========                 |                                                 |
| \\      /  F ield         | OpenFOAM: The Open Source CFD Toolbox           |
|  \\    /   O peration     | Version:  2106                                  |
|   \\  /    A nd           | Website:  www.openfoam.com                      |
|    \\/     M anipulation  |                                                 |
\*---------------------------------------------------------------------------*/
FoamFile
{
    version     2.0;
    format      ascii;
    arch        "LSB;label=32;scalar=64";
    class       volScalarField;
    location    "160.00011";
    object      T;
}
// * * * * * * * * * * * * * * * * * * * * * * * * * * * * * * * * * * * * * //

dimensions      [0 0 0 1 0 0 0];

internalField   nonuniform List<scalar> 
3360
(
301
301
301
301
301
301
301
301
301
301
301
301
301
301
301
301
301
301
301
301
301
301
301
301
301
301
301
301
301
301
301
301
301
301
301
301
301
301
301
301
301
301
301
301
301
301
301
301
301
301
301
301
301
301
301
301
301
301
301
301
301
301
301
301.001
301.001
301.001
301.001
301.001
301
301
301
301
301
301
301
301
301
301
301
301
301
301.001
301.001
301.001
301.002
301.002
301.002
301.002
301.002
301.002
301.002
301.002
301.002
301.002
301.002
301.002
301.002
301.002
301.002
301.002
301.002
301.002
301.002
301.002
301.002
301.002
301.002
301.002
301.004
301.004
301.005
301.005
301.005
301.005
301.006
301.006
301.006
301.007
301.007
301.007
301.008
301.008
301.008
301.008
301.009
301.009
301.009
301.009
301.009
301.009
301.009
301.009
301.009
301.009
301.009
301.012
301.012
301.013
301.014
301.014
301.015
301.017
301.018
301.019
301.02
301.021
301.023
301.024
301.025
301.026
301.027
301.028
301.029
301.03
301.03
301.031
301.031
301.031
301.032
301.032
301.032
301.032
301.03
301.031
301.033
301.035
301.038
301.04
301.044
301.047
301.05
301.054
301.057
301.061
301.065
301.068
301.071
301.075
301.078
301.08
301.083
301.085
301.087
301.089
301.091
301.092
301.093
301.094
301.095
301.071
301.074
301.078
301.083
301.089
301.096
301.104
301.112
301.12
301.129
301.138
301.147
301.156
301.165
301.174
301.182
301.19
301.198
301.205
301.211
301.217
301.222
301.227
301.231
301.235
301.238
301.241
301.156
301.163
301.172
301.183
301.197
301.212
301.228
301.246
301.265
301.285
301.305
301.325
301.345
301.365
301.385
301.404
301.422
301.439
301.456
301.471
301.485
301.498
301.51
301.521
301.53
301.539
301.546
301.322
301.335
301.353
301.376
301.404
301.434
301.468
301.505
301.543
301.583
301.624
301.665
301.706
301.747
301.787
301.826
301.864
301.9
301.934
301.966
301.996
302.024
302.05
302.073
302.094
302.113
302.13
301.627
301.652
301.687
301.73
301.782
301.841
301.905
301.974
302.046
302.122
302.199
302.277
302.355
302.433
302.509
302.583
302.655
302.724
302.79
302.852
302.91
302.964
303.014
303.06
303.103
303.141
303.175
302.163
302.207
302.269
302.348
302.441
302.546
302.66
302.783
302.913
303.048
303.185
303.325
303.464
303.603
303.739
303.871
304
304.123
304.241
304.352
304.457
304.555
304.646
304.731
304.808
304.879
304.943
303.066
303.142
303.249
303.384
303.543
303.721
303.917
304.127
304.347
304.576
304.809
305.045
305.282
305.516
305.746
305.971
306.188
306.397
306.596
306.785
306.963
307.13
307.286
307.43
307.564
307.686
307.797
304.537
304.662
304.839
305.061
305.321
305.614
305.934
306.277
306.636
307.008
307.387
307.77
308.153
308.532
308.905
309.267
309.618
309.955
310.277
310.583
310.871
311.141
311.393
311.628
311.844
312.043
312.226
306.866
307.064
307.346
307.698
308.111
308.575
309.08
309.619
310.184
310.766
311.36
311.957
312.554
313.143
313.721
314.284
314.827
315.349
315.846
316.318
316.764
317.181
317.572
317.935
318.27
318.579
318.863
310.46
310.766
311.2
311.743
312.376
313.087
313.859
314.68
315.537
316.42
317.316
318.217
319.114
319.997
320.862
321.702
322.512
323.288
324.028
324.729
325.39
326.01
326.589
327.127
327.625
328.084
328.505
315.889
316.349
317
317.811
318.757
319.812
320.957
322.17
323.432
324.727
326.038
327.351
328.654
329.934
331.184
332.394
333.558
334.672
335.732
336.734
337.678
338.562
339.387
340.154
340.863
341.517
342.117
323.937
324.609
325.558
326.738
328.108
329.634
331.281
333.019
334.822
336.663
338.52
340.373
342.204
343.998
345.743
347.427
349.044
350.586
352.05
353.432
354.73
355.946
357.078
358.13
359.102
359.999
360.822
335.649
336.605
337.951
339.618
341.548
343.687
345.987
348.403
350.897
353.433
355.98
358.51
361
363.43
365.784
368.05
370.217
372.279
374.231
376.07
377.795
379.406
380.906
382.297
383.582
384.766
385.853
352.366
353.684
355.534
357.818
360.45
363.356
366.464
369.715
373.054
376.432
379.808
383.147
386.419
389.6
392.669
395.614
398.421
401.084
403.599
405.963
408.176
410.24
412.158
413.936
415.577
417.089
418.476
375.685
377.44
379.896
382.918
386.386
390.196
394.252
398.473
402.785
407.128
411.449
415.702
419.853
423.872
427.738
431.434
434.948
438.274
441.406
444.345
447.092
449.651
452.028
454.228
456.258
458.128
459.845
407.303
409.55
412.686
416.531
420.926
425.731
430.824
436.099
441.464
446.843
452.172
457.398
462.48
467.384
472.088
476.572
480.827
484.844
488.623
492.163
495.469
498.547
501.403
504.047
506.488
508.737
510.803
448.698
451.454
455.292
459.981
465.321
471.139
477.28
483.616
490.037
496.451
502.783
508.975
514.979
520.76
526.292
531.558
536.545
541.25
545.67
549.81
553.675
557.272
560.612
563.705
566.564
569.2
571.625
500.694
503.925
508.416
513.89
520.107
526.86
533.968
541.281
548.672
556.036
563.291
570.37
577.223
583.812
590.11
596.099
601.769
607.115
612.14
616.846
621.241
625.336
629.142
632.671
635.938
638.956
641.74
563.038
566.661
571.688
577.807
584.746
592.267
600.171
608.288
616.478
624.628
632.648
640.466
648.028
655.296
662.242
668.848
675.104
681.006
686.557
691.762
696.63
701.172
705.401
709.331
712.977
716.355
719.478
634.172
638.061
643.456
650.016
657.448
665.498
673.95
682.624
691.371
700.072
708.631
716.975
725.049
732.81
740.232
747.297
753.994
760.321
766.281
771.878
777.124
782.029
786.607
790.873
794.842
798.53
801.952
711.29
715.296
720.853
727.609
735.261
743.548
752.248
761.177
770.183
779.144
787.963
796.566
804.896
812.913
820.588
827.903
834.849
841.422
847.626
853.466
858.951
864.094
868.907
873.405
877.604
881.518
885.163
790.698
794.664
800.164
806.852
814.429
822.637
831.257
840.107
849.039
857.932
866.692
875.245
883.536
891.525
899.184
906.495
913.449
920.044
926.28
932.163
937.703
942.911
947.798
952.38
956.669
960.682
964.431
868.408
872.179
877.411
883.775
890.986
898.8
907.011
915.445
923.961
932.446
940.811
948.984
956.915
964.565
971.909
978.928
985.615
991.965
997.981
1003.67
1009.04
1014.09
1018.85
1023.32
1027.51
1031.45
1035.13
940.794
944.238
949.016
954.828
961.414
968.553
976.054
983.761
991.545
999.302
1006.96
1014.44
1021.69
1028.7
1035.42
1041.85
1047.98
1053.81
1059.34
1064.56
1069.5
1074.16
1078.54
1082.67
1086.55
1090.19
1093.61
1005.15
1008.17
1012.35
1017.43
1023.19
1029.43
1035.99
1042.72
1049.51
1056.27
1062.94
1069.44
1075.75
1081.84
1087.68
1093.25
1098.57
1103.61
1108.39
1112.91
1117.18
1121.2
1124.98
1128.55
1131.89
1135.04
1137.99
1059.92
1062.44
1065.94
1070.19
1074.99
1080.19
1085.64
1091.22
1096.85
1102.44
1107.93
1113.28
1118.45
1123.43
1128.19
1132.72
1137.02
1141.1
1144.95
1148.58
1152
1155.21
1158.22
1161.05
1163.7
1166.18
1168.51
1104.7
1106.71
1109.48
1112.84
1116.64
1120.74
1125.02
1129.39
1133.77
1138.11
1142.35
1146.46
1150.42
1154.2
1157.8
1161.21
1164.43
1167.45
1170.3
1172.96
1175.45
1177.78
1179.95
1181.98
1183.87
1185.63
1187.27
1139.91
1141.41
1143.48
1145.98
1148.79
1151.81
1154.95
1158.13
1161.31
1164.42
1167.45
1170.35
1173.13
1175.76
1178.23
1180.56
1182.73
1184.76
1186.65
1188.4
1190.02
1191.51
1192.9
1194.18
1195.36
1196.45
1197.45
1166.45
1167.49
1168.91
1170.63
1172.54
1174.58
1176.69
1178.81
1180.89
1182.93
1184.87
1186.73
1188.47
1190.1
1191.61
1193.01
1194.3
1195.48
1196.56
1197.54
1198.43
1199.24
1199.97
1200.64
1201.23
1201.77
1202.25
1185.5
1186.15
1187.03
1188.09
1189.26
1190.5
1191.75
1193
1194.21
1195.37
1196.45
1197.47
1198.4
1199.24
1200
1200.69
1201.29
1201.83
1202.29
1202.7
1203.04
1203.34
1203.59
1203.8
1203.96
1204.1
1204.21
1198.5
1198.84
1199.31
1199.87
1200.47
1201.09
1201.71
1202.3
1202.86
1203.37
1203.82
1204.22
1204.56
1204.85
1205.08
1205.25
1205.38
1205.47
1205.51
1205.52
1205.5
1205.45
1205.37
1205.27
1205.16
1205.03
1204.89
1206.89
1207.02
1207.19
1207.39
1207.59
1207.78
1207.95
1208.09
1208.2
1208.27
1208.29
1208.28
1208.23
1208.14
1208.02
1207.87
1207.69
1207.49
1207.27
1207.03
1206.78
1206.51
1206.24
1205.96
1205.68
1205.39
1205.11
1211.97
1211.96
1211.93
1211.89
1211.83
1211.74
1211.62
1211.48
1211.29
1211.08
1210.84
1210.57
1210.28
1209.97
1209.63
1209.29
1208.93
1208.56
1208.18
1207.8
1207.42
1207.04
1206.66
1206.28
1205.9
1205.54
1205.18
1214.78
1214.69
1214.54
1214.36
1214.14
1213.88
1213.59
1213.27
1212.92
1212.54
1212.15
1211.73
1211.31
1210.87
1210.42
1209.97
1209.51
1209.05
1208.6
1208.15
1207.7
1207.26
1206.83
1206.41
1205.99
1205.59
1205.19
1216.13
1215.98
1215.77
1215.51
1215.2
1214.85
1214.47
1214.05
1213.61
1213.16
1212.68
1212.2
1211.7
1211.2
1210.7
1210.2
1209.7
1209.21
1208.73
1208.25
1207.78
1207.32
1206.87
1206.43
1206.01
1205.6
1205.2
1216.57
1216.4
1216.16
1215.85
1215.5
1215.11
1214.68
1214.23
1213.75
1213.26
1212.75
1212.24
1211.72
1211.21
1210.69
1210.18
1209.67
1209.17
1208.68
1208.21
1207.74
1207.28
1206.84
1206.41
1205.99
1205.58
1205.19
1216.47
1216.29
1216.04
1215.72
1215.36
1214.96
1214.52
1214.05
1213.57
1213.07
1212.56
1212.05
1211.54
1211.03
1210.52
1210.01
1209.52
1209.03
1208.55
1208.09
1207.63
1207.19
1206.76
1206.35
1205.95
1205.56
1205.18
1216.08
1215.9
1215.65
1215.34
1214.98
1214.58
1214.15
1213.69
1213.22
1212.73
1212.24
1211.74
1211.25
1210.75
1210.26
1209.78
1209.3
1208.83
1208.38
1207.93
1207.5
1207.08
1206.67
1206.28
1205.9
1205.53
1205.17
1215.55
1215.38
1215.13
1214.83
1214.49
1214.1
1213.69
1213.25
1212.8
1212.33
1211.86
1211.39
1210.91
1210.44
1209.98
1209.52
1209.06
1208.62
1208.19
1207.77
1207.36
1206.96
1206.58
1206.21
1205.85
1205.5
1205.16
1214.97
1214.81
1214.57
1214.29
1213.96
1213.59
1213.2
1212.78
1212.35
1211.91
1211.47
1211.02
1210.57
1210.13
1209.69
1209.25
1208.83
1208.41
1208
1207.61
1207.22
1206.85
1206.49
1206.13
1205.8
1205.47
1205.15
1214.39
1214.24
1214.02
1213.75
1213.44
1213.09
1212.72
1212.33
1211.92
1211.51
1211.09
1210.67
1210.24
1209.83
1209.41
1209
1208.6
1208.21
1207.83
1207.45
1207.09
1206.74
1206.4
1206.07
1205.75
1205.44
1205.14
1213.84
1213.7
1213.49
1213.24
1212.94
1212.62
1212.27
1211.9
1211.52
1211.13
1210.74
1210.34
1209.94
1209.55
1209.15
1208.77
1208.39
1208.02
1207.66
1207.31
1206.97
1206.64
1206.31
1206
1205.7
1205.41
1205.13
1213.34
1213.2
1213.01
1212.77
1212.49
1212.19
1211.86
1211.51
1211.15
1210.78
1210.41
1210.04
1209.66
1209.29
1208.92
1208.56
1208.2
1207.85
1207.51
1207.18
1206.86
1206.54
1206.24
1205.95
1205.66
1205.39
1205.12
1212.88
1212.75
1212.57
1212.34
1212.08
1211.79
1211.48
1211.16
1210.82
1210.47
1210.12
1209.77
1209.41
1209.06
1208.71
1208.37
1208.03
1207.7
1207.38
1207.06
1206.76
1206.46
1206.17
1205.89
1205.62
1205.36
1205.11
1212.47
1212.34
1212.17
1211.96
1211.71
1211.44
1211.15
1210.84
1210.52
1210.19
1209.86
1209.52
1209.19
1208.85
1208.52
1208.2
1207.88
1207.56
1207.26
1206.96
1206.67
1206.38
1206.11
1205.85
1205.59
1205.34
1205.1
1212.09
1211.98
1211.82
1211.61
1211.38
1211.12
1210.85
1210.55
1210.25
1209.94
1209.62
1209.3
1208.98
1208.67
1208.35
1208.04
1207.74
1207.44
1207.15
1206.86
1206.58
1206.31
1206.05
1205.8
1205.56
1205.32
1205.09
1211.76
1211.65
1211.5
1211.31
1211.08
1210.84
1210.57
1210.3
1210.01
1209.71
1209.41
1209.1
1208.8
1208.5
1208.2
1207.9
1207.61
1207.32
1207.04
1206.77
1206.51
1206.25
1206
1205.76
1205.52
1205.3
1205.08
1211.46
1211.36
1211.21
1211.03
1210.82
1210.58
1210.33
1210.06
1209.79
1209.5
1209.21
1208.92
1208.63
1208.34
1208.06
1207.77
1207.49
1207.22
1206.95
1206.69
1206.44
1206.19
1205.95
1205.72
1205.49
1205.27
1205.06
1211.19
1211.09
1210.95
1210.78
1210.57
1210.35
1210.11
1209.85
1209.59
1209.31
1209.04
1208.76
1208.48
1208.2
1207.92
1207.65
1207.38
1207.12
1206.86
1206.61
1206.37
1206.13
1205.9
1205.67
1205.46
1205.25
1205.04
1210.94
1210.85
1210.71
1210.54
1210.35
1210.14
1209.9
1209.66
1209.4
1209.14
1208.87
1208.61
1208.34
1208.07
1207.8
1207.54
1207.28
1207.03
1206.78
1206.54
1206.3
1206.07
1205.85
1205.63
1205.42
1205.22
1205.02
1210.72
1210.62
1210.49
1210.33
1210.14
1209.94
1209.71
1209.48
1209.23
1208.98
1208.72
1208.46
1208.2
1207.94
1207.68
1207.43
1207.18
1206.94
1206.69
1206.46
1206.23
1206.01
1205.79
1205.58
1205.38
1205.19
1205
1210.5
1210.41
1210.29
1210.13
1209.95
1209.75
1209.53
1209.3
1209.07
1208.82
1208.57
1208.32
1208.07
1207.82
1207.57
1207.32
1207.08
1206.84
1206.61
1206.38
1206.16
1205.95
1205.74
1205.53
1205.34
1205.15
1204.96
1210.3
1210.22
1210.09
1209.94
1209.77
1209.57
1209.36
1209.14
1208.91
1208.67
1208.43
1208.19
1207.94
1207.7
1207.45
1207.22
1206.98
1206.75
1206.52
1206.3
1206.09
1205.88
1205.67
1205.47
1205.28
1205.1
1204.92
1210.11
1210.02
1209.9
1209.76
1209.59
1209.4
1209.19
1208.98
1208.75
1208.52
1208.29
1208.05
1207.81
1207.57
1207.34
1207.1
1206.87
1206.65
1206.43
1206.21
1206
1205.8
1205.6
1205.41
1205.22
1205.04
1204.86
1209.91
1209.83
1209.72
1209.57
1209.41
1209.22
1209.02
1208.81
1208.59
1208.37
1208.14
1207.9
1207.67
1207.44
1207.21
1206.98
1206.76
1206.54
1206.32
1206.11
1205.91
1205.71
1205.51
1205.32
1205.14
1204.97
1204.8
1209.72
1209.64
1209.53
1209.39
1209.22
1209.04
1208.85
1208.64
1208.43
1208.2
1207.98
1207.75
1207.53
1207.3
1207.07
1206.85
1206.63
1206.41
1206.2
1206
1205.8
1205.6
1205.41
1205.23
1205.05
1204.88
1204.71
1209.52
1209.44
1209.33
1209.19
1209.03
1208.85
1208.66
1208.46
1208.25
1208.03
1207.81
1207.59
1207.36
1207.14
1206.92
1206.7
1206.48
1206.27
1206.07
1205.86
1205.67
1205.47
1205.29
1205.11
1204.93
1204.76
1204.6
1209.3
1209.23
1209.12
1208.98
1208.82
1208.65
1208.46
1208.26
1208.05
1207.84
1207.62
1207.4
1207.18
1206.96
1206.74
1206.53
1206.31
1206.11
1205.9
1205.7
1205.51
1205.32
1205.14
1204.96
1204.79
1204.62
1204.46
1209.07
1208.99
1208.88
1208.75
1208.59
1208.42
1208.23
1208.04
1207.83
1207.62
1207.41
1207.19
1206.97
1206.75
1206.54
1206.32
1206.11
1205.91
1205.71
1205.51
1205.32
1205.13
1204.95
1204.78
1204.61
1204.44
1204.28
1208.81
1208.73
1208.63
1208.49
1208.34
1208.17
1207.98
1207.78
1207.58
1207.37
1207.16
1206.94
1206.72
1206.51
1206.29
1206.08
1205.88
1205.67
1205.47
1205.28
1205.09
1204.9
1204.72
1204.55
1204.38
1204.22
1204.06
1208.51
1208.44
1208.33
1208.2
1208.04
1207.87
1207.69
1207.49
1207.29
1207.08
1206.86
1206.65
1206.43
1206.22
1206.01
1205.79
1205.59
1205.38
1205.19
1204.99
1204.8
1204.62
1204.44
1204.27
1204.1
1203.94
1203.79
1208.17
1208.09
1207.99
1207.85
1207.7
1207.53
1207.34
1207.14
1206.94
1206.73
1206.52
1206.3
1206.08
1205.87
1205.66
1205.45
1205.24
1205.04
1204.84
1204.64
1204.46
1204.27
1204.1
1203.92
1203.76
1203.6
1203.44
1207.77
1207.69
1207.58
1207.45
1207.29
1207.12
1206.93
1206.73
1206.53
1206.31
1206.1
1205.88
1205.66
1205.45
1205.23
1205.02
1204.81
1204.61
1204.41
1204.22
1204.03
1203.84
1203.67
1203.5
1203.33
1203.17
1203.02
1207.3
1207.22
1207.11
1206.97
1206.81
1206.63
1206.44
1206.24
1206.03
1205.82
1205.6
1205.38
1205.16
1204.94
1204.72
1204.51
1204.3
1204.09
1203.89
1203.69
1203.5
1203.32
1203.14
1202.97
1202.8
1202.64
1202.48
1206.73
1206.65
1206.54
1206.4
1206.23
1206.05
1205.85
1205.65
1205.43
1205.21
1204.99
1204.76
1204.54
1204.32
1204.09
1203.88
1203.66
1203.45
1203.25
1203.05
1202.86
1202.67
1202.49
1202.31
1202.15
1201.98
1201.83
1206.05
1205.97
1205.85
1205.71
1205.54
1205.35
1205.15
1204.93
1204.71
1204.48
1204.25
1204.02
1203.79
1203.56
1203.33
1203.11
1202.89
1202.67
1202.46
1202.26
1202.06
1201.87
1201.69
1201.51
1201.34
1201.18
1201.02
1205.24
1205.15
1205.03
1204.87
1204.7
1204.5
1204.29
1204.07
1203.84
1203.6
1203.36
1203.12
1202.88
1202.64
1202.4
1202.17
1201.94
1201.72
1201.51
1201.3
1201.09
1200.9
1200.71
1200.53
1200.35
1200.18
1200.02
1204.25
1204.16
1204.03
1203.87
1203.68
1203.48
1203.25
1203.02
1202.78
1202.53
1202.27
1202.02
1201.77
1201.52
1201.27
1201.03
1200.79
1200.56
1200.34
1200.12
1199.91
1199.71
1199.51
1199.32
1199.14
1198.97
1198.8
1203.06
1202.97
1202.83
1202.65
1202.46
1202.23
1202
1201.75
1201.49
1201.23
1200.96
1200.69
1200.42
1200.16
1199.9
1199.64
1199.39
1199.15
1198.91
1198.69
1198.47
1198.25
1198.05
1197.85
1197.67
1197.49
1197.31
1201.63
1201.52
1201.37
1201.19
1200.97
1200.73
1200.48
1200.21
1199.93
1199.65
1199.36
1199.08
1198.79
1198.51
1198.23
1197.96
1197.69
1197.43
1197.18
1196.94
1196.71
1196.49
1196.27
1196.06
1195.87
1195.68
1195.5
1199.9
1199.78
1199.62
1199.41
1199.18
1198.92
1198.64
1198.35
1198.05
1197.74
1197.43
1197.12
1196.81
1196.51
1196.21
1195.92
1195.63
1195.35
1195.09
1194.83
1194.58
1194.34
1194.11
1193.89
1193.68
1193.48
1193.29
1197.81
1197.68
1197.5
1197.27
1197.02
1196.73
1196.43
1196.11
1195.78
1195.44
1195.1
1194.76
1194.42
1194.09
1193.77
1193.45
1193.14
1192.84
1192.55
1192.27
1192
1191.75
1191.5
1191.27
1191.04
1190.83
1190.63
1195.29
1195.15
1194.95
1194.7
1194.41
1194.1
1193.76
1193.41
1193.04
1192.67
1192.29
1191.92
1191.55
1191.18
1190.82
1190.47
1190.13
1189.81
1189.49
1189.19
1188.89
1188.62
1188.35
1188.1
1187.85
1187.63
1187.41
1192.27
1192.11
1191.88
1191.61
1191.29
1190.93
1190.56
1190.16
1189.75
1189.34
1188.92
1188.5
1188.09
1187.68
1187.28
1186.9
1186.52
1186.16
1185.81
1185.48
1185.16
1184.85
1184.56
1184.28
1184.02
1183.77
1183.54
1188.64
1188.46
1188.21
1187.9
1187.54
1187.14
1186.71
1186.27
1185.81
1185.34
1184.87
1184.4
1183.94
1183.49
1183.04
1182.61
1182.19
1181.79
1181.4
1181.03
1180.68
1180.34
1180.02
1179.72
1179.43
1179.15
1178.89
1184.31
1184.11
1183.82
1183.46
1183.05
1182.6
1182.12
1181.62
1181.1
1180.57
1180.04
1179.51
1178.99
1178.47
1177.97
1177.49
1177.02
1176.57
1176.14
1175.72
1175.33
1174.95
1174.59
1174.26
1173.94
1173.63
1173.35
1179.15
1178.91
1178.58
1178.18
1177.71
1177.2
1176.65
1176.07
1175.48
1174.88
1174.28
1173.68
1173.08
1172.5
1171.94
1171.39
1170.86
1170.35
1169.86
1169.4
1168.95
1168.53
1168.13
1167.76
1167.4
1167.06
1166.75
1173.01
1172.74
1172.37
1171.9
1171.37
1170.78
1170.15
1169.49
1168.81
1168.13
1167.44
1166.75
1166.08
1165.42
1164.77
1164.15
1163.55
1162.97
1162.42
1161.9
1161.4
1160.92
1160.47
1160.05
1159.65
1159.27
1158.92
1165.75
1165.44
1165.01
1164.47
1163.86
1163.18
1162.46
1161.71
1160.93
1160.14
1159.35
1158.57
1157.8
1157.04
1156.31
1155.6
1154.91
1154.26
1153.63
1153.03
1152.46
1151.93
1151.42
1150.94
1150.49
1150.06
1149.67
1157.19
1156.84
1156.34
1155.72
1155.02
1154.24
1153.41
1152.54
1151.65
1150.74
1149.84
1148.94
1148.05
1147.19
1146.35
1145.53
1144.75
1144
1143.29
1142.6
1141.96
1141.35
1140.77
1140.23
1139.71
1139.23
1138.79
1147.15
1146.74
1146.17
1145.46
1144.65
1143.75
1142.79
1141.8
1140.77
1139.73
1138.69
1137.66
1136.64
1135.65
1134.68
1133.75
1132.85
1131.99
1131.17
1130.4
1129.66
1128.96
1128.3
1127.68
1127.1
1126.56
1126.05
1135.45
1134.97
1134.31
1133.5
1132.56
1131.53
1130.43
1129.28
1128.09
1126.9
1125.7
1124.51
1123.34
1122.2
1121.09
1120.02
1118.99
1118.01
1117.07
1116.18
1115.33
1114.53
1113.78
1113.07
1112.41
1111.79
1111.21
1121.88
1121.34
1120.57
1119.63
1118.56
1117.37
1116.1
1114.77
1113.42
1112.04
1110.66
1109.29
1107.95
1106.64
1105.36
1104.13
1102.95
1101.82
1100.74
1099.71
1098.74
1097.83
1096.96
1096.15
1095.39
1094.68
1094.02
1106.26
1105.63
1104.76
1103.68
1102.44
1101.07
1099.62
1098.09
1096.53
1094.95
1093.36
1091.79
1090.24
1088.73
1087.27
1085.85
1084.49
1083.19
1081.95
1080.77
1079.65
1078.6
1077.61
1076.68
1075.8
1074.99
1074.22
1088.41
1087.7
1086.69
1085.45
1084.03
1082.46
1080.79
1079.04
1077.25
1075.43
1073.61
1071.8
1070.02
1068.29
1066.6
1064.97
1063.41
1061.91
1060.48
1059.12
1057.84
1056.63
1055.48
1054.41
1053.4
1052.46
1051.58
1068.19
1067.37
1066.22
1064.8
1063.18
1061.38
1059.47
1057.47
1055.41
1053.33
1051.24
1049.17
1047.13
1045.13
1043.2
1041.32
1039.52
1037.8
1036.16
1034.59
1033.11
1031.71
1030.39
1029.16
1027.99
1026.9
1025.89
1045.47
1044.54
1043.23
1041.62
1039.76
1037.72
1035.54
1033.26
1030.91
1028.53
1026.15
1023.78
1021.45
1019.17
1016.95
1014.81
1012.75
1010.78
1008.9
1007.11
1005.41
1003.8
1002.29
1000.87
999.375
998.125
996.958
1020.18
1019.12
1017.64
1015.81
1013.71
1011.39
1008.91
1006.31
1003.64
1000.94
998.054
995.352
992.689
990.082
987.546
985.092
982.728
980.462
978.297
976.237
974.282
972.433
970.688
969.046
967.503
966.057
964.705
992.117
990.923
989.248
987.183
984.805
982.183
979.376
976.436
973.41
970.338
967.253
964.185
961.158
958.191
955.302
952.504
949.806
947.216
944.74
942.38
940.139
938.017
936.012
934.123
932.347
930.681
929.12
961.651
960.313
958.436
956.12
953.451
950.506
947.352
944.046
940.64
937.179
933.7
930.236
926.815
923.459
920.187
917.014
913.952
911.009
908.191
905.504
902.948
900.524
898.232
896.07
894.035
892.122
890.329
928.776
927.288
925.2
922.623
919.652
916.371
912.854
909.165
905.361
901.491
897.598
893.717
889.88
886.112
882.433
878.862
875.411
872.09
868.907
865.866
862.971
860.222
857.619
855.161
852.843
850.662
848.615
893.734
892.095
889.794
886.953
883.676
880.055
876.169
872.09
867.881
863.594
859.276
854.969
850.704
846.511
842.413
838.429
834.575
830.861
827.297
823.888
820.637
817.546
814.616
811.843
809.226
806.761
804.443
856.873
855.087
852.579
849.481
845.904
841.949
837.703
833.242
828.634
823.937
819.201
814.471
809.783
805.168
800.653
796.258
791.999
787.891
783.943
780.162
776.551
773.114
769.85
766.757
763.834
761.077
758.48
818.648
816.725
814.024
810.685
806.83
802.564
797.981
793.163
788.181
783.098
777.97
772.841
767.753
762.739
757.827
753.04
748.397
743.911
739.595
735.455
731.497
727.723
724.135
720.732
717.509
714.466
711.595
779.607
777.564
774.694
771.145
767.046
762.508
757.63
752.498
747.189
741.768
736.293
730.813
725.372
720.004
714.74
709.605
704.617
699.794
695.147
690.684
686.412
682.334
678.451
674.763
671.267
667.96
664.836
740.371
738.233
735.229
731.514
727.221
722.467
717.355
711.974
706.404
700.714
694.964
689.205
683.482
677.832
672.286
666.871
661.607
656.511
651.597
646.872
642.344
638.017
633.892
629.969
626.246
622.719
619.385
701.607
699.404
696.31
692.483
688.061
683.163
677.895
672.35
666.608
660.741
654.81
648.868
642.96
637.124
631.393
625.794
620.348
615.071
609.979
605.079
600.379
595.884
591.595
587.511
583.632
579.953
576.472
663.982
661.752
658.62
654.746
650.27
645.314
639.984
634.374
628.567
622.633
616.635
610.626
604.651
598.749
592.953
587.288
581.777
576.437
571.28
566.317
561.554
556.996
552.644
548.498
544.556
540.816
537.273
628.131
625.913
622.799
618.95
614.504
609.584
604.295
598.732
592.976
587.099
581.161
575.216
569.308
563.475
557.749
552.155
546.714
541.443
536.355
531.458
526.758
522.26
517.965
513.873
509.981
506.286
502.784
594.61
592.447
589.409
585.657
581.328
576.54
571.4
565.999
560.417
554.724
548.979
543.233
537.531
531.907
526.392
521.011
515.782
510.721
505.839
501.144
496.642
492.336
488.225
484.309
480.586
477.052
473.702
563.871
561.801
558.897
555.313
551.183
546.622
541.733
536.604
531.313
525.926
520.501
515.086
509.721
504.441
499.273
494.238
489.356
484.638
480.094
475.731
471.552
467.56
463.753
460.131
456.689
453.424
450.331
536.23
534.289
531.57
528.219
524.363
520.113
515.567
510.809
505.913
500.94
495.946
490.973
486.061
481.239
476.531
471.958
467.534
463.269
459.172
455.246
451.495
447.917
444.511
441.276
438.206
435.297
432.543
511.865
510.084
507.592
504.526
501.006
497.136
493.006
488.698
484.277
479.802
475.322
470.878
466.502
462.222
458.057
454.025
450.138
446.402
442.824
439.406
436.148
433.049
430.106
427.315
424.673
422.173
419.81
490.811
489.212
486.977
484.234
481.093
477.649
473.987
470.178
466.286
462.361
458.447
454.579
450.787
447.093
443.514
440.062
436.747
433.573
430.545
427.661
424.921
422.323
419.862
417.535
415.335
413.259
411.3
472.965
471.56
469.6
467.201
464.46
461.466
458.293
455.007
451.662
448.304
444.97
441.691
438.49
435.386
432.392
429.517
426.768
424.147
421.655
419.292
417.054
414.938
412.941
411.057
409.28
407.607
406.031
458.11
456.902
455.22
453.166
450.827
448.281
445.594
442.822
440.013
437.205
434.431
431.716
429.078
426.531
424.086
421.749
419.524
417.411
415.411
413.52
411.736
410.055
408.473
406.984
405.584
404.268
403.031
445.947
444.929
443.514
441.791
439.836
437.714
435.484
433.193
430.882
428.582
426.321
424.117
421.986
419.938
417.98
416.117
414.35
412.679
411.103
409.618
408.222
406.91
405.679
404.523
403.439
402.421
401.467
436.128
435.285
434.117
432.698
431.092
429.356
427.537
425.676
423.807
421.954
420.14
418.38
416.685
415.062
413.518
412.053
410.669
409.365
408.139
406.987
405.907
404.895
403.947
403.059
402.227
401.448
400.718
428.293
427.606
426.656
425.505
424.205
422.805
421.343
419.852
418.359
416.886
415.449
414.059
412.725
411.453
410.246
409.105
408.029
407.019
406.071
405.183
404.352
403.575
402.849
402.169
401.534
400.94
400.383
422.097
421.544
420.781
419.858
418.819
417.702
416.539
415.356
414.176
413.015
411.885
410.795
409.753
408.761
407.823
406.938
406.106
405.325
404.594
403.911
403.273
402.676
402.119
401.599
401.114
400.66
400.235
417.231
416.791
416.183
415.45
414.626
413.742
412.824
411.893
410.965
410.055
409.171
408.32
407.508
406.737
406.009
405.323
404.68
404.077
403.513
402.987
402.495
402.037
401.609
401.209
400.837
400.488
400.163
413.439
413.091
412.611
412.032
411.382
410.686
409.964
409.233
408.507
407.794
407.104
406.441
405.809
405.209
404.643
404.111
403.612
403.145
402.709
402.302
401.922
401.567
401.237
400.929
400.641
400.372
400.121
410.551
410.276
409.897
409.439
408.927
408.378
407.81
407.235
406.664
406.105
405.563
405.043
404.547
404.078
403.634
403.218
402.827
402.461
402.12
401.801
401.503
401.226
400.967
400.726
400.501
400.291
400.094
408.62
408.397
408.089
407.718
407.302
406.857
406.396
405.929
405.464
405.009
404.568
404.144
403.74
403.356
402.994
402.652
402.332
402.032
401.751
401.488
401.243
401.014
400.8
400.601
400.414
400.24
400.078
301
301
301
301.001
301.004
301.012
301.029
301.07
301.153
301.316
301.615
302.141
303.029
304.477
306.77
310.311
315.665
323.609
335.183
351.722
374.826
406.2
447.344
499.104
561.255
632.257
709.316
788.745
866.55
939.098
1003.67
1058.68
1103.71
1139.17
1165.94
1185.18
1198.32
1206.82
1211.97
1214.83
1216.2
1216.65
1216.56
1216.17
1215.63
1215.05
1214.47
1213.92
1213.41
1212.94
1212.52
1212.15
1211.82
1211.51
1211.24
1210.99
1210.76
1210.55
1210.35
1210.15
1209.96
1209.76
1209.56
1209.34
1209.11
1208.85
1208.55
1208.21
1207.81
1207.34
1206.77
1206.1
1205.28
1204.3
1203.11
1201.68
1199.95
1197.87
1195.36
1192.35
1188.73
1184.41
1179.26
1173.14
1165.9
1157.37
1147.35
1135.68
1122.15
1106.57
1088.76
1068.59
1045.93
1020.69
992.701
962.306
929.504
894.535
857.746
819.588
780.605
741.416
702.682
665.071
629.214
595.668
564.883
537.179
512.737
491.595
473.654
458.704
446.448
436.543
428.631
422.369
417.448
413.611
410.687
408.731
)
;

boundaryField
{
    outlet
    {
        type            inletOutlet;
        inletValue      uniform 301;
        value           nonuniform List<scalar> 
28
(
408.62
408.397
408.089
407.718
407.302
406.857
406.396
405.929
405.464
405.009
404.568
404.144
403.74
403.356
402.994
402.652
402.332
402.032
401.751
401.488
401.243
401.014
400.8
400.601
400.414
400.24
400.078
408.731
)
;
    }
    inlet
    {
        type            fixedValue;
        value           uniform 301;
    }
    front
    {
        type            wedge;
    }
    wall
    {
        type            codedFixedValue;
        value           nonuniform List<scalar> 
120
(
301
301
301
301.002
301.009
301.032
301.095
301.242
301.549
302.138
303.191
304.973
307.849
312.31
318.995
328.702
342.399
361.207
386.362
419.126
460.65
511.772
572.765
643.051
720.954
803.575
886.899
966.223
1036.9
1095.26
1139.4
1169.62
1188.06
1197.93
1202.48
1204.25
1204.82
1204.96
1204.99
1205
1205
1205
1205
1205
1205
1205
1205
1204.99
1204.99
1204.99
1204.98
1204.98
1204.97
1204.96
1204.94
1204.93
1204.9
1204.87
1204.83
1204.78
1204.71
1204.63
1204.52
1204.38
1204.21
1203.99
1203.71
1203.37
1202.94
1202.41
1201.75
1200.94
1199.94
1198.72
1197.23
1195.41
1193.2
1190.53
1187.3
1183.42
1178.77
1173.21
1166.59
1158.75
1149.48
1138.57
1125.8
1110.93
1093.7
1073.86
1051.17
1025.4
996.401
964.059
928.373
889.47
847.633
803.33
757.232
710.213
663.331
617.775
574.789
535.559
501.09
472.081
448.835
431.212
418.669
410.355
405.272
402.436
401.008
400.368
400.117
400.032
400.007
400.001
400
400
)
;
        name            wall_temperature_bc;
        code            #{
            double T_sp = 0.985282 * 1223.00;
            double a1 = 0.131623084265, m1 = 6.550948234271;
            double a2 = 0.498993531167, m2 = 15.856001825018;

            vector axisX = vector(1, 0, 0);
            scalarField x = (patch().Cf() & axisX);

            scalarField u = Foam::pow(x / a1, m1);
            scalarField d = Foam::pow(x / a2, m2);

            scalarField Tu = (T_sp - 301.0) * (1 - Foam::exp(-u));
            scalarField Td = (T_sp - 400.0) * (1 - Foam::exp(-d));

            scalarField Tval = 301 + Tu - Td;
            operator==(Tval);
        #};
    }
    back
    {
        type            wedge;
    }
}


// ************************************************************************* //
