/*--------------------------------*- C++ -*----------------------------------*\
| =========                 |                                                 |
| \\      /  F ield         | OpenFOAM: The Open Source CFD Toolbox           |
|  \\    /   O peration     | Version:  2106                                  |
|   \\  /    A nd           | Website:  www.openfoam.com                      |
|    \\/     M anipulation  |                                                 |
\*---------------------------------------------------------------------------*/
FoamFile
{
    version     2.0;
    format      ascii;
    arch        "LSB;label=32;scalar=64";
    class       volVectorField;
    location    "160.00011";
    object      U;
}
// * * * * * * * * * * * * * * * * * * * * * * * * * * * * * * * * * * * * * //

dimensions      [0 1 -1 0 0 0 0];

internalField   nonuniform List<vector> 
3360
(
(0.0807028 -0.00345926 -1.768e-11)
(0.0809211 -0.0053955 -2.53273e-11)
(0.0812107 -0.00737138 -2.73705e-11)
(0.0815457 -0.0092412 -2.2236e-11)
(0.0818908 -0.0110165 -8.55023e-12)
(0.0822097 -0.012684 1.15576e-11)
(0.0824636 -0.0142296 3.7602e-11)
(0.0826117 -0.0156393 6.84702e-11)
(0.0826129 -0.0169053 1.05403e-10)
(0.0823982 -0.0179735 1.40147e-10)
(0.0817577 -0.0188833 6.47312e-11)
(0.0807088 -0.019582 7.20246e-13)
(0.0792497 -0.0200652 -4.89716e-11)
(0.0773688 -0.0203219 -2.52233e-11)
(0.0750477 -0.0203425 -4.87047e-12)
(0.0722651 -0.0201198 1.09821e-11)
(0.0689987 -0.0196481 2.35002e-11)
(0.0652261 -0.0189239 3.38374e-11)
(0.0609252 -0.0179461 4.27355e-11)
(0.0560751 -0.0167158 5.03485e-11)
(0.0506555 -0.0152362 5.79076e-11)
(0.0446469 -0.0135113 4.53524e-11)
(0.0380307 -0.0115544 3.48211e-11)
(0.0307762 -0.00936464 2.54487e-11)
(0.0228723 -0.00696164 1.72005e-11)
(0.0143068 -0.00434608 9.84412e-12)
(0.00506409 -0.00146078 3.14559e-12)
(0.101565 -0.00238315 3.00397e-10)
(0.101499 -0.0036235 4.92544e-10)
(0.10134 -0.00482309 6.8612e-10)
(0.10103 -0.00585679 8.59506e-10)
(0.100508 -0.00672495 8.13663e-10)
(0.0997157 -0.00741658 7.84457e-10)
(0.0986012 -0.00792743 6.27978e-10)
(0.0971184 -0.00825607 5.11004e-10)
(0.0952304 -0.00839792 4.28056e-10)
(0.0929389 -0.00839626 3.7047e-10)
(0.0903821 -0.00821516 3.3316e-10)
(0.0874747 -0.00790697 3.14075e-10)
(0.084203 -0.00748894 3.10299e-10)
(0.0805534 -0.00697418 3.19735e-10)
(0.0765108 -0.0063815 3.36626e-10)
(0.0720679 -0.00573057 2.94207e-10)
(0.0672282 -0.00504136 2.61198e-10)
(0.0620058 -0.00433398 2.3674e-10)
(0.0564235 -0.00362799 2.18681e-10)
(0.0505173 -0.00294234 2.05945e-10)
(0.0443278 -0.00229472 1.99042e-10)
(0.0378968 -0.0017027 1.67555e-10)
(0.0312659 -0.00117451 1.42191e-10)
(0.0244898 -0.000733301 1.20386e-10)
(0.0176025 -0.00038357 1.01639e-10)
(0.010636 -0.000139563 6.98546e-11)
(0.00361918 -1.19801e-05 2.19311e-11)
(0.114449 -0.00188186 1.67956e-10)
(0.113645 -0.00287532 2.45563e-10)
(0.112443 -0.00378708 2.80652e-10)
(0.110836 -0.00452601 2.99875e-10)
(0.108812 -0.00509659 3.99327e-10)
(0.106363 -0.00549838 4.7073e-10)
(0.103489 -0.00573935 5.00702e-10)
(0.1002 -0.00583342 5.07522e-10)
(0.0965163 -0.0057977 4.99358e-10)
(0.0924585 -0.00564926 3.69845e-10)
(0.0880492 -0.00540258 3.92038e-10)
(0.0833285 -0.00507818 4.05371e-10)
(0.0783082 -0.00468442 4.23367e-10)
(0.0730251 -0.00424296 4.46513e-10)
(0.0675354 -0.00377026 4.83283e-10)
(0.0618985 -0.00328224 4.29337e-10)
(0.056172 -0.00279477 3.44155e-10)
(0.050409 -0.00232125 2.65753e-10)
(0.0446568 -0.00187401 1.94418e-10)
(0.0389511 -0.00146279 1.55538e-10)
(0.0333216 -0.00109527 1.17011e-10)
(0.0277944 -0.000777058 1.07127e-10)
(0.0223919 -0.000511903 9.61495e-11)
(0.0171324 -0.000301611 8.53916e-11)
(0.0120302 -0.000146581 5.88756e-11)
(0.00709653 -4.76229e-05 3.40782e-11)
(0.00233976 -1.35401e-06 1.0939e-11)
(0.126365 -0.000906104 -5.6204e-10)
(0.125001 -0.00133716 -9.19135e-10)
(0.123028 -0.00172876 -1.26404e-09)
(0.120491 -0.00202752 -1.04576e-09)
(0.117429 -0.00224115 -9.4351e-10)
(0.113876 -0.00236051 -6.96099e-10)
(0.109895 -0.00240896 -5.76292e-10)
(0.105529 -0.00238433 -5.31948e-10)
(0.100825 -0.00230036 -4.18937e-10)
(0.0958317 -0.00217075 -2.41689e-10)
(0.0906109 -0.00200438 -1.12958e-10)
(0.0852077 -0.00181279 -2.30741e-11)
(0.0796577 -0.00160681 3.83505e-11)
(0.0739946 -0.00139692 7.93578e-11)
(0.0682519 -0.00119168 1.0574e-10)
(0.0624626 -0.000997473 1.22347e-10)
(0.0566582 -0.000818054 1.35949e-10)
(0.0508665 -0.000656441 7.6599e-11)
(0.0451125 -0.000513776 2.39467e-11)
(0.0394176 -0.000390386 -2.38947e-13)
(0.0338005 -0.000286032 3.59468e-12)
(0.0282766 -0.000200012 1.37282e-11)
(0.022859 -0.000131268 1.26864e-11)
(0.0175584 -7.84757e-05 1.06014e-11)
(0.0123834 -4.00975e-05 7.86781e-12)
(0.00734086 -1.46419e-05 4.73915e-12)
(0.00243617 -1.83412e-06 1.55318e-12)
(0.127637 -0.000447634 3.36177e-10)
(0.126001 -0.000684023 6.94386e-11)
(0.123658 -0.000882085 -4.87242e-11)
(0.120687 -0.00102389 -5.35723e-11)
(0.117158 -0.00111034 2.75776e-12)
(0.113136 -0.00116055 9.99454e-11)
(0.108682 -0.00116448 2.73026e-10)
(0.103862 -0.00113961 3.04728e-10)
(0.0987361 -0.00108932 2.61757e-10)
(0.0933632 -0.00102023 2.64126e-10)
(0.0877983 -0.000937667 2.996e-10)
(0.082093 -0.000845997 2.41145e-10)
(0.0762951 -0.000749253 2.05984e-10)
(0.0704477 -0.000651188 1.80288e-10)
(0.06459 -0.000555063 1.60752e-10)
(0.0587564 -0.000463508 1.45256e-10)
(0.0529774 -0.000378485 1.32706e-10)
(0.047279 -0.000301358 1.22114e-10)
(0.0416833 -0.000232972 1.13791e-10)
(0.0362086 -0.000173757 1.07893e-10)
(0.0308695 -0.000123807 1.04185e-10)
(0.0256776 -8.29642e-05 1.02612e-10)
(0.0206417 -5.0878e-05 6.67805e-11)
(0.0157679 -2.70603e-05 4.91271e-11)
(0.0110601 -1.09818e-05 3.34951e-11)
(0.00652058 -2.24433e-06 1.93081e-11)
(0.00214976 7.53258e-07 6.1982e-12)
(0.131649 -0.000230599 5.85017e-11)
(0.129767 -0.000325436 6.04483e-11)
(0.12711 -0.000407285 6.55381e-11)
(0.1238 -0.000461338 8.22535e-11)
(0.119946 -0.000490789 1.09322e-10)
(0.115642 -0.000497591 1.42119e-10)
(0.110947 -0.000486625 1.73779e-10)
(0.105925 -0.000461908 1.97851e-10)
(0.100638 -0.000427319 2.15876e-10)
(0.0951411 -0.000386454 2.34679e-10)
(0.0894867 -0.00034237 2.48623e-10)
(0.0837213 -0.00029756 1.78633e-10)
(0.0778867 -0.000253958 1.1163e-10)
(0.0720192 -0.000212976 5.13453e-11)
(0.0661506 -0.000175564 -5.00565e-12)
(0.0603081 -0.000142271 -5.47359e-11)
(0.0545151 -0.000113319 -4.8251e-11)
(0.048791 -8.86705e-05 -4.09497e-11)
(0.0431522 -6.81018e-05 -3.22727e-11)
(0.0376122 -5.12607e-05 -7.80676e-12)
(0.0321821 -3.77187e-05 1.2434e-11)
(0.0268708 -2.70107e-05 2.02888e-11)
(0.0216855 -1.86687e-05 2.2493e-11)
(0.0166318 -1.22423e-05 2.4697e-11)
(0.0117141 -7.27797e-06 2.66017e-11)
(0.00693562 -3.32563e-06 1.56122e-11)
(0.00229864 -8.33318e-07 5.07555e-12)
(0.131311 -0.00010865 6.41028e-11)
(0.129362 -0.000174081 9.50023e-11)
(0.12661 -0.000229588 1.12875e-10)
(0.123181 -0.000271561 1.29372e-10)
(0.119184 -0.000300415 1.45226e-10)
(0.114713 -0.000315959 1.51321e-10)
(0.10985 -0.000319259 3.83388e-11)
(0.104669 -0.000312462 -7.44122e-11)
(0.0992366 -0.000297832 -1.87576e-10)
(0.0936124 -0.000277517 -1.86403e-10)
(0.0878502 -0.000253415 -2.0153e-10)
(0.0819979 -0.000227123 -2.31951e-10)
(0.076098 -0.000199938 -2.72915e-10)
(0.0701876 -0.000172881 -3.19853e-10)
(0.0642992 -0.00014673 -3.02001e-10)
(0.0584608 -0.000122058 -2.91414e-10)
(0.0526963 -9.9276e-05 -2.87314e-10)
(0.047026 -7.8658e-05 -2.88947e-10)
(0.0414668 -6.03773e-05 -2.56013e-10)
(0.0360324 -4.45268e-05 -2.15652e-10)
(0.0307341 -3.11388e-05 -1.76117e-10)
(0.0255805 -2.01994e-05 -1.29058e-10)
(0.0205781 -1.16577e-05 -1.00809e-10)
(0.0157317 -5.43312e-06 -7.57262e-11)
(0.0110443 -1.45106e-06 -5.21501e-11)
(0.00651733 3.02655e-07 -3.02004e-11)
(0.00215126 5.16898e-07 -9.71695e-12)
(0.132705 -4.76882e-05 4.98056e-10)
(0.130728 -6.2037e-05 8.20634e-10)
(0.127937 -7.58651e-05 3.39522e-10)
(0.124466 -8.47447e-05 -4.15133e-12)
(0.120427 -8.90263e-05 -2.94569e-10)
(0.115917 -8.89805e-05 -5.9784e-10)
(0.111022 -8.52983e-05 -6.87738e-10)
(0.105817 -7.88805e-05 -6.84798e-10)
(0.100371 -7.06617e-05 -7.44438e-10)
(0.0947418 -6.15029e-05 -7.07882e-10)
(0.088982 -5.21279e-05 -5.94853e-10)
(0.0831369 -4.30986e-05 -5.10115e-10)
(0.0772461 -3.48139e-05 -4.43977e-10)
(0.0713438 -2.75238e-05 -3.90101e-10)
(0.0654593 -2.13515e-05 -3.42981e-10)
(0.0596174 -1.63182e-05 -3.0501e-10)
(0.0538392 -1.23672e-05 -3.23374e-10)
(0.0481425 -9.38684e-06 -3.41746e-10)
(0.0425418 -7.22961e-06 -3.33596e-10)
(0.0370494 -5.72879e-06 -2.99865e-10)
(0.0316751 -4.71099e-06 -2.72681e-10)
(0.0264269 -4.00661e-06 -2.20065e-10)
(0.0213112 -3.4583e-06 -1.7387e-10)
(0.0163327 -2.92561e-06 -1.17998e-10)
(0.0114952 -2.26456e-06 -8.08906e-11)
(0.00680108 -1.31384e-06 -4.67519e-11)
(0.0022521 -4.90126e-07 -1.5034e-11)
(0.132342 -4.04473e-05 1.16764e-10)
(0.130331 -6.68752e-05 1.4382e-10)
(0.127496 -8.83925e-05 9.29863e-11)
(0.123971 -0.000104288 3.89056e-11)
(0.119872 -0.000114947 9.60688e-13)
(0.115301 -0.000120804 -2.15989e-10)
(0.110344 -0.000122479 -3.70082e-10)
(0.10508 -0.000120663 -4.75788e-10)
(0.099577 -0.000116054 -5.52822e-10)
(0.0938966 -0.000109311 -6.09744e-10)
(0.0880913 -0.000101024 -6.57959e-10)
(0.0822077 -9.17093e-05 -7.01161e-10)
(0.0762863 -8.18043e-05 -6.60836e-10)
(0.0703624 -7.16737e-05 -6.28766e-10)
(0.0644661 -6.16182e-05 -6.08418e-10)
(0.0586236 -5.18824e-05 -5.97321e-10)
(0.052857 -4.2664e-05 -5.93156e-10)
(0.047185 -3.41206e-05 -5.90509e-10)
(0.041623 -2.63758e-05 -5.7164e-10)
(0.0361839 -1.95239e-05 -5.12319e-10)
(0.030878 -1.36338e-05 -4.55513e-10)
(0.0257133 -8.75208e-06 -3.70194e-10)
(0.0206961 -4.90429e-06 -2.89815e-10)
(0.0158307 -2.09683e-06 -2.16502e-10)
(0.0111201 -3.33026e-07 -1.48825e-10)
(0.00656601 3.55643e-07 -8.60736e-11)
(0.00216894 2.65868e-07 -2.76672e-11)
(0.133104 -1.82202e-05 -1.79929e-11)
(0.131088 -2.18954e-05 -5.39771e-11)
(0.128246 -2.59808e-05 -1.25036e-10)
(0.124716 -2.84469e-05 -2.15259e-10)
(0.120613 -2.94542e-05 -3.18689e-10)
(0.11604 -2.9115e-05 -4.35944e-10)
(0.111084 -2.76711e-05 -5.50459e-10)
(0.105825 -2.54107e-05 -6.59877e-10)
(0.100329 -2.26262e-05 -7.66757e-10)
(0.0946578 -1.95851e-05 -7.5393e-10)
(0.0888624 -1.6513e-05 -7.50006e-10)
(0.0829883 -1.35865e-05 -7.51454e-10)
(0.0770746 -1.0932e-05 -7.55755e-10)
(0.0711552 -8.62943e-06 -7.59227e-10)
(0.0652587 -6.7173e-06 -7.0671e-10)
(0.0594098 -5.19991e-06 -6.58325e-10)
(0.0536293 -4.05422e-06 -6.168e-10)
(0.0479346 -3.2367e-06 -5.78755e-10)
(0.0423403 -2.68955e-06 -5.19553e-10)
(0.0368582 -2.34639e-06 -4.44591e-10)
(0.0314982 -2.13718e-06 -3.77327e-10)
(0.0262681 -1.99217e-06 -2.90604e-10)
(0.021174 -1.84613e-06 -2.28543e-10)
(0.0162207 -1.64e-06 -1.713e-10)
(0.0114114 -1.30482e-06 -1.18036e-10)
(0.00674857 -7.53783e-07 -6.83505e-11)
(0.00223353 -3.75354e-07 -2.19795e-11)
(0.132992 -2.24145e-05 3.86816e-10)
(0.130961 -3.74614e-05 6.77669e-10)
(0.128098 -4.98373e-05 1.01728e-10)
(0.124543 -5.92267e-05 -3.01528e-10)
(0.120413 -6.58275e-05 -6.38999e-10)
(0.11581 -6.98504e-05 -9.75783e-10)
(0.110824 -7.15853e-05 -1.11375e-09)
(0.105533 -7.13523e-05 -1.08174e-09)
(0.100007 -6.94781e-05 -1.12631e-09)
(0.0943062 -6.6279e-05 -1.06183e-09)
(0.0884829 -6.20504e-05 -9.26653e-10)
(0.0825831 -5.70621e-05 -8.19831e-10)
(0.0766468 -5.15562e-05 -7.31901e-10)
(0.0707086 -4.57468e-05 -6.54889e-10)
(0.0647981 -3.98218e-05 -5.82734e-10)
(0.0589407 -3.39447e-05 -5.10438e-10)
(0.053158 -2.82548e-05 -5.10305e-10)
(0.0474683 -2.28731e-05 -5.00323e-10)
(0.0418867 -1.79052e-05 -4.67813e-10)
(0.0364258 -1.34377e-05 -4.12354e-10)
(0.0310955 -9.53947e-06 -3.65364e-10)
(0.025904 -6.26189e-06 -2.99679e-10)
(0.0208574 -3.63952e-06 -2.40726e-10)
(0.0159602 -1.69016e-06 -1.66814e-10)
(0.0112154 -4.19042e-07 -1.16314e-10)
(0.00662489 1.62867e-07 -6.72485e-11)
(0.00218945 8.51396e-09 -2.16193e-11)
(0.133626 -1.65134e-05 6.62195e-11)
(0.131598 -2.16211e-05 6.45591e-11)
(0.128739 -2.68571e-05 -1.41212e-11)
(0.125189 -3.07147e-05 -8.9883e-11)
(0.121065 -3.32749e-05 -1.15872e-10)
(0.116469 -3.45748e-05 -3.63646e-10)
(0.111491 -3.47453e-05 -5.11886e-10)
(0.106209 -3.39614e-05 -5.99555e-10)
(0.100692 -3.24165e-05 -6.51508e-10)
(0.0949981 -3.03043e-05 -6.77496e-10)
(0.0891804 -2.78058e-05 -6.86664e-10)
(0.0832838 -2.50815e-05 -6.88668e-10)
(0.0773473 -2.22679e-05 -6.88556e-10)
(0.0714046 -1.94757e-05 -6.88805e-10)
(0.0654847 -1.67887e-05 -6.90348e-10)
(0.0596122 -1.42546e-05 -6.92852e-10)
(0.0538082 -1.19668e-05 -6.46613e-10)
(0.0480903 -9.8671e-06 -6.04287e-10)
(0.0424734 -8.01877e-06 -5.46939e-10)
(0.0369698 -6.40672e-06 -4.46871e-10)
(0.0315896 -5.01971e-06 -3.55263e-10)
(0.0263407 -3.83935e-06 -2.70897e-10)
(0.0212295 -2.84229e-06 -1.92965e-10)
(0.0162606 -2.00082e-06 -1.35489e-10)
(0.0114377 -1.26455e-06 -8.00674e-11)
(0.00676296 -5.60272e-07 -4.76977e-11)
(0.00223781 -4.54605e-07 -1.55304e-11)
(0.133969 -3.76456e-05 -8.72332e-11)
(0.131933 -5.89741e-05 -1.53998e-10)
(0.129063 -7.75085e-05 -2.33857e-10)
(0.125498 -9.18404e-05 -3.24064e-10)
(0.121358 -0.000102142 -4.22855e-10)
(0.116743 -0.000108579 -5.31509e-10)
(0.111744 -0.00011147 -6.40818e-10)
(0.106439 -0.000111225 -7.50014e-10)
(0.100896 -0.000108305 -8.52376e-10)
(0.0951756 -0.000103192 -8.3237e-10)
(0.0893299 -9.63676e-05 -8.19157e-10)
(0.0834045 -8.82944e-05 -8.16082e-10)
(0.077439 -7.94018e-05 -8.19089e-10)
(0.0714677 -7.00771e-05 -8.23896e-10)
(0.0655203 -6.06608e-05 -7.6406e-10)
(0.059622 -5.14559e-05 -7.09415e-10)
(0.0537945 -4.26487e-05 -6.59435e-10)
(0.0480563 -3.45054e-05 -6.17189e-10)
(0.0424229 -2.71053e-05 -5.50157e-10)
(0.0369069 -2.05495e-05 -4.64666e-10)
(0.0315188 -1.48915e-05 -3.83498e-10)
(0.026267 -1.01568e-05 -3.017e-10)
(0.0211578 -6.35049e-06 -2.37117e-10)
(0.0161962 -3.45836e-06 -1.77891e-10)
(0.0113855 -1.43582e-06 -1.22359e-10)
(0.00672787 -2.25649e-07 -7.07661e-11)
(0.00222448 -3.66954e-07 -2.27393e-11)
(0.1351 -4.31732e-05 -1.62198e-10)
(0.133059 -6.301e-05 -2.53132e-10)
(0.13018 -8.11248e-05 -3.61768e-10)
(0.126606 -9.49251e-05 -4.75898e-10)
(0.122453 -0.000104582 -5.88676e-10)
(0.117825 -0.000110228 -6.9532e-10)
(0.11281 -0.000112208 -7.97793e-10)
(0.107488 -0.000110987 -8.9472e-10)
(0.101925 -0.0001071 -9.82067e-10)
(0.0961837 -0.000101101 -9.54966e-10)
(0.0903143 -9.35394e-05 -9.32494e-10)
(0.0843628 -8.49302e-05 -9.16712e-10)
(0.0783682 -7.57307e-05 -9.07648e-10)
(0.0723647 -6.63325e-05 -9.04959e-10)
(0.0663814 -5.70603e-05 -8.2607e-10)
(0.0604432 -4.81726e-05 -7.58267e-10)
(0.0545714 -3.9867e-05 -6.99941e-10)
(0.048784 -3.22819e-05 -6.46035e-10)
(0.043096 -2.55022e-05 -5.73525e-10)
(0.0375198 -1.95709e-05 -4.8395e-10)
(0.0320659 -1.44969e-05 -3.9945e-10)
(0.0267427 -1.02633e-05 -3.13205e-10)
(0.0215569 -6.83609e-06 -2.46228e-10)
(0.0165138 -4.16561e-06 -1.84051e-10)
(0.0116172 -2.156e-06 -1.26528e-10)
(0.00686989 -6.7664e-07 -7.31744e-11)
(0.00227346 -7.96907e-07 -2.35144e-11)
(0.136307 -6.9223e-05 3.91103e-10)
(0.134257 -0.000105671 -5.79086e-10)
(0.131367 -0.000138282 -4.14903e-10)
(0.127777 -0.000163865 -2.55208e-10)
(0.123605 -0.000182678 -1.22898e-10)
(0.118953 -0.000194924 -2.53679e-10)
(0.113911 -0.000201085 -3.53104e-10)
(0.108557 -0.000201806 -4.12836e-10)
(0.102959 -0.000197824 -4.47327e-10)
(0.0971763 -0.000189918 -4.6318e-10)
(0.0912621 -0.00017887 -4.66188e-10)
(0.0852614 -0.000165432 -4.59807e-10)
(0.0792138 -0.000150314 -4.46178e-10)
(0.0731535 -0.000134168 -4.26607e-10)
(0.0671103 -0.000117577 -4.01811e-10)
(0.0611096 -0.000101047 -3.73293e-10)
(0.0551737 -8.50074e-05 -3.42793e-10)
(0.0493212 -6.98159e-05 -3.14075e-10)
(0.043568 -5.57639e-05 -2.50494e-10)
(0.0379274 -4.3078e-05 -2.17115e-10)
(0.0324106 -3.19225e-05 -1.70311e-10)
(0.0270265 -2.24042e-05 -1.48145e-10)
(0.0217823 -1.45825e-05 -1.05085e-10)
(0.0166835 -8.46872e-06 -7.91397e-11)
(0.0117344 -3.99286e-06 -5.45661e-11)
(0.00693775 -1.04178e-06 -3.16259e-11)
(0.0022953 -1.01272e-06 -1.01649e-11)
(0.138629 -9.06257e-05 2.27727e-10)
(0.136568 -0.000135194 2.84927e-10)
(0.133661 -0.000175583 -5.27083e-10)
(0.130048 -0.000206976 -4.11199e-10)
(0.125846 -0.000229689 -4.13434e-10)
(0.121158 -0.00024397 -4.53794e-10)
(0.116072 -0.000250467 -5.12854e-10)
(0.110665 -0.000250054 -5.83484e-10)
(0.105007 -0.000243741 -6.61086e-10)
(0.0991556 -0.000232592 -6.38207e-10)
(0.0931647 -0.000217666 -6.27702e-10)
(0.0870796 -0.000199977 -6.27145e-10)
(0.0809404 -0.000180464 -6.35603e-10)
(0.0747821 -0.000159974 -6.51974e-10)
(0.0686351 -0.000139244 -5.96873e-10)
(0.0625258 -0.000118896 -5.5393e-10)
(0.0564768 -9.9436e-05 -5.19892e-10)
(0.0505076 -8.12633e-05 -4.9623e-10)
(0.0446347 -6.46747e-05 -4.4144e-10)
(0.0388719 -4.98764e-05 -3.70003e-10)
(0.033231 -3.69956e-05 -3.10786e-10)
(0.0277215 -2.60922e-05 -2.34073e-10)
(0.022351 -1.71753e-05 -1.825e-10)
(0.0171255 -1.02034e-05 -1.36154e-10)
(0.0120496 -5.03008e-06 -9.35719e-11)
(0.0071267 -1.44598e-06 -5.41087e-11)
(0.00235883 -1.54939e-06 -1.73843e-11)
(0.141612 -0.000117306 -8.61492e-10)
(0.139533 -0.000177249 -1.43274e-09)
(0.136599 -0.00023056 -1.13707e-09)
(0.13295 -0.000271569 -1.00995e-09)
(0.128703 -0.000300753 -9.8863e-10)
(0.123959 -0.00031858 -1.02871e-09)
(0.118808 -0.000326033 -1.11021e-09)
(0.113326 -0.000324382 -1.21314e-09)
(0.107582 -0.00031506 -1.20463e-09)
(0.101635 -0.000299548 -1.09703e-09)
(0.0955394 -0.000279301 -1.02197e-09)
(0.0893404 -0.000255689 -9.67876e-10)
(0.0830789 -0.000229951 -9.2868e-10)
(0.0767909 -0.000203173 -9.09962e-10)
(0.0705074 -0.00017628 -8.15808e-10)
(0.064256 -0.000150042 -7.42718e-10)
(0.0580601 -0.000125075 -6.78697e-10)
(0.0519405 -0.000101856 -6.23113e-10)
(0.0459146 -8.07374e-05 -5.50477e-10)
(0.0399973 -6.19593e-05 -4.66396e-10)
(0.0342013 -4.56679e-05 -3.88386e-10)
(0.0285369 -3.193e-05 -3.03733e-10)
(0.0230127 -2.0753e-05 -2.38041e-10)
(0.0176353 -1.20835e-05 -1.77919e-10)
(0.0124101 -5.73523e-06 -1.22326e-10)
(0.00734077 -1.44394e-06 -7.07118e-11)
(0.00242998 -2.00149e-06 -2.27113e-11)
(0.146242 -0.000142054 -6.95789e-10)
(0.144137 -0.000212328 -1.14136e-09)
(0.141164 -0.000275007 -1.56089e-09)
(0.137462 -0.000322873 -1.26538e-09)
(0.133148 -0.00035651 -1.09467e-09)
(0.128322 -0.00037655 -9.96852e-10)
(0.123072 -0.000384247 -9.34969e-10)
(0.117477 -0.000381206 -8.88173e-10)
(0.111603 -0.000369205 -8.44635e-10)
(0.105511 -0.000350061 -8.02122e-10)
(0.0992544 -0.000325535 -7.61498e-10)
(0.0928806 -0.000297257 -7.22988e-10)
(0.0864313 -0.000266691 -6.86093e-10)
(0.0799435 -0.000235108 -6.49443e-10)
(0.0734499 -0.000203579 -5.5426e-10)
(0.0669792 -0.00017298 -4.65668e-10)
(0.0605568 -0.000144002 -4.27776e-10)
(0.0542046 -0.000117169 -3.86003e-10)
(0.0479416 -9.28559e-05 -3.36349e-10)
(0.0417842 -7.13073e-05 -2.83574e-10)
(0.0357463 -5.26595e-05 -2.33901e-10)
(0.0298393 -3.69589e-05 -1.87272e-10)
(0.0240731 -2.41877e-05 -1.4379e-10)
(0.0184553 -1.42599e-05 -1.03252e-10)
(0.0129919 -6.91943e-06 -6.56026e-11)
(0.00768773 -1.80871e-06 -3.11426e-11)
(0.0025459 -2.74086e-06 -9.79907e-12)
(0.152498 -0.000164562 -9.94831e-10)
(0.150355 -0.000247425 -1.5672e-09)
(0.147324 -0.000320415 -1.33461e-09)
(0.143544 -0.000375644 -1.17772e-09)
(0.139132 -0.000413862 -1.08554e-09)
(0.134186 -0.000435986 -1.0398e-09)
(0.128794 -0.000443636 -1.02441e-09)
(0.123033 -0.000438825 -1.02896e-09)
(0.116973 -0.000423733 -1.05824e-09)
(0.110673 -0.000400554 -9.74308e-10)
(0.104189 -0.000371378 -9.19316e-10)
(0.0975688 -0.000338121 -8.7771e-10)
(0.0908568 -0.000302474 -8.47589e-10)
(0.0840919 -0.000265891 -8.22446e-10)
(0.077309 -0.000229579 -7.44288e-10)
(0.0705389 -0.000194514 -6.74293e-10)
(0.0638092 -0.000161454 -6.13707e-10)
(0.057144 -0.000130965 -5.58646e-10)
(0.0505642 -0.000103442 -5.01684e-10)
(0.0440881 -7.91363e-05 -4.23088e-10)
(0.0377314 -5.81785e-05 -3.49482e-10)
(0.0315072 -4.06011e-05 -2.73945e-10)
(0.0254264 -2.63687e-05 -2.14496e-10)
(0.0194982 -1.53708e-05 -1.6027e-10)
(0.0137296 -7.28989e-06 -1.10136e-10)
(0.00812607 -1.69245e-06 -6.36508e-11)
(0.00269173 -3.46107e-06 -2.04357e-11)
(0.161385 -0.000176735 -1.0105e-09)
(0.159184 -0.000263903 -1.62778e-09)
(0.156067 -0.000340497 -1.37628e-09)
(0.152171 -0.000397931 -1.25346e-09)
(0.147611 -0.000437026 -1.19154e-09)
(0.142486 -0.000458908 -1.16321e-09)
(0.136883 -0.000465444 -1.15488e-09)
(0.130879 -0.000458904 -1.15896e-09)
(0.124545 -0.000441714 -1.17247e-09)
(0.117942 -0.00041627 -1.08741e-09)
(0.111128 -0.000384824 -1.01974e-09)
(0.104153 -0.000349407 -9.65009e-10)
(0.0970645 -0.000311788 -9.20833e-10)
(0.0899042 -0.000273461 -8.80561e-10)
(0.0827102 -0.000235652 -7.98293e-10)
(0.0755166 -0.000199332 -7.21732e-10)
(0.0683536 -0.000165242 -6.52404e-10)
(0.0612484 -0.000133924 -5.92504e-10)
(0.0542245 -0.000105742 -5.24135e-10)
(0.0473027 -8.09194e-05 -4.43295e-10)
(0.0405007 -5.9556e-05 -3.73453e-10)
(0.0338337 -4.16579e-05 -2.86e-10)
(0.0273144 -2.71695e-05 -2.25731e-10)
(0.0209534 -1.59591e-05 -1.68409e-10)
(0.0147592 -7.64642e-06 -1.15603e-10)
(0.00873821 -1.71485e-06 -6.67422e-11)
(0.00289554 -4.39165e-06 -2.14057e-11)
(0.173257 -0.000177212 -2.94503e-10)
(0.170967 -0.00026562 -4.38909e-10)
(0.167717 -0.000342481 -5.21212e-10)
(0.163646 -0.000399638 -5.63075e-10)
(0.158867 -0.000437984 -5.74948e-10)
(0.153478 -0.000458844 -5.67562e-10)
(0.147567 -0.000464258 -5.67539e-10)
(0.141214 -0.00045664 -6.55356e-10)
(0.13449 -0.00043852 -7.40648e-10)
(0.12746 -0.00041236 -6.97099e-10)
(0.120186 -0.000380438 -6.52606e-10)
(0.112722 -0.000344784 -6.08042e-10)
(0.105118 -0.000307145 -5.63435e-10)
(0.0974224 -0.00026898 -5.18774e-10)
(0.0896762 -0.00023147 -4.73911e-10)
(0.0819178 -0.000195545 -4.29654e-10)
(0.0741815 -0.000161908 -3.86312e-10)
(0.0664979 -0.000131063 -3.49318e-10)
(0.0588939 -0.000103352 -2.92063e-10)
(0.0513931 -7.89735e-05 -2.52403e-10)
(0.0440161 -5.80159e-05 -1.94691e-10)
(0.0367802 -4.04777e-05 -1.64962e-10)
(0.0297003 -2.63042e-05 -1.19064e-10)
(0.0227886 -1.53638e-05 -8.97325e-11)
(0.0160548 -7.235e-06 -6.23593e-11)
(0.00950697 -1.34494e-06 -3.61833e-11)
(0.00315087 -5.30226e-06 -1.1634e-11)
(0.189113 -0.000161545 -7.09011e-10)
(0.186686 -0.00024098 -1.18919e-09)
(0.183234 -0.000309872 -8.8906e-10)
(0.178896 -0.000360859 -7.43741e-10)
(0.173789 -0.000394735 -6.73173e-10)
(0.168012 -0.000412817 -6.33909e-10)
(0.161656 -0.000417036 -6.12799e-10)
(0.154803 -0.000409645 -6.03555e-10)
(0.14753 -0.000392965 -5.98637e-10)
(0.139906 -0.000369232 -5.93636e-10)
(0.131997 -0.000340488 -5.89295e-10)
(0.123866 -0.000308535 -5.86348e-10)
(0.115567 -0.000274907 -5.86932e-10)
(0.107154 -0.000240878 -5.87692e-10)
(0.0986739 -0.000207472 -5.40152e-10)
(0.0901698 -0.00017549 -4.96879e-10)
(0.0816809 -0.000145537 -4.60792e-10)
(0.0732419 -0.000118048 -4.31456e-10)
(0.0648839 -9.33153e-05 -3.88372e-10)
(0.0566336 -7.15151e-05 -3.34247e-10)
(0.0485147 -5.27258e-05 -2.83229e-10)
(0.040547 -3.69519e-05 -2.29192e-10)
(0.0327477 -2.41582e-05 -1.87795e-10)
(0.0251307 -1.42353e-05 -1.40462e-10)
(0.0177074 -6.73981e-06 -9.61935e-11)
(0.010487 -1.05719e-06 -5.55065e-11)
(0.00347618 -6.30251e-06 -1.78027e-11)
(0.20934 -0.000131743 -7.17541e-10)
(0.206704 -0.000197575 -1.1543e-09)
(0.202949 -0.00025432 -9.01907e-10)
(0.19822 -0.000296362 -7.63011e-10)
(0.192638 -0.000324364 -6.81257e-10)
(0.186309 -0.000339472 -6.29616e-10)
(0.17933 -0.000343301 -5.9491e-10)
(0.171789 -0.000337695 -5.70278e-10)
(0.16377 -0.000324535 -5.51778e-10)
(0.155352 -0.000305615 -5.37138e-10)
(0.146607 -0.000282564 -5.25122e-10)
(0.137604 -0.000256813 -5.14742e-10)
(0.128408 -0.000229583 -5.06205e-10)
(0.119077 -0.00020189 -4.95132e-10)
(0.109666 -0.000174559 -4.47595e-10)
(0.100223 -0.000148243 -4.01781e-10)
(0.0907939 -0.000123447 -3.6071e-10)
(0.0814173 -0.000100545 -3.27287e-10)
(0.0721285 -7.98058e-05 -2.67279e-10)
(0.0629582 -6.14024e-05 -2.09718e-10)
(0.0539329 -4.54339e-05 -1.5524e-10)
(0.0450753 -3.19397e-05 -1.162e-10)
(0.0364045 -2.09322e-05 -9.2102e-11)
(0.0279365 -1.23513e-05 -6.92819e-11)
(0.019684 -5.76151e-06 -4.78386e-11)
(0.0116572 -5.38822e-07 -2.77262e-11)
(0.00386395 -7.18923e-06 -8.91401e-12)
(0.234432 -8.78895e-05 -4.74072e-10)
(0.231495 -0.000131621 -7.56752e-10)
(0.227306 -0.000169537 -1.01291e-09)
(0.222026 -0.000198037 -7.6176e-10)
(0.215788 -0.000217503 -5.9438e-10)
(0.208708 -0.000228655 -4.69418e-10)
(0.200893 -0.000232488 -3.67739e-10)
(0.192444 -0.000230135 -2.80128e-10)
(0.183454 -0.000222746 -1.92519e-10)
(0.174013 -0.000211417 -1.97659e-10)
(0.164204 -0.000197149 -1.89579e-10)
(0.154105 -0.000180828 -1.77619e-10)
(0.143789 -0.000163222 -1.61888e-10)
(0.133324 -0.000144987 -1.4297e-10)
(0.12277 -0.000126671 -1.21665e-10)
(0.112183 -0.000108732 -9.94985e-11)
(0.101614 -9.15397e-05 -1.07613e-10)
(0.0911066 -7.53923e-05 -1.11518e-10)
(0.0807008 -6.05228e-05 -1.04054e-10)
(0.0704307 -4.71078e-05 -9.40113e-11)
(0.0603259 -3.52738e-05 -8.33194e-11)
(0.0504117 -2.51075e-05 -7.2759e-11)
(0.0407093 -1.66845e-05 -6.26628e-11)
(0.0312361 -1.00111e-05 -4.40605e-11)
(0.0220064 -4.68324e-06 -2.68306e-11)
(0.0130311 -8.83268e-08 -1.12161e-11)
(0.00431878 -7.96984e-06 -3.46336e-12)
(0.26402 -3.2511e-05 -5.42262e-10)
(0.260678 -5.01022e-05 -8.62028e-10)
(0.255913 -6.55747e-05 -6.84547e-10)
(0.249909 -7.79352e-05 -5.60213e-10)
(0.242818 -8.73189e-05 -4.68711e-10)
(0.234776 -9.38976e-05 -4.00139e-10)
(0.225906 -9.79013e-05 -3.48128e-10)
(0.216324 -9.95877e-05 -3.08443e-10)
(0.206138 -9.92194e-05 -2.78388e-10)
(0.195451 -9.70536e-05 -2.56178e-10)
(0.184358 -9.33399e-05 -2.39065e-10)
(0.172949 -8.83217e-05 -2.25333e-10)
(0.161307 -8.22378e-05 -2.14016e-10)
(0.149507 -7.53231e-05 -2.04554e-10)
(0.137619 -6.78086e-05 -1.96701e-10)
(0.125705 -5.992e-05 -1.90627e-10)
(0.113821 -5.18754e-05 -1.87154e-10)
(0.102016 -4.38821e-05 -1.86388e-10)
(0.0903343 -3.61339e-05 -1.69443e-10)
(0.0788136 -2.88081e-05 -1.40303e-10)
(0.0674861 -2.20617e-05 -1.16418e-10)
(0.0563793 -1.60342e-05 -9.43529e-11)
(0.0455163 -1.08705e-05 -7.41756e-11)
(0.0349158 -6.65306e-06 -5.55153e-11)
(0.0245929 -3.03393e-06 -3.81887e-11)
(0.0145594 5.60618e-07 -2.20771e-11)
(0.004824 -8.45102e-06 -7.08678e-12)
(0.297393 3.47301e-05 -5.60327e-10)
(0.293547 5.05988e-05 -8.74584e-10)
(0.288069 6.3704e-05 -7.2223e-10)
(0.281178 7.22025e-05 -6.22739e-10)
(0.273053 7.62274e-05 -5.70157e-10)
(0.263856 7.6272e-05 -5.42597e-10)
(0.253732 7.3012e-05 -5.32492e-10)
(0.242817 6.72174e-05 -5.35117e-10)
(0.231237 5.9672e-05 -5.47055e-10)
(0.219111 5.1111e-05 -5.6526e-10)
(0.206547 4.21812e-05 -5.38355e-10)
(0.193648 3.34175e-05 -4.77243e-10)
(0.180507 2.52344e-05 -4.24565e-10)
(0.167208 1.79271e-05 -3.82251e-10)
(0.15383 1.16808e-05 -3.47547e-10)
(0.140441 6.58359e-06 -3.18896e-10)
(0.127102 2.64245e-06 -2.95482e-10)
(0.113868 -2.00263e-07 -2.77055e-10)
(0.100786 -2.05102e-06 -2.44232e-10)
(0.0878972 -3.04997e-06 -2.03477e-10)
(0.0752359 -3.35679e-06 -1.67776e-10)
(0.0628316 -3.14411e-06 -1.35558e-10)
(0.0507087 -2.61318e-06 -1.06147e-10)
(0.038887 -1.91833e-06 -7.91592e-11)
(0.0273822 -7.87345e-07 -5.43109e-11)
(0.0162062 1.2994e-06 -3.13494e-11)
(0.00536794 -8.5915e-06 -1.00539e-11)
(0.332981 0.000113274 -5.2204e-10)
(0.328555 0.00016748 -8.2528e-10)
(0.322261 0.00021389 -6.63883e-10)
(0.31436 0.000247332 -5.65021e-10)
(0.305067 0.00026807 -5.00907e-10)
(0.294575 0.000277225 -4.57531e-10)
(0.283056 0.000276365 -4.25706e-10)
(0.270668 0.000267309 -4.00345e-10)
(0.25756 0.000251936 -3.78381e-10)
(0.243866 0.000232044 -3.57901e-10)
(0.229712 0.00020926 -3.37671e-10)
(0.215211 0.000184995 -3.17714e-10)
(0.200467 0.000160417 -2.98773e-10)
(0.185576 0.000136455 -2.81124e-10)
(0.170621 0.000113809 -2.64812e-10)
(0.155678 9.2977e-05 -2.49821e-10)
(0.140813 7.42759e-05 -2.36014e-10)
(0.126085 5.78752e-05 -2.26877e-10)
(0.111545 4.38231e-05 -2.00357e-10)
(0.0972349 3.20729e-05 -1.70683e-10)
(0.0831926 2.25084e-05 -1.41267e-10)
(0.0694485 1.49603e-05 -1.14583e-10)
(0.0560279 9.19887e-06 -9.00158e-11)
(0.0429511 5.01549e-06 -6.72942e-11)
(0.0302339 2.60072e-06 -4.62489e-11)
(0.0178884 2.38405e-06 -2.67243e-11)
(0.00592296 -8.25746e-06 -8.57566e-12)
(0.36899 0.000202899 -4.90815e-10)
(0.363943 0.000302376 -7.92391e-10)
(0.356779 0.000388419 -6.13164e-10)
(0.347806 0.000452233 -5.0946e-10)
(0.337281 0.000494139 -4.41068e-10)
(0.325428 0.000515846 -3.91054e-10)
(0.312451 0.000519802 -3.52484e-10)
(0.298535 0.000508883 -3.21687e-10)
(0.283848 0.000486102 -2.96405e-10)
(0.268544 0.00045439 -2.75171e-10)
(0.252763 0.000416453 -2.57041e-10)
(0.236632 0.000374686 -2.41416e-10)
(0.220266 0.000331137 -2.27922e-10)
(0.203767 0.000287497 -2.16322e-10)
(0.187228 0.000245114 -2.06459e-10)
(0.170729 0.000205019 -1.98016e-10)
(0.154341 0.000167961 -1.9097e-10)
(0.138126 0.000134445 -1.85563e-10)
(0.122138 0.000104768 -1.6832e-10)
(0.106421 7.9077e-05 -1.41166e-10)
(0.0910133 5.73638e-05 -1.16831e-10)
(0.0759474 3.95038e-05 -9.45816e-11)
(0.0612486 2.52875e-05 -7.40889e-11)
(0.0469374 1.44838e-05 -5.52653e-11)
(0.0330295 7.2012e-06 -3.79261e-11)
(0.0195365 3.77047e-06 -2.18966e-11)
(0.00646645 -7.46511e-06 -7.0233e-12)
(0.403318 0.000299559 5.5664e-10)
(0.397651 0.000447586 1.74597e-10)
(0.389622 0.000576771 1.16927e-11)
(0.379587 0.000674392 -7.03506e-11)
(0.367844 0.000740658 -3.2805e-11)
(0.354653 0.000777738 -4.30562e-11)
(0.34025 0.000788836 -5.65717e-11)
(0.324844 0.000777799 -6.49683e-11)
(0.308626 0.000748719 -6.6262e-11)
(0.291766 0.000705635 -6.23083e-11)
(0.27442 0.00065243 -5.45947e-11)
(0.256727 0.000592507 -4.42418e-11)
(0.238812 0.000528771 -3.24246e-11)
(0.220785 0.000463768 -1.54254e-11)
(0.202743 0.000399588 -3.40565e-11)
(0.184773 0.000337894 -4.19539e-11)
(0.16695 0.000279962 -7.7395e-11)
(0.149337 0.000226728 -8.61264e-11)
(0.131991 0.000178829 -8.2048e-11)
(0.114957 0.000136657 -7.29749e-11)
(0.0982756 0.000100393 -6.53199e-11)
(0.0819777 7.00512e-05 -5.90383e-11)
(0.0660896 4.5492e-05 -4.69258e-11)
(0.0506314 2.64996e-05 -3.5106e-11)
(0.0356186 1.31073e-05 -2.42252e-11)
(0.0210621 5.55264e-06 -1.40411e-11)
(0.00696921 -6.23269e-06 -4.51488e-12)
(0.434233 0.00039523 -2.75182e-10)
(0.427989 0.000592345 -4.67497e-10)
(0.419156 0.000765426 -3.31254e-10)
(0.408135 0.000897955 -2.53075e-10)
(0.395266 0.000989982 -2.03162e-10)
(0.380842 0.00104403 -1.71915e-10)