/*--------------------------------*- C++ -*----------------------------------*\
| =========                 |                                                 |
| \\      /  F ield         | OpenFOAM: The Open Source CFD Toolbox           |
|  \\    /   O peration     | Version:  2106                                  |
|   \\  /    A nd           | Website:  www.openfoam.com                      |
|    \\/     M anipulation  |                                                 |
\*---------------------------------------------------------------------------*/
FoamFile
{
    version     2.0;
    format      ascii;
    arch        "LSB;label=32;scalar=64";
    class       volVectorField;
    location    "160.00011";
    object      U_0;
}
// * * * * * * * * * * * * * * * * * * * * * * * * * * * * * * * * * * * * * //

dimensions      [0 1 -1 0 0 0 0];

internalField   nonuniform List<vector> 
3360
(
(0.0807028 -0.00345926 -1.76746e-11)
(0.0809211 -0.0053955 -2.53302e-11)
(0.0812107 -0.00737139 -2.73823e-11)
(0.0815457 -0.0092412 -2.22125e-11)
(0.0818908 -0.0110165 -8.5716e-12)
(0.0822097 -0.012684 1.14766e-11)
(0.0824636 -0.0142296 3.73927e-11)
(0.0826117 -0.0156393 6.79972e-11)
(0.0826129 -0.0169053 1.04125e-10)
(0.0823982 -0.0179735 1.4413e-10)
(0.0817577 -0.0188833 6.3452e-11)
(0.0807088 -0.019582 -3.85468e-13)
(0.0792497 -0.0200652 -5.02792e-11)
(0.0773688 -0.0203219 -2.59335e-11)
(0.0750477 -0.0203425 -5.03107e-12)
(0.0722651 -0.0201198 1.09316e-11)
(0.0689987 -0.0196481 2.34475e-11)
(0.0652261 -0.0189239 3.37946e-11)
(0.0609252 -0.0179461 4.29141e-11)
(0.0560751 -0.0167158 5.0203e-11)
(0.0506555 -0.0152362 5.50255e-11)
(0.0446469 -0.0135113 4.52039e-11)
(0.0380307 -0.0115544 3.49728e-11)
(0.0307762 -0.00936464 2.54071e-11)
(0.0228723 -0.00696164 1.71522e-11)
(0.0143068 -0.00434608 9.81476e-12)
(0.00506409 -0.00146078 3.13703e-12)
(0.101565 -0.00238315 3.0091e-10)
(0.101499 -0.0036235 4.93573e-10)
(0.10134 -0.00482309 6.84636e-10)
(0.10103 -0.00585679 8.8629e-10)
(0.100508 -0.00672495 8.14086e-10)
(0.0997157 -0.00741658 8.05442e-10)
(0.0986012 -0.00792743 6.30016e-10)
(0.0971184 -0.00825607 5.11359e-10)
(0.0952304 -0.00839792 4.28207e-10)
(0.0929389 -0.00839626 3.70391e-10)
(0.0903821 -0.00821516 3.33058e-10)
(0.0874747 -0.00790697 3.13936e-10)
(0.084203 -0.00748894 3.10077e-10)
(0.0805534 -0.00697418 3.20063e-10)
(0.0765108 -0.0063815 3.39237e-10)
(0.0720679 -0.00573057 2.94523e-10)
(0.0672282 -0.00504136 2.61018e-10)
(0.0620058 -0.00433398 2.36632e-10)
(0.0564235 -0.00362799 2.18499e-10)
(0.0505173 -0.00294234 2.05317e-10)
(0.0443278 -0.00229472 1.97529e-10)
(0.0378968 -0.0017027 1.6695e-10)
(0.0312659 -0.00117451 1.41943e-10)
(0.0244898 -0.000733301 1.20208e-10)
(0.0176025 -0.00038357 1.02168e-10)
(0.010636 -0.000139563 6.86417e-11)
(0.00361918 -1.19802e-05 2.16068e-11)
(0.114449 -0.00188186 1.67653e-10)
(0.113645 -0.00287532 2.44659e-10)
(0.112443 -0.00378709 2.80497e-10)
(0.110836 -0.00452601 2.80974e-10)
(0.108812 -0.00509659 3.99404e-10)
(0.106363 -0.00549838 4.70299e-10)
(0.103489 -0.00573935 5.00764e-10)
(0.1002 -0.00583342 5.08169e-10)
(0.0965163 -0.0057977 5.00318e-10)
(0.0924585 -0.00564926 3.77109e-10)
(0.0880492 -0.00540258 3.9215e-10)
(0.0833285 -0.00507818 4.05516e-10)
(0.0783082 -0.00468442 4.23178e-10)
(0.0730251 -0.00424296 4.46325e-10)
(0.0675354 -0.00377026 4.78173e-10)
(0.0618985 -0.00328225 4.29477e-10)
(0.056172 -0.00279477 3.43255e-10)
(0.050409 -0.00232125 2.66243e-10)
(0.0446568 -0.00187401 1.96954e-10)
(0.0389511 -0.00146279 1.56272e-10)
(0.0333216 -0.00109527 1.18722e-10)
(0.0277944 -0.000777059 1.07554e-10)
(0.0223919 -0.000511903 9.62623e-11)
(0.0171324 -0.000301611 8.62358e-11)
(0.0120302 -0.000146581 5.89127e-11)
(0.00709653 -4.76229e-05 3.40342e-11)
(0.00233976 -1.35401e-06 1.09304e-11)
(0.126365 -0.000906105 -5.63577e-10)
(0.125001 -0.00133716 -9.18057e-10)
(0.123028 -0.00172877 -1.26815e-09)
(0.120491 -0.00202752 -1.04339e-09)
(0.117429 -0.00224115 -9.25386e-10)
(0.113876 -0.00236051 -6.95662e-10)
(0.109895 -0.00240896 -5.77842e-10)
(0.105529 -0.00238433 -5.34233e-10)
(0.100825 -0.00230036 -4.22334e-10)
(0.0958317 -0.00217075 -2.42232e-10)
(0.0906109 -0.00200438 -1.12811e-10)
(0.0852076 -0.00181279 -2.28955e-11)
(0.0796577 -0.00160681 3.84618e-11)
(0.0739946 -0.00139692 7.93477e-11)
(0.0682518 -0.00119168 1.05549e-10)
(0.0624626 -0.000997473 1.21317e-10)
(0.0566582 -0.000818054 1.31289e-10)
(0.0508665 -0.000656441 7.57496e-11)
(0.0451125 -0.000513776 2.63145e-11)
(0.0394176 -0.000390386 -5.23039e-12)
(0.0338005 -0.000286032 1.10981e-12)
(0.0282766 -0.000200012 1.3789e-11)
(0.022859 -0.000131268 1.265e-11)
(0.0175584 -7.84756e-05 1.07144e-11)
(0.0123834 -4.00975e-05 7.95293e-12)
(0.00734086 -1.46418e-05 4.77589e-12)
(0.00243617 -1.83411e-06 1.56206e-12)
(0.127637 -0.000447634 3.43142e-10)
(0.126001 -0.000684023 7.00457e-11)
(0.123658 -0.000882085 -4.87251e-11)
(0.120687 -0.00102389 -5.37221e-11)
(0.117158 -0.00111035 2.67966e-12)
(0.113136 -0.00116055 1.00575e-10)
(0.108682 -0.00116448 2.59782e-10)
(0.103862 -0.00113961 3.10423e-10)
(0.0987361 -0.00108932 2.61865e-10)
(0.0933632 -0.00102023 2.64778e-10)
(0.0877982 -0.000937667 2.90873e-10)
(0.082093 -0.000845997 2.41762e-10)
(0.0762951 -0.000749253 2.06108e-10)
(0.0704477 -0.000651188 1.80366e-10)
(0.06459 -0.000555063 1.60841e-10)
(0.0587564 -0.000463508 1.45336e-10)
(0.0529774 -0.000378486 1.32748e-10)
(0.047279 -0.000301358 1.22157e-10)
(0.0416833 -0.000232973 1.13833e-10)
(0.0362086 -0.000173757 1.0782e-10)
(0.0308695 -0.000123807 1.04066e-10)
(0.0256776 -8.29642e-05 1.03631e-10)
(0.0206417 -5.08781e-05 6.65721e-11)
(0.0157679 -2.70604e-05 4.89446e-11)
(0.0110601 -1.09818e-05 3.34407e-11)
(0.00652058 -2.24437e-06 1.92924e-11)
(0.00214976 7.53246e-07 6.19551e-12)
(0.131649 -0.0002306 5.86974e-11)
(0.129767 -0.000325436 6.04727e-11)
(0.12711 -0.000407284 6.56127e-11)
(0.1238 -0.000461337 8.2392e-11)
(0.119946 -0.000490789 1.09491e-10)
(0.115642 -0.00049759 1.42267e-10)
(0.110947 -0.000486625 1.73948e-10)
(0.105925 -0.000461908 1.97938e-10)
(0.100638 -0.000427319 2.16133e-10)
(0.0951411 -0.000386454 2.34186e-10)
(0.0894867 -0.000342371 2.49904e-10)
(0.0837213 -0.000297561 1.78117e-10)
(0.0778867 -0.000253958 1.11868e-10)
(0.0720192 -0.000212976 5.13705e-11)
(0.0661506 -0.000175564 -4.20767e-12)
(0.0603081 -0.000142272 -5.62079e-11)
(0.0545151 -0.000113319 -4.75265e-11)
(0.048791 -8.86708e-05 -4.04291e-11)
(0.0431522 -6.81021e-05 -3.62347e-11)
(0.0376122 -5.1261e-05 -7.28645e-12)
(0.0321821 -3.77189e-05 1.54038e-11)
(0.0268708 -2.70109e-05 2.02229e-11)
(0.0216855 -1.86688e-05 2.25855e-11)
(0.0166318 -1.22424e-05 2.47644e-11)
(0.0117141 -7.27804e-06 2.67468e-11)
(0.00693562 -3.32568e-06 1.57128e-11)
(0.00229864 -8.33339e-07 5.10936e-12)
(0.131311 -0.000108649 6.41103e-11)
(0.129362 -0.000174082 9.51874e-11)
(0.12661 -0.000229589 1.13311e-10)
(0.123181 -0.000271562 1.30341e-10)
(0.119184 -0.000300415 1.479e-10)
(0.114713 -0.000315959 1.66539e-10)
(0.10985 -0.000319259 4.07901e-11)
(0.104669 -0.000312462 -7.38003e-11)
(0.0992366 -0.000297832 -1.90002e-10)
(0.0936124 -0.000277517 -1.86444e-10)
(0.0878502 -0.000253415 -2.01509e-10)
(0.0819979 -0.000227123 -2.31893e-10)
(0.076098 -0.000199938 -2.73246e-10)
(0.0701876 -0.000172881 -3.2205e-10)
(0.0642992 -0.00014673 -3.02331e-10)
(0.0584608 -0.000122059 -2.91274e-10)
(0.0526963 -9.92763e-05 -2.86941e-10)
(0.047026 -7.86584e-05 -2.8806e-10)
(0.0414668 -6.03777e-05 -2.58788e-10)
(0.0360324 -4.45271e-05 -2.166e-10)
(0.0307341 -3.11391e-05 -1.79244e-10)
(0.0255804 -2.01996e-05 -1.29034e-10)
(0.0205781 -1.16578e-05 -1.01168e-10)
(0.0157317 -5.43325e-06 -7.57933e-11)
(0.0110443 -1.45115e-06 -5.22029e-11)
(0.00651732 3.02599e-07 -3.02245e-11)
(0.00215126 5.16879e-07 -9.72323e-12)
(0.132705 -4.76898e-05 5.03468e-10)
(0.130728 -6.20367e-05 8.33384e-10)
(0.127937 -7.58642e-05 3.43356e-10)
(0.124466 -8.47444e-05 -3.90649e-12)
(0.120427 -8.90265e-05 -2.93478e-10)
(0.115917 -8.8981e-05 -5.87899e-10)
(0.111022 -8.52989e-05 -6.69991e-10)
(0.105817 -7.88812e-05 -6.83051e-10)
(0.100371 -7.06625e-05 -7.47694e-10)
(0.0947418 -6.15037e-05 -7.11329e-10)
(0.0889819 -5.21287e-05 -5.95329e-10)
(0.0831369 -4.30994e-05 -5.10126e-10)
(0.0772461 -3.48147e-05 -4.438e-10)
(0.0713438 -2.75245e-05 -3.8977e-10)
(0.0654593 -2.1352e-05 -3.43443e-10)
(0.0596174 -1.63186e-05 -3.03427e-10)
(0.0538392 -1.23676e-05 -3.24327e-10)
(0.0481425 -9.38717e-06 -3.48177e-10)
(0.0425418 -7.22991e-06 -3.30761e-10)
(0.0370494 -5.72901e-06 -3.00136e-10)
(0.0316751 -4.71118e-06 -2.71286e-10)
(0.0264269 -4.00675e-06 -2.19479e-10)
(0.0213112 -3.45842e-06 -1.73616e-10)
(0.0163327 -2.92568e-06 -1.17586e-10)
(0.0114952 -2.26459e-06 -8.07647e-11)
(0.00680108 -1.31383e-06 -4.67217e-11)
(0.0022521 -4.90117e-07 -1.50329e-11)
(0.132342 -4.04458e-05 1.16842e-10)
(0.130331 -6.68735e-05 1.44207e-10)
(0.127496 -8.83905e-05 9.21972e-11)
(0.123971 -0.000104287 3.94492e-11)
(0.119872 -0.000114946 2.61149e-11)
(0.115301 -0.000120804 -2.15326e-10)
(0.110344 -0.000122479 -3.70714e-10)
(0.10508 -0.000120664 -4.76047e-10)
(0.099577 -0.000116055 -5.52802e-10)
(0.0938966 -0.000109311 -6.09593e-10)
(0.0880913 -0.000101025 -6.57035e-10)
(0.0822077 -9.171e-05 -7.04344e-10)
(0.0762863 -8.18051e-05 -6.59906e-10)
(0.0703623 -7.16746e-05 -6.28529e-10)
(0.0644661 -6.1619e-05 -6.08242e-10)
(0.0586236 -5.18832e-05 -5.97301e-10)
(0.052857 -4.26647e-05 -5.93965e-10)
(0.047185 -3.41212e-05 -5.94764e-10)
(0.041623 -2.63763e-05 -5.73418e-10)
(0.0361839 -1.95243e-05 -5.11982e-10)
(0.030878 -1.36341e-05 -4.56309e-10)
(0.0257133 -8.75229e-06 -3.69553e-10)
(0.0206961 -4.90443e-06 -2.89885e-10)
(0.0158307 -2.09691e-06 -2.1652e-10)
(0.0111201 -3.33081e-07 -1.48834e-10)
(0.006566 3.55625e-07 -8.6078e-11)
(0.00216894 2.65867e-07 -2.76684e-11)
(0.133104 -1.82168e-05 -1.8027e-11)
(0.131088 -2.18928e-05 -5.39507e-11)
(0.128246 -2.59786e-05 -1.25104e-10)
(0.124716 -2.8445e-05 -2.15433e-10)
(0.120613 -2.94526e-05 -3.18681e-10)
(0.11604 -2.91137e-05 -4.36081e-10)
(0.111084 -2.76702e-05 -5.50368e-10)
(0.105825 -2.54101e-05 -6.59836e-10)
(0.100329 -2.26259e-05 -7.69465e-10)
(0.0946578 -1.95851e-05 -7.53926e-10)
(0.0888624 -1.65132e-05 -7.49982e-10)
(0.0829883 -1.35868e-05 -7.51691e-10)
(0.0770746 -1.09324e-05 -7.55252e-10)
(0.0711552 -8.62979e-06 -7.60059e-10)
(0.0652587 -6.71769e-06 -7.06172e-10)
(0.0594098 -5.20032e-06 -6.58406e-10)
(0.0536293 -4.05462e-06 -6.17309e-10)
(0.0479346 -3.23708e-06 -5.8398e-10)
(0.0423403 -2.68991e-06 -5.15807e-10)
(0.0368582 -2.34673e-06 -4.43879e-10)
(0.0314982 -2.13746e-06 -3.75313e-10)
(0.0262681 -1.99239e-06 -2.89721e-10)
(0.021174 -1.84628e-06 -2.28438e-10)
(0.0162207 -1.64011e-06 -1.71286e-10)
(0.0114114 -1.30491e-06 -1.1803e-10)
(0.00674857 -7.53815e-07 -6.83439e-11)
(0.00223353 -3.75353e-07 -2.19775e-11)
(0.132992 -2.24149e-05 3.87154e-10)
(0.130961 -3.74602e-05 6.97933e-10)
(0.128098 -4.98355e-05 1.02181e-10)
(0.124543 -5.92255e-05 -3.02254e-10)
(0.120413 -6.58267e-05 -6.38299e-10)
(0.11581 -6.98499e-05 -9.65131e-10)
(0.110824 -7.15848e-05 -1.10557e-09)
(0.105533 -7.1352e-05 -1.07928e-09)
(0.100007 -6.94778e-05 -1.11627e-09)
(0.0943062 -6.62787e-05 -1.06579e-09)
(0.0884829 -6.20502e-05 -9.26625e-10)
(0.0825831 -5.7062e-05 -8.19464e-10)
(0.0766468 -5.15561e-05 -7.31751e-10)
(0.0707086 -4.57468e-05 -6.54787e-10)
(0.0647981 -3.98218e-05 -5.83549e-10)
(0.0589407 -3.39447e-05 -5.16292e-10)
(0.053158 -2.82548e-05 -5.10721e-10)
(0.0474683 -2.28731e-05 -5.05206e-10)
(0.0418867 -1.79052e-05 -4.63711e-10)
(0.0364258 -1.34377e-05 -4.11334e-10)
(0.0310955 -9.53948e-06 -3.62892e-10)
(0.025904 -6.2619e-06 -2.99272e-10)
(0.0208574 -3.63953e-06 -2.41555e-10)
(0.0159602 -1.69019e-06 -1.69056e-10)
(0.0112154 -4.19076e-07 -1.16261e-10)
(0.00662489 1.62856e-07 -6.72323e-11)
(0.00218945 8.5127e-09 -2.16192e-11)
(0.133626 -1.65096e-05 6.59766e-11)
(0.131598 -2.16188e-05 6.45919e-11)
(0.128739 -2.68557e-05 -1.44834e-11)
(0.125189 -3.07137e-05 -9.22082e-11)
(0.121065 -3.32743e-05 -1.30552e-10)
(0.116469 -3.45745e-05 -3.65538e-10)
(0.111491 -3.47453e-05 -5.11731e-10)
(0.106209 -3.39615e-05 -5.99285e-10)
(0.100692 -3.24167e-05 -6.51283e-10)
(0.0949981 -3.03046e-05 -6.77294e-10)
(0.0891804 -2.7806e-05 -6.86504e-10)
(0.0832838 -2.50818e-05 -6.88614e-10)
(0.0773473 -2.22682e-05 -6.88631e-10)
(0.0714046 -1.94759e-05 -6.89054e-10)
(0.0654847 -1.6789e-05 -6.90858e-10)
(0.0596122 -1.42548e-05 -6.93832e-10)
(0.0538082 -1.1967e-05 -6.4715e-10)
(0.0480903 -9.86722e-06 -5.99878e-10)
(0.0424734 -8.01881e-06 -5.48953e-10)
(0.0369698 -6.40673e-06 -4.46985e-10)
(0.0315896 -5.01969e-06 -3.5508e-10)
(0.0263407 -3.83929e-06 -2.70778e-10)
(0.0212295 -2.84221e-06 -1.92631e-10)
(0.0162606 -2.00074e-06 -1.35928e-10)
(0.0114377 -1.2645e-06 -8.1395e-11)
(0.00676296 -5.60248e-07 -4.81973e-11)
(0.00223781 -4.54601e-07 -1.55986e-11)
(0.133969 -3.76482e-05 -8.71124e-11)
(0.131933 -5.89752e-05 -1.5384e-10)
(0.129063 -7.75087e-05 -2.3368e-10)
(0.125498 -9.18405e-05 -3.23892e-10)
(0.121358 -0.000102142 -4.22781e-10)
(0.116743 -0.000108579 -5.31282e-10)
(0.111744 -0.00011147 -6.40486e-10)
(0.106439 -0.000111225 -7.48818e-10)
(0.100896 -0.000108305 -8.55969e-10)
(0.0951756 -0.000103192 -8.31251e-10)
(0.0893299 -9.63675e-05 -8.18839e-10)
(0.0834045 -8.82944e-05 -8.1588e-10)
(0.077439 -7.94018e-05 -8.19482e-10)
(0.0714677 -7.0077e-05 -8.25687e-10)
(0.0655203 -6.06607e-05 -7.64509e-10)
(0.059622 -5.14559e-05 -7.09445e-10)
(0.0537945 -4.26486e-05 -6.60155e-10)
(0.0480563 -3.45055e-05 -6.15318e-10)
(0.0424229 -2.71053e-05 -5.48029e-10)
(0.0369069 -2.05495e-05 -4.65101e-10)
(0.0315188 -1.48916e-05 -3.86177e-10)
(0.026267 -1.01569e-05 -3.0122e-10)
(0.0211578 -6.35056e-06 -2.37754e-10)
(0.0161962 -3.4584e-06 -1.77964e-10)
(0.0113855 -1.43584e-06 -1.22359e-10)
(0.00672787 -2.25672e-07 -7.0756e-11)
(0.00222448 -3.66959e-07 -2.2735e-11)
(0.1351 -4.31723e-05 -1.62133e-10)
(0.133059 -6.30102e-05 -2.52953e-10)
(0.13018 -8.11256e-05 -3.61755e-10)
(0.126606 -9.49256e-05 -4.75892e-10)
(0.122453 -0.000104582 -5.88632e-10)
(0.117825 -0.000110228 -6.95342e-10)
(0.11281 -0.000112208 -7.98043e-10)
(0.107488 -0.000110987 -8.95589e-10)
(0.101925 -0.000107099 -9.83493e-10)
(0.0961837 -0.0001011 -9.5574e-10)
(0.0903143 -9.35392e-05 -9.32635e-10)
(0.0843628 -8.49299e-05 -9.16429e-10)
(0.0783682 -7.57304e-05 -9.07244e-10)
(0.0723647 -6.63323e-05 -9.08625e-10)
(0.0663813 -5.70601e-05 -8.25768e-10)
(0.0604432 -4.81725e-05 -7.57854e-10)
(0.0545714 -3.98669e-05 -6.98827e-10)
(0.048784 -3.22818e-05 -6.51693e-10)
(0.043096 -2.55021e-05 -5.77348e-10)
(0.0375198 -1.95708e-05 -4.8466e-10)
(0.0320659 -1.44969e-05 -4.01457e-10)
(0.0267427 -1.02633e-05 -3.13856e-10)
(0.0215569 -6.83612e-06 -2.46256e-10)
(0.0165138 -4.16562e-06 -1.84036e-10)
(0.0116172 -2.15604e-06 -1.26522e-10)
(0.00686989 -6.76667e-07 -7.31755e-11)
(0.00227346 -7.96909e-07 -2.35151e-11)
(0.136307 -6.92228e-05 4.09952e-10)
(0.134257 -0.000105671 -5.95794e-10)
(0.131367 -0.000138282 -4.2291e-10)
(0.127777 -0.000163865 -2.60605e-10)
(0.123605 -0.000182678 -9.06152e-11)
(0.118953 -0.000194923 -2.57423e-10)
(0.113911 -0.000201085 -3.54682e-10)
(0.108557 -0.000201806 -4.13313e-10)
(0.102959 -0.000197824 -4.47387e-10)
(0.0971763 -0.000189918 -4.63099e-10)
(0.0912621 -0.00017887 -4.66081e-10)
(0.0852614 -0.000165432 -4.59717e-10)
(0.0792138 -0.000150314 -4.46125e-10)
(0.0731535 -0.000134168 -4.26627e-10)
(0.0671102 -0.000117577 -4.01923e-10)
(0.0611096 -0.000101047 -3.73384e-10)
(0.0551737 -8.50072e-05 -3.42308e-10)
(0.0493212 -6.98157e-05 -3.1138e-10)
(0.043568 -5.57637e-05 -2.51568e-10)
(0.0379274 -4.30779e-05 -2.17979e-10)
(0.0324106 -3.19223e-05 -1.718e-10)
(0.0270265 -2.2404e-05 -1.48739e-10)
(0.0217823 -1.45823e-05 -1.04942e-10)
(0.0166835 -8.4686e-06 -7.9082e-11)
(0.0117344 -3.99278e-06 -5.4522e-11)
(0.00693775 -1.04172e-06 -3.1605e-11)
(0.0022953 -1.01271e-06 -1.01577e-11)
(0.138629 -9.06266e-05 2.32796e-10)
(0.136568 -0.000135194 2.93752e-10)
(0.133661 -0.000175582 -4.7862e-10)
(0.130048 -0.000206976 -4.0967e-10)
(0.125846 -0.000229689 -4.13607e-10)
(0.121158 -0.00024397 -4.54098e-10)
(0.116072 -0.000250466 -5.13018e-10)
(0.110665 -0.000250054 -5.8391e-10)
(0.105007 -0.000243741 -6.62595e-10)
(0.0991556 -0.000232592 -6.38606e-10)
(0.0931647 -0.000217666 -6.27738e-10)
(0.0870796 -0.000199977 -6.26725e-10)
(0.0809404 -0.000180465 -6.35117e-10)
(0.0747821 -0.000159975 -6.55364e-10)
(0.0686351 -0.000139244 -5.96281e-10)
(0.0625258 -0.000118896 -5.53192e-10)
(0.0564768 -9.94362e-05 -5.2016e-10)
(0.0505076 -8.12635e-05 -4.96255e-10)
(0.0446347 -6.46749e-05 -4.39321e-10)
(0.0388719 -4.98766e-05 -3.69853e-10)
(0.033231 -3.69958e-05 -3.08664e-10)
(0.0277215 -2.60924e-05 -2.32873e-10)
(0.022351 -1.71755e-05 -1.82259e-10)
(0.0171255 -1.02036e-05 -1.36105e-10)
(0.0120496 -5.03017e-06 -9.35529e-11)
(0.0071267 -1.44603e-06 -5.41033e-11)
(0.00235883 -1.54941e-06 -1.73839e-11)
(0.141612 -0.000117302 -8.56815e-10)
(0.139533 -0.000177247 -1.45961e-09)
(0.136599 -0.000230559 -1.13329e-09)
(0.13295 -0.000271568 -1.01009e-09)
(0.128703 -0.000300752 -9.88472e-10)
(0.123959 -0.00031858 -1.02827e-09)
(0.118808 -0.000326032 -1.10858e-09)
(0.113326 -0.000324382 -1.21645e-09)
(0.107582 -0.00031506 -1.20623e-09)
(0.101635 -0.000299548 -1.09669e-09)
(0.0955394 -0.000279301 -1.02201e-09)
(0.0893404 -0.00025569 -9.67975e-10)
(0.0830789 -0.000229952 -9.28519e-10)
(0.0767909 -0.000203173 -9.03781e-10)
(0.0705074 -0.00017628 -8.15708e-10)
(0.064256 -0.000150042 -7.42967e-10)
(0.0580601 -0.000125075 -6.78771e-10)
(0.0519405 -0.000101857 -6.19996e-10)
(0.0459146 -8.07377e-05 -5.46864e-10)
(0.0399973 -6.19595e-05 -4.65638e-10)
(0.0342013 -4.56681e-05 -3.92137e-10)
(0.0285369 -3.19302e-05 -3.02973e-10)
(0.0230127 -2.07531e-05 -2.38023e-10)
(0.0176353 -1.20836e-05 -1.77973e-10)
(0.0124101 -5.73531e-06 -1.22358e-10)
(0.00734077 -1.44399e-06 -7.07239e-11)
(0.00242998 -2.00151e-06 -2.27148e-11)
(0.146242 -0.000142055 -6.93107e-10)
(0.144137 -0.000212327 -1.1395e-09)
(0.141164 -0.000275006 -1.58343e-09)
(0.137462 -0.000322873 -1.26438e-09)
(0.133148 -0.00035651 -1.0928e-09)
(0.128322 -0.00037655 -9.96093e-10)
(0.123072 -0.000384247 -9.34724e-10)
(0.117477 -0.000381206 -8.8805e-10)
(0.111603 -0.000369205 -8.44593e-10)
(0.105511 -0.000350061 -8.02082e-10)
(0.0992544 -0.000325535 -7.61443e-10)
(0.0928806 -0.000297257 -7.22943e-10)
(0.0864313 -0.000266691 -6.86325e-10)
(0.0799435 -0.000235108 -6.50869e-10)
(0.0734499 -0.000203579 -5.54175e-10)
(0.0669792 -0.00017298 -4.65384e-10)
(0.0605568 -0.000144002 -4.27464e-10)
(0.0542046 -0.00011717 -3.88766e-10)
(0.0479416 -9.2856e-05 -3.36299e-10)
(0.0417842 -7.13074e-05 -2.83668e-10)
(0.0357463 -5.26596e-05 -2.33831e-10)
(0.0298393 -3.69591e-05 -1.87199e-10)
(0.0240731 -2.41878e-05 -1.4374e-10)
(0.0184553 -1.426e-05 -1.03176e-10)
(0.0129919 -6.91946e-06 -6.53907e-11)
(0.00768773 -1.80872e-06 -3.08647e-11)
(0.0025459 -2.74085e-06 -9.67227e-12)
(0.152498 -0.000164563 -1.00315e-09)
(0.150355 -0.000247426 -1.58144e-09)
(0.147324 -0.000320415 -1.34027e-09)
(0.143544 -0.000375644 -1.1782e-09)
(0.139132 -0.000413862 -1.08494e-09)
(0.134186 -0.000435986 -1.03938e-09)
(0.128794 -0.000443637 -1.02426e-09)
(0.123033 -0.000438825 -1.02928e-09)
(0.116973 -0.000423733 -1.04839e-09)
(0.110673 -0.000400554 -9.74747e-10)
(0.104189 -0.000371378 -9.19471e-10)
(0.0975688 -0.000338121 -8.77762e-10)
(0.0908568 -0.000302474 -8.46638e-10)
(0.0840919 -0.000265891 -8.2504e-10)
(0.077309 -0.000229579 -7.43355e-10)
(0.0705389 -0.000194514 -6.74457e-10)
(0.0638092 -0.000161454 -6.14371e-10)
(0.057144 -0.000130965 -5.60768e-10)
(0.0505642 -0.000103442 -5.00757e-10)
(0.0440881 -7.91363e-05 -4.22337e-10)
(0.0377314 -5.81785e-05 -3.52001e-10)
(0.0315072 -4.06011e-05 -2.73449e-10)
(0.0254264 -2.63687e-05 -2.14465e-10)
(0.0194982 -1.53708e-05 -1.60287e-10)
(0.0137296 -7.2899e-06 -1.10146e-10)
(0.00812607 -1.69244e-06 -6.3658e-11)
(0.00269173 -3.46106e-06 -2.04386e-11)
(0.161385 -0.000176731 -1.0087e-09)
(0.159184 -0.000263901 -1.6394e-09)
(0.156067 -0.000340495 -1.37502e-09)
(0.152171 -0.00039793 -1.25312e-09)
(0.147611 -0.000437025 -1.19152e-09)
(0.142486 -0.000458907 -1.16328e-09)
(0.136883 -0.000465443 -1.15497e-09)
(0.130879 -0.000458905 -1.15898e-09)
(0.124545 -0.000441714 -1.17547e-09)
(0.117942 -0.000416271 -1.08739e-09)
(0.111128 -0.000384825 -1.01975e-09)
(0.104153 -0.000349407 -9.6522e-10)
(0.0970645 -0.000311788 -9.20039e-10)
(0.0899042 -0.000273462 -8.81279e-10)
(0.0827102 -0.000235653 -7.97661e-10)
(0.0755166 -0.000199332 -7.22365e-10)
(0.0683536 -0.000165243 -6.53511e-10)
(0.0612484 -0.000133924 -5.87709e-10)
(0.0542245 -0.000105742 -5.22511e-10)
(0.0473027 -8.09194e-05 -4.4357e-10)
(0.0405007 -5.9556e-05 -3.72047e-10)
(0.0338337 -4.16579e-05 -2.88325e-10)
(0.0273144 -2.71695e-05 -2.25552e-10)
(0.0209534 -1.59591e-05 -1.68402e-10)
(0.0147592 -7.6464e-06 -1.15599e-10)
(0.00873821 -1.71484e-06 -6.6729e-11)
(0.00289554 -4.39165e-06 -2.13987e-11)
(0.173257 -0.000177212 -2.94548e-10)
(0.170967 -0.000265619 -4.39231e-10)
(0.167717 -0.00034248 -5.21531e-10)
(0.163646 -0.000399637 -5.63741e-10)
(0.158867 -0.000437983 -5.75412e-10)
(0.153478 -0.000458843 -5.63559e-10)
(0.147567 -0.000464257 -5.47814e-10)
(0.141214 -0.000456639 -6.51091e-10)
(0.13449 -0.000438519 -7.46045e-10)
(0.12746 -0.000412359 -6.9701e-10)
(0.120186 -0.000380437 -6.52354e-10)
(0.112721 -0.000344784 -6.08056e-10)
(0.105118 -0.000307145 -5.63496e-10)
(0.0974224 -0.000268979 -5.18868e-10)
(0.0896762 -0.00023147 -4.74046e-10)
(0.0819178 -0.000195545 -4.29621e-10)
(0.0741815 -0.000161907 -3.86475e-10)
(0.0664979 -0.000131063 -3.47943e-10)
(0.0588939 -0.000103352 -2.89356e-10)
(0.0513931 -7.89734e-05 -2.50734e-10)
(0.0440161 -5.80159e-05 -1.95334e-10)
(0.0367802 -4.04777e-05 -1.631e-10)
(0.0297003 -2.63043e-05 -1.18654e-10)
(0.0227886 -1.53639e-05 -9.01841e-11)
(0.0160548 -7.23503e-06 -6.24512e-11)
(0.00950697 -1.34497e-06 -3.62012e-11)
(0.00315087 -5.30227e-06 -1.16379e-11)
(0.189113 -0.000161548 -6.94389e-10)
(0.186686 -0.00024098 -1.21748e-09)
(0.183234 -0.00030987 -8.78388e-10)
(0.178896 -0.000360858 -7.43032e-10)
(0.173789 -0.000394735 -6.737e-10)
(0.168012 -0.000412816 -6.34232e-10)
(0.161656 -0.000417036 -6.12825e-10)
(0.154803 -0.000409644 -6.03657e-10)
(0.14753 -0.000392965 -5.9875e-10)
(0.139906 -0.000369231 -5.93721e-10)
(0.131997 -0.000340488 -5.89358e-10)
(0.123866 -0.000308535 -5.86155e-10)
(0.115567 -0.000274907 -5.85641e-10)
(0.107154 -0.000240877 -5.9025e-10)
(0.0986739 -0.000207471 -5.39093e-10)
(0.0901698 -0.000175489 -4.96791e-10)
(0.0816809 -0.000145536 -4.6035e-10)
(0.0732419 -0.000118047 -4.28603e-10)
(0.0648838 -9.33149e-05 -3.85848e-10)
(0.0566336 -7.15148e-05 -3.33842e-10)
(0.0485147 -5.27255e-05 -2.8601e-10)
(0.040547 -3.69516e-05 -2.2822e-10)
(0.0327477 -2.4158e-05 -1.88092e-10)
(0.0251307 -1.42351e-05 -1.40207e-10)
(0.0177074 -6.73968e-06 -9.62072e-11)
(0.010487 -1.05712e-06 -5.55003e-11)
(0.00347618 -6.30249e-06 -1.78021e-11)
(0.20934 -0.000131735 -7.17852e-10)
(0.206704 -0.000197572 -1.17205e-09)
(0.202949 -0.00025432 -9.02287e-10)
(0.19822 -0.000296362 -7.62781e-10)
(0.192638 -0.000324363 -6.8138e-10)
(0.186309 -0.000339471 -6.29725e-10)
(0.17933 -0.0003433 -5.9497e-10)
(0.171789 -0.000337694 -5.70314e-10)
(0.16377 -0.000324534 -5.5181e-10)
(0.155352 -0.000305614 -5.37195e-10)
(0.146607 -0.000282563 -5.25254e-10)
(0.137604 -0.000256813 -5.15017e-10)
(0.128408 -0.000229583 -5.05465e-10)
(0.119077 -0.00020189 -4.95668e-10)
(0.109666 -0.000174559 -4.46824e-10)
(0.100223 -0.000148243 -4.01772e-10)
(0.0907939 -0.000123447 -3.6122e-10)
(0.0814173 -0.000100546 -3.26513e-10)
(0.0721285 -7.9806e-05 -2.69699e-10)
(0.0629582 -6.14026e-05 -2.09776e-10)
(0.0539329 -4.54341e-05 -1.5183e-10)
(0.0450753 -3.19398e-05 -1.16376e-10)
(0.0364045 -2.09324e-05 -9.21678e-11)
(0.0279365 -1.23514e-05 -6.93227e-11)
(0.019684 -5.76158e-06 -4.78758e-11)
(0.0116572 -5.38858e-07 -2.77502e-11)
(0.00386395 -7.18924e-06 -8.92189e-12)
(0.234432 -8.78955e-05 -4.7307e-10)
(0.231495 -0.000131621 -7.55315e-10)
(0.227306 -0.000169535 -1.03245e-09)
(0.222026 -0.000198035 -7.60648e-10)
(0.215788 -0.000217503 -5.93687e-10)
(0.208708 -0.000228655 -4.69298e-10)
(0.200893 -0.000232488 -3.67382e-10)
(0.192444 -0.000230135 -2.79167e-10)
(0.183454 -0.000222746 -2.0164e-10)
(0.174013 -0.000211417 -1.9685e-10)
(0.164204 -0.000197149 -1.89347e-10)
(0.154105 -0.000180828 -1.77593e-10)
(0.143789 -0.000163222 -1.61914e-10)
(0.133324 -0.000144986 -1.42961e-10)
(0.12277 -0.000126671 -1.21467e-10)
(0.112183 -0.000108732 -9.86704e-11)
(0.101614 -9.15395e-05 -1.07977e-10)
(0.0911066 -7.53921e-05 -1.14081e-10)
(0.0807008 -6.05225e-05 -1.04662e-10)
(0.0704307 -4.71076e-05 -9.41235e-11)
(0.0603259 -3.52736e-05 -8.33921e-11)
(0.0504117 -2.51073e-05 -7.28105e-11)
(0.0407093 -1.66843e-05 -6.30175e-11)
(0.0312361 -1.0011e-05 -4.40424e-11)
(0.0220064 -4.68318e-06 -2.66784e-11)
(0.0130311 -8.82924e-08 -1.10759e-11)
(0.00431878 -7.96983e-06 -3.37812e-12)
(0.26402 -3.25081e-05 -5.46055e-10)
(0.260678 -5.01024e-05 -8.66131e-10)
(0.255913 -6.5576e-05 -6.87362e-10)
(0.249909 -7.79356e-05 -5.61096e-10)
(0.242818 -8.73187e-05 -4.688e-10)
(0.234776 -9.38972e-05 -4.00028e-10)
(0.225906 -9.79009e-05 -3.48052e-10)
(0.216324 -9.95875e-05 -3.0842e-10)
(0.206138 -9.92194e-05 -2.78392e-10)
(0.195451 -9.70537e-05 -2.56211e-10)
(0.184358 -9.33402e-05 -2.39109e-10)
(0.172949 -8.83221e-05 -2.25385e-10)
(0.161307 -8.22383e-05 -2.14073e-10)
(0.149507 -7.53236e-05 -2.046e-10)
(0.137619 -6.78091e-05 -1.96654e-10)
(0.125705 -5.99205e-05 -1.90307e-10)
(0.113821 -5.18759e-05 -1.86522e-10)
(0.102016 -4.38826e-05 -1.8604e-10)
(0.0903343 -3.61343e-05 -1.67336e-10)
(0.0788136 -2.88084e-05 -1.40625e-10)
(0.0674861 -2.2062e-05 -1.16363e-10)
(0.0563793 -1.60344e-05 -9.43031e-11)
(0.0455163 -1.08707e-05 -7.41713e-11)
(0.0349158 -6.65315e-06 -5.55245e-11)
(0.0245929 -3.03398e-06 -3.8196e-11)
(0.0145594 5.60613e-07 -2.20807e-11)
(0.004824 -8.45101e-06 -7.08786e-12)
(0.297393 3.47254e-05 -5.52325e-10)
(0.293547 5.05974e-05 -8.84787e-10)
(0.288069 6.37034e-05 -7.16277e-10)
(0.281178 7.22017e-05 -6.23683e-10)
(0.273053 7.62266e-05 -5.70536e-10)
(0.263856 7.62714e-05 -5.42755e-10)
(0.253732 7.30113e-05 -5.32625e-10)
(0.242817 6.72167e-05 -5.35426e-10)
(0.231237 5.96712e-05 -5.47994e-10)
(0.219111 5.11102e-05 -5.64743e-10)
(0.206547 4.21804e-05 -5.40112e-10)
(0.193648 3.34167e-05 -4.76508e-10)
(0.180507 2.52335e-05 -4.24712e-10)
(0.167208 1.79263e-05 -3.8224e-10)
(0.15383 1.168e-05 -3.47494e-10)
(0.140441 6.58279e-06 -3.18733e-10)
(0.127102 2.64172e-06 -2.95164e-10)
(0.113868 -2.0093e-07 -2.76078e-10)
(0.100786 -2.05161e-06 -2.42199e-10)
(0.0878972 -3.05048e-06 -2.03131e-10)
(0.0752359 -3.35723e-06 -1.67794e-10)
(0.0628316 -3.14446e-06 -1.35545e-10)
(0.0507087 -2.61345e-06 -1.06137e-10)
(0.038887 -1.91854e-06 -7.9147e-11)
(0.0273822 -7.87489e-07 -5.42989e-11)
(0.0162062 1.2993e-06 -3.13415e-11)
(0.00536794 -8.59153e-06 -1.00513e-11)
(0.332981 0.000113273 -5.26165e-10)
(0.328555 0.000167478 -8.37428e-10)
(0.322261 0.000213888 -6.66849e-10)
(0.31436 0.000247331 -5.65497e-10)
(0.305067 0.000268069 -5.00857e-10)
(0.294575 0.000277224 -4.57546e-10)
(0.283056 0.000276364 -4.25749e-10)
(0.270668 0.000267308 -4.00389e-10)
(0.25756 0.000251935 -3.78419e-10)
(0.243866 0.000232043 -3.57938e-10)
(0.229712 0.000209259 -3.37663e-10)
(0.215211 0.000184994 -3.17717e-10)
(0.200467 0.000160416 -2.98777e-10)
(0.185576 0.000136455 -2.81149e-10)
(0.170621 0.000113809 -2.64849e-10)
(0.155678 9.2977e-05 -2.49726e-10)
(0.140813 7.4276e-05 -2.36194e-10)
(0.126085 5.78754e-05 -2.25235e-10)
(0.111545 4.38232e-05 -2.03305e-10)
(0.0972349 3.2073e-05 -1.70257e-10)
(0.0831926 2.25086e-05 -1.41192e-10)
(0.0694485 1.49604e-05 -1.14581e-10)
(0.0560279 9.19898e-06 -9.0019e-11)
(0.0429511 5.01558e-06 -6.72916e-11)
(0.0302339 2.6008e-06 -4.62443e-11)
(0.0178884 2.3841e-06 -2.67206e-11)
(0.00592296 -8.25744e-06 -8.57428e-12)
(0.36899 0.000202901 -4.89547e-10)
(0.363943 0.000302376 -8.12885e-10)
(0.356779 0.000388418 -6.12832e-10)
(0.347806 0.000452232 -5.09239e-10)
(0.337281 0.000494139 -4.41653e-10)
(0.325428 0.000515846 -3.91316e-10)
(0.312451 0.000519801 -3.52554e-10)
(0.298535 0.000508882 -3.21681e-10)
(0.283848 0.000486102 -2.96371e-10)
(0.268544 0.00045439 -2.75132e-10)
(0.252763 0.000416453 -2.57004e-10)
(0.236632 0.000374686 -2.41381e-10)
(0.220266 0.000331136 -2.27883e-10)
(0.203767 0.000287496 -2.16276e-10)
(0.187228 0.000245113 -2.06432e-10)
(0.170729 0.000205018 -1.98029e-10)
(0.154341 0.000167961 -1.90808e-10)
(0.138126 0.000134444 -1.83971e-10)
(0.122138 0.000104768 -1.66846e-10)
(0.106421 7.90765e-05 -1.41071e-10)
(0.0910133 5.73633e-05 -1.16876e-10)
(0.0759474 3.95035e-05 -9.4575e-11)
(0.0612486 2.52873e-05 -7.40578e-11)
(0.0469374 1.44837e-05 -5.52386e-11)
(0.0330295 7.20112e-06 -3.79088e-11)
(0.0195365 3.77045e-06 -2.18871e-11)
(0.00646645 -7.46511e-06 -7.02031e-12)
(0.403318 0.000299553 4.95399e-10)
(0.397651 0.000447584 1.63637e-10)
(0.389622 0.000576771 8.8845e-12)
(0.379587 0.000674392 -9.20532e-11)
(0.367844 0.000740658 -1.82726e-11)
(0.354653 0.000777738 -3.78918e-11)
(0.34025 0.000788836 -5.58801e-11)
(0.324844 0.000777799 -6.502e-11)
(0.308626 0.000748719 -6.63457e-11)
(0.291766 0.000705635 -6.23741e-11)
(0.27442 0.00065243 -5.46236e-11)
(0.256727 0.000592507 -4.4135e-11)
(0.238812 0.000528772 -3.20709e-11)
(0.220785 0.000463769 -1.95839e-11)
(0.202743 0.000399589 -3.3599e-11)
(0.184773 0.000337895 -4.57167e-11)
(0.16695 0.000279963 -7.75233e-11)
(0.149337 0.000226728 -8.36333e-11)
(0.131991 0.00017883 -8.36991e-11)
(0.114957 0.000136657 -7.19671e-11)
(0.0982756 0.000100393 -6.46635e-11)
(0.0819777 7.00517e-05 -5.92164e-11)
(0.0660896 4.54923e-05 -4.6733e-11)
(0.0506314 2.64999e-05 -3.51164e-11)
(0.0356186 1.31075e-05 -2.42375e-11)
(0.0210621 5.55274e-06 -1.40497e-11)
(0.00696921 -6.23267e-06 -4.51758e-12)
(0.434233 0.000395235 -2.78582e-10)
(0.427989 0.000592345 -4.70952e-10)
(0.419156 0.000765424 -3.33407e-10)
(0.408135 0.000897954 -2.54159e-10)
(0.395266 0.000989981 -2.03291e-10)
(0.380842 0.00104403 -1.71999e-10)