/*--------------------------------*- C++ -*----------------------------------*\
| =========                 |                                                 |
| \\      /  F ield         | OpenFOAM: The Open Source CFD Toolbox           |
|  \\    /   O peration     | Version:  2106                                  |
|   \\  /    A nd           | Website:  www.openfoam.com                      |
|    \\/     M anipulation  |                                                 |
\*---------------------------------------------------------------------------*/
FoamFile
{
    version     2.0;
    format      ascii;
    arch        "LSB;label=32;scalar=64";
    class       volScalarField;
    location    "200.00032";
    object      AC3H5;
}
// * * * * * * * * * * * * * * * * * * * * * * * * * * * * * * * * * * * * * //

dimensions      [0 0 0 0 0 0 0];

internalField   nonuniform List<scalar> 
3360
(
4.89007e-36
5.19458e-36
5.6233e-36
6.15597e-36
6.77486e-36
7.46345e-36
8.20583e-36
8.98661e-36
9.79088e-36
1.06044e-35
1.1414e-35
1.22074e-35
1.29737e-35
1.37034e-35
1.43887e-35
1.50232e-35
1.56022e-35
1.61222e-35
1.65814e-35
1.69792e-35
1.73163e-35
1.75943e-35
1.78158e-35
1.79842e-35
1.81034e-35
1.8178e-35
1.82128e-35
2.46359e-35
2.63325e-35
2.87574e-35
3.18304e-35
3.54901e-35
3.9685e-35
4.43683e-35
4.94953e-35
5.50204e-35
6.08959e-35
6.70709e-35
7.34898e-35
8.00913e-35
8.68083e-35
9.35685e-35
1.00295e-34
1.06904e-34
1.13311e-34
1.19424e-34
1.25155e-34
1.30411e-34
1.35107e-34
1.39162e-34
1.42502e-34
1.45065e-34
1.46803e-34
1.47682e-34
9.36e-35
1.0126e-34
1.12345e-34
1.26618e-34
1.43926e-34
1.64151e-34
1.87173e-34
2.12849e-34
2.40993e-34
2.71365e-34
3.03664e-34
3.37527e-34
3.72543e-34
4.08253e-34
4.44158e-34
4.79727e-34
5.14414e-34
5.47675e-34
5.78982e-34
6.07844e-34
6.33825e-34
6.56553e-34
6.75735e-34
6.91159e-34
7.02703e-34
7.10331e-34
7.14086e-34
3.35603e-34
3.66977e-34
4.12945e-34
4.72966e-34
5.46831e-34
6.34403e-34
7.35448e-34
8.4951e-34
9.75833e-34
1.1133e-33
1.26044e-33
1.41538e-33
1.57595e-33
1.7397e-33
1.90397e-33
2.06597e-33
2.22293e-33
2.3722e-33
2.51133e-33
2.63821e-33
2.75108e-33
2.84861e-33
2.92991e-33
2.99447e-33
3.04222e-33
3.0734e-33
3.08859e-33
1.2365e-33
1.36352e-33
1.55084e-33
1.79726e-33
2.10287e-33
2.46785e-33
2.89168e-33
3.37263e-33
3.90734e-33
4.49059e-33
5.11534e-33
5.77284e-33
6.4529e-33
7.14429e-33
7.83513e-33
8.5134e-33
9.16742e-33
9.78635e-33
1.03605e-32
1.08816e-32
1.13433e-32
1.17405e-32
1.20704e-32
1.23315e-32
1.2524e-32
1.26494e-32
1.27103e-32
4.67322e-33
5.18258e-33
5.93679e-33
6.93311e-33
8.17354e-33
9.65987e-33
1.13905e-32
1.33583e-32
1.55489e-32
1.794e-32
2.05016e-32
2.31962e-32
2.59807e-32
2.88075e-32
3.1627e-32
3.43897e-32
3.7048e-32
3.9558e-32
4.18814e-32
4.39857e-32
4.58459e-32
4.74437e-32
4.87683e-32
4.98151e-32
5.05858e-32
5.10872e-32
5.13307e-32
1.79627e-32
1.99965e-32
2.30146e-32
2.70118e-32
3.20003e-32
3.799e-32
4.49753e-32
5.2926e-32
6.17823e-32
7.14515e-32
8.18086e-32
9.26999e-32
1.03948e-31
1.15361e-31
1.26737e-31
1.37876e-31
1.48589e-31
1.58699e-31
1.68054e-31
1.76525e-31
1.84013e-31
1.90446e-31
1.9578e-31
1.99998e-31
2.03107e-31
2.05132e-31
2.06116e-31
6.97762e-32
7.78546e-32
8.98653e-32
1.05803e-31
1.25732e-31
1.49708e-31
1.77721e-31
2.09662e-31
2.45298e-31
2.8426e-31
3.26048e-31
3.70046e-31
4.15537e-31
4.61742e-31
5.07849e-31
5.53046e-31
5.96556e-31
6.37666e-31
6.75749e-31
7.10277e-31
7.40839e-31
7.67137e-31
7.88983e-31
8.06297e-31
8.19091e-31
8.27454e-31
8.31537e-31
2.73412e-31
3.05647e-31
3.53649e-31
4.17475e-31
4.97474e-31
5.93957e-31
7.06984e-31
8.36213e-31
9.80799e-31
1.13934e-30
1.30991e-30
1.49005e-30
1.6769e-30
1.86732e-30
2.05798e-30
2.24552e-30
2.4267e-30
2.59851e-30
2.75827e-30
2.9037e-30
3.03295e-30
3.14466e-30
3.23792e-30
3.31224e-30
3.36751e-30
3.4039e-30
3.42183e-30
1.08048e-30
1.21025e-30
1.40409e-30
1.66289e-30
1.98884e-30
2.38418e-30
2.85022e-30
3.38676e-30
3.9915e-30
4.65983e-30
5.3847e-30
6.1567e-30
6.96431e-30
7.79435e-30
8.63249e-30
9.46384e-30
1.02736e-29
1.10476e-29
1.17729e-29
1.24382e-29
1.30341e-29
1.3553e-29
1.39898e-29
1.43408e-29
1.46042e-29
1.47796e-29
1.4867e-29
4.3594e-30
4.90175e-30
5.71762e-30
6.81724e-30
8.21849e-30
9.94134e-30
1.20036e-29
1.44177e-29
1.71873e-29
2.03048e-29
2.375e-29
2.74884e-29
3.1472e-29
3.56398e-29
3.99205e-29
4.42353e-29
4.85015e-29
5.26366e-29
5.65615e-29
6.02041e-29
6.35019e-29
6.64031e-29
6.88676e-29
7.08663e-29
7.23798e-29
7.33961e-29
7.39076e-29
1.86169e-29
2.11354e-29
2.49933e-29
3.03182e-29
3.72988e-29
4.61588e-29
5.71335e-29
7.04438e-29
8.62691e-29
1.04718e-28
1.25803e-28
1.49418e-28
1.75326e-28
2.03161e-28
2.32436e-28
2.62566e-28
2.929e-28
3.22757e-28
3.51461e-28
3.78379e-28
4.02946e-28
4.24688e-28
4.43229e-28
4.58298e-28
4.69712e-28
4.77366e-28
4.81208e-28
9.35621e-29
1.08724e-28
1.3276e-28
1.67376e-28
2.14947e-28
2.78349e-28
3.60757e-28
4.65376e-28
5.95105e-28
7.52163e-28
9.3772e-28
1.15158e-27
1.39199e-27
1.65556e-27
1.93739e-27
2.2313e-27
2.5302e-27
2.82655e-27
3.11282e-27
3.38189e-27
3.62745e-27
3.84427e-27
4.0283e-27
4.17679e-27
4.28815e-27
4.36188e-27
4.39829e-27
6.5568e-28
7.89677e-28
1.00966e-27
1.33934e-27
1.81104e-27
2.46389e-27
3.34139e-27
4.48784e-27
5.94369e-27
7.7404e-27
9.89535e-27
1.24076e-26
1.52554e-26
1.83952e-26
2.1764e-26
2.5282e-26
2.88587e-26
3.23983e-26
3.58058e-26
3.89933e-26
4.1884e-26
4.4416e-26
4.6544e-26
4.82402e-26
4.94935e-26
5.03083e-26
5.07017e-26
6.69501e-27
8.2848e-27
1.09396e-26
1.49902e-26
2.08811e-26
2.91452e-26
4.03684e-26
5.51377e-26
7.39764e-26
9.72735e-26
1.25217e-25
1.57742e-25
1.94501e-25
2.34868e-25
2.77964e-25
3.22716e-25
3.67926e-25
4.12355e-25
4.54804e-25
4.94181e-25
5.29565e-25
5.60239e-25
5.85716e-25
6.05747e-25
6.20308e-25
6.29587e-25
6.33959e-25
8.43335e-26
1.05454e-25
1.40845e-25
1.94988e-25
2.73818e-25
3.84339e-25
5.34078e-25
7.30354e-25
9.79394e-25
1.28542e-24
1.64984e-24
2.07068e-24
2.54234e-24
3.05579e-24
3.59904e-24
4.15798e-24
4.71738e-24
5.26188e-24
5.777e-24
6.24998e-24
6.67041e-24
7.03065e-24
7.32601e-24
7.55482e-24
7.71828e-24
7.82025e-24
7.86703e-24
1.12494e-24
1.40834e-24
1.88181e-24
2.60293e-24
3.64657e-24
5.09896e-24
7.04977e-24
9.58225e-24
1.27621e-23
1.66266e-23
2.11763e-23
2.63696e-23
3.21226e-23
3.83128e-23
4.47875e-23
5.13743e-23
5.78934e-23
6.41696e-23
7.00426e-23
7.53763e-23
8.00643e-23
8.40338e-23
8.72469e-23
8.97005e-23
9.14239e-23
9.24771e-23
9.29477e-23
1.48244e-23
1.84959e-23
2.45892e-23
3.37885e-23
4.69633e-23
6.50816e-23
8.91053e-23
1.1987e-22
1.57961e-22
2.03602e-22
2.56587e-22
3.16246e-22
3.81468e-22
4.50773e-22
5.22414e-22
5.94498e-22
6.65116e-22
7.32463e-22
7.94935e-22
8.51209e-22
9.00289e-22
9.41536e-22
9.74675e-22
9.99782e-22
1.01727e-21
1.02785e-21
1.03251e-21
1.88177e-22
2.33178e-22
3.07122e-22
4.17364e-22
5.72998e-22
7.83743e-22
1.05877e-21
1.40547e-21
1.82834e-21
2.32818e-21
2.90162e-21
3.54116e-21
4.23558e-21
4.97063e-21
5.72993e-21
6.49591e-21
7.25073e-21
7.97711e-21
8.65908e-21
9.28262e-21
9.83614e-21
1.03109e-20
1.07013e-20
1.10051e-20
1.12233e-20
1.13604e-20
1.14237e-20
2.28854e-21
2.80707e-21
3.64861e-21
4.88506e-21
6.6044e-21
8.9006e-21
1.18654e-20
1.55822e-20
2.01234e-20
2.55497e-20
3.19118e-20
3.92504e-20
4.75932e-20
5.69478e-20
6.72888e-20
7.85438e-20
9.05786e-20
1.03188e-19
1.16093e-19
1.2895e-19
1.41367e-19
1.5293e-19
1.63231e-19
1.719e-19
1.78631e-19
1.83205e-19
1.85501e-19
2.69776e-20
3.2722e-20
4.19817e-20
5.55467e-20
7.45279e-20
1.00428e-19
1.35327e-19
1.82179e-19
2.45173e-19
3.30083e-19
4.44458e-19
5.975e-19
7.99523e-19
1.06092e-18
1.39072e-18
1.79489e-18
2.27468e-18
2.82526e-18
3.43491e-18
4.08512e-18
4.75132e-18
5.40452e-18
6.01345e-18
6.54698e-18
6.97649e-18
7.27806e-18
7.43404e-18
3.18201e-19
3.86134e-19
4.99722e-19
6.77512e-19
9.53412e-19
1.3871e-18
2.08005e-18
3.19674e-18
4.98858e-18
7.81568e-18
1.21593e-17
1.86168e-17
2.7873e-17
4.06427e-17
5.75885e-17
7.92197e-17
1.05786e-16
1.37181e-16
1.72875e-16
2.11882e-16
2.52781e-16
2.93786e-16
3.32851e-16
3.67817e-16
3.96566e-16
4.17175e-16
4.28054e-16
4.01419e-18
5.12424e-18
7.23123e-18
1.11124e-17
1.82879e-17
3.15517e-17
5.57421e-17
9.87325e-17
1.72541e-16
2.9436e-16
4.87219e-16
7.79935e-16
1.20604e-15
1.80149e-15
2.60114e-15
3.6342e-15
4.91913e-15
6.45857e-15
8.23507e-15
1.02082e-14
1.23135e-14
1.44641e-14
1.65543e-14
1.84655e-14
2.00729e-14
2.12531e-14
2.18921e-14
6.2692e-17
9.1566e-17
1.52741e-16
2.77277e-16
5.24982e-16
1.0038e-15
1.89701e-15
3.4974e-15
6.24492e-15
1.07615e-14
1.78739e-14
2.86142e-14
4.4186e-14
6.5889e-14
9.49986e-14
1.32614e-13
1.79481e-13
2.35814e-13
3.01133e-13
3.74145e-13
4.52687e-13
5.33735e-13
6.13479e-13
6.87457e-13
7.50736e-13
7.9812e-13
8.24359e-13
1.433e-15
2.34282e-15
4.30093e-15
8.29759e-15
1.6167e-14
3.10945e-14
5.82929e-14
1.05799e-13
1.85274e-13
3.12591e-13
5.0801e-13
7.95696e-13
1.20233e-12
1.75478e-12
2.47695e-12
3.38618e-12
4.48957e-12
5.78085e-12
7.23824e-12
8.82365e-12
1.04835e-11
1.21507e-11
1.37484e-11
1.51933e-11
1.63997e-11
1.72831e-11
1.77624e-11
4.24858e-14
6.89627e-14
1.23898e-13
2.31251e-13
4.32878e-13
7.96838e-13
1.42699e-12
2.47128e-12
4.12536e-12
6.62703e-12
1.02376e-11
1.5208e-11
2.17308e-11
2.98894e-11
3.96159e-11
5.06781e-11
6.27026e-11
7.52286e-11
8.77731e-11
9.98865e-11
1.11185e-10
1.21358e-10
1.30165e-10
1.37422e-10
1.4299e-10
1.46766e-10
1.48677e-10
1.2275e-12
1.85122e-12
3.0663e-12
5.27385e-12
9.10707e-12
1.54753e-11
2.55588e-11
4.07052e-11
6.21914e-11
9.08774e-11
1.2688e-10
1.69456e-10
2.17203e-10
2.68466e-10
3.21686e-10
3.75536e-10
4.28886e-10
4.80725e-10
5.30114e-10
5.76182e-10
6.18147e-10
6.5532e-10
6.87126e-10
7.13099e-10
7.32881e-10
7.4621e-10
7.52918e-10
2.71289e-11
3.71856e-11
5.50916e-11
8.41605e-11
1.28402e-10
1.9166e-10
2.76535e-10
3.83662e-10
5.11911e-10
6.59282e-10
8.23603e-10
1.00256e-09
1.19343e-09
1.39298e-09
1.59754e-09
1.80324e-09
2.00623e-09
2.20275e-09
2.38927e-09
2.56258e-09
2.71985e-09
2.85865e-09
2.97698e-09
3.07325e-09
3.1463e-09
3.19533e-09
3.21991e-09
3.26453e-10
3.99976e-10
5.16126e-10
6.80399e-10
8.9856e-10
1.17602e-09
1.5176e-09
1.92687e-09
2.40537e-09
2.95199e-09
3.56301e-09
4.23231e-09
4.95133e-09
5.7095e-09
6.4946e-09
7.29325e-09
8.09137e-09
8.87462e-09
9.6288e-09
1.03402e-08
1.09957e-08
1.15834e-08
1.20925e-08
1.25132e-08
1.28374e-08
1.30584e-08
1.31708e-08
1.59647e-09
1.84548e-09
2.2302e-09
2.76505e-09
3.46881e-09
4.36158e-09
5.46312e-09
6.79024e-09
8.35509e-09
1.01639e-08
1.22157e-08
1.45021e-08
1.70065e-08
1.97042e-08
2.25626e-08
2.55417e-08
2.85948e-08
3.16692e-08
3.47073e-08
3.7648e-08
4.04277e-08
4.29821e-08
4.52477e-08
4.71632e-08
4.86713e-08
4.97199e-08
5.02633e-08
4.75066e-09
5.40468e-09
6.41179e-09
7.80896e-09
9.64806e-09
1.1989e-08
1.48944e-08
1.8425e-08
2.26349e-08
2.75675e-08
3.32503e-08
3.96916e-08
4.68757e-08
5.47601e-08
6.32729e-08
7.23115e-08
8.17423e-08
9.14027e-08
1.01103e-07
1.10634e-07
1.19766e-07
1.28265e-07
1.35892e-07
1.42412e-07
1.47597e-07
1.51235e-07
1.53134e-07
1.0765e-08
1.21622e-08
1.43102e-08
1.72871e-08
2.12064e-08
2.6203e-08
3.24231e-08
4.00137e-08
4.91118e-08
5.98325e-08
7.22567e-08
8.64192e-08
1.02298e-07
1.19805e-07
1.3878e-07
1.58989e-07
1.80128e-07
2.01824e-07
2.23651e-07
2.45104e-07
2.65647e-07
2.84735e-07
3.01822e-07
3.16383e-07
3.27916e-07
3.35972e-07
3.40164e-07
2.10681e-08
2.3678e-08
2.76747e-08
3.3187e-08
4.04051e-08
4.95527e-08
6.08668e-08
7.45762e-08
9.08804e-08
1.09929e-07
1.318e-07
1.56488e-07
1.83883e-07
2.13775e-07
2.45838e-07
2.79586e-07
3.14439e-07
3.49732e-07
3.84739e-07
4.18694e-07
4.50812e-07
4.80315e-07
5.0645e-07
5.28489e-07
5.45783e-07
5.57767e-07
5.63955e-07
4.00943e-08
4.46027e-08
5.1432e-08
6.07195e-08
7.26808e-08
8.75613e-08
1.05601e-07
1.27005e-07
1.51915e-07
1.80389e-07
2.12403e-07
2.47738e-07
2.86045e-07
3.26852e-07
3.69572e-07
4.13511e-07
4.57916e-07
5.01981e-07
5.44874e-07
5.85759e-07
6.23819e-07
6.58273e-07
6.88364e-07
7.13427e-07
7.32875e-07
7.46216e-07
7.53043e-07
7.67909e-08
8.38882e-08
9.44594e-08
1.08532e-07
1.26219e-07
1.47654e-07
1.72953e-07
2.021e-07
2.34985e-07
2.71392e-07
3.10988e-07
3.53334e-07
3.97887e-07
4.44024e-07
4.91058e-07
5.38261e-07
5.84887e-07
6.30186e-07
6.7343e-07
7.13919e-07
7.51e-07
7.84076e-07
8.12574e-07
8.36021e-07
8.54016e-07
8.66232e-07
8.72428e-07
1.40135e-07
1.50017e-07
1.64463e-07
1.83234e-07
2.06164e-07
2.33087e-07
2.63788e-07
2.97982e-07
3.35303e-07
3.75308e-07
4.17487e-07
4.61274e-07
5.06064e-07
5.51236e-07
5.96161e-07
6.40225e-07
6.82835e-07
7.23432e-07
7.61498e-07
7.96563e-07
8.28203e-07
8.56048e-07
8.79781e-07
8.99096e-07
9.13778e-07
9.23662e-07
9.28636e-07
2.31865e-07
2.43635e-07
2.60548e-07
2.82048e-07
3.07659e-07
3.36917e-07
3.69343e-07
4.04431e-07
4.41648e-07
4.80444e-07
5.20263e-07
5.60551e-07
6.00774e-07
6.40424e-07
6.79028e-07
7.16151e-07
7.51402e-07
7.84429e-07
8.14928e-07
8.42632e-07
8.67315e-07
8.88789e-07
9.06903e-07
9.21538e-07
9.3257e-07
9.39943e-07
9.43629e-07
3.41841e-07
3.54018e-07
3.71277e-07
3.92833e-07
4.17992e-07
4.46105e-07
4.76549e-07
5.08727e-07
5.42069e-07
5.76039e-07
6.10139e-07
6.43917e-07
6.7697e-07
7.08942e-07
7.39524e-07
7.68455e-07
7.95511e-07
8.20511e-07
8.43302e-07
8.63766e-07
8.81806e-07
8.9735e-07
9.10348e-07
9.20766e-07
9.28588e-07
9.33783e-07
9.36367e-07
4.55184e-07
4.66371e-07
4.82053e-07
5.01369e-07
5.23552e-07
5.47905e-07
5.73794e-07
6.00641e-07
6.27936e-07
6.55227e-07
6.82127e-07
7.08309e-07
7.33502e-07
7.57484e-07
7.80083e-07
8.01162e-07
8.2062e-07
8.38381e-07
8.54392e-07
8.68619e-07
8.81041e-07
8.91649e-07
9.00444e-07
9.07435e-07
9.12638e-07
9.16075e-07
9.17777e-07
5.58795e-07
5.6808e-07
5.80983e-07
5.96694e-07
6.14501e-07
6.33766e-07
6.53931e-07
6.7451e-07
6.95095e-07
7.15346e-07
7.34991e-07
7.53814e-07
7.71653e-07
7.88391e-07
8.03945e-07
8.18264e-07
8.31319e-07
8.43098e-07
8.53603e-07
8.62846e-07
8.70842e-07
8.77614e-07
8.83187e-07
8.87587e-07
8.90842e-07
8.92982e-07
8.94035e-07
6.44654e-07
6.5167e-07
6.61342e-07
6.73002e-07
6.86058e-07
6.99996e-07
7.14374e-07
7.28825e-07
7.43053e-07
7.56825e-07
7.69966e-07
7.82353e-07
7.93902e-07
8.04563e-07
8.14315e-07
8.23155e-07
8.31095e-07
8.38157e-07
8.4437e-07
8.49765e-07
8.54377e-07
8.5824e-07
8.61385e-07
8.63845e-07
8.65649e-07
8.66826e-07
8.67401e-07
7.09833e-07
7.14614e-07
7.21152e-07
7.28946e-07
7.37559e-07
7.46613e-07
7.55795e-07
7.64853e-07
7.73595e-07
7.81878e-07
7.89605e-07
7.96719e-07
8.03191e-07
8.09015e-07
8.14205e-07
8.18785e-07
8.22788e-07
8.26253e-07
8.29219e-07
8.31727e-07
8.33814e-07
8.35518e-07
8.36871e-07
8.37905e-07
8.38647e-07
8.39121e-07
8.39349e-07
7.54989e-07
7.57799e-07
7.61594e-07
7.66044e-07
7.70857e-07
7.75791e-07
7.80647e-07
7.85276e-07
7.89571e-07
7.9346e-07
7.96906e-07
7.99898e-07
8.02441e-07
8.0456e-07
8.06285e-07
8.07658e-07
8.08719e-07
8.09514e-07
8.10085e-07
8.10473e-07
8.10716e-07
8.1085e-07
8.10906e-07
8.10911e-07
8.10888e-07
8.10858e-07
8.10836e-07
7.82708e-07
7.839e-07
7.85457e-07
7.87195e-07
7.88954e-07
7.90606e-07
7.92049e-07
7.93216e-07
7.94067e-07
7.94586e-07
7.94778e-07
7.94661e-07
7.94266e-07
7.93634e-07
7.92806e-07
7.91828e-07
7.90748e-07
7.89608e-07
7.88452e-07
7.87318e-07
7.86244e-07
7.85259e-07
7.84393e-07
7.83668e-07
7.83104e-07
7.82718e-07
7.8252e-07
7.96279e-07
7.96209e-07
7.96027e-07
7.95671e-07
7.95088e-07
7.94237e-07
7.93097e-07
7.91663e-07
7.89945e-07
7.87968e-07
7.85766e-07
7.83378e-07
7.80852e-07
7.78234e-07
7.75575e-07
7.72921e-07
7.7032e-07
7.67813e-07
7.65442e-07
7.63242e-07
7.61245e-07
7.59481e-07
7.57974e-07
7.56743e-07
7.55805e-07
7.55173e-07
7.54854e-07
7.98953e-07
7.97939e-07
7.96462e-07
7.94552e-07
7.92238e-07
7.8955e-07
7.86523e-07
7.83201e-07
7.79632e-07
7.75865e-07
7.71957e-07
7.67962e-07
7.63934e-07
7.59927e-07
7.55992e-07
7.52177e-07
7.48526e-07
7.4508e-07
7.41877e-07
7.3895e-07
7.36328e-07
7.34035e-07
7.32095e-07
7.30522e-07
7.29332e-07
7.28534e-07
7.28134e-07
7.9359e-07
7.91897e-07
7.8949e-07
7.86469e-07
7.82922e-07
7.78932e-07
7.74577e-07
7.69932e-07
7.65072e-07
7.60067e-07
7.54985e-07
7.4989e-07
7.44842e-07
7.39895e-07
7.35103e-07
7.30511e-07
7.26162e-07
7.22095e-07
7.18344e-07
7.14939e-07
7.11907e-07
7.0927e-07
7.07048e-07
7.05254e-07
7.03901e-07
7.02996e-07
7.02543e-07
7.82538e-07
7.80375e-07
7.77326e-07
7.73541e-07
7.69151e-07
7.64275e-07
7.59021e-07
7.53487e-07
7.47765e-07
7.41939e-07
7.36084e-07
7.3027e-07
7.24559e-07
7.19008e-07
7.13667e-07
7.08582e-07
7.03792e-07
6.99336e-07
6.95243e-07
6.91542e-07
6.88257e-07
6.85409e-07
6.83014e-07
6.81085e-07
6.79633e-07
6.78663e-07
6.78178e-07
7.67636e-07
7.65163e-07
7.61692e-07
7.57408e-07
7.52471e-07
7.47023e-07
7.41192e-07
7.35094e-07
7.2883e-07
7.22491e-07
7.1616e-07
7.09907e-07
7.03796e-07
6.97884e-07
6.92219e-07
6.86845e-07
6.81802e-07
6.77122e-07
6.72836e-07
6.68969e-07
6.65544e-07
6.62579e-07
6.6009e-07
6.58088e-07
6.56582e-07
6.55577e-07
6.55076e-07
7.50276e-07
7.47613e-07
7.43885e-07
7.39298e-07
7.34032e-07
7.28244e-07
7.22075e-07
7.1565e-07
7.09077e-07
7.02453e-07
6.95859e-07
6.8937e-07
6.83048e-07
6.7695e-07
6.71122e-07
6.65607e-07
6.60442e-07
6.55658e-07
6.51285e-07
6.47344e-07
6.43858e-07
6.40844e-07
6.38316e-07
6.36284e-07
6.34756e-07
6.33738e-07
6.33229e-07
7.31487e-07
7.28721e-07
7.24855e-07
7.20108e-07
7.14672e-07
7.08712e-07
7.02378e-07
6.95797e-07
6.89083e-07
6.82333e-07
6.75631e-07
6.6905e-07
6.62652e-07
6.56491e-07
6.50614e-07
6.45061e-07
6.39867e-07
6.35063e-07
6.30675e-07
6.26726e-07
6.23235e-07
6.20218e-07
6.17688e-07
6.15657e-07
6.1413e-07
6.13113e-07
6.12605e-07
7.12006e-07
7.092e-07
7.05282e-07
7.00479e-07
6.94985e-07
6.88974e-07
6.82595e-07
6.75981e-07
6.69244e-07
6.62481e-07
6.55778e-07
6.49205e-07
6.42824e-07
6.36687e-07
6.3084e-07
6.2532e-07
6.20162e-07
6.15395e-07
6.11043e-07
6.07129e-07
6.0367e-07
6.00683e-07
5.98179e-07
5.96169e-07
5.94658e-07
5.93651e-07
5.93149e-07
6.92355e-07
6.89553e-07
6.85643e-07
6.80854e-07
6.75383e-07
6.69403e-07
6.63065e-07
6.565e-07
6.49821e-07
6.43125e-07
6.36494e-07
6.29999e-07
6.23698e-07
6.17644e-07
6.11879e-07
6.06441e-07
6.01362e-07
5.9667e-07
5.92389e-07
5.88539e-07
5.85139e-07
5.82202e-07
5.79741e-07
5.77766e-07
5.76281e-07
5.75292e-07
5.74798e-07
6.72889e-07
6.70121e-07
6.66261e-07
6.61535e-07
6.5614e-07
6.50248e-07
6.44008e-07
6.37549e-07
6.30984e-07
6.24406e-07
6.17896e-07
6.11524e-07
6.05346e-07
5.99412e-07
5.93765e-07
5.8844e-07
5.83469e-07
5.78877e-07
5.74688e-07
5.70922e-07
5.67596e-07
5.64724e-07
5.62317e-07
5.60385e-07
5.58933e-07
5.57966e-07
5.57483e-07
6.53843e-07
6.51129e-07
6.47346e-07
6.42716e-07
6.37433e-07
6.31665e-07
6.2556e-07
6.19245e-07
6.12828e-07
6.06402e-07
6.00045e-07
5.93824e-07
5.87796e-07
5.82008e-07
5.765e-07
5.71307e-07
5.6646e-07
5.61984e-07
5.57901e-07
5.54231e-07
5.50989e-07
5.48189e-07
5.45843e-07
5.4396e-07
5.42545e-07
5.41602e-07
5.41131e-07
6.35365e-07
6.32718e-07
6.29029e-07
6.24515e-07
6.19366e-07
6.13747e-07
6.078e-07
6.0165e-07
5.95403e-07
5.89149e-07
5.82964e-07
5.76912e-07
5.71048e-07
5.65419e-07
5.60063e-07
5.55014e-07
5.50301e-07
5.45949e-07
5.41979e-07
5.3841e-07
5.35258e-07
5.32536e-07
5.30254e-07
5.28422e-07
5.27046e-07
5.26128e-07
5.2567e-07
6.17541e-07
6.14968e-07
6.11383e-07
6.06997e-07
6.01995e-07
5.96536e-07
5.9076e-07
5.84789e-07
5.78723e-07
5.72652e-07
5.66647e-07
5.60773e-07
5.55082e-07
5.49619e-07
5.4442e-07
5.3952e-07
5.34946e-07
5.30721e-07
5.26868e-07
5.23403e-07
5.20342e-07
5.17699e-07
5.15484e-07
5.13704e-07
5.12367e-07
5.11476e-07
5.11031e-07
6.0041e-07
5.97916e-07
5.94439e-07
5.90187e-07
5.85337e-07
5.80045e-07
5.74447e-07
5.68658e-07
5.62779e-07
5.56894e-07
5.51074e-07
5.45381e-07
5.39864e-07
5.34568e-07
5.29529e-07
5.24778e-07
5.20343e-07
5.16246e-07
5.12509e-07
5.09148e-07
5.06179e-07
5.03615e-07
5.01465e-07
4.99739e-07
4.98441e-07
4.97575e-07
4.97143e-07
5.83983e-07
5.81567e-07
5.78201e-07
5.74084e-07
5.69387e-07
5.64263e-07
5.58843e-07
5.53237e-07
5.47544e-07
5.41845e-07
5.36209e-07
5.30695e-07
5.25351e-07
5.20221e-07
5.15339e-07
5.10736e-07
5.06437e-07
5.02467e-07
4.98844e-07
4.95586e-07
4.92707e-07
4.9022e-07
4.88135e-07
4.8646e-07
4.85201e-07
4.84361e-07
4.83942e-07
5.68245e-07
5.65908e-07
5.62651e-07
5.58667e-07
5.54123e-07
5.49164e-07
5.43918e-07
5.38493e-07
5.32983e-07
5.27466e-07
5.2201e-07
5.1667e-07
5.11496e-07
5.06527e-07
5.01798e-07
4.97338e-07
4.93174e-07
4.89326e-07
4.85815e-07
4.82656e-07
4.79865e-07
4.77453e-07
4.75431e-07
4.73806e-07
4.72584e-07
4.71769e-07
4.71362e-07
5.5317e-07
5.50909e-07
5.47759e-07
5.43905e-07
5.39508e-07
5.34711e-07
5.29634e-07
5.24384e-07
5.1905e-07
5.1371e-07
5.08427e-07
5.03257e-07
4.98246e-07
4.93433e-07
4.88851e-07
4.8453e-07
4.80494e-07
4.76764e-07
4.7336e-07
4.70297e-07
4.6759e-07
4.65251e-07
4.63289e-07
4.61712e-07
4.60527e-07
4.59736e-07
4.59341e-07
5.38719e-07
5.36532e-07
5.33484e-07
5.29755e-07
5.255e-07
5.20857e-07
5.15943e-07
5.10861e-07
5.05697e-07
5.00526e-07
4.95409e-07
4.90401e-07
4.85546e-07
4.80882e-07
4.76442e-07
4.72253e-07
4.6834e-07
4.64723e-07
4.61421e-07
4.5845e-07
4.55824e-07
4.53554e-07
4.5165e-07
4.50119e-07
4.48968e-07
4.482e-07
4.47817e-07
5.24846e-07
5.22729e-07
5.19779e-07
5.16168e-07
5.12049e-07
5.07553e-07
5.02795e-07
4.97872e-07
4.92869e-07
4.87859e-07
4.829e-07
4.78046e-07
4.73339e-07
4.68817e-07
4.64511e-07
4.60448e-07
4.56652e-07
4.53142e-07
4.49938e-07
4.47054e-07
4.44505e-07
4.42301e-07
4.40451e-07
4.38965e-07
4.37847e-07
4.37101e-07
4.36728e-07
5.11499e-07
5.09448e-07
5.0659e-07
5.03092e-07
4.99101e-07
4.94745e-07
4.90132e-07
4.8536e-07
4.8051e-07
4.75651e-07
4.70842e-07
4.66133e-07
4.61567e-07
4.57178e-07
4.52999e-07
4.49055e-07
4.45369e-07
4.41961e-07
4.38849e-07
4.36048e-07
4.3357e-07
4.31429e-07
4.29632e-07
4.28187e-07
4.271e-07
4.26374e-07
4.26012e-07
4.98621e-07
4.96632e-07
4.9386e-07
4.90469e-07
4.86598e-07
4.82371e-07
4.77896e-07
4.73266e-07
4.68558e-07
4.63842e-07
4.59173e-07
4.54601e-07
4.50165e-07
4.45903e-07
4.41842e-07
4.38009e-07
4.34427e-07
4.31115e-07
4.28089e-07
4.25366e-07
4.22957e-07
4.20874e-07
4.19126e-07
4.1772e-07
4.16663e-07
4.15957e-07
4.15604e-07
4.86149e-07
4.84218e-07
4.81527e-07
4.78234e-07
4.74475e-07
4.7037e-07
4.66023e-07
4.61524e-07
4.5695e-07
4.52366e-07
4.47827e-07
4.43382e-07
4.39069e-07
4.34924e-07
4.30974e-07
4.27246e-07
4.2376e-07
4.20537e-07
4.17592e-07
4.14941e-07
4.12596e-07
4.10568e-07
4.08866e-07
4.07497e-07
4.06467e-07
4.0578e-07
4.05436e-07
4.74017e-07
4.7214e-07
4.69523e-07
4.66321e-07
4.62664e-07
4.58672e-07
4.54443e-07
4.50065e-07
4.45614e-07
4.41152e-07
4.36735e-07
4.32407e-07
4.28207e-07
4.2417e-07
4.20323e-07
4.16691e-07
4.13295e-07
4.10155e-07
4.07285e-07
4.04702e-07
4.02416e-07
4.00439e-07
3.9878e-07
3.97445e-07
3.96441e-07
3.95771e-07
3.95435e-07
4.62152e-07
4.60324e-07
4.57776e-07
4.54655e-07
4.51093e-07
4.47203e-07
4.43082e-07
4.38815e-07
4.34476e-07
4.30126e-07
4.25819e-07
4.21598e-07
4.17503e-07
4.13564e-07
4.09812e-07
4.06268e-07
4.02955e-07
3.9989e-07
3.9709e-07
3.94568e-07
3.92337e-07
3.90408e-07
3.88788e-07
3.87485e-07
3.86505e-07
3.8585e-07
3.85523e-07
4.50476e-07
4.48692e-07
4.46204e-07
4.43158e-07
4.39681e-07
4.35882e-07
4.31858e-07
4.27691e-07
4.23453e-07
4.19204e-07
4.14996e-07
4.10872e-07
4.0687e-07
4.03022e-07
3.99354e-07
3.95891e-07
3.92653e-07
3.89657e-07
3.8692e-07
3.84455e-07
3.82274e-07
3.80387e-07
3.78803e-07
3.7753e-07
3.76571e-07
3.75931e-07
3.75611e-07
4.389e-07
4.37154e-07
4.3472e-07
4.3174e-07
4.28337e-07
4.2462e-07
4.20681e-07
4.16603e-07
4.12454e-07
4.08294e-07
4.04174e-07
4.00136e-07
3.96217e-07
3.92449e-07
3.88857e-07
3.85465e-07
3.82294e-07
3.7936e-07
3.76679e-07
3.74265e-07
3.72129e-07
3.70281e-07
3.6873e-07
3.67482e-07
3.66543e-07
3.65917e-07
3.65603e-07
4.27327e-07
4.25615e-07
4.23227e-07
4.20303e-07
4.16964e-07
4.13316e-07
4.09451e-07
4.05449e-07
4.01377e-07
3.97294e-07
3.9325e-07
3.89286e-07
3.85439e-07
3.8174e-07
3.78214e-07
3.74885e-07
3.71772e-07
3.68892e-07
3.66261e-07
3.63891e-07
3.61795e-07
3.59982e-07
3.58459e-07
3.57235e-07
3.56314e-07
3.55699e-07
3.55391e-07
4.1565e-07
4.13965e-07
4.11615e-07
4.08738e-07
4.05452e-07
4.01861e-07
3.98057e-07
3.94116e-07
3.90108e-07
3.86089e-07
3.82108e-07
3.78207e-07
3.7442e-07
3.70779e-07
3.67309e-07
3.64032e-07
3.60969e-07
3.58135e-07
3.55546e-07
3.53215e-07
3.51153e-07
3.49369e-07
3.47872e-07
3.46668e-07
3.45762e-07
3.45157e-07
3.44855e-07
4.03749e-07
4.02085e-07
3.99764e-07
3.96922e-07
3.93677e-07
3.9013e-07
3.86372e-07
3.82481e-07
3.78522e-07
3.74553e-07
3.70621e-07
3.66769e-07
3.6303e-07
3.59435e-07
3.5601e-07
3.52776e-07
3.49753e-07
3.46957e-07
3.44402e-07
3.42103e-07
3.40069e-07
3.3831e-07
3.36834e-07
3.35647e-07
3.34754e-07
3.34158e-07
3.3386e-07
3.9149e-07
3.8984e-07
3.87539e-07
3.84721e-07
3.81502e-07
3.77986e-07
3.7426e-07
3.70402e-07
3.66478e-07
3.62544e-07
3.58647e-07
3.5483e-07
3.51126e-07
3.47565e-07
3.44172e-07
3.4097e-07
3.37977e-07
3.3521e-07
3.32683e-07
3.30408e-07
3.28397e-07
3.26658e-07
3.25199e-07
3.24026e-07
3.23143e-07
3.22554e-07
3.2226e-07
3.78724e-07
3.77081e-07
3.74789e-07
3.71983e-07
3.68778e-07
3.65277e-07
3.61568e-07
3.57728e-07
3.53822e-07
3.49907e-07
3.4603e-07
3.42233e-07
3.3855e-07
3.3501e-07
3.31639e-07
3.28458e-07
3.25485e-07
3.22738e-07
3.20229e-07
3.17972e-07
3.15977e-07
3.14252e-07
3.12806e-07
3.11644e-07
3.10769e-07
3.10186e-07
3.09895e-07
3.6529e-07
3.63646e-07
3.61353e-07
3.58546e-07
3.55341e-07
3.51839e-07
3.4813e-07
3.44291e-07
3.40387e-07
3.36475e-07
3.32603e-07
3.28812e-07
3.25135e-07
3.21603e-07
3.18241e-07
3.15069e-07
3.12107e-07
3.09371e-07
3.06873e-07
3.04626e-07
3.02641e-07
3.00926e-07
2.99488e-07
2.98333e-07
2.97465e-07
2.96885e-07
2.96596e-07
3.51014e-07
3.49362e-07
3.47057e-07
3.44235e-07
3.41014e-07
3.37497e-07
3.33772e-07
3.29917e-07
3.25998e-07
3.22074e-07
3.18191e-07
3.1439e-07
3.10706e-07
3.0717e-07
3.03804e-07
3.00632e-07
2.9767e-07
2.94935e-07
2.92441e-07
2.90199e-07
2.88218e-07
2.86508e-07
2.85075e-07
2.83924e-07
2.83059e-07
2.82482e-07
2.82195e-07
3.35715e-07
3.34046e-07
3.31718e-07
3.2887e-07
3.25619e-07
3.22069e-07
3.18312e-07
3.14425e-07
3.10477e-07
3.06524e-07
3.02615e-07
2.98792e-07
2.95089e-07
2.91535e-07
2.88157e-07
2.84974e-07
2.82004e-07
2.79264e-07
2.76767e-07
2.74523e-07
2.72542e-07
2.70833e-07
2.69402e-07
2.68253e-07
2.6739e-07
2.66815e-07
2.66528e-07
3.19212e-07
3.17518e-07
3.15158e-07
3.1227e-07
3.08975e-07
3.0538e-07
3.01576e-07
2.97644e-07
2.93652e-07
2.89658e-07
2.85711e-07
2.81854e-07
2.78121e-07
2.74542e-07
2.71142e-07
2.67941e-07
2.64958e-07
2.62207e-07
2.59702e-07
2.57453e-07
2.5547e-07
2.53759e-07
2.52328e-07
2.51179e-07
2.50317e-07
2.49743e-07
2.49457e-07
3.01334e-07
2.9961e-07
2.97209e-07
2.94272e-07
2.90923e-07
2.87271e-07
2.8341e-07
2.79421e-07
2.75375e-07
2.71331e-07
2.67339e-07
2.63441e-07
2.59672e-07
2.56063e-07
2.52637e-07
2.49416e-07
2.46416e-07
2.43654e-07
2.4114e-07
2.38885e-07
2.36899e-07
2.35187e-07
2.33756e-07
2.32608e-07
2.31748e-07
2.31175e-07
2.3089e-07
2.81941e-07
2.80183e-07
2.77736e-07
2.74744e-07
2.71335e-07
2.6762e-07
2.63696e-07
2.59647e-07
2.55544e-07
2.51448e-07
2.47409e-07
2.4347e-07
2.39667e-07
2.36028e-07
2.3258e-07
2.29341e-07
2.26329e-07
2.23558e-07
2.2104e-07
2.18784e-07
2.16798e-07
2.15088e-07
2.1366e-07
2.12517e-07
2.11659e-07
2.11089e-07
2.10806e-07
2.60945e-07
2.59153e-07
2.56659e-07
2.53612e-07
2.50144e-07
2.46369e-07
2.42386e-07
2.38281e-07
2.34128e-07
2.29987e-07
2.2591e-07
2.2194e-07
2.18113e-07
2.14458e-07
2.10998e-07
2.07754e-07
2.04741e-07
2.01973e-07
1.99461e-07
1.97214e-07
1.95238e-07
1.93539e-07
1.92121e-07
1.90987e-07
1.90138e-07
1.89574e-07
1.89293e-07
2.38341e-07
2.36519e-07
2.33985e-07
2.30893e-07
2.27377e-07
2.23555e-07
2.1953e-07
2.15388e-07
2.11203e-07
2.07039e-07
2.02947e-07
1.9897e-07
1.95142e-07
1.91494e-07
1.88047e-07
1.8482e-07
1.81829e-07
1.79086e-07
1.76601e-07
1.7438e-07
1.72431e-07
1.70757e-07
1.69362e-07
1.68247e-07
1.67414e-07
1.66861e-07
1.66585e-07
2.14241e-07
2.12401e-07
2.09843e-07
2.06727e-07
2.03189e-07
1.9935e-07
1.95313e-07
1.91168e-07
1.8699e-07
1.82841e-07
1.78773e-07
1.74828e-07
1.71041e-07
1.67439e-07
1.64043e-07
1.60872e-07
1.57938e-07
1.55253e-07
1.52824e-07
1.50658e-07
1.4876e-07
1.47133e-07
1.45779e-07
1.44698e-07
1.43891e-07
1.43356e-07
1.4309e-07
1.88911e-07
1.87073e-07
1.84521e-07
1.81416e-07
1.77898e-07
1.74088e-07
1.70091e-07
1.65998e-07
1.61883e-07
1.57808e-07
1.53823e-07
1.4997e-07
1.46282e-07
1.42782e-07
1.39493e-07
1.36428e-07
1.336e-07
1.31018e-07
1.28688e-07
1.26615e-07
1.24801e-07
1.23249e-07
1.2196e-07
1.20933e-07
1.20167e-07
1.19659e-07
1.19408e-07
1.62802e-07
1.60995e-07
1.5849e-07
1.55448e-07
1.52009e-07
1.48295e-07
1.44411e-07
1.40444e-07
1.3647e-07
1.32547e-07
1.28725e-07
1.25041e-07
1.21526e-07
1.18203e-07
1.15089e-07
1.12197e-07
1.09536e-07
1.07114e-07
1.04933e-07
1.02998e-07
1.01309e-07
9.98671e-08
9.86714e-08
9.77205e-08
9.70123e-08
9.65441e-08
9.63121e-08
1.36556e-07
1.34818e-07
1.32414e-07
1.29502e-07
1.26219e-07
1.22685e-07
1.19002e-07
1.15256e-07
1.11517e-07
1.07842e-07
1.04275e-07
1.00852e-07
9.75989e-08
9.45356e-08
9.16763e-08
8.90308e-08
8.66055e-08
8.44044e-08
8.24297e-08
8.0682e-08
7.91609e-08
7.78652e-08
7.67929e-08
7.59417e-08
7.53086e-08
7.48901e-08
7.4682e-08
1.10985e-07
1.09362e-07
1.07123e-07
1.04417e-07
1.01378e-07
9.81199e-08
9.47389e-08
9.13156e-08
8.7915e-08
8.45888e-08
8.1377e-08
7.83098e-08
7.54093e-08
7.26911e-08
7.01656e-08
6.78393e-08
6.57157e-08
6.37962e-08
6.20805e-08
6.05673e-08
5.92545e-08
5.81394e-08
5.7219e-08
5.649e-08
5.59488e-08
5.55915e-08
5.54141e-08
8.70051e-08
8.55446e-08
8.3534e-08
8.1114e-08
7.84072e-08
7.55186e-08
7.25369e-08
6.95345e-08
6.6569e-08
6.36855e-08
6.09176e-08
5.82899e-08
5.58195e-08
5.35176e-08
5.13908e-08
4.94421e-08
4.76722e-08
4.608e-08
4.46633e-08
4.3419e-08
4.23435e-08
4.14332e-08
4.06843e-08
4.00928e-08
3.96548e-08
3.93663e-08
3.92234e-08
6.55148e-08
6.42578e-08
6.25328e-08
6.04652e-08
5.81639e-08
5.57219e-08
5.32165e-08
5.071e-08
4.8251e-08
4.58765e-08
4.36132e-08
4.14796e-08
3.94876e-08
3.76441e-08
3.59521e-08
3.44118e-08
3.30215e-08
3.17782e-08
3.06784e-08
2.97178e-08
2.88923e-08
2.81977e-08
2.763e-08
2.71852e-08
2.68581e-08
2.66442e-08
2.65393e-08
4.72458e-08
4.62194e-08
4.48161e-08
4.31422e-08
4.12899e-08
3.93373e-08
3.73484e-08
3.5374e-08
3.34529e-08
3.16138e-08
2.98769e-08
2.82559e-08
2.67592e-08
2.53914e-08
2.41498e-08
2.30297e-08
2.20264e-08
2.11351e-08