/*--------------------------------*- C++ -*----------------------------------*\
| =========                 |                                                 |
| \\      /  F ield         | OpenFOAM: The Open Source CFD Toolbox           |
|  \\    /   O peration     | Version:  2106                                  |
|   \\  /    A nd           | Website:  www.openfoam.com                      |
|    \\/     M anipulation  |                                                 |
\*---------------------------------------------------------------------------*/
FoamFile
{
    version     2.0;
    format      ascii;
    arch        "LSB;label=32;scalar=64";
    class       volScalarField;
    location    "200.00032";
    object      C2H3_0;
}
// * * * * * * * * * * * * * * * * * * * * * * * * * * * * * * * * * * * * * //

dimensions      [0 0 0 0 0 0 0];

internalField   nonuniform List<scalar> 
3360
(
5.09084e-25
5.40938e-25
5.85794e-25
6.41533e-25
7.06307e-25
7.78391e-25
8.56124e-25
9.37892e-25
1.02214e-24
1.10738e-24
1.19221e-24
1.27536e-24
1.35568e-24
1.43219e-24
1.50405e-24
1.57059e-24
1.6313e-24
1.68585e-24
1.73402e-24
1.77575e-24
1.81112e-24
1.84029e-24
1.86353e-24
1.8812e-24
1.89371e-24
1.90154e-24
1.90519e-24
2.57459e-24
2.75278e-24
3.0075e-24
3.33033e-24
3.71486e-24
4.1557e-24
4.64795e-24
5.18689e-24
5.76775e-24
6.38552e-24
7.03483e-24
7.70982e-24
8.40403e-24
9.11041e-24
9.82135e-24
1.05287e-23
1.12237e-23
1.18974e-23
1.25403e-23
1.31429e-23
1.36956e-23
1.41894e-23
1.46157e-23
1.49669e-23
1.52364e-23
1.54191e-23
1.55115e-23
9.84107e-24
1.06505e-23
1.18218e-23
1.33304e-23
1.51601e-23
1.72987e-23
1.97335e-23
2.24495e-23
2.54271e-23
2.8641e-23
3.20592e-23
3.56434e-23
3.935e-23
4.31306e-23
4.69321e-23
5.06983e-23
5.43714e-23
5.78936e-23
6.12091e-23
6.42659e-23
6.70177e-23
6.9425e-23
7.14567e-23
7.30905e-23
7.43134e-23
7.51215e-23
7.55193e-23
3.55595e-23
3.88994e-23
4.37938e-23
5.01859e-23
5.80544e-23
6.73852e-23
7.81543e-23
9.03137e-23
1.03783e-22
1.18444e-22
1.34138e-22
1.50668e-22
1.67802e-22
1.85277e-22
2.0281e-22
2.20103e-22
2.36859e-22
2.52796e-22
2.67652e-22
2.812e-22
2.93254e-22
3.0367e-22
3.12353e-22
3.1925e-22
3.2435e-22
3.27682e-22
3.29305e-22
1.32175e-22
1.45812e-22
1.65925e-22
1.92391e-22
2.25221e-22
2.64438e-22
3.0999e-22
3.61692e-22
4.19184e-22
4.81908e-22
5.49105e-22
6.19834e-22
6.92999e-22
7.67389e-22
8.41726e-22
9.14715e-22
9.851e-22
1.05171e-21
1.1135e-21
1.16959e-21
1.21928e-21
1.26204e-21
1.29754e-21
1.32565e-21
1.34637e-21
1.35986e-21
1.36642e-21
5.04154e-22
5.59312e-22
6.40995e-22
7.48917e-22
8.83302e-22
1.04435e-21
1.23189e-21
1.44514e-21
1.68255e-21
1.9417e-21
2.2193e-21
2.5113e-21
2.81299e-21
3.11924e-21
3.42464e-21
3.72384e-21
4.01165e-21
4.28336e-21
4.53479e-21
4.76246e-21
4.96365e-21
5.13641e-21
5.27957e-21
5.39266e-21
5.47589e-21
5.53e-21
5.55626e-21
1.95538e-21
2.1774e-21
2.50689e-21
2.94322e-21
3.48771e-21
4.14137e-21
4.90345e-21
5.77057e-21
6.736e-21
7.78947e-21
8.9172e-21
1.01023e-20
1.13252e-20
1.2565e-20
1.37997e-20
1.50076e-20
1.61681e-20
1.72621e-20
1.82734e-20
1.91881e-20
1.99956e-20
2.06884e-20
2.1262e-20
2.17148e-20
2.20479e-20
2.22644e-20
2.23693e-20
7.65716e-21
8.54456e-21
9.86337e-21
1.16123e-20
1.37975e-20
1.64237e-20
1.94883e-20
2.29776e-20
2.6864e-20
3.11051e-20
3.56446e-20
4.04132e-20
4.5332e-20
5.03155e-20
5.52752e-20
6.01237e-20
6.4778e-20
6.91626e-20
7.32119e-20
7.68716e-20
8.00997e-20
8.28672e-20
8.51568e-20
8.6963e-20
8.82905e-20
8.91528e-20
8.95706e-20
3.01699e-20
3.37152e-20
3.89871e-20
4.59832e-20
5.473e-20
6.52468e-20
7.75226e-20
9.15003e-20
1.07067e-19
1.24049e-19
1.42219e-19
1.61296e-19
1.80963e-19
2.00877e-19
2.20683e-19
2.40034e-19
2.586e-19
2.76081e-19
2.92218e-19
3.06796e-19
3.19651e-19
3.30667e-19
3.3978e-19
3.46967e-19
3.52248e-19
3.55678e-19
3.5734e-19
1.19087e-19
1.3319e-19
1.54174e-19
1.82036e-19
2.16889e-19
2.58815e-19
3.07768e-19
3.6352e-19
4.25613e-19
4.93354e-19
5.65821e-19
6.41892e-19
7.20292e-19
7.99649e-19
8.7855e-19
9.55606e-19
1.0295e-18
1.09905e-18
1.16322e-18
1.22117e-18
1.27224e-18
1.31599e-18
1.35216e-18
1.38068e-18
1.40163e-18
1.41523e-18
1.42181e-18
4.70853e-19
5.26951e-19
6.10431e-19
7.21292e-19
8.59983e-19
1.02682e-18
1.22162e-18
1.44344e-18
1.69043e-18
1.9598e-18
2.24785e-18
2.5501e-18
2.86146e-18
3.17646e-18
3.48951e-18
3.79509e-18
4.08802e-18
4.36359e-18
4.61775e-18
4.84718e-18
5.04933e-18
5.22244e-18
5.36554e-18
5.47832e-18
5.56116e-18
5.61492e-18
5.64096e-18
1.85995e-18
2.0824e-18
2.4135e-18
2.85324e-18
3.4034e-18
4.06519e-18
4.83781e-18
5.71742e-18
6.69661e-18
7.76418e-18
8.90536e-18
1.01023e-17
1.13347e-17
1.2581e-17
1.38189e-17
1.50267e-17
1.61838e-17
1.72718e-17
1.82747e-17
1.91796e-17
1.99764e-17
2.06585e-17
2.1222e-17
2.16659e-17
2.19918e-17
2.22033e-17
2.23056e-17
7.34006e-18
8.22124e-18
9.53253e-18
1.12737e-17
1.34515e-17
1.60701e-17
1.91256e-17
2.26022e-17
2.64699e-17
3.06837e-17
3.51846e-17
3.99016e-17
4.47548e-17
4.96586e-17
5.45255e-17
5.92703e-17
6.38127e-17
6.80807e-17
7.20123e-17
7.55572e-17
7.8677e-17
8.13461e-17
8.35501e-17
8.52857e-17
8.65593e-17
8.73853e-17
8.7785e-17
2.88603e-17
3.23338e-17
3.75021e-17
4.4363e-17
5.29408e-17
6.32502e-17
7.52727e-17
8.89425e-17
1.04137e-16
1.20677e-16
1.38326e-16
1.56805e-16
1.75795e-16
1.94963e-16
2.13966e-16
2.32471e-16
2.50167e-16
2.66777e-16
2.82062e-16
2.95829e-16
3.07935e-16
3.18282e-16
3.26819e-16
3.33537e-16
3.38462e-16
3.41655e-16
3.43199e-16
1.13023e-16
1.26656e-16
1.46931e-16
1.7383e-16
2.07434e-16
2.47785e-16
2.94789e-16
3.48167e-16
4.07418e-16
4.71817e-16
5.40429e-16
6.12145e-16
6.85729e-16
7.59873e-16
8.33257e-16
9.04604e-16
9.72727e-16
1.03657e-15
1.09524e-15
1.14801e-15
1.19435e-15
1.23392e-15
1.26653e-15
1.29216e-15
1.31094e-15
1.32311e-15
1.32899e-15
4.3993e-16
4.93005e-16
5.71884e-16
6.76434e-16
8.06895e-16
9.63324e-16
1.14526e-15
1.35149e-15
1.57998e-15
1.82782e-15
2.0913e-15
2.36611e-15
2.64744e-15
2.93028e-15
3.20961e-15
3.48058e-15
3.73876e-15
3.98022e-15
4.20167e-15
4.40049e-15
4.57478e-15
4.72333e-15
4.84557e-15
4.94153e-15
5.01173e-15
5.05715e-15
5.07907e-15
1.70085e-15
1.90549e-15
2.20926e-15
2.61126e-15
3.11196e-15
3.71101e-15
4.40603e-15
5.1918e-15
6.05987e-15
6.99862e-15
7.99357e-15
9.02799e-15
1.00836e-14
1.11416e-14
1.21832e-14
1.31907e-14
1.41478e-14
1.50404e-14
1.58568e-14
1.6588e-14
1.72276e-14
1.77715e-14
1.82181e-14
1.85681e-14
1.88237e-14
1.89888e-14
1.90684e-14
6.53085e-15
7.31016e-15
8.46485e-15
9.98935e-15
1.18826e-14
1.41404e-14
1.67503e-14
1.96893e-14
2.29228e-14
2.64047e-14
3.00788e-14
3.3882e-14
3.77464e-14
4.16027e-14
4.53835e-14
4.90256e-14
5.24723e-14
5.56752e-14
5.85948e-14
6.12012e-14
6.34739e-14
6.54014e-14
6.69803e-14
6.82146e-14
6.91141e-14
6.96939e-14
6.99729e-14
2.49507e-14
2.78784e-14
3.22039e-14
3.78937e-14
4.49288e-14
5.32764e-14
6.28738e-14
7.36195e-14
8.53709e-14
9.79475e-14
1.11137e-13
1.24707e-13
1.38412e-13
1.52009e-13
1.65266e-13
1.77967e-13
1.89926e-13
2.00987e-13
2.11024e-13
2.19947e-13
2.27698e-13
2.34248e-13
2.39597e-13
2.43765e-13
2.46795e-13
2.48743e-13
2.49678e-13
9.52268e-14
1.06087e-13
1.22064e-13
1.42966e-13
1.68642e-13
1.98887e-13
2.33385e-13
2.7169e-13
3.1322e-13
3.57279e-13
4.03084e-13
4.49802e-13
4.96589e-13
5.4263e-13
5.87166e-13
6.29522e-13
6.69123e-13
7.05506e-13
7.38321e-13
7.67327e-13
7.9239e-13
8.13468e-13
8.30601e-13
8.43899e-13
8.53527e-13
8.59695e-13
8.62647e-13
3.65269e-13
4.05286e-13
4.63824e-13
5.39825e-13
6.32351e-13
7.40241e-13
8.61955e-13
9.95526e-13
1.1386e-12
1.2885e-12
1.44241e-12
1.59744e-12
1.75081e-12
1.89991e-12
2.04247e-12
2.17652e-12
2.30051e-12
2.41326e-12
2.51397e-12
2.60217e-12
2.67773e-12
2.74076e-12
2.79161e-12
2.83079e-12
2.85898e-12
2.87692e-12
2.88546e-12
1.41238e-12
1.56037e-12
1.77544e-12
2.05228e-12
2.38581e-12
2.77014e-12
3.19807e-12
3.66109e-12
4.14965e-12
4.65361e-12
5.16269e-12
5.66703e-12
6.15757e-12
6.62639e-12
7.06696e-12
7.47417e-12
7.84438e-12
8.17532e-12
8.46596e-12
8.71629e-12
8.92724e-12
9.10039e-12
9.23787e-12
9.34217e-12
9.41604e-12
9.46237e-12
9.48408e-12
5.45797e-12
6.01035e-12
6.80917e-12
7.83075e-12
9.05204e-12
1.04469e-11
1.1985e-11
1.36322e-11
1.53513e-11
1.71048e-11
1.88558e-11
2.05702e-11
2.22183e-11
2.3775e-11
2.52208e-11
2.65418e-11
2.7729e-11
2.87782e-11
2.96891e-11
3.04648e-11
3.11106e-11
3.16344e-11
3.20448e-11
3.23517e-11
3.25657e-11
3.26974e-11
3.27579e-11
2.05004e-11
2.25455e-11
2.55015e-11
2.92808e-11
3.3801e-11
3.89723e-11
4.46942e-11
5.08568e-11
5.73458e-11
6.40474e-11
7.0854e-11
7.76683e-11
8.44057e-11
9.09948e-11
9.73757e-11
1.03497e-10
1.09312e-10
1.14781e-10
1.19861e-10
1.24511e-10
1.28692e-10
1.32361e-10
1.35481e-10
1.38017e-10
1.39941e-10
1.4123e-10
1.41876e-10
7.19078e-11
7.91183e-11
8.95883e-11
1.03074e-10
1.19382e-10
1.38336e-10
1.59768e-10
1.83531e-10
2.09505e-10
2.3761e-10
2.67797e-10
3.0004e-10
3.34309e-10
3.70538e-10
4.08584e-10
4.48184e-10
4.88932e-10
5.3026e-10
5.71444e-10
6.11628e-10
6.49865e-10
6.85167e-10
7.16556e-10
7.43111e-10
7.64001e-10
7.78501e-10
7.86003e-10
2.30738e-10
2.54842e-10
2.90255e-10
3.36678e-10
3.94207e-10
4.63223e-10
5.44373e-10
6.38537e-10
7.46718e-10
8.69827e-10
1.00833e-09
1.16181e-09
1.32849e-09
1.50494e-09
1.68611e-09
1.86576e-09
2.03732e-09
2.19485e-09
2.3339e-09
2.45193e-09
2.54828e-09
2.62381e-09
2.68046e-09
2.72071e-09
2.74724e-09
2.76264e-09
2.7693e-09
7.18398e-10
8.04466e-10
9.339e-10
1.10885e-09
1.33339e-09
1.61246e-09
1.95029e-09
2.34806e-09
2.80072e-09
3.29434e-09
3.80556e-09
4.30478e-09
4.76267e-09
5.15702e-09
5.47659e-09
5.72065e-09
5.89571e-09
6.01201e-09
6.08085e-09
6.1131e-09
6.11859e-09
6.1059e-09
6.0824e-09
6.0544e-09
6.02723e-09
6.00547e-09
5.99296e-09
2.53904e-09
2.88549e-09
3.40657e-09
4.1024e-09
4.96491e-09
5.96645e-09
7.05358e-09
8.15208e-09
9.18455e-09
1.00915e-08
1.08423e-08
1.14328e-08
1.18749e-08
1.21877e-08
1.23925e-08
1.25093e-08
1.25561e-08
1.2549e-08
1.25021e-08
1.24277e-08
1.23368e-08
1.22387e-08
1.21417e-08
1.20532e-08
1.19793e-08
1.19256e-08
1.18967e-08
9.26129e-09
1.01625e-08
1.14038e-08
1.28751e-08
1.44589e-08
1.60457e-08
1.75512e-08
1.89225e-08
2.01347e-08
2.11823e-08
2.20705e-08
2.28102e-08
2.34159e-08
2.39031e-08
2.42878e-08
2.45847e-08
2.48078e-08
2.49699e-08
2.50823e-08
2.51552e-08
2.51977e-08
2.52176e-08
2.52217e-08
2.52161e-08
2.52059e-08
2.51954e-08
2.51884e-08
1.98428e-08
2.09698e-08
2.24949e-08
2.42906e-08
2.62513e-08
2.8294e-08
3.03545e-08
3.23903e-08
3.43755e-08
3.62961e-08
3.81461e-08
3.99244e-08
4.16326e-08
4.32724e-08
4.48454e-08
4.63512e-08
4.77873e-08
4.91484e-08
5.04272e-08
5.16136e-08
5.26959e-08
5.36609e-08
5.44951e-08
5.51847e-08
5.57171e-08
5.60806e-08
5.6266e-08
2.82249e-08
2.96548e-08
3.16409e-08
3.40671e-08
3.68418e-08
3.98957e-08
4.31789e-08
4.66581e-08
5.03122e-08
5.41279e-08
5.80949e-08
6.2203e-08
6.64377e-08
7.07782e-08
7.51953e-08
7.96507e-08
8.40963e-08
8.84755e-08
9.27243e-08
9.67732e-08
1.00549e-07
1.0398e-07
1.06994e-07
1.09526e-07
1.11508e-07
1.12877e-07
1.13581e-07
3.35924e-08
3.54243e-08
3.80246e-08
4.1294e-08
4.51645e-08
4.9592e-08
5.4551e-08
6.00284e-08
6.60169e-08
7.25086e-08
7.94888e-08
8.69309e-08
9.47928e-08
1.03014e-07
1.11516e-07
1.20201e-07
1.28955e-07
1.37654e-07
1.46163e-07
1.54307e-07
1.61913e-07
1.68815e-07
1.7486e-07
1.79908e-07
1.83831e-07
1.86523e-07
1.879e-07
3.82613e-08
4.06047e-08
4.39811e-08
4.83051e-08
5.35278e-08
5.96231e-08
6.65783e-08
7.43845e-08
8.30288e-08
9.24872e-08
1.02719e-07
1.13663e-07
1.25237e-07
1.37341e-07
1.49848e-07
1.62555e-07
1.7525e-07
1.87716e-07
1.99735e-07
2.11091e-07
2.21578e-07
2.30999e-07
2.39179e-07
2.45948e-07
2.51169e-07
2.5473e-07
2.56542e-07
4.70946e-08
5.01053e-08
5.44602e-08
6.00582e-08
6.68362e-08
7.47502e-08
8.37635e-08
9.38366e-08
1.04924e-07
1.16969e-07
1.29934e-07
1.43659e-07
1.57962e-07
1.72647e-07
1.87506e-07
2.02305e-07
2.16826e-07
2.30854e-07
2.44177e-07
2.56595e-07
2.67922e-07
2.77988e-07
2.86632e-07
2.9372e-07
2.99143e-07
3.02816e-07
3.04673e-07
6.46028e-08
6.83054e-08
7.3639e-08
8.04555e-08
8.86514e-08
9.81497e-08
1.08893e-07
1.20748e-07
1.33566e-07
1.47196e-07
1.61467e-07
1.76199e-07
1.91197e-07
2.06266e-07
2.21205e-07
2.3582e-07
2.49924e-07
2.63338e-07
2.75898e-07
2.87454e-07
2.9787e-07
3.07029e-07
3.14817e-07
3.21149e-07
3.25956e-07
3.29187e-07
3.30811e-07
9.19797e-08
9.62494e-08
1.02348e-07
1.10049e-07
1.1916e-07
1.29506e-07
1.40912e-07
1.532e-07
1.66188e-07
1.79693e-07
1.93529e-07
2.07514e-07
2.2147e-07
2.35227e-07
2.48627e-07
2.61522e-07
2.73775e-07
2.85267e-07
2.9589e-07
3.05548e-07
3.14162e-07
3.21663e-07
3.27996e-07
3.33106e-07
3.36958e-07
3.39534e-07
3.40821e-07
1.27147e-07
1.31514e-07
1.37691e-07
1.45391e-07
1.54364e-07
1.64379e-07
1.7522e-07
1.86679e-07
1.98564e-07
2.10691e-07
2.22887e-07
2.34998e-07
2.46881e-07
2.58407e-07
2.69466e-07
2.79958e-07
2.89799e-07
2.98918e-07
3.07254e-07
3.14757e-07
3.21386e-07
3.27111e-07
3.31908e-07
3.3576e-07
3.38647e-07
3.40567e-07
3.41522e-07
1.64653e-07
1.68695e-07
1.74366e-07
1.8136e-07
1.89406e-07
1.98262e-07
2.07706e-07
2.17536e-07
2.27571e-07
2.37653e-07
2.47639e-07
2.5741e-07
2.66861e-07
2.75906e-07
2.84474e-07
2.92507e-07
2.99959e-07
3.06792e-07
3.1298e-07
3.18501e-07
3.23341e-07
3.2749e-07
3.30943e-07
3.33699e-07
3.3576e-07
3.37124e-07
3.378e-07
2.00082e-07
2.0353e-07
2.08335e-07
2.14207e-07
2.20893e-07
2.28166e-07
2.35826e-07
2.43697e-07
2.51629e-07
2.59492e-07
2.6718e-07
2.74608e-07
2.81705e-07
2.88417e-07
2.94705e-07
3.00537e-07
3.05893e-07
3.10759e-07
3.15126e-07
3.1899e-07
3.22352e-07
3.25212e-07
3.27575e-07
3.29447e-07
3.30836e-07
3.31751e-07
3.32203e-07
2.30778e-07
2.3352e-07
2.37318e-07
2.41924e-07
2.47122e-07
2.52719e-07
2.58549e-07
2.64472e-07
2.7037e-07
2.76147e-07
2.81729e-07
2.87057e-07
2.92089e-07
2.96795e-07
3.01154e-07
3.05155e-07
3.08793e-07
3.12066e-07
3.14977e-07
3.17532e-07
3.19737e-07
3.21599e-07
3.23128e-07
3.24332e-07
3.25221e-07
3.25803e-07
3.2609e-07
2.55674e-07
2.57713e-07
2.60522e-07
2.63903e-07
2.67685e-07
2.71716e-07
2.7587e-07
2.80041e-07
2.84143e-07
2.8811e-07
2.91893e-07
2.95456e-07
2.98776e-07
3.01839e-07
3.04639e-07
3.07174e-07
3.0945e-07
3.11472e-07
3.13249e-07
3.1479e-07
3.16105e-07
3.17205e-07
3.18098e-07
3.18796e-07
3.19306e-07
3.19638e-07
3.198e-07
2.74779e-07
2.76183e-07
2.78106e-07
2.80401e-07
2.82941e-07
2.85617e-07
2.88336e-07
2.91026e-07
2.93628e-07
2.96102e-07
2.98417e-07
3.00555e-07
3.02506e-07
3.04268e-07
3.05842e-07
3.07236e-07
3.08457e-07
3.09516e-07
3.10425e-07
3.11194e-07
3.11835e-07
3.12358e-07
3.12774e-07
3.13092e-07
3.13319e-07
3.13464e-07
3.13534e-07
2.88679e-07
2.89546e-07
2.90722e-07
2.92106e-07
2.93614e-07
2.95171e-07
2.96717e-07
2.98206e-07
2.99604e-07
3.00887e-07
3.02042e-07
3.03062e-07
3.03946e-07
3.04701e-07
3.05333e-07
3.05853e-07
3.06273e-07
3.06603e-07
3.06857e-07
3.07047e-07
3.07183e-07
3.07276e-07
3.07336e-07
3.07372e-07
3.07389e-07
3.07396e-07
3.07397e-07
2.982e-07
2.9863e-07
2.992e-07
2.99852e-07
3.00532e-07
3.01198e-07
3.01816e-07
3.02361e-07
3.02817e-07
3.03176e-07
3.03435e-07
3.03596e-07
3.03667e-07
3.03657e-07
3.03578e-07
3.0344e-07
3.03258e-07
3.03045e-07
3.02812e-07
3.02571e-07
3.02334e-07
3.0211e-07
3.01908e-07
3.01736e-07
3.016e-07
3.01505e-07
3.01456e-07
3.04196e-07
3.04282e-07
3.04377e-07
3.04455e-07
3.04491e-07
3.04466e-07
3.04367e-07
3.04187e-07
3.03924e-07
3.0358e-07
3.03161e-07
3.02676e-07
3.02137e-07
3.01556e-07
3.00947e-07
3.00322e-07
2.99696e-07
2.99082e-07
2.98491e-07
2.97936e-07
2.97426e-07
2.9697e-07
2.96577e-07
2.96254e-07
2.96006e-07
2.95838e-07
2.95753e-07
3.0745e-07
3.07272e-07
3.07004e-07
3.06643e-07
3.06188e-07
3.0564e-07
3.05e-07
3.04275e-07
3.03473e-07
3.02604e-07
3.01681e-07
3.00718e-07
2.99729e-07
2.98729e-07
2.97732e-07
2.96752e-07
2.95803e-07
2.94897e-07
2.94048e-07
2.93265e-07
2.92558e-07
2.91936e-07
2.91406e-07
2.90974e-07
2.90646e-07
2.90425e-07
2.90314e-07
3.08632e-07
3.08256e-07
3.07715e-07
3.07027e-07
3.06207e-07
3.05269e-07
3.04229e-07
3.03101e-07
3.01903e-07
3.0065e-07
2.9936e-07
2.98049e-07
2.96734e-07
2.95431e-07
2.94154e-07
2.92919e-07
2.91739e-07
2.90627e-07
2.89593e-07
2.88648e-07
2.87802e-07
2.87062e-07
2.86435e-07
2.85927e-07
2.85542e-07
2.85284e-07
2.85154e-07
3.08289e-07
3.07767e-07
3.07026e-07
3.06099e-07
3.05012e-07
3.03791e-07
3.0246e-07
3.01041e-07
2.99558e-07
2.9803e-07
2.96477e-07
2.94918e-07
2.93372e-07
2.91855e-07
2.90382e-07
2.88968e-07
2.87626e-07
2.86368e-07
2.85206e-07
2.84149e-07
2.83206e-07
2.82384e-07
2.81691e-07
2.8113e-07
2.80706e-07
2.80422e-07
2.8028e-07
3.06854e-07
3.06228e-07
3.05343e-07
3.04244e-07
3.02967e-07
3.01545e-07
3.00008e-07
2.98385e-07
2.96701e-07
2.9498e-07
2.93244e-07
2.91514e-07
2.89808e-07
2.88143e-07
2.86536e-07
2.84999e-07
2.83547e-07
2.82192e-07
2.80943e-07
2.7981e-07
2.78802e-07
2.77926e-07
2.77187e-07
2.76591e-07
2.76141e-07
2.7584e-07
2.7569e-07
3.04662e-07
3.03963e-07
3.02979e-07
3.01761e-07
3.00352e-07
2.98791e-07
2.97113e-07
2.95349e-07
2.93529e-07
2.91678e-07
2.89819e-07
2.87974e-07
2.86161e-07
2.84399e-07
2.82703e-07
2.81087e-07
2.79563e-07
2.78144e-07
2.76839e-07
2.75658e-07
2.74608e-07
2.73697e-07
2.7293e-07
2.72311e-07
2.71845e-07
2.71533e-07
2.71377e-07
3.01969e-07
3.0122e-07
3.00169e-07
2.98871e-07
2.97375e-07
2.95722e-07
2.93951e-07
2.92096e-07
2.90187e-07
2.88252e-07
2.86315e-07
2.84397e-07
2.82518e-07
2.80696e-07
2.78945e-07
2.7728e-07
2.75713e-07
2.74255e-07
2.72917e-07
2.71707e-07
2.70633e-07
2.69701e-07
2.68917e-07
2.68285e-07
2.6781e-07
2.67492e-07
2.67333e-07
2.98963e-07
2.98183e-07
2.97089e-07
2.95742e-07
2.9419e-07
2.92481e-07
2.90653e-07
2.88743e-07
2.86781e-07
2.84797e-07
2.82814e-07
2.80854e-07
2.78938e-07
2.77082e-07
2.75301e-07
2.7361e-07
2.7202e-07
2.70543e-07
2.69188e-07
2.67963e-07
2.66877e-07
2.65935e-07
2.65143e-07
2.64505e-07
2.64025e-07
2.63704e-07
2.63544e-07
2.95784e-07
2.94986e-07
2.93869e-07
2.92493e-07
2.90911e-07
2.89171e-07
2.87313e-07
2.85373e-07
2.83385e-07
2.81376e-07
2.79371e-07
2.77393e-07
2.7546e-07
2.7359e-07
2.71797e-07
2.70096e-07
2.68499e-07
2.67015e-07
2.65655e-07
2.64426e-07
2.63337e-07
2.62392e-07
2.61599e-07
2.6096e-07
2.60478e-07
2.60157e-07
2.59996e-07
2.92534e-07
2.91728e-07
2.90599e-07
2.89211e-07
2.87617e-07
2.85864e-07
2.83995e-07
2.82046e-07
2.80049e-07
2.78034e-07
2.76025e-07
2.74043e-07
2.72109e-07
2.70239e-07
2.68448e-07
2.66749e-07
2.65154e-07
2.63673e-07
2.62316e-07
2.61091e-07
2.60004e-07
2.59063e-07
2.58272e-07
2.57635e-07
2.57155e-07
2.56834e-07
2.56674e-07
2.89283e-07
2.88475e-07
2.87346e-07
2.85957e-07
2.84362e-07
2.82611e-07
2.80744e-07
2.78798e-07
2.76807e-07
2.74799e-07
2.72797e-07
2.70824e-07
2.689e-07
2.67039e-07
2.65258e-07
2.63569e-07
2.61984e-07
2.60513e-07
2.59165e-07
2.57948e-07
2.56869e-07
2.55934e-07
2.55148e-07
2.54516e-07
2.5404e-07
2.53721e-07
2.53562e-07
2.86079e-07
2.85275e-07
2.84151e-07
2.8277e-07
2.81184e-07
2.79443e-07
2.77588e-07
2.75656e-07
2.73679e-07
2.71686e-07
2.69701e-07
2.67745e-07
2.65836e-07
2.63993e-07
2.62228e-07
2.60555e-07
2.58984e-07
2.57527e-07
2.56192e-07
2.54987e-07
2.53919e-07
2.52993e-07
2.52215e-07
2.51588e-07
2.51116e-07
2.50801e-07
2.50644e-07
2.82955e-07
2.82158e-07
2.81044e-07
2.79675e-07
2.78105e-07
2.76381e-07
2.74544e-07
2.72632e-07
2.70676e-07
2.68704e-07
2.66741e-07
2.64806e-07
2.6292e-07
2.61097e-07
2.59352e-07
2.57698e-07
2.56147e-07
2.54706e-07
2.53387e-07
2.52196e-07
2.51139e-07
2.50224e-07
2.49455e-07
2.48836e-07
2.48369e-07
2.48058e-07
2.47902e-07
2.79929e-07
2.79142e-07
2.78041e-07
2.76688e-07
2.75137e-07
2.73434e-07
2.7162e-07
2.69732e-07
2.67801e-07
2.65854e-07
2.63916e-07
2.62006e-07
2.60144e-07
2.58345e-07
2.56624e-07
2.54991e-07
2.53459e-07
2.52038e-07
2.50735e-07
2.4956e-07
2.48517e-07
2.47613e-07
2.46854e-07
2.46242e-07
2.45781e-07
2.45474e-07
2.4532e-07
2.77011e-07
2.76235e-07
2.75149e-07
2.73815e-07
2.72285e-07
2.70605e-07
2.68817e-07
2.66955e-07
2.65051e-07
2.63132e-07
2.61221e-07
2.59338e-07
2.57502e-07
2.55729e-07
2.54031e-07
2.52421e-07
2.50911e-07
2.49509e-07
2.48224e-07
2.47064e-07
2.46035e-07
2.45144e-07
2.44394e-07
2.43791e-07
2.43336e-07
2.43032e-07
2.4288e-07
2.74204e-07
2.73439e-07
2.7237e-07
2.71055e-07
2.69548e-07
2.67893e-07
2.66131e-07
2.64297e-07
2.62421e-07
2.6053e-07
2.58647e-07
2.56792e-07
2.54983e-07
2.53235e-07
2.51562e-07
2.49975e-07
2.48486e-07
2.47104e-07
2.45837e-07
2.44693e-07
2.43679e-07
2.428e-07
2.4206e-07
2.41465e-07
2.41016e-07
2.40716e-07
2.40566e-07
2.71504e-07
2.70751e-07
2.69698e-07
2.68403e-07
2.66919e-07
2.6529e-07
2.63554e-07
2.61748e-07
2.599e-07
2.58038e-07
2.56183e-07
2.54355e-07
2.52573e-07
2.5085e-07
2.49201e-07
2.47638e-07
2.4617e-07
2.44807e-07
2.43558e-07
2.4243e-07
2.4143e-07
2.40563e-07
2.39833e-07
2.39245e-07
2.38803e-07
2.38507e-07
2.38358e-07
2.68905e-07
2.68163e-07
2.67126e-07
2.65851e-07
2.64389e-07
2.62785e-07
2.61076e-07
2.59296e-07
2.57476e-07
2.55641e-07
2.53814e-07
2.52013e-07
2.50257e-07
2.48559e-07
2.46934e-07
2.45392e-07
2.43945e-07
2.42601e-07
2.4137e-07
2.40257e-07
2.3927e-07
2.38414e-07
2.37695e-07
2.37115e-07
2.36678e-07
2.36385e-07
2.36239e-07
2.66393e-07
2.65663e-07
2.64641e-07
2.63386e-07
2.61946e-07
2.60365e-07
2.58681e-07
2.56928e-07
2.55134e-07
2.53326e-07
2.51525e-07
2.49749e-07
2.48018e-07
2.46344e-07
2.44741e-07
2.4322e-07
2.41793e-07
2.40467e-07
2.39252e-07
2.38154e-07
2.3718e-07
2.36335e-07
2.35625e-07
2.35052e-07
2.3462e-07
2.34332e-07
2.34187e-07
2.63956e-07
2.63236e-07
2.62229e-07
2.60992e-07
2.59573e-07
2.58014e-07
2.56354e-07
2.54625e-07
2.52856e-07
2.51073e-07
2.49296e-07
2.47544e-07
2.45836e-07
2.44184e-07
2.42602e-07
2.41101e-07
2.39692e-07
2.38383e-07
2.37183e-07
2.36099e-07
2.35137e-07
2.34303e-07
2.33601e-07
2.33035e-07
2.32609e-07
2.32324e-07
2.32181e-07
2.61576e-07
2.60865e-07
2.59872e-07
2.58651e-07
2.5725e-07
2.55712e-07
2.54074e-07
2.52367e-07
2.50621e-07
2.4886e-07
2.47105e-07
2.45376e-07
2.43688e-07
2.42057e-07
2.40494e-07
2.39012e-07
2.37619e-07
2.36326e-07
2.3514e-07
2.34068e-07
2.33118e-07
2.32293e-07
2.31599e-07
2.31039e-07
2.30618e-07
2.30336e-07
2.30194e-07
2.5923e-07
2.58528e-07
2.57547e-07
2.56341e-07
2.54957e-07
2.53437e-07
2.51817e-07
2.50131e-07
2.48405e-07
2.46664e-07
2.44929e-07
2.43219e-07
2.4155e-07
2.39937e-07
2.38391e-07
2.36925e-07
2.35547e-07
2.34268e-07
2.33095e-07
2.32034e-07
2.31093e-07
2.30277e-07
2.2959e-07
2.29037e-07
2.28619e-07
2.2834e-07
2.282e-07
2.56895e-07
2.562e-07
2.55229e-07
2.54035e-07
2.52665e-07
2.51161e-07
2.49558e-07
2.47888e-07
2.46179e-07
2.44456e-07
2.42738e-07
2.41044e-07
2.39392e-07
2.37793e-07
2.36262e-07
2.3481e-07
2.33445e-07
2.32178e-07
2.31015e-07
2.29965e-07
2.29032e-07
2.28224e-07
2.27543e-07
2.26994e-07
2.26581e-07
2.26304e-07
2.26165e-07
2.5454e-07
2.53851e-07
2.52888e-07
2.51704e-07
2.50346e-07
2.48853e-07
2.47264e-07
2.45607e-07
2.43912e-07
2.42202e-07
2.40498e-07
2.38817e-07
2.37177e-07
2.35592e-07
2.34073e-07
2.32631e-07
2.31277e-07
2.30019e-07
2.28866e-07
2.27823e-07
2.26898e-07
2.26095e-07
2.2542e-07
2.24875e-07
2.24465e-07
2.2419e-07
2.24053e-07
2.52131e-07
2.51446e-07
2.50489e-07
2.49312e-07
2.47961e-07
2.46478e-07
2.44897e-07
2.4325e-07
2.41564e-07
2.39864e-07
2.38169e-07
2.36498e-07
2.34868e-07
2.33291e-07
2.3178e-07
2.30347e-07
2.29001e-07
2.2775e-07
2.26603e-07
2.25567e-07
2.24647e-07
2.23849e-07
2.23177e-07
2.22636e-07
2.22228e-07
2.21955e-07
2.21818e-07
2.49627e-07
2.48944e-07
2.4799e-07
2.46816e-07
2.4547e-07
2.43991e-07
2.42414e-07
2.40772e-07
2.39092e-07
2.37396e-07
2.35706e-07
2.34041e-07
2.32415e-07
2.30843e-07
2.29337e-07
2.27908e-07
2.26566e-07
2.2532e-07
2.24177e-07
2.23144e-07
2.22228e-07
2.21433e-07
2.20764e-07
2.20225e-07
2.19819e-07
2.19547e-07
2.19411e-07
2.4698e-07
2.46297e-07
2.45342e-07
2.44168e-07
2.42821e-07
2.41341e-07
2.39765e-07
2.38122e-07
2.36441e-07
2.34744e-07
2.33054e-07
2.31389e-07
2.29763e-07
2.28191e-07
2.26686e-07
2.25258e-07
2.23917e-07
2.22671e-07
2.21529e-07
2.20498e-07
2.19582e-07
2.18788e-07
2.18121e-07
2.17582e-07
2.17177e-07
2.16905e-07
2.16769e-07
2.44134e-07
2.43448e-07
2.42489e-07
2.4131e-07
2.39957e-07
2.38471e-07
2.36887e-07
2.35237e-07
2.33549e-07
2.31846e-07
2.3015e-07
2.28478e-07
2.26847e-07
2.2527e-07
2.2376e-07
2.22328e-07
2.20983e-07
2.19735e-07
2.18591e-07
2.17557e-07
2.1664e-07
2.15845e-07
2.15176e-07
2.14638e-07
2.14231e-07
2.1396e-07
2.13824e-07
2.41022e-07
2.4033e-07
2.39362e-07
2.38173e-07
2.36807e-07
2.35308e-07
2.33711e-07
2.32047e-07
2.30345e-07
2.28628e-07
2.26918e-07
2.25233e-07
2.2359e-07
2.22002e-07
2.20481e-07
2.1904e-07
2.17687e-07
2.16432e-07
2.15281e-07
2.14242e-07
2.1332e-07
2.12522e-07
2.1185e-07
2.11309e-07
2.10901e-07
2.10629e-07
2.10493e-07
2.37567e-07
2.36865e-07
2.35884e-07
2.34677e-07
2.33293e-07
2.31773e-07
2.30154e-07
2.28468e-07
2.26743e-07
2.25004e-07
2.23272e-07
2.21567e-07
2.19904e-07
2.18298e-07
2.1676e-07
2.15304e-07
2.13937e-07
2.12669e-07
2.11508e-07
2.10459e-07
2.0953e-07
2.08725e-07
2.08048e-07
2.07503e-07
2.07092e-07
2.06818e-07
2.06681e-07
2.3368e-07
2.32964e-07
2.31963e-07
2.30732e-07
2.29321e-07
2.27771e-07
2.26121e-07
2.24403e-07
2.22646e-07
2.20876e-07
2.19114e-07
2.17379e-07
2.15688e-07
2.14055e-07
2.12494e-07
2.11015e-07
2.09629e-07
2.08343e-07
2.07165e-07
2.06103e-07
2.05162e-07
2.04347e-07
2.03663e-07
2.03112e-07
2.02697e-07
2.0242e-07
2.02281e-07
2.29257e-07
2.28523e-07
2.27495e-07
2.26233e-07
2.24785e-07
2.23196e-07
2.21504e-07
2.19744e-07
2.17945e-07
2.16133e-07
2.1433e-07
2.12556e-07
2.10828e-07
2.0916e-07
2.07567e-07
2.06059e-07
2.04645e-07
2.03335e-07
2.02137e-07
2.01056e-07
2.001e-07
1.99272e-07
1.98576e-07
1.98017e-07
1.97596e-07
1.97315e-07
1.97175e-07
2.24184e-07
2.23425e-07
2.22364e-07
2.21061e-07
2.19567e-07
2.17928e-07
2.16183e-07
2.14369e-07
2.12516e-07
2.1065e-07
2.08796e-07
2.06972e-07
2.05197e-07
2.03486e-07
2.01852e-07
2.00306e-07
1.98859e-07
1.97519e-07
1.96293e-07
1.95189e-07
1.94213e-07
1.93368e-07
1.92659e-07
1.9209e-07
1.91661e-07
1.91375e-07
1.91232e-07
2.18332e-07
2.17543e-07
2.16441e-07
2.15087e-07
2.13536e-07
2.11835e-07
2.10026e-07
2.08146e-07
2.06227e-07
2.04296e-07
2.02378e-07
2.00494e-07
1.98662e-07
1.96897e-07
1.95214e-07
1.93622e-07
1.92134e-07
1.90757e-07
1.89499e-07
1.88368e-07
1.87367e-07
1.86502e-07
1.85777e-07
1.85195e-07
1.84757e-07
1.84465e-07
1.84319e-07
2.11563e-07
2.10739e-07
2.09588e-07
2.08174e-07
2.06555e-07
2.0478e-07
2.02894e-07
2.00936e-07
1.98938e-07
1.96931e-07
1.94938e-07
1.92983e-07
1.91084e-07
1.89257e-07
1.87515e-07
1.85871e-07
1.84335e-07
1.82916e-07
1.8162e-07
1.80456e-07
1.79427e-07
1.78539e-07
1.77795e-07
1.77198e-07
1.7675e-07
1.76452e-07
1.76303e-07
2.03738e-07
2.02872e-07
2.01663e-07
2.0018e-07
1.98482e-07
1.96622e-07
1.94648e-07
1.926e-07
1.90513e-07
1.88418e-07
1.86341e-07
1.84306e-07
1.82331e-07
1.80433e-07
1.78627e-07
1.76924e-07
1.75335e-07
1.73868e-07
1.72531e-07
1.71331e-07
1.70272e-07
1.69359e-07
1.68594e-07
1.67982e-07
1.67522e-07
1.67216e-07
1.67063e-07
1.94718e-07
1.93806e-07
1.92532e-07
1.90971e-07
1.89185e-07
1.87232e-07
1.8516e-07
1.83012e-07
1.80827e-07
1.78637e-07
1.76469e-07
1.74346e-07
1.7229e-07
1.70317e-07
1.68442e-07
1.66677e-07
1.65031e-07
1.63515e-07
1.62136e-07
1.60898e-07
1.59808e-07
1.58869e-07
1.58084e-07
1.57455e-07
1.56984e-07
1.5667e-07
1.56514e-07
1.84385e-07
1.83423e-07
1.8208e-07
1.80435e-07
1.78556e-07
1.76502e-07
1.74327e-07
1.72076e-07
1.69788e-07
1.67499e-07
1.65236e-07
1.63025e-07
1.60887e-07
1.58838e-07
1.56895e-07
1.55068e-07
1.53368e-07
1.51805e-07
1.50384e-07
1.49111e-07
1.47991e-07
1.47028e-07
1.46224e-07
1.45581e-07
1.451e-07
1.4478e-07
1.44621e-07
1.72657e-07
1.71643e-07
1.7023e-07
1.685e-07
1.66527e-07
1.64373e-07
1.62095e-07
1.59742e-07
1.57355e-07
1.5497e-07
1.52618e-07
1.50324e-07
1.4811e-07
1.45993e-07
1.43988e-07
1.42108e-07
1.40361e-07
1.38757e-07
1.37302e-07
1.36001e-07
1.34858e-07
1.33877e-07
1.33058e-07
1.32405e-07
1.31916e-07
1.31592e-07
1.3143e-07
1.59511e-07
1.58448e-07
1.56969e-07
1.5516e-07
1.53099e-07
1.50854e-07
1.48484e-07
1.46041e-07
1.43568e-07
1.41102e-07
1.38676e-07
1.36315e-07
1.34041e-07
1.31872e-07
1.29823e-07
1.27904e-07
1.26127e-07
1.24497e-07
1.23022e-07
1.21706e-07
1.20551e-07
1.19561e-07
1.18737e-07
1.1808e-07
1.17589e-07
1.17264e-07
1.17102e-07
1.45013e-07
1.4391e-07
1.42375e-07
1.40502e-07
1.38372e-07
1.36056e-07
1.33617e-07
1.31108e-07
1.28575e-07
1.26057e-07
1.23585e-07
1.21186e-07
1.18882e-07
1.1669e-07
1.14624e-07
1.12695e-07
1.10912e-07
1.09281e-07
1.07808e-07
1.06496e-07
1.05348e-07
1.04365e-07
1.03549e-07
1.02898e-07
1.02413e-07
1.02092e-07
1.01933e-07
1.29347e-07
1.28218e-07
1.26649e-07
1.24738e-07
1.22569e-07
1.20217e-07
1.17747e-07
1.15213e-07
1.12663e-07
1.10135e-07
1.07661e-07
1.05269e-07
1.02978e-07
1.00805e-07
9.87632e-08
9.68625e-08
9.51105e-08
9.35125e-08
9.20725e-08
9.07932e-08
8.9676e-08
8.87218e-08
8.79304e-08
8.73011e-08
8.68326e-08
8.6523e-08
8.63697e-08
1.12836e-07
1.11704e-07
1.10132e-07
1.08222e-07
1.0606e-07
1.03722e-07
1.01275e-07
9.87729e-08
9.62638e-08
9.37861e-08
9.13708e-08
8.90431e-08
8.68224e-08
8.4724e-08
8.27591e-08
8.09361e-08
7.92611e-08
7.7738e-08
7.63695e-08
7.51569e-08
7.41006e-08
7.32003e-08
7.24552e-08
7.18637e-08
7.14239e-08
7.11334e-08
7.09893e-08
9.59545e-08
9.48472e-08
9.33142e-08
9.14556e-08
8.93586e-08
8.70991e-08
8.47426e-08
8.23438e-08
7.99482e-08
7.75929e-08
7.53071e-08
7.31138e-08
7.10305e-08
6.90703e-08
6.72423e-08
6.55532e-08
6.4007e-08
6.26061e-08
6.13516e-08
6.02434e-08
5.92809e-08
5.84628e-08
5.77872e-08
5.7252e-08
5.68548e-08
5.65928e-08
5.64628e-08
7.93e-08
7.82526e-08
7.6806e-08
7.50574e-08
7.30919e-08
7.0983e-08
6.87934e-08
6.65753e-08
6.43713e-08
6.22153e-08
6.01339e-08
5.8147e-08
5.62694e-08
5.45116e-08
5.28803e-08
5.13799e-08
5.00126e-08
4.87791e-08
4.76788e-08
4.67105e-08
4.58724e-08
4.51623e-08
4.45776e-08
4.41157e-08
4.37736e-08
4.35485e-08
4.3437e-08
6.35409e-08
6.25884e-08
6.12766e-08
5.96966e-08
5.79282e-08
5.60399e-08
5.40896e-08
5.21251e-08
5.01843e-08
4.82973e-08
4.64867e-08
4.47689e-08
4.31557e-08
4.16545e-08
4.02699e-08
3.9004e-08
3.78571e-08
3.68284e-08
3.59165e-08
3.5119e-08
3.44337e-08
3.38579e-08
3.33888e-08
3.30239e-08
3.27572e-08
3.25837e-08
3.24989e-08
4.93183e-08
4.84908e-08
4.73546e-08
4.5992e-08
4.44745e-08
4.28635e-08
4.12105e-08
3.9557e-08
3.79362e-08
3.63739e-08
3.48898e-08
3.34988e-08
3.22123e-08
3.10388e-08
2.99744e-08
2.90128e-08
2.81495e-08