/*--------------------------------*- C++ -*----------------------------------*\
| =========                 |                                                 |
| \\      /  F ield         | OpenFOAM: The Open Source CFD Toolbox           |
|  \\    /   O peration     | Version:  2106                                  |
|   \\  /    A nd           | Website:  www.openfoam.com                      |
|    \\/     M anipulation  |                                                 |
\*---------------------------------------------------------------------------*/
FoamFile
{
    version     2.0;
    format      ascii;
    arch        "LSB;label=32;scalar=64";
    class       volScalarField;
    location    "200.00032";
    object      C5H5;
}
// * * * * * * * * * * * * * * * * * * * * * * * * * * * * * * * * * * * * * //

dimensions      [0 0 0 0 0 0 0];

internalField   nonuniform List<scalar> 
3360
(
4.36394e-23
4.63695e-23
5.02137e-23
5.49907e-23
6.05421e-23
6.67198e-23
7.33815e-23
8.0389e-23
8.76089e-23
9.49136e-23
1.02184e-22
1.09309e-22
1.16193e-22
1.22749e-22
1.28907e-22
1.34609e-22
1.39812e-22
1.44486e-22
1.48614e-22
1.52191e-22
1.55221e-22
1.57721e-22
1.59713e-22
1.61227e-22
1.62299e-22
1.6297e-22
1.63283e-22
2.20662e-22
2.35931e-22
2.57757e-22
2.8542e-22
3.1837e-22
3.56145e-22
3.98324e-22
4.44504e-22
4.94276e-22
5.4721e-22
6.02846e-22
6.60682e-22
7.20166e-22
7.80692e-22
8.41609e-22
9.02217e-22
9.61773e-22
1.0195e-21
1.07459e-21
1.12622e-21
1.17358e-21
1.21589e-21
1.25241e-21
1.2825e-21
1.3056e-21
1.32126e-21
1.32917e-21
8.4324e-22
9.12578e-22
1.01293e-21
1.14216e-21
1.29891e-21
1.48211e-21
1.69069e-21
1.92335e-21
2.17842e-21
2.45373e-21
2.74654e-21
3.05357e-21
3.37109e-21
3.69493e-21
4.02057e-21
4.34319e-21
4.65782e-21
4.95954e-21
5.24354e-21
5.50539e-21
5.7411e-21
5.94731e-21
6.12134e-21
6.26129e-21
6.36604e-21
6.43526e-21
6.46934e-21
3.04595e-21
3.33198e-21
3.75115e-21
4.29856e-21
4.97241e-21
5.77148e-21
6.69371e-21
7.73499e-21
8.88844e-21
1.01439e-20
1.14879e-20
1.29034e-20
1.43706e-20
1.5867e-20
1.73684e-20
1.88492e-20
2.0284e-20
2.16487e-20
2.29208e-20
2.40809e-20
2.51131e-20
2.6005e-20
2.67485e-20
2.73391e-20
2.77758e-20
2.80611e-20
2.82e-20
1.13177e-20
1.24851e-20
1.4207e-20
1.64727e-20
1.92832e-20
2.26404e-20
2.654e-20
3.0966e-20
3.58875e-20
4.12568e-20
4.7009e-20
5.30635e-20
5.93264e-20
6.56942e-20
7.20574e-20
7.83052e-20
8.433e-20
9.00317e-20
9.5321e-20
1.00122e-19
1.04375e-19
1.08035e-19
1.11074e-19
1.1348e-19
1.15253e-19
1.16408e-19
1.16969e-19
4.31519e-20
4.78723e-20
5.48625e-20
6.40981e-20
7.55981e-20
8.93797e-20
1.05428e-19
1.23677e-19
1.43992e-19
1.66167e-19
1.89921e-19
2.14907e-19
2.40722e-19
2.66926e-19
2.93059e-19
3.18659e-19
3.43286e-19
3.66534e-19
3.88048e-19
4.07528e-19
4.24742e-19
4.39524e-19
4.51773e-19
4.6145e-19
4.6857e-19
4.73201e-19
4.75447e-19
1.67299e-19
1.86292e-19
2.14477e-19
2.51803e-19
2.9838e-19
3.54294e-19
4.19482e-19
4.93654e-19
5.76234e-19
6.66345e-19
7.62805e-19
8.64168e-19
9.68773e-19
1.07481e-18
1.18042e-18
1.28373e-18
1.38299e-18
1.47657e-18
1.56306e-18
1.64129e-18
1.71036e-18
1.76961e-18
1.81867e-18
1.8574e-18
1.88589e-18
1.9044e-18
1.91338e-18
6.54865e-19
7.30748e-19
8.43519e-19
9.93066e-19
1.17992e-18
1.40448e-18
1.66652e-18
1.96487e-18
2.29716e-18
2.65979e-18
3.04792e-18
3.45564e-18
3.8762e-18
4.30228e-18
4.72632e-18
5.14085e-18
5.53878e-18
5.91365e-18
6.25985e-18
6.57274e-18
6.84873e-18
7.08533e-18
7.28108e-18
7.4355e-18
7.549e-18
7.62271e-18
7.65844e-18
2.57914e-18
2.88217e-18
3.33279e-18
3.93078e-18
4.6784e-18
5.57729e-18
6.62652e-18
7.82119e-18
9.15162e-18
1.06031e-17
1.2156e-17
1.37865e-17
1.54673e-17
1.71692e-17
1.88619e-17
2.05158e-17
2.21024e-17
2.35964e-17
2.49755e-17
2.62213e-17
2.73199e-17
2.82614e-17
2.90402e-17
2.96544e-17
3.01058e-17
3.03989e-17
3.05409e-17
1.01759e-17
1.13808e-17
1.31737e-17
1.55543e-17
1.85321e-17
2.2114e-17
2.62964e-17
3.10596e-17
3.63645e-17
4.21518e-17
4.83428e-17
5.48417e-17
6.15395e-17
6.8319e-17
7.50596e-17
8.16424e-17
8.79554e-17
9.38969e-17
9.93789e-17
1.04329e-16
1.08692e-16
1.1243e-16
1.1552e-16
1.17956e-16
1.19745e-16
1.20907e-16
1.2147e-16
4.02148e-17
4.50058e-17
5.21352e-17
6.16031e-17
7.34475e-17
8.76959e-17
1.04332e-16
1.23275e-16
1.44368e-16
1.67372e-16
1.91971e-16
2.17782e-16
2.44371e-16
2.71271e-16
2.98004e-16
3.241e-16
3.49114e-16
3.72647e-16
3.94351e-16
4.13943e-16
4.31206e-16
4.45989e-16
4.58208e-16
4.6784e-16
4.74914e-16
4.79505e-16
4.81728e-16
1.58767e-16
1.77757e-16
2.06021e-16
2.43559e-16
2.90523e-16
3.47016e-16
4.1297e-16
4.88057e-16
5.71643e-16
6.62775e-16
7.60189e-16
8.62362e-16
9.67568e-16
1.07395e-15
1.17963e-15
1.28272e-15
1.3815e-15
1.47437e-15
1.55999e-15
1.63723e-15
1.70525e-15
1.76347e-15
1.81158e-15
1.84947e-15
1.8773e-15
1.89535e-15
1.90409e-15
6.26118e-16
7.01302e-16
8.13184e-16
9.61749e-16
1.14756e-15
1.37099e-15
1.6317e-15
1.92835e-15
2.25836e-15
2.61791e-15
3.00196e-15
3.40446e-15
3.81858e-15
4.23702e-15
4.65232e-15
5.0572e-15
5.44481e-15
5.80901e-15
6.14451e-15
6.44701e-15
6.71324e-15
6.94101e-15
7.12909e-15
7.27721e-15
7.3859e-15
7.4564e-15
7.49052e-15
2.45938e-15
2.75557e-15
3.19627e-15
3.78133e-15
4.51283e-15
5.392e-15
6.41731e-15
7.58314e-15
8.87907e-15
1.02897e-14
1.17951e-14
1.33712e-14
1.4991e-14
1.6626e-14
1.8247e-14
1.98255e-14
2.13351e-14
2.2752e-14
2.40559e-14
2.52304e-14
2.62632e-14
2.71459e-14
2.78743e-14
2.84475e-14
2.88678e-14
2.91402e-14
2.9272e-14
9.61615e-15
1.07777e-14
1.25052e-14
1.47973e-14
1.7661e-14
2.10999e-14
2.51062e-14
2.96561e-14
3.4707e-14
4.01971e-14
4.60468e-14
5.21615e-14
5.84358e-14
6.47583e-14
7.10163e-14
7.71008e-14
8.29107e-14
8.83558e-14
9.33597e-14
9.7861e-14
1.01814e-13
1.0519e-13
1.07972e-13
1.10159e-13
1.11761e-13
1.12799e-13
1.13301e-13
3.73246e-14
4.18409e-14
4.85539e-14
5.74531e-14
6.85598e-14
8.18799e-14
9.73746e-14
1.14942e-13
1.34409e-13
1.55527e-13
1.77982e-13
2.01406e-13
2.25389e-13
2.49503e-13
2.73321e-13
2.96429e-13
3.18449e-13
3.39044e-13
3.57934e-13
3.74896e-13
3.89767e-13
4.02442e-13
4.12874e-13
4.21064e-13
4.27057e-13
4.30934e-13
4.32807e-13
1.43544e-13
1.60918e-13
1.86715e-13
2.20868e-13
2.63423e-13
3.14359e-13
3.73481e-13
4.4035e-13
5.14252e-13
5.94201e-13
6.78967e-13
7.67124e-13
8.57119e-13
9.47338e-13
1.03618e-12
1.12214e-12
1.20381e-12
1.28e-12
1.34971e-12
1.41215e-12
1.46677e-12
1.51323e-12
1.5514e-12
1.58131e-12
1.60316e-12
1.61728e-12
1.62409e-12
5.45609e-13
6.11464e-13
7.09106e-13
8.38127e-13
9.98505e-13
1.18994e-12
1.41145e-12
1.66113e-12
1.93607e-12
2.23239e-12
2.54533e-12
2.86951e-12
3.19914e-12
3.52831e-12
3.85123e-12
4.16249e-12
4.45721e-12
4.73122e-12
4.98112e-12
5.20431e-12
5.39901e-12
5.56422e-12
5.69961e-12
5.8055e-12
5.88271e-12
5.93251e-12
5.95649e-12
2.04452e-12
2.28945e-12
2.65185e-12
3.12937e-12
3.72097e-12
4.42442e-12
5.2349e-12
6.14429e-12
7.14086e-12
8.20954e-12
9.33251e-12
1.04899e-11
1.16609e-11
1.28246e-11
1.39609e-11
1.50512e-11
1.60791e-11
1.7031e-11
1.78959e-11
1.86656e-11
1.9335e-11
1.99012e-11
2.03641e-11
2.07252e-11
2.0988e-11
2.11571e-11
2.12384e-11
7.53104e-12
8.42004e-12
9.73162e-12
1.14534e-11
1.3577e-11
1.60892e-11
1.89676e-11
2.21783e-11
2.56755e-11
2.94024e-11
3.32944e-11
3.72813e-11
4.1291e-11
4.52526e-11
4.90996e-11
5.27717e-11
5.62171e-11
5.93929e-11
6.22661e-11
6.48135e-11
6.70207e-11
6.8882e-11
7.03989e-11
7.15793e-11
7.24362e-11
7.29867e-11
7.32508e-11
2.71933e-11
3.03245e-11
3.49269e-11
4.09393e-11
4.83121e-11
5.69783e-11
6.68395e-11
7.77602e-11
8.95678e-11
1.02059e-10
1.1501e-10
1.28183e-10
1.41342e-10
1.5426e-10
1.66727e-10
1.78561e-10
1.89605e-10
1.99736e-10
2.08861e-10
2.16917e-10
2.23873e-10
2.29718e-10
2.34468e-10
2.38154e-10
2.40823e-10
2.42535e-10
2.43354e-10
9.5941e-11
1.06577e-10
1.22138e-10
1.42345e-10
1.66952e-10
1.95656e-10
2.28057e-10
2.63641e-10
3.01799e-10
3.41838e-10
3.83021e-10
4.24594e-10
4.65825e-10
5.06028e-10
5.44586e-10
5.8097e-10
6.14746e-10
6.45575e-10
6.7322e-10
6.9753e-10
7.18439e-10
7.35956e-10
7.50147e-10
7.61132e-10
7.69069e-10
7.74147e-10
7.76575e-10
3.29582e-10
3.64219e-10
4.14623e-10
4.7963e-10
5.5817e-10
6.49011e-10
7.50645e-10
8.61281e-10
9.78878e-10
1.10123e-09
1.22606e-09
1.35111e-09
1.47425e-09
1.59352e-09
1.70721e-09
1.81389e-09
1.91242e-09
2.00193e-09
2.08186e-09
2.15189e-09
2.21191e-09
2.26204e-09
2.30255e-09
2.33383e-09
2.35639e-09
2.37079e-09
2.37767e-09
1.09785e-09
1.20544e-09
1.36111e-09
1.56042e-09
1.79924e-09
2.07306e-09
2.37667e-09
2.70425e-09
3.04945e-09
3.40568e-09
3.76631e-09
4.12499e-09
4.47583e-09
4.81358e-09
5.13374e-09
5.43263e-09
5.70741e-09
5.95602e-09
6.17718e-09
6.3703e-09
6.53534e-09
6.67283e-09
6.78365e-09
6.86905e-09
6.93052e-09
6.96971e-09
6.98839e-09
3.53034e-09
3.84808e-09
4.30517e-09
4.88627e-09
5.57705e-09
6.36241e-09
7.22597e-09
8.15007e-09
9.11627e-09
1.0106e-08
1.11011e-08
1.20845e-08
1.30409e-08
1.39568e-08
1.48209e-08
1.56241e-08
1.63597e-08
1.70229e-08
1.76111e-08
1.81233e-08
1.856e-08
1.8923e-08
1.9215e-08
1.94397e-08
1.96011e-08
1.97039e-08
1.97529e-08
1.09096e-08
1.18008e-08
1.30761e-08
1.46871e-08
1.65885e-08
1.87344e-08
2.10767e-08
2.35654e-08
2.615e-08
2.87808e-08
3.14107e-08
3.39959e-08
3.64978e-08
3.8883e-08
4.11242e-08
4.31997e-08
4.5094e-08
4.67967e-08
4.83025e-08
4.96103e-08
5.07226e-08
5.16452e-08
5.23861e-08
5.29551e-08
5.33634e-08
5.36231e-08
5.37466e-08
3.22618e-08
3.46388e-08
3.80257e-08
4.22802e-08
4.72717e-08
5.28698e-08
5.89421e-08
6.53548e-08
7.19757e-08
7.86769e-08
8.53391e-08
9.18539e-08
9.81268e-08
1.04078e-07
1.09645e-07
1.14778e-07
1.19445e-07
1.23625e-07
1.27311e-07
1.30503e-07
1.33213e-07
1.35455e-07
1.37253e-07
1.38631e-07
1.39619e-07
1.40247e-07
1.40545e-07
9.08256e-08
9.68641e-08
1.05436e-07
1.16155e-07
1.28665e-07
1.42618e-07
1.57663e-07
1.73455e-07
1.89661e-07
2.05965e-07
2.22083e-07
2.37764e-07
2.52795e-07
2.67e-07
2.80242e-07
2.92419e-07
3.03463e-07
3.13335e-07
3.22022e-07
3.29534e-07
3.35899e-07
3.4116e-07
3.45372e-07
3.48599e-07
3.50909e-07
3.52375e-07
3.5307e-07
2.41033e-07
2.55504e-07
2.75974e-07
3.01462e-07
3.31068e-07
3.63928e-07
3.99203e-07
4.36086e-07
4.73812e-07
5.11674e-07
5.49032e-07
5.85321e-07
6.20059e-07
6.5285e-07
6.8338e-07
7.11417e-07
7.36807e-07
7.59464e-07
7.79362e-07
7.9653e-07
8.11041e-07
8.23002e-07
8.3255e-07
8.39839e-07
8.45039e-07
8.48327e-07
8.49882e-07
5.89268e-07
6.21305e-07
6.66575e-07
7.22883e-07
7.88249e-07
8.60794e-07
9.38704e-07
1.02024e-06
1.10373e-06
1.18763e-06
1.27052e-06
1.35112e-06
1.42833e-06
1.50123e-06
1.56907e-06
1.6313e-06
1.68754e-06
1.73757e-06
1.78133e-06
1.81889e-06
1.85044e-06
1.87624e-06
1.89666e-06
1.91209e-06
1.92297e-06
1.92977e-06
1.93294e-06
1.29915e-06
1.36376e-06
1.45508e-06
1.56873e-06
1.70076e-06
1.84747e-06
2.00525e-06
2.17064e-06
2.3403e-06
2.51104e-06
2.67994e-06
2.8443e-06
3.00177e-06
3.15034e-06
3.28837e-06
3.41463e-06
3.52824e-06
3.62874e-06
3.71601e-06
3.79023e-06
3.85187e-06
3.90163e-06
3.9404e-06
3.96918e-06
3.98905e-06
4.00115e-06
4.00664e-06
2.5569e-06
2.67189e-06
2.8342e-06
3.03588e-06
3.26979e-06
3.52918e-06
3.80755e-06
4.09862e-06
4.39635e-06
4.69505e-06
4.98942e-06
5.2747e-06
5.54671e-06
5.80195e-06
6.03767e-06
6.25184e-06
6.44317e-06
6.6111e-06
6.7557e-06
6.87751e-06
6.97753e-06
7.05719e-06
7.11823e-06
7.16264e-06
7.19263e-06
7.21043e-06
7.21823e-06
4.48203e-06
4.65816e-06
4.90581e-06
5.21193e-06
5.56476e-06
5.95323e-06
6.36685e-06
6.79567e-06
7.23038e-06
7.66242e-06
8.08413e-06
8.48887e-06
8.87113e-06
9.22658e-06
9.55205e-06
9.8452e-06
1.01048e-05
1.03305e-05
1.05228e-05
1.06831e-05
1.08133e-05
1.09158e-05
1.09932e-05
1.10488e-05
1.10857e-05
1.11071e-05
1.11163e-05
7.04031e-06
7.272e-06
7.59584e-06
7.99301e-06
8.44656e-06
8.94082e-06
9.46132e-06
9.99484e-06
1.05296e-05
1.10552e-05
1.15628e-05
1.20448e-05
1.24952e-05
1.29097e-05
1.32851e-05
1.362e-05
1.39139e-05
1.41673e-05
1.43815e-05
1.45586e-05
1.47013e-05
1.48126e-05
1.48962e-05
1.49557e-05
1.49949e-05
1.50174e-05
1.50269e-05
1.00442e-05
1.03109e-05
1.06813e-05
1.1132e-05
1.16421e-05
1.21926e-05
1.27668e-05
1.33493e-05
1.3927e-05
1.44887e-05
1.50253e-05
1.55297e-05
1.59966e-05
1.64224e-05
1.68051e-05
1.71438e-05
1.74389e-05
1.76917e-05
1.79041e-05
1.80789e-05
1.82189e-05
1.83278e-05
1.84091e-05
1.84668e-05
1.85046e-05
1.85263e-05
1.85354e-05
1.32615e-05
1.35394e-05
1.39234e-05
1.43875e-05
1.49083e-05
1.54653e-05
1.60404e-05
1.66181e-05
1.71853e-05
1.77317e-05
1.8249e-05
1.87312e-05
1.91742e-05
1.95753e-05
1.99334e-05
2.02486e-05
2.05218e-05
2.07548e-05
2.09499e-05
2.11099e-05
2.12378e-05
2.1337e-05
2.1411e-05
2.14634e-05
2.14978e-05
2.15175e-05
2.15258e-05
1.65146e-05
1.67812e-05
1.71477e-05
1.7588e-05
1.80787e-05
1.85996e-05
1.91331e-05
1.96647e-05
2.01827e-05
2.0678e-05
2.11436e-05
2.15748e-05
2.19686e-05
2.23233e-05
2.26385e-05
2.29148e-05
2.31535e-05
2.33565e-05
2.35262e-05
2.36652e-05
2.37763e-05
2.38627e-05
2.39272e-05
2.39729e-05
2.4003e-05
2.40204e-05
2.40278e-05
1.96391e-05
1.98776e-05
2.02042e-05
2.05946e-05
2.10274e-05
2.14841e-05
2.19491e-05
2.24097e-05
2.28558e-05
2.32801e-05
2.36769e-05
2.40427e-05
2.43753e-05
2.46739e-05
2.49385e-05
2.51698e-05
2.53694e-05
2.5539e-05
2.56807e-05
2.57968e-05
2.58899e-05
2.59624e-05
2.60168e-05
2.60556e-05
2.60813e-05
2.60963e-05
2.61027e-05
2.24926e-05
2.26936e-05
2.29683e-05
2.32954e-05
2.36567e-05
2.40363e-05
2.44211e-05
2.48008e-05
2.51671e-05
2.55141e-05
2.58376e-05
2.6135e-05
2.64047e-05
2.66464e-05
2.68602e-05
2.70471e-05
2.72082e-05
2.73452e-05
2.74599e-05
2.75542e-05
2.763e-05
2.76893e-05
2.77342e-05
2.77666e-05
2.77883e-05
2.78011e-05
2.78067e-05
2.49739e-05
2.51354e-05
2.53555e-05
2.56172e-05
2.59054e-05
2.62074e-05
2.65127e-05
2.68131e-05
2.71023e-05
2.73756e-05
2.763e-05
2.78634e-05
2.80749e-05
2.82643e-05
2.84319e-05
2.85784e-05
2.87049e-05
2.88126e-05
2.89031e-05
2.89777e-05
2.9038e-05
2.90855e-05
2.91217e-05
2.9148e-05
2.91658e-05
2.91765e-05
2.91813e-05
2.70378e-05
2.71624e-05
2.73321e-05
2.75335e-05
2.7755e-05
2.79867e-05
2.82206e-05
2.84503e-05
2.86711e-05
2.88796e-05
2.90734e-05
2.92512e-05
2.94123e-05
2.95566e-05
2.96844e-05
2.97964e-05
2.98933e-05
2.99761e-05
3.00459e-05
3.01038e-05
3.01509e-05
3.01882e-05
3.0217e-05
3.02381e-05
3.02526e-05
3.02615e-05
3.02655e-05
2.86881e-05
2.8781e-05
2.89074e-05
2.90574e-05
2.92221e-05
2.93941e-05
2.95676e-05
2.97379e-05
2.99014e-05
3.00556e-05
3.0199e-05
3.03306e-05
3.04499e-05
3.05569e-05
3.06519e-05
3.07353e-05
3.08078e-05
3.087e-05
3.09228e-05
3.09669e-05
3.1003e-05
3.1032e-05
3.10546e-05
3.10714e-05
3.10831e-05
3.10904e-05
3.10938e-05
2.99598e-05
3.00268e-05
3.0118e-05
3.02259e-05
3.03443e-05
3.04679e-05
3.05924e-05
3.07145e-05
3.08316e-05
3.09421e-05
3.10448e-05
3.11391e-05
3.12247e-05
3.13016e-05
3.13701e-05
3.14306e-05
3.14833e-05
3.1529e-05
3.1568e-05
3.16009e-05
3.16282e-05
3.16504e-05
3.16679e-05
3.16812e-05
3.16906e-05
3.16966e-05
3.16994e-05
3.09027e-05
3.09491e-05
3.10123e-05
3.10869e-05
3.11687e-05
3.12539e-05
3.13397e-05
3.14236e-05
3.1504e-05
3.15799e-05
3.16504e-05
3.17152e-05
3.17741e-05
3.18272e-05
3.18748e-05
3.19169e-05
3.19541e-05
3.19865e-05
3.20145e-05
3.20385e-05
3.20587e-05
3.20754e-05
3.20889e-05
3.20993e-05
3.21069e-05
3.21118e-05
3.21142e-05
3.15692e-05
3.15996e-05
3.1641e-05
3.16897e-05
3.1743e-05
3.17984e-05
3.18539e-05
3.19081e-05
3.196e-05
3.20088e-05
3.20541e-05
3.20959e-05
3.21339e-05
3.21684e-05
3.21995e-05
3.22273e-05
3.22522e-05
3.22742e-05
3.22936e-05
3.23105e-05
3.2325e-05
3.23374e-05
3.23476e-05
3.23557e-05
3.23617e-05
3.23657e-05
3.23678e-05
3.20088e-05
3.20269e-05
3.20515e-05
3.20803e-05
3.21116e-05
3.2144e-05
3.21762e-05
3.22074e-05
3.22372e-05
3.22651e-05
3.2291e-05
3.23148e-05
3.23367e-05
3.23567e-05
3.23749e-05
3.23916e-05
3.24068e-05
3.24207e-05
3.24333e-05
3.24446e-05
3.24547e-05
3.24636e-05
3.24712e-05
3.24774e-05
3.24823e-05
3.24856e-05
3.24873e-05
3.22649e-05
3.22737e-05
3.22854e-05
3.2299e-05
3.23135e-05
3.23282e-05
3.23426e-05
3.23562e-05
3.2369e-05
3.23808e-05
3.23917e-05
3.24017e-05
3.24111e-05
3.24199e-05
3.24282e-05
3.24362e-05
3.24439e-05
3.24514e-05
3.24587e-05
3.24657e-05
3.24723e-05
3.24784e-05
3.24839e-05
3.24887e-05
3.24925e-05
3.24953e-05
3.24967e-05
3.23745e-05
3.23761e-05
3.23781e-05
3.23801e-05
3.23818e-05
3.2383e-05
3.23837e-05
3.23839e-05
3.23837e-05
3.23831e-05
3.23825e-05
3.2382e-05
3.23817e-05
3.23819e-05
3.23826e-05
3.23839e-05
3.23858e-05
3.23884e-05
3.23915e-05
3.23951e-05
3.23989e-05
3.24029e-05
3.24068e-05
3.24104e-05
3.24134e-05
3.24156e-05
3.24169e-05
3.2368e-05
3.23642e-05
3.23588e-05
3.2352e-05
3.23439e-05
3.23349e-05
3.23253e-05
3.23152e-05
3.2305e-05
3.22951e-05
3.22857e-05
3.22771e-05
3.22695e-05
3.22631e-05
3.22579e-05
3.2254e-05
3.22515e-05
3.22503e-05
3.22502e-05
3.22511e-05
3.22528e-05
3.2255e-05
3.22576e-05
3.22603e-05
3.22626e-05
3.22645e-05
3.22656e-05
3.22703e-05
3.22624e-05
3.22514e-05
3.22379e-05
3.22225e-05
3.22058e-05
3.21882e-05
3.21704e-05
3.21528e-05
3.21357e-05
3.21197e-05
3.21049e-05
3.20917e-05
3.20802e-05
3.20706e-05
3.20628e-05
3.20568e-05
3.20526e-05
3.20501e-05
3.20489e-05
3.2049e-05
3.20499e-05
3.20515e-05
3.20533e-05
3.20552e-05
3.20567e-05
3.20577e-05
3.21014e-05
3.20905e-05
3.20753e-05
3.20568e-05
3.20359e-05
3.20133e-05
3.19899e-05
3.19662e-05
3.19429e-05
3.19205e-05
3.18994e-05
3.188e-05
3.18626e-05
3.18473e-05
3.18342e-05
3.18235e-05
3.18149e-05
3.18085e-05
3.18041e-05
3.18013e-05
3.18001e-05
3.18e-05
3.18007e-05
3.1802e-05
3.18035e-05
3.18047e-05
3.18055e-05
3.18776e-05
3.18644e-05
3.18461e-05
3.18238e-05
3.17988e-05
3.17719e-05
3.1744e-05
3.1716e-05
3.16885e-05
3.16621e-05
3.16373e-05
3.16144e-05
3.15938e-05
3.15757e-05
3.15601e-05
3.15471e-05
3.15366e-05
3.15285e-05
3.15226e-05
3.15187e-05
3.15164e-05
3.15155e-05
3.15157e-05
3.15165e-05
3.15176e-05
3.15187e-05
3.15194e-05
3.16117e-05
3.15968e-05
3.15762e-05
3.15512e-05
3.15231e-05
3.1493e-05
3.14619e-05
3.14307e-05
3.14001e-05
3.13707e-05
3.13432e-05
3.13178e-05
3.12949e-05
3.12747e-05
3.12572e-05
3.12426e-05
3.12306e-05
3.12213e-05
3.12143e-05
3.12095e-05
3.12065e-05
3.1205e-05
3.12046e-05
3.1205e-05
3.12059e-05
3.12068e-05
3.12074e-05
3.1314e-05
3.12978e-05
3.12755e-05
3.12486e-05
3.12183e-05
3.11859e-05
3.11524e-05
3.11189e-05
3.10861e-05
3.10547e-05
3.10251e-05
3.09979e-05
3.09734e-05
3.09516e-05
3.09329e-05
3.0917e-05
3.0904e-05
3.08938e-05
3.0886e-05
3.08805e-05
3.0877e-05
3.0875e-05
3.08743e-05
3.08744e-05
3.08751e-05
3.08758e-05
3.08764e-05
3.09926e-05
3.09756e-05
3.09521e-05
3.09237e-05
3.08919e-05
3.08579e-05
3.08228e-05
3.07877e-05
3.07533e-05
3.07204e-05
3.06895e-05
3.06611e-05
3.06354e-05
3.06126e-05
3.05929e-05
3.05762e-05
3.05625e-05
3.05516e-05
3.05433e-05
3.05373e-05
3.05334e-05
3.05311e-05
3.05301e-05
3.053e-05
3.05305e-05
3.05311e-05
3.05317e-05
3.06539e-05
3.06363e-05
3.06121e-05
3.05827e-05
3.05499e-05
3.05148e-05
3.04787e-05
3.04425e-05
3.04071e-05
3.03732e-05
3.03415e-05
3.03122e-05
3.02858e-05
3.02623e-05
3.0242e-05
3.02248e-05
3.02106e-05
3.01993e-05
3.01906e-05
3.01843e-05
3.01801e-05
3.01775e-05
3.01763e-05
3.01761e-05
3.01764e-05
3.0177e-05
3.01775e-05
3.03032e-05
3.02852e-05
3.02604e-05
3.02306e-05
3.01971e-05
3.01613e-05
3.01245e-05
3.00877e-05
3.00517e-05
3.00173e-05
2.9985e-05
2.99553e-05
2.99284e-05
2.99046e-05
2.9884e-05
2.98664e-05
2.9852e-05
2.98404e-05
2.98315e-05
2.9825e-05
2.98205e-05
2.98178e-05
2.98165e-05
2.98161e-05
2.98164e-05
2.98169e-05
2.98173e-05
2.99444e-05
2.99262e-05
2.99012e-05
2.9871e-05
2.98372e-05
2.98011e-05
2.9764e-05
2.97269e-05
2.96906e-05
2.9656e-05
2.96234e-05
2.95935e-05
2.95664e-05
2.95425e-05
2.95217e-05
2.9504e-05
2.94894e-05
2.94777e-05
2.94687e-05
2.9462e-05
2.94575e-05
2.94547e-05
2.94532e-05
2.94528e-05
2.9453e-05
2.94535e-05
2.94539e-05
2.95807e-05
2.95625e-05
2.95373e-05
2.9507e-05
2.94731e-05
2.9437e-05
2.93998e-05
2.93627e-05
2.93264e-05
2.92917e-05
2.92592e-05
2.92293e-05
2.92022e-05
2.91783e-05
2.91575e-05
2.91398e-05
2.91252e-05
2.91135e-05
2.91044e-05
2.90978e-05
2.90932e-05
2.90903e-05
2.90888e-05
2.90883e-05
2.90885e-05
2.90889e-05
2.90893e-05
2.92146e-05
2.91964e-05
2.91713e-05
2.91411e-05
2.91073e-05
2.90713e-05
2.90343e-05
2.89973e-05
2.89612e-05
2.89267e-05
2.88943e-05
2.88646e-05
2.88377e-05
2.88139e-05
2.87932e-05
2.87757e-05
2.87611e-05
2.87495e-05
2.87405e-05
2.87338e-05
2.87292e-05
2.87264e-05
2.87248e-05
2.87243e-05
2.87245e-05
2.87249e-05
2.87252e-05
2.8848e-05
2.883e-05
2.88051e-05
2.87751e-05
2.87415e-05
2.87058e-05
2.86691e-05
2.86324e-05
2.85966e-05
2.85624e-05
2.85304e-05
2.85009e-05
2.84743e-05
2.84508e-05
2.84303e-05
2.8413e-05
2.83986e-05
2.83871e-05
2.83782e-05
2.83716e-05
2.8367e-05
2.83642e-05
2.83627e-05
2.83622e-05
2.83623e-05
2.83627e-05
2.8363e-05
2.84826e-05
2.84647e-05
2.84401e-05
2.84104e-05
2.83772e-05
2.83419e-05
2.83056e-05
2.82693e-05
2.8234e-05
2.82002e-05
2.81686e-05
2.81395e-05
2.81133e-05
2.80901e-05
2.80699e-05
2.80528e-05
2.80387e-05
2.80274e-05
2.80186e-05
2.80121e-05
2.80076e-05
2.80048e-05
2.80033e-05
2.80028e-05
2.80029e-05
2.80033e-05
2.80037e-05
2.81194e-05
2.81018e-05
2.80775e-05
2.80482e-05
2.80155e-05
2.79806e-05
2.79448e-05
2.79091e-05
2.78743e-05
2.7841e-05
2.78099e-05
2.77813e-05
2.77555e-05
2.77327e-05
2.77129e-05
2.76961e-05
2.76823e-05
2.76712e-05
2.76626e-05
2.76562e-05
2.76519e-05
2.76491e-05
2.76477e-05
2.76472e-05
2.76473e-05
2.76477e-05
2.76481e-05
2.77596e-05
2.77422e-05
2.77182e-05
2.76894e-05
2.76572e-05
2.76229e-05
2.75877e-05
2.75525e-05
2.75183e-05
2.74857e-05
2.74551e-05
2.7427e-05
2.74017e-05
2.73794e-05
2.736e-05
2.73436e-05
2.733e-05
2.73192e-05
2.73108e-05
2.73046e-05
2.73004e-05
2.72977e-05
2.72963e-05
2.72959e-05
2.7296e-05
2.72964e-05
2.72968e-05
2.74036e-05
2.73866e-05
2.7363e-05
2.73347e-05
2.7303e-05
2.72693e-05
2.72348e-05
2.72003e-05
2.71667e-05
2.71347e-05
2.71048e-05
2.70773e-05
2.70525e-05
2.70307e-05
2.70117e-05
2.69957e-05
2.69825e-05
2.69719e-05
2.69638e-05
2.69578e-05
2.69537e-05
2.69511e-05
2.69498e-05
2.69494e-05
2.69496e-05
2.695e-05
2.69503e-05
2.70523e-05
2.70355e-05
2.70124e-05
2.69846e-05
2.69536e-05
2.69206e-05
2.68867e-05
2.68529e-05
2.682e-05
2.67887e-05
2.67594e-05
2.67326e-05
2.67084e-05
2.6687e-05
2.66686e-05
2.6653e-05
2.66401e-05
2.66299e-05
2.6622e-05
2.66162e-05
2.66123e-05
2.66098e-05
2.66086e-05
2.66083e-05
2.66085e-05
2.66089e-05
2.66092e-05
2.6706e-05
2.66896e-05
2.6667e-05
2.66397e-05
2.66093e-05
2.6577e-05
2.65439e-05
2.65108e-05
2.64787e-05
2.64481e-05
2.64195e-05
2.63933e-05
2.63697e-05
2.63489e-05
2.6331e-05
2.63158e-05
2.63033e-05
2.62934e-05
2.62858e-05
2.62803e-05
2.62765e-05
2.62742e-05
2.62731e-05
2.62728e-05
2.62731e-05
2.62735e-05
2.62739e-05
2.63653e-05
2.63492e-05
2.6327e-05
2.63004e-05
2.62707e-05
2.6239e-05
2.62067e-05
2.61744e-05
2.6143e-05
2.61132e-05
2.60853e-05
2.60598e-05
2.60369e-05
2.60167e-05
2.59992e-05
2.59846e-05
2.59725e-05
2.5963e-05
2.59557e-05
2.59504e-05
2.59468e-05
2.59447e-05
2.59437e-05
2.59434e-05
2.59437e-05
2.59442e-05
2.59446e-05
2.60303e-05
2.60146e-05
2.5993e-05
2.5967e-05
2.59379e-05
2.59071e-05
2.58755e-05
2.5844e-05
2.58135e-05
2.57844e-05
2.57573e-05
2.57325e-05
2.57102e-05
2.56907e-05
2.56738e-05
2.56596e-05
2.5648e-05
2.56388e-05
2.56319e-05
2.56268e-05
2.56235e-05
2.56215e-05
2.56207e-05
2.56205e-05
2.56209e-05
2.56214e-05
2.56218e-05
2.57016e-05
2.56863e-05
2.56652e-05
2.56398e-05
2.56115e-05
2.55814e-05
2.55507e-05
2.55201e-05
2.54903e-05
2.54621e-05
2.54358e-05
2.54117e-05
2.53902e-05
2.53713e-05
2.5355e-05
2.53414e-05
2.53302e-05
2.53215e-05
2.53148e-05
2.53101e-05
2.5307e-05
2.53052e-05
2.53045e-05
2.53045e-05
2.53049e-05
2.53055e-05
2.53059e-05
2.53795e-05
2.53646e-05
2.5344e-05
2.53193e-05
2.52918e-05
2.52625e-05
2.52326e-05
2.52029e-05
2.5174e-05
2.51467e-05
2.51212e-05
2.50979e-05
2.50771e-05
2.50589e-05
2.50433e-05
2.50302e-05
2.50196e-05
2.50113e-05
2.50051e-05
2.50007e-05
2.49978e-05
2.49963e-05
2.49957e-05
2.49958e-05
2.49963e-05
2.49969e-05
2.49973e-05
2.50644e-05
2.50499e-05
2.50299e-05
2.50059e-05
2.49792e-05
2.49508e-05
2.49218e-05
2.4893e-05
2.48651e-05
2.48386e-05
2.4814e-05
2.47916e-05
2.47716e-05
2.47541e-05
2.47392e-05
2.47267e-05
2.47167e-05
2.47089e-05
2.47031e-05
2.4699e-05
2.46965e-05
2.46952e-05
2.46948e-05
2.46951e-05
2.46957e-05
2.46963e-05
2.46968e-05
2.47568e-05
2.47427e-05
2.47234e-05
2.47001e-05
2.46742e-05
2.46467e-05
2.46187e-05
2.45909e-05
2.45639e-05
2.45384e-05
2.45148e-05
2.44933e-05
2.44742e-05
2.44575e-05
2.44433e-05
2.44315e-05
2.44221e-05
2.44148e-05
2.44095e-05
2.44058e-05
2.44037e-05
2.44026e-05
2.44025e-05
2.44029e-05
2.44036e-05
2.44044e-05
2.44048e-05
2.44572e-05
2.44436e-05
2.44249e-05
2.44024e-05
2.43774e-05
2.43509e-05
2.43239e-05
2.42971e-05
2.42713e-05
2.42468e-05
2.42242e-05
2.42037e-05
2.41855e-05
2.41697e-05
2.41563e-05
2.41453e-05
2.41366e-05
2.41299e-05
2.41251e-05
2.41219e-05
2.41201e-05
2.41194e-05
2.41195e-05
2.41202e-05
2.4121e-05
2.41218e-05
2.41224e-05
2.41664e-05
2.41533e-05
2.41352e-05
2.41136e-05
2.40896e-05
2.40642e-05
2.40382e-05
2.40126e-05
2.39879e-05
2.39646e-05
2.39431e-05
2.39236e-05
2.39065e-05
2.38917e-05
2.38792e-05
2.3869e-05
2.3861e-05
2.3855e-05
2.38508e-05
2.38482e-05
2.38469e-05
2.38466e-05
2.3847e-05
2.38478e-05
2.38489e-05
2.38498e-05
2.38504e-05
2.38851e-05
2.38725e-05
2.38552e-05
2.38345e-05
2.38115e-05
2.37872e-05
2.37625e-05
2.37381e-05
2.37147e-05
2.36926e-05
2.36724e-05
2.36541e-05
2.36381e-05
2.36244e-05
2.3613e-05
2.36037e-05
2.35966e-05
2.35914e-05
2.35879e-05
2.35859e-05
2.35851e-05
2.35852e-05
2.3586e-05
2.35871e-05
2.35884e-05
2.35894e-05
2.35901e-05
2.36142e-05
2.36022e-05
2.35858e-05
2.35661e-05
2.35442e-05
2.35212e-05
2.34979e-05
2.34749e-05
2.34528e-05
2.34322e-05
2.34133e-05
2.33964e-05
2.33817e-05
2.33692e-05
2.33589e-05
2.33508e-05
2.33446e-05
2.33403e-05
2.33377e-05
2.33364e-05
2.33362e-05
2.33368e-05
2.3338e-05
2.33395e-05
2.33409e-05
2.33422e-05
2.33429e-05
2.33549e-05
2.33436e-05
2.33281e-05
2.33095e-05
2.3289e-05
2.32674e-05
2.32455e-05
2.3224e-05
2.32036e-05
2.31845e-05
2.31672e-05
2.31518e-05
2.31386e-05
2.31275e-05
2.31186e-05
2.31117e-05
2.31067e-05
2.31034e-05
2.31017e-05
2.31012e-05
2.31018e-05
2.3103e-05
2.31047e-05
2.31066e-05
2.31083e-05
2.31097e-05
2.31105e-05
2.31086e-05
2.3098e-05
2.30835e-05
2.30662e-05
2.30471e-05
2.30271e-05
2.30069e-05
2.29872e-05
2.29686e-05
2.29513e-05
2.29358e-05
2.29222e-05
2.29106e-05
2.29012e-05
2.28938e-05
2.28883e-05
2.28847e-05
2.28826e-05
2.2882e-05
2.28825e-05
2.28839e-05
2.28858e-05
2.28881e-05
2.28905e-05
2.28926e-05
2.28942e-05
2.28951e-05
2.28767e-05
2.28669e-05
2.28536e-05
2.28378e-05
2.28203e-05
2.28022e-05
2.27839e-05
2.27663e-05
2.27496e-05
2.27345e-05
2.2721e-05
2.27094e-05
2.26998e-05
2.26923e-05
2.26867e-05
2.26829e-05
2.26808e-05
2.26802e-05
2.26808e-05
2.26825e-05
2.26849e-05
2.26877e-05
2.26907e-05
2.26935e-05
2.2696e-05
2.26979e-05
2.2699e-05
2.26611e-05
2.26523e-05
2.26404e-05
2.26262e-05
2.26106e-05
2.25945e-05
2.25785e-05
2.25632e-05
2.2549e-05
2.25362e-05
2.25252e-05
2.2516e-05
2.25087e-05
2.25033e-05
2.24998e-05
2.2498e-05
2.24977e-05
2.24988e-05
2.2501e-05
2.25039e-05
2.25075e-05
2.25113e-05
2.25151e-05
2.25186e-05
2.25216e-05
2.25237e-05
2.25249e-05
2.2464e-05
2.24563e-05
2.24459e-05
2.24336e-05
2.24203e-05
2.24066e-05
2.23933e-05
2.23807e-05
2.23692e-05
2.23593e-05
2.23511e-05
2.23446e-05
2.234e-05
2.23373e-05
2.23362e-05
2.23367e-05
2.23386e-05
2.23417e-05
2.23456e-05
2.23501e-05
2.2355e-05
2.236e-05
2.23647e-05
2.2369e-05
2.23725e-05
2.2375e-05
2.23764e-05
2.22878e-05
2.22814e-05
2.22728e-05
2.22628e-05
2.22521e-05
2.22413e-05
2.2231e-05
2.22216e-05
2.22135e-05
2.22069e-05
2.2202e-05
2.21989e-05
2.21975e-05
2.21978e-05
2.21997e-05
2.22029e-05
2.22073e-05
2.22127e-05
2.22186e-05
2.2225e-05
2.22315e-05
2.22378e-05
2.22436e-05
2.22487e-05
2.22528e-05
2.22557e-05
2.22573e-05
2.21355e-05
2.21307e-05
2.21243e-05
2.21169e-05
2.21093e-05
2.2102e-05
2.20954e-05
2.20899e-05
2.20857e-05
2.20832e-05
2.20823e-05
2.2083e-05
2.20854e-05
2.20894e-05
2.20947e-05
2.21011e-05
2.21085e-05
2.21165e-05
2.21249e-05
2.21333e-05
2.21416e-05
2.21494e-05
2.21564e-05
2.21625e-05
2.21673e-05
2.21707e-05
2.21724e-05
2.20109e-05
2.2008e-05
2.20042e-05
2.20001e-05
2.19963e-05
2.19931e-05
2.1991e-05
2.19901e-05
2.19908e-05
2.1993e-05
2.19969e-05
2.20023e-05
2.20092e-05
2.20174e-05
2.20268e-05
2.2037e-05
2.20477e-05
2.20588e-05
2.20699e-05
2.20808e-05
2.20911e-05
2.21006e-05
2.21089e-05
2.2116e-05
2.21216e-05
2.21254e-05
2.21274e-05
2.19188e-05
2.19181e-05
2.19176e-05
2.19175e-05
2.19183e-05
2.19202e-05
2.19234e-05
2.19282e-05
2.19346e-05
2.19426e-05
2.19522e-05
2.19632e-05
2.19754e-05
2.19886e-05
2.20026e-05
2.20171e-05
2.20317e-05
2.20463e-05
2.20604e-05
2.20739e-05
2.20864e-05
2.20977e-05
2.21075e-05
2.21156e-05
2.2122e-05
2.21263e-05
2.21285e-05
2.18652e-05
2.18674e-05
2.18708e-05
2.18756e-05
2.18819e-05
2.18899e-05
2.18997e-05
2.19112e-05
2.19244e-05
2.19392e-05
2.19554e-05
2.19727e-05
2.1991e-05
2.20098e-05
2.2029e-05
2.20482e-05
2.20671e-05
2.20853e-05
2.21027e-05
2.21188e-05
2.21336e-05
2.21467e-05
2.21579e-05
2.21671e-05
2.21742e-05
2.21789e-05
2.21814e-05
2.18574e-05
2.18629e-05
2.1871e-05
2.18815e-05
2.18944e-05
2.19096e-05
2.19268e-05
2.1946e-05
2.19669e-05
2.19892e-05
2.20126e-05
2.20369e-05
2.20615e-05
2.20863e-05
2.21108e-05
2.21347e-05
2.21577e-05
2.21795e-05
2.21998e-05
2.22185e-05
2.22352e-05
2.22499e-05
2.22623e-05
2.22723e-05
2.22799e-05
2.2285e-05
2.22876e-05
2.19024e-05
2.19116e-05
2.19249e-05
2.19418e-05
2.19618e-05
2.19846e-05
2.20097e-05
2.20369e-05
2.20656e-05
2.20954e-05
2.21258e-05
2.21566e-05
2.21871e-05
2.22172e-05
2.22463e-05
2.22741e-05
2.23005e-05
2.2325e-05
2.23476e-05
2.2368e-05
2.2386e-05
2.24015e-05
2.24146e-05
2.2425e-05
2.24328e-05
2.2438e-05
2.24406e-05
2.20034e-05
2.20164e-05
2.20347e-05
2.20577e-05
2.20844e-05
2.21142e-05
2.21465e-05
2.21807e-05
2.2216e-05
2.2252e-05
2.22881e-05
2.23238e-05
2.23588e-05
2.23925e-05
2.24247e-05
2.24551e-05
2.24835e-05
2.25095e-05
2.25332e-05
2.25544e-05
2.2573e-05
2.25889e-05
2.26022e-05
2.26129e-05
2.26209e-05
2.26263e-05
2.26289e-05
2.21552e-05
2.21711e-05
2.21935e-05
2.22211e-05
2.22529e-05
2.2288e-05
2.23255e-05
2.23645e-05
2.24045e-05
2.24448e-05
2.24849e-05
2.25245e-05
2.2563e-05
2.26003e-05
2.26359e-05
2.26692e-05
2.26999e-05
2.27278e-05