/*--------------------------------*- C++ -*----------------------------------*\
| =========                 |                                                 |
| \\      /  F ield         | OpenFOAM: The Open Source CFD Toolbox           |
|  \\    /   O peration     | Version:  2106                                  |
|   \\  /    A nd           | Website:  www.openfoam.com                      |
|    \\/     M anipulation  |                                                 |
\*---------------------------------------------------------------------------*/
FoamFile
{
    version     2.0;
    format      ascii;
    arch        "LSB;label=32;scalar=64";
    class       volScalarField;
    location    "200.00032";
    object      C6H6;
}
// * * * * * * * * * * * * * * * * * * * * * * * * * * * * * * * * * * * * * //

dimensions      [0 0 0 0 0 0 0];

internalField   nonuniform List<scalar> 
3360
(
4.54405e-23
4.82833e-23
5.22862e-23
5.72603e-23
6.30408e-23
6.94735e-23
7.64101e-23
8.37069e-23
9.12248e-23
9.88309e-23
1.06401e-22
1.13821e-22
1.20988e-22
1.27815e-22
1.34227e-22
1.40165e-22
1.45583e-22
1.5045e-22
1.54748e-22
1.58472e-22
1.61628e-22
1.6423e-22
1.66304e-22
1.67881e-22
1.68998e-22
1.69696e-22
1.70022e-22
2.29769e-22
2.45668e-22
2.68396e-22
2.972e-22
3.3151e-22
3.70844e-22
4.14764e-22
4.6285e-22
5.14676e-22
5.69795e-22
6.27727e-22
6.8795e-22
7.49889e-22
8.12914e-22
8.76344e-22
9.39453e-22
1.00147e-21
1.06158e-21
1.11894e-21
1.1727e-21
1.22202e-21
1.26607e-21
1.30411e-21
1.33544e-21
1.35948e-21
1.37579e-21
1.38403e-21
8.78042e-22
9.50243e-22
1.05473e-21
1.1893e-21
1.35252e-21
1.54328e-21
1.76047e-21
2.00273e-21
2.26833e-21
2.555e-21
2.8599e-21
3.1796e-21
3.51022e-21
3.84743e-21
4.18651e-21
4.52244e-21
4.85006e-21
5.16423e-21
5.45995e-21
5.73261e-21
5.97805e-21
6.19277e-21
6.37399e-21
6.51971e-21
6.62879e-21
6.70086e-21
6.73635e-21
3.17167e-21
3.4695e-21
3.90597e-21
4.47598e-21
5.17763e-21
6.00968e-21
6.96998e-21
8.05423e-21
9.25529e-21
1.05626e-20
1.1962e-20
1.3436e-20
1.49637e-20
1.65219e-20
1.80852e-20
1.96271e-20
2.11212e-20
2.25422e-20
2.38668e-20
2.50748e-20
2.61495e-20
2.70783e-20
2.78525e-20
2.84674e-20
2.89222e-20
2.92192e-20
2.93639e-20
1.17848e-20
1.30004e-20
1.47934e-20
1.71526e-20
2.00791e-20
2.35749e-20
2.76353e-20
3.2244e-20
3.73687e-20
4.29596e-20
4.89492e-20
5.52536e-20
6.1775e-20
6.84056e-20
7.50314e-20
8.15371e-20
8.78106e-20
9.37476e-20
9.92551e-20
1.04254e-19
1.08683e-19
1.12494e-19
1.15658e-19
1.18163e-19
1.2001e-19
1.21213e-19
1.21797e-19
4.49329e-20
4.98481e-20
5.71268e-20
6.67436e-20
7.87183e-20
9.30686e-20
1.09779e-19
1.28781e-19
1.49935e-19
1.73025e-19
1.97759e-19
2.23777e-19
2.50657e-19
2.77943e-19
3.05154e-19
3.31811e-19
3.57455e-19
3.81662e-19
4.04063e-19
4.24348e-19
4.42272e-19
4.57665e-19
4.70419e-19
4.80495e-19
4.8791e-19
4.92731e-19
4.9507e-19
1.74204e-19
1.93981e-19
2.2333e-19
2.62196e-19
3.10695e-19
3.68916e-19
4.36796e-19
5.14028e-19
6.00017e-19
6.93846e-19
7.94288e-19
8.99835e-19
1.00876e-18
1.11917e-18
1.22914e-18
1.33672e-18
1.44007e-18
1.53751e-18
1.62757e-18
1.70903e-18
1.78095e-18
1.84265e-18
1.89373e-18
1.93406e-18
1.96372e-18
1.983e-18
1.99235e-18
6.81893e-19
7.60908e-19
8.78333e-19
1.03405e-18
1.22862e-18
1.46244e-18
1.7353e-18
2.04596e-18
2.39197e-18
2.76957e-18
3.17372e-18
3.59827e-18
4.03618e-18
4.47984e-18
4.92139e-18
5.35303e-18
5.76738e-18
6.15773e-18
6.51821e-18
6.84401e-18
7.13139e-18
7.37776e-18
7.58159e-18
7.74239e-18
7.86056e-18
7.93732e-18
7.97452e-18
2.68559e-18
3.00113e-18
3.47035e-18
4.09301e-18
4.87149e-18
5.80748e-18
6.90001e-18
8.14399e-18
9.52933e-18
1.10407e-17
1.26577e-17
1.43555e-17
1.61057e-17
1.78778e-17
1.96404e-17
2.13625e-17
2.30147e-17
2.45703e-17
2.60063e-17
2.73036e-17
2.84475e-17
2.94278e-17
3.02387e-17
3.08783e-17
3.13483e-17
3.16535e-17
3.18014e-17
1.05959e-17
1.18506e-17
1.37174e-17
1.61962e-17
1.92969e-17
2.30267e-17
2.73817e-17
3.23415e-17
3.78653e-17
4.38915e-17
5.0338e-17
5.71052e-17
6.40794e-17
7.11387e-17
7.81575e-17
8.5012e-17
9.15855e-17
9.77723e-17
1.03481e-16
1.08635e-16
1.13178e-16
1.1707e-16
1.20287e-16
1.22824e-16
1.24687e-16
1.25897e-16
1.26483e-16
4.18746e-17
4.68633e-17
5.4287e-17
6.41456e-17
7.64789e-17
9.13153e-17
1.08638e-16
1.28363e-16
1.50326e-16
1.7428e-16
1.99894e-16
2.2677e-16
2.54456e-16
2.82467e-16
3.10303e-16
3.37476e-16
3.63523e-16
3.88027e-16
4.10627e-16
4.31028e-16
4.49003e-16
4.64396e-16
4.7712e-16
4.87149e-16
4.94515e-16
4.99295e-16
5.01611e-16
1.6532e-16
1.85094e-16
2.14524e-16
2.53612e-16
3.02514e-16
3.61339e-16
4.30014e-16
5.082e-16
5.95237e-16
6.90129e-16
7.91564e-16
8.97954e-16
1.0075e-15
1.11828e-15
1.22831e-15
1.33567e-15
1.43852e-15
1.53523e-15
1.62437e-15
1.7048e-15
1.77563e-15
1.83626e-15
1.88634e-15
1.92581e-15
1.95478e-15
1.97357e-15
1.98267e-15
6.5196e-16
7.30246e-16
8.46746e-16
1.00144e-15
1.19492e-15
1.42757e-15
1.69905e-15
2.00794e-15
2.35157e-15
2.72596e-15
3.12586e-15
3.54497e-15
3.97618e-15
4.41189e-15
4.84433e-15
5.26592e-15
5.66953e-15
6.04876e-15
6.39811e-15
6.71309e-15
6.99032e-15
7.22748e-15
7.42333e-15
7.57756e-15
7.69074e-15
7.76414e-15
7.79967e-15
2.56088e-15
2.8693e-15
3.32819e-15
3.9374e-15
4.69908e-15
5.61455e-15
6.68217e-15
7.89612e-15
9.24554e-15
1.07144e-14
1.22819e-14
1.3923e-14
1.56098e-14
1.73122e-14
1.90001e-14
2.06437e-14
2.22156e-14
2.3691e-14
2.50487e-14
2.62717e-14
2.73471e-14
2.82663e-14
2.90247e-14
2.96216e-14
3.00592e-14
3.03429e-14
3.04801e-14
1.0013e-14
1.12225e-14
1.30213e-14
1.5408e-14
1.839e-14
2.19708e-14
2.61424e-14
3.08801e-14
3.61395e-14
4.18562e-14
4.79473e-14
5.43143e-14
6.08476e-14
6.7431e-14
7.39473e-14
8.0283e-14
8.63326e-14
9.20024e-14
9.72129e-14
1.019e-13
1.06016e-13
1.09531e-13
1.12428e-13
1.14705e-13
1.16374e-13
1.17455e-13
1.17977e-13
3.8865e-14
4.35678e-14
5.05578e-14
5.98243e-14
7.13895e-14
8.52593e-14
1.01393e-13
1.19686e-13
1.39956e-13
1.61946e-13
1.85328e-13
2.09718e-13
2.34691e-13
2.59801e-13
2.84602e-13
3.08664e-13
3.31592e-13
3.53037e-13
3.72707e-13
3.90369e-13
4.05853e-13
4.19052e-13
4.29915e-13
4.38443e-13
4.44683e-13
4.4872e-13
4.5067e-13
1.49469e-13
1.67559e-13
1.94421e-13
2.29983e-13
2.74295e-13
3.27334e-13
3.88896e-13
4.58524e-13
5.35476e-13
6.18725e-13
7.0699e-13
7.98786e-13
8.92494e-13
9.86437e-13
1.07895e-12
1.16845e-12
1.25349e-12
1.33283e-12
1.40541e-12
1.47043e-12
1.5273e-12
1.57569e-12
1.61543e-12
1.64657e-12
1.66933e-12
1.68403e-12
1.69112e-12
5.68126e-13
6.36699e-13
7.38371e-13
8.72717e-13
1.03971e-12
1.23905e-12
1.4697e-12
1.72969e-12
2.01598e-12
2.32452e-12
2.65038e-12
2.98794e-12
3.33118e-12
3.67393e-12
4.01018e-12
4.33429e-12
4.64118e-12
4.9265e-12
5.18671e-12
5.41911e-12
5.62185e-12
5.79387e-12
5.93485e-12
6.04511e-12
6.12551e-12
6.17737e-12
6.20233e-12
2.12888e-12
2.38392e-12
2.76128e-12
3.25852e-12
3.87454e-12
4.60702e-12
5.45095e-12
6.39787e-12
7.43558e-12
8.54838e-12
9.71769e-12
1.09229e-11
1.21422e-11
1.3354e-11
1.45371e-11
1.56724e-11
1.67428e-11
1.7734e-11
1.86345e-11
1.9436e-11
2.0133e-11
2.07227e-11
2.12046e-11
2.15806e-11
2.18542e-11
2.20304e-11
2.2115e-11
7.84168e-12
8.76738e-12
1.01331e-11
1.1926e-11
1.41372e-11
1.67531e-11
1.97504e-11
2.30936e-11
2.67351e-11
3.0616e-11
3.46687e-11
3.88202e-11
4.29954e-11
4.71206e-11
5.11264e-11
5.49501e-11
5.85377e-11
6.18446e-11
6.48365e-11
6.7489e-11
6.97874e-11
7.17256e-11
7.33051e-11
7.45342e-11
7.54265e-11
7.59997e-11
7.62747e-11
2.83139e-11
3.15744e-11
3.63668e-11
4.26275e-11
5.03047e-11
5.93287e-11
6.95973e-11
8.0969e-11
9.32644e-11
1.06272e-10
1.19757e-10
1.33475e-10
1.47177e-10
1.60629e-10
1.73612e-10
1.85934e-10
1.97435e-10
2.07984e-10
2.17486e-10
2.25876e-10
2.33118e-10
2.39205e-10
2.44151e-10
2.4799e-10
2.5077e-10
2.52552e-10
2.53405e-10
9.98851e-11
1.1096e-10
1.27164e-10
1.48206e-10
1.7383e-10
2.03721e-10
2.37461e-10
2.74517e-10
3.14253e-10
3.55949e-10
3.98836e-10
4.4213e-10
4.85068e-10
5.26936e-10
5.67091e-10
6.04983e-10
6.40157e-10
6.72264e-10
7.01054e-10
7.26371e-10
7.48148e-10
7.6639e-10
7.81169e-10
7.92609e-10
8.00876e-10
8.06164e-10
8.08693e-10
3.43053e-10
3.79122e-10
4.3161e-10
4.99307e-10
5.81101e-10
6.75707e-10
7.81557e-10
8.96785e-10
1.01927e-09
1.14671e-09
1.27673e-09
1.40699e-09
1.53525e-09
1.65949e-09
1.77792e-09
1.88905e-09
1.99169e-09
2.08494e-09
2.1682e-09
2.24115e-09
2.30369e-09
2.35591e-09
2.39811e-09
2.4307e-09
2.4542e-09
2.4692e-09
2.47637e-09
1.14213e-09
1.25418e-09
1.41631e-09
1.62391e-09
1.87269e-09
2.15794e-09
2.47426e-09
2.81558e-09
3.1753e-09
3.54653e-09
3.92238e-09
4.29622e-09
4.66191e-09
5.01398e-09
5.34773e-09
5.65932e-09
5.94578e-09
6.20498e-09
6.43557e-09
6.63692e-09
6.80901e-09
6.95236e-09
7.06791e-09
7.15697e-09
7.22106e-09
7.26193e-09
7.28141e-09
3.66856e-09
3.99959e-09
4.47589e-09
5.08152e-09
5.80163e-09
6.62055e-09
7.52122e-09
8.48528e-09
9.49352e-09
1.05265e-08
1.15654e-08
1.25923e-08
1.35912e-08
1.4548e-08
1.54507e-08
1.629e-08
1.70587e-08
1.77519e-08
1.83668e-08
1.89022e-08
1.93587e-08
1.97382e-08
2.00435e-08
2.02785e-08
2.04473e-08
2.05548e-08
2.0606e-08
1.13102e-08
1.22394e-08
1.35698e-08
1.52512e-08
1.72371e-08
1.948e-08
2.193e-08
2.45353e-08
2.72434e-08
3.00022e-08
3.27624e-08
3.54782e-08
3.81088e-08
4.06189e-08
4.29794e-08
4.51676e-08
4.71666e-08
4.89651e-08
5.0557e-08
5.19409e-08
5.31191e-08
5.40972e-08
5.48832e-08
5.54873e-08
5.59211e-08
5.61971e-08
5.63285e-08
3.3292e-08
3.57729e-08
3.93113e-08
4.37626e-08
4.89937e-08
5.48722e-08
6.1263e-08
6.80292e-08
7.50343e-08
8.21462e-08
8.92401e-08
9.62022e-08
1.02931e-07
1.09342e-07
1.15362e-07
1.20936e-07
1.26024e-07
1.30599e-07
1.34648e-07
1.38166e-07
1.41161e-07
1.43647e-07
1.45645e-07
1.47181e-07
1.48285e-07
1.48987e-07
1.49321e-07
9.29955e-08
9.9298e-08
1.08265e-07
1.19513e-07
1.32694e-07
1.47466e-07
1.63489e-07
1.80421e-07
1.97927e-07
2.15685e-07
2.33392e-07
2.5077e-07
2.67575e-07
2.83595e-07
2.98657e-07
3.12622e-07
3.25387e-07
3.36885e-07
3.47076e-07
3.55948e-07
3.63515e-07
3.69807e-07
3.74874e-07
3.78775e-07
3.81582e-07
3.83371e-07
3.84224e-07
2.44871e-07
2.60061e-07
2.81647e-07
3.08692e-07
3.40353e-07
3.75814e-07
4.14271e-07
4.54925e-07
4.96994e-07
5.39725e-07
5.82409e-07
6.24394e-07
6.65094e-07
7.04001e-07
7.40688e-07
7.74809e-07
8.06099e-07
8.3437e-07
8.59508e-07
8.81464e-07
9.00246e-07
9.15911e-07
9.28561e-07
9.38329e-07
9.45375e-07
9.49877e-07
9.52029e-07
6.03577e-07
6.38013e-07
6.86927e-07
7.48187e-07
8.19892e-07
9.00224e-07
9.87398e-07
1.07965e-06
1.17526e-06
1.27255e-06
1.36994e-06
1.46596e-06
1.55928e-06
1.64873e-06
1.73331e-06
1.81219e-06
1.88472e-06
1.95044e-06
2.00902e-06
2.06033e-06
2.10432e-06
2.1411e-06
2.17087e-06
2.19391e-06
2.21056e-06
2.22122e-06
2.22632e-06
1.38393e-06
1.4564e-06
1.55925e-06
1.68795e-06
1.83848e-06
2.00701e-06
2.18981e-06
2.38322e-06
2.58363e-06
2.78759e-06
2.99179e-06
3.19318e-06
3.38897e-06
3.57672e-06
3.75429e-06
3.91997e-06
4.07238e-06
4.21051e-06
4.33371e-06
4.44162e-06
4.53419e-06
4.61161e-06
4.67429e-06
4.7228e-06
4.75789e-06
4.78036e-06
4.79112e-06
2.93901e-06
3.07861e-06
3.27639e-06
3.52333e-06
3.81142e-06
4.13308e-06
4.48099e-06
4.84802e-06
5.22724e-06
5.61205e-06
5.99622e-06
6.37402e-06
6.7403e-06
7.09056e-06
7.421e-06
7.7285e-06
8.01068e-06
8.26583e-06
8.49289e-06
8.69137e-06
8.8613e-06
9.00317e-06
9.11784e-06
9.20647e-06
9.27046e-06
9.3114e-06
9.33098e-06
5.77247e-06
6.0166e-06
6.36148e-06
6.79044e-06
7.28867e-06
7.84226e-06
8.43793e-06
9.06297e-06
9.70526e-06
1.03534e-05
1.0997e-05
1.16265e-05
1.22337e-05
1.28114e-05
1.33537e-05
1.3856e-05
1.43149e-05
1.47282e-05
1.50945e-05
1.54135e-05
1.56857e-05
1.59123e-05
1.60949e-05
1.62356e-05
1.6337e-05
1.64017e-05
1.64326e-05
1.05038e-05
1.08914e-05
1.14368e-05
1.2112e-05
1.28918e-05
1.37529e-05
1.46735e-05
1.56329e-05
1.66121e-05
1.75936e-05
1.85615e-05
1.95022e-05
2.04036e-05
2.12561e-05
2.20518e-05
2.27848e-05
2.3451e-05
2.4048e-05
2.45749e-05
2.50318e-05
2.54202e-05
2.57423e-05
2.60011e-05
2.62001e-05
2.6343e-05
2.6434e-05
2.64774e-05
1.77881e-05
1.83505e-05
1.91391e-05
2.01103e-05
2.12256e-05
2.24494e-05
2.37488e-05
2.50939e-05
2.64572e-05
2.78143e-05
2.91437e-05
3.04273e-05
3.16499e-05
3.27992e-05
3.3866e-05
3.48436e-05
3.57279e-05
3.65169e-05
3.72102e-05
3.78093e-05
3.83168e-05
3.87363e-05
3.90725e-05
3.93302e-05
3.9515e-05
3.96324e-05
3.96883e-05
2.8218e-05
2.89735e-05
3.00288e-05
3.13228e-05
3.28009e-05
3.44136e-05
3.61157e-05
3.78668e-05
3.96308e-05
4.13762e-05
4.30764e-05
4.47088e-05
4.62554e-05
4.77022e-05
4.90391e-05
5.02591e-05
5.13584e-05
5.23356e-05
5.31916e-05
5.39291e-05
5.45523e-05
5.50663e-05
5.54772e-05
5.57917e-05
5.60169e-05
5.61598e-05
5.62277e-05
4.22488e-05
4.3201e-05
4.45275e-05
4.61478e-05
4.79908e-05
4.99922e-05
5.20945e-05
5.42467e-05
5.64044e-05
5.85295e-05
6.05902e-05
6.25604e-05
6.44199e-05
6.6153e-05
6.77491e-05
6.92013e-05
7.05061e-05
7.16632e-05
7.26747e-05
7.35444e-05
7.42781e-05
7.48823e-05
7.53648e-05
7.57337e-05
7.59975e-05
7.61649e-05
7.62443e-05
6.01666e-05
6.13088e-05
6.28963e-05
6.48301e-05
6.70227e-05
6.93955e-05
7.18792e-05
7.44129e-05
7.69442e-05
7.94291e-05
8.18311e-05
8.41211e-05
8.62765e-05
8.82808e-05
9.01225e-05
9.17948e-05
9.3295e-05
9.46233e-05
9.57829e-05
9.6779e-05
9.76184e-05
9.83093e-05
9.88607e-05
9.9282e-05
9.95831e-05
9.97741e-05
9.98648e-05
8.21e-05
8.34195e-05
8.52508e-05
8.74772e-05
8.9996e-05
9.27156e-05
9.55554e-05
9.84454e-05
0.000101326
0.000104148
0.00010687
0.000109461
0.000111895
0.000114156
0.00011623
0.000118112
0.000119798
0.00012129
0.000122592
0.00012371
0.000124651
0.000125426
0.000126044
0.000126516
0.000126853
0.000127068
0.000127169
0.000108054
0.000109537
0.000111593
0.00011409
0.00011691
0.000119951
0.000123122
0.000126344
0.000129551
0.000132689
0.000135712
0.000138587
0.000141285
0.000143789
0.000146085
0.000148167
0.000150031
0.000151681
0.00015312
0.000154355
0.000155395
0.000156251
0.000156934
0.000157456
0.000157829
0.000158066
0.000158178
0.000137949
0.000139583
0.000141847
0.000144594
0.000147695
0.000151035
0.000154515
0.000158048
0.000161562
0.000164998
0.000168306
0.00017145
0.0001744
0.000177136
0.000179645
0.000181919
0.000183956
0.000185757
0.000187329
0.000188678
0.000189814
0.00019075
0.000191496
0.000192066
0.000192474
0.000192733
0.000192856
0.000171656
0.00017343
0.000175888
0.00017887
0.000182233
0.000185855
0.000189626
0.000193453
0.000197259
0.000200978
0.000204559
0.00020796
0.000211152
0.000214112
0.000216826
0.000219286
0.000221489
0.000223438
0.000225138
0.000226598
0.000227828
0.000228841
0.000229649
0.000230267
0.000230709
0.000230989
0.000231122
0.00020902
0.000210927
0.000213569
0.000216772
0.000220385
0.000224274
0.000228323
0.000232431
0.000236516
0.000240507
0.00024435
0.000248
0.000251424
0.000254601
0.000257513
0.000260153
0.000262518
0.000264611
0.000266436
0.000268004
0.000269325
0.000270413
0.000271281
0.000271945
0.00027242
0.000272722
0.000272865
0.000249879
0.000251913
0.000254729
0.000258144
0.000261996
0.000266142
0.000270458
0.000274838
0.000279192
0.000283446
0.000287542
0.000291433
0.000295083
0.00029847
0.000301575
0.00030439
0.000306912
0.000309144
0.000311092
0.000312764
0.000314174
0.000315335
0.000316262
0.000316971
0.000317478
0.0003178
0.000317953
0.000294069
0.000296225
0.00029921
0.00030283
0.000306913
0.000311308
0.000315883
0.000320525
0.00032514
0.00032965
0.000333992
0.000338116
0.000341987
0.000345577
0.00034887
0.000351856
0.000354531
0.000356898
0.000358964
0.000360739
0.000362235
0.000363467
0.000364451
0.000365204
0.000365742
0.000366084
0.000366247
0.000341434
0.000343708
0.000346858
0.000350677
0.000354985
0.000359622
0.000364448
0.000369346
0.000374215
0.000378973
0.000383554
0.000387907
0.000391991
0.000395781
0.000399256
0.000402407
0.000405231
0.00040773
0.000409912
0.000411786
0.000413366
0.000414667
0.000415706
0.000416501
0.00041707
0.000417432
0.000417603
0.000391826
0.000394216
0.000397526
0.00040154
0.000406066
0.000410938
0.00041601
0.000421157
0.000426274
0.000431274
0.000436089
0.000440663
0.000444957
0.000448939
0.000452592
0.000455905
0.000458873
0.000461501
0.000463794
0.000465765
0.000467426
0.000468794
0.000469887
0.000470723
0.000471322
0.000471702
0.000471883
0.000445107
0.00044761
0.000451077
0.00045528
0.00046002
0.000465122
0.000470434
0.000475823
0.000481182
0.000486419
0.000491461
0.000496251
0.000500747
0.000504918
0.000508744
0.000512213
0.000515322
0.000518074
0.000520477
0.000522541
0.000524281
0.000525714
0.00052686
0.000527736
0.000528363
0.000528761
0.000528951
0.000501148
0.000503761
0.00050738
0.000511768
0.000516717
0.000522044
0.000527589
0.000533216
0.00053881
0.000544277
0.00054954
0.000554541
0.000559235
0.000563589
0.000567582
0.000571204
0.00057445
0.000577323
0.000579831
0.000581986
0.000583802
0.000585299
0.000586495
0.00058741
0.000588064
0.00058848
0.000588678
0.000559826
0.000562548
0.000566316
0.000570884
0.000576037
0.000581583
0.000587356
0.000593214
0.000599037
0.000604728
0.000610207
0.000615413
0.000620298
0.00062483
0.000628987
0.000632757
0.000636135
0.000639125
0.000641736
0.000643978
0.000645869
0.000647427
0.000648672
0.000649624
0.000650306
0.000650739
0.000650944
0.000621031
0.000623857
0.000627771
0.000632516
0.000637867
0.000643627
0.000649621
0.000655704
0.000661751
0.000667659
0.000673348
0.000678752
0.000683824
0.000688529
0.000692844
0.000696757
0.000700264
0.000703368
0.000706077
0.000708405
0.000710368
0.000711985
0.000713277
0.000714265
0.000714973
0.000715422
0.000715636
0.000684655
0.000687584
0.000691639
0.000696556
0.000702101
0.000708068
0.000714278
0.00072058
0.000726843
0.000732964
0.000738856
0.000744453
0.000749705
0.000754578
0.000759046
0.000763098
0.00076673
0.000769944
0.000772749
0.00077516
0.000777192
0.000778866
0.000780203
0.000781227
0.000781959
0.000782425
0.000782646
0.0007506
0.000753628
0.000757821
0.000762905
0.000768638
0.000774807
0.000781227
0.00078774
0.000794215
0.00080054
0.00080663
0.000812414
0.000817842
0.000822877
0.000827494
0.00083168
0.000835432
0.000838753
0.000841651
0.000844141
0.000846241
0.00084797
0.000849352
0.000850409
0.000851165
0.000851646
0.000851875
0.00081877
0.000821895
0.000826223
0.000831468
0.000837383
0.000843748
0.000850372
0.000857092
0.00086377
0.000870295
0.000876576
0.000882541
0.000888139
0.00089333
0.000898091
0.000902408
0.000906277
0.0009097
0.000912688
0.000915255
0.000917419
0.000919202
0.000920627
0.000921716
0.000922496
0.000922992
0.000923228
0.000889077
0.000892296
0.000896754
0.000902157
0.000908249
0.000914803
0.000921625
0.000928544
0.00093542
0.000942138
0.000948603
0.000954744
0.000960506
0.00096585
0.00097075
0.000975192
0.000979173
0.000982696
0.000985771
0.000988412
0.000990639
0.000992474
0.000993939
0.00099506
0.000995863
0.000996373
0.000996615
0.000961435
0.000964746
0.000969329
0.000974884
0.000981148
0.000987887
0.000994899
0.00100201
0.00100908
0.00101598
0.00102263
0.00102894
0.00103486
0.00104035
0.00104538
0.00104995
0.00105404
0.00105766
0.00106081
0.00106353
0.00106582
0.0010677
0.0010692
0.00107036
0.00107118
0.0010717
0.00107195
0.00103576
0.00103916
0.00104387
0.00104957
0.001056
0.00106292
0.00107011
0.00107741
0.00108466
0.00109175
0.00109857
0.00110504
0.00111111
0.00111675
0.00112191
0.00112659
0.00113079
0.0011345
0.00113774
0.00114052
0.00114287
0.0011448
0.00114634
0.00114752
0.00114837
0.0011489
0.00114916
0.00111198
0.00111547
0.00112029
0.00112613
0.00113272
0.00113981
0.00114719
0.00115467
0.0011621
0.00116936
0.00117634
0.00118297
0.0011892
0.00119496
0.00120025
0.00120505
0.00120934
0.00121314
0.00121646
0.00121931
0.00122171
0.00122369
0.00122527
0.00122648
0.00122735
0.00122789
0.00122816
0.00119002
0.00119358
0.00119852
0.0012045
0.00121125
0.0012185
0.00122605
0.0012337
0.00124131
0.00124873
0.00125588
0.00126266
0.00126903
0.00127493
0.00128034
0.00128524
0.00128963
0.00129352
0.00129691
0.00129982
0.00130228
0.0013043
0.00130592
0.00130715
0.00130804
0.0013086
0.00130887
0.00126979
0.00127344
0.00127848
0.0012846
0.00129149
0.00129891
0.00130662
0.00131444
0.00132221
0.0013298
0.0013371
0.00134403
0.00135053
0.00135656
0.00136208
0.00136709
0.00137158
0.00137555
0.00137901
0.00138199
0.00138449
0.00138656
0.00138821
0.00138947
0.00139037
0.00139095
0.00139122
0.00135124
0.00135496
0.00136011
0.00136635
0.00137339
0.00138096
0.00138883
0.00139681
0.00140474
0.00141248
0.00141993
0.001427
0.00143364
0.00143979
0.00144542
0.00145053
0.00145511
0.00145916
0.00146269
0.00146572
0.00146828
0.00147039
0.00147207
0.00147336
0.00147428
0.00147486
0.00147514
0.00143428
0.00143807
0.00144333
0.00144969
0.00145687
0.00146458
0.00147261
0.00148074
0.00148882
0.00149672
0.00150431
0.00151151
0.00151827
0.00152454
0.00153028
0.00153549
0.00154015
0.00154427
0.00154787
0.00155096
0.00155357
0.00155571
0.00155743
0.00155874
0.00155968
0.00156027
0.00156056
0.00151884
0.00152271
0.00152806
0.00153454
0.00154185
0.0015497
0.00155788
0.00156616
0.00157439
0.00158242
0.00159015
0.00159749
0.00160437
0.00161074
0.00161659
0.00162188
0.00162663
0.00163083
0.00163449
0.00163763
0.00164028
0.00164247
0.00164421
0.00164554
0.0016465
0.00164711
0.00164739
0.00160486
0.00160879
0.00161424
0.00162083
0.00162826
0.00163626
0.00164457
0.00165299
0.00166136
0.00166953
0.00167739
0.00168485
0.00169184
0.00169832
0.00170426
0.00170965
0.00171447
0.00171874
0.00172246
0.00172566
0.00172835
0.00173057
0.00173234
0.0017337
0.00173467
0.00173528
0.00173558
0.00169226
0.00169626
0.00170179
0.00170849
0.00171604
0.00172416
0.0017326
0.00174116
0.00174966
0.00175796
0.00176594
0.00177352
0.00178062
0.0017872
0.00179324
0.0017987
0.0018036
0.00180793
0.00181171
0.00181496
0.00181769
0.00181995
0.00182174
0.00182312
0.00182411
0.00182473
0.00182503
0.00178096
0.00178502
0.00179063
0.00179743
0.0018051
0.00181334
0.00182191
0.00183059
0.00183922
0.00184764
0.00185573
0.00186342
0.00187063
0.0018773
0.00188342
0.00188897
0.00189394
0.00189833
0.00190216
0.00190545
0.00190823
0.00191051
0.00191233
0.00191373
0.00191473
0.00191536
0.00191566
0.00187088
0.001875
0.00188069
0.00188758
0.00189535
0.00190371
0.00191239
0.0019212
0.00192994
0.00193847
0.00194668
0.00195447
0.00196177
0.00196854
0.00197474
0.00198036
0.00198539
0.00198984
0.00199372
0.00199705
0.00199986
0.00200218
0.00200403
0.00200544
0.00200645
0.00200709
0.0020074
0.00196194
0.00196611
0.00197187
0.00197886
0.00198672
0.00199518
0.00200398
0.00201289
0.00202174
0.00203038
0.00203869
0.00204657
0.00205396
0.00206081
0.00206709
0.00207277
0.00207786
0.00208237
0.0020863
0.00208967
0.00209251
0.00209485
0.00209672
0.00209815
0.00209917
0.00209982
0.00210013
0.00205404
0.00205826
0.00206409
0.00207115
0.00207911
0.00208767
0.00209656
0.00210558
0.00211453
0.00212326
0.00213166
0.00213963
0.0021471
0.00215402
0.00216037
0.00216611
0.00217126
0.00217581
0.00217978
0.00218319
0.00218606
0.00218843
0.00219031
0.00219176
0.00219279
0.00219345
0.00219376
0.00214709
0.00215135
0.00215724
0.00216437
0.00217241
0.00218106
0.00219004
0.00219914
0.00220818
0.002217
0.00222548
0.00223353
0.00224107
0.00224806
0.00225446
0.00226026
0.00226546
0.00227005
0.00227406
0.0022775
0.0022804
0.00228278
0.00228469
0.00228615
0.00228719
0.00228785
0.00228817
0.00224096
0.00224526
0.0022512
0.0022584
0.00226651
0.00227523
0.00228429
0.00229347
0.00230259
0.00231148
0.00232003
0.00232814
0.00233575
0.00234279
0.00234924
0.00235509
0.00236033
0.00236495
0.00236899
0.00237246
0.00237538
0.00237778
0.0023797
0.00238117
0.00238222
0.00238289
0.00238321
0.00233553
0.00233986
0.00234585
0.0023531
0.00236127
0.00237005
0.00237918
0.00238842
0.0023976
0.00240655
0.00241516
0.00242333
0.00243098
0.00243807
0.00244456
0.00245045
0.00245571
0.00246037
0.00246443
0.00246792
0.00247086
0.00247328
0.00247521
0.00247669
0.00247774
0.00247842
0.00247874
0.00243066
0.00243501
0.00244103
0.00244832
0.00245654
0.00246537
0.00247454
0.00248384
0.00249306
0.00250206
0.00251071
0.00251891
0.0025266
0.00253373
0.00254025
0.00254616
0.00255145
0.00255613
0.00256021
0.00256371
0.00256666
0.00256909
0.00257103
0.00257251
0.00257357
0.00257424
0.00257456
0.00252616
0.00253053
0.00253658
0.0025439
0.00255214
0.002561
0.0025702
0.00257953
0.00258878
0.00259781
0.00260648
0.00261471
0.00262242
0.00262956
0.0026361
0.00264202
0.00264733
0.00265201
0.0026561
0.00265961
0.00266257
0.002665
0.00266694
0.00266843
0.00266949
0.00267017
0.00267049
0.00262186
0.00262623
0.00263229
0.00263962
0.00264787
0.00265674
0.00266596
0.00267529
0.00268455
0.00269358
0.00270226
0.00271049
0.0027182
0.00272535
0.00273189
0.00273781
0.00274311
0.0027478
0.00275188
0.00275539
0.00275834
0.00276078
0.00276272
0.0027642
0.00276526
0.00276594
0.00276626
0.00271751
0.00272188
0.00272793
0.00273525
0.0027435
0.00275235
0.00276155
0.00277087
0.00278011
0.00278913
0.00279779
0.002806
0.00281369
0.00282081
0.00282733
0.00283324
0.00283852
0.0028432
0.00284727
0.00285076
0.00285371
0.00285613
0.00285807
0.00285955
0.00286061
0.00286128
0.0028616
0.00281285
0.00281721
0.00282323
0.00283052
0.00283873
0.00284755
0.00285671
0.00286598
0.00287517
0.00288414
0.00289275
0.00290092
0.00290857
0.00291565
0.00292213
0.002928
0.00293325
0.00293789
0.00294194
0.00294541
0.00294833
0.00295074
0.00295266
0.00295413
0.00295518
0.00295585
0.00295617
0.00290758
0.0029119
0.00291788
0.00292512
0.00293326
0.00294201
0.00295109
0.00296028
0.0029694
0.00297828
0.00298682
0.0029949
0.00300248
0.00300949
0.00301591
0.00302172
0.00302691
0.00303151
0.00303551
0.00303894
0.00304184
0.00304422
0.00304612
0.00304757
0.00304861
0.00304927
0.00304958
0.00300133
0.00300561
0.00301151
0.00301866
0.00302671
0.00303534
0.00304431
0.00305339
0.00306238
0.00307115
0.00307957
0.00308754
0.00309501
0.00310192
0.00310825
0.00311397
0.00311909
0.00312361
0.00312755
0.00313093
0.00313378
0.00313612
0.00313799
0.00313942
0.00314045
0.00314109
0.0031414
0.0030937
0.0030979
0.00310371
0.00311074
0.00311865
0.00312713
0.00313594
0.00314485
0.00315368
0.00316229
0.00317055
0.00317837
0.00318569
0.00319247
0.00319866
0.00320427
0.00320928
0.00321371
0.00321757
0.00322088
0.00322367
0.00322596
0.00322779
0.00322919
0.00323019
0.00323082
0.00323113
0.0031842
0.00318831
0.00319399
0.00320086
0.00320859
0.00321688
0.00322548
0.00323417
0.00324279
0.00325118
0.00325923
0.00326685
0.00327399
0.00328058
0.00328662
0.00329207
0.00329695
0.00330126
0.00330501
0.00330823
0.00331094
0.00331317
0.00331494
0.0033163
0.00331727
0.00331789
0.00331818
0.00327233
0.00327631
0.00328183
0.00328849
0.00329599
0.00330402
0.00331236
0.00332078
0.00332913
0.00333725
0.00334504
0.00335241
0.0033593
0.00336568
0.0033715
0.00337677
0.00338148
0.00338564
0.00338926
0.00339236
0.00339497
0.00339712
0.00339883
0.00340014
0.00340108
0.00340167
0.00340195
0.00335747
0.00336131
0.00336662
0.00337303
0.00338024
0.00338796
0.00339597
0.00340406
0.00341207
0.00341986
0.00342733
0.00343439
0.00344099
0.00344709
0.00345267
0.00345771
0.00346221
0.00346618
0.00346964
0.0034726
0.0034751
0.00347715
0.00347878
0.00348003
0.00348092
0.00348149
0.00348176
0.00343901
0.00344267
0.00344773
0.00345384
0.0034607
0.00346805
0.00347566
0.00348335
0.00349095
0.00349835
0.00350543
0.00351212
0.00351838
0.00352415
0.00352943
0.00353419
0.00353845
0.0035422
0.00354546
0.00354826
0.00355061
0.00355255
0.00355409
0.00355527
0.00355611
0.00355664
0.0035569
0.00351627
0.00351972
0.00352448
0.00353023
0.00353668
0.00354359
0.00355074
0.00355795
0.00356508
0.00357201
0.00357864
0.0035849
0.00359075
0.00359614
0.00360107
0.00360551
0.00360948
0.00361298
0.00361602
0.00361862
0.00362081
0.00362261
0.00362404
0.00362514
0.00362592
0.00362642
0.00362665
0.00358856
0.00359176
0.00359618
0.00360151
0.0036075
0.0036139
0.00362051
0.00362718
0.00363377
0.00364016
0.00364628
0.00365204
0.00365742
0.00366239
0.00366691
0.00367099
0.00367463
0.00367783
0.00368062
0.00368301
0.00368501
0.00368666
0.00368797
0.00368897
0.00368968
0.00369014
0.00369035
0.00365522
0.00365814
0.00366217
0.00366704
0.00367249
0.00367831
0.00368433
0.00369039
0.00369637
0.00370216
0.0037077
0.00371291
0.00371777
0.00372225
0.00372633
0.00373
0.00373328
0.00373616
0.00373866
0.0037408
0.0037426
0.00374408
0.00374525
0.00374615
0.00374679
0.0037472
0.00374739
0.00371563
0.00371824
0.00372185
0.0037262
0.00373106
0.00373626
0.00374162
0.00374701
0.00375232
0.00375746
0.00376236
0.00376698
0.00377127
0.00377522
0.00377881
0.00378205
0.00378493
0.00378746
0.00378966
0.00379154
0.00379311
0.00379441
0.00379544
0.00379622
0.00379678
0.00379713
0.0037973
0.00376928
0.00377157
0.00377472
0.00377851
0.00378275
0.00378728
0.00379193
0.00379661
0.00380121
0.00380565
0.00380988
0.00381386
0.00381755
0.00382095
0.00382403
0.00382681
0.00382927
0.00383143
0.00383331
0.00383491
0.00383625
0.00383736
0.00383823
0.0038389
0.00383937
0.00383967
0.00383982
0.00381583
0.00381777
0.00382045
0.00382367
0.00382726
0.00383108
0.00383501
0.00383894
0.00384281
0.00384653
0.00385008
0.0038534
0.00385648
0.0038593
0.00386187
0.00386417
0.00386621
0.003868
0.00386955
0.00387087
0.00387197
0.00387288
0.0038736
0.00387415
0.00387454
0.00387478
0.0038749
0.00385513
0.00385672
0.00385892
0.00386155
0.00386449
0.00386761
0.00387081
0.003874
0.00387714
0.00388015
0.00388301
0.00388568
0.00388815
0.00389041
0.00389246
0.0038943
0.00389592
0.00389734
0.00389857
0.00389962
0.0039005
0.00390121
0.00390178
0.00390221
0.00390252
0.00390271
0.00390281
0.00388727
0.00388852
0.00389025
0.00389232
0.00389462
0.00389706
0.00389956
0.00390205
0.00390447
0.00390681
0.00390901
0.00391107
0.00391296
0.00391469
0.00391625
0.00391765
0.00391888
0.00391996
0.00392089
0.00392168
0.00392234
0.00392288
0.00392331
0.00392363
0.00392386
0.00392401
0.00392408
0.0039126
0.00391354
0.00391483
0.00391638
0.00391809
0.0039199
0.00392175
0.00392359
0.00392537
0.00392708
0.00392869
0.00393019
0.00393157
0.00393282
0.00393395
0.00393495
0.00393584
0.00393661
0.00393727
0.00393783
0.0039383
0.00393869
0.00393899
0.00393922
0.00393938
0.00393949
0.00393954
0.00393173
0.00393239
0.0039333
0.00393438
0.00393558
0.00393684
0.00393813
0.0039394
0.00394063
0.0039418
0.0039429
0.00394392
0.00394485
0.0039457
0.00394646
0.00394713
0.00394773
0.00394824
0.00394868
0.00394906
0.00394937
0.00394962
0.00394982
0.00394998
0.00395008