/*--------------------------------*- C++ -*----------------------------------*\
| =========                 |                                                 |
| \\      /  F ield         | OpenFOAM: The Open Source CFD Toolbox           |
|  \\    /   O peration     | Version:  2106                                  |
|   \\  /    A nd           | Website:  www.openfoam.com                      |
|    \\/     M anipulation  |                                                 |
\*---------------------------------------------------------------------------*/
FoamFile
{
    version     2.0;
    format      ascii;
    arch        "LSB;label=32;scalar=64";
    class       volScalarField;
    location    "200.00032";
    object      CH3COCH3_0;
}
// * * * * * * * * * * * * * * * * * * * * * * * * * * * * * * * * * * * * * //

dimensions      [0 0 0 0 0 0 0];

internalField   nonuniform List<scalar> 
3360
(
0.0136842
0.0136842
0.0136842
0.0136842
0.0136842
0.0136842
0.0136842
0.0136842
0.0136842
0.0136842
0.0136842
0.0136842
0.0136842
0.0136842
0.0136842
0.0136842
0.0136842
0.0136842
0.0136842
0.0136842
0.0136842
0.0136842
0.0136842
0.0136842
0.0136842
0.0136842
0.0136842
0.0136842
0.0136842
0.0136842
0.0136842
0.0136842
0.0136842
0.0136842
0.0136842
0.0136842
0.0136842
0.0136842
0.0136842
0.0136842
0.0136842
0.0136842
0.0136842
0.0136842
0.0136842
0.0136842
0.0136842
0.0136842
0.0136842
0.0136842
0.0136842
0.0136842
0.0136842
0.0136842
0.0136842
0.0136842
0.0136842
0.0136842
0.0136842
0.0136842
0.0136842
0.0136842
0.0136842
0.0136842
0.0136842
0.0136842
0.0136842
0.0136842
0.0136842
0.0136842
0.0136842
0.0136842
0.0136842
0.0136842
0.0136842
0.0136842
0.0136842
0.0136842
0.0136842
0.0136842
0.0136842
0.0136842
0.0136842
0.0136842
0.0136842
0.0136842
0.0136842
0.0136842
0.0136842
0.0136842
0.0136842
0.0136842
0.0136842
0.0136842
0.0136842
0.0136842
0.0136842
0.0136842
0.0136842
0.0136842
0.0136842
0.0136842
0.0136842
0.0136842
0.0136842
0.0136842
0.0136842
0.0136842
0.0136842
0.0136842
0.0136842
0.0136842
0.0136842
0.0136842
0.0136842
0.0136842
0.0136842
0.0136842
0.0136842
0.0136842
0.0136842
0.0136842
0.0136842
0.0136842
0.0136842
0.0136842
0.0136842
0.0136842
0.0136842
0.0136842
0.0136842
0.0136842
0.0136842
0.0136842
0.0136842
0.0136842
0.0136842
0.0136842
0.0136842
0.0136842
0.0136842
0.0136842
0.0136842
0.0136842
0.0136842
0.0136842
0.0136842
0.0136842
0.0136842
0.0136842
0.0136842
0.0136842
0.0136842
0.0136842
0.0136842
0.0136842
0.0136842
0.0136842
0.0136842
0.0136842
0.0136842
0.0136842
0.0136842
0.0136842
0.0136842
0.0136842
0.0136842
0.0136842
0.0136842
0.0136842
0.0136842
0.0136842
0.0136842
0.0136842
0.0136842
0.0136842
0.0136842
0.0136842
0.0136842
0.0136842
0.0136842
0.0136842
0.0136842
0.0136842
0.0136842
0.0136842
0.0136842
0.0136842
0.0136842
0.0136842
0.0136842
0.0136842
0.0136842
0.0136842
0.0136842
0.0136842
0.0136842
0.0136842
0.0136842
0.0136842
0.0136842
0.0136842
0.0136842
0.0136842
0.0136842
0.0136842
0.0136842
0.0136842
0.0136842
0.0136842
0.0136842
0.0136842
0.0136842
0.0136842
0.0136842
0.0136842
0.0136842
0.0136842
0.0136842
0.0136842
0.0136842
0.0136842
0.0136842
0.0136842
0.0136842
0.0136842
0.0136842
0.0136842
0.0136842
0.0136842
0.0136842
0.0136842
0.0136842
0.0136842
0.0136842
0.0136842
0.0136842
0.0136842
0.0136842
0.0136842
0.0136842
0.0136842
0.0136842
0.0136842
0.0136842
0.0136842
0.0136842
0.0136842
0.0136842
0.0136842
0.0136842
0.0136842
0.0136842
0.0136842
0.0136842
0.0136842
0.0136842
0.0136842
0.0136842
0.0136842
0.0136842
0.0136842
0.0136842
0.0136842
0.0136842
0.0136842
0.0136842
0.0136842
0.0136842
0.0136842
0.0136842
0.0136842
0.0136842
0.0136842
0.0136842
0.0136842
0.0136842
0.0136842
0.0136842
0.0136842
0.0136842
0.0136842
0.0136842
0.0136842
0.0136842
0.0136842
0.0136842
0.0136842
0.0136842
0.0136842
0.0136842
0.0136842
0.0136842
0.0136842
0.0136842
0.0136842
0.0136842
0.0136842
0.0136842
0.0136842
0.0136842
0.0136842
0.0136842
0.0136842
0.0136842
0.0136842
0.0136842
0.0136842
0.0136842
0.0136842
0.0136842
0.0136842
0.0136842
0.0136842
0.0136842
0.0136842
0.0136842
0.0136842
0.0136842
0.0136842
0.0136842
0.0136842
0.0136842
0.0136842
0.0136842
0.0136842
0.0136842
0.0136842
0.0136842
0.0136842
0.0136842
0.0136842
0.0136842
0.0136842
0.0136842
0.0136842
0.0136842
0.0136842
0.0136842
0.0136842
0.0136842
0.0136842
0.0136842
0.0136842
0.0136842
0.0136842
0.0136842
0.0136842
0.0136842
0.0136842
0.0136842
0.0136842
0.0136842
0.0136842
0.0136842
0.0136842
0.0136842
0.0136842
0.0136842
0.0136842
0.0136842
0.0136842
0.0136842
0.0136842
0.0136842
0.0136842
0.0136842
0.0136842
0.0136842
0.0136842
0.0136842
0.0136842
0.0136842
0.0136842
0.0136842
0.0136842
0.0136842
0.0136842
0.0136842
0.0136842
0.0136842
0.0136842
0.0136842
0.0136842
0.0136842
0.0136842
0.0136842
0.0136842
0.0136842
0.0136842
0.0136842
0.0136842
0.0136842
0.0136842
0.0136842
0.0136842
0.0136842
0.0136842
0.0136842
0.0136842
0.0136842
0.0136842
0.0136842
0.0136842
0.0136842
0.0136842
0.0136842
0.0136842
0.0136842
0.0136842
0.0136842
0.0136842
0.0136842
0.0136842
0.0136842
0.0136842
0.0136842
0.0136842
0.0136842
0.0136842
0.0136842
0.0136842
0.0136842
0.0136842
0.0136842
0.0136842
0.0136842
0.0136842
0.0136842
0.0136842
0.0136842
0.0136842
0.0136842
0.0136842
0.0136842
0.0136842
0.0136842
0.0136842
0.0136842
0.0136842
0.0136842
0.0136842
0.0136842
0.0136842
0.0136842
0.0136842
0.0136842
0.0136842
0.0136842
0.0136842
0.0136842
0.0136842
0.0136842
0.0136842
0.0136842
0.0136842
0.0136842
0.0136842
0.0136842
0.0136842
0.0136842
0.0136842
0.0136842
0.0136842
0.0136842
0.0136842
0.0136842
0.0136842
0.0136842
0.0136842
0.0136842
0.0136842
0.0136842
0.0136842
0.0136842
0.0136842
0.0136842
0.0136842
0.0136842
0.0136842
0.0136842
0.0136842
0.0136842
0.0136842
0.0136842
0.0136842
0.0136842
0.0136842
0.0136842
0.0136842
0.0136842
0.0136842
0.0136842
0.0136842
0.0136842
0.0136842
0.0136842
0.0136842
0.0136842
0.0136842
0.0136842
0.0136842
0.0136842
0.0136842
0.0136842
0.0136842
0.0136842
0.0136842
0.0136842
0.0136842
0.0136842
0.0136842
0.0136842
0.0136842
0.0136842
0.0136842
0.0136842
0.0136842
0.0136842
0.0136842
0.0136842
0.0136842
0.0136842
0.0136842
0.0136842
0.0136842
0.0136842
0.0136842
0.0136842
0.0136842
0.0136842
0.0136842
0.0136842
0.0136842
0.0136842
0.0136842
0.0136842
0.0136842
0.0136842
0.0136842
0.0136842
0.0136842
0.0136842
0.0136842
0.0136842
0.0136842
0.0136842
0.0136842
0.0136842
0.0136842
0.0136842
0.0136842
0.0136842
0.0136842
0.0136842
0.0136842
0.0136842
0.0136842
0.0136842
0.0136842
0.0136842
0.0136842
0.0136842
0.0136842
0.0136842
0.0136842
0.0136842
0.0136842
0.0136842
0.0136842
0.0136842
0.0136842
0.0136842
0.0136842
0.0136842
0.0136842
0.0136842
0.0136842
0.0136842
0.0136842
0.0136842
0.0136842
0.0136842
0.0136842
0.0136842
0.0136842
0.0136842
0.0136842
0.0136842
0.0136842
0.0136842
0.0136842
0.0136842
0.0136842
0.0136842
0.0136842
0.0136842
0.0136842
0.0136842
0.0136842
0.0136842
0.0136841
0.0136841
0.0136841
0.0136841
0.0136841
0.0136841
0.0136841
0.0136841
0.0136841
0.0136841
0.0136841
0.0136841
0.0136841
0.0136841
0.0136841
0.0136841
0.0136841
0.0136841
0.0136841
0.0136841
0.0136841
0.0136841
0.0136841
0.0136841
0.0136841
0.0136841
0.0136841
0.013684
0.013684
0.013684
0.013684
0.0136839
0.0136839
0.0136839
0.0136839
0.0136839
0.0136838
0.0136838
0.0136838
0.0136838
0.0136838
0.0136838
0.0136838
0.0136838
0.0136838
0.0136838
0.0136838
0.013684
0.013684
0.0136839
0.0136839
0.0136839
0.0136838
0.0136838
0.0136837
0.0136836
0.0136836
0.0136835
0.0136834
0.0136834
0.0136833
0.0136833
0.0136832
0.0136832
0.0136831
0.0136831
0.0136831
0.013683
0.013683
0.013683
0.013683
0.013683
0.013683
0.013683
0.0136835
0.0136835
0.0136834
0.0136833
0.0136832
0.013683
0.0136829
0.0136827
0.0136826
0.0136824
0.0136822
0.0136821
0.0136819
0.0136818
0.0136816
0.0136815
0.0136814
0.0136813
0.0136812
0.0136811
0.013681
0.013681
0.0136809
0.0136809
0.0136808
0.0136808
0.0136808
0.0136823
0.0136821
0.0136819
0.0136816
0.0136813
0.013681
0.0136806
0.0136802
0.0136798
0.0136794
0.013679
0.0136785
0.0136781
0.0136778
0.0136774
0.0136771
0.0136768
0.0136765
0.0136763
0.013676
0.0136759
0.0136757
0.0136756
0.0136755
0.0136754
0.0136754
0.0136754
0.0136789
0.0136785
0.013678
0.0136774
0.0136766
0.0136757
0.0136748
0.0136738
0.0136728
0.0136718
0.0136708
0.0136698
0.0136688
0.0136679
0.013667
0.0136662
0.0136655
0.0136649
0.0136643
0.0136638
0.0136634
0.013663
0.0136627
0.0136625
0.0136624
0.0136623
0.0136622
0.0136706
0.0136697
0.0136685
0.013667
0.0136653
0.0136633
0.0136611
0.0136589
0.0136566
0.0136542
0.0136518
0.0136495
0.0136473
0.0136452
0.0136432
0.0136414
0.0136397
0.0136382
0.0136368
0.0136357
0.0136347
0.0136339
0.0136332
0.0136327
0.0136323
0.0136321
0.013632
0.013652
0.0136502
0.0136476
0.0136443
0.0136405
0.0136362
0.0136316
0.0136268
0.0136217
0.0136166
0.0136115
0.0136065
0.0136016
0.013597
0.0135926
0.0135885
0.0135848
0.0135814
0.0135784
0.0135758
0.0135736
0.0135717
0.0135702
0.013569
0.0135681
0.0135676
0.0135673
0.0136148
0.0136112
0.0136061
0.0135997
0.0135923
0.0135839
0.0135749
0.0135653
0.0135555
0.0135454
0.0135353
0.0135254
0.0135157
0.0135064
0.0134976
0.0134893
0.0134817
0.0134748
0.0134686
0.0134632
0.0134585
0.0134545
0.0134513
0.0134488
0.013447
0.0134458
0.0134452
0.0135488
0.0135425
0.0135336
0.0135224
0.0135094
0.0134949
0.0134792
0.0134626
0.0134455
0.013428
0.0134105
0.0133932
0.0133764
0.0133601
0.0133448
0.0133303
0.013317
0.0133048
0.0132939
0.0132842
0.0132759
0.0132688
0.0132631
0.0132586
0.0132554
0.0132533
0.0132523
0.0134443
0.0134345
0.0134206
0.0134033
0.0133832
0.0133609
0.0133368
0.0133115
0.0132854
0.0132589
0.0132325
0.0132066
0.0131813
0.0131571
0.0131342
0.0131128
0.0130931
0.0130752
0.0130591
0.013045
0.0130328
0.0130226
0.0130143
0.0130079
0.0130032
0.0130002
0.0129987
0.0132945
0.0132807
0.0132612
0.0132372
0.0132094
0.0131787
0.0131458
0.0131115
0.0130764
0.013041
0.013006
0.0129718
0.0129388
0.0129075
0.012878
0.0128507
0.0128257
0.0128032
0.0127832
0.0127657
0.0127508
0.0127383
0.0127282
0.0127204
0.0127148
0.0127111
0.0127094
0.0130958
0.0130781
0.0130535
0.0130231
0.0129882
0.01295
0.0129094
0.0128673
0.0128247
0.0127822
0.0127405
0.0127002
0.0126617
0.0126254
0.0125917
0.0125607
0.0125326
0.0125075
0.0124854
0.0124662
0.0124499
0.0124364
0.0124256
0.0124172
0.0124113
0.0124074
0.0124056
0.0128492
0.0128285
0.0127996
0.0127642
0.012724
0.0126802
0.0126341
0.0125868
0.0125392
0.0124923
0.0124467
0.0124031
0.0123618
0.0123233
0.0122878
0.0122554
0.0122263
0.0122004
0.0121778
0.0121584
0.012142
0.0121284
0.0121176
0.0121094
0.0121035
0.0120997
0.0120979
0.0125604
0.0125378
0.0125063
0.012468
0.0124247
0.0123778
0.012329
0.0122792
0.0122296
0.0121811
0.0121343
0.0120899
0.0120482
0.0120095
0.0119741
0.0119421
0.0119135
0.0118882
0.0118662
0.0118474
0.0118316
0.0118186
0.0118083
0.0118004
0.0117948
0.0117913
0.0117896
0.0122395
0.0122162
0.0121838
0.0121446
0.0121005
0.0120531
0.0120039
0.0119541
0.0119048
0.0118569
0.011811
0.0117676
0.0117272
0.0116898
0.0116558
0.0116252
0.0115979
0.011574
0.0115532
0.0115354
0.0115206
0.0115084
0.0114987
0.0114914
0.0114862
0.0114829
0.0114813
0.0118983
0.0118753
0.0118434
0.011805
0.0117619
0.0117158
0.0116681
0.0116201
0.0115728
0.0115269
0.0114832
0.011442
0.0114037
0.0113685
0.0113366
0.0113078
0.0112823
0.01126
0.0112406
0.0112241
0.0112103
0.011199
0.01119
0.0111832
0.0111784
0.0111753
0.0111739
0.011548
0.011526
0.0114956
0.0114591
0.0114181
0.0113744
0.0113294
0.0112842
0.0112398
0.0111968
0.0111559
0.0111175
0.0110818
0.0110491
0.0110194
0.0109928
0.0109691
0.0109484
0.0109305
0.0109152
0.0109025
0.010892
0.0108838
0.0108775
0.010873
0.0108702
0.0108689
0.0111977
0.0111771
0.0111487
0.0111146
0.0110765
0.0110358
0.010994
0.010952
0.0109108
0.010871
0.0108332
0.0107976
0.0107647
0.0107345
0.0107071
0.0106825
0.0106607
0.0106416
0.010625
0.010611
0.0105992
0.0105895
0.0105819
0.0105761
0.010572
0.0105693
0.0105681
0.010854
0.0108349
0.0108087
0.0107773
0.0107421
0.0107046
0.010666
0.0106274
0.0105894
0.0105528
0.010518
0.0104852
0.0104549
0.0104271
0.0104018
0.0103792
0.0103591
0.0103414
0.0103262
0.0103131
0.0103023
0.0102933
0.0102863
0.0102809
0.0102771
0.0102746
0.0102735
0.010521
0.0105035
0.0104795
0.0104506
0.0104183
0.0103839
0.0103485
0.010313
0.0102781
0.0102444
0.0102123
0.0101822
0.0101543
0.0101286
0.0101054
0.0100844
0.0100659
0.0100496
0.0100354
0.0100234
0.0100133
0.010005
0.00999846
0.00999347
0.0099899
0.00998765
0.00998658
0.0102013
0.0101852
0.0101632
0.0101367
0.010107
0.0100755
0.0100429
0.0100103
0.00997819
0.00994717
0.00991763
0.00988986
0.00986406
0.00984036
0.00981882
0.00979945
0.00978224
0.00976711
0.009754
0.00974281
0.00973342
0.00972574
0.00971962
0.00971497
0.00971165
0.00970954
0.00970855
0.0098958
0.0098811
0.00986085
0.00983648
0.00980922
0.00978014
0.00975018
0.00972007
0.00969045
0.0096618
0.00963448
0.00960877
0.00958487
0.00956289
0.00954289
0.0095249
0.00950889
0.00949481
0.00948259
0.00947215
0.0094634
0.00945622
0.0094505
0.00944615
0.00944304
0.00944107
0.00944014
0.00960487
0.00959132
0.00957265
0.00955016
0.00952499
0.00949812
0.0094704
0.00944253
0.00941508
0.0093885
0.00936313
0.00933924
0.009317
0.00929652
0.00927788
0.00926109
0.00924614
0.00923298
0.00922156
0.00921179
0.00920358
0.00919685
0.0091915
0.00918741
0.00918449
0.00918264
0.00918176
0.00932814
0.0093156
0.0092983
0.00927745
0.0092541
0.00922915
0.00920339
0.00917747
0.00915191
0.00912714
0.00910348
0.00908117
0.00906039
0.00904124
0.00902379
0.00900806
0.00899404
0.00898169
0.00897096
0.00896178
0.00895407
0.00894774
0.0089427
0.00893885
0.0089361
0.00893436
0.00893353
0.009065
0.00905332
0.00903722
0.00901779
0.00899602
0.00897275
0.0089487
0.00892447
0.00890056
0.00887737
0.0088552
0.00883428
0.00881477
0.00879679
0.00878039
0.00876559
0.0087524
0.00874077
0.00873066
0.00872201
0.00871473
0.00870876
0.00870399
0.00870036
0.00869776
0.00869611
0.00869533
0.00881467
0.00880375
0.00878868
0.00877049
0.00875009
0.00872827
0.00870571
0.00868296
0.0086605
0.0086387
0.00861784
0.00859814
0.00857976
0.0085628
0.00854733
0.00853336
0.0085209
0.00850991
0.00850035
0.00849216
0.00848528
0.00847962
0.00847511
0.00847167
0.0084692
0.00846764
0.0084669
0.00857632
0.00856605
0.00855188
0.00853477
0.00851558
0.00849504
0.00847378
0.00845233
0.00843114
0.00841056
0.00839085
0.00837224
0.00835486
0.00833881
0.00832416
0.00831093
0.00829912
0.0082887
0.00827964
0.00827187
0.00826533
0.00825996
0.00825568
0.00825241
0.00825007
0.00824858
0.00824788
0.0083491
0.00833941
0.00832603
0.00830988
0.00829174
0.00827232
0.00825221
0.00823192
0.00821185
0.00819235
0.00817367
0.00815602
0.00813953
0.0081243
0.00811039
0.00809782
0.00808659
0.00807669
0.00806807
0.00806068
0.00805446
0.00804935
0.00804527
0.00804215
0.00803993
0.00803851
0.00803784
0.00813223
0.00812305
0.00811037
0.00809505
0.00807785
0.00805943
0.00804034
0.00802107
0.00800201
0.00798348
0.00796572
0.00794893
0.00793323
0.00791874
0.00790549
0.00789352
0.00788282
0.00787338
0.00786516
0.00785811
0.00785218
0.00784731
0.00784342
0.00784044
0.00783832
0.00783697
0.00783632
0.00792495
0.00791622
0.00790417
0.0078896
0.00787323
0.0078557
0.00783753
0.00781917
0.00780101
0.00778335
0.00776642
0.00775041
0.00773544
0.0077216
0.00770895
0.00769752
0.00768731
0.00767829
0.00767044
0.0076637
0.00765803
0.00765337
0.00764965
0.00764681
0.00764477
0.00764348
0.00764287
0.00772657
0.00771824
0.00770675
0.00769285
0.00767724
0.00766051
0.00764316
0.00762564
0.00760829
0.00759142
0.00757524
0.00755993
0.00754561
0.00753238
0.00752028
0.00750935
0.00749957
0.00749094
0.00748342
0.00747697
0.00747154
0.00746708
0.00746352
0.00746079
0.00745884
0.00745761
0.00745702
0.00753645
0.0075285
0.00751751
0.00750422
0.00748929
0.00747328
0.00745668
0.00743991
0.00742331
0.00740715
0.00739166
0.00737699
0.00736328
0.0073506
0.007339
0.00732852
0.00731915
0.00731087
0.00730366
0.00729747
0.00729227
0.00728798
0.00728456
0.00728195
0.00728008
0.00727889
0.00727833
0.00735402
0.0073464
0.00733587
0.00732314
0.00730883
0.00729349
0.00727758
0.00726149
0.00724557
0.00723007
0.0072152
0.00720113
0.00718797
0.0071758
0.00716466
0.0071546
0.0071456
0.00713765
0.00713072
0.00712478
0.00711978
0.00711566
0.00711238
0.00710986
0.00710807
0.00710693
0.00710638
0.00717876
0.00717145
0.00716134
0.00714912
0.00713538
0.00712064
0.00710536
0.00708992
0.00707462
0.00705972
0.00704544
0.00703191
0.00701926
0.00700755
0.00699685
0.00698717
0.00697851
0.00697087
0.00696421
0.00695849
0.00695368
0.00694972
0.00694656
0.00694414
0.00694241
0.00694131
0.00694079
0.0070102
0.00700317
0.00699345
0.0069817
0.00696848
0.00695431
0.00693961
0.00692475
0.00691003
0.0068957
0.00688195
0.00686893
0.00685675
0.00684549
0.00683518
0.00682586
0.00681752
0.00681016
0.00680375
0.00679824
0.00679361
0.00678979
0.00678675
0.00678442
0.00678275
0.0067817
0.00678119
0.00684791
0.00684114
0.00683178
0.00682046
0.00680774
0.00679409
0.00677993
0.00676561
0.00675143
0.00673763
0.00672438
0.00671183
0.00670009
0.00668924
0.0066793
0.00667032
0.00666228
0.00665518
0.006649
0.00664369
0.00663922
0.00663554
0.00663261
0.00663036
0.00662876
0.00662774
0.00662725
0.0066915
0.00668498
0.00667596
0.00666505
0.00665278
0.00663962
0.00662596
0.00661216
0.00659848
0.00658516
0.00657238
0.00656028
0.00654895
0.00653848
0.0065289
0.00652023
0.00651247
0.00650562
0.00649965
0.00649453
0.00649022
0.00648667
0.00648383
0.00648167
0.00648012
0.00647913
0.00647866
0.00654065
0.00653435
0.00652564
0.00651511
0.00650327
0.00649057
0.00647739
0.00646406
0.00645086
0.006438
0.00642566
0.00641398
0.00640304
0.00639293
0.00638367
0.0063753
0.00636781
0.00636119
0.00635543
0.00635048
0.00634632
0.00634289
0.00634015
0.00633806
0.00633656
0.00633561
0.00633516
0.00639503
0.00638894
0.00638054
0.00637037
0.00635893
0.00634666
0.00633392
0.00632105
0.00630829
0.00629587
0.00628395
0.00627265
0.00626209
0.00625231
0.00624337
0.00623528
0.00622804
0.00622165
0.00621607
0.00621129
0.00620727
0.00620395
0.00620131
0.00619928
0.00619784
0.00619692
0.00619648
0.00625438
0.0062485
0.00624037
0.00623054
0.00621948
0.00620762
0.00619531
0.00618286
0.00617053
0.00615852
0.00614699
0.00613607
0.00612586
0.00611641
0.00610776
0.00609993
0.00609293
0.00608675
0.00608136
0.00607674
0.00607285
0.00606964
0.00606708
0.00606513
0.00606373
0.00606284
0.00606242
0.00611845
0.00611276
0.0061049
0.0060954
0.0060847
0.00607323
0.00606132
0.00604928
0.00603736
0.00602574
0.00601459
0.00600403
0.00599414
0.005985
0.00597663
0.00596906
0.00596229
0.00595631
0.0059511
0.00594663
0.00594286
0.00593976
0.00593729
0.00593539
0.00593404
0.00593318
0.00593277
0.00598704
0.00598154
0.00597393
0.00596473
0.00595439
0.00594329
0.00593177
0.00592012
0.00590858
0.00589734
0.00588655
0.00587633
0.00586677
0.00585792
0.00584982
0.0058425
0.00583595
0.00583016
0.00582512
0.00582079
0.00581715
0.00581415
0.00581175
0.00580992
0.00580861
0.00580778
0.00580738
0.00585996
0.00585464
0.00584728
0.00583838
0.00582837
0.00581762
0.00580648
0.00579521
0.00578404
0.00577316
0.00576272
0.00575283
0.00574358
0.00573501
0.00572718
0.00572009
0.00571376
0.00570816
0.00570327
0.00569909
0.00569556
0.00569266
0.00569034
0.00568857
0.0056873
0.0056865
0.00568611
0.00573707
0.00573191
0.00572479
0.00571618
0.00570649
0.0056961
0.00568531
0.00567441
0.0056636
0.00565307
0.00564297
0.0056334
0.00562445
0.00561617
0.00560859
0.00560173
0.0055956
0.00559018
0.00558546
0.00558141
0.005578
0.00557519
0.00557295
0.00557123
0.00557001
0.00556923
0.00556886
0.00561823
0.00561325
0.00560636
0.00559803
0.00558865
0.0055786
0.00556817
0.00555761
0.00554716
0.00553698
0.00552721
0.00551796
0.0055093
0.00550128
0.00549396
0.00548732
0.00548139
0.00547615
0.00547159
0.00546767
0.00546437
0.00546166
0.00545949
0.00545783
0.00545665
0.00545589
0.00545554
0.00550337
0.00549855
0.00549189
0.00548383
0.00547477
0.00546505
0.00545496
0.00544476
0.00543465
0.00542481
0.00541537
0.00540642
0.00539805
0.00539031
0.00538323
0.00537682
0.00537109
0.00536602
0.00536161
0.00535783
0.00535464
0.00535202
0.00534992
0.00534832
0.00534718
0.00534645
0.0053461
0.00539241
0.00538776
0.00538132
0.00537354
0.00536478
0.00535539
0.00534565
0.0053358
0.00532604
0.00531653
0.00530741
0.00529877
0.00529069
0.00528322
0.00527638
0.00527019
0.00526466
0.00525978
0.00525552
0.00525186
0.00524879
0.00524626
0.00524423
0.00524269
0.00524158
0.00524088
0.00524055
0.00528534
0.00528085
0.00527464
0.00526712
0.00525868
0.00524962
0.00524022
0.00523072
0.0052213
0.00521214
0.00520334
0.00519502
0.00518723
0.00518002
0.00517343
0.00516746
0.00516213
0.00515742
0.00515332
0.0051498
0.00514683
0.00514439
0.00514245
0.00514096
0.00513989
0.00513922
0.0051389
0.00518216
0.00517783
0.00517185
0.00516461
0.00515648
0.00514775
0.0051387
0.00512955
0.00512049
0.00511167
0.0051032
0.00509519
0.00508769
0.00508076
0.00507442
0.00506868
0.00506355
0.00505902
0.00505508
0.00505169
0.00504884
0.0050465
0.00504463
0.00504319
0.00504217
0.00504152
0.00504121
0.00508291
0.00507875
0.005073
0.00506605
0.00505823
0.00504985
0.00504116
0.00503237
0.00502366
0.00501519
0.00500707
0.00499937
0.00499218
0.00498553
0.00497944
0.00497394
0.00496902
0.00496468
0.00496089
0.00495765
0.00495491
0.00495266
0.00495087
0.0049495
0.00494852
0.00494789
0.0049476
0.00498769
0.0049837
0.00497819
0.00497153
0.00496404
0.00495601
0.00494769
0.00493927
0.00493094
0.00492283
0.00491506
0.0049077
0.00490082
0.00489445
0.00488863
0.00488337
0.00487867
0.00487452
0.0048709
0.0048678
0.00486519
0.00486304
0.00486133
0.00486002
0.00485908
0.00485849
0.0048582
0.00489662
0.00489281
0.00488755
0.00488119
0.00487405
0.00486639
0.00485844
0.00485042
0.00484248
0.00483475
0.00482734
0.00482033
0.00481377
0.00480771
0.00480217
0.00479716
0.00479269
0.00478874
0.0047853
0.00478235
0.00477986
0.00477782
0.00477619
0.00477495
0.00477405
0.00477349
0.00477322
0.00480988
0.00480626
0.00480126
0.00479522
0.00478843
0.00478116
0.00477362
0.004766
0.00475847
0.00475114
0.00474411
0.00473747
0.00473126
0.00472552
0.00472027
0.00471553
0.0047113
0.00470756
0.00470431
0.00470151
0.00469917
0.00469723
0.00469569
0.00469452
0.00469367
0.00469314
0.00469289
0.00472767
0.00472425
0.00471953
0.00471383
0.00470742
0.00470056
0.00469344
0.00468626
0.00467916
0.00467225
0.00466564
0.00465938
0.00465354
0.00464814
0.0046432
0.00463875
0.00463477
0.00463125
0.0046282
0.00462558
0.00462337
0.00462156
0.00462011
0.00461901
0.00461822
0.00461771
0.00461748
0.00465026
0.00464706
0.00464263
0.00463728
0.00463128
0.00462485
0.00461819
0.00461147
0.00460483
0.00459838
0.0045922
0.00458635
0.0045809
0.00457586
0.00457126
0.0045671
0.00456339
0.00456012
0.00455728
0.00455484
0.00455278
0.0045511
0.00454975
0.00454872
0.00454799
0.00454752
0.0045473
0.00457793
0.00457496
0.00457084
0.00456588
0.00456031
0.00455434
0.00454817
0.00454194
0.00453579
0.00452982
0.0045241
0.0045187
0.00451366
0.00450901
0.00450476
0.00450093
0.00449751
0.00449449
0.00449187
0.00448962
0.00448773
0.00448618
0.00448494
0.00448399
0.00448332
0.00448289
0.00448268
0.00451101
0.00450827
0.00450449
0.00449993
0.00449482
0.00448935
0.00448369
0.00447799
0.00447236
0.0044669
0.00446167
0.00445674
0.00445214
0.0044479
0.00444403
0.00444054
0.00443743
0.00443469
0.0044323
0.00443026
0.00442854
0.00442713
0.00442601
0.00442515
0.00442453
0.00442415
0.00442396
0.0044498
0.00444731
0.00444389
0.00443976
0.00443514
0.00443019
0.00442508
0.00441994
0.00441486
0.00440994
0.00440524
0.0044008
0.00439667
0.00439286
0.00438939
0.00438626
0.00438347
0.00438101
0.00437888
0.00437705
0.00437552
0.00437426
0.00437326
0.00437249
0.00437194
0.00437159
0.00437143
0.00439461
0.0043924
0.00438935
0.00438567
0.00438156
0.00437716
0.00437263
0.00436807
0.00436357
0.00435921
0.00435506
0.00435114
0.0043475
0.00434414
0.00434109
0.00433834
0.00433589
0.00433373
0.00433186
0.00433025
0.00432891
0.00432781
0.00432693
0.00432626
0.00432578
0.00432547
0.00432533
0.0043457
0.00434377
0.00434111
0.00433791
0.00433432
0.0043305
0.00432656
0.0043226
0.0043187
0.00431493
0.00431134
0.00430796
0.00430482
0.00430193
0.0042993
0.00429693
0.00429483
0.00429298
0.00429138
0.00429
0.00428885
0.00428791
0.00428716
0.00428659
0.00428618
0.00428592
0.00428579
0.00430326
0.00430161
0.00429935
0.00429662
0.00429358
0.00429033
0.00428699
0.00428365
0.00428036
0.00427718
0.00427415
0.00427131
0.00426868
0.00426626
0.00426406
0.00426208
0.00426033
0.00425878
0.00425745
0.00425631
0.00425535
0.00425457
0.00425394
0.00425347
0.00425313
0.00425291
0.00425281
0.00426731
0.00426595
0.00426408
0.00426183
0.00425932
0.00425666
0.00425392
0.00425117
0.00424848
0.00424589
0.00424342
0.00424111
0.00423897
0.00423701
0.00423523
0.00423363
0.00423222
0.00423097
0.0042299
0.00422898
0.00422821
0.00422758
0.00422708
0.0042267
0.00422643
0.00422626
0.00422618
0.00423776
0.00423667
0.00423518
0.00423339
0.0042314
0.00422929
0.00422712
0.00422495
0.00422283
0.00422079
0.00421886
0.00421705
0.00421538
0.00421385
0.00421247
0.00421123
0.00421013
0.00420917
0.00420834
0.00420763
0.00420704
0.00420655
0.00420617
0.00420587
0.00420567
0.00420553
0.00420547
0.00421428
0.00421345
0.00421231
0.00421095
0.00420944
0.00420783
0.00420619
0.00420456
0.00420296
0.00420143
0.00419998
0.00419863
0.00419739
0.00419625
0.00419522
0.0041943
0.00419349
0.00419278
0.00419217
0.00419165
0.00419121
0.00419086
0.00419057
0.00419036
0.00419021
0.00419011
0.00419006
0.00419636
0.00419576
0.00419494
0.00419395
0.00419286
0.00419171
0.00419053
0.00418936
0.00418822
0.00418713
0.0041861
0.00418515
0.00418427
0.00418346
0.00418274
0.0041821
0.00418153
0.00418103
0.00418061
0.00418024
0.00417994
0.00417969
0.0041795
0.00417935
0.00417924
0.00417917
0.00417914
0.00418331
0.0041829
0.00418234
0.00418167
0.00418093
0.00418015
0.00417936
0.00417857
0.0041778
0.00417707
0.00417639
0.00417575
0.00417517
0.00417463
0.00417416
0.00417373
0.00417336
0.00417303
0.00417275
0.00417251
0.00417231
0.00417215
0.00417202
0.00417193
0.00417186
0.00417181
0.00417179
0.00417427
0.00417401
0.00417366
0.00417324
0.00417277
0.00417228
0.00417178
0.00417129
0.00417081
0.00417036
0.00416993
0.00416953
0.00416917
0.00416884
0.00416854
0.00416828
0.00416805
0.00416785
0.00416767
0.00416753
0.0041674
0.0041673
0.00416722
0.00416716
0.00416712
0.00416709
0.00416708
0.00416836
0.00416821
0.00416801
0.00416776
0.00416749
0.00416721
0.00416692
0.00416663
0.00416636
0.00416609
0.00416584
0.00416561
0.0041654
0.00416521
0.00416503
0.00416488
0.00416474
0.00416462
0.00416452
0.00416443
0.00416436
0.0041643
0.00416425
0.00416422
0.00416419
0.00416418
0.00416417
0.0041647
0.00416463
0.00416452
0.00416439
0.00416424
0.00416409
0.00416394
0.00416378
0.00416363
0.00416349
0.00416335
0.00416322
0.00416311
0.004163
0.0041629
0.00416282
0.00416274
0.00416267
0.00416262
0.00416257
0.00416253
0.00416249
0.00416247
0.00416244
0.00416243
0.00416242
0.00416242
0.00416255
0.00416251
0.00416246
0.00416239
0.00416232
0.00416225
0.00416217
0.0041621
0.00416202
0.00416195
0.00416187
0.00416181
0.00416175
0.00416169
0.00416164
0.00416159
0.00416155
0.00416151
0.00416148
0.00416145
0.00416143
0.00416141
0.00416139
0.00416138
0.00416137
0.00416137
0.00416136
0.00416132
0.0041613
0.00416128
0.00416125
0.00416122
0.00416119
0.00416115
0.00416111
0.00416108
0.00416104
0.004161
0.00416097
0.00416093
0.0041609
0.00416087
0.00416085
0.00416083
0.0041608
0.00416079
0.00416077
0.00416076
0.00416074
0.00416074
0.00416073
0.00416072
0.00416072
0.00416072
0.00416062
0.00416062
0.00416061
0.0041606
0.00416058
0.00416057
0.00416055
0.00416054
0.00416052
0.0041605
0.00416048
0.00416046
0.00416044
0.00416042
0.00416041
0.00416039
0.00416038
0.00416037
0.00416035
0.00416034
0.00416034
0.00416033
0.00416032
0.00416032
0.00416032
0.00416031
0.00416031
0.00416022
0.00416022
0.00416022
0.00416022
0.00416021
0.0041602
0.00416019
0.00416019
0.00416018
0.00416017
0.00416015
0.00416014
0.00416013
0.00416012
0.00416011
0.0041601
0.0041601
0.00416009
0.00416008
0.00416008
0.00416007
0.00416007
0.00416006
0.00416006
0.00416006
0.00416006
0.00416006
0.00415999
0.00415999
0.00415998
0.00415998
0.00415998
0.00415998
0.00415997
0.00415997
0.00415996
0.00415996
0.00415995
0.00415995
0.00415994
0.00415993
0.00415993
0.00415992
0.00415992
0.00415991
0.00415991
0.0041599
0.0041599
0.0041599
0.0041599
0.0041599
0.00415989
0.00415989
0.00415989
0.00415984
0.00415984
0.00415984
0.00415984
0.00415984
0.00415984
0.00415983
0.00415983
0.00415983
0.00415983
0.00415982
0.00415982
0.00415982
0.00415981
0.00415981
0.00415981
0.00415981
0.0041598
0.0041598
0.0041598
0.0041598
0.0041598
0.00415979
0.00415979
0.00415979
0.00415979
0.00415979
0.00415975
0.00415975
0.00415975
0.00415975
0.00415975
0.00415975
0.00415975
0.00415975
0.00415975
0.00415975
0.00415974
0.00415974
0.00415974
0.00415974
0.00415974
0.00415974
0.00415974
0.00415974
0.00415973
0.00415973
0.00415973
0.00415973
0.00415973
0.00415973
0.00415973
0.00415973
0.00415973
0.00415969
0.00415969
0.00415969
0.00415969
0.00415969
0.00415969
0.00415969
0.0041597
0.0041597
0.0041597
0.0041597
0.0041597
0.0041597
0.0041597
0.0041597
0.0041597
0.00415969
0.00415969
0.00415969
0.00415969
0.00415969
0.00415969
0.00415969
0.00415969
0.00415969
0.00415969
0.00415969
0.00415966
0.00415966
0.00415966
0.00415966
0.00415966
0.00415966
0.00415966
0.00415967
0.00415967
0.00415967
0.00415967
0.00415967
0.00415967
0.00415967
0.00415967
0.00415967
0.00415967
0.00415967
0.00415967
0.00415967
0.00415967
0.00415967
0.00415967
0.00415967
0.00415967
0.00415967
0.00415967
0.00415964
0.00415964
0.00415964
0.00415964
0.00415964
0.00415965
0.00415965
0.00415965
0.00415965
0.00415965
0.00415965
0.00415965
0.00415965
0.00415965
0.00415965
0.00415965
0.00415966
0.00415966
0.00415966
0.00415966
0.00415966
0.00415966
0.00415966
0.00415966
0.00415966
0.00415966
0.00415966
0.00415963
0.00415963
0.00415963
0.00415963
0.00415963
0.00415964
0.00415964
0.00415964
0.00415964
0.00415964
0.00415964
0.00415964
0.00415964
0.00415965
0.00415965
0.00415965
0.00415965