/*--------------------------------*- C++ -*----------------------------------*\
| =========                 |                                                 |
| \\      /  F ield         | OpenFOAM: The Open Source CFD Toolbox           |
|  \\    /   O peration     | Version:  2106                                  |
|   \\  /    A nd           | Website:  www.openfoam.com                      |
|    \\/     M anipulation  |                                                 |
\*---------------------------------------------------------------------------*/
FoamFile
{
    version     2.0;
    format      ascii;
    arch        "LSB;label=32;scalar=64";
    class       surfaceScalarField;
    location    "200.00032";
    object      phi;
}
// * * * * * * * * * * * * * * * * * * * * * * * * * * * * * * * * * * * * * //

dimensions      [1 0 -1 0 0 0 0];

oriented        oriented;

internalField   nonuniform List<scalar> 
6572
(
-2.08124e-10
6.71953e-10
5.4331e-11
-4.48777e-10
1.04202e-09
-7.65549e-10
1.35705e-09
-1.14852e-09
1.62302e-09
-1.58773e-09
1.84448e-09
-2.07257e-09
2.02492e-09
-2.59144e-09
2.16703e-09
-3.1316e-09
2.27295e-09
-3.67925e-09
2.34454e-09
-4.21967e-09
2.38352e-09
-4.73763e-09
2.39169e-09
-5.21741e-09
2.37064e-09
-5.64397e-09
2.32288e-09
-6.00314e-09
2.25094e-09
-6.28151e-09
2.15701e-09
-6.46639e-09
2.04311e-09
-6.54608e-09
1.91135e-09
-6.51008e-09
1.76395e-09
-6.34928e-09
1.6032e-09
-6.05612e-09
1.43142e-09
-5.6247e-09
1.25094e-09
-5.05081e-09
1.06409e-09
-4.33187e-09
8.72985e-10
-3.46674e-09
6.79552e-10
-2.45557e-09
4.85487e-10
-1.2996e-09
2.92199e-10
9.99522e-11
-1.48285e-10
7.80661e-10
3.95778e-11
-3.12934e-10
1.20667e-09
-5.20184e-10
1.5643e-09
-7.56376e-10
1.85921e-09
-1.00776e-09
2.09586e-09
-1.26076e-09
2.27792e-09
-1.50239e-09
2.40866e-09
-1.72073e-09
2.49129e-09
-1.9054e-09
2.52921e-09
-2.0479e-09
2.52602e-09
-2.14321e-09
2.487e-09
-2.19038e-09
2.41781e-09
-2.18914e-09
2.32165e-09
-2.14032e-09
2.20212e-09
-2.04631e-09
2.06299e-09
-1.91119e-09
1.908e-09
-1.74073e-09
1.7409e-09
-1.5421e-09
1.56532e-09
-1.32361e-09
1.38471e-09
-1.0944e-09
1.20221e-09
-8.64108e-10
1.02065e-09
-6.42501e-10
8.42479e-10
-4.39293e-10
6.69777e-10
-2.64268e-10
5.04528e-10
-1.26709e-10
3.47928e-10
-3.537e-11
2.0086e-10
6.45821e-11
-1.34766e-10
8.79819e-10
3.56085e-11
-2.8184e-10
1.35374e-09
-4.60544e-10
1.74301e-09
-6.55167e-10
2.05384e-09
-8.51295e-10
2.29199e-09
-1.03637e-09
2.46299e-09
-1.20001e-09
2.5723e-09
-1.33475e-09
2.62604e-09
-1.4359e-09
2.63036e-09
-1.50142e-09
2.59154e-09
-1.53033e-09
2.51592e-09
-1.52221e-09
2.40969e-09
-1.47859e-09
2.27803e-09
-1.40245e-09
2.12598e-09
-1.29806e-09
1.9586e-09
-1.171e-09
1.78094e-09
-1.02773e-09
1.59762e-09
-8.75107e-10
1.4127e-09
-7.20017e-10
1.22962e-09
-5.68998e-10
1.05119e-09
-4.27944e-10
8.79595e-10
-3.01845e-10
7.1638e-10
-1.9473e-10
5.62662e-10
-1.09394e-10
4.19192e-10
-4.7877e-11
2.86411e-10
-1.15239e-11
1.64506e-10
5.30583e-11
-7.60993e-11
9.35122e-10
2.07967e-11
-1.56193e-10
1.43384e-09
-2.5089e-10
1.8377e-09
-3.50402e-10
2.15335e-09
-4.46079e-10
2.38767e-09
-5.30855e-10
2.54777e-09
-5.99676e-10
2.64112e-09
-6.48928e-10
2.67529e-09
-6.76884e-10
2.65832e-09
-6.83383e-10
2.59804e-09
-6.69749e-10
2.50228e-09
-6.38162e-10
2.3781e-09
-5.91953e-10
2.23182e-09
-5.35107e-10
2.06914e-09
-4.7181e-10
1.8953e-09
-4.05854e-10
1.71499e-09
-3.40433e-10
1.5322e-09
-2.78045e-10
1.35031e-09
-2.20493e-10
1.17207e-09
-1.68948e-10
9.99645e-10
-1.24078e-10
8.34726e-10
-8.62397e-11
6.78542e-10
-5.55304e-11
5.31952e-10
-3.18334e-11
3.95495e-10
-1.4859e-11
2.69437e-10
-4.18374e-12
1.53831e-10
4.88745e-11
-4.67159e-11
9.69479e-10
1.23589e-11
-9.5877e-11
1.483e-09
-1.52269e-10
1.8941e-09
-2.09115e-10
2.21019e-09
-2.6095e-10
2.4395e-09
-3.04114e-10
2.59093e-09
-3.36596e-10
2.6736e-09
-3.57758e-10
2.69645e-09
-3.6765e-10
2.66821e-09
-3.66948e-10
2.59734e-09
-3.56511e-10
2.49185e-09
-3.37546e-10
2.35914e-09
-3.11658e-10
2.20593e-09
-2.80708e-10
2.03819e-09
-2.46672e-10
1.86127e-09
-2.11374e-10
1.67969e-09
-1.7637e-10
1.4972e-09
-1.42916e-10
1.31686e-09
-1.11973e-10
1.14112e-09
-8.42393e-11
9.71911e-10
-6.01845e-11
8.10671e-10
-4.00974e-11
6.58454e-10
-2.41207e-11
5.15976e-10
-1.22797e-11
3.83654e-10
-4.50708e-12
2.61664e-10
-6.64545e-13
1.49989e-10
4.821e-11
-2.95945e-11
9.90798e-10
8.27534e-12
-5.93249e-11
1.51273e-09
-9.26713e-11
1.92744e-09
-1.25319e-10
2.24284e-09
-1.5401e-10
2.46819e-09
-1.76414e-10
2.61334e-09
-1.91431e-10
2.68862e-09
-1.98984e-10
2.704e-09
-1.99579e-10
2.6688e-09
-1.94112e-10
2.59187e-09
-1.83709e-10
2.48144e-09
-1.69605e-10
2.34504e-09
-1.53047e-10
2.18937e-09
-1.3521e-10
2.02035e-09
-1.17011e-10
1.84307e-09
-9.91632e-11
1.66184e-09
-8.2211e-11
1.48024e-09
-6.65556e-11
1.3012e-09
-5.24722e-11
1.12704e-09
-4.01249e-11
9.59563e-10
-2.95813e-11
8.00127e-10
-2.08258e-11
6.49699e-10
-1.37719e-11
5.08922e-10
-8.28547e-12
3.78167e-10
-4.20532e-12
2.57584e-10
-1.35787e-12
1.47141e-10
4.68521e-11
-1.7225e-11
1.00352e-09
4.50414e-12
-3.53782e-11
1.53088e-09
-5.60894e-11
1.94815e-09
-7.68914e-11
2.26364e-09
-9.58919e-11
2.48719e-09
-1.11882e-10
2.62933e-09
-1.23881e-10
2.70062e-09
-1.31329e-10
2.71145e-09
-1.3423e-10
2.6717e-09
-1.32963e-10
2.5906e-09
-1.28128e-10
2.47661e-09
-1.20428e-10
2.33734e-09
-1.10585e-10
2.17953e-09
-9.92868e-11
2.00905e-09
-8.71517e-11
1.83093e-09
-7.47168e-11
1.6494e-09
-6.24363e-11
1.46796e-09
-5.06848e-11
1.28945e-09
-3.97637e-11
1.11612e-09
-2.99093e-11
9.49709e-10
-2.13001e-11
7.91518e-10
-1.40649e-11
6.42464e-10
-8.28955e-12
5.03147e-10
-4.02335e-12
3.73901e-10
-1.28422e-12
2.54845e-10
-6.3485e-14
1.4592e-10
4.67887e-11
-1.04675e-11
1.011e-09
2.98298e-12
-2.07835e-11
1.5412e-09
-3.22229e-11
1.95959e-09
-4.33161e-11
2.27474e-09
-5.29013e-11
2.49678e-09
-6.02788e-11
2.6367e-09
-6.50963e-11
2.70544e-09
-6.72916e-11
2.71365e-09
-6.70453e-11
2.67146e-09
-6.47061e-11
2.58826e-09
-6.07143e-11
2.47262e-09
-5.55378e-11
2.33216e-09
-4.96253e-11
2.17362e-09
-4.33749e-11
2.0028e-09
-3.71173e-11
1.82468e-09
-3.11103e-11
1.6434e-09
-2.55394e-11
1.46239e-09
-2.05245e-11
1.28444e-09
-1.61287e-11
1.11172e-09
-1.2368e-11
9.45948e-10
-9.22219e-12
7.88372e-10
-6.64397e-12
6.39886e-10
-4.56817e-12
5.01071e-10
-2.91936e-12
3.72252e-10
-1.61812e-12
2.53544e-10
-5.8604e-13
1.44888e-10
4.62026e-11
-7.39475e-12
1.01649e-09
1.90614e-12
-1.53068e-11
1.54911e-09
-2.44489e-11
1.96873e-09
-3.37664e-11
2.28405e-09
-4.24223e-11
2.50543e-09
-4.96958e-11
2.64398e-09
-5.51609e-11
2.7109e-09
-5.86454e-11
2.71713e-09
-6.01704e-11
2.67298e-09
-5.9891e-11
2.58798e-09
-5.80445e-11
2.47077e-09
-5.49093e-11
2.32902e-09
-5.0775e-11
2.16948e-09
-4.59226e-11
1.99795e-09
-4.06125e-11
1.81937e-09
-3.50787e-11
1.63786e-09
-2.95268e-11
1.45684e-09
-2.41341e-11
1.27904e-09
-1.90508e-11
1.10664e-09
-1.44026e-11
9.413e-10
-1.02918e-11
7.84261e-10
-6.79966e-12
6.36393e-10
-3.98822e-12
4.98259e-10
-1.90139e-12
3.70165e-10
-5.66663e-13
2.52209e-10
3.5282e-15
1.44318e-10
4.62062e-11
-4.50475e-12
1.0197e-09
1.29737e-12
-8.94497e-12
1.55355e-09
-1.39318e-11
1.97372e-09
-1.8865e-11
2.28899e-09
-2.32718e-11
2.50984e-09
-2.67663e-11
2.64747e-09
-2.91543e-11
2.71329e-09
-3.03874e-11
2.71837e-09
-3.05291e-11
2.67312e-09
-2.97189e-11
2.58717e-09
-2.81382e-11
2.46919e-09
-2.59845e-11
2.32687e-09
-2.34505e-11
2.16695e-09
-2.07119e-11
1.99521e-09
-1.79188e-11
1.81657e-09
-1.5192e-11
1.63514e-09
-1.26224e-11
1.45427e-09
-1.02728e-11
1.27669e-09
-8.18026e-12
1.10455e-09
-6.36064e-12
9.3948e-10
-4.81201e-12
7.82713e-10
-3.51901e-12
6.351e-10
-2.45665e-12
4.97197e-10
-1.59375e-12
3.69302e-10
-8.95986e-13
2.51511e-10
-3.28353e-13
1.43751e-10
4.58778e-11
-4.26781e-12
1.02287e-09
1.09927e-12
-8.84936e-12
1.55813e-09
-1.41428e-11
1.97902e-09
-1.95019e-11
2.29435e-09
-2.44013e-11
2.51474e-09
-2.85583e-11
2.65163e-09
-3.17796e-11
2.71651e-09
-3.3974e-11
2.72056e-09
-3.51331e-11
2.67428e-09
-3.53107e-11
2.58735e-09
-3.46021e-11
2.46848e-09
-3.31283e-11
2.3254e-09
-3.10229e-11
2.16484e-09
-2.8423e-11
1.99261e-09
-2.54621e-11
1.81361e-09
-2.22737e-11
1.63195e-09
-1.89835e-11
1.45098e-09
-1.57087e-11
1.27342e-09
-1.2555e-11
1.10139e-09
-9.61568e-12
9.36541e-10
-6.97081e-12
7.80068e-10
-4.68704e-12
6.32817e-10
-2.81766e-12
4.95328e-10
-1.4029e-12
3.67888e-10
-4.70524e-13
2.50579e-10
-3.6658e-14
1.43317e-10
4.58411e-11
-3.17535e-12
1.02514e-09
9.02177e-13
-6.35439e-12
1.56131e-09
-9.95884e-12
1.98262e-09
-1.35537e-11
2.29794e-09
-1.68169e-11
2.518e-09
-1.95307e-11
2.65434e-09
-2.15706e-11
2.71855e-09
-2.28854e-11
2.72187e-09
-2.34826e-11
2.67488e-09
-2.34135e-11
2.58728e-09
-2.27585e-11
2.46783e-09
-2.16151e-11
2.32425e-09
-2.00878e-11
2.16331e-09
-1.82803e-11
1.9908e-09
-1.62927e-11
1.81163e-09
-1.4212e-11
1.62987e-09
-1.21209e-11
1.44889e-09
-1.00903e-11
1.27139e-09
-8.1772e-12
1.09948e-09
-6.42497e-12
9.34789e-10
-4.86382e-12
7.78507e-10
-3.51208e-12
6.31465e-10
-2.37788e-12
4.94193e-10
-1.46088e-12
3.66971e-10
-7.54168e-13
2.49872e-10
-2.459e-13
1.42808e-10
4.55953e-11
-4.4404e-12
1.02842e-09
1.16313e-12
-9.23441e-12
1.56611e-09
-1.49181e-11
1.9883e-09
-2.09035e-11
2.30393e-09
-2.66572e-11
2.52376e-09
-3.17337e-11
2.65942e-09
-3.58288e-11
2.72265e-09
-3.87663e-11
2.72481e-09
-4.04783e-11
2.67659e-09
-4.09842e-11
2.58779e-09
-4.03706e-11
2.46721e-09
-3.87731e-11
2.32266e-09
-3.63594e-11
2.1609e-09
-3.33154e-11
1.98776e-09
-2.98311e-11
1.80814e-09
-2.60887e-11
1.62613e-09
-2.22462e-11
1.44505e-09
-1.84427e-11
1.26758e-09
-1.47982e-11
1.09584e-09
-1.14145e-11
9.31405e-10
-8.3753e-12
7.75467e-10
-5.74741e-12
6.28837e-10
-3.5815e-12
4.92027e-10
-1.91334e-12
3.65303e-10
-7.65076e-13
2.48724e-10
-1.46609e-13
1.4219e-10
4.54487e-11
-4.78221e-12
1.03189e-09
1.30957e-12
-9.7825e-12
1.57111e-09
-1.56463e-11
1.99417e-09
-2.17443e-11
2.31002e-09
-2.75323e-11
2.52955e-09
-3.25836e-11
2.66447e-09
-3.66043e-11
2.72667e-09
-3.94252e-11
2.72763e-09
-4.09871e-11
2.67815e-09
-4.13222e-11
2.58812e-09
-4.0533e-11
2.46642e-09
-3.87711e-11
2.32089e-09
-3.62186e-11
2.15835e-09
-3.30709e-11
1.98461e-09
-2.95241e-11
1.80459e-09
-2.57583e-11
1.62236e-09
-2.19342e-11
1.44122e-09
-1.81894e-11
1.26384e-09
-1.46378e-11
1.09228e-09
-1.137e-11
9.28137e-10
-8.45467e-12
7.72552e-10
-5.94009e-12
6.26323e-10
-3.85683e-12
4.89944e-10
-2.21996e-12
3.63666e-10
-1.0317e-12
2.47536e-10
-2.83769e-13
1.41442e-10
4.51649e-11
-6.5736e-12
1.03671e-09
1.74937e-12
-1.36138e-11
1.57815e-09
-2.19742e-11
2.00253e-09
-3.08198e-11
2.31887e-09
-3.94284e-11
2.53815e-09
-4.72172e-11
2.67226e-09
-5.37504e-11
2.7332e-09
-5.87397e-11
2.73262e-09
-6.20321e-11
2.68145e-09
-6.35912e-11
2.58968e-09
-6.3477e-11
2.46631e-09
-6.18241e-11
2.31924e-09
-5.88219e-11
2.15535e-09
-5.46957e-11
1.98049e-09
-4.9691e-11
1.79959e-09
-4.40665e-11
1.61674e-09
-3.80818e-11
1.43524e-09
-3.19852e-11
1.25774e-09
-2.6004e-11
1.0863e-09
-2.03391e-11
9.22473e-10
-1.51611e-11
7.67374e-10
-1.06092e-11
6.21771e-10
-6.79144e-12
4.86126e-10
-3.78584e-12
3.6066e-10
-1.64308e-12
2.45393e-10
-3.89167e-13
1.40188e-10
4.47757e-11
-8.43982e-12
1.04287e-09
2.28142e-12
-1.73802e-11
1.58709e-09
-2.79618e-11
2.01311e-09
-3.91069e-11
2.33001e-09
-4.98774e-11
2.54892e-09
-5.95165e-11
2.6819e-09
-6.74657e-11
2.74115e-09
-7.3367e-11
2.73852e-09
-7.70468e-11
2.68513e-09
-7.8491e-11
2.59113e-09
-7.78152e-11
2.46563e-09
-7.52335e-11
2.31666e-09
-7.10293e-11
2.15114e-09
-6.55268e-11
1.97498e-09
-5.90679e-11
1.79313e-09
-5.19924e-11
1.60966e-09
-4.46221e-11
1.42787e-09
-3.72499e-11
1.25037e-09
-3.01317e-11
1.07918e-09
-2.34829e-11
9.15824e-10
-1.74774e-11
7.61368e-10
-1.22481e-11
6.16541e-10
-7.89052e-12
4.81769e-10
-4.4656e-12
3.57235e-10
-2.00469e-12
2.42932e-10
-5.13703e-13
1.38697e-10
4.4262e-11
-1.08703e-11
1.05083e-09
2.91349e-12
-2.24056e-11
1.59862e-09
-3.59892e-11
2.02669e-09
-5.01921e-11
2.34422e-09
-6.37878e-11
2.56252e-09
-7.58075e-11
2.69392e-09
-8.55607e-11
2.7509e-09
-9.26242e-11
2.74559e-09
-9.68177e-11
2.68932e-09
-9.8167e-11
2.59248e-09
-9.68615e-11
2.46433e-09
-9.32098e-11
2.31301e-09
-8.75979e-11
2.14553e-09
-8.04529e-11
1.96784e-09
-7.22117e-11
1.78489e-09
-6.32976e-11
1.60075e-09
-5.41031e-11
1.41867e-09
-4.49788e-11
1.24125e-09
-3.62267e-11
1.07043e-09
-2.80982e-11
9.07695e-10
-2.07941e-11
7.54064e-10
-1.44673e-11
6.10215e-10
-9.22623e-12
4.76528e-10
-5.14026e-12
3.53149e-10
-2.24401e-12
2.40036e-10
-5.42809e-13
1.36996e-10
4.37192e-11
-1.34005e-11
1.06061e-09
3.62045e-12
-2.74973e-11
1.61272e-09
-4.39892e-11
2.04318e-09
-6.10885e-11
2.36132e-09
-7.72794e-11
2.57871e-09
-9.13892e-11
2.70803e-09
-1.02609e-10
2.76212e-09
-1.10478e-10
2.75346e-09
-1.14839e-10
2.69368e-09
-1.1579e-10
2.59343e-09
-1.13617e-10
2.46215e-09
-1.08738e-10
2.30813e-09
-1.01651e-10
2.13844e-09
-9.28854e-11
1.95907e-09
-8.29686e-11
1.77497e-09
-7.23987e-11
1.59018e-09
-6.16268e-11
1.4079e-09
-5.10461e-11
1.23067e-09
-4.0987e-11
1.06037e-09
-3.17167e-11
8.98425e-10
-2.34417e-11
7.45789e-10
-1.63125e-11
6.03085e-10
-1.04296e-11
4.70645e-10
-5.85003e-12
3.4857e-10
-2.59386e-12
2.3678e-10
-6.50817e-13
1.35053e-10
4.30684e-11
-1.60141e-11
1.07231e-09
4.31484e-12
-3.28021e-11
1.62951e-09
-5.22863e-11
2.06267e-09
-7.22701e-11
2.3813e-09
-9.09283e-11
2.59737e-09
-1.06891e-10
2.72399e-09
-1.1926e-10
2.77449e-09
-1.27571e-10
2.76177e-09
-1.31732e-10
2.69784e-09
-1.31946e-10
2.59364e-09
-1.28623e-10
2.45883e-09
-1.22312e-10
2.30182e-09
-1.13626e-10
2.12976e-09
-1.032e-10
1.94865e-09
-9.1642e-11
1.76342e-09
-7.95143e-11
1.57805e-09
-6.73115e-11
1.3957e-09
-5.54546e-11
1.21881e-09
-4.42887e-11
1.04921e-09
-3.40854e-11
8.88222e-10
-2.50482e-11
7.36752e-10
-1.73198e-11
5.95357e-10
-1.09893e-11
4.64314e-10
-6.10097e-12
3.43681e-10
-2.66155e-12
2.3334e-10
-6.47406e-13
1.33039e-10
4.2421e-11
-1.79308e-11
1.08538e-09
4.85939e-12
-3.65419e-11
1.64812e-09
-5.79192e-11
2.08405e-09
-7.95487e-11
2.40293e-09
-9.93932e-11
2.61721e-09
-1.15984e-10
2.74058e-09
-1.28419e-10
2.78693e-09
-1.36307e-10
2.76965e-09
-1.39669e-10
2.70121e-09
-1.38837e-10
2.59281e-09
-1.34348e-10
2.45434e-09
-1.26857e-10
2.29433e-09
-1.17062e-10
2.11996e-09
-1.05655e-10
1.93724e-09
-9.32768e-11
1.75104e-09
-8.05007e-11
1.56527e-09
-6.78174e-11
1.38302e-09
-5.56318e-11
1.20662e-09
-4.4266e-11
1.03784e-09
-3.39647e-11
8.7792e-10
-2.49038e-11
7.27691e-10
-1.71991e-11
5.87652e-10
-1.09157e-11
4.58031e-10
-6.07682e-12
3.38842e-10
-2.67162e-12
2.29935e-10
-6.62587e-13
1.3103e-10
4.17585e-11
-1.88694e-11
1.09914e-09
5.11413e-12
-3.83096e-11
1.66756e-09
-6.038e-11
2.10612e-09
-8.2367e-11
2.42492e-09
-1.02141e-10
2.63699e-09
-1.18239e-10
2.75668e-09
-1.29845e-10
2.79853e-09
-1.3669e-10
2.7765e-09
-1.38931e-10
2.70345e-09
-1.37021e-10
2.5909e-09
-1.31595e-10
2.44892e-09
-1.23371e-10
2.2861e-09
-1.1308e-10
2.10967e-09
-1.01418e-10
1.92558e-09
-8.901e-11
1.73863e-09
-7.63973e-11
1.55266e-09
-6.4031e-11
1.37065e-09
-5.22733e-11
1.19487e-09
-4.14039e-11
1.02697e-09
-3.16284e-11
8.68145e-10
-2.30885e-11
7.19151e-10
-1.58716e-11
5.80435e-10
-1.00204e-11
4.5218e-10
-5.54111e-12
3.34363e-10
-2.41146e-12
2.26805e-10
-5.87003e-13
1.29205e-10
4.11715e-11
-1.81247e-11
1.11232e-09
4.93896e-12
-3.65798e-11
1.68601e-09
-5.72535e-11
2.12679e-09
-7.7493e-11
2.44516e-09
-9.52919e-11
2.65479e-09
-1.09355e-10
2.77074e-09
-1.19042e-10
2.80822e-09
-1.24243e-10
2.7817e-09
-1.25235e-10
2.70444e-09
-1.22543e-10
2.58821e-09
-1.16825e-10
2.4432e-09
-1.08778e-10
2.27806e-09
-9.90842e-11
2.09998e-09
-8.83648e-11
1.91486e-09
-7.71629e-11
1.72743e-09
-6.59345e-11
1.54143e-09
-5.50484e-11
1.35976e-09
-4.4793e-11
1.18461e-09
-3.53838e-11
1.01756e-09
-2.6974e-11
8.59735e-10
-1.96639e-11
7.11841e-10
-1.35103e-11
5.74282e-10
-8.53468e-12
4.47204e-10
-4.73095e-12
3.30559e-10
-2.07125e-12
2.24146e-10
-5.1146e-13
1.27646e-10
4.066e-11
-1.56915e-11
1.12373e-09
4.28075e-12
-3.15195e-11
1.70184e-09
-4.90091e-11
2.14428e-09
-6.5827e-11
2.46197e-09
-8.02812e-11
2.66924e-09
-9.13538e-11
2.78182e-09
-9.86176e-11
2.81548e-09
-1.021e-10
2.78518e-09
-1.02135e-10
2.70447e-09
-9.92368e-11
2.58531e-09
-9.39978e-11
2.43796e-09
-8.70164e-11
2.27107e-09
-7.88524e-11
2.09181e-09
-7.00016e-11
1.90601e-09
-6.08846e-11
1.71831e-09
-5.18456e-11
1.53239e-09
-4.3157e-11
1.35108e-09
-3.50269e-11
1.17648e-09
-2.76074e-11
1.01014e-09
-2.10038e-11
8.53132e-10
-1.52828e-11
7.0612e-10
-1.04796e-11
5.69479e-10
-6.6047e-12
4.43329e-10
-3.64897e-12
3.27604e-10
-1.58844e-12
2.22085e-10
-3.87895e-13
1.26445e-10
4.02721e-11
-1.16463e-11
1.13218e-09
3.19528e-12
-2.32418e-11
1.71344e-09
-3.58637e-11
2.1569e-09
-4.77674e-11
2.47388e-09
-5.77467e-11
2.67922e-09
-6.51356e-11
2.78921e-09
-6.97182e-11
2.82007e-09
-7.16033e-11
2.78707e-09
-7.11029e-11
2.70397e-09
-6.86315e-11
2.58284e-09
-6.46346e-11
2.43396e-09
-5.9541e-11
2.26598e-09
-5.37367e-11
2.08601e-09
-4.75521e-11
1.89982e-09
-4.126e-11
1.71202e-09
-3.50778e-11
1.52621e-09
-2.91739e-11
1.34517e-09
-2.36744e-11
1.17098e-09
-1.86698e-11
1.00514e-09
-1.42218e-11
8.48684e-10
-1.03688e-11
7.02267e-10
-7.13046e-12
5.6624e-10
-4.51207e-12
4.40711e-10
-2.50753e-12
3.25599e-10
-1.10203e-12
2.2068e-10
-2.74197e-13
1.25617e-10
3.99979e-11
-6.69061e-12
1.13704e-09
1.83855e-12
-1.32629e-11
1.72001e-09
-2.02757e-11
2.16391e-09
-2.6716e-11
2.48032e-09
-3.19294e-11
2.68443e-09
-3.56018e-11
2.79288e-09
-3.76842e-11
2.82215e-09
-3.8303e-11
2.78769e-09
-3.76807e-11
2.70335e-09
-3.6076e-11
2.58123e-09
-3.3745e-11
2.43163e-09
-3.09191e-11
2.26315e-09
-2.77954e-11
2.08289e-09
-2.45344e-11
1.89656e-09
-2.12631e-11
1.70875e-09
-1.80787e-11
1.52303e-09
-1.50546e-11
1.34215e-09
-1.22442e-11
1.16817e-09
-9.686e-12
1.00258e-09
-7.40652e-12
8.46404e-10
-5.4232e-12
7.00284e-10
-3.74648e-12
5.64563e-10
-2.38133e-12
4.39346e-10
-1.32845e-12
3.24546e-10
-5.85071e-13
2.19936e-10
-1.45624e-13
1.25178e-10
3.98523e-11
-1.43945e-12
1.13807e-09
4.08109e-13
-2.72472e-12
1.72129e-09
-3.92027e-12
2.16511e-09
-4.79797e-12
2.4812e-09
-5.26386e-12
2.6849e-09
-5.33289e-12
2.79295e-09
-5.08615e-12
2.8219e-09
-4.63051e-12
2.78723e-09
-4.06942e-12
2.70279e-09
-3.48648e-12
2.58065e-09
-2.93938e-12
2.43108e-09
-2.46078e-12
2.26268e-09
-2.06276e-12
2.08249e-09
-1.74278e-12
1.89624e-09
-1.4893e-12
1.70849e-09
-1.28671e-12
1.52282e-09
-1.11891e-12
1.34198e-09
-9.7175e-13
1.16802e-09
-8.34504e-13
1.00244e-09
-7.00424e-13
8.4627e-10
-5.66795e-13
7.0015e-10
-4.34539e-13
5.64431e-10
-3.07623e-13
4.39219e-10
-1.92337e-13
3.24431e-10
-9.65543e-14
2.1984e-10
-2.90347e-14
1.2511e-10
3.98232e-11
3.45768e-12
1.13555e-09
-9.3681e-13
7.06183e-12
1.71769e-09
1.12214e-11
2.16095e-09
1.54433e-11
2.47697e-09
1.93164e-11
2.68103e-09
2.25372e-11
2.78973e-09
2.49167e-11
2.81952e-09
2.63721e-11
2.78578e-09
2.69097e-11
2.70225e-09
2.66026e-11
2.58096e-09
2.55682e-11
2.43212e-09
2.39488e-11
2.2643e-09
2.18953e-11
2.08454e-09
1.95547e-11
1.89858e-09
1.70621e-11
1.71099e-09
1.45352e-11
1.52535e-09
1.20724e-11
1.34444e-09
9.75148e-12
1.17034e-09
7.63068e-12
1.00456e-09
5.75043e-12
8.4815e-10
4.13536e-12
7.01765e-10
2.79672e-12
5.6577e-10
1.7348e-12
4.40281e-10
9.41197e-13
3.25225e-10
4.00957e-13
2.20381e-10
9.44311e-14
1.25417e-10
3.99177e-11
7.68185e-12
1.12995e-09
-2.08813e-12
1.55405e-11
1.70983e-09
2.43935e-11
2.1521e-09
3.31329e-11
2.46824e-09
4.09117e-11
2.67325e-09
4.71689e-11
2.78347e-09
5.16071e-11
2.81509e-09
5.41462e-11
2.78324e-09
5.48682e-11
2.70153e-09
5.39652e-11
2.58186e-09
5.16941e-11
2.43439e-09
4.83408e-11
2.26765e-09
4.41944e-11
2.08869e-09
3.95282e-11
1.90325e-09
3.4589e-11
1.71592e-09
2.95904e-11
1.53035e-09
2.47101e-11
1.34932e-09
2.00908e-11
1.17496e-09
1.58415e-11
1.00881e-09
1.20412e-11
8.51951e-10
8.74225e-12
7.05064e-10
5.97412e-12
5.68538e-10
3.74753e-12
4.42507e-10
2.05784e-12
3.26914e-10
8.88404e-13
2.2155e-10
2.13486e-13
1.26092e-10
4.01312e-11
1.10469e-11
1.12191e-09
-3.00721e-12
2.23225e-11
1.69856e-09
3.50041e-11
2.13942e-09
4.75084e-11
2.45573e-09
5.86366e-11
2.66212e-09
6.76033e-11
2.7745e-09
7.39974e-11
2.80869e-09
7.77112e-11
2.77952e-09
7.88608e-11
2.70038e-09
7.77124e-11
2.58301e-09
7.46202e-11
2.43748e-09
6.99779e-11
2.27229e-09
6.41836e-11
2.09448e-09
5.76159e-11
1.90982e-09
5.06182e-11
1.72292e-09
4.34906e-11
1.53748e-09
3.64864e-11
1.35633e-09
2.9812e-11
1.18164e-09
2.36294e-11
1.015e-09
1.80598e-11
8.5752e-10
1.31883e-11
7.09936e-10
9.06817e-12
5.72658e-10
5.72654e-12
4.45849e-10
3.16832e-12
3.29473e-10
1.38068e-12
2.23338e-10
3.3685e-13
1.27136e-10
4.0468e-11
1.35197e-11
1.11207e-09
-3.67479e-12
2.73616e-11
1.68471e-09
4.29845e-11
2.12379e-09
5.84651e-11
2.44025e-09
7.23375e-11
2.64825e-09
8.36281e-11
2.76321e-09
9.18117e-11
2.80051e-09
9.67289e-11
2.77461e-09
9.84935e-11
2.69862e-09
9.74051e-11
2.5841e-09
9.38756e-11
2.44101e-09
8.83717e-11
2.27779e-09
8.1372e-11
2.10148e-09
7.33373e-11
1.91785e-09
6.46917e-11
1.73157e-09
5.58105e-11
1.54636e-09
4.70158e-11
1.36512e-09
3.85749e-11
1.19008e-09
3.07023e-11
1.02287e-09
2.35636e-11
8.64659e-10
1.72791e-11
7.16221e-10
1.19303e-11
5.78007e-10
7.56504e-12
4.50214e-10
4.20274e-12
3.32835e-10
1.83915e-12
2.25701e-10
4.51127e-13
1.28524e-10
4.09192e-11
1.50606e-11
1.1011e-09
-4.08997e-12
3.05368e-11
1.66924e-09
4.80914e-11
2.10624e-09
6.56024e-11
2.42274e-09
8.14317e-11
2.63242e-09
9.4469e-11
2.75017e-09
1.0409e-10
2.79089e-09
1.10075e-10
2.76862e-09
1.12509e-10
2.69618e-09
1.11693e-10
2.58491e-09
1.08059e-10
2.44464e-09
1.02113e-10
2.28374e-09
9.43835e-11
2.10921e-09
8.53855e-11
1.92685e-09
7.56028e-11
1.74135e-09
6.54665e-11
1.55649e-09
5.53533e-11
1.37523e-09
4.55811e-11
1.19985e-09
3.64096e-11
1.03204e-09
2.80435e-11
8.73025e-10
2.06372e-11
7.23627e-10
1.42996e-11
5.84344e-10
9.10025e-12
4.55414e-10
5.07485e-12
3.3686e-10
2.23042e-12
2.28546e-10
5.50526e-13
1.30203e-10
4.14697e-11
1.56836e-11
1.08967e-09
-4.25273e-12
3.18659e-11
1.65305e-09
5.03132e-11
2.08779e-09
6.88343e-11
2.40422e-09
8.57155e-11
2.61554e-09
9.97711e-11
2.73612e-09
1.1031e-10
2.78035e-09
1.17057e-10
2.76187e-09
1.20059e-10
2.69318e-09
1.19596e-10
2.58538e-09
1.16098e-10
2.44814e-09
1.10075e-10
2.28976e-09
1.02073e-10
2.11721e-09
9.26349e-11
1.93629e-09
8.22735e-11
1.75171e-09
7.14557e-11
1.56731e-09
6.05927e-11
1.3861e-09
5.00362e-11
1.21041e-09
4.00777e-11
1.042e-09
3.09502e-11
8.82152e-10
2.28345e-11
7.31743e-10
1.58613e-11
5.91318e-10
1.01184e-11
4.61156e-10
5.65589e-12
3.41323e-10
2.49163e-12
2.3171e-10
6.16755e-13
1.32078e-10
4.20864e-11
1.5423e-11
1.07842e-09
-4.1785e-12
3.13878e-11
1.63709e-09
4.96638e-11
2.06952e-09
6.81124e-11
2.38577e-09
8.50417e-11
2.59861e-09
9.92606e-11
2.7219e-09
1.10058e-10
2.76955e-09
1.1712e-10
2.75481e-09
1.2046e-10
2.68984e-09
1.20322e-10
2.58551e-09
1.17109e-10
2.45136e-09
1.11315e-10
2.29556e-09
1.03475e-10
2.12505e-09
9.4128e-11
1.94563e-09
8.37867e-11
1.76205e-09
7.29261e-11
1.57817e-09
6.19669e-11
1.39706e-09
5.12721e-11
1.2211e-09
4.11455e-11
1.05213e-09
3.18336e-11
8.91464e-10
2.35283e-11
7.40048e-10
1.6372e-11
5.98474e-10
1.04626e-11
4.67066e-10
5.85893e-12
3.45926e-10
2.58637e-12
2.34983e-10
6.4209e-13
1.34023e-10
4.27285e-11
1.44046e-11
1.06792e-09
-3.89846e-12
2.93551e-11
1.62214e-09
4.65242e-11
2.05235e-09
6.39248e-11
2.36837e-09
7.99707e-11
2.58256e-09
9.35309e-11
2.70834e-09
1.03911e-10
2.75917e-09
1.10795e-10
2.74793e-09
1.1417e-10
2.68647e-09
1.14245e-10
2.58544e-09
1.11382e-10
2.45422e-09
1.0604e-10
2.3009e-09
9.87188e-11
2.13238e-09
8.99266e-11
1.95443e-09
8.01525e-11
1.77183e-09
6.9849e-11
1.58848e-09
5.94207e-11
1.40748e-09
4.92187e-11
1.2313e-09
3.9538e-11
1.06181e-09
3.06193e-11
9.00383e-10
2.26515e-11
7.48016e-10
1.57756e-11
6.0535e-10
1.00898e-11
4.72752e-10
5.65462e-12
3.50362e-10
2.49814e-12
2.38139e-10
6.20803e-13
1.359e-10
4.33493e-11
1.28189e-11
1.05857e-09
-3.46849e-12
2.61439e-11
1.60881e-09
4.14775e-11
2.03701e-09
5.7057e-11
2.35279e-09
7.14665e-11
2.56815e-09
8.36873e-11
2.69612e-09
9.30814e-11
2.74978e-09
9.93559e-11
2.74165e-09
1.02485e-10
2.68334e-09
1.02646e-10
2.58528e-09
1.00159e-10
2.45671e-09
9.54262e-11
2.30563e-09
8.88967e-11
2.1389e-09
8.10266e-11
1.9623e-09
7.22571e-11
1.7806e-09
6.29972e-11
1.59774e-09
5.36135e-11
1.41687e-09
4.44245e-11
1.24049e-09
3.56984e-11
1.07053e-09
2.76542e-11
9.08427e-10
2.04638e-11
7.55206e-10
1.4256e-11
6.11558e-10
9.12064e-12
4.77887e-10
5.11333e-12
3.54369e-10
2.26014e-12
2.40992e-10
5.62206e-13
1.37598e-10
4.39115e-11
1.09184e-11
1.0506e-09
-2.95357e-12
2.22784e-11
1.59745e-09
3.53645e-11
2.02393e-09
4.86765e-11
2.33948e-09
6.10047e-11
2.55582e-09
7.14744e-11
2.68565e-09
7.9538e-11
2.74171e-09
8.49351e-11
2.73625e-09
8.76388e-11
2.68063e-09
8.77979e-11
2.58512e-09
8.56832e-11
2.45882e-09
8.1641e-11
2.30967e-09
7.60551e-11
2.14449e-09
6.93178e-11
1.96903e-09
6.18085e-11
1.78811e-09
5.38791e-11
1.60566e-09
4.58445e-11
1.4249e-09
3.79784e-11
1.24836e-09
3.05109e-11
1.078e-09
2.36292e-11
9.15309e-10
1.74805e-11
7.61355e-10
1.21741e-11
6.16864e-10
7.78635e-12
4.82275e-10
4.3639e-12
3.57791e-10
1.92824e-12
2.43428e-10
4.79492e-13
1.39047e-10
4.4391e-11
8.95019e-12
1.04407e-09
-2.42089e-12
1.82654e-11
1.58814e-09
2.90002e-11
2.01319e-09
3.99245e-11
2.32855e-09
5.00441e-11
2.5457e-09
5.86389e-11
2.67705e-09
6.52567e-11
2.73509e-09
6.9682e-11
2.73183e-09
7.18919e-11
2.67842e-09
7.20088e-11
2.585e-09
7.02562e-11
2.46057e-09
6.69203e-11
2.31301e-09
6.23183e-11
2.14909e-09
5.6774e-11
1.97458e-09
5.06006e-11
1.79428e-09
4.40876e-11
1.61218e-09
3.74944e-11
1.4315e-09
3.1045e-11
1.25481e-09
2.49278e-11
1.08412e-09
1.92955e-11
9.20941e-10
1.42672e-11
7.66383e-10
9.93149e-12
6.212e-10
6.34915e-12
4.85857e-10
3.55701e-12
3.60584e-10
1.57126e-12
2.45414e-10
3.9071e-13
1.40227e-10
4.47817e-11
7.11505e-12
1.03888e-09
-1.92424e-12
1.45216e-11
1.58073e-09
2.30574e-11
2.00466e-09
3.17434e-11
2.31987e-09
3.97879e-11
2.53766e-09
4.66169e-11
2.67023e-09
5.18699e-11
2.72984e-09
5.53751e-11
2.72832e-09
5.71151e-11
2.67668e-09
5.71883e-11
2.58493e-09
5.57744e-11
2.46199e-09
5.31026e-11
2.31568e-09
4.9427e-11
2.15277e-09
4.50065e-11
1.979e-09
4.0091e-11
1.7992e-09
3.49114e-11
1.61736e-09
2.96736e-11
1.43673e-09
2.45553e-11
1.25993e-09
1.97055e-11
1.08897e-09
1.52443e-11
9.25402e-10
1.12653e-11
7.70362e-10
7.83732e-12
6.24628e-10
5.00748e-12
4.88687e-10
2.80372e-12
3.62787e-10
1.23773e-12
2.4698e-10
3.07551e-13
1.41157e-10
4.50893e-11
5.52729e-12
1.03485e-09
-1.49505e-12
1.12807e-11
1.57498e-09
1.79112e-11
1.99803e-09
2.46578e-11
2.31312e-09
3.09047e-11
2.53141e-09
3.62052e-11
2.66492e-09
4.0279e-11
2.72577e-09
4.29926e-11
2.72561e-09
4.43329e-11
2.67534e-09
4.43775e-11
2.58488e-09
4.32667e-11
2.4631e-09
4.11801e-11
2.31777e-09
3.83157e-11
2.15563e-09
3.48756e-11
1.98244e-09
3.10543e-11
1.80302e-09
2.70313e-11
1.62138e-09
2.29664e-11
1.4408e-09
1.89974e-11
1.2639e-09
1.52392e-11
1.09273e-09
1.17846e-11
9.28857e-10
8.70543e-12
7.73441e-10
6.05431e-12
6.27279e-10
3.86703e-12
4.90874e-10
2.16459e-12
3.6449e-10
9.55403e-13
2.48189e-10
2.37398e-13
1.41875e-10
4.53267e-11
4.22827e-12
1.03176e-09
-1.14355e-12
8.63019e-12
1.57058e-09
1.37035e-11
1.99295e-09
1.88659e-11
2.30796e-09
2.36459e-11
2.52663e-09
2.77013e-11
2.66087e-09
3.08171e-11
2.72265e-09
3.28913e-11
2.72354e-09
3.39138e-11
2.67432e-09
3.39441e-11
2.58485e-09
3.30902e-11
2.46395e-09
3.14897e-11
2.31937e-09
2.92945e-11
2.15783e-09
2.66597e-11
1.98507e-09
2.37342e-11
1.80594e-09
2.06556e-11
1.62446e-09
1.7546e-11
1.44391e-09
1.45109e-11
1.26693e-09
1.1638e-11
1.0956e-09
8.99796e-12
9.31497e-10
6.64554e-12
7.75794e-10
4.62078e-12
6.29304e-10
2.95077e-12
4.92544e-10
1.65131e-12
3.65789e-10
7.28635e-13
2.49112e-10
1.80974e-13
1.42423e-10
4.55077e-11
3.20327e-12
1.02943e-09
-8.66386e-13
6.5384e-12
1.56724e-09
1.0383e-11
1.98911e-09
1.42961e-11
2.30405e-09
1.79202e-11
2.52301e-09
2.09958e-11
2.65779e-09
2.33597e-11
2.72029e-09
2.49341e-11
2.72196e-09
2.5711e-11
2.67354e-09
2.57356e-11
2.58483e-09
2.50893e-11
2.4646e-09
2.38766e-11
2.32058e-09
2.22127e-11
2.15949e-09
2.02152e-11
1.98707e-09
1.79971e-11
1.80816e-09
1.56628e-11
1.62679e-09
1.33049e-11
1.44627e-09
1.10035e-11
1.26923e-09
8.82499e-12
1.09778e-09
6.82314e-12
9.33499e-10
5.03938e-12
7.77578e-10
3.50407e-12
6.30839e-10
2.23775e-12
4.93811e-10
1.25239e-12
3.66775e-10
5.52693e-13
2.49811e-10
1.37319e-13
1.42838e-10
4.5645e-11
2.41409e-12
1.02767e-09
-6.52875e-13
4.92828e-12
1.56473e-09
7.82735e-12
1.98621e-09
1.07791e-11
2.30109e-09
1.3514e-11
2.52027e-09
1.58363e-11
2.65547e-09
1.76225e-11
2.7185e-09
1.88136e-11
2.72077e-09
1.94032e-11
2.67295e-09
1.94248e-11
2.58481e-09
1.89399e-11
2.46508e-09
1.8027e-11
2.3215e-09
1.6773e-11
2.16075e-09
1.52666e-11
1.98858e-09
1.3593e-11
1.80983e-09
1.18311e-11
1.62856e-09
1.00511e-11
1.44805e-09
8.31319e-12
1.27097e-09
6.66788e-12
1.09942e-09
5.15571e-12
9.35011e-10
3.8081e-12
7.78925e-10
2.64805e-12
6.31999e-10
1.69113e-12
4.94767e-10
9.46469e-13
3.67519e-10
4.17668e-13
2.5034e-10
1.03754e-13
1.43152e-10
4.57487e-11
1.81399e-12
1.02634e-09
-4.90564e-13
3.70362e-12
1.56284e-09
5.88317e-12
1.98403e-09
8.10319e-12
2.29887e-09
1.01612e-11
2.51822e-09
1.19097e-11
2.65372e-09
1.32557e-11
2.71716e-09
1.41545e-11
2.71987e-09
1.4601e-11
2.67251e-09
1.46201e-11
2.58479e-09
1.42577e-11
2.46545e-09
1.35728e-11
2.32218e-09
1.26308e-11
2.16169e-09
1.14981e-11
1.98971e-09
1.02392e-11
1.81109e-09
8.91324e-12
1.62988e-09
7.57318e-12
1.44939e-09
6.26451e-12
1.27228e-09
5.02525e-12
1.10066e-09
3.88605e-12
9.3615e-10
2.87062e-12
7.79941e-10
1.99637e-12
6.32873e-10
1.2751e-12
4.95489e-10
7.13724e-13
3.68081e-10
3.15013e-13
2.50739e-10
7.82764e-14
1.43389e-10
4.5827e-11
1.3608e-12
1.02535e-09
-3.67993e-13
2.77863e-12
1.56142e-09
4.41452e-12
1.98239e-09
6.08139e-12
2.29721e-09
7.62733e-12
2.51667e-09
8.94157e-12
2.65241e-09
9.95408e-12
2.71614e-09
1.0631e-11
2.7192e-09
1.09684e-11
2.67217e-09
1.09846e-11
2.58477e-09
1.07142e-11
2.46572e-09
1.02011e-11
2.32269e-09
9.49443e-12
2.16239e-09
8.64418e-12
1.99056e-09
7.69866e-12
1.81204e-09
6.70247e-12
1.63088e-09
5.69537e-12
1.45039e-09
4.71163e-12
1.27326e-09
3.77989e-12
1.10159e-09
2.92323e-12
9.37007e-10
2.15953e-12
7.80704e-10
1.50193e-12
6.33531e-10
9.59345e-13
4.96031e-10
5.37004e-13
3.68503e-10
2.37019e-13
2.51039e-10
5.88932e-14
1.43567e-10
4.58859e-11
1.0219e-12
1.0246e-09
-2.76287e-13
2.08691e-12
1.56036e-09
3.31582e-12
1.98116e-09
4.56825e-12
2.29595e-09
5.7301e-12
2.51551e-09
6.7181e-12