/*--------------------------------*- C++ -*----------------------------------*\
| =========                 |                                                 |
| \\      /  F ield         | OpenFOAM: The Open Source CFD Toolbox           |
|  \\    /   O peration     | Version:  2106                                  |
|   \\  /    A nd           | Website:  www.openfoam.com                      |
|    \\/     M anipulation  |                                                 |
\*---------------------------------------------------------------------------*/
FoamFile
{
    version     2.0;
    format      ascii;
    arch        "LSB;label=32;scalar=64";
    class       volScalarField;
    location    "200.00032";
    object      SC3H5_0;
}
// * * * * * * * * * * * * * * * * * * * * * * * * * * * * * * * * * * * * * //

dimensions      [0 0 0 0 0 0 0];

internalField   nonuniform List<scalar> 
3360
(
1.5168e-23
1.61174e-23
1.74543e-23
1.91156e-23
2.10462e-23
2.31947e-23
2.55116e-23
2.79488e-23
3.046e-23
3.30006e-23
3.55293e-23
3.80078e-23
4.04022e-23
4.26827e-23
4.48247e-23
4.68082e-23
4.86181e-23
5.0244e-23
5.16799e-23
5.29241e-23
5.39783e-23
5.48478e-23
5.55407e-23
5.60675e-23
5.64405e-23
5.66739e-23
5.67827e-23
7.67286e-23
8.20408e-23
8.96345e-23
9.9259e-23
1.10723e-22
1.23866e-22
1.38542e-22
1.54609e-22
1.71927e-22
1.90346e-22
2.09704e-22
2.29829e-22
2.50526e-22
2.71587e-22
2.92783e-22
3.13872e-22
3.34595e-22
3.54681e-22
3.73849e-22
3.91814e-22
4.08293e-22
4.23015e-22
4.35724e-22
4.46193e-22
4.54229e-22
4.59677e-22
4.62432e-22
2.93403e-22
3.17542e-22
3.52478e-22
3.97468e-22
4.52041e-22
5.15825e-22
5.88445e-22
6.69451e-22
7.58262e-22
8.54122e-22
9.56077e-22
1.06298e-21
1.17354e-21
1.28631e-21
1.3997e-21
1.51204e-21
1.6216e-21
1.72666e-21
1.82556e-21
1.91674e-21
1.99882e-21
2.07062e-21
2.13123e-21
2.17996e-21
2.21644e-21
2.24054e-21
2.25241e-21
1.06072e-21
1.16037e-21
1.30642e-21
1.49715e-21
1.73194e-21
2.01038e-21
2.33174e-21
2.69459e-21
3.09654e-21
3.53406e-21
4.00241e-21
4.49572e-21
5.00705e-21
5.52858e-21
6.05181e-21
6.5679e-21
7.06799e-21
7.54361e-21
7.98698e-21
8.39133e-21
8.75108e-21
9.06196e-21
9.3211e-21
9.52694e-21
9.67917e-21
9.7786e-21
9.82703e-21
3.94498e-21
4.3521e-21
4.95259e-21
5.74274e-21
6.72294e-21
7.89384e-21
9.25392e-21
1.07977e-20
1.25143e-20
1.43872e-20
1.63937e-20
1.85057e-20
2.06904e-20
2.29118e-20
2.51316e-20
2.73112e-20
2.9413e-20
3.14022e-20
3.32474e-20
3.49225e-20
3.64062e-20
3.76831e-20
3.87434e-20
3.95827e-20
4.02015e-20
4.06045e-20
4.08002e-20
1.50564e-20
1.67041e-20
1.91443e-20
2.23683e-20
2.63829e-20
3.11942e-20
3.67971e-20
4.31683e-20
5.02613e-20
5.80038e-20
6.62979e-20
7.50223e-20
8.40366e-20
9.3187e-20
1.02312e-19
1.11252e-19
1.19852e-19
1.27971e-19
1.35484e-19
1.42287e-19
1.48299e-19
1.53461e-19
1.57739e-19
1.61118e-19
1.63605e-19
1.65222e-19
1.66007e-19
5.84329e-20
6.50695e-20
7.49183e-20
8.79612e-20
1.04237e-19
1.23777e-19
1.46559e-19
1.72481e-19
2.01342e-19
2.32837e-19
2.66552e-19
3.01981e-19
3.38544e-19
3.75611e-19
4.12526e-19
4.48641e-19
4.83337e-19
5.16049e-19
5.46285e-19
5.73634e-19
5.97778e-19
6.18493e-19
6.35644e-19
6.49185e-19
6.59143e-19
6.65615e-19
6.68753e-19
2.28964e-19
2.55506e-19
2.94951e-19
3.47262e-19
4.12624e-19
4.91178e-19
5.8285e-19
6.87225e-19
8.0348e-19
9.30352e-19
1.06615e-18
1.20881e-18
1.35596e-18
1.50505e-18
1.65342e-18
1.79848e-18
1.93772e-18
2.0689e-18
2.19005e-18
2.29954e-18
2.39613e-18
2.47892e-18
2.54743e-18
2.60147e-18
2.64119e-18
2.66699e-18
2.67949e-18
9.02706e-19
1.00881e-18
1.16659e-18
1.37598e-18
1.63777e-18
1.95255e-18
2.31998e-18
2.73836e-18
3.2043e-18
3.71265e-18
4.25653e-18
4.8276e-18
5.41634e-18
6.01245e-18
6.60538e-18
7.18468e-18
7.74048e-18
8.26381e-18
8.7469e-18
9.18333e-18
9.56818e-18
9.898e-18
1.01708e-17
1.0386e-17
1.05441e-17
1.06468e-17
1.06965e-17
3.56539e-18
3.98773e-18
4.61615e-18
5.45059e-18
6.49441e-18
7.75006e-18
9.21624e-18
1.08861e-17
1.27459e-17
1.47749e-17
1.69455e-17
1.92241e-17
2.15725e-17
2.39496e-17
2.63131e-17
2.86214e-17
3.08351e-17
3.29185e-17
3.48409e-17
3.65767e-17
3.81067e-17
3.94174e-17
4.0501e-17
4.13553e-17
4.19829e-17
4.23903e-17
4.25876e-17
1.41057e-17
1.57868e-17
1.82884e-17
2.16107e-17
2.5767e-17
3.0767e-17
3.66052e-17
4.32532e-17
5.06558e-17
5.87294e-17
6.7363e-17
7.64223e-17
8.57549e-17
9.5197e-17
1.04581e-16
1.13741e-16
1.22521e-16
1.30782e-16
1.38401e-16
1.45278e-16
1.51338e-16
1.56528e-16
1.60818e-16
1.64199e-16
1.66682e-16
1.68294e-16
1.69074e-16
5.57525e-17
6.2423e-17
7.23514e-17
8.5538e-17
1.02036e-16
1.21882e-16
1.45053e-16
1.71433e-16
2.008e-16
2.32819e-16
2.67046e-16
3.02946e-16
3.39912e-16
3.77294e-16
4.14426e-16
4.50654e-16
4.85364e-16
5.18e-16
5.48085e-16
5.75229e-16
5.99133e-16
6.19593e-16
6.36498e-16
6.49817e-16
6.59594e-16
6.65938e-16
6.69009e-16
2.20131e-16
2.46571e-16
2.85918e-16
3.38167e-16
4.03517e-16
4.82097e-16
5.73795e-16
6.78133e-16
7.9421e-16
9.20677e-16
1.05577e-15
1.19735e-15
1.34302e-15
1.49021e-15
1.63631e-15
1.77874e-15
1.91509e-15
2.04322e-15
2.16124e-15
2.26766e-15
2.36133e-15
2.44146e-15
2.50763e-15
2.55974e-15
2.59797e-15
2.62278e-15
2.63478e-15
8.65801e-16
9.70093e-16
1.12527e-15
1.33128e-15
1.58887e-15
1.89845e-15
2.25951e-15
2.67005e-15
3.12642e-15
3.6232e-15
4.15334e-15
4.7084e-15
5.27887e-15
5.85468e-15
6.42556e-15
6.9815e-15
7.51317e-15
8.0122e-15
8.47144e-15
8.88511e-15
9.24885e-15
9.55977e-15
9.81631e-15
1.00182e-14
1.01662e-14
1.02622e-14
1.03086e-14
3.39021e-15
3.79976e-15
4.40888e-15
5.21709e-15
6.22687e-15
7.43946e-15
8.85213e-15
1.04565e-14
1.22375e-14
1.41734e-14
1.62362e-14
1.83924e-14
2.06049e-14
2.28343e-14
2.50411e-14
2.71867e-14
2.92355e-14
3.11556e-14
3.29202e-14
3.45075e-14
3.59016e-14
3.70918e-14
3.80729e-14
3.88442e-14
3.94093e-14
3.97754e-14
3.99523e-14
1.31809e-14
1.47759e-14
1.71467e-14
2.02896e-14
2.4212e-14
2.89161e-14
3.43882e-14
4.05922e-14
4.74668e-14
5.49246e-14
6.28546e-14
7.11262e-14
7.95955e-14
8.81113e-14
9.6522e-14
1.04682e-13
1.12458e-13
1.19731e-13
1.26401e-13
1.32391e-13
1.37642e-13
1.42118e-13
1.45802e-13
1.48694e-13
1.5081e-13
1.52179e-13
1.5284e-13
5.07898e-14
5.69374e-14
6.60656e-14
7.81504e-14
9.32078e-14
1.1123e-13
1.32149e-13
1.55807e-13
1.81953e-13
2.10238e-13
2.40226e-13
2.71412e-13
3.03248e-13
3.35162e-13
3.66589e-13
3.96992e-13
4.25882e-13
4.52831e-13
4.77485e-13
4.9957e-13
5.18889e-13
5.35323e-13
5.48822e-13
5.59401e-13
5.67131e-13
5.72124e-13
5.74532e-13
1.93475e-13
2.16835e-13
2.5147e-13
2.97233e-13
3.54118e-13
4.22016e-13
5.00577e-13
5.89126e-13
6.86629e-13
7.91705e-13
9.02671e-13
1.01762e-12
1.13449e-12
1.25118e-12
1.36566e-12
1.476e-12
1.58047e-12
1.6776e-12
1.76617e-12
1.84528e-12
1.91428e-12
1.97283e-12
2.02082e-12
2.05834e-12
2.08571e-12
2.10336e-12
2.11185e-12
7.2663e-13
8.13777e-13
9.42717e-13
1.11262e-12
1.32312e-12
1.57341e-12
1.86179e-12
2.18534e-12
2.5399e-12
2.92011e-12
3.3196e-12
3.73132e-12
4.14785e-12
4.56174e-12
4.96584e-12
5.35356e-12
5.71909e-12
6.05754e-12
6.36503e-12
6.63869e-12
6.87664e-12
7.07793e-12
7.24246e-12
7.37081e-12
7.4642e-12
7.52431e-12
7.55321e-12
2.681e-12
2.99841e-12
3.46676e-12
4.0817e-12
4.84027e-12
5.73784e-12
6.76644e-12
7.91395e-12
9.16398e-12
1.04963e-11
1.18877e-11
1.33132e-11
1.47468e-11
1.61633e-11
1.75387e-11
1.88516e-11
2.00834e-11
2.12188e-11
2.22459e-11
2.31565e-11
2.39454e-11
2.46107e-11
2.51528e-11
2.55746e-11
2.58807e-11
2.60774e-11
2.61718e-11
9.67638e-12
1.07976e-11
1.24464e-11
1.46016e-11
1.72462e-11
2.03571e-11
2.38996e-11
2.78256e-11
3.20736e-11
3.65709e-11
4.12367e-11
4.59858e-11
5.07327e-11
5.53955e-11
5.98982e-11
6.4174e-11
6.81664e-11
7.183e-11
7.51309e-11
7.80464e-11
8.05639e-11
8.26802e-11
8.44e-11
8.57348e-11
8.67016e-11
8.73214e-11
8.76182e-11
3.39672e-11
3.77733e-11
4.33475e-11
5.05964e-11
5.94382e-11
6.97712e-11
8.14583e-11
9.43223e-11
1.08148e-10
1.22691e-10
1.37687e-10
1.52865e-10
1.6796e-10
1.82719e-10
1.96915e-10
2.1035e-10
2.22858e-10
2.3431e-10
2.44609e-10
2.53693e-10
2.61528e-10
2.6811e-10
2.73458e-10
2.77611e-10
2.80621e-10
2.82552e-10
2.83479e-10
1.15269e-10
1.27546e-10
1.45442e-10
1.68573e-10
1.96597e-10
2.29116e-10
2.65635e-10
3.05558e-10
3.48196e-10
3.92795e-10
4.38565e-10
4.84712e-10
5.3047e-10
5.75126e-10
6.18048e-10
6.58691e-10
6.96593e-10
7.31366e-10
7.62692e-10
7.90315e-10
8.1404e-10
8.33729e-10
8.49543e-10
8.61699e-10
8.70431e-10
8.75992e-10
8.78641e-10
3.76944e-10
4.1425e-10
4.68306e-10
5.37661e-10
6.20991e-10
7.16843e-10
8.2354e-10
9.39163e-10
1.0616e-09
1.18863e-09
1.31797e-09
1.4471e-09
1.5732e-09
1.6929e-09
1.80345e-09
1.90408e-09
1.99425e-09
2.07362e-09
2.14215e-09
2.20003e-09
2.24773e-09
2.28589e-09
2.31533e-09
2.33694e-09
2.35171e-09
2.36061e-09
2.36461e-09
1.19304e-09
1.30051e-09
1.45509e-09
1.65161e-09
1.88528e-09
2.15105e-09
2.44267e-09
2.75132e-09
3.0635e-09
3.366e-09
3.65229e-09
3.91541e-09
4.14885e-09
4.34713e-09
4.50632e-09
4.62433e-09
4.70113e-09
4.73869e-09
4.74087e-09
4.71317e-09
4.66237e-09
4.59605e-09
4.52224e-09
4.44896e-09
4.38392e-09
4.33432e-09
4.30664e-09
3.6807e-09
3.97884e-09
4.40018e-09
4.91622e-09
5.48934e-09
6.09766e-09
6.71253e-09
7.30106e-09
7.82832e-09
8.26025e-09
8.5669e-09
8.72581e-09
8.72531e-09
8.56698e-09
8.26618e-09
7.85023e-09
7.35433e-09
6.81621e-09
6.27101e-09
5.74777e-09
5.26794e-09
4.84569e-09
4.48935e-09
4.20312e-09
3.98863e-09
3.84611e-09
3.77514e-09
1.04439e-08
1.10579e-08
1.18798e-08
1.28146e-08
1.37559e-08
1.45881e-08
1.51935e-08
1.54666e-08
1.53352e-08
1.47809e-08
1.385e-08
1.26455e-08
1.12998e-08
9.9389e-09
8.65623e-09
7.50501e-09
6.50522e-09
5.65575e-09
4.94502e-09
4.35773e-09
3.87849e-09
3.49348e-09
3.19095e-09
2.96131e-09
2.79688e-09
2.6916e-09
2.64078e-09
2.34339e-08
2.39731e-08
2.44788e-08
2.46848e-08
2.43562e-08
2.33531e-08
2.16847e-08
1.95166e-08
1.7108e-08
1.4713e-08
1.25076e-08
1.05752e-08
8.93271e-09
7.56152e-09
6.42866e-09
5.49844e-09
4.73751e-09
4.11677e-09
3.61184e-09
3.2029e-09
2.87407e-09
2.61284e-09
2.40938e-09
2.25608e-09
2.147e-09
2.07758e-09
2.04426e-09
2.93749e-08
2.8339e-08
2.67144e-08
2.45551e-08
2.20257e-08
1.93516e-08
1.67405e-08
1.43345e-08
1.22059e-08
1.03746e-08
8.82903e-09
7.54137e-09
6.47676e-09
5.60013e-09
4.87948e-09
4.2873e-09
3.80068e-09
3.401e-09
3.07331e-09
2.80575e-09
2.58893e-09
2.41548e-09
2.2796e-09
2.17672e-09
2.10328e-09
2.05642e-09
2.0339e-09
1.86785e-08
1.77295e-08
1.64534e-08
1.49825e-08
1.34402e-08
1.19276e-08
1.05172e-08
9.2491e-09
8.13833e-09
7.18289e-09
6.37117e-09
5.6872e-09
5.11387e-09
4.63489e-09
4.23561e-09
3.90342e-09
3.62763e-09
3.39936e-09
3.21129e-09
3.05738e-09
2.93271e-09
2.83324e-09
2.75565e-09
2.69727e-09
2.65586e-09
2.62965e-09
2.61714e-09
9.88029e-09
9.5041e-09
9.00189e-09
8.42553e-09
7.82098e-09
7.22504e-09
6.66379e-09
6.15305e-09
5.70039e-09
5.30747e-09
4.97219e-09
4.69031e-09
4.45654e-09
4.26531e-09
4.11111e-09
3.98874e-09
3.89342e-09
3.82078e-09
3.76689e-09
3.72825e-09
3.70177e-09
3.68473e-09
3.67478e-09
3.66991e-09
3.66829e-09
3.66838e-09
3.66889e-09
5.36504e-09
5.27135e-09
5.14478e-09
4.99806e-09
4.84353e-09
4.69217e-09
4.55276e-09
4.43155e-09
4.33244e-09
4.2573e-09
4.2064e-09
4.17881e-09
4.17279e-09
4.186e-09
4.21573e-09
4.25912e-09
4.31317e-09
4.37493e-09
4.44157e-09
4.50969e-09
4.57628e-09
4.63866e-09
4.69451e-09
4.74186e-09
4.77898e-09
4.80457e-09
4.81769e-09
3.3224e-09
3.33952e-09
3.36342e-09
3.3939e-09
3.43189e-09
3.479e-09
3.53698e-09
3.6073e-09
3.69086e-09
3.78792e-09
3.89807e-09
4.02035e-09
4.15328e-09
4.29503e-09
4.44344e-09
4.59506e-09
4.74662e-09
4.89501e-09
5.03731e-09
5.17084e-09
5.29318e-09
5.40217e-09
5.49599e-09
5.57289e-09
5.63164e-09
5.67134e-09
5.69136e-09
2.58237e-09
2.64253e-09
2.72643e-09
2.82983e-09
2.94979e-09
3.0843e-09
3.2319e-09
3.39152e-09
3.56208e-09
3.74252e-09
3.93222e-09
4.12846e-09
4.32833e-09
4.52902e-09
4.72777e-09
4.92161e-09
5.10808e-09
5.28487e-09
5.44985e-09
5.60113e-09
5.73703e-09
5.85611e-09
5.95697e-09
6.03862e-09
6.10033e-09
6.14165e-09
6.16233e-09
2.55325e-09
2.62848e-09
2.73368e-09
2.86336e-09
3.01329e-09
3.1802e-09
3.36171e-09
3.5544e-09
3.75514e-09
3.96116e-09
4.16982e-09
4.37859e-09
4.58505e-09
4.78693e-09
4.98212e-09
5.1687e-09
5.34495e-09
5.50931e-09
5.66047e-09
5.79726e-09
5.91872e-09
6.02407e-09
6.11248e-09
6.18347e-09
6.23675e-09
6.27218e-09
6.28981e-09
2.89143e-09
2.96851e-09
3.07604e-09
3.20789e-09
3.35887e-09
3.52448e-09
3.70079e-09
3.88428e-09
4.07185e-09
4.26074e-09
4.44851e-09
4.63302e-09
4.81237e-09
4.98493e-09
5.14929e-09
5.30424e-09
5.44875e-09
5.58197e-09
5.7032e-09
5.81188e-09
5.90756e-09
5.98992e-09
6.05875e-09
6.1137e-09
6.15473e-09
6.1819e-09
6.19537e-09
3.37336e-09
3.44102e-09
3.53498e-09
3.64942e-09
3.77932e-09
3.92031e-09
4.06863e-09
4.22103e-09
4.37476e-09
4.52753e-09
4.67738e-09
4.82273e-09
4.96228e-09
5.09497e-09
5.21996e-09
5.33659e-09
5.44434e-09
5.54281e-09
5.63172e-09
5.71086e-09
5.78008e-09
5.83932e-09
5.88857e-09
5.92786e-09
5.95709e-09
5.97638e-09
5.98591e-09
3.83217e-09
3.88552e-09
3.95927e-09
4.04857e-09
4.14917e-09
4.25743e-09
4.37024e-09
4.48498e-09
4.59952e-09
4.71214e-09
4.82146e-09
4.92642e-09
5.0262e-09
5.12019e-09
5.20797e-09
5.28921e-09
5.3637e-09
5.43133e-09
5.49201e-09
5.54573e-09
5.59248e-09
5.63231e-09
5.66529e-09
5.6915e-09
5.71106e-09
5.72394e-09
5.73029e-09
4.19139e-09
4.22982e-09
4.28272e-09
4.34641e-09
4.41767e-09
4.49375e-09
4.57235e-09
4.65158e-09
4.72993e-09
4.80623e-09
4.8796e-09
4.94939e-09
5.01516e-09
5.07659e-09
5.1335e-09
5.18578e-09
5.2334e-09
5.27635e-09
5.31467e-09
5.34841e-09
5.37763e-09
5.40241e-09
5.42282e-09
5.43894e-09
5.45088e-09
5.45873e-09
5.46259e-09
4.43128e-09
4.45647e-09
4.49098e-09
4.53227e-09
4.57812e-09
4.62664e-09
4.6763e-09
4.72585e-09
4.77434e-09
4.82106e-09
4.8655e-09
4.90732e-09
4.94633e-09
4.98241e-09
5.01553e-09
5.04569e-09
5.07295e-09
5.09737e-09
5.11903e-09
5.13799e-09
5.15435e-09
5.16817e-09
5.17952e-09
5.18847e-09
5.19509e-09
5.19944e-09
5.20158e-09
4.56142e-09
4.57589e-09
4.59557e-09
4.6189e-09
4.6445e-09
4.67123e-09
4.69818e-09
4.72463e-09
4.75006e-09
4.77412e-09
4.79658e-09
4.81731e-09
4.83628e-09
4.85349e-09
4.86901e-09
4.88291e-09
4.89527e-09
4.90619e-09
4.91575e-09
4.92403e-09
4.93111e-09
4.93705e-09
4.9419e-09
4.94571e-09
4.94853e-09
4.95037e-09
4.95128e-09
4.60259e-09
4.60888e-09
4.61727e-09
4.62698e-09
4.6373e-09
4.64767e-09
4.65765e-09
4.66694e-09
4.67535e-09
4.68276e-09
4.68915e-09
4.69454e-09
4.699e-09
4.70263e-09
4.70552e-09
4.70778e-09
4.70952e-09
4.71084e-09
4.71182e-09
4.71254e-09
4.71306e-09
4.71343e-09
4.71371e-09
4.7139e-09
4.71403e-09
4.71412e-09
4.71416e-09
4.57707e-09
4.57737e-09
4.57753e-09
4.57732e-09
4.57656e-09
4.5751e-09
4.57288e-09
4.56987e-09
4.56611e-09
4.56168e-09
4.55668e-09
4.55125e-09
4.54551e-09
4.5396e-09
4.53365e-09
4.5278e-09
4.52215e-09
4.51679e-09
4.51182e-09
4.5073e-09
4.50328e-09
4.49981e-09
4.49691e-09
4.4946e-09
4.49288e-09
4.49175e-09
4.4912e-09
4.50447e-09
4.50054e-09
4.4949e-09
4.48772e-09
4.47918e-09
4.46945e-09
4.45872e-09
4.44716e-09
4.43498e-09
4.42238e-09
4.40956e-09
4.3967e-09
4.38398e-09
4.37157e-09
4.35961e-09
4.34824e-09
4.33758e-09
4.32771e-09
4.31871e-09
4.31064e-09
4.30356e-09
4.29749e-09
4.29246e-09
4.28846e-09
4.28549e-09
4.28353e-09
4.28257e-09
4.40047e-09
4.39366e-09
4.38406e-09
4.37215e-09
4.35835e-09
4.34303e-09
4.32657e-09
4.30927e-09
4.29146e-09
4.27342e-09
4.25539e-09
4.23761e-09
4.22028e-09
4.20358e-09
4.18767e-09
4.17269e-09
4.15873e-09
4.14591e-09
4.13427e-09
4.1239e-09
4.11481e-09
4.10705e-09
4.10061e-09
4.0955e-09
4.09171e-09
4.08922e-09
4.08799e-09
4.27695e-09
4.26825e-09
4.25608e-09
4.24109e-09
4.22386e-09
4.20494e-09
4.18478e-09
4.1638e-09
4.14239e-09
4.12088e-09
4.09955e-09
4.07866e-09
4.05843e-09
4.03904e-09
4.02066e-09
4.00341e-09
3.98741e-09
3.97274e-09
3.95947e-09
3.94766e-09
3.93733e-09
3.9285e-09
3.9212e-09
3.9154e-09
3.9111e-09
3.90827e-09
3.90687e-09
4.14256e-09
4.13271e-09
4.11895e-09
4.10207e-09
4.08277e-09
4.06165e-09
4.03927e-09
4.01609e-09
3.99253e-09
3.96896e-09
3.94569e-09
3.92298e-09
3.90106e-09
3.88012e-09
3.86031e-09
3.84177e-09
3.8246e-09
3.80888e-09
3.79467e-09
3.78204e-09
3.77099e-09
3.76157e-09
3.75376e-09
3.74757e-09
3.74297e-09
3.73995e-09
3.73846e-09
4.00344e-09
3.99294e-09
3.97831e-09
3.96039e-09
3.93996e-09
3.91766e-09
3.89409e-09
3.86974e-09
3.84507e-09
3.82045e-09
3.79619e-09
3.77257e-09
3.74982e-09
3.72811e-09
3.70761e-09
3.68844e-09
3.67071e-09
3.65449e-09
3.63984e-09
3.62682e-09
3.61544e-09
3.60572e-09
3.59768e-09
3.5913e-09
3.58656e-09
3.58344e-09
3.5819e-09
3.86379e-09
3.85301e-09
3.83799e-09
3.81964e-09
3.79873e-09
3.77596e-09
3.75192e-09
3.72714e-09
3.70207e-09
3.67708e-09
3.6525e-09
3.6286e-09
3.60559e-09
3.58367e-09
3.56298e-09
3.54366e-09
3.52578e-09
3.50944e-09
3.49469e-09
3.48157e-09
3.47011e-09
3.46033e-09
3.45223e-09
3.44579e-09
3.44102e-09
3.43787e-09
3.43632e-09
3.72641e-09
3.7156e-09
3.70054e-09
3.68216e-09
3.66123e-09
3.63847e-09
3.61446e-09
3.58974e-09
3.56475e-09
3.53987e-09
3.51542e-09
3.49165e-09
3.4688e-09
3.44703e-09
3.4265e-09
3.40733e-09
3.3896e-09
3.37339e-09
3.35877e-09
3.34575e-09
3.33439e-09
3.32469e-09
3.31664e-09
3.31026e-09
3.30552e-09
3.3024e-09
3.30086e-09
3.5931e-09
3.58242e-09
3.56755e-09
3.54941e-09
3.52878e-09
3.50634e-09
3.4827e-09
3.45836e-09
3.43378e-09
3.40932e-09
3.38529e-09
3.36195e-09
3.33951e-09
3.31814e-09
3.298e-09
3.27918e-09
3.26179e-09
3.24588e-09
3.23153e-09
3.21876e-09
3.2076e-09
3.19807e-09
3.19018e-09
3.18391e-09
3.17925e-09
3.17617e-09
3.17466e-09
3.46493e-09
3.45449e-09
3.43996e-09
3.42224e-09
3.4021e-09
3.38019e-09
3.35713e-09
3.3334e-09
3.30943e-09
3.28559e-09
3.26217e-09
3.23943e-09
3.21758e-09
3.19677e-09
3.17715e-09
3.15882e-09
3.14188e-09
3.12639e-09
3.1124e-09
3.09995e-09
3.08908e-09
3.07979e-09
3.07209e-09
3.06597e-09
3.06142e-09
3.05842e-09
3.05694e-09
3.34248e-09
3.33234e-09
3.31825e-09
3.30106e-09
3.28152e-09
3.26029e-09
3.23793e-09
3.21493e-09
3.1917e-09
3.1686e-09
3.14592e-09
3.12389e-09
3.10271e-09
3.08255e-09
3.06354e-09
3.04578e-09
3.02936e-09
3.01435e-09
3.00078e-09
2.98872e-09
2.97817e-09
2.96915e-09
2.96167e-09
2.95573e-09
2.95131e-09
2.9484e-09
2.94696e-09
3.22598e-09
3.21619e-09
3.20259e-09
3.18599e-09
3.16713e-09
3.14663e-09
3.12505e-09
3.10285e-09
3.08044e-09
3.05814e-09
3.03625e-09
3.01499e-09
2.99455e-09
2.97509e-09
2.95673e-09
2.93958e-09
2.92372e-09
2.90921e-09
2.89611e-09
2.88444e-09
2.87424e-09
2.86552e-09
2.85828e-09
2.85253e-09
2.84825e-09
2.84543e-09
2.84403e-09
3.11544e-09
3.10602e-09
3.09292e-09
3.07695e-09
3.0588e-09
3.03907e-09
3.0183e-09
2.99694e-09
2.97536e-09
2.9539e-09
2.93283e-09
2.91236e-09
2.89267e-09
2.87393e-09
2.85625e-09
2.83972e-09
2.82444e-09
2.81045e-09
2.79781e-09
2.78656e-09
2.77671e-09
2.76829e-09
2.7613e-09
2.75575e-09
2.75161e-09
2.74888e-09
2.74753e-09
3.01071e-09
3.00167e-09
2.98909e-09
2.97375e-09
2.95631e-09
2.93736e-09
2.91741e-09
2.89688e-09
2.87615e-09
2.85553e-09
2.83527e-09
2.81559e-09
2.79667e-09
2.77864e-09
2.76163e-09
2.74573e-09
2.73101e-09
2.71755e-09
2.70537e-09
2.69453e-09
2.68504e-09
2.67692e-09
2.67018e-09
2.66482e-09
2.66083e-09
2.6582e-09
2.65689e-09
2.91157e-09
2.9029e-09
2.89083e-09
2.87611e-09
2.85938e-09
2.8412e-09
2.82205e-09
2.80235e-09
2.78245e-09
2.76265e-09
2.74319e-09
2.72429e-09
2.7061e-09
2.68878e-09
2.67242e-09
2.65713e-09
2.64298e-09
2.63002e-09
2.6183e-09
2.60786e-09
2.59873e-09
2.59091e-09
2.58441e-09
2.57924e-09
2.57539e-09
2.57285e-09
2.57159e-09
2.81772e-09
2.80941e-09
2.79784e-09
2.78373e-09
2.76768e-09
2.75024e-09
2.73187e-09
2.71297e-09
2.69387e-09
2.67487e-09
2.65619e-09
2.63803e-09
2.62057e-09
2.60392e-09
2.5882e-09
2.5735e-09
2.55989e-09
2.54743e-09
2.53615e-09
2.5261e-09
2.5173e-09
2.50977e-09
2.50351e-09
2.49853e-09
2.49482e-09
2.49237e-09
2.49115e-09
2.72885e-09
2.72087e-09
2.70979e-09
2.69626e-09
2.68087e-09
2.66415e-09
2.64652e-09
2.62839e-09
2.61006e-09
2.59182e-09
2.57388e-09
2.55645e-09
2.53967e-09
2.52367e-09
2.50857e-09
2.49443e-09
2.48134e-09
2.46935e-09
2.4585e-09
2.44882e-09
2.44035e-09
2.43309e-09
2.42706e-09
2.42226e-09
2.41868e-09
2.41631e-09
2.41514e-09
2.64462e-09
2.63697e-09
2.62634e-09
2.61336e-09
2.59861e-09
2.58256e-09
2.56565e-09
2.54824e-09
2.53065e-09
2.51313e-09
2.49591e-09
2.47916e-09
2.46303e-09
2.44766e-09
2.43313e-09
2.41953e-09
2.40694e-09
2.39539e-09
2.38495e-09
2.37563e-09
2.36746e-09
2.36047e-09
2.35466e-09
2.35003e-09
2.34658e-09
2.34429e-09
2.34316e-09
2.5647e-09
2.55736e-09
2.54716e-09
2.53471e-09
2.52055e-09
2.50515e-09
2.48891e-09
2.4722e-09
2.4553e-09
2.43847e-09
2.42191e-09
2.40581e-09
2.39031e-09
2.37551e-09
2.36154e-09
2.34845e-09
2.33632e-09
2.32521e-09
2.31514e-09
2.30616e-09
2.29829e-09
2.29155e-09
2.28594e-09
2.28148e-09
2.27815e-09
2.27594e-09
2.27485e-09
2.48877e-09
2.48173e-09
2.47193e-09
2.45998e-09
2.44637e-09
2.43158e-09
2.41598e-09
2.39992e-09
2.38367e-09
2.36749e-09
2.35157e-09
2.33607e-09
2.32115e-09
2.30691e-09
2.29346e-09
2.28085e-09
2.26917e-09
2.25845e-09
2.24875e-09
2.24009e-09
2.2325e-09
2.22599e-09
2.22058e-09
2.21627e-09
2.21305e-09
2.21092e-09
2.20987e-09
2.41651e-09
2.40974e-09
2.40033e-09
2.38884e-09
2.37576e-09
2.36154e-09
2.34654e-09
2.33108e-09
2.31545e-09
2.29988e-09
2.28455e-09
2.26963e-09
2.25526e-09
2.24154e-09
2.22857e-09
2.21642e-09
2.20515e-09
2.19481e-09
2.18545e-09
2.17709e-09
2.16976e-09
2.16348e-09
2.15825e-09
2.15409e-09
2.15098e-09
2.14892e-09
2.1479e-09
2.34762e-09
2.34111e-09
2.33206e-09
2.321e-09
2.30842e-09
2.29472e-09
2.28028e-09
2.2654e-09
2.25035e-09
2.23534e-09
2.22057e-09
2.20619e-09
2.19232e-09
2.17909e-09
2.16658e-09
2.15485e-09
2.14397e-09
2.13399e-09
2.12495e-09
2.11687e-09
2.10979e-09
2.10372e-09
2.09866e-09
2.09463e-09
2.09162e-09
2.08963e-09
2.08865e-09
2.2818e-09
2.27554e-09
2.26681e-09
2.25616e-09
2.24404e-09
2.23084e-09
2.21692e-09
2.20257e-09
2.18805e-09
2.17358e-09
2.15932e-09
2.14544e-09
2.13206e-09
2.11928e-09
2.10719e-09
2.09586e-09
2.08535e-09
2.0757e-09
2.06695e-09
2.05914e-09
2.05229e-09
2.04641e-09
2.04152e-09
2.03762e-09
2.0347e-09
2.03278e-09
2.03182e-09
2.21877e-09
2.21273e-09
2.20431e-09
2.19404e-09
2.18234e-09
2.16961e-09
2.15617e-09
2.14232e-09
2.12829e-09
2.11431e-09
2.10054e-09
2.08712e-09
2.07419e-09
2.06183e-09
2.05013e-09
2.03917e-09
2.029e-09
2.01966e-09
2.01119e-09
2.00362e-09
1.99698e-09
1.99129e-09
1.98655e-09
1.98276e-09
1.97994e-09
1.97807e-09
1.97714e-09
2.15825e-09
2.15241e-09
2.14428e-09
2.13435e-09
2.12305e-09
2.11074e-09
2.09775e-09
2.08435e-09
2.07079e-09
2.05726e-09
2.04393e-09
2.03095e-09
2.01842e-09
2.00646e-09
1.99513e-09
1.9845e-09
1.97464e-09
1.96559e-09
1.95738e-09
1.95004e-09
1.9436e-09
1.93807e-09
1.93347e-09
1.9298e-09
1.92705e-09
1.92524e-09
1.92434e-09
2.09995e-09
2.0943e-09
2.08643e-09
2.07683e-09
2.06588e-09
2.05396e-09
2.04138e-09
2.02841e-09
2.01527e-09
2.00215e-09
1.98923e-09
1.97664e-09
1.96449e-09
1.95288e-09
1.94189e-09
1.93158e-09
1.922e-09
1.91321e-09
1.90524e-09
1.89811e-09
1.89185e-09
1.88648e-09
1.882e-09
1.87843e-09
1.87577e-09
1.874e-09
1.87312e-09
2.0436e-09
2.03812e-09
2.03049e-09
2.02118e-09
2.01056e-09
1.999e-09
1.98679e-09
1.9742e-09
1.96144e-09
1.94871e-09
1.93616e-09
1.92392e-09
1.91212e-09
1.90083e-09
1.89014e-09
1.88011e-09
1.8708e-09
1.86225e-09
1.85448e-09
1.84755e-09
1.84145e-09
1.83622e-09
1.83186e-09
1.82839e-09
1.82579e-09
1.82407e-09
1.82321e-09
1.98891e-09
1.98359e-09
1.97617e-09
1.96712e-09
1.9568e-09
1.94556e-09
1.93368e-09
1.92143e-09
1.90902e-09
1.89663e-09
1.88441e-09
1.8725e-09
1.861e-09
1.85e-09
1.83959e-09
1.82981e-09
1.82073e-09
1.81239e-09
1.80482e-09
1.79805e-09
1.79211e-09
1.787e-09
1.78275e-09
1.77935e-09
1.77682e-09
1.77514e-09
1.77431e-09
1.93558e-09
1.9304e-09
1.92318e-09
1.91435e-09
1.90429e-09
1.89333e-09
1.88176e-09
1.86981e-09
1.8577e-09
1.84561e-09
1.83368e-09
1.82205e-09
1.81082e-09
1.80008e-09
1.78991e-09
1.78036e-09
1.77148e-09
1.76333e-09
1.75593e-09
1.74931e-09
1.74349e-09
1.7385e-09
1.73434e-09
1.73102e-09
1.72854e-09
1.72689e-09
1.72608e-09
1.88331e-09
1.87824e-09
1.87119e-09
1.86256e-09
1.85273e-09
1.84202e-09
1.8307e-09
1.81901e-09
1.80716e-09
1.79532e-09
1.78365e-09
1.77226e-09
1.76127e-09
1.75074e-09
1.74077e-09
1.73141e-09
1.72271e-09
1.71472e-09
1.70746e-09
1.70097e-09
1.69527e-09
1.69037e-09
1.68629e-09
1.68303e-09
1.68059e-09
1.67898e-09
1.67818e-09
1.83176e-09
1.82679e-09
1.81987e-09
1.81142e-09
1.80177e-09
1.79126e-09
1.78015e-09
1.76868e-09
1.75705e-09
1.74542e-09
1.73396e-09
1.72277e-09
1.71196e-09
1.70162e-09
1.69182e-09
1.68261e-09
1.67406e-09
1.66619e-09
1.65905e-09
1.65266e-09
1.64705e-09
1.64223e-09
1.63821e-09
1.635e-09
1.63261e-09
1.63102e-09
1.63023e-09
1.78057e-09
1.77568e-09
1.76887e-09
1.76054e-09
1.75105e-09
1.74069e-09
1.72975e-09
1.71844e-09
1.70698e-09
1.69552e-09
1.68421e-09
1.67318e-09
1.66251e-09
1.65231e-09
1.64263e-09
1.63355e-09
1.6251e-09
1.61733e-09
1.61028e-09
1.60397e-09
1.59843e-09
1.59367e-09
1.5897e-09
1.58653e-09
1.58416e-09
1.58259e-09
1.58181e-09
1.72934e-09
1.72451e-09
1.71777e-09
1.70954e-09
1.70015e-09
1.68991e-09
1.67908e-09
1.66789e-09
1.65654e-09
1.64519e-09
1.63399e-09
1.62306e-09
1.61249e-09
1.60238e-09
1.59279e-09
1.58378e-09
1.5754e-09
1.5677e-09
1.56071e-09
1.55445e-09
1.54895e-09
1.54423e-09
1.54029e-09
1.53715e-09
1.5348e-09
1.53324e-09
1.53247e-09
1.67764e-09
1.67284e-09
1.66615e-09
1.65797e-09
1.64864e-09
1.63845e-09
1.62768e-09
1.61655e-09
1.60526e-09
1.59397e-09
1.58282e-09
1.57193e-09
1.56141e-09
1.55134e-09
1.54178e-09
1.53281e-09
1.52446e-09
1.51679e-09
1.50982e-09
1.50358e-09
1.49811e-09
1.4934e-09
1.48947e-09
1.48634e-09
1.484e-09
1.48245e-09
1.48168e-09
1.625e-09
1.62021e-09
1.61353e-09
1.60535e-09
1.59602e-09
1.58584e-09
1.57507e-09
1.56394e-09
1.55264e-09
1.54134e-09
1.53018e-09
1.51928e-09
1.50875e-09
1.49866e-09
1.48909e-09
1.4801e-09
1.47174e-09
1.46406e-09
1.45707e-09
1.45083e-09
1.44534e-09
1.44063e-09
1.4367e-09
1.43356e-09
1.43122e-09
1.42966e-09
1.42889e-09
1.57089e-09
1.56608e-09
1.55936e-09
1.55114e-09
1.54175e-09
1.53152e-09
1.52068e-09
1.50948e-09
1.49811e-09
1.48673e-09
1.4755e-09
1.46453e-09
1.45392e-09
1.44376e-09
1.43412e-09
1.42507e-09
1.41665e-09
1.40891e-09
1.40188e-09
1.39559e-09
1.39006e-09
1.38531e-09
1.38136e-09
1.3782e-09
1.37584e-09
1.37428e-09
1.3735e-09
1.51474e-09
1.50987e-09
1.50307e-09
1.49475e-09
1.48526e-09
1.4749e-09
1.46393e-09
1.45259e-09
1.44107e-09
1.42955e-09
1.41817e-09
1.40705e-09
1.3963e-09
1.38601e-09
1.37625e-09
1.36708e-09
1.35855e-09
1.3507e-09
1.34358e-09
1.33722e-09
1.33162e-09
1.32682e-09
1.32281e-09
1.31962e-09
1.31723e-09
1.31565e-09
1.31487e-09
1.45593e-09
1.45097e-09
1.44405e-09
1.43558e-09
1.42591e-09
1.41535e-09
1.40417e-09
1.39262e-09
1.38088e-09
1.36914e-09
1.35754e-09
1.34621e-09
1.33525e-09
1.32477e-09
1.31482e-09
1.30547e-09
1.29678e-09
1.2888e-09
1.28155e-09
1.27506e-09
1.26937e-09
1.26448e-09
1.26041e-09
1.25717e-09
1.25474e-09
1.25314e-09
1.25234e-09
1.39382e-09
1.38873e-09
1.38164e-09
1.37295e-09
1.36304e-09
1.35222e-09
1.34076e-09
1.32891e-09
1.31688e-09
1.30484e-09
1.29295e-09
1.28134e-09
1.27011e-09
1.25936e-09
1.24917e-09
1.2396e-09
1.23071e-09
1.22254e-09
1.21512e-09
1.20849e-09
1.20267e-09
1.19768e-09
1.19352e-09
1.1902e-09
1.18773e-09
1.18609e-09
1.18528e-09
1.32773e-09
1.32249e-09
1.31518e-09
1.30622e-09
1.296e-09
1.28484e-09
1.27303e-09
1.26082e-09
1.24842e-09
1.23602e-09
1.22377e-09
1.21181e-09
1.20026e-09
1.1892e-09
1.17871e-09
1.16887e-09
1.15973e-09
1.15133e-09
1.14372e-09
1.13692e-09
1.13095e-09
1.12583e-09
1.12157e-09
1.11818e-09
1.11565e-09
1.11397e-09
1.11315e-09
1.25706e-09
1.25162e-09
1.24405e-09
1.23477e-09
1.22419e-09
1.21263e-09
1.20041e-09
1.18777e-09
1.17494e-09
1.16212e-09
1.14946e-09
1.1371e-09
1.12517e-09
1.11375e-09
1.10294e-09
1.0928e-09
1.08338e-09
1.07474e-09
1.06691e-09
1.05992e-09
1.05379e-09
1.04854e-09
1.04418e-09
1.0407e-09
1.03811e-09
1.0364e-09
1.03555e-09
1.18124e-09
1.1756e-09
1.16772e-09
1.15809e-09
1.1471e-09
1.13511e-09
1.12242e-09
1.10931e-09
1.09602e-09
1.08274e-09
1.06964e-09
1.05686e-09
1.04453e-09
1.03275e-09
1.0216e-09
1.01115e-09
1.00145e-09
9.92567e-10
9.84521e-10
9.77347e-10
9.71063e-10
9.65685e-10
9.61219e-10
9.57667e-10
9.55024e-10
9.53279e-10
9.52416e-10
1.09994e-09
1.09406e-09
1.08588e-09
1.07587e-09
1.06445e-09
1.05201e-09
1.03885e-09
1.02527e-09
1.01151e-09
9.9778e-10
9.84248e-10
9.71066e-10
9.58359e-10
9.4623e-10
9.34766e-10
9.24037e-10
9.14099e-10
9.04999e-10
8.96772e-10
8.89446e-10
8.83038e-10
8.77562e-10
8.73021e-10
8.69414e-10
8.66734e-10
8.64967e-10
8.64095e-10
1.01307e-09
1.00698e-09
9.98494e-10
9.88125e-10
9.76311e-10
9.63444e-10
9.4986e-10
9.35857e-10
9.21685e-10
9.07561e-10
8.93665e-10
8.80151e-10
8.67146e-10
8.54753e-10
8.43059e-10
8.32134e-10
8.22033e-10
8.128e-10
8.04468e-10
7.97062e-10
7.90597e-10
7.85081e-10
7.80516e-10
7.76897e-10
7.74212e-10
7.72446e-10
7.71576e-10
9.21015e-10
9.14742e-10
9.06011e-10
8.95351e-10
8.83222e-10
8.70031e-10
8.56129e-10
8.41822e-10
8.27372e-10
8.12999e-10
7.98889e-10
7.85197e-10
7.72048e-10
7.59548e-10
7.4778e-10
7.3681e-10
7.26692e-10
7.17465e-10
7.09157e-10
7.01789e-10
6.95372e-10
6.89909e-10
6.85396e-10
6.81824e-10
6.79178e-10
6.77435e-10
6.7657e-10
8.24748e-10
8.18365e-10
8.09493e-10
7.98676e-10
7.86392e-10
7.73059e-10
7.5904e-10
7.44649e-10
7.30152e-10
7.15772e-10
7.01697e-10
6.88078e-10
6.75041e-10
6.62685e-10
6.51089e-10
6.40315e-10
6.30409e-10
6.21404e-10
6.13324e-10
6.0618e-10
5.99978e-10
5.94715e-10
5.90381e-10
5.86961e-10
5.84433e-10
5.82771e-10
5.81944e-10
7.25975e-10
7.19604e-10
7.1076e-10
7e-10
6.8781e-10
6.74617e-10
6.60789e-10
6.46643e-10
6.32444e-10
6.18414e-10
6.04736e-10
5.91556e-10
5.78993e-10
5.67138e-10
5.56062e-10
5.45817e-10
5.36442e-10
5.27959e-10
5.20383e-10
5.13719e-10
5.07962e-10
5.03101e-10
4.99119e-10
4.95993e-10
4.93695e-10
4.92192e-10
4.91447e-10
6.27226e-10
6.21033e-10
6.12456e-10
6.0205e-10
5.90301e-10
5.77634e-10
5.64416e-10
5.50958e-10
5.3752e-10
5.24315e-10
5.11515e-10
4.99257e-10
4.87648e-10
4.76768e-10
4.66674e-10
4.57406e-10
4.48991e-10
4.41441e-10
4.34759e-10
4.2894e-10
4.23971e-10
4.19832e-10
4.16498e-10
4.13939e-10
4.12099e-10
4.10925e-10
4.10364e-10
5.31811e-10
5.26013e-10
5.18007e-10
5.08334e-10
4.97467e-10
4.85822e-10
4.73754e-10
4.61562e-10
4.49496e-10
4.3776e-10
4.26521e-10
4.15916e-10
4.06053e-10
3.97024e-10
3.8883e-10
3.81448e-10
3.74863e-10