/*--------------------------------*- C++ -*----------------------------------*\
| =========                 |                                                 |
| \\      /  F ield         | OpenFOAM: The Open Source CFD Toolbox           |
|  \\    /   O peration     | Version:  2106                                  |
|   \\  /    A nd           | Website:  www.openfoam.com                      |
|    \\/     M anipulation  |                                                 |
\*---------------------------------------------------------------------------*/
FoamFile
{
    version     2.0;
    format      ascii;
    arch        "LSB;label=32;scalar=64";
    class       volScalarField;
    location    "200.00032";
    object      T;
}
// * * * * * * * * * * * * * * * * * * * * * * * * * * * * * * * * * * * * * //

dimensions      [0 0 0 1 0 0 0];

internalField   nonuniform List<scalar> 
3360
(
301
301
301
301
301
301
301
301
301
301
301
301
301
301
301
301
301
301
301
301
301
301
301
301
301
301
301
301
301
301
301
301
301
301
301
301
301
301
301
301
301
301
301
301
301
301
301
301
301
301
301
301
301
301
301
301
301
301
301
301
301
301
301
301
301
301
301
301
301
301
301
301
301
301
301
301
301
301
301
301
301
301.001
301.001
301.001
301.001
301.001
301.001
301.001
301.001
301.001
301.001
301.001
301.001
301.002
301.002
301.002
301.002
301.002
301.002
301.002
301.002
301.002
301.002
301.002
301.002
301.002
301.002
301.002
301.002
301.002
301.002
301.002
301.003
301.003
301.003
301.004
301.004
301.005
301.005
301.006
301.006
301.007
301.007
301.008
301.008
301.009
301.009
301.01
301.01
301.011
301.011
301.011
301.011
301.011
301.011
301.005
301.005
301.006
301.007
301.008
301.009
301.01
301.011
301.013
301.014
301.016
301.018
301.02
301.022
301.024
301.026
301.028
301.029
301.031
301.033
301.034
301.036
301.037
301.038
301.039
301.04
301.041
301.013
301.014
301.016
301.018
301.02
301.023
301.027
301.031
301.035
301.039
301.044
301.049
301.054
301.06
301.065
301.071
301.076
301.081
301.086
301.091
301.096
301.1
301.104
301.107
301.111
301.114
301.116
301.032
301.035
301.039
301.044
301.05
301.057
301.065
301.074
301.084
301.095
301.107
301.119
301.132
301.145
301.158
301.171
301.184
301.197
301.21
301.222
301.233
301.244
301.254
301.263
301.272
301.279
301.286
301.073
301.079
301.087
301.098
301.111
301.127
301.145
301.165
301.187
301.211
301.236
301.263
301.29
301.319
301.347
301.376
301.404
301.432
301.46
301.486
301.511
301.535
301.557
301.578
301.597
301.615
301.631
301.153
301.165
301.182
301.204
301.232
301.263
301.3
301.34
301.384
301.432
301.483
301.536
301.591
301.647
301.704
301.761
301.817
301.873
301.927
301.979
302.029
302.077
302.122
302.164
302.203
302.239
302.272
301.303
301.326
301.359
301.401
301.453
301.513
301.582
301.658
301.741
301.83
301.925
302.023
302.125
302.23
302.335
302.441
302.545
302.648
302.748
302.845
302.938
303.026
303.11
303.188
303.261
303.329
303.391
301.571
301.612
301.671
301.747
301.84
301.948
302.07
302.206
302.353
302.511
302.678
302.852
303.031
303.214
303.398
303.582
303.765
303.944
304.118
304.287
304.448
304.603
304.748
304.885
305.013
305.132
305.242
302.027
302.098
302.2
302.332
302.491
302.675
302.884
303.114
303.363
303.63
303.91
304.202
304.502
304.806
305.113
305.419
305.722
306.019
306.308
306.587
306.854
307.109
307.35
307.577
307.789
307.986
308.169
302.778
302.895
303.065
303.282
303.544
303.847
304.188
304.564
304.969
305.401
305.854
306.324
306.805
307.293
307.783
308.271
308.752
309.223
309.681
310.122
310.545
310.948
311.329
311.688
312.023
312.335
312.624
303.974
304.163
304.435
304.783
305.201
305.682
306.222
306.814
307.451
308.126
308.833
309.562
310.307
311.06
311.814
312.562
313.299
314.018
314.715
315.387
316.029
316.64
317.218
317.762
318.27
318.743
319.182
305.833
306.127
306.551
307.091
307.737
308.479
309.308
310.213
311.184
312.208
313.275
314.372
315.489
316.613
317.735
318.844
319.933
320.994
322.019
323.005
323.946
324.84
325.684
326.477
327.218
327.908
328.548
308.656
309.103
309.746
310.563
311.537
312.652
313.891
315.237
316.675
318.185
319.75
321.353
322.976
324.604
326.222
327.816
329.374
330.887
332.346
333.745
335.077
336.339
337.529
338.646
339.689
340.659
341.557
312.86
313.526
314.479
315.686
317.12
318.753
320.559
322.512
324.586
326.753
328.987
331.263
333.556
335.845
338.109
340.329
342.492
344.583
346.593
348.513
350.338
352.062
353.685
355.205
356.623
357.941
359.16
319.017
319.985
321.368
323.113
325.175
327.511
330.08
332.842
335.757
338.785
341.887
345.029
348.177
351.301
354.376
357.377
360.287
363.089
365.772
368.326
370.747
373.029
375.171
377.174
379.04
380.772
382.373
327.886
329.265
331.227
333.69
336.585
339.845
343.408
347.213
351.201
355.314
359.502
363.716
367.911
372.051
376.102
380.036
383.833
387.473
390.946
394.24
397.352
400.279
403.021
405.58
407.96
410.167
412.207
340.454
342.369
345.082
348.472
352.431
356.86
361.665
366.759
372.057
377.483
382.968
388.449
393.871
399.189
404.363
409.364
414.167
418.753
423.111
427.233
431.116
434.758
438.164
441.338
444.287
447.019
449.544
357.923
360.508
364.155
368.683
373.937
379.771
386.052
392.657
399.476
406.406
413.361
420.264
427.05
433.667
440.071
446.231
452.122
457.726
463.034
468.04
472.744
477.149
481.261
485.089
488.643
491.934
494.976
381.65
385.023
389.759
395.604
402.337
409.757
417.684
425.956
434.429
442.98
451.502
459.907
468.122
476.091
483.768
491.12
498.126
504.77
511.046
516.952
522.492
527.673
532.504
536.999
541.172
545.036
548.609
412.953
417.184
423.095
430.346
438.642
447.719
457.345
467.318
477.463
487.635
497.712
507.596
517.209
526.493
535.402
543.907
551.987
559.633
566.84
573.613
579.958
585.888
591.416
596.559
601.334
605.76
609.855
452.807
457.881
464.938
473.551
483.344
493.993
505.214
516.768
528.454
540.107
551.595
562.814
573.684
584.144
594.154
603.685
612.723
621.261
629.3
636.847
643.915
650.52
656.678
662.41
667.736
672.678
677.257
501.459
507.26
515.301
525.071
536.127
548.088
560.629
573.481
586.421
599.273
611.895
624.182
636.051
647.447
658.329
668.675
678.472
687.719
696.422
704.59
712.24
719.391
726.064
732.28
738.064
743.438
748.426
558.139
564.457
573.193
583.773
595.704
608.564
622.001
635.722
649.495
663.133
676.494
689.469
701.981
713.974
725.413
736.278
746.561
756.263
765.393
773.965
781.997
789.511
796.53
803.076
809.176
814.854
820.135
620.947
627.511
636.569
647.518
659.836
673.081
686.888
700.956
715.046
728.972
742.592
755.8
768.521
780.703
792.314
803.337
813.768
823.61
832.874
841.577
849.738
857.38
864.527
871.202
877.432
883.241
888.655
687.084
693.6
702.585
713.43
725.615
738.7
752.317
766.173
780.032
793.713
807.078
820.027
832.489
844.415
855.778
866.563
876.768
886.399
895.468
903.992
911.992
919.49
926.51
933.076
939.214
944.946
950.298
753.306
759.505
768.047
778.352
789.92
802.33
815.235
828.353
841.461
854.389
867.009
879.226
890.975
902.213
912.916
923.072
932.681
941.749
950.29
958.321
965.862
972.935
979.562
985.768
991.575
997.006
1002.09
816.479
822.143
829.946
839.355
849.913
861.232
872.993
884.939
896.866
908.618
920.08
931.166
941.819
952.001
961.691
970.88
979.569
987.767
995.486
1002.75
1009.56
1015.95
1021.95
1027.56
1032.82
1037.74
1042.34
874.059
879.043
885.908
894.182
903.461
913.403
923.725
934.199
944.646
954.929
964.944
974.621
983.907
992.771
1001.2
1009.18
1016.72
1023.83
1030.51
1036.79
1042.69
1048.21
1053.39
1058.24
1062.78
1067.03
1071.01
924.396
928.629
934.459
941.482
949.352
957.778
966.516
975.372
984.193
992.863
1001.3
1009.43
1017.22
1024.64
1031.68
1038.34
1044.62
1050.52
1056.07
1061.27
1066.15
1070.72
1074.99
1078.99
1082.73
1086.23
1089.5
966.79
970.271
975.063
980.832
987.291
994.198
1001.35
1008.59
1015.79
1022.85
1029.7
1036.29
1042.59
1048.58
1054.25
1059.59
1064.62
1069.34
1073.76
1077.9
1081.77
1085.39
1088.77
1091.92
1094.87
1097.62
1100.19
1001.37
1004.15
1007.98
1012.58
1017.72
1023.22
1028.9
1034.64
1040.33
1045.9
1051.29
1056.47
1061.4
1066.08
1070.49
1074.64
1078.53
1082.17
1085.57
1088.74
1091.7
1094.46
1097.03
1099.43
1101.66
1103.74
1105.68
1028.85
1031.01
1033.99
1037.56
1041.55
1045.81
1050.21
1054.63
1059.02
1063.3
1067.43
1071.38
1075.14
1078.69
1082.02
1085.15
1088.08
1090.8
1093.34
1095.71
1097.9
1099.94
1101.84
1103.6
1105.24
1106.76
1108.18
1050.23
1051.88
1054.14
1056.86
1059.89
1063.12
1066.44
1069.79
1073.09
1076.3
1079.39
1082.34
1085.14
1087.77
1090.24
1092.54
1094.69
1096.69
1098.54
1100.25
1101.84
1103.31
1104.68
1105.94
1107.11
1108.19
1109.2
1066.64
1067.87
1069.56
1071.59
1073.85
1076.25
1078.71
1081.19
1083.63
1085.99
1088.26
1090.42
1092.46
1094.38
1096.16
1097.83
1099.37
1100.8
1102.12
1103.34
1104.46
1105.5
1106.46
1107.34
1108.15
1108.9
1109.6
1079.11
1080.01
1081.25
1082.74
1084.4
1086.15
1087.95
1089.75
1091.52
1093.23
1094.86
1096.42
1097.87
1099.24
1100.51
1101.68
1102.77
1103.76
1104.68
1105.53
1106.3
1107.01
1107.66
1108.26
1108.8
1109.31
1109.77
1088.53
1089.18
1090.08
1091.15
1092.34
1093.6
1094.89
1096.17
1097.43
1098.64
1099.8
1100.89
1101.91
1102.85
1103.73
1104.53
1105.27
1105.95
1106.56
1107.13
1107.64
1108.1
1108.53
1108.91
1109.26
1109.58
1109.86
1095.63
1096.09
1096.73
1097.48
1098.32
1099.21
1100.11
1101
1101.87
1102.71
1103.5
1104.24
1104.92
1105.56
1106.14
1106.67
1107.14
1107.58
1107.97
1108.32
1108.63
1108.91
1109.17
1109.39
1109.59
1109.77
1109.93
1100.97
1101.29
1101.73
1102.25
1102.82
1103.42
1104.03
1104.63
1105.21
1105.76
1106.28
1106.75
1107.19
1107.59
1107.95
1108.27
1108.55
1108.8
1109.02
1109.21
1109.38
1109.52
1109.64
1109.75
1109.84
1109.91
1109.97
1104.98
1105.2
1105.49
1105.83
1106.2
1106.59
1106.98
1107.36
1107.72
1108.06
1108.37
1108.65
1108.9
1109.12
1109.31
1109.47
1109.61
1109.72
1109.81
1109.88
1109.94
1109.98
1110.01
1110.02
1110.02
1110.02
1110.01
1108
1108.13
1108.31
1108.52
1108.74
1108.97
1109.2
1109.41
1109.61
1109.78
1109.94
1110.07
1110.18
1110.26
1110.33
1110.37
1110.4
1110.41
1110.41
1110.39
1110.36
1110.32
1110.28
1110.22
1110.16
1110.1
1110.04
1110.27
1110.34
1110.43
1110.54
1110.65
1110.76
1110.86
1110.95
1111.03
1111.08
1111.12
1111.14
1111.14
1111.13
1111.1
1111.05
1110.99
1110.93
1110.85
1110.77
1110.68
1110.58
1110.48
1110.37
1110.27
1110.16
1110.05
1111.97
1111.99
1112.03
1112.06
1112.09
1112.1
1112.11
1112.11
1112.09
1112.05
1112
1111.94
1111.86
1111.77
1111.67
1111.56
1111.44
1111.32
1111.18
1111.05
1110.91
1110.77
1110.63
1110.49
1110.35
1110.21
1110.07
1113.24
1113.23
1113.22
1113.19
1113.16
1113.11
1113.05
1112.97
1112.88
1112.78
1112.66
1112.54
1112.4
1112.25
1112.1
1111.94
1111.77
1111.6
1111.43
1111.26
1111.09
1110.91
1110.74
1110.57
1110.41
1110.24
1110.08
1114.19
1114.16
1114.11
1114.04
1113.95
1113.86
1113.74
1113.61
1113.47
1113.32
1113.15
1112.98
1112.8
1112.61
1112.42
1112.22
1112.02
1111.82
1111.62
1111.42
1111.22
1111.02
1110.83
1110.64
1110.45
1110.27
1110.09
1114.9
1114.84
1114.77
1114.67
1114.55
1114.41
1114.26
1114.09
1113.91
1113.72
1113.52
1113.31
1113.09
1112.88
1112.65
1112.43
1112.2
1111.98
1111.75
1111.53
1111.31
1111.1
1110.89
1110.68
1110.48
1110.28
1110.09
1115.42
1115.35
1115.25
1115.13
1114.98
1114.82
1114.64
1114.44
1114.23
1114.01
1113.79
1113.55
1113.31
1113.07
1112.82
1112.58
1112.33
1112.09
1111.85
1111.62
1111.38
1111.15
1110.93
1110.71
1110.5
1110.3
1110.1
1115.8
1115.72
1115.61
1115.47
1115.3
1115.12
1114.92
1114.7
1114.47
1114.23
1113.98
1113.73
1113.47
1113.21
1112.95
1112.69
1112.43
1112.17
1111.92
1111.67
1111.43
1111.19
1110.96
1110.74
1110.52
1110.3
1110.1
1116.08
1115.99
1115.87
1115.71
1115.54
1115.33
1115.12
1114.88
1114.64
1114.38
1114.12
1113.85
1113.58
1113.31
1113.04
1112.77
1112.5
1112.23
1111.97
1111.72
1111.47
1111.22
1110.98
1110.75
1110.53
1110.31
1110.1
1116.27
1116.18
1116.05
1115.89
1115.7
1115.49
1115.26
1115.01
1114.75
1114.49
1114.22
1113.94
1113.66
1113.38
1113.1
1112.82
1112.54
1112.27
1112.01
1111.74
1111.49
1111.24
1111
1110.76
1110.53
1110.31
1110.1
1116.41
1116.31
1116.18
1116.01
1115.81
1115.59
1115.35
1115.1
1114.83
1114.56
1114.28
1114
1113.71
1113.42
1113.14
1112.85
1112.57
1112.3
1112.03
1111.76
1111.5
1111.25
1111
1110.77
1110.53
1110.31
1110.1
1116.5
1116.4
1116.26
1116.09
1115.89
1115.66
1115.42
1115.16
1114.89
1114.61
1114.32
1114.03
1113.74
1113.45
1113.16
1112.87
1112.59
1112.31
1112.04
1111.77
1111.51
1111.25
1111.01
1110.77
1110.53
1110.31
1110.09
1116.56
1116.46
1116.32
1116.14
1115.93
1115.7
1115.45
1115.19
1114.92
1114.63
1114.34
1114.05
1113.76
1113.46
1113.17
1112.88
1112.59
1112.31
1112.04
1111.77
1111.51
1111.25
1111
1110.76
1110.53
1110.3
1110.09
1116.59
1116.49
1116.34
1116.16
1115.95
1115.72
1115.47
1115.21
1114.93
1114.64
1114.35
1114.06
1113.76
1113.46
1113.17
1112.88
1112.59
1112.31
1112.03
1111.76
1111.5
1111.25
1111
1110.76
1110.52
1110.3
1110.08
1116.6
1116.5
1116.35
1116.17
1115.96
1115.73
1115.47
1115.21
1114.93
1114.64
1114.35
1114.05
1113.75
1113.46
1113.16
1112.87
1112.58
1112.3
1112.02
1111.75
1111.49
1111.23
1110.99
1110.74
1110.51
1110.28
1110.07
1116.6
1116.49
1116.34
1116.16
1115.95
1115.72
1115.46
1115.19
1114.91
1114.63
1114.33
1114.04
1113.74
1113.44
1113.15
1112.85
1112.57
1112.28
1112.01
1111.74
1111.47
1111.22
1110.97
1110.73
1110.5
1110.27
1110.05
1116.58
1116.47
1116.33
1116.14
1115.93
1115.7
1115.44
1115.17
1114.89
1114.6
1114.31
1114.01
1113.71
1113.42
1113.12
1112.83
1112.54
1112.26
1111.99
1111.72
1111.45
1111.2
1110.95
1110.71
1110.48
1110.25
1110.03
1116.55
1116.44
1116.3
1116.11
1115.9
1115.66
1115.41
1115.14
1114.86
1114.57
1114.28
1113.98
1113.68
1113.39
1113.09
1112.8
1112.51
1112.23
1111.96
1111.69
1111.42
1111.17
1110.92
1110.68
1110.45
1110.22
1110.01
1116.51
1116.4
1116.26
1116.07
1115.86
1115.62
1115.37
1115.1
1114.82
1114.53
1114.24
1113.94
1113.64
1113.35
1113.05
1112.76
1112.47
1112.19
1111.92
1111.65
1111.39
1111.13
1110.89
1110.65
1110.41
1110.19
1109.97
1116.46
1116.35
1116.21
1116.02
1115.81
1115.57
1115.32
1115.05
1114.77
1114.48
1114.19
1113.89
1113.59
1113.3
1113
1112.71
1112.43
1112.15
1111.87
1111.6
1111.34
1111.09
1110.84
1110.6
1110.37
1110.15
1109.93
1116.4
1116.29
1116.14
1115.96
1115.75
1115.51
1115.26
1114.99
1114.71
1114.42
1114.13
1113.83
1113.53
1113.24
1112.94
1112.65
1112.37
1112.08
1111.81
1111.54
1111.28
1111.03
1110.78
1110.54
1110.31
1110.09
1109.87
1116.32
1116.22
1116.07
1115.89
1115.68
1115.44
1115.18
1114.91
1114.63
1114.34
1114.05
1113.75
1113.46
1113.16
1112.87
1112.58
1112.29
1112.01
1111.73
1111.47
1111.2
1110.95
1110.71
1110.47
1110.24
1110.01
1109.8
1116.24
1116.13
1115.98
1115.8
1115.59
1115.35
1115.09
1114.82
1114.54
1114.25
1113.96
1113.66
1113.36
1113.07
1112.77
1112.48
1112.19
1111.91
1111.64
1111.37
1111.11
1110.86
1110.61
1110.37
1110.14
1109.92
1109.7
1116.13
1116.03
1115.88
1115.69
1115.48
1115.24
1114.98
1114.71
1114.43
1114.14
1113.84
1113.55
1113.25
1112.95
1112.65
1112.36
1112.07
1111.79
1111.52
1111.25
1110.99
1110.73
1110.49
1110.25
1110.02
1109.79
1109.58
1116.01
1115.9
1115.75
1115.56
1115.35
1115.11
1114.85
1114.58
1114.29
1114
1113.7
1113.4
1113.1
1112.8
1112.51
1112.21
1111.92
1111.64
1111.36
1111.1
1110.83
1110.58
1110.33
1110.09
1109.86
1109.64
1109.42
1115.85
1115.74
1115.59
1115.4
1115.19
1114.94
1114.68
1114.41
1114.12
1113.83
1113.53
1113.22
1112.92
1112.62
1112.32
1112.03
1111.74
1111.45
1111.17
1110.9
1110.64
1110.38
1110.13
1109.89
1109.66
1109.44
1109.22
1115.66
1115.55
1115.4
1115.21
1114.99
1114.74
1114.48
1114.2
1113.91
1113.61
1113.31
1113
1112.7
1112.39
1112.09
1111.79
1111.5
1111.21
1110.93
1110.66
1110.39
1110.13
1109.88
1109.64
1109.41
1109.18
1108.96
1115.43
1115.32
1115.16
1114.97
1114.74
1114.5
1114.23
1113.94
1113.65
1113.35
1113.04
1112.73
1112.42
1112.11
1111.8
1111.5
1111.2
1110.91
1110.62
1110.35
1110.08
1109.82
1109.57
1109.32
1109.09
1108.86
1108.64
1115.14
1115.03
1114.87
1114.67
1114.44
1114.19
1113.91
1113.62
1113.32
1113.01
1112.7
1112.38
1112.06
1111.75
1111.44
1111.13
1110.83
1110.53
1110.24
1109.96
1109.69
1109.42
1109.17
1108.92
1108.68
1108.45
1108.23
1114.79
1114.67
1114.51
1114.3
1114.07
1113.81
1113.52
1113.23
1112.92
1112.6
1112.28
1111.95
1111.62
1111.3
1110.98
1110.67
1110.36
1110.05
1109.76
1109.47
1109.19
1108.92
1108.66
1108.41
1108.17
1107.94
1107.71
1114.35
1114.23
1114.06
1113.85
1113.6
1113.33
1113.04
1112.73
1112.41
1112.08
1111.75
1111.41
1111.08
1110.74
1110.41
1110.09
1109.77
1109.46
1109.16
1108.86
1108.58
1108.3
1108.03
1107.78
1107.53
1107.29
1107.06
1113.81
1113.68
1113.5
1113.28
1113.03
1112.74
1112.44
1112.12
1111.78
1111.44
1111.09
1110.74
1110.4
1110.05
1109.71
1109.37
1109.04
1108.72
1108.41
1108.1
1107.81
1107.52
1107.25
1106.98
1106.73
1106.49
1106.25
1113.13
1113
1112.81
1112.58
1112.31
1112.02
1111.69
1111.36
1111.01
1110.65
1110.28
1109.91
1109.55
1109.19
1108.83
1108.48
1108.13
1107.8
1107.47
1107.15
1106.85
1106.55
1106.27
1106
1105.73
1105.48
1105.24
1112.3
1112.16
1111.96
1111.72
1111.43
1111.11
1110.77
1110.41
1110.04
1109.66
1109.27
1108.89
1108.5
1108.11
1107.74
1107.37
1107
1106.65
1106.31
1105.98
1105.66
1105.35
1105.05
1104.77
1104.49
1104.23
1103.98
1111.28
1111.12
1110.91
1110.65
1110.34
1110
1109.63
1109.25
1108.85
1108.44
1108.03
1107.61
1107.2
1106.79
1106.39
1105.99
1105.61
1105.23
1104.87
1104.52
1104.18
1103.86
1103.54
1103.24
1102.96
1102.68
1102.42
1110.01
1109.85
1109.62
1109.33
1109
1108.63
1108.23
1107.81
1107.38
1106.94
1106.49
1106.04
1105.6
1105.16
1104.72
1104.3
1103.89
1103.48
1103.1
1102.72
1102.36
1102.01
1101.68
1101.37
1101.06
1100.77
1100.5
1108.46
1108.28
1108.03
1107.71
1107.35
1106.94
1106.51
1106.05
1105.58
1105.09
1104.61
1104.12
1103.63
1103.15
1102.68
1102.22
1101.77
1101.33
1100.91
1100.51
1100.12
1099.75
1099.39
1099.05
1098.73
1098.42
1098.13
1106.56
1106.36
1106.08
1105.73
1105.32
1104.88
1104.4
1103.89
1103.37
1102.83
1102.29
1101.75
1101.22
1100.69
1100.17
1099.67
1099.17
1098.7
1098.24
1097.8
1097.38
1096.97
1096.58
1096.22
1095.87
1095.54
1095.22
1104.24
1104.01
1103.7
1103.31
1102.85
1102.35
1101.82
1101.25
1100.67
1100.07
1099.47
1098.87
1098.27
1097.68
1097.11
1096.55
1096
1095.48
1094.97
1094.49
1094.02
1093.58
1093.15
1092.75
1092.37
1092.01
1091.67
1101.41
1101.16
1100.8
1100.36
1099.85
1099.28
1098.68
1098.04
1097.38
1096.71
1096.03
1095.36
1094.69
1094.03
1093.38
1092.75
1092.15
1091.56
1090.99
1090.45
1089.93
1089.44
1088.97
1088.53
1088.11
1087.71
1087.34
1097.98
1097.69
1097.29
1096.78
1096.2
1095.56
1094.87
1094.15
1093.4
1092.64
1091.87
1091.1
1090.34
1089.59
1088.86
1088.15
1087.47
1086.8
1086.17
1085.56
1084.98
1084.43
1083.9
1083.41
1082.94
1082.5
1082.08
1093.84
1093.51
1093.04
1092.47
1091.8
1091.06
1090.27
1089.44
1088.59
1087.72
1086.84
1085.96
1085.09
1084.24
1083.41
1082.6
1081.82
1081.06
1080.34
1079.65
1078.99
1078.37
1077.78
1077.22
1076.69
1076.19
1075.72
1088.86
1088.47
1087.94
1087.27
1086.51
1085.66
1084.75
1083.79
1082.8
1081.8
1080.79
1079.78
1078.78
1077.8
1076.85
1075.92
1075.02
1074.16
1073.33
1072.54
1071.79
1071.08
1070.4
1069.77
1069.17
1068.6
1068.08
1082.89
1082.45
1081.83
1081.06
1080.17
1079.19
1078.13
1077.03
1075.89
1074.72
1073.55
1072.39
1071.23
1070.1
1069
1067.92
1066.89
1065.89
1064.94
1064.03
1063.17
1062.35
1061.57
1060.84
1060.16
1059.51
1058.91
1075.79
1075.27
1074.55
1073.66
1072.62
1071.48
1070.26
1068.98
1067.65
1066.3
1064.94
1063.59
1062.25
1060.93
1059.65
1058.41
1057.2
1056.05
1054.95
1053.89
1052.89
1051.95
1051.05
1050.21
1049.42
1048.67
1047.98
1067.37
1066.77
1065.93
1064.89
1063.69
1062.36
1060.94
1059.44
1057.9
1056.33
1054.74
1053.17
1051.61
1050.08
1048.58
1047.13
1045.74
1044.39
1043.11
1041.89
1040.72
1039.62
1038.58
1037.6
1036.68
1035.82
1035.01
1057.46
1056.76
1055.78
1054.57
1053.18
1051.63
1049.97
1048.23
1046.43
1044.6
1042.75
1040.91
1039.09
1037.31
1035.56
1033.87
1032.24
1030.67
1029.17
1027.75
1026.39
1025.1
1023.89
1022.75
1021.67
1020.67
1019.73
1045.87
1045.06
1043.92
1042.51
1040.88
1039.08
1037.15
1035.12
1033.03
1030.89
1028.74
1026.59
1024.47
1022.39
1020.35
1018.38
1016.47
1014.64
1012.88
1011.21
1009.63
1008.12
1006.7
1005.36
1004.11
1002.93
1001.83
1032.41
1031.46
1030.14
1028.51
1026.62
1024.53
1022.29
1019.93
1017.49
1015
1012.5
1010
1007.53
1005.1
1002.73
1000.43
998.124
995.985
993.938
991.986
990.131
988.373
986.714
985.151
983.683
982.307
981.02
1016.89
1015.8
1014.27
1012.38
1010.19
1007.77
1005.17
1002.44
999.527
996.641
993.732
990.826
987.948
985.119
982.354
979.669
977.073
974.575
972.183
969.9
967.728
965.67
963.725
961.891
960.168
958.552
957.039
999.081
997.826
996.063
993.88
991.358
988.563
985.557
982.395
979.123
975.784
972.416
969.049
965.712
962.428
959.217
956.094
953.074
950.165
947.376
944.712
942.177
939.772
937.497
935.351
933.332
931.437
929.662
978.996
977.559
975.538
973.036
970.142
966.935
963.483
959.849
956.086
952.243
948.363
944.481
940.63
936.837
933.124
929.51
926.01
922.637
919.4
916.305
913.356
910.555
907.903
905.4
903.042
900.827
898.751
956.487
954.852
952.551
949.703
946.406
942.75
938.813
934.665
930.366
925.973
921.532
917.085
912.67
908.315
904.049
899.891
895.861
891.972
888.235
884.658
881.246
878.002
874.927
872.02
869.28
866.702
864.283
931.544
929.699
927.102
923.885
920.161
916.028
911.574
906.878
902.007
897.025
891.983
886.93
881.907
876.948
872.083
867.337
862.73
858.28
853.998
849.893
845.973
842.241
838.699
835.347
832.182
829.201
826.401
904.243
902.18
899.277
895.68
891.513
886.886
881.896
876.631
871.166
865.569
859.901
854.215
848.554
842.96
837.465
832.098
826.882
821.835
816.972
812.306
807.842
803.587
799.542
795.709
792.084
788.666
785.45
874.756
872.477
869.268
865.289
860.678
855.556
850.029
844.191
838.128
831.913
825.613
819.285
812.979
806.74
800.603
794.601
788.76
783.101
777.641
772.393
767.366
762.567
757.998
753.661
749.554
745.676
742.02
843.368
840.88
837.375
833.03
827.993
822.393
816.348
809.959
803.318
796.506
789.594
782.644
775.711
768.843
762.081
755.458
749.004
742.743
736.693
730.869
725.282
719.94
714.846
710.004
705.411
701.067
696.965
810.467
807.788
804.014
799.333
793.906
787.871
781.352
774.46
767.291
759.933
752.46
744.941
737.433
729.988
722.649
715.453
708.432
701.611
695.012
688.65
682.538
676.685
671.097
665.774
660.719
655.929
651.399
776.541
773.698
769.695
764.728
758.968
752.563
745.643
738.324
730.709
722.888
714.943
706.942
698.949
691.015
683.188
675.507
668.004
660.707
653.638
646.816
640.253
633.958
627.94
622.2
616.739
611.557
606.649
742.153
739.184
735.003
729.818
723.804
717.117
709.893
702.252
694.302
686.137
677.84
669.483
661.13
652.837
644.651
636.612
628.755
621.107
613.692
606.528
599.63
593.007
586.665
580.61
574.842
569.36
564.161
707.91
704.86
700.566
695.243
689.071
682.21
674.801
666.969
658.822
650.457
641.959
633.402
624.85
616.361
607.98
599.75
591.704
583.871
576.273
568.929
561.853
555.054
548.54
542.314
536.377
530.729
525.365
674.426
671.346
667.011
661.639
655.416
648.504
641.045
633.166
624.978
616.578
608.052
599.474
590.908
582.41
574.027
565.799
557.76
549.935
542.349
535.017
527.953
521.166
514.661
508.442
502.51
496.862
491.495
642.28
639.223
634.922
629.598
623.435
616.598
609.23
601.458
593.392
585.13
576.757
568.346
559.96
551.653
543.47
535.45
527.624
520.017
512.65
505.538
498.691
492.117
485.821
479.804
474.066
468.603
463.412
611.98
608.997
604.805
599.621
593.629
586.992
579.853
572.336
564.552
556.597
548.552
540.49
532.471
524.547
516.76
509.145
501.732
494.542
487.593
480.898
474.464
468.298
462.4
456.772
451.41
446.309
441.465
583.929
581.068
577.053
572.094
566.373
560.05
553.264
546.139
538.781
531.282
523.723
516.172
508.685
501.31
494.087
487.047
480.215
473.61
467.245
461.131
455.271
449.669
444.324
439.234
434.393
429.796
425.436
558.405
555.708
551.928
547.268
541.905
535.992
529.665
523.043
516.228
509.307
502.358
495.442
488.612
481.913
475.377
469.034
462.902
456.997
451.329
445.904
440.723
435.786
431.09
426.63
422.399
418.391
414.596
535.563
533.062
529.563
525.259
520.318
514.888
509.097
503.057
496.866
490.606
484.347
478.145
472.05
466.098
460.319
454.735
449.362
444.212
439.289
434.597
430.134
425.896
421.88
418.077
414.48
411.081
407.87
515.425
513.143
509.955
506.044
501.567
496.663
491.452
486.04
480.515
474.954
469.418
463.961
458.623
453.437
448.425
443.607
438.993
434.59
430.401
426.424
422.657
419.095
415.729
412.553
409.558
406.734
404.073
497.901
495.849
492.988
489.486
485.489
481.126
476.508
471.73
466.875
462.01
457.191
452.462
447.859
443.408
439.128
435.032
431.127
427.418
423.903
420.58
417.444
414.489
411.706
409.087
406.623
404.307
402.128
482.813
480.992
478.456
475.361
471.838
468.006
463.964
459.8
455.586
451.381
447.235
443.184
439.259
435.48
431.862
428.414
425.141
422.043
419.118
416.362
413.769
411.333
409.045
406.897
404.881
402.989
401.212
469.929
468.329
466.107
463.399
460.327
456.995
453.493
449.899
446.274
442.672
439.134
435.692
432.369
429.181
426.141
423.253
420.521
417.943
415.516
413.236
411.096
409.089
407.208
405.446
403.795
402.248
400.796
458.991
457.598
455.666
453.318
450.66
447.786
444.774
441.692
438.595
435.528
432.524
429.612
426.809
424.129
421.581
419.167
416.888
414.744
412.73
410.84
409.071
407.414
405.864
404.413
403.056
401.785
400.594
449.74
448.536
446.868
444.844
442.559
440.093
437.515
434.886
432.25
429.647
427.106
424.647
422.288
420.037
417.901
415.883
413.981
412.195
410.52
408.951
407.483
406.11
404.827
403.628
402.507
401.457
400.475
441.938
440.902
439.469
437.733
435.775
433.668
431.471
429.233
426.996
424.792
422.644
420.571
418.586
416.695
414.904
413.214
411.625
410.133
408.736
407.43
406.208
405.067
404.001
403.006
402.075
401.205
400.391
435.378
434.49
433.263
431.779
430.108
428.312
426.442
424.542
422.646
420.781
418.966
417.218
415.546
413.956
412.453
411.035
409.703
408.455
407.287
406.195
405.175
404.222
403.333
402.503
401.728
401.003
400.325
429.946
429.187
428.138
426.87
425.445
423.915
422.324
420.709
419.1
417.519
415.983
414.504
413.091
411.749
410.48
409.285
408.163
407.112
406.128
405.209
404.351
403.55
402.802
402.104
401.452
400.843
400.273
425.918
425.261
424.353
423.256
422.023
420.701
419.326
417.931
416.542
415.176
413.85
412.573
411.353
410.193
409.096
408.062
407.091
406.18
405.327
404.529
403.784
403.088
402.438
401.831
401.264
400.733
400.237
301
301
301
301.001
301.002
301.005
301.013
301.031
301.07
301.147
301.293
301.551
301.993
302.721
303.884
305.691
308.44
312.539
318.548
327.218
339.522
356.662
380
410.878
450.312
498.601
555.021
617.705
683.863
750.241
813.677
871.594
922.302
965.067
999.993
1027.77
1049.42
1066.03
1078.66
1088.2
1095.4
1100.81
1104.88
1107.94
1110.23
1111.96
1113.25
1114.21
1114.92
1115.45
1115.84
1116.12
1116.32
1116.46
1116.55
1116.61
1116.64
1116.65
1116.65
1116.63
1116.6
1116.56
1116.51
1116.45
1116.38
1116.29
1116.18
1116.06
1115.9
1115.71
1115.48
1115.2
1114.84
1114.41
1113.87
1113.2
1112.37
1111.35
1110.09
1108.55
1106.66
1104.35
1101.54
1098.12
1094
1089.04
1083.11
1076.04
1067.66
1057.8
1046.26
1032.86
1017.42
999.693
979.698
957.286
932.445
905.249
875.869
844.582
811.774
777.928
743.601
709.398
675.929
643.773
613.437
585.327
559.724
536.787
516.544
498.908
483.708
470.716
459.677
450.334
442.449
435.816
430.321
426.243
)
;

boundaryField
{
    outlet
    {
        type            inletOutlet;
        inletValue      uniform 301;
        value           nonuniform List<scalar> 
28
(
425.918
425.261
424.353
423.256
422.023
420.701
419.326
417.931
416.542
415.176
413.85
412.573
411.353
410.193
409.096
408.062
407.091
406.18
405.327
404.529
403.784
403.088
402.438
401.831
401.264
400.733
400.237
426.243
)
;
    }
    inlet
    {
        type            fixedValue;
        value           uniform 301;
    }
    front
    {
        type            wedge;
    }
    wall
    {
        type            codedFixedValue;
        value           nonuniform List<scalar> 
120
(
301
301
301
301.002
301.012
301.041
301.117
301.29
301.638
302.287
303.42
305.293
308.255
312.76
319.389
328.849
341.981
359.735
383.129
413.169
450.734
496.411
550.296
611.791
679.426
750.793
822.646
891.235
952.854
1004.51
1044.55
1072.91
1091.07
1101.42
1106.61
1108.85
1109.67
1109.92
1109.99
1110
1110
1110
1110
1110
1110
1110
1110
1110
1110
1110
1110
1109.99
1109.99
1109.99
1109.98
1109.98
1109.97
1109.96
1109.94
1109.93
1109.9
1109.87
1109.82
1109.77
1109.69
1109.6
1109.47
1109.32
1109.11
1108.86
1108.53
1108.12
1107.6
1106.95
1106.14
1105.12
1103.86
1102.3
1100.36
1097.99
1095.07
1091.5
1087.15
1081.88
1075.5
1067.82
1058.62
1047.65
1034.63
1019.28
1001.3
980.406
956.316
928.814
897.757
863.124
825.057
783.905
740.262
694.99
649.214
604.277
561.645
522.767
488.893
460.894
439.117
423.325
412.76
406.32
402.791
401.08
400.359
400.1
400.023
400.004
400.001
400
400
400
)
;
        name            wall_temperature_bc;
        code            #{
            double T_sp = 0.988424 * 1123.00;
            double a1 = 0.131778331900, m1 = 6.313607065647;
            double a2 = 0.501188856279, m2 = 17.562174483928;

            vector axisX = vector(1, 0, 0);
            scalarField x = (patch().Cf() & axisX);

            scalarField u = Foam::pow(x / a1, m1);
            scalarField d = Foam::pow(x / a2, m2);

            scalarField Tu = (T_sp - 301.0) * (1 - Foam::exp(-u));
            scalarField Td = (T_sp - 400.0) * (1 - Foam::exp(-d));

            scalarField Tval = 301 + Tu - Td;
            operator==(Tval);
        #};
    }
    back
    {
        type            wedge;
    }
}


// ************************************************************************* //
