/*--------------------------------*- C++ -*----------------------------------*\
| =========                 |                                                 |
| \\      /  F ield         | OpenFOAM: The Open Source CFD Toolbox           |
|  \\    /   O peration     | Version:  2106                                  |
|   \\  /    A nd           | Website:  www.openfoam.com                      |
|    \\/     M anipulation  |                                                 |
\*---------------------------------------------------------------------------*/
FoamFile
{
    version     2.0;
    format      ascii;
    arch        "LSB;label=32;scalar=64";
    class       volVectorField;
    location    "200.00032";
    object      U;
}
// * * * * * * * * * * * * * * * * * * * * * * * * * * * * * * * * * * * * * //

dimensions      [0 1 -1 0 0 0 0];

internalField   nonuniform List<vector> 
3360
(
(0.132726 -0.00481747 -3.94093e-11)
(0.133122 -0.00754459 -5.93415e-11)
(0.133675 -0.0103743 -7.08094e-11)
(0.134357 -0.0130943 -7.07543e-11)
(0.135124 -0.0157384 -5.72345e-11)
(0.135928 -0.0182831 -3.43869e-11)
(0.13671 -0.0207074 -3.62087e-12)
(0.137401 -0.0229806 3.0107e-11)
(0.137924 -0.0250843 6.47599e-11)
(0.138199 -0.026962 9.57765e-11)
(0.137921 -0.0285663 3.13401e-11)
(0.136822 -0.0299166 -2.27236e-11)
(0.134951 -0.0309305 -6.80922e-11)
(0.132318 -0.0315978 -3.64548e-11)
(0.128903 -0.0318945 -1.31082e-11)
(0.124673 -0.0318003 4.03411e-12)
(0.119585 -0.0312973 1.70012e-11)
(0.113592 -0.0303713 2.73061e-11)
(0.106645 -0.0290117 3.58794e-11)
(0.0986895 -0.0272124 4.26639e-11)
(0.0896712 -0.0249709 5.07322e-11)
(0.0795312 -0.0222852 3.86233e-11)
(0.0682069 -0.0191797 2.99013e-11)
(0.0555922 -0.0156361 2.19533e-11)
(0.0416326 -0.0116922 1.49613e-11)
(0.0262631 -0.00734351 8.64292e-12)
(0.00940287 -0.00247614 2.78648e-12)
(0.16289 -0.00348187 1.87856e-10)
(0.163257 -0.00532774 3.18098e-10)
(0.163667 -0.00716087 4.53293e-10)
(0.163987 -0.00878328 5.62099e-10)
(0.164078 -0.0102031 5.42461e-10)
(0.163806 -0.0113911 5.16261e-10)
(0.163039 -0.0123295 3.79383e-10)
(0.161659 -0.0130066 2.79967e-10)
(0.159562 -0.0134027 2.22377e-10)
(0.156662 -0.0135362 1.91572e-10)
(0.153114 -0.0134351 1.76237e-10)
(0.149032 -0.0130544 1.77339e-10)
(0.144327 -0.0125009 1.89398e-10)
(0.13895 -0.0117689 2.11431e-10)
(0.132847 -0.0108867 2.45828e-10)
(0.125963 -0.00988205 2.08079e-10)
(0.118267 -0.00878603 1.8632e-10)
(0.109759 -0.0076316 1.72196e-10)
(0.100461 -0.00645298 1.63742e-10)
(0.0904186 -0.00528457 1.59289e-10)
(0.0796976 -0.00416039 1.61849e-10)
(0.0683917 -0.00311769 1.36659e-10)
(0.0565957 -0.00216755 1.18556e-10)
(0.0444458 -0.00136717 1.02069e-10)
(0.0320188 -0.000722103 8.6132e-11)
(0.0193853 -0.000265756 5.78673e-11)
(0.00660927 -2.33353e-05 1.87988e-11)
(0.182487 -0.00315925 2.49748e-10)
(0.181965 -0.00483802 3.59387e-10)
(0.181081 -0.00640892 3.96802e-10)
(0.17973 -0.0077054 3.29846e-10)
(0.177812 -0.0087399 5.04934e-10)
(0.175237 -0.00950237 5.72155e-10)
(0.171938 -0.00999783 5.85319e-10)
(0.167874 -0.0102398 5.73452e-10)
(0.16304 -0.0102548 5.53541e-10)
(0.157446 -0.0100654 4.15273e-10)
(0.151089 -0.00970205 4.04535e-10)
(0.144036 -0.00920265 4.05159e-10)
(0.136284 -0.00856636 4.1657e-10)
(0.127871 -0.00783253 4.36599e-10)
(0.11888 -0.00701798 4.59709e-10)
(0.109431 -0.00615918 4.23354e-10)
(0.0996493 -0.00528183 3.34554e-10)
(0.089659 -0.004414 2.59427e-10)
(0.0795754 -0.00358129 1.91106e-10)
(0.069501 -0.00280627 1.51016e-10)
(0.0595204 -0.00210677 1.17241e-10)
(0.0496895 -0.00149737 1.03878e-10)
(0.0400568 -0.000987753 9.50768e-11)
(0.0306624 -0.000582505 8.44419e-11)
(0.0215378 -0.000283214 5.93625e-11)
(0.0127076 -9.18997e-05 3.42568e-11)
(0.00419039 -2.55022e-06 1.10224e-11)
(0.204698 -0.00181631 -5.35786e-10)
(0.203202 -0.0027049 -8.66993e-10)
(0.200955 -0.0035253 -1.23305e-09)
(0.197934 -0.00416388 -9.42076e-10)
(0.19411 -0.00463024 -7.86815e-10)
(0.189465 -0.0049344 -5.63053e-10)
(0.183998 -0.00505645 -4.23497e-10)
(0.177767 -0.00505329 -3.82737e-10)
(0.170832 -0.00491066 -2.63295e-10)
(0.163263 -0.00466695 -1.0761e-10)
(0.155175 -0.00433621 -2.16526e-12)
(0.146642 -0.003944 6.63578e-11)
(0.137716 -0.00350963 1.09553e-10)
(0.128452 -0.00305614 1.36146e-10)
(0.118905 -0.0026105 1.52659e-10)
(0.109151 -0.00218207 1.60981e-10)
(0.0992636 -0.00178541 1.71451e-10)
(0.089312 -0.00142796 1.09674e-10)
(0.079358 -0.0011136 5.57372e-11)
(0.0694539 -0.00084307 2.28872e-11)
(0.0596435 -0.00061607 2.00182e-11)
(0.0499625 -0.000429453 3.59763e-11)
(0.0404393 -0.000280687 3.07091e-11)
(0.0310972 -0.000167017 2.38811e-11)
(0.021955 -8.47729e-05 1.67965e-11)
(0.013028 -3.06406e-05 9.84518e-12)
(0.00432852 -3.65373e-06 3.18632e-12)
(0.208719 -0.00110111 3.18381e-10)
(0.20671 -0.00166853 1.2142e-11)
(0.203754 -0.00215643 -1.32621e-10)
(0.199882 -0.0025095 -1.34693e-10)
(0.195118 -0.00274059 -6.00847e-11)
(0.189495 -0.00284643 6.3545e-11)
(0.183066 -0.00287534 2.14911e-10)
(0.175876 -0.00280757 2.60256e-10)
(0.168022 -0.00268609 2.17375e-10)
(0.159599 -0.00251796 2.27152e-10)
(0.150703 -0.00231615 2.58174e-10)
(0.141425 -0.00209054 2.20884e-10)
(0.131854 -0.00185115 1.9399e-10)
(0.122076 -0.00160649 1.74616e-10)
(0.112185 -0.00136676 1.59345e-10)
(0.102259 -0.00113867 1.46626e-10)
(0.0923633 -0.000927646 1.35743e-10)
(0.0825535 -0.000737201 1.26067e-10)
(0.0728761 -0.000569282 1.1833e-10)
(0.0633711 -0.000424641 1.12823e-10)
(0.0540715 -0.00030315 1.0888e-10)
(0.0450052 -0.000204067 1.06562e-10)
(0.036195 -0.000126279 6.81205e-11)
(0.0276576 -6.83875e-05 5.13183e-11)
(0.0194043 -2.89329e-05 3.56376e-11)
(0.0114417 -6.81456e-06 2.05927e-11)
(0.00377268 1.33751e-06 6.60699e-12)
(0.218333 -0.000716784 4.74793e-11)
(0.215652 -0.0010417 2.74753e-11)
(0.211805 -0.00132279 1.75161e-11)
(0.20692 -0.0015183 3.30219e-11)
(0.201113 -0.00162728 7.08563e-11)
(0.194504 -0.00167094 1.16401e-10)
(0.187214 -0.00165009 1.60135e-10)
(0.179337 -0.00158002 1.92494e-10)
(0.170935 -0.00147627 2.16596e-10)
(0.162086 -0.00134915 2.41877e-10)
(0.152873 -0.00120861 2.69083e-10)
(0.14338 -0.00106277 1.96724e-10)
(0.133685 -0.000918224 1.33687e-10)
(0.123859 -0.000780247 7.67003e-11)
(0.113968 -0.00065236 2.2791e-11)
(0.104067 -0.000536371 -3.02861e-11)
(0.0942057 -0.000433157 -1.85331e-11)
(0.0844243 -0.000342944 -1.20489e-11)
(0.074757 -0.000265496 -8.09072e-12)
(0.0652319 -0.00020024 1.77894e-11)
(0.0558721 -0.000146357 4.42664e-11)
(0.0466964 -0.000102853 3.89707e-11)
(0.0377199 -6.86046e-05 3.68128e-11)
(0.0289546 -4.2425e-05 3.57297e-11)
(0.0204102 -2.30809e-05 3.67609e-11)
(0.0120941 -9.37223e-06 2.03639e-11)
(0.00401202 -1.7612e-06 6.59935e-12)
(0.219321 -0.000404275 2.2372e-11)
(0.216427 -0.000616261 4.58004e-11)
(0.212292 -0.000795922 8.35554e-11)
(0.207071 -0.000921132 1.21131e-10)
(0.200896 -0.00100838 1.56309e-10)
(0.193883 -0.00104868 1.93567e-10)
(0.186159 -0.0010567 9.22701e-11)
(0.177834 -0.00103307 -4.05102e-12)
(0.169011 -0.000983981 -1.05523e-10)
(0.159787 -0.000916113 -8.67528e-11)
(0.150253 -0.00083575 -9.27706e-11)
(0.140493 -0.000748303 -1.21078e-10)
(0.130586 -0.000658204 -1.63349e-10)
(0.120604 -0.000568918 -2.11508e-10)
(0.110611 -0.000483026 -2.06633e-10)
(0.100661 -0.000402367 -2.07347e-10)
(0.090804 -0.000328193 -2.14503e-10)
(0.0810816 -0.000261302 -2.24034e-10)
(0.071529 -0.000202144 -2.13218e-10)
(0.0621755 -0.000150905 -1.77484e-10)
(0.0530449 -0.000107575 -1.49117e-10)
(0.044156 -7.2002e-05 -1.00956e-10)
(0.0355232 -4.39285e-05 -7.95676e-11)
(0.027157 -2.30136e-05 -5.89427e-11)
(0.0190643 -8.90994e-06 -4.03353e-11)
(0.0112491 -1.43455e-06 -2.32815e-11)
(0.00371267 8.78498e-07 -7.48271e-12)
(0.223064 -0.000256034 5.66924e-10)
(0.219922 -0.000366252 9.47507e-10)
(0.21547 -0.000462455 4.56546e-10)
(0.209906 -0.000525035 1.37125e-10)
(0.203405 -0.000561963 -1.03568e-10)
(0.196118 -0.00057226 -3.49175e-10)
(0.188158 -0.000562406 -4.56523e-10)
(0.179638 -0.000536093 -4.74384e-10)
(0.170661 -0.000497798 -5.48871e-10)
(0.161325 -0.000451642 -5.07831e-10)
(0.151718 -0.00040127 -4.12075e-10)
(0.141921 -0.000349698 -3.46585e-10)
(0.132006 -0.000299272 -3.00165e-10)
(0.122036 -0.000251699 -2.63915e-10)
(0.112067 -0.000208115 -2.31465e-10)
(0.102145 -0.000169182 -1.96875e-10)
(0.0923104 -0.000135175 -2.34767e-10)
(0.0825971 -0.000106081 -2.69192e-10)
(0.0730327 -8.16716e-05 -2.67431e-10)
(0.0636403 -6.15734e-05 -2.4249e-10)
(0.0544386 -4.53221e-05 -2.22526e-10)
(0.0454425 -3.24078e-05 -1.83895e-10)
(0.036664 -2.2311e-05 -1.47422e-10)
(0.0281125 -1.45283e-05 -9.76351e-11)
(0.0197951 -8.54964e-06 -6.71598e-11)
(0.011717 -3.85516e-06 -3.87737e-11)
(0.00388201 -9.90511e-07 -1.24595e-11)
(0.223342 -0.00017229 1.50867e-10)
(0.220112 -0.000265863 1.99807e-10)
(0.215537 -0.000344774 1.70699e-10)
(0.209821 -0.000404449 1.31682e-10)
(0.203137 -0.000443836 1.27632e-10)
(0.19564 -0.000465448 -1.04748e-10)
(0.187469 -0.000470131 -2.48791e-10)
(0.178746 -0.000460766 -3.45779e-10)
(0.169582 -0.000440358 -4.16473e-10)
(0.160078 -0.00041181 -4.67993e-10)
(0.150325 -0.000377726 -5.1113e-10)
(0.140403 -0.000340323 -5.56494e-10)
(0.130386 -0.000301416 -5.20542e-10)
(0.120337 -0.000262443 -4.98648e-10)
(0.110312 -0.000224512 -4.8846e-10)
(0.100359 -0.000188453 -4.88056e-10)
(0.0905189 -0.000154874 -4.95445e-10)
(0.0808278 -0.000124201 -5.04378e-10)
(0.071315 -9.67256e-05 -4.98525e-10)
(0.062005 -7.26277e-05 -4.54001e-10)
(0.0529177 -5.20042e-05 -4.16568e-10)
(0.0440687 -3.48853e-05 -3.31705e-10)
(0.0354703 -2.12463e-05 -2.59047e-10)
(0.0271312 -1.10142e-05 -1.93055e-10)
(0.0190572 -4.10102e-06 -1.32565e-10)
(0.0112519 -4.8981e-07 -7.66172e-11)
(0.00371652 4.27573e-07 -2.46158e-11)
(0.225071 -0.000110662 -3.9307e-11)
(0.221755 -0.000157475 -6.30167e-11)
(0.217073 -0.000199173 -7.23797e-11)
(0.211251 -0.000228038 -1.07596e-10)
(0.20447 -0.00024592 -1.8139e-10)
(0.196884 -0.000253189 -2.85837e-10)
(0.188634 -0.000251035 -3.95167e-10)
(0.179846 -0.000241324 -5.02509e-10)
(0.170635 -0.000225969 -6.16723e-10)
(0.161099 -0.000206787 -6.03419e-10)
(0.15133 -0.00018538 -6.07388e-10)
(0.141406 -0.000163086 -6.17552e-10)
(0.131396 -0.00014096 -6.3162e-10)
(0.12136 -0.000119791 -6.45996e-10)
(0.111349 -0.000100133 -6.04298e-10)
(0.101408 -8.23334e-05 -5.67309e-10)
(0.0915729 -6.65749e-05 -5.37692e-10)
(0.0818759 -5.29051e-05 -5.14583e-10)
(0.0723427 -4.12714e-05 -4.55912e-10)
(0.0629947 -3.1548e-05 -3.94852e-10)
(0.0538492 -2.35598e-05 -3.37527e-10)
(0.0449201 -1.71019e-05 -2.54957e-10)
(0.0362186 -1.19578e-05 -2.0308e-10)
(0.0277529 -7.91049e-06 -1.52604e-10)
(0.0195293 -4.72211e-06 -1.05268e-10)
(0.0115522 -2.12778e-06 -6.09836e-11)
(0.00382445 -7.1974e-07 -1.96156e-11)
(0.225308 -9.94152e-05 4.92693e-10)
(0.221952 -0.0001536 8.97206e-10)
(0.217212 -0.000199935 2.65664e-10)
(0.211312 -0.000233984 -1.18496e-10)
(0.204436 -0.000256033 -4.11182e-10)
(0.196749 -0.0002677 -6.8458e-10)
(0.188397 -0.000270678 -8.25686e-10)
(0.179511 -0.000266453 -8.52491e-10)
(0.170207 -0.000256463 -9.09158e-10)
(0.160586 -0.00024205 -8.81576e-10)
(0.15074 -0.000224419 -7.67756e-10)
(0.140747 -0.00020462 -6.8627e-10)
(0.130676 -0.000183542 -6.19281e-10)
(0.12059 -0.000161926 -5.59762e-10)
(0.110539 -0.000140373 -5.03395e-10)
(0.100569 -0.000119384 -4.50576e-10)
(0.0907182 -9.93835e-05 -4.51396e-10)
(0.0810197 -8.07174e-05 -4.52869e-10)
(0.0715007 -6.36601e-05 -4.20155e-10)
(0.0621837 -4.84225e-05 -3.80016e-10)
(0.053087 -3.51579e-05 -3.31407e-10)
(0.0442252 -2.39684e-05 -2.74581e-10)
(0.0356096 -1.49104e-05 -2.17269e-10)
(0.0272485 -7.99678e-06 -1.51043e-10)
(0.0191475 -3.20497e-06 -1.03551e-10)
(0.0113101 -5.23404e-07 -5.99669e-11)
(0.00373771 -3.06666e-08 -1.92968e-11)
(0.226499 -7.75391e-05 1.48314e-10)
(0.223099 -0.000111661 1.83532e-10)
(0.218303 -0.000142147 1.07089e-10)
(0.212343 -0.000163676 2.71318e-11)
(0.205418 -0.000177417 -2.70064e-11)
(0.197696 -0.00018404 -2.74559e-10)
(0.189321 -0.000184721 -4.39446e-10)
(0.18042 -0.000180503 -5.35594e-10)
(0.171109 -0.000172437 -5.90974e-10)
(0.161487 -0.000161497 -6.17002e-10)
(0.151644 -0.000148559 -6.24521e-10)
(0.141656 -0.000134387 -6.25575e-10)
(0.131591 -0.000119629 -6.26655e-10)
(0.121508 -0.000104715 -6.3101e-10)
(0.111456 -9.03888e-05 -6.39614e-10)
(0.10148 -7.65011e-05 -6.5797e-10)
(0.0916148 -6.36206e-05 -6.09074e-10)
(0.0818928 -5.18436e-05 -5.71405e-10)
(0.0723393 -4.12926e-05 -5.16373e-10)
(0.0629755 -3.20303e-05 -4.20177e-10)
(0.0538188 -2.40669e-05 -3.33018e-10)
(0.0448829 -1.73718e-05 -2.52796e-10)
(0.0361787 -1.18857e-05 -1.78981e-10)
(0.0277148 -7.52662e-06 -1.25057e-10)
(0.0194971 -4.16286e-06 -7.61346e-11)
(0.0115299 -1.61455e-06 -4.35076e-11)
(0.00381573 -8.26043e-07 -1.39278e-11)
(0.22707 -0.000104242 -2.663e-11)
(0.223652 -0.000159947 -6.51206e-11)
(0.218831 -0.000209921 -1.28661e-10)
(0.21284 -0.000249131 -2.11239e-10)
(0.205875 -0.000277972 -3.09867e-10)
(0.198105 -0.000296193 -4.26081e-10)
(0.18968 -0.000304429 -5.44757e-10)
(0.180729 -0.000303851 -6.62363e-10)
(0.171367 -0.000295819 -7.80191e-10)
(0.161694 -0.000281749 -7.56507e-10)
(0.151801 -0.000263027 -7.4724e-10)
(0.141764 -0.000240959 -7.47319e-10)
(0.131651 -0.000216738 -7.53993e-10)
(0.121521 -0.000191526 -7.66148e-10)
(0.111425 -0.00016594 -7.08883e-10)
(0.101408 -0.000141219 -6.61298e-10)
(0.0915064 -0.000117634 -6.19832e-10)
(0.0817534 -9.57021e-05 -5.8583e-10)
(0.0721756 -7.57362e-05 -5.17038e-10)
(0.0627952 -5.79551e-05 -4.39572e-10)
(0.0536306 -4.25029e-05 -3.7102e-10)
(0.0446962 -2.94599e-05 -2.8483e-10)
(0.0360035 -1.88545e-05 -2.21955e-10)
(0.0275611 -1.06668e-05 -1.6552e-10)
(0.019375 -4.81095e-06 -1.13629e-10)
(0.0114491 -1.16989e-06 -6.56833e-11)
(0.00378551 -6.75441e-07 -2.11038e-11)
(0.228702 -0.000114947 -1.22875e-10)
(0.225261 -0.000170842 -1.77405e-10)
(0.220409 -0.00022186 -2.77366e-10)
(0.21438 -0.000261017 -3.92182e-10)
(0.207372 -0.000289077 -5.09262e-10)
(0.199557 -0.000306142 -6.21086e-10)
(0.191086 -0.000313104 -7.30575e-10)
(0.18209 -0.00031118 -8.37328e-10)
(0.172687 -0.000301765 -9.4638e-10)
(0.162977 -0.000286325 -9.08392e-10)
(0.153048 -0.000266311 -8.87068e-10)
(0.142979 -0.000243095 -8.73632e-10)
(0.132836 -0.000217924 -8.67479e-10)
(0.122676 -0.000191898 -8.6368e-10)
(0.112549 -0.000165956 -7.96535e-10)
(0.102496 -0.000140856 -7.35579e-10)
(0.0925533 -0.000117168 -6.8172e-10)
(0.0827505 -9.53134e-05 -6.36223e-10)
(0.0731132 -7.55797e-05 -5.6372e-10)
(0.0636627 -5.81433e-05 -4.82471e-10)
(0.0544166 -4.30897e-05 -4.07832e-10)
(0.0453895 -3.04303e-05 -3.11467e-10)
(0.0365929 -2.01218e-05 -2.44265e-10)
(0.0280359 -1.20737e-05 -1.82423e-10)
(0.0197254 -6.10218e-06 -1.25261e-10)
(0.0116661 -1.94295e-06 -7.23606e-11)
(0.00386119 -1.3758e-06 -2.32339e-11)
(0.230196 -0.000156408 3.44645e-10)
(0.226741 -0.000237598 -6.86525e-10)
(0.221869 -0.000311478 -3.98106e-10)
(0.215816 -0.000369915 -2.60161e-10)
(0.208782 -0.000413861 -1.9377e-10)
(0.200939 -0.000443446 -3.00758e-10)
(0.192438 -0.000459589 -3.97631e-10)
(0.183409 -0.000463519 -4.65147e-10)
(0.173969 -0.000456725 -5.0618e-10)
(0.164217 -0.000440822 -5.24788e-10)
(0.154241 -0.000417464 -5.27508e-10)
(0.144118 -0.000388278 -5.18753e-10)
(0.133915 -0.000354817 -5.01467e-10)
(0.123688 -0.000318525 -4.77667e-10)
(0.113487 -0.000280708 -4.48618e-10)
(0.103356 -0.000242546 -4.16157e-10)
(0.0933309 -0.000205105 -3.80316e-10)
(0.0834438 -0.000169307 -3.46248e-10)
(0.0737213 -0.000135919 -2.8833e-10)
(0.0641861 -0.000105549 -2.63022e-10)
(0.0548572 -7.8653e-05 -2.0742e-10)
(0.04575 -5.55459e-05 -1.70618e-10)
(0.036877 -3.64221e-05 -1.20607e-10)
(0.028248 -2.13592e-05 -9.06869e-11)
(0.0198703 -1.02666e-05 -6.24796e-11)
(0.011749 -2.94833e-06 -3.61808e-11)
(0.00388745 -1.7391e-06 -1.16147e-11)
(0.233088 -0.00020355 3.20589e-10)
(0.22962 -0.000305858 4.21105e-10)
(0.22473 -0.000399732 -3.35674e-10)
(0.218653 -0.000473643 -3.1747e-10)
(0.211588 -0.000528786 -3.24473e-10)
(0.203707 -0.000565199 -3.68963e-10)
(0.19516 -0.000584025 -4.33479e-10)
(0.186076 -0.000586906 -5.10904e-10)
(0.176572 -0.000575863 -5.96773e-10)
(0.166747 -0.000553111 -5.79536e-10)
(0.156688 -0.000520942 -5.74664e-10)
(0.146471 -0.00048161 -5.79336e-10)
(0.136164 -0.000437266 -5.90772e-10)
(0.125823 -0.00038989 -6.08908e-10)
(0.115499 -0.000341258 -5.61219e-10)
(0.105236 -0.000292916 -5.23325e-10)
(0.0950717 -0.000246168 -4.91653e-10)
(0.0850382 -0.000202076 -4.6867e-10)
(0.0751633 -0.000161468 -4.12646e-10)
(0.0654704 -0.000124955 -3.52709e-10)
(0.0559791 -9.29475e-05 -2.91682e-10)
(0.0467055 -6.56861e-05 -2.21315e-10)
(0.0376629 -4.32703e-05 -1.73994e-10)
(0.0288618 -2.56712e-05 -1.29872e-10)
(0.0203101 -1.26501e-05 -8.94161e-11)
(0.0120139 -3.82074e-06 -5.17996e-11)
(0.00397695 -2.5757e-06 -1.66629e-11)
(0.236599 -0.000263653 -6.51922e-10)
(0.233116 -0.000398373 -1.16479e-09)
(0.228205 -0.000520485 -8.4671e-10)
(0.222099 -0.000615834 -7.45326e-10)
(0.214998 -0.00068598 -7.52655e-10)
(0.207071 -0.000731224 -8.23307e-10)
(0.198468 -0.000753336 -9.33705e-10)
(0.189318 -0.0007547 -1.08571e-09)
(0.179735 -0.000738129 -1.07071e-09)
(0.169819 -0.00070666 -9.84395e-10)
(0.159655 -0.000663384 -9.23764e-10)
(0.14932 -0.000611313 -8.83209e-10)
(0.138881 -0.000553267 -8.57064e-10)
(0.128396 -0.00049181 -8.44176e-10)
(0.117917 -0.000429195 -7.66039e-10)
(0.107487 -0.000367347 -7.02297e-10)
(0.0971455 -0.000307859 -6.47851e-10)
(0.086927 -0.000252006 -6.02084e-10)
(0.0768602 -0.000200762 -5.30796e-10)
(0.0669703 -0.000154836 -4.48718e-10)
(0.0572782 -0.000114699 -3.74001e-10)
(0.0478019 -8.06182e-05 -2.8469e-10)
(0.0385559 -5.26969e-05 -2.24661e-10)
(0.029552 -3.08872e-05 -1.67608e-10)
(0.0207995 -1.48824e-05 -1.15063e-10)
(0.0123052 -4.20162e-06 -6.64498e-11)
(0.00407403 -3.2728e-06 -2.13233e-11)
(0.242033 -0.000330846 -6.22896e-10)
(0.238535 -0.00049696 -1.01596e-09)
(0.2336 -0.000647332 -1.37844e-09)
(0.227461 -0.00076367 -1.13354e-09)
(0.220314 -0.000848056 -9.90971e-10)
(0.212327 -0.000901068 -9.098e-10)
(0.203648 -0.000925135 -8.61073e-10)
(0.194404 -0.00092349 -8.25446e-10)
(0.184706 -0.000899889 -7.9003e-10)
(0.174654 -0.000858321 -7.53925e-10)
(0.164332 -0.000802775 -7.19185e-10)
(0.153817 -0.000737067 -6.87344e-10)
(0.143176 -0.000664716 -6.5894e-10)
(0.132469 -0.000588864 -6.29208e-10)
(0.121748 -0.000512228 -5.29932e-10)
(0.111059 -0.000437089 -4.37532e-10)
(0.100443 -0.000365297 -4.00849e-10)
(0.0899366 -0.000298298 -3.6702e-10)
(0.0795706 -0.00023717 -3.16531e-10)
(0.0693724 -0.000182658 -2.67554e-10)
(0.0593654 -0.000135227 -2.21324e-10)
(0.0495694 -9.51002e-05 -1.77517e-10)
(0.0400008 -6.23141e-05 -1.36469e-10)
(0.0306734 -3.67337e-05 -9.80461e-11)
(0.0215979 -1.79043e-05 -6.21638e-11)
(0.0127827 -5.15567e-06 -2.85142e-11)
(0.00423412 -4.3782e-06 -9.18509e-12)
(0.249167 -0.000402913 -8.81686e-10)
(0.245654 -0.000606103 -1.41663e-09)
(0.240691 -0.000788056 -1.18666e-09)
(0.23451 -0.000927207 -1.03625e-09)
(0.227305 -0.00102622 -9.49478e-10)
(0.219239 -0.00108628 -9.07347e-10)
(0.210456 -0.0011108 -8.95508e-10)
(0.201082 -0.00110416 -9.0381e-10)
(0.191226 -0.00107131 -9.2416e-10)
(0.180984 -0.00101739 -8.59795e-10)
(0.170443 -0.000947435 -8.1159e-10)
(0.15968 -0.000866177 -7.76262e-10)
(0.148761 -0.000777886 -7.51237e-10)
(0.137749 -0.000686304 -7.30729e-10)
(0.126699 -0.000594608 -6.64585e-10)
(0.11566 -0.000505408 -6.06044e-10)
(0.104677 -0.000420778 -5.57868e-10)
(0.0937868 -0.000342298 -5.11963e-10)
(0.0830257 -0.000271108 -4.65883e-10)
(0.0724237 -0.000207967 -3.90651e-10)
(0.062007 -0.000153306 -3.24934e-10)
(0.0517982 -0.000107292 -2.4905e-10)
(0.0418163 -6.98892e-05 -1.9471e-10)
(0.0320773 -4.08728e-05 -1.44787e-10)
(0.0225939 -1.96441e-05 -9.92124e-11)
(0.0133763 -5.36183e-06 -5.72176e-11)
(0.00443221 -5.41101e-06 -1.83407e-11)
(0.259235 -0.000465324 -1.09761e-09)
(0.255703 -0.000696819 -1.80088e-09)
(0.250707 -0.000902621 -1.46171e-09)
(0.244473 -0.00105771 -1.30399e-09)
(0.237189 -0.00116544 -1.21594e-09)
(0.229012 -0.00122777 -1.16935e-09)
(0.220083 -0.00124925 -1.14927e-09)
(0.210521 -0.00123547 -1.14455e-09)
(0.200435 -0.00119261 -1.14897e-09)
(0.189919 -0.00112688 -1.06902e-09)
(0.17906 -0.00104424 -1.00462e-09)
(0.167936 -0.000950161 -9.54357e-10)
(0.156617 -0.000849461 -9.15507e-10)
(0.145168 -0.00074627 -8.84979e-10)
(0.133648 -0.000644006 -8.00296e-10)
(0.122111 -0.00054541 -7.26361e-10)
(0.110605 -0.000452595 -6.61813e-10)
(0.0991744 -0.000367119 -6.09735e-10)
(0.0878571 -0.000290056 -5.34673e-10)
(0.0766879 -0.000222068 -4.53041e-10)
(0.0656972 -0.000163482 -3.76992e-10)
(0.0549111 -0.000114352 -2.9289e-10)
(0.0443518 -7.45362e-05 -2.3073e-10)
(0.0340381 -4.37063e-05 -1.72419e-10)
(0.0239853 -2.11048e-05 -1.18528e-10)
(0.0142059 -5.70134e-06 -6.84873e-11)
(0.00470925 -6.71887e-06 -2.19702e-11)
(0.272475 -0.000508959 -3.8546e-10)
(0.268919 -0.000761746 -5.7006e-10)
(0.263879 -0.000983604 -6.71475e-10)
(0.257572 -0.00114805 -7.21221e-10)
(0.250176 -0.0012591 -7.37847e-10)
(0.241842 -0.00131977 -7.29186e-10)
(0.232702 -0.0013358 -7.20893e-10)
(0.222873 -0.00131402 -7.94557e-10)
(0.21246 -0.0012617 -8.55216e-10)
(0.201557 -0.00118597 -8.03101e-10)
(0.190254 -0.00109348 -7.46795e-10)
(0.17863 -0.000990178 -6.90399e-10)
(0.166762 -0.000881194 -6.35191e-10)
(0.15472 -0.00077081 -5.81271e-10)
(0.142568 -0.000662486 -5.28592e-10)
(0.130366 -0.000558924 -4.77985e-10)
(0.118169 -0.000462147 -4.30397e-10)
(0.106027 -0.000373595 -3.78871e-10)
(0.0939843 -0.000294211 -3.18375e-10)
(0.0820808 -0.000224531 -2.8479e-10)
(0.0703516 -0.000164761 -2.25875e-10)
(0.0588271 -0.000114848 -1.87424e-10)
(0.0475335 -7.45648e-05 -1.37129e-10)
(0.0364927 -4.35061e-05 -1.01833e-10)
(0.0257232 -2.0791e-05 -6.96139e-11)
(0.0152396 -5.24185e-06 -4.00818e-11)
(0.00505354 -7.93509e-06 -1.28237e-11)
(0.290164 -0.000515808 -7.39778e-10)
(0.286571 -0.000768674 -1.28567e-09)
(0.281462 -0.000988099 -9.37207e-10)
(0.275041 -0.00114766 -7.97776e-10)
(0.267473 -0.00125187 -7.30711e-10)
(0.2589 -0.00130474 -6.97002e-10)
(0.249446 -0.00131294 -6.80353e-10)
(0.239224 -0.00128408 -6.74429e-10)
(0.228337 -0.001226 -6.69507e-10)
(0.216883 -0.00114618 -6.61669e-10)
(0.204953 -0.00105139 -6.52885e-10)
(0.192635 -0.000947523 -6.44627e-10)
(0.180011 -0.000839535 -6.38509e-10)
(0.16716 -0.000731445 -6.31487e-10)
(0.154155 -0.000626413 -5.8276e-10)
(0.141064 -0.000526832 -5.38065e-10)
(0.127951 -0.000434435 -5.00697e-10)
(0.114871 -0.000350399 -4.64027e-10)
(0.101878 -0.000275448 -4.17071e-10)
(0.0890172 -0.000209937 -3.60391e-10)
(0.0763294 -0.000153936 -3.05778e-10)
(0.0638502 -0.000107293 -2.41583e-10)
(0.05161 -6.97224e-05 -2.00935e-10)
(0.0396348 -4.07835e-05 -1.49271e-10)
(0.027946 -1.95181e-05 -1.02321e-10)
(0.0165609 -4.65756e-06 -5.8981e-11)
(0.00549327 -9.25563e-06 -1.89003e-11)
(0.312852 -0.000476934 -8.39915e-10)
(0.309189 -0.00070978 -1.32317e-09)
(0.303957 -0.000908739 -1.03552e-09)
(0.297344 -0.00105049 -8.74318e-10)
(0.289501 -0.00113967 -7.8536e-10)
(0.280559 -0.00118105 -7.34684e-10)
(0.270635 -0.00118164 -7.03699e-10)
(0.259841 -0.00114916 -6.82364e-10)
(0.248281 -0.00109126 -6.65074e-10)
(0.236058 -0.00101503 -6.48814e-10)
(0.223273 -0.000926735 -6.3322e-10)
(0.210022 -0.000831638 -6.18013e-10)
(0.196398 -0.000734059 -6.02563e-10)
(0.182492 -0.000637404 -5.85783e-10)
(0.168386 -0.000544282 -5.25198e-10)
(0.15416 -0.000456607 -4.67846e-10)
(0.139887 -0.00037572 -4.14732e-10)
(0.125632 -0.000302492 -3.64377e-10)
(0.111456 -0.00023742 -3.09513e-10)
(0.0974115 -0.000180709 -2.43807e-10)
(0.0835461 -0.000132337 -1.8646e-10)
(0.0699005 -9.21179e-05 -1.38723e-10)
(0.0565099 -5.97737e-05 -1.07875e-10)
(0.0434039 -3.48978e-05 -8.06925e-11)
(0.0306073 -1.65342e-05 -5.55393e-11)
(0.0181399 -3.40604e-06 -3.21237e-11)
(0.00601773 -1.03739e-05 -1.0309e-11)
(0.341653 -0.000384442 -5.58955e-10)
(0.33785 -0.000569403 -8.79938e-10)
(0.332389 -0.000724956 -1.17993e-09)
(0.325444 -0.000833006 -9.06718e-10)
(0.317154 -0.000897803 -7.38524e-10)
(0.30764 -0.000924163 -6.1088e-10)
(0.297017 -0.000918483 -5.0531e-10)
(0.285399 -0.000887539 -4.10753e-10)
(0.272899 -0.000837809 -3.1739e-10)
(0.259628 -0.000775077 -3.14127e-10)
(0.245699 -0.000704268 -2.98599e-10)
(0.231223 -0.000629403 -2.76666e-10)
(0.216307 -0.00055366 -2.5041e-10)
(0.201055 -0.000479463 -2.20732e-10)
(0.185562 -0.0004086 -1.88696e-10)
(0.16992 -0.000342337 -1.48363e-10)
(0.154213 -0.000281517 -1.57287e-10)
(0.138516 -0.000226656 -1.57258e-10)
(0.122898 -0.000178019 -1.39741e-10)
(0.10742 -0.000135677 -1.23223e-10)
(0.0921348 -9.95601e-05 -1.07834e-10)
(0.0770894 -6.94961e-05 -9.3142e-11)
(0.0623234 -4.52777e-05 -7.89997e-11)
(0.04787 -2.65985e-05 -5.66309e-11)
(0.033757 -1.25774e-05 -3.56243e-11)
(0.0200068 -1.99389e-06 -1.61489e-11)
(0.00663706 -1.13391e-05 -5.13065e-12)
(0.376811 -0.000242613 -6.8394e-10)
(0.372749 -0.000358342 -1.08603e-09)
(0.36689 -0.000452857 -8.64259e-10)
(0.359401 -0.000515714 -6.98568e-10)
(0.350414 -0.000550284 -5.80839e-10)
(0.340051 -0.000560574 -4.9039e-10)
(0.328432 -0.000551406 -4.19509e-10)
(0.315679 -0.000527603 -3.64176e-10)
(0.301918 -0.000493538 -3.21981e-10)
(0.287278 -0.000452913 -2.91477e-10)
(0.271888 -0.000408708 -2.68957e-10)
(0.255874 -0.000363219 -2.51781e-10)
(0.239361 -0.00031815 -2.38145e-10)
(0.222468 -0.000274715 -2.2709e-10)
(0.205305 -0.000233744 -2.18106e-10)
(0.187975 -0.000195776 -2.10954e-10)
(0.170575 -0.000161133 -2.04967e-10)
(0.153189 -0.000129982 -2.00177e-10)
(0.135895 -0.000102381 -1.81564e-10)
(0.118761 -7.83136e-05 -1.54387e-10)
(0.101846 -5.77095e-05 -1.27471e-10)
(0.0852012 -4.04686e-05 -1.0345e-10)
(0.0688706 -2.6507e-05 -8.13866e-11)
(0.0528909 -1.56745e-05 -6.09214e-11)
(0.0372922 -7.23876e-06 -4.19007e-11)
(0.0220988 -1.05511e-07 -2.42141e-11)
(0.00732982 -1.18934e-05 -7.76714e-12)
(0.418415 -5.8896e-05 -6.64751e-10)
(0.413926 -8.40102e-05 -1.12663e-09)
(0.407437 -0.000100625 -8.45813e-10)
(0.399122 -0.00010705 -7.21866e-10)
(0.389123 -0.000105377 -6.48889e-10)
(0.377574 -9.79349e-05 -6.07527e-10)
(0.364609 -8.70601e-05 -5.87971e-10)
(0.350369 -7.47359e-05 -5.85239e-10)
(0.335001 -6.24445e-05 -5.95682e-10)
(0.318652 -5.11554e-05 -6.23701e-10)
(0.301472 -4.13924e-05 -5.77751e-10)
(0.283607 -3.33347e-05 -5.06638e-10)
(0.2652 -2.6923e-05 -4.4959e-10)
(0.246383 -2.19535e-05 -4.03526e-10)
(0.227284 -1.81539e-05 -3.65595e-10)
(0.208017 -1.5238e-05 -3.34011e-10)
(0.188689 -1.29424e-05 -3.06391e-10)
(0.169394 -1.1048e-05 -2.83487e-10)
(0.150218 -9.3895e-06 -2.45576e-10)
(0.131233 -7.85646e-06 -2.10248e-10)
(0.112506 -6.38721e-06 -1.73776e-10)
(0.0940905 -4.96724e-06 -1.40912e-10)
(0.0760347 -3.65535e-06 -1.10588e-10)
(0.0583773 -2.48513e-06 -8.26215e-11)
(0.0411503 -9.33188e-07 -5.67543e-11)
(0.0243793 1.94212e-06 -3.27781e-11)
(0.00808404 -1.20216e-05 -1.05113e-11)
(0.465317 0.00015315 -5.95194e-10)
(0.460207 0.000230666 -1.00136e-09)
(0.452825 0.000301858 -7.68005e-10)
(0.443376 0.000358724 -6.62437e-10)
(0.43203 0.000400547 -5.90569e-10)
(0.418946 0.000427202 -5.39154e-10)
(0.404288 0.000439338 -5.00698e-10)
(0.388222 0.000438281 -4.70069e-10)
(0.370921 0.000425837 -4.43583e-10)
(0.352558 0.000404091 -4.18555e-10)
(0.333303 0.000375228 -3.93133e-10)
(0.313325 0.000341381 -3.677e-10)
(0.292781 0.000304526 -3.43336e-10)
(0.271822 0.000266403 -3.20519e-10)
(0.250586 0.000228486 -2.99449e-10)
(0.229201 0.000191962 -2.80268e-10)
(0.207782 0.000157744 -2.63277e-10)
(0.186431 0.000126489 -2.4632e-10)
(0.165239 9.86282e-05 -2.21317e-10)
(0.144285 7.43971e-05 -1.86053e-10)
(0.123639 5.38728e-05 -1.54424e-10)
(0.103357 3.70005e-05 -1.25543e-10)
(0.08349 2.35881e-05 -9.87642e-11)
(0.0640777 1.34211e-05 -7.39177e-11)
(0.045153 6.80777e-06 -5.08425e-11)
(0.0267419 4.44124e-06 -2.93895e-11)
(0.00886412 -1.15476e-05 -9.42974e-12)
(0.515792 0.000379436 -6.52803e-10)
(0.509878 0.00056806 -9.96955e-10)
(0.501359 0.000734048 -8.08913e-10)
(0.490495 0.000859825 -6.79727e-10)
(0.477503 0.000945962 -5.91224e-10)
(0.462585 0.000994728 -5.2696e-10)
(0.445943 0.00100989 -4.77221e-10)
(0.427778 0.000996189 -4.3649e-10)
(0.408292 0.000958826 -4.01647e-10)
(0.387685 0.000903037 -3.70965e-10)
(0.366153 0.000833814 -3.43481e-10)
(0.34388 0.000755711 -3.18682e-10)
(0.321044 0.000672727 -2.96289e-10)
(0.297807 0.000588259 -2.76104e-10)
(0.274321 0.000505098 -2.57896e-10)
(0.250721 0.00042545 -2.41251e-10)
(0.227131 0.00035099 -2.25461e-10)
(0.203658 0.000282916 -2.09704e-10)
(0.180397 0.000222017 -1.90991e-10)
(0.157433 0.000168737 -1.61075e-10)
(0.134834 0.000123239 -1.33378e-10)
(0.112661 8.54554e-05 -1.08159e-10)
(0.0909651 5.51085e-05 -8.49036e-11)
(0.0697858 3.18333e-05 -6.34269e-11)
(0.0491564 1.57075e-05 -4.3566e-11)
(0.0291023 7.18217e-06 -2.51617e-11)
(0.00964258 -1.05123e-05 -8.06975e-12)
(0.567175 0.000604071 4.96647e-10)
(0.560323 0.000902603 5.90676e-11)
(0.550493 0.00116319 -1.31219e-10)
(0.53802 0.00135891 -2.39895e-10)
(0.523182 0.00149122 -1.50948e-10)
(0.506237 0.00156454 -1.88814e-10)
(0.487434 0.00158546 -1.89519e-10)
(0.467013 0.00156186 -1.82728e-10)
(0.44521 0.0015021 -1.69755e-10)
(0.422254 0.00141441 -1.52971e-10)
(0.398361 0.00130646 -1.33675e-10)
(0.373736 0.00118517 -1.12635e-10)
(0.348571 0.00105656 -9.07568e-11)
(0.32304 0.00092572 -6.92855e-11)
(0.297304 0.000796798 -7.7032e-11)
(0.271506 0.000673099 -8.60995e-11)
(0.245774 0.000557143 -1.18422e-10)
(0.220219 0.000450761 -1.22548e-10)
(0.194941 0.00035519 -1.11157e-10)
(0.170022 0.000271167 -8.98957e-11)
(0.145536 0.000199018 -8.09482e-11)
(0.121542 0.000138736 -7.1978e-11)
(0.098089 9.00202e-05 -5.67548e-11)
(0.0752185 5.24043e-05 -4.26044e-11)
(0.0529619 2.57462e-05 -2.93735e-11)
(0.0313434 1.02579e-05 -1.70069e-11)
(0.0103806 -8.92289e-06 -5.46226e-12)
(0.616807 0.000809606 -2.92402e-10)
(0.608957 0.0012105 -5.53844e-10)
(0.597743 0.00155978 -3.55442e-10)
(0.583583 0.00182229 -2.66708e-10)
(0.56683 0.00199999 -2.13768e-10)
(0.547804 0.00209902 -1.82013e-10)
(0.526804 0.00212829 -1.61614e-10)
(0.504113 0.00209834 -1.47895e-10)
(0.480002 0.00202025 -1.38642e-10)
(0.454725 0.00190487 -1.32234e-10)
(0.428521 0.00176231 -1.27618e-10)
(0.401613 0.00160165 -1.24301e-10)
(0.374203 0.00143081 -1.22123e-10)
(0.346477 0.00125647 -1.21124e-10)
(0.318601 0.00108415 -1.21355e-10)