/*--------------------------------*- C++ -*----------------------------------*\
| =========                 |                                                 |
| \\      /  F ield         | OpenFOAM: The Open Source CFD Toolbox           |
|  \\    /   O peration     | Version:  2106                                  |
|   \\  /    A nd           | Website:  www.openfoam.com                      |
|    \\/     M anipulation  |                                                 |
\*---------------------------------------------------------------------------*/
FoamFile
{
    version     2.0;
    format      ascii;
    arch        "LSB;label=32;scalar=64";
    class       volScalarField;
    location    "150.00049";
    object      A1C2H3;
}
// * * * * * * * * * * * * * * * * * * * * * * * * * * * * * * * * * * * * * //

dimensions      [0 0 0 0 0 0 0];

internalField   nonuniform List<scalar> 
3360
(
1.20018e-21
1.23881e-21
1.29256e-21
1.3583e-21
1.4333e-21
1.5151e-21
1.60147e-21
1.69041e-21
1.78012e-21
1.86905e-21
1.95581e-21
2.03924e-21
2.1184e-21
2.19251e-21
2.261e-21
2.32346e-21
2.37964e-21
2.42944e-21
2.47286e-21
2.51006e-21
2.54123e-21
2.5667e-21
2.58681e-21
2.60198e-21
2.61266e-21
2.6193e-21
2.62238e-21
5.26491e-21
5.45844e-21
5.73152e-21
6.07161e-21
6.46828e-21
6.91245e-21
7.396e-21
7.91149e-21
8.45202e-21
9.01105e-21
9.58231e-21
1.01597e-20
1.07372e-20
1.13089e-20
1.18689e-20
1.24115e-20
1.2931e-20
1.34221e-20
1.38795e-20
1.42982e-20
1.46739e-20
1.50024e-20
1.52805e-20
1.55054e-20
1.56752e-20
1.57885e-20
1.5845e-20
1.65199e-20
1.7245e-20
1.82753e-20
1.95699e-20
2.10949e-20
2.28199e-20
2.47158e-20
2.67541e-20
2.89059e-20
3.11417e-20
3.34313e-20
3.57447e-20
3.80524e-20
4.0325e-20
4.25341e-20
4.4653e-20
4.66567e-20
4.85229e-20
5.02322e-20
5.17687e-20
5.31197e-20
5.42767e-20
5.52344e-20
5.59914e-20
5.65495e-20
5.69135e-20
5.70907e-20
4.81118e-20
5.05015e-20
5.392e-20
5.82451e-20
6.33746e-20
6.92126e-20
7.56634e-20
8.26278e-20
9.00017e-20
9.76757e-20
1.05537e-19
1.1347e-19
1.21361e-19
1.29099e-19
1.36577e-19
1.437e-19
1.50382e-19
1.56548e-19
1.62141e-19
1.67117e-19
1.71446e-19
1.75114e-19
1.78118e-19
1.80467e-19
1.82181e-19
1.83288e-19
1.83822e-19
1.40568e-19
1.48107e-19
1.58912e-19
1.72614e-19
1.889e-19
2.07469e-19
2.28011e-19
2.50199e-19
2.73682e-19
2.98093e-19
3.2305e-19
3.48168e-19
3.73072e-19
3.97401e-19
4.20822e-19
4.43037e-19
4.63786e-19
4.8286e-19
5.00091e-19
5.15363e-19
5.28604e-19
5.39784e-19
5.48913e-19
5.56033e-19
5.61215e-19
5.64554e-19
5.66161e-19
4.14461e-19
4.37613e-19
4.70837e-19
5.13006e-19
5.63154e-19
6.20348e-19
6.83621e-19
7.51942e-19
8.24212e-19
8.99273e-19
9.75932e-19
1.05299e-18
1.12928e-18
1.20368e-18
1.27518e-18
1.34288e-18
1.406e-18
1.46391e-18
1.51613e-18
1.56234e-18
1.60233e-18
1.63604e-18
1.66353e-18
1.68494e-18
1.7005e-18
1.71052e-18
1.71533e-18
1.23117e-18
1.30153e-18
1.40248e-18
1.53062e-18
1.68299e-18
1.85673e-18
2.04886e-18
2.2562e-18
2.47536e-18
2.70279e-18
2.93486e-18
3.1679e-18
3.39839e-18
3.62297e-18
3.83859e-18
4.04255e-18
4.23257e-18
4.40678e-18
4.56378e-18
4.70261e-18
4.82271e-18
4.92392e-18
5.0064e-18
5.07063e-18
5.1173e-18
5.14733e-18
5.16177e-18
3.66929e-18
3.88098e-18
4.18489e-18
4.57079e-18
5.02979e-18
5.55324e-18
6.13211e-18
6.75677e-18
7.41695e-18
8.10189e-18
8.80056e-18
9.50195e-18
1.01954e-17
1.08707e-17
1.15189e-17
1.21317e-17
1.27024e-17
1.32253e-17
1.36964e-17
1.41128e-17
1.44728e-17
1.47761e-17
1.50232e-17
1.52155e-17
1.53552e-17
1.5445e-17
1.54882e-17
1.09645e-17
1.16007e-17
1.25139e-17
1.36732e-17
1.50521e-17
1.66242e-17
1.83623e-17
2.02374e-17
2.22185e-17
2.42731e-17
2.63683e-17
2.84707e-17
3.05486e-17
3.25717e-17
3.45127e-17
3.63475e-17
3.80556e-17
3.96206e-17
4.10302e-17
4.22759e-17
4.33529e-17
4.42601e-17
4.49991e-17
4.55743e-17
4.59922e-17
4.6261e-17
4.63901e-17
3.2764e-17
3.46693e-17
3.74047e-17
4.08777e-17
4.50081e-17
4.97176e-17
5.49241e-17
6.05404e-17
6.64735e-17
7.26261e-17
7.88988e-17
8.51924e-17
9.14111e-17
9.74647e-17
1.03271e-16
1.08759e-16
1.13866e-16
1.18544e-16
1.22757e-16
1.26479e-16
1.29696e-16
1.32406e-16
1.34612e-16
1.36329e-16
1.37576e-16
1.38378e-16
1.38763e-16
9.7948e-17
1.03651e-16
1.11837e-16
1.22228e-16
1.34584e-16
1.48668e-16
1.64235e-16
1.81021e-16
1.98749e-16
2.17127e-16
2.35857e-16
2.54643e-16
2.73199e-16
2.91258e-16
3.08574e-16
3.24934e-16
3.40157e-16
3.54099e-16
3.6665e-16
3.77737e-16
3.87319e-16
3.95387e-16
4.01958e-16
4.0707e-16
4.10782e-16
4.1317e-16
4.14317e-16
2.92513e-16
3.09538e-16
3.33972e-16
3.64985e-16
4.01853e-16
4.43868e-16
4.90292e-16
5.40337e-16
5.93171e-16
6.47922e-16
7.03703e-16
7.59629e-16
8.1485e-16
8.68568e-16
9.20058e-16
9.68687e-16
1.01392e-15
1.05533e-15
1.09259e-15
1.1255e-15
1.15393e-15
1.17786e-15
1.19734e-15
1.2125e-15
1.2235e-15
1.23057e-15
1.23397e-15
8.72532e-16
9.2326e-16
9.96041e-16
1.08837e-15
1.19809e-15
1.32305e-15
1.46103e-15
1.6097e-15
1.76653e-15
1.92896e-15
2.09432e-15
2.26001e-15
2.42349e-15
2.58243e-15
2.73469e-15
2.8784e-15
3.012e-15
3.13424e-15
3.2442e-15
3.34126e-15
3.42509e-15
3.49562e-15
3.55303e-15
3.59767e-15
3.63007e-15
3.65089e-15
3.6609e-15
2.59477e-15
2.74522e-15
2.96099e-15
3.2346e-15
3.55952e-15
3.92933e-15
4.33739e-15
4.77665e-15
5.23968e-15
5.71876e-15
6.20607e-15
6.69388e-15
7.17478e-15
7.64187e-15
8.08891e-15
8.5105e-15
8.9021e-15
9.26013e-15
9.58194e-15
9.86579e-15
1.01108e-14
1.03168e-14
1.04843e-14
1.06146e-14
1.07091e-14
1.07698e-14
1.07989e-14
7.68767e-15
8.13137e-15
8.76731e-15
9.57302e-15
1.05289e-14
1.16156e-14
1.28133e-14
1.41009e-14
1.54563e-14
1.68568e-14
1.82793e-14
1.97013e-14
2.11012e-14
2.24591e-14
2.3757e-14
2.49795e-14
2.61137e-14
2.71495e-14
2.80796e-14
2.88991e-14
2.96059e-14
3.01997e-14
3.06823e-14
3.10572e-14
3.1329e-14
3.15035e-14
3.15873e-14
2.26416e-14
2.39377e-14
2.57939e-14
2.81429e-14
3.0926e-14
3.40854e-14
3.75617e-14
4.12925e-14
4.52127e-14
4.92558e-14
5.33549e-14
5.74448e-14
6.14638e-14
6.53552e-14
6.90682e-14
7.25595e-14
7.57934e-14
7.87423e-14
8.13863e-14
8.3713e-14
8.57169e-14
8.73986e-14
8.8764e-14
8.98234e-14
9.0591e-14
9.10834e-14
9.13196e-14
6.6168e-14
6.99063e-14
7.52532e-14
8.20094e-14
8.99988e-14
9.90495e-14
1.08985e-13
1.19622e-13
1.30772e-13
1.42242e-13
1.53841e-13
1.65386e-13
1.76701e-13
1.87631e-13
1.98036e-13
2.07799e-13
2.16822e-13
2.25034e-13
2.32383e-13
2.38839e-13
2.44391e-13
2.49043e-13
2.52815e-13
2.55738e-13
2.57854e-13
2.5921e-13
2.5986e-13
1.91352e-13
2.01944e-13
2.17069e-13
2.3614e-13
2.58636e-13
2.84049e-13
3.11864e-13
3.41548e-13
3.72562e-13
4.04361e-13
4.36413e-13
4.6821e-13
4.9928e-13
5.29199e-13
5.57599e-13
5.84169e-13
6.08666e-13
6.30905e-13
6.50762e-13
6.68169e-13
6.83108e-13
6.95604e-13
7.05721e-13
7.1355e-13
7.19208e-13
7.2283e-13
7.24564e-13
5.45899e-13
5.75216e-13
6.16989e-13
6.69517e-13
7.31278e-13
8.00799e-13
8.76597e-13
9.57169e-13
1.04101e-12
1.12662e-12
1.21256e-12
1.29749e-12
1.38016e-12
1.45947e-12
1.5345e-12
1.60447e-12
1.66878e-12
1.72699e-12
1.77883e-12
1.82417e-12
1.86299e-12
1.8954e-12
1.92159e-12
1.94183e-12
1.95643e-12
1.96577e-12
1.97023e-12
1.53028e-12
1.60901e-12
1.72091e-12
1.86114e-12
2.02538e-12
2.20946e-12
2.40924e-12
2.6206e-12
2.83947e-12
3.06191e-12
3.28419e-12
3.50283e-12
3.71475e-12
3.91724e-12
4.10803e-12
4.28531e-12
4.4477e-12
4.59425e-12
4.72437e-12
4.83787e-12
4.93483e-12
5.01559e-12
5.08073e-12
5.13096e-12
5.16716e-12
5.19027e-12
5.20131e-12
4.19633e-12
4.40013e-12
4.68891e-12
5.04941e-12
5.46974e-12
5.93853e-12
6.44467e-12
6.97733e-12
7.526e-12
8.08072e-12
8.63221e-12
9.17206e-12
9.69288e-12
1.01884e-11
1.06533e-11
1.10837e-11
1.14766e-11
1.183e-11
1.21428e-11
1.2415e-11
1.26469e-11
1.28397e-11
1.29948e-11
1.31143e-11
1.32002e-11
1.3255e-11
1.32811e-11
1.12e-11
1.17053e-11
1.24189e-11
1.33062e-11
1.43358e-11
1.54781e-11
1.67048e-11
1.79886e-11
1.93038e-11
2.06264e-11
2.19346e-11
2.32089e-11
2.44326e-11
2.55918e-11
2.66752e-11
2.76743e-11
2.85832e-11
2.93982e-11
3.01177e-11
3.07419e-11
3.12726e-11
3.17128e-11
3.20665e-11
3.23383e-11
3.25336e-11
3.26579e-11
3.27172e-11
2.89512e-11
3.01461e-11
3.18283e-11
3.3911e-11
3.63163e-11
3.89714e-11
4.18076e-11
4.47601e-11
4.77691e-11
5.07796e-11
5.37429e-11
5.66162e-11
5.93636e-11
6.19556e-11
6.43693e-11
6.65876e-11
6.85992e-11
7.03979e-11
7.19818e-11
7.33527e-11
7.45159e-11
7.54789e-11
7.62512e-11
7.68439e-11
7.72692e-11
7.75396e-11
7.76684e-11
7.21748e-11
7.48651e-11
7.86415e-11
8.32994e-11
8.86558e-11
9.45412e-11
1.00798e-10
1.07281e-10
1.13857e-10
1.20407e-10
1.26826e-10
1.33026e-10
1.38932e-10
1.44484e-10
1.49638e-10
1.54361e-10
1.58633e-10
1.62443e-10
1.6579e-10
1.68682e-10
1.71131e-10
1.73156e-10
1.74777e-10
1.76019e-10
1.7691e-10
1.77476e-10
1.77745e-10
1.73076e-10
1.78854e-10
1.86944e-10
1.9689e-10
2.08288e-10
2.20762e-10
2.33972e-10
2.47604e-10
2.61379e-10
2.7505e-10
2.88402e-10
3.01254e-10
3.1346e-10
3.24904e-10
3.35498e-10
3.45183e-10
3.53924e-10
3.61705e-10
3.6853e-10
3.74416e-10
3.79394e-10
3.83503e-10
3.8679e-10
3.89308e-10
3.9111e-10
3.92254e-10
3.92798e-10
3.98979e-10
4.1087e-10
4.27487e-10
4.47867e-10
4.71155e-10
4.96568e-10
5.23397e-10
5.51003e-10
5.78815e-10
6.06339e-10
6.3315e-10
6.58895e-10
6.83289e-10
7.06111e-10
7.27198e-10
7.46441e-10
7.6378e-10
7.79192e-10
7.92692e-10
8.04322e-10
8.14147e-10
8.22249e-10
8.28725e-10
8.3368e-10
8.37225e-10
8.39474e-10
8.40543e-10
8.853e-10
9.08915e-10
9.41867e-10
9.82214e-10
1.02822e-09
1.07833e-09
1.13111e-09
1.18531e-09
1.2398e-09
1.29363e-09
1.34597e-09
1.39614e-09
1.4436e-09
1.48794e-09
1.52886e-09
1.56615e-09
1.59972e-09
1.62953e-09
1.65561e-09
1.67807e-09
1.69702e-09
1.71264e-09
1.72512e-09
1.73467e-09
1.74149e-09
1.74582e-09
1.74788e-09
1.89579e-09
1.9414e-09
2.00499e-09
2.08277e-09
2.17136e-09
2.26773e-09
2.36912e-09
2.4731e-09
2.57754e-09
2.68058e-09
2.78068e-09
2.87655e-09
2.96718e-09
3.05178e-09
3.1298e-09
3.20087e-09
3.26481e-09
3.32156e-09
3.37121e-09
3.41393e-09
3.44998e-09
3.47968e-09
3.5034e-09
3.52154e-09
3.53451e-09
3.54273e-09
3.54663e-09
3.92974e-09
4.01611e-09
4.13649e-09
4.28369e-09
4.45129e-09
4.63353e-09
4.82523e-09
5.02178e-09
5.21917e-09
5.41392e-09
5.6031e-09
5.7843e-09
5.95561e-09
6.11555e-09
6.26308e-09
6.39751e-09
6.51847e-09
6.62587e-09
6.71984e-09
6.80072e-09
6.86899e-09
6.92526e-09
6.9702e-09
7.00457e-09
7.02915e-09
7.04475e-09
7.05215e-09
7.90427e-09
8.06557e-09
8.29045e-09
8.56551e-09
8.87885e-09
9.21978e-09
9.57866e-09
9.94696e-09
1.03172e-08
1.06828e-08
1.10383e-08
1.13793e-08
1.1702e-08
1.20038e-08
1.22824e-08
1.25366e-08
1.27656e-08
1.29691e-08
1.31474e-08
1.33011e-08
1.34309e-08
1.3538e-08
1.36237e-08
1.36892e-08
1.37361e-08
1.37659e-08
1.378e-08
1.54377e-08
1.57347e-08
1.6149e-08
1.66562e-08
1.72347e-08
1.78648e-08
1.8529e-08
1.92118e-08
1.98992e-08
2.05793e-08
2.12419e-08
2.18785e-08
2.24822e-08
2.30476e-08
2.35707e-08
2.40489e-08
2.44804e-08
2.48646e-08
2.52018e-08
2.54928e-08
2.5739e-08
2.59425e-08
2.61053e-08
2.62301e-08
2.63196e-08
2.63764e-08
2.64035e-08
2.92192e-08
2.97526e-08
3.04971e-08
3.14092e-08
3.24504e-08
3.35857e-08
3.47838e-08
3.60168e-08
3.72598e-08
3.84911e-08
3.96924e-08
4.0848e-08
4.19454e-08
4.29745e-08
4.39279e-08
4.48004e-08
4.55887e-08
4.62915e-08
4.69088e-08
4.74422e-08
4.7894e-08
4.82676e-08
4.8567e-08
4.87967e-08
4.89614e-08
4.90661e-08
4.9116e-08
5.33353e-08
5.4252e-08
5.55315e-08
5.70988e-08
5.88874e-08
6.08375e-08
6.28952e-08
6.50121e-08
6.71458e-08
6.92589e-08
7.13199e-08
7.33021e-08
7.51839e-08
7.69481e-08
7.85822e-08
8.00771e-08
8.14276e-08
8.26313e-08
8.36885e-08
8.46017e-08
8.53753e-08
8.60149e-08
8.65275e-08
8.69207e-08
8.72027e-08
8.7382e-08
8.74674e-08
9.32992e-08
9.47794e-08
9.68437e-08
9.93695e-08
1.02248e-07
1.05382e-07
1.08683e-07
1.12073e-07
1.15484e-07
1.18857e-07
1.2214e-07
1.25292e-07
1.2828e-07
1.31076e-07
1.33662e-07
1.36024e-07
1.38156e-07
1.40053e-07
1.41717e-07
1.43153e-07
1.44368e-07
1.45372e-07
1.46176e-07
1.46793e-07
1.47235e-07
1.47516e-07
1.47649e-07
1.55601e-07
1.57829e-07
1.60932e-07
1.64721e-07
1.69031e-07
1.73713e-07
1.78633e-07
1.83674e-07
1.88732e-07
1.93721e-07
1.98567e-07
2.03207e-07
2.07596e-07
2.11694e-07
2.15477e-07
2.18926e-07
2.22033e-07
2.24793e-07
2.27212e-07
2.29296e-07
2.31058e-07
2.32512e-07
2.33675e-07
2.34567e-07
2.35205e-07
2.35611e-07
2.35804e-07
2.46947e-07
2.50083e-07
2.54443e-07
2.5976e-07
2.65795e-07
2.72335e-07
2.79192e-07
2.86201e-07
2.93218e-07
3.00121e-07
3.0681e-07
3.13204e-07
3.19236e-07
3.2486e-07
3.30041e-07
3.34758e-07
3.39e-07
3.42764e-07
3.46058e-07
3.48894e-07
3.51289e-07
3.53264e-07
3.54843e-07
3.56052e-07
3.56917e-07
3.57467e-07
3.57729e-07
3.73591e-07
3.77761e-07
3.83555e-07
3.90609e-07
3.98603e-07
4.07251e-07
4.163e-07
4.25532e-07
4.34757e-07
4.43817e-07
4.52581e-07
4.60943e-07
4.68821e-07
4.76156e-07
4.82905e-07
4.89041e-07
4.94554e-07
4.99443e-07
5.03717e-07
5.07394e-07
5.10498e-07
5.13057e-07
5.15101e-07
5.16666e-07
5.17786e-07
5.18498e-07
5.18836e-07
5.41025e-07
5.46334e-07
5.53703e-07
5.62667e-07
5.72813e-07
5.83776e-07
5.95232e-07
6.06904e-07
6.18553e-07
6.29979e-07
6.41019e-07
6.51541e-07
6.61446e-07
6.70659e-07
6.79129e-07
6.86826e-07
6.93737e-07
6.99862e-07
7.05215e-07
7.09819e-07
7.13703e-07
7.16905e-07
7.19463e-07
7.2142e-07
7.22822e-07
7.23712e-07
7.24135e-07
7.53996e-07
7.60536e-07
7.6961e-07
7.8064e-07
7.93114e-07
8.06581e-07
8.20643e-07
8.34958e-07
8.49233e-07
8.63224e-07
8.76733e-07
8.89601e-07
9.01706e-07
9.1296e-07
9.23302e-07
9.32697e-07
9.41129e-07
9.48601e-07
9.55129e-07
9.60743e-07
9.6548e-07
9.69383e-07
9.72502e-07
9.74889e-07
9.76598e-07
9.77683e-07
9.78199e-07
1.01666e-06
1.02452e-06
1.03543e-06
1.04868e-06
1.06365e-06
1.07981e-06
1.09668e-06
1.11384e-06
1.13094e-06
1.14769e-06
1.16387e-06
1.17926e-06
1.19374e-06
1.2072e-06
1.21956e-06
1.23079e-06
1.24087e-06
1.2498e-06
1.2576e-06
1.2643e-06
1.26996e-06
1.27462e-06
1.27835e-06
1.2812e-06
1.28324e-06
1.28454e-06
1.28516e-06
1.33276e-06
1.34203e-06
1.35489e-06
1.37052e-06
1.38817e-06
1.40721e-06
1.42708e-06
1.44729e-06
1.46742e-06
1.48714e-06
1.50616e-06
1.52427e-06
1.5413e-06
1.55712e-06
1.57165e-06
1.58485e-06
1.59669e-06
1.60718e-06
1.61634e-06
1.62422e-06
1.63087e-06
1.63635e-06
1.64073e-06
1.64408e-06
1.64648e-06
1.648e-06
1.64873e-06
1.7057e-06
1.71648e-06
1.73143e-06
1.74958e-06
1.77009e-06
1.79221e-06
1.81528e-06
1.83873e-06
1.8621e-06
1.88497e-06
1.90704e-06
1.92804e-06
1.94778e-06
1.96612e-06
1.98297e-06
1.99826e-06
2.01199e-06
2.02414e-06
2.03476e-06
2.04389e-06
2.0516e-06
2.05794e-06
2.06302e-06
2.0669e-06
2.06968e-06
2.07144e-06
2.07228e-06
2.13868e-06
2.15106e-06
2.16823e-06
2.18907e-06
2.21261e-06
2.23798e-06
2.26445e-06
2.29135e-06
2.31814e-06
2.34437e-06
2.36966e-06
2.39373e-06
2.41635e-06
2.43736e-06
2.45665e-06
2.47417e-06
2.48989e-06
2.50381e-06
2.51597e-06
2.52642e-06
2.53524e-06
2.54251e-06
2.54831e-06
2.55276e-06
2.55594e-06
2.55796e-06
2.55892e-06
2.63471e-06
2.64878e-06
2.66828e-06
2.69196e-06
2.7187e-06
2.74752e-06
2.77757e-06
2.8081e-06
2.83851e-06
2.86827e-06
2.89696e-06
2.92426e-06
2.94992e-06
2.97374e-06
2.99562e-06
3.01548e-06
3.03329e-06
3.04907e-06
3.06285e-06
3.0747e-06
3.08469e-06
3.09292e-06
3.09951e-06
3.10454e-06
3.10815e-06
3.11044e-06
3.11153e-06
3.19662e-06
3.21247e-06
3.23443e-06
3.26109e-06
3.29118e-06
3.32362e-06
3.35743e-06
3.39179e-06
3.42599e-06
3.45946e-06
3.49172e-06
3.52241e-06
3.55124e-06
3.57802e-06
3.6026e-06
3.62491e-06
3.64492e-06
3.66264e-06
3.67812e-06
3.69143e-06
3.70265e-06
3.7119e-06
3.71929e-06
3.72494e-06
3.72899e-06
3.73156e-06
3.73279e-06
3.82712e-06
3.84482e-06
3.86936e-06
3.89913e-06
3.93274e-06
3.96896e-06
4.0067e-06
4.04505e-06
4.08321e-06
4.12055e-06
4.15654e-06
4.19077e-06
4.22292e-06
4.25278e-06
4.28018e-06
4.30505e-06
4.32735e-06
4.3471e-06
4.36435e-06
4.37917e-06
4.39168e-06
4.40198e-06
4.41021e-06
4.41651e-06
4.42103e-06
4.42389e-06
4.42525e-06
4.52876e-06
4.5484e-06
4.57561e-06
4.60863e-06
4.6459e-06
4.68605e-06
4.72789e-06
4.77039e-06
4.81268e-06
4.85404e-06
4.89391e-06
4.93181e-06
4.96742e-06
5.00047e-06
5.03081e-06
5.05833e-06
5.08302e-06
5.10487e-06
5.12396e-06
5.14036e-06
5.1542e-06
5.16559e-06
5.1747e-06
5.18167e-06
5.18666e-06
5.18983e-06
5.19134e-06
5.30399e-06
5.32563e-06
5.35562e-06
5.39201e-06
5.43307e-06
5.47731e-06
5.52339e-06
5.57019e-06
5.61675e-06
5.66229e-06
5.70617e-06
5.74789e-06
5.78707e-06
5.82343e-06
5.85681e-06
5.88708e-06
5.91423e-06
5.93827e-06
5.95925e-06
5.97729e-06
5.9925e-06
6.00503e-06
6.01504e-06
6.02271e-06
6.02819e-06
6.03167e-06
6.03333e-06
6.15512e-06
6.17884e-06
6.2117e-06
6.25157e-06
6.29656e-06
6.34501e-06
6.39548e-06
6.44672e-06
6.49771e-06
6.54756e-06
6.59558e-06
6.64124e-06
6.6841e-06
6.72389e-06
6.7604e-06
6.79351e-06
6.8232e-06
6.84949e-06
6.87244e-06
6.89216e-06
6.90879e-06
6.92249e-06
6.93343e-06
6.94181e-06
6.9478e-06
6.95161e-06
6.95342e-06
7.08435e-06
7.11022e-06
7.14604e-06
7.1895e-06
7.23853e-06
7.29133e-06
7.34632e-06
7.40215e-06
7.45768e-06
7.51197e-06
7.56427e-06
7.61397e-06
7.66064e-06
7.70395e-06
7.74368e-06
7.77972e-06
7.81203e-06
7.84063e-06
7.8656e-06
7.88705e-06
7.90514e-06
7.92005e-06
7.93195e-06
7.94106e-06
7.94758e-06
7.95172e-06
7.95369e-06
8.09379e-06
8.12186e-06
8.16073e-06
8.20787e-06
8.26106e-06
8.31833e-06
8.37797e-06
8.43851e-06
8.49872e-06
8.55757e-06
8.61426e-06
8.66813e-06
8.7187e-06
8.76562e-06
8.80867e-06
8.84771e-06
8.8827e-06
8.91368e-06
8.94072e-06
8.96395e-06
8.98355e-06
8.99968e-06
9.01257e-06
9.02244e-06
9.0295e-06
9.03398e-06
9.03611e-06
9.18542e-06
9.21574e-06
9.25774e-06
9.30867e-06
9.36613e-06
9.42798e-06
9.49238e-06
9.55775e-06
9.62276e-06
9.68629e-06
9.74747e-06
9.80561e-06
9.86018e-06
9.91081e-06
9.95725e-06
9.99937e-06
1.00371e-05
1.00705e-05
1.00997e-05
1.01248e-05
1.01459e-05
1.01633e-05
1.01772e-05
1.01878e-05
1.01954e-05
1.02003e-05
1.02026e-05
1.03611e-05
1.03938e-05
1.0439e-05
1.04938e-05
1.05556e-05
1.06221e-05
1.06914e-05
1.07617e-05
1.08316e-05
1.09e-05
1.09657e-05
1.10282e-05
1.10869e-05
1.11413e-05
1.11912e-05
1.12365e-05
1.12771e-05
1.1313e-05
1.13443e-05
1.13712e-05
1.13939e-05
1.14126e-05
1.14276e-05
1.1439e-05
1.14472e-05
1.14523e-05
1.14548e-05
1.16227e-05
1.16577e-05
1.17061e-05
1.17649e-05
1.18312e-05
1.19025e-05
1.19768e-05
1.20522e-05
1.21271e-05
1.22003e-05
1.22708e-05
1.23377e-05
1.24006e-05
1.24589e-05
1.25123e-05
1.25608e-05
1.26042e-05
1.26427e-05
1.26762e-05
1.27051e-05
1.27294e-05
1.27494e-05
1.27654e-05
1.27776e-05
1.27863e-05
1.27919e-05
1.27945e-05
1.29718e-05
1.30092e-05
1.3061e-05
1.31238e-05
1.31946e-05
1.32708e-05
1.33502e-05
1.34307e-05
1.35107e-05
1.35889e-05
1.36642e-05
1.37357e-05
1.38028e-05
1.3865e-05
1.39221e-05
1.39739e-05
1.40202e-05
1.40613e-05
1.40971e-05
1.41278e-05
1.41538e-05
1.41751e-05
1.41922e-05
1.42052e-05
1.42146e-05
1.42205e-05
1.42233e-05
1.44099e-05
1.44498e-05
1.4505e-05
1.45719e-05
1.46474e-05
1.47286e-05
1.48131e-05
1.48989e-05
1.49841e-05
1.50674e-05
1.51475e-05
1.52237e-05
1.52951e-05
1.53614e-05
1.54221e-05
1.54772e-05
1.55265e-05
1.55702e-05
1.56083e-05
1.56411e-05
1.56686e-05
1.56914e-05
1.57095e-05
1.57234e-05
1.57333e-05
1.57397e-05
1.57427e-05
1.59387e-05
1.5981e-05
1.60397e-05
1.61108e-05
1.6191e-05
1.62772e-05
1.6367e-05
1.64581e-05
1.65486e-05
1.6637e-05
1.67222e-05
1.6803e-05
1.68788e-05
1.69492e-05
1.70137e-05
1.70721e-05
1.71245e-05
1.71709e-05
1.72113e-05
1.72461e-05
1.72753e-05
1.72995e-05
1.73187e-05
1.73334e-05
1.7344e-05
1.73507e-05
1.73539e-05
1.75593e-05
1.76042e-05
1.76664e-05
1.77417e-05
1.78267e-05
1.79181e-05
1.80132e-05
1.81097e-05
1.82056e-05
1.82993e-05
1.83894e-05
1.8475e-05
1.85553e-05
1.86298e-05
1.86981e-05
1.876e-05
1.88154e-05
1.88645e-05
1.89073e-05
1.89441e-05
1.89751e-05
1.90006e-05
1.9021e-05
1.90366e-05
1.90478e-05
1.90548e-05
1.90582e-05
1.92731e-05
1.93206e-05
1.93863e-05
1.94659e-05
1.95557e-05
1.96524e-05
1.97529e-05
1.98549e-05
1.99562e-05
2.00552e-05
2.01504e-05
2.02409e-05
2.03257e-05
2.04044e-05
2.04765e-05
2.05419e-05
2.06004e-05
2.06523e-05
2.06975e-05
2.07363e-05
2.0769e-05
2.0796e-05
2.08175e-05
2.0834e-05
2.08458e-05
2.08533e-05
2.08568e-05
2.10811e-05
2.11312e-05
2.12005e-05
2.12845e-05
2.13792e-05
2.14811e-05
2.15871e-05
2.16947e-05
2.18015e-05
2.19058e-05
2.20062e-05
2.21016e-05
2.2191e-05
2.22739e-05
2.23499e-05
2.24188e-05
2.24805e-05
2.25351e-05
2.25828e-05
2.26237e-05
2.26582e-05
2.26866e-05
2.27092e-05
2.27266e-05
2.2739e-05
2.27469e-05
2.27506e-05
2.29844e-05
2.30371e-05
2.311e-05
2.31984e-05
2.32981e-05
2.34053e-05
2.35168e-05
2.363e-05
2.37423e-05
2.38521e-05
2.39577e-05
2.4058e-05
2.4152e-05
2.42392e-05
2.43192e-05
2.43916e-05
2.44565e-05
2.45139e-05
2.4564e-05
2.4607e-05
2.46433e-05
2.46731e-05
2.4697e-05
2.47152e-05
2.47283e-05
2.47366e-05
2.47405e-05
2.49836e-05
2.50389e-05
2.51155e-05
2.52084e-05
2.53131e-05
2.54256e-05
2.55428e-05
2.56615e-05
2.57795e-05
2.58947e-05
2.60056e-05
2.61108e-05
2.62096e-05
2.63011e-05
2.6385e-05
2.6461e-05
2.65291e-05
2.65893e-05
2.66419e-05
2.6687e-05
2.67251e-05
2.67564e-05
2.67814e-05
2.68005e-05
2.68142e-05
2.68229e-05
2.6827e-05
2.70794e-05
2.71374e-05
2.72177e-05
2.7315e-05
2.74247e-05
2.75427e-05
2.76654e-05
2.77899e-05
2.79135e-05
2.80342e-05
2.81503e-05
2.82606e-05
2.8364e-05
2.84599e-05
2.85477e-05
2.86274e-05
2.86987e-05
2.87618e-05
2.88168e-05
2.88641e-05
2.89039e-05
2.89367e-05
2.89629e-05
2.89829e-05
2.89972e-05
2.90063e-05
2.90107e-05
2.92722e-05
2.93329e-05
2.94168e-05
2.95186e-05
2.96334e-05
2.97568e-05
2.98851e-05
3.00153e-05
3.01446e-05
3.02708e-05
3.03922e-05
3.05075e-05
3.06156e-05
3.07158e-05
3.08077e-05
3.08909e-05
3.09654e-05
3.10314e-05
3.10889e-05
3.11383e-05
3.11799e-05
3.12142e-05
3.12416e-05
3.12625e-05
3.12775e-05
3.1287e-05
3.12915e-05
3.1562e-05
3.16253e-05
3.1713e-05
3.18193e-05
3.19391e-05
3.20679e-05
3.22019e-05
3.23378e-05
3.24727e-05
3.26044e-05
3.27312e-05
3.28515e-05
3.29643e-05
3.30689e-05
3.31647e-05
3.32515e-05
3.33293e-05
3.33981e-05
3.34581e-05
3.35096e-05
3.35531e-05
3.35888e-05
3.36174e-05
3.36392e-05
3.36548e-05
3.36647e-05
3.36695e-05
3.39486e-05
3.40146e-05
3.4106e-05
3.42168e-05
3.43416e-05
3.44759e-05
3.46155e-05
3.4757e-05
3.48976e-05
3.50348e-05
3.51668e-05
3.52921e-05
3.54096e-05
3.55185e-05
3.56183e-05
3.57087e-05
3.57897e-05
3.58614e-05
3.59238e-05
3.59775e-05
3.60227e-05
3.60599e-05
3.60897e-05
3.61124e-05
3.61287e-05
3.6139e-05
3.61439e-05
3.64314e-05
3.65001e-05
3.65952e-05
3.67104e-05
3.68402e-05
3.69798e-05
3.7125e-05
3.72722e-05
3.74183e-05
3.7561e-05
3.76983e-05
3.78285e-05
3.79507e-05
3.80639e-05
3.81676e-05
3.82616e-05
3.83458e-05
3.84202e-05
3.84852e-05
3.85409e-05
3.85879e-05
3.86266e-05
3.86575e-05
3.86811e-05
3.8698e-05
3.87087e-05
3.87138e-05
3.90093e-05
3.90806e-05
3.91793e-05
3.92989e-05
3.94337e-05
3.95786e-05
3.97293e-05
3.9882e-05
4.00337e-05
4.01818e-05
4.03242e-05
4.04594e-05
4.05861e-05
4.07035e-05
4.08111e-05
4.09086e-05
4.09959e-05
4.10732e-05
4.11405e-05
4.11983e-05
4.12471e-05
4.12872e-05
4.13192e-05
4.13437e-05
4.13613e-05
4.13724e-05
4.13777e-05
4.16806e-05
4.17545e-05
4.18567e-05
4.19806e-05
4.21202e-05
4.22703e-05
4.24264e-05
4.25846e-05
4.27417e-05
4.2895e-05
4.30425e-05
4.31825e-05
4.33137e-05
4.34353e-05
4.35467e-05
4.36476e-05
4.3738e-05
4.38179e-05
4.38876e-05
4.39475e-05
4.39979e-05
4.40395e-05
4.40726e-05
4.4098e-05
4.41161e-05
4.41276e-05
4.41331e-05
4.44428e-05
4.45191e-05
4.46249e-05
4.47529e-05
4.48972e-05
4.50524e-05
4.52137e-05
4.53772e-05
4.55396e-05
4.5698e-05
4.58504e-05
4.5995e-05
4.61306e-05
4.62562e-05
4.63713e-05
4.64755e-05
4.65689e-05
4.66514e-05
4.67235e-05
4.67853e-05
4.68374e-05
4.68802e-05
4.69145e-05
4.69407e-05
4.69594e-05
4.69713e-05
4.69769e-05
4.72925e-05
4.73713e-05
4.74803e-05
4.76124e-05
4.77613e-05
4.79213e-05
4.80876e-05
4.82562e-05
4.84236e-05
4.8587e-05
4.87441e-05
4.88931e-05
4.90328e-05
4.91623e-05
4.92809e-05
4.93884e-05
4.94846e-05
4.95696e-05
4.96438e-05
4.97075e-05
4.97612e-05
4.98053e-05
4.98406e-05
4.98676e-05
4.98869e-05
4.98991e-05
4.9905e-05
5.02253e-05
5.03064e-05
5.04186e-05
5.05545e-05
5.07076e-05
5.08722e-05
5.10434e-05
5.12168e-05
5.13889e-05
5.15569e-05
5.17184e-05
5.18717e-05
5.20153e-05
5.21484e-05
5.22703e-05
5.23808e-05
5.24797e-05
5.25671e-05
5.26433e-05
5.27088e-05
5.27639e-05
5.28093e-05
5.28456e-05
5.28733e-05
5.28931e-05
5.29057e-05
5.29117e-05
5.32356e-05
5.33188e-05
5.34339e-05
5.35733e-05
5.37304e-05
5.38993e-05
5.40748e-05
5.42526e-05
5.44292e-05
5.46014e-05
5.47671e-05
5.49242e-05
5.50714e-05
5.52079e-05
5.53328e-05
5.5446e-05
5.55473e-05
5.56369e-05
5.57151e-05
5.57821e-05
5.58386e-05
5.58851e-05
5.59223e-05
5.59507e-05
5.5971e-05
5.59839e-05
5.599e-05
5.63158e-05
5.64009e-05
5.65187e-05
5.66613e-05
5.6822e-05
5.69946e-05
5.71741e-05
5.73559e-05
5.75364e-05
5.77125e-05
5.78818e-05
5.80423e-05
5.81928e-05
5.83322e-05
5.84598e-05
5.85755e-05
5.8679e-05
5.87705e-05
5.88503e-05
5.89188e-05
5.89765e-05
5.9024e-05
5.90619e-05
5.90909e-05
5.91116e-05
5.91248e-05
5.91311e-05
5.94569e-05
5.95436e-05
5.96636e-05
5.9809e-05
5.99727e-05
6.01487e-05
6.03315e-05
6.05167e-05
6.07006e-05
6.08799e-05
6.10523e-05
6.12158e-05
6.13689e-05
6.15108e-05
6.16408e-05
6.17585e-05
6.18638e-05
6.19569e-05
6.20381e-05
6.21078e-05
6.21665e-05
6.22148e-05
6.22534e-05
6.22829e-05
6.2304e-05
6.23174e-05
6.23237e-05
6.26472e-05
6.27353e-05
6.28572e-05
6.30047e-05
6.31709e-05
6.33494e-05
6.35349e-05
6.37228e-05
6.39093e-05
6.40912e-05
6.4266e-05
6.44317e-05
6.4587e-05
6.47308e-05
6.48626e-05
6.49818e-05
6.50886e-05
6.51829e-05
6.52652e-05
6.53357e-05
6.53952e-05
6.54441e-05
6.54832e-05
6.55131e-05
6.55344e-05
6.5548e-05
6.55544e-05
6.5873e-05
6.5962e-05
6.60851e-05
6.62341e-05
6.6402e-05
6.65823e-05
6.67696e-05
6.69593e-05
6.71475e-05
6.73311e-05
6.75075e-05
6.76747e-05
6.78314e-05
6.79764e-05
6.81092e-05
6.82295e-05
6.83371e-05
6.84322e-05
6.85151e-05
6.85863e-05
6.86462e-05
6.86955e-05
6.87349e-05
6.8765e-05
6.87865e-05
6.88002e-05
6.88067e-05
6.91171e-05
6.92065e-05
6.93302e-05
6.948e-05
6.96486e-05
6.98297e-05
7.00178e-05
7.02082e-05
7.03971e-05
7.05813e-05
7.07583e-05
7.0926e-05
7.10832e-05
7.12286e-05
7.13618e-05
7.14823e-05
7.15902e-05
7.16855e-05
7.17686e-05
7.18399e-05
7.18999e-05
7.19493e-05
7.19887e-05
7.20189e-05
7.20404e-05
7.20541e-05
7.20606e-05
7.23595e-05
7.24488e-05
7.25722e-05
7.27217e-05
7.289e-05
7.30706e-05
7.32583e-05
7.34482e-05
7.36366e-05
7.38202e-05
7.39965e-05
7.41637e-05
7.43202e-05
7.44651e-05
7.45976e-05
7.47177e-05
7.4825e-05
7.49199e-05
7.50025e-05
7.50735e-05
7.51332e-05
7.51823e-05
7.52215e-05
7.52515e-05
7.52729e-05
7.52865e-05
7.5293e-05
7.55764e-05
7.56649e-05
7.57873e-05
7.59353e-05
7.61019e-05
7.62808e-05
7.64665e-05
7.66545e-05
7.68408e-05
7.70224e-05
7.71967e-05
7.7362e-05
7.75166e-05
7.76597e-05
7.77907e-05
7.79092e-05
7.80152e-05
7.81088e-05
7.81904e-05
7.82603e-05
7.83193e-05
7.83677e-05
7.84064e-05
7.8436e-05
7.84571e-05
7.84705e-05
7.84769e-05
7.87408e-05
7.88277e-05
7.89478e-05
7.90931e-05
7.92567e-05
7.94322e-05
7.96143e-05
7.97986e-05
7.99812e-05
8.01591e-05
8.03299e-05
8.04916e-05
8.0643e-05
8.0783e-05
8.09111e-05
8.1027e-05
8.11306e-05
8.12221e-05
8.13019e-05
8.13702e-05
8.14278e-05
8.14752e-05
8.15129e-05
8.15418e-05
8.15624e-05
8.15755e-05
8.15818e-05
8.1822e-05
8.19064e-05
8.20231e-05
8.21642e-05
8.23229e-05
8.24933e-05
8.267e-05
8.28486e-05
8.30257e-05
8.3198e-05
8.33634e-05
8.352e-05
8.36665e-05
8.3802e-05
8.39259e-05
8.40379e-05
8.41381e-05
8.42265e-05
8.43035e-05
8.43696e-05
8.44252e-05
8.44709e-05
8.45073e-05
8.45352e-05
8.45551e-05
8.45677e-05
8.45737e-05
8.47863e-05
8.48672e-05
8.49792e-05
8.51145e-05
8.52667e-05
8.54298e-05
8.55991e-05
8.57701e-05
8.59395e-05
8.61043e-05
8.62624e-05
8.6412e-05
8.65519e-05
8.66812e-05
8.67994e-05
8.69063e-05
8.70017e-05
8.7086e-05
8.71594e-05
8.72223e-05
8.72752e-05
8.73187e-05
8.73534e-05
8.73799e-05
8.73989e-05
8.74109e-05
8.74166e-05
8.7598e-05
8.76746e-05
8.77803e-05
8.79082e-05
8.80518e-05
8.82058e-05
8.83654e-05
8.85266e-05
8.86861e-05
8.88413e-05
8.899e-05
8.91307e-05
8.92622e-05
8.93836e-05
8.94946e-05
8.95949e-05
8.96844e-05
8.97634e-05
8.98322e-05
8.98911e-05
8.99407e-05
8.99815e-05
9.00139e-05
9.00387e-05
9.00565e-05
9.00677e-05
9.00731e-05
9.02208e-05
9.02919e-05
9.03901e-05
9.05087e-05
9.06419e-05
9.07846e-05
9.09324e-05
9.10816e-05
9.12291e-05
9.13725e-05
9.15098e-05
9.16396e-05
9.17609e-05
9.18728e-05
9.1975e-05
9.20673e-05
9.21497e-05
9.22223e-05
9.22855e-05
9.23397e-05
9.23852e-05
9.24226e-05
9.24524e-05
9.24752e-05
9.24914e-05
9.25017e-05
9.25066e-05
9.26198e-05
9.26844e-05
9.27736e-05
9.28813e-05
9.30022e-05
9.31316e-05
9.32656e-05
9.34006e-05
9.35341e-05
9.36637e-05
9.37877e-05
9.39048e-05
9.40141e-05
9.4115e-05
9.4207e-05
9.429e-05
9.4364e-05
9.44293e-05
9.44861e-05
9.45346e-05
9.45755e-05
9.4609e-05
9.46357e-05
9.46561e-05
9.46707e-05
9.46799e-05
9.46843e-05
9.47636e-05
9.48209e-05
9.49e-05
9.49954e-05
9.51024e-05
9.52168e-05
9.5335e-05
9.54542e-05
9.55718e-05
9.56859e-05
9.5795e-05
9.58979e-05
9.59939e-05
9.60823e-05
9.61629e-05
9.62355e-05
9.63003e-05
9.63573e-05
9.64069e-05
9.64493e-05
9.64849e-05
9.65142e-05
9.65374e-05
9.65552e-05
9.65679e-05
9.65759e-05
9.65797e-05
9.66281e-05
9.66774e-05
9.67455e-05
9.68275e-05
9.69193e-05
9.70174e-05
9.71188e-05
9.72207e-05
9.73212e-05
9.74186e-05
9.75116e-05
9.75992e-05
9.76807e-05
9.77558e-05
9.78242e-05
9.78857e-05
9.79405e-05
9.79888e-05
9.80307e-05
9.80665e-05
9.80965e-05
9.81211e-05
9.81408e-05
9.81557e-05
9.81664e-05
9.81732e-05
9.81764e-05
9.81989e-05
9.82399e-05
9.82964e-05
9.83644e-05
9.84405e-05
9.85217e-05
9.86054e-05
9.86895e-05
9.87723e-05
9.88524e-05
9.89287e-05
9.90005e-05
9.90673e-05
9.91286e-05
9.91844e-05
9.92346e-05
9.92792e-05
9.93185e-05
9.93525e-05
9.93815e-05
9.94059e-05
9.94259e-05
9.94417e-05
9.94538e-05
9.94625e-05
9.94679e-05
9.94705e-05
9.9474e-05
9.95066e-05
9.95516e-05
9.96057e-05
9.96662e-05
9.97305e-05
9.97968e-05
9.98632e-05
9.99285e-05
9.99915e-05
0.000100051
0.000100108
0.00010016
0.000100208
0.000100251
0.00010029
0.000100325
0.000100356
0.000100382
0.000100404
0.000100423
0.000100439
0.000100451
0.00010046
0.000100467
0.000100471
0.000100473
0.000100465
0.00010049
0.000100524
0.000100565
0.000100611
0.000100659
0.000100709
0.000100759
0.000100808
0.000100855
0.000100899
0.000100941
0.00010098
0.000101015
0.000101047
0.000101076
0.000101102