/*--------------------------------*- C++ -*----------------------------------*\
| =========                 |                                                 |
| \\      /  F ield         | OpenFOAM: The Open Source CFD Toolbox           |
|  \\    /   O peration     | Version:  2106                                  |
|   \\  /    A nd           | Website:  www.openfoam.com                      |
|    \\/     M anipulation  |                                                 |
\*---------------------------------------------------------------------------*/
FoamFile
{
    version     2.0;
    format      ascii;
    arch        "LSB;label=32;scalar=64";
    class       volScalarField;
    location    "150.00049";
    object      A1C2H_0;
}
// * * * * * * * * * * * * * * * * * * * * * * * * * * * * * * * * * * * * * //

dimensions      [0 0 0 0 0 0 0];

internalField   nonuniform List<scalar> 
3360
(
4.49256e-20
4.63713e-20
4.83833e-20
5.08442e-20
5.36517e-20
5.67135e-20
5.99465e-20
6.32756e-20
6.6634e-20
6.99626e-20
7.32102e-20
7.63335e-20
7.92965e-20
8.20707e-20
8.46344e-20
8.69724e-20
8.90753e-20
9.09392e-20
9.25648e-20
9.3957e-20
9.5124e-20
9.60772e-20
9.68301e-20
9.7398e-20
9.77975e-20
9.80461e-20
9.81615e-20
1.97077e-19
2.04321e-19
2.14544e-19
2.27274e-19
2.42122e-19
2.58748e-19
2.76849e-19
2.96145e-19
3.16378e-19
3.37304e-19
3.58687e-19
3.803e-19
4.01917e-19
4.23316e-19
4.44279e-19
4.64589e-19
4.84038e-19
5.02419e-19
5.19539e-19
5.35214e-19
5.49275e-19
5.61574e-19
5.71984e-19
5.80402e-19
5.86756e-19
5.90999e-19
5.93114e-19
6.18378e-19
6.45518e-19
6.84084e-19
7.32544e-19
7.89629e-19
8.54199e-19
9.25167e-19
1.00147e-18
1.08201e-18
1.1657e-18
1.25141e-18
1.338e-18
1.42439e-18
1.50945e-18
1.59215e-18
1.67146e-18
1.74646e-18
1.81632e-18
1.8803e-18
1.93782e-18
1.98839e-18
2.0317e-18
2.06755e-18
2.09588e-18
2.11678e-18
2.1304e-18
2.13703e-18
1.80093e-18
1.89038e-18
2.01835e-18
2.18025e-18
2.37225e-18
2.59078e-18
2.83225e-18
3.09294e-18
3.36896e-18
3.65622e-18
3.95048e-18
4.24743e-18
4.54281e-18
4.83245e-18
5.1124e-18
5.37902e-18
5.62912e-18
5.85994e-18
6.06931e-18
6.25556e-18
6.41761e-18
6.5549e-18
6.66733e-18
6.75528e-18
6.81945e-18
6.86089e-18
6.88088e-18
5.26176e-18
5.54396e-18
5.94842e-18
6.46133e-18
7.07096e-18
7.76603e-18
8.53497e-18
9.3655e-18
1.02445e-17
1.11583e-17
1.20925e-17
1.30327e-17
1.39649e-17
1.48756e-17
1.57523e-17
1.65838e-17
1.73606e-17
1.80745e-17
1.87195e-17
1.92912e-17
1.97868e-17
2.02053e-17
2.0547e-17
2.08135e-17
2.10075e-17
2.11325e-17
2.11926e-17
1.55142e-17
1.63808e-17
1.76245e-17
1.92029e-17
2.10801e-17
2.3221e-17
2.55894e-17
2.81469e-17
3.08521e-17
3.36618e-17
3.65313e-17
3.94158e-17
4.22713e-17
4.50564e-17
4.77329e-17
5.02669e-17
5.26296e-17
5.47973e-17
5.67522e-17
5.84818e-17
5.99788e-17
6.12408e-17
6.22697e-17
6.3071e-17
6.36535e-17
6.40284e-17
6.42086e-17
4.60856e-17
4.8719e-17
5.24979e-17
5.72944e-17
6.29982e-17
6.95017e-17
7.66934e-17
8.44544e-17
9.26581e-17
1.01172e-16
1.09858e-16
1.18582e-16
1.27209e-16
1.35616e-16
1.43687e-16
1.51322e-16
1.58434e-16
1.64956e-16
1.70832e-16
1.76029e-16
1.80525e-16
1.84313e-16
1.87401e-16
1.89805e-16
1.91552e-16
1.92676e-16
1.93216e-16
1.3735e-16
1.45273e-16
1.5665e-16
1.71095e-16
1.88276e-16
2.0787e-16
2.29538e-16
2.52921e-16
2.77633e-16
3.03272e-16
3.29424e-16
3.55679e-16
3.81635e-16
4.06915e-16
4.31177e-16
4.54117e-16
4.75478e-16
4.95053e-16
5.12688e-16
5.28273e-16
5.41751e-16
5.53103e-16
5.62351e-16
5.69549e-16
5.74779e-16
5.78142e-16
5.79758e-16
4.10426e-16
4.34239e-16
4.68422e-16
5.1182e-16
5.63432e-16
6.22279e-16
6.87342e-16
7.5753e-16
8.31687e-16
9.08598e-16
9.87022e-16
1.06572e-15
1.1435e-15
1.21923e-15
1.29189e-15
1.36057e-15
1.42451e-15
1.48309e-15
1.53585e-15
1.58248e-15
1.6228e-15
1.65675e-15
1.68442e-15
1.70595e-15
1.72159e-15
1.73165e-15
1.73648e-15
1.22643e-15
1.29775e-15
1.40014e-15
1.53014e-15
1.68475e-15
1.86104e-15
2.05593e-15
2.26616e-15
2.48825e-15
2.71856e-15
2.95336e-15
3.18894e-15
3.42172e-15
3.64832e-15
3.86567e-15
4.07108e-15
4.26226e-15
4.43738e-15
4.59507e-15
4.73439e-15
4.85482e-15
4.95623e-15
5.03883e-15
5.1031e-15
5.14978e-15
5.17979e-15
5.19421e-15
3.66641e-15
3.87989e-15
4.18631e-15
4.57528e-15
5.03778e-15
5.56499e-15
6.14768e-15
6.77603e-15
7.43962e-15
8.12753e-15
8.82863e-15
9.53184e-15
1.02265e-14
1.09024e-14
1.15506e-14
1.2163e-14
1.27328e-14
1.32547e-14
1.37245e-14
1.41395e-14
1.44982e-14
1.48002e-14
1.50462e-14
1.52375e-14
1.53765e-14
1.54659e-14
1.55088e-14
1.09494e-14
1.15867e-14
1.25013e-14
1.36622e-14
1.50423e-14
1.6615e-14
1.83527e-14
2.0226e-14
2.22037e-14
2.42532e-14
2.63411e-14
2.84346e-14
3.05016e-14
3.25124e-14
3.44398e-14
3.62601e-14
3.79532e-14
3.95032e-14
4.08981e-14
4.21299e-14
4.31942e-14
4.409e-14
4.48192e-14
4.53865e-14
4.57984e-14
4.60631e-14
4.61903e-14
3.26608e-14
3.45597e-14
3.7284e-14
4.07403e-14
4.4847e-14
4.95245e-14
5.46897e-14
6.02544e-14
6.61253e-14
7.22051e-14
7.8395e-14
8.4597e-14
9.07168e-14
9.66662e-14
1.02365e-13
1.07745e-13
1.12746e-13
1.17322e-13
1.21438e-13
1.25071e-13
1.28209e-13
1.30849e-13
1.32998e-13
1.34669e-13
1.35881e-13
1.36661e-13
1.37035e-13
9.71281e-14
1.0276e-13
1.10837e-13
1.21078e-13
1.33241e-13
1.47083e-13
1.62358e-13
1.788e-13
1.96133e-13
2.14066e-13
2.32307e-13
2.50567e-13
2.68568e-13
2.86052e-13
3.02786e-13
3.18567e-13
3.33225e-13
3.46627e-13
3.58673e-13
3.69298e-13
3.78469e-13
3.8618e-13
3.92452e-13
3.97327e-13
4.00864e-13
4.03136e-13
4.04227e-13
2.87766e-13
3.04375e-13
3.28179e-13
3.58339e-13
3.94119e-13
4.34798e-13
4.79629e-13
5.27827e-13
5.78563e-13
6.30986e-13
6.84234e-13
7.37463e-13
7.89866e-13
8.40694e-13
8.89278e-13
9.35038e-13
9.77494e-13
1.01627e-12
1.05108e-12
1.08176e-12
1.10821e-12
1.13044e-12
1.14851e-12
1.16254e-12
1.17271e-12
1.17925e-12
1.18238e-12
8.47524e-13
8.9604e-13
9.65519e-13
1.05345e-12
1.15763e-12
1.27589e-12
1.40602e-12
1.54567e-12
1.69241e-12
1.84375e-12
1.99719e-12
2.15028e-12
2.30073e-12
2.44639e-12
2.58537e-12
2.71606e-12
2.83711e-12
2.9475e-12
3.04647e-12
3.13356e-12
3.20857e-12
3.27152e-12
3.32263e-12
3.36229e-12
3.39102e-12
3.40945e-12
3.41829e-12
2.4768e-12
2.61674e-12
2.81688e-12
3.06978e-12
3.36884e-12
3.70763e-12
4.07954e-12
4.47772e-12
4.89508e-12
5.32443e-12
5.75861e-12
6.19074e-12
6.61432e-12
7.02345e-12
7.41294e-12
7.77835e-12
8.11612e-12
8.42351e-12
8.69861e-12
8.94028e-12
9.14809e-12
9.32222e-12
9.46342e-12
9.57285e-12
9.65205e-12
9.70281e-12
9.72712e-12
7.16265e-12
7.55912e-12
8.12529e-12
8.83916e-12
9.68125e-12
1.06325e-11
1.16737e-11
1.27848e-11
1.39457e-11
1.51361e-11
1.63358e-11
1.75261e-11
1.86891e-11
1.98091e-11
2.08721e-11
2.18667e-11
2.27837e-11
2.36161e-11
2.43594e-11
2.5011e-11
2.55702e-11
2.6038e-11
2.64167e-11
2.67097e-11
2.69215e-11
2.70571e-11
2.7122e-11
2.04338e-11
2.15312e-11
2.30948e-11
2.50611e-11
2.73729e-11
2.99753e-11
3.28126e-11
3.58286e-11
3.89668e-11
4.21714e-11
4.53885e-11
4.85675e-11
5.1662e-11
5.46311e-11
5.74395e-11
6.00586e-11
6.24658e-11
6.46449e-11
6.65856e-11
6.82827e-11
6.9736e-11
7.09491e-11
7.19295e-11
7.26869e-11
7.32335e-11
7.3583e-11
7.37501e-11
5.72793e-11
6.02264e-11
6.44149e-11
6.96641e-11
7.5812e-11
8.27025e-11
9.01807e-11
9.80925e-11
1.06286e-10
1.14612e-10
1.22932e-10
1.31117e-10
1.3905e-10
1.4663e-10
1.53772e-10
1.60408e-10
1.66486e-10
1.71972e-10
1.76843e-10
1.81092e-10
1.84721e-10
1.87744e-10
1.90183e-10
1.92063e-10
1.93418e-10
1.94283e-10
1.94696e-10
1.57065e-10
1.64694e-10
1.75503e-10
1.88997e-10
2.04731e-10
2.22279e-10
2.41225e-10
2.61164e-10
2.81702e-10
3.02467e-10
3.23111e-10
3.43319e-10
3.62816e-10
3.81363e-10
3.98769e-10
4.1488e-10
4.29586e-10
4.42815e-10
4.54527e-10
4.64715e-10
4.73397e-10
4.80613e-10
4.86421e-10
4.90893e-10
4.9411e-10
4.96162e-10
4.9714e-10
4.19175e-10
4.38089e-10
4.64802e-10
4.98013e-10
5.36551e-10
5.79309e-10
6.25224e-10
6.7328e-10
7.22511e-10
7.7202e-10
8.20989e-10
8.68692e-10
9.145e-10
9.57893e-10
9.98449e-10
1.03585e-09
1.06987e-09
1.10038e-09
1.12732e-09
1.15069e-09
1.17056e-09
1.18704e-09
1.20027e-09
1.21045e-09
1.21776e-09
1.22242e-09
1.22463e-09
1.08342e-09
1.12814e-09
1.19109e-09
1.26904e-09
1.35907e-09
1.45844e-09
1.56459e-09
1.6751e-09
1.78772e-09
1.9004e-09
2.01131e-09
2.11886e-09
2.2217e-09
2.31872e-09
2.40906e-09
2.49209e-09
2.56739e-09
2.63472e-09
2.69401e-09
2.74533e-09
2.78887e-09
2.82492e-09
2.85383e-09
2.87601e-09
2.89193e-09
2.90206e-09
2.90688e-09
2.70044e-09
2.8011e-09
2.94239e-09
3.11667e-09
3.31708e-09
3.53728e-09
3.77139e-09
4.01394e-09
4.25998e-09
4.50505e-09
4.74524e-09
4.97721e-09
5.19818e-09
5.40593e-09
5.59876e-09
5.77546e-09
5.93528e-09
6.07783e-09
6.20307e-09
6.31127e-09
6.4029e-09
6.47864e-09
6.5393e-09
6.5858e-09
6.61912e-09
6.64029e-09
6.65036e-09
6.47374e-09
6.68976e-09
6.99221e-09
7.36408e-09
7.79017e-09
8.25652e-09
8.75034e-09
9.25996e-09
9.7749e-09
1.02859e-08
1.0785e-08
1.12654e-08
1.17216e-08
1.21493e-08
1.25453e-08
1.29072e-08
1.32339e-08
1.35247e-08
1.37798e-08
1.39997e-08
1.41858e-08
1.43393e-08
1.44622e-08
1.45563e-08
1.46236e-08
1.46664e-08
1.46867e-08
1.49154e-08
1.53593e-08
1.59795e-08
1.67401e-08
1.76092e-08
1.85575e-08
1.95586e-08
2.05886e-08
2.16262e-08
2.26529e-08
2.3653e-08
2.46132e-08
2.55229e-08
2.6374e-08
2.71603e-08
2.78778e-08
2.85242e-08
2.90989e-08
2.96021e-08
3.00357e-08
3.04019e-08
3.07039e-08
3.09453e-08
3.113e-08
3.12622e-08
3.1346e-08
3.13858e-08
3.30668e-08
3.39453e-08
3.51711e-08
3.66718e-08
3.83827e-08
4.02457e-08
4.22078e-08
4.4222e-08
4.62469e-08
4.82464e-08
5.01902e-08
5.20533e-08
5.38155e-08
5.54614e-08
5.69801e-08
5.83641e-08
5.96096e-08
6.07156e-08
6.16833e-08
6.25163e-08
6.32194e-08
6.37989e-08
6.42617e-08
6.46157e-08
6.48688e-08
6.50294e-08
6.51056e-08
7.07161e-08
7.24029e-08
7.47542e-08
7.7629e-08
8.09024e-08
8.44614e-08
8.82045e-08
9.20416e-08
9.58938e-08
9.96929e-08
1.03382e-07
1.06914e-07
1.10251e-07
1.13365e-07
1.16236e-07
1.18851e-07
1.21202e-07
1.23289e-07
1.25114e-07
1.26684e-07
1.28008e-07
1.29099e-07
1.29971e-07
1.30637e-07
1.31113e-07
1.31415e-07
1.31559e-07
1.46348e-07
1.49512e-07
1.5392e-07
1.59306e-07
1.65434e-07
1.72092e-07
1.79088e-07
1.86255e-07
1.93445e-07
2.00532e-07
2.07409e-07
2.1399e-07
2.20205e-07
2.26003e-07
2.31346e-07
2.3621e-07
2.40583e-07
2.44462e-07
2.47855e-07
2.50773e-07
2.53234e-07
2.55262e-07
2.56881e-07
2.58119e-07
2.59003e-07
2.59564e-07
2.59831e-07
2.9395e-07
2.9978e-07
3.07901e-07
3.17821e-07
3.29104e-07
3.4136e-07
3.54237e-07
3.67425e-07
3.80654e-07
3.9369e-07
4.0634e-07
4.18444e-07
4.29876e-07
4.40539e-07
4.50365e-07
4.59312e-07
4.67355e-07
4.74492e-07
4.80732e-07
4.861e-07
4.90629e-07
4.94359e-07
4.97338e-07
4.99615e-07
5.01243e-07
5.02275e-07
5.02765e-07
5.73821e-07
5.84396e-07
5.99125e-07
6.17121e-07
6.37593e-07
6.59832e-07
6.83204e-07
7.07147e-07
7.31171e-07
7.54853e-07
7.77842e-07
7.99845e-07
8.20634e-07
8.40033e-07
8.57916e-07
8.74203e-07
8.88851e-07
9.01851e-07
9.13222e-07
9.23006e-07
9.31262e-07
9.38064e-07
9.43496e-07
9.4765e-07
9.5062e-07
9.52503e-07
9.53397e-07
1.08729e-06
1.1061e-06
1.1323e-06
1.16431e-06
1.20075e-06
1.24035e-06
1.28198e-06
1.32466e-06
1.36751e-06
1.40977e-06
1.45082e-06
1.49013e-06
1.5273e-06
1.56201e-06
1.59402e-06
1.62319e-06
1.64944e-06
1.67275e-06
1.69315e-06
1.71071e-06
1.72553e-06
1.73775e-06
1.74751e-06
1.75497e-06
1.76031e-06
1.7637e-06
1.7653e-06
1.99118e-06
2.02357e-06
2.06871e-06
2.12388e-06
2.18668e-06
2.25494e-06
2.32674e-06
2.40035e-06
2.47429e-06
2.54724e-06
2.61814e-06
2.68607e-06
2.75033e-06
2.81035e-06
2.86575e-06
2.91625e-06
2.96172e-06
3.00212e-06
3.03748e-06
3.06793e-06
3.09365e-06
3.11486e-06
3.1318e-06
3.14476e-06
3.15404e-06
3.15992e-06
3.16271e-06
3.50164e-06
3.55476e-06
3.62876e-06
3.71918e-06
3.82207e-06
3.93386e-06
4.0514e-06
4.17186e-06
4.2928e-06
4.4121e-06
4.52799e-06
4.639e-06
4.74398e-06
4.84201e-06
4.93247e-06
5.01493e-06
5.08915e-06
5.15507e-06
5.21278e-06
5.26248e-06
5.30444e-06
5.33904e-06
5.36668e-06
5.38783e-06
5.40296e-06
5.41256e-06
5.41712e-06
5.877e-06
5.95874e-06
6.07253e-06
6.21143e-06
6.36929e-06
6.54061e-06
6.7205e-06
6.90461e-06
7.08919e-06
7.27103e-06
7.44744e-06
7.61621e-06
7.77561e-06
7.92432e-06
8.06138e-06
8.18621e-06
8.29848e-06
8.39813e-06
8.4853e-06
8.56033e-06
8.62365e-06
8.67584e-06
8.71754e-06
8.74943e-06
8.77224e-06
8.78671e-06
8.79358e-06
9.37907e-06
9.49635e-06
9.65942e-06
9.85819e-06
1.00837e-05
1.03281e-05
1.05842e-05
1.08457e-05
1.11075e-05
1.13649e-05
1.16141e-05
1.18522e-05
1.20766e-05
1.22857e-05
1.24782e-05
1.26533e-05
1.28106e-05
1.29501e-05
1.3072e-05
1.31769e-05
1.32654e-05
1.33383e-05
1.33965e-05
1.3441e-05
1.34729e-05
1.34931e-05
1.35027e-05
1.42257e-05
1.4383e-05
1.46015e-05
1.48675e-05
1.51687e-05
1.54945e-05
1.58352e-05
1.61827e-05
1.65297e-05
1.68703e-05
1.71995e-05
1.75134e-05
1.7809e-05
1.8084e-05
1.83369e-05
1.85666e-05
1.87728e-05
1.89556e-05
1.91152e-05
1.92525e-05
1.93682e-05
1.94635e-05
1.95397e-05
1.95979e-05
1.96395e-05
1.96659e-05
1.96785e-05
2.05564e-05
2.07555e-05
2.10317e-05
2.13674e-05
2.17472e-05
2.21573e-05
2.25856e-05
2.30217e-05
2.34564e-05
2.38826e-05
2.4294e-05
2.46857e-05
2.50542e-05
2.53966e-05
2.57112e-05
2.59968e-05
2.6253e-05
2.648e-05
2.66781e-05
2.68484e-05
2.6992e-05
2.71103e-05
2.72047e-05
2.7277e-05
2.73286e-05
2.73614e-05
2.7377e-05
2.8423e-05
2.86632e-05
2.89962e-05
2.94007e-05
2.98579e-05
3.03509e-05
3.08651e-05
3.13881e-05
3.1909e-05
3.2419e-05
3.29108e-05
3.33788e-05
3.38186e-05
3.42271e-05
3.46021e-05
3.49424e-05
3.52475e-05
3.55177e-05
3.57536e-05
3.59563e-05
3.61272e-05
3.62679e-05
3.63803e-05
3.64662e-05
3.65277e-05
3.65668e-05
3.65853e-05
3.78014e-05
3.80807e-05
3.84677e-05
3.89375e-05
3.9468e-05
4.00397e-05
4.06356e-05
4.1241e-05
4.18436e-05
4.24331e-05
4.30013e-05
4.35416e-05
4.40491e-05
4.45202e-05
4.49525e-05
4.53446e-05
4.56962e-05
4.60075e-05
4.62792e-05
4.65126e-05
4.67094e-05
4.68714e-05
4.70009e-05
4.70999e-05
4.71707e-05
4.72157e-05
4.72371e-05
4.86131e-05
4.89286e-05
4.93658e-05
4.98961e-05
5.04946e-05
5.11393e-05
5.18108e-05
5.24927e-05
5.3171e-05
5.38343e-05
5.44733e-05
5.50807e-05
5.56509e-05
5.61801e-05
5.66655e-05
5.71058e-05
5.75005e-05
5.78498e-05
5.81546e-05
5.84166e-05
5.86374e-05
5.88192e-05
5.89645e-05
5.90756e-05
5.91551e-05
5.92056e-05
5.92296e-05
6.0747e-05
6.10956e-05
6.15784e-05
6.21639e-05
6.28245e-05
6.35357e-05
6.42763e-05
6.50279e-05
6.57754e-05
6.6506e-05
6.72095e-05
6.7878e-05
6.85054e-05
6.90875e-05
6.96214e-05
7.01056e-05
7.05395e-05
7.09234e-05
7.12585e-05
7.15464e-05
7.17891e-05
7.1989e-05
7.21486e-05
7.22707e-05
7.23581e-05
7.24136e-05
7.244e-05
7.40762e-05
7.44545e-05
7.49785e-05
7.56138e-05
7.63304e-05
7.71016e-05
7.79044e-05
7.87189e-05
7.95286e-05
8.03198e-05
8.10815e-05
8.1805e-05
8.2484e-05
8.31137e-05
8.36911e-05
8.42147e-05
8.46839e-05
8.5099e-05
8.54613e-05
8.57725e-05
8.60348e-05
8.62509e-05
8.64234e-05
8.65554e-05
8.66499e-05
8.67098e-05
8.67384e-05
8.84703e-05
8.88753e-05
8.94361e-05
9.01159e-05
9.08825e-05
9.17073e-05
9.25656e-05
9.34362e-05
9.43015e-05
9.51467e-05
9.59602e-05
9.67328e-05
9.74576e-05
9.81297e-05
9.8746e-05
9.93046e-05
9.98051e-05
0.000100248
0.000100634
0.000100966
0.000101246
0.000101476
0.00010166
0.000101801
0.000101902
0.000101966
0.000101996
0.000103803
0.000104232
0.000104825
0.000105545
0.000106355
0.000107228
0.000108135
0.000109055
0.00010997
0.000110863
0.000111722
0.000112538
0.000113304
0.000114013
0.000114664
0.000115253
0.000115781
0.000116249
0.000116656
0.000117007
0.000117302
0.000117545
0.000117739
0.000117887
0.000117994
0.000118061
0.000118093
0.000119957
0.000120406
0.000121029
0.000121783
0.000122632
0.000123546
0.000124497
0.000125461
0.000126419
0.000127354
0.000128254
0.000129108
0.000129908
0.000130651
0.000131331
0.000131948
0.000132501
0.000132989
0.000133416
0.000133782
0.00013409
0.000134344
0.000134547
0.000134702
0.000134814
0.000134884
0.000134918
0.000136824
0.000137291
0.000137939
0.000138723
0.000139607
0.000140558
0.000141547
0.000142549
0.000143544
0.000144516
0.000145451
0.000146338
0.00014717
0.000147941
0.000148648
0.000149288
0.000149862
0.000150369
0.000150811
0.000151191
0.000151512
0.000151775
0.000151986
0.000152147
0.000152262
0.000152336
0.00015237
0.000154307
0.000154791
0.00015546
0.000156271
0.000157185
0.000158167
0.000159189
0.000160224
0.000161253
0.000162256
0.000163222
0.000164138
0.000164997
0.000165793
0.000166522
0.000167183
0.000167775
0.000168298
0.000168755
0.000169147
0.000169477
0.000169749
0.000169966
0.000170132
0.000170251
0.000170327
0.000170363
0.000172321
0.000172819
0.000173507
0.000174341
0.00017528
0.000176291
0.000177341
0.000178405
0.000179462
0.000180493
0.000181485
0.000182426
0.000183308
0.000184125
0.000184874
0.000185553
0.00018616
0.000186698
0.000187166
0.000187569
0.000187908
0.000188187
0.00018841
0.00018858
0.000188702
0.00018878
0.000188817
0.00019079
0.000191299
0.000192004
0.000192858
0.000193819
0.000194853
0.000195928
0.000197017
0.000198098
0.000199153
0.000200168
0.00020113
0.000202032
0.000202868
0.000203634
0.000204328
0.000204949
0.000205498
0.000205977
0.000206388
0.000206735
0.00020702
0.000207248
0.000207422
0.000207547
0.000207626
0.000207664
0.000209646
0.000210166
0.000210885
0.000211755
0.000212736
0.000213791
0.000214886
0.000215997
0.000217099
0.000218174
0.000219208
0.000220189
0.000221108
0.00022196
0.00022274
0.000223446
0.000224079
0.000224639
0.000225127
0.000225545
0.000225898
0.000226189
0.000226421
0.000226598
0.000226725
0.000226806
0.000226844
0.000228831
0.00022936
0.000230091
0.000230976
0.000231973
0.000233045
0.000234159
0.000235287
0.000236407
0.0002375
0.00023855
0.000239547
0.00024048
0.000241345
0.000242138
0.000242855
0.000243498
0.000244066
0.000244561
0.000244987
0.000245345
0.00024564
0.000245876
0.000246056
0.000246185
0.000246267
0.000246305
0.000248294
0.00024883
0.000249571
0.000250469
0.00025148
0.000252566
0.000253695
0.000254839
0.000255974
0.000257081
0.000258146
0.000259155
0.000260101
0.000260978
0.00026178
0.000262507
0.000263158
0.000263734
0.000264235
0.000264666
0.000265029
0.000265328
0.000265566
0.000265749
0.000265879
0.000265962
0.000266002
0.000267989
0.000268531
0.000269281
0.000270189
0.000271212
0.00027231
0.000273452
0.000274609
0.000275756
0.000276876
0.000277952
0.000278973
0.000279929
0.000280815
0.000281626
0.000282361
0.000283019
0.0002836
0.000284107
0.000284543
0.00028491
0.000285211
0.000285452
0.000285637
0.000285769
0.000285852
0.000285892
0.000287877
0.000288424
0.000289181
0.000290097
0.00029113
0.000292239
0.000293391
0.000294558
0.000295717
0.000296846
0.000297932
0.000298962
0.000299927
0.000300821
0.000301639
0.00030238
0.000303044
0.00030363
0.000304142
0.000304581
0.000304951
0.000305255
0.000305498
0.000305684
0.000305817
0.000305902
0.000305942
0.000307921
0.000308473
0.000309236
0.000310159
0.000311199
0.000312317
0.000313478
0.000314654
0.000315821
0.000316959
0.000318053
0.00031909
0.000320062
0.000320962
0.000321786
0.000322533
0.000323201
0.000323791
0.000324306
0.000324749
0.000325121
0.000325428
0.000325672
0.000325859
0.000325993
0.000326078
0.000326119
0.000328092
0.000328647
0.000329414
0.000330344
0.00033139
0.000332514
0.000333682
0.000334865
0.000336039
0.000337184
0.000338284
0.000339327
0.000340305
0.00034121
0.000342039
0.00034279
0.000343462
0.000344055
0.000344573
0.000345018
0.000345392
0.0003457
0.000345946
0.000346135
0.000346269
0.000346355
0.000346395
0.000348361
0.000348918
0.000349689
0.000350623
0.000351675
0.000352804
0.000353978
0.000355166
0.000356345
0.000357495
0.0003586
0.000359648
0.00036063
0.000361539
0.000362372
0.000363126
0.0003638
0.000364397
0.000364917
0.000365363
0.000365739
0.000366049
0.000366296
0.000366485
0.00036662
0.000366706
0.000366747
0.000368702
0.000369262
0.000370036
0.000370973
0.000372028
0.000373162
0.00037434
0.000375532
0.000376715
0.000377869
0.000378978
0.000380029
0.000381014
0.000381926
0.000382761
0.000383518
0.000384194
0.000384793
0.000385314
0.000385762
0.000386139
0.00038645
0.000386697
0.000386887
0.000387022
0.000387108
0.000387149
0.000389095
0.000389656
0.000390432
0.000391371
0.000392429
0.000393565
0.000394746
0.000395941
0.000397127
0.000398283
0.000399395
0.000400448
0.000401435
0.000402349
0.000403186
0.000403944
0.000404622
0.000405222
0.000405744
0.000406193
0.000406571
0.000406882
0.00040713
0.00040732
0.000407456
0.000407542
0.000407583
0.000409517
0.000410078
0.000410855
0.000411796
0.000412856
0.000413994
0.000415176
0.000416373
0.00041756
0.000418718
0.000419831
0.000420886
0.000421874
0.000422789
0.000423627
0.000424385
0.000425064
0.000425664
0.000426187
0.000426636
0.000427015
0.000427326
0.000427575
0.000427765
0.000427901
0.000427987
0.000428028
0.000429948
0.00043051
0.000431288
0.000432229
0.000433289
0.000434427
0.00043561
0.000436807
0.000437995
0.000439154
0.000440267
0.000441322
0.00044231
0.000443225
0.000444063
0.000444822
0.000445501
0.000446101
0.000446625
0.000447074
0.000447452
0.000447763
0.000448012
0.000448202
0.000448338
0.000448424
0.000448465
0.00045037
0.000450932
0.00045171
0.000452651
0.00045371
0.000454848
0.00045603
0.000457227
0.000458414
0.000459572
0.000460684
0.000461739
0.000462726
0.000463641
0.000464478
0.000465237
0.000465915
0.000466515
0.000467038
0.000467486
0.000467864
0.000468175
0.000468424
0.000468613
0.000468749
0.000468836
0.000468877
0.000470765
0.000471326
0.000472103
0.000473042
0.0004741
0.000475237
0.000476417
0.000477612
0.000478798
0.000479954
0.000481064
0.000482117
0.000483103
0.000484017
0.000484853
0.00048561
0.000486287
0.000486886
0.000487408
0.000487855
0.000488233
0.000488543
0.000488791
0.000488981
0.000489116
0.000489202
0.000489243
0.000491113
0.000491673
0.000492448
0.000493385
0.000494441
0.000495575
0.000496752
0.000497945
0.000499128
0.000500281
0.000501389
0.000502439
0.000503423
0.000504333
0.000505167
0.000505922
0.000506598
0.000507195
0.000507715
0.000508162
0.000508538
0.000508848
0.000509095
0.000509284
0.00050942
0.000509505
0.000509546
0.000511395
0.000511953
0.000512725
0.00051366
0.000514712
0.000515842
0.000517016
0.000518204
0.000519383
0.000520532
0.000521636
0.000522683
0.000523663
0.000524571
0.000525402
0.000526154
0.000526827
0.000527422
0.000527941
0.000528386
0.000528761
0.000529069
0.000529315
0.000529504
0.000529638
0.000529724
0.000529765
0.000531589
0.000532145
0.000532914
0.000533844
0.000534892
0.000536017
0.000537186
0.000538369
0.000539543
0.000540687
0.000541786
0.000542828
0.000543803
0.000544707
0.000545534
0.000546283
0.000546953
0.000547545
0.000548061
0.000548504
0.000548877
0.000549184
0.000549429
0.000549616
0.00054975
0.000549836
0.000549876
0.000551673
0.000552226
0.00055299
0.000553916
0.000554958
0.000556077
0.000557239
0.000558415
0.000559582
0.00056072
0.000561813
0.000562848
0.000563818
0.000564717
0.000565539
0.000566283
0.000566949
0.000567538
0.000568051
0.000568491
0.000568862
0.000569167
0.000569411
0.000569597
0.00056973
0.000569815
0.000569855
0.00057162
0.000572169
0.000572928
0.000573848
0.000574882
0.000575994
0.000577148
0.000578316
0.000579475
0.000580604
0.000581689
0.000582717
0.000583681
0.000584572
0.000585388
0.000586127
0.000586788
0.000587372
0.000587882
0.000588319
0.000588687
0.00058899
0.000589231
0.000589416
0.000589548
0.000589632
0.000589672
0.0005914
0.000591945
0.000592698
0.000593609
0.000594636
0.000595737
0.000596882
0.00059804
0.000599188
0.000600308
0.000601384
0.000602403
0.000603358
0.000604241
0.00060505
0.000605782
0.000606437
0.000607016
0.000607521
0.000607954
0.000608319
0.000608619
0.000608858
0.000609041
0.000609172
0.000609256
0.000609295
0.00061098
0.000611519
0.000612265
0.000613167
0.000614182
0.000615273
0.000616405
0.000617551
0.000618688
0.000619796
0.00062086
0.000621868
0.000622812
0.000623686
0.000624486
0.00062521
0.000625858
0.000626431
0.00062693
0.000627358
0.000627719
0.000628016
0.000628252
0.000628433
0.000628563
0.000628645
0.000628684
0.00063032
0.000630852
0.000631588
0.000632479
0.000633482
0.000634559
0.000635677
0.000636809
0.00063793
0.000639024
0.000640074
0.000641069
0.000642001
0.000642864
0.000643653
0.000644368
0.000645007
0.000645572
0.000646064
0.000646487
0.000646843
0.000647135
0.000647369
0.000647548
0.000647675
0.000647757
0.000647795
0.000649373
0.000649897
0.000650622
0.0006515
0.000652488
0.000653548
0.000654649
0.000655763
0.000656868
0.000657944
0.000658978
0.000659958
0.000660875
0.000661724
0.0006625
0.000663204
0.000663832
0.000664388
0.000664873
0.000665288
0.000665638
0.000665926
0.000666156
0.000666332
0.000666457
0.000666537
0.000666575
0.000668086
0.000668601
0.000669313
0.000670174
0.000671144
0.000672185
0.000673266
0.000674359
0.000675443
0.000676499
0.000677513
0.000678475
0.000679374
0.000680207
0.000680969
0.000681658
0.000682275
0.00068282
0.000683295
0.000683702
0.000684045
0.000684327
0.000684553
0.000684725
0.000684848
0.000684926
0.000684963
0.000686397
0.000686901
0.000687597
0.00068844
0.000689388
0.000690406
0.000691463
0.000692532
0.000693591
0.000694624
0.000695615
0.000696554
0.000697433
0.000698246
0.00069899
0.000699664
0.000700266
0.000700798
0.000701262
0.00070166
0.000701995
0.00070227
0.00070249
0.000702658
0.000702779
0.000702855
0.000702891
0.000704236
0.000704726
0.000705405
0.000706225
0.000707149
0.000708139
0.000709168
0.000710208
0.000711239
0.000712243
0.000713207
0.00071412
0.000714975
0.000715766
0.000716489
0.000717144
0.000717729
0.000718246
0.000718697
0.000719083
0.000719409
0.000719677
0.00071989
0.000720054
0.00072017
0.000720245
0.00072028
0.000721523
0.000721999
0.000722656
0.00072345
0.000724344
0.000725303
0.000726299
0.000727305
0.000728303
0.000729274
0.000730207
0.00073109
0.000731916
0.000732681
0.00073338
0.000734012
0.000734578
0.000735078
0.000735513
0.000735886
0.000736201
0.000736459
0.000736666
0.000736823
0.000736936
0.000737008
0.000737042
0.000738172
0.000738629
0.000739261
0.000740026
0.000740886
0.000741809
0.000742766
0.000743734
0.000744692
0.000745626
0.000746522
0.00074737
0.000748164
0.000748898
0.000749569
0.000750176
0.000750719
0.000751198
0.000751616
0.000751974
0.000752276
0.000752524
0.000752722
0.000752873
0.000752981
0.00075305
0.000753082
0.000754087
0.000754523
0.000755127
0.000755857
0.000756678
0.000757559
0.000758472
0.000759396
0.00076031
0.0007612
0.000762054
0.000762863
0.000763619
0.000764318
0.000764957
0.000765535
0.000766052
0.000766508
0.000766906
0.000767247
0.000767534
0.00076777
0.000767958
0.000768102
0.000768205
0.00076827
0.000768301
0.000769168
0.000769582
0.000770153
0.000770844
0.000771621
0.000772454
0.000773318
0.000774191
0.000775055
0.000775896
0.000776703
0.000777466
0.00077818
0.000778839
0.000779443
0.000779988
0.000780475
0.000780905
0.00078128
0.000781601
0.000781872
0.000782094
0.000782272
0.000782407
0.000782504
0.000782566
0.000782595
0.000783316
0.000783704
0.00078424
0.000784887
0.000785614
0.000786394
0.000787202
0.000788019
0.000788827
0.000789613
0.000790367
0.00079108
0.000791747
0.000792362
0.000792925
0.000793434
0.000793889
0.00079429
0.00079464
0.000794939
0.000795191
0.000795398
0.000795564
0.00079569
0.00079578
0.000795838
0.000795865
0.000796435
0.000796794
0.00079729
0.000797889
0.000798563
0.000799284
0.000800031
0.000800786
0.000801533
0.000802259
0.000802954
0.000803612
0.000804227
0.000804795
0.000805314
0.000805783
0.000806202
0.000806571
0.000806893
0.000807169
0.000807401
0.000807592
0.000807744
0.00080786
0.000807943
0.000807996
0.000808021
0.00080844
0.000808768
0.000809221
0.000809768
0.000810383
0.000811041
0.000811723
0.000812411
0.000813091
0.000813753
0.000814386
0.000814985
0.000815544
0.000816061
0.000816533
0.000816959
0.000817339
0.000817675
0.000817967
0.000818217
0.000818428
0.000818601
0.000818739
0.000818844
0.00081892
0.000818968
0.00081899
0.000819263
0.000819558
0.000819966
0.000820459
0.000821011
0.000821603
0.000822216
0.000822834
0.000823445
0.000824038
0.000824606
0.000825143
0.000825644
0.000826107
0.000826529
0.00082691
0.000827251
0.000827551
0.000827812
0.000828036
0.000828224
0.000828378
0.000828502
0.000828596
0.000828663
0.000828706
0.000828726
0.000828864
0.000829126
0.000829487
0.000829923
0.000830413
0.000830936
0.000831478
0.000832024
0.000832563
0.000833087
0.000833588
0.000834062
0.000834503
0.000834911
0.000835282
0.000835618
0.000835917
0.000836181
0.000836411
0.000836608
0.000836773
0.000836909
0.000837017
0.0008371
0.000837159
0.000837196
0.000837214
0.000837235
0.000837463
0.000837778
0.000838158
0.000838583
0.000839039
0.00083951
0.000839984
0.000840452
0.000840907
0.000841341
0.000841752
0.000842134
0.000842487
0.000842808
0.000843099
0.000843358
0.000843586
0.000843784
0.000843954
0.000844097
0.000844214
0.000844308
0.000844379
0.00084443
0.000844462
0.000844478
0.000844405
0.0008446
0.00084487
0.000845194
0.000845558
0.000845948
0.00084635
0.000846755
0.000847155
0.000847542
0.000847913
0.000848262
0.000848588
0.000848888
0.000849162
0.000849408
0.000849628
0.000849822
0.000849991
0.000850135
0.000850256
0.000850356
0.000850435
0.000850496
0.000850539
0.000850566
0.000850579
0.000850437
0.000850601
0.000850828
0.000851102
0.000851408
0.000851735
0.000852073
0.000852413
0.000852748
0.000853074
0.000853384
0.000853677
0.00085395
0.000854201
0.00085443
0.000854636
0.00085482
0.000854982
0.000855123
0.000855244
0.000855345
0.000855428
0.000855494
0.000855545
0.000855581
0.000855604
0.000855615
0.000855427
0.000855563
0.000855751
0.000855977
0.000856231
0.000856502
0.000856781
0.000857063
0.00085734
0.000857608
0.000857865
0.000858106
0.000858332
0.000858539
0.000858728
0.000858898
0.000859049
0.000859183
0.000859299
0.000859398
0.000859481
0.00085955
0.000859604
0.000859646
0.000859675
0.000859694
0.000859703
0.000859491
0.000859602
0.000859755
0.00085994
0.000860147
0.000860368
0.000860596
0.000860826
0.000861052
0.00086127
0.000861479
0.000861676
0.000861859
0.000862027
0.000862181
0.000862319
0.000862442
0.000862551
0.000862645
0.000862726
0.000862793
0.000862849
0.000862893
0.000862927
0.000862951
0.000862966
0.000862973
0.000862755
0.000862845
0.000862969
0.000863118
0.000863285
0.000863463
0.000863647
0.000863831
0.000864013
0.000864189
0.000864357
0.000864515
0.000864663
0.000864798
0.000864921
0.000865033