/*--------------------------------*- C++ -*----------------------------------*\
| =========                 |                                                 |
| \\      /  F ield         | OpenFOAM: The Open Source CFD Toolbox           |
|  \\    /   O peration     | Version:  2106                                  |
|   \\  /    A nd           | Website:  www.openfoam.com                      |
|    \\/     M anipulation  |                                                 |
\*---------------------------------------------------------------------------*/
FoamFile
{
    version     2.0;
    format      ascii;
    arch        "LSB;label=32;scalar=64";
    class       volScalarField;
    location    "150.00049";
    object      A2CH3-2_0;
}
// * * * * * * * * * * * * * * * * * * * * * * * * * * * * * * * * * * * * * //

dimensions      [0 0 0 0 0 0 0];

internalField   nonuniform List<scalar> 
3360
(
2.56691e-19
2.64951e-19
2.76447e-19
2.90508e-19
3.06549e-19
3.24043e-19
3.42516e-19
3.61537e-19
3.80726e-19
3.99744e-19
4.183e-19
4.36145e-19
4.53075e-19
4.68926e-19
4.83575e-19
4.96933e-19
5.08949e-19
5.19598e-19
5.28886e-19
5.36841e-19
5.43509e-19
5.48955e-19
5.53257e-19
5.56502e-19
5.58785e-19
5.60205e-19
5.60864e-19
1.12604e-18
1.16743e-18
1.22584e-18
1.29857e-18
1.38341e-18
1.47841e-18
1.58183e-18
1.69208e-18
1.80769e-18
1.92725e-18
2.04943e-18
2.17292e-18
2.29643e-18
2.4187e-18
2.53847e-18
2.65452e-18
2.76564e-18
2.87067e-18
2.96849e-18
3.05805e-18
3.13839e-18
3.20866e-18
3.26814e-18
3.31624e-18
3.35254e-18
3.37678e-18
3.38887e-18
3.53322e-18
3.68829e-18
3.90864e-18
4.18553e-18
4.5117e-18
4.88063e-18
5.28612e-18
5.72206e-18
6.18228e-18
6.66046e-18
7.15014e-18
7.64494e-18
8.13849e-18
8.62454e-18
9.09703e-18
9.55021e-18
9.97875e-18
1.03779e-17
1.07435e-17
1.10721e-17
1.1361e-17
1.16085e-17
1.18133e-17
1.19752e-17
1.20946e-17
1.21724e-17
1.22103e-17
1.029e-17
1.08011e-17
1.15322e-17
1.24572e-17
1.35543e-17
1.48029e-17
1.61826e-17
1.76721e-17
1.92492e-17
2.08905e-17
2.25718e-17
2.42685e-17
2.59562e-17
2.76111e-17
2.92106e-17
3.07341e-17
3.2163e-17
3.34819e-17
3.46781e-17
3.57423e-17
3.66682e-17
3.74526e-17
3.80951e-17
3.85975e-17
3.89642e-17
3.9201e-17
3.93152e-17
3.0064e-17
3.16765e-17
3.39874e-17
3.6918e-17
4.04012e-17
4.43727e-17
4.87662e-17
5.35116e-17
5.85341e-17
6.37549e-17
6.90926e-17
7.44649e-17
7.97912e-17
8.49946e-17
9.00038e-17
9.47549e-17
9.91928e-17
1.03272e-16
1.06957e-16
1.10224e-16
1.13056e-16
1.15447e-16
1.17399e-16
1.18922e-16
1.2003e-16
1.20745e-16
1.21088e-16
8.86433e-17
9.35949e-17
1.00701e-16
1.0972e-16
1.20445e-16
1.32678e-16
1.4621e-16
1.60822e-16
1.76279e-16
1.92333e-16
2.08729e-16
2.25209e-16
2.41525e-16
2.57438e-16
2.72731e-16
2.8721e-16
3.00709e-16
3.13095e-16
3.24264e-16
3.34147e-16
3.427e-16
3.49911e-16
3.55789e-16
3.60368e-16
3.63697e-16
3.65838e-16
3.66868e-16
2.63319e-16
2.78365e-16
2.99957e-16
3.27362e-16
3.59952e-16
3.97111e-16
4.38202e-16
4.82546e-16
5.2942e-16
5.78063e-16
6.27696e-16
6.77539e-16
7.26834e-16
7.74866e-16
8.20983e-16
8.64606e-16
9.05245e-16
9.42505e-16
9.76084e-16
1.00578e-15
1.03146e-15
1.05311e-15
1.07075e-15
1.08449e-15
1.09447e-15
1.10089e-15
1.10398e-15
7.84773e-16
8.30048e-16
8.95049e-16
9.77582e-16
1.07575e-15
1.18771e-15
1.31151e-15
1.44511e-15
1.58631e-15
1.7328e-15
1.88223e-15
2.03224e-15
2.18054e-15
2.32499e-15
2.46361e-15
2.59468e-15
2.71673e-15
2.82858e-15
2.92934e-15
3.01839e-15
3.09539e-15
3.16026e-15
3.2131e-15
3.25423e-15
3.28411e-15
3.30332e-15
3.31256e-15
2.34504e-15
2.48111e-15
2.67642e-15
2.92438e-15
3.21927e-15
3.55551e-15
3.92726e-15
4.32829e-15
4.752e-15
5.19144e-15
5.63954e-15
6.08921e-15
6.53361e-15
6.96632e-15
7.38145e-15
7.77386e-15
8.13918e-15
8.4739e-15
8.77537e-15
9.04179e-15
9.27215e-15
9.46618e-15
9.62424e-15
9.74726e-15
9.83663e-15
9.89411e-15
9.92173e-15
7.00744e-15
7.41493e-15
7.99996e-15
8.74275e-15
9.62616e-15
1.06334e-14
1.1747e-14
1.29481e-14
1.42171e-14
1.5533e-14
1.68746e-14
1.82206e-14
1.95506e-14
2.08454e-14
2.20872e-14
2.32609e-14
2.43532e-14
2.53538e-14
2.62548e-14
2.70508e-14
2.77389e-14
2.83184e-14
2.87903e-14
2.91575e-14
2.94242e-14
2.95957e-14
2.96781e-14
2.09487e-14
2.21685e-14
2.39193e-14
2.61417e-14
2.87843e-14
3.17966e-14
3.51259e-14
3.87161e-14
4.25077e-14
4.64382e-14
5.04441e-14
5.4462e-14
5.84308e-14
6.2293e-14
6.59966e-14
6.94956e-14
7.27515e-14
7.57332e-14
7.84176e-14
8.07888e-14
8.28383e-14
8.45639e-14
8.59691e-14
8.70624e-14
8.78565e-14
8.83671e-14
8.86124e-14
6.25616e-14
6.62027e-14
7.14287e-14
7.80615e-14
8.59468e-14
9.49328e-14
1.04862e-13
1.15565e-13
1.26865e-13
1.38575e-13
1.50505e-13
1.62466e-13
1.74277e-13
1.85766e-13
1.96778e-13
2.07179e-13
2.16853e-13
2.25709e-13
2.33679e-13
2.40717e-13
2.46798e-13
2.51916e-13
2.56083e-13
2.59324e-13
2.61678e-13
2.6319e-13
2.63917e-13
1.86614e-13
1.97463e-13
2.13029e-13
2.32777e-13
2.56242e-13
2.82968e-13
3.1248e-13
3.44275e-13
3.77819e-13
4.12558e-13
4.47925e-13
4.83361e-13
5.18327e-13
5.52321e-13
5.84884e-13
6.1562e-13
6.44194e-13
6.70339e-13
6.93857e-13
7.14616e-13
7.32545e-13
7.4763e-13
7.59907e-13
7.69454e-13
7.76385e-13
7.80839e-13
7.82978e-13
5.5496e-13
5.87137e-13
6.33286e-13
6.91804e-13
7.61295e-13
8.40389e-13
9.27663e-13
1.02161e-12
1.12064e-12
1.22311e-12
1.32733e-12
1.43166e-12
1.53451e-12
1.63441e-12
1.73002e-12
1.82019e-12
1.90395e-12
1.98052e-12
2.04935e-12
2.11006e-12
2.16245e-12
2.20651e-12
2.24235e-12
2.2702e-12
2.29041e-12
2.30339e-12
2.30963e-12
1.64421e-12
1.7391e-12
1.87512e-12
2.04744e-12
2.25187e-12
2.4843e-12
2.74046e-12
3.01584e-12
3.30573e-12
3.60526e-12
3.90951e-12
4.21364e-12
4.51305e-12
4.80347e-12
5.08106e-12
5.34252e-12
5.5851e-12
5.80663e-12
6.00555e-12
6.18083e-12
6.33199e-12
6.45898e-12
6.56221e-12
6.64238e-12
6.70052e-12
6.73785e-12
6.75576e-12
4.8425e-12
5.1197e-12
5.51669e-12
6.01909e-12
6.61433e-12
7.29005e-12
8.03355e-12
8.83147e-12
9.66992e-12
1.05346e-11
1.14113e-11
1.22861e-11
1.31456e-11
1.39779e-11
1.4772e-11
1.55187e-11
1.62104e-11
1.68411e-11
1.74066e-11
1.79042e-11
1.83328e-11
1.86925e-11
1.89845e-11
1.92111e-11
1.93752e-11
1.94806e-11
1.95311e-11
1.41517e-11
1.49513e-11
1.60949e-11
1.75398e-11
1.92486e-11
2.11843e-11
2.33093e-11
2.55844e-11
2.7969e-11
3.04222e-11
3.2903e-11
3.5372e-11
3.77922e-11
4.01299e-11
4.23553e-11
4.44431e-11
4.6373e-11
4.81294e-11
4.97012e-11
5.1082e-11
5.22693e-11
5.32643e-11
5.40711e-11
5.46963e-11
5.51488e-11
5.54388e-11
5.55778e-11
4.09255e-11
4.31909e-11
4.64258e-11
5.05046e-11
5.5316e-11
6.07513e-11
6.67001e-11
7.3049e-11
7.9682e-11
8.6483e-11
9.33382e-11
1.00139e-10
1.06784e-10
1.13183e-10
1.19257e-10
1.2494e-10
1.30179e-10
1.34935e-10
1.39182e-10
1.42905e-10
1.461e-10
1.48773e-10
1.50937e-10
1.52611e-10
1.53821e-10
1.54596e-10
1.54967e-10
1.16755e-10
1.23025e-10
1.31959e-10
1.43193e-10
1.56403e-10
1.71272e-10
1.87483e-10
2.04715e-10
2.22646e-10
2.40956e-10
2.59338e-10
2.77501e-10
2.95182e-10
3.12146e-10
3.28193e-10
3.43157e-10
3.56911e-10
3.69362e-10
3.8045e-10
3.90147e-10
3.9845e-10
4.05382e-10
4.10983e-10
4.15311e-10
4.18434e-10
4.20431e-10
4.21385e-10
3.27288e-10
3.44127e-10
3.68059e-10
3.98051e-10
4.33179e-10
4.72549e-10
5.15277e-10
5.60482e-10
6.07294e-10
6.54869e-10
7.02408e-10
7.49172e-10
7.94496e-10
8.37803e-10
8.7861e-10
9.16526e-10
9.51257e-10
9.82599e-10
1.01043e-09
1.03471e-09
1.05544e-09
1.07272e-09
1.08665e-09
1.09739e-09
1.10513e-09
1.11008e-09
1.11244e-09
8.97484e-10
9.41072e-10
1.00284e-09
1.07994e-09
1.16984e-09
1.2701e-09
1.37835e-09
1.49228e-09
1.60963e-09
1.72827e-09
1.84622e-09
1.96168e-09
2.07307e-09
2.17905e-09
2.27849e-09
2.37054e-09
2.45456e-09
2.53014e-09
2.59706e-09
2.65527e-09
2.70487e-09
2.7461e-09
2.77928e-09
2.80483e-09
2.82321e-09
2.83493e-09
2.84052e-09
2.39534e-09
2.50342e-09
2.65606e-09
2.84583e-09
3.06603e-09
3.31034e-09
3.5727e-09
3.84728e-09
4.12858e-09
4.41146e-09
4.69125e-09
4.96381e-09
5.22554e-09
5.47346e-09
5.70517e-09
5.91887e-09
6.11325e-09
6.28756e-09
6.44145e-09
6.57496e-09
6.68848e-09
6.78263e-09
6.85826e-09
6.9164e-09
6.95817e-09
6.98476e-09
6.99743e-09
6.19164e-09
6.4472e-09
6.80698e-09
7.25243e-09
7.76689e-09
8.33477e-09
8.94137e-09
9.57287e-09
1.02164e-08
1.08603e-08
1.14941e-08
1.21087e-08
1.26963e-08
1.32507e-08
1.3767e-08
1.42414e-08
1.46717e-08
1.50564e-08
1.53952e-08
1.56884e-08
1.59372e-08
1.61431e-08
1.63083e-08
1.64351e-08
1.65261e-08
1.65839e-08
1.66115e-08
1.54347e-08
1.60101e-08
1.68178e-08
1.7814e-08
1.89597e-08
2.02185e-08
2.15568e-08
2.29434e-08
2.43499e-08
2.57509e-08
2.7124e-08
2.84501e-08
2.97133e-08
3.0901e-08
3.20034e-08
3.30136e-08
3.39273e-08
3.47423e-08
3.54583e-08
3.60769e-08
3.66008e-08
3.70338e-08
3.73805e-08
3.76464e-08
3.78369e-08
3.79579e-08
3.80154e-08
3.70081e-08
3.82439e-08
3.99741e-08
4.21014e-08
4.45391e-08
4.72072e-08
5.00325e-08
5.29484e-08
5.58949e-08
5.88191e-08
6.16751e-08
6.44244e-08
6.70354e-08
6.94833e-08
7.17497e-08
7.38216e-08
7.56915e-08
7.73562e-08
7.88162e-08
8.00755e-08
8.11404e-08
8.20196e-08
8.27228e-08
8.32614e-08
8.36469e-08
8.38917e-08
8.4008e-08
8.52927e-08
8.78353e-08
9.13884e-08
9.57464e-08
1.00726e-07
1.06161e-07
1.11898e-07
1.17801e-07
1.23749e-07
1.29636e-07
1.3537e-07
1.40876e-07
1.46094e-07
1.50975e-07
1.55485e-07
1.59601e-07
1.6331e-07
1.66607e-07
1.69494e-07
1.71982e-07
1.74083e-07
1.75816e-07
1.77202e-07
1.78261e-07
1.7902e-07
1.79501e-07
1.79729e-07
1.89182e-07
1.94227e-07
2.01267e-07
2.09886e-07
2.19715e-07
2.30419e-07
2.41694e-07
2.53271e-07
2.64911e-07
2.76407e-07
2.87585e-07
2.98299e-07
3.08434e-07
3.17902e-07
3.26638e-07
3.346e-07
3.41766e-07
3.48129e-07
3.53698e-07
3.5849e-07
3.62536e-07
3.6587e-07
3.68534e-07
3.7057e-07
3.72027e-07
3.72951e-07
3.73389e-07
4.04791e-07
4.14509e-07
4.28057e-07
4.44624e-07
4.63492e-07
4.84009e-07
5.05593e-07
5.27722e-07
5.49942e-07
5.71859e-07
5.93144e-07
6.13523e-07
6.32783e-07
6.50757e-07
6.67328e-07
6.8242e-07
6.95992e-07
7.08037e-07
7.18571e-07
7.27634e-07
7.3528e-07
7.41579e-07
7.46608e-07
7.50453e-07
7.53202e-07
7.54945e-07
7.55773e-07
8.37568e-07
8.55864e-07
8.81357e-07
9.12514e-07
9.47973e-07
9.86506e-07
1.02701e-06
1.06852e-06
1.11017e-06
1.15123e-06
1.19108e-06
1.22922e-06
1.26525e-06
1.29887e-06
1.32984e-06
1.35805e-06
1.3834e-06
1.4059e-06
1.42557e-06
1.44249e-06
1.45676e-06
1.46852e-06
1.4779e-06
1.48507e-06
1.4902e-06
1.49345e-06
1.49499e-06
1.67857e-06
1.71241e-06
1.75955e-06
1.81717e-06
1.88273e-06
1.95398e-06
2.02889e-06
2.10564e-06
2.18267e-06
2.25862e-06
2.33236e-06
2.40294e-06
2.46962e-06
2.53184e-06
2.5892e-06
2.64143e-06
2.6884e-06
2.73008e-06
2.76653e-06
2.79788e-06
2.82433e-06
2.84611e-06
2.86351e-06
2.8768e-06
2.88631e-06
2.89233e-06
2.89519e-06
3.25673e-06
3.31818e-06
3.40383e-06
3.50854e-06
3.62776e-06
3.75739e-06
3.89377e-06
4.03362e-06
4.17409e-06
4.31271e-06
4.44739e-06
4.57644e-06
4.69846e-06
4.81243e-06
4.91757e-06
5.01339e-06
5.09962e-06
5.17618e-06
5.24318e-06
5.30085e-06
5.34952e-06
5.38963e-06
5.42167e-06
5.44616e-06
5.46367e-06
5.47478e-06
5.48005e-06
6.09763e-06
6.20624e-06
6.35768e-06
6.54293e-06
6.754e-06
6.98368e-06
7.22552e-06
7.47375e-06
7.72333e-06
7.96989e-06
8.20972e-06
8.43975e-06
8.65752e-06
8.86112e-06
9.04915e-06
9.22069e-06
9.3752e-06
9.51252e-06
9.63278e-06
9.73635e-06
9.82382e-06
9.89594e-06
9.95357e-06
9.99764e-06
1.00292e-05
1.00492e-05
1.00586e-05
1.0961e-05
1.11447e-05
1.14008e-05
1.17141e-05
1.20711e-05
1.24596e-05
1.28688e-05
1.32889e-05
1.37114e-05
1.41289e-05
1.45351e-05
1.49248e-05
1.52938e-05
1.56388e-05
1.59576e-05
1.62484e-05
1.65104e-05
1.67432e-05
1.69472e-05
1.71229e-05
1.72712e-05
1.73936e-05
1.74914e-05
1.75661e-05
1.76196e-05
1.76535e-05
1.76696e-05
1.88159e-05
1.91077e-05
1.95142e-05
2.00112e-05
2.05769e-05
2.1192e-05
2.18389e-05
2.25024e-05
2.31688e-05
2.38264e-05
2.44655e-05
2.50779e-05
2.56572e-05
2.61982e-05
2.66976e-05
2.71527e-05
2.75624e-05
2.79263e-05
2.82448e-05
2.8519e-05
2.87505e-05
2.89413e-05
2.90936e-05
2.92101e-05
2.92934e-05
2.93463e-05
2.93713e-05
3.07194e-05
3.11497e-05
3.17485e-05
3.24793e-05
3.33098e-05
3.42108e-05
3.51564e-05
3.6124e-05
3.70937e-05
3.80486e-05
3.89744e-05
3.98598e-05
4.06956e-05
4.14749e-05
4.21928e-05
4.28462e-05
4.34335e-05
4.39546e-05
4.44101e-05
4.48019e-05
4.51324e-05
4.54046e-05
4.56219e-05
4.5788e-05
4.59067e-05
4.5982e-05
4.60177e-05
4.76229e-05
4.82118e-05
4.90303e-05
5.00274e-05
5.11579e-05
5.23816e-05
5.36629e-05
5.49706e-05
5.62778e-05
5.75619e-05
5.88041e-05
5.99893e-05
6.11058e-05
6.21448e-05
6.31004e-05
6.39687e-05
6.47482e-05
6.54389e-05
6.60422e-05
6.65606e-05
6.69976e-05
6.73574e-05
6.76446e-05
6.7864e-05
6.80209e-05
6.81203e-05
6.81675e-05
7.02035e-05
7.09582e-05
7.20058e-05
7.32799e-05
7.47217e-05
7.62793e-05
7.79065e-05
7.95636e-05
8.12166e-05
8.2837e-05
8.44015e-05
8.58915e-05
8.72928e-05
8.85949e-05
8.97909e-05
9.08764e-05
9.18499e-05
9.27117e-05
9.3464e-05
9.41101e-05
9.46546e-05
9.51027e-05
9.54603e-05
9.57336e-05
9.5929e-05
9.60529e-05
9.61117e-05
9.88001e-05
9.97175e-05
0.00010099
0.000102535
0.000104281
0.000106165
0.000108129
0.000110127
0.000112116
0.000114064
0.000115941
0.000117728
0.000119406
0.000120963
0.000122393
0.000123689
0.000124851
0.00012588
0.000126777
0.000127547
0.000128197
0.000128731
0.000129157
0.000129483
0.000129716
0.000129864
0.000129935
0.000133455
0.000134526
0.000136011
0.000137813
0.000139848
0.00014204
0.000144325
0.000146645
0.000148954
0.000151212
0.000153387
0.000155455
0.000157397
0.000159198
0.00016085
0.000162348
0.00016369
0.000164878
0.000165914
0.000166804
0.000167554
0.000168171
0.000168664
0.00016904
0.000169309
0.00016948
0.000169562
0.000174003
0.000175219
0.000176903
0.000178946
0.00018125
0.000183732
0.000186317
0.000188941
0.00019155
0.000194101
0.000196557
0.000198891
0.000201081
0.000203112
0.000204976
0.000206665
0.000208178
0.000209517
0.000210686
0.000211689
0.000212535
0.000213231
0.000213786
0.000214211
0.000214515
0.000214708
0.0002148
0.000220164
0.000221514
0.000223384
0.000225651
0.000228209
0.000230962
0.000233829
0.000236737
0.000239629
0.000242455
0.000245176
0.00024776
0.000250186
0.000252435
0.000254498
0.000256368
0.000258043
0.000259526
0.000260819
0.00026193
0.000262866
0.000263637
0.000264253
0.000264724
0.000265061
0.000265274
0.000265376
0.000271599
0.000273075
0.000275119
0.000277598
0.000280393
0.000283401
0.000286533
0.00028971
0.000292867
0.000295953
0.000298923
0.000301744
0.000304391
0.000306846
0.000309097
0.000311137
0.000312966
0.000314584
0.000315995
0.000317208
0.00031823
0.000319072
0.000319744
0.000320258
0.000320626
0.000320859
0.00032097
0.000327955
0.00032955
0.000331759
0.000334436
0.000337455
0.000340703
0.000344084
0.000347513
0.000350921
0.000354251
0.000357456
0.0003605
0.000363356
0.000366005
0.000368433
0.000370635
0.000372607
0.000374352
0.000375875
0.000377184
0.000378286
0.000379194
0.00037992
0.000380475
0.000380872
0.000381124
0.000381244
0.000388884
0.000390591
0.000392954
0.000395818
0.000399047
0.000402522
0.000406137
0.000409805
0.000413449
0.000417009
0.000420435
0.000423689
0.000426741
0.000429572
0.000432167
0.00043452
0.000436628
0.000438493
0.00044012
0.000441518
0.000442697
0.000443667
0.000444442
0.000445035
0.000445459
0.000445729
0.000445857
0.000454051
0.000455862
0.000458371
0.000461411
0.000464838
0.000468525
0.000472362
0.000476253
0.000480119
0.000483895
0.000487529
0.000490979
0.000494216
0.000497217
0.000499969
0.000502463
0.000504698
0.000506675
0.000508401
0.000509883
0.000511132
0.000512161
0.000512982
0.000513611
0.000514061
0.000514346
0.000514482
0.000523137
0.000525047
0.000527692
0.000530897
0.000534511
0.000538398
0.000542441
0.000546542
0.000550616
0.000554594
0.000558423
0.000562058
0.000565467
0.000568628
0.000571526
0.000574153
0.000576506
0.000578588
0.000580405
0.000581965
0.00058328
0.000584363
0.000585228
0.00058589
0.000586364
0.000586665
0.000586808
0.000595845
0.000597848
0.000600621
0.000603981
0.000607768
0.000611842
0.00061608
0.000620376
0.000624645
0.000628813
0.000632822
0.00063663
0.0006402
0.00064351
0.000646545
0.000649295
0.000651758
0.000653938
0.000655839
0.000657473
0.000658849
0.000659983
0.000660888
0.000661581
0.000662077
0.000662392
0.000662542
0.000671897
0.000673986
0.000676879
0.000680383
0.000684333
0.000688581
0.000693
0.000697479
0.000701929
0.000706273
0.000710452
0.00071442
0.00071814
0.000721589
0.00072475
0.000727615
0.000730181
0.000732451
0.000734432
0.000736133
0.000737566
0.000738747
0.00073969
0.000740411
0.000740928
0.000741255
0.000741411
0.000751032
0.000753202
0.000756205
0.000759845
0.000763946
0.000768357
0.000772943
0.000777593
0.000782211
0.000786719
0.000791055
0.000795172
0.000799031
0.000802609
0.000805888
0.000808859
0.00081152
0.000813874
0.000815928
0.000817692
0.000819178
0.000820402
0.00082138
0.000822128
0.000822663
0.000823003
0.000823165
0.000833007
0.000835252
0.000838359
0.000842124
0.000846366
0.000850927
0.000855669
0.000860477
0.000865251
0.000869911
0.000874394
0.000878648
0.000882636
0.000886333
0.000889721
0.000892791
0.00089554
0.000897972
0.000900093
0.000901915
0.00090345
0.000904715
0.000905724
0.000906497
0.00090705
0.000907401
0.000907567
0.000917597
0.000919911
0.000923114
0.000926994
0.000931367
0.000936067
0.000940955
0.000945908
0.000950827
0.000955628
0.000960245
0.000964627
0.000968735
0.000972542
0.00097603
0.000979191
0.000982022
0.000984525
0.000986709
0.000988584
0.000990165
0.000991466
0.000992506
0.0009933
0.000993869
0.000994231
0.000994402
0.00100459
0.00100697
0.00101026
0.00101425
0.00101874
0.00102357
0.00102859
0.00103368
0.00103873
0.00104366
0.0010484
0.0010529
0.00105712
0.00106103
0.00106461
0.00106786
0.00107076
0.00107333
0.00107557
0.0010775
0.00107912
0.00108046
0.00108152
0.00108234
0.00108292
0.00108329
0.00108347
0.00109379
0.00109623
0.0010996
0.00110369
0.00110829
0.00111324
0.00111838
0.0011236
0.00112877
0.00113382
0.00113868
0.00114329
0.0011476
0.00115161
0.00115527
0.0011586
0.00116157
0.0011642
0.0011665
0.00116847
0.00117013
0.00117149
0.00117258
0.00117342
0.00117402
0.0011744
0.00117458
0.00118501
0.0011875
0.00119095
0.00119513
0.00119983
0.00120489
0.00121015
0.00121548
0.00122077
0.00122593
0.00123089
0.0012356
0.00124001
0.0012441
0.00124784
0.00125123
0.00125427
0.00125696
0.0012593
0.00126131
0.00126301
0.00126441
0.00126552
0.00126637
0.00126698
0.00126737
0.00126755
0.00127808
0.00128063
0.00128414
0.0012884
0.0012932
0.00129836
0.00130372
0.00130916
0.00131455
0.00131981
0.00132487
0.00132967
0.00133416
0.00133833
0.00134215
0.00134561
0.0013487
0.00135144
0.00135383
0.00135588
0.00135761
0.00135903
0.00136016
0.00136103
0.00136165
0.00136205
0.00136224
0.00137285
0.00137543
0.00137901
0.00138335
0.00138824
0.00139349
0.00139894
0.00140447
0.00140996
0.00141531
0.00142046
0.00142534
0.00142992
0.00143416
0.00143804
0.00144156
0.00144471
0.00144749
0.00144992
0.00145201
0.00145376
0.00145521
0.00145636
0.00145725
0.00145788
0.00145828
0.00145847
0.00146915
0.00147178
0.00147541
0.00147982
0.00148478
0.00149012
0.00149566
0.00150128
0.00150685
0.00151229
0.00151752
0.00152248
0.00152712
0.00153143
0.00153537
0.00153894
0.00154214
0.00154497
0.00154743
0.00154955
0.00155133
0.0015528
0.00155397
0.00155487
0.00155551
0.00155592
0.00155611
0.00156684
0.00156951
0.0015732
0.00157767
0.0015827
0.00158811
0.00159374
0.00159943
0.00160509
0.0016106
0.0016159
0.00162093
0.00162564
0.00163
0.001634
0.00163762
0.00164086
0.00164373
0.00164623
0.00164838
0.00165018
0.00165167
0.00165286
0.00165377
0.00165442
0.00165483
0.00165503
0.00166579
0.00166849
0.00167223
0.00167676
0.00168186
0.00168734
0.00169303
0.0016988
0.00170452
0.00171011
0.00171547
0.00172057
0.00172534
0.00172975
0.0017338
0.00173747
0.00174075
0.00174365
0.00174618
0.00174835
0.00175018
0.00175168
0.00175289
0.00175381
0.00175446
0.00175488
0.00175508
0.00176587
0.0017686
0.00177239
0.00177697
0.00178212
0.00178766
0.00179342
0.00179925
0.00180504
0.00181069
0.00181611
0.00182126
0.00182608
0.00183055
0.00183464
0.00183834
0.00184166
0.00184459
0.00184715
0.00184934
0.00185119
0.00185271
0.00185393
0.00185486
0.00185552
0.00185595
0.00185615
0.00186695
0.00186971
0.00187353
0.00187816
0.00188336
0.00188896
0.00189478
0.00190066
0.00190651
0.00191221
0.00191769
0.00192288
0.00192775
0.00193226
0.00193639
0.00194013
0.00194348
0.00194644
0.00194902
0.00195123
0.0019531
0.00195464
0.00195586
0.0019568
0.00195747
0.0019579
0.0019581
0.00196891
0.00197169
0.00197554
0.00198021
0.00198546
0.00199111
0.00199697
0.00200291
0.0020088
0.00201455
0.00202008
0.00202532
0.00203022
0.00203477
0.00203893
0.0020427
0.00204608
0.00204906
0.00205166
0.0020539
0.00205578
0.00205733
0.00205856
0.00205951
0.00206019
0.00206062
0.00206082
0.00207161
0.00207442
0.0020783
0.002083
0.00208829
0.00209398
0.00209989
0.00210587
0.0021118
0.00211759
0.00212316
0.00212843
0.00213338
0.00213795
0.00214215
0.00214594
0.00214934
0.00215234
0.00215496
0.00215721
0.00215911
0.00216066
0.00216191
0.00216286
0.00216354
0.00216397
0.00216418
0.00217495
0.00217777
0.00218167
0.0021864
0.00219173
0.00219745
0.00220339
0.00220941
0.00221538
0.0022212
0.0022268
0.0022321
0.00223708
0.00224168
0.0022459
0.00224971
0.00225313
0.00225615
0.00225878
0.00226104
0.00226295
0.00226452
0.00226577
0.00226673
0.00226741
0.00226784
0.00226805
0.00227877
0.00228161
0.00228554
0.00229029
0.00229564
0.00230138
0.00230735
0.0023134
0.0023194
0.00232525
0.00233087
0.0023362
0.00234119
0.00234582
0.00235005
0.00235389
0.00235732
0.00236035
0.00236299
0.00236526
0.00236718
0.00236875
0.00237001
0.00237097
0.00237166
0.00237209
0.0023723
0.00238296
0.00238581
0.00238975
0.00239451
0.00239988
0.00240565
0.00241164
0.00241771
0.00242372
0.00242959
0.00243523
0.00244058
0.00244558
0.00245022
0.00245447
0.00245831
0.00246176
0.0024648
0.00246745
0.00246973
0.00247164
0.00247322
0.00247448
0.00247545
0.00247613
0.00247657
0.00247678
0.00248736
0.00249021
0.00249416
0.00249894
0.00250431
0.00251009
0.00251609
0.00252217
0.0025282
0.00253408
0.00253973
0.00254508
0.0025501
0.00255474
0.00255899
0.00256285
0.00256629
0.00256934
0.00257199
0.00257427
0.00257619
0.00257777
0.00257903
0.00258
0.00258069
0.00258113
0.00258134
0.00259181
0.00259466
0.00259861
0.00260339
0.00260877
0.00261455
0.00262055
0.00262663
0.00263266
0.00263854
0.00264419
0.00264954
0.00265456
0.0026592
0.00266346
0.00266731
0.00267075
0.0026738
0.00267645
0.00267873
0.00268065
0.00268223
0.00268349
0.00268445
0.00268514
0.00268558
0.00268579
0.00269613
0.00269898
0.00270292
0.00270769
0.00271307
0.00271884
0.00272483
0.0027309
0.00273692
0.00274279
0.00274843
0.00275377
0.00275878
0.00276341
0.00276766
0.0027715
0.00277494
0.00277798
0.00278063
0.0027829
0.00278481
0.00278639
0.00278765
0.00278861
0.0027893
0.00278974
0.00278994
0.00280012
0.00280296
0.00280689
0.00281164
0.002817
0.00282275
0.00282872
0.00283477
0.00284077
0.00284661
0.00285223
0.00285755
0.00286254
0.00286716
0.00287138
0.00287521
0.00287863
0.00288166
0.0028843
0.00288656
0.00288847
0.00289004
0.00289129
0.00289225
0.00289293
0.00289337
0.00289357
0.00290354
0.00290637
0.00291027
0.002915
0.00292033
0.00292605
0.00293198
0.002938
0.00294396
0.00294977
0.00295535
0.00296064
0.0029656
0.00297018
0.00297438
0.00297818
0.00298158
0.00298459
0.00298721
0.00298946
0.00299135
0.00299291
0.00299415
0.0029951
0.00299578
0.00299622
0.00299642
0.00300614
0.00300894
0.00301282
0.00301751
0.00302279
0.00302846
0.00303435
0.00304031
0.00304621
0.00305197
0.00305751
0.00306275
0.00306766
0.0030722
0.00307636
0.00308013
0.0030835
0.00308647
0.00308907
0.00309129
0.00309317
0.00309471
0.00309595
0.00309689
0.00309756
0.00309799
0.00309819
0.00310761
0.00311038
0.00311422
0.00311885
0.00312407
0.00312968
0.00313549
0.00314138
0.00314722
0.00315291
0.00315837
0.00316355
0.0031684
0.00317289
0.003177
0.00318071
0.00318404
0.00318698
0.00318954
0.00319174
0.00319359
0.00319511
0.00319633
0.00319726
0.00319792
0.00319834
0.00319854
0.00320761
0.00321034
0.00321411
0.00321868
0.00322382
0.00322934
0.00323507
0.00324086
0.00324661
0.00325221
0.00325758
0.00326268
0.00326745
0.00327186
0.0032759
0.00327956
0.00328283
0.00328572
0.00328823
0.00329039
0.00329221
0.00329371
0.00329491
0.00329582
0.00329647
0.00329689
0.00329708
0.00330574
0.00330841
0.00331211
0.00331659
0.00332163
0.00332704
0.00333265
0.00333833
0.00334396
0.00334944
0.00335471
0.0033597
0.00336437
0.00336869
0.00337264
0.00337622
0.00337942
0.00338225
0.00338471
0.00338683
0.00338861
0.00339007
0.00339124
0.00339213
0.00339277
0.00339318
0.00339337
0.00340154
0.00340415
0.00340776
0.00341212
0.00341704
0.00342231
0.00342778
0.00343332
0.0034388
0.00344415
0.00344928
0.00345413
0.00345868
0.00346289
0.00346674
0.00347022
0.00347333
0.00347608
0.00347848
0.00348054
0.00348227
0.00348369
0.00348483
0.0034857
0.00348632
0.00348671
0.0034869
0.00349451
0.00349704
0.00350054
0.00350477
0.00350953
0.00351464
0.00351994
0.0035253
0.00353061
0.00353578
0.00354075
0.00354545
0.00354985
0.00355391
0.00355764
0.003561
0.00356401
0.00356667
0.00356899
0.00357097
0.00357265
0.00357402
0.00357512
0.00357596
0.00357656
0.00357694
0.00357712
0.00358409
0.00358653
0.00358989
0.00359396
0.00359854
0.00360345
0.00360855
0.0036137
0.0036188
0.00362377
0.00362854
0.00363305
0.00363727
0.00364117
0.00364474
0.00364797
0.00365086
0.00365341
0.00365563
0.00365753
0.00365913
0.00366045
0.0036615
0.00366231
0.00366288
0.00366325
0.00366342
0.00366968
0.00367201
0.00367522
0.0036791
0.00368346
0.00368814
0.003693
0.0036979
0.00370276
0.00370749
0.00371202
0.00371632
0.00372033
0.00372404
0.00372743
0.0037305
0.00373324
0.00373566
0.00373777
0.00373958
0.0037411
0.00374235
0.00374335
0.00374411
0.00374465
0.003745
0.00374517
0.00375065
0.00375284
0.00375587
0.00375954
0.00376365
0.00376807
0.00377264
0.00377727
0.00378184
0.00378629
0.00379056
0.0037946
0.00379837
0.00380186
0.00380505
0.00380793
0.0038105
0.00381278
0.00381475
0.00381645
0.00381788
0.00381905
0.00381999
0.0038207
0.00382122
0.00382154
0.00382169
0.00382635
0.0038284
0.00383122
0.00383464
0.00383847
0.00384258
0.00384684
0.00385114
0.0038554
0.00385953
0.0038635
0.00386725
0.00387075
0.00387399
0.00387695
0.00387962
0.003882
0.00388411
0.00388594
0.00388751
0.00388884
0.00388992
0.00389079
0.00389145
0.00389193
0.00389223
0.00389237
0.00389616
0.00389804
0.00390064
0.00390378
0.0039073
0.00391107
0.00391498
0.00391892
0.00392282
0.00392661
0.00393024
0.00393367
0.00393688
0.00393983
0.00394254
0.00394498
0.00394715
0.00394908
0.00395075
0.00395218
0.00395339
0.00395438
0.00395517
0.00395577
0.0039562
0.00395647
0.0039566
0.00395954
0.00396124
0.00396358
0.00396642
0.0039696
0.003973
0.00397653
0.00398008
0.0039836
0.00398701
0.00399027
0.00399336
0.00399624
0.00399889
0.00400132
0.00400351
0.00400546
0.00400718
0.00400868
0.00400996
0.00401104
0.00401193
0.00401264
0.00401318
0.00401356
0.00401381
0.00401392
0.00401603
0.00401754
0.00401962
0.00402213
0.00402495
0.00402796
0.00403108
0.00403422
0.00403733
0.00404034
0.00404322
0.00404594
0.00404847
0.00405081
0.00405294
0.00405487
0.00405659
0.0040581
0.00405941
0.00406054
0.00406149
0.00406226
0.00406288
0.00406336
0.0040637
0.00406391
0.00406401
0.00406536
0.00406667
0.00406848
0.00407066
0.0040731
0.00407571
0.00407841
0.00408113
0.00408381
0.00408641
0.00408889
0.00409124
0.00409342
0.00409543
0.00409727
0.00409892
0.0041004
0.0041017
0.00410283
0.00410379
0.0041046
0.00410527
0.0041058
0.00410621
0.0041065
0.00410668
0.00410677
0.00410747
0.00410858
0.00411011
0.00411196
0.00411403
0.00411623
0.00411852
0.00412081
0.00412307
0.00412526
0.00412735
0.00412932
0.00413116
0.00413285
0.00413439
0.00413578
0.00413701
0.0041381
0.00413905
0.00413985
0.00414053
0.00414109
0.00414153
0.00414187
0.00414211
0.00414227
0.00414234
0.00414253
0.00414345
0.00414472
0.00414624
0.00414795
0.00414977
0.00415165
0.00415354
0.0041554
0.0041572
0.00415891
0.00416053
0.00416203
0.00416341
0.00416467
0.0041658
0.00416681
0.0041677
0.00416847
0.00416913
0.00416968
0.00417013
0.00417049
0.00417077
0.00417097
0.00417109
0.00417115
0.004171
0.00417174
0.00417275
0.00417398
0.00417535
0.00417682
0.00417832
0.00417983
0.00418132
0.00418276
0.00418413
0.00418542
0.00418662
0.00418772
0.00418872
0.00418962
0.00419043
0.00419113
0.00419174
0.00419226
0.0041927
0.00419306
0.00419335
0.00419357
0.00419372
0.00419382
0.00419387
0.00419351
0.0041941
0.0041949
0.00419586
0.00419693
0.00419808
0.00419926
0.00420044
0.0042016
0.00420273
0.0042038
0.0042048
0.00420573
0.00420659
0.00420737
0.00420807
0.00420869
0.00420924
0.00420971
0.00421012
0.00421046
0.00421074
0.00421096
0.00421113
0.00421125
0.00421132
0.00421136
0.00421093
0.00421138
0.00421199
0.00421273
0.00421356
0.00421444
0.00421534
0.00421625
0.00421714
0.004218
0.00421882
0.00421959
0.0042203
0.00422096
0.00422155
0.00422209
0.00422256
0.00422298
0.00422334
0.00422365
0.00422391
0.00422412
0.00422429
0.00422442
0.00422451
0.00422457
0.0042246
0.00422418
0.00422452
0.00422499
0.00422555
0.00422618
0.00422684
0.00422753
0.00422822
0.0042289
0.00422955
0.00423017
0.00423076
0.0042313
0.0042318
0.00423225
0.00423266
0.00423302
0.00423333
0.00423361
0.00423384
0.00423404
0.0042342
0.00423433
0.00423443
0.0042345
0.00423454
0.00423456
0.00423419
0.00423444
0.0042348
0.00423522
0.0042357
0.0042362
0.00423672
0.00423724
0.00423776
0.00423825
0.00423872
0.00423916
0.00423957
0.00423995
0.00424029
0.0042406
0.00424087
0.00424111
0.00424132
0.0042415
0.00424164
0.00424177
0.00424186
0.00424194
0.00424199
0.00424203
0.00424204
0.00424173
0.00424192
0.00424219
0.00424251
0.00424287
0.00424325
0.00424365
0.00424404
0.00424443
0.00424481
0.00424516
0.0042455
0.00424581
0.0042461
0.00424636
0.00424659
0.0042468
0.00424698
0.00424714
0.00424728
0.00424739
0.00424749
0.00424756
0.00424762
0.00424766
0.00424768
0.0042477
0.00424744
0.00424759
0.00424779
0.00424804
0.00424831
0.00424861
0.00424891
0.00424921
0.00424951
0.0042498
0.00425007
0.00425033
0.00425057
0.00425079
0.004251
0.00425118
0.00425134
0.00425148
0.0042516
0.00425171
0.0042518
0.00425187
0.00425193
0.00425197
0.004252
0.00425202
0.00425203
0.00425181
0.00425193
0.00425209
0.00425228
0.00425249
0.00425272
0.00425296
0.00425319