/*--------------------------------*- C++ -*----------------------------------*\
| =========                 |                                                 |
| \\      /  F ield         | OpenFOAM: The Open Source CFD Toolbox           |
|  \\    /   O peration     | Version:  2106                                  |
|   \\  /    A nd           | Website:  www.openfoam.com                      |
|    \\/     M anipulation  |                                                 |
\*---------------------------------------------------------------------------*/
FoamFile
{
    version     2.0;
    format      ascii;
    arch        "LSB;label=32;scalar=64";
    class       volScalarField;
    location    "150.00049";
    object      C3H3;
}
// * * * * * * * * * * * * * * * * * * * * * * * * * * * * * * * * * * * * * //

dimensions      [0 0 0 0 0 0 0];

internalField   nonuniform List<scalar> 
3360
(
4.39629e-20
4.53777e-20
4.73465e-20
4.97547e-20
5.2502e-20
5.54983e-20
5.8662e-20
6.19198e-20
6.52062e-20
6.84634e-20
7.16415e-20
7.46978e-20
7.75973e-20
8.03121e-20
8.28209e-20
8.51088e-20
8.71666e-20
8.89906e-20
9.05813e-20
9.19437e-20
9.30857e-20
9.40185e-20
9.47552e-20
9.5311e-20
9.57019e-20
9.59452e-20
9.60581e-20
1.92854e-19
1.99943e-19
2.09946e-19
2.22404e-19
2.36934e-19
2.53204e-19
2.70916e-19
2.89799e-19
3.09599e-19
3.30076e-19
3.51001e-19
3.72151e-19
3.93305e-19
4.14246e-19
4.34759e-19
4.54634e-19
4.73666e-19
4.91654e-19
5.08407e-19
5.23746e-19
5.37506e-19
5.49541e-19
5.59727e-19
5.67966e-19
5.74183e-19
5.78335e-19
5.80405e-19
6.05127e-19
6.31686e-19
6.69425e-19
7.16847e-19
7.72709e-19
8.35895e-19
9.05343e-19
9.80006e-19
1.05883e-18
1.14072e-18
1.22459e-18
1.30933e-18
1.39386e-18
1.47711e-18
1.55803e-18
1.63565e-18
1.70904e-18
1.7774e-18
1.84001e-18
1.89629e-18
1.94578e-18
1.98816e-18
2.02324e-18
2.05097e-18
2.07142e-18
2.08475e-18
2.09124e-18
1.76234e-18
1.84988e-18
1.9751e-18
2.13353e-18
2.32142e-18
2.53527e-18
2.77156e-18
3.02667e-18
3.29677e-18
3.57787e-18
3.86583e-18
4.15642e-18
4.44547e-18
4.7289e-18
5.00285e-18
5.26376e-18
5.5085e-18
5.73438e-18
5.93925e-18
6.12152e-18
6.2801e-18
6.41444e-18
6.52447e-18
6.61053e-18
6.67332e-18
6.71387e-18
6.73343e-18
5.14901e-18
5.42517e-18
5.82096e-18
6.32288e-18
6.91944e-18
7.59962e-18
8.35209e-18
9.16482e-18
1.0025e-17
1.09192e-17
1.18333e-17
1.27535e-17
1.36657e-17
1.45569e-17
1.54148e-17
1.62285e-17
1.69886e-17
1.76872e-17
1.83184e-17
1.88778e-17
1.93628e-17
1.97724e-17
2.01067e-17
2.03676e-17
2.05574e-17
2.06797e-17
2.07385e-17
1.51818e-17
1.60298e-17
1.72468e-17
1.87915e-17
2.06284e-17
2.27234e-17
2.50411e-17
2.75437e-17
3.0191e-17
3.29405e-17
3.57485e-17
3.85712e-17
4.13655e-17
4.4091e-17
4.67101e-17
4.91898e-17
5.15018e-17
5.36231e-17
5.55361e-17
5.72286e-17
5.86936e-17
5.99285e-17
6.09354e-17
6.17196e-17
6.22896e-17
6.26564e-17
6.28328e-17
4.50981e-17
4.76751e-17
5.1373e-17
5.60667e-17
6.16483e-17
6.80124e-17
7.505e-17
8.26448e-17
9.06727e-17
9.90037e-17
1.07504e-16
1.16041e-16
1.24483e-16
1.3271e-16
1.40608e-16
1.48079e-16
1.5504e-16
1.61421e-16
1.67172e-16
1.72257e-16
1.76657e-16
1.80364e-16
1.83385e-16
1.85738e-16
1.87447e-16
1.88547e-16
1.89076e-16
1.34407e-16
1.42161e-16
1.53293e-16
1.67428e-16
1.84242e-16
2.03416e-16
2.2462e-16
2.47501e-16
2.71684e-16
2.96773e-16
3.22366e-16
3.48058e-16
3.73457e-16
3.98196e-16
4.21938e-16
4.44386e-16
4.65289e-16
4.84446e-16
5.01702e-16
5.16954e-16
5.30142e-16
5.41251e-16
5.50301e-16
5.57345e-16
5.62463e-16
5.65754e-16
5.67335e-16
4.01631e-16
4.24935e-16
4.58385e-16
5.00853e-16
5.51359e-16
6.08945e-16
6.72614e-16
7.41298e-16
8.13866e-16
8.89128e-16
9.65872e-16
1.04289e-15
1.119e-15
1.19311e-15
1.26421e-15
1.33141e-15
1.39398e-15
1.45131e-15
1.50294e-15
1.54857e-15
1.58802e-15
1.62125e-15
1.64832e-15
1.66939e-15
1.6847e-15
1.69455e-15
1.69928e-15
1.20015e-15
1.26994e-15
1.37014e-15
1.49735e-15
1.64865e-15
1.82116e-15
2.01188e-15
2.2176e-15
2.43493e-15
2.6603e-15
2.89007e-15
3.12061e-15
3.3484e-15
3.57014e-15
3.78284e-15
3.98384e-15
4.17093e-15
4.3423e-15
4.49661e-15
4.63294e-15
4.7508e-15
4.85003e-15
4.93086e-15
4.99375e-15
5.03943e-15
5.0688e-15
5.08292e-15
3.58785e-15
3.79676e-15
4.09661e-15
4.47724e-15
4.92984e-15
5.44574e-15
6.01595e-15
6.63084e-15
7.2802e-15
7.95338e-15
8.63946e-15
9.3276e-15
1.00073e-14
1.06688e-14
1.13031e-14
1.19024e-14
1.246e-14
1.29707e-14
1.34304e-14
1.38365e-14
1.41876e-14
1.44831e-14
1.47238e-14
1.4911e-14
1.5047e-14
1.51345e-14
1.51765e-14
1.07148e-14
1.13384e-14
1.22335e-14
1.33695e-14
1.47199e-14
1.6259e-14
1.79594e-14
1.97926e-14
2.17279e-14
2.37335e-14
2.57767e-14
2.78253e-14
2.98481e-14
3.18158e-14
3.37019e-14
3.54831e-14
3.714e-14
3.86568e-14
4.00218e-14
4.12272e-14
4.22686e-14
4.31452e-14
4.38589e-14
4.4414e-14
4.4817e-14
4.50761e-14
4.52006e-14
3.1961e-14
3.38191e-14
3.64851e-14
3.98673e-14
4.38861e-14
4.84634e-14
5.35179e-14
5.89633e-14
6.47084e-14
7.06579e-14
7.67152e-14
8.27843e-14
8.87729e-14
9.45949e-14
1.00172e-13
1.05436e-13
1.1033e-13
1.14808e-13
1.18836e-13
1.22391e-13
1.25462e-13
1.28045e-13
1.30148e-13
1.31783e-13
1.3297e-13
1.33733e-13
1.34099e-13
9.5047e-14
1.00558e-13
1.08462e-13
1.18484e-13
1.30386e-13
1.43932e-13
1.58879e-13
1.74969e-13
1.9193e-13
2.09479e-13
2.27329e-13
2.45198e-13
2.62813e-13
2.79923e-13
2.96298e-13
3.11741e-13
3.26085e-13
3.392e-13
3.50988e-13
3.61385e-13
3.70359e-13
3.77905e-13
3.84043e-13
3.88813e-13
3.92274e-13
3.94498e-13
3.95565e-13
2.81601e-13
2.97853e-13
3.21148e-13
3.50661e-13
3.85675e-13
4.25482e-13
4.69353e-13
5.16517e-13
5.66167e-13
6.17466e-13
6.69574e-13
7.21662e-13
7.72941e-13
8.22681e-13
8.70224e-13
9.15003e-13
9.56549e-13
9.94491e-13
1.02856e-12
1.05858e-12
1.08447e-12
1.10622e-12
1.1239e-12
1.13763e-12
1.14759e-12
1.15398e-12
1.15705e-12
8.29368e-13
8.76845e-13
9.44835e-13
1.03088e-12
1.13283e-12
1.24856e-12
1.37589e-12
1.51255e-12
1.65615e-12
1.80425e-12
1.9544e-12
2.10421e-12
2.25143e-12
2.39397e-12
2.52998e-12
2.65787e-12
2.77633e-12
2.88434e-12
2.98119e-12
3.06642e-12
3.13982e-12
3.20142e-12
3.25144e-12
3.29025e-12
3.31836e-12
3.3364e-12
3.34505e-12
2.42376e-12
2.56069e-12
2.75655e-12
3.00403e-12
3.29668e-12
3.62821e-12
3.99216e-12
4.38181e-12
4.79022e-12
5.21037e-12
5.63525e-12
6.05811e-12
6.47262e-12
6.87299e-12
7.25412e-12
7.61171e-12
7.94224e-12
8.24305e-12
8.51225e-12
8.74874e-12
8.95209e-12
9.1225e-12
9.26067e-12
9.36775e-12
9.44525e-12
9.49492e-12
9.51872e-12
7.00933e-12
7.39731e-12
7.95135e-12
8.64993e-12
9.47398e-12
1.04049e-11
1.14237e-11
1.25111e-11
1.36471e-11
1.48119e-11
1.5986e-11
1.71507e-11
1.82888e-11
1.93848e-11
2.04251e-11
2.13984e-11
2.22957e-11
2.31103e-11
2.38377e-11
2.44753e-11
2.50225e-11
2.54803e-11
2.58508e-11
2.61376e-11
2.63449e-11
2.64776e-11
2.65411e-11
1.99969e-11
2.10707e-11
2.26009e-11
2.45251e-11
2.67874e-11
2.9334e-11
3.21105e-11
3.5062e-11
3.8133e-11
4.12689e-11
4.44171e-11
4.7528e-11
5.05563e-11
5.34617e-11
5.621e-11
5.8773e-11
6.11286e-11
6.32611e-11
6.51602e-11
6.68209e-11
6.8243e-11
6.94302e-11
7.03896e-11
7.11308e-11
7.16657e-11
7.20077e-11
7.21712e-11
5.60571e-11
5.89412e-11
6.30401e-11
6.81771e-11
7.41935e-11
8.09366e-11
8.82549e-11
9.59973e-11
1.04015e-10
1.12164e-10
1.20306e-10
1.28315e-10
1.36078e-10
1.43496e-10
1.50485e-10
1.56979e-10
1.62928e-10
1.68296e-10
1.73063e-10
1.7722e-10
1.80772e-10
1.83731e-10
1.86117e-10
1.87957e-10
1.89283e-10
1.9013e-10
1.90534e-10
1.53727e-10
1.61193e-10
1.71772e-10
1.84979e-10
2.00377e-10
2.17551e-10
2.36093e-10
2.55607e-10
2.75707e-10
2.96029e-10
3.16232e-10
3.3601e-10
3.5509e-10
3.73242e-10
3.90276e-10
4.06043e-10
4.20436e-10
4.33382e-10
4.44844e-10
4.54814e-10
4.63311e-10
4.70373e-10
4.76057e-10
4.80434e-10
4.83582e-10
4.8559e-10
4.86547e-10
4.10335e-10
4.28848e-10
4.54997e-10
4.87506e-10
5.25229e-10
5.67083e-10
6.12027e-10
6.59066e-10
7.07256e-10
7.55718e-10
8.0365e-10
8.50343e-10
8.95183e-10
9.37657e-10
9.77354e-10
1.01396e-09
1.04727e-09
1.07713e-09
1.1035e-09
1.12637e-09
1.14582e-09
1.16195e-09
1.17491e-09
1.18487e-09
1.19202e-09
1.19658e-09
1.19875e-09
1.06088e-09
1.10468e-09
1.16633e-09
1.24266e-09
1.33082e-09
1.42813e-09
1.53208e-09
1.6403e-09
1.75059e-09
1.86093e-09
1.96955e-09
2.07487e-09
2.17558e-09
2.27059e-09
2.35907e-09
2.44038e-09
2.51412e-09
2.58006e-09
2.63812e-09
2.68838e-09
2.73102e-09
2.76633e-09
2.79464e-09
2.81637e-09
2.83196e-09
2.84187e-09
2.84659e-09
2.64571e-09
2.74437e-09
2.88287e-09
3.0537e-09
3.25015e-09
3.46601e-09
3.69549e-09
3.93327e-09
4.17446e-09
4.4147e-09
4.65017e-09
4.87758e-09
5.09421e-09
5.29789e-09
5.48694e-09
5.66019e-09
5.81688e-09
5.95665e-09
6.07945e-09
6.18554e-09
6.27539e-09
6.34965e-09
6.40913e-09
6.45472e-09
6.4874e-09
6.50816e-09
6.51803e-09
6.34872e-09
6.56094e-09
6.85808e-09
7.22344e-09
7.64209e-09
8.10033e-09
8.58559e-09
9.08641e-09
9.5925e-09
1.00948e-08
1.05853e-08
1.10576e-08
1.15061e-08
1.19266e-08
1.23159e-08
1.26718e-08
1.29931e-08
1.3279e-08
1.35299e-08
1.37462e-08
1.39292e-08
1.40802e-08
1.42011e-08
1.42936e-08
1.43598e-08
1.44019e-08
1.44219e-08
1.46516e-08
1.50901e-08
1.57029e-08
1.64546e-08
1.73136e-08
1.82512e-08
1.92413e-08
2.02603e-08
2.12871e-08
2.23036e-08
2.3294e-08
2.42452e-08
2.51468e-08
2.59904e-08
2.67702e-08
2.7482e-08
2.81234e-08
2.86938e-08
2.91935e-08
2.9624e-08
2.99878e-08
3.02879e-08
3.05278e-08
3.07113e-08
3.08427e-08
3.09261e-08
3.09657e-08
3.25725e-08
3.34517e-08
3.46792e-08
3.6183e-08
3.7899e-08
3.97692e-08
4.17412e-08
4.37678e-08
4.58074e-08
4.78238e-08
4.97864e-08
5.16695e-08
5.34525e-08
5.51196e-08
5.66592e-08
5.80636e-08
5.93284e-08
6.04523e-08
6.14365e-08
6.2284e-08
6.29997e-08
6.35898e-08
6.40614e-08
6.44221e-08
6.46801e-08
6.48438e-08
6.49215e-08
7.00049e-08
7.17399e-08
7.41614e-08
7.7127e-08
8.05103e-08
8.41966e-08
8.80826e-08
9.20754e-08
9.60933e-08
1.00065e-07
1.03931e-07
1.0764e-07
1.11152e-07
1.14435e-07
1.17468e-07
1.20234e-07
1.22725e-07
1.24939e-07
1.26877e-07
1.28547e-07
1.29956e-07
1.31119e-07
1.32047e-07
1.32758e-07
1.33266e-07
1.33588e-07
1.33741e-07
1.46033e-07
1.49434e-07
1.54183e-07
1.60003e-07
1.66648e-07
1.73896e-07
1.81545e-07
1.89413e-07
1.97342e-07
2.05191e-07
2.12839e-07
2.20188e-07
2.27156e-07
2.3368e-07
2.39713e-07
2.45222e-07
2.5019e-07
2.54609e-07
2.58482e-07
2.6182e-07
2.64641e-07
2.66968e-07
2.68829e-07
2.70252e-07
2.71271e-07
2.71918e-07
2.72225e-07
2.95872e-07
3.02514e-07
3.11801e-07
3.23205e-07
3.36254e-07
3.50523e-07
3.65624e-07
3.81208e-07
3.96961e-07
4.12607e-07
4.27908e-07
4.42659e-07
4.56695e-07
4.6988e-07
4.82114e-07
4.93323e-07
5.03461e-07
5.12505e-07
5.20455e-07
5.27324e-07
5.33144e-07
5.37957e-07
5.41812e-07
5.44768e-07
5.46887e-07
5.48234e-07
5.48874e-07
5.795e-07
5.92279e-07
6.10185e-07
6.32228e-07
6.57535e-07
6.85312e-07
7.14833e-07
7.45435e-07
7.76519e-07
8.07549e-07
8.38052e-07
8.67617e-07
8.95898e-07
9.22608e-07
9.47522e-07
9.70467e-07
9.91324e-07
1.01002e-06
1.02653e-06
1.04085e-06
1.05304e-06
1.06314e-06
1.07126e-06
1.0775e-06
1.08199e-06
1.08484e-06
1.08621e-06
1.08523e-06
1.10867e-06
1.14155e-06
1.18211e-06
1.22878e-06
1.28015e-06
1.3349e-06
1.39183e-06
1.44984e-06
1.50794e-06
1.56522e-06
1.62091e-06
1.67432e-06
1.72488e-06
1.77213e-06
1.81576e-06
1.85552e-06
1.89126e-06
1.92291e-06
1.95047e-06
1.97398e-06
1.99355e-06
2.00933e-06
2.02151e-06
2.03029e-06
2.0359e-06
2.03859e-06
1.91522e-06
1.95435e-06
2.00922e-06
2.07683e-06
2.15454e-06
2.23991e-06
2.33071e-06
2.42492e-06
2.52077e-06
2.61664e-06
2.7111e-06
2.8029e-06
2.89097e-06
2.9744e-06
3.05247e-06
3.12462e-06
3.19043e-06
3.24964e-06
3.30211e-06
3.34783e-06
3.38687e-06
3.4194e-06
3.44565e-06
3.46592e-06
3.48055e-06
3.4899e-06
3.49438e-06
3.14058e-06
3.1978e-06
3.27787e-06
3.3763e-06
3.48911e-06
3.61269e-06
3.74379e-06
3.87944e-06
4.01699e-06
4.1541e-06
4.28869e-06
4.419e-06
4.54354e-06
4.66108e-06
4.77067e-06
4.87159e-06
4.96334e-06
5.04563e-06
5.11834e-06
5.18152e-06
5.23533e-06
5.28006e-06
5.31609e-06
5.34386e-06
5.36387e-06
5.37666e-06
5.38277e-06
4.76412e-06
4.83809e-06
4.94131e-06
5.06767e-06
5.2118e-06
5.36885e-06
5.53447e-06
5.70479e-06
5.87639e-06
6.04631e-06
6.21201e-06
6.37138e-06
6.52272e-06
6.66466e-06
6.7962e-06
6.91664e-06
7.02554e-06
7.12272e-06
7.20817e-06
7.2821e-06
7.34482e-06
7.39677e-06
7.43848e-06
7.47053e-06
7.49356e-06
7.50824e-06
7.51524e-06
6.71653e-06
6.80144e-06
6.91948e-06
7.06331e-06
7.22645e-06
7.40311e-06
7.58816e-06
7.77713e-06
7.96615e-06
8.15196e-06
8.33187e-06
8.50369e-06
8.66572e-06
8.8167e-06
8.95574e-06
9.08229e-06
9.19609e-06
9.2971e-06
9.3855e-06
9.46163e-06
9.52597e-06
9.57906e-06
9.62154e-06
9.65409e-06
9.67742e-06
9.69226e-06
9.69932e-06
8.86367e-06
8.95156e-06
9.07332e-06
9.22105e-06
9.38774e-06
9.56723e-06
9.75411e-06
9.94374e-06
1.01322e-05
1.03163e-05
1.04934e-05
1.06616e-05
1.08192e-05
1.09652e-05
1.1099e-05
1.12202e-05
1.13286e-05
1.14244e-05
1.15079e-05
1.15796e-05
1.164e-05
1.16896e-05
1.17292e-05
1.17595e-05
1.17812e-05
1.17949e-05
1.18015e-05
1.10517e-05
1.11355e-05
1.12513e-05
1.13913e-05
1.15486e-05
1.17172e-05
1.18919e-05
1.20683e-05
1.22428e-05
1.24124e-05
1.25747e-05
1.27282e-05
1.28713e-05
1.30034e-05
1.31239e-05
1.32326e-05
1.33296e-05
1.3415e-05
1.34893e-05
1.35528e-05
1.36061e-05
1.36499e-05
1.36848e-05
1.37114e-05
1.37304e-05
1.37425e-05
1.37482e-05
1.31513e-05
1.32265e-05
1.33302e-05
1.34552e-05
1.35952e-05
1.37448e-05
1.38993e-05
1.40548e-05
1.4208e-05
1.43564e-05
1.44979e-05
1.46313e-05
1.47553e-05
1.48694e-05
1.49732e-05
1.50666e-05
1.51497e-05
1.52227e-05
1.52861e-05
1.53402e-05
1.53856e-05
1.54227e-05
1.54523e-05
1.54748e-05
1.54909e-05
1.55011e-05
1.55059e-05
1.50785e-05
1.5143e-05
1.52319e-05
1.5339e-05
1.54586e-05
1.55862e-05
1.57177e-05
1.58496e-05
1.59793e-05
1.61046e-05
1.62239e-05
1.63359e-05
1.644e-05
1.65355e-05
1.66223e-05
1.67002e-05
1.67694e-05
1.68301e-05
1.68827e-05
1.69276e-05
1.69652e-05
1.6996e-05
1.70204e-05
1.7039e-05
1.70523e-05
1.70607e-05
1.70647e-05
1.67925e-05
1.68463e-05
1.69204e-05
1.70094e-05
1.71089e-05
1.72147e-05
1.73236e-05
1.74327e-05
1.75398e-05
1.76431e-05
1.77413e-05
1.78334e-05
1.79188e-05
1.79971e-05
1.80681e-05
1.81318e-05
1.81883e-05
1.82378e-05
1.82807e-05
1.83172e-05
1.83478e-05
1.83728e-05
1.83927e-05
1.84078e-05
1.84185e-05
1.84253e-05
1.84286e-05
1.82849e-05
1.83289e-05
1.83894e-05
1.8462e-05
1.85431e-05
1.86293e-05
1.87179e-05
1.88065e-05
1.88934e-05
1.89772e-05
1.90567e-05
1.91312e-05
1.92002e-05
1.92634e-05
1.93207e-05
1.9372e-05
1.94175e-05
1.94573e-05
1.94918e-05
1.95211e-05
1.95456e-05
1.95657e-05
1.95816e-05
1.95937e-05
1.96023e-05
1.96077e-05
1.96103e-05
1.95667e-05
1.96021e-05
1.96508e-05
1.97093e-05
1.97745e-05
1.98438e-05
1.99149e-05
1.9986e-05
2.00557e-05
2.01227e-05
2.01864e-05
2.02459e-05
2.0301e-05
2.03514e-05
2.03971e-05
2.0438e-05
2.04742e-05
2.05058e-05
2.05332e-05
2.05565e-05
2.05759e-05
2.05918e-05
2.06044e-05
2.0614e-05
2.06208e-05
2.06251e-05
2.06271e-05
2.06583e-05
2.06866e-05
2.07254e-05
2.0772e-05
2.08239e-05
2.0879e-05
2.09355e-05
2.0992e-05
2.10473e-05
2.11004e-05
2.11508e-05
2.11979e-05
2.12415e-05
2.12813e-05
2.13173e-05
2.13495e-05
2.1378e-05
2.14029e-05
2.14244e-05
2.14427e-05
2.14579e-05
2.14704e-05
2.14802e-05
2.14877e-05
2.1493e-05
2.14964e-05
2.1498e-05
2.15837e-05
2.1606e-05
2.16367e-05
2.16734e-05
2.17144e-05
2.17578e-05
2.18023e-05
2.18468e-05
2.18902e-05
2.19319e-05
2.19714e-05
2.20083e-05
2.20424e-05
2.20735e-05
2.21016e-05
2.21267e-05
2.21488e-05
2.21682e-05
2.21849e-05
2.2199e-05
2.22108e-05
2.22204e-05
2.2228e-05
2.22338e-05
2.22379e-05
2.22405e-05
2.22417e-05
2.23664e-05
2.23839e-05
2.24079e-05
2.24366e-05
2.24686e-05
2.25024e-05
2.25371e-05
2.25717e-05
2.26054e-05
2.26378e-05
2.26684e-05
2.26969e-05
2.27232e-05
2.27472e-05
2.27688e-05
2.27881e-05
2.28051e-05
2.28199e-05
2.28326e-05
2.28434e-05
2.28524e-05
2.28597e-05
2.28655e-05
2.28699e-05
2.28729e-05
2.28749e-05
2.28758e-05
2.3028e-05
2.30415e-05
2.306e-05
2.30822e-05
2.31068e-05
2.31329e-05
2.31596e-05
2.31861e-05
2.32119e-05
2.32366e-05
2.326e-05
2.32817e-05
2.33016e-05
2.33198e-05
2.33361e-05
2.33506e-05
2.33634e-05
2.33745e-05
2.3384e-05
2.3392e-05
2.33987e-05
2.34041e-05
2.34084e-05
2.34116e-05
2.34139e-05
2.34153e-05
2.3416e-05
2.35872e-05
2.35975e-05
2.36116e-05
2.36284e-05
2.3647e-05
2.36667e-05
2.36868e-05
2.37067e-05
2.37261e-05
2.37446e-05
2.3762e-05
2.37781e-05
2.37928e-05
2.38062e-05
2.38182e-05
2.38288e-05
2.38381e-05
2.38461e-05
2.3853e-05
2.38588e-05
2.38636e-05
2.38675e-05
2.38705e-05
2.38728e-05
2.38744e-05
2.38754e-05
2.38758e-05
2.40602e-05
2.40678e-05
2.40782e-05
2.40906e-05
2.41044e-05
2.41188e-05
2.41335e-05
2.4148e-05
2.41621e-05
2.41754e-05
2.41879e-05
2.41994e-05
2.42099e-05
2.42194e-05
2.42278e-05
2.42352e-05
2.42416e-05
2.42472e-05
2.42519e-05
2.42558e-05
2.4259e-05
2.42616e-05
2.42636e-05
2.42651e-05
2.42662e-05
2.42669e-05
2.42672e-05
2.44603e-05
2.44657e-05
2.44731e-05
2.44819e-05
2.44916e-05
2.45017e-05
2.4512e-05
2.4522e-05
2.45317e-05
2.45408e-05
2.45492e-05
2.4557e-05
2.45639e-05
2.45701e-05
2.45756e-05
2.45803e-05
2.45844e-05
2.45879e-05
2.45908e-05
2.45932e-05
2.45952e-05
2.45967e-05
2.45979e-05
2.45987e-05
2.45993e-05
2.45997e-05
2.45999e-05
2.47988e-05
2.48024e-05
2.48073e-05
2.48131e-05
2.48194e-05
2.4826e-05
2.48325e-05
2.48389e-05
2.48449e-05
2.48505e-05
2.48556e-05
2.48601e-05
2.48641e-05
2.48677e-05
2.48707e-05
2.48732e-05
2.48754e-05
2.48771e-05
2.48785e-05
2.48797e-05
2.48805e-05
2.48812e-05
2.48817e-05
2.4882e-05
2.48822e-05
2.48824e-05
2.48824e-05
2.50849e-05
2.5087e-05
2.50898e-05
2.50931e-05
2.50966e-05
2.51002e-05
2.51037e-05
2.5107e-05
2.51099e-05
2.51126e-05
2.51149e-05
2.51168e-05
2.51184e-05
2.51196e-05
2.51206e-05
2.51213e-05
2.51218e-05
2.51221e-05
2.51223e-05
2.51224e-05
2.51224e-05
2.51223e-05
2.51222e-05
2.51221e-05
2.5122e-05
2.51219e-05
2.51219e-05
2.53264e-05
2.53272e-05
2.53283e-05
2.53295e-05
2.53307e-05
2.53318e-05
2.53327e-05
2.53334e-05
2.53338e-05
2.5334e-05
2.53339e-05
2.53336e-05
2.53331e-05
2.53325e-05
2.53318e-05
2.53309e-05
2.53301e-05
2.53292e-05
2.53283e-05
2.53275e-05
2.53267e-05
2.5326e-05
2.53254e-05
2.5325e-05
2.53246e-05
2.53243e-05
2.53242e-05
2.55297e-05
2.55295e-05
2.55291e-05
2.55285e-05
2.55277e-05
2.55267e-05
2.55254e-05
2.55239e-05
2.55222e-05
2.55203e-05
2.55182e-05
2.55161e-05
2.55139e-05
2.55116e-05
2.55094e-05
2.55073e-05
2.55053e-05
2.55034e-05
2.55016e-05
2.55e-05
2.54986e-05
2.54974e-05
2.54964e-05
2.54957e-05
2.54951e-05
2.54947e-05
2.54945e-05
2.57002e-05
2.5699e-05
2.56974e-05
2.56953e-05
2.56928e-05
2.569e-05
2.56869e-05
2.56835e-05
2.568e-05
2.56763e-05
2.56726e-05
2.56688e-05
2.56651e-05
2.56616e-05
2.56581e-05
2.56549e-05
2.56519e-05
2.56491e-05
2.56466e-05
2.56444e-05
2.56425e-05
2.56408e-05
2.56395e-05
2.56384e-05
2.56377e-05
2.56371e-05
2.56369e-05
2.58421e-05
2.58402e-05
2.58375e-05
2.58342e-05
2.58303e-05
2.58259e-05
2.58212e-05
2.58163e-05
2.58111e-05
2.5806e-05
2.58008e-05
2.57957e-05
2.57908e-05
2.57861e-05
2.57816e-05
2.57774e-05
2.57735e-05
2.577e-05
2.57669e-05
2.57641e-05
2.57617e-05
2.57597e-05
2.57581e-05
2.57568e-05
2.57559e-05
2.57553e-05
2.5755e-05
2.59594e-05
2.59568e-05
2.59532e-05
2.59487e-05
2.59436e-05
2.59379e-05
2.59319e-05
2.59256e-05
2.59191e-05
2.59126e-05
2.59062e-05
2.59e-05
2.5894e-05
2.58883e-05
2.58829e-05
2.58779e-05
2.58733e-05
2.58692e-05
2.58655e-05
2.58623e-05
2.58595e-05
2.58572e-05
2.58553e-05
2.58538e-05
2.58527e-05
2.5852e-05
2.58517e-05
2.60549e-05
2.60518e-05
2.60474e-05
2.6042e-05
2.60358e-05
2.60289e-05
2.60217e-05
2.60142e-05
2.60066e-05
2.59991e-05
2.59916e-05
2.59843e-05
2.59774e-05
2.59708e-05
2.59647e-05
2.5959e-05
2.59538e-05
2.59491e-05
2.5945e-05
2.59413e-05
2.59382e-05
2.59356e-05
2.59335e-05
2.59319e-05
2.59307e-05
2.59299e-05
2.59295e-05
2.61313e-05
2.61276e-05
2.61226e-05
2.61163e-05
2.61092e-05
2.61014e-05
2.60932e-05
2.60847e-05
2.60761e-05
2.60675e-05
2.60591e-05
2.6051e-05
2.60432e-05
2.60359e-05
2.60291e-05
2.60228e-05
2.60171e-05
2.60119e-05
2.60073e-05
2.60034e-05
2.6e-05
2.59971e-05
2.59948e-05
2.5993e-05
2.59917e-05
2.59909e-05
2.59905e-05
2.61906e-05
2.61865e-05
2.61808e-05
2.61739e-05
2.61659e-05
2.61573e-05
2.61481e-05
2.61387e-05
2.61292e-05
2.61198e-05
2.61106e-05
2.61017e-05
2.60932e-05
2.60853e-05
2.60778e-05
2.6071e-05
2.60648e-05
2.60592e-05
2.60543e-05
2.605e-05
2.60464e-05
2.60433e-05
2.60408e-05
2.60389e-05
2.60375e-05
2.60367e-05
2.60362e-05
2.62345e-05
2.623e-05
2.62238e-05
2.62162e-05
2.62075e-05
2.61981e-05
2.61881e-05
2.61779e-05
2.61676e-05
2.61575e-05
2.61475e-05
2.6138e-05
2.61288e-05
2.61203e-05
2.61123e-05
2.6105e-05
2.60984e-05
2.60925e-05
2.60872e-05
2.60826e-05
2.60787e-05
2.60755e-05
2.60729e-05
2.60709e-05
2.60694e-05
2.60685e-05
2.6068e-05
2.62643e-05
2.62594e-05
2.62527e-05
2.62445e-05
2.62352e-05
2.62251e-05
2.62144e-05
2.62035e-05
2.61925e-05
2.61816e-05
2.6171e-05
2.61608e-05
2.61511e-05
2.6142e-05
2.61336e-05
2.61258e-05
2.61188e-05
2.61125e-05
2.6107e-05
2.61022e-05
2.60981e-05
2.60947e-05
2.60919e-05
2.60898e-05
2.60882e-05
2.60873e-05
2.60868e-05
2.62809e-05
2.62757e-05
2.62686e-05
2.62598e-05
2.62499e-05
2.62391e-05
2.62278e-05
2.62162e-05
2.62045e-05
2.6193e-05
2.61817e-05
2.6171e-05
2.61607e-05
2.61511e-05
2.61423e-05
2.61341e-05
2.61267e-05
2.61201e-05
2.61143e-05
2.61092e-05
2.61049e-05
2.61014e-05
2.60985e-05
2.60963e-05
2.60947e-05
2.60936e-05
2.60931e-05
2.62849e-05
2.62795e-05
2.62719e-05
2.62626e-05
2.62521e-05
2.62407e-05
2.62287e-05
2.62165e-05
2.62042e-05
2.6192e-05
2.61802e-05
2.61689e-05
2.61581e-05
2.6148e-05
2.61387e-05
2.61302e-05
2.61224e-05
2.61155e-05
2.61095e-05
2.61042e-05
2.60997e-05
2.6096e-05
2.6093e-05
2.60906e-05
2.6089e-05
2.60879e-05
2.60874e-05
2.62767e-05
2.62709e-05
2.62629e-05
2.62531e-05
2.62421e-05
2.623e-05
2.62174e-05
2.62045e-05
2.61916e-05
2.61788e-05
2.61664e-05
2.61546e-05
2.61433e-05
2.61328e-05
2.6123e-05
2.61141e-05
2.6106e-05
2.60988e-05
2.60924e-05
2.60869e-05
2.60822e-05
2.60783e-05
2.60752e-05
2.60728e-05
2.60711e-05
2.60699e-05
2.60694e-05
2.6256e-05
2.625e-05
2.62415e-05
2.62312e-05
2.62196e-05
2.6207e-05
2.61937e-05
2.61802e-05
2.61666e-05
2.61532e-05
2.61402e-05
2.61277e-05
2.61159e-05
2.61049e-05
2.60947e-05
2.60853e-05
2.60769e-05
2.60694e-05
2.60627e-05
2.6057e-05
2.60521e-05
2.60481e-05
2.60448e-05
2.60423e-05
2.60405e-05
2.60393e-05
2.60388e-05
2.62225e-05
2.62161e-05
2.62072e-05
2.61964e-05
2.61842e-05
2.61709e-05
2.61569e-05
2.61427e-05
2.61284e-05
2.61144e-05
2.61007e-05
2.60877e-05
2.60753e-05
2.60637e-05
2.6053e-05
2.60433e-05
2.60344e-05
2.60266e-05
2.60196e-05
2.60136e-05
2.60085e-05
2.60043e-05
2.60009e-05
2.59983e-05
2.59964e-05
2.59952e-05
2.59946e-05
2.61752e-05
2.61685e-05
2.61591e-05
2.61477e-05
2.61348e-05
2.61208e-05
2.61061e-05
2.60911e-05
2.60761e-05
2.60613e-05
2.60469e-05
2.60332e-05
2.60202e-05
2.60081e-05
2.59968e-05
2.59866e-05
2.59773e-05
2.5969e-05
2.59618e-05
2.59555e-05
2.59501e-05
2.59457e-05
2.59422e-05
2.59394e-05
2.59374e-05
2.59362e-05
2.59356e-05
2.61128e-05
2.61056e-05
2.60957e-05
2.60837e-05
2.607e-05
2.60552e-05
2.60397e-05
2.60238e-05
2.60079e-05
2.59923e-05
2.59772e-05
2.59627e-05
2.5949e-05
2.59361e-05
2.59243e-05
2.59135e-05
2.59037e-05
2.5895e-05
2.58874e-05
2.58807e-05
2.58751e-05
2.58705e-05
2.58667e-05
2.58638e-05
2.58618e-05
2.58604e-05
2.58598e-05
2.60333e-05
2.60257e-05
2.60151e-05
2.60023e-05
2.59878e-05
2.5972e-05
2.59555e-05
2.59387e-05
2.59219e-05
2.59053e-05
2.58892e-05
2.58738e-05
2.58593e-05
2.58457e-05
2.58331e-05
2.58216e-05
2.58113e-05
2.58021e-05
2.5794e-05
2.57869e-05
2.5781e-05
2.57761e-05
2.57721e-05
2.57691e-05
2.57669e-05
2.57655e-05
2.57648e-05
2.59341e-05
2.5926e-05
2.59147e-05
2.5901e-05
2.58855e-05
2.58686e-05
2.5851e-05
2.5833e-05
2.5815e-05
2.57973e-05
2.57801e-05
2.57637e-05
2.57481e-05
2.57336e-05
2.57202e-05
2.5708e-05
2.56969e-05
2.56871e-05
2.56785e-05
2.5671e-05
2.56646e-05
2.56594e-05
2.56552e-05
2.56519e-05
2.56496e-05
2.56481e-05
2.56474e-05
2.58121e-05
2.58034e-05
2.57913e-05
2.57765e-05
2.57597e-05
2.57416e-05
2.57226e-05
2.57032e-05
2.56839e-05
2.56648e-05
2.56463e-05
2.56286e-05
2.56119e-05
2.55963e-05
2.55818e-05
2.55687e-05
2.55568e-05
2.55462e-05
2.55369e-05
2.55289e-05
2.55221e-05
2.55165e-05
2.55119e-05
2.55085e-05
2.55059e-05
2.55043e-05
2.55036e-05
2.56633e-05
2.56538e-05
2.56406e-05
2.56245e-05
2.56063e-05
2.55867e-05
2.55661e-05
2.5545e-05
2.5524e-05
2.55033e-05
2.54832e-05
2.5464e-05
2.54459e-05
2.54289e-05
2.54133e-05
2.5399e-05
2.53862e-05
2.53747e-05
2.53646e-05
2.53559e-05
2.53485e-05
2.53424e-05
2.53375e-05
2.53338e-05
2.5331e-05
2.53293e-05
2.53285e-05
2.54825e-05
2.54721e-05
2.54577e-05
2.54401e-05
2.54202e-05
2.53987e-05
2.53761e-05
2.53531e-05
2.533e-05
2.53074e-05
2.52854e-05
2.52644e-05
2.52446e-05
2.5226e-05
2.52089e-05
2.51933e-05
2.51792e-05
2.51667e-05
2.51557e-05
2.51462e-05
2.51381e-05
2.51315e-05
2.51261e-05
2.5122e-05
2.5119e-05
2.51171e-05
2.51162e-05
2.5264e-05
2.52525e-05
2.52366e-05
2.52172e-05
2.51952e-05
2.51714e-05
2.51465e-05
2.51211e-05
2.50957e-05
2.50706e-05
2.50464e-05
2.50232e-05
2.50013e-05
2.49809e-05
2.4962e-05
2.49448e-05
2.49292e-05
2.49154e-05
2.49033e-05
2.48928e-05
2.48839e-05
2.48766e-05
2.48707e-05
2.48661e-05
2.48629e-05
2.48608e-05
2.48598e-05
2.50006e-05
2.49878e-05
2.49701e-05
2.49485e-05
2.4924e-05
2.48976e-05
2.48699e-05
2.48416e-05
2.48133e-05
2.47855e-05
2.47585e-05
2.47327e-05
2.47084e-05
2.46856e-05
2.46646e-05
2.46455e-05
2.46282e-05
2.46129e-05
2.45994e-05
2.45877e-05
2.45778e-05
2.45697e-05
2.45631e-05
2.45581e-05
2.45544e-05
2.45521e-05
2.4551e-05
2.46842e-05
2.46699e-05
2.465e-05
2.46258e-05
2.45984e-05
2.45688e-05
2.45377e-05
2.45061e-05
2.44744e-05
2.44432e-05
2.4413e-05
2.43841e-05
2.43568e-05
2.43313e-05
2.43078e-05
2.42864e-05
2.42671e-05
2.42499e-05
2.42348e-05
2.42217e-05
2.42107e-05
2.42016e-05
2.41942e-05
2.41886e-05
2.41845e-05
2.41819e-05
2.41807e-05
2.43055e-05
2.42894e-05
2.4267e-05
2.42398e-05
2.42089e-05
2.41755e-05
2.41405e-05
2.41048e-05
2.40691e-05
2.4034e-05
2.39999e-05
2.39674e-05
2.39367e-05
2.3908e-05
2.38816e-05
2.38574e-05
2.38357e-05
2.38163e-05
2.37993e-05
2.37847e-05
2.37722e-05
2.37619e-05
2.37537e-05
2.37474e-05
2.37428e-05
2.37399e-05
2.37385e-05
2.38544e-05
2.38362e-05
2.38108e-05
2.378e-05
2.37451e-05
2.37073e-05
2.36677e-05
2.36273e-05
2.35869e-05
2.35472e-05
2.35087e-05
2.34719e-05
2.34372e-05
2.34048e-05
2.33749e-05
2.33476e-05
2.3323e-05
2.33012e-05
2.3282e-05
2.32654e-05
2.32514e-05
2.32398e-05
2.32305e-05
2.32233e-05
2.32182e-05
2.32149e-05
2.32133e-05
2.33199e-05
2.32992e-05
2.32705e-05
2.32355e-05
2.31959e-05
2.3153e-05
2.31082e-05
2.30624e-05
2.30166e-05
2.29716e-05
2.2928e-05
2.28864e-05
2.2847e-05
2.28103e-05
2.27765e-05
2.27456e-05
2.27178e-05
2.26931e-05
2.26714e-05
2.26527e-05
2.26368e-05
2.26237e-05
2.26132e-05
2.26051e-05
2.25993e-05
2.25956e-05
2.25938e-05
2.26909e-05
2.26674e-05
2.26348e-05
2.25952e-05
2.25503e-05
2.25017e-05
2.24509e-05
2.2399e-05
2.23472e-05
2.22962e-05
2.22468e-05
2.21997e-05
2.21552e-05
2.21137e-05
2.20754e-05
2.20405e-05
2.20091e-05
2.19811e-05
2.19566e-05
2.19355e-05
2.19176e-05
2.19028e-05
2.18909e-05
2.18818e-05
2.18752e-05
2.18711e-05
2.18691e-05
2.19569e-05
2.19303e-05
2.18935e-05
2.18487e-05
2.17979e-05
2.1743e-05
2.16856e-05
2.1627e-05
2.15684e-05
2.15109e-05
2.14552e-05
2.14021e-05
2.13519e-05
2.13051e-05
2.1262e-05
2.12226e-05
2.11873e-05
2.11558e-05
2.11282e-05
2.11044e-05
2.10843e-05
2.10676e-05
2.10543e-05
2.10441e-05
2.10367e-05
2.1032e-05
2.10298e-05
2.11092e-05
2.10793e-05
2.10379e-05
2.09875e-05
2.09304e-05
2.08687e-05
2.08042e-05
2.07384e-05
2.06727e-05
2.06082e-05
2.05458e-05
2.04862e-05
2.04299e-05
2.03775e-05
2.03292e-05
2.02853e-05
2.02457e-05
2.02105e-05
2.01797e-05
2.01531e-05
2.01306e-05
2.0112e-05
2.00971e-05
2.00857e-05
2.00775e-05
2.00723e-05
2.00698e-05
2.01423e-05
2.0109e-05
2.00628e-05
2.00066e-05
1.9943e-05
1.98743e-05
1.98025e-05
1.97293e-05
1.96563e-05
1.95845e-05
1.95152e-05
1.9449e-05
1.93866e-05
1.93285e-05
1.9275e-05
1.92263e-05
1.91825e-05
1.91435e-05
1.91094e-05
1.908e-05
1.90552e-05
1.90346e-05
1.90182e-05
1.90055e-05
1.89965e-05
1.89907e-05
1.8988e-05
1.90559e-05
1.90192e-05
1.89683e-05
1.89064e-05
1.88364e-05
1.87608e-05
1.86819e-05
1.86015e-05
1.85213e-05
1.84426e-05
1.83666e-05
1.82941e-05
1.82258e-05
1.81622e-05
1.81037e-05
1.80504e-05
1.80025e-05
1.796e-05
1.79228e-05
1.78908e-05
1.78637e-05
1.78413e-05
1.78234e-05
1.78096e-05
1.77998e-05
1.77935e-05
1.77905e-05
1.78567e-05
1.78169e-05
1.77617e-05
1.76946e-05
1.76188e-05
1.7537e-05
1.74516e-05
1.73647e-05
1.72781e-05
1.71932e-05
1.71113e-05
1.70331e-05
1.69596e-05
1.68912e-05
1.68284e-05
1.67712e-05
1.67198e-05
1.66742e-05
1.66343e-05
1.66e-05
1.6571e-05
1.6547e-05
1.65278e-05
1.65131e-05
1.65026e-05
1.64959e-05
1.64927e-05
1.65606e-05
1.65182e-05
1.64595e-05
1.63882e-05
1.63076e-05
1.62208e-05
1.61303e-05
1.60383e-05
1.59466e-05
1.58569e-05
1.57703e-05
1.56879e-05
1.56104e-05
1.55384e-05
1.54722e-05
1.54121e-05
1.53581e-05
1.53103e-05
1.52685e-05
1.52325e-05
1.5202e-05
1.5177e-05
1.51569e-05
1.51415e-05
1.51305e-05
1.51235e-05
1.51202e-05
1.51925e-05
1.51485e-05
1.50874e-05
1.50134e-05
1.49298e-05
1.48398e-05
1.47461e-05
1.46509e-05
1.45562e-05
1.44636e-05
1.43743e-05
1.42894e-05
1.42097e-05
1.41357e-05
1.40678e-05
1.40061e-05
1.39508e-05
1.39018e-05
1.3859e-05
1.38221e-05
1.37911e-05
1.37655e-05
1.3745e-05
1.37293e-05
1.37181e-05
1.37109e-05
1.37075e-05
1.37861e-05
1.37414e-05
1.36795e-05
1.36045e-05
1.35199e-05
1.3429e-05
1.33343e-05
1.32382e-05
1.31428e-05
1.30496e-05
1.29598e-05
1.28746e-05
1.27946e-05
1.27204e-05
1.26524e-05
1.25907e-05
1.25354e-05
1.24864e-05
1.24437e-05
1.2407e-05
1.2376e-05
1.23505e-05
1.23301e-05
1.23144e-05
1.23033e-05
1.22961e-05
1.22928e-05
1.23778e-05
1.23335e-05
1.22721e-05
1.21978e-05
1.21141e-05
1.2024e-05
1.19304e-05
1.18355e-05
1.17413e-05
1.16493e-05
1.15608e-05
1.14768e-05
1.1398e-05
1.13249e-05
1.1258e-05
1.11972e-05
1.11427e-05
1.10945e-05
1.10523e-05
1.10161e-05
1.09854e-05
1.09601e-05
1.09398e-05
1.09243e-05
1.09131e-05
1.0906e-05
1.09027e-05
1.09989e-05
1.09555e-05
1.08954e-05
1.08225e-05
1.07403e-05
1.06518e-05
1.05595e-05
1.04658e-05
1.03729e-05
1.02821e-05
1.0195e-05
1.01123e-05
1.00348e-05
9.96308e-06
9.89736e-06
9.83784e-06
9.78455e-06
9.73742e-06