/*--------------------------------*- C++ -*----------------------------------*\
| =========                 |                                                 |
| \\      /  F ield         | OpenFOAM: The Open Source CFD Toolbox           |
|  \\    /   O peration     | Version:  2106                                  |
|   \\  /    A nd           | Website:  www.openfoam.com                      |
|    \\/     M anipulation  |                                                 |
\*---------------------------------------------------------------------------*/
FoamFile
{
    version     2.0;
    format      ascii;
    arch        "LSB;label=32;scalar=64";
    class       volScalarField;
    location    "150.00049";
    object      C4H2_0;
}
// * * * * * * * * * * * * * * * * * * * * * * * * * * * * * * * * * * * * * //

dimensions      [0 0 0 0 0 0 0];

internalField   nonuniform List<scalar> 
3360
(
3.5031e-18
3.61584e-18
3.77272e-18
3.96461e-18
4.18353e-18
4.42228e-18
4.67437e-18
4.93396e-18
5.19583e-18
5.45538e-18
5.70862e-18
5.95215e-18
6.1832e-18
6.39952e-18
6.59943e-18
6.78173e-18
6.94571e-18
7.09105e-18
7.2178e-18
7.32636e-18
7.41736e-18
7.49168e-18
7.55039e-18
7.59468e-18
7.62583e-18
7.64521e-18
7.65421e-18
1.53672e-17
1.59321e-17
1.67292e-17
1.77218e-17
1.88796e-17
2.01761e-17
2.15875e-17
2.30921e-17
2.46698e-17
2.63015e-17
2.79689e-17
2.96542e-17
3.13398e-17
3.30084e-17
3.46429e-17
3.62267e-17
3.77432e-17
3.91765e-17
4.05114e-17
4.17337e-17
4.28301e-17
4.37891e-17
4.46008e-17
4.52573e-17
4.57527e-17
4.60835e-17
4.62485e-17
4.82184e-17
5.03347e-17
5.33419e-17
5.71206e-17
6.15719e-17
6.66067e-17
7.21406e-17
7.809e-17
8.43707e-17
9.08964e-17
9.75793e-17
1.04332e-16
1.11067e-16
1.17701e-16
1.24149e-16
1.30333e-16
1.36182e-16
1.41629e-16
1.46618e-16
1.51103e-16
1.55046e-16
1.58423e-16
1.61218e-16
1.63428e-16
1.65057e-16
1.66119e-16
1.66636e-16
1.40429e-16
1.47404e-16
1.57382e-16
1.70006e-16
1.84978e-16
2.02018e-16
2.20847e-16
2.41174e-16
2.62697e-16
2.85096e-16
3.08041e-16
3.31197e-16
3.54229e-16
3.76814e-16
3.98643e-16
4.19433e-16
4.38934e-16
4.56933e-16
4.73258e-16
4.87782e-16
5.00418e-16
5.11123e-16
5.1989e-16
5.26747e-16
5.31751e-16
5.34982e-16
5.36541e-16
4.10289e-16
4.32294e-16
4.63833e-16
5.03827e-16
5.51363e-16
6.05562e-16
6.6552e-16
7.30282e-16
7.98825e-16
8.70074e-16
9.42918e-16
1.01624e-15
1.08892e-15
1.15994e-15
1.2283e-15
1.29314e-15
1.3537e-15
1.40937e-15
1.45967e-15
1.50424e-15
1.54289e-15
1.57552e-15
1.60217e-15
1.62295e-15
1.63808e-15
1.64782e-15
1.65251e-15
1.20973e-15
1.27731e-15
1.37428e-15
1.49736e-15
1.64374e-15
1.81067e-15
1.99536e-15
2.19477e-15
2.40571e-15
2.6248e-15
2.84856e-15
3.07347e-15
3.29614e-15
3.51331e-15
3.72201e-15
3.9196e-15
4.10383e-15
4.27286e-15
4.42529e-15
4.56016e-15
4.67689e-15
4.77529e-15
4.85552e-15
4.91801e-15
4.96343e-15
4.99266e-15
5.00671e-15
3.59356e-15
3.7989e-15
4.09356e-15
4.46757e-15
4.91233e-15
5.41944e-15
5.98022e-15
6.58539e-15
7.22508e-15
7.88892e-15
8.56627e-15
9.24649e-15
9.91923e-15
1.05747e-14
1.12041e-14
1.17994e-14
1.2354e-14
1.28625e-14
1.33208e-14
1.3726e-14
1.40765e-14
1.43719e-14
1.46127e-14
1.48002e-14
1.49364e-14
1.5024e-14
1.50662e-14
1.07099e-14
1.13278e-14
1.22149e-14
1.33412e-14
1.4681e-14
1.62088e-14
1.78984e-14
1.97217e-14
2.16486e-14
2.36478e-14
2.56871e-14
2.77343e-14
2.97582e-14
3.17295e-14
3.36213e-14
3.54101e-14
3.70757e-14
3.86021e-14
3.99772e-14
4.11925e-14
4.22434e-14
4.31286e-14
4.38497e-14
4.4411e-14
4.48188e-14
4.5081e-14
4.52071e-14
3.20032e-14
3.38601e-14
3.65256e-14
3.99095e-14
4.3934e-14
4.85227e-14
5.3596e-14
5.9069e-14
6.48514e-14
7.08485e-14
7.69637e-14
8.31005e-14
8.91654e-14
9.50705e-14
1.00736e-13
1.06091e-13
1.11077e-13
1.15645e-13
1.19759e-13
1.23395e-13
1.26539e-13
1.29187e-13
1.31344e-13
1.33023e-13
1.34242e-13
1.35027e-13
1.35404e-13
9.56317e-14
1.01193e-13
1.09177e-13
1.19314e-13
1.3137e-13
1.45116e-13
1.60313e-13
1.76706e-13
1.94023e-13
2.11981e-13
2.3029e-13
2.4866e-13
2.66811e-13
2.8448e-13
3.01428e-13
3.17445e-13
3.32353e-13
3.46008e-13
3.58304e-13
3.69167e-13
3.78558e-13
3.86466e-13
3.92906e-13
3.97918e-13
4.01558e-13
4.03898e-13
4.05023e-13
2.85891e-13
3.02537e-13
3.26431e-13
3.56761e-13
3.92825e-13
4.33934e-13
4.79369e-13
5.28366e-13
5.80109e-13
6.3375e-13
6.88419e-13
7.43252e-13
7.97415e-13
8.50124e-13
9.00667e-13
9.48418e-13
9.92852e-13
1.03354e-12
1.07018e-12
1.10254e-12
1.13051e-12
1.15406e-12
1.17324e-12
1.18816e-12
1.19899e-12
1.20596e-12
1.20931e-12
8.53789e-13
9.0348e-13
9.748e-13
1.06532e-12
1.17293e-12
1.29556e-12
1.43106e-12
1.57714e-12
1.73135e-12
1.89116e-12
2.05397e-12
2.21721e-12
2.37839e-12
2.53518e-12
2.68547e-12
2.82741e-12
2.95943e-12
3.08029e-12
3.18906e-12
3.28511e-12
3.3681e-12
3.43795e-12
3.49481e-12
3.53904e-12
3.57116e-12
3.59181e-12
3.60172e-12
2.54675e-12
2.69481e-12
2.90725e-12
3.17675e-12
3.49698e-12
3.86171e-12
4.26447e-12
4.69838e-12
5.15617e-12
5.63024e-12
6.11291e-12
6.59651e-12
7.07371e-12
7.53761e-12
7.98202e-12
8.40148e-12
8.79143e-12
9.14824e-12
9.46919e-12
9.75249e-12
9.99717e-12
1.0203e-11
1.03706e-11
1.05009e-11
1.05955e-11
1.06562e-11
1.06854e-11
7.57363e-12
8.01275e-12
8.64256e-12
9.44117e-12
1.03895e-11
1.14689e-11
1.266e-11
1.39421e-11
1.52936e-11
1.66919e-11
1.81143e-11
1.95381e-11
2.09418e-11
2.23051e-11
2.36099e-11
2.48405e-11
2.59835e-11
2.70285e-11
2.79678e-11
2.87963e-11
2.95114e-11
3.01126e-11
3.06017e-11
3.09818e-11
3.12576e-11
3.14348e-11
3.15199e-11
2.24388e-11
2.37338e-11
2.559e-11
2.79418e-11
3.07317e-11
3.39037e-11
3.73995e-11
4.11577e-11
4.51139e-11
4.92016e-11
5.33537e-11
5.75043e-11
6.15904e-11
6.55537e-11
6.93421e-11
7.29103e-11
7.62208e-11
7.92441e-11
8.19588e-11
8.43509e-11
8.64138e-11
8.81469e-11
8.95556e-11
9.06498e-11
9.14432e-11
9.19526e-11
9.21971e-11
6.60863e-11
6.98694e-11
7.52871e-11
8.21435e-11
9.02668e-11
9.94885e-11
1.09635e-10
1.20525e-10
1.31967e-10
1.43768e-10
1.55732e-10
1.6767e-10
1.79401e-10
1.90759e-10
2.01596e-10
2.11787e-10
2.21226e-10
2.29833e-10
2.37551e-10
2.44342e-10
2.50191e-10
2.55099e-10
2.59085e-10
2.62177e-10
2.64417e-10
2.65855e-10
2.66544e-10
1.9313e-10
2.04042e-10
2.19648e-10
2.39368e-10
2.62688e-10
2.89105e-10
3.18106e-10
3.49154e-10
3.81698e-10
4.15176e-10
4.49032e-10
4.82727e-10
5.15757e-10
5.47659e-10
5.78029e-10
6.06523e-10
6.32861e-10
6.5683e-10
6.78281e-10
6.97125e-10
7.13329e-10
7.26908e-10
7.37918e-10
7.46451e-10
7.52626e-10
7.56584e-10
7.5848e-10
5.58511e-10
5.89427e-10
6.33575e-10
6.8924e-10
7.54902e-10
8.29079e-10
9.10264e-10
9.96908e-10
1.08743e-09
1.18025e-09
1.2738e-09
1.36661e-09
1.4573e-09
1.54463e-09
1.62752e-09
1.70508e-09
1.77658e-09
1.84149e-09
1.89945e-09
1.95025e-09
1.99386e-09
2.03033e-09
2.05986e-09
2.08271e-09
2.09923e-09
2.1098e-09
2.11486e-09
1.59333e-09
1.6789e-09
1.80083e-09
1.95415e-09
2.13442e-09
2.33734e-09
2.55858e-09
2.79376e-09
3.03847e-09
3.28835e-09
3.53921e-09
3.78709e-09
4.02839e-09
4.25991e-09
4.4789e-09
4.68313e-09
4.87083e-09
5.04075e-09
5.19207e-09
5.32441e-09
5.43773e-09
5.53233e-09
5.60877e-09
5.66783e-09
5.71045e-09
5.7377e-09
5.75073e-09
4.46629e-09
4.6961e-09
5.02271e-09
5.43204e-09
5.91144e-09
6.44875e-09
7.03189e-09
7.64883e-09
8.2877e-09
8.93699e-09
9.58579e-09
1.0224e-08
1.08426e-08
1.14336e-08
1.19905e-08
1.2508e-08
1.2982e-08
1.34097e-08
1.37896e-08
1.41209e-08
1.44039e-08
1.46396e-08
1.48297e-08
1.49764e-08
1.5082e-08
1.51495e-08
1.51817e-08
1.22464e-08
1.28413e-08
1.36843e-08
1.47366e-08
1.59636e-08
1.7332e-08
1.88094e-08
2.03643e-08
2.19659e-08
2.35852e-08
2.5195e-08
2.67709e-08
2.82913e-08
2.97376e-08
3.10949e-08
3.23512e-08
3.3498e-08
3.45295e-08
3.54428e-08
3.62373e-08
3.69143e-08
3.7477e-08
3.79299e-08
3.82786e-08
3.85294e-08
3.86894e-08
3.87657e-08
3.26791e-08
3.41543e-08
3.62378e-08
3.88281e-08
4.18339e-08
4.51688e-08
4.875e-08
5.24982e-08
5.63379e-08
6.01994e-08
6.40186e-08
6.77391e-08
7.13119e-08
7.46961e-08
7.78591e-08
8.07761e-08
8.34296e-08
8.58089e-08
8.79095e-08
8.9732e-08
9.12815e-08
9.25666e-08
9.35991e-08
9.43927e-08
9.49628e-08
9.53258e-08
9.54987e-08
8.44357e-08
8.79251e-08
9.28375e-08
9.89197e-08
1.05944e-07
1.13698e-07
1.21982e-07
1.30605e-07
1.39393e-07
1.48186e-07
1.56841e-07
1.65233e-07
1.73258e-07
1.80829e-07
1.87878e-07
1.94357e-07
2.00233e-07
2.05487e-07
2.10113e-07
2.14117e-07
2.17514e-07
2.20327e-07
2.22582e-07
2.24314e-07
2.25555e-07
2.26345e-07
2.26721e-07
2.10284e-07
2.18146e-07
2.29181e-07
2.42795e-07
2.5845e-07
2.75653e-07
2.93943e-07
3.12895e-07
3.3212e-07
3.51271e-07
3.70041e-07
3.8817e-07
4.0544e-07
4.21677e-07
4.36748e-07
4.50559e-07
4.6305e-07
4.74192e-07
4.83981e-07
4.92438e-07
4.996e-07
5.05519e-07
5.1026e-07
5.13893e-07
5.16497e-07
5.18152e-07
5.18938e-07
5.03133e-07
5.20042e-07
5.43721e-07
5.72841e-07
6.06214e-07
6.4275e-07
6.81447e-07
7.21394e-07
7.61767e-07
8.01842e-07
8.40991e-07
8.78682e-07
9.14484e-07
9.48053e-07
9.79136e-07
1.00756e-06
1.0332e-06
1.05604e-06
1.07607e-06
1.09335e-06
1.10796e-06
1.12002e-06
1.12967e-06
1.13705e-06
1.14234e-06
1.1457e-06
1.1473e-06
1.15423e-06
1.18912e-06
1.23791e-06
1.29777e-06
1.36621e-06
1.44095e-06
1.5199e-06
1.6012e-06
1.68317e-06
1.76435e-06
1.84348e-06
1.91952e-06
1.99162e-06
2.05912e-06
2.12152e-06
2.1785e-06
2.22987e-06
2.27556e-06
2.31559e-06
2.3501e-06
2.37926e-06
2.40331e-06
2.42255e-06
2.43727e-06
2.4478e-06
2.45449e-06
2.45766e-06
2.53566e-06
2.60519e-06
2.70231e-06
2.82137e-06
2.95734e-06
3.10566e-06
3.2622e-06
3.42324e-06
3.58548e-06
3.74607e-06
3.90255e-06
4.05288e-06
4.1954e-06
4.32883e-06
4.45222e-06
4.56493e-06
4.66658e-06
4.75702e-06
4.83633e-06
4.90472e-06
4.96255e-06
5.0103e-06
5.0485e-06
5.07776e-06
5.09871e-06
5.11202e-06
5.11834e-06
5.32563e-06
5.45989e-06
5.64742e-06
5.87735e-06
6.14002e-06
6.42668e-06
6.72944e-06
7.04119e-06
7.35565e-06
7.66732e-06
7.9715e-06
8.26424e-06
8.54232e-06
8.8032e-06
9.04498e-06
9.26632e-06
9.46642e-06
9.64489e-06
9.80176e-06
9.93737e-06
1.00523e-05
1.01474e-05
1.02237e-05
1.02823e-05
1.03243e-05
1.03511e-05
1.03638e-05
1.06616e-05
1.09116e-05
1.12609e-05
1.16895e-05
1.21798e-05
1.27156e-05
1.32823e-05
1.38671e-05
1.44582e-05
1.50454e-05
1.562e-05
1.61744e-05
1.67025e-05
1.71995e-05
1.76614e-05
1.80855e-05
1.84701e-05
1.88141e-05
1.91174e-05
1.93804e-05
1.9604e-05
1.97896e-05
1.99389e-05
2.00538e-05
2.01365e-05
2.01892e-05
2.02144e-05
2.02433e-05
2.06843e-05
2.13009e-05
2.2058e-05
2.29244e-05
2.3872e-05
2.48753e-05
2.59116e-05
2.69602e-05
2.80034e-05
2.90254e-05
3.00129e-05
3.0955e-05
3.18427e-05
3.26691e-05
3.34291e-05
3.41192e-05
3.47376e-05
3.52836e-05
3.57577e-05
3.61614e-05
3.64969e-05
3.67672e-05
3.69755e-05
3.71257e-05
3.72217e-05
3.72676e-05
3.62173e-05
3.69377e-05
3.79443e-05
3.91792e-05
4.0591e-05
4.21336e-05
4.37651e-05
4.54482e-05
4.71493e-05
4.88395e-05
5.04934e-05
5.20896e-05
5.36106e-05
5.50421e-05
5.63733e-05
5.75962e-05
5.87056e-05
5.96988e-05
6.0575e-05
6.13352e-05
6.19821e-05
6.25195e-05
6.2952e-05
6.32854e-05
6.35256e-05
6.3679e-05
6.37524e-05
6.069e-05
6.1759e-05
6.32501e-05
6.50754e-05
6.71568e-05
6.94243e-05
7.1815e-05
7.42729e-05
7.67489e-05
7.92002e-05
8.15906e-05
8.38896e-05
8.60728e-05
8.81207e-05
9.00189e-05
9.17573e-05
9.33298e-05
9.47334e-05
9.59684e-05
9.70372e-05
9.79445e-05
9.86965e-05
9.93006e-05
9.97653e-05
0.000100099
0.000100313
0.000100414
9.49912e-05
9.64239e-05
9.84177e-05
0.000100851
0.000103615
0.000106615
0.000109764
0.000112987
0.000116219
0.000119404
0.000122495
0.000125454
0.000128252
0.000130865
0.000133276
0.000135476
0.000137457
0.00013922
0.000140765
0.000142098
0.000143227
0.000144159
0.000144906
0.000145479
0.00014589
0.000146152
0.000146276
0.000139149
0.000140896
0.000143321
0.000146271
0.000149611
0.00015322
0.000156992
0.000160835
0.000164671
0.000168433
0.000172067
0.00017553
0.00017879
0.000181821
0.000184607
0.000187138
0.000189411
0.000191424
0.000193184
0.000194697
0.000195974
0.000197026
0.000197867
0.000198511
0.000198971
0.000199264
0.000199403
0.000191945
0.000193914
0.000196643
0.000199953
0.000203688
0.00020771
0.000211899
0.000216149
0.000220375
0.000224503
0.000228476
0.000232249
0.000235786
0.000239064
0.000242067
0.000244788
0.000247222
0.000249374
0.000251249
0.000252858
0.000254212
0.000255326
0.000256215
0.000256894
0.000257379
0.000257687
0.000257833
0.000251458
0.000253551
0.000256448
0.000259954
0.000263902
0.000268142
0.000272545
0.000277002
0.00028142
0.000285725
0.000289857
0.00029377
0.000297431
0.000300816
0.00030391
0.000306707
0.000309206
0.000311411
0.000313329
0.000314973
0.000316355
0.00031749
0.000318395
0.000319085
0.000319578
0.000319891
0.000320039
0.000315687
0.000317826
0.000320782
0.000324357
0.000328377
0.000332688
0.000337157
0.000341674
0.000346144
0.000350494
0.000354663
0.000358605
0.000362289
0.000365691
0.000368798
0.000371604
0.000374109
0.000376317
0.000378237
0.000379881
0.000381263
0.000382397
0.000383301
0.000383991
0.000384483
0.000384795
0.000384943
0.000382951
0.000385087
0.000388036
0.000391601
0.000395607
0.0003999
0.000404348
0.00040884
0.000413284
0.000417605
0.000421744
0.000425657
0.000429312
0.000432686
0.000435767
0.000438549
0.000441032
0.000443221
0.000445124
0.000446754
0.000448123
0.000449248
0.000450144
0.000450828
0.000451316
0.000451625
0.000451772
0.000452024
0.000454131
0.000457041
0.000460558
0.000464509
0.000468743
0.00047313
0.000477561
0.000481943
0.000486205
0.000490288
0.000494149
0.000497755
0.000501085
0.000504127
0.000506873
0.000509325
0.000511488
0.000513369
0.00051498
0.000516334
0.000517446
0.000518333
0.00051901
0.000519493
0.000519799
0.000519945
0.000522085
0.000524155
0.000527016
0.000530473
0.000534357
0.000538521
0.000542837
0.000547197
0.000551511
0.000555707
0.000559729
0.000563534
0.000567089
0.000570373
0.000573374
0.000576085
0.000578507
0.000580643
0.000582502
0.000584094
0.000585434
0.000586535
0.000587412
0.000588082
0.000588561
0.000588864
0.000589008
0.000592618
0.000594652
0.000597464
0.000600864
0.000604685
0.000608782
0.00061303
0.000617323
0.000621573
0.000625709
0.000629675
0.000633429
0.000636937
0.000640181
0.000643145
0.000645824
0.000648218
0.000650331
0.000652171
0.000653747
0.000655073
0.000656164
0.000657033
0.000657697
0.000658172
0.000658473
0.000658616
0.000663307
0.000665311
0.00066808
0.000671429
0.000675195
0.000679235
0.000683424
0.00068766
0.000691855
0.00069594
0.000699858
0.000703567
0.000707036
0.000710244
0.000713177
0.00071583
0.0007182
0.000720293
0.000722116
0.000723678
0.000724993
0.000726074
0.000726937
0.000727596
0.000728067
0.000728365
0.000728507
0.000733965
0.000735943
0.000738677
0.000741984
0.000745704
0.000749695
0.000753836
0.000758024
0.000762174
0.000766215
0.000770093
0.000773765
0.000777201
0.000780379
0.000783286
0.000785916
0.000788266
0.000790342
0.00079215
0.000793701
0.000795006
0.000796079
0.000796936
0.00079759
0.000798058
0.000798355
0.000798496
0.000804479
0.000806436
0.000809141
0.000812414
0.000816095
0.000820047
0.000824148
0.000828296
0.000832407
0.000836412
0.000840257
0.000843899
0.000847307
0.00085046
0.000853344
0.000855954
0.000858287
0.000860348
0.000862144
0.000863684
0.000864981
0.000866047
0.000866898
0.000867549
0.000868014
0.000868309
0.000868449
0.000874782
0.000876721
0.000879402
0.000882647
0.000886297
0.000890215
0.000894283
0.000898398
0.000902477
0.000906452
0.000910268
0.000913883
0.000917267
0.000920399
0.000923264
0.000925856
0.000928175
0.000930223
0.000932008
0.000933539
0.000934828
0.000935888
0.000936734
0.000937381
0.000937843
0.000938137
0.000938276
0.000944834
0.000946759
0.00094942
0.00095264
0.000956264
0.000960154
0.000964193
0.00096828
0.000972332
0.00097628
0.000980071
0.000983664
0.000987027
0.000990139
0.000992987
0.000995565
0.00099787
0.000999907
0.00100168
0.0010032
0.00100449
0.00100554
0.00100638
0.00100703
0.00100749
0.00100778
0.00100792
0.00101461
0.00101653
0.00101917
0.00102237
0.00102597
0.00102983
0.00103385
0.00103791
0.00104194
0.00104586
0.00104963
0.00105321
0.00105655
0.00105964
0.00106248
0.00106504
0.00106733
0.00106936
0.00107113
0.00107264
0.00107392
0.00107497
0.0010758
0.00107644
0.0010769
0.00107719
0.00107733
0.00108411
0.00108601
0.00108863
0.00109182
0.0010954
0.00109924
0.00110323
0.00110727
0.00111128
0.00111518
0.00111893
0.00112248
0.00112581
0.00112889
0.00113171
0.00113426
0.00113654
0.00113856
0.00114031
0.00114182
0.00114309
0.00114414
0.00114497
0.00114561
0.00114606
0.00114635
0.00114649
0.0011533
0.0011552
0.00115781
0.00116097
0.00116454
0.00116836
0.00117233
0.00117635
0.00118034
0.00118422
0.00118795
0.00119149
0.0011948
0.00119786
0.00120067
0.00120321
0.00120548
0.00120748
0.00120923
0.00121073
0.001212
0.00121304
0.00121387
0.0012145
0.00121495
0.00121524
0.00121538
0.00122221
0.00122409
0.00122669
0.00122984
0.00123338
0.00123719
0.00124114
0.00124514
0.00124911
0.00125297
0.00125669
0.00126021
0.0012635
0.00126655
0.00126934
0.00127187
0.00127413
0.00127613
0.00127787
0.00127937
0.00128062
0.00128166
0.00128248
0.00128312
0.00128357
0.00128385
0.00128399
0.00129081
0.00129269
0.00129527
0.00129841
0.00130194
0.00130572
0.00130966
0.00131364
0.00131759
0.00132144
0.00132513
0.00132864
0.00133192
0.00133496
0.00133774
0.00134025
0.0013425
0.00134449
0.00134623
0.00134771
0.00134896
0.00135
0.00135082
0.00135145
0.0013519
0.00135218
0.00135232
0.00135912
0.00136099
0.00136356
0.00136668
0.0013702
0.00137397
0.00137788
0.00138185
0.00138578
0.00138961
0.00139329
0.00139678
0.00140005
0.00140307
0.00140584
0.00140834
0.00141059
0.00141257
0.00141429
0.00141577
0.00141702
0.00141805
0.00141886
0.00141949
0.00141994
0.00142022
0.00142036
0.00142714
0.00142899
0.00143156
0.00143467
0.00143816
0.00144192
0.00144582
0.00144976
0.00145368
0.0014575
0.00146116
0.00146463
0.00146789
0.0014709
0.00147365
0.00147615
0.00147838
0.00148035
0.00148207
0.00148355
0.00148479
0.00148581
0.00148662
0.00148725
0.00148769
0.00148798
0.00148811
0.00149486
0.00149671
0.00149926
0.00150236
0.00150584
0.00150958
0.00151346
0.00151739
0.00152129
0.00152509
0.00152874
0.0015322
0.00153544
0.00153843
0.00154118
0.00154366
0.00154589
0.00154785
0.00154956
0.00155103
0.00155227
0.00155328
0.0015541
0.00155472
0.00155516
0.00155544
0.00155558
0.00156229
0.00156413
0.00156667
0.00156976
0.00157322
0.00157695
0.00158081
0.00158473
0.00158861
0.00159239
0.00159603
0.00159947
0.0016027
0.00160569
0.00160842
0.00161089
0.00161311
0.00161506
0.00161677
0.00161823
0.00161946
0.00162047
0.00162128
0.0016219
0.00162234
0.00162262
0.00162276
0.00162943
0.00163126
0.0016338
0.00163687
0.00164032
0.00164403
0.00164788
0.00165178
0.00165564
0.00165941
0.00166303
0.00166646
0.00166967
0.00167265
0.00167537
0.00167783
0.00168004
0.00168199
0.00168368
0.00168514
0.00168637
0.00168738
0.00168818
0.0016888
0.00168924
0.00168952
0.00168965
0.00169629
0.00169811
0.00170063
0.00170369
0.00170713
0.00171082
0.00171466
0.00171854
0.00172239
0.00172614
0.00172975
0.00173316
0.00173636
0.00173933
0.00174204
0.00174449
0.00174669
0.00174863
0.00175032
0.00175177
0.00175299
0.00175399
0.0017548
0.00175541
0.00175585
0.00175613
0.00175626
0.00176285
0.00176467
0.00176718
0.00177023
0.00177365
0.00177733
0.00178115
0.00178502
0.00178885
0.00179259
0.00179618
0.00179958
0.00180277
0.00180572
0.00180842
0.00181086
0.00181305
0.00181498
0.00181666
0.00181811
0.00181932
0.00182032
0.00182112
0.00182173
0.00182217
0.00182245
0.00182258
0.00182913
0.00183094
0.00183344
0.00183647
0.00183989
0.00184355
0.00184735
0.0018512
0.00185502
0.00185874
0.00186232
0.00186571
0.00186888
0.00187182
0.00187451
0.00187694
0.00187912
0.00188104
0.00188272
0.00188416
0.00188537
0.00188637
0.00188716
0.00188777
0.0018882
0.00188848
0.00188861
0.00189512
0.00189692
0.00189942
0.00190243
0.00190583
0.00190948
0.00191327
0.0019171
0.0019209
0.00192461
0.00192817
0.00193154
0.0019347
0.00193763
0.00194031
0.00194273
0.0019449
0.00194681
0.00194848
0.00194992
0.00195112
0.00195212
0.00195291
0.00195351
0.00195395
0.00195422
0.00195435
0.00196082
0.00196261
0.00196509
0.0019681
0.00197148
0.00197511
0.00197888
0.0019827
0.00198649
0.00199018
0.00199373
0.00199709
0.00200023
0.00200314
0.00200581
0.00200822
0.00201038
0.00201229
0.00201395
0.00201538
0.00201658
0.00201757
0.00201836
0.00201896
0.00201939
0.00201967
0.0020198
0.00202621
0.002028
0.00203047
0.00203346
0.00203683
0.00204045
0.0020442
0.002048
0.00205177
0.00205545
0.00205898
0.00206232
0.00206546
0.00206836
0.00207101
0.00207341
0.00207556
0.00207746
0.00207912
0.00208054
0.00208173
0.00208272
0.0020835
0.0020841
0.00208453
0.00208481
0.00208494
0.0020913
0.00209308
0.00209554
0.00209852
0.00210187
0.00210547
0.00210921
0.002113
0.00211675
0.00212041
0.00212392
0.00212725
0.00213037
0.00213326
0.0021359
0.00213829
0.00214043
0.00214232
0.00214397
0.00214538
0.00214657
0.00214755
0.00214833
0.00214893
0.00214936
0.00214963
0.00214976
0.00215607
0.00215784
0.00216029
0.00216326
0.00216659
0.00217018
0.0021739
0.00217766
0.0021814
0.00218504
0.00218854
0.00219185
0.00219496
0.00219783
0.00220046
0.00220284
0.00220497
0.00220685
0.00220849
0.00220989
0.00221108
0.00221205
0.00221283
0.00221343
0.00221385
0.00221412
0.00221425
0.00222051
0.00222227
0.00222471
0.00222766
0.00223098
0.00223454
0.00223825
0.00224199
0.00224571
0.00224933
0.00225281
0.00225611
0.0022592
0.00226206
0.00226467
0.00226704
0.00226916
0.00227103
0.00227266
0.00227406
0.00227524
0.00227621
0.00227698
0.00227757
0.002278
0.00227827
0.00227839
0.00228459
0.00228634
0.00228877
0.0022917
0.002295
0.00229855
0.00230223
0.00230596
0.00230966
0.00231326
0.00231672
0.00232
0.00232307
0.00232591
0.00232852
0.00233087
0.00233298
0.00233484
0.00233646
0.00233785
0.00233902
0.00233999
0.00234076
0.00234135
0.00234177
0.00234204
0.00234216
0.00234829
0.00235004
0.00235245
0.00235536
0.00235865
0.00236217
0.00236583
0.00236954
0.00237321
0.00237679
0.00238023
0.00238349
0.00238655
0.00238937
0.00239196
0.0023943
0.00239639
0.00239824
0.00239986
0.00240124
0.0024024
0.00240336
0.00240413
0.00240471
0.00240513
0.0024054
0.00240552
0.00241158
0.00241331
0.00241571
0.0024186
0.00242187
0.00242537
0.00242901
0.00243269
0.00243634
0.0024399
0.00244331
0.00244655
0.00244958
0.00245239
0.00245496
0.00245729
0.00245937
0.0024612
0.00246281
0.00246418
0.00246534
0.00246629
0.00246705
0.00246763
0.00246805
0.00246831
0.00246843
0.00247441
0.00247613
0.00247851
0.00248138
0.00248462
0.0024881
0.00249171
0.00249536
0.00249899
0.00250252
0.00250591
0.00250913
0.00251214
0.00251492
0.00251747
0.00251978
0.00252185
0.00252367
0.00252526
0.00252662
0.00252777
0.00252872
0.00252947
0.00253005
0.00253046
0.00253072
0.00253085
0.00253673
0.00253843
0.00254079
0.00254364
0.00254686
0.00255031
0.00255389
0.00255751
0.0025611
0.00256461
0.00256797
0.00257116
0.00257414
0.00257691
0.00257943
0.00258172
0.00258377
0.00258558
0.00258715
0.00258851
0.00258964
0.00259058
0.00259133
0.0025919
0.00259231
0.00259257
0.00259269
0.00259847
0.00260016
0.00260249
0.00260532
0.0026085
0.00261192
0.00261547
0.00261906
0.00262262
0.00262608
0.00262942
0.00263257
0.00263553
0.00263826
0.00264077
0.00264303
0.00264506
0.00264685
0.00264841
0.00264975
0.00265088
0.0026518
0.00265254
0.00265311
0.00265351
0.00265377
0.00265389
0.00265955
0.00266122
0.00266353
0.00266633
0.00266947
0.00267285
0.00267636
0.00267991
0.00268343
0.00268686
0.00269016
0.00269328
0.0026962
0.00269891
0.00270138
0.00270362
0.00270562
0.00270739
0.00270894
0.00271026
0.00271137
0.00271229
0.00271302
0.00271358
0.00271398
0.00271423
0.00271435
0.00271987
0.00272152
0.0027238
0.00272656
0.00272967
0.002733
0.00273647
0.00273997
0.00274345
0.00274683
0.00275008
0.00275316
0.00275605
0.00275872
0.00276116
0.00276337
0.00276534
0.00276709
0.00276861
0.00276992
0.00277102
0.00277192
0.00277264
0.00277319
0.00277359
0.00277384
0.00277396
0.0027793
0.00278093
0.00278318
0.0027859
0.00278896
0.00279225
0.00279566
0.00279911
0.00280253
0.00280586
0.00280907
0.0028121
0.00281494
0.00281756
0.00281997
0.00282214
0.00282409
0.0028258
0.0028273
0.00282859
0.00282967
0.00283056
0.00283127
0.00283181
0.0028322
0.00283244
0.00283256
0.00283772
0.00283932
0.00284152
0.0028442
0.0028472
0.00285043
0.00285378
0.00285717
0.00286053
0.0028638
0.00286694
0.00286992
0.00287271
0.00287528
0.00287764
0.00287978
0.00288168
0.00288337
0.00288484
0.0028861
0.00288716
0.00288803
0.00288873
0.00288926
0.00288964
0.00288988
0.00288999
0.00289494
0.0028965
0.00289866
0.00290128
0.00290422
0.00290738
0.00291066
0.00291397
0.00291726
0.00292046
0.00292353
0.00292645
0.00292917
0.00293169
0.00293399
0.00293608
0.00293794
0.00293959
0.00294103
0.00294226
0.00294329
0.00294415
0.00294483
0.00294535
0.00294572
0.00294595
0.00294607
0.00295076
0.00295228
0.00295439
0.00295694
0.00295981
0.00296289
0.00296608
0.00296931
0.00297251
0.00297563
0.00297862
0.00298146
0.00298411
0.00298656
0.0029888
0.00299083
0.00299265
0.00299425
0.00299564
0.00299684
0.00299785
0.00299868
0.00299934
0.00299985
0.00300021
0.00300044
0.00300054
0.00300495
0.00300643
0.00300847
0.00301095
0.00301373
0.00301671
0.00301981
0.00302294
0.00302604
0.00302906
0.00303196
0.0030347
0.00303727
0.00303964
0.00304181
0.00304378
0.00304553
0.00304708
0.00304843
0.00304959
0.00305057
0.00305137
0.00305201
0.00305249
0.00305284
0.00305307
0.00305317
0.00305725
0.00305868
0.00306065
0.00306303
0.00306571
0.00306859
0.00307157
0.00307458
0.00307757
0.00308047
0.00308326
0.0030859
0.00308837
0.00309065
0.00309274
0.00309463
0.00309632
0.00309781
0.0030991
0.00310021
0.00310115
0.00310192
0.00310253
0.003103
0.00310334
0.00310355
0.00310365
0.00310737
0.00310873
0.00311062
0.0031129
0.00311546
0.00311821
0.00312106
0.00312394
0.00312679
0.00312957
0.00313223
0.00313475
0.00313711
0.00313928
0.00314127
0.00314307
0.00314468
0.0031461
0.00314734
0.0031484
0.00314929
0.00315002
0.00315061
0.00315105
0.00315137
0.00315157
0.00315167
0.00315499
0.00315628
0.00315807
0.00316023
0.00316266
0.00316526
0.00316796
0.00317069
0.00317339
0.00317601
0.00317853
0.00318091
0.00318314
0.0031852
0.00318708
0.00318877
0.00319029
0.00319163
0.0031928
0.0031938
0.00319464
0.00319533
0.00319588
0.0031963
0.0031966
0.00319679
0.00319688
0.00319977
0.00320098
0.00320266
0.00320469
0.00320696
0.0032094
0.00321193
0.00321448
0.00321701
0.00321946
0.00322182
0.00322404
0.00322612
0.00322804
0.0032298
0.00323138
0.0032328
0.00323405
0.00323514
0.00323607
0.00323685
0.00323749
0.00323801
0.0032384
0.00323868
0.00323886
0.00323894
0.00324137
0.00324249
0.00324405
0.00324592
0.00324803
0.00325028
0.00325262
0.00325498
0.00325731
0.00325958
0.00326175
0.0032638
0.00326571
0.00326748
0.0032691
0.00327056
0.00327186
0.00327301
0.00327401
0.00327486
0.00327558
0.00327617
0.00327664
0.003277
0.00327726
0.00327742
0.0032775
0.00327946
0.00328048
0.0032819
0.00328361
0.00328553
0.00328758
0.0032897
0.00329185
0.00329397
0.00329602
0.00329799
0.00329985
0.00330159
0.00330319
0.00330465
0.00330597
0.00330715
0.00330819
0.00330909
0.00330987
0.00331051
0.00331105
0.00331147
0.0033118
0.00331203
0.00331218
0.00331225
0.00331374
0.00331466
0.00331592
0.00331745
0.00331916
0.003321
0.00332289
0.00332481
0.00332669
0.00332853
0.00333028
0.00333193
0.00333348
0.0033349
0.0033362
0.00333737
0.00333841
0.00333933
0.00334013
0.00334081
0.00334139
0.00334186
0.00334223
0.00334252
0.00334273
0.00334286
0.00334292
0.00334396
0.00334477
0.00334587
0.00334721
0.00334871
0.00335031
0.00335197
0.00335363
0.00335528
0.00335687
0.0033584
0.00335983
0.00336117
0.0033624
0.00336353
0.00336454
0.00336544
0.00336624
0.00336693
0.00336752
0.00336802
0.00336842
0.00336875
0.00336899
0.00336917
0.00336928
0.00336934
0.00336998
0.00337067
0.00337161
0.00337275
0.00337403
0.00337539
0.0033768
0.00337821
0.0033796
0.00338095
0.00338224
0.00338345
0.00338458
0.00338562
0.00338657
0.00338742
0.00338818
0.00338885
0.00338943
0.00338992
0.00339034
0.00339068
0.00339095
0.00339116
0.0033913
0.0033914
0.00339144
0.00339175
0.00339232
0.0033931
0.00339404
0.00339509
0.00339622
0.00339737
0.00339854
0.00339968
0.00340078
0.00340184
0.00340283
0.00340375
0.0034046
0.00340537
0.00340606
0.00340668
0.00340722
0.00340769
0.00340809
0.00340842
0.0034087
0.00340892
0.00340908
0.0034092
0.00340928
0.00340931
0.00340938
0.00340983
0.00341045
0.0034112
0.00341203
0.00341292
0.00341384
0.00341476
0.00341566
0.00341653
0.00341736
0.00341814
0.00341886
0.00341952
0.00342012
0.00342066
0.00342114
0.00342157
0.00342193
0.00342224
0.0034225
0.00342272
0.00342288
0.00342301
0.00342311
0.00342316
0.00342319
0.00342309
0.00342344
0.00342391
0.00342448
0.00342512
0.00342579
0.00342648
0.00342718
0.00342786
0.00342851
0.00342913
0.00342971
0.00343025
0.00343075
0.0034312
0.0034316
0.00343195
0.00343226
0.00343253
0.00343276
0.00343296
0.00343311
0.00343324
0.00343333
0.0034334
0.00343344
0.00343346
0.0034333
0.00343354
0.00343389
0.0034343
0.00343475
0.00343524
0.00343573
0.00343623
0.00343671
0.00343718
0.00343762
0.00343803
0.00343841
0.00343876
0.00343907
0.00343935
0.0034396
0.00343982
0.00344001
0.00344017
0.0034403
0.00344041
0.00344049
0.00344056
0.00344061
0.00344064
0.00344065
0.00344049
0.00344065
0.00344089
0.00344116
0.00344147
0.00344179
0.00344213
0.00344246
0.00344278
0.00344309
0.00344338
0.00344365
0.0034439
0.00344413
0.00344433
0.00344452
0.00344468
0.00344482
0.00344494
0.00344504
0.00344513
0.0034452
0.00344526
0.0034453
0.00344533
0.00344535
0.00344535
0.00344524
0.00344535
0.00344549
0.00344567
0.00344586
0.00344606
0.00344626
0.00344647
0.00344666
0.00344685
0.00344703
0.00344719
0.00344735
0.00344748
0.00344761
0.00344772
0.00344781
0.00344789
0.00344797
0.00344803
0.00344808
0.00344812
0.00344815
0.00344818
0.00344819
0.00344821
0.00344821
0.00344817
0.00344823
0.00344831
0.00344841
0.00344852
0.00344863
0.00344874
0.00344886
0.00344897
0.00344907
0.00344917
0.00344926
0.00344934
0.00344941
0.00344948
0.00344954
0.00344959
0.00344963
0.00344967
0.0034497
0.00344973
0.00344975
0.00344977
0.00344978
0.00344979
0.00344979
0.0034498
0.00344982
0.00344985
0.00344989
0.00344994
0.00344999
0.00345005
0.0034501
0.00345016
0.00345021
0.00345026
0.0034503
0.00345035
0.00345039
0.00345042
0.00345045
0.00345048
0.0034505
0.00345052
0.00345054