/*--------------------------------*- C++ -*----------------------------------*\
| =========                 |                                                 |
| \\      /  F ield         | OpenFOAM: The Open Source CFD Toolbox           |
|  \\    /   O peration     | Version:  2106                                  |
|   \\  /    A nd           | Website:  www.openfoam.com                      |
|    \\/     M anipulation  |                                                 |
\*---------------------------------------------------------------------------*/
FoamFile
{
    version     2.0;
    format      ascii;
    arch        "LSB;label=32;scalar=64";
    class       volScalarField;
    location    "150.00049";
    object      C4H4;
}
// * * * * * * * * * * * * * * * * * * * * * * * * * * * * * * * * * * * * * //

dimensions      [0 0 0 0 0 0 0];

internalField   nonuniform List<scalar> 
3360
(
6.47487e-17
6.68321e-17
6.97314e-17
7.32777e-17
7.73234e-17
8.17356e-17
8.63944e-17
9.11918e-17
9.60312e-17
1.00828e-16
1.05508e-16
1.10008e-16
1.14278e-16
1.18276e-16
1.2197e-16
1.25339e-16
1.28369e-16
1.31055e-16
1.33398e-16
1.35404e-16
1.37085e-16
1.38459e-16
1.39544e-16
1.40362e-16
1.40938e-16
1.41296e-16
1.41462e-16
2.84011e-16
2.94449e-16
3.09178e-16
3.27522e-16
3.48917e-16
3.72873e-16
3.98954e-16
4.26758e-16
4.55912e-16
4.86064e-16
5.16875e-16
5.48017e-16
5.79166e-16
6.1e-16
6.40204e-16
6.6947e-16
6.97493e-16
7.2398e-16
7.48648e-16
7.71234e-16
7.91495e-16
8.09217e-16
8.24216e-16
8.36347e-16
8.45502e-16
8.51616e-16
8.54664e-16
8.91022e-16
9.30124e-16
9.85685e-16
1.0555e-15
1.13774e-15
1.23077e-15
1.33301e-15
1.44293e-15
1.55897e-15
1.67954e-15
1.80301e-15
1.92777e-15
2.05221e-15
2.17477e-15
2.2939e-15
2.40816e-15
2.51622e-15
2.61685e-15
2.70903e-15
2.79188e-15
2.86474e-15
2.92713e-15
2.97878e-15
3.0196e-15
3.0497e-15
3.06933e-15
3.07888e-15
2.59447e-15
2.72331e-15
2.90763e-15
3.14083e-15
3.4174e-15
3.73216e-15
4.07997e-15
4.45547e-15
4.85304e-15
5.26679e-15
5.69062e-15
6.11834e-15
6.54379e-15
6.96096e-15
7.36418e-15
7.74821e-15
8.10843e-15
8.44089e-15
8.74244e-15
9.0107e-15
9.2441e-15
9.44184e-15
9.60378e-15
9.73044e-15
9.82287e-15
9.88256e-15
9.91135e-15
7.57851e-15
7.98491e-15
8.56737e-15
9.30599e-15
1.01839e-14
1.11848e-14
1.22921e-14
1.34881e-14
1.4754e-14
1.60698e-14
1.7415e-14
1.8769e-14
2.01114e-14
2.14227e-14
2.26852e-14
2.38826e-14
2.5001e-14
2.60291e-14
2.69579e-14
2.7781e-14
2.84947e-14
2.90973e-14
2.95894e-14
2.99731e-14
3.02525e-14
3.04324e-14
3.0519e-14
2.23397e-14
2.35874e-14
2.53779e-14
2.76504e-14
3.0353e-14
3.34353e-14
3.68451e-14
4.0527e-14
4.44216e-14
4.84667e-14
5.25978e-14
5.67503e-14
6.08613e-14
6.48708e-14
6.87239e-14
7.23719e-14
7.57732e-14
7.88939e-14
8.17082e-14
8.4198e-14
8.63531e-14
8.81699e-14
8.9651e-14
9.08047e-14
9.16432e-14
9.21829e-14
9.24423e-14
6.63441e-14
7.01346e-14
7.55739e-14
8.24777e-14
9.06874e-14
1.00048e-13
1.10399e-13
1.2157e-13
1.33378e-13
1.45631e-13
1.58134e-13
1.70689e-13
1.83106e-13
1.95206e-13
2.06822e-13
2.17811e-13
2.28047e-13
2.37433e-13
2.45891e-13
2.5337e-13
2.5984e-13
2.65293e-13
2.69736e-13
2.73196e-13
2.75711e-13
2.77329e-13
2.78106e-13
1.97675e-13
2.09078e-13
2.25449e-13
2.46234e-13
2.70958e-13
2.99153e-13
3.30333e-13
3.63979e-13
3.99538e-13
4.36431e-13
4.74062e-13
5.1184e-13
5.49188e-13
5.85564e-13
6.20474e-13
6.53481e-13
6.84217e-13
7.12383e-13
7.37756e-13
7.60182e-13
7.79574e-13
7.95908e-13
8.09215e-13
8.19572e-13
8.27096e-13
8.31935e-13
8.34261e-13
5.90535e-13
6.24795e-13
6.73971e-13
7.36403e-13
8.10653e-13
8.95311e-13
9.88909e-13
1.08988e-12
1.19656e-12
1.3072e-12
1.42002e-12
1.53323e-12
1.64512e-12
1.75406e-12
1.85857e-12
1.95737e-12
2.04934e-12
2.13361e-12
2.20951e-12
2.27659e-12
2.33458e-12
2.38343e-12
2.42322e-12
2.45419e-12
2.47669e-12
2.49116e-12
2.49812e-12
1.76416e-12
1.86674e-12
2.014e-12
2.20097e-12
2.42334e-12
2.67688e-12
2.95718e-12
3.25953e-12
3.57893e-12
3.91016e-12
4.24784e-12
4.58665e-12
4.92142e-12
5.2473e-12
5.55988e-12
5.85528e-12
6.13022e-12
6.38207e-12
6.60884e-12
6.8092e-12
6.98239e-12
7.12823e-12
7.24701e-12
7.33943e-12
7.40656e-12
7.44973e-12
7.47047e-12
5.27251e-12
5.57947e-12
6.02007e-12
6.57935e-12
7.24436e-12
8.00239e-12
8.8402e-12
9.74366e-12
1.06978e-11
1.16869e-11
1.26949e-11
1.3706e-11
1.47046e-11
1.56765e-11
1.66084e-11
1.74889e-11
1.83082e-11
1.90585e-11
1.9734e-11
2.03306e-11
2.08463e-11
2.12805e-11
2.16341e-11
2.19092e-11
2.2109e-11
2.22375e-11
2.22992e-11
1.57414e-11
1.66575e-11
1.79722e-11
1.9641e-11
2.16247e-11
2.38854e-11
2.63833e-11
2.90761e-11
3.19189e-11
3.48648e-11
3.7866e-11
4.08751e-11
4.38463e-11
4.67365e-11
4.95069e-11
5.21233e-11
5.45569e-11
5.67848e-11
5.87898e-11
6.05603e-11
6.209e-11
6.33775e-11
6.44257e-11
6.5241e-11
6.5833e-11
6.62136e-11
6.63964e-11
4.69404e-11
4.96692e-11
5.35843e-11
5.85511e-11
6.44528e-11
7.11746e-11
7.85971e-11
8.65937e-11
9.50303e-11
1.03767e-10
1.12662e-10
1.21574e-10
1.30368e-10
1.38917e-10
1.47107e-10
1.54837e-10
1.62023e-10
1.68598e-10
1.74513e-10
1.79734e-10
1.84243e-10
1.88036e-10
1.91124e-10
1.93525e-10
1.95268e-10
1.96388e-10
1.96926e-10
1.39546e-10
1.47636e-10
1.5924e-10
1.73954e-10
1.91426e-10
2.11313e-10
2.33256e-10
2.56878e-10
2.81777e-10
3.07539e-10
3.33744e-10
3.59976e-10
3.85836e-10
4.10953e-10
4.34992e-10
4.57662e-10
4.78719e-10
4.97972e-10
5.15276e-10
5.30539e-10
5.43713e-10
5.5479e-10
5.638e-10
5.70803e-10
5.75884e-10
5.79148e-10
5.80715e-10
4.13276e-10
4.37128e-10
4.71315e-10
5.14629e-10
5.66014e-10
6.24434e-10
6.88819e-10
7.58037e-10
8.30901e-10
9.06187e-10
9.82658e-10
1.0591e-09
1.13436e-09
1.20735e-09
1.27712e-09
1.34284e-09
1.40381e-09
1.45949e-09
1.50949e-09
1.55354e-09
1.59154e-09
1.62345e-09
1.6494e-09
1.66955e-09
1.68416e-09
1.69354e-09
1.69805e-09
1.21657e-09
1.28622e-09
1.38597e-09
1.5122e-09
1.66175e-09
1.83153e-09
2.01834e-09
2.21883e-09
2.42949e-09
2.64676e-09
2.86704e-09
3.08682e-09
3.3028e-09
3.51191e-09
3.71144e-09
3.89906e-09
4.07284e-09
4.23131e-09
4.37339e-09
4.49843e-09
4.60611e-09
4.69648e-09
4.76985e-09
4.82678e-09
4.86803e-09
4.89449e-09
4.90718e-09
3.55298e-09
3.75377e-09
4.04097e-09
4.40385e-09
4.83299e-09
5.31913e-09
5.85281e-09
6.42418e-09
7.02309e-09
7.6392e-09
8.26226e-09
8.88237e-09
9.49022e-09
1.00773e-08
1.06363e-08
1.11607e-08
1.16454e-08
1.20865e-08
1.24813e-08
1.28281e-08
1.31263e-08
1.33762e-08
1.35788e-08
1.37359e-08
1.38495e-08
1.39223e-08
1.39572e-08
1.02653e-08
1.08339e-08
1.16458e-08
1.26695e-08
1.38771e-08
1.52413e-08
1.67344e-08
1.8328e-08
1.9993e-08
2.17002e-08
2.3421e-08
2.51281e-08
2.67963e-08
2.84026e-08
2.99274e-08
3.13541e-08
3.26693e-08
3.38634e-08
3.49296e-08
3.58642e-08
3.66663e-08
3.73373e-08
3.78805e-08
3.83009e-08
3.86047e-08
3.87992e-08
3.88923e-08
2.92449e-08
3.08171e-08
3.30574e-08
3.58746e-08
3.91871e-08
4.2916e-08
4.69817e-08
5.13038e-08
5.58012e-08
6.03939e-08
6.50048e-08
6.95613e-08
7.39968e-08
7.82526e-08
8.22783e-08
8.60326e-08
8.94834e-08
9.26072e-08
9.53892e-08
9.78221e-08
9.99054e-08
1.01645e-07
1.0305e-07
1.04136e-07
1.04919e-07
1.0542e-07
1.0566e-07
8.18041e-08
8.60204e-08
9.20133e-08
9.95242e-08
1.08322e-07
1.18183e-07
1.28886e-07
1.4021e-07
1.51938e-07
1.63859e-07
1.75771e-07
1.8749e-07
1.98848e-07
2.09703e-07
2.1993e-07
2.29434e-07
2.3814e-07
2.45996e-07
2.52973e-07
2.59058e-07
2.64257e-07
2.68587e-07
2.72079e-07
2.74773e-07
2.76714e-07
2.77953e-07
2.78545e-07
2.23559e-07
2.34449e-07
2.49882e-07
2.6915e-07
2.91618e-07
3.1668e-07
3.43743e-07
3.72228e-07
4.01574e-07
4.31247e-07
4.60751e-07
4.89636e-07
5.17506e-07
5.44022e-07
5.68907e-07
5.91943e-07
6.12972e-07
6.31889e-07
6.48638e-07
6.63208e-07
6.75624e-07
6.85944e-07
6.94251e-07
7.00646e-07
7.05247e-07
7.08181e-07
7.0958e-07
5.93405e-07
6.20307e-07
6.58309e-07
7.05562e-07
7.60405e-07
8.21266e-07
8.86636e-07
9.55067e-07
1.02519e-06
1.09572e-06
1.16549e-06
1.23346e-06
1.29875e-06
1.36061e-06
1.41842e-06
1.47174e-06
1.52025e-06
1.56376e-06
1.60216e-06
1.63549e-06
1.66382e-06
1.68732e-06
1.7062e-06
1.72071e-06
1.73113e-06
1.73777e-06
1.74093e-06
1.5202e-06
1.58341e-06
1.67241e-06
1.78264e-06
1.90999e-06
2.05061e-06
2.20086e-06
2.35733e-06
2.51684e-06
2.67649e-06
2.83366e-06
2.98611e-06
3.1319e-06
3.26948e-06
3.3976e-06
3.51537e-06
3.62218e-06
3.71768e-06
3.80178e-06
3.87458e-06
3.93635e-06
3.98748e-06
4.02849e-06
4.05996e-06
4.08253e-06
4.09689e-06
4.10372e-06
3.73412e-06
3.87477e-06
4.07227e-06
4.31597e-06
4.59635e-06
4.90459e-06
5.23245e-06
5.57234e-06
5.91729e-06
6.26107e-06
6.59816e-06
6.92387e-06
7.23426e-06
7.5262e-06
7.79726e-06
8.04572e-06
8.27048e-06
8.47101e-06
8.64722e-06
8.79946e-06
8.92839e-06
9.03496e-06
9.12032e-06
9.18573e-06
9.23261e-06
9.26239e-06
9.27655e-06
8.73962e-06
9.03481e-06
9.44828e-06
9.95692e-06
1.05401e-05
1.11788e-05
1.18557e-05
1.25549e-05
1.32619e-05
1.39642e-05
1.46507e-05
1.53122e-05
1.59409e-05
1.65308e-05
1.70774e-05
1.75775e-05
1.80292e-05
1.84316e-05
1.87848e-05
1.90896e-05
1.93475e-05
1.95605e-05
1.9731e-05
1.98616e-05
1.99551e-05
2.00145e-05
2.00427e-05
1.93858e-05
1.99663e-05
2.07776e-05
2.17726e-05
2.29095e-05
2.41501e-05
2.54597e-05
2.6807e-05
2.8164e-05
2.95065e-05
3.08135e-05
3.20678e-05
3.32553e-05
3.43652e-05
3.53897e-05
3.63235e-05
3.71639e-05
3.79101e-05
3.85628e-05
3.91245e-05
3.95985e-05
3.9989e-05
4.03009e-05
4.05393e-05
4.07098e-05
4.0818e-05
4.08693e-05
4.05865e-05
4.16472e-05
4.31248e-05
4.493e-05
4.69829e-05
4.92114e-05
5.15506e-05
5.39431e-05
5.63391e-05
5.86959e-05
6.09782e-05
6.31575e-05
6.52115e-05
6.71239e-05
6.8883e-05
7.0482e-05
7.19176e-05
7.31897e-05
7.4301e-05
7.52561e-05
7.60613e-05
7.67243e-05
7.72535e-05
7.7658e-05
7.79471e-05
7.81305e-05
7.82175e-05
7.95998e-05
8.13904e-05
8.38806e-05
8.69162e-05
9.03611e-05
9.40934e-05
9.80049e-05
0.000102001
0.000106001
0.000109934
0.000113744
0.000117384
0.000120819
0.00012402
0.000126969
0.000129653
0.000132066
0.000134208
0.000136082
0.000137696
0.000139058
0.000140182
0.00014108
0.000141767
0.000142259
0.000142572
0.00014272
0.000145933
0.000148838
0.000152881
0.000157813
0.000163415
0.000169493
0.000175873
0.000182402
0.000188948
0.0001954
0.000201662
0.000207659
0.000213329
0.000218626
0.000223516
0.000227976
0.000231996
0.000235571
0.000238706
0.000241409
0.000243697
0.000245586
0.000247099
0.00024826
0.000249092
0.000249621
0.000249873
0.000252216
0.000256779
0.000263131
0.000270887
0.000279706
0.000289284
0.000299348
0.00030966
0.000320013
0.000330229
0.000340157
0.000349676
0.000358686
0.000367113
0.000374902
0.000382014
0.00038843
0.000394142
0.000399154
0.000403481
0.000407145
0.000410175
0.000412603
0.000414465
0.000415802
0.000416653
0.000417058
0.000412271
0.000419048
0.000428482
0.000439997
0.000453086
0.000467294
0.000482218
0.000497502
0.000512838
0.000527961
0.00054265
0.000556723
0.000570037
0.00058248
0.000593972
0.00060446
0.000613915
0.000622326
0.000629704
0.000636069
0.000641455
0.000645907
0.000649473
0.000652208
0.00065417
0.000655418
0.000656013
0.000636659
0.000645965
0.000658903
0.000674672
0.000692566
0.000711951
0.00073227
0.000753033
0.000773817
0.000794264
0.000814079
0.000833018
0.000850895
0.000867565
0.000882929
0.000896921
0.000909509
0.000920687
0.000930472
0.000938899
0.000946019
0.000951894
0.000956593
0.000960191
0.000962769
0.000964407
0.000965186
0.000928168
0.000939859
0.000956086
0.000975819
0.000998151
0.00102228
0.00104748
0.00107315
0.00109876
0.00112387
0.00114812
0.00117122
0.00119294
0.00121313
0.00123168
0.00124853
0.00126363
0.00127701
0.00128869
0.00129873
0.00130719
0.00131416
0.00131972
0.00132397
0.00132701
0.00132894
0.00132985
0.00128021
0.00129371
0.0013124
0.00133509
0.00136068
0.00138823
0.00141692
0.00144603
0.00147497
0.00150323
0.00153042
0.00155623
0.00158042
0.00160283
0.00162336
0.00164194
0.00165856
0.00167323
0.00168602
0.00169698
0.0017062
0.00171378
0.00171982
0.00172443
0.00172772
0.00172981
0.0017308
0.00167895
0.00169346
0.00171352
0.0017378
0.00176512
0.00179446
0.00182492
0.00185573
0.00188626
0.00191599
0.00194451
0.00197151
0.00199674
0.00202006
0.00204136
0.0020606
0.00207777
0.00209292
0.00210608
0.00211735
0.00212682
0.00213459
0.00214078
0.00214549
0.00214886
0.00215099
0.002152
0.00210794
0.00212272
0.00214314
0.00216782
0.00219555
0.00222526
0.00225604
0.00228712
0.00231785
0.00234772
0.00237632
0.00240334
0.00242856
0.00245182
0.00247305
0.00249219
0.00250927
0.0025243
0.00253737
0.00254854
0.00255792
0.00256562
0.00257174
0.00257641
0.00257974
0.00258185
0.00258285
0.00255251
0.00256707
0.00258717
0.00261144
0.00263868
0.00266785
0.00269803
0.00272847
0.00275855
0.00278775
0.00281569
0.00284207
0.00286667
0.00288935
0.00291004
0.00292869
0.00294532
0.00295996
0.00297267
0.00298355
0.00299268
0.00300017
0.00300613
0.00301068
0.00301392
0.00301597
0.00301695
0.00300192
0.00301599
0.00303542
0.00305887
0.00308519
0.00311335
0.0031425
0.00317188
0.00320091
0.0032291
0.00325606
0.00328151
0.00330526
0.00332715
0.00334712
0.00336513
0.00338119
0.00339534
0.00340762
0.00341814
0.00342697
0.00343422
0.00343998
0.00344438
0.00344752
0.00344951
0.00345046
0.00344937
0.00346287
0.00348151
0.00350402
0.00352928
0.00355633
0.00358431
0.00361254
0.00364044
0.00366754
0.00369347
0.00371796
0.00374081
0.0037619
0.00378114
0.0037985
0.00381399
0.00382764
0.00383951
0.00384966
0.0038582
0.0038652
0.00387078
0.00387504
0.00387808
0.00388001
0.00388092
0.00389109
0.00390404
0.00392192
0.00394352
0.00396776
0.00399373
0.00402062
0.00404776
0.00407459
0.00410067
0.00412564
0.00414924
0.00417127
0.00419161
0.00421019
0.00422696
0.00424192
0.00425512
0.0042666
0.00427643
0.00428469
0.00429148
0.00429689
0.00430102
0.00430397
0.00430584
0.00430673
0.00432528
0.00433773
0.00435493
0.00437572
0.00439906
0.00442408
0.00445
0.00447617
0.00450206
0.00452723
0.00455136
0.00457417
0.00459548
0.00461517
0.00463315
0.0046494
0.00466391
0.00467671
0.00468784
0.00469739
0.00470541
0.00471201
0.00471727
0.00472128
0.00472415
0.00472597
0.00472683
0.00475127
0.0047633
0.00477991
0.0048
0.00482257
0.00484676
0.00487184
0.00489718
0.00492226
0.00494666
0.00497005
0.00499218
0.00501286
0.00503198
0.00504945
0.00506525
0.00507935
0.0050918
0.00510264
0.00511193
0.00511975
0.00512617
0.0051313
0.00513521
0.00513801
0.00513978
0.00514062
0.005169
0.00518067
0.00519678
0.00521627
0.00523817
0.00526166
0.00528603
0.00531065
0.00533503
0.00535876
0.00538152
0.00540306
0.0054232
0.00544182
0.00545885
0.00547424
0.005488
0.00550014
0.00551072
0.00551978
0.00552741
0.00553369
0.00553869
0.00554251
0.00554525
0.00554698
0.0055478
0.00557869
0.00559005
0.00560573
0.00562471
0.00564604
0.00566893
0.00569267
0.00571667
0.00574044
0.00576359
0.0057858
0.00580682
0.00582649
0.00584468
0.00586131
0.00587635
0.0058898
0.00590167
0.00591201
0.00592088
0.00592834
0.00593448
0.00593937
0.00594311
0.00594579
0.00594749
0.00594829
0.00598069
0.00599177
0.00600709
0.00602562
0.00604645
0.00606881
0.00609201
0.00611547
0.00613871
0.00616134
0.00618306
0.00620363
0.00622287
0.00624067
0.00625695
0.00627168
0.00628484
0.00629647
0.0063066
0.00631528
0.0063226
0.00632861
0.00633341
0.00633707
0.0063397
0.00634136
0.00634215
0.00637537
0.00638621
0.0064012
0.00641933
0.00643973
0.00646161
0.00648433
0.0065073
0.00653007
0.00655224
0.00657352
0.00659368
0.00661254
0.00662999
0.00664595
0.00666039
0.0066733
0.0066847
0.00669464
0.00670316
0.00671033
0.00671623
0.00672094
0.00672454
0.00672711
0.00672875
0.00672952
0.00676309
0.00677372
0.00678841
0.00680619
0.00682619
0.00684766
0.00686993
0.00689247
0.0069148
0.00693655
0.00695744
0.00697722
0.00699573
0.00701286
0.00702853
0.0070427
0.00705538
0.00706658
0.00707633
0.0070847
0.00709174
0.00709754
0.00710216
0.0071057
0.00710823
0.00710983
0.00711059
0.00714421
0.00715465
0.00716907
0.00718653
0.00720616
0.00722724
0.00724911
0.00727125
0.00729318
0.00731455
0.00733506
0.0073545
0.00737268
0.00738951
0.00740491
0.00741884
0.0074313
0.0074423
0.00745189
0.00746012
0.00746704
0.00747274
0.00747729
0.00748076
0.00748325
0.00748482
0.00748557
0.00751905
0.0075293
0.00754348
0.00756063
0.00757993
0.00760065
0.00762215
0.00764391
0.00766547
0.00768648
0.00770665
0.00772576
0.00774364
0.00776019
0.00777533
0.00778904
0.00780129
0.00781211
0.00782155
0.00782964
0.00783645
0.00784205
0.00784652
0.00784994
0.00785239
0.00785394
0.00785468
0.00788788
0.00789796
0.00791191
0.00792878
0.00794776
0.00796814
0.0079893
0.0080107
0.00803191
0.00805259
0.00807243
0.00809123
0.00810883
0.00812512
0.00814002
0.0081535
0.00816556
0.00817622
0.0081855
0.00819346
0.00820017
0.00820569
0.00821009
0.00821345
0.00821586
0.00821739
0.00821811
0.00825096
0.00826088
0.00827461
0.00829122
0.0083099
0.00832996
0.00835079
0.00837186
0.00839274
0.00841309
0.00843263
0.00845114
0.00846847
0.00848451
0.00849918
0.00851246
0.00852433
0.00853482
0.00854396
0.0085518
0.00855841
0.00856384
0.00856817
0.00857149
0.00857386
0.00857536
0.00857608
0.00860852
0.00861829
0.00863181
0.00864817
0.00866657
0.00868633
0.00870683
0.00872759
0.00874816
0.0087682
0.00878745
0.00880568
0.00882275
0.00883855
0.008853
0.00886608
0.00887778
0.00888811
0.00889712
0.00890485
0.00891135
0.0089167
0.00892097
0.00892424
0.00892657
0.00892805
0.00892876
0.00896077
0.0089704
0.00898371
0.00899983
0.00901796
0.00903743
0.00905764
0.00907808
0.00909835
0.00911811
0.00913707
0.00915504
0.00917186
0.00918743
0.00920167
0.00921456
0.00922609
0.00923627
0.00924515
0.00925276
0.00925917
0.00926445
0.00926866
0.00927187
0.00927417
0.00927563
0.00927633
0.00930789
0.00931738
0.0093305
0.00934639
0.00936426
0.00938345
0.00940337
0.00942352
0.0094435
0.00946297
0.00948167
0.00949938
0.00951596
0.00953131
0.00954535
0.00955805
0.00956942
0.00957946
0.00958821
0.00959571
0.00960203
0.00960723
0.00961138
0.00961455
0.00961682
0.00961826
0.00961895
0.00965005
0.00965941
0.00967235
0.00968801
0.00970563
0.00972455
0.00974419
0.00976406
0.00978376
0.00980296
0.00982139
0.00983886
0.00985521
0.00987034
0.00988418
0.00989671
0.00990792
0.00991782
0.00992645
0.00993385
0.00994008
0.00994521
0.0099493
0.00995243
0.00995466
0.00995608
0.00995676
0.0099874
0.00999663
0.0100094
0.0100248
0.0100422
0.0100609
0.0100802
0.0100998
0.0101193
0.0101382
0.0101564
0.0101736
0.0101897
0.0102047
0.0102183
0.0102307
0.0102417
0.0102515
0.01026
0.0102673
0.0102734
0.0102785
0.0102825
0.0102856
0.0102878
0.0102892
0.0102899
0.0103201
0.0103292
0.0103418
0.010357
0.0103741
0.0103925
0.0104117
0.010431
0.0104502
0.0104688
0.0104868
0.0105038
0.0105197
0.0105344
0.0105479
0.01056
0.010571
0.0105806
0.010589
0.0105962
0.0106022
0.0106072
0.0106112
0.0106143
0.0106164
0.0106178
0.0106185
0.0106482
0.0106572
0.0106696
0.0106846
0.0107015
0.0107197
0.0107385
0.0107576
0.0107765
0.010795
0.0108127
0.0108294
0.0108451
0.0108596
0.0108729
0.010885
0.0108957
0.0109052
0.0109135
0.0109206
0.0109266
0.0109315
0.0109354
0.0109384
0.0109406
0.010942
0.0109426
0.0109719
0.0109807
0.010993
0.0110078
0.0110245
0.0110424
0.011061
0.0110798
0.0110985
0.0111167
0.0111342
0.0111507
0.0111662
0.0111805
0.0111936
0.0112055
0.0112161
0.0112255
0.0112337
0.0112407
0.0112466
0.0112514
0.0112553
0.0112583
0.0112604
0.0112617
0.0112624
0.0112912
0.0112999
0.011312
0.0113267
0.0113431
0.0113608
0.0113792
0.0113978
0.0114162
0.0114341
0.0114513
0.0114677
0.011483
0.0114971
0.01151
0.0115218
0.0115322
0.0115415
0.0115496
0.0115565
0.0115623
0.0115671
0.0115709
0.0115738
0.0115759
0.0115773
0.0115779
0.0116063
0.0116149
0.0116268
0.0116413
0.0116575
0.011675
0.0116931
0.0117114
0.0117296
0.0117473
0.0117643
0.0117804
0.0117955
0.0118095
0.0118222
0.0118338
0.0118441
0.0118533
0.0118612
0.0118681
0.0118738
0.0118785
0.0118823
0.0118852
0.0118873
0.0118886
0.0118892
0.0119171
0.0119256
0.0119374
0.0119517
0.0119677
0.0119849
0.0120028
0.0120209
0.0120388
0.0120563
0.0120731
0.012089
0.0121039
0.0121177
0.0121303
0.0121417
0.0121519
0.0121609
0.0121688
0.0121755
0.0121812
0.0121859
0.0121896
0.0121924
0.0121945
0.0121958
0.0121964
0.0122238
0.0122323
0.0122439
0.0122579
0.0122738
0.0122908
0.0123084
0.0123263
0.012344
0.0123612
0.0123778
0.0123935
0.0124082
0.0124218
0.0124342
0.0124455
0.0124556
0.0124645
0.0124722
0.0124789
0.0124845
0.0124891
0.0124927
0.0124956
0.0124976
0.0124988
0.0124995
0.0125265
0.0125348
0.0125462
0.0125601
0.0125757
0.0125925
0.0126099
0.0126276
0.012645
0.0126621
0.0126784
0.0126939
0.0127084
0.0127218
0.0127341
0.0127452
0.0127551
0.0127639
0.0127716
0.0127781
0.0127837
0.0127882
0.0127918
0.0127946
0.0127966
0.0127979
0.0127985
0.012825
0.0128332
0.0128445
0.0128582
0.0128736
0.0128902
0.0129074
0.0129248
0.012942
0.0129588
0.0129749
0.0129902
0.0130045
0.0130178
0.0130299
0.0130409
0.0130507
0.0130593
0.0130669
0.0130734
0.0130788
0.0130833
0.0130869
0.0130896
0.0130916
0.0130928
0.0130934
0.0131195
0.0131276
0.0131388
0.0131523
0.0131675
0.0131838
0.0132008
0.0132179
0.0132349
0.0132515
0.0132674
0.0132825
0.0132966
0.0133097
0.0133216
0.0133324
0.0133421
0.0133507
0.0133581
0.0133645
0.0133699
0.0133743
0.0133778
0.0133805
0.0133825
0.0133837
0.0133843
0.0134099
0.0134179
0.0134289
0.0134422
0.0134572
0.0134733
0.0134901
0.013507
0.0135238
0.0135401
0.0135558
0.0135707
0.0135846
0.0135975
0.0136093
0.0136199
0.0136295
0.0136379
0.0136453
0.0136516
0.0136569
0.0136612
0.0136647
0.0136674
0.0136693
0.0136705
0.0136711
0.0136962
0.0137041
0.0137149
0.0137281
0.0137429
0.0137588
0.0137752
0.0137919
0.0138085
0.0138246
0.0138401
0.0138547
0.0138685
0.0138812
0.0138928
0.0139033
0.0139127
0.013921
0.0139283
0.0139345
0.0139397
0.013944
0.0139474
0.0139501
0.0139519
0.0139531
0.0139537
0.0139783
0.0139861
0.0139968
0.0140097
0.0140243
0.01404
0.0140562
0.0140727
0.014089
0.0141049
0.0141201
0.0141346
0.0141481
0.0141606
0.0141721
0.0141824
0.0141917
0.0141999
0.014207
0.0142131
0.0142183
0.0142225
0.0142259
0.0142285
0.0142303
0.0142315
0.0142321
0.0142562
0.0142638
0.0142744
0.0142871
0.0143015
0.0143169
0.0143329
0.0143491
0.0143652
0.0143808
0.0143958
0.01441
0.0144234
0.0144357
0.014447
0.0144572
0.0144663
0.0144744
0.0144814
0.0144874
0.0144925
0.0144967
0.0145
0.0145026
0.0145044
0.0145055
0.0145061
0.0145296
0.0145371
0.0145475
0.0145601
0.0145742
0.0145894
0.0146051
0.0146211
0.0146369
0.0146523
0.0146671
0.0146811
0.0146942
0.0147063
0.0147174
0.0147274
0.0147364
0.0147444
0.0147513
0.0147572
0.0147622
0.0147663
0.0147696
0.0147721
0.0147739
0.014775
0.0147756
0.0147985
0.0148059
0.0148161
0.0148284
0.0148423
0.0148573
0.0148727
0.0148884
0.014904
0.0149191
0.0149336
0.0149474
0.0149603
0.0149722
0.0149831
0.014993
0.0150018
0.0150096
0.0150164
0.0150222
0.0150271
0.0150312
0.0150344
0.0150369
0.0150386
0.0150397
0.0150403
0.0150625
0.0150698
0.0150798
0.015092
0.0151056
0.0151203
0.0151355
0.0151509
0.0151661
0.015181
0.0151952
0.0152088
0.0152214
0.0152331
0.0152438
0.0152535
0.0152622
0.0152698
0.0152765
0.0152822
0.015287
0.015291
0.0152942
0.0152966
0.0152983
0.0152994
0.0152999
0.0153215
0.0153286
0.0153385
0.0153504
0.0153637
0.0153781
0.015393
0.0154081
0.0154231
0.0154376
0.0154516
0.0154649
0.0154773
0.0154887
0.0154992
0.0155087
0.0155172
0.0155247
0.0155313
0.0155369
0.0155416
0.0155455
0.0155486
0.0155509
0.0155526
0.0155537
0.0155542
0.015575
0.015582
0.0155916
0.0156032
0.0156163
0.0156304
0.015645
0.0156598
0.0156744
0.0156887
0.0157023
0.0157153
0.0157274
0.0157386
0.0157489
0.0157582
0.0157665
0.0157738
0.0157802
0.0157857
0.0157903
0.0157941
0.0157972
0.0157995
0.0158011
0.0158022
0.0158027
0.0158226
0.0158294
0.0158388
0.0158502
0.015863
0.0158767
0.015891
0.0159054
0.0159197
0.0159336
0.0159469
0.0159596
0.0159714
0.0159824
0.0159924
0.0160014
0.0160095
0.0160167
0.0160229
0.0160283
0.0160328
0.0160365
0.0160394
0.0160417
0.0160433
0.0160443
0.0160448
0.0160638
0.0160704
0.0160796
0.0160906
0.0161031
0.0161165
0.0161303
0.0161444
0.0161583
0.0161718
0.0161848
0.0161971
0.0162086
0.0162193
0.016229
0.0162378
0.0162457
0.0162526
0.0162587
0.0162639
0.0162683
0.0162719
0.0162748
0.0162769
0.0162785
0.0162795
0.01628
0.0162979
0.0163043
0.0163132
0.016324
0.016336
0.016349
0.0163625
0.0163761
0.0163895
0.0164027
0.0164152
0.0164272
0.0164383
0.0164486
0.0164581
0.0164666
0.0164742
0.016481
0.0164869
0.0164919
0.0164961
0.0164996
0.0165024
0.0165045
0.016506
0.016507
0.0165075
0.0165242
0.0165304
0.016539
0.0165494
0.016561
0.0165735
0.0165865
0.0165996
0.0166127
0.0166253
0.0166375
0.016649
0.0166597
0.0166697
0.0166788
0.016687
0.0166943
0.0167008
0.0167065
0.0167113
0.0167154
0.0167188
0.0167215
0.0167235
0.016725
0.0167259
0.0167263
0.0167418
0.0167477
0.016756
0.0167659
0.0167771
0.0167891
0.0168016
0.0168142
0.0168267
0.0168388
0.0168505
0.0168615
0.0168718
0.0168814
0.0168901
0.016898
0.016905
0.0169112
0.0169166
0.0169213
0.0169252
0.0169284
0.016931
0.0169329
0.0169343
0.0169352
0.0169356
0.0169496
0.0169553
0.0169631
0.0169727
0.0169833
0.0169948
0.0170067
0.0170187
0.0170306
0.0170421
0.0170532
0.0170637
0.0170735
0.0170826
0.0170909
0.0170984
0.0171051
0.017111
0.0171162
0.0171206
0.0171243
0.0171273
0.0171298
0.0171316
0.017133
0.0171338
0.0171342
0.0171466
0.0171519
0.0171594
0.0171684
0.0171785
0.0171893
0.0172005
0.0172119
0.0172231
0.017234
0.0172445
0.0172544
0.0172636
0.0172722
0.01728
0.0172871
0.0172934
0.0172989
0.0173038
0.0173079
0.0173114
0.0173143
0.0173166
0.0173184
0.0173196
0.0173204
0.0173208
0.0173314
0.0173364
0.0173434
0.0173518
0.0173612
0.0173714
0.0173819
0.0173925
0.0174029
0.0174131
0.0174229
0.0174321
0.0174408
0.0174487
0.017456
0.0174626
0.0174685
0.0174737
0.0174782
0.017482
0.0174853
0.017488
0.0174901
0.0174917
0.0174929
0.0174936
0.017494
0.0175027
0.0175074
0.0175138
0.0175216
0.0175303
0.0175397
0.0175493
0.0175591
0.0175688
0.0175782
0.0175872
0.0175957
0.0176036
0.0176109
0.0176176
0.0176237
0.017629
0.0176338
0.0176379
0.0176415
0.0176445
0.0176469
0.0176489
0.0176504
0.0176514
0.0176521
0.0176524
0.0176593
0.0176635
0.0176694
0.0176764
0.0176844
0.0176929
0.0177016
0.0177105
0.0177192
0.0177277
0.0177359
0.0177436
0.0177507
0.0177574
0.0177634
0.0177689
0.0177737
0.017778
0.0177817
0.0177849
0.0177876
0.0177898
0.0177916
0.0177929
0.0177939
0.0177945
0.0177948
0.0177998
0.0178035
0.0178088
0.0178151
0.0178221
0.0178297
0.0178375
0.0178453
0.0178531
0.0178607
0.0178679
0.0178747
0.017881
0.0178869
0.0178922
0.017897
0.0179013
0.0179051
0.0179084
0.0179112
0.0179136
0.0179155
0.0179171
0.0179182
0.0179191
0.0179196
0.0179199
0.0179231
0.0179264
0.0179309
0.0179364
0.0179425
0.0179491
0.0179559
0.0179627
0.0179694
0.0179759
0.0179822
0.0179881
0.0179935
0.0179986
0.0180032
0.0180073
0.018011
0.0180142
0.0180171
0.0180195
0.0180215
0.0180232
0.0180245
0.0180255
0.0180262
0.0180267
0.0180269
0.0180285
0.0180313
0.0180352
0.0180398
0.018045
0.0180505
0.0180562
0.0180619
0.0180676
0.0180731
0.0180783
0.0180832
0.0180878
0.018092
0.0180958
0.0180993
0.0181023
0.018105
0.0181074
0.0181094
0.0181111
0.0181124
0.0181135
0.0181144
0.018115
0.0181153
0.0181155
0.0181159
0.0181182
0.0181213
0.0181251
0.0181293
0.0181338
0.0181384
0.0181431
0.0181476
0.0181521
0.0181563
0.0181602
0.0181639
0.0181673
0.0181704
0.0181731
0.0181756
0.0181777
0.0181796
0.0181812
0.0181825
0.0181836
0.0181845
0.0181852
0.0181856
0.0181859
0.0181861
0.0181856
0.0181874
0.0181898
0.0181928
0.0181961
0.0181996
0.0182032
0.0182068
0.0182103
0.0182137
0.018217
0.01822
0.0182228
0.0182254
0.0182278
0.0182299
0.0182318
0.0182334
0.0182348
0.018236
0.018237
0.0182379
0.0182385
0.018239
0.0182394
0.0182396
0.0182397
0.0182388
0.0182401
0.0182419
0.0182441
0.0182465
0.0182491
0.0182518
0.0182544
0.018257
0.0182595
0.0182619
0.0182641
0.0182662
0.0182681
0.0182698
0.0182713
0.0182726
0.0182738
0.0182748
0.0182757
0.0182764
0.018277
0.0182775
0.0182779
0.0182781
0.0182783
0.0182783
0.0182773
0.0182782
0.0182795
0.018281
0.0182827
0.0182845
0.0182863
0.0182882
0.0182899
0.0182916
0.0182933
0.0182948
0.0182962
0.0182974
0.0182986
0.0182996
0.0183005
0.0183013
0.0183019
0.0183025
0.018303
0.0183034
0.0183037
0.0183039
0.0183041
0.0183042
0.0183043
0.0183035
0.0183041
0.0183049
0.0183058
0.0183069
0.0183081
0.0183092
0.0183104
0.0183115
0.0183125
0.0183136
0.0183145
0.0183153
0.0183161
0.0183168
0.0183174
0.018318
0.0183185
0.0183189
0.0183192
0.0183195
0.0183198
0.0183199
0.0183201
0.0183202
0.0183202
0.0183203
0.0183199
0.0183202
0.0183207
0.0183212
0.0183219
0.0183225
0.0183232
0.0183238
0.0183244
0.018325
0.0183256
0.0183261
0.0183266
0.018327
0.0183274
0.0183277
0.018328
0.0183283
0.0183285
0.0183287
0.0183289
0.018329
0.0183291
0.0183292
0.0183292
0.0183292
0.0183293
0.0183292
0.0183294
0.0183296
0.0183299
0.0183302
0.0183306
0.0183309
0.0183312
0.0183315
0.0183318
0.0183321
0.0183323
0.0183325
0.0183327
0.0183329
0.0183331
0.0183332
0.0183333
0.0183334
0.0183335
0.0183336
0.0183337
0.0183337
0.0183337
0.0183338
0.0183338
0.0183338
0.018334
0.0183341
0.0183342
0.0183343
0.0183344
0.0183346
0.0183347
0.0183348
0.018335
0.0183351
0.0183352
0.0183353
0.0183354
0.0183355
0.0183355
0.0183356
0.0183357
0.0183357
0.0183357
0.0183358
0.0183358
0.0183358
0.0183359
0.0183359
0.0183359
0.0183359
0.0183359
0.0183362
0.0183363
0.0183363
0.0183363
0.0183364
0.0183364
0.0183364
0.0183365
0.0183365
0.0183366
0.0183366
0.0183367
0.0183367
0.0183367
0.0183367
0.0183368
0.0183368
0.0183368
0.0183368
0.0183368
0.0183369
0.0183369
0.0183369
0.0183369
0.0183369
0.0183369
0.0183369
0.0183372
0.0183372
0.0183372
0.0183372
0.0183372
0.0183372
0.0183373
0.0183373
0.0183373
0.0183373
0.0183373
0.0183374
0.0183374
0.0183374
0.0183374
0.0183374
0.0183375
0.0183375
0.0183375
0.0183375
0.0183375
0.0183375
0.0183375
0.0183375
0.0183375
0.0183375
0.0183375
0.0183377
0.0183377
0.0183377
0.0183377
0.0183377
0.0183377
0.0183378
0.0183378
0.0183378
0.0183378
0.0183378
0.0183379
0.0183379
0.0183379
0.0183379
0.018338
0.018338
0.018338
0.018338
0.018338
0.018338
0.018338
0.0183381
0.0183381
0.0183381
0.0183381
0.0183381
0.0183381
0.0183381
0.0183381
0.0183381
0.0183381
0.0183382
0.0183382
0.0183382
0.0183382
0.0183383
0.0183383
0.0183383
0.0183384
0.0183384
0.0183384
0.0183384
0.0183385
0.0183385
0.0183385
0.0183385
0.0183385
0.0183385
0.0183385
0.0183385
0.0183385
0.0183385
0.0183385