/*--------------------------------*- C++ -*----------------------------------*\
| =========                 |                                                 |
| \\      /  F ield         | OpenFOAM: The Open Source CFD Toolbox           |
|  \\    /   O peration     | Version:  2106                                  |
|   \\  /    A nd           | Website:  www.openfoam.com                      |
|    \\/     M anipulation  |                                                 |
\*---------------------------------------------------------------------------*/
FoamFile
{
    version     2.0;
    format      ascii;
    arch        "LSB;label=32;scalar=64";
    class       volScalarField;
    location    "150.00049";
    object      C4H612_0;
}
// * * * * * * * * * * * * * * * * * * * * * * * * * * * * * * * * * * * * * //

dimensions      [0 0 0 0 0 0 0];

internalField   nonuniform List<scalar> 
3360
(
1.29925e-19
1.34106e-19
1.39925e-19
1.47042e-19
1.55161e-19
1.64016e-19
1.73365e-19
1.82993e-19
1.92706e-19
2.02332e-19
2.11724e-19
2.20757e-19
2.29326e-19
2.37349e-19
2.44763e-19
2.51524e-19
2.57606e-19
2.62996e-19
2.67698e-19
2.71724e-19
2.75099e-19
2.77855e-19
2.80033e-19
2.81675e-19
2.82831e-19
2.8355e-19
2.83883e-19
5.69948e-19
5.90898e-19
6.20461e-19
6.57277e-19
7.00218e-19
7.48301e-19
8.00647e-19
8.56451e-19
9.14966e-19
9.75483e-19
1.03732e-18
1.09983e-18
1.16235e-18
1.22423e-18
1.28485e-18
1.34359e-18
1.39984e-18
1.453e-18
1.50251e-18
1.54784e-18
1.58851e-18
1.62407e-18
1.65418e-18
1.67853e-18
1.6969e-18
1.70917e-18
1.71529e-18
1.78835e-18
1.86684e-18
1.97837e-18
2.11852e-18
2.28361e-18
2.47034e-18
2.67559e-18
2.89624e-18
3.12918e-18
3.37121e-18
3.61907e-18
3.86951e-18
4.11933e-18
4.36534e-18
4.60449e-18
4.83387e-18
5.05078e-18
5.2528e-18
5.43784e-18
5.60417e-18
5.75042e-18
5.87567e-18
5.97935e-18
6.0613e-18
6.12172e-18
6.16112e-18
6.1803e-18
5.2083e-18
5.46699e-18
5.83706e-18
6.30527e-18
6.86055e-18
7.49254e-18
8.19087e-18
8.9448e-18
9.74305e-18
1.05738e-17
1.14248e-17
1.22836e-17
1.31378e-17
1.39755e-17
1.47851e-17
1.55562e-17
1.62794e-17
1.6947e-17
1.75524e-17
1.80911e-17
1.85597e-17
1.89568e-17
1.92819e-17
1.95363e-17
1.97219e-17
1.98417e-17
1.98995e-17
1.5217e-17
1.60332e-17
1.72029e-17
1.86862e-17
2.04492e-17
2.24594e-17
2.46832e-17
2.70851e-17
2.96272e-17
3.22698e-17
3.49714e-17
3.76906e-17
4.03866e-17
4.30203e-17
4.55557e-17
4.79605e-17
5.02068e-17
5.22715e-17
5.41369e-17
5.57902e-17
5.72235e-17
5.84338e-17
5.9422e-17
6.01928e-17
6.07538e-17
6.11152e-17
6.12892e-17
4.48671e-17
4.73734e-17
5.097e-17
5.5535e-17
6.09638e-17
6.71552e-17
7.40047e-17
8.14008e-17
8.92243e-17
9.735e-17
1.05649e-16
1.1399e-16
1.22249e-16
1.30303e-16
1.38044e-16
1.45372e-16
1.52205e-16
1.58474e-16
1.64127e-16
1.69129e-16
1.73459e-16
1.77108e-16
1.80084e-16
1.82402e-16
1.84086e-16
1.8517e-16
1.85692e-16
1.3328e-16
1.40896e-16
1.51824e-16
1.65696e-16
1.82191e-16
2.00999e-16
2.21797e-16
2.44242e-16
2.67968e-16
2.92588e-16
3.1771e-16
3.42938e-16
3.67889e-16
3.92201e-16
4.15543e-16
4.37623e-16
4.58193e-16
4.77052e-16
4.94048e-16
5.09077e-16
5.22078e-16
5.33034e-16
5.41963e-16
5.48916e-16
5.53969e-16
5.5722e-16
5.58782e-16
3.97216e-16
4.20131e-16
4.53032e-16
4.94806e-16
5.44495e-16
6.01161e-16
6.63826e-16
7.31447e-16
8.02915e-16
8.77062e-16
9.52696e-16
1.02862e-15
1.10369e-15
1.1768e-15
1.24697e-15
1.31331e-15
1.37508e-15
1.4317e-15
1.48269e-15
1.52777e-15
1.56674e-15
1.59958e-15
1.62632e-15
1.64714e-15
1.66226e-15
1.67199e-15
1.67666e-15
1.18695e-15
1.25582e-15
1.35468e-15
1.48018e-15
1.62945e-15
1.79963e-15
1.98779e-15
2.19078e-15
2.40524e-15
2.62767e-15
2.85447e-15
3.08207e-15
3.30701e-15
3.52602e-15
3.73615e-15
3.93476e-15
4.11967e-15
4.28909e-15
4.44169e-15
4.57653e-15
4.69313e-15
4.79134e-15
4.87134e-15
4.93361e-15
4.97884e-15
5.00794e-15
5.02192e-15
3.54684e-15
3.75309e-15
4.04921e-15
4.42517e-15
4.87231e-15
5.38213e-15
5.94576e-15
6.55375e-15
7.19603e-15
7.86207e-15
8.54111e-15
9.22242e-15
9.89562e-15
1.0551e-14
1.11795e-14
1.17736e-14
1.23265e-14
1.28329e-14
1.3289e-14
1.36919e-14
1.40402e-14
1.43334e-14
1.45723e-14
1.47582e-14
1.48932e-14
1.498e-14
1.50217e-14
1.06033e-14
1.12207e-14
1.21068e-14
1.32317e-14
1.45693e-14
1.6094e-14
1.77791e-14
1.95963e-14
2.15154e-14
2.35048e-14
2.55324e-14
2.75661e-14
2.95749e-14
3.15298e-14
3.34044e-14
3.51754e-14
3.68234e-14
3.83326e-14
3.96913e-14
4.08915e-14
4.19289e-14
4.28023e-14
4.35135e-14
4.40669e-14
4.44689e-14
4.47273e-14
4.48515e-14
3.16658e-14
3.35087e-14
3.61539e-14
3.95111e-14
4.35022e-14
4.80505e-14
5.30761e-14
5.84937e-14
6.42132e-14
7.01402e-14
7.61787e-14
8.22329e-14
8.82109e-14
9.4026e-14
9.96001e-14
1.04864e-13
1.09761e-13
1.14243e-13
1.18278e-13
1.2184e-13
1.24918e-13
1.27508e-13
1.29617e-13
1.31258e-13
1.32449e-13
1.33215e-13
1.33583e-13
9.44551e-14
9.99466e-14
1.07825e-13
1.17821e-13
1.29698e-13
1.43225e-13
1.58163e-13
1.74256e-13
1.91235e-13
2.08817e-13
2.26719e-13
2.44655e-13
2.62353e-13
2.79559e-13
2.96041e-13
3.11598e-13
3.26061e-13
3.39294e-13
3.51198e-13
3.61705e-13
3.7078e-13
3.78416e-13
3.8463e-13
3.89462e-13
3.9297e-13
3.95224e-13
3.96307e-13
2.80895e-13
2.97181e-13
3.2054e-13
3.50159e-13
3.85332e-13
4.25366e-13
4.6954e-13
5.17092e-13
5.67216e-13
6.19079e-13
6.71832e-13
7.2464e-13
7.76699e-13
8.27263e-13
8.75658e-13
9.21296e-13
9.63689e-13
1.00245e-12
1.03728e-12
1.06801e-12
1.09453e-12
1.11683e-12
1.13497e-12
1.14907e-12
1.1593e-12
1.16587e-12
1.16902e-12
8.32221e-13
8.80253e-13
9.49096e-13
1.03632e-12
1.13979e-12
1.25744e-12
1.38709e-12
1.52648e-12
1.67321e-12
1.82481e-12
1.97881e-12
2.13275e-12
2.28429e-12
2.43129e-12
2.5718e-12
2.70413e-12
2.82692e-12
2.93905e-12
3.03973e-12
3.12845e-12
3.20496e-12
3.26924e-12
3.32148e-12
3.36206e-12
3.39149e-12
3.41038e-12
3.41945e-12
2.45105e-12
2.59135e-12
2.79229e-12
3.04658e-12
3.34786e-12
3.68988e-12
4.0662e-12
4.47008e-12
4.89446e-12
5.33214e-12
5.77588e-12
6.21863e-12
6.65371e-12
7.07496e-12
7.47691e-12
7.85485e-12
8.20494e-12
8.52417e-12
8.8104e-12
9.06228e-12
9.2792e-12
9.46125e-12
9.60906e-12
9.72375e-12
9.80684e-12
9.86015e-12
9.88571e-12
7.16294e-12
7.56763e-12
8.14645e-12
8.87783e-12
9.74272e-12
1.07225e-11
1.17981e-11
1.29496e-11
1.41566e-11
1.53983e-11
1.66539e-11
1.79036e-11
1.91286e-11
2.03119e-11
2.14382e-11
2.2495e-11
2.34719e-11
2.43608e-11
2.51564e-11
2.58553e-11
2.64563e-11
2.69599e-11
2.73682e-11
2.76847e-11
2.79137e-11
2.80605e-11
2.81309e-11
2.07145e-11
2.18611e-11
2.34985e-11
2.5563e-11
2.79983e-11
3.07494e-11
3.37604e-11
3.69739e-11
4.03312e-11
4.37736e-11
4.72433e-11
5.06855e-11
5.4049e-11
5.72879e-11
6.03622e-11
6.32386e-11
6.58904e-11
6.82978e-11
7.04474e-11
7.23318e-11
7.39491e-11
7.53019e-11
7.6397e-11
7.72445e-11
7.7857e-11
7.82492e-11
7.84369e-11
5.90952e-11
6.22688e-11
6.6791e-11
7.24773e-11
7.91632e-11
8.66891e-11
9.48945e-11
1.03617e-10
1.12692e-10
1.2196e-10
1.31264e-10
1.40457e-10
1.49407e-10
1.57993e-10
1.66115e-10
1.73689e-10
1.80651e-10
1.86953e-10
1.92565e-10
1.97473e-10
2.01676e-10
2.05184e-10
2.08019e-10
2.1021e-10
2.11791e-10
2.12801e-10
2.13284e-10
1.65656e-10
1.74178e-10
1.86292e-10
2.01472e-10
2.19252e-10
2.39179e-10
2.60806e-10
2.83686e-10
3.0738e-10
3.3146e-10
3.55522e-10
3.79191e-10
4.02132e-10
4.24052e-10
4.44706e-10
4.63897e-10
4.81476e-10
4.97339e-10
5.11426e-10
5.23713e-10
5.34209e-10
5.42952e-10
5.50002e-10
5.55441e-10
5.59359e-10
5.61861e-10
5.63056e-10
4.54251e-10
4.76312e-10
5.07573e-10
5.46598e-10
5.921e-10
6.42847e-10
6.97638e-10
7.55299e-10
8.14694e-10
8.74743e-10
9.34442e-10
9.92882e-10
1.04926e-09
1.1029e-09
1.15323e-09
1.19982e-09
1.24235e-09
1.2806e-09
1.31447e-09
1.34393e-09
1.36904e-09
1.3899e-09
1.4067e-09
1.41963e-09
1.42893e-09
1.43487e-09
1.43769e-09
1.21234e-09
1.26703e-09
1.34429e-09
1.44034e-09
1.55179e-09
1.67544e-09
1.80823e-09
1.9472e-09
2.08957e-09
2.23274e-09
2.37435e-09
2.51229e-09
2.64476e-09
2.77023e-09
2.88751e-09
2.99566e-09
3.09404e-09
3.18226e-09
3.26014e-09
3.32771e-09
3.38516e-09
3.43281e-09
3.47109e-09
3.50052e-09
3.52166e-09
3.53512e-09
3.54153e-09
3.13351e-09
3.26285e-09
3.44493e-09
3.67037e-09
3.93074e-09
4.21814e-09
4.52513e-09
4.84473e-09
5.17043e-09
5.4963e-09
5.81705e-09
6.12806e-09
6.42545e-09
6.70601e-09
6.96727e-09
7.20737e-09
7.42511e-09
7.6198e-09
7.79124e-09
7.93963e-09
8.06553e-09
8.16976e-09
8.25335e-09
8.31751e-09
8.36354e-09
8.39281e-09
8.40675e-09
7.81013e-09
8.10131e-09
8.51004e-09
9.01418e-09
9.59392e-09
1.02309e-08
1.09081e-08
1.16098e-08
1.23215e-08
1.30305e-08
1.37253e-08
1.43963e-08
1.50356e-08
1.56366e-08
1.61944e-08
1.67056e-08
1.71679e-08
1.75803e-08
1.79426e-08
1.82556e-08
1.85207e-08
1.87398e-08
1.89153e-08
1.90498e-08
1.91462e-08
1.92074e-08
1.92365e-08
1.87205e-08
1.93457e-08
2.0221e-08
2.12973e-08
2.25305e-08
2.38804e-08
2.53097e-08
2.67849e-08
2.82756e-08
2.97549e-08
3.11997e-08
3.25906e-08
3.39115e-08
3.51498e-08
3.62963e-08
3.73444e-08
3.82903e-08
3.91323e-08
3.98708e-08
4.05078e-08
4.10465e-08
4.14911e-08
4.18468e-08
4.21192e-08
4.23142e-08
4.2438e-08
4.24969e-08
4.31174e-08
4.44028e-08
4.6199e-08
4.84021e-08
5.09194e-08
5.36664e-08
5.65664e-08
5.95502e-08
6.25563e-08
6.55312e-08
6.84288e-08
7.12112e-08
7.38473e-08
7.63134e-08
7.85919e-08
8.0671e-08
8.25442e-08
8.42092e-08
8.56675e-08
8.69237e-08
8.79847e-08
8.88598e-08
8.95591e-08
9.00941e-08
9.04769e-08
9.07198e-08
9.08352e-08
9.55075e-08
9.80524e-08
1.01603e-07
1.0595e-07
1.10906e-07
1.16303e-07
1.21986e-07
1.2782e-07
1.33685e-07
1.39476e-07
1.45105e-07
1.50499e-07
1.55601e-07
1.60365e-07
1.64761e-07
1.68766e-07
1.7237e-07
1.7557e-07
1.7837e-07
1.80779e-07
1.82813e-07
1.84488e-07
1.85827e-07
1.8685e-07
1.87582e-07
1.88046e-07
1.88266e-07
2.0376e-07
2.08637e-07
2.15434e-07
2.23744e-07
2.33204e-07
2.43487e-07
2.543e-07
2.65382e-07
2.76503e-07
2.87469e-07
2.98113e-07
3.083e-07
3.17922e-07
3.26899e-07
3.35171e-07
3.42702e-07
3.49472e-07
3.55478e-07
3.60729e-07
3.65245e-07
3.69054e-07
3.72191e-07
3.74695e-07
3.76609e-07
3.77977e-07
3.78845e-07
3.79256e-07
4.19101e-07
4.28197e-07
4.40866e-07
4.56343e-07
4.73946e-07
4.93062e-07
5.13143e-07
5.33701e-07
5.54313e-07
5.74614e-07
5.94302e-07
6.13127e-07
6.30893e-07
6.47451e-07
6.62698e-07
6.76568e-07
6.89027e-07
7.00072e-07
7.09722e-07
7.18015e-07
7.25007e-07
7.30761e-07
7.35352e-07
7.38859e-07
7.41365e-07
7.42953e-07
7.43706e-07
8.30686e-07
8.4725e-07
8.70314e-07
8.98477e-07
9.30494e-07
9.65246e-07
1.00173e-06
1.03906e-06
1.07646e-06
1.11328e-06
1.14896e-06
1.18305e-06
1.21519e-06
1.24513e-06
1.27267e-06
1.2977e-06
1.32016e-06
1.34005e-06
1.35741e-06
1.37232e-06
1.38487e-06
1.39519e-06
1.40341e-06
1.40968e-06
1.41416e-06
1.41699e-06
1.41833e-06
1.5808e-06
1.6101e-06
1.6509e-06
1.70072e-06
1.75734e-06
1.81879e-06
1.88329e-06
1.94927e-06
2.01535e-06
2.08037e-06
2.14334e-06
2.20346e-06
2.26011e-06
2.31282e-06
2.36126e-06
2.40522e-06
2.44462e-06
2.47946e-06
2.50982e-06
2.53583e-06
2.55769e-06
2.57562e-06
2.58988e-06
2.60074e-06
2.60847e-06
2.61335e-06
2.61566e-06
2.86649e-06
2.916e-06
2.98492e-06
3.06906e-06
3.16468e-06
3.26841e-06
3.37725e-06
3.48854e-06
3.59995e-06
3.70951e-06
3.81554e-06
3.91669e-06
4.01191e-06
4.10041e-06
4.18164e-06
4.25525e-06
4.32113e-06
4.37927e-06
4.42983e-06
4.47307e-06
4.50932e-06
4.53899e-06
4.56253e-06
4.5804e-06
4.59308e-06
4.60107e-06
4.60483e-06
4.9051e-06
4.98283e-06
5.09097e-06
5.22284e-06
5.37255e-06
5.53478e-06
5.70477e-06
5.87834e-06
6.05186e-06
6.22221e-06
6.38684e-06
6.54365e-06
6.69103e-06
6.82777e-06
6.95306e-06
7.06644e-06
7.16771e-06
7.25693e-06
7.33439e-06
7.4005e-06
7.45582e-06
7.50101e-06
7.53678e-06
7.56388e-06
7.58307e-06
7.59512e-06
7.60078e-06
7.85574e-06
7.96632e-06
8.11993e-06
8.30691e-06
8.51868e-06
8.74759e-06
8.9868e-06
9.23038e-06
9.4732e-06
9.71094e-06
9.94006e-06
1.01577e-05
1.03618e-05
1.05507e-05
1.07233e-05
1.08792e-05
1.10182e-05
1.11405e-05
1.12464e-05
1.13367e-05
1.14122e-05
1.14737e-05
1.15224e-05
1.15592e-05
1.15852e-05
1.16016e-05
1.16093e-05
1.1732e-05
1.18731e-05
1.20686e-05
1.2306e-05
1.25741e-05
1.28629e-05
1.31636e-05
1.34686e-05
1.37716e-05
1.40672e-05
1.43511e-05
1.462e-05
1.48712e-05
1.51032e-05
1.53147e-05
1.55053e-05
1.56748e-05
1.58237e-05
1.59526e-05
1.60623e-05
1.61539e-05
1.62286e-05
1.62877e-05
1.63324e-05
1.6364e-05
1.63838e-05
1.63931e-05
1.63678e-05
1.65299e-05
1.67542e-05
1.70257e-05
1.73313e-05
1.76594e-05
1.79997e-05
1.83438e-05
1.86843e-05
1.90154e-05
1.93323e-05
1.96315e-05
1.99104e-05
2.01672e-05
2.04009e-05
2.06111e-05
2.07978e-05
2.09617e-05
2.11033e-05
2.12239e-05
2.13246e-05
2.14067e-05
2.14717e-05
2.15209e-05
2.15557e-05
2.15777e-05
2.15879e-05
2.14612e-05
2.16315e-05
2.18666e-05
2.21506e-05
2.24693e-05
2.28105e-05
2.31635e-05
2.35192e-05
2.38702e-05
2.42105e-05
2.45355e-05
2.48416e-05
2.51263e-05
2.53881e-05
2.5626e-05
2.58398e-05
2.60295e-05
2.61959e-05
2.63398e-05
2.64623e-05
2.65646e-05
2.66482e-05
2.67143e-05
2.67644e-05
2.68e-05
2.68224e-05
2.6833e-05
2.66663e-05
2.68326e-05
2.70619e-05
2.73384e-05
2.76482e-05
2.7979e-05
2.83206e-05
2.8664e-05
2.90023e-05
2.93297e-05
2.96419e-05
2.99354e-05
3.02082e-05
3.04588e-05
3.06863e-05
3.08907e-05
3.10721e-05
3.12312e-05
3.13688e-05
3.1486e-05
3.15839e-05
3.1664e-05
3.17274e-05
3.17756e-05
3.18098e-05
3.18314e-05
3.18415e-05
3.16769e-05
3.18305e-05
3.2042e-05
3.22968e-05
3.25819e-05
3.2886e-05
3.31995e-05
3.35143e-05
3.38241e-05
3.41236e-05
3.44088e-05
3.46769e-05
3.4926e-05
3.51546e-05
3.53622e-05
3.55487e-05
3.57142e-05
3.58595e-05
3.59852e-05
3.60923e-05
3.61819e-05
3.62552e-05
3.63134e-05
3.63576e-05
3.6389e-05
3.64089e-05
3.64183e-05
3.62717e-05
3.64075e-05
3.65945e-05
3.68196e-05
3.70713e-05
3.73396e-05
3.76159e-05
3.78933e-05
3.8166e-05
3.84295e-05
3.86804e-05
3.89162e-05
3.91352e-05
3.93362e-05
3.95188e-05
3.96829e-05
3.98286e-05
3.99565e-05
4.00673e-05
4.01618e-05
4.02409e-05
4.03057e-05
4.03571e-05
4.03963e-05
4.04241e-05
4.04418e-05
4.04501e-05
4.03205e-05
4.04367e-05
4.05966e-05
4.0789e-05
4.1004e-05
4.12331e-05
4.1469e-05
4.17057e-05
4.19384e-05
4.21632e-05
4.23772e-05
4.25783e-05
4.27651e-05
4.29367e-05
4.30926e-05
4.32327e-05
4.33572e-05
4.34665e-05
4.35613e-05
4.36422e-05
4.371e-05
4.37655e-05
4.38097e-05
4.38433e-05
4.38673e-05
4.38825e-05
4.38896e-05
4.37692e-05
4.38658e-05
4.39988e-05
4.41587e-05
4.43374e-05
4.45277e-05
4.47237e-05
4.49203e-05
4.51136e-05
4.53002e-05
4.5478e-05
4.56451e-05
4.58003e-05
4.59429e-05
4.60724e-05
4.6189e-05
4.62926e-05
4.63836e-05
4.64626e-05
4.653e-05
4.65866e-05
4.6633e-05
4.66699e-05
4.6698e-05
4.67181e-05
4.67309e-05
4.67369e-05
4.66174e-05
4.66958e-05
4.68035e-05
4.69331e-05
4.70778e-05
4.7232e-05
4.73907e-05
4.75499e-05
4.77064e-05
4.78576e-05
4.80015e-05
4.81368e-05
4.82625e-05
4.8378e-05
4.8483e-05
4.85775e-05
4.86616e-05
4.87355e-05
4.87996e-05
4.88544e-05
4.89004e-05
4.89382e-05
4.89683e-05
4.89912e-05
4.90076e-05
4.9018e-05
4.90229e-05
4.88989e-05
4.89607e-05
4.90457e-05
4.9148e-05
4.92622e-05
4.93838e-05
4.95089e-05
4.96345e-05
4.97578e-05
4.98769e-05
4.99904e-05
5.0097e-05
5.01961e-05
5.02872e-05
5.037e-05
5.04445e-05
5.05109e-05
5.05693e-05
5.06199e-05
5.06633e-05
5.06997e-05
5.07296e-05
5.07535e-05
5.07717e-05
5.07847e-05
5.0793e-05
5.07969e-05
5.06655e-05
5.07128e-05
5.07779e-05
5.08562e-05
5.09435e-05
5.10365e-05
5.11321e-05
5.1228e-05
5.13222e-05
5.14131e-05
5.14997e-05
5.15811e-05
5.16568e-05
5.17263e-05
5.17896e-05
5.18465e-05
5.18972e-05
5.19419e-05
5.19807e-05
5.20139e-05
5.20418e-05
5.20648e-05
5.20831e-05
5.20971e-05
5.21071e-05
5.21135e-05
5.21165e-05
5.19772e-05
5.2012e-05
5.20599e-05
5.21174e-05
5.21816e-05
5.22498e-05
5.232e-05
5.23902e-05
5.24592e-05
5.25258e-05
5.25892e-05
5.26488e-05
5.27041e-05
5.2755e-05
5.28013e-05
5.2843e-05
5.28801e-05
5.29129e-05
5.29413e-05
5.29657e-05
5.29862e-05
5.30031e-05
5.30166e-05
5.3027e-05
5.30344e-05
5.30391e-05
5.30414e-05
5.28951e-05
5.29192e-05
5.29524e-05
5.29923e-05
5.30367e-05
5.30838e-05
5.31322e-05
5.31807e-05
5.32282e-05
5.3274e-05
5.33176e-05
5.33585e-05
5.33966e-05
5.34315e-05
5.34633e-05
5.3492e-05
5.35175e-05
5.35401e-05
5.35597e-05
5.35765e-05
5.35907e-05
5.36024e-05
5.36118e-05
5.3619e-05
5.36242e-05
5.36275e-05
5.36291e-05
5.34772e-05
5.34924e-05
5.35132e-05
5.35382e-05
5.35659e-05
5.35953e-05
5.36255e-05
5.36555e-05
5.36849e-05
5.37132e-05
5.37401e-05
5.37653e-05
5.37887e-05
5.38102e-05
5.38298e-05
5.38475e-05
5.38632e-05
5.38772e-05
5.38893e-05
5.38998e-05
5.39086e-05
5.39159e-05
5.39218e-05
5.39263e-05
5.39296e-05
5.39317e-05
5.39327e-05
5.37771e-05
5.37848e-05
5.37953e-05
5.38078e-05
5.38217e-05
5.38362e-05
5.38511e-05
5.38658e-05
5.38801e-05
5.38938e-05
5.39067e-05
5.39188e-05
5.393e-05
5.39403e-05
5.39496e-05
5.39581e-05
5.39657e-05
5.39724e-05
5.39783e-05
5.39834e-05
5.39878e-05
5.39914e-05
5.39944e-05
5.39967e-05
5.39984e-05
5.39995e-05
5.4e-05
5.38421e-05
5.38436e-05
5.38456e-05
5.38479e-05
5.38503e-05
5.38526e-05
5.38548e-05
5.38568e-05
5.38586e-05
5.38602e-05
5.38616e-05
5.38628e-05
5.38639e-05
5.38649e-05
5.38658e-05
5.38667e-05
5.38675e-05
5.38682e-05
5.3869e-05
5.38697e-05
5.38703e-05
5.38709e-05
5.38715e-05
5.38719e-05
5.38723e-05
5.38725e-05
5.38727e-05
5.3714e-05
5.37105e-05
5.37055e-05
5.36993e-05
5.36922e-05
5.36845e-05
5.36764e-05
5.3668e-05
5.36595e-05
5.36512e-05
5.36431e-05
5.36355e-05
5.36283e-05
5.36217e-05
5.36157e-05
5.36103e-05
5.36056e-05
5.36015e-05
5.3598e-05
5.3595e-05
5.35926e-05
5.35907e-05
5.35893e-05
5.35882e-05
5.35875e-05
5.35871e-05
5.35869e-05
5.34286e-05
5.34209e-05
5.34103e-05
5.33973e-05
5.33826e-05
5.33667e-05
5.33501e-05
5.33332e-05
5.33165e-05
5.33001e-05
5.32844e-05
5.32695e-05
5.32556e-05
5.32428e-05
5.32312e-05
5.32208e-05
5.32115e-05
5.32034e-05
5.31965e-05
5.31906e-05
5.31858e-05
5.31818e-05
5.31788e-05
5.31765e-05
5.31749e-05
5.31739e-05
5.31734e-05
5.30165e-05
5.30055e-05
5.29902e-05
5.29717e-05
5.29509e-05
5.29284e-05
5.29051e-05
5.28815e-05
5.2858e-05
5.28352e-05
5.28133e-05
5.27926e-05
5.27733e-05
5.27556e-05
5.27394e-05
5.27249e-05
5.27121e-05
5.27008e-05
5.26911e-05
5.26829e-05
5.2676e-05
5.26705e-05
5.26661e-05
5.26628e-05
5.26605e-05
5.2659e-05
5.26584e-05
5.25035e-05
5.24898e-05
5.2471e-05
5.24481e-05
5.24223e-05
5.23947e-05
5.2366e-05
5.23369e-05
5.23082e-05
5.22802e-05
5.22535e-05
5.22282e-05
5.22046e-05
5.21829e-05
5.21632e-05
5.21454e-05
5.21297e-05
5.21159e-05
5.2104e-05
5.20939e-05
5.20855e-05
5.20786e-05
5.20732e-05
5.20691e-05
5.20662e-05
5.20644e-05
5.20636e-05
5.19113e-05
5.18956e-05
5.18738e-05
5.18475e-05
5.1818e-05
5.17862e-05
5.17533e-05
5.172e-05
5.16871e-05
5.16552e-05
5.16245e-05
5.15957e-05
5.15687e-05
5.1544e-05
5.15214e-05
5.15012e-05
5.14832e-05
5.14674e-05
5.14538e-05
5.14422e-05
5.14325e-05
5.14246e-05
5.14184e-05
5.14137e-05
5.14104e-05
5.14083e-05
5.14073e-05
5.1258e-05
5.12407e-05
5.12168e-05
5.11878e-05
5.11553e-05
5.11204e-05
5.10842e-05
5.10477e-05
5.10116e-05
5.09765e-05
5.0943e-05
5.09113e-05
5.08818e-05
5.08547e-05
5.083e-05
5.08078e-05
5.0788e-05
5.07707e-05
5.07558e-05
5.07431e-05
5.07324e-05
5.07238e-05
5.0717e-05
5.07118e-05
5.07081e-05
5.07058e-05
5.07047e-05
5.05586e-05
5.05401e-05
5.05145e-05
5.04836e-05
5.04488e-05
5.04115e-05
5.03729e-05
5.0334e-05
5.02954e-05
5.0258e-05
5.02223e-05
5.01885e-05
5.01571e-05
5.01282e-05
5.01018e-05
5.00782e-05
5.00572e-05
5.00387e-05
5.00228e-05
5.00092e-05
4.99979e-05
4.99886e-05
4.99813e-05
4.99758e-05
4.99718e-05
4.99694e-05
4.99682e-05
4.98255e-05
4.98061e-05
4.97793e-05
4.97469e-05
4.97105e-05
4.96715e-05
4.96311e-05
4.95903e-05
4.95501e-05
4.9511e-05
4.94736e-05
4.94383e-05
4.94055e-05
4.93753e-05
4.93478e-05
4.9323e-05
4.93011e-05
4.92818e-05
4.92651e-05
4.92509e-05
4.92391e-05
4.92294e-05
4.92217e-05
4.92159e-05
4.92118e-05
4.92092e-05
4.9208e-05
4.90688e-05
4.90487e-05
4.90211e-05
4.89877e-05
4.89501e-05
4.89099e-05
4.88683e-05
4.88263e-05
4.87848e-05
4.87445e-05
4.8706e-05
4.86697e-05
4.86359e-05
4.86048e-05
4.85765e-05
4.8551e-05
4.85284e-05
4.85085e-05
4.84913e-05
4.84767e-05
4.84645e-05
4.84545e-05
4.84466e-05
4.84406e-05
4.84364e-05
4.84337e-05
4.84325e-05
4.82967e-05
4.82763e-05
4.82481e-05
4.8214e-05
4.81757e-05
4.81347e-05
4.80923e-05
4.80495e-05
4.80072e-05
4.79662e-05
4.7927e-05
4.789e-05
4.78556e-05
4.78239e-05
4.7795e-05
4.77691e-05
4.7746e-05
4.77258e-05
4.77083e-05
4.76934e-05
4.7681e-05
4.76708e-05
4.76627e-05
4.76566e-05
4.76523e-05
4.76496e-05
4.76483e-05
4.75161e-05
4.74954e-05
4.74669e-05
4.74324e-05
4.73937e-05
4.73523e-05
4.73094e-05
4.72662e-05
4.72235e-05
4.71821e-05
4.71424e-05
4.71051e-05
4.70703e-05
4.70383e-05
4.70092e-05
4.6983e-05
4.69597e-05
4.69393e-05
4.69216e-05
4.69065e-05
4.6894e-05
4.68837e-05
4.68755e-05
4.68694e-05
4.6865e-05
4.68622e-05
4.68609e-05
4.67321e-05
4.67114e-05
4.66828e-05
4.66482e-05
4.66093e-05
4.65678e-05
4.65247e-05
4.64813e-05
4.64385e-05
4.63969e-05
4.63572e-05
4.63197e-05
4.62848e-05
4.62527e-05
4.62234e-05
4.61972e-05
4.61738e-05
4.61533e-05
4.61356e-05
4.61205e-05
4.61078e-05
4.60975e-05
4.60894e-05
4.60832e-05
4.60788e-05
4.6076e-05
4.60747e-05
4.59493e-05
4.59285e-05
4.58999e-05
4.58654e-05
4.58266e-05
4.57851e-05
4.57421e-05
4.56988e-05
4.56561e-05
4.56145e-05
4.55749e-05
4.55375e-05
4.55027e-05
4.54706e-05
4.54414e-05
4.54152e-05
4.53919e-05
4.53715e-05
4.53538e-05
4.53387e-05
4.53261e-05
4.53158e-05
4.53076e-05
4.53014e-05
4.52971e-05
4.52943e-05
4.5293e-05
4.51708e-05
4.51502e-05
4.51217e-05
4.50874e-05
4.50488e-05
4.50076e-05
4.49648e-05
4.49218e-05
4.48793e-05
4.4838e-05
4.47986e-05
4.47614e-05
4.47268e-05
4.46949e-05
4.4666e-05
4.46399e-05
4.46167e-05
4.45964e-05
4.45788e-05
4.45638e-05
4.45513e-05
4.4541e-05
4.45329e-05
4.45268e-05
4.45224e-05
4.45197e-05
4.45184e-05
4.43993e-05
4.43789e-05
4.43507e-05
4.43167e-05
4.42784e-05
4.42375e-05
4.41952e-05
4.41525e-05
4.41104e-05
4.40695e-05
4.40305e-05
4.39936e-05
4.39593e-05
4.39278e-05
4.38991e-05
4.38733e-05
4.38503e-05
4.38302e-05
4.38127e-05
4.37979e-05
4.37855e-05
4.37753e-05
4.37673e-05
4.37612e-05
4.37569e-05
4.37542e-05
4.37529e-05
4.36368e-05
4.36166e-05
4.35887e-05
4.35551e-05
4.35173e-05
4.34768e-05
4.3435e-05
4.33928e-05
4.33512e-05
4.33108e-05
4.32722e-05
4.32358e-05
4.32019e-05
4.31707e-05
4.31424e-05
4.31168e-05
4.30942e-05
4.30743e-05
4.3057e-05
4.30424e-05
4.30301e-05
4.30201e-05
4.30121e-05
4.30061e-05
4.30018e-05
4.29991e-05
4.29979e-05
4.28846e-05
4.28647e-05
4.28372e-05
4.28039e-05
4.27667e-05
4.27268e-05
4.26855e-05
4.26439e-05
4.26028e-05
4.2563e-05
4.25249e-05
4.2489e-05
4.24556e-05
4.24248e-05
4.23968e-05
4.23717e-05
4.23493e-05
4.23297e-05
4.23127e-05
4.22982e-05
4.22861e-05
4.22762e-05
4.22684e-05
4.22625e-05
4.22582e-05
4.22556e-05
4.22543e-05
4.21436e-05
4.2124e-05
4.20969e-05
4.20642e-05
4.20275e-05
4.19882e-05
4.19475e-05
4.19065e-05
4.18661e-05
4.18268e-05
4.17893e-05
4.17539e-05
4.1721e-05
4.16907e-05
4.16632e-05
4.16384e-05
4.16164e-05
4.1597e-05
4.15803e-05
4.1566e-05
4.15541e-05
4.15444e-05
4.15367e-05
4.15308e-05
4.15267e-05
4.1524e-05
4.15228e-05
4.14145e-05
4.13952e-05
4.13685e-05
4.13363e-05
4.13002e-05
4.12615e-05
4.12215e-05
4.11811e-05
4.11413e-05
4.11027e-05
4.10658e-05
4.1031e-05
4.09986e-05
4.09687e-05
4.09416e-05
4.09172e-05
4.08955e-05
4.08765e-05
4.08601e-05
4.0846e-05
4.08343e-05
4.08247e-05
4.08171e-05
4.08114e-05
4.08073e-05
4.08047e-05
4.08035e-05
4.06973e-05
4.06783e-05
4.06521e-05
4.06204e-05
4.05849e-05
4.05468e-05
4.05074e-05
4.04677e-05
4.04286e-05
4.03906e-05
4.03542e-05
4.032e-05
4.02881e-05
4.02588e-05
4.02321e-05
4.02082e-05
4.01868e-05
4.01681e-05
4.01519e-05
4.01381e-05
4.01266e-05
4.01172e-05
4.01097e-05
4.0104e-05
4.01e-05
4.00975e-05
4.00963e-05
3.9992e-05
3.99733e-05
3.99475e-05
3.99164e-05
3.98814e-05
3.98439e-05
3.98052e-05
3.97662e-05
3.97276e-05
3.96903e-05
3.96545e-05
3.96209e-05
3.95895e-05
3.95607e-05
3.95344e-05
3.95108e-05
3.94899e-05
3.94715e-05
3.94555e-05
3.9442e-05
3.94306e-05
3.94214e-05
3.9414e-05
3.94085e-05
3.94045e-05
3.9402e-05
3.94008e-05
3.92982e-05
3.92798e-05
3.92544e-05
3.92237e-05
3.91893e-05
3.91525e-05
3.91143e-05
3.90759e-05
3.9038e-05
3.90012e-05
3.89661e-05
3.89329e-05
3.89021e-05
3.88737e-05
3.88479e-05
3.88247e-05
3.88041e-05
3.8786e-05
3.87703e-05
3.87569e-05
3.87458e-05
3.87367e-05
3.87295e-05
3.8724e-05
3.87201e-05
3.87177e-05
3.87165e-05
3.86151e-05
3.8597e-05
3.8572e-05
3.85418e-05
3.85079e-05
3.84716e-05
3.84341e-05
3.83963e-05
3.8359e-05
3.83227e-05
3.82881e-05
3.82555e-05
3.82251e-05
3.81972e-05
3.81718e-05
3.81489e-05
3.81286e-05
3.81108e-05
3.80954e-05
3.80823e-05
3.80713e-05
3.80623e-05
3.80552e-05
3.80498e-05
3.8046e-05
3.80436e-05
3.80425e-05
3.7942e-05
3.79242e-05
3.78995e-05
3.78698e-05
3.78364e-05
3.78006e-05
3.77636e-05
3.77263e-05
3.76895e-05
3.76538e-05
3.76197e-05
3.75876e-05
3.75577e-05
3.75301e-05
3.75051e-05
3.74826e-05
3.74626e-05
3.7445e-05
3.74298e-05
3.74169e-05
3.74061e-05
3.73972e-05
3.73903e-05
3.7385e-05
3.73812e-05
3.73788e-05
3.73777e-05
3.72779e-05
3.72603e-05
3.72359e-05
3.72066e-05
3.71736e-05
3.71383e-05
3.71018e-05
3.7065e-05
3.70287e-05
3.69935e-05
3.69598e-05
3.69281e-05
3.68986e-05
3.68714e-05
3.68467e-05
3.68245e-05
3.68048e-05
3.67875e-05
3.67725e-05
3.67597e-05
3.67491e-05
3.67404e-05
3.67335e-05
3.67282e-05
3.67245e-05
3.67222e-05
3.67211e-05
3.66215e-05
3.66041e-05
3.65801e-05
3.65511e-05
3.65185e-05
3.64836e-05
3.64475e-05
3.64112e-05
3.63753e-05
3.63405e-05
3.63073e-05
3.62759e-05
3.62468e-05
3.62199e-05
3.61955e-05
3.61736e-05
3.61541e-05
3.6137e-05
3.61222e-05
3.61096e-05
3.60991e-05
3.60905e-05
3.60837e-05
3.60786e-05
3.60749e-05
3.60726e-05
3.60715e-05
3.59719e-05
3.59546e-05
3.59309e-05
3.59021e-05
3.58699e-05
3.58354e-05
3.57997e-05
3.57637e-05
3.57282e-05
3.56938e-05
3.56609e-05
3.56299e-05
3.56011e-05
3.55745e-05
3.55504e-05
3.55287e-05
3.55095e-05
3.54926e-05
3.5478e-05
3.54655e-05
3.54551e-05
3.54466e-05
3.54399e-05
3.54348e-05
3.54312e-05
3.5429e-05
3.54279e-05
3.53279e-05
3.53108e-05
3.52873e-05
3.52588e-05
3.52269e-05
3.51927e-05
3.51574e-05
3.51218e-05
3.50866e-05
3.50525e-05
3.502e-05
3.49893e-05
3.49608e-05
3.49345e-05
3.49106e-05
3.48892e-05
3.48701e-05
3.48534e-05
3.4839e-05
3.48267e-05
3.48164e-05
3.4808e-05
3.48014e-05
3.47964e-05
3.47928e-05
3.47906e-05
3.47895e-05
3.4689e-05
3.46721e-05
3.46488e-05
3.46206e-05
3.4589e-05
3.45552e-05
3.45202e-05
3.44849e-05
3.44501e-05
3.44163e-05
3.43841e-05
3.43537e-05
3.43255e-05
3.42995e-05
3.42759e-05
3.42547e-05
3.42358e-05
3.42193e-05
3.42051e-05
3.41929e-05
3.41828e-05
3.41745e-05
3.41679e-05
3.4163e-05
3.41595e-05
3.41573e-05
3.41562e-05
3.40554e-05
3.40387e-05
3.40156e-05
3.39877e-05
3.39564e-05
3.3923e-05
3.38883e-05
3.38535e-05
3.38191e-05
3.37857e-05
3.37539e-05
3.37239e-05
3.3696e-05
3.36703e-05
3.3647e-05
3.36261e-05
3.36075e-05
3.35912e-05
3.35771e-05
3.35652e-05
3.35552e-05
3.3547e-05
3.35406e-05
3.35357e-05
3.35322e-05
3.35301e-05
3.3529e-05
3.34283e-05
3.34118e-05
3.3389e-05
3.33615e-05
3.33307e-05
3.32977e-05
3.32636e-05
3.32293e-05
3.31954e-05
3.31626e-05
3.31313e-05
3.31018e-05
3.30743e-05
3.30491e-05
3.30263e-05
3.30057e-05
3.29875e-05
3.29715e-05
3.29577e-05
3.29459e-05
3.29361e-05
3.29282e-05
3.29219e-05
3.29171e-05
3.29137e-05
3.29116e-05
3.29106e-05
3.28108e-05
3.27946e-05
3.27723e-05
3.27454e-05
3.27153e-05
3.2683e-05
3.26497e-05
3.26162e-05
3.25831e-05
3.2551e-05
3.25205e-05
3.24917e-05
3.2465e-05
3.24404e-05
3.24181e-05
3.23981e-05
3.23804e-05
3.23649e-05
3.23515e-05
3.23401e-05
3.23306e-05
3.23228e-05
3.23167e-05
3.23121e-05
3.23088e-05
3.23068e-05
3.23058e-05
3.22084e-05
3.21928e-05
3.21712e-05
3.21452e-05
3.21161e-05
3.20849e-05
3.20528e-05
3.20204e-05
3.19886e-05
3.19577e-05
3.19283e-05
3.19007e-05
3.1875e-05
3.18514e-05
3.18301e-05
3.18109e-05
3.17939e-05
3.17791e-05
3.17662e-05
3.17554e-05
3.17463e-05
3.17389e-05
3.17331e-05
3.17287e-05
3.17256e-05
3.17236e-05
3.17227e-05
3.16296e-05
3.16147e-05
3.15943e-05
3.15697e-05
3.15421e-05
3.15126e-05
3.14822e-05
3.14517e-05
3.14216e-05
3.13926e-05
3.13649e-05
3.13389e-05
3.13148e-05
3.12927e-05
3.12727e-05
3.12547e-05
3.12389e-05
3.1225e-05
3.1213e-05
3.12029e-05
3.11945e-05
3.11876e-05
3.11822e-05
3.11781e-05
3.11752e-05
3.11734e-05
3.11725e-05
3.10861e-05
3.10724e-05
3.10536e-05
3.10309e-05
3.10056e-05
3.09785e-05
3.09506e-05
3.09227e-05
3.08952e-05
3.08687e-05
3.08435e-05
3.08198e-05
3.0798e-05
3.07779e-05
3.07598e-05
3.07436e-05
3.07293e-05
3.07168e-05
3.0706e-05
3.06969e-05
3.06893e-05
3.06832e-05
3.06783e-05
3.06747e-05
3.06721e-05
3.06705e-05
3.06697e-05
3.05924e-05
3.05803e-05
3.05636e-05
3.05436e-05
3.05213e-05
3.04975e-05
3.04731e-05
3.04486e-05
3.04246e-05
3.04015e-05
3.03795e-05
3.0359e-05
3.03401e-05
3.03228e-05
3.03072e-05
3.02933e-05
3.0281e-05
3.02703e-05
3.02611e-05
3.02534e-05
3.02469e-05
3.02417e-05
3.02376e-05
3.02345e-05
3.02323e-05
3.0231e-05
3.02303e-05
3.01639e-05
3.01538e-05
3.01399e-05
3.01233e-05
3.01048e-05
3.00851e-05
3.00649e-05
3.00448e-05
3.00251e-05
3.00063e-05
2.99884e-05
2.99718e-05
2.99565e-05
2.99426e-05
2.993e-05
2.99189e-05
2.99091e-05
2.99006e-05
2.98933e-05
2.98872e-05
2.98822e-05
2.98781e-05
2.98749e-05
2.98724e-05
2.98707e-05
2.98697e-05
2.98692e-05
2.98144e-05
2.98067e-05
2.97961e-05
2.97833e-05
2.97692e-05
2.97543e-05
2.97391e-05
2.97239e-05
2.97092e-05
2.96952e-05
2.9682e-05
2.96697e-05
2.96585e-05
2.96484e-05
2.96393e-05
2.96313e-05
2.96243e-05
2.96182e-05
2.96131e-05
2.96087e-05
2.96052e-05
2.96023e-05
2.96001e-05
2.95984e-05
2.95973e-05
2.95966e-05
2.95962e-05
2.95525e-05
2.95472e-05
2.954e-05
2.95314e-05
2.95219e-05
2.9512e-05
2.95019e-05
2.94919e-05
2.94823e-05
2.94732e-05
2.94648e-05
2.9457e-05
2.945e-05
2.94436e-05
2.9438e-05
2.94331e-05
2.94289e-05
2.94253e-05
2.94222e-05
2.94197e-05
2.94177e-05
2.9416e-05
2.94148e-05
2.94138e-05
2.94132e-05
2.94128e-05
2.94126e-05
2.9378e-05
2.93751e-05
2.93711e-05
2.93664e-05
2.93613e-05
2.93559e-05
2.93506e-05
2.93455e-05
2.93406e-05
2.9336e-05
2.93319e-05
2.93281e-05
2.93248e-05
2.93219e-05
2.93194e-05
2.93173e-05
2.93155e-05
2.9314e-05
2.93128e-05
2.93119e-05
2.93111e-05
2.93105e-05
2.93101e-05
2.93098e-05
2.93096e-05
2.93095e-05
2.93094e-05
2.92817e-05
2.92808e-05
2.92794e-05
2.9278e-05
2.92764e-05
2.92748e-05
2.92734e-05
2.92721e-05
2.9271e-05
2.927e-05
2.92693e-05
2.92687e-05
2.92684e-05
2.92681e-05
2.9268e-05
2.9268e-05