/*--------------------------------*- C++ -*----------------------------------*\
| =========                 |                                                 |
| \\      /  F ield         | OpenFOAM: The Open Source CFD Toolbox           |
|  \\    /   O peration     | Version:  2106                                  |
|   \\  /    A nd           | Website:  www.openfoam.com                      |
|    \\/     M anipulation  |                                                 |
\*---------------------------------------------------------------------------*/
FoamFile
{
    version     2.0;
    format      ascii;
    arch        "LSB;label=32;scalar=64";
    class       volScalarField;
    location    "150.00049";
    object      C4H61_0;
}
// * * * * * * * * * * * * * * * * * * * * * * * * * * * * * * * * * * * * * //

dimensions      [0 0 0 0 0 0 0];

internalField   nonuniform List<scalar> 
3360
(
2.7814e-20
2.87091e-20
2.99547e-20
3.14784e-20
3.32165e-20
3.51121e-20
3.71137e-20
3.91748e-20
4.1254e-20
4.33148e-20
4.53254e-20
4.72591e-20
4.90935e-20
5.08111e-20
5.23983e-20
5.38458e-20
5.51477e-20
5.63017e-20
5.73081e-20
5.817e-20
5.88926e-20
5.94827e-20
5.99488e-20
6.03004e-20
6.05478e-20
6.07017e-20
6.07731e-20
1.22013e-19
1.26498e-19
1.32827e-19
1.40708e-19
1.49901e-19
1.60195e-19
1.71401e-19
1.83347e-19
1.95874e-19
2.08829e-19
2.22068e-19
2.35449e-19
2.48832e-19
2.62081e-19
2.75059e-19
2.87633e-19
2.99674e-19
3.11055e-19
3.21654e-19
3.31358e-19
3.40064e-19
3.47678e-19
3.54123e-19
3.59335e-19
3.63269e-19
3.65895e-19
3.67205e-19
3.82846e-19
3.99649e-19
4.23525e-19
4.53528e-19
4.8887e-19
5.28846e-19
5.72784e-19
6.20021e-19
6.69888e-19
7.21702e-19
7.74763e-19
8.28377e-19
8.81856e-19
9.34523e-19
9.8572e-19
1.03482e-18
1.08126e-18
1.12451e-18
1.16412e-18
1.19973e-18
1.23104e-18
1.25785e-18
1.28005e-18
1.29759e-18
1.31052e-18
1.31896e-18
1.32306e-18
1.11498e-18
1.17036e-18
1.24959e-18
1.34982e-18
1.46869e-18
1.60399e-18
1.75348e-18
1.91488e-18
2.08577e-18
2.26362e-18
2.44579e-18
2.62964e-18
2.81252e-18
2.99183e-18
3.16515e-18
3.33023e-18
3.48506e-18
3.62797e-18
3.75759e-18
3.8729e-18
3.97323e-18
4.05823e-18
4.12784e-18
4.18228e-18
4.22201e-18
4.24767e-18
4.26004e-18
3.25763e-18
3.43234e-18
3.68275e-18
4.0003e-18
4.37773e-18
4.80806e-18
5.28412e-18
5.79831e-18
6.34253e-18
6.90824e-18
7.48661e-18
8.06873e-18
8.64587e-18
9.20969e-18
9.75247e-18
1.02673e-17
1.07482e-17
1.11902e-17
1.15895e-17
1.19434e-17
1.22503e-17
1.25094e-17
1.27209e-17
1.28859e-17
1.3006e-17
1.30834e-17
1.31207e-17
9.60505e-18
1.01416e-17
1.09116e-17
1.18888e-17
1.3051e-17
1.43764e-17
1.58428e-17
1.74261e-17
1.91009e-17
2.08405e-17
2.2617e-17
2.44028e-17
2.61707e-17
2.7895e-17
2.95521e-17
3.11209e-17
3.25837e-17
3.39258e-17
3.51361e-17
3.62069e-17
3.71337e-17
3.7915e-17
3.8552e-17
3.90481e-17
3.94088e-17
3.96409e-17
3.97524e-17
2.85322e-17
3.01626e-17
3.25022e-17
3.54718e-17
3.9003e-17
4.30294e-17
4.74819e-17
5.22869e-17
5.73659e-17
6.26367e-17
6.80147e-17
7.34155e-17
7.8757e-17
8.39616e-17
8.89586e-17
9.36854e-17
9.80889e-17
1.02126e-16
1.05765e-16
1.08982e-16
1.11765e-16
1.14111e-16
1.16022e-16
1.17511e-16
1.18592e-16
1.19288e-16
1.19623e-16
8.50351e-17
8.99408e-17
9.69841e-17
1.05927e-16
1.16564e-16
1.28695e-16
1.4211e-16
1.56587e-16
1.71886e-16
1.8776e-16
2.03951e-16
2.20206e-16
2.36275e-16
2.51927e-16
2.66948e-16
2.8115e-16
2.94375e-16
3.06494e-16
3.17412e-16
3.27061e-16
3.35405e-16
3.42434e-16
3.48159e-16
3.52616e-16
3.55853e-16
3.57936e-16
3.58936e-16
2.541e-16
2.68844e-16
2.90007e-16
3.16875e-16
3.48828e-16
3.85262e-16
4.25543e-16
4.68997e-16
5.14909e-16
5.62525e-16
6.11079e-16
6.59804e-16
7.07958e-16
7.54844e-16
7.99826e-16
8.42346e-16
8.81931e-16
9.182e-16
9.50866e-16
9.79735e-16
1.0047e-15
1.02572e-15
1.04285e-15
1.05618e-15
1.06586e-15
1.07209e-15
1.07508e-15
7.59299e-16
8.03454e-16
8.66846e-16
9.47332e-16
1.04305e-15
1.1522e-15
1.27286e-15
1.40301e-15
1.54051e-15
1.6831e-15
1.82846e-15
1.97432e-15
2.11843e-15
2.25872e-15
2.39329e-15
2.52046e-15
2.63882e-15
2.74724e-15
2.84487e-15
2.93113e-15
3.00569e-15
3.06847e-15
3.11961e-15
3.1594e-15
3.1883e-15
3.20688e-15
3.21581e-15
2.26993e-15
2.40209e-15
2.5918e-15
2.83262e-15
3.11896e-15
3.44536e-15
3.80611e-15
4.19513e-15
4.60597e-15
5.03187e-15
5.46593e-15
5.9013e-15
6.33134e-15
6.74984e-15
7.15114e-15
7.53028e-15
7.88307e-15
8.20617e-15
8.49703e-15
8.75397e-15
8.97605e-15
9.16302e-15
9.31528e-15
9.43376e-15
9.5198e-15
9.57512e-15
9.6017e-15
6.77894e-15
7.17347e-15
7.73974e-15
8.45845e-15
9.31287e-15
1.02866e-14
1.13624e-14
1.25222e-14
1.37466e-14
1.50155e-14
1.63082e-14
1.76043e-14
1.8884e-14
2.01289e-14
2.13222e-14
2.24491e-14
2.34974e-14
2.4457e-14
2.53206e-14
2.60832e-14
2.67421e-14
2.72967e-14
2.77482e-14
2.80994e-14
2.83544e-14
2.85183e-14
2.85971e-14
2.02208e-14
2.13964e-14
2.3083e-14
2.52229e-14
2.77654e-14
3.06613e-14
3.38592e-14
3.73044e-14
4.09391e-14
4.47032e-14
4.85354e-14
5.23752e-14
5.6164e-14
5.98474e-14
6.33758e-14
6.67063e-14
6.98024e-14
7.26354e-14
7.51838e-14
7.74331e-14
7.93758e-14
8.10104e-14
8.23407e-14
8.33752e-14
8.41261e-14
8.46087e-14
8.48405e-14
6.01334e-14
6.36199e-14
6.86204e-14
7.49613e-14
8.24911e-14
9.10614e-14
1.00518e-13
1.10698e-13
1.21428e-13
1.32531e-13
1.43824e-13
1.55129e-13
1.66274e-13
1.77099e-13
1.87459e-13
1.97229e-13
2.06304e-13
2.14602e-13
2.2206e-13
2.28638e-13
2.34315e-13
2.39089e-13
2.42972e-13
2.4599e-13
2.4818e-13
2.49587e-13
2.50262e-13
1.7816e-13
1.88443e-13
2.03181e-13
2.21853e-13
2.44005e-13
2.69189e-13
2.96945e-13
3.26785e-13
3.58197e-13
3.90652e-13
4.23619e-13
4.56574e-13
4.89017e-13
5.20485e-13
5.50565e-13
5.78895e-13
6.0518e-13
6.29185e-13
6.50739e-13
6.69732e-13
6.8611e-13
6.99871e-13
7.11056e-13
7.19743e-13
7.26043e-13
7.30088e-13
7.32029e-13
5.24715e-13
5.54752e-13
5.97767e-13
6.52206e-13
7.16704e-13
7.89923e-13
8.70485e-13
9.56945e-13
1.0478e-12
1.14149e-12
1.23649e-12
1.33127e-12
1.42441e-12
1.51459e-12
1.60064e-12
1.68155e-12
1.7565e-12
1.82484e-12
1.88611e-12
1.94003e-12
1.98647e-12
2.02544e-12
2.05709e-12
2.08164e-12
2.09943e-12
2.11084e-12
2.11631e-12
1.53343e-12
1.62006e-12
1.74398e-12
1.90055e-12
2.0857e-12
2.29545e-12
2.52571e-12
2.77223e-12
3.03062e-12
3.29643e-12
3.56524e-12
3.83278e-12
4.09502e-12
4.34832e-12
4.58946e-12
4.81569e-12
5.02481e-12
5.21512e-12
5.38543e-12
5.53505e-12
5.66371e-12
5.77152e-12
5.85894e-12
5.92669e-12
5.97572e-12
6.00714e-12
6.0222e-12
4.43453e-12
4.68e-12
5.03052e-12
5.47249e-12
5.99384e-12
6.58279e-12
7.22738e-12
7.91531e-12
8.63404e-12
9.37097e-12
1.01138e-11
1.08507e-11
1.15707e-11
1.22641e-11
1.29222e-11
1.3538e-11
1.41057e-11
1.46211e-11
1.50813e-11
1.54847e-11
1.58309e-11
1.61205e-11
1.63549e-11
1.65364e-11
1.66675e-11
1.67515e-11
1.67916e-11
1.26511e-11
1.33305e-11
1.42986e-11
1.55159e-11
1.69472e-11
1.85583e-11
2.03149e-11
2.21822e-11
2.41251e-11
2.61091e-11
2.81009e-11
3.0069e-11
3.19848e-11
3.3823e-11
3.55617e-11
3.71832e-11
3.86736e-11
4.00227e-11
4.12241e-11
4.22748e-11
4.31746e-11
4.39257e-11
4.45326e-11
4.50015e-11
4.53399e-11
4.55563e-11
4.56598e-11
3.54637e-11
3.72883e-11
3.98815e-11
4.31314e-11
4.69376e-11
5.12036e-11
5.58335e-11
6.07317e-11
6.58041e-11
7.09592e-11
7.61104e-11
8.11775e-11
8.60887e-11
9.07814e-11
9.5203e-11
9.93114e-11
1.03075e-10
1.06471e-10
1.09487e-10
1.12117e-10
1.14364e-10
1.16236e-10
1.17745e-10
1.18909e-10
1.19748e-10
1.20284e-10
1.2054e-10
9.72479e-11
1.01971e-10
1.08663e-10
1.17018e-10
1.26759e-10
1.37623e-10
1.49353e-10
1.61698e-10
1.74413e-10
1.87269e-10
2.0005e-10
2.12561e-10
2.24631e-10
2.36114e-10
2.4689e-10
2.56864e-10
2.65968e-10
2.74158e-10
2.81409e-10
2.87716e-10
2.93091e-10
2.97558e-10
3.01154e-10
3.03922e-10
3.05914e-10
3.07184e-10
3.0779e-10
2.5955e-10
2.7126e-10
2.878e-10
3.08363e-10
3.32224e-10
3.58697e-10
3.87126e-10
4.16879e-10
4.47359e-10
4.78012e-10
5.08329e-10
5.37863e-10
5.66224e-10
5.93088e-10
6.18196e-10
6.41352e-10
6.62415e-10
6.81303e-10
6.97978e-10
7.12445e-10
7.24745e-10
7.34947e-10
7.43143e-10
7.49443e-10
7.53969e-10
7.56851e-10
7.58223e-10
6.70899e-10
6.98591e-10
7.37577e-10
7.85846e-10
8.41592e-10
9.03127e-10
9.68858e-10
1.03729e-09
1.10702e-09
1.1768e-09
1.24548e-09
1.31207e-09
1.37575e-09
1.43582e-09
1.49176e-09
1.54317e-09
1.5898e-09
1.63148e-09
1.66819e-09
1.69997e-09
1.72693e-09
1.74925e-09
1.76715e-09
1.78088e-09
1.79074e-09
1.79701e-09
1.79999e-09
1.67242e-09
1.73477e-09
1.8223e-09
1.93025e-09
2.0544e-09
2.19081e-09
2.33582e-09
2.48608e-09
2.63849e-09
2.79031e-09
2.9391e-09
3.08281e-09
3.2197e-09
3.3484e-09
3.46786e-09
3.57733e-09
3.67634e-09
3.76465e-09
3.84224e-09
3.90927e-09
3.96604e-09
4.01296e-09
4.05054e-09
4.07935e-09
4.09999e-09
4.1131e-09
4.11934e-09
4.00991e-09
4.14382e-09
4.33132e-09
4.56187e-09
4.82603e-09
5.11517e-09
5.42135e-09
5.73735e-09
6.05665e-09
6.37353e-09
6.68303e-09
6.98096e-09
7.26391e-09
7.52918e-09
7.77477e-09
7.99929e-09
8.20191e-09
8.3823e-09
8.5405e-09
8.67696e-09
8.79236e-09
8.88762e-09
8.96382e-09
9.02217e-09
9.06395e-09
9.09047e-09
9.10308e-09
9.24092e-09
9.51651e-09
9.90163e-09
1.0374e-08
1.09137e-08
1.15028e-08
1.21246e-08
1.27645e-08
1.34092e-08
1.40472e-08
1.46687e-08
1.52655e-08
1.58309e-08
1.636e-08
1.68488e-08
1.72949e-08
1.76969e-08
1.80542e-08
1.83671e-08
1.86367e-08
1.88645e-08
1.90523e-08
1.92024e-08
1.93173e-08
1.93995e-08
1.94516e-08
1.94764e-08
2.04919e-08
2.1039e-08
2.18024e-08
2.27371e-08
2.3803e-08
2.49639e-08
2.61869e-08
2.74426e-08
2.87052e-08
2.99523e-08
3.1165e-08
3.23275e-08
3.34272e-08
3.44546e-08
3.54026e-08
3.62668e-08
3.70445e-08
3.77351e-08
3.83395e-08
3.88598e-08
3.9299e-08
3.96609e-08
3.995e-08
4.01711e-08
4.03293e-08
4.04295e-08
4.04771e-08
4.3824e-08
4.48793e-08
4.63506e-08
4.81501e-08
5.01998e-08
5.24291e-08
5.47745e-08
5.71798e-08
5.95953e-08
6.19784e-08
6.4293e-08
6.65097e-08
6.86048e-08
7.05604e-08
7.23635e-08
7.40059e-08
7.54831e-08
7.67942e-08
7.79409e-08
7.89275e-08
7.976e-08
8.04457e-08
8.09934e-08
8.1412e-08
8.17113e-08
8.19011e-08
8.19912e-08
9.0593e-08
9.25846e-08
9.53603e-08
9.87534e-08
1.02616e-07
1.06815e-07
1.11231e-07
1.15756e-07
1.20299e-07
1.2478e-07
1.29129e-07
1.33294e-07
1.37228e-07
1.409e-07
1.44285e-07
1.47367e-07
1.50139e-07
1.52598e-07
1.54749e-07
1.56599e-07
1.5816e-07
1.59446e-07
1.60472e-07
1.61257e-07
1.61818e-07
1.62174e-07
1.62342e-07
1.81147e-07
1.84838e-07
1.89982e-07
1.96272e-07
2.03432e-07
2.11219e-07
2.19409e-07
2.27807e-07
2.3624e-07
2.44561e-07
2.52643e-07
2.60385e-07
2.67703e-07
2.74535e-07
2.80837e-07
2.86578e-07
2.91743e-07
2.96328e-07
3.00339e-07
3.0379e-07
3.06702e-07
3.09102e-07
3.11018e-07
3.12483e-07
3.1353e-07
3.14194e-07
3.14509e-07
3.49444e-07
3.56123e-07
3.65436e-07
3.76828e-07
3.89807e-07
4.03929e-07
4.18797e-07
4.34055e-07
4.49392e-07
4.64537e-07
4.79263e-07
4.93381e-07
5.06737e-07
5.19217e-07
5.30733e-07
5.41231e-07
5.50677e-07
5.59063e-07
5.66396e-07
5.727e-07
5.7801e-07
5.82372e-07
5.85846e-07
5.88494e-07
5.90383e-07
5.91578e-07
5.92144e-07
6.45781e-07
6.57313e-07
6.73386e-07
6.93036e-07
7.15405e-07
7.39721e-07
7.65286e-07
7.9148e-07
8.17755e-07
8.43635e-07
8.68713e-07
8.9265e-07
9.15169e-07
9.36057e-07
9.5519e-07
9.72513e-07
9.88006e-07
1.00169e-06
1.01359e-06
1.0238e-06
1.03237e-06
1.0394e-06
1.045e-06
1.04927e-06
1.05231e-06
1.05424e-06
1.05515e-06
1.13076e-06
1.14901e-06
1.17439e-06
1.20528e-06
1.24026e-06
1.27802e-06
1.31739e-06
1.35736e-06
1.39716e-06
1.43611e-06
1.47365e-06
1.50935e-06
1.54287e-06
1.57395e-06
1.60245e-06
1.62826e-06
1.65135e-06
1.67175e-06
1.68951e-06
1.70473e-06
1.71752e-06
1.72802e-06
1.73637e-06
1.74274e-06
1.74729e-06
1.75016e-06
1.75152e-06
1.84568e-06
1.87095e-06
1.90601e-06
1.94861e-06
1.99677e-06
2.04874e-06
2.10295e-06
2.15807e-06
2.21297e-06
2.26669e-06
2.31847e-06
2.3677e-06
2.41391e-06
2.45676e-06
2.49603e-06
2.5316e-06
2.56343e-06
2.59154e-06
2.61601e-06
2.63699e-06
2.65462e-06
2.66909e-06
2.68061e-06
2.68939e-06
2.69565e-06
2.69961e-06
2.70149e-06
2.79885e-06
2.83136e-06
2.87643e-06
2.93114e-06
2.99294e-06
3.05954e-06
3.12896e-06
3.19948e-06
3.26964e-06
3.33823e-06
3.40427e-06
3.46699e-06
3.52581e-06
3.58032e-06
3.63024e-06
3.67543e-06
3.71585e-06
3.75153e-06
3.7826e-06
3.80921e-06
3.83158e-06
3.84994e-06
3.86456e-06
3.8757e-06
3.88365e-06
3.88867e-06
3.89105e-06
3.98337e-06
4.02237e-06
4.07638e-06
4.14188e-06
4.21576e-06
4.29526e-06
4.378e-06
4.46191e-06
4.54527e-06
4.62664e-06
4.70487e-06
4.77909e-06
4.84861e-06
4.91297e-06
4.97186e-06
5.02513e-06
5.07274e-06
5.11477e-06
5.15134e-06
5.18267e-06
5.209e-06
5.23061e-06
5.24783e-06
5.26095e-06
5.27032e-06
5.27624e-06
5.27905e-06
5.36651e-06
5.41042e-06
5.47119e-06
5.54479e-06
5.62769e-06
5.71679e-06
5.80937e-06
5.90312e-06
5.99612e-06
6.08678e-06
6.17384e-06
6.25634e-06
6.33354e-06
6.40494e-06
6.47024e-06
6.52927e-06
6.58201e-06
6.62854e-06
6.66903e-06
6.70371e-06
6.73286e-06
6.7568e-06
6.77586e-06
6.79041e-06
6.80079e-06
6.80736e-06
6.81048e-06
6.89681e-06
6.94374e-06
7.00864e-06
7.08718e-06
7.17555e-06
7.27042e-06
7.36888e-06
7.46849e-06
7.56718e-06
7.66331e-06
7.75553e-06
7.84285e-06
7.9245e-06
7.99999e-06
8.06898e-06
8.13133e-06
8.18703e-06
8.23616e-06
8.27891e-06
8.31553e-06
8.34632e-06
8.3716e-06
8.39175e-06
8.40712e-06
8.4181e-06
8.42505e-06
8.42835e-06
8.51631e-06
8.56449e-06
8.63109e-06
8.71163e-06
8.8022e-06
8.89935e-06
9.00011e-06
9.10196e-06
9.20281e-06
9.30097e-06
9.3951e-06
9.48417e-06
9.56744e-06
9.64439e-06
9.71471e-06
9.77825e-06
9.835e-06
9.88506e-06
9.92862e-06
9.96594e-06
9.99732e-06
1.00231e-05
1.00436e-05
1.00593e-05
1.00705e-05
1.00776e-05
1.0081e-05
1.01708e-05
1.02188e-05
1.02852e-05
1.03654e-05
1.04555e-05
1.05522e-05
1.06524e-05
1.07536e-05
1.08538e-05
1.09513e-05
1.10448e-05
1.11332e-05
1.12159e-05
1.12922e-05
1.1362e-05
1.14251e-05
1.14814e-05
1.1531e-05
1.15743e-05
1.16113e-05
1.16425e-05
1.16681e-05
1.16885e-05
1.1704e-05
1.17152e-05
1.17222e-05
1.17256e-05
1.18156e-05
1.18624e-05
1.19271e-05
1.20052e-05
1.20931e-05
1.21872e-05
1.22848e-05
1.23834e-05
1.24809e-05
1.25758e-05
1.26668e-05
1.27528e-05
1.28332e-05
1.29075e-05
1.29754e-05
1.30367e-05
1.30915e-05
1.31398e-05
1.31819e-05
1.32179e-05
1.32482e-05
1.32732e-05
1.3293e-05
1.33082e-05
1.3319e-05
1.33259e-05
1.33292e-05
1.34169e-05
1.34618e-05
1.35239e-05
1.35989e-05
1.36831e-05
1.37735e-05
1.3867e-05
1.39616e-05
1.40551e-05
1.4146e-05
1.42332e-05
1.43157e-05
1.43927e-05
1.44639e-05
1.4529e-05
1.45878e-05
1.46403e-05
1.46866e-05
1.4727e-05
1.47615e-05
1.47906e-05
1.48145e-05
1.48336e-05
1.48481e-05
1.48585e-05
1.48651e-05
1.48683e-05
1.49514e-05
1.4994e-05
1.50529e-05
1.5124e-05
1.52039e-05
1.52895e-05
1.53783e-05
1.54679e-05
1.55565e-05
1.56428e-05
1.57254e-05
1.58036e-05
1.58766e-05
1.59441e-05
1.60057e-05
1.60615e-05
1.61112e-05
1.61552e-05
1.61934e-05
1.62262e-05
1.62537e-05
1.62764e-05
1.62945e-05
1.63083e-05
1.63182e-05
1.63244e-05
1.63274e-05
1.64043e-05
1.64444e-05
1.64997e-05
1.65666e-05
1.66417e-05
1.67222e-05
1.68056e-05
1.68899e-05
1.69732e-05
1.70542e-05
1.71319e-05
1.72054e-05
1.7274e-05
1.73374e-05
1.73954e-05
1.74477e-05
1.74945e-05
1.75358e-05
1.75718e-05
1.76026e-05
1.76285e-05
1.76498e-05
1.76668e-05
1.76798e-05
1.76891e-05
1.7695e-05
1.76978e-05
1.77674e-05
1.78049e-05
1.78566e-05
1.7919e-05
1.79892e-05
1.80644e-05
1.81423e-05
1.8221e-05
1.82988e-05
1.83745e-05
1.8447e-05
1.85156e-05
1.85797e-05
1.86389e-05
1.8693e-05
1.87419e-05
1.87856e-05
1.88242e-05
1.88577e-05
1.88865e-05
1.89107e-05
1.89306e-05
1.89465e-05
1.89586e-05
1.89673e-05
1.89728e-05
1.89754e-05
1.90375e-05
1.90723e-05
1.91203e-05
1.91784e-05
1.92436e-05
1.93135e-05
1.93859e-05
1.9459e-05
1.95313e-05
1.96016e-05
1.9669e-05
1.97328e-05
1.97923e-05
1.98474e-05
1.98976e-05
1.99431e-05
1.99837e-05
2.00195e-05
2.00507e-05
2.00774e-05
2.00999e-05
2.01184e-05
2.01332e-05
2.01445e-05
2.01526e-05
2.01577e-05
2.01601e-05
2.02146e-05
2.02468e-05
2.02913e-05
2.03451e-05
2.04055e-05
2.04702e-05
2.05372e-05
2.06049e-05
2.06718e-05
2.07369e-05
2.07993e-05
2.08583e-05
2.09135e-05
2.09644e-05
2.1011e-05
2.1053e-05
2.10906e-05
2.11238e-05
2.11527e-05
2.11774e-05
2.11983e-05
2.12154e-05
2.12291e-05
2.12395e-05
2.1247e-05
2.12517e-05
2.1254e-05
2.13013e-05
2.1331e-05
2.13721e-05
2.14217e-05
2.14775e-05
2.15372e-05
2.15991e-05
2.16616e-05
2.17234e-05
2.17835e-05
2.18411e-05
2.18956e-05
2.19465e-05
2.19935e-05
2.20365e-05
2.20754e-05
2.21101e-05
2.21407e-05
2.21674e-05
2.21902e-05
2.22095e-05
2.22253e-05
2.22379e-05
2.22476e-05
2.22545e-05
2.22588e-05
2.22609e-05
2.23015e-05
2.23289e-05
2.23667e-05
2.24125e-05
2.24638e-05
2.25189e-05
2.25759e-05
2.26335e-05
2.26904e-05
2.27458e-05
2.27989e-05
2.28491e-05
2.2896e-05
2.29393e-05
2.29789e-05
2.30147e-05
2.30467e-05
2.30749e-05
2.30995e-05
2.31205e-05
2.31383e-05
2.31529e-05
2.31645e-05
2.31734e-05
2.31797e-05
2.31838e-05
2.31857e-05
2.322e-05
2.32453e-05
2.32801e-05
2.33222e-05
2.33694e-05
2.34201e-05
2.34725e-05
2.35255e-05
2.35779e-05
2.36289e-05
2.36777e-05
2.37239e-05
2.3767e-05
2.38069e-05
2.38433e-05
2.38763e-05
2.39057e-05
2.39317e-05
2.39543e-05
2.39737e-05
2.399e-05
2.40034e-05
2.40142e-05
2.40224e-05
2.40282e-05
2.40319e-05
2.40337e-05
2.40624e-05
2.40856e-05
2.41176e-05
2.41563e-05
2.41997e-05
2.42463e-05
2.42945e-05
2.43432e-05
2.43913e-05
2.44382e-05
2.44831e-05
2.45255e-05
2.45652e-05
2.46019e-05
2.46354e-05
2.46657e-05
2.46927e-05
2.47166e-05
2.47374e-05
2.47553e-05
2.47703e-05
2.47826e-05
2.47925e-05
2.48e-05
2.48054e-05
2.48088e-05
2.48105e-05
2.48341e-05
2.48554e-05
2.48848e-05
2.49203e-05
2.49602e-05
2.5003e-05
2.50473e-05
2.5092e-05
2.51363e-05
2.51793e-05
2.52206e-05
2.52596e-05
2.52961e-05
2.53298e-05
2.53606e-05
2.53884e-05
2.54133e-05
2.54352e-05
2.54544e-05
2.54708e-05
2.54846e-05
2.54959e-05
2.5505e-05
2.55119e-05
2.55169e-05
2.552e-05
2.55215e-05
2.55406e-05
2.55602e-05
2.55872e-05
2.56198e-05
2.56565e-05
2.56958e-05
2.57365e-05
2.57776e-05
2.58182e-05
2.58578e-05
2.58957e-05
2.59315e-05
2.5965e-05
2.5996e-05
2.60243e-05
2.60499e-05
2.60727e-05
2.60929e-05
2.61105e-05
2.61256e-05
2.61383e-05
2.61487e-05
2.61571e-05
2.61635e-05
2.6168e-05
2.61709e-05
2.61723e-05
2.61873e-05
2.62052e-05
2.623e-05
2.626e-05
2.62937e-05
2.63298e-05
2.63672e-05
2.6405e-05
2.64423e-05
2.64787e-05
2.65135e-05
2.65465e-05
2.65773e-05
2.66057e-05
2.66318e-05
2.66553e-05
2.66763e-05
2.66949e-05
2.6711e-05
2.67249e-05
2.67366e-05
2.67462e-05
2.67539e-05
2.67598e-05
2.6764e-05
2.67666e-05
2.67679e-05
2.67792e-05
2.67957e-05
2.68185e-05
2.6846e-05
2.6877e-05
2.69102e-05
2.69446e-05
2.69793e-05
2.70136e-05
2.7047e-05
2.70791e-05
2.71094e-05
2.71377e-05
2.71639e-05
2.71878e-05
2.72095e-05
2.72288e-05
2.72459e-05
2.72608e-05
2.72736e-05
2.72843e-05
2.72932e-05
2.73002e-05
2.73056e-05
2.73095e-05
2.7312e-05
2.73131e-05
2.73211e-05
2.73363e-05
2.73572e-05
2.73826e-05
2.74111e-05
2.74416e-05
2.74732e-05
2.75051e-05
2.75368e-05
2.75675e-05
2.7597e-05
2.76249e-05
2.76509e-05
2.7675e-05
2.76971e-05
2.7717e-05
2.77348e-05
2.77506e-05
2.77643e-05
2.7776e-05
2.77859e-05
2.77941e-05
2.78006e-05
2.78056e-05
2.78091e-05
2.78114e-05
2.78125e-05
2.78174e-05
2.78314e-05
2.78507e-05
2.78741e-05
2.79003e-05
2.79284e-05
2.79575e-05
2.79869e-05
2.8016e-05
2.80443e-05
2.80715e-05
2.80972e-05
2.81212e-05
2.81434e-05
2.81637e-05
2.81821e-05
2.81985e-05
2.8213e-05
2.82257e-05
2.82365e-05
2.82456e-05
2.82532e-05
2.82592e-05
2.82638e-05
2.8267e-05
2.82691e-05
2.82701e-05
2.82724e-05
2.82853e-05
2.83031e-05
2.83246e-05
2.83487e-05
2.83746e-05
2.84015e-05
2.84286e-05
2.84554e-05
2.84815e-05
2.85066e-05
2.85303e-05
2.85524e-05
2.85729e-05
2.85916e-05
2.86086e-05
2.86237e-05
2.86371e-05
2.86488e-05
2.86588e-05
2.86672e-05
2.86742e-05
2.86797e-05
2.8684e-05
2.8687e-05
2.86889e-05
2.86899e-05
2.86897e-05
2.87016e-05
2.8718e-05
2.87378e-05
2.87601e-05
2.8784e-05
2.88088e-05
2.88338e-05
2.88586e-05
2.88827e-05
2.89058e-05
2.89277e-05
2.89481e-05
2.89671e-05
2.89844e-05
2.9e-05
2.9014e-05
2.90264e-05
2.90372e-05
2.90464e-05
2.90542e-05
2.90607e-05
2.90658e-05
2.90697e-05
2.90725e-05
2.90743e-05
2.90752e-05
2.90728e-05
2.90838e-05
2.9099e-05
2.91173e-05
2.91379e-05
2.916e-05
2.91829e-05
2.9206e-05
2.92289e-05
2.92512e-05
2.92725e-05
2.92928e-05
2.93117e-05
2.93292e-05
2.93452e-05
2.93597e-05
2.93727e-05
2.93841e-05
2.93941e-05
2.94027e-05
2.94099e-05
2.94158e-05
2.94206e-05
2.94242e-05
2.94268e-05
2.94285e-05
2.94293e-05
2.9425e-05
2.94351e-05
2.94492e-05
2.94661e-05
2.94852e-05
2.95056e-05
2.95268e-05
2.95482e-05
2.95694e-05
2.959e-05
2.96098e-05
2.96286e-05
2.96461e-05
2.96623e-05
2.96771e-05
2.96906e-05
2.97026e-05
2.97132e-05
2.97225e-05
2.97304e-05
2.97371e-05
2.97426e-05
2.9747e-05
2.97504e-05
2.97528e-05
2.97544e-05
2.97551e-05
2.97491e-05
2.97585e-05
2.97715e-05
2.97872e-05
2.98048e-05
2.98238e-05
2.98434e-05
2.98633e-05
2.98829e-05
2.99021e-05
2.99204e-05
2.99378e-05
2.99541e-05
2.99691e-05
2.99829e-05
2.99954e-05
3.00065e-05
3.00164e-05
3.0025e-05
3.00324e-05
3.00386e-05
3.00437e-05
3.00478e-05
3.0051e-05
3.00532e-05
3.00547e-05
3.00553e-05
3.00477e-05
3.00565e-05
3.00685e-05
3.00831e-05
3.00996e-05
3.01171e-05
3.01354e-05
3.01538e-05
3.01721e-05
3.01899e-05
3.0207e-05
3.02231e-05
3.02382e-05
3.02522e-05
3.02651e-05
3.02767e-05
3.0287e-05
3.02962e-05
3.03042e-05
3.03111e-05
3.03169e-05
3.03217e-05
3.03255e-05
3.03284e-05
3.03305e-05
3.03319e-05
3.03325e-05
3.03235e-05
3.03317e-05
3.03429e-05
3.03565e-05
3.03717e-05
3.03881e-05
3.04051e-05
3.04223e-05
3.04393e-05
3.04559e-05
3.04718e-05
3.04868e-05
3.05009e-05
3.0514e-05
3.05259e-05
3.05368e-05
3.05465e-05
3.0555e-05
3.05625e-05
3.05689e-05
3.05743e-05
3.05788e-05
3.05824e-05
3.05851e-05
3.05871e-05
3.05883e-05
3.05889e-05
3.05787e-05
3.05863e-05
3.05968e-05
3.06095e-05
3.06237e-05
3.0639e-05
3.06549e-05
3.06709e-05
3.06868e-05
3.07023e-05
3.07172e-05
3.07312e-05
3.07444e-05
3.07566e-05
3.07678e-05
3.07779e-05
3.0787e-05
3.0795e-05
3.0802e-05
3.0808e-05
3.08131e-05
3.08173e-05
3.08206e-05
3.08232e-05
3.0825e-05
3.08262e-05
3.08267e-05
3.08156e-05
3.08227e-05
3.08325e-05
3.08443e-05
3.08577e-05
3.0872e-05
3.08869e-05
3.09019e-05
3.09168e-05
3.09313e-05
3.09452e-05
3.09584e-05
3.09708e-05
3.09822e-05
3.09927e-05
3.10022e-05
3.10107e-05
3.10183e-05
3.10248e-05
3.10305e-05
3.10353e-05
3.10392e-05
3.10423e-05
3.10447e-05
3.10465e-05
3.10476e-05
3.10481e-05
3.10361e-05
3.10428e-05
3.1052e-05
3.10631e-05
3.10757e-05
3.10892e-05
3.11031e-05
3.11173e-05
3.11313e-05
3.11449e-05
3.1158e-05
3.11705e-05
3.11821e-05
3.11929e-05
3.12028e-05
3.12117e-05
3.12198e-05
3.12269e-05
3.12331e-05
3.12384e-05
3.12429e-05
3.12466e-05
3.12496e-05
3.12519e-05
3.12535e-05
3.12545e-05
3.1255e-05
3.12424e-05
3.12487e-05
3.12574e-05
3.12679e-05
3.12798e-05
3.12925e-05
3.13057e-05
3.13191e-05
3.13323e-05
3.13452e-05
3.13576e-05
3.13694e-05
3.13804e-05
3.13906e-05
3.14e-05
3.14085e-05
3.14161e-05
3.14228e-05
3.14287e-05
3.14338e-05
3.1438e-05
3.14416e-05
3.14444e-05
3.14465e-05
3.14481e-05
3.14491e-05
3.14496e-05
3.14365e-05
3.14425e-05
3.14508e-05
3.14608e-05
3.1472e-05
3.14841e-05
3.14967e-05
3.15094e-05
3.1522e-05
3.15343e-05
3.15461e-05
3.15573e-05
3.15678e-05
3.15775e-05
3.15865e-05
3.15945e-05
3.16018e-05
3.16082e-05
3.16138e-05
3.16187e-05
3.16228e-05
3.16261e-05
3.16288e-05
3.16309e-05
3.16324e-05
3.16333e-05
3.16338e-05
3.16206e-05
3.16263e-05
3.16342e-05
3.16438e-05
3.16545e-05
3.16661e-05
3.16781e-05
3.16903e-05
3.17024e-05
3.17142e-05
3.17255e-05
3.17362e-05
3.17463e-05
3.17557e-05
3.17643e-05
3.1772e-05
3.1779e-05
3.17852e-05
3.17906e-05
3.17952e-05
3.17992e-05
3.18024e-05
3.1805e-05
3.1807e-05
3.18084e-05
3.18093e-05
3.18098e-05
3.17967e-05
3.18022e-05
3.18098e-05
3.18191e-05
3.18295e-05
3.18406e-05
3.18523e-05
3.1864e-05
3.18757e-05
3.18871e-05
3.18981e-05
3.19085e-05
3.19183e-05
3.19273e-05
3.19356e-05
3.19432e-05
3.195e-05
3.1956e-05
3.19612e-05
3.19657e-05
3.19696e-05
3.19727e-05
3.19752e-05
3.19772e-05
3.19786e-05
3.19794e-05
3.19799e-05
3.19671e-05
3.19725e-05
3.198e-05
3.1989e-05
3.19991e-05
3.20101e-05
3.20214e-05
3.20329e-05
3.20443e-05
3.20555e-05
3.20662e-05
3.20764e-05
3.2086e-05
3.20949e-05
3.21031e-05
3.21105e-05
3.21171e-05
3.2123e-05
3.21282e-05
3.21326e-05
3.21364e-05
3.21395e-05
3.2142e-05
3.21439e-05
3.21452e-05
3.21461e-05
3.21465e-05
3.21345e-05
3.21398e-05
3.21472e-05
3.21561e-05
3.21661e-05
3.21769e-05
3.21882e-05
3.21996e-05
3.22109e-05
3.2222e-05
3.22326e-05
3.22427e-05
3.22522e-05
3.22611e-05
3.22692e-05
3.22766e-05
3.22832e-05
3.2289e-05
3.22942e-05
3.22986e-05
3.23023e-05
3.23054e-05
3.23079e-05
3.23098e-05
3.23112e-05
3.2312e-05
3.23125e-05
3.23015e-05
3.23068e-05
3.23142e-05
3.23231e-05
3.23332e-05
3.23441e-05
3.23553e-05
3.23668e-05
3.23782e-05
3.23893e-05
3.24e-05
3.24102e-05
3.24198e-05
3.24287e-05
3.24369e-05
3.24443e-05
3.2451e-05
3.2457e-05
3.24621e-05
3.24666e-05
3.24704e-05
3.24735e-05
3.2476e-05
3.2478e-05
3.24794e-05
3.24802e-05
3.24807e-05
3.24712e-05
3.24766e-05
3.24841e-05
3.24932e-05
3.25035e-05
3.25145e-05
3.2526e-05
3.25377e-05
3.25494e-05
3.25607e-05
3.25717e-05
3.25821e-05
3.2592e-05
3.26011e-05
3.26095e-05
3.26171e-05
3.2624e-05
3.26301e-05
3.26354e-05
3.264e-05
3.26439e-05
3.26471e-05
3.26497e-05
3.26517e-05
3.26531e-05
3.2654e-05
3.26544e-05
3.26468e-05
3.26524e-05
3.26602e-05
3.26696e-05
3.26803e-05
3.26917e-05
3.27037e-05
3.27158e-05
3.27279e-05
3.27397e-05
3.27511e-05
3.2762e-05
3.27722e-05
3.27817e-05
3.27905e-05
3.27984e-05
3.28056e-05
3.28119e-05
3.28175e-05
3.28223e-05
3.28264e-05
3.28297e-05
3.28324e-05
3.28345e-05
3.2836e-05
3.28369e-05
3.28374e-05
3.28321e-05
3.2838e-05
3.28462e-05
3.28561e-05
3.28673e-05
3.28794e-05
3.2892e-05
3.29048e-05
3.29175e-05
3.293e-05
3.29421e-05
3.29536e-05
3.29644e-05
3.29745e-05
3.29837e-05
3.29922e-05
3.29997e-05
3.30065e-05
3.30124e-05
3.30175e-05
3.30218e-05
3.30253e-05
3.30282e-05
3.30304e-05
3.3032e-05
3.3033e-05
3.30335e-05
3.30309e-05
3.30372e-05
3.3046e-05
3.30566e-05
3.30686e-05
3.30815e-05
3.3095e-05
3.31087e-05
3.31223e-05
3.31357e-05
3.31487e-05
3.3161e-05
3.31726e-05
3.31834e-05
3.31934e-05
3.32024e-05
3.32106e-05
3.32178e-05
3.32242e-05
3.32296e-05
3.32343e-05
3.32381e-05
3.32412e-05
3.32436e-05
3.32453e-05
3.32463e-05
3.32469e-05
3.32474e-05
3.32542e-05
3.32637e-05
3.32752e-05
3.32881e-05
3.33021e-05
3.33167e-05
3.33316e-05
3.33464e-05
3.3361e-05
3.3375e-05
3.33884e-05
3.3401e-05
3.34127e-05
3.34235e-05
3.34334e-05
3.34422e-05
3.34501e-05
3.3457e-05
3.3463e-05
3.3468e-05
3.34722e-05
3.34755e-05
3.34781e-05
3.348e-05
3.34812e-05
3.34817e-05
3.34856e-05
3.3493e-05
3.35034e-05
3.35159e-05
3.35301e-05
3.35454e-05
3.35614e-05
3.35776e-05
3.35938e-05
3.36097e-05
3.36251e-05
3.36397e-05
3.36535e-05
3.36664e-05
3.36782e-05
3.3689e-05
3.36987e-05
3.37073e-05
3.37149e-05
3.37214e-05
3.3727e-05
3.37315e-05
3.37352e-05
3.3738e-05
3.37401e-05
3.37414e-05
3.3742e-05
3.37492e-05
3.37574e-05
3.37688e-05
3.37825e-05
3.37981e-05
3.38149e-05
3.38324e-05
3.38503e-05
3.38681e-05
3.38856e-05
3.39024e-05
3.39185e-05
3.39337e-05
3.39478e-05
3.39608e-05
3.39727e-05
3.39833e-05
3.39928e-05
3.40011e-05
3.40083e-05
3.40144e-05
3.40194e-05
3.40235e-05
3.40266e-05
3.40288e-05
3.40302e-05
3.40309e-05
3.40413e-05
3.40503e-05
3.40628e-05
3.40779e-05
3.4095e-05
3.41134e-05
3.41327e-05
3.41523e-05
3.41719e-05
3.4191e-05
3.42095e-05
3.42272e-05
3.42438e-05
3.42593e-05
3.42736e-05
3.42866e-05
3.42983e-05
3.43087e-05
3.43178e-05
3.43257e-05
3.43324e-05
3.43379e-05
3.43423e-05
3.43457e-05
3.43482e-05
3.43497e-05
3.43505e-05
3.43635e-05
3.43733e-05
3.43869e-05
3.44034e-05
3.44221e-05
3.44423e-05
3.44633e-05
3.44847e-05
3.4506e-05
3.45269e-05
3.45471e-05
3.45664e-05
3.45846e-05
3.46015e-05
3.4617e-05
3.46312e-05
3.46439e-05
3.46553e-05
3.46652e-05
3.46738e-05
3.4681e-05
3.4687e-05
3.46918e-05
3.46955e-05
3.46982e-05
3.46999e-05
3.47007e-05
3.47152e-05
3.47258e-05
3.47406e-05
3.47584e-05
3.47786e-05
3.48004e-05
3.48231e-05
3.48462e-05
3.48692e-05
3.48918e-05
3.49136e-05
3.49343e-05
3.49539e-05
3.49721e-05
3.49888e-05
3.50041e-05
3.50178e-05
3.503e-05
3.50407e-05
3.50499e-05
3.50577e-05
3.50641e-05
3.50693e-05
3.50733e-05
3.50761e-05
3.50779e-05
3.50788e-05
3.50932e-05
3.51046e-05
3.51202e-05
3.51392e-05
3.51607e-05
3.51838e-05
3.52079e-05
3.52325e-05
3.52569e-05
3.52808e-05
3.53039e-05
3.53259e-05
3.53465e-05
3.53658e-05
3.53835e-05
3.53996e-05
3.54141e-05
3.54269e-05
3.54382e-05
3.54479e-05
3.54561e-05
3.54629e-05
3.54684e-05
3.54726e-05
3.54756e-05
3.54775e-05
3.54784e-05
3.54906e-05
3.55024e-05
3.55187e-05
3.55385e-05
3.55608e-05
3.55848e-05
3.56098e-05
3.56352e-05
3.56605e-05
3.56853e-05
3.57091e-05
3.57318e-05
3.57532e-05
3.57731e-05
3.57913e-05
3.58079e-05
3.58228e-05
3.5836e-05
3.58476e-05
3.58576e-05
3.58661e-05
3.58731e-05
3.58787e-05
3.5883e-05
3.5886e-05
3.5888e-05
3.5889e-05
3.58962e-05
3.59081e-05
3.59245e-05
3.59445e-05
3.59669e-05
3.59911e-05
3.60163e-05
3.60418e-05
3.60672e-05
3.60919e-05
3.61158e-05
3.61385e-05
3.61598e-05
3.61797e-05
3.61978e-05
3.62144e-05
3.62292e-05
3.62424e-05
3.62539e-05
3.62638e-05
3.62722e-05
3.62791e-05
3.62846e-05
3.62889e-05
3.6292e-05
3.62939e-05
3.62948e-05
3.62937e-05
3.63052e-05
3.63211e-05
3.63403e-05
3.6362e-05
3.63853e-05
3.64094e-05
3.64339e-05
3.64582e-05
3.64819e-05
3.65047e-05
3.65263e-05
3.65466e-05
3.65654e-05
3.65827e-05
3.65983e-05
3.66124e-05
3.66248e-05
3.66357e-05
3.6645e-05
3.6653e-05
3.66595e-05
3.66647e-05
3.66687e-05
3.66716e-05
3.66734e-05
3.66743e-05
3.66607e-05
3.6671e-05
3.66853e-05
3.67026e-05
3.6722e-05
3.67428e-05
3.67643e-05
3.6786e-05
3.68075e-05
3.68284e-05
3.68484e-05
3.68674e-05
3.68851e-05
3.69015e-05
3.69164e-05
3.693e-05
3.69421e-05
3.69528e-05
3.69621e-05
3.69701e-05
3.69769e-05
3.69825e-05
3.69869e-05
3.69903e-05
3.69928e-05
3.69943e-05
3.69951e-05
3.69665e-05
3.69745e-05
3.69856e-05
3.69989e-05
3.70136e-05
3.70293e-05
3.70454e-05
3.70615e-05
3.70772e-05
3.70924e-05
3.71067e-05
3.71202e-05
3.71325e-05
3.71438e-05
3.7154e-05
3.71631e-05
3.71711e-05
3.7178e-05
3.71838e-05
3.71888e-05
3.71928e-05
3.7196e-05
3.71984e-05
3.72003e-05
3.72016e-05
3.72024e-05
3.72028e-05
3.71718e-05
3.71758e-05
3.71811e-05
3.71872e-05
3.71935e-05
3.71997e-05
3.72053e-05
3.72105e-05
3.72152e-05
3.72194e-05
3.72232e-05
3.72265e-05
3.72295e-05
3.7232e-05
3.72341e-05
3.72359e-05
3.72374e-05
3.72386e-05
3.72396e-05