/*--------------------------------*- C++ -*----------------------------------*\
| =========                 |                                                 |
| \\      /  F ield         | OpenFOAM: The Open Source CFD Toolbox           |
|  \\    /   O peration     | Version:  2106                                  |
|   \\  /    A nd           | Website:  www.openfoam.com                      |
|    \\/     M anipulation  |                                                 |
\*---------------------------------------------------------------------------*/
FoamFile
{
    version     2.0;
    format      ascii;
    arch        "LSB;label=32;scalar=64";
    class       volScalarField;
    location    "150.00049";
    object      C9H8_0;
}
// * * * * * * * * * * * * * * * * * * * * * * * * * * * * * * * * * * * * * //

dimensions      [0 0 0 0 0 0 0];

internalField   nonuniform List<scalar> 
3360
(
8.52258e-19
8.79685e-19
9.17852e-19
9.64538e-19
1.0178e-18
1.07588e-18
1.13721e-18
1.20037e-18
1.26408e-18
1.32722e-18
1.38883e-18
1.44808e-18
1.50429e-18
1.55692e-18
1.60555e-18
1.6499e-18
1.6898e-18
1.72516e-18
1.756e-18
1.78241e-18
1.80454e-18
1.82263e-18
1.83691e-18
1.84768e-18
1.85526e-18
1.85998e-18
1.86217e-18
3.73865e-18
3.87607e-18
4.06999e-18
4.31149e-18
4.59317e-18
4.90857e-18
5.25194e-18
5.618e-18
6.00183e-18
6.3988e-18
6.80446e-18
7.21446e-18
7.62455e-18
8.0305e-18
8.42816e-18
8.81346e-18
9.18241e-18
9.53112e-18
9.85589e-18
1.01532e-17
1.042e-17
1.06533e-17
1.08508e-17
1.10105e-17
1.1131e-17
1.12115e-17
1.12516e-17
1.17309e-17
1.22458e-17
1.29774e-17
1.38967e-17
1.49796e-17
1.62045e-17
1.75508e-17
1.89982e-17
2.05263e-17
2.21139e-17
2.37397e-17
2.53825e-17
2.70212e-17
2.8635e-17
3.02037e-17
3.17084e-17
3.31312e-17
3.44564e-17
3.56702e-17
3.67612e-17
3.77206e-17
3.85422e-17
3.92223e-17
3.97599e-17
4.01562e-17
4.04146e-17
4.05404e-17
3.41645e-17
3.58614e-17
3.82889e-17
4.13602e-17
4.50026e-17
4.91483e-17
5.3729e-17
5.86745e-17
6.39107e-17
6.93601e-17
7.49423e-17
8.05757e-17
8.61791e-17
9.16737e-17
9.69844e-17
1.02042e-16
1.06787e-16
1.11166e-16
1.15137e-16
1.18671e-16
1.21745e-16
1.24349e-16
1.26482e-16
1.28151e-16
1.29368e-16
1.30154e-16
1.30533e-16
9.98179e-17
1.05171e-16
1.12844e-16
1.22574e-16
1.34139e-16
1.47325e-16
1.61912e-16
1.77668e-16
1.94343e-16
2.11677e-16
2.29399e-16
2.47236e-16
2.64921e-16
2.82197e-16
2.98828e-16
3.14603e-16
3.29337e-16
3.42881e-16
3.55118e-16
3.65962e-16
3.75365e-16
3.83304e-16
3.89786e-16
3.94842e-16
3.98522e-16
4.00893e-16
4.02034e-16
2.94311e-16
3.10751e-16
3.34344e-16
3.64288e-16
3.99899e-16
4.40513e-16
4.85443e-16
5.33958e-16
5.85278e-16
6.38579e-16
6.93015e-16
7.47735e-16
8.01906e-16
8.5474e-16
9.05515e-16
9.53586e-16
9.98406e-16
1.03953e-15
1.07661e-15
1.10943e-15
1.13782e-15
1.16176e-15
1.18128e-15
1.19649e-15
1.20754e-15
1.21465e-15
1.21807e-15
8.74264e-16
9.24222e-16
9.95909e-16
1.0869e-15
1.1951e-15
1.31848e-15
1.45491e-15
1.60214e-15
1.75777e-15
1.91927e-15
2.08406e-15
2.24955e-15
2.41322e-15
2.57269e-15
2.72581e-15
2.87064e-15
3.00557e-15
3.12928e-15
3.24077e-15
3.33935e-15
3.42464e-15
3.4965e-15
3.55507e-15
3.60068e-15
3.63383e-15
3.65515e-15
3.6654e-15
2.60558e-15
2.7559e-15
2.97172e-15
3.24574e-15
3.57168e-15
3.94339e-15
4.35445e-15
4.79802e-15
5.26682e-15
5.7532e-15
6.24933e-15
6.74739e-15
7.23978e-15
7.71937e-15
8.17962e-15
8.61479e-15
9.02002e-15
9.39138e-15
9.72591e-15
1.00216e-14
1.02772e-14
1.04926e-14
1.06681e-14
1.08046e-14
1.09038e-14
1.09676e-14
1.09983e-14
7.78596e-15
8.23772e-15
8.88618e-15
9.70945e-15
1.06885e-14
1.18049e-14
1.30392e-14
1.43707e-14
1.57775e-14
1.72365e-14
1.87242e-14
2.02172e-14
2.16927e-14
2.31294e-14
2.45077e-14
2.58106e-14
2.70235e-14
2.81348e-14
2.91358e-14
3.00203e-14
3.07852e-14
3.14294e-14
3.19542e-14
3.23626e-14
3.26593e-14
3.28502e-14
3.29419e-14
2.32659e-14
2.46189e-14
2.65613e-14
2.90275e-14
3.19605e-14
3.53048e-14
3.90019e-14
4.29901e-14
4.72032e-14
5.15722e-14
5.60265e-14
6.04956e-14
6.49115e-14
6.92102e-14
7.33335e-14
7.72301e-14
8.08569e-14
8.41791e-14
8.71705e-14
8.98135e-14
9.20981e-14
9.4022e-14
9.55888e-14
9.6808e-14
9.76935e-14
9.8263e-14
9.85366e-14
6.95534e-14
7.36033e-14
7.94162e-14
8.67951e-14
9.5569e-14
1.0557e-13
1.16624e-13
1.28544e-13
1.41133e-13
1.54183e-13
1.67483e-13
1.80823e-13
1.94e-13
2.06824e-13
2.1912e-13
2.30737e-13
2.41548e-13
2.51447e-13
2.6036e-13
2.68233e-13
2.75038e-13
2.80767e-13
2.85432e-13
2.89062e-13
2.91699e-13
2.93394e-13
2.94209e-13
2.07715e-13
2.19804e-13
2.37156e-13
2.59178e-13
2.85358e-13
3.15193e-13
3.48159e-13
3.83697e-13
4.21214e-13
4.60093e-13
4.99703e-13
5.39417e-13
5.7863e-13
6.16775e-13
6.53339e-13
6.8787e-13
7.19989e-13
7.49394e-13
7.75856e-13
7.99223e-13
8.19413e-13
8.36406e-13
8.5024e-13
8.61002e-13
8.68815e-13
8.73838e-13
8.76251e-13
6.1959e-13
6.55612e-13
7.07294e-13
7.72861e-13
8.50768e-13
9.39503e-13
1.03749e-12
1.14305e-12
1.25443e-12
1.36976e-12
1.48719e-12
1.60484e-12
1.72094e-12
1.8338e-12
1.94192e-12
2.04397e-12
2.13884e-12
2.22564e-12
2.30373e-12
2.37265e-12
2.43218e-12
2.48226e-12
2.52302e-12
2.55472e-12
2.57773e-12
2.59252e-12
2.59962e-12
1.84256e-12
1.9494e-12
2.10262e-12
2.29691e-12
2.52763e-12
2.79024e-12
3.08e-12
3.39193e-12
3.72072e-12
4.06092e-12
4.40696e-12
4.75336e-12
5.09485e-12
5.42653e-12
5.74398e-12
6.04335e-12
6.32143e-12
6.57567e-12
6.80419e-12
7.00575e-12
7.17972e-12
7.326e-12
7.44498e-12
7.53746e-12
7.60456e-12
7.64766e-12
7.66836e-12
5.45906e-12
5.77413e-12
6.22571e-12
6.79786e-12
7.47661e-12
8.24831e-12
9.09879e-12
1.00131e-11
1.09756e-11
1.19701e-11
1.29802e-11
1.399e-11
1.49841e-11
1.59483e-11
1.687e-11
1.77381e-11
1.85435e-11
1.9279e-11
1.99395e-11
2.05214e-11
2.10233e-11
2.1445e-11
2.17877e-11
2.20539e-11
2.22469e-11
2.23708e-11
2.24303e-11
1.60779e-11
1.69983e-11
1.83164e-11
1.99844e-11
2.19607e-11
2.42042e-11
2.66728e-11
2.9322e-11
3.21058e-11
3.49768e-11
3.78876e-11
4.07919e-11
4.36458e-11
4.6409e-11
4.90457e-11
5.15249e-11
5.38213e-11
5.59154e-11
5.77929e-11
5.94451e-11
6.08681e-11
6.20622e-11
6.30318e-11
6.37841e-11
6.43292e-11
6.46788e-11
6.48465e-11
4.69862e-11
4.96408e-11
5.34377e-11
5.82353e-11
6.39086e-11
7.03356e-11
7.73909e-11
8.49446e-11
9.28621e-11
1.01007e-10
1.09244e-10
1.17441e-10
1.25477e-10
1.33238e-10
1.40627e-10
1.47559e-10
1.53967e-10
1.59798e-10
1.65017e-10
1.69601e-10
1.73543e-10
1.76847e-10
1.79525e-10
1.81601e-10
1.83104e-10
1.84067e-10
1.84528e-10
1.3588e-10
1.43401e-10
1.54142e-10
1.67684e-10
1.83659e-10
2.01705e-10
2.21456e-10
2.42535e-10
2.64558e-10
2.87139e-10
3.09899e-10
3.32478e-10
3.54541e-10
3.75787e-10
3.95954e-10
4.14822e-10
4.32217e-10
4.48009e-10
4.62109e-10
4.7447e-10
4.85079e-10
4.93952e-10
5.01136e-10
5.06695e-10
5.10713e-10
5.13286e-10
5.14517e-10
3.87646e-10
4.08464e-10
4.38127e-10
4.75427e-10
5.19285e-10
5.68652e-10
6.22476e-10
6.7969e-10
7.39223e-10
8.00016e-10
8.61046e-10
9.21352e-10
9.80056e-10
1.03638e-09
1.08966e-09
1.13934e-09
1.18501e-09
1.22634e-09
1.26316e-09
1.29535e-09
1.32292e-09
1.34594e-09
1.36453e-09
1.3789e-09
1.38927e-09
1.3959e-09
1.39907e-09
1.08666e-09
1.14257e-09
1.22202e-09
1.3216e-09
1.43823e-09
1.56895e-09
1.71081e-09
1.8609e-09
2.01632e-09
2.17428e-09
2.33212e-09
2.48738e-09
2.63786e-09
2.78165e-09
2.91714e-09
3.04302e-09
3.15834e-09
3.2624e-09
3.3548e-09
3.4354e-09
3.50425e-09
3.5616e-09
3.60785e-09
3.64352e-09
3.66923e-09
3.68564e-09
3.69348e-09
2.97984e-09
3.12456e-09
3.32962e-09
3.58561e-09
3.88409e-09
4.21698e-09
4.5764e-09
4.95464e-09
5.34425e-09
5.73816e-09
6.12977e-09
6.51312e-09
6.88296e-09
7.23481e-09
7.56498e-09
7.8706e-09
8.14957e-09
8.4005e-09
8.62267e-09
8.81593e-09
8.98062e-09
9.1175e-09
9.22768e-09
9.31251e-09
9.37353e-09
9.41245e-09
9.431e-09
7.95316e-09
8.31198e-09
8.81877e-09
9.44882e-09
1.01799e-08
1.09911e-08
1.18621e-08
1.27738e-08
1.37077e-08
1.46469e-08
1.55758e-08
1.64808e-08
1.73497e-08
1.81728e-08
1.89422e-08
1.96516e-08
2.0297e-08
2.08757e-08
2.13867e-08
2.18299e-08
2.22068e-08
2.25194e-08
2.27705e-08
2.29636e-08
2.31022e-08
2.31905e-08
2.32326e-08
2.05585e-08
2.1407e-08
2.26015e-08
2.40804e-08
2.57885e-08
2.76739e-08
2.96878e-08
3.17844e-08
3.39211e-08
3.60589e-08
3.81631e-08
4.02034e-08
4.21543e-08
4.39949e-08
4.57088e-08
4.7284e-08
4.87125e-08
4.99897e-08
5.11144e-08
5.2088e-08
5.29139e-08
5.35977e-08
5.41461e-08
5.45671e-08
5.4869e-08
5.50611e-08
5.51525e-08
5.12522e-08
5.31627e-08
5.58442e-08
5.91518e-08
6.29554e-08
6.71346e-08
7.15776e-08
7.6181e-08
8.08505e-08
8.55015e-08
9.006e-08
9.44624e-08
9.86561e-08
1.02599e-07
1.06259e-07
1.09612e-07
1.12645e-07
1.15351e-07
1.17728e-07
1.19781e-07
1.2152e-07
1.22958e-07
1.24109e-07
1.24991e-07
1.25624e-07
1.26026e-07
1.26217e-07
1.22905e-07
1.27008e-07
1.32752e-07
1.39816e-07
1.47909e-07
1.56767e-07
1.66147e-07
1.75827e-07
1.85609e-07
1.95316e-07
2.04797e-07
2.13923e-07
2.2259e-07
2.30716e-07
2.38239e-07
2.45116e-07
2.51322e-07
2.56847e-07
2.61693e-07
2.65873e-07
2.69407e-07
2.72325e-07
2.74659e-07
2.76446e-07
2.77726e-07
2.78539e-07
2.78925e-07
2.83325e-07
2.9177e-07
3.0357e-07
3.18044e-07
3.34582e-07
3.52629e-07
3.71681e-07
3.91284e-07
4.11034e-07
4.30579e-07
4.49618e-07
4.67899e-07
4.85221e-07
5.01425e-07
5.16398e-07
5.30062e-07
5.42374e-07
5.53317e-07
5.62903e-07
5.7116e-07
5.78136e-07
5.83889e-07
5.88487e-07
5.92005e-07
5.94522e-07
5.96119e-07
5.96878e-07
6.28661e-07
6.45436e-07
6.68845e-07
6.97506e-07
7.30189e-07
7.6578e-07
8.03275e-07
8.41772e-07
8.8048e-07
9.18712e-07
9.55885e-07
9.91519e-07
1.02523e-06
1.05672e-06
1.08578e-06
1.11227e-06
1.13611e-06
1.15728e-06
1.1758e-06
1.19175e-06
1.20521e-06
1.2163e-06
1.22516e-06
1.23194e-06
1.23679e-06
1.23986e-06
1.24132e-06
1.34604e-06
1.37847e-06
1.42369e-06
1.47899e-06
1.54198e-06
1.6105e-06
1.68259e-06
1.75652e-06
1.83076e-06
1.90402e-06
1.97517e-06
2.04332e-06
2.10773e-06
2.16786e-06
2.2233e-06
2.2738e-06
2.31922e-06
2.35954e-06
2.39481e-06
2.42515e-06
2.45075e-06
2.47184e-06
2.48869e-06
2.50156e-06
2.51077e-06
2.51661e-06
2.51938e-06
2.78879e-06
2.85033e-06
2.93612e-06
3.04101e-06
3.16045e-06
3.29031e-06
3.42691e-06
3.56697e-06
3.7076e-06
3.84634e-06
3.98109e-06
4.11014e-06
4.23212e-06
4.34599e-06
4.45099e-06
4.54665e-06
4.6327e-06
4.70908e-06
4.77589e-06
4.83338e-06
4.88189e-06
4.92186e-06
4.95378e-06
4.97818e-06
4.99563e-06
5.00669e-06
5.01194e-06
5.60034e-06
5.71573e-06
5.87663e-06
6.07346e-06
6.29772e-06
6.54174e-06
6.79866e-06
7.06233e-06
7.32739e-06
7.58918e-06
7.84377e-06
8.08789e-06
8.31895e-06
8.53493e-06
8.73435e-06
8.91625e-06
9.08009e-06
9.22569e-06
9.35321e-06
9.46305e-06
9.55583e-06
9.63235e-06
9.69351e-06
9.7403e-06
9.77378e-06
9.79502e-06
9.8051e-06
1.08917e-05
1.11053e-05
1.14034e-05
1.17685e-05
1.21852e-05
1.26393e-05
1.31185e-05
1.36113e-05
1.41078e-05
1.45995e-05
1.50788e-05
1.55397e-05
1.59771e-05
1.6387e-05
1.67665e-05
1.71135e-05
1.74269e-05
1.7706e-05
1.79511e-05
1.81626e-05
1.83417e-05
1.84896e-05
1.86081e-05
1.86989e-05
1.87639e-05
1.88053e-05
1.88249e-05
2.04292e-05
2.08141e-05
2.13517e-05
2.20111e-05
2.27647e-05
2.35877e-05
2.44577e-05
2.53545e-05
2.62602e-05
2.71591e-05
2.80376e-05
2.88843e-05
2.96898e-05
3.04464e-05
3.11486e-05
3.17922e-05
3.23746e-05
3.28944e-05
3.33517e-05
3.37471e-05
3.40824e-05
3.43598e-05
3.45823e-05
3.4753e-05
3.48755e-05
3.49534e-05
3.49905e-05
3.66842e-05
3.73408e-05
3.82583e-05
3.93836e-05
4.067e-05
4.20752e-05
4.35608e-05
4.50925e-05
4.66396e-05
4.81753e-05
4.96763e-05
5.11231e-05
5.24994e-05
5.37924e-05
5.49921e-05
5.60916e-05
5.70863e-05
5.79741e-05
5.87548e-05
5.94297e-05
6.00019e-05
6.04752e-05
6.08546e-05
6.11457e-05
6.13544e-05
6.14871e-05
6.15502e-05
6.2502e-05
6.35318e-05
6.4969e-05
6.6729e-05
6.87372e-05
7.09261e-05
7.32348e-05
7.56091e-05
7.8001e-05
8.03688e-05
8.26768e-05
8.48951e-05
8.69995e-05
8.89711e-05
9.07955e-05
9.24632e-05
9.39682e-05
9.53082e-05
9.64839e-05
9.74982e-05
9.83564e-05
9.9065e-05
9.96321e-05
0.000100066
0.000100377
0.000100575
0.000100669
0.000100305
0.000101767
0.000103801
0.000106286
0.000109112
0.00011218
0.000115404
0.000118705
0.000122016
0.000125279
0.000128446
0.000131477
0.00013434
0.000137012
0.000139475
0.000141718
0.000143736
0.000145526
0.000147093
0.000148441
0.000149578
0.000150516
0.000151264
0.000151837
0.000152246
0.000152506
0.000152629
0.00015123
0.000153109
0.00015572
0.000158899
0.000162501
0.000166397
0.000170472
0.000174627
0.000178776
0.000182847
0.00018678
0.000190529
0.000194057
0.000197336
0.000200348
0.000203082
0.000205534
0.000207705
0.000209599
0.000211225
0.000212595
0.000213721
0.00021462
0.000215306
0.000215796
0.000216107
0.000216254
0.000214785
0.00021701
0.000220095
0.000223841
0.000228073
0.000232634
0.000237388
0.000242218
0.000247024
0.000251723
0.000256248
0.000260547
0.00026458
0.000268319
0.000271745
0.000274848
0.000277624
0.000280077
0.000282215
0.000284047
0.000285589
0.000286856
0.000287866
0.000288636
0.000289187
0.000289535
0.000289701
0.000289206
0.000291678
0.000295101
0.000299249
0.000303925
0.000308953
0.000314181
0.00031948
0.00032474
0.000329871
0.000334801
0.000339476
0.000343854
0.000347905
0.000351611
0.000354964
0.000357961
0.000360606
0.000362909
0.000364882
0.000366542
0.000367905
0.000368991
0.00036982
0.000370412
0.000370787
0.000370965
0.000372116
0.000374743
0.000378376
0.000382774
0.000387724
0.000393041
0.000398561
0.000404147
0.000409685
0.000415081
0.00042026
0.000425165
0.000429754
0.000433998
0.000437878
0.000441385
0.000444519
0.000447285
0.000449692
0.000451754
0.000453488
0.000454913
0.000456048
0.000456915
0.000457534
0.000457926
0.000458112
0.000461111
0.000463819
0.000467563
0.000472092
0.000477187
0.000482655
0.000488329
0.000494067
0.000499752
0.000505287
0.000510598
0.000515626
0.000520328
0.000524675
0.000528649
0.000532241
0.000535451
0.000538283
0.000540748
0.000542861
0.000544638
0.000546098
0.000547262
0.00054815
0.000548785
0.000549187
0.000549378
0.00055408
0.000556819
0.000560604
0.000565183
0.000570332
0.000575856
0.000581587
0.000587382
0.000593122
0.00059871
0.000604071
0.000609146
0.000613892
0.000618281
0.000622292
0.000625919
0.00062916
0.000632021
0.000634511
0.000636646
0.000638442
0.000639918
0.000641095
0.000641994
0.000642636
0.000643044
0.000643237
0.000649321
0.000652057
0.000655838
0.000660412
0.000665555
0.000671073
0.000676798
0.000682586
0.000688319
0.000693901
0.000699257
0.000704328
0.000709071
0.000713456
0.000717466
0.000721092
0.000724333
0.000727195
0.000729686
0.000731822
0.00073362
0.000735098
0.000736277
0.000737177
0.000737821
0.000738229
0.000738423
0.000745522
0.000748234
0.000751982
0.000756516
0.000761615
0.000767086
0.000772761
0.000778501
0.000784187
0.000789723
0.000795036
0.000800067
0.000804773
0.000809126
0.000813106
0.000816706
0.000819925
0.000822766
0.000825242
0.000827364
0.000829151
0.00083062
0.000831792
0.000832687
0.000833328
0.000833734
0.000833927
0.000841703
0.000844378
0.000848074
0.000852546
0.000857575
0.000862971
0.00086857
0.000874233
0.000879843
0.000885307
0.00089055
0.000895516
0.000900163
0.00090446
0.000908391
0.000911947
0.000915127
0.000917934
0.00092038
0.000922478
0.000924244
0.000925697
0.000926855
0.000927741
0.000928374
0.000928776
0.000928967
0.000937145
0.000939772
0.000943404
0.000947798
0.00095274
0.000958044
0.000963547
0.000969113
0.000974628
0.00098
0.000985156
0.000990039
0.000994609
0.000998836
0.0010027
0.0010062
0.00100933
0.00101209
0.0010145
0.00101656
0.0010183
0.00101973
0.00102087
0.00102175
0.00102237
0.00102277
0.00102295
0.00103132
0.00103389
0.00103745
0.00104176
0.0010466
0.0010518
0.00105719
0.00106265
0.00106806
0.00107332
0.00107838
0.00108316
0.00108765
0.00109179
0.00109558
0.00109901
0.00110208
0.00110479
0.00110715
0.00110918
0.00111089
0.00111229
0.00111341
0.00111427
0.00111488
0.00111527
0.00111545
0.00112385
0.00112637
0.00112985
0.00113406
0.00113879
0.00114388
0.00114915
0.00115449
0.00115977
0.00116492
0.00116987
0.00117455
0.00117893
0.00118299
0.0011867
0.00119005
0.00119306
0.00119571
0.00119802
0.0012
0.00120167
0.00120304
0.00120414
0.00120498
0.00120558
0.00120596
0.00120614
0.00121446
0.00121692
0.00122032
0.00122442
0.00122905
0.00123401
0.00123916
0.00124436
0.00124952
0.00125455
0.00125938
0.00126395
0.00126823
0.00127219
0.00127581
0.00127909
0.00128202
0.00128461
0.00128686
0.0012888
0.00129043
0.00129177
0.00129284
0.00129366
0.00129424
0.00129461
0.00129479
0.00130297
0.00130536
0.00130867
0.00131267
0.00131718
0.00132201
0.00132703
0.00133211
0.00133714
0.00134203
0.00134674
0.00135119
0.00135536
0.00135922
0.00136275
0.00136594
0.0013688
0.00137133
0.00137352
0.00137541
0.001377
0.00137831
0.00137935
0.00138015
0.00138072
0.00138108
0.00138125
0.00138923
0.00139156
0.00139478
0.00139868
0.00140306
0.00140777
0.00141265
0.00141759
0.00142248
0.00142725
0.00143183
0.00143616
0.00144022
0.00144398
0.00144741
0.00145052
0.0014533
0.00145576
0.0014579
0.00145973
0.00146128
0.00146255
0.00146356
0.00146434
0.0014649
0.00146525
0.00146542
0.00147317
0.00147543
0.00147856
0.00148235
0.00148661
0.00149119
0.00149593
0.00150073
0.00150549
0.00151012
0.00151457
0.00151879
0.00152273
0.00152638
0.00152972
0.00153274
0.00153544
0.00153783
0.00153991
0.00154169
0.0015432
0.00154443
0.00154542
0.00154617
0.00154671
0.00154706
0.00154722
0.00155473
0.00155693
0.00155997
0.00156364
0.00156778
0.00157222
0.00157683
0.00158149
0.00158611
0.00159061
0.00159493
0.00159902
0.00160285
0.00160639
0.00160963
0.00161257
0.00161519
0.00161751
0.00161953
0.00162126
0.00162272
0.00162392
0.00162488
0.00162561
0.00162613
0.00162647
0.00162663
0.00163388
0.00163601
0.00163896
0.00164253
0.00164654
0.00165085
0.00165532
0.00165984
0.00166432
0.00166869
0.00167288
0.00167685
0.00168056
0.001684
0.00168714
0.00168999
0.00169253
0.00169478
0.00169674
0.00169842
0.00169983
0.001701
0.00170193
0.00170264
0.00170314
0.00170347
0.00170362
0.00171062
0.00171268
0.00171554
0.001719
0.00172289
0.00172707
0.0017314
0.00173578
0.00174012
0.00174435
0.00174841
0.00175226
0.00175586
0.00175919
0.00176224
0.001765
0.00176746
0.00176964
0.00177154
0.00177317
0.00177454
0.00177567
0.00177657
0.00177726
0.00177775
0.00177806
0.00177821
0.00178495
0.00178695
0.00178972
0.00179307
0.00179684
0.00180088
0.00180508
0.00180932
0.00181353
0.00181762
0.00182155
0.00182528
0.00182877
0.00183199
0.00183494
0.00183761
0.00184
0.00184211
0.00184395
0.00184552
0.00184685
0.00184795
0.00184882
0.00184948
0.00184996
0.00185026
0.00185041
0.00185689
0.00185883
0.00186151
0.00186475
0.0018684
0.00187231
0.00187637
0.00188048
0.00188455
0.00188851
0.00189232
0.00189592
0.0018993
0.00190242
0.00190527
0.00190786
0.00191017
0.00191221
0.00191399
0.00191551
0.0019168
0.00191786
0.0019187
0.00191935
0.00191981
0.0019201
0.00192024
0.00192647
0.00192834
0.00193093
0.00193407
0.0019376
0.00194138
0.00194531
0.00194928
0.00195322
0.00195706
0.00196074
0.00196422
0.00196748
0.0019705
0.00197326
0.00197576
0.001978
0.00197997
0.00198169
0.00198317
0.00198441
0.00198543
0.00198625
0.00198687
0.00198732
0.0019876
0.00198774
0.00199372
0.00199553
0.00199804
0.00200107
0.00200448
0.00200813
0.00201193
0.00201577
0.00201958
0.00202328
0.00202684
0.00203021
0.00203336
0.00203628
0.00203895
0.00204136
0.00204352
0.00204543
0.00204709
0.00204852
0.00204972
0.00205071
0.0020515
0.0020521
0.00205253
0.00205281
0.00205294
0.00205867
0.00206042
0.00206284
0.00206577
0.00206907
0.0020726
0.00207627
0.00207998
0.00208365
0.00208723
0.00209067
0.00209392
0.00209697
0.00209979
0.00210237
0.0021047
0.00210678
0.00210863
0.00211023
0.00211161
0.00211277
0.00211373
0.00211449
0.00211507
0.00211549
0.00211575
0.00211588
0.00212137
0.00212306
0.0021254
0.00212823
0.00213141
0.00213482
0.00213836
0.00214194
0.00214549
0.00214895
0.00215226
0.00215541
0.00215835
0.00216107
0.00216355
0.00216581
0.00216782
0.0021696
0.00217115
0.00217248
0.0021736
0.00217452
0.00217525
0.00217582
0.00217622
0.00217647
0.0021766
0.00218186
0.00218349
0.00218574
0.00218847
0.00219154
0.00219483
0.00219825
0.0022017
0.00220513
0.00220846
0.00221166
0.00221469
0.00221753
0.00222015
0.00222255
0.00222472
0.00222667
0.00222838
0.00222988
0.00223116
0.00223224
0.00223313
0.00223384
0.00223438
0.00223477
0.00223502
0.00223513
0.00224017
0.00224174
0.00224391
0.00224654
0.0022495
0.00225268
0.00225597
0.0022593
0.0022626
0.00226582
0.0022689
0.00227182
0.00227456
0.00227709
0.0022794
0.0022815
0.00228337
0.00228502
0.00228646
0.0022877
0.00228874
0.0022896
0.00229028
0.0022908
0.00229118
0.00229142
0.00229153
0.00229634
0.00229785
0.00229995
0.00230248
0.00230533
0.00230839
0.00231156
0.00231477
0.00231795
0.00232105
0.00232402
0.00232684
0.00232947
0.00233191
0.00233414
0.00233615
0.00233796
0.00233955
0.00234094
0.00234213
0.00234313
0.00234396
0.00234462
0.00234512
0.00234548
0.00234571
0.00234582
0.00235041
0.00235186
0.00235388
0.00235632
0.00235906
0.00236201
0.00236506
0.00236815
0.00237121
0.00237419
0.00237705
0.00237976
0.0023823
0.00238465
0.00238679
0.00238873
0.00239047
0.002392
0.00239334
0.00239448
0.00239545
0.00239624
0.00239688
0.00239736
0.00239771
0.00239793
0.00239803
0.0024024
0.00240381
0.00240575
0.00240809
0.00241073
0.00241356
0.0024165
0.00241947
0.00242241
0.00242528
0.00242803
0.00243064
0.00243308
0.00243533
0.00243739
0.00243926
0.00244093
0.00244241
0.00244369
0.00244479
0.00244572
0.00244648
0.00244709
0.00244756
0.00244789
0.00244811
0.00244821
0.00245236
0.0024537
0.00245557
0.00245782
0.00246036
0.00246308
0.0024659
0.00246876
0.00247158
0.00247434
0.00247698
0.00247948
0.00248182
0.00248399
0.00248597
0.00248777
0.00248937
0.00249079
0.00249202
0.00249308
0.00249397
0.0024947
0.00249529
0.00249574
0.00249606
0.00249626
0.00249636
0.00250029
0.00250158
0.00250337
0.00250553
0.00250797
0.00251058
0.00251329
0.00251603
0.00251874
0.00252138
0.00252392
0.00252632
0.00252856
0.00253064
0.00253254
0.00253426
0.0025358
0.00253716
0.00253834
0.00253936
0.00254021
0.00254092
0.00254148
0.00254191
0.00254222
0.00254241
0.0025425
0.00254622
0.00254746
0.00254917
0.00255124
0.00255358
0.00255608
0.00255867
0.00256129
0.00256389
0.00256642
0.00256885
0.00257115
0.00257331
0.0025753
0.00257712
0.00257876
0.00258024
0.00258154
0.00258267
0.00258364
0.00258446
0.00258514
0.00258567
0.00258609
0.00258638
0.00258657
0.00258666
0.00259015
0.00259133
0.00259297
0.00259496
0.00259719
0.00259958
0.00260206
0.00260457
0.00260705
0.00260948
0.0026118
0.002614
0.00261605
0.00261796
0.0026197
0.00262127
0.00262268
0.00262392
0.00262501
0.00262594
0.00262672
0.00262736
0.00262788
0.00262827
0.00262855
0.00262873
0.00262881
0.00263208
0.00263322
0.00263478
0.00263667
0.0026388
0.00264109
0.00264345
0.00264585
0.00264822
0.00265053
0.00265274
0.00265484
0.0026568
0.00265862
0.00266028
0.00266178
0.00266312
0.00266431
0.00266534
0.00266623
0.00266698
0.00266759
0.00266808
0.00266845
0.00266872
0.00266889
0.00266897
0.00267202
0.00267309
0.00267458
0.00267639
0.00267841
0.00268058
0.00268284
0.00268512
0.00268737
0.00268957
0.00269168
0.00269367
0.00269554
0.00269727
0.00269885
0.00270027
0.00270155
0.00270268
0.00270366
0.0027045
0.00270521
0.0027058
0.00270626
0.00270662
0.00270688
0.00270704
0.00270711
0.00270992
0.00271095
0.00271236
0.00271407
0.00271599
0.00271805
0.00272019
0.00272235
0.00272449
0.00272658
0.00272858
0.00273047
0.00273224
0.00273388
0.00273537
0.00273673
0.00273794
0.00273901
0.00273994
0.00274074
0.00274141
0.00274196
0.0027424
0.00274274
0.00274298
0.00274314
0.00274321
0.00274578
0.00274675
0.00274808
0.0027497
0.00275152
0.00275347
0.00275549
0.00275753
0.00275955
0.00276152
0.00276341
0.00276519
0.00276687
0.00276841
0.00276982
0.0027711
0.00277224
0.00277325
0.00277413
0.00277489
0.00277552
0.00277604
0.00277646
0.00277678
0.00277701
0.00277715
0.00277722
0.00277954
0.00278045
0.00278171
0.00278323
0.00278494
0.00278677
0.00278867
0.0027906
0.0027925
0.00279435
0.00279612
0.0027978
0.00279937
0.00280082
0.00280215
0.00280335
0.00280443
0.00280537
0.0028062
0.00280691
0.0028075
0.00280799
0.00280839
0.00280868
0.0028089
0.00280903
0.0028091
0.00281116
0.00281202
0.00281319
0.00281462
0.00281622
0.00281793
0.00281971
0.0028215
0.00282328
0.00282501
0.00282667
0.00282824
0.00282971
0.00283106
0.0028323
0.00283342
0.00283443
0.00283531
0.00283608
0.00283674
0.0028373
0.00283776
0.00283812
0.0028384
0.0028386
0.00283873
0.00283879
0.00284059
0.00284138
0.00284248
0.0028438
0.00284528
0.00284688
0.00284853
0.00285019
0.00285184
0.00285345
0.00285499
0.00285644
0.00285781
0.00285906
0.00286021
0.00286125
0.00286218
0.002863
0.00286371
0.00286433
0.00286484
0.00286527
0.00286561
0.00286586
0.00286605
0.00286617
0.00286622
0.00286775
0.00286848
0.00286949
0.00287071
0.00287208
0.00287355
0.00287507
0.0028766
0.00287812
0.0028796
0.00288101
0.00288235
0.00288361
0.00288476
0.00288582
0.00288677
0.00288763
0.00288838
0.00288904
0.0028896
0.00289007
0.00289046
0.00289077
0.00289101
0.00289118
0.00289129
0.00289134
0.00289259
0.00289326
0.00289418
0.00289529
0.00289654
0.00289788
0.00289927
0.00290067
0.00290205
0.0029034
0.00290469
0.0029059
0.00290704
0.0029081
0.00290906
0.00290992
0.0029107
0.00291138
0.00291198
0.00291249
0.00291292
0.00291328
0.00291356
0.00291377
0.00291393
0.00291403
0.00291407
0.00291505
0.00291566
0.00291649
0.00291749
0.00291862
0.00291982
0.00292107
0.00292233
0.00292358
0.00292479
0.00292595
0.00292704
0.00292807
0.00292901
0.00292987
0.00293065
0.00293135
0.00293196
0.0029325
0.00293296
0.00293334
0.00293366
0.00293391
0.00293411
0.00293425
0.00293433
0.00293438
0.00293509
0.00293562
0.00293636
0.00293725
0.00293826
0.00293933
0.00294044
0.00294155
0.00294266
0.00294373
0.00294476
0.00294573
0.00294664
0.00294747
0.00294824
0.00294893
0.00294954
0.00295008
0.00295056
0.00295096
0.0029513
0.00295158
0.00295181
0.00295198
0.0029521
0.00295218
0.00295222
0.00295267
0.00295314
0.00295378
0.00295456
0.00295544
0.00295638
0.00295734
0.00295832
0.00295928
0.00296022
0.00296111
0.00296196
0.00296274
0.00296347
0.00296413
0.00296473
0.00296527
0.00296574
0.00296615
0.0029665
0.0029668
0.00296704
0.00296724
0.00296738
0.00296749
0.00296756
0.00296759
0.00296781
0.00296821
0.00296876
0.00296943
0.00297018
0.00297098
0.00297181
0.00297264
0.00297347
0.00297426
0.00297503
0.00297575
0.00297642
0.00297704
0.0029776
0.00297811
0.00297856
0.00297897
0.00297931
0.00297961
0.00297986
0.00298007
0.00298023
0.00298036
0.00298045
0.00298051
0.00298054
0.00298055
0.00298088
0.00298135
0.00298191
0.00298253
0.0029832
0.00298389
0.00298459
0.00298527
0.00298594
0.00298657
0.00298717
0.00298773
0.00298824
0.00298871
0.00298913
0.00298951
0.00298984
0.00299013
0.00299038
0.00299058
0.00299075
0.00299089
0.002991
0.00299107
0.00299112
0.00299114
0.00299098
0.00299126
0.00299163
0.00299209
0.0029926
0.00299314
0.0029937
0.00299426
0.00299482
0.00299535
0.00299587
0.00299635
0.0029968
0.00299721
0.00299759
0.00299793
0.00299823
0.00299849
0.00299873
0.00299892
0.00299909
0.00299923
0.00299934
0.00299942
0.00299948
0.00299952
0.00299954
0.00299926
0.00299947
0.00299977
0.00300012
0.00300052
0.00300095
0.00300139
0.00300182
0.00300226
0.00300267
0.00300307
0.00300345
0.00300379
0.00300411
0.00300441
0.00300467
0.0030049
0.00300511
0.00300529
0.00300544
0.00300557
0.00300567
0.00300576
0.00300582
0.00300587
0.0030059
0.00300591
0.00300555
0.00300571
0.00300594
0.0030062
0.0030065
0.00300682
0.00300715
0.00300747
0.00300779
0.0030081
0.0030084
0.00300867
0.00300893
0.00300917
0.00300938
0.00300957
0.00300975
0.0030099
0.00301003
0.00301014
0.00301023
0.00301031
0.00301037
0.00301042
0.00301045
0.00301048
0.00301049
0.00301009
0.00301021
0.00301036
0.00301055
0.00301076
0.00301098
0.00301121
0.00301144
0.00301166
0.00301188
0.00301208
0.00301227
0.00301245
0.00301261
0.00301276
0.00301289
0.00301301
0.00301311
0.0030132
0.00301327
0.00301334
0.00301339
0.00301343
0.00301346
0.00301349
0.0030135
0.00301351
0.00301312
0.00301319
0.00301329
0.00301341
0.00301355
0.00301369
0.00301383
0.00301398
0.00301412
0.00301425
0.00301437
0.00301449
0.0030146
0.0030147
0.00301479
0.00301487
0.00301494
0.003015
0.00301505
0.0030151
0.00301513
0.00301517
0.00301519
0.00301521
0.00301522
0.00301523
0.00301524
0.00301489
0.00301493
0.00301498
0.00301505
0.00301512
0.00301519
0.00301526
0.00301534
0.00301541
0.00301547
0.00301553
0.00301559
0.00301564
0.00301569
0.00301573
0.00301576
0.0030158
0.00301582
0.00301585
0.00301587
0.00301589
0.0030159
0.00301591
0.00301592
0.00301592
0.00301593
0.00301593
0.00301565
0.00301566
0.00301568
0.00301569
0.00301571
0.00301573
0.00301575
0.00301577
0.00301578
0.0030158
0.00301581
0.00301582
0.00301582
0.00301583
0.00301583
0.00301583
0.00301584
0.00301584
0.00301584
0.00301584
0.00301584
0.00301584
0.00301584
0.00301584
0.00301584
0.00301584
0.00301584
0.00301564
0.00301563
0.00301562
0.0030156
0.00301558
0.00301556
0.00301554
0.00301551
0.00301549
0.00301546
0.00301543
0.0030154
0.00301538
0.00301535
0.00301533
0.0030153
0.00301528
0.00301527
0.00301525
0.00301524
0.00301522
0.00301521
0.00301521
0.0030152
0.0030152
0.00301519
0.00301519
0.00301508
0.00301506
0.00301503
0.00301499
0.00301495
0.0030149
0.00301485
0.0030148
0.00301475
0.0030147
0.00301465
0.0030146
0.00301456
0.00301451
0.00301447
0.00301444
0.00301441
0.00301438
0.00301435
0.00301433
0.00301431
0.0030143
0.00301428
0.00301428
0.00301427
0.00301426
0.00301426
0.00301423
0.0030142
0.00301416
0.00301412
0.00301406
0.003014
0.00301394
0.00301388
0.00301382
0.00301376
0.0030137
0.00301364
0.00301359
0.00301354
0.00301349
0.00301345
0.00301342
0.00301339
0.00301336
0.00301333
0.00301331
0.0030133
0.00301328
0.00301327
0.00301326
0.00301326
0.00301326
0.00301328
0.00301325
0.00301321
0.00301316
0.00301311
0.00301305
0.00301299
0.00301292
0.00301286
0.0030128
0.00301274
0.00301269
0.00301264
0.00301259
0.00301255
0.00301251
0.00301247
0.00301244
0.00301242
0.00301239
0.00301237
0.00301236
0.00301235
0.00301234
0.00301233
0.00301232
0.00301232
0.00301237
0.00301235
0.00301231
0.00301227
0.00301222
0.00301217
0.00301211
0.00301206
0.003012
0.00301195
0.0030119
0.00301185
0.00301181
0.00301177
0.00301173
0.00301169
0.00301166
0.00301164
0.00301162
0.0030116
0.00301158
0.00301157
0.00301155