/*--------------------------------*- C++ -*----------------------------------*\
| =========                 |                                                 |
| \\      /  F ield         | OpenFOAM: The Open Source CFD Toolbox           |
|  \\    /   O peration     | Version:  2106                                  |
|   \\  /    A nd           | Website:  www.openfoam.com                      |
|    \\/     M anipulation  |                                                 |
\*---------------------------------------------------------------------------*/
FoamFile
{
    version     2.0;
    format      ascii;
    arch        "LSB;label=32;scalar=64";
    class       volScalarField;
    location    "150.00049";
    object      CH2CO;
}
// * * * * * * * * * * * * * * * * * * * * * * * * * * * * * * * * * * * * * //

dimensions      [0 0 0 0 0 0 0];

internalField   nonuniform List<scalar> 
3360
(
1.12178e-17
1.15788e-17
1.20812e-17
1.26957e-17
1.33967e-17
1.41612e-17
1.49685e-17
1.57998e-17
1.66384e-17
1.74695e-17
1.82804e-17
1.90603e-17
1.98002e-17
2.04929e-17
2.1133e-17
2.17168e-17
2.22419e-17
2.27073e-17
2.31132e-17
2.34608e-17
2.37523e-17
2.39903e-17
2.41783e-17
2.43201e-17
2.44198e-17
2.44819e-17
2.45107e-17
4.92098e-17
5.10186e-17
5.35711e-17
5.67498e-17
6.04574e-17
6.46089e-17
6.91285e-17
7.39467e-17
7.89989e-17
8.4224e-17
8.95634e-17
9.49601e-17
1.00358e-16
1.05701e-16
1.10935e-16
1.16007e-16
1.20863e-16
1.25453e-16
1.29728e-16
1.33642e-16
1.37153e-16
1.40224e-16
1.42823e-16
1.44925e-16
1.46512e-16
1.47571e-16
1.48099e-16
1.54408e-16
1.61185e-16
1.70814e-16
1.82915e-16
1.97169e-16
2.13292e-16
2.31012e-16
2.50064e-16
2.70176e-16
2.91073e-16
3.12473e-16
3.34097e-16
3.55666e-16
3.76907e-16
3.97556e-16
4.1736e-16
4.36088e-16
4.53531e-16
4.69508e-16
4.83868e-16
4.96496e-16
5.0731e-16
5.16262e-16
5.23338e-16
5.28554e-16
5.31956e-16
5.33612e-16
4.49689e-16
4.72025e-16
5.03977e-16
5.44403e-16
5.92346e-16
6.46912e-16
7.07206e-16
7.72301e-16
8.41223e-16
9.1295e-16
9.86426e-16
1.06057e-15
1.13433e-15
1.20665e-15
1.27655e-15
1.34313e-15
1.40558e-15
1.46322e-15
1.51549e-15
1.562e-15
1.60246e-15
1.63674e-15
1.66482e-15
1.68678e-15
1.7028e-15
1.71315e-15
1.71814e-15
1.31385e-15
1.38432e-15
1.48531e-15
1.61338e-15
1.7656e-15
1.93916e-15
2.13116e-15
2.33855e-15
2.55804e-15
2.7862e-15
3.01946e-15
3.25424e-15
3.48701e-15
3.71441e-15
3.93332e-15
4.14095e-15
4.33489e-15
4.51317e-15
4.67422e-15
4.81697e-15
4.94073e-15
5.04522e-15
5.13055e-15
5.1971e-15
5.24553e-15
5.27674e-15
5.29176e-15
3.87386e-15
4.09026e-15
4.40079e-15
4.79493e-15
5.26366e-15
5.79824e-15
6.38963e-15
7.02821e-15
7.7037e-15
8.40528e-15
9.12179e-15
9.84203e-15
1.05551e-14
1.12505e-14
1.19188e-14
1.25515e-14
1.31415e-14
1.36828e-14
1.41709e-14
1.46028e-14
1.49766e-14
1.52917e-14
1.55486e-14
1.57487e-14
1.58942e-14
1.59878e-14
1.60328e-14
1.15075e-14
1.2165e-14
1.31086e-14
1.43063e-14
1.57305e-14
1.73544e-14
1.91502e-14
2.10881e-14
2.31365e-14
2.52623e-14
2.74314e-14
2.96096e-14
3.17639e-14
3.3863e-14
3.58783e-14
3.77847e-14
3.95607e-14
4.11891e-14
4.26565e-14
4.39541e-14
4.50767e-14
4.60226e-14
4.67936e-14
4.73939e-14
4.78301e-14
4.81108e-14
4.82457e-14
3.42959e-14
3.62745e-14
3.91151e-14
4.2722e-14
4.70122e-14
5.19047e-14
5.73153e-14
6.31538e-14
6.93243e-14
7.57263e-14
8.22566e-14
8.88123e-14
9.52934e-14
1.01606e-13
1.07664e-13
1.13392e-13
1.18726e-13
1.23614e-13
1.28017e-13
1.31909e-13
1.35274e-13
1.38109e-13
1.40418e-13
1.42215e-13
1.43521e-13
1.44361e-13
1.44764e-13
1.02482e-13
1.08429e-13
1.16964e-13
1.278e-13
1.40688e-13
1.55382e-13
1.71628e-13
1.89154e-13
2.0767e-13
2.26875e-13
2.46457e-13
2.66109e-13
2.8553e-13
3.0444e-13
3.22582e-13
3.39731e-13
3.55696e-13
3.70324e-13
3.83499e-13
3.95142e-13
4.05209e-13
4.13688e-13
4.20596e-13
4.25972e-13
4.29878e-13
4.32389e-13
4.33597e-13
3.06237e-13
3.24045e-13
3.49612e-13
3.82073e-13
4.2068e-13
4.64698e-13
5.13362e-13
5.65856e-13
6.21311e-13
6.78818e-13
7.37447e-13
7.96272e-13
8.54396e-13
9.10978e-13
9.6525e-13
1.01654e-12
1.06428e-12
1.108e-12
1.14738e-12
1.18217e-12
1.21224e-12
1.23756e-12
1.25818e-12
1.27423e-12
1.28589e-12
1.29338e-12
1.29698e-12
9.15495e-13
9.68801e-13
1.04531e-12
1.14244e-12
1.25792e-12
1.38957e-12
1.53506e-12
1.69196e-12
1.85766e-12
2.02943e-12
2.20449e-12
2.38008e-12
2.55352e-12
2.72231e-12
2.88416e-12
3.03707e-12
3.17936e-12
3.30967e-12
3.42698e-12
3.53061e-12
3.62017e-12
3.69558e-12
3.75699e-12
3.80478e-12
3.83948e-12
3.86179e-12
3.87251e-12
2.73405e-12
2.89317e-12
3.12155e-12
3.41142e-12
3.75602e-12
4.14872e-12
4.58263e-12
5.0504e-12
5.54422e-12
6.05597e-12
6.57733e-12
7.10006e-12
7.6162e-12
8.11829e-12
8.59955e-12
9.05407e-12
9.47684e-12
9.86387e-12
1.02122e-11
1.05198e-11
1.07855e-11
1.10092e-11
1.11913e-11
1.13329e-11
1.14358e-11
1.15019e-11
1.15336e-11
8.15533e-12
8.62947e-12
9.30974e-12
1.01728e-11
1.11982e-11
1.23662e-11
1.36559e-11
1.50454e-11
1.65113e-11
1.80295e-11
1.95751e-11
2.11237e-11
2.26518e-11
2.41373e-11
2.55604e-11
2.69036e-11
2.81524e-11
2.9295e-11
3.03228e-11
3.12299e-11
3.20135e-11
3.26727e-11
3.32092e-11
3.36265e-11
3.39293e-11
3.4124e-11
3.42175e-11
2.42527e-11
2.56588e-11
2.76756e-11
3.0233e-11
3.32699e-11
3.67264e-11
4.05404e-11
4.46461e-11
4.89739e-11
5.34518e-11
5.80065e-11
6.2566e-11
6.70609e-11
7.14266e-11
7.5605e-11
7.95455e-11
8.32057e-11
8.65521e-11
8.956e-11
9.2213e-11
9.45029e-11
9.64283e-11
9.79944e-11
9.92117e-11
1.00095e-10
1.00662e-10
1.00935e-10
7.18545e-11
7.60016e-11
8.19456e-11
8.94765e-11
9.84106e-11
1.08568e-10
1.19762e-10
1.31797e-10
1.44466e-10
1.57556e-10
1.70852e-10
1.84143e-10
1.97228e-10
2.0992e-10
2.22051e-10
2.33477e-10
2.44078e-10
2.5376e-10
2.62453e-10
2.70113e-10
2.76719e-10
2.82269e-10
2.8678e-10
2.90283e-10
2.92824e-10
2.94455e-10
2.95238e-10
2.11624e-10
2.23739e-10
2.41087e-10
2.63044e-10
2.89056e-10
3.18587e-10
3.51079e-10
3.8595e-10
4.22591e-10
4.60381e-10
4.98694e-10
5.36922e-10
5.74487e-10
6.10858e-10
6.45562e-10
6.78195e-10
7.08422e-10
7.35985e-10
7.60698e-10
7.82445e-10
8.01175e-10
8.16893e-10
8.29654e-10
8.39557e-10
8.46731e-10
8.51334e-10
8.53541e-10
6.18447e-10
6.53389e-10
7.03365e-10
7.66514e-10
8.41189e-10
9.25784e-10
1.01865e-09
1.11808e-09
1.22229e-09
1.3295e-09
1.43791e-09
1.54581e-09
1.65158e-09
1.75374e-09
1.851e-09
1.94224e-09
2.02658e-09
2.10334e-09
2.17203e-09
2.23237e-09
2.28426e-09
2.32774e-09
2.363e-09
2.39032e-09
2.4101e-09
2.42277e-09
2.42885e-09
1.78846e-09
1.88746e-09
2.02884e-09
2.20709e-09
2.41736e-09
2.6549e-09
2.91487e-09
3.19233e-09
3.48221e-09
3.77943e-09
4.07902e-09
4.37622e-09
4.66663e-09
4.94628e-09
5.21173e-09
5.46008e-09
5.68905e-09
5.89691e-09
6.08251e-09
6.24521e-09
6.38485e-09
6.50165e-09
6.59621e-09
6.66938e-09
6.72227e-09
6.75613e-09
6.77234e-09
5.10203e-09
5.37605e-09
5.76651e-09
6.25748e-09
6.83477e-09
7.48459e-09
8.19307e-09
8.94619e-09
9.72981e-09
1.053e-08
1.13334e-08
1.21272e-08
1.28999e-08
1.36413e-08
1.43426e-08
1.49965e-08
1.55976e-08
1.61418e-08
1.66264e-08
1.70501e-08
1.7413e-08
1.7716e-08
1.79608e-08
1.81499e-08
1.82864e-08
1.83737e-08
1.84154e-08
1.43009e-08
1.50368e-08
1.60827e-08
1.73935e-08
1.89288e-08
2.06494e-08
2.25169e-08
2.44926e-08
2.65385e-08
2.86178e-08
3.06956e-08
3.27394e-08
3.47203e-08
3.66131e-08
3.83966e-08
4.00537e-08
4.15717e-08
4.29415e-08
4.41579e-08
4.52189e-08
4.61252e-08
4.68801e-08
4.7489e-08
4.79585e-08
4.82969e-08
4.85129e-08
4.86161e-08
3.92079e-08
4.11131e-08
4.38126e-08
4.71827e-08
5.11122e-08
5.54946e-08
6.02264e-08
6.52061e-08
7.03355e-08
7.55215e-08
8.06773e-08
8.57244e-08
9.05937e-08
9.5226e-08
9.95729e-08
1.03597e-07
1.0727e-07
1.10573e-07
1.13498e-07
1.16043e-07
1.18211e-07
1.20013e-07
1.21464e-07
1.2258e-07
1.23384e-07
1.23896e-07
1.24141e-07
1.04599e-07
1.09323e-07
1.15996e-07
1.24293e-07
1.3392e-07
1.44601e-07
1.56072e-07
1.68078e-07
1.80377e-07
1.92747e-07
2.04981e-07
2.16899e-07
2.28345e-07
2.39186e-07
2.49319e-07
2.58664e-07
2.67165e-07
2.74788e-07
2.81517e-07
2.87356e-07
2.9232e-07
2.96437e-07
2.99745e-07
3.02287e-07
3.04114e-07
3.05277e-07
3.05831e-07
2.70121e-07
2.81297e-07
2.97031e-07
3.16513e-07
3.39015e-07
3.63857e-07
3.90394e-07
4.18024e-07
4.46184e-07
4.74362e-07
5.021e-07
5.28998e-07
5.5472e-07
5.78988e-07
6.01588e-07
6.2236e-07
6.41198e-07
6.58043e-07
6.72876e-07
6.85716e-07
6.9661e-07
7.05629e-07
7.12863e-07
7.18415e-07
7.22398e-07
7.24931e-07
7.26137e-07
6.72053e-07
6.97228e-07
7.3257e-07
7.76172e-07
8.26324e-07
8.81443e-07
9.40056e-07
1.0008e-06
1.06244e-06
1.12385e-06
1.18405e-06
1.24222e-06
1.29763e-06
1.34975e-06
1.39813e-06
1.44248e-06
1.48259e-06
1.51838e-06
1.54983e-06
1.577e-06
1.60001e-06
1.61904e-06
1.63427e-06
1.64595e-06
1.65432e-06
1.65964e-06
1.66217e-06
1.60518e-06
1.65926e-06
1.735e-06
1.82817e-06
1.93498e-06
2.05195e-06
2.17589e-06
2.30388e-06
2.43329e-06
2.5618e-06
2.68739e-06
2.80836e-06
2.92332e-06
3.03116e-06
3.13105e-06
3.22242e-06
3.30492e-06
3.37839e-06
3.44287e-06
3.4985e-06
3.54556e-06
3.58442e-06
3.61552e-06
3.63933e-06
3.65639e-06
3.66722e-06
3.67237e-06
3.67256e-06
3.78365e-06
3.93896e-06
4.12959e-06
4.34758e-06
4.58569e-06
4.83731e-06
5.09649e-06
5.35788e-06
5.61685e-06
5.86938e-06
6.11212e-06
6.34235e-06
6.55795e-06
6.75734e-06
6.93945e-06
7.10366e-06
7.24972e-06
7.37773e-06
7.48807e-06
7.58133e-06
7.65827e-06
7.71979e-06
7.76688e-06
7.80058e-06
7.82197e-06
7.83213e-06
8.03877e-06
8.25742e-06
8.56272e-06
8.93677e-06
9.36368e-06
9.82899e-06
1.03196e-05
1.08238e-05
1.13312e-05
1.18327e-05
1.23206e-05
1.27886e-05
1.32317e-05
1.36457e-05
1.40279e-05
1.43764e-05
1.46902e-05
1.49689e-05
1.52129e-05
1.54229e-05
1.56002e-05
1.57464e-05
1.58632e-05
1.59525e-05
1.60163e-05
1.60569e-05
1.60761e-05
1.68039e-05
1.72156e-05
1.77898e-05
1.84924e-05
1.92928e-05
2.01638e-05
2.10805e-05
2.20209e-05
2.29656e-05
2.3898e-05
2.48038e-05
2.56715e-05
2.64918e-05
2.72575e-05
2.79637e-05
2.8607e-05
2.91856e-05
2.96992e-05
3.01484e-05
3.05348e-05
3.08609e-05
3.11295e-05
3.1344e-05
3.15079e-05
3.16251e-05
3.16994e-05
3.17347e-05
3.34151e-05
3.41575e-05
3.51923e-05
3.64576e-05
3.78981e-05
3.94645e-05
4.11119e-05
4.28009e-05
4.44967e-05
4.61693e-05
4.77937e-05
4.9349e-05
5.08189e-05
5.21907e-05
5.34554e-05
5.46072e-05
5.5643e-05
5.65622e-05
5.7366e-05
5.80574e-05
5.86406e-05
5.9121e-05
5.95045e-05
5.97977e-05
6.00071e-05
6.01399e-05
6.02029e-05
6.29537e-05
6.42344e-05
6.60196e-05
6.82022e-05
7.06876e-05
7.33902e-05
7.62335e-05
7.91494e-05
8.20784e-05
8.49691e-05
8.7778e-05
9.04694e-05
9.30147e-05
9.53921e-05
9.75856e-05
9.95849e-05
0.000101384
0.000102982
0.000104381
0.000105585
0.000106601
0.000107438
0.000108107
0.000108619
0.000108984
0.000109216
0.000109326
0.000111763
0.000113852
0.000116765
0.000120327
0.000124385
0.000128799
0.000133446
0.000138216
0.000143011
0.000147748
0.000152356
0.000156778
0.000160965
0.000164881
0.000168499
0.000171802
0.000174779
0.000177426
0.000179746
0.000181746
0.000183436
0.000184831
0.000185946
0.0001868
0.000187411
0.000187799
0.000187983
0.000185896
0.000189053
0.000193453
0.000198831
0.000204955
0.000211616
0.000218625
0.000225817
0.000233046
0.000240186
0.000247133
0.000253798
0.000260111
0.000266017
0.000271476
0.000276461
0.000280955
0.000284953
0.000288459
0.000291482
0.000294037
0.000296147
0.000297834
0.000299126
0.000300051
0.000300638
0.000300917
0.000288748
0.000293079
0.000299107
0.000306464
0.000314825
0.000323898
0.000333424
0.000343175
0.000352952
0.000362585
0.000371933
0.000380879
0.00038933
0.000397218
0.000404491
0.000411117
0.000417078
0.000422371
0.000427003
0.00043099
0.000434355
0.000437128
0.000439343
0.000441037
0.000442248
0.000443016
0.00044338
0.000419215
0.000424567
0.000431998
0.000441041
0.000451282
0.000462353
0.000473927
0.000485722
0.000497496
0.000509044
0.000520198
0.000530826
0.000540823
0.000550114
0.000558646
0.000566389
0.000573331
0.000579473
0.000584831
0.00058943
0.000593301
0.000596484
0.000599021
0.000600956
0.000602338
0.000603213
0.000603628
0.000571463
0.000577446
0.000585732
0.000595782
0.000607119
0.000619321
0.00063202
0.000644898
0.000657689
0.000670174
0.000682175
0.000693555
0.000704211
0.00071407
0.000723088
0.000731239
0.000738521
0.000744942
0.000750526
0.000755306
0.000759319
0.000762612
0.000765231
0.000767226
0.000768647
0.000769546
0.000769972
0.000736687
0.00074284
0.000751345
0.000761629
0.000773192
0.00078559
0.000798441
0.000811421
0.000824261
0.000836742
0.000848692
0.00085998
0.000870511
0.000880223
0.000889076
0.000897056
0.000904166
0.00091042
0.000915847
0.000920483
0.00092437
0.000927554
0.000930084
0.000932009
0.000933381
0.000934247
0.000934657
0.000905957
0.00091191
0.000920124
0.000930037
0.000941154
0.000953044
0.000965335
0.000977715
0.000989928
0.00100177
0.00101307
0.00102373
0.00103365
0.00104278
0.00105108
0.00105856
0.00106521
0.00107105
0.00107611
0.00108044
0.00108406
0.00108702
0.00108938
0.00109117
0.00109245
0.00109325
0.00109363
0.00107231
0.00107785
0.00108548
0.00109467
0.00110497
0.00111597
0.00112733
0.00113875
0.00115
0.0011609
0.00117129
0.00118107
0.00119017
0.00119853
0.00120614
0.00121299
0.00121907
0.00122442
0.00122905
0.001233
0.00123632
0.00123903
0.00124119
0.00124283
0.00124399
0.00124473
0.00124508
0.00123141
0.00123644
0.00124338
0.00125174
0.0012611
0.00127109
0.0012814
0.00129176
0.00130197
0.00131185
0.00132128
0.00133015
0.0013384
0.00134599
0.0013529
0.00135911
0.00136463
0.00136949
0.0013737
0.00137729
0.0013803
0.00138277
0.00138474
0.00138623
0.0013873
0.00138797
0.00138829
0.00138113
0.00138567
0.00139193
0.00139947
0.00140792
0.00141693
0.00142624
0.0014356
0.00144482
0.00145375
0.00146228
0.0014703
0.00147777
0.00148465
0.0014909
0.00149654
0.00150155
0.00150596
0.00150979
0.00151306
0.0015158
0.00151805
0.00151984
0.0015212
0.00152217
0.00152279
0.00152308
0.00152088
0.00152497
0.00153062
0.00153742
0.00154505
0.00155319
0.0015616
0.00157007
0.00157842
0.00158651
0.00159424
0.00160152
0.0016083
0.00161455
0.00162024
0.00162537
0.00162994
0.00163396
0.00163745
0.00164043
0.00164294
0.001645
0.00164663
0.00164788
0.00164877
0.00164934
0.0016496
0.00165087
0.00165458
0.0016597
0.00166587
0.00167278
0.00168018
0.00168782
0.00169552
0.00170312
0.00171049
0.00171753
0.00172417
0.00173037
0.00173607
0.00174128
0.00174597
0.00175015
0.00175384
0.00175704
0.00175978
0.00176208
0.00176397
0.00176547
0.00176662
0.00176744
0.00176796
0.0017682
0.00177175
0.00177513
0.0017798
0.00178543
0.00179175
0.00179851
0.00180549
0.00181254
0.00181949
0.00182625
0.0018327
0.0018388
0.00184449
0.00184973
0.00185452
0.00185884
0.00186269
0.00186608
0.00186903
0.00187156
0.00187368
0.00187543
0.00187682
0.00187788
0.00187863
0.00187911
0.00187934
0.0018843
0.00188741
0.00189169
0.00189687
0.00190267
0.00190889
0.00191532
0.0019218
0.00192821
0.00193443
0.00194039
0.00194602
0.00195127
0.00195612
0.00196054
0.00196454
0.0019681
0.00197125
0.00197398
0.00197632
0.00197829
0.00197991
0.0019812
0.00198218
0.00198288
0.00198333
0.00198354
0.00198931
0.00199218
0.00199614
0.00200092
0.00200629
0.00201204
0.00201799
0.00202399
0.00202993
0.0020357
0.00204123
0.00204645
0.00205132
0.00205583
0.00205994
0.00206365
0.00206696
0.00206989
0.00207243
0.00207461
0.00207644
0.00207795
0.00207915
0.00208007
0.00208072
0.00208114
0.00208134
0.00208751
0.00209017
0.00209385
0.0020983
0.00210329
0.00210863
0.00211417
0.00211976
0.00212529
0.00213066
0.00213581
0.00214067
0.00214522
0.00214942
0.00215326
0.00215672
0.00215982
0.00216255
0.00216492
0.00216696
0.00216867
0.00217008
0.0021712
0.00217206
0.00217267
0.00217306
0.00217325
0.00217957
0.00218205
0.00218549
0.00218964
0.0021943
0.00219929
0.00220446
0.00220969
0.00221485
0.00221988
0.00222469
0.00222925
0.0022335
0.00223744
0.00224103
0.00224427
0.00224717
0.00224973
0.00225196
0.00225387
0.00225547
0.00225679
0.00225785
0.00225865
0.00225923
0.00225959
0.00225976
0.00226607
0.0022684
0.00227162
0.0022755
0.00227987
0.00228455
0.00228941
0.00229431
0.00229915
0.00230387
0.00230839
0.00231267
0.00231666
0.00232035
0.00232373
0.00232678
0.0023295
0.00233191
0.002334
0.0023358
0.00233731
0.00233855
0.00233954
0.00234029
0.00234083
0.00234118
0.00234134
0.00234754
0.00234972
0.00235275
0.0023564
0.00236051
0.00236492
0.00236948
0.00237409
0.00237865
0.00238309
0.00238735
0.00239137
0.00239514
0.00239861
0.00240179
0.00240466
0.00240723
0.0024095
0.00241147
0.00241316
0.00241459
0.00241576
0.00241669
0.0024174
0.00241791
0.00241824
0.00241839
0.00242442
0.00242648
0.00242933
0.00243278
0.00243665
0.0024408
0.00244511
0.00244946
0.00245376
0.00245795
0.00246197
0.00246577
0.00246932
0.0024726
0.0024756
0.00247832
0.00248074
0.00248288
0.00248475
0.00248634
0.00248769
0.00248879
0.00248968
0.00249035
0.00249083
0.00249114
0.00249128
0.00249711
0.00249906
0.00250175
0.00250501
0.00250867
0.0025126
0.00251667
0.00252078
0.00252485
0.00252881
0.00253261
0.00253621
0.00253957
0.00254267
0.00254551
0.00254808
0.00255038
0.0025524
0.00255417
0.00255568
0.00255695
0.002558
0.00255883
0.00255947
0.00255993
0.00256022
0.00256035
0.00256597
0.00256781
0.00257037
0.00257345
0.00257692
0.00258064
0.00258449
0.00258839
0.00259225
0.002596
0.0025996
0.00260301
0.00260619
0.00260914
0.00261183
0.00261426
0.00261644
0.00261836
0.00262003
0.00262147
0.00262267
0.00262367
0.00262446
0.00262506
0.0026255
0.00262577
0.0026259
0.0026313
0.00263305
0.00263547
0.0026384
0.00264169
0.00264522
0.00264888
0.00265258
0.00265624
0.0026598
0.00266322
0.00266645
0.00266948
0.00267228
0.00267483
0.00267714
0.00267921
0.00268103
0.00268262
0.00268399
0.00268513
0.00268607
0.00268683
0.0026874
0.00268781
0.00268807
0.0026882
0.00269338
0.00269504
0.00269734
0.00270013
0.00270325
0.00270661
0.00271009
0.0027136
0.00271708
0.00272047
0.00272372
0.0027268
0.00272968
0.00273233
0.00273477
0.00273697
0.00273893
0.00274067
0.00274218
0.00274347
0.00274456
0.00274546
0.00274618
0.00274672
0.00274712
0.00274736
0.00274748
0.00275245
0.00275404
0.00275623
0.00275887
0.00276185
0.00276505
0.00276836
0.0027717
0.00277502
0.00277825
0.00278134
0.00278427
0.00278701
0.00278954
0.00279186
0.00279395
0.00279582
0.00279748
0.00279892
0.00280015
0.00280119
0.00280204
0.00280273
0.00280325
0.00280362
0.00280386
0.00280397
0.00280873
0.00281025
0.00281233
0.00281486
0.0028177
0.00282074
0.0028239
0.00282709
0.00283025
0.00283332
0.00283627
0.00283907
0.00284168
0.0028441
0.0028463
0.0028483
0.00285009
0.00285166
0.00285304
0.00285421
0.0028552
0.00285602
0.00285667
0.00285717
0.00285752
0.00285775
0.00285786
0.00286243
0.00286387
0.00286586
0.00286827
0.00287098
0.00287388
0.0028769
0.00287994
0.00288296
0.0028859
0.00288871
0.00289138
0.00289387
0.00289618
0.00289829
0.00290019
0.0029019
0.0029034
0.00290471
0.00290584
0.00290679
0.00290756
0.00290818
0.00290866
0.002909
0.00290921
0.00290932
0.0029137
0.00291508
0.00291698
0.00291928
0.00292187
0.00292465
0.00292753
0.00293044
0.00293332
0.00293613
0.00293882
0.00294137
0.00294375
0.00294595
0.00294797
0.00294979
0.00295142
0.00295286
0.00295411
0.00295519
0.00295609
0.00295684
0.00295743
0.00295788
0.00295821
0.00295841
0.00295851
0.00296272
0.00296403
0.00296585
0.00296806
0.00297053
0.00297319
0.00297594
0.00297872
0.00298148
0.00298416
0.00298674
0.00298918
0.00299146
0.00299357
0.00299549
0.00299724
0.0029988
0.00300017
0.00300137
0.0030024
0.00300327
0.00300398
0.00300455
0.00300498
0.00300529
0.00300549
0.00300558
0.00300962
0.00301088
0.00301262
0.00301473
0.0030171
0.00301964
0.00302227
0.00302494
0.00302758
0.00303015
0.00303261
0.00303495
0.00303713
0.00303915
0.00304099
0.00304266
0.00304416
0.00304547
0.00304662
0.00304761
0.00304844
0.00304912
0.00304966
0.00305008
0.00305038
0.00305056
0.00305065
0.00305453
0.00305573
0.0030574
0.00305942
0.00306169
0.00306413
0.00306665
0.00306921
0.00307173
0.0030742
0.00307656
0.00307879
0.00308089
0.00308282
0.00308459
0.00308619
0.00308762
0.00308888
0.00308998
0.00309093
0.00309172
0.00309238
0.0030929
0.0030933
0.00309358
0.00309376
0.00309385
0.00309756
0.00309872
0.00310032
0.00310226
0.00310443
0.00310677
0.00310919
0.00311164
0.00311406
0.00311642
0.00311869
0.00312083
0.00312284
0.00312469
0.00312639
0.00312792
0.00312929
0.0031305
0.00313156
0.00313246
0.00313323
0.00313385
0.00313435
0.00313474
0.00313501
0.00313518
0.00313526
0.00313883
0.00313994
0.00314148
0.00314333
0.00314542
0.00314766
0.00314998
0.00315233
0.00315466
0.00315692
0.00315909
0.00316115
0.00316307
0.00316485
0.00316648
0.00316795
0.00316927
0.00317043
0.00317144
0.00317231
0.00317304
0.00317364
0.00317412
0.00317449
0.00317475
0.00317492
0.003175
0.00317842
0.00317948
0.00318096
0.00318274
0.00318474
0.00318689
0.00318912
0.00319137
0.00319361
0.00319578
0.00319786
0.00319984
0.00320169
0.00320339
0.00320496
0.00320637
0.00320763
0.00320875
0.00320972
0.00321055
0.00321125
0.00321183
0.00321229
0.00321264
0.0032129
0.00321306
0.00321313
0.00321641
0.00321743
0.00321885
0.00322056
0.00322248
0.00322454
0.00322668
0.00322885
0.00323099
0.00323308
0.00323508
0.00323697
0.00323875
0.00324039
0.00324189
0.00324324
0.00324446
0.00324553
0.00324646
0.00324726
0.00324793
0.00324849
0.00324893
0.00324927
0.00324951
0.00324966
0.00324974
0.00325288
0.00325386
0.00325522
0.00325686
0.00325871
0.00326069
0.00326274
0.00326482
0.00326688
0.00326888
0.0032708
0.00327262
0.00327432
0.0032759
0.00327734
0.00327864
0.00327981
0.00328083
0.00328173
0.0032825
0.00328315
0.00328368
0.0032841
0.00328443
0.00328466
0.00328481
0.00328488
0.00328788
0.00328883
0.00329013
0.00329171
0.00329348
0.00329538
0.00329735
0.00329935
0.00330132
0.00330325
0.00330509
0.00330684
0.00330847
0.00330999
0.00331137
0.00331262
0.00331374
0.00331472
0.00331558
0.00331632
0.00331694
0.00331745
0.00331786
0.00331817
0.00331839
0.00331854
0.0033186
0.00332148
0.00332238
0.00332363
0.00332515
0.00332685
0.00332867
0.00333057
0.00333248
0.00333438
0.00333622
0.00333799
0.00333967
0.00334124
0.00334269
0.00334402
0.00334522
0.00334629
0.00334724
0.00334806
0.00334877
0.00334937
0.00334986
0.00335025
0.00335055
0.00335076
0.0033509
0.00335096
0.0033537
0.00335457
0.00335577
0.00335722
0.00335885
0.00336061
0.00336242
0.00336426
0.00336608
0.00336785
0.00336955
0.00337116
0.00337266
0.00337405
0.00337532
0.00337648
0.0033775
0.00337841
0.00337921
0.00337988
0.00338046
0.00338093
0.0033813
0.00338159
0.00338179
0.00338192
0.00338198
0.00338459
0.00338542
0.00338657
0.00338797
0.00338953
0.00339121
0.00339295
0.00339471
0.00339645
0.00339815
0.00339978
0.00340132
0.00340276
0.0034041
0.00340532
0.00340642
0.0034074
0.00340827
0.00340903
0.00340968
0.00341023
0.00341068
0.00341104
0.00341131
0.00341151
0.00341164
0.00341169
0.00341417
0.00341496
0.00341606
0.0034174
0.0034189
0.0034205
0.00342217
0.00342385
0.00342552
0.00342715
0.0034287
0.00343018
0.00343156
0.00343284
0.003434
0.00343506
0.003436
0.00343683
0.00343756
0.00343818
0.00343871
0.00343914
0.00343948
0.00343974
0.00343993
0.00344005
0.00344011
0.00344244
0.0034432
0.00344425
0.00344553
0.00344696
0.00344849
0.00345009
0.0034517
0.00345329
0.00345484
0.00345633
0.00345774
0.00345906
0.00346028
0.00346139
0.0034624
0.0034633
0.0034641
0.00346479
0.00346538
0.00346588
0.00346629
0.00346662
0.00346687
0.00346705
0.00346717
0.00346722
0.00346941
0.00347014
0.00347114
0.00347236
0.00347372
0.00347518
0.0034767
0.00347824
0.00347976
0.00348124
0.00348265
0.003484
0.00348525
0.00348641
0.00348748
0.00348844
0.00348929
0.00349005
0.00349071
0.00349128
0.00349175
0.00349215
0.00349246
0.0034927
0.00349287
0.00349298
0.00349303
0.00349507
0.00349576
0.00349671
0.00349787
0.00349917
0.00350056
0.003502
0.00350346
0.0035049
0.00350631
0.00350766
0.00350893
0.00351013
0.00351123
0.00351224
0.00351315
0.00351396
0.00351468
0.00351531
0.00351585
0.0035163
0.00351667
0.00351697
0.00351719
0.00351735
0.00351746
0.00351751
0.00351939
0.00352005
0.00352095
0.00352204
0.00352327
0.00352459
0.00352596
0.00352734
0.0035287
0.00353003
0.00353131
0.00353252
0.00353365
0.00353469
0.00353564
0.0035365
0.00353727
0.00353795
0.00353855
0.00353905
0.00353948
0.00353983
0.00354011
0.00354033
0.00354048
0.00354058
0.00354062
0.00354235
0.00354296
0.00354382
0.00354485
0.00354601
0.00354725
0.00354853
0.00354984
0.00355112
0.00355237
0.00355358
0.00355471
0.00355577
0.00355675
0.00355765
0.00355846
0.00355919
0.00355983
0.00356038
0.00356086
0.00356126
0.00356159
0.00356186
0.00356206
0.0035622
0.00356229
0.00356234
0.00356389
0.00356447
0.00356527
0.00356623
0.00356732
0.00356848
0.00356969
0.0035709
0.00357211
0.00357328
0.0035744
0.00357547
0.00357646
0.00357738
0.00357821
0.00357897
0.00357965
0.00358025
0.00358077
0.00358121
0.00358159
0.0035819
0.00358214
0.00358233
0.00358247
0.00358255
0.00358259
0.00358396
0.0035845
0.00358525
0.00358614
0.00358715
0.00358823
0.00358935
0.00359049
0.00359161
0.00359269
0.00359374
0.00359472
0.00359564
0.00359649
0.00359727
0.00359797
0.0035986
0.00359916
0.00359964
0.00360005
0.0036004
0.00360068
0.00360091
0.00360109
0.00360121
0.00360129
0.00360133
0.00360251
0.00360301
0.0036037
0.00360452
0.00360545
0.00360645
0.00360748
0.00360852
0.00360955
0.00361055
0.00361151
0.00361242
0.00361326
0.00361405
0.00361476
0.0036154
0.00361598
0.00361649
0.00361693
0.00361731
0.00361763
0.00361789
0.0036181
0.00361826
0.00361837
0.00361844
0.00361848
0.00361948
0.00361993
0.00362055
0.00362131
0.00362216
0.00362306
0.003624
0.00362495
0.00362588
0.00362679
0.00362767
0.00362849
0.00362926
0.00362997
0.00363061
0.0036312
0.00363172
0.00363218
0.00363258
0.00363292
0.00363321
0.00363345
0.00363364
0.00363378
0.00363389
0.00363395
0.00363398
0.00363479
0.0036352
0.00363576
0.00363644
0.0036372
0.00363801
0.00363886
0.00363971
0.00364055
0.00364136
0.00364214
0.00364288
0.00364357
0.0036442
0.00364478
0.0036453
0.00364577
0.00364618
0.00364654
0.00364684
0.0036471
0.00364731
0.00364748
0.00364761
0.0036477
0.00364776
0.00364779
0.00364841
0.00364877
0.00364926
0.00364986
0.00365054
0.00365126
0.003652
0.00365275
0.00365349
0.00365421
0.0036549
0.00365554
0.00365615
0.00365671
0.00365721
0.00365767
0.00365808
0.00365844
0.00365876
0.00365902
0.00365925
0.00365944
0.00365958
0.0036597
0.00365978
0.00365983
0.00365985
0.00366029
0.00366061
0.00366104
0.00366156
0.00366214
0.00366276
0.00366341
0.00366406
0.0036647
0.00366532
0.00366591
0.00366647
0.00366699
0.00366747
0.0036679
0.0036683
0.00366865
0.00366896
0.00366923
0.00366946
0.00366965
0.00366981
0.00366994
0.00367003
0.0036701
0.00367015
0.00367017
0.00367045
0.00367071
0.00367108
0.00367152
0.00367201
0.00367254
0.00367308
0.00367363
0.00367417
0.00367469
0.00367519
0.00367566
0.0036761
0.0036765
0.00367687
0.0036772
0.0036775
0.00367775
0.00367798
0.00367817
0.00367833
0.00367847
0.00367857
0.00367865
0.00367871
0.00367875
0.00367876
0.00367891
0.00367913
0.00367943
0.00367979
0.0036802
0.00368063
0.00368108
0.00368153
0.00368197
0.0036824
0.00368281
0.00368319
0.00368355
0.00368388
0.00368418
0.00368445
0.00368468
0.0036849
0.00368508
0.00368523
0.00368537
0.00368547
0.00368556
0.00368562
0.00368567
0.0036857
0.00368571
0.00368575
0.00368592
0.00368616
0.00368646
0.00368678
0.00368713
0.00368748
0.00368784
0.00368819
0.00368853
0.00368885
0.00368916
0.00368944
0.0036897
0.00368994
0.00369015
0.00369034
0.0036905
0.00369065
0.00369077
0.00369087
0.00369096
0.00369102
0.00369107
0.00369111
0.00369113
0.00369115
0.0036911
0.00369124
0.00369143
0.00369165
0.0036919
0.00369217
0.00369244
0.00369271
0.00369298
0.00369324
0.00369349
0.00369372
0.00369394
0.00369414
0.00369431
0.00369448
0.00369462
0.00369474
0.00369485
0.00369495
0.00369502
0.00369509
0.00369514
0.00369518
0.0036952
0.00369522
0.00369523
0.00369515
0.00369525
0.00369539
0.00369555
0.00369574
0.00369593
0.00369614
0.00369634
0.00369654
0.00369673
0.00369691
0.00369708
0.00369724
0.00369738
0.00369752
0.00369763
0.00369774
0.00369783
0.00369791
0.00369798
0.00369803
0.00369808
0.00369812
0.00369814
0.00369816
0.00369818
0.00369818
0.00369808
0.00369816
0.00369826
0.00369837
0.00369851
0.00369865
0.00369879
0.00369894
0.00369908
0.00369921
0.00369934
0.00369946
0.00369957
0.00369968
0.00369977
0.00369985
0.00369992
0.00369999
0.00370004
0.00370009
0.00370013
0.00370016
0.00370019
0.00370021
0.00370022
0.00370023
0.00370023
0.00370014
0.00370019
0.00370026
0.00370034
0.00370044
0.00370053
0.00370063
0.00370073
0.00370083
0.00370092
0.00370101
0.00370109
0.00370117
0.00370124
0.0037013
0.00370136
0.00370141
0.00370145
0.00370149
0.00370152
0.00370155
0.00370157
0.00370159
0.0037016
0.00370161
0.00370162
0.00370162
0.00370154
0.00370158
0.00370162
0.00370168
0.00370174
0.00370181
0.00370187
0.00370194
0.00370201
0.00370207
0.00370213
0.00370218
0.00370224
0.00370228
0.00370232
0.00370236
0.0037024
0.00370243
0.00370245
0.00370247
0.00370249
0.00370251
0.00370252
0.00370253
0.00370253
0.00370254
0.00370254
0.00370248
0.00370251
0.00370254
0.00370257
0.00370262
0.00370266
0.0037027
0.00370275
0.00370279
0.00370283
0.00370287
0.00370291
0.00370294
0.00370298
0.003703
0.00370303
0.00370305
0.00370307
0.00370309
0.0037031
0.00370311
0.00370312
0.00370313
0.00370314
0.00370314
0.00370315
0.00370315
0.00370311
0.00370312
0.00370314
0.00370317
0.0037032
0.00370322
0.00370325
0.00370328
0.00370331
0.00370334
0.00370337
0.00370339
0.00370342
0.00370344
0.00370346
0.00370347
0.00370349
0.0037035
0.00370351
0.00370352
0.00370353
0.00370354
0.00370354
0.00370355
0.00370355
0.00370355
0.00370355
0.00370352
0.00370353
0.00370355
0.00370357
0.00370358
0.0037036
0.00370362
0.00370364
0.00370366
0.00370368
0.0037037
0.00370372
0.00370373
0.00370375
0.00370376
0.00370377
0.00370378
0.00370379
0.0037038
0.00370381
0.00370381
0.00370382
0.00370382
0.00370382
0.00370382
0.00370383
0.00370383
0.00370381
0.00370381
0.00370382
0.00370384
0.00370385
0.00370386
0.00370388
0.00370389
0.0037039
0.00370392
0.00370393
0.00370394
0.00370395
0.00370396
0.00370397
0.00370398
0.00370398
0.00370399
0.003704
0.003704
0.003704
0.00370401
0.00370401
0.00370401
0.00370401
0.00370401
0.00370402
0.003704
0.00370401
0.00370401
0.00370402
0.00370403
0.00370404
0.00370405
0.00370406
0.00370407
0.00370408
0.00370408
0.00370409
0.0037041
0.00370411
0.00370411