/*--------------------------------*- C++ -*----------------------------------*\
| =========                 |                                                 |
| \\      /  F ield         | OpenFOAM: The Open Source CFD Toolbox           |
|  \\    /   O peration     | Version:  2106                                  |
|   \\  /    A nd           | Website:  www.openfoam.com                      |
|    \\/     M anipulation  |                                                 |
\*---------------------------------------------------------------------------*/
FoamFile
{
    version     2.0;
    format      ascii;
    arch        "LSB;label=32;scalar=64";
    class       volScalarField;
    location    "150.00049";
    object      CH3COCH2;
}
// * * * * * * * * * * * * * * * * * * * * * * * * * * * * * * * * * * * * * //

dimensions      [0 0 0 0 0 0 0];

internalField   nonuniform List<scalar> 
3360
(
8.51936e-21
8.79347e-21
9.17492e-21
9.64149e-21
1.01738e-20
1.07543e-20
1.13672e-20
1.19984e-20
1.26351e-20
1.32661e-20
1.38818e-20
1.44739e-20
1.50357e-20
1.55616e-20
1.60477e-20
1.64909e-20
1.68896e-20
1.7243e-20
1.75511e-20
1.78151e-20
1.80363e-20
1.8217e-20
1.83598e-20
1.84674e-20
1.85432e-20
1.85903e-20
1.86122e-20
3.73672e-20
3.87404e-20
4.06782e-20
4.30914e-20
4.59061e-20
4.90578e-20
5.2489e-20
5.61468e-20
5.99823e-20
6.39491e-20
6.80026e-20
7.20996e-20
7.61975e-20
8.0254e-20
8.42277e-20
8.80778e-20
9.17646e-20
9.52491e-20
9.84945e-20
1.01466e-19
1.04131e-19
1.06463e-19
1.08436e-19
1.10032e-19
1.11237e-19
1.12041e-19
1.12442e-19
1.17222e-19
1.22366e-19
1.29675e-19
1.38859e-19
1.49678e-19
1.61915e-19
1.75365e-19
1.89824e-19
2.05089e-19
2.2095e-19
2.37192e-19
2.53604e-19
2.69974e-19
2.86095e-19
3.01767e-19
3.16798e-19
3.31012e-19
3.4425e-19
3.56376e-19
3.67275e-19
3.76859e-19
3.85066e-19
3.9186e-19
3.9723e-19
4.01189e-19
4.03771e-19
4.05028e-19
3.4129e-19
3.58238e-19
3.82482e-19
4.13156e-19
4.49533e-19
4.90936e-19
5.36684e-19
5.86074e-19
6.38367e-19
6.92789e-19
7.48537e-19
8.04795e-19
8.60754e-19
9.15626e-19
9.68661e-19
1.01917e-18
1.06655e-18
1.11028e-18
1.14994e-18
1.18523e-18
1.21593e-18
1.24194e-18
1.26324e-18
1.2799e-18
1.29205e-18
1.2999e-18
1.30369e-18
9.96794e-19
1.05024e-18
1.12685e-18
1.22399e-18
1.33945e-18
1.47109e-18
1.61672e-18
1.77401e-18
1.94049e-18
2.11354e-18
2.29046e-18
2.46852e-18
2.64506e-18
2.81753e-18
2.98356e-18
3.14103e-18
3.28812e-18
3.42332e-18
3.54547e-18
3.65373e-18
3.74758e-18
3.82683e-18
3.89154e-18
3.94201e-18
3.97875e-18
4.00242e-18
4.01381e-18
2.93792e-18
3.102e-18
3.33745e-18
3.6363e-18
3.99169e-18
4.397e-18
4.84539e-18
5.32955e-18
5.84169e-18
6.3736e-18
6.91683e-18
7.46288e-18
8.00345e-18
8.53069e-18
9.03736e-18
9.51705e-18
9.9643e-18
1.03747e-17
1.07447e-17
1.10721e-17
1.13555e-17
1.15944e-17
1.17892e-17
1.19408e-17
1.20511e-17
1.21221e-17
1.21562e-17
8.72381e-18
9.22219e-18
9.93736e-18
1.08451e-17
1.19245e-17
1.31553e-17
1.45163e-17
1.5985e-17
1.75375e-17
1.91485e-17
2.07924e-17
2.24431e-17
2.40757e-17
2.56665e-17
2.71938e-17
2.86385e-17
2.99844e-17
3.12184e-17
3.23305e-17
3.33138e-17
3.41645e-17
3.48813e-17
3.54655e-17
3.59204e-17
3.6251e-17
3.64637e-17
3.6566e-17
2.59893e-17
2.74883e-17
2.96404e-17
3.2373e-17
3.56233e-17
3.933e-17
4.34289e-17
4.78521e-17
5.25267e-17
5.73767e-17
6.23238e-17
6.729e-17
7.21998e-17
7.69817e-17
8.15709e-17
8.591e-17
8.99505e-17
9.36532e-17
9.69887e-17
9.99367e-17
1.02486e-16
1.04633e-16
1.06382e-16
1.07744e-16
1.08733e-16
1.09369e-16
1.09675e-16
7.76286e-17
8.21319e-17
8.8596e-17
9.68024e-17
1.06562e-16
1.1769e-16
1.29993e-16
1.43265e-16
1.57287e-16
1.7183e-16
1.86659e-16
2.0154e-16
2.16247e-16
2.30566e-16
2.44303e-16
2.57289e-16
2.69378e-16
2.80454e-16
2.90431e-16
2.99247e-16
3.0687e-16
3.1329e-16
3.1852e-16
3.22591e-16
3.25548e-16
3.2745e-16
3.28365e-16
2.3187e-16
2.45351e-16
2.64706e-16
2.89279e-16
3.18504e-16
3.51826e-16
3.88664e-16
4.28401e-16
4.70378e-16
5.13909e-16
5.58288e-16
6.02815e-16
6.46812e-16
6.8964e-16
7.3072e-16
7.69542e-16
8.05675e-16
8.38774e-16
8.68577e-16
8.94907e-16
9.17669e-16
9.36835e-16
9.52444e-16
9.64591e-16
9.73413e-16
9.79086e-16
9.81812e-16
6.92861e-16
7.33198e-16
7.91095e-16
8.64589e-16
9.51977e-16
1.05159e-15
1.16168e-15
1.2804e-15
1.40578e-15
1.53575e-15
1.66821e-15
1.80107e-15
1.9323e-15
2.06001e-15
2.18247e-15
2.29816e-15
2.40582e-15
2.50441e-15
2.59317e-15
2.67157e-15
2.73934e-15
2.79639e-15
2.84286e-15
2.87901e-15
2.90526e-15
2.92214e-15
2.93025e-15
2.06813e-15
2.18848e-15
2.36123e-15
2.58048e-15
2.84113e-15
3.13815e-15
3.46635e-15
3.82014e-15
4.19365e-15
4.5807e-15
4.97503e-15
5.37039e-15
5.76075e-15
6.14049e-15
6.50448e-15
6.84823e-15
7.16798e-15
7.46069e-15
7.72411e-15
7.95673e-15
8.15771e-15
8.32687e-15
8.46458e-15
8.5717e-15
8.64948e-15
8.69948e-15
8.7235e-15
6.16526e-15
6.52374e-15
7.03805e-15
7.69054e-15
8.46583e-15
9.34886e-15
1.0324e-14
1.13745e-14
1.24828e-14
1.36305e-14
1.4799e-14
1.59698e-14
1.71251e-14
1.82482e-14
1.9324e-14
2.03395e-14
2.12835e-14
2.21473e-14
2.29243e-14
2.36102e-14
2.42025e-14
2.47009e-14
2.51065e-14
2.54219e-14
2.56508e-14
2.5798e-14
2.58686e-14
1.83201e-14
1.93827e-14
2.09068e-14
2.28394e-14
2.51344e-14
2.77465e-14
3.06288e-14
3.37315e-14
3.70021e-14
4.03861e-14
4.38282e-14
4.72738e-14
5.06707e-14
5.39699e-14
5.71276e-14
6.01054e-14
6.28715e-14
6.54004e-14
6.76734e-14
6.96783e-14
7.14087e-14
7.28637e-14
7.40472e-14
7.4967e-14
7.56344e-14
7.60632e-14
7.6269e-14
5.42156e-14
5.73478e-14
6.18372e-14
6.75254e-14
7.42736e-14
8.1946e-14
9.04018e-14
9.94927e-14
1.09063e-13
1.18951e-13
1.28995e-13
1.39036e-13
1.48921e-13
1.58508e-13
1.67673e-13
1.76305e-13
1.84314e-13
1.91628e-13
1.98195e-13
2.03982e-13
2.08972e-13
2.13165e-13
2.16572e-13
2.19219e-13
2.21139e-13
2.22371e-13
2.22962e-13
1.59381e-13
1.68525e-13
1.81619e-13
1.98193e-13
2.1783e-13
2.40123e-13
2.64655e-13
2.90984e-13
3.18652e-13
3.47189e-13
3.76123e-13
4.04993e-13
4.33364e-13
4.60835e-13
4.87047e-13
5.11695e-13
5.34526e-13
5.55345e-13
5.74012e-13
5.90439e-13
6.04586e-13
6.16458e-13
6.26098e-13
6.33577e-13
6.38996e-13
6.42472e-13
6.44139e-13
4.64305e-13
4.90649e-13
5.28334e-13
5.75958e-13
6.32285e-13
6.96105e-13
7.66179e-13
8.41215e-13
9.1988e-13
1.00082e-12
1.08268e-12
1.16416e-12
1.24404e-12
1.32121e-12
1.39467e-12
1.46361e-12
1.52733e-12
1.58532e-12
1.63722e-12
1.68282e-12
1.72202e-12
1.75488e-12
1.78152e-12
1.80216e-12
1.81711e-12
1.82668e-12
1.83127e-12
1.3352e-12
1.40969e-12
1.51609e-12
1.65029e-12
1.80866e-12
1.98765e-12
2.18363e-12
2.39288e-12
2.6116e-12
2.83594e-12
3.06216e-12
3.28667e-12
3.50611e-12
3.71749e-12
3.91819e-12
4.106e-12
4.27919e-12
4.43644e-12
4.57687e-12
4.69998e-12
4.80565e-12
4.89405e-12
4.96561e-12
5.02099e-12
5.06102e-12
5.08664e-12
5.09891e-12
3.77131e-12
3.97652e-12
4.26909e-12
4.63726e-12
5.07054e-12
5.55871e-12
6.0915e-12
6.65844e-12
7.24895e-12
7.85257e-12
8.45913e-12
9.05906e-12
9.64356e-12
1.02048e-11
1.07361e-11
1.12319e-11
1.16879e-11
1.21009e-11
1.24688e-11
1.27907e-11
1.30665e-11
1.32967e-11
1.34828e-11
1.36266e-11
1.37304e-11
1.37967e-11
1.38285e-11
1.0392e-11
1.09368e-11
1.1712e-11
1.26848e-11
1.38262e-11
1.51079e-11
1.65017e-11
1.79795e-11
1.95132e-11
2.10754e-11
2.26399e-11
2.41821e-11
2.56801e-11
2.71143e-11
2.84682e-11
2.97285e-11
3.08848e-11
3.19299e-11
3.28592e-11
3.36708e-11
3.43648e-11
3.49435e-11
3.54105e-11
3.5771e-11
3.60309e-11
3.61969e-11
3.62762e-11
2.77226e-11
2.90944e-11
3.10414e-11
3.34772e-11
3.63245e-11
3.95094e-11
4.29593e-11
4.66027e-11
5.03695e-11
5.41926e-11
5.80084e-11
6.17587e-11
6.53913e-11
6.88608e-11
7.21292e-11
7.5166e-11
7.7948e-11
8.04591e-11
8.26896e-11
8.46358e-11
8.62991e-11
8.76853e-11
8.88037e-11
8.96667e-11
9.02889e-11
9.06862e-11
9.08761e-11
7.11076e-11
7.43041e-11
7.8822e-11
8.44444e-11
9.09768e-11
9.8235e-11
1.06042e-10
1.14228e-10
1.2263e-10
1.31095e-10
1.39485e-10
1.47675e-10
1.55554e-10
1.63031e-10
1.70032e-10
1.76499e-10
1.82392e-10
1.87683e-10
1.92363e-10
1.96429e-10
1.99891e-10
2.02768e-10
2.05083e-10
2.06866e-10
2.0815e-10
2.08969e-10
2.0936e-10
1.74707e-10
1.81344e-10
1.90634e-10
2.02041e-10
2.15078e-10
2.29281e-10
2.44214e-10
2.59467e-10
2.74665e-10
2.89474e-10
3.03607e-10
3.1683e-10
3.28963e-10
3.39884e-10
3.49523e-10
3.57861e-10
3.64922e-10
3.7077e-10
3.75496e-10
3.79211e-10
3.82039e-10
3.84112e-10
3.8556e-10
3.86509e-10
3.87075e-10
3.87365e-10
3.87471e-10
4.05544e-10
4.16756e-10
4.32004e-10
4.49967e-10
4.69374e-10
4.89008e-10
5.07735e-10
5.24543e-10
5.38584e-10
5.4921e-10
5.55999e-10
5.58774e-10
5.57603e-10
5.52775e-10
5.44763e-10
5.34172e-10
5.21677e-10
5.07977e-10
4.93744e-10
4.79594e-10
4.66069e-10
4.5363e-10
4.4266e-10
4.3347e-10
4.26314e-10
4.21392e-10
4.18868e-10
8.06288e-10
8.14041e-10
8.22675e-10
8.29679e-10
8.3278e-10
8.30212e-10
8.20931e-10
8.04732e-10
7.82225e-10
7.54666e-10
7.2369e-10
6.9101e-10
6.58162e-10
6.26359e-10
5.96436e-10
5.68887e-10
5.43942e-10
5.21653e-10
5.01968e-10
4.84783e-10
4.69986e-10
4.57471e-10
4.47151e-10
4.3896e-10
4.32852e-10
4.28797e-10
4.26776e-10
1.00974e-09
9.9412e-10
9.71402e-10
9.42595e-10
9.09078e-10
8.72511e-10
8.34562e-10
7.96626e-10
7.59662e-10
7.2419e-10
6.90382e-10
6.58216e-10
6.27601e-10
5.98469e-10
5.70814e-10
5.44703e-10
5.20254e-10
4.97612e-10
4.76926e-10
4.58328e-10
4.41929e-10
4.2781e-10
4.16025e-10
4.06606e-10
3.99564e-10
3.94894e-10
3.92574e-10
9.57884e-10
9.42981e-10
9.21759e-10
8.95086e-10
8.63724e-10
8.28429e-10
7.90021e-10
7.49422e-10
7.07638e-10
6.65687e-10
6.24518e-10
5.84921e-10
5.47498e-10
5.12654e-10
4.80624e-10
4.51515e-10
4.25338e-10
4.02045e-10
3.81551e-10
3.63752e-10
3.48534e-10
3.35785e-10
3.25396e-10
3.17265e-10
3.11298e-10
3.07403e-10
3.05497e-10
8.58078e-10
8.3824e-10
8.10694e-10
7.77313e-10
7.39876e-10
7.00037e-10
6.59258e-10
6.18752e-10
5.79458e-10
5.42061e-10
5.0699e-10
4.74487e-10
4.44662e-10
4.17524e-10
3.93017e-10
3.71045e-10
3.5149e-10
3.34228e-10
3.19133e-10
3.06085e-10
2.94975e-10
2.85698e-10
2.78162e-10
2.72281e-10
2.67977e-10
2.65176e-10
2.63809e-10
6.75731e-10
6.61768e-10
6.42669e-10
6.19901e-10
5.94754e-10
5.68331e-10
5.41536e-10
5.15073e-10
4.8946e-10
4.65058e-10
4.42101e-10
4.20719e-10
4.00975e-10
3.82879e-10
3.66408e-10
3.51519e-10
3.38159e-10
3.2627e-10
3.15793e-10
3.06672e-10
2.98852e-10
2.92283e-10
2.86917e-10
2.82709e-10
2.79616e-10
2.77595e-10
2.76606e-10
5.57375e-10
5.50918e-10
5.42031e-10
5.31349e-10
5.19436e-10
5.06782e-10
4.93801e-10
4.80825e-10
4.68112e-10
4.55854e-10
4.44185e-10
4.33194e-10
4.22934e-10
4.13433e-10
4.04699e-10
3.96728e-10
3.8951e-10
3.83029e-10
3.77268e-10
3.72208e-10
3.67832e-10
3.64124e-10
3.6107e-10
3.58653e-10
3.56861e-10
3.5568e-10
3.55097e-10
5.07724e-10
5.07322e-10
5.06751e-10
5.06051e-10
5.05275e-10
5.0448e-10
5.03727e-10
5.03069e-10
5.02548e-10
5.0219e-10
5.02008e-10
5.01999e-10
5.02149e-10
5.02433e-10
5.02822e-10
5.03283e-10
5.03785e-10
5.04296e-10
5.04791e-10
5.05251e-10
5.0566e-10
5.06012e-10
5.06295e-10
5.06505e-10
5.06644e-10
5.06723e-10
5.06754e-10
5.07399e-10
5.11712e-10
5.17717e-10
5.25068e-10
5.3348e-10
5.42718e-10
5.52583e-10
5.62906e-10
5.73537e-10
5.8434e-10
5.95189e-10
6.05967e-10
6.16564e-10
6.26878e-10
6.36786e-10
6.46166e-10
6.54918e-10
6.62958e-10
6.70223e-10
6.76666e-10
6.82258e-10
6.86986e-10
6.90852e-10
6.93871e-10
6.96071e-10
6.9749e-10
6.98173e-10
5.4408e-10
5.51576e-10
5.62044e-10
5.74894e-10
5.89632e-10
6.05835e-10
6.23147e-10
6.41231e-10
6.59745e-10
6.78394e-10
6.96918e-10
7.15084e-10
7.32686e-10
7.49542e-10
7.65494e-10
7.80408e-10
7.94175e-10
8.06709e-10
8.17951e-10
8.27861e-10
8.36422e-10
8.43637e-10
8.49525e-10
8.54121e-10
8.57476e-10
8.59641e-10
8.60686e-10
6.06435e-10
6.1529e-10
6.27625e-10
6.42707e-10
6.599e-10
6.78647e-10
6.98455e-10
7.18894e-10
7.39584e-10
7.60196e-10
7.80446e-10
8.0009e-10
8.1892e-10
8.36766e-10
8.53488e-10
8.68977e-10
8.8315e-10
8.95952e-10
9.07351e-10
9.17333e-10
9.25908e-10
9.33098e-10
9.38942e-10
9.43489e-10
9.46791e-10
9.48917e-10
9.4994e-10
6.74815e-10
6.82979e-10
6.94302e-10
7.08068e-10
7.23648e-10
7.40496e-10
7.58134e-10
7.76153e-10
7.94206e-10
8.12003e-10
8.29302e-10
8.45906e-10
8.6166e-10
8.76442e-10
8.9016e-10
9.02751e-10
9.14175e-10
9.24411e-10
9.33457e-10
9.41325e-10
9.48041e-10
9.53641e-10
9.58169e-10
9.61676e-10
9.64219e-10
9.6585e-10
9.66632e-10
7.27676e-10
7.33935e-10
7.42576e-10
7.53018e-10
7.6475e-10
7.7733e-10
7.90382e-10
8.03588e-10
8.16687e-10
8.2947e-10
8.41768e-10
8.53454e-10
8.64432e-10
8.74635e-10
8.84017e-10
8.92553e-10
9.00234e-10
9.07063e-10
9.13054e-10
9.18229e-10
9.22618e-10
9.26256e-10
9.2918e-10
9.31432e-10
9.33056e-10
9.34096e-10
9.34597e-10
7.54232e-10
7.58292e-10
7.63871e-10
7.70568e-10
7.78036e-10
7.85975e-10
7.94135e-10
8.02309e-10
8.10335e-10
8.18085e-10
8.25463e-10
8.32402e-10
8.38856e-10
8.44795e-10
8.50205e-10
8.55084e-10
8.59437e-10
8.63276e-10
8.66619e-10
8.69487e-10
8.71904e-10
8.73894e-10
8.75486e-10
8.76704e-10
8.77578e-10
8.78134e-10
8.78399e-10
7.54673e-10
7.56835e-10
7.59787e-10
7.63301e-10
7.67179e-10
7.71256e-10
7.75393e-10
7.79482e-10
7.83442e-10
7.8721e-10
7.90747e-10
7.94025e-10
7.97031e-10
7.9976e-10
8.02212e-10
8.04396e-10
8.06321e-10
8.08e-10
8.09447e-10
8.10676e-10
8.11703e-10
8.12541e-10
8.13207e-10
8.13713e-10
8.14074e-10
8.14303e-10
8.14411e-10
7.35252e-10
7.36028e-10
7.37072e-10
7.38287e-10
7.39592e-10
7.40921e-10
7.42222e-10
7.43458e-10
7.44602e-10
7.45641e-10
7.46568e-10
7.47382e-10
7.48088e-10
7.48692e-10
7.49204e-10
7.49633e-10
7.49988e-10
7.5028e-10
7.50517e-10
7.50706e-10
7.50855e-10
7.50971e-10
7.51058e-10
7.5112e-10
7.51163e-10
7.51189e-10
7.51201e-10
7.03452e-10
7.0333e-10
7.0314e-10
7.02875e-10
7.02534e-10
7.02116e-10
7.01626e-10
7.01071e-10
7.00463e-10
6.99814e-10
6.99138e-10
6.98451e-10
6.97764e-10
6.97091e-10
6.96443e-10
6.95829e-10
6.95257e-10
6.94733e-10
6.94261e-10
6.93845e-10
6.93485e-10
6.93182e-10
6.92935e-10
6.92743e-10
6.92603e-10
6.92513e-10
6.9247e-10
6.65463e-10
6.64813e-10
6.639e-10
6.62773e-10
6.61476e-10
6.6005e-10
6.58532e-10
6.56957e-10
6.55356e-10
6.53757e-10
6.52186e-10
6.50663e-10
6.49207e-10
6.47832e-10
6.4655e-10
6.45369e-10
6.44295e-10
6.43332e-10
6.4248e-10
6.41739e-10
6.41108e-10
6.40582e-10
6.40158e-10
6.39831e-10
6.39594e-10
6.39443e-10
6.3937e-10
6.25533e-10
6.24606e-10
6.23315e-10
6.21739e-10
6.19948e-10
6.18003e-10
6.1596e-10
6.13867e-10
6.11766e-10
6.09693e-10
6.07677e-10
6.05744e-10
6.03912e-10
6.02196e-10
6.00609e-10
5.99156e-10
5.97843e-10
5.9667e-10
5.95639e-10
5.94745e-10
5.93986e-10
5.93357e-10
5.9285e-10
5.92459e-10
5.92178e-10
5.91998e-10
5.91912e-10
5.8623e-10
5.85182e-10
5.83728e-10
5.8196e-10
5.79959e-10
5.77797e-10
5.75538e-10
5.73234e-10
5.70933e-10
5.68673e-10
5.66485e-10
5.64394e-10
5.62421e-10
5.6058e-10
5.5888e-10
5.5733e-10
5.55932e-10
5.54686e-10
5.53592e-10
5.52647e-10
5.51844e-10
5.51179e-10
5.50644e-10
5.50233e-10
5.49937e-10
5.49747e-10
5.49657e-10
5.48928e-10
5.47852e-10
5.4636e-10
5.4455e-10
5.42507e-10
5.40304e-10
5.38006e-10
5.35669e-10
5.3334e-10
5.31058e-10
5.28853e-10
5.2675e-10
5.24769e-10
5.22923e-10
5.21223e-10
5.19673e-10
5.18276e-10
5.17034e-10
5.15944e-10
5.15001e-10
5.14203e-10
5.13541e-10
5.13009e-10
5.126e-10
5.12305e-10
5.12117e-10
5.12027e-10
5.14247e-10
5.13193e-10
5.11734e-10
5.09966e-10
5.0797e-10
5.05822e-10
5.03584e-10
5.01312e-10
4.99049e-10
4.96833e-10
4.94695e-10
4.92659e-10
4.90741e-10
4.88956e-10
4.87312e-10
4.85815e-10
4.84467e-10
4.83268e-10
4.82216e-10
4.81308e-10
4.80537e-10
4.79899e-10
4.79386e-10
4.78991e-10
4.78707e-10
4.78526e-10
4.78439e-10
4.82366e-10
4.81361e-10
4.7997e-10
4.78285e-10
4.76385e-10
4.7434e-10
4.72212e-10
4.70051e-10
4.67901e-10
4.65797e-10
4.63768e-10
4.61836e-10
4.60017e-10
4.58324e-10
4.56766e-10
4.55347e-10
4.5407e-10
4.52933e-10
4.51937e-10
4.51076e-10
4.50345e-10
4.49741e-10
4.49255e-10
4.48881e-10
4.48611e-10
4.48439e-10
4.48357e-10
4.53225e-10
4.52281e-10
4.50974e-10
4.49391e-10
4.47606e-10
4.45686e-10
4.43688e-10
4.4166e-10
4.39643e-10
4.37669e-10
4.35765e-10
4.33953e-10
4.32247e-10
4.30659e-10
4.29198e-10
4.27867e-10
4.26669e-10
4.25603e-10
4.24668e-10
4.2386e-10
4.23175e-10
4.22607e-10
4.22151e-10
4.218e-10
4.21547e-10
4.21385e-10
4.21308e-10
4.2665e-10
4.2577e-10
4.24551e-10
4.23075e-10
4.21411e-10
4.19622e-10
4.17759e-10
4.15868e-10
4.13988e-10
4.12148e-10
4.10373e-10
4.08684e-10
4.07093e-10
4.05613e-10
4.0425e-10
4.03009e-10
4.01891e-10
4.00897e-10
4.00024e-10
3.9927e-10
3.9863e-10
3.981e-10
3.97674e-10
3.97346e-10
3.97109e-10
3.96958e-10
3.96886e-10
4.02417e-10
4.016e-10
4.00468e-10
3.99097e-10
3.97551e-10
3.95889e-10
3.94159e-10
3.92402e-10
3.90655e-10
3.88945e-10
3.87295e-10
3.85725e-10
3.84246e-10
3.8287e-10
3.81602e-10
3.80447e-10
3.79407e-10
3.78482e-10
3.77669e-10
3.76967e-10
3.76371e-10
3.75877e-10
3.7548e-10
3.75174e-10
3.74953e-10
3.74812e-10
3.74745e-10
3.80294e-10
3.79536e-10
3.78486e-10
3.77215e-10
3.75781e-10
3.74239e-10
3.72633e-10
3.71003e-10
3.69381e-10
3.67794e-10
3.66262e-10
3.64804e-10
3.6343e-10
3.62151e-10
3.60973e-10
3.59899e-10
3.58932e-10
3.58071e-10
3.57315e-10
3.56661e-10
3.56106e-10
3.55646e-10
3.55276e-10
3.54991e-10
3.54786e-10
3.54654e-10
3.54591e-10
3.60057e-10
3.59354e-10
3.58381e-10
3.57202e-10
3.55872e-10
3.54441e-10
3.52951e-10
3.51438e-10
3.49932e-10
3.48458e-10
3.47036e-10
3.4568e-10
3.44404e-10
3.43215e-10
3.42119e-10
3.41121e-10
3.40221e-10
3.39419e-10
3.38716e-10
3.38107e-10
3.3759e-10
3.37162e-10
3.36817e-10
3.36551e-10
3.36359e-10
3.36237e-10
3.36178e-10
3.41503e-10
3.4085e-10
3.39947e-10
3.38852e-10
3.37618e-10
3.36289e-10
3.34905e-10
3.33499e-10
3.321e-10
3.30729e-10
3.29407e-10
3.28146e-10
3.26958e-10
3.25852e-10
3.24832e-10
3.23902e-10
3.23064e-10
3.22317e-10
3.21662e-10
3.21094e-10
3.20612e-10
3.20212e-10
3.19891e-10
3.19643e-10
3.19464e-10
3.19349e-10
3.19294e-10
3.24447e-10
3.23841e-10
3.23001e-10
3.21983e-10
3.20835e-10
3.19599e-10
3.18312e-10
3.17004e-10
3.15702e-10
3.14426e-10
3.13194e-10
3.1202e-10
3.10913e-10
3.09882e-10
3.08931e-10
3.08064e-10
3.07282e-10
3.06586e-10
3.05974e-10
3.05444e-10
3.04994e-10
3.0462e-10
3.0432e-10
3.04088e-10
3.03921e-10
3.03814e-10
3.03762e-10
3.08728e-10
3.08163e-10
3.07382e-10
3.06434e-10
3.05364e-10
3.04213e-10
3.03013e-10
3.01794e-10
3.0058e-10
2.9939e-10
2.98241e-10
2.97146e-10
2.96113e-10
2.9515e-10
2.94262e-10
2.93452e-10
2.92722e-10
2.92071e-10
2.91498e-10
2.91003e-10
2.90582e-10
2.90232e-10
2.89951e-10
2.89734e-10
2.89577e-10
2.89477e-10
2.89429e-10
2.94203e-10
2.93676e-10
2.92947e-10
2.92062e-10
2.91064e-10
2.8999e-10
2.8887e-10
2.87731e-10
2.86597e-10
2.85486e-10
2.84412e-10
2.83388e-10
2.82422e-10
2.81522e-10
2.80691e-10
2.79933e-10
2.79249e-10
2.78639e-10
2.78103e-10
2.77639e-10
2.77244e-10
2.76917e-10
2.76653e-10
2.76449e-10
2.76302e-10
2.76208e-10
2.76163e-10
2.80746e-10
2.80254e-10
2.79572e-10
2.78745e-10
2.77812e-10
2.76807e-10
2.7576e-10
2.74695e-10
2.73633e-10
2.72593e-10
2.71588e-10
2.70629e-10
2.69724e-10
2.6888e-10
2.68101e-10
2.67391e-10
2.66749e-10
2.66177e-10
2.65674e-10
2.65239e-10
2.64868e-10
2.64561e-10
2.64313e-10
2.64121e-10
2.63983e-10
2.63895e-10
2.63852e-10
2.68248e-10
2.67788e-10
2.67149e-10
2.66375e-10
2.65501e-10
2.64559e-10
2.63578e-10
2.62579e-10
2.61584e-10
2.60609e-10
2.59665e-10
2.58765e-10
2.57916e-10
2.57124e-10
2.56393e-10
2.55725e-10
2.55123e-10
2.54585e-10
2.54112e-10
2.53703e-10
2.53354e-10
2.53065e-10
2.52832e-10
2.52652e-10
2.52522e-10
2.52438e-10
2.52398e-10
2.56614e-10
2.56181e-10
2.55583e-10
2.54856e-10
2.54036e-10
2.53152e-10
2.5223e-10
2.51293e-10
2.50358e-10
2.49441e-10
2.48555e-10
2.47709e-10
2.4691e-10
2.46165e-10
2.45477e-10
2.44849e-10
2.44282e-10
2.43776e-10
2.43331e-10
2.42945e-10
2.42616e-10
2.42344e-10
2.42124e-10
2.41954e-10
2.41832e-10
2.41753e-10
2.41715e-10
2.45758e-10
2.45351e-10
2.44788e-10
2.44105e-10
2.43334e-10
2.42503e-10
2.41636e-10
2.40753e-10
2.39874e-10
2.39011e-10
2.38176e-10
2.3738e-10
2.36627e-10
2.35925e-10
2.35277e-10
2.34685e-10
2.3415e-10
2.33673e-10
2.33253e-10
2.32889e-10
2.32579e-10
2.32321e-10
2.32114e-10
2.31953e-10
2.31838e-10
2.31763e-10
2.31728e-10
2.35605e-10
2.35222e-10
2.34692e-10
2.34048e-10
2.33322e-10
2.32539e-10
2.31721e-10
2.3089e-10
2.30061e-10
2.29247e-10
2.2846e-10
2.27708e-10
2.26998e-10
2.26336e-10
2.25724e-10
2.25164e-10
2.24659e-10
2.24208e-10
2.23811e-10
2.23467e-10
2.23174e-10
2.22931e-10
2.22734e-10
2.22583e-10
2.22473e-10
2.22403e-10
2.22369e-10
2.26088e-10
2.25727e-10
2.25227e-10
2.2462e-10
2.23934e-10
2.23195e-10
2.22423e-10
2.21638e-10
2.20855e-10
2.20086e-10
2.19343e-10
2.18632e-10
2.17961e-10
2.17334e-10
2.16756e-10
2.16226e-10
2.15748e-10
2.15322e-10
2.14946e-10
2.1462e-10
2.14342e-10
2.14112e-10
2.13926e-10
2.13782e-10
2.13678e-10
2.13612e-10
2.1358e-10
2.17148e-10
2.16807e-10
2.16334e-10
2.15761e-10
2.15112e-10
2.14413e-10
2.13684e-10
2.12941e-10
2.122e-10
2.11472e-10
2.10768e-10
2.10096e-10
2.0946e-10
2.08867e-10
2.08318e-10
2.07817e-10
2.07363e-10
2.06959e-10
2.06602e-10
2.06293e-10
2.0603e-10
2.05811e-10
2.05635e-10
2.05498e-10
2.05399e-10
2.05336e-10
2.05306e-10
2.08732e-10
2.08409e-10
2.07961e-10
2.07418e-10
2.06804e-10
2.06141e-10
2.0545e-10
2.04746e-10
2.04044e-10
2.03354e-10
2.02686e-10
2.02048e-10
2.01445e-10
2.00882e-10
2.00361e-10
1.99885e-10
1.99455e-10
1.9907e-10
1.98732e-10
1.98438e-10
1.98188e-10
1.9798e-10
1.97812e-10
1.97682e-10
1.97588e-10
1.97528e-10
1.97499e-10
2.00789e-10
2.00483e-10
2.00058e-10
1.99542e-10
1.9896e-10
1.98331e-10
1.97675e-10
1.97007e-10
1.96339e-10
1.95684e-10
1.9505e-10
1.94443e-10
1.9387e-10
1.93335e-10
1.9284e-10
1.92387e-10
1.91977e-10
1.91612e-10
1.91289e-10
1.9101e-10
1.90771e-10
1.90573e-10
1.90413e-10
1.90289e-10
1.902e-10
1.90143e-10
1.90115e-10
1.93276e-10
1.92985e-10
1.92581e-10
1.92091e-10
1.91537e-10
1.90939e-10
1.90315e-10
1.89679e-10
1.89044e-10
1.8842e-10
1.87816e-10
1.87239e-10
1.86693e-10
1.86183e-10
1.85711e-10
1.85279e-10
1.84889e-10
1.8454e-10
1.84233e-10
1.83966e-10
1.83739e-10
1.8355e-10
1.83397e-10
1.83279e-10
1.83193e-10
1.83139e-10
1.83112e-10
1.8615e-10
1.85873e-10
1.85488e-10
1.85021e-10
1.84493e-10
1.83924e-10
1.83329e-10
1.82722e-10
1.82117e-10
1.81522e-10
1.80946e-10
1.80395e-10
1.79874e-10
1.79387e-10
1.78936e-10
1.78524e-10
1.78151e-10
1.77817e-10
1.77524e-10
1.77268e-10
1.77051e-10
1.7687e-10
1.76724e-10
1.76611e-10
1.76529e-10
1.76477e-10
1.76452e-10
1.79373e-10
1.79108e-10
1.78741e-10
1.78295e-10
1.77791e-10
1.77247e-10
1.76678e-10
1.76099e-10
1.7552e-10
1.74951e-10
1.744e-10
1.73873e-10
1.73375e-10
1.72908e-10
1.72477e-10
1.72082e-10
1.71725e-10
1.71406e-10
1.71124e-10
1.7088e-10
1.70671e-10
1.70498e-10
1.70358e-10
1.70249e-10
1.70171e-10
1.70121e-10
1.70096e-10
1.72907e-10
1.72653e-10
1.72302e-10
1.71875e-10
1.71392e-10
1.70871e-10
1.70326e-10
1.69771e-10
1.69217e-10
1.68671e-10
1.68143e-10
1.67637e-10
1.67159e-10
1.66712e-10
1.66298e-10
1.65919e-10
1.65576e-10
1.65269e-10
1.64999e-10
1.64764e-10
1.64563e-10
1.64397e-10
1.64262e-10
1.64158e-10
1.64082e-10
1.64034e-10
1.6401e-10
1.66715e-10
1.66472e-10
1.66134e-10
1.65724e-10
1.65261e-10
1.6476e-10
1.64237e-10
1.63704e-10
1.63171e-10
1.62647e-10
1.62139e-10
1.61652e-10
1.61192e-10
1.60762e-10
1.60363e-10
1.59998e-10
1.59668e-10
1.59372e-10
1.59111e-10
1.58885e-10
1.58692e-10
1.58531e-10
1.58401e-10
1.583e-10
1.58228e-10
1.58181e-10
1.58158e-10
1.60762e-10
1.60528e-10
1.60203e-10
1.59808e-10
1.59362e-10
1.5888e-10
1.58375e-10
1.57861e-10
1.57347e-10
1.56842e-10
1.56351e-10
1.55882e-10
1.55438e-10
1.55022e-10
1.54637e-10
1.54284e-10
1.53965e-10
1.53679e-10
1.53427e-10
1.53208e-10
1.53021e-10
1.52865e-10
1.5274e-10
1.52642e-10
1.52572e-10
1.52526e-10
1.52505e-10
1.55013e-10
1.54787e-10
1.54473e-10
1.54091e-10
1.53659e-10
1.53193e-10
1.52705e-10
1.52208e-10
1.5171e-10
1.5122e-10
1.50745e-10
1.50291e-10
1.4986e-10
1.49457e-10
1.49083e-10
1.48741e-10
1.48431e-10
1.48154e-10
1.47909e-10
1.47696e-10
1.47515e-10
1.47364e-10
1.47241e-10
1.47147e-10
1.47078e-10
1.47034e-10
1.47013e-10
1.49431e-10
1.49211e-10
1.48906e-10
1.48536e-10
1.48117e-10
1.47663e-10
1.4719e-10
1.46706e-10
1.46222e-10
1.45746e-10
1.45284e-10
1.44841e-10
1.44422e-10
1.44029e-10
1.43665e-10
1.43332e-10
1.4303e-10
1.42759e-10
1.4252e-10
1.42313e-10
1.42135e-10
1.41988e-10
1.41868e-10
1.41776e-10
1.41709e-10
1.41666e-10
1.41645e-10
1.43978e-10
1.43764e-10
1.43466e-10
1.43105e-10
1.42696e-10
1.42253e-10
1.4179e-10
1.41318e-10
1.40845e-10
1.4038e-10
1.39928e-10
1.39495e-10
1.39085e-10
1.387e-10
1.38344e-10
1.38017e-10
1.37721e-10
1.37456e-10
1.37221e-10
1.37017e-10
1.36844e-10
1.36699e-10
1.36581e-10
1.3649e-10
1.36425e-10
1.36382e-10
1.36362e-10
1.38614e-10
1.38404e-10
1.38113e-10
1.37758e-10
1.37356e-10
1.36922e-10
1.36468e-10
1.36004e-10
1.35539e-10
1.35081e-10
1.34637e-10
1.3421e-10
1.33807e-10
1.33428e-10
1.33077e-10
1.32755e-10
1.32463e-10
1.32201e-10
1.3197e-10
1.31769e-10
1.31597e-10
1.31454e-10
1.31338e-10
1.31248e-10
1.31183e-10
1.31141e-10
1.31121e-10
1.33298e-10
1.33091e-10
1.32803e-10
1.32453e-10
1.32056e-10
1.31627e-10
1.31178e-10
1.30719e-10
1.30259e-10
1.29806e-10
1.29366e-10
1.28944e-10
1.28544e-10
1.28169e-10
1.2782e-10
1.27501e-10
1.27211e-10
1.26951e-10
1.26721e-10
1.26521e-10
1.26351e-10
1.26208e-10
1.26093e-10
1.26004e-10
1.25939e-10
1.25897e-10
1.25877e-10
1.27984e-10
1.27778e-10
1.27492e-10
1.27144e-10
1.2675e-10
1.26323e-10
1.25876e-10
1.25419e-10
1.24961e-10
1.24509e-10
1.2407e-10
1.23649e-10
1.23249e-10
1.22874e-10
1.22526e-10
1.22207e-10
1.21917e-10
1.21657e-10
1.21427e-10
1.21227e-10
1.21056e-10
1.20913e-10
1.20798e-10
1.20708e-10
1.20643e-10
1.20602e-10
1.20582e-10
1.22624e-10
1.22418e-10
1.22132e-10
1.21783e-10
1.21388e-10
1.2096e-10
1.20511e-10
1.20052e-10
1.19593e-10
1.19139e-10
1.18698e-10
1.18274e-10
1.17872e-10
1.17495e-10
1.17145e-10
1.16823e-10
1.1653e-10
1.16268e-10
1.16036e-10
1.15835e-10
1.15662e-10
1.15518e-10
1.15401e-10
1.15311e-10
1.15245e-10
1.15203e-10
1.15183e-10
1.17167e-10
1.16959e-10
1.1667e-10
1.16318e-10
1.15918e-10
1.15486e-10
1.15032e-10
1.14568e-10
1.14103e-10
1.13643e-10
1.13196e-10
1.12767e-10
1.12359e-10
1.11976e-10
1.1162e-10
1.11294e-10
1.10997e-10
1.1073e-10
1.10494e-10
1.10289e-10
1.10113e-10
1.09967e-10
1.09848e-10
1.09756e-10
1.09689e-10
1.09646e-10
1.09625e-10
1.11559e-10
1.11347e-10
1.11052e-10
1.10694e-10
1.10287e-10
1.09846e-10
1.09384e-10
1.0891e-10
1.08435e-10
1.07966e-10
1.0751e-10
1.07071e-10
1.06654e-10
1.06262e-10
1.05898e-10
1.05564e-10
1.0526e-10
1.04987e-10
1.04745e-10
1.04535e-10
1.04355e-10
1.04204e-10
1.04082e-10
1.03988e-10
1.03919e-10
1.03875e-10
1.03854e-10
1.05743e-10
1.05526e-10
1.05224e-10
1.04856e-10
1.04438e-10
1.03985e-10
1.0351e-10
1.03024e-10
1.02535e-10
1.02053e-10
1.01583e-10
1.01131e-10
1.00702e-10
1.00298e-10
9.9923e-11
9.95779e-11
9.92643e-11
9.89827e-11
9.87334e-11
9.85161e-11
9.83302e-11
9.81749e-11
9.8049e-11
9.79514e-11
9.78805e-11
9.78349e-11
9.78129e-11
9.96664e-11
9.94419e-11
9.91299e-11
9.87495e-11
9.83178e-11
9.78498e-11
9.73584e-11
9.68551e-11
9.63495e-11
9.585e-11
9.53634e-11
9.48953e-11
9.44503e-11
9.40319e-11
9.36428e-11
9.3285e-11
9.29596e-11
9.26675e-11
9.24088e-11
9.21833e-11
9.19903e-11
9.18291e-11
9.16984e-11
9.15971e-11
9.15235e-11
9.14762e-11
9.14534e-11
9.328e-11
9.30469e-11
9.27228e-11
9.23277e-11
9.18791e-11
9.13927e-11
9.08819e-11
9.03587e-11
8.9833e-11
8.93135e-11
8.88073e-11
8.83203e-11
8.78572e-11
8.74218e-11
8.70168e-11
8.66443e-11
8.63056e-11
8.60015e-11
8.57322e-11
8.54974e-11
8.52966e-11
8.51287e-11
8.49928e-11
8.48873e-11
8.48107e-11
8.47614e-11
8.47377e-11
8.6547e-11
8.63042e-11
8.59666e-11
8.5555e-11
8.50878e-11
8.45811e-11
8.4049e-11
8.35039e-11
8.29562e-11
8.2415e-11
8.18876e-11
8.13803e-11
8.08979e-11
8.04443e-11
8.00225e-11
7.96345e-11
7.92819e-11
7.89653e-11
7.86849e-11
7.84405e-11
7.82315e-11
7.80569e-11
7.79155e-11
7.78058e-11
7.77262e-11
7.7675e-11
7.76503e-11
7.94514e-11
7.91986e-11
7.88472e-11
7.84189e-11
7.79327e-11
7.74055e-11
7.6852e-11
7.6285e-11
7.57155e-11
7.51528e-11
7.46047e-11
7.40776e-11
7.35765e-11
7.31055e-11
7.26676e-11
7.22651e-11
7.18993e-11
7.1571e-11
7.12803e-11
7.10272e-11
7.08107e-11
7.063e-11
7.04836e-11
7.03702e-11
7.02879e-11
7.0235e-11
7.02095e-11
7.20097e-11
7.17479e-11
7.1384e-11
7.09406e-11
7.04375e-11
6.98922e-11
6.93199e-11
6.87339e-11
6.81457e-11
6.75648e-11
6.69993e-11
6.64558e-11
6.59394e-11
6.54543e-11
6.50037e-11
6.45897e-11
6.42137e-11
6.38765e-11
6.35782e-11
6.33185e-11
6.30966e-11
6.29115e-11
6.27617e-11
6.26457e-11
6.25616e-11
6.25076e-11
6.24816e-11
6.42837e-11
6.40154e-11
6.36426e-11
6.31886e-11
6.26738e-11
6.21162e-11
6.15315e-11
6.09333e-11
6.03334e-11
5.97415e-11
5.91658e-11
5.8613e-11
5.80884e-11
5.75961e-11
5.71392e-11
5.67199e-11
5.63395e-11
5.59987e-11
5.56975e-11
5.54356e-11
5.52121e-11
5.50258e-11
5.48752e-11
5.47587e-11
5.46743e-11
5.46202e-11
5.45942e-11
5.63923e-11
5.6122e-11
5.57467e-11
5.529e-11
5.47727e-11
5.42129e-11
5.36266e-11
5.30277e-11
5.24278e-11
5.18367e-11
5.12627e-11
5.07123e-11
5.01908e-11
4.97021e-11
4.92493e-11
4.88343e-11
4.84585e-11
4.81222e-11
4.78256e-11
4.7568e-11
4.73486e-11
4.71659e-11
4.70185e-11
4.69047e-11
4.68224e-11
4.67696e-11
4.67443e-11
4.85182e-11
4.82526e-11
4.78842e-11
4.74364e-11
4.69298e-11
4.63826e-11
4.58104e-11
4.5227e-11
4.46437e-11
4.40702e-11
4.35144e-11
4.29827e-11
4.24799e-11
4.20098e-11
4.15751e-11
4.11777e-11
4.08186e-11
4.0498e-11
4.02158e-11
3.99713e-11
3.97635e-11
3.9591e-11
3.94521e-11
3.9345e-11
3.92678e-11
3.92184e-11
3.91948e-11
4.09037e-11
4.06515e-11
4.0302e-11
3.9878e-11
3.93991e-11
3.8883e-11
3.83447e-11
3.77973e-11
3.72515e-11
3.67164e-11
3.61993e-11
3.57061e-11
3.52413e-11
3.48081e-11
3.44088e-11
3.4045e-11
3.37172e-11
3.34258e-11
3.31701e-11
3.29493e-11
3.27624e-11
3.26077e-11
3.24836e-11
3.23883e-11
3.23199e-11
3.22763e-11
3.22555e-11
3.38321e-11
3.36032e-11
3.32867e-11
3.29035e-11
3.24721e-11
3.20087e-11
3.15272e-11
3.10394e-11
3.05551e-11
3.00823e-11
2.96277e-11
2.91961e-11
2.87914e-11
2.84164e-11
2.80729e-11
2.77619e-11
2.74838e-11
2.72385e-11
2.70255e-11
2.68437e-11
2.66919e-11
2.6568e-11
2.64699e-11
2.63955e-11
2.63427e-11
2.63095e-11
2.62939e-11
2.76054e-11
2.74112e-11
2.71438e-11
2.68222e-11
2.64634e-11
2.60826e-11
2.56933e-11
2.53033e-11
2.49196e-11
2.45481e-11
2.41937e-11
2.38601e-11
2.355e-11
2.32651e-11
2.30065e-11
2.27746e-11
2.25693e-11