/*--------------------------------*- C++ -*----------------------------------*\
| =========                 |                                                 |
| \\      /  F ield         | OpenFOAM: The Open Source CFD Toolbox           |
|  \\    /   O peration     | Version:  2106                                  |
|   \\  /    A nd           | Website:  www.openfoam.com                      |
|    \\/     M anipulation  |                                                 |
\*---------------------------------------------------------------------------*/
FoamFile
{
    version     2.0;
    format      ascii;
    arch        "LSB;label=32;scalar=64";
    class       volScalarField;
    location    "150.00049";
    object      CH3COCH3;
}
// * * * * * * * * * * * * * * * * * * * * * * * * * * * * * * * * * * * * * //

dimensions      [0 0 0 0 0 0 0];

internalField   nonuniform List<scalar> 
3360
(
0.0136842
0.0136842
0.0136842
0.0136842
0.0136842
0.0136842
0.0136842
0.0136842
0.0136842
0.0136842
0.0136842
0.0136842
0.0136842
0.0136842
0.0136842
0.0136842
0.0136842
0.0136842
0.0136842
0.0136842
0.0136842
0.0136842
0.0136842
0.0136842
0.0136842
0.0136842
0.0136842
0.0136842
0.0136842
0.0136842
0.0136842
0.0136842
0.0136842
0.0136842
0.0136842
0.0136842
0.0136842
0.0136842
0.0136842
0.0136842
0.0136842
0.0136842
0.0136842
0.0136842
0.0136842
0.0136842
0.0136842
0.0136842
0.0136842
0.0136842
0.0136842
0.0136842
0.0136842
0.0136842
0.0136842
0.0136842
0.0136842
0.0136842
0.0136842
0.0136842
0.0136842
0.0136842
0.0136842
0.0136842
0.0136842
0.0136842
0.0136842
0.0136842
0.0136842
0.0136842
0.0136842
0.0136842
0.0136842
0.0136842
0.0136842
0.0136842
0.0136842
0.0136842
0.0136842
0.0136842
0.0136842
0.0136842
0.0136842
0.0136842
0.0136842
0.0136842
0.0136842
0.0136842
0.0136842
0.0136842
0.0136842
0.0136842
0.0136842
0.0136842
0.0136842
0.0136842
0.0136842
0.0136842
0.0136842
0.0136842
0.0136842
0.0136842
0.0136842
0.0136842
0.0136842
0.0136842
0.0136842
0.0136842
0.0136842
0.0136842
0.0136842
0.0136842
0.0136842
0.0136842
0.0136842
0.0136842
0.0136842
0.0136842
0.0136842
0.0136842
0.0136842
0.0136842
0.0136842
0.0136842
0.0136842
0.0136842
0.0136842
0.0136842
0.0136842
0.0136842
0.0136842
0.0136842
0.0136842
0.0136842
0.0136842
0.0136842
0.0136842
0.0136842
0.0136842
0.0136842
0.0136842
0.0136842
0.0136842
0.0136842
0.0136842
0.0136842
0.0136842
0.0136842
0.0136842
0.0136842
0.0136842
0.0136842
0.0136842
0.0136842
0.0136842
0.0136842
0.0136842
0.0136842
0.0136842
0.0136842
0.0136842
0.0136842
0.0136842
0.0136842
0.0136842
0.0136842
0.0136842
0.0136842
0.0136842
0.0136842
0.0136842
0.0136842
0.0136842
0.0136842
0.0136842
0.0136842
0.0136842
0.0136842
0.0136842
0.0136842
0.0136842
0.0136842
0.0136842
0.0136842
0.0136842
0.0136842
0.0136842
0.0136842
0.0136842
0.0136842
0.0136842
0.0136842
0.0136842
0.0136842
0.0136842
0.0136842
0.0136842
0.0136842
0.0136842
0.0136842
0.0136842
0.0136842
0.0136842
0.0136842
0.0136842
0.0136842
0.0136842
0.0136842
0.0136842
0.0136842
0.0136842
0.0136842
0.0136842
0.0136842
0.0136842
0.0136842
0.0136842
0.0136842
0.0136842
0.0136842
0.0136842
0.0136842
0.0136842
0.0136842
0.0136842
0.0136842
0.0136842
0.0136842
0.0136842
0.0136842
0.0136842
0.0136842
0.0136842
0.0136842
0.0136842
0.0136842
0.0136842
0.0136842
0.0136842
0.0136842
0.0136842
0.0136842
0.0136842
0.0136842
0.0136842
0.0136842
0.0136842
0.0136842
0.0136842
0.0136842
0.0136842
0.0136842
0.0136842
0.0136842
0.0136842
0.0136842
0.0136842
0.0136842
0.0136842
0.0136842
0.0136842
0.0136842
0.0136842
0.0136842
0.0136842
0.0136842
0.0136842
0.0136842
0.0136842
0.0136842
0.0136842
0.0136842
0.0136842
0.0136842
0.0136842
0.0136842
0.0136842
0.0136842
0.0136842
0.0136842
0.0136842
0.0136842
0.0136842
0.0136842
0.0136842
0.0136842
0.0136842
0.0136842
0.0136842
0.0136842
0.0136842
0.0136842
0.0136842
0.0136842
0.0136842
0.0136842
0.0136842
0.0136842
0.0136842
0.0136842
0.0136842
0.0136842
0.0136842
0.0136842
0.0136842
0.0136842
0.0136842
0.0136842
0.0136842
0.0136842
0.0136842
0.0136842
0.0136842
0.0136842
0.0136842
0.0136842
0.0136842
0.0136842
0.0136842
0.0136842
0.0136842
0.0136842
0.0136842
0.0136842
0.0136842
0.0136842
0.0136842
0.0136842
0.0136842
0.0136842
0.0136842
0.0136842
0.0136842
0.0136842
0.0136842
0.0136842
0.0136842
0.0136842
0.0136842
0.0136842
0.0136842
0.0136842
0.0136842
0.0136842
0.0136842
0.0136842
0.0136842
0.0136842
0.0136842
0.0136842
0.0136842
0.0136842
0.0136842
0.0136842
0.0136842
0.0136842
0.0136842
0.0136842
0.0136842
0.0136842
0.0136842
0.0136842
0.0136842
0.0136842
0.0136842
0.0136842
0.0136842
0.0136842
0.0136842
0.0136842
0.0136842
0.0136842
0.0136842
0.0136842
0.0136842
0.0136842
0.0136842
0.0136842
0.0136842
0.0136842
0.0136842
0.0136842
0.0136842
0.0136842
0.0136842
0.0136842
0.0136842
0.0136842
0.0136842
0.0136842
0.0136842
0.0136842
0.0136842
0.0136842
0.0136842
0.0136842
0.0136842
0.0136842
0.0136842
0.0136842
0.0136842
0.0136842
0.0136842
0.0136842
0.0136842
0.0136842
0.0136842
0.0136842
0.0136842
0.0136842
0.0136842
0.0136842
0.0136842
0.0136842
0.0136842
0.0136842
0.0136842
0.0136842
0.0136842
0.0136842
0.0136842
0.0136842
0.0136842
0.0136842
0.0136842
0.0136842
0.0136842
0.0136842
0.0136842
0.0136842
0.0136842
0.0136842
0.0136842
0.0136842
0.0136842
0.0136842
0.0136842
0.0136842
0.0136842
0.0136842
0.0136842
0.0136842
0.0136842
0.0136842
0.0136842
0.0136842
0.0136842
0.0136842
0.0136842
0.0136842
0.0136842
0.0136842
0.0136842
0.0136842
0.0136842
0.0136842
0.0136842
0.0136842
0.0136842
0.0136842
0.0136842
0.0136842
0.0136842
0.0136842
0.0136842
0.0136842
0.0136842
0.0136842
0.0136842
0.0136842
0.0136842
0.0136842
0.0136842
0.0136842
0.0136842
0.0136842
0.0136842
0.0136842
0.0136842
0.0136842
0.0136842
0.0136842
0.0136842
0.0136842
0.0136842
0.0136842
0.0136842
0.0136842
0.0136842
0.0136842
0.0136842
0.0136842
0.0136842
0.0136842
0.0136842
0.0136842
0.0136842
0.0136842
0.0136842
0.0136842
0.0136842
0.0136842
0.0136842
0.0136842
0.0136842
0.0136842
0.0136842
0.0136842
0.0136842
0.0136842
0.0136842
0.0136842
0.0136842
0.0136842
0.0136842
0.0136842
0.0136842
0.0136842
0.0136842
0.0136842
0.0136842
0.0136842
0.0136842
0.0136842
0.0136841
0.0136841
0.0136841
0.0136841
0.0136841
0.0136841
0.0136841
0.0136841
0.0136841
0.0136841
0.0136841
0.0136841
0.0136841
0.0136841
0.0136841
0.0136841
0.0136841
0.0136841
0.0136841
0.0136841
0.0136841
0.0136841
0.0136841
0.0136841
0.0136841
0.0136841
0.0136841
0.0136841
0.0136841
0.0136841
0.013684
0.013684
0.013684
0.013684
0.013684
0.013684
0.013684
0.013684
0.013684
0.013684
0.013684
0.013684
0.013684
0.013684
0.013684
0.013684
0.013684
0.013684
0.013684
0.013684
0.0136839
0.0136839
0.0136839
0.0136839
0.0136839
0.0136838
0.0136838
0.0136838
0.0136838
0.0136838
0.0136838
0.0136838
0.0136838
0.0136837
0.0136837
0.0136837
0.0136837
0.0136837
0.0136837
0.0136837
0.0136838
0.0136838
0.0136837
0.0136837
0.0136837
0.0136836
0.0136836
0.0136835
0.0136835
0.0136835
0.0136834
0.0136834
0.0136833
0.0136833
0.0136833
0.0136832
0.0136832
0.0136832
0.0136832
0.0136831
0.0136831
0.0136831
0.0136831
0.0136831
0.0136831
0.0136831
0.0136831
0.0136832
0.0136831
0.0136831
0.013683
0.0136829
0.0136828
0.0136827
0.0136826
0.0136825
0.0136824
0.0136824
0.0136823
0.0136822
0.0136821
0.013682
0.013682
0.0136819
0.0136818
0.0136818
0.0136817
0.0136817
0.0136817
0.0136817
0.0136816
0.0136816
0.0136816
0.0136816
0.0136817
0.0136816
0.0136815
0.0136813
0.0136812
0.013681
0.0136808
0.0136806
0.0136804
0.0136802
0.01368
0.0136798
0.0136796
0.0136795
0.0136793
0.0136792
0.013679
0.0136789
0.0136788
0.0136787
0.0136787
0.0136786
0.0136786
0.0136785
0.0136785
0.0136785
0.0136785
0.0136785
0.0136783
0.013678
0.0136778
0.0136774
0.013677
0.0136766
0.0136762
0.0136758
0.0136754
0.013675
0.0136747
0.0136743
0.013674
0.0136737
0.0136734
0.0136731
0.0136729
0.0136727
0.0136725
0.0136724
0.0136723
0.0136722
0.0136721
0.013672
0.013672
0.013672
0.0136716
0.0136713
0.0136708
0.0136702
0.0136696
0.0136688
0.0136681
0.0136673
0.0136665
0.0136657
0.0136649
0.0136642
0.0136635
0.0136629
0.0136623
0.0136617
0.0136612
0.0136608
0.0136604
0.0136601
0.0136598
0.0136596
0.0136594
0.0136593
0.0136592
0.0136591
0.0136591
0.0136579
0.0136572
0.0136563
0.0136552
0.013654
0.0136526
0.0136512
0.0136497
0.0136482
0.0136467
0.0136453
0.013644
0.0136427
0.0136415
0.0136404
0.0136394
0.0136385
0.0136376
0.0136369
0.0136363
0.0136358
0.0136354
0.0136351
0.0136348
0.0136346
0.0136345
0.0136345
0.0136316
0.0136304
0.0136288
0.0136268
0.0136245
0.013622
0.0136194
0.0136168
0.0136141
0.0136115
0.0136089
0.0136064
0.0136041
0.0136019
0.0135999
0.0135981
0.0135965
0.013595
0.0135938
0.0135927
0.0135917
0.013591
0.0135904
0.0135899
0.0135896
0.0135894
0.0135893
0.0135844
0.0135824
0.0135796
0.0135761
0.0135721
0.0135678
0.0135633
0.0135586
0.0135539
0.0135493
0.0135448
0.0135405
0.0135364
0.0135326
0.013529
0.0135258
0.0135229
0.0135203
0.0135181
0.0135161
0.0135145
0.0135131
0.0135121
0.0135112
0.0135106
0.0135102
0.0135101
0.0135055
0.0135021
0.0134974
0.0134916
0.013485
0.0134778
0.0134703
0.0134625
0.0134547
0.0134469
0.0134394
0.0134322
0.0134253
0.0134188
0.0134129
0.0134074
0.0134025
0.0133981
0.0133942
0.0133909
0.0133881
0.0133857
0.0133839
0.0133824
0.0133814
0.0133807
0.0133804
0.0133834
0.0133781
0.0133708
0.0133619
0.0133517
0.0133406
0.013329
0.0133169
0.0133048
0.0132929
0.0132812
0.0132699
0.0132593
0.0132492
0.01324
0.0132315
0.0132238
0.0132169
0.0132109
0.0132057
0.0132012
0.0131976
0.0131946
0.0131924
0.0131907
0.0131897
0.0131892
0.0132099
0.0132026
0.0131923
0.0131798
0.0131655
0.01315
0.0131336
0.0131168
0.0131
0.0130833
0.0130671
0.0130516
0.0130368
0.013023
0.0130102
0.0129986
0.012988
0.0129786
0.0129704
0.0129633
0.0129573
0.0129523
0.0129483
0.0129452
0.012943
0.0129416
0.012941
0.012984
0.0129746
0.0129616
0.0129457
0.0129277
0.0129082
0.0128877
0.0128668
0.0128459
0.0128253
0.0128053
0.0127863
0.0127683
0.0127516
0.0127361
0.0127221
0.0127094
0.0126982
0.0126884
0.01268
0.0126729
0.012667
0.0126623
0.0126587
0.0126561
0.0126545
0.0126537
0.0127127
0.0127019
0.0126869
0.0126687
0.0126482
0.012626
0.0126029
0.0125794
0.012556
0.0125331
0.012511
0.01249
0.0124703
0.012452
0.0124353
0.0124201
0.0124065
0.0123945
0.012384
0.012375
0.0123674
0.0123612
0.0123563
0.0123525
0.0123498
0.0123481
0.0123473
0.0124095
0.0123981
0.0123823
0.0123631
0.0123416
0.0123184
0.0122943
0.01227
0.0122459
0.0122223
0.0121998
0.0121784
0.0121585
0.01214
0.0121232
0.0121079
0.0120944
0.0120824
0.012072
0.0120631
0.0120556
0.0120495
0.0120446
0.0120409
0.0120382
0.0120365
0.0120357
0.0120901
0.0120787
0.012063
0.0120441
0.0120228
0.012
0.0119764
0.0119526
0.011929
0.0119062
0.0118843
0.0118636
0.0118444
0.0118267
0.0118105
0.0117959
0.0117829
0.0117715
0.0117616
0.0117531
0.011746
0.0117402
0.0117356
0.0117321
0.0117295
0.0117279
0.0117272
0.0117675
0.0117567
0.0117418
0.0117238
0.0117036
0.0116819
0.0116596
0.0116371
0.0116149
0.0115934
0.0115728
0.0115535
0.0115354
0.0115188
0.0115037
0.01149
0.0114779
0.0114672
0.011458
0.0114501
0.0114435
0.011438
0.0114337
0.0114304
0.0114281
0.0114266
0.0114259
0.0114512
0.0114411
0.0114272
0.0114104
0.0113916
0.0113716
0.0113508
0.0113299
0.0113093
0.0112894
0.0112703
0.0112524
0.0112357
0.0112203
0.0112062
0.0111936
0.0111824
0.0111725
0.0111639
0.0111566
0.0111505
0.0111454
0.0111414
0.0111384
0.0111362
0.0111348
0.0111342
0.0111462
0.0111369
0.0111241
0.0111086
0.0110913
0.0110728
0.0110536
0.0110344
0.0110154
0.0109969
0.0109793
0.0109627
0.0109473
0.0109331
0.0109201
0.0109084
0.010898
0.0108889
0.0108809
0.0108741
0.0108684
0.0108637
0.01086
0.0108572
0.0108552
0.0108539
0.0108533
0.010855
0.0108464
0.0108346
0.0108203
0.0108043
0.0107873
0.0107696
0.0107518
0.0107342
0.0107172
0.0107009
0.0106856
0.0106713
0.0106581
0.010646
0.0106352
0.0106255
0.010617
0.0106096
0.0106033
0.010598
0.0105936
0.0105901
0.0105875
0.0105856
0.0105844
0.0105838
0.0105781
0.0105702
0.0105592
0.010546
0.0105312
0.0105154
0.010499
0.0104825
0.0104662
0.0104504
0.0104353
0.010421
0.0104077
0.0103954
0.0103841
0.010374
0.010365
0.0103571
0.0103501
0.0103442
0.0103392
0.0103352
0.0103319
0.0103294
0.0103277
0.0103265
0.010326
0.0103152
0.0103078
0.0102977
0.0102854
0.0102716
0.0102569
0.0102416
0.0102262
0.010211
0.0101962
0.0101821
0.0101687
0.0101562
0.0101447
0.0101342
0.0101247
0.0101162
0.0101087
0.0101023
0.0100967
0.010092
0.0100882
0.0100851
0.0100828
0.0100811
0.01008
0.0100795
0.0100655
0.0100587
0.0100491
0.0100376
0.0100247
0.0100109
0.00999658
0.00998213
0.00996784
0.00995396
0.00994065
0.00992808
0.00991634
0.0099055
0.00989559
0.00988665
0.00987866
0.00987162
0.00986549
0.00986024
0.00985582
0.0098522
0.0098493
0.00984709
0.00984551
0.00984451
0.00984404
0.0098281
0.00982162
0.00981266
0.00980183
0.00978967
0.00977664
0.00976314
0.00974951
0.00973603
0.00972292
0.00971035
0.00969847
0.00968737
0.00967712
0.00966775
0.00965928
0.00965172
0.00964505
0.00963924
0.00963427
0.00963008
0.00962664
0.0096239
0.0096218
0.0096203
0.00961935
0.0096189
0.00960192
0.00959578
0.00958731
0.00957706
0.00956555
0.00955322
0.00954043
0.00952752
0.00951474
0.00950231
0.00949039
0.00947912
0.00946858
0.00945885
0.00944995
0.00944191
0.00943473
0.00942839
0.00942287
0.00941813
0.00941415
0.00941088
0.00940827
0.00940628
0.00940485
0.00940395
0.00940352
0.00938606
0.00938023
0.00937218
0.00936245
0.00935152
0.00933979
0.00932764
0.00931536
0.0093032
0.00929137
0.00928003
0.0092693
0.00925926
0.00924999
0.00924151
0.00923385
0.009227
0.00922096
0.0092157
0.00921119
0.00920739
0.00920427
0.00920178
0.00919988
0.00919851
0.00919765
0.00919724
0.00917969
0.00917414
0.00916647
0.00915719
0.00914676
0.00913558
0.00912399
0.00911227
0.00910067
0.00908938
0.00907856
0.00906831
0.00905873
0.00904987
0.00904178
0.00903446
0.00902791
0.00902214
0.00901711
0.00901279
0.00900916
0.00900618
0.0090038
0.00900198
0.00900068
0.00899985
0.00899946
0.00898205
0.00897675
0.00896941
0.00896055
0.00895058
0.00893989
0.0089288
0.00891759
0.00890649
0.00889569
0.00888533
0.00887553
0.00886635
0.00885787
0.00885012
0.00884311
0.00883684
0.00883131
0.00882649
0.00882236
0.00881888
0.00881602
0.00881374
0.008812
0.00881075
0.00880996
0.00880958
0.00879247
0.00878738
0.00878036
0.00877186
0.00876231
0.00875206
0.00874143
0.00873069
0.00872005
0.00870969
0.00869976
0.00869035
0.00868155
0.00867342
0.00866598
0.00865925
0.00865324
0.00864793
0.00864331
0.00863934
0.008636
0.00863326
0.00863107
0.00862939
0.0086282
0.00862744
0.00862708
0.00861033
0.00860545
0.00859871
0.00859055
0.00858138
0.00857154
0.00856133
0.00855101
0.00854079
0.00853084
0.00852129
0.00851226
0.0085038
0.00849599
0.00848884
0.00848237
0.00847659
0.00847149
0.00846704
0.00846323
0.00846002
0.00845738
0.00845527
0.00845367
0.00845251
0.00845178
0.00845144
0.00843511
0.00843042
0.00842393
0.00841609
0.00840726
0.0083978
0.00838798
0.00837805
0.00836822
0.00835864
0.00834946
0.00834076
0.00833262
0.0083251
0.00831822
0.00831199
0.00830643
0.00830152
0.00829724
0.00829357
0.00829048
0.00828794
0.00828591
0.00828436
0.00828325
0.00828255
0.00828221
0.00826633
0.00826181
0.00825556
0.008248
0.0082395
0.00823038
0.00822093
0.00821136
0.00820189
0.00819266
0.00818381
0.00817543
0.00816758
0.00816033
0.0081537
0.0081477
0.00814234
0.0081376
0.00813348
0.00812994
0.00812696
0.00812451
0.00812255
0.00812106
0.00811999
0.00811931
0.00811899
0.00810356
0.0080992
0.00809317
0.00808588
0.00807768
0.00806889
0.00805976
0.00805053
0.00804139
0.00803249
0.00802395
0.00801586
0.0080083
0.0080013
0.0079949
0.00798911
0.00798393
0.00797936
0.00797538
0.00797196
0.00796909
0.00796672
0.00796484
0.00796339
0.00796236
0.00796171
0.0079614
0.00794641
0.0079422
0.00793638
0.00792934
0.00792142
0.00791293
0.00790411
0.0078952
0.00788637
0.00787778
0.00786953
0.00786171
0.0078544
0.00784764
0.00784146
0.00783587
0.00783087
0.00782645
0.0078226
0.0078193
0.00781652
0.00781424
0.00781242
0.00781102
0.00781003
0.00780939
0.00780909
0.00779454
0.00779047
0.00778485
0.00777804
0.00777039
0.00776218
0.00775366
0.00774504
0.00773651
0.00772819
0.00772022
0.00771266
0.00770559
0.00769906
0.00769308
0.00768767
0.00768283
0.00767856
0.00767484
0.00767165
0.00766896
0.00766675
0.00766499
0.00766364
0.00766267
0.00766206
0.00766177
0.00764765
0.00764371
0.00763827
0.00763168
0.00762428
0.00761633
0.00760809
0.00759975
0.00759149
0.00758345
0.00757573
0.00756842
0.00756157
0.00755525
0.00754946
0.00754422
0.00753954
0.00753541
0.00753181
0.00752872
0.00752612
0.00752398
0.00752227
0.00752097
0.00752003
0.00751944
0.00751916
0.00750545
0.00750164
0.00749637
0.00748999
0.00748282
0.00747512
0.00746714
0.00745907
0.00745107
0.00744327
0.0074358
0.00742872
0.00742209
0.00741596
0.00741036
0.00740528
0.00740075
0.00739674
0.00739326
0.00739026
0.00738774
0.00738567
0.00738402
0.00738275
0.00738185
0.00738128
0.007381
0.0073677
0.007364
0.00735889
0.00735272
0.00734577
0.00733831
0.00733057
0.00732275
0.00731499
0.00730744
0.00730019
0.00729333
0.00728691
0.00728097
0.00727553
0.00727062
0.00726622
0.00726234
0.00725896
0.00725606
0.00725361
0.0072516
0.00725
0.00724878
0.0072479
0.00724734
0.00724708
0.00723417
0.00723058
0.00722563
0.00721964
0.0072129
0.00720567
0.00719816
0.00719058
0.00718306
0.00717573
0.0071687
0.00716205
0.00715582
0.00715006
0.00714479
0.00714002
0.00713576
0.00713199
0.00712871
0.0071259
0.00712353
0.00712158
0.00712002
0.00711883
0.00711798
0.00711744
0.00711719
0.00710466
0.00710118
0.00709637
0.00709056
0.00708402
0.00707701
0.00706973
0.00706236
0.00705507
0.00704796
0.00704114
0.00703468
0.00702864
0.00702305
0.00701793
0.00701331
0.00700917
0.00700551
0.00700233
0.0069996
0.0069973
0.00699541
0.0069939
0.00699275
0.00699192
0.0069914
0.00699115
0.00697899
0.00697561
0.00697095
0.00696531
0.00695896
0.00695215
0.00694508
0.00693794
0.00693086
0.00692396
0.00691734
0.00691107
0.0069052
0.00689977
0.00689481
0.00689032
0.0068863
0.00688275
0.00687966
0.00687701
0.00687478
0.00687294
0.00687148
0.00687036
0.00686956
0.00686905
0.00686881
0.00685701
0.00685374
0.00684921
0.00684373
0.00683757
0.00683095
0.00682409
0.00681715
0.00681028
0.00680358
0.00679715
0.00679106
0.00678536
0.00678009
0.00677527
0.00677091
0.00676701
0.00676357
0.00676057
0.00675799
0.00675583
0.00675404
0.00675262
0.00675153
0.00675076
0.00675026
0.00675003
0.00673859
0.00673541
0.00673101
0.00672569
0.00671971
0.00671329
0.00670662
0.00669988
0.0066932
0.0066867
0.00668046
0.00667454
0.00666901
0.00666389
0.00665921
0.00665498
0.00665119
0.00664784
0.00664493
0.00664243
0.00664033
0.00663859
0.00663721
0.00663616
0.0066354
0.00663492
0.0066347
0.00662361
0.00662052
0.00661625
0.00661109
0.00660527
0.00659904
0.00659257
0.00658602
0.00657954
0.00657322
0.00656716
0.00656142
0.00655604
0.00655107
0.00654653
0.00654241
0.00653873
0.00653549
0.00653266
0.00653023
0.00652819
0.0065265
0.00652516
0.00652414
0.0065234
0.00652294
0.00652272
0.00651199
0.00650899
0.00650484
0.00649983
0.00649418
0.00648813
0.00648185
0.00647549
0.00646919
0.00646306
0.00645717
0.0064516
0.00644638
0.00644156
0.00643714
0.00643315
0.00642958
0.00642642
0.00642368
0.00642132
0.00641934
0.0064177
0.0064164
0.00641541
0.00641469
0.00641424
0.00641403
0.00640366
0.00640075
0.00639672
0.00639185
0.00638637
0.0063805
0.0063744
0.00636823
0.00636212
0.00635616
0.00635045
0.00634504
0.00633998
0.00633529
0.00633101
0.00632714
0.00632367
0.00632061
0.00631794
0.00631566
0.00631373
0.00631215
0.00631088
0.00630992
0.00630923
0.00630879
0.00630858
0.00629858
0.00629575
0.00629185
0.00628712
0.00628181
0.00627611
0.00627019
0.00626421
0.00625828
0.00625251
0.00624696
0.00624172
0.00623681
0.00623226
0.00622811
0.00622435
0.00622099
0.00621802
0.00621544
0.00621322
0.00621135
0.00620982
0.00620859
0.00620765
0.00620698
0.00620656
0.00620636
0.00619673
0.00619399
0.00619021
0.00618563
0.00618048
0.00617495
0.00616922
0.00616342
0.00615768
0.00615208
0.00614671
0.00614163
0.00613687
0.00613247
0.00612844
0.0061248
0.00612155
0.00611867
0.00611617
0.00611402
0.00611221
0.00611072
0.00610954
0.00610863
0.00610798
0.00610757
0.00610737
0.00609813
0.00609548
0.00609182
0.00608739
0.0060824
0.00607705
0.00607151
0.00606589
0.00606034
0.00605492
0.00604973
0.00604481
0.0060402
0.00603595
0.00603205
0.00602853
0.00602538
0.0060226
0.00602018
0.0060181
0.00601635
0.00601491
0.00601376
0.00601289
0.00601226
0.00601186
0.00601167
0.00600284
0.00600028
0.00599673
0.00599245
0.00598764
0.00598247
0.00597711
0.00597169
0.00596632
0.00596109
0.00595607
0.00595132
0.00594688
0.00594276
0.005939
0.0059356
0.00593256
0.00592988
0.00592754
0.00592553
0.00592385
0.00592246
0.00592135
0.0059205
0.0059199
0.00591951
0.00591933
0.00591092
0.00590845
0.00590504
0.00590091
0.00589627
0.00589129
0.00588612
0.0058809
0.00587572
0.00587068
0.00586585
0.00586127
0.00585699
0.00585303
0.00584941
0.00584613
0.0058432
0.00584062
0.00583836
0.00583643
0.00583481
0.00583347
0.0058324
0.00583159
0.00583101
0.00583064
0.00583046
0.00582251
0.00582014
0.00581685
0.00581288
0.00580842
0.00580363
0.00579867
0.00579365
0.00578868
0.00578384
0.00577919
0.0057748
0.00577068
0.00576688
0.0057634
0.00576026
0.00575745
0.00575497
0.0057528
0.00575095
0.00574939
0.00574811
0.00574708
0.0057463
0.00574574
0.00574539
0.00574522
0.00573776
0.00573548
0.00573234
0.00572854
0.00572426
0.00571968
0.00571493
0.00571012
0.00570536
0.00570073
0.00569629
0.00569208
0.00568815
0.00568451
0.00568119
0.00567818
0.00567549
0.00567312
0.00567105
0.00566928
0.00566779
0.00566656
0.00566558
0.00566484
0.0056643
0.00566396
0.0056638
0.00565686
0.0056547
0.0056517
0.00564808
0.005644
0.00563963
0.0056351
0.00563053
0.00562599
0.00562158
0.00561735
0.00561335
0.0056096
0.00560614
0.00560298
0.00560012
0.00559756
0.0055953
0.00559334
0.00559165
0.00559024
0.00558907
0.00558814
0.00558743
0.00558692
0.0055866
0.00558645
0.00558007
0.00557802
0.00557518
0.00557174
0.00556788
0.00556374
0.00555945
0.00555512
0.00555082
0.00554665
0.00554264
0.00553886
0.00553531
0.00553204
0.00552905
0.00552635
0.00552393
0.0055218
0.00551994
0.00551835
0.00551701
0.00551591
0.00551503
0.00551436
0.00551388
0.00551357
0.00551343
0.00550766
0.00550572
0.00550305
0.00549982
0.00549618
0.00549229
0.00548826
0.00548418
0.00548015
0.00547622
0.00547246
0.00546891
0.00546558
0.00546251
0.0054597
0.00545717
0.0054549
0.0054529
0.00545116
0.00544967
0.00544841
0.00544738
0.00544656
0.00544593
0.00544548
0.00544519
0.00544506
0.00543993
0.00543812
0.00543563
0.00543261
0.00542922
0.0054256
0.00542184
0.00541804
0.00541428
0.00541063
0.00540713
0.00540382
0.00540073
0.00539787
0.00539526
0.00539291
0.0053908
0.00538895
0.00538733
0.00538594
0.00538478
0.00538382
0.00538306
0.00538247
0.00538206
0.00538179
0.00538167
0.00537721
0.00537554
0.00537324
0.00537046
0.00536733
0.00536399
0.00536052
0.00535702
0.00535356
0.0053502
0.00534698
0.00534394
0.00534109
0.00533847
0.00533607
0.00533391
0.00533198
0.00533027
0.00532879
0.00532752
0.00532645
0.00532557
0.00532487
0.00532434
0.00532395
0.00532371
0.0053236
0.00531984
0.00531832
0.00531622
0.00531369
0.00531084
0.0053078
0.00530464
0.00530146
0.00529832
0.00529527
0.00529234
0.00528958
0.00528701
0.00528463
0.00528246
0.0052805
0.00527875
0.0052772
0.00527586
0.00527471
0.00527375
0.00527296
0.00527232
0.00527184
0.0052715
0.00527128
0.00527117
0.00526812
0.00526676
0.00526488
0.0052626
0.00526005
0.00525733
0.00525451
0.00525166
0.00524885
0.00524612
0.00524351
0.00524105
0.00523875
0.00523663
0.0052347
0.00523296
0.0052314
0.00523003
0.00522884
0.00522782
0.00522696
0.00522625
0.00522569
0.00522526
0.00522496
0.00522476
0.00522467
0.00522232
0.00522112
0.00521946
0.00521746
0.00521522
0.00521282
0.00521035
0.00520785
0.00520539
0.005203
0.00520072
0.00519856
0.00519656
0.00519471
0.00519302
0.0051915
0.00519014
0.00518895
0.00518791
0.00518703
0.00518628
0.00518567
0.00518518
0.00518481
0.00518454
0.00518437
0.00518429
0.00518259
0.00518156
0.00518014
0.00517842
0.00517649
0.00517444
0.00517231
0.00517017
0.00516807
0.00516602
0.00516407
0.00516224
0.00516053
0.00515895
0.00515751
0.00515622
0.00515507
0.00515405
0.00515317
0.00515242
0.00515179
0.00515127
0.00515086
0.00515054
0.00515032
0.00515017
0.00515011
0.005149
0.00514814
0.00514694
0.0051455
0.00514389
0.00514218
0.00514041
0.00513862
0.00513687
0.00513517
0.00513356
0.00513203
0.00513061
0.00512931
0.00512812
0.00512706
0.00512611
0.00512527
0.00512454
0.00512392
0.0051234
0.00512298
0.00512264
0.00512238
0.0051222
0.00512208
0.00512202
0.00512142
0.00512072
0.00511975
0.00511858
0.00511728
0.00511589
0.00511446
0.00511303
0.00511162
0.00511025
0.00510895
0.00510773
0.0051066
0.00510555
0.00510461
0.00510376
0.005103
0.00510233
0.00510176
0.00510127
0.00510085
0.00510051
0.00510025
0.00510004
0.00509989
0.0050998
0.00509976
0.00509954
0.00509899
0.00509824
0.00509733
0.00509631
0.00509523
0.00509412
0.00509301
0.00509192
0.00509086
0.00508986
0.00508892
0.00508805
0.00508725
0.00508652
0.00508587
0.00508529
0.00508478
0.00508435
0.00508397
0.00508366
0.0050834
0.00508319
0.00508304
0.00508293
0.00508286
0.00508282
0.00508287
0.00508246
0.00508189
0.00508121
0.00508046
0.00507966
0.00507883
0.00507801
0.0050772
0.00507642
0.00507568
0.00507499
0.00507435
0.00507376
0.00507323
0.00507276
0.00507233
0.00507197
0.00507165
0.00507137
0.00507115
0.00507096
0.00507081
0.0050707
0.00507062
0.00507057
0.00507054
0.00507073
0.00507044
0.00507004
0.00506955
0.00506902
0.00506845
0.00506787
0.00506729
0.00506672
0.00506617
0.00506566
0.00506517
0.00506473
0.00506432
0.00506395
0.00506362
0.00506333
0.00506308
0.00506286
0.00506267
0.00506251
0.00506238
0.00506228
0.00506221
0.00506215
0.00506212
0.0050621
0.00506233
0.00506213
0.00506186
0.00506154
0.00506118
0.0050608
0.00506041
0.00506002
0.00505964
0.00505928
0.00505894
0.00505862
0.00505833
0.00505806
0.00505782
0.0050576
0.00505741
0.00505724
0.0050571
0.00505698
0.00505688
0.0050568
0.00505673
0.00505668
0.00505664
0.00505662
0.00505661
0.00505681
0.00505669
0.00505652
0.00505631
0.00505608
0.00505584
0.0050556
0.00505535
0.00505512
0.00505489
0.00505467
0.00505448
0.00505429
0.00505413
0.00505398
0.00505384
0.00505373
0.00505362
0.00505353
0.00505346
0.0050534
0.00505335
0.00505331
0.00505328
0.00505325
0.00505324
0.00505323
0.00505338
0.0050533
0.0050532
0.00505308
0.00505294
0.00505279
0.00505265
0.0050525
0.00505236
0.00505222
0.00505209
0.00505197
0.00505186
0.00505177
0.00505168
0.0050516
0.00505153
0.00505147
0.00505141
0.00505137
0.00505133
0.0050513
0.00505128
0.00505126
0.00505125
0.00505124
0.00505124
0.00505133
0.00505128
0.00505122
0.00505115
0.00505107
0.00505098
0.0050509
0.00505081
0.00505073
0.00505065
0.00505058
0.00505051
0.00505044
0.00505039
0.00505034
0.00505029
0.00505025
0.00505021
0.00505018
0.00505016
0.00505014
0.00505012
0.0050501
0.00505009
0.00505009
0.00505008
0.00505008
0.00505013
0.0050501
0.00505007
0.00505003
0.00504998
0.00504993
0.00504988
0.00504983
0.00504978
0.00504974
0.00504969
0.00504965
0.00504962
0.00504958
0.00504955
0.00504952
0.0050495
0.00504948
0.00504946
0.00504945
0.00504943
0.00504942
0.00504941
0.00504941
0.0050494
0.0050494
0.0050494
0.00504942
0.00504941
0.00504939
0.00504936
0.00504934
0.00504931
0.00504928
0.00504925
0.00504922
0.00504919
0.00504916
0.00504914
0.00504911
0.00504909
0.00504907
0.00504906
0.00504904
0.00504903
0.00504902
0.00504901
0.005049
0.00504899
0.00504899
0.00504898
0.00504898
0.00504898
0.00504898
0.00504899
0.00504898
0.00504897
0.00504896
0.00504894
0.00504892
0.0050489
0.00504888
0.00504886
0.00504884
0.00504883
0.00504881
0.0050488
0.00504878
0.00504877
0.00504876
0.00504875
0.00504874
0.00504873
0.00504873
0.00504872
0.00504872
0.00504871
0.00504871
0.00504871
0.00504871
0.00504871
0.00504872
0.00504871
0.0050487
0.00504869
0.00504868
0.00504867
0.00504865
0.00504864
0.00504863
0.00504862
0.00504861
0.00504859
0.00504858
0.00504858
0.00504857
0.00504856
0.00504855
0.00504855
0.00504854
0.00504854
0.00504853
0.00504853
0.00504853
0.00504853
0.00504853
0.00504852
0.00504852
0.00504853
0.00504853
0.00504852
0.00504851
0.00504851
0.0050485
0.00504849
0.00504848
0.00504847
0.00504847
0.00504846
0.00504845
0.00504844
0.00504844
0.00504843
0.00504843
0.00504842
0.00504842
0.00504842
0.00504841
0.00504841
0.00504841
0.00504841
0.00504841
0.0050484
0.0050484
0.0050484
0.00504841
0.00504841
0.0050484
0.0050484
0.00504839
0.00504839
0.00504838
0.00504838
0.00504837
0.00504837
0.00504836
0.00504836
0.00504835
0.00504835
0.00504834
0.00504834
0.00504834
0.00504834
0.00504833
0.00504833
0.00504833
0.00504833
0.00504833
0.00504833
0.00504833
0.00504833
0.00504833
0.00504833
0.00504833
0.00504832
0.00504832
0.00504832
0.00504832
0.00504831
0.00504831
0.00504831
0.0050483
0.0050483
0.0050483
0.00504829
0.00504829
0.00504829
0.00504829
0.00504829
0.00504829
0.00504828
0.00504828
0.00504828
0.00504828
0.00504828
0.00504828
0.00504828
0.00504828
0.00504828
0.00504828
0.00504828
0.00504828
0.00504827
0.00504827
0.00504827
0.00504827
0.00504827
0.00504827
0.00504826
0.00504826
0.00504826
0.00504826
0.00504826
0.00504826
0.00504826
0.00504826
0.00504826
0.00504825
0.00504825
0.00504825
0.00504825
0.00504825
0.00504825
0.00504825
0.00504825
0.00504825
0.00504825
0.00504825
0.00504825
0.00504825
0.00504825
0.00504825
0.00504825
0.00504824
0.00504824
0.00504824
0.00504824
0.00504824
0.00504824
0.00504824
0.00504824
0.00504824
0.00504824
0.00504824
0.00504824
0.00504824
0.00504824
0.00504824
0.00504824
0.00504824
0.00504824
0.00504824
0.00504824
0.00504823
0.00504823
0.00504823
0.00504823
0.00504823
0.00504823
0.00504823
0.00504823
0.00504823
0.00504823
0.00504823
0.00504823
0.00504823
0.00504823
0.00504823
0.00504823
0.00504823
0.00504823
0.00504823
0.00504823
0.00504823
0.00504823
0.00504823
0.00504823
0.00504823
0.00504823
0.00504823
0.00504822
0.00504822
0.00504822
0.00504822
0.00504822
0.00504822
0.00504822
0.00504822
0.00504822
0.00504822
0.00504822
0.00504822
0.00504822
0.00504822
0.00504822
0.00504822
0.00504822
0.00504822
0.00504822
0.00504822