/*--------------------------------*- C++ -*----------------------------------*\
| =========                 |                                                 |
| \\      /  F ield         | OpenFOAM: The Open Source CFD Toolbox           |
|  \\    /   O peration     | Version:  2106                                  |
|   \\  /    A nd           | Website:  www.openfoam.com                      |
|    \\/     M anipulation  |                                                 |
\*---------------------------------------------------------------------------*/
FoamFile
{
    version     2.0;
    format      ascii;
    arch        "LSB;label=32;scalar=64";
    class       volScalarField;
    location    "150.00049";
    object      CH4_0;
}
// * * * * * * * * * * * * * * * * * * * * * * * * * * * * * * * * * * * * * //

dimensions      [0 0 0 0 0 0 0];

internalField   nonuniform List<scalar> 
3360
(
0.000419988
0.000419988
0.000419988
0.000419988
0.000419988
0.000419988
0.000419988
0.000419988
0.000419988
0.000419988
0.000419988
0.000419988
0.000419988
0.000419988
0.000419988
0.000419988
0.000419988
0.000419988
0.000419988
0.000419988
0.000419988
0.000419988
0.000419988
0.000419988
0.000419988
0.000419988
0.000419988
0.000419988
0.000419988
0.000419988
0.000419988
0.000419988
0.000419988
0.000419988
0.000419988
0.000419988
0.000419988
0.000419988
0.000419988
0.000419988
0.000419988
0.000419988
0.000419988
0.000419988
0.000419988
0.000419988
0.000419988
0.000419988
0.000419988
0.000419988
0.000419988
0.000419988
0.000419988
0.000419988
0.000419988
0.000419988
0.000419988
0.000419988
0.000419988
0.000419988
0.000419988
0.000419988
0.000419988
0.000419988
0.000419988
0.000419988
0.000419988
0.000419988
0.000419988
0.000419988
0.000419988
0.000419988
0.000419988
0.000419988
0.000419988
0.000419988
0.000419988
0.000419988
0.000419988
0.000419988
0.000419988
0.000419988
0.000419988
0.000419988
0.000419988
0.000419988
0.000419988
0.000419988
0.000419988
0.000419988
0.000419988
0.000419988
0.000419988
0.000419988
0.000419988
0.000419988
0.000419988
0.000419988
0.000419988
0.000419988
0.000419988
0.000419988
0.000419988
0.000419988
0.000419988
0.000419988
0.000419988
0.000419988
0.000419988
0.000419988
0.000419988
0.000419988
0.000419988
0.000419988
0.000419988
0.000419988
0.000419988
0.000419988
0.000419988
0.000419988
0.000419988
0.000419988
0.000419988
0.000419988
0.000419988
0.000419988
0.000419988
0.000419988
0.000419988
0.000419988
0.000419988
0.000419988
0.000419988
0.000419988
0.000419988
0.000419988
0.000419988
0.000419988
0.000419988
0.000419988
0.000419988
0.000419988
0.000419988
0.000419988
0.000419988
0.000419988
0.000419988
0.000419988
0.000419988
0.000419988
0.000419988
0.000419988
0.000419988
0.000419988
0.000419988
0.000419988
0.000419988
0.000419988
0.000419988
0.000419988
0.000419988
0.000419988
0.000419988
0.000419988
0.000419988
0.000419988
0.000419988
0.000419988
0.000419988
0.000419988
0.000419988
0.000419988
0.000419988
0.000419988
0.000419988
0.000419988
0.000419988
0.000419988
0.000419988
0.000419988
0.000419988
0.000419988
0.000419988
0.000419988
0.000419988
0.000419988
0.000419988
0.000419988
0.000419988
0.000419988
0.000419988
0.000419988
0.000419988
0.000419988
0.000419988
0.000419988
0.000419988
0.000419988
0.000419988
0.000419988
0.000419988
0.000419988
0.000419988
0.000419988
0.000419988
0.000419988
0.000419988
0.000419988
0.000419988
0.000419988
0.000419988
0.000419988
0.000419988
0.000419988
0.000419988
0.000419988
0.000419988
0.000419988
0.000419988
0.000419988
0.000419988
0.000419988
0.000419988
0.000419988
0.000419988
0.000419988
0.000419988
0.000419988
0.000419988
0.000419988
0.000419988
0.000419988
0.000419988
0.000419988
0.000419988
0.000419988
0.000419988
0.000419988
0.000419988
0.000419988
0.000419988
0.000419988
0.000419988
0.000419988
0.000419988
0.000419988
0.000419988
0.000419988
0.000419988
0.000419988
0.000419988
0.000419988
0.000419988
0.000419988
0.000419988
0.000419988
0.000419988
0.000419988
0.000419988
0.000419988
0.000419988
0.000419988
0.000419988
0.000419988
0.000419988
0.000419988
0.000419988
0.000419988
0.000419988
0.000419988
0.000419988
0.000419988
0.000419988
0.000419988
0.000419988
0.000419988
0.000419988
0.000419988
0.000419988
0.000419988
0.000419988
0.000419988
0.000419988
0.000419988
0.000419988
0.000419988
0.000419988
0.000419988
0.000419988
0.000419988
0.000419988
0.000419988
0.000419988
0.000419988
0.000419988
0.000419988
0.000419988
0.000419988
0.000419988
0.000419988
0.000419988
0.000419988
0.000419988
0.000419988
0.000419988
0.000419988
0.000419988
0.000419988
0.000419988
0.000419988
0.000419988
0.000419988
0.000419988
0.000419988
0.000419988
0.000419988
0.000419988
0.000419988
0.000419988
0.000419988
0.000419988
0.000419988
0.000419988
0.000419988
0.000419988
0.000419988
0.000419988
0.000419988
0.000419988
0.000419988
0.000419988
0.000419988
0.000419988
0.000419988
0.000419988
0.000419988
0.000419988
0.000419988
0.000419988
0.000419988
0.000419988
0.000419988
0.000419988
0.000419988
0.000419988
0.000419988
0.000419988
0.000419988
0.000419988
0.000419988
0.000419988
0.000419988
0.000419988
0.000419988
0.000419988
0.000419988
0.000419988
0.000419988
0.000419988
0.000419988
0.000419988
0.000419988
0.000419988
0.000419988
0.000419988
0.000419988
0.000419988
0.000419988
0.000419988
0.000419988
0.000419988
0.000419988
0.000419988
0.000419988
0.000419988
0.000419988
0.000419988
0.000419988
0.000419988
0.000419988
0.000419988
0.000419988
0.000419988
0.000419988
0.000419988
0.000419988
0.000419988
0.000419988
0.000419988
0.000419988
0.000419988
0.000419988
0.000419988
0.000419988
0.000419988
0.000419988
0.000419988
0.000419988
0.000419988
0.000419988
0.000419988
0.000419988
0.000419988
0.000419988
0.000419988
0.000419988
0.000419988
0.000419988
0.000419988
0.000419988
0.000419988
0.000419988
0.000419988
0.000419988
0.000419988
0.000419988
0.000419988
0.000419988
0.000419988
0.000419988
0.000419988
0.000419988
0.000419988
0.000419988
0.000419988
0.000419988
0.000419988
0.000419988
0.000419988
0.000419988
0.000419988
0.000419988
0.000419988
0.000419988
0.000419988
0.000419988
0.000419988
0.000419988
0.000419988
0.000419988
0.000419988
0.000419988
0.000419988
0.000419988
0.000419988
0.000419988
0.000419988
0.000419988
0.000419988
0.000419988
0.000419988
0.000419988
0.000419988
0.000419988
0.000419988
0.000419988
0.000419988
0.000419988
0.000419988
0.000419988
0.000419988
0.000419988
0.000419988
0.000419988
0.000419988
0.000419988
0.000419988
0.000419988
0.000419988
0.000419988
0.000419988
0.000419988
0.000419988
0.000419988
0.000419988
0.000419988
0.000419988
0.000419988
0.000419988
0.000419988
0.000419988
0.000419988
0.000419988
0.000419988
0.000419988
0.000419988
0.000419988
0.000419988
0.000419988
0.000419988
0.000419988
0.000419988
0.000419988
0.000419988
0.000419988
0.000419988
0.000419988
0.000419988
0.000419988
0.000419988
0.000419988
0.000419988
0.000419988
0.000419988
0.000419988
0.000419988
0.000419988
0.000419988
0.000419988
0.000419988
0.000419988
0.000419988
0.000419988
0.000419988
0.000419988
0.000419988
0.000419988
0.000419988
0.000419988
0.000419988
0.000419988
0.000419988
0.000419988
0.000419988
0.000419988
0.000419988
0.000419988
0.000419988
0.000419989
0.000419989
0.000419989
0.000419989
0.000419989
0.000419989
0.000419989
0.000419989
0.000419989
0.000419989
0.000419989
0.000419989
0.000419988
0.000419989
0.000419989
0.000419989
0.000419989
0.000419989
0.000419989
0.000419989
0.000419989
0.000419989
0.000419989
0.000419989
0.000419989
0.000419989
0.000419989
0.000419989
0.000419989
0.000419989
0.000419989
0.000419989
0.000419989
0.00041999
0.00041999
0.00041999
0.00041999
0.00041999
0.00041999
0.000419989
0.000419989
0.000419989
0.00041999
0.00041999
0.00041999
0.00041999
0.00041999
0.00041999
0.00041999
0.000419991
0.000419991
0.000419991
0.000419991
0.000419991
0.000419991
0.000419991
0.000419991
0.000419992
0.000419992
0.000419992
0.000419992
0.000419992
0.000419992
0.000419992
0.000419992
0.000419992
0.000419991
0.000419992
0.000419992
0.000419992
0.000419992
0.000419993
0.000419993
0.000419993
0.000419994
0.000419994
0.000419994
0.000419995
0.000419995
0.000419995
0.000419996
0.000419996
0.000419996
0.000419996
0.000419996
0.000419997
0.000419997
0.000419997
0.000419997
0.000419997
0.000419997
0.000419997
0.000419997
0.000419997
0.000419997
0.000419997
0.000419998
0.000419998
0.000419999
0.00042
0.000420001
0.000420001
0.000420002
0.000420003
0.000420004
0.000420004
0.000420005
0.000420006
0.000420006
0.000420007
0.000420007
0.000420008
0.000420008
0.000420008
0.000420009
0.000420009
0.000420009
0.000420009
0.000420009
0.000420009
0.000420009
0.000420009
0.00042001
0.000420011
0.000420013
0.000420014
0.000420016
0.000420017
0.000420019
0.000420021
0.000420022
0.000420024
0.000420025
0.000420027
0.000420028
0.000420029
0.00042003
0.000420031
0.000420032
0.000420033
0.000420033
0.000420034
0.000420034
0.000420034
0.000420035
0.000420035
0.000420035
0.000420035
0.000420037
0.000420039
0.000420041
0.000420044
0.000420047
0.00042005
0.000420054
0.000420057
0.00042006
0.000420064
0.000420067
0.00042007
0.000420072
0.000420075
0.000420077
0.000420079
0.000420081
0.000420083
0.000420084
0.000420086
0.000420086
0.000420087
0.000420088
0.000420088
0.000420089
0.000420089
0.000420093
0.000420096
0.0004201
0.000420105
0.00042011
0.000420116
0.000420123
0.000420129
0.000420136
0.000420142
0.000420149
0.000420155
0.00042016
0.000420166
0.000420171
0.000420175
0.000420179
0.000420183
0.000420186
0.000420189
0.000420191
0.000420193
0.000420195
0.000420196
0.000420197
0.000420197
0.000420197
0.000420211
0.000420217
0.000420224
0.000420234
0.000420244
0.000420256
0.000420268
0.000420281
0.000420293
0.000420306
0.000420318
0.000420329
0.00042034
0.00042035
0.00042036
0.000420368
0.000420376
0.000420383
0.000420389
0.000420394
0.000420398
0.000420402
0.000420405
0.000420407
0.000420408
0.000420409
0.00042041
0.000420443
0.000420453
0.000420468
0.000420485
0.000420505
0.000420526
0.000420549
0.000420572
0.000420595
0.000420618
0.000420641
0.000420662
0.000420682
0.000420701
0.000420719
0.000420734
0.000420749
0.000420761
0.000420772
0.000420782
0.00042079
0.000420797
0.000420802
0.000420806
0.000420809
0.000420811
0.000420812
0.000420877
0.000420895
0.000420921
0.000420952
0.000420988
0.000421027
0.000421068
0.00042111
0.000421152
0.000421193
0.000421234
0.000421273
0.00042131
0.000421344
0.000421376
0.000421405
0.000421431
0.000421454
0.000421474
0.000421491
0.000421506
0.000421518
0.000421528
0.000421535
0.000421541
0.000421544
0.000421546
0.000421643
0.000421675
0.00042172
0.000421775
0.000421837
0.000421905
0.000421976
0.000422049
0.000422123
0.000422197
0.000422268
0.000422336
0.000422401
0.000422462
0.000422518
0.000422569
0.000422616
0.000422657
0.000422693
0.000422724
0.00042275
0.000422772
0.00042279
0.000422803
0.000422812
0.000422819
0.000422821
0.000422914
0.000422967
0.00042304
0.00042313
0.000423233
0.000423345
0.000423463
0.000423584
0.000423707
0.000423828
0.000423946
0.00042406
0.000424168
0.000424269
0.000424362
0.000424448
0.000424525
0.000424594
0.000424655
0.000424707
0.000424751
0.000424788
0.000424817
0.00042484
0.000424856
0.000424866
0.000424871
0.000424871
0.000424952
0.000425065
0.000425202
0.000425359
0.00042553
0.00042571
0.000425895
0.000426081
0.000426265
0.000426444
0.000426617
0.00042678
0.000426933
0.000427074
0.000427204
0.000427321
0.000427424
0.000427516
0.000427594
0.000427661
0.000427716
0.00042776
0.000427793
0.000427817
0.000427833
0.00042784
0.000427666
0.000427779
0.000427936
0.000428128
0.000428346
0.000428583
0.000428832
0.000429087
0.000429343
0.000429596
0.000429841
0.000430075
0.000430297
0.000430504
0.000430695
0.000430869
0.000431026
0.000431165
0.000431286
0.000431391
0.00043148
0.000431552
0.000431611
0.000431655
0.000431687
0.000431707
0.000431717
0.000431367
0.000431511
0.000431711
0.000431955
0.000432231
0.00043253
0.000432844
0.000433163
0.000433482
0.000433796
0.000434099
0.000434388
0.00043466
0.000434913
0.000435145
0.000435356
0.000435546
0.000435713
0.00043586
0.000435985
0.000436091
0.000436178
0.000436248
0.000436301
0.000436338
0.000436362
0.000436374
0.000435938
0.000436107
0.000436342
0.000436628
0.000436951
0.000437299
0.000437662
0.00043803
0.000438397
0.000438756
0.000439102
0.00043943
0.000439738
0.000440024
0.000440286
0.000440523
0.000440735
0.000440922
0.000441085
0.000441225
0.000441342
0.000441439
0.000441515
0.000441574
0.000441616
0.000441642
0.000441655
0.000441259
0.000441446
0.000441705
0.000442018
0.000442372
0.000442752
0.000443147
0.000443548
0.000443945
0.000444333
0.000444705
0.000445058
0.000445388
0.000445693
0.000445972
0.000446224
0.00044645
0.000446648
0.000446821
0.000446969
0.000447094
0.000447196
0.000447277
0.000447339
0.000447383
0.000447411
0.000447425
0.000447168
0.000447365
0.000447637
0.000447967
0.000448337
0.000448735
0.000449148
0.000449565
0.000449979
0.000450381
0.000450767
0.000451133
0.000451474
0.00045179
0.000452078
0.000452338
0.00045257
0.000452775
0.000452953
0.000453106
0.000453234
0.000453339
0.000453422
0.000453486
0.000453532
0.000453561
0.000453574
0.000453507
0.000453708
0.000453986
0.000454322
0.0004547
0.000455105
0.000455525
0.00045595
0.00045637
0.000456779
0.00045717
0.000457541
0.000457887
0.000458207
0.000458499
0.000458763
0.000458998
0.000459206
0.000459386
0.000459541
0.000459671
0.000459777
0.000459862
0.000459927
0.000459973
0.000460003
0.000460017
0.000460143
0.000460345
0.000460624
0.000460962
0.000461341
0.000461747
0.000462169
0.000462595
0.000463016
0.000463426
0.000463819
0.000464191
0.000464539
0.00046486
0.000465153
0.000465418
0.000465654
0.000465863
0.000466044
0.0004662
0.00046633
0.000466438
0.000466523
0.000466589
0.000466635
0.000466665
0.000466679
0.000466976
0.000467178
0.000467456
0.000467792
0.00046817
0.000468575
0.000468995
0.00046942
0.00046984
0.000470249
0.000470641
0.000471012
0.000471359
0.00047168
0.000471973
0.000472238
0.000472474
0.000472683
0.000472865
0.00047302
0.000473151
0.000473259
0.000473345
0.00047341
0.000473457
0.000473487
0.000473501
0.000473937
0.000474137
0.000474413
0.000474747
0.000475122
0.000475525
0.000475942
0.000476365
0.000476783
0.00047719
0.00047758
0.00047795
0.000478296
0.000478615
0.000478908
0.000479172
0.000479408
0.000479617
0.000479798
0.000479954
0.000480085
0.000480192
0.000480278
0.000480344
0.000480391
0.00048042
0.000480434
0.000480975
0.000481174
0.000481448
0.000481779
0.000482152
0.000482552
0.000482967
0.000483387
0.000483803
0.000484208
0.000484596
0.000484964
0.000485308
0.000485627
0.000485918
0.000486182
0.000486417
0.000486625
0.000486806
0.000486962
0.000487093
0.0004872
0.000487286
0.000487351
0.000487398
0.000487428
0.000487442
0.000488059
0.000488256
0.000488528
0.000488857
0.000489228
0.000489625
0.000490038
0.000490455
0.000490868
0.000491271
0.000491658
0.000492024
0.000492367
0.000492685
0.000492975
0.000493237
0.000493472
0.00049368
0.00049386
0.000494015
0.000494146
0.000494253
0.000494339
0.000494404
0.000494451
0.000494481
0.000494495
0.000495165
0.00049536
0.000495631
0.000495958
0.000496326
0.000496721
0.000497131
0.000497546
0.000497958
0.000498359
0.000498744
0.000499109
0.00049945
0.000499766
0.000500055
0.000500317
0.000500551
0.000500758
0.000500938
0.000501092
0.000501223
0.00050133
0.000501415
0.00050148
0.000501527
0.000501557
0.000501571
0.000502276
0.000502471
0.000502739
0.000503065
0.000503431
0.000503824
0.000504232
0.000504645
0.000505054
0.000505453
0.000505837
0.0005062
0.00050654
0.000506855
0.000507143
0.000507403
0.000507636
0.000507843
0.000508022
0.000508176
0.000508306
0.000508413
0.000508498
0.000508563
0.00050861
0.00050864
0.000508654
0.000509381
0.000509575
0.000509842
0.000510166
0.00051053
0.000510921
0.000511327
0.000511738
0.000512146
0.000512543
0.000512924
0.000513286
0.000513624
0.000513938
0.000514225
0.000514484
0.000514717
0.000514922
0.000515101
0.000515254
0.000515384
0.00051549
0.000515575
0.00051564
0.000515687
0.000515716
0.00051573
0.000516472
0.000516664
0.00051693
0.000517252
0.000517614
0.000518003
0.000518407
0.000518816
0.000519222
0.000519617
0.000519997
0.000520357
0.000520694
0.000521006
0.000521292
0.00052155
0.000521782
0.000521986
0.000522164
0.000522317
0.000522446
0.000522552
0.000522637
0.000522702
0.000522748
0.000522777
0.000522791
0.00052354
0.000523731
0.000523996
0.000524316
0.000524677
0.000525064
0.000525466
0.000525873
0.000526276
0.00052667
0.000527048
0.000527406
0.000527742
0.000528052
0.000528337
0.000528594
0.000528824
0.000529028
0.000529205
0.000529358
0.000529486
0.000529592
0.000529676
0.00052974
0.000529786
0.000529816
0.00052983
0.00053058
0.000530771
0.000531034
0.000531353
0.000531711
0.000532097
0.000532497
0.000532902
0.000533303
0.000533695
0.000534071
0.000534427
0.000534761
0.00053507
0.000535353
0.000535609
0.000535839
0.000536041
0.000536218
0.000536369
0.000536497
0.000536602
0.000536686
0.00053675
0.000536796
0.000536825
0.000536839
0.000537589
0.000537779
0.000538041
0.000538358
0.000538714
0.000539097
0.000539495
0.000539898
0.000540298
0.000540687
0.000541061
0.000541416
0.000541748
0.000542055
0.000542337
0.000542592
0.00054282
0.000543021
0.000543197
0.000543348
0.000543475
0.00054358
0.000543663
0.000543727
0.000543772
0.000543801
0.000543815
0.000544563
0.000544751
0.000545012
0.000545327
0.000545682
0.000546063
0.000546458
0.000546859
0.000547256
0.000547643
0.000548015
0.000548368
0.000548698
0.000549004
0.000549284
0.000549538
0.000549764
0.000549965
0.00055014
0.00055029
0.000550416
0.00055052
0.000550603
0.000550666
0.000550712
0.000550741
0.000550754
0.000551498
0.000551685
0.000551944
0.000552257
0.00055261
0.000552989
0.000553382
0.00055378
0.000554175
0.00055456
0.00055493
0.000555281
0.000555609
0.000555913
0.000556192
0.000556444
0.000556669
0.000556868
0.000557042
0.000557191
0.000557317
0.00055742
0.000557503
0.000557566
0.000557611
0.00055764
0.000557653
0.000558391
0.000558578
0.000558835
0.000559146
0.000559497
0.000559873
0.000560264
0.00056066
0.000561053
0.000561435
0.000561803
0.000562152
0.000562478
0.00056278
0.000563057
0.000563307
0.000563531
0.000563729
0.000563902
0.00056405
0.000564175
0.000564278
0.00056436
0.000564422
0.000564467
0.000564496
0.000564509
0.000565242
0.000565426
0.000565682
0.000565992
0.00056634
0.000566714
0.000567102
0.000567496
0.000567886
0.000568266
0.000568631
0.000568978
0.000569302
0.000569602
0.000569877
0.000570126
0.000570349
0.000570545
0.000570717
0.000570864
0.000570988
0.00057109
0.000571172
0.000571234
0.000571279
0.000571307
0.00057132
0.000572046
0.00057223
0.000572484
0.000572791
0.000573137
0.000573509
0.000573895
0.000574285
0.000574673
0.00057505
0.000575413
0.000575757
0.000576079
0.000576378
0.000576651
0.000576898
0.000577119
0.000577314
0.000577485
0.000577631
0.000577754
0.000577856
0.000577937
0.000577998
0.000578043
0.000578071
0.000578084
0.000578803
0.000578985
0.000579237
0.000579543
0.000579886
0.000580255
0.000580639
0.000581027
0.000581411
0.000581786
0.000582147
0.000582488
0.000582808
0.000583104
0.000583375
0.000583621
0.00058384
0.000584035
0.000584204
0.000584349
0.000584471
0.000584572
0.000584652
0.000584714
0.000584758
0.000584786
0.000584799
0.00058551
0.000585691
0.000585942
0.000586245
0.000586586
0.000586952
0.000587333
0.000587718
0.0005881
0.000588472
0.00058883
0.000589169
0.000589487
0.000589781
0.00059005
0.000590293
0.000590511
0.000590704
0.000590872
0.000591016
0.000591138
0.000591238
0.000591317
0.000591378
0.000591422
0.00059145
0.000591463
0.000592166
0.000592346
0.000592594
0.000592895
0.000593234
0.000593598
0.000593975
0.000594357
0.000594737
0.000595106
0.000595461
0.000595798
0.000596113
0.000596405
0.000596672
0.000596913
0.00059713
0.000597321
0.000597488
0.000597631
0.000597751
0.00059785
0.000597929
0.00059799
0.000598033
0.000598061
0.000598074
0.000598769
0.000598948
0.000599194
0.000599493
0.000599829
0.000600189
0.000600564
0.000600943
0.000601319
0.000601686
0.000602038
0.000602372
0.000602685
0.000602974
0.000603239
0.000603479
0.000603694
0.000603883
0.000604049
0.000604191
0.00060431
0.000604408
0.000604487
0.000604547
0.00060459
0.000604617
0.00060463
0.000605317
0.000605494
0.000605739
0.000606035
0.000606368
0.000606726
0.000607097
0.000607473
0.000607846
0.00060821
0.000608559
0.00060889
0.000609201
0.000609488
0.00060975
0.000609988
0.000610201
0.000610389
0.000610553
0.000610694
0.000610812
0.00061091
0.000610988
0.000611047
0.00061109
0.000611117
0.00061113
0.000611808
0.000611983
0.000612226
0.000612519
0.00061285
0.000613204
0.000613573
0.000613946
0.000614315
0.000614676
0.000615022
0.00061535
0.000615658
0.000615942
0.000616203
0.000616438
0.000616649
0.000616836
0.000616998
0.000617138
0.000617255
0.000617352
0.000617429
0.000617488
0.00061753
0.000617557
0.00061757
0.000618239
0.000618413
0.000618653
0.000618944
0.000619271
0.000619623
0.000619988
0.000620357
0.000620724
0.000621081
0.000621424
0.000621749
0.000622054
0.000622336
0.000622594
0.000622827
0.000623036
0.000623221
0.000623382
0.00062352
0.000623636
0.000623732
0.000623809
0.000623867
0.000623909
0.000623936
0.000623948
0.000624607
0.000624779
0.000625017
0.000625305
0.00062563
0.000625978
0.000626339
0.000626705
0.000627068
0.000627422
0.000627762
0.000628084
0.000628385
0.000628664
0.00062892
0.000629151
0.000629358
0.000629541
0.0006297
0.000629837
0.000629952
0.000630047
0.000630123
0.000630181
0.000630222
0.000630248
0.000630261
0.00063091
0.00063108
0.000631315
0.000631601
0.000631921
0.000632266
0.000632624
0.000632986
0.000633345
0.000633695
0.000634031
0.00063435
0.000634648
0.000634924
0.000635177
0.000635406
0.000635611
0.000635792
0.000635949
0.000636085
0.000636199
0.000636293
0.000636367
0.000636425
0.000636466
0.000636492
0.000636504
0.000637142
0.00063731
0.000637543
0.000637825
0.000638142
0.000638483
0.000638837
0.000639195
0.00063955
0.000639896
0.000640228
0.000640543
0.000640838
0.000641111
0.000641361
0.000641587
0.00064179
0.000641969
0.000642125
0.000642258
0.000642371
0.000642464
0.000642538
0.000642594
0.000642635
0.000642661
0.000642673
0.000643298
0.000643465
0.000643695
0.000643973
0.000644287
0.000644623
0.000644973
0.000645326
0.000645677
0.000646019
0.000646347
0.000646658
0.00064695
0.000647219
0.000647466
0.000647689
0.000647889
0.000648066
0.00064822
0.000648352
0.000648463
0.000648555
0.000648628
0.000648684
0.000648724
0.000648749
0.000648761
0.000649373
0.000649537
0.000649764
0.000650039
0.000650348
0.000650681
0.000651025
0.000651374
0.00065172
0.000652057
0.000652381
0.000652688
0.000652975
0.000653241
0.000653485
0.000653705
0.000653902
0.000654076
0.000654228
0.000654358
0.000654468
0.000654558
0.00065463
0.000654685
0.000654725
0.00065475
0.000654762
0.000655359
0.000655521
0.000655745
0.000656015
0.00065632
0.000656647
0.000656987
0.00065733
0.000657671
0.000658003
0.000658322
0.000658624
0.000658907
0.000659169
0.000659409
0.000659626
0.00065982
0.000659991
0.000660141
0.000660269
0.000660377
0.000660466
0.000660537
0.000660591
0.00066063
0.000660654
0.000660666
0.000661247
0.000661406
0.000661626
0.000661892
0.000662192
0.000662513
0.000662847
0.000663185
0.00066352
0.000663847
0.00066416
0.000664457
0.000664735
0.000664992
0.000665228
0.000665441
0.000665632
0.0006658
0.000665947
0.000666073
0.000666179
0.000666266
0.000666336
0.000666389
0.000666427
0.000666452
0.000666463
0.000667025
0.000667182
0.000667397
0.000667659
0.000667953
0.000668268
0.000668596
0.000668927
0.000669255
0.000669576
0.000669883
0.000670174
0.000670447
0.000670699
0.00067093
0.000671139
0.000671326
0.000671491
0.000671635
0.000671758
0.000671862
0.000671948
0.000672016
0.000672068
0.000672105
0.000672129
0.00067214
0.000672682
0.000672835
0.000673046
0.000673301
0.000673589
0.000673898
0.000674218
0.000674542
0.000674863
0.000675176
0.000675477
0.000675761
0.000676028
0.000676274
0.0006765
0.000676704
0.000676887
0.000677048
0.000677189
0.000677309
0.000677411
0.000677494
0.000677561
0.000677612
0.000677649
0.000677672
0.000677683
0.000678201
0.00067835
0.000678555
0.000678805
0.000679085
0.000679386
0.000679698
0.000680014
0.000680327
0.000680632
0.000680924
0.000681202
0.000681461
0.000681701
0.000681921
0.00068212
0.000682297
0.000682455
0.000682591
0.000682709
0.000682808
0.000682889
0.000682954
0.000683003
0.000683039
0.000683061
0.000683072
0.000683563
0.000683708
0.000683908
0.00068415
0.000684422
0.000684714
0.000685017
0.000685323
0.000685627
0.000685923
0.000686207
0.000686476
0.000686727
0.00068696
0.000687173
0.000687365
0.000687538
0.00068769
0.000687822
0.000687936
0.000688032
0.000688111
0.000688173
0.000688222
0.000688256
0.000688278
0.000688288
0.000688749
0.000688889
0.000689082
0.000689316
0.000689579
0.000689861
0.000690153
0.000690449
0.000690742
0.000691027
0.000691301
0.00069156
0.000691803
0.000692027
0.000692232
0.000692418
0.000692584
0.000692731
0.000692858
0.000692968
0.00069306
0.000693136
0.000693197
0.000693243
0.000693276
0.000693297
0.000693307
0.000693735
0.000693869
0.000694054
0.000694278
0.000694531
0.000694801
0.000695082
0.000695365
0.000695646
0.000695919
0.000696182
0.00069643
0.000696663
0.000696877
0.000697074
0.000697252
0.00069741
0.000697551
0.000697673
0.000697778
0.000697866
0.000697938
0.000697996
0.000698041
0.000698072
0.000698092
0.000698102
0.000698492
0.00069862
0.000698797
0.00069901
0.000699251
0.000699508
0.000699775
0.000700045
0.000700312
0.000700572
0.000700821
0.000701057
0.000701278
0.000701482
0.000701669
0.000701837
0.000701988
0.000702121
0.000702237
0.000702337
0.00070242
0.000702489
0.000702544
0.000702586
0.000702616
0.000702635
0.000702644
0.000702994
0.000703114
0.000703281
0.000703483
0.000703709
0.000703952
0.000704203
0.000704458
0.000704709
0.000704954
0.000705189
0.000705411
0.000705619
0.000705811
0.000705986
0.000706145
0.000706286
0.000706411
0.00070652
0.000706614
0.000706692
0.000706757
0.000706808
0.000706848
0.000706876
0.000706894
0.000706902
0.000707208
0.00070732
0.000707476
0.000707664
0.000707875
0.000708102
0.000708336
0.000708573
0.000708807
0.000709035
0.000709254
0.00070946
0.000709653
0.000709832
0.000709995
0.000710142
0.000710273
0.00071039
0.000710491
0.000710577
0.00071065
0.00071071
0.000710758
0.000710794
0.00071082
0.000710837
0.000710845
0.000711104
0.000711207
0.000711351
0.000711524
0.000711718
0.000711926
0.000712142
0.00071236
0.000712575
0.000712784
0.000712984
0.000713174
0.000713351
0.000713514
0.000713663
0.000713798
0.000713918
0.000714025
0.000714117
0.000714196
0.000714263
0.000714318
0.000714361
0.000714395
0.000714418
0.000714434
0.000714441
0.000714651
0.000714745
0.000714875
0.000715032
0.000715208
0.000715396
0.000715591
0.000715788
0.000715982
0.000716171
0.000716352
0.000716523
0.000716682
0.000716829
0.000716964
0.000717085
0.000717193
0.000717289
0.000717372
0.000717443
0.000717503
0.000717552
0.000717591
0.000717621
0.000717642
0.000717656
0.000717662
0.000717824
0.000717908
0.000718024
0.000718163
0.000718319
0.000718486
0.000718659
0.000718834
0.000719006
0.000719173
0.000719333
0.000719484
0.000719624
0.000719754
0.000719873
0.000719979
0.000720075
0.000720159
0.000720232
0.000720294
0.000720347
0.00072039
0.000720425
0.000720451
0.00072047
0.000720482
0.000720487
0.000720603
0.000720676
0.000720776
0.000720897
0.000721033
0.000721178
0.000721328
0.000721479
0.000721628
0.000721772
0.00072191
0.00072204
0.000722161
0.000722273
0.000722375
0.000722467
0.000722549
0.000722621
0.000722684
0.000722737
0.000722782
0.000722819
0.000722849
0.000722871
0.000722887
0.000722898
0.000722903
0.000722976
0.000723038
0.000723123
0.000723225
0.000723339
0.000723462
0.000723588
0.000723715
0.00072384
0.000723962
0.000724078
0.000724187
0.000724288
0.000724382
0.000724467
0.000724544
0.000724612
0.000724672
0.000724724
0.000724769
0.000724807
0.000724837
0.000724862
0.000724881
0.000724894
0.000724903
0.000724907
0.000724944
0.000724995
0.000725064
0.000725148
0.000725242
0.000725342
0.000725445
0.000725549
0.00072565
0.000725749
0.000725843
0.000725932
0.000726014
0.000726089
0.000726158
0.00072622
0.000726275
0.000726324
0.000726366
0.000726402
0.000726432
0.000726457
0.000726477
0.000726492
0.000726502
0.000726509
0.000726512
0.000726522
0.000726561
0.000726617
0.000726683
0.000726757
0.000726835
0.000726916
0.000726998
0.000727078
0.000727155
0.000727228
0.000727297
0.000727361
0.00072742
0.000727474
0.000727522
0.000727565
0.000727602
0.000727635
0.000727662
0.000727686
0.000727705
0.00072772
0.000727732
0.00072774
0.000727745
0.000727748
0.000727737
0.000727768
0.000727809
0.00072786
0.000727915
0.000727975
0.000728036
0.000728097
0.000728157
0.000728215
0.00072827
0.000728321
0.000728369
0.000728413
0.000728452
0.000728488
0.00072852
0.000728547
0.000728571
0.000728592
0.000728609
0.000728623
0.000728634
0.000728643
0.000728649
0.000728653
0.000728655
0.000728634
0.000728656
0.000728686
0.000728722
0.000728762
0.000728805
0.000728849
0.000728893
0.000728935
0.000728977
0.000729016
0.000729052
0.000729086
0.000729117
0.000729145
0.00072917
0.000729192
0.000729212
0.000729229
0.000729243
0.000729255
0.000729265
0.000729273
0.000729279
0.000729283
0.000729286
0.000729287
0.000729264
0.000729279
0.000729299
0.000729324
0.000729351
0.000729381
0.00072941
0.00072944
0.000729469
0.000729497
0.000729523
0.000729548
0.00072957
0.000729591
0.00072961
0.000729627
0.000729642
0.000729654
0.000729666
0.000729675
0.000729683
0.00072969
0.000729695
0.000729699
0.000729702
0.000729704
0.000729704
0.000729683
0.000729693
0.000729706
0.000729722
0.00072974
0.000729759
0.000729778
0.000729797
0.000729816
0.000729834
0.00072985
0.000729866
0.00072988
0.000729894
0.000729905
0.000729916
0.000729925
0.000729934
0.000729941
0.000729947
0.000729952
0.000729956
0.000729959
0.000729962
0.000729963
0.000729964
0.000729965
0.000729949
0.000729955
0.000729963
0.000729973
0.000729984
0.000729996
0.000730007
0.000730019
0.00073003
0.000730041
0.000730051
0.000730061