/*--------------------------------*- C++ -*----------------------------------*\
| =========                 |                                                 |
| \\      /  F ield         | OpenFOAM: The Open Source CFD Toolbox           |
|  \\    /   O peration     | Version:  2106                                  |
|   \\  /    A nd           | Website:  www.openfoam.com                      |
|    \\/     M anipulation  |                                                 |
\*---------------------------------------------------------------------------*/
FoamFile
{
    version     2.0;
    format      ascii;
    arch        "LSB;label=32;scalar=64";
    class       volScalarField;
    location    "150.00049";
    object      CO_0;
}
// * * * * * * * * * * * * * * * * * * * * * * * * * * * * * * * * * * * * * //

dimensions      [0 0 0 0 0 0 0];

internalField   nonuniform List<scalar> 
3360
(
9.60781e-19
9.917e-19
1.03473e-18
1.08736e-18
1.1474e-18
1.21288e-18
1.28202e-18
1.35322e-18
1.42504e-18
1.49622e-18
1.56568e-18
1.63247e-18
1.69584e-18
1.75517e-18
1.81e-18
1.86e-18
1.90497e-18
1.94483e-18
1.9796e-18
2.00937e-18
2.03433e-18
2.05471e-18
2.07081e-18
2.08296e-18
2.0915e-18
2.09682e-18
2.09929e-18
4.21471e-18
4.36963e-18
4.58825e-18
4.8605e-18
5.17804e-18
5.53361e-18
5.9207e-18
6.33337e-18
6.76608e-18
7.2136e-18
7.67091e-18
8.13313e-18
8.59543e-18
9.05307e-18
9.50137e-18
9.93574e-18
1.03517e-17
1.07448e-17
1.11109e-17
1.14461e-17
1.17468e-17
1.20099e-17
1.22325e-17
1.24125e-17
1.25484e-17
1.26391e-17
1.26844e-17
1.32247e-17
1.38051e-17
1.46299e-17
1.56662e-17
1.68871e-17
1.8268e-17
1.97857e-17
2.14174e-17
2.314e-17
2.49298e-17
2.67627e-17
2.86147e-17
3.0462e-17
3.22813e-17
3.40498e-17
3.5746e-17
3.735e-17
3.8844e-17
4.02123e-17
4.14423e-17
4.25238e-17
4.345e-17
4.42167e-17
4.48227e-17
4.52695e-17
4.55609e-17
4.57027e-17
3.85149e-17
4.04279e-17
4.31645e-17
4.66269e-17
5.07331e-17
5.54066e-17
6.05707e-17
6.61459e-17
7.20489e-17
7.81922e-17
8.44852e-17
9.08359e-17
9.71529e-17
1.03347e-16
1.09334e-16
1.15036e-16
1.20385e-16
1.25321e-16
1.29799e-16
1.33782e-16
1.37247e-16
1.40183e-16
1.42588e-16
1.44469e-16
1.45841e-16
1.46727e-16
1.47155e-16
1.12528e-16
1.18564e-16
1.27213e-16
1.38183e-16
1.5122e-16
1.66085e-16
1.8253e-16
2.00291e-16
2.1909e-16
2.38632e-16
2.5861e-16
2.78719e-16
2.98655e-16
3.18131e-16
3.3688e-16
3.54663e-16
3.71274e-16
3.86543e-16
4.00337e-16
4.12563e-16
4.23162e-16
4.32112e-16
4.3942e-16
4.4512e-16
4.49268e-16
4.51941e-16
4.53227e-16
3.31788e-16
3.50321e-16
3.76918e-16
4.10676e-16
4.50821e-16
4.96606e-16
5.47258e-16
6.01951e-16
6.59805e-16
7.19894e-16
7.81261e-16
8.42948e-16
9.04017e-16
9.6358e-16
1.02082e-15
1.07501e-15
1.12554e-15
1.1719e-15
1.21371e-15
1.2507e-15
1.28271e-15
1.3097e-15
1.3317e-15
1.34884e-15
1.3613e-15
1.36932e-15
1.37317e-15
9.8559e-16
1.04191e-15
1.12272e-15
1.2253e-15
1.34728e-15
1.48637e-15
1.64017e-15
1.80615e-15
1.98159e-15
2.16366e-15
2.34944e-15
2.536e-15
2.72051e-15
2.90029e-15
3.0729e-15
3.23618e-15
3.38829e-15
3.52775e-15
3.65344e-15
3.76457e-15
3.86072e-15
3.94173e-15
4.00777e-15
4.05918e-15
4.09654e-15
4.12058e-15
4.13214e-15
2.93737e-15
3.10683e-15
3.35013e-15
3.65904e-15
4.02649e-15
4.44553e-15
4.90893e-15
5.40898e-15
5.93747e-15
6.48579e-15
7.04509e-15
7.60657e-15
8.16167e-15
8.70232e-15
9.22118e-15
9.71177e-15
1.01686e-14
1.05872e-14
1.09644e-14
1.12977e-14
1.15859e-14
1.18287e-14
1.20265e-14
1.21804e-14
1.22923e-14
1.23642e-14
1.23988e-14
8.77739e-15
9.28668e-15
1.00177e-14
1.09458e-14
1.20496e-14
1.33081e-14
1.46995e-14
1.62006e-14
1.77865e-14
1.94313e-14
2.11085e-14
2.27916e-14
2.4455e-14
2.60746e-14
2.76284e-14
2.90972e-14
3.04646e-14
3.17174e-14
3.28458e-14
3.3843e-14
3.47052e-14
3.54315e-14
3.60231e-14
3.64835e-14
3.68181e-14
3.70332e-14
3.71366e-14
2.62285e-14
2.77537e-14
2.99435e-14
3.27237e-14
3.60303e-14
3.98003e-14
4.39683e-14
4.84643e-14
5.32139e-14
5.81392e-14
6.31607e-14
6.81989e-14
7.31771e-14
7.80232e-14
8.26715e-14
8.70644e-14
9.1153e-14
9.48982e-14
9.82705e-14
1.0125e-13
1.03826e-13
1.05994e-13
1.07761e-13
1.09135e-13
1.10134e-13
1.10775e-13
1.11084e-13
7.84101e-14
8.29756e-14
8.95288e-14
9.78473e-14
1.07738e-13
1.19013e-13
1.31475e-13
1.44913e-13
1.59104e-13
1.73816e-13
1.8881e-13
2.03849e-13
2.18704e-13
2.3316e-13
2.47022e-13
2.60119e-13
2.72305e-13
2.83466e-13
2.93513e-13
3.02389e-13
3.1006e-13
3.16519e-13
3.21778e-13
3.25871e-13
3.28843e-13
3.30754e-13
3.31672e-13
2.34165e-13
2.47794e-13
2.67354e-13
2.92181e-13
3.21695e-13
3.55329e-13
3.92492e-13
4.32555e-13
4.7485e-13
5.1868e-13
5.63334e-13
6.08104e-13
6.52311e-13
6.95313e-13
7.36533e-13
7.75461e-13
8.1167e-13
8.44819e-13
8.74651e-13
9.00993e-13
9.23754e-13
9.42911e-13
9.58507e-13
9.70639e-13
9.79447e-13
9.8511e-13
9.8783e-13
6.98486e-13
7.39096e-13
7.97359e-13
8.71275e-13
9.59102e-13
1.05914e-12
1.1696e-12
1.28861e-12
1.41416e-12
1.54418e-12
1.67656e-12
1.8092e-12
1.94008e-12
2.06731e-12
2.18919e-12
2.30424e-12
2.41119e-12
2.50905e-12
2.59708e-12
2.67478e-12
2.74188e-12
2.79835e-12
2.8443e-12
2.88003e-12
2.90597e-12
2.92264e-12
2.93065e-12
2.07719e-12
2.19763e-12
2.37036e-12
2.58939e-12
2.84949e-12
3.14554e-12
3.4722e-12
3.82384e-12
4.19451e-12
4.57803e-12
4.96813e-12
5.35864e-12
5.74361e-12
6.11753e-12
6.4754e-12
6.81289e-12
7.12638e-12
7.413e-12
7.67061e-12
7.89784e-12
8.09396e-12
8.25887e-12
8.393e-12
8.49726e-12
8.5729e-12
8.62149e-12
8.64482e-12
6.1542e-12
6.50939e-12
7.01847e-12
7.66347e-12
8.42866e-12
9.29862e-12
1.02574e-11
1.12881e-11
1.23732e-11
1.34943e-11
1.46331e-11
1.57715e-11
1.68921e-11
1.79792e-11
1.90182e-11
1.99968e-11
2.09048e-11
2.1734e-11
2.24785e-11
2.31346e-11
2.37003e-11
2.41757e-11
2.4562e-11
2.48621e-11
2.50797e-11
2.52195e-11
2.52865e-11
1.81253e-11
1.91628e-11
2.06487e-11
2.25292e-11
2.47571e-11
2.72863e-11
3.00692e-11
3.30558e-11
3.61941e-11
3.94306e-11
4.27121e-11
4.59862e-11
4.92035e-11
5.23186e-11
5.5291e-11
5.80859e-11
6.06748e-11
6.30354e-11
6.5152e-11
6.70146e-11
6.86188e-11
6.9965e-11
7.1058e-11
7.19062e-11
7.25206e-11
7.29148e-11
7.31039e-11
5.29693e-11
5.59619e-11
6.02423e-11
6.56508e-11
7.20466e-11
7.92919e-11
8.72457e-11
9.57612e-11
1.04687e-10
1.13869e-10
1.23154e-10
1.32396e-10
1.41454e-10
1.50204e-10
1.58534e-10
1.66349e-10
1.73572e-10
1.80146e-10
1.86029e-10
1.91198e-10
1.95642e-10
1.99366e-10
2.02385e-10
2.04726e-10
2.06419e-10
2.07505e-10
2.08025e-10
1.53182e-10
1.61661e-10
1.73769e-10
1.89036e-10
2.07045e-10
2.27389e-10
2.49656e-10
2.73419e-10
2.98246e-10
3.23702e-10
3.49361e-10
3.74815e-10
3.99688e-10
4.23639e-10
4.46373e-10
4.67644e-10
4.87254e-10
5.05057e-10
5.20953e-10
5.34888e-10
5.46847e-10
5.56851e-10
5.64949e-10
5.71217e-10
5.75746e-10
5.78646e-10
5.80034e-10
4.37007e-10
4.60475e-10
4.93916e-10
5.35966e-10
5.85408e-10
6.41061e-10
7.01739e-10
7.6624e-10
8.33353e-10
9.01887e-10
9.70688e-10
1.03867e-09
1.10485e-09
1.16835e-09
1.22841e-09
1.28442e-09
1.3359e-09
1.3825e-09
1.42401e-09
1.4603e-09
1.49138e-09
1.51732e-09
1.53829e-09
1.55449e-09
1.56618e-09
1.57365e-09
1.57723e-09
1.22502e-09
1.28805e-09
1.37763e-09
1.48989e-09
1.62137e-09
1.76873e-09
1.92866e-09
2.09786e-09
2.27307e-09
2.45114e-09
2.62908e-09
2.80411e-09
2.97376e-09
3.13586e-09
3.2886e-09
3.43051e-09
3.56051e-09
3.67782e-09
3.782e-09
3.87285e-09
3.95047e-09
4.01513e-09
4.06727e-09
4.10748e-09
4.13646e-09
4.15496e-09
4.1638e-09
3.35923e-09
3.52238e-09
3.75355e-09
4.04215e-09
4.37864e-09
4.75392e-09
5.15911e-09
5.58552e-09
6.02475e-09
6.46882e-09
6.91031e-09
7.34248e-09
7.75942e-09
8.15607e-09
8.52829e-09
8.87283e-09
9.18733e-09
9.47022e-09
9.72068e-09
9.93855e-09
1.01242e-08
1.02785e-08
1.04027e-08
1.04984e-08
1.05672e-08
1.0611e-08
1.06319e-08
8.96557e-09
9.37009e-09
9.94143e-09
1.06517e-08
1.14759e-08
1.23904e-08
1.33724e-08
1.44002e-08
1.54531e-08
1.65119e-08
1.75591e-08
1.85793e-08
1.9559e-08
2.04869e-08
2.13542e-08
2.21541e-08
2.28817e-08
2.35341e-08
2.41101e-08
2.46098e-08
2.50347e-08
2.53871e-08
2.56702e-08
2.58878e-08
2.60442e-08
2.61437e-08
2.61911e-08
2.31744e-08
2.4131e-08
2.54777e-08
2.7145e-08
2.90707e-08
3.11963e-08
3.34669e-08
3.58307e-08
3.82396e-08
4.06498e-08
4.30221e-08
4.53224e-08
4.7522e-08
4.95971e-08
5.15294e-08
5.33053e-08
5.49158e-08
5.63558e-08
5.76238e-08
5.87214e-08
5.96526e-08
6.04235e-08
6.10418e-08
6.15163e-08
6.18568e-08
6.20733e-08
6.21763e-08
5.77669e-08
5.99209e-08
6.29445e-08
6.66739e-08
7.09626e-08
7.56749e-08
8.06846e-08
8.58752e-08
9.11403e-08
9.63847e-08
1.01525e-07
1.06489e-07
1.11217e-07
1.15663e-07
1.1979e-07
1.23571e-07
1.26991e-07
1.30042e-07
1.32722e-07
1.35038e-07
1.36998e-07
1.38619e-07
1.39917e-07
1.40912e-07
1.41625e-07
1.42078e-07
1.42294e-07
1.3849e-07
1.43118e-07
1.49597e-07
1.57563e-07
1.66691e-07
1.76682e-07
1.87262e-07
1.9818e-07
2.09214e-07
2.20163e-07
2.30857e-07
2.41151e-07
2.50927e-07
2.60093e-07
2.68578e-07
2.76335e-07
2.83336e-07
2.89568e-07
2.95034e-07
2.99748e-07
3.03735e-07
3.07026e-07
3.09659e-07
3.11675e-07
3.13118e-07
3.14034e-07
3.1447e-07
3.19059e-07
3.2859e-07
3.41908e-07
3.58243e-07
3.76909e-07
3.97279e-07
4.18785e-07
4.40914e-07
4.6321e-07
4.85275e-07
5.06769e-07
5.27408e-07
5.46965e-07
5.6526e-07
5.82166e-07
5.97593e-07
6.11493e-07
6.23849e-07
6.34672e-07
6.43995e-07
6.5187e-07
6.58365e-07
6.63556e-07
6.67528e-07
6.7037e-07
6.72173e-07
6.73029e-07
7.06983e-07
7.25942e-07
7.524e-07
7.84797e-07
8.21747e-07
8.61992e-07
9.04394e-07
9.47938e-07
9.91726e-07
1.03498e-06
1.07704e-06
1.11737e-06
1.15552e-06
1.19116e-06
1.22406e-06
1.25404e-06
1.28103e-06
1.30499e-06
1.32596e-06
1.34401e-06
1.35925e-06
1.37181e-06
1.38184e-06
1.38951e-06
1.395e-06
1.39848e-06
1.40013e-06
1.50918e-06
1.54593e-06
1.59719e-06
1.65989e-06
1.73135e-06
1.80911e-06
1.89096e-06
1.97494e-06
2.05933e-06
2.14264e-06
2.22359e-06
2.30116e-06
2.37452e-06
2.44302e-06
2.50622e-06
2.56381e-06
2.61562e-06
2.66163e-06
2.70189e-06
2.73653e-06
2.76577e-06
2.78987e-06
2.80912e-06
2.82383e-06
2.83436e-06
2.84103e-06
2.8442e-06
3.10694e-06
3.17693e-06
3.27456e-06
3.39404e-06
3.53024e-06
3.67852e-06
3.83473e-06
3.99513e-06
4.15647e-06
4.31591e-06
4.47105e-06
4.61991e-06
4.7609e-06
4.89276e-06
5.01462e-06
5.12586e-06
5.22614e-06
5.31534e-06
5.39354e-06
5.46097e-06
5.51801e-06
5.5651e-06
5.60279e-06
5.63167e-06
5.65236e-06
5.66551e-06
5.67176e-06
6.16135e-06
6.29268e-06
6.47608e-06
6.70089e-06
6.95767e-06
7.23793e-06
7.53398e-06
7.83897e-06
8.14683e-06
8.45226e-06
8.75072e-06
9.0384e-06
9.31217e-06
9.56955e-06
9.80867e-06
1.00282e-05
1.02271e-05
1.04052e-05
1.05622e-05
1.06985e-05
1.08144e-05
1.09107e-05
1.09883e-05
1.10481e-05
1.10912e-05
1.11188e-05
1.11319e-05
1.17181e-05
1.19584e-05
1.22946e-05
1.27078e-05
1.31812e-05
1.36998e-05
1.42499e-05
1.48193e-05
1.5397e-05
1.59734e-05
1.654e-05
1.70896e-05
1.76161e-05
1.81144e-05
1.85806e-05
1.90116e-05
1.94052e-05
1.97599e-05
2.0075e-05
2.03503e-05
2.05863e-05
2.07837e-05
2.09437e-05
2.10679e-05
2.1158e-05
2.1216e-05
2.12439e-05
2.12232e-05
2.16409e-05
2.22259e-05
2.29461e-05
2.37729e-05
2.46809e-05
2.56466e-05
2.66492e-05
2.76695e-05
2.86908e-05
2.96981e-05
3.06785e-05
3.16207e-05
3.25154e-05
3.33552e-05
3.41338e-05
3.48469e-05
3.54914e-05
3.60654e-05
3.65681e-05
3.69999e-05
3.7362e-05
3.76561e-05
3.78847e-05
3.80509e-05
3.8158e-05
3.82096e-05
3.63195e-05
3.6986e-05
3.79193e-05
3.90673e-05
4.03842e-05
4.18288e-05
4.33634e-05
4.49542e-05
4.65707e-05
4.81857e-05
4.97754e-05
5.13192e-05
5.27994e-05
5.42016e-05
5.5514e-05
5.67276e-05
5.78359e-05
5.88345e-05
5.97212e-05
6.04956e-05
6.11586e-05
6.17129e-05
6.21618e-05
6.25097e-05
6.27619e-05
6.2924e-05
6.30019e-05
5.83511e-05
5.93052e-05
6.0638e-05
6.22723e-05
6.41401e-05
6.618e-05
6.83368e-05
7.05609e-05
7.28085e-05
7.5041e-05
7.72254e-05
7.93337e-05
8.13426e-05
8.32336e-05
8.49925e-05
8.66088e-05
8.80758e-05
8.93896e-05
9.05493e-05
9.15562e-05
9.24136e-05
9.31263e-05
9.37006e-05
9.41436e-05
9.44631e-05
9.46675e-05
9.47653e-05
8.77675e-05
8.89871e-05
9.06852e-05
9.27587e-05
9.51163e-05
9.76764e-05
0.000100366
0.000103121
0.000105886
0.000108613
0.000111262
0.0001138
0.000116201
0.000118445
0.000120517
0.000122409
0.000124114
0.000125632
0.000126964
0.000128113
0.000129086
0.000129891
0.000130536
0.000131032
0.000131387
0.000131614
0.000131721
0.000123874
0.000125285
0.000127243
0.000129624
0.000132318
0.000135227
0.000138266
0.00014136
0.000144445
0.000147468
0.000150386
0.000153164
0.000155776
0.000158203
0.000160432
0.000162455
0.000164269
0.000165875
0.000167278
0.000168483
0.0001695
0.000170337
0.000171005
0.000171517
0.000171883
0.000172115
0.000172225
0.00016515
0.000166661
0.000168752
0.000171286
0.000174143
0.000177216
0.000180411
0.000183649
0.000186862
0.000189997
0.000193009
0.000195865
0.000198538
0.000201012
0.000203275
0.000205322
0.000207151
0.000208766
0.000210172
0.000211377
0.00021239
0.000213223
0.000213886
0.000214393
0.000214755
0.000214984
0.000215093
0.000209838
0.000211372
0.000213492
0.000216056
0.000218939
0.000222031
0.000225237
0.000228478
0.000231685
0.000234806
0.000237796
0.000240624
0.000243265
0.000245704
0.000247931
0.000249941
0.000251735
0.000253316
0.00025469
0.000255867
0.000256855
0.000257666
0.000258313
0.000258805
0.000259157
0.00025938
0.000259486
0.000256407
0.000257915
0.000259998
0.000262514
0.00026534
0.000268367
0.000271502
0.000274666
0.000277793
0.000280832
0.000283741
0.00028649
0.000289054
0.000291421
0.00029358
0.000295527
0.000297265
0.000298795
0.000300125
0.000301264
0.00030222
0.000303004
0.000303629
0.000304105
0.000304446
0.000304661
0.000304763
0.000303729
0.000305188
0.000307203
0.000309635
0.000312366
0.000315291
0.000318318
0.000321372
0.000324391
0.000327323
0.000330129
0.00033278
0.000335254
0.000337537
0.00033962
0.000341499
0.000343175
0.000344652
0.000345936
0.000347035
0.000347959
0.000348717
0.00034932
0.000349781
0.00035011
0.000350318
0.000350417
0.000351068
0.00035247
0.000354407
0.000356747
0.000359373
0.000362186
0.000365099
0.000368037
0.000370943
0.000373766
0.000376469
0.000379023
0.000381407
0.000383608
0.000385617
0.00038743
0.000389048
0.000390475
0.000391716
0.000392778
0.000393671
0.000394404
0.000394988
0.000395434
0.000395752
0.000395954
0.00039605
0.000397976
0.000399324
0.000401187
0.000403436
0.000405963
0.00040867
0.000411474
0.000414304
0.000417104
0.000419825
0.000422432
0.000424897
0.000427199
0.000429325
0.000431266
0.00043302
0.000434585
0.000435966
0.000437167
0.000438196
0.000439061
0.000439772
0.000440339
0.000440771
0.00044108
0.000441276
0.000441369
0.000444203
0.000445502
0.000447297
0.000449466
0.000451902
0.000454514
0.00045722
0.000459954
0.000462658
0.000465289
0.00046781
0.000470195
0.000472424
0.000474483
0.000476364
0.000478064
0.000479582
0.000480922
0.000482088
0.000483087
0.000483927
0.000484618
0.000485168
0.000485589
0.00048589
0.00048608
0.000486171
0.000489618
0.000490874
0.000492609
0.000494706
0.000497064
0.000499591
0.000502211
0.000504859
0.00050748
0.00051003
0.000512475
0.000514789
0.000516952
0.000518952
0.000520779
0.000522431
0.000523907
0.00052521
0.000526344
0.000527316
0.000528134
0.000528806
0.000529343
0.000529752
0.000530045
0.000530231
0.000530319
0.000534161
0.000535378
0.000537061
0.000539095
0.000541383
0.000543836
0.00054638
0.000548952
0.000551498
0.000553977
0.000556355
0.000558605
0.00056071
0.000562656
0.000564435
0.000566043
0.000567481
0.00056875
0.000569856
0.000570803
0.000571601
0.000572256
0.000572779
0.000573179
0.000573465
0.000573646
0.000573732
0.000577811
0.000578995
0.000580631
0.00058261
0.000584835
0.000587222
0.000589698
0.000592202
0.000594682
0.000597096
0.000599413
0.000601606
0.000603658
0.000605555
0.00060729
0.000608859
0.000610262
0.000611501
0.000612579
0.000613504
0.000614283
0.000614923
0.000615434
0.000615824
0.000616104
0.000616281
0.000616365
0.000620571
0.000621725
0.00062332
0.000625248
0.000627418
0.000629745
0.00063216
0.000634602
0.000637021
0.000639377
0.000641638
0.000643779
0.000645782
0.000647635
0.000649329
0.000650862
0.000652232
0.000653443
0.000654497
0.000655401
0.000656162
0.000656788
0.000657287
0.000657668
0.000657941
0.000658114
0.000658197
0.000662458
0.000663584
0.00066514
0.000667023
0.000669142
0.000671414
0.000673773
0.000676158
0.000678522
0.000680824
0.000683033
0.000685126
0.000687084
0.000688895
0.000690552
0.00069205
0.00069339
0.000694574
0.000695605
0.000696489
0.000697234
0.000697846
0.000698334
0.000698708
0.000698975
0.000699144
0.000699225
0.000703491
0.000704592
0.000706113
0.000707954
0.000710025
0.000712247
0.000714553
0.000716886
0.000719197
0.000721449
0.00072361
0.000725657
0.000727573
0.000729345
0.000730966
0.000732433
0.000733745
0.000734903
0.000735912
0.000736778
0.000737506
0.000738106
0.000738584
0.00073895
0.000739211
0.000739377
0.000739456
0.000743695
0.000744772
0.000746261
0.000748062
0.000750089
0.000752263
0.00075452
0.000756804
0.000759066
0.00076127
0.000763386
0.00076539
0.000767266
0.000769001
0.000770589
0.000772025
0.00077331
0.000774444
0.000775433
0.00077628
0.000776994
0.000777581
0.00077805
0.000778408
0.000778664
0.000778827
0.000778904
0.000783096
0.000784151
0.000785609
0.000787372
0.000789357
0.000791487
0.000793697
0.000795933
0.00079815
0.000800309
0.000802382
0.000804345
0.000806182
0.000807883
0.000809438
0.000810845
0.000812104
0.000813216
0.000814184
0.000815015
0.000815715
0.00081629
0.000816749
0.0008171
0.000817351
0.00081751
0.000817586
0.000821718
0.000822752
0.00082418
0.000825908
0.000827853
0.00082994
0.000832106
0.000834298
0.00083647
0.000838586
0.000840617
0.000842542
0.000844343
0.000846009
0.000847534
0.000848913
0.000850147
0.000851237
0.000852186
0.000853001
0.000853687
0.000854251
0.000854701
0.000855045
0.000855291
0.000855447
0.000855522
0.000859586
0.000860599
0.000861999
0.000863693
0.0008656
0.000867646
0.00086977
0.000871918
0.000874048
0.000876123
0.000878114
0.000880001
0.000881767
0.000883402
0.000884897
0.000886249
0.000887459
0.000888528
0.000889459
0.000890258
0.000890931
0.000891484
0.000891925
0.000892263
0.000892504
0.000892657
0.00089273
0.000896722
0.000897715
0.000899089
0.00090075
0.00090262
0.000904627
0.000906709
0.000908817
0.000910906
0.000912941
0.000914894
0.000916745
0.000918477
0.00092008
0.000921547
0.000922874
0.000924061
0.000925109
0.000926023
0.000926806
0.000927466
0.000928009
0.000928442
0.000928773
0.00092901
0.00092916
0.000929231
0.000933149
0.000934123
0.00093547
0.0009371
0.000938934
0.000940903
0.000942947
0.000945014
0.000947063
0.00094906
0.000950977
0.000952793
0.000954492
0.000956065
0.000957504
0.000958806
0.000959971
0.000960999
0.000961896
0.000962665
0.000963312
0.000963845
0.000964269
0.000964594
0.000964827
0.000964974
0.000965044
0.000968886
0.000969842
0.000971164
0.000972763
0.000974563
0.000976495
0.0009785
0.000980529
0.00098254
0.0009845
0.000986381
0.000988163
0.000989831
0.000991374
0.000992787
0.000994064
0.000995207
0.000996217
0.000997096
0.000997851
0.000998486
0.000999009
0.000999426
0.000999745
0.000999973
0.00100012
0.00100019
0.00100395
0.00100489
0.00100619
0.00100776
0.00100952
0.00101142
0.00101339
0.00101538
0.00101735
0.00101928
0.00102112
0.00102287
0.00102451
0.00102602
0.00102741
0.00102867
0.00102979
0.00103078
0.00103164
0.00103238
0.00103301
0.00103352
0.00103393
0.00103424
0.00103447
0.00103461
0.00103467
0.00103836
0.00103929
0.00104056
0.0010421
0.00104383
0.0010457
0.00104763
0.00104958
0.00105152
0.00105341
0.00105522
0.00105694
0.00105855
0.00106003
0.00106139
0.00106262
0.00106373
0.0010647
0.00106555
0.00106627
0.00106689
0.00106739
0.00106779
0.0010681
0.00106832
0.00106846
0.00106852
0.00107214
0.00107304
0.00107429
0.00107581
0.00107751
0.00107934
0.00108123
0.00108315
0.00108505
0.00108691
0.00108869
0.00109037
0.00109195
0.00109341
0.00109475
0.00109596
0.00109704
0.00109799
0.00109882
0.00109954
0.00110014
0.00110063
0.00110103
0.00110133
0.00110155
0.00110168
0.00110175
0.00110529
0.00110617
0.0011074
0.00110889
0.00111056
0.00111235
0.00111422
0.0011161
0.00111797
0.00111979
0.00112153
0.00112319
0.00112474
0.00112617
0.00112748
0.00112867
0.00112973
0.00113067
0.00113149
0.00113219
0.00113278
0.00113326
0.00113365
0.00113395
0.00113416
0.00113429
0.00113436
0.00113782
0.00113869
0.0011399
0.00114136
0.001143
0.00114476
0.00114659
0.00114844
0.00115027
0.00115206
0.00115377
0.0011554
0.00115692
0.00115833
0.00115961
0.00116078
0.00116182
0.00116274
0.00116354
0.00116423
0.00116481
0.00116529
0.00116567
0.00116596
0.00116617
0.0011663
0.00116636
0.00116975
0.00117061
0.00117179
0.00117322
0.00117483
0.00117656
0.00117835
0.00118017
0.00118197
0.00118372
0.00118541
0.001187
0.0011885
0.00118988
0.00119114
0.00119229
0.00119331
0.00119421
0.001195
0.00119567
0.00119624
0.00119671
0.00119708
0.00119737
0.00119757
0.0011977
0.00119777
0.00120108
0.00120192
0.00120308
0.00120449
0.00120607
0.00120776
0.00120952
0.00121131
0.00121307
0.00121479
0.00121645
0.00121801
0.00121948
0.00122083
0.00122207
0.0012232
0.0012242
0.00122509
0.00122586
0.00122652
0.00122708
0.00122754
0.00122791
0.00122819
0.00122839
0.00122851
0.00122857
0.00123181
0.00123264
0.00123377
0.00123515
0.0012367
0.00123837
0.0012401
0.00124185
0.00124358
0.00124527
0.00124689
0.00124843
0.00124986
0.00125119
0.00125241
0.00125351
0.0012545
0.00125537
0.00125612
0.00125677
0.00125732
0.00125777
0.00125813
0.00125841
0.0012586
0.00125873
0.00125879
0.00126195
0.00126275
0.00126387
0.00126522
0.00126675
0.00126838
0.00127007
0.00127179
0.00127349
0.00127514
0.00127673
0.00127824
0.00127965
0.00128095
0.00128215
0.00128323
0.00128419
0.00128505
0.00128579
0.00128643
0.00128696
0.00128741
0.00128776
0.00128803
0.00128822
0.00128834
0.0012884
0.00129148
0.00129227
0.00129337
0.00129469
0.00129618
0.00129778
0.00129945
0.00130113
0.00130279
0.00130441
0.00130597
0.00130745
0.00130883
0.00131011
0.00131128
0.00131234
0.00131328
0.00131412
0.00131485
0.00131547
0.001316
0.00131643
0.00131677
0.00131704
0.00131723
0.00131735
0.0013174
0.0013204
0.00132118
0.00132225
0.00132355
0.00132501
0.00132658
0.0013282
0.00132985
0.00133148
0.00133307
0.00133459
0.00133604
0.00133739
0.00133864
0.00133979
0.00134082
0.00134175
0.00134257
0.00134328
0.00134389
0.00134441
0.00134483
0.00134517
0.00134543
0.00134561
0.00134573
0.00134579
0.00134869
0.00134945
0.0013505
0.00135177
0.0013532
0.00135474
0.00135633
0.00135794
0.00135953
0.00136109
0.00136258
0.00136399
0.00136532
0.00136654
0.00136766
0.00136867
0.00136958
0.00137038
0.00137107
0.00137167
0.00137218
0.00137259
0.00137292
0.00137317
0.00137335
0.00137347
0.00137352
0.00137634
0.00137708
0.00137811
0.00137935
0.00138074
0.00138224
0.0013838
0.00138537
0.00138693
0.00138845
0.0013899
0.00139128
0.00139257
0.00139377
0.00139486
0.00139585
0.00139674
0.00139752
0.0013982
0.00139878
0.00139927
0.00139968
0.0014
0.00140025
0.00140042
0.00140053
0.00140059
0.00140331
0.00140403
0.00140503
0.00140624
0.0014076
0.00140906
0.00141058
0.00141211
0.00141363
0.00141511
0.00141653
0.00141788
0.00141914
0.0014203
0.00142137
0.00142233
0.00142319
0.00142395
0.00142462
0.00142519
0.00142566
0.00142606
0.00142637
0.00142661
0.00142678
0.00142689
0.00142695
0.00142956
0.00143026
0.00143124
0.00143241
0.00143374
0.00143516
0.00143664
0.00143813
0.0014396
0.00144104
0.00144243
0.00144373
0.00144496
0.00144609
0.00144713
0.00144806
0.0014489
0.00144964
0.00145029
0.00145084
0.0014513
0.00145169
0.00145199
0.00145222
0.00145239
0.0014525
0.00145255
0.00145505
0.00145573
0.00145668
0.00145782
0.0014591
0.00146048
0.00146191
0.00146336
0.00146479
0.00146619
0.00146753
0.0014688
0.00146998
0.00147108
0.00147209
0.00147299
0.00147381
0.00147452
0.00147515
0.00147568
0.00147613
0.00147651
0.0014768
0.00147703
0.00147719
0.00147729
0.00147734
0.00147972
0.00148038
0.00148129
0.0014824
0.00148364
0.00148497
0.00148635
0.00148775
0.00148914
0.00149049
0.00149178
0.00149301
0.00149415
0.00149521
0.00149618
0.00149706
0.00149784
0.00149854
0.00149914
0.00149966
0.00150009
0.00150045
0.00150073
0.00150095
0.00150111
0.00150121
0.00150125
0.00150349
0.00150413
0.00150501
0.00150607
0.00150727
0.00150855
0.00150988
0.00151123
0.00151256
0.00151386
0.0015151
0.00151628
0.00151738
0.0015184
0.00151934
0.00152018
0.00152093
0.0015216
0.00152218
0.00152267
0.00152309
0.00152343
0.00152371
0.00152392
0.00152407
0.00152416
0.00152421
0.0015263
0.00152691
0.00152775
0.00152877
0.00152991
0.00153114
0.00153242
0.00153371
0.00153498
0.00153622
0.00153741
0.00153854
0.00153959
0.00154057
0.00154146
0.00154226
0.00154298
0.00154362
0.00154417
0.00154464
0.00154504
0.00154537
0.00154563
0.00154583
0.00154598
0.00154607
0.00154611
0.00154804
0.00154862
0.00154942
0.00155039
0.00155148
0.00155265
0.00155386
0.00155508
0.00155629
0.00155747
0.00155861
0.00155968
0.00156068
0.0015616
0.00156245
0.00156321
0.00156389
0.00156449
0.00156502
0.00156547
0.00156585
0.00156616
0.00156641
0.00156659
0.00156673
0.00156682
0.00156686
0.00156861
0.00156915
0.00156991
0.00157083
0.00157186
0.00157296
0.0015741
0.00157525
0.0015764
0.00157751
0.00157857
0.00157958
0.00158052
0.00158139
0.00158219
0.00158291
0.00158355
0.00158411
0.00158461
0.00158503
0.00158538
0.00158568
0.00158591
0.00158609
0.00158622
0.0015863
0.00158633
0.00158789
0.00158841
0.00158911
0.00158997
0.00159093
0.00159196
0.00159303
0.0015941
0.00159517
0.00159621
0.0015972
0.00159814
0.00159902
0.00159983
0.00160057
0.00160123
0.00160183
0.00160236
0.00160282
0.00160321
0.00160354
0.00160381
0.00160403
0.00160419
0.00160431
0.00160439
0.00160442
0.00160578
0.00160625
0.00160691
0.0016077
0.00160858
0.00160953
0.00161052
0.00161151
0.00161249
0.00161345
0.00161436
0.00161523
0.00161604
0.00161678
0.00161746
0.00161807
0.00161862
0.00161911
0.00161953
0.00161989
0.00162019
0.00162044
0.00162064
0.00162079
0.0016209
0.00162097
0.001621
0.00162215
0.00162258
0.00162317
0.00162389
0.0016247
0.00162556
0.00162646
0.00162736
0.00162825
0.00162912
0.00162995
0.00163073
0.00163146
0.00163214
0.00163275
0.00163331
0.00163381
0.00163424
0.00163462
0.00163495
0.00163522
0.00163545
0.00163562
0.00163576
0.00163586
0.00163592
0.00163595
0.00163688
0.00163727
0.0016378
0.00163845
0.00163917
0.00163994
0.00164074
0.00164155
0.00164234
0.00164311
0.00164385
0.00164455
0.0016452
0.0016458
0.00164635
0.00164684
0.00164728
0.00164767
0.001648
0.00164829
0.00164853
0.00164873
0.00164889
0.00164901
0.0016491
0.00164915
0.00164918
0.0016499
0.00165024
0.00165071
0.00165127
0.00165191
0.00165258
0.00165328
0.00165398
0.00165468
0.00165535
0.00165599
0.0016566
0.00165717
0.00165769
0.00165816
0.00165859
0.00165897
0.00165931
0.0016596
0.00165985
0.00166006
0.00166023
0.00166036
0.00166047
0.00166054
0.00166059
0.00166061
0.00166114
0.00166143
0.00166183
0.00166231
0.00166285
0.00166343
0.00166402
0.00166462
0.00166521
0.00166578
0.00166633
0.00166684
0.00166732
0.00166776
0.00166816
0.00166852
0.00166884
0.00166913
0.00166937
0.00166958
0.00166976
0.0016699
0.00167002
0.00167011
0.00167017
0.00167021
0.00167023
0.00167057
0.00167081
0.00167115
0.00167155
0.00167199
0.00167247
0.00167296
0.00167346
0.00167394
0.00167441
0.00167486
0.00167528
0.00167567
0.00167603
0.00167636
0.00167666
0.00167692
0.00167715
0.00167735
0.00167752
0.00167766
0.00167778
0.00167787
0.00167794
0.00167799
0.00167803
0.00167804
0.00167824
0.00167843
0.0016787
0.00167902
0.00167937
0.00167976
0.00168015
0.00168054
0.00168093
0.0016813
0.00168165
0.00168199
0.00168229
0.00168258
0.00168284
0.00168307
0.00168327
0.00168345
0.00168361
0.00168374
0.00168385
0.00168394
0.00168402
0.00168407
0.00168411
0.00168414
0.00168415
0.00168423
0.00168438
0.00168458
0.00168483
0.0016851
0.00168539
0.00168569
0.00168599
0.00168628
0.00168656
0.00168683
0.00168708
0.00168731
0.00168753
0.00168772
0.00168789
0.00168805
0.00168818
0.0016883
0.00168839
0.00168848
0.00168855
0.0016886
0.00168864
0.00168867
0.00168869
0.0016887
0.0016887
0.00168881
0.00168896
0.00168914
0.00168933
0.00168954
0.00168976
0.00168998
0.00169019
0.00169039
0.00169058
0.00169076
0.00169092
0.00169107
0.00169121
0.00169133
0.00169144
0.00169154
0.00169162
0.00169169
0.00169174
0.00169179
0.00169183
0.00169186
0.00169188
0.00169189
0.0016919
0.00169186
0.00169194
0.00169204
0.00169216
0.00169229
0.00169244
0.00169258
0.00169273
0.00169287
0.00169301
0.00169313
0.00169325
0.00169336
0.00169346
0.00169355
0.00169363
0.00169371
0.00169377
0.00169382
0.00169387
0.0016939
0.00169394
0.00169396
0.00169398
0.00169399
0.001694
0.001694
0.00169396
0.001694
0.00169407
0.00169415
0.00169423
0.00169432
0.00169441
0.0016945
0.00169459
0.00169468
0.00169475
0.00169483
0.0016949
0.00169496
0.00169501
0.00169506
0.0016951
0.00169514
0.00169517
0.0016952
0.00169522
0.00169524
0.00169526
0.00169527
0.00169528
0.00169528
0.00169528
0.00169524
0.00169527
0.00169531
0.00169535
0.0016954
0.00169545
0.00169551
0.00169556
0.00169561
0.00169566
0.0016957
0.00169574
0.00169578
0.00169581
0.00169584
0.00169587
0.00169589
0.00169591
0.00169593
0.00169595
0.00169596
0.00169597
0.00169598
0.00169598
0.00169599
0.00169599
0.00169599
0.00169597
0.00169598
0.001696
0.00169602
0.00169605
0.00169608
0.0016961
0.00169613
0.00169615
0.00169618
0.0016962
0.00169622
0.00169624
0.00169625
0.00169627
0.00169628
0.00169629
0.0016963
0.00169631
0.00169632
0.00169632
0.00169633
0.00169633
0.00169634
0.00169634
0.00169634
0.00169634
0.00169633
0.00169634
0.00169635
0.00169636
0.00169637
0.00169638
0.00169639
0.0016964
0.00169641
0.00169642
0.00169643
0.00169644
0.00169645
0.00169646
0.00169646
0.00169647
0.00169647
0.00169648
0.00169648
0.00169648
0.00169649
0.00169649
0.00169649
0.00169649
0.00169649
0.00169649
0.00169649
0.00169649
0.0016965
0.0016965
0.0016965
0.00169651
0.00169651
0.00169652
0.00169652
0.00169652
0.00169653
0.00169653
0.00169653
0.00169654
0.00169654
0.00169654
0.00169654
0.00169654
0.00169655
0.00169655
0.00169655
0.00169655
0.00169655
0.00169655
0.00169655
0.00169655
0.00169655
0.00169655
0.00169656
0.00169656
0.00169656
0.00169656
0.00169656
0.00169656
0.00169656
0.00169656
0.00169656
0.00169656
0.00169656
0.00169657
0.00169657
0.00169657
0.00169657
0.00169657
0.00169657
0.00169657
0.00169657
0.00169657
0.00169657
0.00169657
0.00169657