/*--------------------------------*- C++ -*----------------------------------*\
| =========                 |                                                 |
| \\      /  F ield         | OpenFOAM: The Open Source CFD Toolbox           |
|  \\    /   O peration     | Version:  2106                                  |
|   \\  /    A nd           | Website:  www.openfoam.com                      |
|    \\/     M anipulation  |                                                 |
\*---------------------------------------------------------------------------*/
FoamFile
{
    version     2.0;
    format      ascii;
    arch        "LSB;label=32;scalar=64";
    class       volScalarField;
    location    "150.00049";
    object      H;
}
// * * * * * * * * * * * * * * * * * * * * * * * * * * * * * * * * * * * * * //

dimensions      [0 0 0 0 0 0 0];

internalField   nonuniform List<scalar> 
3360
(
1.98273e-25
2.04654e-25
2.13534e-25
2.24396e-25
2.36788e-25
2.50302e-25
2.64572e-25
2.79266e-25
2.9409e-25
3.08781e-25
3.23116e-25
3.36901e-25
3.4998e-25
3.62225e-25
3.73541e-25
3.8386e-25
3.93142e-25
4.01369e-25
4.08544e-25
4.14689e-25
4.1984e-25
4.24048e-25
4.27371e-25
4.29877e-25
4.31641e-25
4.32738e-25
4.33247e-25
8.69831e-25
9.01807e-25
9.46929e-25
1.00312e-24
1.06866e-24
1.14205e-24
1.22195e-24
1.30712e-24
1.39644e-24
1.4888e-24
1.58319e-24
1.67859e-24
1.77401e-24
1.86847e-24
1.961e-24
2.05065e-24
2.1365e-24
2.21764e-24
2.29321e-24
2.36239e-24
2.42446e-24
2.47875e-24
2.5247e-24
2.56186e-24
2.5899e-24
2.60863e-24
2.61797e-24
2.72962e-24
2.84943e-24
3.01968e-24
3.23362e-24
3.48563e-24
3.77069e-24
4.08399e-24
4.42082e-24
4.77641e-24
5.14588e-24
5.52424e-24
5.90655e-24
6.28789e-24
6.66344e-24
7.02851e-24
7.37866e-24
7.70978e-24
8.01817e-24
8.30063e-24
8.55452e-24
8.77778e-24
8.96896e-24
9.12722e-24
9.25232e-24
9.34454e-24
9.40468e-24
9.43395e-24
7.95098e-24
8.34595e-24
8.91098e-24
9.62586e-24
1.04737e-23
1.14386e-23
1.25049e-23
1.3656e-23
1.48749e-23
1.61433e-23
1.74427e-23
1.8754e-23
2.00584e-23
2.13374e-23
2.25736e-23
2.3751e-23
2.48553e-23
2.58746e-23
2.67991e-23
2.76216e-23
2.83371e-23
2.89433e-23
2.94397e-23
2.9828e-23
3.01114e-23
3.02943e-23
3.03825e-23
2.32365e-23
2.44831e-23
2.62696e-23
2.85353e-23
3.12282e-23
3.42987e-23
3.76955e-23
4.13646e-23
4.5248e-23
4.92849e-23
5.34122e-23
5.75664e-23
6.16852e-23
6.57089e-23
6.95826e-23
7.32567e-23
7.66886e-23
7.98433e-23
8.26932e-23
8.52191e-23
8.7409e-23
8.9258e-23
9.07677e-23
9.19452e-23
9.28021e-23
9.33542e-23
9.36199e-23
6.85442e-23
7.23748e-23
7.78722e-23
8.48499e-23
9.31487e-23
1.02614e-22
1.13086e-22
1.24395e-22
1.36359e-22
1.48785e-22
1.61478e-22
1.74238e-22
1.86871e-22
1.99193e-22
2.11036e-22
2.22249e-22
2.32705e-22
2.42299e-22
2.50951e-22
2.58606e-22
2.65233e-22
2.70819e-22
2.75373e-22
2.78921e-22
2.81499e-22
2.83158e-22
2.83956e-22
2.03791e-22
2.15447e-22
2.32176e-22
2.53413e-22
2.78671e-22
3.07476e-22
3.39336e-22
3.73727e-22
4.10089e-22
4.47833e-22
4.86356e-22
5.25053e-22
5.63334e-22
6.00646e-22
6.36479e-22
6.70383e-22
7.01977e-22
7.30951e-22
7.57069e-22
7.8017e-22
8.0016e-22
8.17009e-22
8.30745e-22
8.41444e-22
8.49221e-22
8.54226e-22
8.56633e-22
6.08386e-22
6.43561e-22
6.94074e-22
7.58233e-22
8.34579e-22
9.21685e-22
1.01806e-21
1.12212e-21
1.23217e-21
1.34642e-21
1.46303e-21
1.58017e-21
1.69606e-21
1.80902e-21
1.9175e-21
2.02015e-21
2.11579e-21
2.20351e-21
2.28259e-21
2.35254e-21
2.41307e-21
2.46411e-21
2.50572e-21
2.53815e-21
2.56173e-21
2.57692e-21
2.58422e-21
1.82385e-21
1.93014e-21
2.08281e-21
2.27676e-21
2.50763e-21
2.77112e-21
3.06277e-21
3.37777e-21
3.71101e-21
4.05711e-21
4.41052e-21
4.7657e-21
5.11725e-21
5.46008e-21
5.78951e-21
6.10141e-21
6.39226e-21
6.65922e-21
6.90008e-21
7.11334e-21
7.29811e-21
7.45407e-21
7.58143e-21
7.68082e-21
7.75325e-21
7.79999e-21
7.82254e-21
5.48256e-21
5.80416e-21
6.26635e-21
6.85399e-21
7.55406e-21
8.35381e-21
9.23991e-21
1.0198e-20
1.12127e-20
1.22678e-20
1.33465e-20
1.4432e-20
1.55078e-20
1.65582e-20
1.7569e-20
1.85274e-20
1.94224e-20
2.02452e-20
2.09888e-20
2.16483e-20
2.22209e-20
2.27052e-20
2.31017e-20
2.3412e-20
2.36389e-20
2.37858e-20
2.3857e-20
1.65641e-20
1.75439e-20
1.89531e-20
2.07465e-20
2.28855e-20
2.53323e-20
2.80475e-20
3.09881e-20
3.4108e-20
3.73581e-20
4.06876e-20
4.40449e-20
4.73794e-20
5.06428e-20
5.37904e-20
5.67822e-20
5.95835e-20
6.21657e-20
6.45065e-20
6.65893e-20
6.84039e-20
6.99449e-20
7.12119e-20
7.22084e-20
7.29409e-20
7.34185e-20
7.36516e-20
5.03634e-20
5.33765e-20
5.77154e-20
6.32466e-20
6.9857e-20
7.74363e-20
8.58682e-20
9.50255e-20
1.0477e-19
1.14953e-19
1.25418e-19
1.36006e-19
1.46559e-19
1.56924e-19
1.66958e-19
1.76533e-19
1.85533e-19
1.93865e-19
2.01452e-19
2.08235e-19
2.14176e-19
2.19249e-19
2.23447e-19
2.26773e-19
2.29236e-19
2.30857e-19
2.31656e-19
1.54717e-19
1.64132e-19
1.77713e-19
1.95067e-19
2.15867e-19
2.39794e-19
2.66511e-19
2.95641e-19
3.2677e-19
3.59445e-19
3.93182e-19
4.2748e-19
4.61834e-19
4.9575e-19
5.28757e-19
5.60424e-19
5.90364e-19
6.18244e-19
6.4379e-19
6.66785e-19
6.87067e-19
7.04526e-19
7.19095e-19
7.30743e-19
7.39462e-19
7.45261e-19
7.48156e-19
4.82065e-19
5.12109e-19
5.55566e-19
6.11293e-19
6.7837e-19
7.55906e-19
8.42938e-19
9.38375e-19
1.04097e-18
1.14934e-18
1.26195e-18
1.37719e-18
1.4934e-18
1.60891e-18
1.72211e-18
1.8315e-18
1.93568e-18
2.03343e-18
2.12371e-18
2.20565e-18
2.27856e-18
2.34191e-18
2.3953e-18
2.43844e-18
2.4711e-18
2.49309e-18
2.50421e-18
1.5343e-18
1.63312e-18
1.77658e-18
1.96141e-18
2.18514e-18
2.44541e-18
2.7396e-18
3.06458e-18
3.41666e-18
3.79149e-18
4.18418e-18
4.58936e-18
5.00136e-18
5.41435e-18
5.82255e-18
6.22037e-18
6.60258e-18
6.96441e-18
7.30164e-18
7.6106e-18
7.88821e-18
8.13187e-18
8.3394e-18
8.50893e-18
8.63875e-18
8.72718e-18
8.77242e-18
5.02844e-18
5.3663e-18
5.85908e-18
6.49788e-18
7.27674e-18
8.19014e-18
9.23158e-18
1.03926e-17
1.16624e-17
1.30273e-17
1.4471e-17
1.59753e-17
1.75196e-17
1.90825e-17
2.0642e-17
2.21763e-17
2.36644e-17
2.50865e-17
2.64245e-17
2.76621e-17
2.87848e-17
2.97798e-17
3.06356e-17
3.13416e-17
3.18875e-17
3.22629e-17
3.24567e-17
1.71605e-17
1.83744e-17
2.01548e-17
2.24798e-17
2.53387e-17
2.87231e-17
3.26207e-17
3.70111e-17
4.18633e-17
4.71342e-17
5.27683e-17
5.86986e-17
6.48487e-17
7.11342e-17
7.74666e-17
8.37553e-17
8.99106e-17
9.58461e-17
1.0148e-16
1.06736e-16
1.11545e-16
1.15842e-16
1.19568e-16
1.22664e-16
1.25076e-16
1.26745e-16
1.27612e-16
6.17636e-17
6.63925e-17
7.32249e-17
8.22182e-17
9.33794e-17
1.06725e-16
1.22256e-16
1.39938e-16
1.59687e-16
1.81365e-16
2.04771e-16
2.29649e-16
2.55691e-16
2.82545e-16
3.09831e-16
3.37151e-16
3.641e-16
3.90281e-16
4.15308e-16
4.38814e-16
4.60455e-16
4.79905e-16
4.96855e-16
5.1101e-16
5.22076e-16
5.2976e-16
5.3376e-16
2.37712e-16
2.56608e-16
2.84673e-16
3.21901e-16
3.68511e-16
4.24767e-16
4.9086e-16
5.6682e-16
6.52443e-16
7.47251e-16
8.5047e-16
9.61033e-16
1.0776e-15
1.19862e-15
1.32236e-15
1.44697e-15
1.57054e-15
1.69117e-15
1.80699e-15
1.91621e-15
2.0171e-15
2.10804e-15
2.18745e-15
2.25386e-15
2.30582e-15
2.34188e-15
2.36064e-15
9.89987e-16
1.07289e-15
1.19665e-15
1.36185e-15
1.57009e-15
1.8232e-15
2.12262e-15
2.46898e-15
2.86175e-15
3.29903e-15
3.77742e-15
4.29203e-15
4.83664e-15
5.40387e-15
5.98542e-15
6.57244e-15
7.15572e-15
7.72599e-15
8.27414e-15
8.79136e-15
9.26922e-15
9.69973e-15
1.00753e-14
1.03889e-14
1.06336e-14
1.08029e-14
1.08907e-14
4.48779e-15
4.87778e-15
5.4616e-15
6.24346e-15
7.23233e-15
8.43789e-15
9.86767e-15
1.15248e-14
1.34065e-14
1.55027e-14
1.77963e-14
2.02626e-14
2.28704e-14
2.55833e-14
2.83606e-14
3.11589e-14
3.39339e-14
3.66409e-14
3.92363e-14
4.16784e-14
4.39274e-14
4.59465e-14
4.77011e-14
4.91592e-14
5.02915e-14
5.10708e-14
5.14719e-14
2.20077e-14
2.39529e-14
2.68654e-14
3.07652e-14
3.5694e-14
4.16944e-14
4.87956e-14
5.70025e-14
6.62885e-14
7.65913e-14
8.78124e-14
9.9819e-14
1.12449e-13
1.25516e-13
1.3882e-13
1.52148e-13
1.65289e-13
1.78033e-13
1.90179e-13
2.01537e-13
2.11931e-13
2.21202e-13
2.29204e-13
2.35808e-13
2.40898e-13
2.44374e-13
2.46149e-13
1.14112e-13
1.24208e-13
1.39304e-13
1.59475e-13
1.84898e-13
2.15747e-13
2.52114e-13
2.93962e-13
3.41094e-13
3.93129e-13
4.49514e-13
5.09529e-13
5.72321e-13
6.36932e-13
7.0234e-13
7.67492e-13
8.31339e-13
8.92867e-13
9.51118e-13
1.00521e-12
1.05434e-12
1.09781e-12
1.13501e-12
1.16544e-12
1.18867e-12
1.20437e-12
1.2123e-12
6.02649e-13
6.55872e-13
7.35423e-13
8.41699e-13
9.75662e-13
1.13829e-12
1.33022e-12
1.55149e-12
1.80133e-12
2.07811e-12
2.37928e-12
2.7014e-12
3.04027e-12
3.39099e-12
3.74819e-12
4.10614e-12
4.45897e-12
4.8008e-12
5.12594e-12
5.42901e-12
5.70507e-12
5.94971e-12
6.15915e-12
6.33025e-12
6.46057e-12
6.54833e-12
6.59244e-12
3.14281e-12
3.4217e-12
3.8394e-12
4.39921e-12
5.10799e-12
5.97346e-12
7.00231e-12
8.19877e-12
9.56347e-12
1.10926e-11
1.27773e-11
1.46036e-11
1.65519e-11
1.85979e-11
2.07125e-11
2.28628e-11
2.5013e-11
2.71253e-11
2.91614e-11
3.10836e-11
3.28559e-11
3.44447e-11
3.58199e-11
3.69556e-11
3.78296e-11
3.84244e-11
3.87264e-11
1.63707e-11
1.7807e-11
1.99541e-11
2.28234e-11
2.64418e-11
3.08354e-11
3.60175e-11
4.19775e-11
4.86725e-11
5.60223e-11
6.39084e-11
7.21797e-11
8.06621e-11
8.91727e-11
9.75337e-11
1.05585e-10
1.1319e-10
1.20244e-10
1.26666e-10
1.32405e-10
1.37427e-10
1.41715e-10
1.45264e-10
1.48077e-10
1.50164e-10
1.51537e-10
1.52215e-10
8.49894e-11
9.14133e-11
1.00747e-10
1.12734e-10
1.27097e-10
1.43489e-10
1.61486e-10
1.8061e-10
2.0037e-10
2.20301e-10
2.39999e-10
2.59133e-10
2.77442e-10
2.94733e-10
3.10862e-10
3.2573e-10
3.39274e-10
3.51457e-10
3.62268e-10
3.71714e-10
3.79814e-10
3.86601e-10
3.92116e-10
3.9641e-10
3.99539e-10
4.01562e-10
4.02542e-10
3.26343e-10
3.41961e-10
3.63954e-10
3.91178e-10
4.22602e-10
4.57262e-10
4.9426e-10
5.32765e-10
5.72022e-10
6.11354e-10
6.5014e-10
6.87838e-10
7.23988e-10
7.58212e-10
7.90211e-10
8.19759e-10
8.46694e-10
8.70916e-10
8.92379e-10
9.11081e-10
9.27061e-10
9.40389e-10
9.51162e-10
9.59498e-10
9.65528e-10
9.69397e-10
9.71254e-10
8.51759e-10
8.84429e-10
9.30582e-10
9.87993e-10
1.05469e-09
1.12883e-09
1.20868e-09
1.29257e-09
1.37896e-09
1.46637e-09
1.55347e-09
1.63902e-09
1.72194e-09
1.80129e-09
1.87628e-09
1.94625e-09
2.01068e-09
2.0692e-09
2.12154e-09
2.16757e-09
2.20724e-09
2.2406e-09
2.26777e-09
2.28895e-09
2.30437e-09
2.31432e-09
2.31912e-09
1.8752e-09
1.94561e-09
2.04565e-09
2.17106e-09
2.31816e-09
2.48355e-09
2.66396e-09
2.85625e-09
3.05732e-09
3.26417e-09
3.47387e-09
3.68363e-09
3.89077e-09
4.09282e-09
4.28747e-09
4.47267e-09
4.64656e-09
4.80756e-09
4.95436e-09
5.08587e-09
5.20131e-09
5.30012e-09
5.382e-09
5.44687e-09
5.49487e-09
5.52633e-09
5.54174e-09
3.69419e-09
3.83852e-09
4.04478e-09
4.30536e-09
4.61393e-09
4.96468e-09
5.35204e-09
5.77044e-09
6.21419e-09
6.6775e-09
7.1544e-09
7.63883e-09
8.12469e-09
8.60592e-09
9.07661e-09
9.53106e-09
9.96394e-09
1.03703e-08
1.07459e-08
1.10868e-08
1.13898e-08
1.16526e-08
1.18729e-08
1.20495e-08
1.21814e-08
1.22688e-08
1.2312e-08
6.62297e-09
6.88583e-09
7.26231e-09
7.73936e-09
8.30626e-09
8.95321e-09
9.6707e-09
1.0449e-08
1.12782e-08
1.21477e-08
1.30465e-08
1.39635e-08
1.48873e-08
1.58064e-08
1.6709e-08
1.75832e-08
1.8418e-08
1.92033e-08
1.993e-08
2.05904e-08
2.11777e-08
2.16868e-08
2.21136e-08
2.24556e-08
2.27113e-08
2.28806e-08
2.29643e-08
1.09349e-08
1.13414e-08
1.19222e-08
1.26557e-08
1.35241e-08
1.4511e-08
1.5601e-08
1.67779e-08
1.80241e-08
1.93221e-08
2.0654e-08
2.20019e-08
2.33482e-08
2.46757e-08
2.59679e-08
2.72094e-08
2.83859e-08
2.94849e-08
3.04952e-08
3.14076e-08
3.22146e-08
3.29105e-08
3.34913e-08
3.39547e-08
3.43002e-08
3.4528e-08
3.46404e-08
1.668e-08
1.72066e-08
1.7954e-08
1.88897e-08
1.99855e-08
2.12156e-08
2.25554e-08
2.3981e-08
2.54692e-08
2.69972e-08
2.85434e-08
3.0087e-08
3.16082e-08
3.3089e-08
3.45128e-08
3.58648e-08
3.7132e-08
3.83035e-08
3.93701e-08
4.03249e-08
4.11624e-08
4.18792e-08
4.24734e-08
4.29448e-08
4.32938e-08
4.35228e-08
4.36352e-08
2.32906e-08
2.38534e-08
2.46457e-08
2.56273e-08
2.67629e-08
2.80206e-08
2.93705e-08
3.07853e-08
3.22397e-08
3.37103e-08
3.51758e-08
3.66172e-08
3.80175e-08
3.93619e-08
4.06375e-08
4.18338e-08
4.2942e-08
4.39552e-08
4.48684e-08
4.5678e-08
4.6382e-08
4.69797e-08
4.74715e-08
4.7859e-08
4.81446e-08
4.8331e-08
4.8422e-08
2.96253e-08
3.01322e-08
3.08405e-08
3.17094e-08
3.27033e-08
3.37899e-08
3.49405e-08
3.61294e-08
3.73341e-08
3.85348e-08
3.97145e-08
4.08587e-08
4.19555e-08
4.29948e-08
4.39691e-08
4.48721e-08
4.56995e-08
4.64483e-08
4.71167e-08
4.7704e-08
4.82105e-08
4.86372e-08
4.89859e-08
4.92588e-08
4.94586e-08
4.95885e-08
4.96519e-08
3.46732e-08
3.5067e-08
3.56137e-08
3.62788e-08
3.70317e-08
3.78458e-08
3.86976e-08
3.95669e-08
4.04366e-08
4.12925e-08
4.21229e-08
4.29185e-08
4.36721e-08
4.43782e-08
4.50329e-08
4.56336e-08
4.61787e-08
4.66676e-08
4.71004e-08
4.74777e-08
4.78008e-08
4.80713e-08
4.82909e-08
4.84618e-08
4.85863e-08
4.86668e-08
4.87058e-08
3.79847e-08
3.82527e-08
3.86226e-08
3.9069e-08
3.957e-08
4.01063e-08
4.06615e-08
4.12217e-08
4.17758e-08
4.23149e-08
4.2832e-08
4.3322e-08
4.37811e-08
4.42068e-08
4.45977e-08
4.49529e-08
4.52726e-08
4.55569e-08
4.58068e-08
4.60232e-08
4.62073e-08
4.63606e-08
4.64844e-08
4.65804e-08
4.665e-08
4.66949e-08
4.67165e-08
3.96454e-08
3.98041e-08
4.00217e-08
4.02824e-08
4.05722e-08
4.08792e-08
4.11934e-08
4.15067e-08
4.18129e-08
4.2107e-08
4.23856e-08
4.26463e-08
4.28877e-08
4.3109e-08
4.33098e-08
4.34905e-08
4.36514e-08
4.37933e-08
4.39169e-08
4.40231e-08
4.41129e-08
4.41872e-08
4.42469e-08
4.42929e-08
4.43262e-08
4.43476e-08
4.43579e-08
4.00184e-08
4.00949e-08
4.01988e-08
4.03219e-08
4.04567e-08
4.05972e-08
4.07383e-08
4.08762e-08
4.10081e-08
4.11321e-08
4.12467e-08
4.13515e-08
4.14463e-08
4.1531e-08
4.16062e-08
4.16723e-08
4.17299e-08
4.17796e-08
4.18221e-08
4.1858e-08
4.18879e-08
4.19122e-08
4.19315e-08
4.19463e-08
4.19568e-08
4.19635e-08
4.19668e-08
3.95159e-08
3.95363e-08
3.95632e-08
3.95933e-08
3.96242e-08
3.96539e-08
3.96806e-08
3.97036e-08
3.97221e-08
3.97362e-08
3.97459e-08
3.97515e-08
3.97536e-08
3.97528e-08
3.97496e-08
3.97446e-08
3.97384e-08
3.97316e-08
3.97245e-08
3.97175e-08
3.97109e-08
3.9705e-08
3.97e-08
3.96959e-08
3.96928e-08
3.96907e-08
3.96897e-08
3.84837e-08
3.84686e-08
3.84468e-08
3.84185e-08
3.83844e-08
3.8345e-08
3.8301e-08
3.82532e-08
3.82024e-08
3.81496e-08
3.80958e-08
3.80418e-08
3.79884e-08
3.79365e-08
3.78868e-08
3.78399e-08
3.77962e-08
3.77562e-08
3.772e-08
3.7688e-08
3.76603e-08
3.76368e-08
3.76175e-08
3.76025e-08
3.75915e-08
3.75843e-08
3.75809e-08
3.71708e-08
3.71348e-08
3.70841e-08
3.70214e-08
3.69492e-08
3.68695e-08
3.67843e-08
3.66956e-08
3.66049e-08
3.65139e-08
3.64238e-08
3.6336e-08
3.62514e-08
3.61708e-08
3.60951e-08
3.60247e-08
3.59601e-08
3.59016e-08
3.58494e-08
3.58036e-08
3.57641e-08
3.57309e-08
3.57039e-08
3.56828e-08
3.56674e-08
3.56575e-08
3.56527e-08
3.57402e-08
3.56927e-08
3.56263e-08
3.55449e-08
3.5452e-08
3.53506e-08
3.52435e-08
3.51329e-08
3.50212e-08
3.491e-08
3.48011e-08
3.46956e-08
3.45948e-08
3.44995e-08
3.44105e-08
3.43282e-08
3.4253e-08
3.41852e-08
3.41248e-08
3.4072e-08
3.40267e-08
3.39886e-08
3.39577e-08
3.39336e-08
3.3916e-08
3.39046e-08
3.38992e-08
3.42912e-08
3.42381e-08
3.41642e-08
3.4074e-08
3.39713e-08
3.38598e-08
3.37425e-08
3.36221e-08
3.35008e-08
3.33807e-08
3.32634e-08
3.31503e-08
3.30425e-08
3.2941e-08
3.28463e-08
3.2759e-08
3.26794e-08
3.26077e-08
3.25441e-08
3.24885e-08
3.24407e-08
3.24007e-08
3.23681e-08
3.23428e-08
3.23243e-08
3.23124e-08
3.23066e-08
3.288e-08
3.2825e-08
3.27486e-08
3.26554e-08
3.25497e-08
3.24351e-08
3.23147e-08
3.21914e-08
3.20676e-08
3.19452e-08
3.18258e-08
3.1711e-08
3.16017e-08
3.14989e-08
3.14031e-08
3.13149e-08
3.12346e-08
3.11624e-08
3.10982e-08
3.10422e-08
3.09941e-08
3.09538e-08
3.0921e-08
3.08955e-08
3.08769e-08
3.08649e-08
3.08591e-08
3.1536e-08
3.14812e-08
3.14052e-08
3.13126e-08
3.12076e-08
3.10939e-08
3.09747e-08
3.08527e-08
3.07302e-08
3.06093e-08
3.04916e-08
3.03783e-08
3.02707e-08
3.01694e-08
3.00752e-08
2.99885e-08
2.99095e-08
2.98385e-08
2.97754e-08
2.97203e-08
2.96731e-08
2.96334e-08
2.96012e-08
2.95762e-08
2.95579e-08
2.95461e-08
2.95404e-08
3.0272e-08
3.02187e-08
3.01447e-08
3.00546e-08
2.99525e-08
2.9842e-08
2.97261e-08
2.96076e-08
2.94888e-08
2.93715e-08
2.92573e-08
2.91475e-08
2.90432e-08
2.89451e-08
2.88538e-08
2.87698e-08
2.86933e-08
2.86245e-08
2.85634e-08
2.851e-08
2.84642e-08
2.84258e-08
2.83946e-08
2.83703e-08
2.83525e-08
2.83411e-08
2.83355e-08
2.90916e-08
2.90403e-08
2.89692e-08
2.88826e-08
2.87844e-08
2.86782e-08
2.85669e-08
2.84531e-08
2.8339e-08
2.82263e-08
2.81167e-08
2.80113e-08
2.79111e-08
2.7817e-08
2.77293e-08
2.76486e-08
2.75751e-08
2.7509e-08
2.74503e-08
2.7399e-08
2.7355e-08
2.7318e-08
2.7288e-08
2.72646e-08
2.72475e-08
2.72365e-08
2.72311e-08
2.79929e-08
2.7944e-08
2.7876e-08
2.77933e-08
2.76996e-08
2.75982e-08
2.7492e-08
2.73833e-08
2.72744e-08
2.71668e-08
2.70622e-08
2.69615e-08
2.68658e-08
2.67758e-08
2.66921e-08
2.66149e-08
2.65447e-08
2.64815e-08
2.64253e-08
2.63762e-08
2.63341e-08
2.62987e-08
2.62699e-08
2.62475e-08
2.62311e-08
2.62206e-08
2.62154e-08
2.69715e-08
2.69249e-08
2.68603e-08
2.67817e-08
2.66925e-08
2.65961e-08
2.6495e-08
2.63916e-08
2.62879e-08
2.61855e-08
2.60858e-08
2.59899e-08
2.58988e-08
2.5813e-08
2.57332e-08
2.56596e-08
2.55926e-08
2.55323e-08
2.54787e-08
2.54318e-08
2.53916e-08
2.53578e-08
2.53303e-08
2.53088e-08
2.52932e-08
2.5283e-08
2.52781e-08
2.60217e-08
2.59775e-08
2.59162e-08
2.58415e-08
2.57568e-08
2.56652e-08
2.55691e-08
2.54709e-08
2.53723e-08
2.52749e-08
2.51801e-08
2.50889e-08
2.50022e-08
2.49205e-08
2.48445e-08
2.47744e-08
2.47105e-08
2.4653e-08
2.46019e-08
2.45572e-08
2.45188e-08
2.44865e-08
2.44602e-08
2.44397e-08
2.44248e-08
2.44151e-08
2.44104e-08
2.51377e-08
2.50957e-08
2.50375e-08
2.49666e-08
2.48862e-08
2.47992e-08
2.47079e-08
2.46145e-08
2.45208e-08
2.44283e-08
2.43381e-08
2.42513e-08
2.41688e-08
2.40911e-08
2.40186e-08
2.39519e-08
2.3891e-08
2.38362e-08
2.37874e-08
2.37448e-08
2.37081e-08
2.36773e-08
2.36522e-08
2.36326e-08
2.36183e-08
2.3609e-08
2.36046e-08
2.43134e-08
2.42736e-08
2.42183e-08
2.4151e-08
2.40746e-08
2.39919e-08
2.39052e-08
2.38164e-08
2.37273e-08
2.36393e-08
2.35535e-08
2.34709e-08
2.33923e-08
2.33182e-08
2.32492e-08
2.31856e-08
2.31275e-08
2.30752e-08
2.30287e-08
2.2988e-08
2.29529e-08
2.29235e-08
2.28995e-08
2.28808e-08
2.28671e-08
2.28582e-08
2.28539e-08
2.35435e-08
2.35057e-08
2.34531e-08
2.33891e-08
2.33165e-08
2.32379e-08
2.31554e-08
2.30709e-08
2.29861e-08
2.29022e-08
2.28205e-08
2.27418e-08
2.26669e-08
2.25963e-08
2.25305e-08
2.24697e-08
2.24143e-08
2.23644e-08
2.23199e-08
2.2281e-08
2.22475e-08
2.22193e-08
2.21964e-08
2.21785e-08
2.21654e-08
2.21569e-08
2.21528e-08
2.28228e-08
2.27868e-08
2.27368e-08
2.26758e-08
2.26067e-08
2.25319e-08
2.24533e-08
2.23728e-08
2.2292e-08
2.22121e-08
2.21341e-08
2.20591e-08
2.19875e-08
2.19201e-08
2.18573e-08
2.17993e-08
2.17463e-08
2.16985e-08
2.1656e-08
2.16188e-08
2.15867e-08
2.15598e-08
2.15378e-08
2.15206e-08
2.15081e-08
2.15e-08
2.1496e-08
2.21466e-08
2.21123e-08
2.20646e-08
2.20066e-08
2.19407e-08
2.18693e-08
2.17944e-08
2.17176e-08
2.16405e-08
2.15642e-08
2.14898e-08
2.14181e-08
2.13497e-08
2.12853e-08
2.12252e-08
2.11697e-08
2.1119e-08
2.10733e-08
2.10326e-08
2.09969e-08
2.09661e-08
2.09403e-08
2.09192e-08
2.09028e-08
2.08907e-08
2.08829e-08
2.08791e-08
2.15108e-08
2.1478e-08
2.14326e-08
2.13771e-08
2.13143e-08
2.12461e-08
2.11745e-08
2.11012e-08
2.10274e-08
2.09545e-08
2.08833e-08
2.08147e-08
2.07493e-08
2.06876e-08
2.06301e-08
2.05769e-08
2.05283e-08
2.04845e-08
2.04455e-08
2.04112e-08
2.03817e-08
2.03569e-08
2.03367e-08
2.03209e-08
2.03093e-08
2.03018e-08
2.02982e-08
2.09114e-08
2.08801e-08
2.08366e-08
2.07837e-08
2.07235e-08
2.06583e-08
2.05899e-08
2.05197e-08
2.04491e-08
2.03793e-08
2.03111e-08
2.02454e-08
2.01827e-08
2.01235e-08
2.00683e-08
2.00173e-08
1.99707e-08
1.99286e-08
1.98911e-08
1.98582e-08
1.98299e-08
1.98061e-08
1.97866e-08
1.97714e-08
1.97603e-08
1.9753e-08
1.97495e-08
2.03449e-08
2.0315e-08
2.02734e-08
2.02227e-08
2.01651e-08
2.01026e-08
2.0037e-08
1.99697e-08
1.99021e-08
1.98351e-08
1.97697e-08
1.97066e-08
1.96464e-08
1.95896e-08
1.95366e-08
1.94876e-08
1.94428e-08
1.94023e-08
1.93663e-08
1.93346e-08
1.93073e-08
1.92844e-08
1.92657e-08
1.9251e-08
1.92403e-08
1.92333e-08
1.92299e-08
1.98082e-08
1.97794e-08
1.97395e-08
1.96909e-08
1.96356e-08
1.95757e-08
1.95127e-08
1.94481e-08
1.93832e-08
1.93188e-08
1.9256e-08
1.91953e-08
1.91375e-08
1.90828e-08
1.90318e-08
1.89846e-08
1.89415e-08
1.89025e-08
1.88678e-08
1.88373e-08
1.8811e-08
1.87889e-08
1.87708e-08
1.87567e-08
1.87463e-08
1.87396e-08
1.87363e-08
1.9298e-08
1.92704e-08
1.92321e-08
1.91853e-08
1.91322e-08
1.90746e-08
1.9014e-08
1.89519e-08
1.88894e-08
1.88275e-08
1.8767e-08
1.87086e-08
1.86528e-08
1.86002e-08
1.8551e-08
1.85055e-08
1.84639e-08
1.84263e-08
1.83928e-08
1.83633e-08
1.8338e-08
1.83166e-08
1.82991e-08
1.82855e-08
1.82755e-08
1.8269e-08
1.82658e-08
1.88115e-08
1.8785e-08
1.87481e-08
1.8703e-08
1.86519e-08
1.85964e-08
1.85381e-08
1.84782e-08
1.84179e-08
1.83582e-08
1.82998e-08
1.82435e-08
1.81897e-08
1.81389e-08
1.80914e-08
1.80474e-08
1.80072e-08
1.79709e-08
1.79385e-08
1.791e-08
1.78855e-08
1.78648e-08
1.78479e-08
1.78347e-08
1.7825e-08
1.78187e-08
1.78156e-08
1.8346e-08
1.83203e-08
1.82847e-08
1.82413e-08
1.81919e-08
1.81383e-08
1.8082e-08
1.80242e-08
1.79659e-08
1.79082e-08
1.78518e-08
1.77973e-08
1.77453e-08
1.76962e-08
1.76502e-08
1.76077e-08
1.75687e-08
1.75335e-08
1.75021e-08
1.74746e-08
1.74508e-08
1.74307e-08
1.74143e-08
1.74015e-08
1.73921e-08
1.7386e-08
1.7383e-08
1.78985e-08
1.78737e-08
1.78393e-08
1.77972e-08
1.77495e-08
1.76976e-08
1.76431e-08
1.75871e-08
1.75307e-08
1.74748e-08
1.74202e-08
1.73674e-08
1.73169e-08
1.72693e-08
1.72247e-08
1.71834e-08
1.71456e-08
1.71115e-08
1.7081e-08
1.70542e-08
1.70311e-08
1.70116e-08
1.69957e-08
1.69832e-08
1.69741e-08
1.69681e-08
1.69653e-08
1.74663e-08
1.74423e-08
1.74089e-08
1.73681e-08
1.73218e-08
1.72715e-08
1.72185e-08
1.71642e-08
1.71094e-08
1.70551e-08
1.7002e-08
1.69507e-08
1.69017e-08
1.68554e-08
1.6812e-08
1.67718e-08
1.67351e-08
1.67018e-08
1.66722e-08
1.66461e-08
1.66236e-08
1.66046e-08
1.65891e-08
1.65769e-08
1.6568e-08
1.65622e-08
1.65594e-08
1.70465e-08
1.70231e-08
1.69906e-08
1.6951e-08
1.69059e-08
1.68569e-08
1.68054e-08
1.67524e-08
1.66991e-08
1.66462e-08
1.65945e-08
1.65444e-08
1.64966e-08
1.64514e-08
1.64091e-08
1.637e-08
1.63341e-08
1.63016e-08
1.62727e-08
1.62472e-08
1.62252e-08
1.62067e-08
1.61915e-08
1.61796e-08
1.61709e-08
1.61653e-08
1.61625e-08
1.6636e-08
1.66132e-08
1.65814e-08
1.65427e-08
1.64987e-08
1.64508e-08
1.64005e-08
1.63488e-08
1.62966e-08
1.62449e-08
1.61943e-08
1.61454e-08
1.60986e-08
1.60543e-08
1.60129e-08
1.59746e-08
1.59394e-08
1.59077e-08
1.58793e-08
1.58543e-08
1.58327e-08
1.58146e-08
1.57997e-08
1.57881e-08
1.57795e-08
1.5774e-08
1.57713e-08
1.62314e-08
1.62091e-08
1.6178e-08
1.614e-08
1.60968e-08
1.60499e-08
1.60005e-08
1.59497e-08
1.58986e-08
1.58478e-08
1.57981e-08
1.575e-08
1.57041e-08
1.56606e-08
1.56199e-08
1.55822e-08
1.55476e-08
1.55164e-08
1.54884e-08
1.54639e-08
1.54427e-08
1.54248e-08
1.54101e-08
1.53987e-08
1.53903e-08
1.53848e-08
1.53822e-08
1.58293e-08
1.58073e-08
1.57766e-08
1.57392e-08
1.56967e-08
1.56504e-08
1.56017e-08
1.55517e-08
1.55012e-08
1.54511e-08
1.5402e-08
1.53546e-08
1.53092e-08
1.52663e-08
1.52261e-08
1.51889e-08
1.51548e-08
1.51239e-08
1.50963e-08
1.5072e-08
1.5051e-08
1.50334e-08
1.50189e-08
1.50076e-08
1.49992e-08
1.49938e-08
1.49912e-08
1.54256e-08
1.54038e-08
1.53734e-08
1.53363e-08
1.52942e-08
1.52483e-08
1.52e-08
1.51504e-08
1.51004e-08
1.50507e-08
1.5002e-08
1.49549e-08
1.49099e-08
1.48673e-08
1.48274e-08
1.47904e-08
1.47565e-08
1.47258e-08
1.46984e-08
1.46743e-08
1.46535e-08
1.46359e-08
1.46215e-08
1.46103e-08
1.4602e-08
1.45966e-08
1.4594e-08
1.50158e-08
1.4994e-08
1.49638e-08
1.49268e-08
1.48848e-08
1.48391e-08
1.47909e-08
1.47414e-08
1.46914e-08
1.46418e-08
1.45933e-08
1.45463e-08
1.45013e-08
1.44588e-08
1.44189e-08
1.43819e-08
1.43481e-08
1.43174e-08
1.429e-08
1.42659e-08
1.42451e-08
1.42276e-08
1.42132e-08
1.42019e-08
1.41937e-08
1.41883e-08
1.41857e-08
1.4595e-08
1.45732e-08
1.45428e-08
1.45057e-08
1.44635e-08
1.44176e-08
1.43692e-08
1.43194e-08
1.42693e-08
1.42194e-08
1.41706e-08
1.41234e-08
1.40782e-08
1.40354e-08
1.39953e-08
1.39581e-08
1.39241e-08
1.38932e-08
1.38657e-08
1.38414e-08
1.38205e-08
1.38028e-08
1.37884e-08
1.3777e-08
1.37687e-08
1.37633e-08
1.37607e-08
1.41577e-08
1.41356e-08
1.41049e-08
1.40673e-08
1.40246e-08
1.39782e-08
1.39292e-08
1.38789e-08
1.38281e-08
1.37776e-08
1.37282e-08
1.36803e-08
1.36346e-08
1.35912e-08
1.35506e-08
1.3513e-08
1.34785e-08
1.34472e-08
1.34193e-08
1.33948e-08
1.33735e-08
1.33557e-08
1.3341e-08
1.33295e-08
1.33211e-08
1.33156e-08
1.3313e-08
1.36977e-08
1.36752e-08
1.36439e-08
1.36056e-08
1.3562e-08
1.35147e-08
1.34647e-08
1.34134e-08
1.33615e-08
1.331e-08
1.32596e-08
1.32108e-08
1.31641e-08
1.31198e-08
1.30784e-08
1.304e-08
1.30048e-08
1.29729e-08
1.29444e-08
1.29193e-08
1.28977e-08
1.28794e-08
1.28645e-08
1.28528e-08
1.28442e-08
1.28386e-08
1.28359e-08
1.32085e-08
1.31853e-08
1.31531e-08
1.31138e-08
1.3069e-08
1.30203e-08
1.29689e-08
1.29161e-08
1.28628e-08
1.28098e-08
1.2758e-08
1.27078e-08
1.26597e-08
1.26142e-08
1.25716e-08
1.25321e-08
1.24959e-08
1.24631e-08
1.24338e-08
1.2408e-08
1.23858e-08
1.2367e-08
1.23516e-08
1.23396e-08
1.23308e-08
1.2325e-08
1.23223e-08
1.26829e-08
1.26589e-08
1.26255e-08
1.25848e-08
1.25384e-08
1.24879e-08
1.24347e-08
1.23799e-08
1.23247e-08
1.22698e-08
1.2216e-08
1.2164e-08
1.21142e-08
1.20671e-08
1.20229e-08
1.1982e-08
1.19445e-08
1.19105e-08
1.18802e-08
1.18535e-08
1.18305e-08
1.18111e-08
1.17952e-08
1.17827e-08
1.17736e-08
1.17677e-08
1.17648e-08
1.21136e-08
1.20886e-08
1.20538e-08
1.20112e-08
1.19628e-08
1.19101e-08
1.18546e-08
1.17975e-08
1.17398e-08
1.16826e-08
1.16265e-08
1.15722e-08
1.15203e-08
1.14712e-08
1.14251e-08
1.13825e-08
1.13434e-08
1.1308e-08
1.12764e-08
1.12487e-08
1.12247e-08
1.12045e-08
1.11879e-08
1.1175e-08
1.11655e-08
1.11593e-08
1.11563e-08
1.14936e-08
1.14674e-08
1.14308e-08
1.13861e-08
1.13353e-08
1.128e-08
1.12218e-08
1.11619e-08
1.11014e-08
1.10414e-08
1.09826e-08
1.09257e-08
1.08713e-08
1.08198e-08
1.07716e-08
1.07269e-08
1.0686e-08
1.0649e-08
1.06159e-08
1.05868e-08
1.05618e-08
1.05406e-08
1.05233e-08
1.05098e-08
1.04999e-08
1.04934e-08
1.04903e-08
1.08165e-08
1.07888e-08
1.07503e-08
1.07033e-08
1.06497e-08
1.05915e-08
1.05302e-08
1.04671e-08
1.04035e-08
1.03403e-08
1.02785e-08
1.02187e-08
1.01615e-08
1.01074e-08
1.00568e-08
1.00099e-08
9.96701e-09
9.92818e-09
9.89351e-09
9.86305e-09
9.83677e-09
9.81462e-09
9.79652e-09
9.78235e-09
9.77197e-09
9.76522e-09
9.76194e-09
1.00775e-08
1.00483e-08
1.00077e-08
9.9581e-09
9.90166e-09
9.8403e-09
9.77568e-09
9.70927e-09
9.64231e-09
9.57588e-09
9.51086e-09
9.44801e-09
9.38794e-09
9.33115e-09
9.27801e-09
9.22883e-09
9.18382e-09
9.14311e-09
9.1068e-09
9.07489e-09
9.04738e-09
9.02421e-09
9.00527e-09
8.99045e-09
8.9796e-09
8.97255e-09
8.96913e-09
9.27469e-09
9.24396e-09
9.20119e-09
9.149e-09
9.08966e-09
9.02517e-09
8.9573e-09
8.88758e-09
8.81733e-09
8.74768e-09
8.67955e-09
8.61374e-09
8.55088e-09
8.49149e-09
8.43595e-09
8.38458e-09
8.33759e-09
8.29512e-09
8.25725e-09
8.224e-09
8.19534e-09
8.1712e-09
8.15149e-09
8.13607e-09
8.12478e-09
8.11746e-09
8.1139e-09
8.40998e-09
8.37784e-09
8.33313e-09
8.27858e-09
8.2166e-09
8.1493e-09
8.07851e-09
8.00586e-09
7.93272e-09
7.86026e-09
7.78944e-09
7.72109e-09
7.65586e-09
7.59427e-09
7.53673e-09
7.48355e-09
7.43493e-09
7.39102e-09
7.35189e-09
7.31756e-09
7.28798e-09
7.26308e-09
7.24276e-09
7.22687e-09
7.21524e-09
7.2077e-09
7.20403e-09
7.49101e-09
7.45776e-09
7.41154e-09
7.35519e-09
7.2912e-09
7.22179e-09
7.14886e-09
7.07408e-09
6.99888e-09
6.92445e-09
6.8518e-09
6.78176e-09
6.71497e-09
6.65199e-09
6.5932e-09
6.53891e-09
6.48932e-09
6.44458e-09
6.40474e-09
6.3698e-09
6.33973e-09
6.31443e-09
6.29379e-09
6.27766e-09
6.26586e-09
6.25821e-09
6.25449e-09
6.53224e-09
6.49842e-09
6.45142e-09
6.39419e-09
6.32927e-09
6.25892e-09
6.18511e-09
6.10953e-09
6.03362e-09
5.95859e-09
5.88546e-09
5.81504e-09
5.748e-09
5.68484e-09
5.62597e-09
5.57166e-09
5.52212e-09
5.47746e-09
5.43773e-09
5.40292e-09
5.37298e-09
5.34781e-09
5.32729e-09
5.31127e-09
5.29955e-09
5.29196e-09
5.28827e-09
5.55579e-09
5.52216e-09
5.47548e-09
5.41868e-09
5.35435e-09
5.28474e-09
5.21182e-09
5.13728e-09
5.06254e-09
4.9888e-09
4.91705e-09
4.84807e-09
4.78251e-09
4.72085e-09
4.66346e-09
4.61059e-09
4.56243e-09
4.51907e-09
4.48053e-09
4.44681e-09
4.41784e-09
4.3935e-09
4.37368e-09
4.3582e-09
4.3469e-09
4.33958e-09
4.33603e-09
4.59103e-09
4.55857e-09
4.51357e-09
4.45889e-09
4.39706e-09
4.33028e-09
4.26046e-09
4.18923e-09
4.11798e-09
4.04783e-09
3.97971e-09
3.91437e-09
3.85238e-09
3.7942e-09
3.74015e-09
3.69045e-09
3.64524e-09
3.6046e-09
3.56854e-09
3.53703e-09
3.50998e-09
3.48729e-09
3.46882e-09
3.45442e-09
3.4439e-09
3.4371e-09
3.4338e-09
3.67247e-09
3.64228e-09
3.60049e-09
3.5498e-09
3.49259e-09
3.43094e-09
3.36664e-09
3.30121e-09
3.23593e-09
3.17183e-09
3.10975e-09
3.05035e-09
2.99415e-09
2.94151e-09
2.89273e-09
2.84797e-09
2.80734e-09
2.77088e-09
2.73859e-09
2.71041e-09
2.68625e-09
2.66602e-09
2.64957e-09
2.63676e-09
2.62741e-09
2.62136e-09
2.61843e-09
2.83557e-09
2.80873e-09
2.77162e-09
2.72671e-09
2.67615e-09
2.6218e-09
2.5653e-09
2.50797e-09
2.45095e-09
2.39514e-09
2.34126e-09
2.28987e-09
2.24138e-09
2.19611e-09
2.15427e-09
2.11598e-09
2.0813e-09
2.05026e-09
2.02283e-09
1.99893e-09
1.97849e-09
1.96138e-09
1.9475e-09
1.9367e-09
1.92883e-09
1.92374e-09
1.92128e-09
2.11103e-09
2.08838e-09
2.05713e-09
2.0194e-09
1.97705e-09
1.93168e-09
1.88468e-09
1.83717e-09
1.7901e-09
1.7442e-09
1.70006e-09
1.65812e-09
1.61871e-09
1.58205e-09
1.5483e-09
1.51753e-09
1.48978e-09
1.46504e-09
1.44328e-09
1.42444e-09
1.40842e-09
1.39509e-09
1.38433e-09
1.37599e-09
1.36993e-09
1.36603e-09
1.36414e-09
1.51934e-09
1.50139e-09
1.4767e-09
1.44704e-09
1.41395e-09
1.3788e-09
1.34276e-09
1.30659e-09
1.27094e-09
1.23634e-09
1.20321e-09
1.17185e-09
1.14248e-09
1.11526e-09
1.09026e-09
1.06755e-09
1.0471e-09
1.02891e-09