/*--------------------------------*- C++ -*----------------------------------*\
| =========                 |                                                 |
| \\      /  F ield         | OpenFOAM: The Open Source CFD Toolbox           |
|  \\    /   O peration     | Version:  2106                                  |
|   \\  /    A nd           | Website:  www.openfoam.com                      |
|    \\/     M anipulation  |                                                 |
\*---------------------------------------------------------------------------*/
FoamFile
{
    version     2.0;
    format      ascii;
    arch        "LSB;label=32;scalar=64";
    class       volScalarField;
    location    "150.00049";
    object      I-C4H51;
}
// * * * * * * * * * * * * * * * * * * * * * * * * * * * * * * * * * * * * * //

dimensions      [0 0 0 0 0 0 0];

internalField   nonuniform List<scalar> 
3360
(
1.87386e-21
1.93417e-21
2.01809e-21
2.12073e-21
2.23783e-21
2.36554e-21
2.50039e-21
2.63925e-21
2.77933e-21
2.91817e-21
3.05363e-21
3.1839e-21
3.30749e-21
3.4232e-21
3.53013e-21
3.62765e-21
3.71537e-21
3.79311e-21
3.86091e-21
3.91898e-21
3.96766e-21
4.00742e-21
4.03882e-21
4.06251e-21
4.07917e-21
4.08954e-21
4.09435e-21
8.22018e-21
8.52232e-21
8.9487e-21
9.47969e-21
1.0099e-20
1.07925e-20
1.15475e-20
1.23523e-20
1.31962e-20
1.40691e-20
1.4961e-20
1.58625e-20
1.67641e-20
1.76567e-20
1.8531e-20
1.93782e-20
2.01894e-20
2.09561e-20
2.16702e-20
2.2324e-20
2.29105e-20
2.34235e-20
2.38577e-20
2.42088e-20
2.44738e-20
2.46508e-20
2.4739e-20
2.57928e-20
2.69248e-20
2.85334e-20
3.05547e-20
3.29357e-20
3.5629e-20
3.85891e-20
4.17715e-20
4.51311e-20
4.86219e-20
5.21966e-20
5.58087e-20
5.94117e-20
6.29599e-20
6.64091e-20
6.97173e-20
7.28457e-20
7.57594e-20
7.84282e-20
8.08271e-20
8.29365e-20
8.47428e-20
8.62382e-20
8.74201e-20
8.82915e-20
8.88598e-20
8.91364e-20
7.51176e-20
7.88486e-20
8.4186e-20
9.09389e-20
9.89475e-20
1.08062e-19
1.18134e-19
1.29008e-19
1.40521e-19
1.52502e-19
1.64776e-19
1.77162e-19
1.89482e-19
2.01563e-19
2.1324e-19
2.24361e-19
2.34793e-19
2.44421e-19
2.53153e-19
2.60922e-19
2.67681e-19
2.73407e-19
2.78097e-19
2.81765e-19
2.84442e-19
2.8617e-19
2.87004e-19
2.1947e-19
2.31241e-19
2.48111e-19
2.69505e-19
2.94932e-19
3.23924e-19
3.55997e-19
3.90639e-19
4.27304e-19
4.65416e-19
5.04381e-19
5.436e-19
5.82482e-19
6.20468e-19
6.57035e-19
6.91719e-19
7.24116e-19
7.53895e-19
7.80799e-19
8.04643e-19
8.25316e-19
8.42771e-19
8.57024e-19
8.68141e-19
8.76232e-19
8.81445e-19
8.83954e-19
6.47103e-19
6.83251e-19
7.35124e-19
8.00962e-19
8.7926e-19
9.68558e-19
1.06735e-18
1.17402e-18
1.28685e-18
1.40405e-18
1.52374e-18
1.64405e-18
1.76315e-18
1.87932e-18
1.99096e-18
2.09665e-18
2.1952e-18
2.28562e-18
2.36716e-18
2.4393e-18
2.50174e-18
2.55438e-18
2.59729e-18
2.63072e-18
2.65501e-18
2.67065e-18
2.67817e-18
1.92225e-18
2.03209e-18
2.18971e-18
2.38977e-18
2.62768e-18
2.89894e-18
3.19891e-18
3.52263e-18
3.86481e-18
4.2199e-18
4.58223e-18
4.94609e-18
5.30595e-18
5.65659e-18
5.99324e-18
6.31169e-18
6.60836e-18
6.88036e-18
7.12549e-18
7.34224e-18
7.52976e-18
7.68778e-18
7.81656e-18
7.91683e-18
7.98971e-18
8.03659e-18
8.05913e-18
5.72891e-18
6.05942e-18
6.53393e-18
7.13643e-18
7.85307e-18
8.67035e-18
9.57414e-18
1.05494e-17
1.15802e-17
1.26496e-17
1.37404e-17
1.48355e-17
1.59181e-17
1.69726e-17
1.79846e-17
1.89414e-17
1.98324e-17
2.06489e-17
2.13844e-17
2.20345e-17
2.25966e-17
2.30701e-17
2.34559e-17
2.37561e-17
2.39743e-17
2.41145e-17
2.41819e-17
1.7119e-17
1.81123e-17
1.95381e-17
2.13482e-17
2.3501e-17
2.59555e-17
2.86693e-17
3.15969e-17
3.469e-17
3.7898e-17
4.11691e-17
4.44517e-17
4.76959e-17
5.08547e-17
5.38852e-17
5.67498e-17
5.94167e-17
6.18602e-17
6.4061e-17
6.60058e-17
6.76875e-17
6.91039e-17
7.02577e-17
7.11558e-17
7.18082e-17
7.22278e-17
7.24295e-17
5.11549e-17
5.41296e-17
5.84004e-17
6.38228e-17
7.02718e-17
7.76247e-17
8.57538e-17
9.45225e-17
1.03786e-16
1.13392e-16
1.23186e-16
1.33012e-16
1.42721e-16
1.52173e-16
1.61239e-16
1.69806e-16
1.7778e-16
1.85085e-16
1.91662e-16
1.97473e-16
2.02497e-16
2.06727e-16
2.10172e-16
2.12852e-16
2.14799e-16
2.16051e-16
2.16653e-16
1.52927e-16
1.61832e-16
1.74613e-16
1.90837e-16
2.10128e-16
2.32118e-16
2.56422e-16
2.82631e-16
3.10309e-16
3.39003e-16
3.68246e-16
3.97577e-16
4.2655e-16
4.54744e-16
4.8178e-16
5.07323e-16
5.31092e-16
5.52859e-16
5.72455e-16
5.89765e-16
6.04726e-16
6.17323e-16
6.27581e-16
6.35563e-16
6.4136e-16
6.45087e-16
6.46878e-16
4.56705e-16
4.83285e-16
5.21435e-16
5.69856e-16
6.27419e-16
6.93017e-16
7.65498e-16
8.43636e-16
9.26126e-16
1.01161e-15
1.0987e-15
1.18602e-15
1.27224e-15
1.35611e-15
1.4365e-15
1.51242e-15
1.58304e-15
1.6477e-15
1.70588e-15
1.75726e-15
1.80165e-15
1.83901e-15
1.86943e-15
1.89309e-15
1.91027e-15
1.92131e-15
1.92662e-15
1.3623e-15
1.4415e-15
1.55513e-15
1.69929e-15
1.87059e-15
2.06569e-15
2.28113e-15
2.51324e-15
2.75811e-15
3.0117e-15
3.26989e-15
3.52857e-15
3.78383e-15
4.03199e-15
4.2697e-15
4.49408e-15
4.70267e-15
4.89353e-15
5.06522e-15
5.21676e-15
5.34764e-15
5.45776e-15
5.54739e-15
5.61708e-15
5.66767e-15
5.70019e-15
5.7158e-15
4.05126e-15
4.28615e-15
4.62304e-15
5.05023e-15
5.55752e-15
6.13491e-15
6.77202e-15
7.45784e-15
8.18078e-15
8.92877e-15
9.68961e-15
1.04512e-14
1.12021e-14
1.19313e-14
1.26293e-14
1.32875e-14
1.3899e-14
1.4458e-14
1.49604e-14
1.54036e-14
1.57861e-14
1.61077e-14
1.63693e-14
1.65727e-14
1.67202e-14
1.6815e-14
1.68605e-14
1.20029e-14
1.26956e-14
1.36885e-14
1.49465e-14
1.64389e-14
1.81356e-14
2.00056e-14
2.20159e-14
2.41321e-14
2.63187e-14
2.85397e-14
3.07599e-14
3.29456e-14
3.50657e-14
3.70922e-14
3.90008e-14
4.07717e-14
4.23889e-14
4.3841e-14
4.51206e-14
4.6224e-14
4.71511e-14
4.79046e-14
4.84899e-14
4.89143e-14
4.91868e-14
4.93176e-14
3.53508e-14
3.73744e-14
4.02724e-14
4.394e-14
4.82853e-14
5.32181e-14
5.86456e-14
6.44705e-14
7.05913e-14
7.69037e-14
8.33037e-14
8.96893e-14
9.59643e-14
1.0204e-13
1.07837e-13
1.13288e-13
1.18337e-13
1.22941e-13
1.27069e-13
1.30702e-13
1.33831e-13
1.36456e-13
1.38588e-13
1.40242e-13
1.41441e-13
1.4221e-13
1.42578e-13
1.0331e-13
1.09146e-13
1.17495e-13
1.28043e-13
1.40517e-13
1.54648e-13
1.7016e-13
1.86769e-13
2.04177e-13
2.22085e-13
2.40195e-13
2.58219e-13
2.75886e-13
2.92951e-13
3.09197e-13
3.24438e-13
3.38527e-13
3.51348e-13
3.62822e-13
3.72902e-13
3.8157e-13
3.88833e-13
3.94723e-13
3.99287e-13
4.0259e-13
4.04707e-13
4.05722e-13
2.98766e-13
3.15303e-13
3.38918e-13
3.68693e-13
4.03817e-13
4.43494e-13
4.86921e-13
5.33267e-13
5.81688e-13
6.31335e-13
6.81378e-13
7.31022e-13
7.79532e-13
8.26245e-13
8.70585e-13
9.12069e-13
9.50315e-13
9.85036e-13
1.01604e-12
1.04322e-12
1.06654e-12
1.08605e-12
1.10185e-12
1.11407e-12
1.1229e-12
1.12856e-12
1.13127e-12
8.52361e-13
8.98132e-13
9.63352e-13
1.04536e-12
1.14179e-12
1.25033e-12
1.36867e-12
1.49446e-12
1.62535e-12
1.75901e-12
1.89319e-12
2.02579e-12
2.15485e-12
2.27869e-12
2.39582e-12
2.50506e-12
2.60546e-12
2.69635e-12
2.77729e-12
2.84808e-12
2.90869e-12
2.95929e-12
3.00018e-12
3.03177e-12
3.05457e-12
3.06915e-12
3.07611e-12
2.38951e-12
2.51243e-12
2.68712e-12
2.90606e-12
3.16247e-12
3.44985e-12
3.76174e-12
4.09172e-12
4.43342e-12
4.78069e-12
5.1277e-12
5.46904e-12
5.79988e-12
6.116e-12
6.41386e-12
6.69062e-12
6.94414e-12
7.17292e-12
7.37607e-12
7.55326e-12
7.70463e-12
7.83071e-12
7.9324e-12
8.01082e-12
8.06734e-12
8.10342e-12
8.12065e-12
6.55348e-12
6.87163e-12
7.32243e-12
7.88521e-12
8.54136e-12
9.27316e-12
1.00633e-11
1.08947e-11
1.17512e-11
1.26171e-11
1.3478e-11
1.43206e-11
1.51336e-11
1.5907e-11
1.66328e-11
1.73046e-11
1.79178e-11
1.84694e-11
1.89578e-11
1.93826e-11
1.97446e-11
2.00455e-11
2.02877e-11
2.04742e-11
2.06083e-11
2.06938e-11
2.07346e-11
1.74968e-11
1.82855e-11
1.93995e-11
2.07843e-11
2.23912e-11
2.41739e-11
2.60883e-11
2.80918e-11
3.01442e-11
3.22082e-11
3.42495e-11
3.6238e-11
3.81476e-11
3.99563e-11
4.16468e-11
4.32058e-11
4.46239e-11
4.58955e-11
4.70182e-11
4.79922e-11
4.88203e-11
4.95072e-11
5.0059e-11
5.04831e-11
5.07878e-11
5.09818e-11
5.10743e-11
4.52598e-11
4.71243e-11
4.9749e-11
5.29984e-11
5.6751e-11
6.08929e-11
6.53168e-11
6.9922e-11
7.46148e-11
7.93097e-11
8.39306e-11
8.8411e-11
9.26948e-11
9.67362e-11
1.00499e-10
1.03958e-10
1.07094e-10
1.09898e-10
1.12367e-10
1.14505e-10
1.16318e-10
1.17819e-10
1.19023e-10
1.19947e-10
1.2061e-10
1.21032e-10
1.21233e-10
1.12997e-10
1.17194e-10
1.23083e-10
1.30347e-10
1.38699e-10
1.47873e-10
1.57625e-10
1.67727e-10
1.77972e-10
1.88175e-10
1.98173e-10
2.07827e-10
2.17023e-10
2.25668e-10
2.3369e-10
2.41042e-10
2.4769e-10
2.5362e-10
2.5883e-10
2.63331e-10
2.67142e-10
2.70293e-10
2.72816e-10
2.7475e-10
2.76136e-10
2.77017e-10
2.77436e-10
2.71778e-10
2.80793e-10
2.93413e-10
3.08925e-10
3.26692e-10
3.46131e-10
3.66707e-10
3.87933e-10
4.09372e-10
4.30639e-10
4.51403e-10
4.71383e-10
4.90353e-10
5.08132e-10
5.24587e-10
5.39628e-10
5.532e-10
5.6528e-10
5.75874e-10
5.8501e-10
5.92737e-10
5.99114e-10
6.04216e-10
6.08123e-10
6.10921e-10
6.12697e-10
6.13541e-10
6.30183e-10
6.48817e-10
6.74846e-10
7.06752e-10
7.43184e-10
7.82912e-10
8.24821e-10
8.67907e-10
9.11281e-10
9.54172e-10
9.9592e-10
1.03598e-09
1.07391e-09
1.10938e-09
1.14213e-09
1.17201e-09
1.19892e-09
1.22284e-09
1.24378e-09
1.26181e-09
1.27705e-09
1.28961e-09
1.29965e-09
1.30734e-09
1.31284e-09
1.31633e-09
1.31798e-09
1.41369e-09
1.45139e-09
1.50398e-09
1.56832e-09
1.64163e-09
1.72139e-09
1.80533e-09
1.89142e-09
1.97789e-09
2.06319e-09
2.14604e-09
2.22536e-09
2.30032e-09
2.37026e-09
2.43472e-09
2.49341e-09
2.54618e-09
2.59298e-09
2.63391e-09
2.6691e-09
2.69878e-09
2.72322e-09
2.74273e-09
2.75764e-09
2.76829e-09
2.77505e-09
2.77825e-09
3.08626e-09
3.16351e-09
3.27124e-09
3.40304e-09
3.55319e-09
3.71652e-09
3.88835e-09
4.06452e-09
4.24135e-09
4.41566e-09
4.58478e-09
4.74651e-09
4.8991e-09
5.04123e-09
5.17197e-09
5.29072e-09
5.3972e-09
5.49139e-09
5.57347e-09
5.64382e-09
5.70294e-09
5.75145e-09
5.79001e-09
5.81936e-09
5.84025e-09
5.85344e-09
5.85967e-09
6.59756e-09
6.76536e-09
7.00012e-09
7.28853e-09
7.61875e-09
7.98e-09
8.36245e-09
8.75717e-09
9.15612e-09
9.55221e-09
9.93926e-09
1.0312e-08
1.06662e-08
1.09983e-08
1.13057e-08
1.15867e-08
1.18399e-08
1.20651e-08
1.22621e-08
1.24316e-08
1.25744e-08
1.26918e-08
1.27853e-08
1.28565e-08
1.29071e-08
1.2939e-08
1.29541e-08
1.38362e-08
1.4232e-08
1.47907e-08
1.54851e-08
1.62918e-08
1.71891e-08
1.81571e-08
1.9177e-08
2.0231e-08
2.13025e-08
2.23759e-08
2.34365e-08
2.44711e-08
2.54675e-08
2.6415e-08
2.73042e-08
2.81273e-08
2.8878e-08
2.95517e-08
3.01452e-08
3.06572e-08
3.10877e-08
3.14384e-08
3.17116e-08
3.19106e-08
3.20391e-08
3.21013e-08
2.84767e-08
2.94434e-08
3.08219e-08
3.25586e-08
3.46085e-08
3.693e-08
3.94831e-08
4.22269e-08
4.51197e-08
4.81174e-08
5.11744e-08
5.42437e-08
5.72783e-08
6.0232e-08
6.30615e-08
6.57251e-08
6.81819e-08
7.03928e-08
7.23206e-08
7.39316e-08
7.51965e-08
7.60909e-08
7.66895e-08
7.70677e-08
7.72864e-08
7.73949e-08
7.7433e-08
5.76643e-08
5.98259e-08
6.29062e-08
6.6779e-08
7.13301e-08
7.64451e-08
8.20033e-08
8.78746e-08
9.39137e-08
9.99495e-08
1.05783e-07
1.11186e-07
1.15906e-07
1.19671e-07
1.22541e-07
1.24703e-07
1.26297e-07
1.27435e-07
1.28207e-07
1.28692e-07
1.28956e-07
1.29056e-07
1.29046e-07
1.28971e-07
1.28868e-07
1.28773e-07
1.28713e-07
1.11277e-07
1.15001e-07
1.20165e-07
1.26385e-07
1.33227e-07
1.4018e-07
1.46625e-07
1.52241e-07
1.57206e-07
1.61601e-07
1.65459e-07
1.688e-07
1.71643e-07
1.74012e-07
1.75943e-07
1.77478e-07
1.78662e-07
1.79541e-07
1.80158e-07
1.80559e-07
1.80785e-07
1.80877e-07
1.80871e-07
1.80805e-07
1.8071e-07
1.80622e-07
1.80566e-07
1.70552e-07
1.73135e-07
1.76646e-07
1.80795e-07
1.85322e-07
1.90002e-07
1.94653e-07
1.99147e-07
2.03402e-07
2.07361e-07
2.10988e-07
2.1426e-07
2.17166e-07
2.19707e-07
2.2189e-07
2.23733e-07
2.25256e-07
2.26484e-07
2.27447e-07
2.28176e-07
2.28703e-07
2.29061e-07
2.29284e-07
2.29404e-07
2.29452e-07
2.29458e-07
2.2945e-07
2.12495e-07
2.14745e-07
2.17826e-07
2.21504e-07
2.25577e-07
2.29871e-07
2.34239e-07
2.38563e-07
2.4275e-07
2.46729e-07
2.50447e-07
2.53866e-07
2.56965e-07
2.5973e-07
2.62161e-07
2.64265e-07
2.66054e-07
2.67546e-07
2.68765e-07
2.69737e-07
2.70488e-07
2.71048e-07
2.71447e-07
2.71713e-07
2.71874e-07
2.71957e-07
2.71987e-07
2.50421e-07
2.52467e-07
2.55276e-07
2.58641e-07
2.62384e-07
2.66349e-07
2.70404e-07
2.74439e-07
2.78367e-07
2.8212e-07
2.85646e-07
2.88908e-07
2.91884e-07
2.94559e-07
2.96932e-07
2.99005e-07
3.00789e-07
3.02298e-07
3.03552e-07
3.04572e-07
3.0538e-07
3.06001e-07
3.06461e-07
3.06783e-07
3.06992e-07
3.07111e-07
3.07161e-07
2.86001e-07
2.87771e-07
2.902e-07
2.93112e-07
2.96353e-07
2.99787e-07
3.03302e-07
3.06802e-07
3.10212e-07
3.13474e-07
3.16543e-07
3.19389e-07
3.21992e-07
3.2434e-07
3.26431e-07
3.28267e-07
3.29857e-07
3.31213e-07
3.32349e-07
3.33284e-07
3.34035e-07
3.34621e-07
3.35064e-07
3.35381e-07
3.35593e-07
3.35717e-07
3.35771e-07
3.18138e-07
3.1959e-07
3.21582e-07
3.2397e-07
3.26625e-07
3.29439e-07
3.32316e-07
3.35182e-07
3.37975e-07
3.40646e-07
3.43162e-07
3.45497e-07
3.47636e-07
3.49569e-07
3.51296e-07
3.52818e-07
3.54142e-07
3.55278e-07
3.56236e-07
3.5703e-07
3.57675e-07
3.58184e-07
3.58574e-07
3.58858e-07
3.59051e-07
3.59167e-07
3.59219e-07
3.46123e-07
3.47271e-07
3.48847e-07
3.50734e-07
3.52833e-07
3.55055e-07
3.57327e-07
3.5959e-07
3.61794e-07
3.63904e-07
3.65892e-07
3.67739e-07
3.69433e-07
3.70968e-07
3.72342e-07
3.73557e-07
3.74618e-07
3.75533e-07
3.76309e-07
3.76957e-07
3.77487e-07
3.7791e-07
3.78237e-07
3.78478e-07
3.78645e-07
3.78746e-07
3.78793e-07
3.69988e-07
3.70877e-07
3.72098e-07
3.7356e-07
3.75184e-07
3.76905e-07
3.78664e-07
3.80415e-07
3.82122e-07
3.83757e-07
3.85299e-07
3.86732e-07
3.8805e-07
3.89246e-07
3.90319e-07
3.91272e-07
3.92107e-07
3.9283e-07
3.93447e-07
3.93966e-07
3.94393e-07
3.94737e-07
3.95005e-07
3.95206e-07
3.95346e-07
3.95432e-07
3.95472e-07
3.90179e-07
3.90862e-07
3.91799e-07
3.92921e-07
3.94168e-07
3.95488e-07
3.96838e-07
3.98183e-07
3.99494e-07
4.00751e-07
4.01937e-07
4.03042e-07
4.04059e-07
4.04984e-07
4.05818e-07
4.0656e-07
4.07213e-07
4.07781e-07
4.08269e-07
4.08681e-07
4.09024e-07
4.09301e-07
4.0952e-07
4.09685e-07
4.09801e-07
4.09874e-07
4.09908e-07
4.07263e-07
4.07786e-07
4.08503e-07
4.09362e-07
4.10317e-07
4.11328e-07
4.12362e-07
4.13393e-07
4.14398e-07
4.15362e-07
4.16274e-07
4.17124e-07
4.17908e-07
4.18624e-07
4.1927e-07
4.19847e-07
4.20358e-07
4.20804e-07
4.2119e-07
4.21518e-07
4.21792e-07
4.22016e-07
4.22194e-07
4.2233e-07
4.22426e-07
4.22488e-07
4.22517e-07
4.2177e-07
4.2217e-07
4.2272e-07
4.23378e-07
4.24109e-07
4.24884e-07
4.25676e-07
4.26466e-07
4.27237e-07
4.27977e-07
4.28677e-07
4.29332e-07
4.29937e-07
4.3049e-07
4.30991e-07
4.31441e-07
4.3184e-07
4.32191e-07
4.32496e-07
4.32757e-07
4.32977e-07
4.33159e-07
4.33304e-07
4.33415e-07
4.33496e-07
4.33547e-07
4.33572e-07
4.34142e-07
4.34449e-07
4.3487e-07
4.35374e-07
4.35934e-07
4.36527e-07
4.37134e-07
4.37739e-07
4.38329e-07
4.38896e-07
4.39433e-07
4.39936e-07
4.40402e-07
4.40829e-07
4.41218e-07
4.41567e-07
4.41879e-07
4.42155e-07
4.42396e-07
4.42604e-07
4.42781e-07
4.42928e-07
4.43046e-07
4.43138e-07
4.43205e-07
4.43248e-07
4.43269e-07
4.44733e-07
4.44967e-07
4.45289e-07
4.45673e-07
4.461e-07
4.46552e-07
4.47014e-07
4.47475e-07
4.47925e-07
4.48357e-07
4.48766e-07
4.4915e-07
4.49507e-07
4.49835e-07
4.50134e-07
4.50404e-07
4.50647e-07
4.50863e-07
4.51053e-07
4.51218e-07
4.51359e-07
4.51478e-07
4.51574e-07
4.5165e-07
4.51706e-07
4.51742e-07
4.5176e-07
4.53817e-07
4.53995e-07
4.54238e-07
4.54528e-07
4.54851e-07
4.55191e-07
4.55539e-07
4.55886e-07
4.56224e-07
4.56549e-07
4.56857e-07
4.57146e-07
4.57415e-07
4.57663e-07
4.57891e-07
4.58097e-07
4.58284e-07
4.58451e-07
4.58599e-07
4.58729e-07
4.58841e-07
4.58937e-07
4.59015e-07
4.59077e-07
4.59123e-07
4.59154e-07
4.59169e-07
4.61615e-07
4.61747e-07
4.61927e-07
4.62142e-07
4.6238e-07
4.62631e-07
4.62887e-07
4.63142e-07
4.6339e-07
4.63628e-07
4.63854e-07
4.64067e-07
4.64265e-07
4.64448e-07
4.64616e-07
4.64771e-07
4.64911e-07
4.65038e-07
4.65152e-07
4.65253e-07
4.65341e-07
4.65416e-07
4.65479e-07
4.6553e-07
4.65568e-07
4.65593e-07
4.65606e-07
4.68301e-07
4.68396e-07
4.68525e-07
4.68678e-07
4.68848e-07
4.69026e-07
4.69207e-07
4.69386e-07
4.6956e-07
4.69727e-07
4.69885e-07
4.70034e-07
4.70174e-07
4.70303e-07
4.70423e-07
4.70534e-07
4.70636e-07
4.70729e-07
4.70814e-07
4.7089e-07
4.70957e-07
4.71016e-07
4.71066e-07
4.71107e-07
4.71138e-07
4.71159e-07
4.71169e-07
4.7402e-07
4.74084e-07
4.74171e-07
4.74273e-07
4.74386e-07
4.74503e-07
4.74622e-07
4.74738e-07
4.74851e-07
4.74959e-07
4.75061e-07
4.75157e-07
4.75247e-07
4.75331e-07
4.7541e-07
4.75484e-07
4.75554e-07
4.75618e-07
4.75678e-07
4.75733e-07
4.75783e-07
4.75828e-07
4.75866e-07
4.75898e-07
4.75923e-07
4.7594e-07
4.75949e-07
4.78894e-07
4.78932e-07
4.78983e-07
4.79043e-07
4.79108e-07
4.79174e-07
4.7924e-07
4.79304e-07
4.79365e-07
4.79422e-07
4.79476e-07
4.79528e-07
4.79576e-07
4.79622e-07
4.79666e-07
4.79709e-07
4.79751e-07
4.79791e-07
4.7983e-07
4.79867e-07
4.79902e-07
4.79934e-07
4.79962e-07
4.79987e-07
4.80006e-07
4.8002e-07
4.80027e-07
4.83025e-07
4.83041e-07
4.83062e-07
4.83085e-07
4.83109e-07
4.83133e-07
4.83154e-07
4.83173e-07
4.8319e-07
4.83205e-07
4.83218e-07
4.83231e-07
4.83244e-07
4.83257e-07
4.83272e-07
4.83288e-07
4.83305e-07
4.83324e-07
4.83345e-07
4.83366e-07
4.83388e-07
4.83409e-07
4.83429e-07
4.83447e-07
4.83462e-07
4.83473e-07
4.83479e-07
4.86502e-07
4.86499e-07
4.86494e-07
4.86487e-07
4.86476e-07
4.86463e-07
4.86446e-07
4.86426e-07
4.86405e-07
4.86384e-07
4.86362e-07
4.86342e-07
4.86324e-07
4.86309e-07
4.86298e-07
4.86291e-07
4.86288e-07
4.86289e-07
4.86293e-07
4.86301e-07
4.86311e-07
4.86323e-07
4.86336e-07
4.86348e-07
4.86359e-07
4.86367e-07
4.86371e-07
4.89403e-07
4.89384e-07
4.89357e-07
4.89323e-07
4.89283e-07
4.89237e-07
4.89187e-07
4.89135e-07
4.89081e-07
4.89028e-07
4.88976e-07
4.88928e-07
4.88883e-07
4.88844e-07
4.88811e-07
4.88783e-07
4.88762e-07
4.88747e-07
4.88738e-07
4.88734e-07
4.88734e-07
4.88738e-07
4.88744e-07
4.88751e-07
4.88758e-07
4.88764e-07
4.88767e-07
4.91795e-07
4.91763e-07
4.91717e-07
4.91659e-07
4.91593e-07
4.9152e-07
4.91442e-07
4.91361e-07
4.91279e-07
4.91198e-07
4.91121e-07
4.91047e-07
4.9098e-07
4.9092e-07
4.90867e-07
4.90822e-07
4.90785e-07
4.90756e-07
4.90735e-07
4.9072e-07
4.90712e-07
4.90708e-07
4.90708e-07
4.90711e-07
4.90715e-07
4.90718e-07
4.90721e-07
4.93739e-07
4.93694e-07
4.93632e-07
4.93554e-07
4.93466e-07
4.93369e-07
4.93266e-07
4.9316e-07
4.93054e-07
4.92949e-07
4.92849e-07
4.92754e-07
4.92667e-07
4.92588e-07
4.92518e-07
4.92458e-07
4.92407e-07
4.92366e-07
4.92334e-07
4.92311e-07
4.92294e-07
4.92284e-07
4.92279e-07
4.92278e-07
4.92279e-07
4.92281e-07
4.92282e-07
4.95286e-07
4.95231e-07
4.95154e-07
4.95059e-07
4.94951e-07
4.94833e-07
4.94709e-07
4.94581e-07
4.94454e-07
4.94329e-07
4.94208e-07
4.94095e-07
4.9399e-07
4.93895e-07
4.9381e-07
4.93737e-07
4.93674e-07
4.93623e-07
4.93582e-07
4.9355e-07
4.93527e-07
4.93511e-07
4.93501e-07
4.93496e-07
4.93495e-07
4.93495e-07
4.93496e-07
4.96481e-07
4.96417e-07
4.96328e-07
4.96218e-07
4.96093e-07
4.95957e-07
4.95814e-07
4.95668e-07
4.95521e-07
4.95378e-07
4.95241e-07
4.95111e-07
4.94991e-07
4.94882e-07
4.94784e-07
4.94699e-07
4.94626e-07
4.94565e-07
4.94516e-07
4.94477e-07
4.94448e-07
4.94427e-07
4.94413e-07
4.94405e-07
4.94401e-07
4.944e-07
4.944e-07
4.97366e-07
4.97294e-07
4.97193e-07
4.9707e-07
4.96931e-07
4.96779e-07
4.96619e-07
4.96457e-07
4.96294e-07
4.96135e-07
4.95983e-07
4.95839e-07
4.95705e-07
4.95584e-07
4.95475e-07
4.95379e-07
4.95297e-07
4.95228e-07
4.95171e-07
4.95126e-07
4.95091e-07
4.95066e-07
4.95049e-07
4.95038e-07
4.95032e-07
4.9503e-07
4.95029e-07
4.97974e-07
4.97895e-07
4.97785e-07
4.9765e-07
4.97497e-07
4.97332e-07
4.97158e-07
4.96981e-07
4.96804e-07
4.96631e-07
4.96465e-07
4.96309e-07
4.96164e-07
4.96031e-07
4.95912e-07
4.95807e-07
4.95717e-07
4.9564e-07
4.95577e-07
4.95527e-07
4.95488e-07
4.95458e-07
4.95438e-07
4.95425e-07
4.95417e-07
4.95413e-07
4.95412e-07
4.98335e-07
4.9825e-07
4.98131e-07
4.97987e-07
4.97822e-07
4.97644e-07
4.97458e-07
4.97268e-07
4.97079e-07
4.96894e-07
4.96716e-07
4.96548e-07
4.96393e-07
4.9625e-07
4.96123e-07
4.9601e-07
4.95912e-07
4.95829e-07
4.9576e-07
4.95705e-07
4.95661e-07
4.95629e-07
4.95605e-07
4.9559e-07
4.9558e-07
4.95576e-07
4.95574e-07
4.98474e-07
4.98384e-07
4.98258e-07
4.98104e-07
4.97929e-07
4.9774e-07
4.97543e-07
4.97342e-07
4.97141e-07
4.96945e-07
4.96757e-07
4.96579e-07
4.96414e-07
4.96263e-07
4.96128e-07
4.96008e-07
4.95903e-07
4.95814e-07
4.95741e-07
4.95681e-07
4.95633e-07
4.95597e-07
4.95572e-07
4.95554e-07
4.95543e-07
4.95538e-07
4.95535e-07
4.98412e-07
4.98317e-07
4.98184e-07
4.98022e-07
4.97838e-07
4.9764e-07
4.97432e-07
4.9722e-07
4.9701e-07
4.96804e-07
4.96607e-07
4.9642e-07
4.96247e-07
4.96088e-07
4.95945e-07
4.95818e-07
4.95708e-07
4.95614e-07
4.95535e-07
4.95471e-07
4.9542e-07
4.95382e-07
4.95353e-07
4.95334e-07
4.95322e-07
4.95315e-07
4.95313e-07
4.98166e-07
4.98066e-07
4.97927e-07
4.97757e-07
4.97565e-07
4.97358e-07
4.97141e-07
4.9692e-07
4.967e-07
4.96485e-07
4.96279e-07
4.96084e-07
4.95903e-07
4.95737e-07
4.95587e-07
4.95455e-07
4.95339e-07
4.9524e-07
4.95157e-07
4.95089e-07
4.95035e-07
4.94994e-07
4.94963e-07
4.94942e-07
4.94929e-07
4.94921e-07
4.94919e-07
4.97746e-07
4.97642e-07
4.97497e-07
4.97321e-07
4.97121e-07
4.96906e-07
4.9668e-07
4.9645e-07
4.96222e-07
4.95999e-07
4.95784e-07
4.95582e-07
4.95393e-07
4.9522e-07
4.95065e-07
4.94926e-07
4.94805e-07
4.94702e-07
4.94615e-07
4.94543e-07
4.94486e-07
4.94442e-07
4.94409e-07
4.94387e-07
4.94372e-07
4.94364e-07
4.94361e-07
4.97163e-07
4.97054e-07
4.96904e-07
4.96721e-07
4.96514e-07
4.9629e-07
4.96056e-07
4.95818e-07
4.95581e-07
4.9535e-07
4.95128e-07
4.94918e-07
4.94722e-07
4.94543e-07
4.94381e-07
4.94237e-07
4.94111e-07
4.94003e-07
4.93912e-07
4.93837e-07
4.93777e-07
4.9373e-07
4.93696e-07
4.93671e-07
4.93656e-07
4.93647e-07
4.93643e-07
4.96418e-07
4.96306e-07
4.9615e-07
4.95961e-07
4.95746e-07
4.95514e-07
4.95272e-07
4.95026e-07
4.9478e-07
4.94541e-07
4.94311e-07
4.94093e-07
4.9389e-07
4.93705e-07
4.93536e-07
4.93387e-07
4.93256e-07
4.93143e-07
4.93048e-07
4.9297e-07
4.92907e-07
4.92858e-07
4.92821e-07
4.92795e-07
4.92778e-07
4.92769e-07
4.92765e-07
4.95511e-07
4.95395e-07
4.95233e-07
4.95037e-07
4.94815e-07
4.94575e-07
4.94324e-07
4.94069e-07
4.93815e-07
4.93567e-07
4.93329e-07
4.93103e-07
4.92893e-07
4.92701e-07
4.92526e-07
4.92371e-07
4.92234e-07
4.92117e-07
4.92018e-07
4.91936e-07
4.9187e-07
4.91818e-07
4.91779e-07
4.91752e-07
4.91734e-07
4.91723e-07
4.91719e-07
4.94434e-07
4.94314e-07
4.94147e-07
4.93943e-07
4.93713e-07
4.93464e-07
4.93204e-07
4.9294e-07
4.92677e-07
4.9242e-07
4.92172e-07
4.91939e-07
4.91721e-07
4.9152e-07
4.91339e-07
4.91177e-07
4.91035e-07
4.90913e-07
4.90809e-07
4.90723e-07
4.90654e-07
4.90599e-07
4.90558e-07
4.90529e-07
4.9051e-07
4.90498e-07
4.90494e-07
4.93177e-07
4.93051e-07
4.92878e-07
4.92666e-07
4.92427e-07
4.92168e-07
4.91898e-07
4.91624e-07
4.9135e-07
4.91082e-07
4.90825e-07
4.90582e-07
4.90355e-07
4.90146e-07
4.89957e-07
4.89789e-07
4.8964e-07
4.89512e-07
4.89403e-07
4.89313e-07
4.8924e-07
4.89183e-07
4.89139e-07
4.89108e-07
4.89087e-07
4.89075e-07
4.8907e-07
4.91718e-07
4.91587e-07
4.91406e-07
4.91186e-07
4.90936e-07
4.90666e-07
4.90384e-07
4.90098e-07
4.89812e-07
4.89533e-07
4.89264e-07
4.8901e-07
4.88773e-07
4.88554e-07
4.88356e-07
4.8818e-07
4.88024e-07
4.87889e-07
4.87775e-07
4.8768e-07
4.87602e-07
4.87541e-07
4.87495e-07
4.87462e-07
4.8744e-07
4.87427e-07
4.87421e-07
4.90031e-07
4.89894e-07
4.89704e-07
4.89473e-07
4.89211e-07
4.88928e-07
4.88632e-07
4.88332e-07
4.88032e-07
4.87739e-07
4.87457e-07
4.8719e-07
4.86941e-07
4.86711e-07
4.86502e-07
4.86316e-07
4.86152e-07
4.86009e-07
4.85888e-07
4.85787e-07
4.85705e-07
4.8564e-07
4.85591e-07
4.85555e-07
4.85531e-07
4.85517e-07
4.85511e-07
4.88079e-07
4.87934e-07
4.87734e-07
4.8749e-07
4.87214e-07
4.86915e-07
4.86603e-07
4.86286e-07
4.85969e-07
4.8566e-07
4.85362e-07
4.85079e-07
4.84815e-07
4.84572e-07
4.84351e-07
4.84153e-07
4.83978e-07
4.83827e-07
4.83698e-07
4.8359e-07
4.83502e-07
4.83432e-07
4.83379e-07
4.83341e-07
4.83315e-07
4.83299e-07
4.83292e-07
4.85815e-07
4.85661e-07
4.85448e-07
4.85189e-07
4.84895e-07
4.84578e-07
4.84246e-07
4.83908e-07
4.83571e-07
4.83241e-07
4.82924e-07
4.82622e-07
4.82341e-07
4.82081e-07
4.81845e-07
4.81633e-07
4.81446e-07
4.81284e-07
4.81145e-07
4.81029e-07
4.80934e-07
4.80859e-07
4.80801e-07
4.80759e-07
4.80731e-07
4.80714e-07
4.80706e-07
4.83178e-07
4.83013e-07
4.82785e-07
4.82507e-07
4.82192e-07
4.81851e-07
4.81495e-07
4.81132e-07
4.80771e-07
4.80416e-07
4.80075e-07
4.79751e-07
4.79448e-07
4.79169e-07
4.78914e-07
4.78685e-07
4.78483e-07
4.78308e-07
4.78157e-07
4.78031e-07
4.77928e-07
4.77846e-07
4.77783e-07
4.77737e-07
4.77705e-07
4.77686e-07
4.77678e-07
4.80093e-07
4.79916e-07
4.79668e-07
4.79367e-07
4.79026e-07
4.78657e-07
4.78272e-07
4.77878e-07
4.77486e-07
4.77102e-07
4.76732e-07
4.7638e-07
4.76051e-07
4.75746e-07
4.75469e-07
4.7522e-07
4.75e-07
4.74808e-07
4.74644e-07
4.74505e-07
4.74392e-07
4.74301e-07
4.74232e-07
4.74181e-07
4.74146e-07
4.74125e-07
4.74115e-07
4.76468e-07
4.76274e-07
4.76003e-07
4.75674e-07
4.75301e-07
4.74898e-07
4.74476e-07
4.74045e-07
4.73616e-07
4.73195e-07
4.72789e-07
4.72403e-07
4.72042e-07
4.71708e-07
4.71403e-07
4.71129e-07
4.70886e-07
4.70675e-07
4.70493e-07
4.7034e-07
4.70214e-07
4.70114e-07
4.70036e-07
4.69979e-07
4.6994e-07
4.69916e-07
4.69905e-07
4.72188e-07
4.71974e-07
4.71675e-07
4.71312e-07
4.709e-07
4.70454e-07
4.69987e-07
4.69512e-07
4.69037e-07
4.68571e-07
4.68121e-07
4.67694e-07
4.67293e-07
4.66923e-07
4.66585e-07
4.6628e-07
4.6601e-07
4.65774e-07
4.65571e-07
4.65401e-07
4.6526e-07
4.65147e-07
4.6506e-07
4.64995e-07
4.64951e-07
4.64924e-07
4.64912e-07
4.67117e-07
4.66878e-07
4.66545e-07
4.6614e-07
4.6568e-07
4.65183e-07
4.64662e-07
4.64131e-07
4.636e-07
4.6308e-07
4.62577e-07
4.62099e-07
4.61651e-07
4.61236e-07
4.60857e-07
4.60516e-07
4.60213e-07
4.59948e-07
4.5972e-07
4.59527e-07
4.59368e-07
4.59241e-07
4.59142e-07
4.59069e-07
4.59018e-07
4.58988e-07
4.58974e-07
4.61092e-07
4.60822e-07
4.60448e-07
4.59992e-07
4.59474e-07
4.58914e-07
4.58328e-07
4.5773e-07
4.57132e-07
4.56545e-07
4.55979e-07
4.5544e-07
4.54934e-07
4.54466e-07
4.54038e-07
4.53652e-07
4.53309e-07
4.53009e-07
4.5275e-07
4.52532e-07
4.52351e-07
4.52206e-07
4.52093e-07
4.5201e-07
4.51952e-07
4.51917e-07
4.51901e-07
4.53922e-07
4.53616e-07
4.53192e-07
4.52674e-07
4.52088e-07
4.51452e-07
4.50787e-07
4.50108e-07
4.4943e-07
4.48764e-07
4.48121e-07
4.47509e-07
4.46934e-07
4.46402e-07
4.45915e-07
4.45476e-07
4.45085e-07
4.44743e-07
4.44449e-07
4.442e-07
4.43993e-07
4.43827e-07
4.43698e-07
4.43602e-07
4.43536e-07
4.43495e-07
4.43476e-07
4.45391e-07
4.45042e-07
4.44558e-07
4.43968e-07
4.43299e-07
4.42574e-07
4.41815e-07
4.41041e-07
4.40267e-07
4.39507e-07
4.38773e-07
4.38075e-07
4.37418e-07
4.3681e-07
4.36255e-07
4.35753e-07
4.35307e-07
4.34916e-07
4.34578e-07
4.34293e-07
4.34057e-07
4.33867e-07
4.33718e-07
4.33608e-07
4.33531e-07
4.33485e-07
4.33463e-07
4.35261e-07
4.34862e-07
4.34308e-07
4.33633e-07
4.32867e-07
4.32038e-07
4.31169e-07
4.30283e-07
4.29398e-07
4.28529e-07
4.27689e-07
4.2689e-07
4.2614e-07
4.25444e-07
4.24808e-07
4.24235e-07
4.23724e-07
4.23277e-07
4.22891e-07
4.22564e-07
4.22294e-07
4.22075e-07
4.21905e-07
4.21779e-07
4.21691e-07
4.21637e-07
4.21612e-07
4.23285e-07
4.22828e-07
4.22194e-07
4.21421e-07
4.20544e-07
4.19596e-07
4.18603e-07
4.17589e-07
4.16577e-07
4.15584e-07
4.14625e-07
4.13712e-07
4.12855e-07
4.12061e-07
4.11335e-07
4.1068e-07
4.10097e-07
4.09587e-07
4.09147e-07
4.08774e-07
4.08465e-07
4.08216e-07
4.08022e-07
4.07878e-07
4.07777e-07
4.07716e-07
4.07688e-07
4.09228e-07
4.08708e-07
4.07984e-07
4.07102e-07
4.06103e-07
4.05022e-07
4.03891e-07
4.02738e-07
4.01586e-07
4.00456e-07
3.99366e-07
3.98329e-07
3.97356e-07
3.96455e-07
3.95632e-07
3.9489e-07
3.9423e-07
3.93652e-07
3.93153e-07
3.92732e-07
3.92383e-07
3.92101e-07
3.91882e-07
3.91719e-07
3.91605e-07
3.91536e-07
3.91504e-07
3.92908e-07
3.92319e-07
3.915e-07
3.90503e-07
3.89374e-07
3.88153e-07
3.86876e-07
3.85575e-07
3.84278e-07
3.83006e-07
3.8178e-07
3.80614e-07
3.79522e-07
3.78511e-07
3.77589e-07
3.76758e-07
3.7602e-07
3.75374e-07
3.74818e-07
3.74347e-07
3.73959e-07
3.73645e-07
3.73401e-07
3.7322e-07
3.73094e-07
3.73017e-07
3.72982e-07
3.74243e-07
3.73585e-07
3.72671e-07
3.7156e-07
3.70302e-07
3.68943e-07
3.67523e-07
3.66079e-07
3.64639e-07
3.63231e-07
3.61874e-07
3.60587e-07
3.59382e-07
3.58269e-07
3.57254e-07
3.56341e-07
3.55532e-07
3.54825e-07
3.54217e-07
3.53703e-07
3.5328e-07
3.52939e-07
3.52674e-07
3.52478e-07
3.52342e-07
3.52258e-07
3.52221e-07
3.53321e-07
3.52601e-07
3.51602e-07
3.50388e-07
3.49015e-07
3.47535e-07
3.45991e-07
3.44422e-07
3.42861e-07
3.41337e-07
3.39871e-07
3.38484e-07
3.37187e-07
3.35992e-07
3.34905e-07
3.33929e-07
3.33066e-07
3.32313e-07
3.31668e-07
3.31124e-07
3.30677e-07
3.30318e-07
3.3004e-07
3.29834e-07
3.29692e-07
3.29605e-07
3.29566e-07
3.30462e-07
3.29694e-07
3.28631e-07
3.2734e-07
3.25884e-07
3.24315e-07
3.22683e-07
3.21027e-07
3.19385e-07
3.17784e-07
3.16249e-07
3.148e-07
3.13449e-07
3.12207e-07
3.11081e-07
3.10073e-07
3.09184e-07
3.08411e-07
3.07751e-07
3.07197e-07
3.06742e-07
3.06379e-07
3.06099e-07
3.05892e-07
3.0575e-07
3.05665e-07
3.05626e-07
3.06225e-07
3.05431e-07
3.04333e-07
3.03002e-07
3.01502e-07
2.9989e-07
2.98215e-07
2.96521e-07
2.94843e-07
2.93213e-07
2.91653e-07
2.90183e-07
2.88816e-07
2.87563e-07
2.86429e-07
2.85415e-07
2.84523e-07
2.83748e-07
2.83087e-07
2.82534e-07
2.8208e-07
2.81718e-07
2.81439e-07
2.81234e-07
2.81095e-07
2.8101e-07
2.80973e-07
2.81249e-07
2.80439e-07
2.79316e-07
2.77952e-07
2.76412e-07
2.7475e-07
2.7302e-07
2.71265e-07
2.69523e-07
2.67827e-07
2.66199e-07
2.64656e-07
2.63211e-07
2.6187e-07
2.60637e-07
2.59509e-07
2.58483e-07
2.57552e-07
2.56707e-07
2.5594e-07
2.55238e-07
2.54624e-07
2.5411e-07
2.53703e-07
2.53405e-07
2.53211e-07
2.53117e-07
2.55363e-07
2.5446e-07
2.53181e-07
2.51573e-07
2.49663e-07
2.47458e-07
2.44947e-07
2.4231e-07
2.39657e-07
2.37063e-07
2.34578e-07
2.32234e-07
2.30053e-07
2.28047e-07
2.26223e-07