/*--------------------------------*- C++ -*----------------------------------*\
| =========                 |                                                 |
| \\      /  F ield         | OpenFOAM: The Open Source CFD Toolbox           |
|  \\    /   O peration     | Version:  2106                                  |
|   \\  /    A nd           | Website:  www.openfoam.com                      |
|    \\/     M anipulation  |                                                 |
\*---------------------------------------------------------------------------*/
FoamFile
{
    version     2.0;
    format      ascii;
    arch        "LSB;label=32;scalar=64";
    class       volScalarField;
    location    "219.99956";
    object      A1C2H_0;
}
// * * * * * * * * * * * * * * * * * * * * * * * * * * * * * * * * * * * * * //

dimensions      [0 0 0 0 0 0 0];

internalField   nonuniform List<scalar> 
3360
(
3.66296e-17
3.78082e-17
3.94484e-17
4.14547e-17
4.37434e-17
4.62395e-17
4.88751e-17
5.15891e-17
5.4327e-17
5.70406e-17
5.96882e-17
6.22344e-17
6.46501e-17
6.69118e-17
6.90019e-17
7.0908e-17
7.26224e-17
7.4142e-17
7.54673e-17
7.66022e-17
7.75537e-17
7.83308e-17
7.89446e-17
7.94076e-17
7.97334e-17
7.9936e-17
8.00301e-17
1.60687e-16
1.66593e-16
1.74927e-16
1.85305e-16
1.9741e-16
2.10964e-16
2.2572e-16
2.4145e-16
2.57944e-16
2.75003e-16
2.92435e-16
3.10054e-16
3.27677e-16
3.45122e-16
3.62211e-16
3.78769e-16
3.94624e-16
4.0961e-16
4.23568e-16
4.36347e-16
4.4781e-16
4.57837e-16
4.66323e-16
4.73187e-16
4.78367e-16
4.81825e-16
4.8355e-16
5.04166e-16
5.26292e-16
5.57732e-16
5.97239e-16
6.43778e-16
6.96419e-16
7.54276e-16
8.16478e-16
8.82143e-16
9.50371e-16
1.02024e-15
1.09084e-15
1.16126e-15
1.23061e-15
1.29803e-15
1.36269e-15
1.42383e-15
1.48078e-15
1.53294e-15
1.57983e-15
1.62106e-15
1.65636e-15
1.68559e-15
1.70869e-15
1.72572e-15
1.73683e-15
1.74223e-15
1.46825e-15
1.54118e-15
1.6455e-15
1.77749e-15
1.93402e-15
2.11218e-15
2.30903e-15
2.52156e-15
2.74659e-15
2.98077e-15
3.22067e-15
3.46276e-15
3.70356e-15
3.93968e-15
4.1679e-15
4.38526e-15
4.58913e-15
4.7773e-15
4.94797e-15
5.0998e-15
5.23191e-15
5.34382e-15
5.43548e-15
5.50717e-15
5.55948e-15
5.59326e-15
5.60956e-15
4.28958e-15
4.51963e-15
4.84934e-15
5.26746e-15
5.76443e-15
6.33106e-15
6.95791e-15
7.63497e-15
8.35158e-15
9.09649e-15
9.85806e-15
1.06246e-14
1.13846e-14
1.2127e-14
1.28417e-14
1.35196e-14
1.41528e-14
1.47348e-14
1.52607e-14
1.57267e-14
1.61307e-14
1.64719e-14
1.67505e-14
1.69677e-14
1.71259e-14
1.72277e-14
1.72768e-14
1.26481e-14
1.33546e-14
1.43684e-14
1.56552e-14
1.71855e-14
1.89307e-14
2.08615e-14
2.29463e-14
2.51516e-14
2.7442e-14
2.97813e-14
3.21326e-14
3.44605e-14
3.67309e-14
3.89127e-14
4.09785e-14
4.29045e-14
4.46716e-14
4.62652e-14
4.76752e-14
4.88955e-14
4.99243e-14
5.07631e-14
5.14164e-14
5.18912e-14
5.21968e-14
5.23437e-14
3.75708e-14
3.97175e-14
4.27979e-14
4.67079e-14
5.13576e-14
5.66592e-14
6.25219e-14
6.88487e-14
7.55365e-14
8.24768e-14
8.95585e-14
9.66701e-14
1.03704e-13
1.10557e-13
1.17137e-13
1.23361e-13
1.2916e-13
1.34477e-13
1.39268e-13
1.43505e-13
1.4717e-13
1.50258e-13
1.52776e-13
1.54736e-13
1.5616e-13
1.57076e-13
1.57517e-13
1.11978e-13
1.18438e-13
1.27712e-13
1.39487e-13
1.53494e-13
1.69468e-13
1.87132e-13
2.06195e-13
2.26341e-13
2.47244e-13
2.68566e-13
2.8997e-13
3.11132e-13
3.31744e-13
3.51525e-13
3.70229e-13
3.87645e-13
4.03607e-13
4.17985e-13
4.30693e-13
4.41683e-13
4.50939e-13
4.5848e-13
4.6435e-13
4.68614e-13
4.71356e-13
4.72674e-13
3.34634e-13
3.54049e-13
3.81917e-13
4.17297e-13
4.59376e-13
5.07355e-13
5.60403e-13
6.17631e-13
6.78096e-13
7.40809e-13
8.04758e-13
8.68934e-13
9.32361e-13
9.94119e-13
1.05337e-12
1.10938e-12
1.16153e-12
1.20931e-12
1.25234e-12
1.29037e-12
1.32326e-12
1.35096e-12
1.37352e-12
1.39108e-12
1.40384e-12
1.41205e-12
1.41599e-12
1.00013e-12
1.05828e-12
1.14178e-12
1.24779e-12
1.37387e-12
1.51763e-12
1.67656e-12
1.84802e-12
2.02915e-12
2.217e-12
2.40852e-12
2.60069e-12
2.79058e-12
2.97544e-12
3.15276e-12
3.32035e-12
3.47633e-12
3.61923e-12
3.7479e-12
3.86159e-12
3.95987e-12
4.04263e-12
4.11004e-12
4.16249e-12
4.20059e-12
4.22509e-12
4.23686e-12
2.99077e-12
3.1649e-12
3.41485e-12
3.73215e-12
4.10945e-12
4.53955e-12
5.01495e-12
5.52763e-12
6.06911e-12
6.63047e-12
7.20265e-12
7.77659e-12
8.34355e-12
8.89534e-12
9.4245e-12
9.92447e-12
1.03897e-11
1.08159e-11
1.11995e-11
1.15385e-11
1.18314e-11
1.20781e-11
1.2279e-11
1.24353e-11
1.25488e-11
1.26218e-11
1.26569e-11
8.93585e-12
9.45593e-12
1.02024e-11
1.11499e-11
1.22764e-11
1.35603e-11
1.4979e-11
1.65085e-11
1.81235e-11
1.97972e-11
2.15026e-11
2.32126e-11
2.49013e-11
2.65442e-11
2.81192e-11
2.96068e-11
3.09907e-11
3.22577e-11
3.3398e-11
3.44051e-11
3.52753e-11
3.60078e-11
3.66042e-11
3.70682e-11
3.7405e-11
3.76216e-11
3.77257e-11
2.66733e-11
2.82243e-11
3.04495e-11
3.32729e-11
3.6628e-11
4.04498e-11
4.46706e-11
4.92185e-11
5.40174e-11
5.89878e-11
6.40491e-11
6.91211e-11
7.41267e-11
7.89937e-11
8.36569e-11
8.80589e-11
9.2152e-11
9.58977e-11
9.92675e-11
1.02242e-10
1.04812e-10
1.06974e-10
1.08734e-10
1.10103e-10
1.11097e-10
1.11735e-10
1.12042e-10
7.94073e-11
8.40121e-11
9.0617e-11
9.89931e-11
1.08941e-10
1.20265e-10
1.32762e-10
1.46218e-10
1.60403e-10
1.75084e-10
1.90019e-10
2.04973e-10
2.19718e-10
2.34042e-10
2.47754e-10
2.60687e-10
2.72703e-10
2.83691e-10
2.93569e-10
3.02284e-10
3.09806e-10
3.16132e-10
3.21279e-10
3.25279e-10
3.28182e-10
3.30047e-10
3.30943e-10
2.35605e-10
2.49206e-10
2.68701e-10
2.93404e-10
3.22713e-10
3.56039e-10
3.92774e-10
4.32273e-10
4.73861e-10
5.16839e-10
5.60503e-10
6.0416e-10
6.47148e-10
6.88854e-10
7.28726e-10
7.66289e-10
8.01146e-10
8.32986e-10
8.61581e-10
8.86783e-10
9.0852e-10
9.26785e-10
9.41634e-10
9.53169e-10
9.61535e-10
9.66907e-10
9.69485e-10
6.95107e-10
7.34903e-10
7.91896e-10
8.6403e-10
9.49501e-10
1.04654e-09
1.15332e-09
1.26794e-09
1.3884e-09
1.51265e-09
1.63864e-09
1.76438e-09
1.88796e-09
2.00763e-09
2.12183e-09
2.22924e-09
2.32875e-09
2.4195e-09
2.50089e-09
2.57251e-09
2.63421e-09
2.686e-09
2.72806e-09
2.76069e-09
2.78434e-09
2.79951e-09
2.80679e-09
2.03541e-09
2.15036e-09
2.31478e-09
2.52253e-09
2.76821e-09
3.04652e-09
3.35206e-09
3.67919e-09
4.02209e-09
4.37485e-09
4.73161e-09
5.08669e-09
5.43478e-09
5.77102e-09
6.09113e-09
6.39148e-09
6.66914e-09
6.92184e-09
7.14802e-09
7.34673e-09
7.51762e-09
7.66083e-09
7.77697e-09
7.86698e-09
7.93214e-09
7.9739e-09
7.99391e-09
5.89858e-09
6.22452e-09
6.68991e-09
7.27663e-09
7.96862e-09
8.7502e-09
9.60546e-09
1.05181e-08
1.14713e-08
1.24486e-08
1.34334e-08
1.44102e-08
1.53646e-08
1.62835e-08
1.71556e-08
1.79715e-08
1.87236e-08
1.94063e-08
2.00159e-08
2.05502e-08
2.10088e-08
2.13924e-08
2.1703e-08
2.19433e-08
2.2117e-08
2.22282e-08
2.22815e-08
1.68593e-08
1.77606e-08
1.90446e-08
2.06584e-08
2.25551e-08
2.46889e-08
2.70142e-08
2.94845e-08
3.20535e-08
3.46754e-08
3.73061e-08
3.99043e-08
4.24322e-08
4.48565e-08
4.71486e-08
4.92854e-08
5.12487e-08
5.30254e-08
5.46073e-08
5.59903e-08
5.71744e-08
5.81627e-08
5.89613e-08
5.95782e-08
6.00234e-08
6.0308e-08
6.04441e-08
4.73105e-08
4.97218e-08
5.31467e-08
5.74356e-08
6.24543e-08
6.80736e-08
7.41659e-08
8.06044e-08
8.72647e-08
9.40264e-08
1.00776e-07
1.07409e-07
1.13832e-07
1.19964e-07
1.25737e-07
1.31097e-07
1.36003e-07
1.40429e-07
1.44356e-07
1.4778e-07
1.50704e-07
1.53139e-07
1.55102e-07
1.56616e-07
1.57706e-07
1.58402e-07
1.58735e-07
1.29647e-07
1.35836e-07
1.44598e-07
1.55522e-07
1.6824e-07
1.82402e-07
1.97668e-07
2.13707e-07
2.302e-07
2.46847e-07
2.63371e-07
2.79522e-07
2.95082e-07
3.09866e-07
3.23722e-07
3.36533e-07
3.48216e-07
3.58715e-07
3.68003e-07
3.76077e-07
3.82954e-07
3.88666e-07
3.93262e-07
3.96799e-07
3.99343e-07
4.00965e-07
4.01739e-07
3.44763e-07
3.59887e-07
3.81218e-07
4.07691e-07
4.38349e-07
4.72289e-07
5.08653e-07
5.46624e-07
5.85435e-07
6.24378e-07
6.62814e-07
7.00181e-07
7.35997e-07
7.69864e-07
8.01467e-07
8.30569e-07
8.57009e-07
8.80689e-07
9.01574e-07
9.19677e-07
9.35056e-07
9.47804e-07
9.58039e-07
9.65902e-07
9.71549e-07
9.75143e-07
9.76855e-07
8.84085e-07
9.1908e-07
9.68261e-07
1.02902e-06
1.09901e-06
1.17607e-06
1.25815e-06
1.34335e-06
1.42994e-06
1.51635e-06
1.60118e-06
1.68324e-06
1.76153e-06
1.83523e-06
1.90373e-06
1.96658e-06
2.02349e-06
2.0743e-06
2.11899e-06
2.15763e-06
2.19039e-06
2.21748e-06
2.23919e-06
2.25585e-06
2.2678e-06
2.27539e-06
2.279e-06
2.17451e-06
2.25105e-06
2.35828e-06
2.49021e-06
2.6415e-06
2.80722e-06
2.98284e-06
3.16423e-06
3.34765e-06
3.5298e-06
3.70782e-06
3.87929e-06
4.04222e-06
4.19505e-06
4.33661e-06
4.46609e-06
4.58299e-06
4.6871e-06
4.77845e-06
4.85727e-06
4.92396e-06
4.97902e-06
5.02309e-06
5.05685e-06
5.08103e-06
5.09638e-06
5.10368e-06
5.11364e-06
5.27233e-06
5.49405e-06
5.76595e-06
6.07658e-06
6.41548e-06
6.77317e-06
7.1411e-06
7.51166e-06
7.87826e-06
8.23525e-06
8.57793e-06
8.90252e-06
9.20611e-06
9.48655e-06
9.74242e-06
9.97292e-06
1.01778e-05
1.03572e-05
1.05118e-05
1.06423e-05
1.075e-05
1.08361e-05
1.09019e-05
1.0949e-05
1.09789e-05
1.09931e-05
1.14905e-05
1.18043e-05
1.2242e-05
1.27774e-05
1.33874e-05
1.40509e-05
1.47491e-05
1.54652e-05
1.61843e-05
1.68937e-05
1.75827e-05
1.82425e-05
1.88659e-05
1.94478e-05
1.99843e-05
2.04728e-05
2.09122e-05
2.13021e-05
2.16432e-05
2.19365e-05
2.21841e-05
2.23881e-05
2.25509e-05
2.26754e-05
2.27645e-05
2.28209e-05
2.28477e-05
2.47104e-05
2.53078e-05
2.61399e-05
2.71562e-05
2.83119e-05
2.95667e-05
3.08845e-05
3.22334e-05
3.35854e-05
3.49167e-05
3.62075e-05
3.74415e-05
3.86058e-05
3.9691e-05
4.06901e-05
4.15989e-05
4.24153e-05
4.31391e-05
4.37715e-05
4.43152e-05
4.47735e-05
4.51508e-05
4.54519e-05
4.5682e-05
4.58464e-05
4.59506e-05
4.6e-05
5.09854e-05
5.2091e-05
5.36298e-05
5.55077e-05
5.76415e-05
5.9956e-05
6.23845e-05
6.48678e-05
6.73548e-05
6.98018e-05
7.21723e-05
7.44368e-05
7.65719e-05
7.85605e-05
8.03902e-05
8.20535e-05
8.35469e-05
8.487e-05
8.60255e-05
8.70182e-05
8.78547e-05
8.85431e-05
8.90921e-05
8.95115e-05
8.9811e-05
9.00008e-05
9.00908e-05
0.000101098
0.000103103
0.000105895
0.000109303
0.000113176
0.000117378
0.000121788
0.0001263
0.00013082
0.00013527
0.000139583
0.000143705
0.000147594
0.000151217
0.000154552
0.000157585
0.000160309
0.000162723
0.000164832
0.000166643
0.00016817
0.000169426
0.000170428
0.000171193
0.000171739
0.000172085
0.000172249
0.000192355
0.000195926
0.000200901
0.000206981
0.000213902
0.000221425
0.000229336
0.000237447
0.000245592
0.000253629
0.000261438
0.000268921
0.000275999
0.000282611
0.000288712
0.000294275
0.000299283
0.000303731
0.000307625
0.000310978
0.000313809
0.000316142
0.000318005
0.00031943
0.000320449
0.000321095
0.000321402
0.000348964
0.000355092
0.000363641
0.000374108
0.000386047
0.000399059
0.000412784
0.000426901
0.000441128
0.00045522
0.000468966
0.000482192
0.000494753
0.000506536
0.000517457
0.000527454
0.000536492
0.000544552
0.000551635
0.000557757
0.000562944
0.000567233
0.000570668
0.000573302
0.00057519
0.00057639
0.00057696
0.000597129
0.000606849
0.000620413
0.000637024
0.000655977
0.00067664
0.000698444
0.00072088
0.000743501
0.000765917
0.000787793
0.00080885
0.000828854
0.00084762
0.000865012
0.000880932
0.000895322
0.000908152
0.000919425
0.000929164
0.000937413
0.000944233
0.000949696
0.000953884
0.000956886
0.000958793
0.0009597
0.000951774
0.000965285
0.000984096
0.00100706
0.00103315
0.00106147
0.0010912
0.00112163
0.00115214
0.00118219
0.00121135
0.00123923
0.00126557
0.00129013
0.00131276
0.00133336
0.00135188
0.00136831
0.00138268
0.00139503
0.00140546
0.00141404
0.0014209
0.00142614
0.00142988
0.00143226
0.00143338
0.00139819
0.00141403
0.00143599
0.00146265
0.00149274
0.00152515
0.0015589
0.00159316
0.00162719
0.00166042
0.00169237
0.00172267
0.00175104
0.00177728
0.00180128
0.00182297
0.00184234
0.00185941
0.00187426
0.00188696
0.00189762
0.00190637
0.00191333
0.00191863
0.00192241
0.0019248
0.00192594
0.00188655
0.00190228
0.00192399
0.00195018
0.00197957
0.00201099
0.00204347
0.00207617
0.00210842
0.00213966
0.00216947
0.00219754
0.00222365
0.00224765
0.00226947
0.00228909
0.00230653
0.00232183
0.00233509
0.0023464
0.00235586
0.00236361
0.00236976
0.00237443
0.00237776
0.00237987
0.00238086
0.00235671
0.00237044
0.00238932
0.00241204
0.00243741
0.00246441
0.0024922
0.00252005
0.00254739
0.00257376
0.00259882
0.00262233
0.00264413
0.0026641
0.00268221
0.00269846
0.00271287
0.0027255
0.00273642
0.00274573
0.00275351
0.00275988
0.00276494
0.00276878
0.00277152
0.00277325
0.00277407
0.00276935
0.00278045
0.00279571
0.00281404
0.00283449
0.00285622
0.00287854
0.00290088
0.00292278
0.00294388
0.00296392
0.00298271
0.00300011
0.00301606
0.00303051
0.00304348
0.00305498
0.00306507
0.0030738
0.00308124
0.00308747
0.00309257
0.00309662
0.0030997
0.0031019
0.00310329
0.00310395
0.0031137
0.00312244
0.00313446
0.0031489
0.00316501
0.00318214
0.00319975
0.00321739
0.00323469
0.00325138
0.00326725
0.00328214
0.00329595
0.00330862
0.00332012
0.00333046
0.00333964
0.00334769
0.00335468
0.00336064
0.00336564
0.00336973
0.00337299
0.00337547
0.00337724
0.00337836
0.0033789
0.00339668
0.0034036
0.00341314
0.00342461
0.00343742
0.00345107
0.00346512
0.00347921
0.00349307
0.00350646
0.00351921
0.0035312
0.00354235
0.00355259
0.00356191
0.00357029
0.00357775
0.00358431
0.00359
0.00359487
0.00359895
0.0036023
0.00360497
0.00360701
0.00360846
0.00360938
0.00360982
0.00363093
0.00363656
0.00364432
0.00365367
0.00366413
0.00367528
0.00368679
0.00369836
0.00370976
0.0037208
0.00373133
0.00374125
0.00375049
0.003759
0.00376675
0.00377374
0.00377996
0.00378544
0.00379021
0.00379428
0.00379771
0.00380053
0.00380277
0.00380448
0.00380571
0.00380648
0.00380685
0.00382864
0.00383336
0.00383988
0.00384774
0.00385655
0.00386597
0.0038757
0.00388549
0.00389516
0.00390454
0.0039135
0.00392196
0.00392985
0.00393713
0.00394376
0.00394975
0.0039551
0.00395981
0.00396391
0.00396742
0.00397037
0.0039728
0.00397473
0.00397621
0.00397727
0.00397794
0.00397826
0.00399948
0.00400358
0.00400923
0.00401605
0.0040237
0.00403189
0.00404036
0.00404891
0.00405735
0.00406555
0.0040734
0.00408081
0.00408774
0.00409413
0.00409997
0.00410524
0.00410995
0.00411411
0.00411772
0.00412083
0.00412343
0.00412558
0.00412729
0.0041286
0.00412953
0.00413013
0.00413041
0.00415061
0.00415426
0.00415929
0.00416537
0.0041722
0.00417951
0.00418708
0.00419473
0.00420229
0.00420964
0.00421669
0.00422335
0.00422958
0.00423533
0.00424058
0.00424533
0.00424958
0.00425333
0.00425659
0.00425939
0.00426174
0.00426368
0.00426523
0.00426641
0.00426726
0.00426779
0.00426805
0.00428715
0.00429047
0.00429506
0.0043006
0.00430682
0.0043135
0.00432041
0.0043274
0.00433432
0.00434105
0.0043475
0.0043536
0.00435931
0.00436459
0.00436941
0.00437378
0.00437768
0.00438112
0.00438412
0.00438669
0.00438886
0.00439064
0.00439207
0.00439315
0.00439393
0.00439443
0.00439466
0.00441275
0.00441582
0.00442008
0.00442522
0.00443099
0.00443719
0.00444362
0.00445011
0.00445654
0.00446281
0.00446881
0.0044745
0.00447982
0.00448474
0.00448924
0.00449331
0.00449694
0.00450016
0.00450296
0.00450536
0.00450738
0.00450905
0.00451038
0.00451139
0.00451212
0.00451258
0.0045128
0.00452999
0.00453289
0.00453689
0.00454172
0.00454716
0.00455299
0.00455905
0.00456517
0.00457123
0.00457713
0.0045828
0.00458816
0.00459318
0.00459782
0.00460207
0.00460592
0.00460935
0.00461239
0.00461504
0.00461731
0.00461922
0.00462079
0.00462205
0.00462301
0.00462369
0.00462413
0.00462434
0.00464077
0.00464352
0.00464732
0.00465192
0.00465709
0.00466265
0.00466841
0.00467423
0.00468001
0.00468563
0.00469103
0.00469614
0.00470092
0.00470535
0.0047094
0.00471307
0.00471635
0.00471924
0.00472177
0.00472393
0.00472576
0.00472726
0.00472846
0.00472938
0.00473003
0.00473045
0.00473065
0.00474643
0.00474907
0.00475271
0.00475712
0.00476209
0.00476741
0.00477294
0.00477854
0.00478408
0.00478948
0.00479466
0.00479957
0.00480417
0.00480843
0.00481232
0.00481584
0.00481899
0.00482178
0.00482421
0.00482629
0.00482804
0.00482949
0.00483064
0.00483152
0.00483215
0.00483255
0.00483274
0.00484797
0.00485052
0.00485404
0.0048583
0.00486309
0.00486824
0.00487358
0.00487898
0.00488434
0.00488955
0.00489457
0.00489931
0.00490376
0.00490787
0.00491164
0.00491504
0.00491809
0.00492078
0.00492313
0.00492515
0.00492684
0.00492824
0.00492935
0.00493021
0.00493082
0.0049312
0.00493139
0.00494614
0.00494861
0.00495203
0.00495616
0.00496082
0.00496581
0.00497099
0.00497624
0.00498144
0.00498651
0.00499138
0.00499599
0.00500031
0.0050043
0.00500796
0.00501127
0.00501423
0.00501685
0.00501913
0.00502109
0.00502273
0.00502409
0.00502518
0.005026
0.0050266
0.00502697
0.00502715
0.00504149
0.0050439
0.00504723
0.00505126
0.00505579
0.00506066
0.00506571
0.00507082
0.00507589
0.00508083
0.00508558
0.00509007
0.00509428
0.00509818
0.00510175
0.00510498
0.00510786
0.00511042
0.00511264
0.00511455
0.00511616
0.00511748
0.00511854
0.00511935
0.00511992
0.00512029
0.00512047
0.00513444
0.00513679
0.00514004
0.00514398
0.00514841
0.00515317
0.00515811
0.00516311
0.00516807
0.0051729
0.00517754
0.00518194
0.00518605
0.00518986
0.00519335
0.00519651
0.00519933
0.00520183
0.00520401
0.00520587
0.00520745
0.00520874
0.00520977
0.00521056
0.00521113
0.00521149
0.00521166
0.0052253
0.00522761
0.00523079
0.00523465
0.005239
0.00524366
0.0052485
0.0052534
0.00525826
0.00526299
0.00526754
0.00527185
0.00527588
0.00527962
0.00528304
0.00528613
0.0052889
0.00529135
0.00529348
0.00529531
0.00529685
0.00529812
0.00529914
0.00529991
0.00530046
0.00530082
0.00530098
0.00531432
0.00531659
0.00531972
0.0053235
0.00532777
0.00533234
0.0053371
0.00534191
0.00534668
0.00535132
0.00535579
0.00536002
0.00536398
0.00536765
0.00537101
0.00537405
0.00537676
0.00537917
0.00538126
0.00538306
0.00538457
0.00538582
0.00538681
0.00538757
0.00538812
0.00538846
0.00538863
0.00540169
0.00540391
0.00540699
0.00541071
0.0054149
0.0054194
0.00542408
0.0054288
0.00543349
0.00543806
0.00544245
0.00544661
0.00545051
0.00545411
0.00545742
0.0054604
0.00546308
0.00546544
0.0054675
0.00546927
0.00547075
0.00547198
0.00547296
0.0054737
0.00547424
0.00547458
0.00547474
0.00548754
0.00548973
0.00549276
0.00549642
0.00550055
0.00550497
0.00550957
0.00551422
0.00551884
0.00552334
0.00552766
0.00553175
0.00553558
0.00553913
0.00554238
0.00554532
0.00554795
0.00555028
0.0055523
0.00555404
0.00555551
0.00555671
0.00555768
0.00555841
0.00555894
0.00555927
0.00555943
0.00557198
0.00557414
0.00557712
0.00558073
0.00558479
0.00558915
0.00559368
0.00559826
0.00560281
0.00560724
0.00561149
0.00561552
0.0056193
0.00562279
0.00562599
0.00562889
0.00563148
0.00563377
0.00563576
0.00563748
0.00563892
0.00564011
0.00564105
0.00564178
0.0056423
0.00564263
0.00564278
0.0056551
0.00565722
0.00566016
0.00566371
0.00566771
0.00567201
0.00567647
0.00568099
0.00568546
0.00568983
0.00569402
0.00569799
0.00570171
0.00570516
0.00570831
0.00571116
0.00571371
0.00571597
0.00571794
0.00571962
0.00572104
0.00572221
0.00572315
0.00572386
0.00572437
0.0057247
0.00572485
0.00573693
0.00573903
0.00574192
0.00574542
0.00574937
0.0057536
0.005758
0.00576245
0.00576686
0.00577116
0.00577529
0.00577921
0.00578287
0.00578627
0.00578937
0.00579219
0.0057947
0.00579692
0.00579886
0.00580053
0.00580193
0.00580308
0.005804
0.0058047
0.00580521
0.00580552
0.00580568
0.00581753
0.00581959
0.00582244
0.0058259
0.00582978
0.00583396
0.00583829
0.00584268
0.00584703
0.00585126
0.00585534
0.00585919
0.00586281
0.00586615
0.00586921
0.00587198
0.00587446
0.00587665
0.00587856
0.0058802
0.00588158
0.00588272
0.00588363
0.00588432
0.00588481
0.00588513
0.00588528
0.0058969
0.00589893
0.00590175
0.00590515
0.00590898
0.00591309
0.00591736
0.00592169
0.00592597
0.00593015
0.00593416
0.00593796
0.00594152
0.00594482
0.00594784
0.00595057
0.00595301
0.00595517
0.00595705
0.00595866
0.00596002
0.00596114
0.00596204
0.00596272
0.00596321
0.00596352
0.00596367
0.00597506
0.00597706
0.00597983
0.00598318
0.00598696
0.00599101
0.00599522
0.00599947
0.0060037
0.00600781
0.00601176
0.00601551
0.00601902
0.00602226
0.00602523
0.00602792
0.00603033
0.00603246
0.00603431
0.0060359
0.00603724
0.00603834
0.00603922
0.00603989
0.00604037
0.00604068
0.00604083
0.00605198
0.00605395
0.00605668
0.00605998
0.0060637
0.00606769
0.00607183
0.00607602
0.00608018
0.00608423
0.00608813
0.00609181
0.00609527
0.00609846
0.00610139
0.00610404
0.0061064
0.0061085
0.00611032
0.00611189
0.00611321
0.00611429
0.00611516
0.00611582
0.00611629
0.00611659
0.00611674
0.00612765
0.00612959
0.00613227
0.00613552
0.00613918
0.00614311
0.00614718
0.00615131
0.0061554
0.00615939
0.00616321
0.00616684
0.00617024
0.00617338
0.00617626
0.00617887
0.0061812
0.00618326
0.00618505
0.00618659
0.00618789
0.00618895
0.00618981
0.00619046
0.00619092
0.00619122
0.00619136
0.00620202
0.00620393
0.00620657
0.00620976
0.00621336
0.00621722
0.00622123
0.00622528
0.0062293
0.00623322
0.00623698
0.00624055
0.00624389
0.00624698
0.00624981
0.00625237
0.00625466
0.00625668
0.00625844
0.00625996
0.00626123
0.00626228
0.00626312
0.00626376
0.00626421
0.00626451
0.00626464
0.00627504
0.00627691
0.0062795
0.00628264
0.00628617
0.00628996
0.0062939
0.00629788
0.00630183
0.00630568
0.00630937
0.00631287
0.00631615
0.00631918
0.00632196
0.00632447
0.00632672
0.0063287
0.00633043
0.00633192
0.00633317
0.0063342
0.00633502
0.00633565
0.0063361
0.00633638
0.00633652
0.00634663
0.00634847
0.00635101
0.00635409
0.00635755
0.00636127
0.00636513
0.00636903
0.0063729
0.00637667
0.00638029
0.00638373
0.00638694
0.00638991
0.00639263
0.00639509
0.0063973
0.00639924
0.00640094
0.00640239
0.00640362
0.00640463
0.00640543
0.00640605
0.00640649
0.00640677
0.0064069
0.00641672
0.00641852
0.00642101
0.00642402
0.0064274
0.00643104
0.00643482
0.00643864
0.00644243
0.00644612
0.00644966
0.00645302
0.00645616
0.00645907
0.00646173
0.00646414
0.00646629
0.0064682
0.00646986
0.00647128
0.00647248
0.00647346
0.00647425
0.00647485
0.00647528
0.00647556
0.00647569
0.00648518
0.00648694
0.00648937
0.00649231
0.00649562
0.00649917
0.00650286
0.00650659
0.00651029
0.00651389
0.00651735
0.00652063
0.0065237
0.00652654
0.00652913
0.00653148
0.00653359
0.00653544
0.00653706
0.00653845
0.00653962
0.00654058
0.00654135
0.00654194
0.00654236
0.00654262
0.00654275
0.0065519
0.00655362
0.00655598
0.00655885
0.00656207
0.00656553
0.00656913
0.00657276
0.00657636
0.00657987
0.00658324
0.00658643
0.00658941
0.00659218
0.0065947
0.00659699
0.00659904
0.00660085
0.00660242
0.00660377
0.00660491
0.00660585
0.00660659
0.00660716
0.00660757
0.00660783
0.00660796
0.00661674
0.0066184
0.0066207
0.00662348
0.00662661
0.00662997
0.00663346
0.00663699
0.00664048
0.00664389
0.00664716
0.00665025
0.00665315
0.00665583
0.00665828
0.0066605
0.00666249
0.00666424
0.00666577
0.00666708
0.00666818
0.00666909
0.00666981
0.00667037
0.00667076
0.00667102
0.00667113
0.00667951
0.00668112
0.00668335
0.00668604
0.00668907
0.00669232
0.00669569
0.0066991
0.00670248
0.00670578
0.00670894
0.00671193
0.00671473
0.00671732
0.00671969
0.00672183
0.00672375
0.00672545
0.00672692
0.00672819
0.00672925
0.00673013
0.00673083
0.00673136
0.00673175
0.00673199
0.00673211
0.00674005
0.0067416
0.00674374
0.00674634
0.00674925
0.00675238
0.00675563
0.00675892
0.00676217
0.00676534
0.00676838
0.00677126
0.00677395
0.00677645
0.00677873
0.00678079
0.00678263
0.00678426
0.00678568
0.0067869
0.00678792
0.00678877
0.00678944
0.00678995
0.00679032
0.00679055
0.00679066
0.00679813
0.00679962
0.00680167
0.00680416
0.00680696
0.00680995
0.00681307
0.00681621
0.00681933
0.00682236
0.00682527
0.00682803
0.00683061
0.00683299
0.00683517
0.00683715
0.00683891
0.00684047
0.00684182
0.00684299
0.00684397
0.00684477
0.00684542
0.00684591
0.00684626
0.00684648
0.00684659
0.00685355
0.00685497
0.00685692
0.00685929
0.00686195
0.00686481
0.00686777
0.00687077
0.00687373
0.00687662
0.00687939
0.00688201
0.00688446
0.00688673
0.0068888
0.00689068
0.00689235
0.00689383
0.00689512
0.00689623
0.00689716
0.00689792
0.00689853
0.006899
0.00689933
0.00689955
0.00689965
0.00690606
0.0069074
0.00690925
0.00691149
0.00691401
0.00691671
0.00691951
0.00692234
0.00692514
0.00692787
0.00693048
0.00693296
0.00693527
0.00693741
0.00693937
0.00694114
0.00694272
0.00694411
0.00694533
0.00694637
0.00694725
0.00694797
0.00694855
0.00694899
0.0069493
0.0069495
0.00694959
0.00695543
0.00695669
0.00695843
0.00696053
0.00696289
0.00696542
0.00696805
0.0069707
0.00697332
0.00697587
0.00697832
0.00698064
0.00698281
0.00698481
0.00698664
0.00698829
0.00698977
0.00699107
0.00699221
0.00699318
0.006994
0.00699468
0.00699522
0.00699563
0.00699592
0.00699611
0.0069962
0.00700143
0.0070026
0.00700422
0.00700617
0.00700836
0.00701071
0.00701315
0.00701561
0.00701804
0.00702041
0.00702268
0.00702483
0.00702683
0.00702869
0.00703038
0.00703191
0.00703328
0.00703449
0.00703554
0.00703644
0.0070372
0.00703782
0.00703832
0.0070387
0.00703897
0.00703915
0.00703923
0.00704384
0.00704492
0.0070464
0.0070482
0.00705021
0.00705237
0.0070546
0.00705686
0.00705909
0.00706127
0.00706335
0.00706531
0.00706715
0.00706885
0.0070704
0.00707181
0.00707306
0.00707416
0.00707512
0.00707595
0.00707664
0.00707721
0.00707767
0.00707802
0.00707826
0.00707842
0.0070785
0.00708248
0.00708346
0.00708481
0.00708643
0.00708826
0.00709022
0.00709224
0.00709429
0.00709631
0.00709828
0.00710016
0.00710194
0.00710361
0.00710514
0.00710654
0.00710781
0.00710894
0.00710994
0.00711081
0.00711155
0.00711218
0.0071127
0.00711311
0.00711342
0.00711364
0.00711379
0.00711385
0.00711721
0.00711809
0.00711929
0.00712075
0.00712239
0.00712414
0.00712595
0.00712778
0.00712958
0.00713134
0.00713302
0.00713461
0.00713609
0.00713746
0.00713871
0.00713984
0.00714085
0.00714173
0.00714251
0.00714317
0.00714373
0.00714419
0.00714455
0.00714483
0.00714503
0.00714516
0.00714522
0.00714797
0.00714874
0.00714981
0.00715109
0.00715253
0.00715407
0.00715567
0.00715728
0.00715886
0.00716041
0.00716188
0.00716328
0.00716458
0.00716578
0.00716688
0.00716787
0.00716875
0.00716953
0.00717021
0.00717079
0.00717127
0.00717168
0.007172
0.00717224
0.00717241
0.00717253
0.00717258
0.00717477
0.00717544
0.00717636
0.00717747
0.00717872
0.00718006
0.00718144
0.00718283
0.0071842
0.00718554
0.00718681
0.00718802
0.00718914
0.00719018
0.00719112
0.00719197
0.00719274
0.00719341
0.00719399
0.00719449
0.00719491
0.00719526
0.00719553
0.00719574
0.00719589
0.00719599
0.00719603
0.00719772
0.00719828
0.00719907
0.00720002
0.00720108
0.00720222
0.00720339
0.00720458
0.00720574
0.00720688
0.00720796
0.00720898
0.00720994
0.00721081
0.00721162
0.00721234
0.00721298
0.00721355
0.00721405
0.00721447
0.00721483
0.00721512
0.00721535
0.00721553
0.00721566
0.00721574
0.00721578
0.00721702
0.0072175
0.00721815
0.00721895
0.00721984
0.00722079
0.00722177
0.00722276
0.00722374
0.00722468
0.00722559
0.00722644
0.00722724
0.00722797
0.00722864
0.00722924
0.00722978
0.00723025
0.00723067
0.00723102
0.00723131
0.00723156
0.00723175
0.0072319
0.00723201
0.00723207
0.00723211
0.00723299
0.00723338
0.00723393
0.00723458
0.00723531
0.0072361
0.00723691
0.00723772
0.00723853
0.00723931
0.00724005
0.00724076
0.00724141
0.00724201
0.00724256
0.00724306
0.0072435
0.00724389
0.00724423
0.00724452
0.00724476
0.00724496
0.00724512
0.00724524
0.00724533
0.00724539
0.00724541
0.00724601
0.00724634
0.00724678
0.00724731
0.00724791
0.00724855
0.00724922
0.00724988
0.00725054
0.00725117
0.00725178
0.00725236
0.00725289
0.00725338
0.00725383
0.00725424
0.0072546
0.00725492
0.00725519
0.00725543
0.00725563
0.00725579
0.00725593
0.00725603
0.0072561
0.00725614
0.00725616
0.00725654
0.0072568
0.00725716
0.0072576
0.00725809
0.00725861
0.00725915
0.00725969
0.00726023
0.00726075
0.00726124
0.00726171
0.00726215
0.00726255
0.00726292
0.00726325
0.00726354
0.0072638
0.00726403
0.00726422
0.00726439
0.00726452
0.00726463
0.00726471
0.00726477
0.0072648
0.00726482
0.00726502
0.00726523
0.00726552
0.00726588
0.00726627
0.0072667
0.00726713
0.00726758
0.00726801
0.00726843
0.00726883
0.00726921
0.00726957
0.0072699
0.00727019
0.00727046
0.0072707
0.00727091
0.0072711
0.00727125
0.00727139
0.0072715
0.00727158
0.00727165
0.0072717
0.00727173
0.00727174
0.0072718
0.00727197
0.00727221
0.00727249
0.00727281
0.00727315
0.00727351
0.00727386
0.00727422
0.00727456
0.00727488
0.00727519
0.00727548
0.00727574
0.00727598
0.0072762
0.00727639
0.00727656
0.00727671
0.00727684
0.00727695
0.00727703
0.0072771
0.00727716
0.0072772
0.00727722
0.00727723
0.00727719
0.00727732
0.00727751
0.00727774
0.007278
0.00727828
0.00727856
0.00727885
0.00727913
0.00727941
0.00727967
0.00727992
0.00728015
0.00728036
0.00728056
0.00728073
0.00728089
0.00728103
0.00728115
0.00728125
0.00728134
0.00728141
0.00728146
0.00728151
0.00728154
0.00728156
0.00728157
0.00728144
0.00728155
0.0072817
0.00728189
0.00728209
0.00728231
0.00728254
0.00728277
0.007283
0.00728322
0.00728342
0.00728362
0.00728381
0.00728398
0.00728413
0.00728427
0.0072844
0.00728451
0.0072846
0.00728469
0.00728476
0.00728481
0.00728486
0.00728489
0.00728492
0.00728493
0.00728494
0.00728475
0.00728484
0.00728496
0.0072851
0.00728526
0.00728543
0.00728561
0.00728579
0.00728596
0.00728613
0.0072863
0.00728645
0.00728659
0.00728672
0.00728684
0.00728695
0.00728705
0.00728713
0.00728721
0.00728727
0.00728732
0.00728737
0.0072874
0.00728743
0.00728745
0.00728746
0.00728746
0.00728726
0.00728732
0.00728741
0.00728752
0.00728764
0.00728776
0.0072879
0.00728803
0.00728816
0.00728828
0.00728841
0.00728852
0.00728862
0.00728872
0.00728881
0.00728889
0.00728896
0.00728902
0.00728908
0.00728912
0.00728916
0.00728919
0.00728922
0.00728924
0.00728925
0.00728926
0.00728927
0.00728907
0.00728912
0.00728919
0.00728926
0.00728935
0.00728945
0.00728954
0.00728964
0.00728973
0.00728983
0.00728991
0.00729
0.00729007
0.00729015
0.00729021
0.00729027
0.00729032
0.00729037
0.00729041
0.00729044
0.00729047
0.00729049
0.00729051
0.00729053
0.00729054
0.00729054
0.00729055
0.00729038
0.00729041
0.00729046
0.00729052
0.00729058
0.00729065
0.00729072
0.00729079
0.00729086
0.00729093
0.007291
0.00729106
0.00729111
0.00729117
0.00729121
0.00729126
0.0072913
0.00729133
0.00729136
0.00729138
0.00729141
0.00729142
0.00729144