/*--------------------------------*- C++ -*----------------------------------*\
| =========                 |                                                 |
| \\      /  F ield         | OpenFOAM: The Open Source CFD Toolbox           |
|  \\    /   O peration     | Version:  2106                                  |
|   \\  /    A nd           | Website:  www.openfoam.com                      |
|    \\/     M anipulation  |                                                 |
\*---------------------------------------------------------------------------*/
FoamFile
{
    version     2.0;
    format      ascii;
    arch        "LSB;label=32;scalar=64";
    class       volScalarField;
    location    "219.99956";
    object      C2H4_0;
}
// * * * * * * * * * * * * * * * * * * * * * * * * * * * * * * * * * * * * * //

dimensions      [0 0 0 0 0 0 0];

internalField   nonuniform List<scalar> 
3360
(
1.83981e-17
1.89901e-17
1.98139e-17
2.08216e-17
2.19712e-17
2.32249e-17
2.45487e-17
2.59119e-17
2.7287e-17
2.865e-17
2.99798e-17
3.12587e-17
3.2472e-17
3.3608e-17
3.46578e-17
3.56152e-17
3.64764e-17
3.72396e-17
3.79053e-17
3.84753e-17
3.89532e-17
3.93435e-17
3.96518e-17
3.98844e-17
4.0048e-17
4.01498e-17
4.0197e-17
8.07091e-17
8.36755e-17
8.78614e-17
9.30741e-17
9.9154e-17
1.05962e-16
1.13373e-16
1.21274e-16
1.29559e-16
1.38127e-16
1.46882e-16
1.55732e-16
1.64584e-16
1.73346e-16
1.81929e-16
1.90246e-16
1.9821e-16
2.05737e-16
2.12747e-16
2.19166e-16
2.24923e-16
2.2996e-16
2.34222e-16
2.37669e-16
2.40271e-16
2.42008e-16
2.42875e-16
2.53229e-16
2.64343e-16
2.80134e-16
2.99978e-16
3.23353e-16
3.49793e-16
3.78853e-16
4.10096e-16
4.43078e-16
4.77347e-16
5.1244e-16
5.479e-16
5.83271e-16
6.18103e-16
6.51964e-16
6.84442e-16
7.15153e-16
7.43758e-16
7.69957e-16
7.93506e-16
8.14215e-16
8.31948e-16
8.46627e-16
8.58231e-16
8.66785e-16
8.72363e-16
8.75079e-16
7.37466e-16
7.74095e-16
8.26493e-16
8.92787e-16
9.71409e-16
1.06089e-15
1.15977e-15
1.26652e-15
1.37954e-15
1.49717e-15
1.61766e-15
1.73925e-15
1.8602e-15
1.9788e-15
2.09343e-15
2.2026e-15
2.305e-15
2.39952e-15
2.48524e-15
2.5615e-15
2.62785e-15
2.68406e-15
2.7301e-15
2.76611e-15
2.79238e-15
2.80935e-15
2.81754e-15
2.15454e-15
2.27009e-15
2.4357e-15
2.64571e-15
2.89532e-15
3.17993e-15
3.49478e-15
3.83485e-15
4.19478e-15
4.56893e-15
4.95145e-15
5.33646e-15
5.71817e-15
6.09107e-15
6.45005e-15
6.79054e-15
7.10858e-15
7.40092e-15
7.66503e-15
7.89911e-15
8.10205e-15
8.27341e-15
8.41332e-15
8.52245e-15
8.60188e-15
8.65305e-15
8.67768e-15
6.3528e-15
6.70766e-15
7.21688e-15
7.8632e-15
8.63182e-15
9.50843e-15
1.04782e-14
1.15253e-14
1.2633e-14
1.37834e-14
1.49584e-14
1.61394e-14
1.73086e-14
1.8449e-14
1.95449e-14
2.05824e-14
2.15498e-14
2.24374e-14
2.32378e-14
2.3946e-14
2.4559e-14
2.50757e-14
2.5497e-14
2.58251e-14
2.60636e-14
2.62171e-14
2.62909e-14
1.88708e-14
1.99491e-14
2.14963e-14
2.34602e-14
2.57956e-14
2.84585e-14
3.14031e-14
3.4581e-14
3.794e-14
4.1426e-14
4.49829e-14
4.85549e-14
5.20877e-14
5.553e-14
5.8835e-14
6.19613e-14
6.48738e-14
6.75441e-14
6.99507e-14
7.20786e-14
7.39196e-14
7.54709e-14
7.67352e-14
7.77197e-14
7.84351e-14
7.88954e-14
7.91167e-14
5.62437e-14
5.94881e-14
6.41463e-14
7.00609e-14
7.70961e-14
8.51192e-14
9.39918e-14
1.03566e-13
1.13685e-13
1.24184e-13
1.34894e-13
1.45645e-13
1.56274e-13
1.66626e-13
1.76562e-13
1.85956e-13
1.94704e-13
2.02721e-13
2.09943e-13
2.16326e-13
2.21846e-13
2.26495e-13
2.30283e-13
2.33231e-13
2.35373e-13
2.3675e-13
2.37412e-13
1.68078e-13
1.7783e-13
1.91827e-13
2.09598e-13
2.30733e-13
2.54831e-13
2.81476e-13
3.1022e-13
3.4059e-13
3.72089e-13
4.04209e-13
4.36443e-13
4.68301e-13
4.9932e-13
5.29081e-13
5.57214e-13
5.83405e-13
6.07403e-13
6.29018e-13
6.48121e-13
6.64638e-13
6.7855e-13
6.89884e-13
6.98705e-13
7.05113e-13
7.09235e-13
7.11216e-13
5.0234e-13
5.31549e-13
5.73485e-13
6.2673e-13
6.90058e-13
7.62264e-13
8.42095e-13
9.28212e-13
1.01919e-12
1.11354e-12
1.20974e-12
1.30626e-12
1.40163e-12
1.49448e-12
1.58355e-12
1.66772e-12
1.74607e-12
1.81785e-12
1.88248e-12
1.93958e-12
1.98894e-12
2.03051e-12
2.06437e-12
2.09071e-12
2.10985e-12
2.12216e-12
2.12807e-12
1.50219e-12
1.58965e-12
1.71519e-12
1.87456e-12
2.06407e-12
2.2801e-12
2.51888e-12
2.77639e-12
3.04836e-12
3.33032e-12
3.6177e-12
3.90598e-12
4.19075e-12
4.4679e-12
4.73368e-12
4.98481e-12
5.2185e-12
5.43254e-12
5.62524e-12
5.79547e-12
5.94262e-12
6.06651e-12
6.16741e-12
6.24592e-12
6.30295e-12
6.33962e-12
6.35723e-12
4.48825e-12
4.74947e-12
5.12442e-12
5.60033e-12
6.16614e-12
6.81099e-12
7.52356e-12
8.29182e-12
9.10296e-12
9.94363e-12
1.08002e-11
1.16591e-11
1.25073e-11
1.33325e-11
1.41236e-11
1.48707e-11
1.55658e-11
1.62022e-11
1.6775e-11
1.72808e-11
1.77179e-11
1.80858e-11
1.83854e-11
1.86184e-11
1.87876e-11
1.88964e-11
1.89486e-11
1.33973e-11
1.41763e-11
1.5294e-11
1.67121e-11
1.83973e-11
2.03169e-11
2.24369e-11
2.47212e-11
2.71315e-11
2.96281e-11
3.21702e-11
3.47178e-11
3.72319e-11
3.96765e-11
4.20187e-11
4.42297e-11
4.62856e-11
4.8167e-11
4.98595e-11
5.13537e-11
5.26443e-11
5.37304e-11
5.46144e-11
5.53019e-11
5.5801e-11
5.61217e-11
5.62758e-11
3.98843e-11
4.21971e-11
4.55146e-11
4.97217e-11
5.47183e-11
6.04061e-11
6.66832e-11
7.34413e-11
8.05665e-11
8.794e-11
9.54417e-11
1.02953e-10
1.10358e-10
1.17553e-10
1.2444e-10
1.30937e-10
1.36972e-10
1.42491e-10
1.47452e-10
1.51829e-10
1.55608e-10
1.58785e-10
1.6137e-10
1.63379e-10
1.64837e-10
1.65774e-10
1.66224e-10
1.18338e-10
1.2517e-10
1.34962e-10
1.47369e-10
1.6209e-10
1.78829e-10
1.9728e-10
2.1712e-10
2.38008e-10
2.59595e-10
2.81526e-10
3.03454e-10
3.25046e-10
3.45994e-10
3.66021e-10
3.84887e-10
4.02395e-10
4.18388e-10
4.3275e-10
4.45408e-10
4.56326e-10
4.65501e-10
4.72959e-10
4.78753e-10
4.82954e-10
4.85653e-10
4.86948e-10
3.49135e-10
3.69123e-10
3.97749e-10
4.3398e-10
4.7691e-10
5.2565e-10
5.79285e-10
6.36855e-10
6.97358e-10
7.59766e-10
8.23049e-10
8.86202e-10
9.48271e-10
1.00838e-09
1.06574e-09
1.11969e-09
1.16967e-09
1.21525e-09
1.25613e-09
1.29211e-09
1.3231e-09
1.34911e-09
1.37023e-09
1.38662e-09
1.3985e-09
1.40612e-09
1.40978e-09
1.02234e-09
1.08007e-09
1.16266e-09
1.267e-09
1.3904e-09
1.53019e-09
1.68365e-09
1.84796e-09
2.02019e-09
2.19737e-09
2.37656e-09
2.55491e-09
2.72975e-09
2.89863e-09
3.05942e-09
3.21028e-09
3.34973e-09
3.47666e-09
3.59026e-09
3.69007e-09
3.7759e-09
3.84784e-09
3.90617e-09
3.95138e-09
3.9841e-09
4.00508e-09
4.01513e-09
2.96271e-09
3.12642e-09
3.36018e-09
3.65487e-09
4.00244e-09
4.395e-09
4.82458e-09
5.28295e-09
5.76175e-09
6.25259e-09
6.74725e-09
7.23789e-09
7.71724e-09
8.17877e-09
8.6168e-09
9.02658e-09
9.40434e-09
9.74726e-09
1.00534e-08
1.03218e-08
1.05522e-08
1.07448e-08
1.09008e-08
1.10215e-08
1.11088e-08
1.11646e-08
1.11914e-08
8.46804e-09
8.92076e-09
9.56564e-09
1.03762e-08
1.13289e-08
1.24006e-08
1.35685e-08
1.48093e-08
1.60996e-08
1.74165e-08
1.87378e-08
2.00428e-08
2.13125e-08
2.25301e-08
2.36814e-08
2.47547e-08
2.57407e-08
2.66331e-08
2.74276e-08
2.81223e-08
2.8717e-08
2.92134e-08
2.96145e-08
2.99243e-08
3.01479e-08
3.02909e-08
3.03592e-08
2.3763e-08
2.49741e-08
2.66944e-08
2.88486e-08
3.13693e-08
3.41917e-08
3.72516e-08
4.04855e-08
4.38307e-08
4.72268e-08
5.06169e-08
5.39483e-08
5.71742e-08
6.02539e-08
6.31534e-08
6.58456e-08
6.831e-08
7.05325e-08
7.25051e-08
7.42248e-08
7.56933e-08
7.69162e-08
7.79021e-08
7.86623e-08
7.921e-08
7.95597e-08
7.97266e-08
6.51188e-08
6.82275e-08
7.2628e-08
7.81148e-08
8.45028e-08
9.16161e-08
9.92835e-08
1.07339e-07
1.15623e-07
1.23984e-07
1.32283e-07
1.40395e-07
1.4821e-07
1.55634e-07
1.62593e-07
1.69028e-07
1.74895e-07
1.80168e-07
1.84833e-07
1.88888e-07
1.92341e-07
1.9521e-07
1.97518e-07
1.99294e-07
2.00572e-07
2.01387e-07
2.01775e-07
1.73163e-07
1.80759e-07
1.91474e-07
2.04771e-07
2.20169e-07
2.37216e-07
2.55481e-07
2.74552e-07
2.94045e-07
3.13604e-07
3.32909e-07
3.51676e-07
3.69664e-07
3.86673e-07
4.02545e-07
4.17161e-07
4.3044e-07
4.42332e-07
4.52821e-07
4.61913e-07
4.69636e-07
4.76038e-07
4.81178e-07
4.85127e-07
4.87963e-07
4.89768e-07
4.90628e-07
4.44016e-07
4.61595e-07
4.86299e-07
5.16819e-07
5.51978e-07
5.90684e-07
6.31912e-07
6.74712e-07
7.18208e-07
7.61611e-07
8.04222e-07
8.45441e-07
8.84764e-07
9.21787e-07
9.56197e-07
9.87767e-07
1.01635e-06
1.04188e-06
1.06432e-06
1.08373e-06
1.10018e-06
1.11379e-06
1.1247e-06
1.13307e-06
1.13907e-06
1.14288e-06
1.1447e-06
1.09192e-06
1.13037e-06
1.18425e-06
1.25054e-06
1.32656e-06
1.40982e-06
1.49807e-06
1.58922e-06
1.68139e-06
1.77292e-06
1.86238e-06
1.94854e-06
2.03042e-06
2.10723e-06
2.17837e-06
2.24344e-06
2.30219e-06
2.35451e-06
2.40042e-06
2.44004e-06
2.47355e-06
2.50123e-06
2.52338e-06
2.54034e-06
2.5525e-06
2.56021e-06
2.56388e-06
2.5668e-06
2.64658e-06
2.75806e-06
2.89477e-06
3.05096e-06
3.22138e-06
3.40124e-06
3.58627e-06
3.77263e-06
3.957e-06
4.13654e-06
4.3089e-06
4.47216e-06
4.62485e-06
4.76591e-06
4.8946e-06
5.01054e-06
5.11357e-06
5.20381e-06
5.28154e-06
5.3472e-06
5.40135e-06
5.44463e-06
5.47774e-06
5.50144e-06
5.51647e-06
5.52362e-06
5.76274e-06
5.92073e-06
6.14106e-06
6.41062e-06
6.71773e-06
7.05182e-06
7.40337e-06
7.7639e-06
8.12596e-06
8.48313e-06
8.82999e-06
9.1621e-06
9.47593e-06
9.7688e-06
1.00388e-05
1.02846e-05
1.05057e-05
1.07019e-05
1.08735e-05
1.10211e-05
1.11456e-05
1.12482e-05
1.13301e-05
1.13927e-05
1.14375e-05
1.14659e-05
1.14793e-05
1.23662e-05
1.26675e-05
1.30872e-05
1.35998e-05
1.41828e-05
1.4816e-05
1.54809e-05
1.61617e-05
1.68441e-05
1.75162e-05
1.81679e-05
1.8791e-05
1.93789e-05
1.99268e-05
2.04314e-05
2.08903e-05
2.13025e-05
2.16679e-05
2.19872e-05
2.22616e-05
2.24929e-05
2.26834e-05
2.28353e-05
2.29514e-05
2.30343e-05
2.30869e-05
2.31118e-05
2.5389e-05
2.59484e-05
2.67273e-05
2.76785e-05
2.876e-05
2.99339e-05
3.11666e-05
3.24281e-05
3.36925e-05
3.49376e-05
3.61447e-05
3.72987e-05
3.83877e-05
3.94025e-05
4.03368e-05
4.11867e-05
4.19501e-05
4.26268e-05
4.32179e-05
4.37259e-05
4.41541e-05
4.45065e-05
4.47876e-05
4.50023e-05
4.51556e-05
4.52528e-05
4.52988e-05
4.98686e-05
5.0887e-05
5.23062e-05
5.40409e-05
5.60156e-05
5.81626e-05
6.04209e-05
6.27368e-05
6.50629e-05
6.73588e-05
6.95902e-05
7.17287e-05
7.37519e-05
7.56425e-05
7.73877e-05
7.89794e-05
8.04129e-05
8.16869e-05
8.28028e-05
8.3764e-05
8.45761e-05
8.52459e-05
8.57812e-05
8.61908e-05
8.64839e-05
8.66699e-05
8.67582e-05
9.33678e-05
9.5173e-05
9.76928e-05
0.00010078
0.000104305
0.00010815
0.00011221
0.000116392
0.000120612
0.000124799
0.000128891
0.000132834
0.000136586
0.000140113
0.000143389
0.000146394
0.000149118
0.000151553
0.000153698
0.000155556
0.000157135
0.000158445
0.000159497
0.000160306
0.000160888
0.000161259
0.000161436
0.000165286
0.000168308
0.000172531
0.000177715
0.000183648
0.000190138
0.000197011
0.000204113
0.000211306
0.000218468
0.000225492
0.000232289
0.000238781
0.000244907
0.000250619
0.000255879
0.000260662
0.000264952
0.000268743
0.000272037
0.000274841
0.00027717
0.000279044
0.000280487
0.000281527
0.00028219
0.000282507
0.000273414
0.000277926
0.000284226
0.000291946
0.000300763
0.000310384
0.000320546
0.000331013
0.000341576
0.000352052
0.00036228
0.000372129
0.000381485
0.000390265
0.000398406
0.000405866
0.000412617
0.000418647
0.000423953
0.000428548
0.000432449
0.000435682
0.00043828
0.000440277
0.000441714
0.00044263
0.000443067
0.000416805
0.000422466
0.00043033
0.000439903
0.000450746
0.000462473
0.000474745
0.000487263
0.00049977
0.000512048
0.000523919
0.000535239
0.000545895
0.000555807
0.000564918
0.000573195
0.000580622
0.000587203
0.000592951
0.000597893
0.00060206
0.000605493
0.000608235
0.000610333
0.000611835
0.000612788
0.000613241
0.000578945
0.000584743
0.000592755
0.000602439
0.000613319
0.000624976
0.000637047
0.000649225
0.000661253
0.000672927
0.000684086
0.000694607
0.000704406
0.000713426
0.000721634
0.000729022
0.000735593
0.000741367
0.000746372
0.000750644
0.000754224
0.000757155
0.000759484
0.000761257
0.00076252
0.000763319
0.000763697
0.000734996
0.000739969
0.000746807
0.000755022
0.000764184
0.000773921
0.00078392
0.000793919
0.00080371
0.000813131
0.000822061
0.000830415
0.000838136
0.000845193
0.000851573
0.00085728
0.000862328
0.000866741
0.000870548
0.000873784
0.000876485
0.000878689
0.000880435
0.00088176
0.000882703
0.000883297
0.000883578
0.000866209
0.000869978
0.000875145
0.000881332
0.000888206
0.000895483
0.000902922
0.00091033
0.000917555
0.000924479
0.000931019
0.000937117
0.000942735
0.000947855
0.000952474
0.000956595
0.000960234
0.00096341
0.000966145
0.000968468
0.000970405
0.000971984
0.000973234
0.000974182
0.000974856
0.000975281
0.000975482
0.000967881
0.000970585
0.00097429
0.000978724
0.000983648
0.000988856
0.000994178
0.000999477
0.00100464
0.00100959
0.00101427
0.00101863
0.00102265
0.00102632
0.00102963
0.00103258
0.00103519
0.00103747
0.00103944
0.00104111
0.0010425
0.00104364
0.00104454
0.00104523
0.00104571
0.00104602
0.00104617
0.00104477
0.00104672
0.00104938
0.00105258
0.00105614
0.0010599
0.00106376
0.0010676
0.00107136
0.00107497
0.00107839
0.00108159
0.00108454
0.00108724
0.00108968
0.00109186
0.0010938
0.00109549
0.00109695
0.0010982
0.00109924
0.00110009
0.00110076
0.00110128
0.00110164
0.00110187
0.00110198
0.00110394
0.00110539
0.00110739
0.00110979
0.00111246
0.0011153
0.00111822
0.00112114
0.001124
0.00112676
0.00112937
0.00113183
0.0011341
0.00113619
0.00113808
0.00113977
0.00114128
0.0011426
0.00114375
0.00114472
0.00114554
0.00114621
0.00114674
0.00114715
0.00114744
0.00114762
0.00114771
0.00115129
0.00115243
0.00115401
0.00115592
0.00115804
0.0011603
0.00116263
0.00116497
0.00116727
0.00116949
0.00117161
0.0011736
0.00117545
0.00117716
0.0011787
0.0011801
0.00118133
0.00118242
0.00118337
0.00118418
0.00118485
0.00118541
0.00118585
0.00118619
0.00118643
0.00118658
0.00118665
0.00119094
0.0011919
0.00119322
0.00119481
0.00119659
0.0011985
0.00120046
0.00120244
0.00120439
0.00120628
0.00120809
0.00120979
0.00121138
0.00121284
0.00121417
0.00121537
0.00121644
0.00121738
0.0012182
0.0012189
0.00121949
0.00121997
0.00122036
0.00122065
0.00122086
0.001221
0.00122106
0.0012256
0.00122644
0.0012276
0.001229
0.00123057
0.00123225
0.00123399
0.00123574
0.00123748
0.00123916
0.00124077
0.00124229
0.0012437
0.00124501
0.00124621
0.00124729
0.00124825
0.0012491
0.00124984
0.00125047
0.001251
0.00125144
0.00125179
0.00125205
0.00125225
0.00125237
0.00125242
0.00125702
0.00125779
0.00125885
0.00126013
0.00126157
0.00126311
0.0012647
0.00126631
0.00126791
0.00126946
0.00127094
0.00127235
0.00127366
0.00127487
0.00127598
0.00127698
0.00127788
0.00127867
0.00127935
0.00127994
0.00128044
0.00128085
0.00128117
0.00128142
0.0012816
0.00128171
0.00128177
0.00128634
0.00128707
0.00128806
0.00128927
0.00129062
0.00129207
0.00129358
0.0012951
0.00129661
0.00129808
0.00129948
0.00130082
0.00130206
0.00130321
0.00130427
0.00130522
0.00130607
0.00130683
0.00130748
0.00130804
0.00130852
0.00130891
0.00130922
0.00130945
0.00130962
0.00130973
0.00130978
0.00131431
0.00131501
0.00131596
0.00131712
0.00131843
0.00131983
0.00132128
0.00132274
0.0013242
0.00132562
0.00132698
0.00132827
0.00132947
0.00133059
0.00133161
0.00133253
0.00133336
0.00133409
0.00133472
0.00133527
0.00133573
0.00133611
0.00133641
0.00133664
0.0013368
0.00133691
0.00133696
0.00134144
0.00134212
0.00134305
0.00134419
0.00134546
0.00134683
0.00134825
0.00134968
0.00135111
0.0013525
0.00135383
0.00135509
0.00135628
0.00135737
0.00135837
0.00135928
0.00136009
0.00136081
0.00136143
0.00136197
0.00136242
0.00136279
0.00136309
0.00136331
0.00136348
0.00136358
0.00136363
0.00136807
0.00136874
0.00136966
0.00137078
0.00137204
0.00137339
0.0013748
0.00137622
0.00137763
0.001379
0.00138032
0.00138157
0.00138274
0.00138383
0.00138482
0.00138572
0.00138652
0.00138723
0.00138785
0.00138838
0.00138883
0.0013892
0.0013895
0.00138972
0.00138988
0.00138998
0.00139003
0.00139445
0.00139511
0.00139603
0.00139715
0.0013984
0.00139974
0.00140114
0.00140256
0.00140396
0.00140533
0.00140665
0.00140789
0.00140906
0.00141014
0.00141113
0.00141203
0.00141283
0.00141354
0.00141416
0.00141469
0.00141514
0.00141551
0.0014158
0.00141602
0.00141619
0.00141629
0.00141634
0.00142073
0.0014214
0.00142232
0.00142343
0.00142469
0.00142603
0.00142743
0.00142885
0.00143026
0.00143163
0.00143295
0.00143419
0.00143536
0.00143645
0.00143744
0.00143834
0.00143914
0.00143985
0.00144047
0.00144101
0.00144145
0.00144182
0.00144212
0.00144234
0.0014425
0.00144261
0.00144265
0.00144704
0.00144771
0.00144863
0.00144975
0.00145101
0.00145236
0.00145377
0.00145519
0.00145661
0.00145798
0.00145931
0.00146056
0.00146174
0.00146283
0.00146383
0.00146473
0.00146554
0.00146625
0.00146688
0.00146741
0.00146786
0.00146823
0.00146853
0.00146875
0.00146892
0.00146902
0.00146907
0.00147345
0.00147412
0.00147505
0.00147617
0.00147744
0.00147881
0.00148022
0.00148165
0.00148308
0.00148446
0.0014858
0.00148706
0.00148825
0.00148934
0.00149035
0.00149126
0.00149207
0.00149279
0.00149342
0.00149396
0.00149441
0.00149478
0.00149508
0.00149531
0.00149547
0.00149558
0.00149563
0.0015
0.00150068
0.00150162
0.00150275
0.00150403
0.00150541
0.00150683
0.00150828
0.00150971
0.00151111
0.00151245
0.00151373
0.00151492
0.00151603
0.00151704
0.00151796
0.00151878
0.00151951
0.00152014
0.00152068
0.00152114
0.00152152
0.00152182
0.00152205
0.00152221
0.00152231
0.00152236
0.00152674
0.00152742
0.00152837
0.00152952
0.0015308
0.00153219
0.00153363
0.00153509
0.00153653
0.00153795
0.0015393
0.00154059
0.00154179
0.00154291
0.00154393
0.00154485
0.00154568
0.00154641
0.00154705
0.0015476
0.00154806
0.00154844
0.00154875
0.00154898
0.00154914
0.00154925
0.0015493
0.00155367
0.00155436
0.00155532
0.00155647
0.00155778
0.00155917
0.00156063
0.0015621
0.00156356
0.00156498
0.00156635
0.00156765
0.00156886
0.00156999
0.00157102
0.00157195
0.00157279
0.00157352
0.00157417
0.00157472
0.00157519
0.00157557
0.00157588
0.00157611
0.00157628
0.00157638
0.00157643
0.00158081
0.00158151
0.00158247
0.00158363
0.00158495
0.00158636
0.00158782
0.00158931
0.00159078
0.00159222
0.0015936
0.0015949
0.00159613
0.00159727
0.00159831
0.00159925
0.00160009
0.00160083
0.00160148
0.00160204
0.00160251
0.0016029
0.00160321
0.00160344
0.00160361
0.00160372
0.00160377
0.00160814
0.00160885
0.00160982
0.00161099
0.00161232
0.00161374
0.00161522
0.00161671
0.0016182
0.00161965
0.00162104
0.00162236
0.00162359
0.00162474
0.00162579
0.00162674
0.00162759
0.00162834
0.00162899
0.00162955
0.00163003
0.00163042
0.00163073
0.00163096
0.00163113
0.00163124
0.00163129
0.00163567
0.00163637
0.00163735
0.00163854
0.00163987
0.0016413
0.00164279
0.0016443
0.0016458
0.00164726
0.00164866
0.00164999
0.00165124
0.00165239
0.00165345
0.0016544
0.00165526
0.00165602
0.00165668
0.00165724
0.00165772
0.00165811
0.00165842
0.00165866
0.00165884
0.00165894
0.001659
0.00166336
0.00166407
0.00166506
0.00166625
0.0016676
0.00166904
0.00167054
0.00167206
0.00167357
0.00167504
0.00167645
0.00167779
0.00167904
0.00168021
0.00168127
0.00168223
0.00168309
0.00168386
0.00168452
0.00168509
0.00168557
0.00168597
0.00168628
0.00168652
0.0016867
0.0016868
0.00168686
0.00169121
0.00169193
0.00169292
0.00169412
0.00169548
0.00169693
0.00169844
0.00169997
0.00170148
0.00170296
0.00170439
0.00170573
0.00170699
0.00170816
0.00170923
0.0017102
0.00171107
0.00171184
0.00171251
0.00171308
0.00171356
0.00171396
0.00171428
0.00171452
0.00171469
0.0017148
0.00171486
0.0017192
0.00171992
0.00172092
0.00172213
0.00172349
0.00172495
0.00172647
0.001728
0.00172953
0.00173102
0.00173244
0.0017338
0.00173507
0.00173624
0.00173732
0.00173829
0.00173916
0.00173993
0.00174061
0.00174118
0.00174167
0.00174207
0.00174239
0.00174263
0.00174281
0.00174292
0.00174297
0.0017473
0.00174802
0.00174903
0.00175024
0.00175161
0.00175307
0.0017546
0.00175614
0.00175767
0.00175917
0.0017606
0.00176196
0.00176324
0.00176442
0.0017655
0.00176648
0.00176735
0.00176812
0.0017688
0.00176938
0.00176987
0.00177027
0.00177059
0.00177083
0.00177101
0.00177112
0.00177117
0.00177548
0.00177621
0.00177722
0.00177843
0.0017798
0.00178128
0.00178281
0.00178436
0.00178589
0.00178739
0.00178883
0.0017902
0.00179148
0.00179266
0.00179374
0.00179473
0.0017956
0.00179638
0.00179706
0.00179764
0.00179813
0.00179853
0.00179885
0.0017991
0.00179927
0.00179938
0.00179944
0.00180372
0.00180445
0.00180546
0.00180668
0.00180806
0.00180953
0.00181107
0.00181262
0.00181416
0.00181566
0.00181711
0.00181848
0.00181976
0.00182094
0.00182203
0.00182301
0.00182389
0.00182467
0.00182535
0.00182593
0.00182642
0.00182683
0.00182715
0.00182739
0.00182757
0.00182768
0.00182773
0.001832
0.00183273
0.00183374
0.00183496
0.00183634
0.00183781
0.00183935
0.00184091
0.00184245
0.00184395
0.0018454
0.00184677
0.00184805
0.00184924
0.00185033
0.00185131
0.00185219
0.00185297
0.00185365
0.00185423
0.00185472
0.00185513
0.00185545
0.00185569
0.00185587
0.00185598
0.00185604
0.00186026
0.001861
0.00186201
0.00186323
0.00186461
0.00186609
0.00186762
0.00186918
0.00187072
0.00187223
0.00187367
0.00187504
0.00187632
0.00187751
0.0018786
0.00187958
0.00188046
0.00188124
0.00188192
0.0018825
0.00188299
0.0018834
0.00188372
0.00188397
0.00188414
0.00188425
0.00188431
0.0018885
0.00188923
0.00189024
0.00189146
0.00189284
0.00189432
0.00189585
0.00189741
0.00189895
0.00190045
0.00190189
0.00190326
0.00190454
0.00190573
0.00190682
0.0019078
0.00190868
0.00190946
0.00191013
0.00191071
0.0019112
0.00191161
0.00191193
0.00191217
0.00191235
0.00191246
0.00191252
0.00191667
0.0019174
0.0019184
0.00191962
0.001921
0.00192247
0.001924
0.00192555
0.00192709
0.00192859
0.00193003
0.00193139
0.00193267
0.00193386
0.00193494
0.00193592
0.0019368
0.00193757
0.00193825
0.00193883
0.00193932
0.00193972
0.00194004
0.00194028
0.00194046
0.00194057
0.00194062
0.00194473
0.00194545
0.00194646
0.00194767
0.00194904
0.00195051
0.00195204
0.00195358
0.00195511
0.00195661
0.00195804
0.0019594
0.00196067
0.00196185
0.00196293
0.00196391
0.00196478
0.00196555
0.00196623
0.0019668
0.00196729
0.00196769
0.00196801
0.00196825
0.00196843
0.00196854
0.00196859
0.00197264
0.00197336
0.00197436
0.00197557
0.00197693
0.00197839
0.00197991
0.00198145
0.00198297
0.00198446
0.00198589
0.00198724
0.0019885
0.00198968
0.00199075
0.00199172
0.00199259
0.00199336
0.00199402
0.0019946
0.00199508
0.00199548
0.0019958
0.00199604
0.00199621
0.00199632
0.00199638
0.00200037
0.00200108
0.00200208
0.00200328
0.00200463
0.00200608
0.00200759
0.00200911
0.00201063
0.0020121
0.00201352
0.00201486
0.00201612
0.00201728
0.00201835
0.00201931
0.00202017
0.00202093
0.0020216
0.00202217
0.00202265
0.00202304
0.00202336
0.0020236
0.00202377
0.00202388
0.00202393
0.00202785
0.00202856
0.00202955
0.00203074
0.00203208
0.00203352
0.00203501
0.00203652
0.00203802
0.00203949
0.00204089
0.00204222
0.00204347
0.00204462
0.00204567
0.00204663
0.00204748
0.00204824
0.00204889
0.00204946
0.00204993
0.00205033
0.00205064
0.00205088
0.00205105
0.00205115
0.00205121
0.00205505
0.00205575
0.00205673
0.0020579
0.00205923
0.00206065
0.00206213
0.00206363
0.00206511
0.00206656
0.00206794
0.00206926
0.00207049
0.00207163
0.00207267
0.00207362
0.00207446
0.00207521
0.00207586
0.00207641
0.00207688
0.00207727
0.00207758
0.00207781
0.00207798
0.00207809
0.00207814
0.0020819
0.00208259
0.00208355
0.00208471
0.00208602
0.00208743
0.00208888
0.00209036
0.00209182
0.00209325
0.00209462
0.00209591
0.00209713
0.00209825
0.00209928
0.00210021
0.00210104
0.00210178
0.00210242
0.00210297
0.00210343
0.00210381
0.00210412
0.00210435
0.00210451
0.00210462
0.00210467
0.00210832
0.00210901
0.00210995
0.0021111
0.00211238
0.00211377
0.0021152
0.00211665
0.00211809
0.00211949
0.00212084
0.00212211
0.00212331
0.00212441
0.00212542
0.00212634
0.00212715
0.00212788
0.00212851
0.00212905
0.0021295
0.00212988
0.00213017
0.0021304
0.00213057
0.00213067
0.00213072
0.00213426
0.00213493
0.00213586
0.00213698
0.00213824
0.00213959
0.002141
0.00214242
0.00214383
0.00214521
0.00214652
0.00214777
0.00214894
0.00215002
0.00215101
0.00215191
0.00215271
0.00215342
0.00215404
0.00215456
0.00215501
0.00215538
0.00215567
0.00215589
0.00215605
0.00215615
0.0021562
0.00215961
0.00216027
0.00216117
0.00216227
0.0021635
0.00216482
0.00216619
0.00216758
0.00216896
0.0021703
0.00217158
0.0021728
0.00217394
0.002175
0.00217596
0.00217684
0.00217762
0.00217831
0.00217891
0.00217942
0.00217986
0.00218022
0.0021805
0.00218072
0.00218087
0.00218097
0.00218102
0.00218428
0.00218492
0.0021858
0.00218686
0.00218806
0.00218934
0.00219068
0.00219202
0.00219336
0.00219466
0.00219591
0.00219709
0.0021982
0.00219922
0.00220016
0.00220101
0.00220176
0.00220243
0.00220302
0.00220351
0.00220394
0.00220428
0.00220456
0.00220477
0.00220492
0.00220502
0.00220506
0.00220815
0.00220877
0.00220962
0.00221064
0.0022118
0.00221304
0.00221433
0.00221563
0.00221692
0.00221817
0.00221938
0.00222052
0.00222158
0.00222257
0.00222347
0.00222429
0.00222502
0.00222566
0.00222623
0.00222671
0.00222711
0.00222745
0.00222771
0.00222792
0.00222806
0.00222815
0.0022282
0.00223109
0.00223168
0.0022325
0.00223348
0.00223459
0.00223578
0.00223701
0.00223826
0.00223949
0.0022407
0.00224185
0.00224294
0.00224396
0.00224491
0.00224577
0.00224655
0.00224725
0.00224786
0.0022484
0.00224886
0.00224925
0.00224957
0.00224982
0.00225001
0.00225015
0.00225024
0.00225028
0.00225296
0.00225352
0.0022543
0.00225523
0.00225629
0.00225741
0.00225859
0.00225977
0.00226094
0.00226208
0.00226317
0.00226421
0.00226517
0.00226607
0.00226689
0.00226763
0.00226829
0.00226887
0.00226938
0.00226981
0.00227018
0.00227048
0.00227072
0.0022709
0.00227103
0.00227112
0.00227116
0.0022736
0.00227412
0.00227485
0.00227573
0.00227672
0.00227778
0.00227888
0.00227999
0.00228109
0.00228216
0.00228318
0.00228415
0.00228506
0.00228589
0.00228666
0.00228735
0.00228797
0.00228851
0.00228899
0.0022894
0.00228974
0.00229002
0.00229024
0.00229042
0.00229054
0.00229062
0.00229065
0.00229282
0.00229331
0.00229399
0.0022948
0.00229572
0.0022967
0.00229772
0.00229875
0.00229977
0.00230075
0.0023017
0.0023026
0.00230344
0.00230421
0.00230491
0.00230555
0.00230612
0.00230663
0.00230706
0.00230744
0.00230776
0.00230801
0.00230822
0.00230838
0.00230849
0.00230856
0.0023086
0.00231048
0.00231093
0.00231154
0.00231229
0.00231313
0.00231402
0.00231495
0.00231588
0.00231681
0.00231771
0.00231857
0.00231938
0.00232014
0.00232085
0.00232149
0.00232207
0.00232258
0.00232304
0.00232344
0.00232378
0.00232406
0.0023243
0.00232448
0.00232463
0.00232473
0.00232479
0.00232482
0.00232641
0.00232681
0.00232736
0.00232803
0.00232877
0.00232958
0.0023304
0.00233124
0.00233206
0.00233287
0.00233363
0.00233436
0.00233504
0.00233566
0.00233623
0.00233674
0.0023372
0.00233761
0.00233796
0.00233826
0.00233851
0.00233872
0.00233889
0.00233901
0.00233911
0.00233916
0.00233919
0.00234047
0.00234082
0.00234131
0.00234189
0.00234254
0.00234324
0.00234397
0.00234469
0.00234541
0.00234611
0.00234678
0.00234741
0.002348
0.00234854
0.00234903
0.00234948
0.00234988
0.00235023
0.00235053
0.00235079
0.00235101
0.00235119
0.00235134
0.00235144
0.00235152
0.00235157
0.0023516
0.00235259
0.00235289
0.0023533
0.0023538
0.00235435
0.00235495
0.00235556
0.00235618
0.00235679
0.00235738
0.00235795
0.00235848
0.00235897
0.00235943
0.00235985
0.00236022
0.00236056
0.00236085
0.00236111
0.00236133
0.00236151
0.00236167
0.00236179
0.00236188
0.00236194
0.00236199
0.00236201
0.00236274
0.00236298
0.00236332
0.00236373
0.00236419
0.00236468
0.00236519
0.0023657
0.0023662
0.00236668
0.00236714
0.00236758
0.00236799
0.00236836
0.0023687
0.002369
0.00236928
0.00236952
0.00236972
0.0023699
0.00237005
0.00237017
0.00237027
0.00237035
0.0023704
0.00237043
0.00237045
0.00237096
0.00237116
0.00237143
0.00237176
0.00237212
0.00237251
0.00237291
0.00237331
0.00237371
0.00237409
0.00237446
0.0023748
0.00237512
0.00237542
0.00237569
0.00237593
0.00237614
0.00237633
0.00237649
0.00237663
0.00237675
0.00237685
0.00237692
0.00237698
0.00237702
0.00237705
0.00237706
0.0023774
0.00237755
0.00237776
0.00237801
0.00237829
0.00237859
0.0023789
0.00237921
0.00237951
0.0023798
0.00238008
0.00238034
0.00238059
0.00238081
0.00238101
0.0023812
0.00238136
0.0023815
0.00238163
0.00238173
0.00238182
0.00238189
0.00238195
0.002382
0.00238203
0.00238205
0.00238206
0.00238227
0.00238238
0.00238254
0.00238272
0.00238293
0.00238315
0.00238338
0.00238361
0.00238383
0.00238404
0.00238425
0.00238444
0.00238462
0.00238479
0.00238493
0.00238507
0.00238519
0.00238529
0.00238538
0.00238546
0.00238552
0.00238558
0.00238562
0.00238565
0.00238567
0.00238569
0.00238569
0.00238582
0.0023859
0.00238601
0.00238615
0.00238629
0.00238645
0.00238661
0.00238677
0.00238693
0.00238709
0.00238723
0.00238737
0.00238749
0.00238761
0.00238771
0.00238781
0.00238789
0.00238796
0.00238803
0.00238808
0.00238813
0.00238816
0.00238819
0.00238821
0.00238823
0.00238824
0.00238825
0.00238832
0.00238838
0.00238845
0.00238854
0.00238864
0.00238875
0.00238886
0.00238897
0.00238908
0.00238918
0.00238928
0.00238937
0.00238946
0.00238954
0.00238961
0.00238967
0.00238973
0.00238978
0.00238982
0.00238985
0.00238989
0.00238991
0.00238993
0.00238994
0.00238996
0.00238996
0.00238997
0.00239002
0.00239005
0.0023901
0.00239016
0.00239023
0.0023903
0.00239037
0.00239044
0.00239051
0.00239058
0.00239064
0.0023907
0.00239076
0.00239081
0.00239086
0.0023909
0.00239093
0.00239097
0.00239099
0.00239102
0.00239104
0.00239106
0.00239107
0.00239108
0.00239109
0.00239109
0.00239109
0.00239112
0.00239114
0.00239117
0.00239121
0.00239125
0.0023913
0.00239135
0.00239139
0.00239144
0.00239148
0.00239152
0.00239156
0.00239159
0.00239163
0.00239166
0.00239168
0.00239171
0.00239173
0.00239174
0.00239176
0.00239177
0.00239178
0.00239179
0.00239179
0.0023918
0.0023918
0.0023918
0.00239182
0.00239184
0.00239186
0.00239188
0.0023919
0.00239193
0.00239195
0.00239198
0.00239201
0.00239203
0.00239205
0.00239208
0.0023921
0.00239211
0.00239213
0.00239214
0.00239216
0.00239217
0.00239218
0.00239219
0.00239219
0.0023922
0.0023922
0.00239221
0.00239221
0.00239221
0.00239221
0.00239223
0.00239224
0.00239225
0.00239226
0.00239227
0.00239229
0.0023923
0.00239231
0.00239232
0.00239233
0.00239234
0.00239235
0.00239236
0.00239237
0.00239238
0.00239238
0.00239239