/*--------------------------------*- C++ -*----------------------------------*\
| =========                 |                                                 |
| \\      /  F ield         | OpenFOAM: The Open Source CFD Toolbox           |
|  \\    /   O peration     | Version:  2106                                  |
|   \\  /    A nd           | Website:  www.openfoam.com                      |
|    \\/     M anipulation  |                                                 |
\*---------------------------------------------------------------------------*/
FoamFile
{
    version     2.0;
    format      ascii;
    arch        "LSB;label=32;scalar=64";
    class       volScalarField;
    location    "219.99956";
    object      C3H6;
}
// * * * * * * * * * * * * * * * * * * * * * * * * * * * * * * * * * * * * * //

dimensions      [0 0 0 0 0 0 0];

internalField   nonuniform List<scalar> 
3360
(
3.79133e-18
3.91331e-18
4.08308e-18
4.29073e-18
4.52762e-18
4.78597e-18
5.05876e-18
5.33967e-18
5.62304e-18
5.90391e-18
6.17794e-18
6.44148e-18
6.69151e-18
6.9256e-18
7.14193e-18
7.33921e-18
7.51666e-18
7.67394e-18
7.81111e-18
7.92859e-18
8.02706e-18
8.1075e-18
8.17103e-18
8.21895e-18
8.25266e-18
8.27364e-18
8.28337e-18
1.66317e-17
1.72429e-17
1.81055e-17
1.91797e-17
2.04325e-17
2.18354e-17
2.33626e-17
2.49907e-17
2.66979e-17
2.84635e-17
3.02677e-17
3.20913e-17
3.39153e-17
3.57209e-17
3.74896e-17
3.92034e-17
4.08445e-17
4.23955e-17
4.38401e-17
4.51628e-17
4.63493e-17
4.73871e-17
4.82654e-17
4.89758e-17
4.95119e-17
4.98699e-17
5.00484e-17
5.21819e-17
5.44719e-17
5.77259e-17
6.18149e-17
6.66317e-17
7.20799e-17
7.80681e-17
8.4506e-17
9.13023e-17
9.83638e-17
1.05595e-16
1.12902e-16
1.20191e-16
1.27368e-16
1.34346e-16
1.41038e-16
1.47367e-16
1.53261e-16
1.5866e-16
1.63512e-16
1.67779e-16
1.71433e-16
1.74458e-16
1.76849e-16
1.78612e-16
1.79761e-16
1.80321e-16
1.51963e-16
1.59511e-16
1.70308e-16
1.83968e-16
2.00168e-16
2.18607e-16
2.38981e-16
2.60977e-16
2.84267e-16
3.08504e-16
3.33332e-16
3.58388e-16
3.8331e-16
4.07748e-16
4.31367e-16
4.53863e-16
4.74964e-16
4.94439e-16
5.12102e-16
5.27816e-16
5.41489e-16
5.53071e-16
5.62558e-16
5.69977e-16
5.75391e-16
5.78888e-16
5.80574e-16
4.43955e-16
4.67764e-16
5.01888e-16
5.45161e-16
5.96594e-16
6.55237e-16
7.20113e-16
7.90184e-16
8.64349e-16
9.41442e-16
1.02026e-15
1.09959e-15
1.17824e-15
1.25508e-15
1.32905e-15
1.3992e-15
1.46474e-15
1.52497e-15
1.57939e-15
1.62763e-15
1.66944e-15
1.70475e-15
1.73358e-15
1.75606e-15
1.77243e-15
1.78297e-15
1.78805e-15
1.30899e-15
1.38211e-15
1.48703e-15
1.6202e-15
1.77857e-15
1.95919e-15
2.15901e-15
2.37477e-15
2.60299e-15
2.84004e-15
3.08212e-15
3.32547e-15
3.56638e-15
3.80134e-15
4.02714e-15
4.24093e-15
4.44025e-15
4.62313e-15
4.78806e-15
4.93397e-15
5.06027e-15
5.16674e-15
5.25354e-15
5.32115e-15
5.37029e-15
5.40192e-15
5.41712e-15
3.88821e-15
4.11036e-15
4.42916e-15
4.8338e-15
5.31498e-15
5.86363e-15
6.47035e-15
7.1251e-15
7.81721e-15
8.53544e-15
9.2683e-15
1.00043e-14
1.07322e-14
1.14414e-14
1.21224e-14
1.27665e-14
1.33666e-14
1.39168e-14
1.44126e-14
1.4851e-14
1.52303e-14
1.555e-14
1.58105e-14
1.60133e-14
1.61607e-14
1.62555e-14
1.63011e-14
1.15883e-14
1.22567e-14
1.32165e-14
1.44351e-14
1.58846e-14
1.75376e-14
1.93656e-14
2.13383e-14
2.34231e-14
2.55862e-14
2.77927e-14
3.00078e-14
3.21977e-14
3.43307e-14
3.63777e-14
3.83132e-14
4.01156e-14
4.17673e-14
4.32552e-14
4.45703e-14
4.57076e-14
4.66655e-14
4.74458e-14
4.80532e-14
4.84945e-14
4.87783e-14
4.89147e-14
3.46292e-14
3.66383e-14
3.95221e-14
4.31834e-14
4.75378e-14
5.25027e-14
5.79921e-14
6.39142e-14
7.01712e-14
7.66608e-14
8.32783e-14
8.99194e-14
9.64828e-14
1.02874e-13
1.09005e-13
1.14801e-13
1.20197e-13
1.25141e-13
1.29595e-13
1.3353e-13
1.36933e-13
1.39799e-13
1.42134e-13
1.43952e-13
1.45272e-13
1.46121e-13
1.46529e-13
1.03494e-13
1.09512e-13
1.18151e-13
1.29121e-13
1.42168e-13
1.57044e-13
1.7349e-13
1.91232e-13
2.09976e-13
2.29413e-13
2.49231e-13
2.69117e-13
2.88766e-13
3.07895e-13
3.26244e-13
3.43586e-13
3.59727e-13
3.74513e-13
3.87828e-13
3.99592e-13
4.09762e-13
4.18326e-13
4.25301e-13
4.30729e-13
4.34671e-13
4.37206e-13
4.38425e-13
3.09476e-13
3.27495e-13
3.53358e-13
3.86191e-13
4.25232e-13
4.69737e-13
5.18929e-13
5.71979e-13
6.28008e-13
6.86095e-13
7.45301e-13
8.04689e-13
8.63356e-13
9.20452e-13
9.75206e-13
1.02694e-12
1.07508e-12
1.11918e-12
1.15888e-12
1.19395e-12
1.22426e-12
1.24978e-12
1.27057e-12
1.28675e-12
1.29849e-12
1.30605e-12
1.30968e-12
9.24626e-13
9.7844e-13
1.05568e-12
1.15372e-12
1.27028e-12
1.40313e-12
1.54992e-12
1.70819e-12
1.87529e-12
2.04847e-12
2.22493e-12
2.40187e-12
2.5766e-12
2.7466e-12
2.90956e-12
3.06348e-12
3.20667e-12
3.33777e-12
3.45576e-12
3.55997e-12
3.65001e-12
3.7258e-12
3.78751e-12
3.83552e-12
3.87037e-12
3.89278e-12
3.90355e-12
2.7599e-12
2.92037e-12
3.15061e-12
3.44274e-12
3.78989e-12
4.18532e-12
4.62205e-12
5.09261e-12
5.58914e-12
6.10342e-12
6.6271e-12
7.15189e-12
7.66981e-12
8.1734e-12
8.65588e-12
9.11135e-12
9.53485e-12
9.92241e-12
1.02711e-11
1.05789e-11
1.08447e-11
1.10685e-11
1.12506e-11
1.13922e-11
1.1495e-11
1.15611e-11
1.15928e-11
8.21598e-12
8.69242e-12
9.3758e-12
1.02424e-11
1.12717e-11
1.24433e-11
1.37364e-11
1.51285e-11
1.65962e-11
1.81151e-11
1.96604e-11
2.12076e-11
2.27331e-11
2.42152e-11
2.56339e-11
2.69721e-11
2.82153e-11
2.93522e-11
3.03742e-11
3.12758e-11
3.20541e-11
3.27086e-11
3.32411e-11
3.3655e-11
3.39553e-11
3.41483e-11
3.42409e-11
2.43762e-11
2.57833e-11
2.78003e-11
3.03561e-11
3.33884e-11
3.68364e-11
4.0637e-11
4.47237e-11
4.90264e-11
5.3473e-11
5.79905e-11
6.25072e-11
6.69548e-11
7.12697e-11
7.53949e-11
7.92812e-11
8.28875e-11
8.61817e-11
8.91401e-11
9.17475e-11
9.39964e-11
9.58862e-11
9.74225e-11
9.86159e-11
9.94814e-11
1.00037e-10
1.00304e-10
7.19137e-11
7.60308e-11
8.19271e-11
8.93899e-11
9.82324e-11
1.08272e-10
1.19319e-10
1.31177e-10
1.43639e-10
1.56494e-10
1.69529e-10
1.82537e-10
1.95322e-10
2.07702e-10
2.19518e-10
2.3063e-10
2.40925e-10
2.50314e-10
2.58733e-10
2.66144e-10
2.72527e-10
2.77885e-10
2.82235e-10
2.85612e-10
2.88058e-10
2.89628e-10
2.90381e-10
2.10565e-10
2.22457e-10
2.39466e-10
2.60958e-10
2.86373e-10
3.15166e-10
3.46774e-10
3.80616e-10
4.1609e-10
4.52583e-10
4.8949e-10
5.26225e-10
5.62235e-10
5.97019e-10
6.30135e-10
6.61208e-10
6.89931e-10
7.16074e-10
7.39473e-10
7.6003e-10
7.77708e-10
7.92524e-10
8.04538e-10
8.1385e-10
8.2059e-10
8.24911e-10
8.26981e-10
6.10165e-10
6.43882e-10
6.92024e-10
7.52717e-10
8.243e-10
9.0515e-10
9.93623e-10
1.08803e-09
1.18664e-09
1.28773e-09
1.38961e-09
1.49066e-09
1.58938e-09
1.68444e-09
1.77465e-09
1.85905e-09
1.93685e-09
2.00748e-09
2.07054e-09
2.12581e-09
2.17325e-09
2.21294e-09
2.24506e-09
2.26992e-09
2.28789e-09
2.2994e-09
2.3049e-09
1.74379e-09
1.83702e-09
1.96982e-09
2.13675e-09
2.33293e-09
2.55365e-09
2.79417e-09
3.04969e-09
3.31542e-09
3.58662e-09
3.85874e-09
4.12748e-09
4.38896e-09
4.63973e-09
4.87682e-09
5.09785e-09
5.30093e-09
5.48471e-09
5.64833e-09
5.79139e-09
5.91387e-09
6.0161e-09
6.0987e-09
6.16251e-09
6.20856e-09
6.238e-09
6.25208e-09
4.89269e-09
5.14207e-09
5.49628e-09
5.93986e-09
6.45891e-09
7.04008e-09
7.67017e-09
8.33607e-09
9.0249e-09
9.72424e-09
1.04223e-08
1.11083e-08
1.17726e-08
1.24068e-08
1.30039e-08
1.35583e-08
1.40657e-08
1.45234e-08
1.49296e-08
1.52838e-08
1.55862e-08
1.5838e-08
1.6041e-08
1.61976e-08
1.63104e-08
1.63824e-08
1.64167e-08
1.34048e-08
1.40448e-08
1.49508e-08
1.60803e-08
1.73955e-08
1.886e-08
2.04385e-08
2.2097e-08
2.38025e-08
2.55239e-08
2.72326e-08
2.89028e-08
3.05118e-08
3.20405e-08
3.34733e-08
3.47981e-08
3.60062e-08
3.70919e-08
3.80524e-08
3.88873e-08
3.95983e-08
4.0189e-08
4.06643e-08
4.10301e-08
4.12931e-08
4.14608e-08
4.15408e-08
3.56358e-08
3.71993e-08
3.94044e-08
4.21411e-08
4.53103e-08
4.88189e-08
5.25781e-08
5.65034e-08
6.05156e-08
6.45414e-08
6.85149e-08
7.23778e-08
7.60804e-08
7.95816e-08
8.28487e-08
8.58574e-08
8.85907e-08
9.10388e-08
9.31979e-08
9.50694e-08
9.66594e-08
9.79772e-08
9.90353e-08
9.98482e-08
1.00432e-07
1.00804e-07
1.00981e-07
9.1343e-08
9.49591e-08
1.00041e-07
1.06319e-07
1.13552e-07
1.21514e-07
1.29996e-07
1.388e-07
1.47748e-07
1.56677e-07
1.65443e-07
1.73923e-07
1.82012e-07
1.89629e-07
1.96708e-07
2.03203e-07
2.09083e-07
2.14334e-07
2.18952e-07
2.22946e-07
2.2633e-07
2.2913e-07
2.31374e-07
2.33095e-07
2.3433e-07
2.35115e-07
2.35488e-07
2.24541e-07
2.32446e-07
2.43521e-07
2.57148e-07
2.72772e-07
2.89888e-07
3.08026e-07
3.26759e-07
3.45702e-07
3.64513e-07
3.82896e-07
4.00603e-07
4.17428e-07
4.3321e-07
4.47827e-07
4.61196e-07
4.73267e-07
4.84016e-07
4.93448e-07
5.01586e-07
5.08471e-07
5.14157e-07
5.18706e-07
5.22192e-07
5.24688e-07
5.26273e-07
5.27027e-07
5.27654e-07
5.44041e-07
5.66937e-07
5.95014e-07
6.27088e-07
6.6208e-07
6.9901e-07
7.36994e-07
7.75248e-07
8.1309e-07
8.49936e-07
8.85304e-07
9.18802e-07
9.50129e-07
9.79066e-07
1.00547e-06
1.02925e-06
1.05038e-06
1.06889e-06
1.08483e-06
1.0983e-06
1.10941e-06
1.11828e-06
1.12508e-06
1.12994e-06
1.13302e-06
1.13448e-06
1.18446e-06
1.2169e-06
1.26215e-06
1.31751e-06
1.38058e-06
1.44918e-06
1.52138e-06
1.59542e-06
1.66978e-06
1.74314e-06
1.81438e-06
1.88261e-06
1.94709e-06
2.00727e-06
2.06275e-06
2.11328e-06
2.15872e-06
2.19905e-06
2.23432e-06
2.26467e-06
2.29027e-06
2.31136e-06
2.32821e-06
2.34109e-06
2.3503e-06
2.35614e-06
2.35891e-06
2.54321e-06
2.60532e-06
2.69183e-06
2.79753e-06
2.91775e-06
3.04832e-06
3.18549e-06
3.32593e-06
3.46673e-06
3.60543e-06
3.73993e-06
3.86854e-06
3.98992e-06
4.10306e-06
4.20724e-06
4.30202e-06
4.38716e-06
4.46265e-06
4.52861e-06
4.58531e-06
4.63311e-06
4.67246e-06
4.70386e-06
4.72785e-06
4.745e-06
4.75586e-06
4.76102e-06
5.23239e-06
5.34882e-06
5.51098e-06
5.70904e-06
5.93429e-06
6.17887e-06
6.43578e-06
6.69878e-06
6.96246e-06
7.22217e-06
7.47403e-06
7.71486e-06
7.94214e-06
8.15398e-06
8.34905e-06
8.52649e-06
8.68587e-06
8.82715e-06
8.95058e-06
9.05663e-06
9.14602e-06
9.21957e-06
9.27824e-06
9.32304e-06
9.35503e-06
9.3753e-06
9.3849e-06
1.03021e-05
1.05184e-05
1.082e-05
1.11892e-05
1.16099e-05
1.2068e-05
1.25505e-05
1.30461e-05
1.35448e-05
1.40378e-05
1.45178e-05
1.49787e-05
1.54154e-05
1.58242e-05
1.62023e-05
1.65476e-05
1.68592e-05
1.71365e-05
1.73797e-05
1.75896e-05
1.77672e-05
1.79138e-05
1.80312e-05
1.81211e-05
1.81855e-05
1.82265e-05
1.82459e-05
1.92669e-05
1.96641e-05
2.022e-05
2.09035e-05
2.16875e-05
2.25473e-05
2.34607e-05
2.44078e-05
2.53709e-05
2.63342e-05
2.7284e-05
2.82084e-05
2.90973e-05
2.99423e-05
3.07366e-05
3.14748e-05
3.21527e-05
3.27674e-05
3.33171e-05
3.38006e-05
3.4218e-05
3.45698e-05
3.48572e-05
3.5082e-05
3.52464e-05
3.5353e-05
3.54047e-05
3.37049e-05
3.43962e-05
3.53685e-05
3.65718e-05
3.79629e-05
3.9503e-05
4.11573e-05
4.28937e-05
4.46832e-05
4.64992e-05
4.83175e-05
5.01159e-05
5.18744e-05
5.35746e-05
5.52002e-05
5.67369e-05
5.81717e-05
5.94939e-05
6.06943e-05
6.17657e-05
6.27028e-05
6.35017e-05
6.41614e-05
6.46826e-05
6.50673e-05
6.53189e-05
6.5442e-05
5.42054e-05
5.52593e-05
5.67429e-05
5.85813e-05
6.07092e-05
6.30679e-05
6.56034e-05
6.82659e-05
7.10087e-05
7.37887e-05
7.65655e-05
7.93022e-05
8.19648e-05
8.45235e-05
8.69532e-05
8.92324e-05
9.13432e-05
9.32719e-05
9.50077e-05
9.65438e-05
9.78762e-05
9.9004e-05
9.99286e-05
0.000100654
0.000101186
0.000101532
0.0001017
7.91681e-05
8.04448e-05
8.2229e-05
8.44175e-05
8.69189e-05
8.96511e-05
9.25399e-05
9.55186e-05
9.85274e-05
0.000101514
0.000104434
0.000107248
0.000109926
0.000112444
0.000114782
0.000116928
0.000118874
0.000120615
0.000122152
0.000123486
0.000124622
0.000125569
0.000126332
0.000126922
0.000127349
0.000127623
0.000127755
0.000103032
0.000104121
0.000105622
0.00010743
0.000109451
0.000111604
0.000113818
0.000116034
0.000118204
0.00012029
0.000122263
0.000124104
0.0001258
0.000127345
0.000128736
0.000129974
0.000131066
0.000132016
0.000132834
0.000133526
0.000134103
0.000134573
0.000134945
0.000135228
0.000135429
0.000135556
0.000135616
0.000117716
0.00011828
0.000119041
0.000119932
0.000120895
0.000121881
0.000122851
0.000123778
0.000124639
0.000125423
0.000126124
0.000126739
0.000127272
0.000127727
0.00012811
0.000128429
0.000128692
0.000128904
0.000129075
0.00012921
0.000129315
0.000129394
0.000129453
0.000129495
0.000129523
0.00012954
0.000129548
0.000119553
0.000119612
0.000119678
0.000119734
0.000119766
0.000119765
0.000119725
0.000119644
0.000119525
0.000119372
0.000119191
0.000118988
0.000118771
0.000118547
0.000118322
0.000118102
0.000117892
0.000117696
0.000117516
0.000117356
0.000117216
0.000117097
0.000116999
0.000116923
0.000116867
0.000116831
0.000116814
0.000111737
0.000111512
0.000111194
0.000110799
0.00011034
0.000109831
0.000109287
0.000108718
0.000108138
0.000107558
0.000106987
0.000106433
0.000105905
0.000105407
0.000104944
0.000104518
0.000104133
0.000103789
0.000103486
0.000103224
0.000103002
0.000102817
0.000102669
0.000102556
0.000102474
0.000102422
0.000102397
9.95982e-05
9.92793e-05
9.88365e-05
9.82979e-05
9.76883e-05
9.70301e-05
9.63428e-05
9.56435e-05
9.49467e-05
9.42645e-05
9.36067e-05
9.29812e-05
9.23938e-05
9.18487e-05
9.13487e-05
9.08953e-05
9.04891e-05
9.01297e-05
8.98162e-05
8.95469e-05
8.932e-05
8.91331e-05
8.89839e-05
8.88698e-05
8.87881e-05
8.87363e-05
8.87116e-05
8.68477e-05
8.65309e-05
8.60932e-05
8.55641e-05
8.49694e-05
8.4332e-05
8.36714e-05
8.30043e-05
8.23444e-05
8.17028e-05
8.10882e-05
8.05072e-05
7.99646e-05
7.94636e-05
7.90063e-05
7.85933e-05
7.82246e-05
7.78995e-05
7.76168e-05
7.73746e-05
7.71709e-05
7.70036e-05
7.68702e-05
7.67684e-05
7.66956e-05
7.66494e-05
7.66275e-05
7.51772e-05
7.48965e-05
7.45092e-05
7.40419e-05
7.35181e-05
7.29579e-05
7.23789e-05
7.17956e-05
7.122e-05
7.06616e-05
7.0128e-05
6.96245e-05
6.91552e-05
6.87226e-05
6.83282e-05
6.79726e-05
6.76555e-05
6.73763e-05
6.71336e-05
6.69258e-05
6.67513e-05
6.6608e-05
6.64938e-05
6.64067e-05
6.63444e-05
6.63049e-05
6.62862e-05
6.50772e-05
6.48381e-05
6.45086e-05
6.41112e-05
6.36659e-05
6.31901e-05
6.26986e-05
6.22038e-05
6.17159e-05
6.12428e-05
6.07909e-05
6.03647e-05
5.99676e-05
5.96018e-05
5.92683e-05
5.89677e-05
5.86998e-05
5.84638e-05
5.82588e-05
5.80834e-05
5.7936e-05
5.78149e-05
5.77185e-05
5.76449e-05
5.75923e-05
5.7559e-05
5.75432e-05
5.65177e-05
5.63164e-05
5.60389e-05
5.57043e-05
5.53294e-05
5.49288e-05
5.4515e-05
5.40984e-05
5.36875e-05
5.32892e-05
5.29086e-05
5.25497e-05
5.22152e-05
5.1907e-05
5.16261e-05
5.13728e-05
5.11471e-05
5.09482e-05
5.07754e-05
5.06275e-05
5.05033e-05
5.04012e-05
5.032e-05
5.02579e-05
5.02136e-05
5.01855e-05
5.01721e-05
4.93029e-05
4.91334e-05
4.88996e-05
4.86177e-05
4.83017e-05
4.7964e-05
4.76151e-05
4.72637e-05
4.69171e-05
4.65809e-05
4.62597e-05
4.59567e-05
4.56743e-05
4.5414e-05
4.51767e-05
4.49627e-05
4.4772e-05
4.46039e-05
4.44578e-05
4.43328e-05
4.42277e-05
4.41414e-05
4.40727e-05
4.40202e-05
4.39827e-05
4.39589e-05
4.39476e-05
4.3214e-05
4.30705e-05
4.28726e-05
4.26339e-05
4.23663e-05
4.20803e-05
4.17847e-05
4.1487e-05
4.11932e-05
4.09082e-05
4.06358e-05
4.03788e-05
4.01393e-05
3.99184e-05
3.9717e-05
3.95354e-05
3.93734e-05
3.92307e-05
3.91066e-05
3.90005e-05
3.89112e-05
3.88379e-05
3.87795e-05
3.87349e-05
3.87031e-05
3.86829e-05
3.86733e-05
3.80556e-05
3.79335e-05
3.77651e-05
3.7562e-05
3.73342e-05
3.70907e-05
3.6839e-05
3.65854e-05
3.63351e-05
3.60923e-05
3.58601e-05
3.56411e-05
3.54368e-05
3.52485e-05
3.50767e-05
3.49218e-05
3.47837e-05
3.46619e-05
3.45561e-05
3.44655e-05
3.43893e-05
3.43268e-05
3.4277e-05
3.42389e-05
3.42117e-05
3.41945e-05
3.41863e-05
3.36666e-05
3.35622e-05
3.34182e-05
3.32444e-05
3.30496e-05
3.28413e-05
3.26259e-05
3.24089e-05
3.21947e-05
3.19868e-05
3.17881e-05
3.16006e-05
3.14257e-05
3.12644e-05
3.11173e-05
3.09846e-05
3.08663e-05
3.0762e-05
3.06713e-05
3.05937e-05
3.05285e-05
3.04749e-05
3.04322e-05
3.03996e-05
3.03763e-05
3.03615e-05
3.03545e-05
2.99167e-05
2.98271e-05
2.97034e-05
2.95542e-05
2.93869e-05
2.9208e-05
2.9023e-05
2.88366e-05
2.86525e-05
2.8474e-05
2.83032e-05
2.8142e-05
2.79917e-05
2.78531e-05
2.77267e-05
2.76127e-05
2.75109e-05
2.74213e-05
2.73433e-05
2.72766e-05
2.72205e-05
2.71745e-05
2.71378e-05
2.71097e-05
2.70897e-05
2.7077e-05
2.70709e-05
2.67014e-05
2.66242e-05
2.65176e-05
2.63891e-05
2.6245e-05
2.60908e-05
2.59314e-05
2.57708e-05
2.56122e-05
2.54583e-05
2.53112e-05
2.51723e-05
2.50427e-05
2.49232e-05
2.48143e-05
2.4716e-05
2.46283e-05
2.4551e-05
2.44838e-05
2.44263e-05
2.4378e-05
2.43382e-05
2.43066e-05
2.42824e-05
2.42652e-05
2.42542e-05
2.4249e-05
2.39361e-05
2.38695e-05
2.37775e-05
2.36665e-05
2.3542e-05
2.34088e-05
2.32712e-05
2.31324e-05
2.29954e-05
2.28625e-05
2.27354e-05
2.26154e-05
2.25035e-05
2.24003e-05
2.23061e-05
2.22212e-05
2.21454e-05
2.20787e-05
2.20206e-05
2.19709e-05
2.19292e-05
2.18949e-05
2.18675e-05
2.18466e-05
2.18317e-05
2.18223e-05
2.18178e-05
2.15521e-05
2.14944e-05
2.14148e-05
2.13188e-05
2.1211e-05
2.10958e-05
2.09767e-05
2.08566e-05
2.07381e-05
2.0623e-05
2.0513e-05
2.04092e-05
2.03123e-05
2.0223e-05
2.01415e-05
2.0068e-05
2.00025e-05
1.99447e-05
1.98945e-05
1.98515e-05
1.98153e-05
1.97856e-05
1.97619e-05
1.97439e-05
1.9731e-05
1.97228e-05
1.97189e-05
1.94927e-05
1.94427e-05
1.93737e-05
1.92905e-05
1.91971e-05
1.90972e-05
1.8994e-05
1.88899e-05
1.87872e-05
1.86875e-05
1.85922e-05
1.85022e-05
1.84182e-05
1.83408e-05
1.82702e-05
1.82065e-05
1.81497e-05
1.80996e-05
1.80561e-05
1.80188e-05
1.79875e-05
1.79618e-05
1.79412e-05
1.79256e-05
1.79144e-05
1.79073e-05
1.79039e-05
1.77108e-05
1.76674e-05
1.76075e-05
1.75353e-05
1.74543e-05
1.73677e-05
1.72781e-05
1.71878e-05
1.70987e-05
1.70122e-05
1.69295e-05
1.68514e-05
1.67786e-05
1.67114e-05
1.66502e-05
1.65949e-05
1.65456e-05
1.65021e-05
1.64644e-05
1.6432e-05
1.64049e-05
1.63825e-05
1.63648e-05
1.63512e-05
1.63415e-05
1.63353e-05
1.63324e-05
1.6167e-05
1.61293e-05
1.60774e-05
1.60147e-05
1.59443e-05
1.58691e-05
1.57913e-05
1.57129e-05
1.56355e-05
1.55604e-05
1.54886e-05
1.54208e-05
1.53575e-05
1.52992e-05
1.5246e-05
1.5198e-05
1.51552e-05
1.51175e-05
1.50847e-05
1.50566e-05
1.5033e-05
1.50137e-05
1.49982e-05
1.49864e-05
1.4978e-05
1.49727e-05
1.49701e-05
1.48282e-05
1.47955e-05
1.47503e-05
1.46958e-05
1.46347e-05
1.45693e-05
1.45017e-05
1.44336e-05
1.43664e-05
1.43011e-05
1.42387e-05
1.41798e-05
1.41248e-05
1.40742e-05
1.4028e-05
1.39863e-05
1.39491e-05
1.39163e-05
1.38878e-05
1.38634e-05
1.38429e-05
1.38261e-05
1.38127e-05
1.38024e-05
1.37951e-05
1.37904e-05
1.37882e-05
1.36662e-05
1.36378e-05
1.35985e-05
1.35511e-05
1.3498e-05
1.34412e-05
1.33824e-05
1.33232e-05
1.32647e-05
1.3208e-05
1.31537e-05
1.31025e-05
1.30547e-05
1.30107e-05
1.29705e-05
1.29343e-05
1.2902e-05
1.28735e-05
1.28487e-05
1.28275e-05
1.28097e-05
1.2795e-05
1.27834e-05
1.27745e-05
1.27681e-05
1.27641e-05
1.27622e-05
1.2657e-05
1.26323e-05
1.25981e-05
1.25569e-05
1.25107e-05
1.24613e-05
1.24102e-05
1.23587e-05
1.23079e-05
1.22585e-05
1.22113e-05
1.21668e-05
1.21253e-05
1.2087e-05
1.2052e-05
1.20205e-05
1.19924e-05
1.19676e-05
1.19461e-05
1.19277e-05
1.19122e-05
1.18994e-05
1.18893e-05
1.18816e-05
1.1876e-05
1.18725e-05
1.18709e-05
1.17801e-05
1.17586e-05
1.17289e-05
1.16931e-05
1.16529e-05
1.16099e-05
1.15654e-05
1.15206e-05
1.14764e-05
1.14335e-05
1.13925e-05
1.13537e-05
1.13176e-05
1.12843e-05
1.12539e-05
1.12265e-05
1.1202e-05
1.11805e-05
1.11618e-05
1.11457e-05
1.11323e-05
1.11212e-05
1.11124e-05
1.11056e-05
1.11008e-05
1.10978e-05
1.10963e-05
1.10179e-05
1.09992e-05
1.09733e-05
1.09422e-05
1.09072e-05
1.08698e-05
1.08311e-05
1.07922e-05
1.07537e-05
1.07164e-05
1.06807e-05
1.0647e-05
1.06156e-05
1.05866e-05
1.05602e-05
1.05363e-05
1.05151e-05
1.04963e-05
1.048e-05
1.04661e-05
1.04544e-05
1.04447e-05
1.04371e-05
1.04312e-05
1.0427e-05
1.04244e-05
1.04231e-05
1.03552e-05
1.03389e-05
1.03165e-05
1.02893e-05
1.02589e-05
1.02264e-05
1.01928e-05
1.01589e-05
1.01254e-05
1.00929e-05
1.00619e-05
1.00326e-05
1.00053e-05
9.98005e-06
9.95706e-06
9.93633e-06
9.91784e-06
9.90154e-06
9.88737e-06
9.87525e-06
9.86505e-06
9.85668e-06
9.85001e-06
9.84492e-06
9.84128e-06
9.83897e-06
9.83788e-06
9.77906e-06
9.76489e-06
9.74533e-06
9.72174e-06
9.69529e-06
9.667e-06
9.63774e-06
9.60826e-06
9.57916e-06
9.55093e-06
9.52392e-06
9.49844e-06
9.47467e-06
9.45276e-06
9.43277e-06
9.41474e-06
9.39866e-06
9.38449e-06
9.37217e-06
9.36163e-06
9.35276e-06
9.34549e-06
9.33969e-06
9.33526e-06
9.33209e-06
9.33009e-06
9.32914e-06
9.27811e-06
9.26579e-06
9.24879e-06
9.22828e-06
9.20527e-06
9.18068e-06
9.15524e-06
9.12961e-06
9.10431e-06
9.07976e-06
9.05629e-06
9.03414e-06
9.01348e-06
8.99442e-06
8.97705e-06
8.96138e-06
8.9474e-06
8.93508e-06
8.92438e-06
8.91521e-06
8.90751e-06
8.90118e-06
8.89614e-06
8.89229e-06
8.88955e-06
8.8878e-06
8.88697e-06
8.84267e-06
8.83196e-06
8.81719e-06
8.79936e-06
8.77938e-06
8.758e-06
8.7359e-06
8.71363e-06
8.69165e-06
8.67031e-06
8.64992e-06
8.63067e-06
8.61272e-06
8.59617e-06
8.58108e-06
8.56746e-06
8.55532e-06
8.54462e-06
8.53532e-06
8.52736e-06
8.52067e-06
8.51517e-06
8.51079e-06
8.50745e-06
8.50506e-06
8.50355e-06
8.50283e-06
8.46435e-06
8.45505e-06
8.44222e-06
8.42674e-06
8.40938e-06
8.39082e-06
8.37163e-06
8.35229e-06
8.3332e-06
8.31468e-06
8.29698e-06
8.28027e-06
8.26468e-06
8.25032e-06
8.23721e-06
8.2254e-06
8.21486e-06
8.20557e-06
8.1975e-06
8.19059e-06
8.18478e-06
8.18001e-06
8.17621e-06
8.17331e-06
8.17124e-06
8.16993e-06
8.1693e-06
8.13587e-06
8.1278e-06
8.11667e-06
8.10324e-06
8.08818e-06
8.07208e-06
8.05544e-06
8.03866e-06
8.02211e-06
8.00605e-06
7.99069e-06
7.9762e-06
7.96269e-06
7.95024e-06
7.93888e-06
7.92863e-06
7.91949e-06
7.91144e-06
7.90444e-06
7.89845e-06
7.89342e-06
7.88929e-06
7.88599e-06
7.88348e-06
7.88168e-06
7.88055e-06
7.88e-06
7.85096e-06
7.84397e-06
7.83433e-06
7.82269e-06
7.80965e-06
7.79571e-06
7.78129e-06
7.76677e-06
7.75243e-06
7.73852e-06
7.72523e-06
7.71268e-06
7.70098e-06
7.6902e-06
7.68037e-06
7.6715e-06
7.66359e-06
7.65662e-06
7.65056e-06
7.64538e-06
7.64102e-06
7.63745e-06
7.6346e-06
7.63242e-06
7.63087e-06
7.62988e-06
7.62941e-06
7.6042e-06
7.59816e-06
7.58982e-06
7.57977e-06
7.56849e-06
7.55644e-06
7.54397e-06
7.53142e-06
7.51903e-06
7.50702e-06
7.49553e-06
7.48469e-06
7.47458e-06
7.46527e-06
7.45677e-06
7.44911e-06
7.44228e-06
7.43626e-06
7.43103e-06
7.42656e-06
7.4228e-06
7.41971e-06
7.41725e-06
7.41537e-06
7.41403e-06
7.41318e-06
7.41277e-06
7.39092e-06
7.38571e-06
7.37852e-06
7.36985e-06
7.36013e-06
7.34973e-06
7.33899e-06
7.32817e-06
7.3175e-06
7.30714e-06
7.29724e-06
7.2879e-06
7.27919e-06
7.27117e-06
7.26385e-06
7.25726e-06
7.25137e-06
7.24619e-06
7.24169e-06
7.23784e-06
7.2346e-06
7.23194e-06
7.22982e-06
7.2282e-06
7.22705e-06
7.22632e-06
7.22597e-06
7.20708e-06
7.20261e-06
7.19643e-06
7.18898e-06
7.18062e-06
7.1717e-06
7.16247e-06
7.15318e-06
7.14401e-06
7.13512e-06
7.12662e-06
7.1186e-06
7.11113e-06
7.10424e-06
7.09797e-06
7.09231e-06
7.08726e-06
7.08282e-06
7.07896e-06
7.07565e-06
7.07288e-06
7.0706e-06
7.06878e-06
7.06739e-06
7.0664e-06
7.06578e-06
7.06548e-06
7.04922e-06
7.04539e-06
7.0401e-06
7.03373e-06
7.02659e-06
7.01895e-06
7.01107e-06
7.00312e-06
6.99529e-06
6.98769e-06
6.98043e-06
6.97359e-06
6.96721e-06
6.96133e-06
6.95597e-06
6.95114e-06
6.94684e-06
6.94305e-06
6.93975e-06
6.93693e-06
6.93457e-06
6.93262e-06
6.93108e-06
6.92989e-06
6.92905e-06
6.92851e-06
6.92826e-06
6.91434e-06
6.91109e-06
6.90659e-06
6.90118e-06
6.89511e-06
6.88862e-06
6.88192e-06
6.87518e-06
6.86853e-06
6.86208e-06
6.85592e-06
6.85012e-06
6.84471e-06
6.83972e-06
6.83518e-06
6.83109e-06
6.82744e-06
6.82423e-06
6.82144e-06
6.81905e-06
6.81705e-06
6.8154e-06
6.81409e-06
6.81309e-06
6.81238e-06
6.81192e-06
6.81171e-06
6.79989e-06
6.79715e-06
6.79336e-06
6.7888e-06
6.78368e-06
6.77822e-06
6.77258e-06
6.7669e-06
6.7613e-06
6.75588e-06
6.7507e-06
6.74582e-06
6.74128e-06
6.73709e-06
6.73328e-06
6.72984e-06
6.72678e-06
6.72408e-06
6.72174e-06
6.71974e-06
6.71806e-06
6.71668e-06
6.71558e-06
6.71474e-06
6.71415e-06
6.71377e-06
6.71359e-06
6.70367e-06
6.70138e-06
6.69822e-06
6.69442e-06
6.69016e-06
6.68561e-06
6.68091e-06
6.67619e-06
6.67154e-06
6.66703e-06
6.66273e-06
6.65868e-06
6.6549e-06
6.65143e-06
6.64827e-06
6.64542e-06
6.64288e-06
6.64065e-06
6.63871e-06
6.63705e-06
6.63566e-06
6.63452e-06
6.63361e-06
6.63292e-06
6.63243e-06
6.63211e-06
6.63196e-06
6.62377e-06
6.62189e-06
6.6193e-06
6.61618e-06
6.61268e-06
6.60895e-06
6.60511e-06
6.60124e-06
6.59743e-06
6.59375e-06
6.59023e-06
6.58692e-06
6.58384e-06
6.58101e-06
6.57843e-06
6.57611e-06
6.57405e-06
6.57223e-06
6.57066e-06
6.56931e-06
6.56818e-06
6.56725e-06
6.56651e-06
6.56595e-06
6.56555e-06
6.56529e-06
6.56517e-06
6.55855e-06
6.55704e-06
6.55495e-06
6.55245e-06
6.54964e-06
6.54665e-06
6.54357e-06
6.54047e-06
6.53742e-06
6.53448e-06
6.53167e-06
6.52903e-06
6.52658e-06
6.52432e-06
6.52227e-06
6.52042e-06
6.51878e-06
6.51734e-06
6.51609e-06
6.51502e-06
6.51412e-06
6.51339e-06
6.5128e-06
6.51236e-06
6.51204e-06
6.51184e-06
6.51174e-06
6.50655e-06
6.50537e-06
6.50374e-06
6.50179e-06
6.4996e-06
6.49727e-06
6.49488e-06
6.49247e-06
6.49011e-06
6.48783e-06
6.48566e-06
6.48362e-06
6.48173e-06
6.47999e-06
6.47841e-06
6.47699e-06
6.47573e-06
6.47463e-06
6.47367e-06
6.47285e-06
6.47216e-06
6.4716e-06
6.47115e-06
6.47081e-06
6.47057e-06
6.47042e-06
6.47035e-06
6.46645e-06
6.46556e-06
6.46435e-06
6.46289e-06
6.46126e-06
6.45952e-06
6.45774e-06
6.45596e-06
6.45421e-06
6.45252e-06
6.45092e-06
6.44942e-06
6.44803e-06
6.44676e-06
6.4456e-06
6.44456e-06
6.44364e-06
6.44284e-06
6.44214e-06
6.44155e-06
6.44105e-06
6.44064e-06
6.44032e-06
6.44007e-06
6.4399e-06
6.43979e-06
6.43973e-06
6.43699e-06
6.43637e-06
6.43552e-06
6.4345e-06
6.43336e-06
6.43215e-06
6.43092e-06
6.42968e-06
6.42848e-06
6.42732e-06
6.42622e-06
6.4252e-06
6.42425e-06
6.42338e-06
6.4226e-06
6.4219e-06
6.42128e-06
6.42074e-06
6.42027e-06
6.41988e-06
6.41954e-06
6.41927e-06
6.41906e-06
6.41889e-06
6.41878e-06
6.41871e-06
6.41867e-06
6.41693e-06
6.41654e-06
6.41601e-06
6.41537e-06
6.41466e-06
6.41391e-06
6.41315e-06
6.41239e-06
6.41166e-06
6.41095e-06
6.41029e-06
6.40968e-06
6.40911e-06
6.4086e-06
6.40814e-06
6.40773e-06
6.40737e-06
6.40705e-06
6.40678e-06
6.40656e-06
6.40637e-06
6.40621e-06
6.40609e-06
6.406e-06
6.40593e-06
6.40589e-06
6.40587e-06
6.40497e-06
6.40478e-06
6.40451e-06
6.40419e-06
6.40384e-06
6.40348e-06
6.40311e-06
6.40275e-06
6.40241e-06
6.40208e-06
6.40178e-06
6.40151e-06
6.40126e-06
6.40104e-06
6.40084e-06
6.40067e-06
6.40052e-06
6.4004e-06
6.40029e-06
6.4002e-06
6.40012e-06
6.40007e-06
6.40002e-06
6.39999e-06
6.39996e-06
6.39995e-06
6.39994e-06
6.3997e-06
6.39965e-06
6.3996e-06
6.39953e-06
6.39947e-06
6.3994e-06
6.39935e-06
6.3993e-06
6.39926e-06
6.39923e-06
6.39921e-06
6.39919e-06
6.39919e-06
6.39919e-06
6.39919e-06
6.3992e-06
6.39922e-06
6.39923e-06
6.39925e-06
6.39926e-06
6.39927e-06
6.39929e-06
6.3993e-06
6.39931e-06
6.39931e-06
6.39932e-06
6.39932e-06
6.39953e-06
6.3996e-06
6.39969e-06
6.3998e-06
6.39994e-06
6.40008e-06
6.40024e-06
6.40041e-06
6.40057e-06
6.40074e-06
6.40091e-06
6.40107e-06
6.40123e-06
6.40138e-06
6.40152e-06
6.40164e-06
6.40176e-06
6.40187e-06
6.40196e-06
6.40204e-06
6.40211e-06
6.40217e-06
6.40221e-06
6.40225e-06
6.40228e-06
6.40229e-06
6.4023e-06
6.40277e-06
6.40289e-06
6.40307e-06
6.40328e-06
6.40352e-06
6.40377e-06
6.40404e-06
6.40432e-06
6.40459e-06
6.40486e-06
6.40511e-06
6.40536e-06
6.40559e-06
6.40581e-06
6.406e-06
6.40618e-06
6.40634e-06
6.40649e-06
6.40661e-06
6.40672e-06
6.40681e-06
6.40689e-06
6.40695e-06
6.40699e-06
6.40703e-06
6.40705e-06
6.40706e-06
6.40757e-06
6.4077e-06
6.40789e-06
6.40811e-06
6.40836e-06
6.40863e-06
6.4089e-06
6.40917e-06
6.40944e-06
6.4097e-06
6.40995e-06
6.41018e-06
6.41039e-06
6.41058e-06
6.41076e-06
6.41092e-06
6.41106e-06
6.41118e-06
6.41129e-06
6.41138e-06
6.41146e-06
6.41152e-06
6.41157e-06
6.41161e-06
6.41164e-06
6.41165e-06
6.41166e-06
6.41207e-06
6.41216e-06
6.41229e-06
6.41244e-06
6.4126e-06
6.41277e-06
6.41294e-06
6.4131e-06
6.41326e-06
6.4134e-06
6.41354e-06
6.41365e-06
6.41376e-06
6.41385e-06
6.41394e-06
6.41401e-06
6.41406e-06
6.41412e-06
6.41416e-06
6.41419e-06
6.41422e-06
6.41424e-06
6.41426e-06
6.41427e-06
6.41428e-06
6.41429e-06
6.41429e-06
6.41451e-06
6.41452e-06
6.41452e-06
6.41452e-06
6.41451e-06
6.4145e-06
6.41447e-06
6.41443e-06
6.41438e-06
6.41432e-06
6.41426e-06
6.41419e-06
6.41411e-06
6.41403e-06
6.41396e-06
6.41388e-06
6.41381e-06
6.41375e-06
6.41369e-06
6.41363e-06
6.41359e-06
6.41355e-06
6.41351e-06
6.41349e-06
6.41347e-06
6.41346e-06
6.41345e-06
6.41348e-06
6.41336e-06
6.4132e-06
6.413e-06
6.41276e-06
6.41249e-06
6.4122e-06
6.4119e-06
6.41158e-06
6.41126e-06
6.41094e-06
6.41063e-06
6.41033e-06
6.41004e-06
6.40976e-06
6.40951e-06
6.40928e-06
6.40907e-06
6.40888e-06
6.40872e-06
6.40858e-06
6.40847e-06
6.40837e-06
6.4083e-06
6.40825e-06
6.40822e-06
6.4082e-06
6.40811e-06
6.40786e-06
6.40751e-06
6.40708e-06
6.40659e-06
6.40604e-06
6.40547e-06
6.40487e-06
6.40426e-06
6.40366e-06
6.40307e-06
6.40249e-06
6.40194e-06
6.40142e-06
6.40094e-06
6.4005e-06
6.40009e-06
6.39973e-06
6.39941e-06
6.39914e-06
6.3989e-06
6.39871e-06
6.39855e-06
6.39843e-06
6.39834e-06
6.39829e-06
6.39826e-06
6.39822e-06
6.39784e-06
6.39731e-06
6.39666e-06
6.39593e-06
6.39512e-06
6.39428e-06
6.39341e-06
6.39254e-06
6.39168e-06
6.39084e-06
6.39003e-06
6.38927e-06
6.38855e-06
6.38789e-06
6.38728e-06
6.38674e-06
6.38625e-06
6.38582e-06
6.38545e-06
6.38514e-06
6.38488e-06
6.38467e-06
6.38451e-06
6.38439e-06
6.38432e-06
6.38429e-06
6.38441e-06
6.38393e-06
6.38327e-06
6.38246e-06
6.38154e-06
6.38055e-06
6.37951e-06
6.37845e-06
6.37739e-06
6.37634e-06
6.37533e-06
6.37437e-06
6.37345e-06
6.3726e-06
6.37182e-06
6.37111e-06
6.37047e-06
6.3699e-06
6.3694e-06
6.36896e-06
6.3686e-06
6.3683e-06
6.36806e-06
6.36787e-06
6.36774e-06
6.36766e-06
6.36762e-06
6.36799e-06
6.36746e-06
6.36672e-06
6.36582e-06
6.36481e-06
6.36372e-06
6.36258e-06
6.36142e-06
6.36026e-06
6.35913e-06
6.35804e-06
6.35701e-06
6.35603e-06
6.35512e-06
6.35429e-06
6.35353e-06
6.35285e-06
6.35225e-06
6.35172e-06
6.35127e-06
6.35089e-06
6.35057e-06
6.35032e-06
6.35013e-06
6.34999e-06
6.3499e-06
6.34986e-06
6.35052e-06
6.34998e-06
6.34923e-06
6.34832e-06
6.3473e-06
6.34621e-06
6.34507e-06
6.34391e-06
6.34276e-06
6.34165e-06
6.34057e-06
6.33955e-06
6.33859e-06
6.3377e-06