/*--------------------------------*- C++ -*----------------------------------*\
| =========                 |                                                 |
| \\      /  F ield         | OpenFOAM: The Open Source CFD Toolbox           |
|  \\    /   O peration     | Version:  2106                                  |
|   \\  /    A nd           | Website:  www.openfoam.com                      |
|    \\/     M anipulation  |                                                 |
\*---------------------------------------------------------------------------*/
FoamFile
{
    version     2.0;
    format      ascii;
    arch        "LSB;label=32;scalar=64";
    class       volScalarField;
    location    "219.99956";
    object      C6H5;
}
// * * * * * * * * * * * * * * * * * * * * * * * * * * * * * * * * * * * * * //

dimensions      [0 0 0 0 0 0 0];

internalField   nonuniform List<scalar> 
3360
(
4.38447e-21
4.5256e-21
4.72199e-21
4.96222e-21
5.23628e-21
5.53516e-21
5.85076e-21
6.17575e-21
6.50359e-21
6.82853e-21
7.14557e-21
7.45048e-21
7.73974e-21
8.01058e-21
8.26086e-21
8.48911e-21
8.69442e-21
8.87639e-21
9.03509e-21
9.17101e-21
9.28494e-21
9.378e-21
9.45151e-21
9.50695e-21
9.54596e-21
9.57023e-21
9.58149e-21
1.92383e-20
1.99456e-20
2.09437e-20
2.21867e-20
2.36365e-20
2.52598e-20
2.70271e-20
2.89111e-20
3.08866e-20
3.29297e-20
3.50176e-20
3.71278e-20
3.92385e-20
4.13278e-20
4.33746e-20
4.53577e-20
4.72567e-20
4.90515e-20
5.07231e-20
5.22536e-20
5.36266e-20
5.48274e-20
5.58438e-20
5.66658e-20
5.72862e-20
5.77005e-20
5.7907e-20
6.03837e-20
6.30347e-20
6.68016e-20
7.15352e-20
7.71114e-20
8.34186e-20
9.03509e-20
9.78039e-20
1.05672e-19
1.13847e-19
1.22219e-19
1.30678e-19
1.39116e-19
1.47426e-19
1.55504e-19
1.63252e-19
1.70578e-19
1.77402e-19
1.83653e-19
1.89271e-19
1.94211e-19
1.98441e-19
2.01944e-19
2.04712e-19
2.06752e-19
2.08083e-19
2.08731e-19
1.75939e-19
1.84681e-19
1.97186e-19
2.13009e-19
2.31773e-19
2.5313e-19
2.76729e-19
3.02208e-19
3.29185e-19
3.5726e-19
3.8602e-19
4.15044e-19
4.43914e-19
4.72222e-19
4.99583e-19
5.25643e-19
5.50086e-19
5.72647e-19
5.93109e-19
6.11313e-19
6.27152e-19
6.4057e-19
6.5156e-19
6.60155e-19
6.66427e-19
6.70477e-19
6.72431e-19
5.14311e-19
5.41903e-19
5.8145e-19
6.31603e-19
6.91213e-19
7.5918e-19
8.34372e-19
9.15588e-19
1.00155e-18
1.09091e-18
1.18226e-18
1.27422e-18
1.36538e-18
1.45445e-18
1.54019e-18
1.62151e-18
1.69748e-18
1.7673e-18
1.83039e-18
1.8863e-18
1.93477e-18
1.9757e-18
2.00912e-18
2.03519e-18
2.05416e-18
2.06638e-18
2.07227e-18
1.51742e-18
1.60221e-18
1.72389e-18
1.87833e-18
2.062e-18
2.27148e-18
2.50322e-18
2.75345e-18
3.01816e-18
3.29309e-18
3.57388e-18
3.85613e-18
4.13556e-18
4.4081e-18
4.67002e-18
4.918e-18
5.1492e-18
5.36134e-18
5.55265e-18
5.72191e-18
5.86842e-18
5.99192e-18
6.09262e-18
6.17104e-18
6.22805e-18
6.26474e-18
6.28238e-18
4.51037e-18
4.76817e-18
5.13812e-18
5.60771e-18
6.16613e-18
6.80287e-18
7.507e-18
8.2669e-18
9.07016e-18
9.90377e-18
1.07544e-17
1.16086e-17
1.24534e-17
1.32767e-17
1.40671e-17
1.48147e-17
1.55113e-17
1.61499e-17
1.67255e-17
1.72344e-17
1.76747e-17
1.80458e-17
1.83482e-17
1.85836e-17
1.87547e-17
1.88648e-17
1.89177e-17
1.34518e-17
1.42281e-17
1.53426e-17
1.67577e-17
1.8441e-17
2.03607e-17
2.24838e-17
2.47748e-17
2.71961e-17
2.97084e-17
3.22711e-17
3.48439e-17
3.73875e-17
3.9865e-17
4.22427e-17
4.44908e-17
4.65844e-17
4.8503e-17
5.02313e-17
5.1759e-17
5.308e-17
5.41927e-17
5.50992e-17
5.58048e-17
5.63173e-17
5.6647e-17
5.68055e-17
4.02261e-17
4.25607e-17
4.59119e-17
5.01667e-17
5.5227e-17
6.0997e-17
6.73766e-17
7.42592e-17
8.15311e-17
8.90736e-17
9.67649e-17
1.04484e-16
1.12112e-16
1.1954e-16
1.26667e-16
1.33404e-16
1.39677e-16
1.45424e-16
1.506e-16
1.55175e-16
1.5913e-16
1.62462e-16
1.65176e-16
1.67289e-16
1.68824e-16
1.69811e-16
1.70285e-16
1.20306e-16
1.27304e-16
1.37351e-16
1.50107e-16
1.6528e-16
1.8258e-16
2.01707e-16
2.22341e-16
2.4414e-16
2.66747e-16
2.89797e-16
3.12926e-16
3.3578e-16
3.5803e-16
3.79372e-16
3.99543e-16
4.18319e-16
4.35518e-16
4.51006e-16
4.6469e-16
4.7652e-16
4.86482e-16
4.94595e-16
5.00909e-16
5.05495e-16
5.08444e-16
5.09861e-16
3.60008e-16
3.80976e-16
4.11073e-16
4.49281e-16
4.94715e-16
5.46509e-16
6.03759e-16
6.655e-16
7.3071e-16
7.98316e-16
8.67225e-16
9.36348e-16
1.00463e-15
1.07109e-15
1.13482e-15
1.19504e-15
1.25108e-15
1.30241e-15
1.34862e-15
1.38944e-15
1.42472e-15
1.45444e-15
1.47863e-15
1.49746e-15
1.51114e-15
1.51993e-15
1.52415e-15
1.0764e-15
1.13907e-15
1.22901e-15
1.34319e-15
1.47893e-15
1.63364e-15
1.8046e-15
1.98892e-15
2.18353e-15
2.38524e-15
2.59076e-15
2.79686e-15
3.00038e-15
3.19838e-15
3.3882e-15
3.56749e-15
3.73428e-15
3.88699e-15
4.02444e-15
4.14582e-15
4.25071e-15
4.339e-15
4.41088e-15
4.4668e-15
4.50741e-15
4.53351e-15
4.54605e-15
3.21546e-15
3.40244e-15
3.67073e-15
4.01114e-15
4.41566e-15
4.87648e-15
5.38541e-15
5.93381e-15
6.51247e-15
7.11185e-15
7.72219e-15
8.33384e-15
8.93749e-15
9.52444e-15
1.00868e-14
1.06177e-14
1.11113e-14
1.15631e-14
1.19695e-14
1.23283e-14
1.26382e-14
1.28989e-14
1.31112e-14
1.32763e-14
1.33961e-14
1.34732e-14
1.35102e-14
9.58074e-15
1.01361e-14
1.09327e-14
1.19429e-14
1.31428e-14
1.45087e-14
1.60161e-14
1.76391e-14
1.93503e-14
2.11213e-14
2.2923e-14
2.4727e-14
2.65058e-14
2.82339e-14
2.98882e-14
3.14486e-14
3.28983e-14
3.4224e-14
3.54158e-14
3.64671e-14
3.73747e-14
3.81379e-14
3.87588e-14
3.92415e-14
3.95917e-14
3.98167e-14
3.99247e-14
2.84587e-14
3.00984e-14
3.24487e-14
3.54269e-14
3.89605e-14
4.29785e-14
4.74076e-14
5.21701e-14
5.71845e-14
6.23666e-14
6.76315e-14
7.28956e-14
7.80791e-14
8.31079e-14
8.79157e-14
9.24449e-14
9.66478e-14
1.00487e-13
1.03935e-13
1.06973e-13
1.09594e-13
1.11796e-13
1.13586e-13
1.14977e-13
1.15986e-13
1.16633e-13
1.16944e-13
8.41163e-14
8.89031e-14
9.57583e-14
1.04434e-13
1.14713e-13
1.26382e-13
1.39222e-13
1.53003e-13
1.67484e-13
1.8242e-13
1.97564e-13
2.12675e-13
2.27525e-13
2.41904e-13
2.55625e-13
2.68528e-13
2.80481e-13
2.91381e-13
3.01154e-13
3.09756e-13
3.17164e-13
3.23382e-13
3.2843e-13
3.32348e-13
3.35186e-13
3.37008e-13
3.37881e-13
2.47182e-13
2.60917e-13
2.80555e-13
3.05359e-13
3.34675e-13
3.67868e-13
4.04285e-13
4.43251e-13
4.8407e-13
5.26036e-13
5.6845e-13
6.1064e-13
6.51972e-13
6.91874e-13
7.29841e-13
7.65445e-13
7.98342e-13
8.28268e-13
8.55041e-13
8.78553e-13
8.98765e-13
9.15699e-13
9.29427e-13
9.40065e-13
9.47763e-13
9.52697e-13
9.5506e-13
7.21452e-13
7.5976e-13
8.14383e-13
8.83129e-13
9.64043e-13
1.05523e-12
1.15476e-12
1.2607e-12
1.37108e-12
1.48393e-12
1.59735e-12
1.70957e-12
1.81892e-12
1.92396e-12
2.0234e-12
2.11623e-12
2.20163e-12
2.279e-12
2.34796e-12
2.40831e-12
2.46003e-12
2.50324e-12
2.53818e-12
2.5652e-12
2.58471e-12
2.59719e-12
2.60316e-12
2.08948e-12
2.19153e-12
2.3363e-12
2.51728e-12
2.72858e-12
2.96456e-12
3.21963e-12
3.4883e-12
3.7652e-12
4.04519e-12
4.32351e-12
4.59581e-12
4.85828e-12
5.10772e-12
5.34148e-12
5.55755e-12
5.75447e-12
5.93134e-12
6.0877e-12
6.22352e-12
6.33913e-12
6.43511e-12
6.51231e-12
6.5717e-12
6.61442e-12
6.64165e-12
6.65464e-12
5.97764e-12
6.2295e-12
6.58319e-12
7.01944e-12
7.52058e-12
8.06982e-12
8.65118e-12
9.24967e-12
9.85154e-12
1.04446e-11
1.10182e-11
1.1564e-11
1.20751e-11
1.25469e-11
1.29761e-11
1.33614e-11
1.37024e-11
1.4e-11
1.42559e-11
1.44722e-11
1.46516e-11
1.4797e-11
1.49112e-11
1.49973e-11
1.5058e-11
1.5096e-11
1.51138e-11
1.65982e-11
1.71397e-11
1.78848e-11
1.87786e-11
1.97698e-11
2.0811e-11
2.18594e-11
2.28777e-11
2.38352e-11
2.47084e-11
2.5481e-11
2.61436e-11
2.66932e-11
2.71323e-11
2.74678e-11
2.77095e-11
2.78698e-11
2.79619e-11
2.79993e-11
2.79955e-11
2.79628e-11
2.79126e-11
2.78546e-11
2.77972e-11
2.77473e-11
2.77104e-11
2.76905e-11
4.25916e-11
4.34487e-11
4.45728e-11
4.58302e-11
4.70977e-11
4.82677e-11
4.92526e-11
4.99886e-11
5.04362e-11
5.05796e-11
5.04241e-11
4.99921e-11
4.93184e-11
4.84465e-11
4.74236e-11
4.62979e-11
4.51155e-11
4.39192e-11
4.27469e-11
4.16317e-11
4.06016e-11
3.96796e-11
3.88846e-11
3.82314e-11
3.77315e-11
3.73931e-11
3.72222e-11
9.14614e-11
9.18495e-11
9.21841e-11
9.22711e-11
9.19496e-11
9.11105e-11
8.97039e-11
8.77366e-11
8.5263e-11
8.23707e-11
7.91658e-11
7.57593e-11
7.22564e-11
6.87502e-11
6.53181e-11
6.20211e-11
5.89058e-11
5.60063e-11
5.33469e-11
5.09453e-11
4.88141e-11
4.69634e-11
4.54016e-11
4.41364e-11
4.31757e-11
4.25273e-11
4.21991e-11
1.4632e-10
1.44682e-10
1.4219e-10
1.38852e-10
1.3472e-10
1.29904e-10
1.24559e-10
1.18862e-10
1.1299e-10
1.07103e-10
1.01332e-10
9.57747e-11
9.05002e-11
8.55512e-11
8.09516e-11
7.67115e-11
7.28323e-11
6.93109e-11
6.61424e-11
6.3322e-11
6.08461e-11
5.87133e-11
5.69242e-11
5.54816e-11
5.43902e-11
5.36557e-11
5.3285e-11
1.85519e-10
1.82714e-10
1.78757e-10
1.7387e-10
1.68278e-10
1.62205e-10
1.55859e-10
1.49423e-10
1.43043e-10
1.36829e-10
1.3086e-10
1.25183e-10
1.19827e-10
1.14805e-10
1.10124e-10
1.05782e-10
1.0178e-10
9.81179e-11
9.47959e-11
9.18173e-11
8.91871e-11
8.69105e-11
8.49941e-11
8.34457e-11
8.22735e-11
8.14853e-11
8.10883e-11
2.39476e-10
2.37607e-10
2.34956e-10
2.31657e-10
2.27837e-10
2.23622e-10
2.1913e-10
2.14466e-10
2.09723e-10
2.04974e-10
2.00266e-10
1.95638e-10
1.91127e-10
1.8676e-10
1.82565e-10
1.78562e-10
1.74774e-10
1.71223e-10
1.6793e-10
1.64917e-10
1.62208e-10
1.59825e-10
1.5779e-10
1.56127e-10
1.54854e-10
1.53991e-10
1.53554e-10
3.6763e-10
3.69249e-10
3.71421e-10
3.73964e-10
3.76742e-10
3.7966e-10
3.82654e-10
3.85682e-10
3.8871e-10
3.91704e-10
3.94622e-10
3.97422e-10
4.00063e-10
4.02499e-10
4.04692e-10
4.0661e-10
4.08229e-10
4.09536e-10
4.10532e-10
4.1123e-10
4.11656e-10
4.11849e-10
4.11855e-10
4.11732e-10
4.11541e-10
4.11348e-10
4.11219e-10
7.05137e-10
7.20749e-10
7.43053e-10
7.71283e-10
8.04877e-10
8.43391e-10
8.86444e-10
9.33662e-10
9.84642e-10
1.03891e-09
1.09592e-09
1.15503e-09
1.21549e-09
1.27651e-09
1.33723e-09
1.39681e-09
1.45438e-09
1.50908e-09
1.56011e-09
1.60677e-09
1.64845e-09
1.68465e-09
1.71501e-09
1.73928e-09
1.75734e-09
1.7692e-09
1.77501e-09
1.72794e-09
1.80857e-09
1.92702e-09
2.08224e-09
2.27447e-09
2.5043e-09
2.77244e-09
3.07936e-09
3.42498e-09
3.80844e-09
4.22786e-09
4.68017e-09
5.16108e-09
5.66503e-09
6.18527e-09
6.71406e-09
7.24287e-09
7.76259e-09
8.26397e-09
8.73777e-09
9.17505e-09
9.56741e-09
9.90723e-09
1.01878e-08
1.04036e-08
1.05502e-08
1.06245e-08
5.34332e-09
5.72262e-09
6.28901e-09
7.04622e-09
8.00379e-09
9.1736e-09
1.05673e-08
1.2194e-08
1.40587e-08
1.61617e-08
1.84966e-08
2.10486e-08
2.37946e-08
2.67026e-08
2.97326e-08
3.28373e-08
3.59637e-08
3.90553e-08
4.20533e-08
4.48988e-08
4.75348e-08
4.99076e-08
5.19686e-08
5.36747e-08
5.49906e-08
5.58872e-08
5.63429e-08
1.95417e-08
2.10847e-08
2.33863e-08
2.64568e-08
3.03266e-08
3.50308e-08
4.05994e-08
4.70483e-08
5.43727e-08
6.25415e-08
7.14952e-08
8.11443e-08
9.13709e-08
1.02031e-07
1.1296e-07
1.23977e-07
1.3489e-07
1.45507e-07
1.55634e-07
1.65083e-07
1.73679e-07
1.81259e-07
1.87721e-07
1.92984e-07
1.96982e-07
1.99669e-07
2.01018e-07
7.04099e-08
7.5157e-08
8.21259e-08
9.12317e-08
1.02429e-07
1.15671e-07
1.30886e-07
1.47959e-07
1.66723e-07
1.86951e-07
2.08364e-07
2.30632e-07
2.53364e-07
2.76224e-07
2.98917e-07
3.21134e-07
3.42567e-07
3.62922e-07
3.81929e-07
3.99344e-07
4.14956e-07
4.2859e-07
4.40106e-07
4.49397e-07
4.56395e-07
4.61059e-07
4.63382e-07
2.04377e-07
2.1404e-07
2.27883e-07
2.4537e-07
2.65985e-07
2.89401e-07
3.15263e-07
3.4317e-07
3.72689e-07
4.03367e-07
4.34742e-07
4.66356e-07
4.97767e-07
5.2856e-07
5.58355e-07
5.86808e-07
6.13617e-07
6.38519e-07
6.61302e-07
6.81789e-07
6.99844e-07
7.15368e-07
7.28298e-07
7.386e-07
7.4627e-07
7.51332e-07
7.5383e-07
4.29968e-07
4.4219e-07
4.59376e-07
4.80624e-07
5.05125e-07
5.32146e-07
5.60995e-07
5.91029e-07
6.21663e-07
6.52369e-07
6.82683e-07
7.12203e-07
7.40597e-07
7.6759e-07
7.92965e-07
8.16555e-07
8.38237e-07
8.57921e-07
8.75557e-07
8.91119e-07
9.04601e-07
9.16016e-07
9.25394e-07
9.32775e-07
9.38212e-07
9.41766e-07
9.43506e-07
6.79215e-07
6.89268e-07
7.03133e-07
7.19848e-07
7.38562e-07
7.58527e-07
7.79096e-07
7.99733e-07
8.20002e-07
8.39566e-07
8.58171e-07
8.75643e-07
8.91867e-07
9.0678e-07
9.2036e-07
9.32611e-07
9.43561e-07
9.5325e-07
9.61728e-07
9.6905e-07
9.75271e-07
9.80446e-07
9.84631e-07
9.87879e-07
9.90244e-07
9.91773e-07
9.92514e-07
8.52709e-07
8.57408e-07
8.63718e-07
8.71057e-07
8.78921e-07
8.86895e-07
8.9465e-07
9.0195e-07
9.08635e-07
9.14616e-07
9.19857e-07
9.24364e-07
9.28173e-07
9.3134e-07
9.33932e-07
9.36021e-07
9.37678e-07
9.38971e-07
9.39964e-07
9.40711e-07
9.41262e-07
9.41658e-07
9.41934e-07
9.42119e-07
9.42234e-07
9.42298e-07
9.42325e-07
9.09277e-07
9.09141e-07
9.08788e-07
9.08105e-07
9.07e-07
9.05419e-07
9.03343e-07
9.00792e-07
8.97811e-07
8.94468e-07
8.90846e-07
8.87032e-07
8.83115e-07
8.79178e-07
8.75301e-07
8.71551e-07
8.67989e-07
8.64664e-07
8.61615e-07
8.58874e-07
8.56463e-07
8.54396e-07
8.52683e-07
8.51324e-07
8.50318e-07
8.49659e-07
8.49335e-07
8.76591e-07
8.73802e-07
8.69851e-07
8.64924e-07
8.59188e-07
8.52805e-07
8.45931e-07
8.38713e-07
8.31295e-07
8.23806e-07
8.16365e-07
8.09077e-07
8.0203e-07
7.95303e-07
7.88956e-07
7.83039e-07
7.7759e-07
7.72637e-07
7.68197e-07
7.64281e-07
7.60892e-07
7.58027e-07
7.55679e-07
7.53836e-07
7.52482e-07
7.51601e-07
7.51171e-07
8.02046e-07
7.98437e-07
7.93405e-07
7.87249e-07
7.80234e-07
7.72599e-07
7.64552e-07
7.56282e-07
7.47948e-07
7.39689e-07
7.3162e-07
7.23836e-07
7.16414e-07
7.09413e-07
7.02881e-07
6.9685e-07
6.91343e-07
6.86373e-07
6.81948e-07
6.78066e-07
6.74722e-07
6.71907e-07
6.69608e-07
6.67809e-07
6.66492e-07
6.65635e-07
6.65219e-07
7.2008e-07
7.1663e-07
7.11844e-07
7.06025e-07
6.99442e-07
6.92329e-07
6.84889e-07
6.77297e-07
6.69701e-07
6.62222e-07
6.54958e-07
6.47988e-07
6.41375e-07
6.35163e-07
6.29388e-07
6.24075e-07
6.19239e-07
6.14887e-07
6.11019e-07
6.07633e-07
6.04722e-07
6.02273e-07
6.00276e-07
5.98713e-07
5.9757e-07
5.96827e-07
5.96466e-07
6.47263e-07
6.44334e-07
6.40276e-07
6.35356e-07
6.29803e-07
6.2382e-07
6.17579e-07
6.11227e-07
6.04887e-07
5.98658e-07
5.9262e-07
5.86838e-07
5.81359e-07
5.76219e-07
5.71446e-07
5.67055e-07
5.63059e-07
5.59462e-07
5.56265e-07
5.53466e-07
5.51058e-07
5.49034e-07
5.47381e-07
5.46089e-07
5.45142e-07
5.44527e-07
5.44227e-07
5.88831e-07
5.86471e-07
5.83205e-07
5.79247e-07
5.74782e-07
5.69973e-07
5.6496e-07
5.5986e-07
5.54769e-07
5.49769e-07
5.44921e-07
5.40276e-07
5.35873e-07
5.31741e-07
5.27899e-07
5.24364e-07
5.21142e-07
5.1824e-07
5.15657e-07
5.13392e-07
5.1144e-07
5.09797e-07
5.08454e-07
5.07403e-07
5.06631e-07
5.0613e-07
5.05885e-07
5.44536e-07
5.42679e-07
5.40107e-07
5.36989e-07
5.3347e-07
5.29678e-07
5.25721e-07
5.21692e-07
5.17666e-07
5.13706e-07
5.09862e-07
5.06173e-07
5.0267e-07
4.99377e-07
4.9631e-07
4.93482e-07
4.90901e-07
4.88571e-07
4.86494e-07
4.84669e-07
4.83094e-07
4.81764e-07
4.80675e-07
4.79819e-07
4.79191e-07
4.78781e-07
4.78581e-07
5.12231e-07
5.10779e-07
5.08769e-07
5.06328e-07
5.03571e-07
5.00596e-07
4.97486e-07
4.94313e-07
4.91137e-07
4.88006e-07
4.8496e-07
4.8203e-07
4.79241e-07
4.76611e-07
4.74157e-07
4.71887e-07
4.6981e-07
4.6793e-07
4.6625e-07
4.6477e-07
4.6349e-07
4.62407e-07
4.61518e-07
4.60818e-07
4.60302e-07
4.59965e-07
4.598e-07
4.89472e-07
4.88338e-07
4.86764e-07
4.84852e-07
4.82688e-07
4.80347e-07
4.77896e-07
4.75389e-07
4.72872e-07
4.70384e-07
4.67956e-07
4.65613e-07
4.63376e-07
4.61261e-07
4.59279e-07
4.57441e-07
4.55754e-07
4.54221e-07
4.52847e-07
4.51634e-07
4.50581e-07
4.49688e-07
4.48952e-07
4.48373e-07
4.47945e-07
4.47664e-07
4.47527e-07
4.74104e-07
4.73212e-07
4.71975e-07
4.70468e-07
4.68759e-07
4.66906e-07
4.6496e-07
4.62964e-07
4.60953e-07
4.58959e-07
4.57005e-07
4.55113e-07
4.53299e-07
4.51578e-07
4.49959e-07
4.48451e-07
4.47062e-07
4.45795e-07
4.44656e-07
4.43646e-07
4.42767e-07
4.42018e-07
4.41401e-07
4.40912e-07
4.4055e-07
4.40313e-07
4.40196e-07
4.6439e-07
4.63685e-07
4.62705e-07
4.61508e-07
4.60147e-07
4.58668e-07
4.57109e-07
4.55503e-07
4.5388e-07
4.52263e-07
4.50672e-07
4.49125e-07
4.47635e-07
4.46215e-07
4.44874e-07
4.4362e-07
4.42459e-07
4.41396e-07
4.40437e-07
4.39583e-07
4.38836e-07
4.38199e-07
4.37671e-07
4.37252e-07
4.36941e-07
4.36736e-07
4.36635e-07
4.58992e-07
4.5843e-07
4.57646e-07
4.56687e-07
4.55593e-07
4.54399e-07
4.53136e-07
4.5183e-07
4.50504e-07
4.49176e-07
4.47864e-07
4.46582e-07
4.45341e-07
4.44152e-07
4.43024e-07
4.41964e-07
4.40979e-07
4.40073e-07
4.39251e-07
4.38517e-07
4.37873e-07
4.37321e-07
4.36862e-07
4.36497e-07
4.36225e-07
4.36045e-07
4.35956e-07
4.56892e-07
4.56439e-07
4.55806e-07
4.5503e-07
4.54141e-07
4.53167e-07
4.52132e-07
4.51057e-07
4.49959e-07
4.48855e-07
4.47757e-07
4.46679e-07
4.4563e-07
4.44619e-07
4.43655e-07
4.42745e-07
4.41895e-07
4.4111e-07
4.40395e-07
4.39753e-07
4.39188e-07
4.38702e-07
4.38296e-07
4.37972e-07
4.3773e-07
4.3757e-07
4.37491e-07
4.57323e-07
4.56954e-07
4.56438e-07
4.55803e-07
4.55073e-07
4.54269e-07
4.5341e-07
4.52513e-07
4.51592e-07
4.5066e-07
4.49728e-07
4.48808e-07
4.47907e-07
4.47035e-07
4.46198e-07
4.45404e-07
4.44659e-07
4.43967e-07
4.43334e-07
4.42764e-07
4.4226e-07
4.41825e-07
4.41461e-07
4.41169e-07
4.4095e-07
4.40805e-07
4.40733e-07
4.59705e-07
4.59402e-07
4.58977e-07
4.58451e-07
4.57844e-07
4.57172e-07
4.5645e-07
4.55692e-07
4.54908e-07
4.5411e-07
4.53308e-07
4.5251e-07
4.51724e-07
4.50959e-07
4.50222e-07
4.49518e-07
4.48854e-07
4.48236e-07
4.47667e-07
4.47152e-07
4.46696e-07
4.463e-07
4.45968e-07
4.45701e-07
4.45501e-07
4.45367e-07
4.45301e-07
4.636e-07
4.63348e-07
4.62994e-07
4.62553e-07
4.62042e-07
4.61473e-07
4.60858e-07
4.60207e-07
4.59531e-07
4.58837e-07
4.58136e-07
4.57434e-07
4.56738e-07
4.56057e-07
4.55397e-07
4.54764e-07
4.54164e-07
4.53602e-07
4.53083e-07
4.52612e-07
4.52193e-07
4.51828e-07
4.51521e-07
4.51274e-07
4.51087e-07
4.50963e-07
4.50901e-07
4.68671e-07
4.6846e-07
4.6816e-07
4.67787e-07
4.67351e-07
4.66863e-07
4.66331e-07
4.65765e-07
4.65172e-07
4.64561e-07
4.63938e-07
4.63311e-07
4.62686e-07
4.62071e-07
4.61471e-07
4.60893e-07
4.60342e-07
4.59825e-07
4.59346e-07
4.58909e-07
4.58518e-07
4.58178e-07
4.5789e-07
4.57658e-07
4.57483e-07
4.57366e-07
4.57307e-07
4.74661e-07
4.74481e-07
4.74225e-07
4.73904e-07
4.73526e-07
4.73101e-07
4.72635e-07
4.72135e-07
4.71608e-07
4.71061e-07
4.705e-07
4.69931e-07
4.69362e-07
4.68798e-07
4.68245e-07
4.6771e-07
4.67199e-07
4.66716e-07
4.66267e-07
4.65857e-07
4.65489e-07
4.65167e-07
4.64895e-07
4.64675e-07
4.64508e-07
4.64396e-07
4.6434e-07
4.81366e-07
4.8121e-07
4.80988e-07
4.80708e-07
4.80377e-07
4.8e-07
4.79585e-07
4.79137e-07
4.78662e-07
4.78164e-07
4.77651e-07
4.77128e-07
4.76602e-07
4.76078e-07
4.75562e-07
4.75061e-07
4.74579e-07
4.74124e-07
4.73698e-07
4.73309e-07
4.72958e-07
4.72651e-07
4.72391e-07
4.7218e-07
4.72019e-07
4.71912e-07
4.71858e-07
4.88624e-07
4.88487e-07
4.88292e-07
4.88043e-07
4.87747e-07
4.8741e-07
4.87034e-07
4.86626e-07
4.8619e-07
4.85731e-07
4.85255e-07
4.84768e-07
4.84274e-07
4.83781e-07
4.83293e-07
4.82818e-07
4.8236e-07
4.81924e-07
4.81517e-07
4.81143e-07
4.80806e-07
4.8051e-07
4.80259e-07
4.80054e-07
4.79899e-07
4.79795e-07
4.79743e-07
4.96304e-07
4.96182e-07
4.96006e-07
4.95782e-07
4.95513e-07
4.95204e-07
4.94859e-07
4.94481e-07
4.94075e-07
4.93646e-07
4.93198e-07
4.92737e-07
4.92268e-07
4.91798e-07
4.91332e-07
4.90875e-07
4.90435e-07
4.90015e-07
4.89621e-07
4.89259e-07
4.88931e-07
4.88644e-07
4.88399e-07
4.882e-07
4.88048e-07
4.87946e-07
4.87895e-07
5.04294e-07
5.04183e-07
5.04022e-07
5.03815e-07
5.03567e-07
5.03279e-07
5.02956e-07
5.02601e-07
5.02216e-07
5.01808e-07
5.01381e-07
5.00939e-07
5.00488e-07
5.00035e-07
4.99584e-07
4.99141e-07
4.98712e-07
4.98303e-07
4.97919e-07
4.97565e-07
4.97245e-07
4.96963e-07
4.96722e-07
4.96527e-07
4.96378e-07
4.96277e-07
4.96227e-07
5.12498e-07
5.12395e-07
5.12244e-07
5.1205e-07
5.11815e-07
5.11542e-07
5.11234e-07
5.10894e-07
5.10524e-07
5.1013e-07
5.09717e-07
5.09287e-07
5.08849e-07
5.08406e-07
5.07965e-07
5.07531e-07
5.0711e-07
5.06708e-07
5.0633e-07
5.05981e-07
5.05665e-07
5.05386e-07
5.05149e-07
5.04955e-07
5.04808e-07
5.04709e-07
5.04659e-07
5.2083e-07
5.20731e-07
5.20586e-07
5.204e-07
5.20173e-07
5.19909e-07
5.1961e-07
5.19278e-07
5.18917e-07
5.18531e-07
5.18125e-07
5.17702e-07
5.1727e-07
5.16833e-07
5.16396e-07
5.15967e-07
5.1555e-07
5.15151e-07
5.14776e-07
5.14429e-07
5.14115e-07
5.13838e-07
5.13601e-07
5.13409e-07
5.13262e-07
5.13163e-07
5.13113e-07
5.29208e-07
5.2911e-07
5.28968e-07
5.28784e-07
5.28561e-07
5.28299e-07
5.28003e-07
5.27674e-07
5.27315e-07
5.26931e-07
5.26526e-07
5.26105e-07
5.25674e-07
5.25237e-07
5.24801e-07
5.24372e-07
5.23954e-07
5.23555e-07
5.23179e-07
5.22832e-07
5.22517e-07
5.2224e-07
5.22003e-07
5.2181e-07
5.21662e-07
5.21563e-07
5.21513e-07
5.3755e-07
5.37451e-07
5.37308e-07
5.37122e-07
5.36896e-07
5.36633e-07
5.36333e-07
5.36e-07
5.35638e-07
5.3525e-07
5.34841e-07
5.34415e-07
5.33979e-07
5.33538e-07
5.33098e-07
5.32664e-07
5.32243e-07
5.3184e-07
5.3146e-07
5.31109e-07
5.30792e-07
5.30511e-07
5.30272e-07
5.30077e-07
5.29929e-07
5.29829e-07
5.29778e-07
5.45773e-07
5.45671e-07
5.45522e-07
5.4533e-07
5.45096e-07
5.44824e-07
5.44515e-07
5.44173e-07
5.438e-07
5.43402e-07
5.42982e-07
5.42547e-07
5.42101e-07
5.4165e-07
5.412e-07
5.40757e-07
5.40328e-07
5.39917e-07
5.3953e-07
5.39173e-07
5.3885e-07
5.38565e-07
5.38322e-07
5.38124e-07
5.37973e-07
5.37872e-07
5.3782e-07
5.53786e-07
5.53678e-07
5.5352e-07
5.53316e-07
5.53069e-07
5.52782e-07
5.52457e-07
5.52098e-07
5.51709e-07
5.51294e-07
5.50857e-07
5.50405e-07
5.49943e-07
5.49476e-07
5.49012e-07
5.48555e-07
5.48113e-07
5.4769e-07
5.47293e-07
5.46927e-07
5.46595e-07
5.46303e-07
5.46054e-07
5.45852e-07
5.45697e-07
5.45593e-07
5.45541e-07
5.61491e-07
5.61372e-07
5.612e-07
5.6098e-07
5.60713e-07
5.60405e-07
5.60057e-07
5.59674e-07
5.59261e-07
5.58821e-07
5.5836e-07
5.57884e-07
5.57399e-07
5.56911e-07
5.56425e-07
5.5595e-07
5.55489e-07
5.5505e-07
5.54639e-07
5.54259e-07
5.53916e-07
5.53615e-07
5.53358e-07
5.53149e-07
5.5299e-07
5.52883e-07
5.52829e-07
5.68775e-07
5.68642e-07
5.68451e-07
5.68207e-07
5.67914e-07
5.67577e-07
5.67198e-07
5.66783e-07
5.66337e-07
5.65864e-07
5.65371e-07
5.64864e-07
5.64348e-07
5.63831e-07
5.63318e-07
5.62817e-07
5.62333e-07
5.61872e-07
5.61441e-07
5.61044e-07
5.60687e-07
5.60372e-07
5.60105e-07
5.59888e-07
5.59723e-07
5.59612e-07
5.59556e-07
5.75509e-07
5.75359e-07
5.75143e-07
5.74869e-07
5.74541e-07
5.74166e-07
5.73747e-07
5.7329e-07
5.72801e-07
5.72287e-07
5.71752e-07
5.71204e-07
5.70649e-07
5.70094e-07
5.69546e-07
5.69012e-07
5.68498e-07
5.6801e-07
5.67554e-07
5.67136e-07
5.66759e-07
5.66429e-07
5.66148e-07
5.65921e-07
5.65748e-07
5.65632e-07
5.65574e-07
5.81546e-07
5.81374e-07
5.81127e-07
5.80814e-07
5.80443e-07
5.80019e-07
5.79549e-07
5.7904e-07
5.78498e-07
5.7793e-07
5.77342e-07
5.76743e-07
5.76139e-07
5.75538e-07
5.74946e-07
5.74371e-07
5.73819e-07
5.73297e-07
5.7281e-07
5.72364e-07
5.71964e-07
5.71614e-07
5.71317e-07
5.71076e-07
5.70894e-07
5.70772e-07
5.70711e-07
5.86717e-07
5.86516e-07
5.8623e-07
5.8587e-07
5.85444e-07
5.8496e-07
5.84428e-07
5.83853e-07
5.83245e-07
5.82611e-07
5.81959e-07
5.81296e-07
5.80632e-07
5.79973e-07
5.79327e-07
5.78701e-07
5.78103e-07
5.77538e-07
5.77014e-07
5.76535e-07
5.76105e-07
5.75731e-07
5.75414e-07
5.75157e-07
5.74963e-07
5.74834e-07
5.74769e-07
5.90824e-07
5.90589e-07
5.90256e-07
5.89837e-07
5.89344e-07
5.88788e-07
5.88178e-07
5.87524e-07
5.86835e-07
5.86121e-07
5.85389e-07
5.8465e-07
5.83912e-07
5.83182e-07
5.82471e-07
5.81784e-07
5.81129e-07
5.80513e-07
5.79943e-07
5.79423e-07
5.78959e-07
5.78554e-07
5.78213e-07
5.77937e-07
5.77729e-07
5.77591e-07
5.77521e-07
5.93645e-07
5.93369e-07
5.92978e-07
5.92488e-07
5.91915e-07
5.91271e-07
5.90568e-07
5.89818e-07
5.89032e-07
5.8822e-07
5.87394e-07
5.86562e-07
5.85735e-07
5.84921e-07
5.8413e-07
5.8337e-07
5.82647e-07
5.8197e-07
5.81345e-07
5.80776e-07
5.8027e-07
5.7983e-07
5.79459e-07
5.79161e-07
5.78936e-07
5.78786e-07
5.78712e-07
5.94927e-07
5.94602e-07
5.94142e-07
5.93568e-07
5.92898e-07
5.92149e-07
5.91335e-07
5.9047e-07
5.89569e-07
5.88642e-07
5.87702e-07
5.8676e-07
5.85827e-07
5.84914e-07
5.84028e-07
5.8318e-07
5.82378e-07
5.81628e-07
5.80937e-07
5.80311e-07
5.79755e-07
5.79273e-07
5.78867e-07
5.78542e-07
5.78297e-07
5.78134e-07
5.78053e-07
5.94386e-07
5.94003e-07
5.93461e-07
5.92788e-07
5.92005e-07
5.91131e-07
5.90187e-07
5.89187e-07
5.88149e-07
5.87086e-07
5.86013e-07
5.84942e-07
5.83885e-07
5.82853e-07
5.81858e-07
5.80907e-07
5.8001e-07
5.79175e-07
5.78407e-07
5.77714e-07
5.77099e-07
5.76568e-07
5.76122e-07
5.75765e-07
5.75497e-07
5.75319e-07
5.7523e-07
5.91712e-07
5.9126e-07
5.90624e-07
5.89834e-07
5.88918e-07
5.87901e-07
5.86803e-07
5.85647e-07
5.84449e-07
5.83229e-07
5.82e-07
5.80778e-07
5.79578e-07
5.78409e-07
5.77286e-07
5.76216e-07
5.7521e-07
5.74276e-07
5.7342e-07
5.72648e-07
5.71966e-07
5.71378e-07
5.70886e-07
5.70492e-07
5.70197e-07
5.70001e-07
5.69904e-07
5.86571e-07
5.86041e-07
5.85295e-07
5.84371e-07
5.83302e-07
5.82118e-07
5.80846e-07
5.79508e-07
5.78128e-07
5.76726e-07
5.75319e-07
5.73926e-07
5.7256e-07
5.71235e-07
5.69965e-07
5.68759e-07
5.67629e-07
5.66581e-07
5.65624e-07
5.64764e-07
5.64005e-07
5.63352e-07
5.62806e-07
5.62371e-07
5.62045e-07
5.61829e-07
5.61723e-07
5.78616e-07
5.77996e-07
5.77125e-07
5.76049e-07
5.74807e-07
5.73435e-07
5.71963e-07
5.70421e-07
5.68834e-07
5.67227e-07
5.65619e-07
5.6403e-07
5.62478e-07
5.60978e-07
5.59542e-07
5.58184e-07
5.56913e-07
5.55738e-07
5.54668e-07
5.53708e-07
5.52863e-07
5.52137e-07
5.51532e-07
5.51049e-07
5.50689e-07
5.50452e-07
5.50334e-07
5.67496e-07
5.66776e-07
5.65766e-07
5.6452e-07
5.63084e-07
5.61501e-07
5.59807e-07
5.58037e-07
5.56221e-07
5.54385e-07
5.52554e-07
5.50749e-07
5.4899e-07
5.47294e-07
5.45676e-07
5.44149e-07
5.42723e-07
5.41409e-07
5.40213e-07
5.39143e-07
5.38204e-07
5.37397e-07
5.36727e-07
5.36193e-07
5.35796e-07
5.35533e-07
5.35404e-07
5.52878e-07
5.52048e-07
5.50885e-07
5.49452e-07
5.47804e-07
5.45989e-07
5.44053e-07
5.42033e-07
5.39966e-07
5.37881e-07
5.35806e-07
5.33767e-07
5.31784e-07
5.29877e-07
5.28061e-07
5.26351e-07
5.24758e-07
5.23292e-07
5.21962e-07
5.20774e-07
5.19732e-07
5.1884e-07
5.18099e-07
5.1751e-07
5.17072e-07
5.16784e-07
5.16641e-07
5.34463e-07
5.33515e-07
5.32187e-07
5.30553e-07
5.28677e-07
5.26616e-07
5.2442e-07
5.22134e-07
5.19798e-07
5.17449e-07
5.15116e-07
5.12828e-07
5.10608e-07
5.08476e-07
5.06452e-07
5.04549e-07
5.0278e-07
5.01156e-07
4.99685e-07
4.98372e-07
4.97224e-07
4.96242e-07
4.95428e-07
4.94782e-07
4.94302e-07
4.93986e-07
4.9383e-07
5.12022e-07
5.10949e-07
5.09449e-07
5.07606e-07
5.05492e-07
5.03173e-07
5.00706e-07
4.98144e-07
4.95531e-07
4.92907e-07
4.90308e-07
4.87764e-07
4.853e-07
4.8294e-07
4.80702e-07
4.78603e-07
4.76655e-07
4.7487e-07
4.73255e-07
4.71818e-07
4.70562e-07
4.6949e-07
4.68602e-07
4.67898e-07
4.67376e-07
4.67033e-07
4.66864e-07
4.85421e-07
4.84223e-07
4.82548e-07
4.80492e-07
4.78138e-07
4.75559e-07
4.72821e-07
4.69982e-07
4.67092e-07
4.64196e-07
4.61333e-07
4.58535e-07
4.55831e-07
4.53246e-07
4.50799e-07
4.48508e-07
4.46387e-07
4.44446e-07
4.42693e-07
4.41135e-07
4.39776e-07
4.38617e-07
4.37658e-07
4.369e-07
4.36338e-07
4.35969e-07
4.35787e-07
4.54667e-07
4.53346e-07
4.51502e-07
4.4924e-07
4.46654e-07
4.43826e-07
4.40828e-07
4.37725e-07
4.34573e-07
4.3142e-07
4.28309e-07
4.25277e-07
4.22353e-07
4.19563e-07
4.16928e-07
4.14465e-07
4.12189e-07
4.10109e-07
4.08235e-07
4.06571e-07
4.05122e-07
4.03888e-07
4.02869e-07
4.02063e-07
4.01467e-07
4.01076e-07
4.00884e-07
4.19955e-07
4.18525e-07
4.16529e-07
4.14084e-07
4.11292e-07
4.08243e-07
4.05016e-07
4.01682e-07
3.98301e-07
3.94926e-07
3.91601e-07
3.88365e-07
3.85251e-07
3.82283e-07
3.79486e-07
3.76876e-07
3.74467e-07
3.7227e-07
3.70293e-07
3.68541e-07
3.67016e-07
3.6572e-07
3.64651e-07
3.63807e-07
3.63183e-07
3.62774e-07
3.62573e-07
3.81721e-07
3.80197e-07
3.78071e-07
3.75471e-07
3.72506e-07
3.69274e-07
3.65859e-07
3.62336e-07
3.58771e-07
3.55219e-07
3.51728e-07
3.48336e-07
3.45077e-07
3.41979e-07
3.39064e-07
3.36348e-07
3.33847e-07
3.31569e-07
3.29523e-07
3.27712e-07
3.26138e-07
3.24802e-07
3.23701e-07
3.22833e-07
3.22192e-07
3.21772e-07
3.21566e-07
3.40575e-07
3.38984e-07
3.36768e-07
3.34061e-07
3.30978e-07
3.27623e-07
3.24086e-07
3.20444e-07
3.16767e-07
3.1311e-07
3.09523e-07
3.06047e-07
3.02714e-07
2.99551e-07
2.96581e-07
2.9382e-07
2.91281e-07
2.88974e-07
2.86903e-07
2.85074e-07
2.83487e-07
2.82141e-07
2.81034e-07
2.80161e-07
2.79517e-07
2.79096e-07
2.7889e-07
2.97473e-07
2.95854e-07
2.93601e-07
2.90853e-07
2.8773e-07
2.84337e-07
2.80767e-07
2.771e-07
2.73406e-07
2.6974e-07
2.66153e-07
2.62684e-07
2.59365e-07
2.56223e-07
2.53278e-07
2.50546e-07
2.48038e-07
2.45762e-07
2.43724e-07
2.41926e-07
2.40368e-07
2.39048e-07
2.37964e-07
2.3711e-07
2.36481e-07
2.3607e-07
2.35868e-07
2.53702e-07
2.52103e-07
2.49882e-07
2.47176e-07
2.44106e-07
2.40779e-07
2.37285e-07
2.33703e-07
2.30099e-07
2.26528e-07
2.23034e-07
2.19652e-07
2.16413e-07
2.13346e-07
2.10473e-07
2.07807e-07
2.05361e-07
2.03142e-07
2.01153e-07
1.99399e-07
1.97879e-07
1.96592e-07
1.95534e-07
1.94701e-07
1.94087e-07
1.93686e-07
1.9349e-07
2.10647e-07
2.09097e-07
2.06947e-07
2.04329e-07
2.01362e-07
1.98149e-07
1.94782e-07
1.91341e-07
1.87891e-07
1.84486e-07
1.81171e-07
1.77981e-07
1.74944e-07
1.72081e-07
1.69409e-07
1.6694e-07
1.64681e-07
1.62639e-07
1.60814e-07
1.59208e-07
1.57819e-07
1.56645e-07
1.55682e-07
1.54924e-07
1.54367e-07
1.54002e-07
1.53824e-07
1.69463e-07
1.68039e-07
1.66066e-07
1.63673e-07
1.6097e-07
1.58054e-07
1.55011e-07
1.51911e-07
1.48813e-07
1.45765e-07
1.42806e-07
1.39967e-07
1.37272e-07
1.34738e-07
1.32379e-07
1.30203e-07
1.28217e-07
1.26424e-07
1.24824e-07
1.23418e-07
1.22204e-07
1.21178e-07
1.20338e-07
1.19677e-07
1.1919e-07
1.18872e-07
1.18716e-07
1.32473e-07
1.31229e-07
1.29508e-07
1.27423e-07
1.25075e-07
1.22549e-07
1.19918e-07
1.17245e-07
1.14581e-07
1.11967e-07
1.09435e-07
1.07012e-07
1.04716e-07
1.02562e-07
1.0056e-07
9.87165e-08
9.70362e-08
9.5521e-08
9.4171e-08
9.29854e-08
9.19621e-08
9.10983e-08
9.039e-08
8.98333e-08
8.94235e-08
8.91556e-08
8.90245e-08
1.00819e-07
9.97746e-08
9.83317e-08
9.65871e-08
9.46251e-08
9.25188e-08
9.03302e-08
8.81112e-08
8.59042e-08
8.37431e-08
8.16546e-08
7.96593e-08
7.77724e-08
7.60051e-08
7.43651e-08
7.28571e-08
7.14842e-08
7.02472e-08
6.91461e-08