/*--------------------------------*- C++ -*----------------------------------*\
| =========                 |                                                 |
| \\      /  F ield         | OpenFOAM: The Open Source CFD Toolbox           |
|  \\    /   O peration     | Version:  2106                                  |
|   \\  /    A nd           | Website:  www.openfoam.com                      |
|    \\/     M anipulation  |                                                 |
\*---------------------------------------------------------------------------*/
FoamFile
{
    version     2.0;
    format      ascii;
    arch        "LSB;label=32;scalar=64";
    class       volScalarField;
    location    "219.99956";
    object      C9H8_0;
}
// * * * * * * * * * * * * * * * * * * * * * * * * * * * * * * * * * * * * * //

dimensions      [0 0 0 0 0 0 0];

internalField   nonuniform List<scalar> 
3360
(
9.35883e-17
9.65996e-17
1.0079e-16
1.05916e-16
1.11764e-16
1.18141e-16
1.24875e-16
1.3181e-16
1.38805e-16
1.45738e-16
1.52503e-16
1.59008e-16
1.6518e-16
1.70959e-16
1.76299e-16
1.81169e-16
1.85549e-16
1.89432e-16
1.92818e-16
1.95718e-16
1.98149e-16
2.00134e-16
2.01703e-16
2.02886e-16
2.03718e-16
2.04236e-16
2.04476e-16
4.10554e-16
4.25644e-16
4.46937e-16
4.73453e-16
5.04381e-16
5.39011e-16
5.76711e-16
6.16902e-16
6.59045e-16
7.02629e-16
7.47168e-16
7.92184e-16
8.3721e-16
8.81782e-16
9.25445e-16
9.67751e-16
1.00826e-15
1.04655e-15
1.08221e-15
1.11486e-15
1.14415e-15
1.16977e-15
1.19145e-15
1.20899e-15
1.22222e-15
1.23106e-15
1.23547e-15
1.28814e-15
1.34467e-15
1.425e-15
1.52594e-15
1.64485e-15
1.77934e-15
1.92717e-15
2.08609e-15
2.25387e-15
2.42819e-15
2.6067e-15
2.78708e-15
2.967e-15
3.14419e-15
3.31644e-15
3.48165e-15
3.63787e-15
3.78338e-15
3.91665e-15
4.03644e-15
4.14178e-15
4.23199e-15
4.30666e-15
4.36568e-15
4.4092e-15
4.43757e-15
4.45139e-15
3.75137e-15
3.9377e-15
4.20424e-15
4.54147e-15
4.9414e-15
5.39659e-15
5.89955e-15
6.44257e-15
7.0175e-15
7.61584e-15
8.22877e-15
8.8473e-15
9.46255e-15
1.00658e-14
1.06489e-14
1.12043e-14
1.17252e-14
1.2206e-14
1.2642e-14
1.30299e-14
1.33675e-14
1.36534e-14
1.38876e-14
1.40708e-14
1.42044e-14
1.42907e-14
1.43324e-14
1.09598e-14
1.15476e-14
1.239e-14
1.34583e-14
1.47281e-14
1.61758e-14
1.77774e-14
1.95073e-14
2.13382e-14
2.32414e-14
2.51872e-14
2.71457e-14
2.90874e-14
3.09843e-14
3.28104e-14
3.45424e-14
3.61602e-14
3.76473e-14
3.89908e-14
4.01815e-14
4.12138e-14
4.20855e-14
4.27972e-14
4.33523e-14
4.37564e-14
4.40167e-14
4.4142e-14
3.23157e-14
3.41208e-14
3.67111e-14
3.99989e-14
4.39087e-14
4.83679e-14
5.33009e-14
5.86275e-14
6.4262e-14
7.01141e-14
7.60908e-14
8.20986e-14
8.80461e-14
9.3847e-14
9.94216e-14
1.047e-13
1.0962e-13
1.14135e-13
1.18207e-13
1.2181e-13
1.24928e-13
1.27556e-13
1.29699e-13
1.31368e-13
1.32582e-13
1.33362e-13
1.33738e-13
9.59929e-14
1.01478e-13
1.09348e-13
1.19338e-13
1.31218e-13
1.44764e-13
1.59743e-13
1.75908e-13
1.92995e-13
2.10727e-13
2.28821e-13
2.46991e-13
2.64962e-13
2.82472e-13
2.99284e-13
3.15187e-13
3.30003e-13
3.43586e-13
3.55828e-13
3.66653e-13
3.76017e-13
3.83908e-13
3.9034e-13
3.95348e-13
3.98987e-13
4.01328e-13
4.02454e-13
2.86103e-13
3.02607e-13
3.26302e-13
3.56389e-13
3.92176e-13
4.32988e-13
4.78121e-13
5.26825e-13
5.78299e-13
6.31705e-13
6.86182e-13
7.40872e-13
7.9494e-13
8.47603e-13
8.98143e-13
9.4593e-13
9.9043e-13
1.03121e-12
1.06795e-12
1.10042e-12
1.12849e-12
1.15214e-12
1.17141e-12
1.18641e-12
1.1973e-12
1.20431e-12
1.20768e-12
8.54987e-13
9.04591e-13
9.75793e-13
1.06619e-12
1.1737e-12
1.29629e-12
1.43182e-12
1.57804e-12
1.73253e-12
1.89276e-12
2.05615e-12
2.22012e-12
2.38217e-12
2.53996e-12
2.69135e-12
2.83446e-12
2.96769e-12
3.08977e-12
3.19972e-12
3.29689e-12
3.38091e-12
3.45168e-12
3.50933e-12
3.5542e-12
3.5868e-12
3.60777e-12
3.61784e-12
2.55532e-12
2.70391e-12
2.91723e-12
3.18808e-12
3.51021e-12
3.87752e-12
4.28361e-12
4.72167e-12
5.18446e-12
5.6644e-12
6.15373e-12
6.64472e-12
7.12989e-12
7.60221e-12
8.05527e-12
8.48345e-12
8.882e-12
9.24709e-12
9.57585e-12
9.86633e-12
1.01174e-11
1.03289e-11
1.05011e-11
1.06351e-11
1.07325e-11
1.07951e-11
1.08251e-11
7.64139e-12
8.08629e-12
8.72491e-12
9.53559e-12
1.04996e-11
1.15985e-11
1.28131e-11
1.4123e-11
1.55065e-11
1.69408e-11
1.84027e-11
1.98691e-11
2.13177e-11
2.27275e-11
2.40795e-11
2.53569e-11
2.65457e-11
2.76344e-11
2.86147e-11
2.94806e-11
3.02291e-11
3.08594e-11
3.13726e-11
3.1772e-11
3.20621e-11
3.22486e-11
3.23382e-11
2.2831e-11
2.41598e-11
2.60671e-11
2.8488e-11
3.13662e-11
3.46464e-11
3.82712e-11
4.21792e-11
4.63053e-11
5.05817e-11
5.49389e-11
5.9308e-11
6.36226e-11
6.78203e-11
7.18443e-11
7.56451e-11
7.91808e-11
8.2418e-11
8.53316e-11
8.79047e-11
9.01281e-11
9.19996e-11
9.35234e-11
9.47088e-11
9.55695e-11
9.61228e-11
9.63887e-11
6.81501e-11
7.21127e-11
7.77983e-11
8.50119e-11
9.35841e-11
1.03349e-10
1.14133e-10
1.25753e-10
1.38014e-10
1.50713e-10
1.63645e-10
1.76604e-10
1.89393e-10
2.01828e-10
2.13742e-10
2.2499e-10
2.35447e-10
2.45018e-10
2.53628e-10
2.61228e-10
2.67793e-10
2.73318e-10
2.77815e-10
2.81312e-10
2.83851e-10
2.85482e-10
2.86266e-10
2.02885e-10
2.1465e-10
2.31526e-10
2.52926e-10
2.78343e-10
3.07276e-10
3.39207e-10
3.73584e-10
4.09829e-10
4.47337e-10
4.85497e-10
5.23703e-10
5.61376e-10
5.97974e-10
6.33008e-10
6.66054e-10
6.96755e-10
7.24829e-10
7.50067e-10
7.72332e-10
7.91551e-10
8.07715e-10
8.20864e-10
8.31085e-10
8.38502e-10
8.43267e-10
8.45555e-10
6.01969e-10
6.36719e-10
6.8653e-10
7.49644e-10
8.24528e-10
9.09678e-10
1.00353e-09
1.10445e-09
1.21071e-09
1.32052e-09
1.43208e-09
1.54362e-09
1.65346e-09
1.76001e-09
1.86189e-09
1.95786e-09
2.04692e-09
2.12827e-09
2.20133e-09
2.26572e-09
2.32126e-09
2.36793e-09
2.40587e-09
2.43534e-09
2.45671e-09
2.47044e-09
2.47703e-09
1.776e-09
1.87767e-09
2.02329e-09
2.20759e-09
2.42597e-09
2.6739e-09
2.94674e-09
3.23958e-09
3.54735e-09
3.86481e-09
4.18672e-09
4.50797e-09
4.82371e-09
5.12946e-09
5.42126e-09
5.69569e-09
5.94993e-09
6.1818e-09
6.38974e-09
6.57275e-09
6.73039e-09
6.86271e-09
6.97015e-09
7.05354e-09
7.11396e-09
7.15273e-09
7.17132e-09
5.20049e-09
5.49419e-09
5.91426e-09
6.44506e-09
7.07276e-09
7.78386e-09
8.5645e-09
9.40031e-09
1.02764e-08
1.11777e-08
1.20892e-08
1.29965e-08
1.38858e-08
1.47449e-08
1.55628e-08
1.63302e-08
1.70396e-08
1.76852e-08
1.82631e-08
1.87708e-08
1.92074e-08
1.95733e-08
1.98701e-08
2.01001e-08
2.02665e-08
2.03732e-08
2.04244e-08
1.5071e-08
1.59037e-08
1.70928e-08
1.85919e-08
2.03599e-08
2.23568e-08
2.4542e-08
2.68737e-08
2.93092e-08
3.18061e-08
3.43223e-08
3.68181e-08
3.92565e-08
4.16043e-08
4.38325e-08
4.5917e-08
4.78386e-08
4.95829e-08
5.11404e-08
5.25057e-08
5.36774e-08
5.46575e-08
5.54509e-08
5.6065e-08
5.65088e-08
5.67929e-08
5.69289e-08
4.30763e-08
4.53792e-08
4.86596e-08
5.27829e-08
5.76289e-08
6.30808e-08
6.90218e-08
7.53335e-08
8.18972e-08
8.85961e-08
9.53175e-08
1.01956e-07
1.08414e-07
1.14608e-07
1.20465e-07
1.25924e-07
1.3094e-07
1.3548e-07
1.39521e-07
1.43055e-07
1.4608e-07
1.48605e-07
1.50646e-07
1.52222e-07
1.53359e-07
1.54086e-07
1.54434e-07
1.20883e-07
1.27044e-07
1.35794e-07
1.46753e-07
1.59575e-07
1.73933e-07
1.89498e-07
2.05949e-07
2.22966e-07
2.40242e-07
2.57487e-07
2.74434e-07
2.90844e-07
3.0651e-07
3.2126e-07
3.34955e-07
3.47491e-07
3.58797e-07
3.68831e-07
3.7758e-07
3.8505e-07
3.9127e-07
3.96286e-07
4.00153e-07
4.02939e-07
4.04718e-07
4.05567e-07
3.31271e-07
3.47085e-07
3.69471e-07
3.97382e-07
4.29879e-07
4.66065e-07
5.0507e-07
5.46048e-07
5.88188e-07
6.30722e-07
6.72941e-07
7.14208e-07
7.53963e-07
7.91734e-07
8.27135e-07
8.59868e-07
8.89716e-07
9.1654e-07
9.40271e-07
9.60899e-07
9.78468e-07
9.93062e-07
1.0048e-06
1.01384e-06
1.02034e-06
1.02448e-06
1.02646e-06
8.80969e-07
9.19615e-07
9.74123e-07
1.04177e-06
1.12011e-06
1.20684e-06
1.29975e-06
1.39678e-06
1.49595e-06
1.59546e-06
1.69367e-06
1.78915e-06
1.88066e-06
1.9672e-06
2.04795e-06
2.12231e-06
2.18987e-06
2.25037e-06
2.30374e-06
2.34999e-06
2.38929e-06
2.42186e-06
2.44801e-06
2.4681e-06
2.48253e-06
2.49171e-06
2.49609e-06
2.25924e-06
2.34868e-06
2.47438e-06
2.62966e-06
2.80856e-06
3.0055e-06
3.21528e-06
3.43305e-06
3.65437e-06
3.87521e-06
4.09202e-06
4.30176e-06
4.50185e-06
4.69024e-06
4.86533e-06
5.02597e-06
5.17142e-06
5.3013e-06
5.41553e-06
5.51429e-06
5.59801e-06
5.66726e-06
5.72277e-06
5.76534e-06
5.79587e-06
5.81528e-06
5.82451e-06
5.55735e-06
5.75308e-06
6.02728e-06
6.36466e-06
6.75153e-06
7.17533e-06
7.62447e-06
8.08836e-06
8.55746e-06
9.02332e-06
9.47862e-06
9.91718e-06
1.03339e-05
1.07248e-05
1.10869e-05
1.14181e-05
1.17171e-05
1.19834e-05
1.22171e-05
1.24187e-05
1.25893e-05
1.27301e-05
1.28429e-05
1.29292e-05
1.29911e-05
1.30304e-05
1.3049e-05
1.30704e-05
1.34767e-05
1.40444e-05
1.47406e-05
1.55359e-05
1.64038e-05
1.73197e-05
1.8262e-05
1.9211e-05
2.01499e-05
2.10643e-05
2.1942e-05
2.27734e-05
2.35511e-05
2.42695e-05
2.49249e-05
2.55154e-05
2.60402e-05
2.64999e-05
2.68958e-05
2.72303e-05
2.75061e-05
2.77266e-05
2.78953e-05
2.8016e-05
2.80926e-05
2.8129e-05
2.93712e-05
3.01768e-05
3.13002e-05
3.26748e-05
3.42409e-05
3.59448e-05
3.7738e-05
3.95771e-05
4.14243e-05
4.32469e-05
4.50171e-05
4.67123e-05
4.83145e-05
4.98098e-05
5.11886e-05
5.24443e-05
5.35736e-05
5.45758e-05
5.54524e-05
5.62066e-05
5.68429e-05
5.73672e-05
5.77858e-05
5.81059e-05
5.83348e-05
5.84799e-05
5.85488e-05
6.31382e-05
6.46799e-05
6.68276e-05
6.94515e-05
7.24362e-05
7.5678e-05
7.90836e-05
8.25706e-05
8.6067e-05
8.95112e-05
9.28514e-05
9.60455e-05
9.90603e-05
0.000101871
0.000104458
0.000106813
0.000108928
0.000110804
0.000112443
0.000113852
0.00011504
0.000116018
0.000116798
0.000117395
0.000117821
0.000118091
0.000118219
0.000130041
0.000132924
0.000136938
0.000141842
0.000147418
0.000153473
0.000159833
0.000166343
0.000172871
0.000179301
0.000185537
0.0001915
0.000197129
0.000202377
0.00020721
0.000211608
0.00021556
0.000219064
0.000222126
0.000224758
0.000226978
0.000228805
0.000230264
0.000231378
0.000232174
0.000232679
0.000232918
0.000256492
0.000261811
0.000269226
0.000278295
0.000288626
0.000299868
0.000311702
0.00032385
0.000336063
0.000348129
0.000359869
0.000371131
0.000381797
0.000391774
0.000400993
0.000409409
0.000416994
0.000423741
0.000429654
0.000434752
0.000439061
0.000442617
0.000445461
0.000447638
0.000449196
0.000450186
0.000450655
0.000481819
0.000491453
0.000504919
0.000521446
0.000540353
0.000561027
0.000582914
0.000605516
0.000628392
0.000651152
0.000673459
0.000695026
0.000715611
0.00073502
0.000753099
0.000769734
0.000784847
0.000798392
0.000810351
0.000820734
0.00082957
0.000836908
0.000842812
0.000847357
0.000850628
0.000852715
0.000853711
0.000850965
0.000867358
0.000890321
0.000918585
0.000951036
0.000986666
0.00102456
0.00106389
0.0011039
0.00114392
0.00118336
0.00122169
0.00125846
0.0012933
0.00132591
0.00135602
0.00138347
0.0014081
0.00142985
0.00144867
0.00146458
0.00147763
0.001488
0.00149588
0.00150148
0.00150502
0.00150669
0.00138599
0.00141004
0.00144365
0.0014849
0.00153209
0.00158367
0.00163823
0.00169446
0.0017512
0.00180738
0.00186202
0.0019143
0.00196346
0.00200908
0.00205099
0.00208907
0.00212327
0.00215358
0.00218006
0.00220283
0.00222201
0.0022378
0.00225038
0.00225998
0.00226683
0.00227117
0.00227322
0.00204333
0.00207112
0.00210953
0.00215595
0.00220799
0.00226379
0.00232183
0.00238071
0.00243923
0.00249639
0.00255135
0.00260347
0.00265226
0.00269738
0.00273862
0.00277586
0.00280909
0.00283835
0.00286375
0.00288546
0.00290365
0.00291854
0.00293035
0.00293933
0.00294571
0.00294974
0.00295164
0.00266807
0.00269201
0.00272494
0.00276452
0.00280869
0.00285567
0.00290395
0.00295226
0.00299956
0.00304505
0.00308813
0.00312836
0.00316546
0.00319927
0.00322974
0.00325687
0.00328077
0.00330156
0.0033194
0.00333447
0.00334698
0.00335713
0.00336512
0.00337114
0.0033754
0.00337806
0.00337932
0.00312416
0.00313965
0.00316074
0.00318574
0.00321318
0.00324181
0.0032706
0.00329874
0.00332563
0.00335084
0.0033741
0.00339525
0.00341426
0.00343114
0.00344596
0.00345885
0.00346993
0.00347935
0.00348726
0.00349382
0.00349916
0.00350341
0.00350671
0.00350916
0.00351087
0.00351193
0.00351242
0.00332836
0.00333386
0.00334113
0.0033494
0.00335801
0.00336645
0.00337431
0.00338134
0.00338739
0.00339241
0.00339641
0.00339947
0.00340167
0.00340315
0.00340402
0.00340442
0.00340445
0.00340422
0.00340382
0.00340332
0.00340279
0.00340227
0.0034018
0.00340141
0.0034011
0.00340089
0.00340079
0.00328106
0.00327851
0.00327474
0.00326983
0.00326383
0.00325686
0.00324903
0.00324053
0.00323152
0.0032222
0.00321277
0.0032034
0.00319426
0.0031855
0.00317722
0.00316952
0.00316248
0.00315613
0.00315051
0.00314562
0.00314146
0.00313801
0.00313524
0.00313311
0.00313158
0.00313061
0.00313015
0.003051
0.00304369
0.00303348
0.00302095
0.00300662
0.00299099
0.00297449
0.00295753
0.00294046
0.0029236
0.00290722
0.00289152
0.00287669
0.00286286
0.00285011
0.00283852
0.0028281
0.00281887
0.00281081
0.00280389
0.00279806
0.00279326
0.00278944
0.00278653
0.00278444
0.00278313
0.0027825
0.00272549
0.0027163
0.00270356
0.00268809
0.00267062
0.00265181
0.00263221
0.00261233
0.00259257
0.00257328
0.00255474
0.00253715
0.00252069
0.00250546
0.00249153
0.00247894
0.0024677
0.00245779
0.00244918
0.00244181
0.00243562
0.00243054
0.00242651
0.00242343
0.00242124
0.00241986
0.0024192
0.00237496
0.00236569
0.0023529
0.00233743
0.00232005
0.00230142
0.00228213
0.00226265
0.0022434
0.0022247
0.0022068
0.00218991
0.00217415
0.00215963
0.00214639
0.00213446
0.00212383
0.00211448
0.00210637
0.00209943
0.00209362
0.00208886
0.00208508
0.00208219
0.00208014
0.00207885
0.00207823
0.00204304
0.00203462
0.00202301
0.002009
0.0019933
0.00197652
0.00195918
0.00194173
0.00192451
0.00190783
0.00189191
0.0018769
0.00186293
0.00185008
0.00183839
0.00182786
0.0018185
0.00181027
0.00180313
0.00179704
0.00179194
0.00178776
0.00178444
0.00178191
0.00178011
0.00177897
0.00177843
0.00175065
0.00174342
0.00173345
0.00172144
0.001708
0.00169365
0.00167884
0.00166396
0.0016493
0.00163511
0.00162158
0.00160885
0.00159701
0.00158613
0.00157624
0.00156734
0.00155943
0.00155248
0.00154646
0.00154132
0.00153702
0.00153349
0.0015307
0.00152857
0.00152705
0.00152609
0.00152564
0.00150409
0.00149808
0.0014898
0.00147983
0.00146867
0.00145677
0.00144451
0.00143219
0.00142006
0.00140834
0.00139717
0.00138666
0.0013769
0.00136793
0.00135978
0.00135246
0.00134595
0.00134023
0.00133528
0.00133106
0.00132752
0.00132462
0.00132232
0.00132057
0.00131933
0.00131854
0.00131817
0.00130174
0.00129684
0.00129009
0.00128197
0.00127289
0.00126321
0.00125324
0.00124322
0.00123338
0.00122386
0.00121479
0.00120627
0.00119836
0.00119109
0.00118448
0.00117855
0.00117328
0.00116866
0.00116465
0.00116124
0.00115838
0.00115604
0.00115418
0.00115276
0.00115176
0.00115112
0.00115082
0.00113843
0.00113449
0.00112905
0.00112252
0.00111521
0.00110742
0.0010994
0.00109135
0.00108343
0.00107579
0.00106851
0.00106167
0.00105531
0.00104949
0.00104419
0.00103944
0.00103521
0.00103151
0.0010283
0.00102557
0.00102328
0.0010214
0.00101992
0.00101878
0.00101798
0.00101747
0.00101723
0.00100794
0.00100478
0.00100043
0.000995203
0.000989359
0.000983132
0.00097672
0.000970287
0.000963965
0.000957858
0.000952047
0.000946588
0.000941522
0.000936872
0.000932651
0.000928862
0.000925497
0.000922546
0.000919991
0.000917814
0.000915992
0.000914501
0.000913318
0.000912419
0.000911779
0.000911374
0.000911183
0.000904202
0.000901684
0.000898217
0.000894046
0.000889386
0.000884421
0.00087931
0.000874183
0.000869146
0.000864282
0.000859655
0.000855309
0.000851277
0.000847578
0.000844221
0.000841208
0.000838534
0.000836189
0.000834159
0.00083243
0.000830984
0.000829801
0.000828863
0.00082815
0.000827642
0.000827321
0.00082717
0.000821897
0.000819889
0.000817124
0.000813799
0.000810083
0.000806125
0.000802052
0.000797966
0.000793953
0.000790079
0.000786394
0.000782935
0.000779726
0.000776783
0.000774113
0.000771717
0.000769591
0.000767728
0.000766116
0.000764743
0.000763595
0.000762657
0.000761913
0.000761347
0.000760945
0.000760691
0.000760571
0.000756553
0.000754948
0.000752739
0.000750083
0.000747115
0.000743954
0.000740701
0.000737439
0.000734235
0.000731143
0.000728203
0.000725443
0.000722884
0.000720538
0.00071841
0.000716501
0.000714808
0.000713324
0.000712042
0.00071095
0.000710037
0.000709291
0.0007087
0.000708251
0.000707932
0.000707731
0.000707636
0.000704538
0.000703251
0.00070148
0.00069935
0.000696971
0.000694437
0.000691829
0.000689215
0.000686648
0.000684171
0.000681816
0.000679606
0.000677558
0.00067568
0.000673978
0.000672452
0.000671099
0.000669913
0.000668889
0.000668018
0.00066729
0.000666695
0.000666224
0.000665867
0.000665613
0.000665452
0.000665377
0.000662958
0.00066192
0.000660493
0.000658776
0.000656858
0.000654816
0.000652715
0.000650609
0.000648542
0.000646547
0.000644651
0.000642872
0.000641224
0.000639714
0.000638345
0.000637118
0.000636031
0.00063508
0.000634258
0.000633559
0.000632975
0.000632499
0.000632122
0.000631836
0.000631633
0.000631505
0.000631445
0.000629529
0.000628687
0.000627529
0.000626136
0.00062458
0.000622924
0.00062122
0.000619512
0.000617835
0.000616218
0.000614681
0.00061324
0.000611905
0.000610682
0.000609575
0.000608582
0.000607704
0.000606935
0.000606271
0.000605707
0.000605237
0.000604853
0.00060455
0.000604319
0.000604156
0.000604054
0.000604005
0.000602466
0.000601777
0.00060083
0.000599691
0.000598419
0.000597064
0.000595671
0.000594275
0.000592904
0.000591583
0.000590327
0.000589151
0.000588061
0.000587063
0.00058616
0.000585351
0.000584635
0.000584009
0.000583469
0.000583011
0.000582629
0.000582317
0.000582071
0.000581885
0.000581753
0.00058167
0.000581631
0.000580375
0.000579807
0.000579026
0.000578086
0.000577036
0.000575918
0.000574768
0.000573616
0.000572486
0.000571396
0.000570361
0.000569391
0.000568493
0.000567672
0.000566929
0.000566264
0.000565675
0.000565161
0.000564719
0.000564343
0.00056403
0.000563775
0.000563574
0.000563422
0.000563314
0.000563246
0.000563215
0.000562176
0.000561702
0.00056105
0.000560266
0.000559391
0.000558459
0.000557501
0.00055654
0.000555598
0.00055469
0.000553828
0.000553021
0.000552274
0.000551591
0.000550973
0.000550421
0.000549932
0.000549506
0.000549139
0.000548828
0.00054857
0.000548359
0.000548193
0.000548068
0.00054798
0.000547924
0.000547898
0.000547026
0.000546626
0.000546077
0.000545416
0.000544677
0.000543891
0.000543083
0.000542274
0.00054148
0.000540715
0.000539989
0.000539309
0.000538681
0.000538106
0.000537587
0.000537123
0.000536714
0.000536357
0.000536049
0.000535789
0.000535573
0.000535397
0.000535259
0.000535155
0.000535081
0.000535035
0.000535014
0.000534271
0.00053393
0.000533461
0.000532896
0.000532266
0.000531595
0.000530906
0.000530215
0.000529538
0.000528886
0.000528267
0.000527688
0.000527152
0.000526663
0.000526222
0.000525828
0.00052548
0.000525177
0.000524917
0.000524697
0.000524514
0.000524366
0.00052425
0.000524162
0.0005241
0.000524061
0.000524043
0.000523401
0.000523106
0.000522701
0.000522213
0.000521668
0.000521088
0.000520492
0.000519895
0.00051931
0.000518747
0.000518212
0.000517712
0.000517251
0.000516829
0.000516449
0.00051611
0.000515811
0.000515551
0.000515328
0.000515139
0.000514983
0.000514857
0.000514757
0.000514683
0.00051463
0.000514597
0.000514582
0.000514018
0.00051376
0.000513404
0.000512977
0.000512499
0.000511991
0.000511469
0.000510947
0.000510434
0.000509941
0.000509474
0.000509037
0.000508633
0.000508265
0.000507933
0.000507638
0.000507377
0.000507151
0.000506957
0.000506793
0.000506658
0.000506548
0.000506463
0.000506398
0.000506353
0.000506325
0.000506311
0.000505808
0.000505578
0.000505263
0.000504883
0.000504459
0.000504008
0.000503545
0.000503081
0.000502626
0.000502188
0.000501774
0.000501386
0.000501029
0.000500703
0.000500409
0.000500148
0.000499918
0.000499718
0.000499547
0.000499403
0.000499284
0.000499188
0.000499113
0.000499057
0.000499017
0.000498993
0.000498981
0.000498523
0.000498316
0.000498032
0.00049769
0.000497309
0.000496902
0.000496485
0.000496067
0.000495658
0.000495264
0.000494891
0.000494543
0.000494222
0.000493929
0.000493666
0.000493431
0.000493225
0.000493047
0.000492894
0.000492765
0.000492659
0.000492574
0.000492507
0.000492457
0.000492422
0.0004924
0.00049239
0.000491964
0.000491776
0.000491516
0.000491204
0.000490856
0.000490485
0.000490104
0.000489722
0.000489349
0.000488989
0.000488649
0.000488331
0.000488039
0.000487772
0.000487532
0.000487319
0.000487132
0.000486969
0.000486831
0.000486714
0.000486618
0.000486541
0.00048648
0.000486435
0.000486404
0.000486384
0.000486375
0.000485971
0.000485796
0.000485556
0.000485267
0.000484944
0.000484601
0.000484248
0.000483895
0.000483549
0.000483216
0.000482901
0.000482607
0.000482336
0.00048209
0.000481868
0.000481671
0.000481498
0.000481349
0.000481221
0.000481114
0.000481025
0.000480954
0.000480899
0.000480858
0.000480829
0.000480811
0.000480803
0.000480409
0.000480245
0.00048002
0.000479748
0.000479445
0.000479123
0.000478791
0.000478459
0.000478134
0.000477822
0.000477526
0.00047725
0.000476995
0.000476764
0.000476556
0.000476371
0.000476209
0.000476069
0.000475949
0.000475849
0.000475766
0.0004757
0.000475648
0.00047561
0.000475583
0.000475567
0.000475559
0.000475166
0.00047501
0.000474795
0.000474536
0.000474248
0.00047394
0.000473624
0.000473308
0.000472998
0.0004727
0.000472418
0.000472155
0.000471913
0.000471692
0.000471494
0.000471318
0.000471163
0.00047103
0.000470916
0.00047082
0.000470742
0.000470679
0.00047063
0.000470594
0.000470568
0.000470553
0.000470545
0.000470142
0.000469991
0.000469784
0.000469534
0.000469255
0.000468958
0.000468652
0.000468347
0.000468047
0.000467759
0.000467486
0.000467231
0.000466996
0.000466782
0.00046659
0.00046642
0.000466271
0.000466141
0.000466031
0.000465939
0.000465863
0.000465802
0.000465755
0.00046572
0.000465695
0.00046568
0.000465673
0.000465249
0.000465101
0.000464898
0.000464653
0.00046438
0.000464088
0.000463789
0.000463488
0.000463194
0.000462911
0.000462643
0.000462392
0.000462161
0.000461951
0.000461763
0.000461595
0.000461448
0.000461321
0.000461212
0.000461121
0.000461047
0.000460987
0.00046094
0.000460906
0.000460882
0.000460867
0.00046086
0.000460404
0.000460257
0.000460055
0.000459812
0.00045954
0.00045925
0.000458952
0.000458653
0.00045836
0.000458077
0.00045781
0.00045756
0.000457329
0.00045712
0.000456931
0.000456763
0.000456616
0.000456489
0.000456381
0.00045629
0.000456215
0.000456155
0.000456108
0.000456074
0.000456049
0.000456035
0.000456028
0.000455529
0.000455381
0.000455177
0.000454932
0.000454657
0.000454365
0.000454064
0.000453762
0.000453465
0.00045318
0.000452909
0.000452656
0.000452423
0.00045221
0.000452018
0.000451848
0.000451699
0.00045157
0.000451459
0.000451367
0.000451291
0.000451229
0.000451182
0.000451146
0.000451122
0.000451107
0.0004511
0.000450545
0.000450394
0.000450186
0.000449936
0.000449655
0.000449356
0.000449048
0.000448738
0.000448435
0.000448142
0.000447864
0.000447604
0.000447364
0.000447146
0.000446949
0.000446773
0.000446619
0.000446486
0.000446372
0.000446276
0.000446198
0.000446134
0.000446085
0.000446048
0.000446023
0.000446007
0.000446
0.000445377
0.000445221
0.000445006
0.000444747
0.000444456
0.000444147
0.000443827
0.000443506
0.000443191
0.000442887
0.000442599
0.000442328
0.000442078
0.00044185
0.000441645
0.000441462
0.000441301
0.000441162
0.000441042
0.000440942
0.00044086
0.000440793
0.000440741
0.000440703
0.000440676
0.000440659
0.000440651
0.000439948
0.000439785
0.00043956
0.000439289
0.000438985
0.000438661
0.000438326
0.00043799
0.000437659
0.00043734
0.000437036
0.000436752
0.000436489
0.000436249
0.000436032
0.000435839
0.000435669
0.000435521
0.000435395
0.000435289
0.000435201
0.000435131
0.000435075
0.000435034
0.000435005
0.000434988
0.000434979
0.000434183
0.000434011
0.000433774
0.000433488
0.000433167
0.000432824
0.00043247
0.000432114
0.000431764
0.000431426
0.000431104
0.000430802
0.000430523
0.000430267
0.000430036
0.000429831
0.000429649
0.000429492
0.000429357
0.000429243
0.000429149
0.000429074
0.000429014
0.00042897
0.000428939
0.00042892
0.000428911
0.000428011
0.000427828
0.000427576
0.000427271
0.00042693
0.000426565
0.000426188
0.000425809
0.000425436
0.000425075
0.000424731
0.000424409
0.00042411
0.000423836
0.000423589
0.000423369
0.000423174
0.000423005
0.00042286
0.000422737
0.000422636
0.000422554
0.00042249
0.000422442
0.000422409
0.000422388
0.000422378
0.000421364
0.000421169
0.0004209
0.000420575
0.00042021
0.00041982
0.000419417
0.000419012
0.000418612
0.000418225
0.000417857
0.000417511
0.000417191
0.000416897
0.000416631
0.000416394
0.000416185
0.000416002
0.000415846
0.000415713
0.000415604
0.000415515
0.000415446
0.000415394
0.000415358
0.000415335
0.000415325
0.000414191
0.000413982
0.000413694
0.000413346
0.000412956
0.000412539
0.000412108
0.000411673
0.000411245
0.000410831
0.000410436
0.000410065
0.00040972
0.000409405
0.000409119
0.000408864
0.000408639
0.000408442
0.000408273
0.00040813
0.000408012
0.000407916
0.000407841
0.000407785
0.000407746
0.000407721
0.000407709
0.000406454
0.000406231
0.000405924
0.000405553
0.000405136
0.000404691
0.00040423
0.000403766
0.000403308
0.000402865
0.000402443
0.000402046
0.000401678
0.00040134
0.000401034
0.00040076
0.000400518
0.000400308
0.000400126
0.000399973
0.000399846
0.000399743
0.000399662
0.000399601
0.000399558
0.000399532
0.000399519
0.000398146
0.00039791
0.000397584
0.00039719
0.000396748
0.000396275
0.000395785
0.000395293
0.000394807
0.000394337
0.000393888
0.000393466
0.000393075
0.000392716
0.000392391
0.0003921
0.000391843
0.000391618
0.000391425
0.000391262
0.000391126
0.000391016
0.00039093
0.000390865
0.000390819
0.000390791
0.000390777
0.000389299
0.000389051
0.000388708
0.000388294
0.000387829
0.000387332
0.000386818
0.0003863
0.00038579
0.000385296
0.000384825
0.000384382
0.000383971
0.000383594
0.000383253
0.000382947
0.000382677
0.000382441
0.000382238
0.000382066
0.000381923
0.000381808
0.000381717
0.000381648
0.0003816
0.00038157
0.000381556
0.000379994
0.000379737
0.000379381
0.000378952
0.000378471
0.000377957
0.000377425
0.00037689
0.000376363
0.000375852
0.000375365
0.000374908
0.000374484
0.000374095
0.000373742
0.000373427
0.000373148
0.000372904
0.000372695
0.000372518
0.00037237
0.000372251
0.000372157
0.000372086
0.000372037
0.000372005
0.000371991
0.000370377
0.000370115
0.000369755
0.000369319
0.000368832
0.00036831
0.000367772
0.00036723
0.000366697
0.000366181
0.00036569
0.000365228
0.000364801
0.000364408
0.000364053
0.000363736
0.000363455
0.00036321
0.000362999
0.000362821
0.000362673
0.000362553
0.000362458
0.000362387
0.000362337
0.000362306
0.000362291
0.000360665
0.000360407
0.000360051
0.000359621
0.000359141
0.000358627
0.000358098
0.000357566
0.000357043
0.000356537
0.000356056
0.000355605
0.000355187
0.000354805
0.000354459
0.00035415
0.000353876
0.000353638
0.000353433
0.00035326
0.000353116
0.000353
0.000352908
0.000352839
0.000352791
0.000352761
0.000352747
0.000351153
0.000350907
0.000350569
0.000350161
0.000349704
0.000349218
0.000348717
0.000348215
0.000347721
0.000347246
0.000346794
0.00034637
0.000345978
0.00034562
0.000345297
0.000345008
0.000344754
0.000344532
0.000344342
0.000344181
0.000344047
0.000343939
0.000343854
0.00034379
0.000343746
0.000343718
0.000343704
0.000342193
0.000341969
0.000341662
0.000341292
0.00034088
0.000340441
0.00033999
0.000339538
0.000339096
0.00033867
0.000338267
0.00033789
0.000337542
0.000337225
0.000336939
0.000336684
0.00033646
0.000336265
0.000336097
0.000335956
0.00033584
0.000335745
0.000335671
0.000335616
0.000335577
0.000335552
0.000335541
0.000334147
0.000333956
0.000333693
0.000333378
0.000333027
0.000332655
0.000332273
0.000331892
0.00033152
0.000331163
0.000330826
0.000330512
0.000330223
0.00032996
0.000329724
0.000329514
0.00032933
0.00032917
0.000329033
0.000328919
0.000328824
0.000328747
0.000328687
0.000328642
0.000328611
0.000328592
0.000328582
0.000327321
0.000327168
0.000326958
0.000326707
0.000326428
0.000326133
0.000325831
0.00032553
0.000325237
0.000324957
0.000324693
0.000324448
0.000324222
0.000324018
0.000323835
0.000323672
0.00032353
0.000323407
0.000323302
0.000323214
0.000323142
0.000323083
0.000323038
0.000323004
0.00032298
0.000322965
0.000322958
0.000321839
0.000321722
0.000321561
0.000321368
0.000321154
0.000320926
0.000320692
0.000320458
0.000320228
0.000320006
0.000319794
0.000319593
0.000319405
0.000319231
0.000319074
0.000318932
0.000318805
0.000318694
0.000318598
0.000318516
0.000318448
0.000318392
0.000318347
0.000318314
0.00031829
0.000318276
0.000318269
0.000317488
0.000317387
0.000317248
0.00031708
0.000316891
0.000316689
0.000316481
0.000316271
0.000316065
0.000315867
0.000315678
0.000315501
0.000315336
0.000315186
0.00031505
0.000314928
0.00031482
0.000314725
0.000314644
0.000314574
0.000314517
0.00031447
0.000314433
0.000314405
0.000314385
0.000314372
0.000314366
0.000313862
0.000313782
0.000313673
0.000313542
0.000313395
0.00031324
0.00031308
0.00031292
0.000312764
0.000312614
0.000312472
0.000312338
0.000312215
0.000312103
0.000312001
0.00031191
0.00031183
0.00031176
0.0003117
0.000311648
0.000311606
0.000311571
0.000311543
0.000311523
0.000311508
0.000311499
0.000311494
0.000311178
0.000311124
0.000311048
0.000310958
0.000310857
0.00031075
0.000310641
0.000310531
0.000310424
0.000310321
0.000310224
0.000310132
0.000310048
0.00030997
0.0003099
0.000309838
0.000309782
0.000309734
0.000309692
0.000309656
0.000309627
0.000309602
0.000309583
0.000309569
0.000309558
0.000309552
0.000309549
0.000309365
0.000309329
0.00030928
0.00030922
0.000309153
0.000309082
0.000309009
0.000308936
0.000308863
0.000308793
0.000308727
0.000308664
0.000308605
0.000308552
0.000308503
0.000308459
0.00030842
0.000308385
0.000308356
0.00030833
0.000308309
0.000308292
0.000308278
0.000308267
0.00030826
0.000308255
0.000308253
0.000308163
0.000308138
0.000308103
0.00030806
0.000308012
0.000307961
0.000307907
0.000307853
0.000307799
0.000307747
0.000307697
0.000307649
0.000307604
0.000307563
0.000307526
0.000307491
0.000307461
0.000307434
0.000307411
0.000307391
0.000307374
0.000307361
0.00030735
0.000307341
0.000307335