/*--------------------------------*- C++ -*----------------------------------*\
| =========                 |                                                 |
| \\      /  F ield         | OpenFOAM: The Open Source CFD Toolbox           |
|  \\    /   O peration     | Version:  2106                                  |
|   \\  /    A nd           | Website:  www.openfoam.com                      |
|    \\/     M anipulation  |                                                 |
\*---------------------------------------------------------------------------*/
FoamFile
{
    version     2.0;
    format      ascii;
    arch        "LSB;label=32;scalar=64";
    class       volScalarField;
    location    "219.99956";
    object      CH3CO_0;
}
// * * * * * * * * * * * * * * * * * * * * * * * * * * * * * * * * * * * * * //

dimensions      [0 0 0 0 0 0 0];

internalField   nonuniform List<scalar> 
3360
(
2.69617e-36
2.87954e-36
3.14515e-36
3.48676e-36
3.89931e-36
4.37758e-36
4.91548e-36
5.5058e-36
6.14009e-36
6.80882e-36
7.50158e-36
8.20739e-36
8.91505e-36
9.61344e-36
1.02919e-35
1.09406e-35
1.15505e-35
1.2114e-35
1.26247e-35
1.30778e-35
1.347e-35
1.37997e-35
1.40667e-35
1.42725e-35
1.44198e-35
1.45127e-35
1.45561e-35
4.67882e-35
5.04007e-35
5.57243e-35
6.27253e-35
7.14111e-35
8.18007e-35
9.39061e-35
1.07719e-34
1.232e-34
1.40274e-34
1.58823e-34
1.7868e-34
1.99633e-34
2.21421e-34
2.4374e-34
2.66249e-34
2.88577e-34
3.10336e-34
3.31128e-34
3.50566e-34
3.68284e-34
3.83953e-34
3.97295e-34
4.08097e-34
4.16214e-34
4.21583e-34
4.2422e-34
4.51196e-34
4.92696e-34
5.54736e-34
6.37796e-34
7.42903e-34
8.7121e-34
1.0237e-33
1.20092e-33
1.4028e-33
1.62849e-33
1.87623e-33
2.14336e-33
2.42636e-33
2.72088e-33
3.02188e-33
3.32382e-33
3.6209e-33
3.90732e-33
4.17752e-33
4.42642e-33
4.64965e-33
4.84369e-33
5.006e-33
5.13503e-33
5.23028e-33
5.29219e-33
5.3221e-33
3.79838e-33
4.19341e-33
4.7913e-33
5.60302e-33
6.64534e-33
7.93618e-33
9.49098e-33
1.13197e-32
1.34242e-32
1.57961e-32
1.84157e-32
2.12516e-32
2.4261e-32
2.73916e-32
3.05835e-32
3.37721e-32
3.68917e-32
3.98785e-32
4.26738e-32
4.52266e-32
4.74954e-32
4.94494e-32
5.10689e-32
5.23449e-32
5.32788e-32
5.38811e-32
5.41701e-32
3.21757e-32
3.57846e-32
4.1279e-32
4.87902e-32
5.85044e-32
7.06158e-32
8.52901e-32
1.02633e-31
1.22661e-31
1.45285e-31
1.70296e-31
1.97368e-31
2.26062e-31
2.5585e-31
2.86142e-31
3.16309e-31
3.45724e-31
3.73791e-31
3.99968e-31
4.23794e-31
4.44901e-31
4.63026e-31
4.78006e-31
4.8978e-31
4.98379e-31
5.03914e-31
5.06565e-31
2.77076e-31
3.09419e-31
3.58823e-31
4.26589e-31
5.14513e-31
6.2445e-31
7.57973e-31
9.16069e-31
1.09889e-30
1.30556e-30
1.5341e-30
1.78141e-30
2.04338e-30
2.3151e-30
2.59106e-30
2.86552e-30
3.13272e-30
3.38727e-30
3.62429e-30
3.83967e-30
4.03019e-30
4.19353e-30
4.32835e-30
4.43418e-30
4.51139e-30
4.56103e-30
4.58479e-30
2.41625e-30
2.70445e-30
3.14519e-30
3.75058e-30
4.53706e-30
5.52146e-30
6.7179e-30
8.13505e-30
9.77389e-30
1.16261e-29
1.36733e-29
1.58872e-29
1.82304e-29
2.06587e-29
2.31227e-29
2.55708e-29
2.79521e-29
3.02187e-29
3.23274e-29
3.42423e-29
3.5935e-29
3.73853e-29
3.85818e-29
3.95205e-29
4.0205e-29
4.0645e-29
4.08555e-29
2.11662e-29
2.3712e-29
2.76083e-29
3.29641e-29
3.99263e-29
4.86447e-29
5.92441e-29
7.17998e-29
8.6318e-29
1.02722e-28
1.20845e-28
1.40433e-28
1.61152e-28
1.82607e-28
2.04361e-28
2.25956e-28
2.46945e-28
2.66903e-28
2.85456e-28
3.02287e-28
3.17151e-28
3.29875e-28
3.40362e-28
3.48581e-28
3.54568e-28
3.58413e-28
3.60249e-28
1.85748e-28
2.08166e-28
2.42468e-28
2.89605e-28
3.50855e-28
4.27512e-28
5.20639e-28
6.30856e-28
7.5817e-28
9.01856e-28
1.06041e-27
1.23155e-27
1.41234e-27
1.5993e-27
1.78861e-27
1.9763e-27
2.15846e-27
2.33146e-27
2.49207e-27
2.63758e-27
2.76591e-27
2.87562e-27
2.9659e-27
3.03654e-27
3.08791e-27
3.12083e-27
3.13652e-27
1.62177e-27
1.81714e-27
2.11594e-27
2.52624e-27
3.05887e-27
3.72467e-27
4.53241e-27
5.48689e-27
6.58754e-27
7.82744e-27
9.19296e-27
1.06639e-26
1.22146e-26
1.38146e-26
1.54311e-26
1.70302e-26
1.85786e-26
2.00456e-26
2.14041e-26
2.26317e-26
2.37115e-26
2.46318e-26
2.53867e-26
2.59754e-26
2.64018e-26
2.66737e-26
2.68027e-26
1.40455e-26
1.57275e-26
1.82963e-26
2.18172e-26
2.63777e-26
3.2064e-26
3.89428e-26
4.70459e-26
5.6359e-26
6.68136e-26
7.82854e-26
9.05972e-26
1.03526e-25
1.16815e-25
1.30188e-25
1.43364e-25
1.5607e-25
1.68058e-25
1.79112e-25
1.89056e-25
1.9776e-25
2.05141e-25
2.11159e-25
2.15822e-25
2.19174e-25
2.21293e-25
2.22286e-25
1.19656e-25
1.33807e-25
1.5537e-25
1.84837e-25
2.22865e-25
2.70081e-25
3.26933e-25
3.93565e-25
4.69734e-25
5.54757e-25
6.47505e-25
7.46442e-25
8.49694e-25
9.55151e-25
1.06059e-24
1.16378e-24
1.26261e-24
1.35521e-24
1.43995e-24
1.51558e-24
1.58122e-24
1.63635e-24
1.68083e-24
1.71486e-24
1.73897e-24
1.75395e-24
1.76082e-24
9.93844e-25
1.10898e-24
1.28374e-24
1.52136e-24
1.82616e-24
2.20199e-24
2.65108e-24
3.17311e-24
3.76467e-24
4.41898e-24
5.12601e-24
5.87291e-24
6.64464e-24
7.42487e-24
8.19684e-24
8.94434e-24
9.65242e-24
1.03081e-23
1.09009e-23
1.14231e-23
1.18696e-23
1.22385e-23
1.25305e-23
1.27489e-23
1.28993e-23
1.29894e-23
1.30288e-23
7.92399e-24
8.81174e-24
1.01516e-23
1.19595e-23
1.42574e-23
1.70614e-23
2.03736e-23
2.41762e-23
2.8429e-23
3.30685e-23
3.80107e-23
4.31551e-23
4.83906e-23
5.36017e-23
5.86756e-23
6.35074e-23
6.80051e-23
7.20936e-23
7.57162e-23
7.88366e-23
8.14382e-23
8.35242e-23
8.51159e-23
8.62522e-23
8.69875e-23
8.7391e-23
8.75452e-23
5.95286e-23
6.5863e-23
7.534e-23
8.79828e-23
1.03834e-22
1.22879e-22
1.44994e-22
1.69921e-22
1.97261e-22
2.26485e-22
2.56964e-22
2.88003e-22
3.18886e-22
3.48914e-22
3.77447e-22
4.0393e-22
4.27914e-22
4.49071e-22
4.67196e-22
4.82208e-22
4.94145e-22
5.03154e-22
5.0949e-22
5.13502e-22
5.15633e-22
5.16411e-22
5.16452e-22
4.10031e-22
4.50363e-22
5.09961e-22
5.88184e-22
6.84372e-22
7.97413e-22
9.25528e-22
1.06621e-21
1.21631e-21
1.37216e-21
1.52986e-21
1.68546e-21
1.83525e-21
1.97592e-21
2.10471e-21
2.21951e-21
2.31889e-21
2.40209e-21
2.46898e-21
2.52006e-21
2.55635e-21
2.57936e-21
2.59107e-21
2.5939e-21
2.59068e-21
2.58469e-21
2.57962e-21
2.50561e-21
2.72467e-21
3.0428e-21
3.45099e-21
3.93951e-21
4.49625e-21
5.10627e-21
5.7522e-21
6.41513e-21
7.07581e-21
7.71592e-21
8.31904e-21
8.87154e-21
9.36293e-21
9.78611e-21
1.01372e-20
1.04155e-20
1.06227e-20
1.07629e-20
1.08424e-20
1.08689e-20
1.08518e-20
1.08017e-20
1.0731e-20
1.06533e-20
1.05839e-20
1.05397e-20
1.30467e-20
1.40031e-20
1.53595e-20
1.70473e-20
1.89942e-20
2.11219e-20
2.33476e-20
2.5588e-20
2.77649e-20
2.98091e-20
3.16644e-20
3.32891e-20
3.46564e-20
3.57536e-20
3.65801e-20
3.71456e-20
3.74677e-20
3.75702e-20
3.74814e-20
3.72332e-20
3.68605e-20
3.64008e-20
3.58944e-20
3.53849e-20
3.49199e-20
3.45511e-20
3.43356e-20
5.54344e-20
5.85485e-20
6.28282e-20
6.79357e-20
7.35384e-20
7.93147e-20
8.49697e-20
9.02508e-20
9.49595e-20
9.89561e-20
1.02159e-19
1.04538e-19
1.06107e-19
1.0691e-19
1.07017e-19
1.06511e-19
1.05483e-19
1.04029e-19
1.02245e-19
1.00229e-19
9.80767e-20
9.58887e-20
9.3767e-20
9.18195e-20
9.01615e-20
8.89175e-20
8.82223e-20
1.8498e-19
1.9183e-19
2.00829e-19
2.10933e-19
2.21193e-19
2.30808e-19
2.39159e-19
2.45831e-19
2.50597e-19
2.53396e-19
2.54296e-19
2.53454e-19
2.51082e-19
2.47418e-19
2.4271e-19
2.37194e-19
2.31097e-19
2.24626e-19
2.17975e-19
2.11323e-19
2.04846e-19
1.98714e-19
1.93102e-19
1.88193e-19
1.84181e-19
1.81276e-19
1.79702e-19
4.75833e-19
4.8432e-19
4.945e-19
5.04434e-19
5.12549e-19
5.17748e-19
5.19428e-19
5.17423e-19
5.119e-19
5.03253e-19
4.91996e-19
4.78687e-19
4.63871e-19
4.48048e-19
4.3166e-19
4.15086e-19
3.98647e-19
3.8262e-19
3.67243e-19
3.5273e-19
3.3928e-19
3.27089e-19
3.16355e-19
3.07286e-19
3.00107e-19
2.95058e-19
2.92396e-19
9.56977e-19
9.58559e-19
9.57986e-19
9.53234e-19
9.42932e-19
9.26498e-19
9.04077e-19
8.7637e-19
8.44415e-19
8.09385e-19
7.7243e-19
7.34574e-19
6.9666e-19
6.59332e-19
6.23037e-19
5.88092e-19
5.54763e-19
5.23297e-19
4.93936e-19
4.66921e-19
4.42489e-19
4.20877e-19
4.02315e-19
3.87029e-19
3.7524e-19
3.67168e-19
3.63027e-19
1.56402e-18
1.55127e-18
1.53074e-18
1.50152e-18
1.46298e-18
1.41455e-18
1.35626e-18
1.28913e-18
1.21528e-18
1.13779e-18
1.06052e-18
9.8804e-19
9.25471e-19
8.78547e-19
8.46504e-19
8.24038e-19
8.07716e-19
7.95317e-19
7.8541e-19
7.77095e-19
7.69842e-19
7.63377e-19
7.57614e-19
7.526e-19
7.4848e-19
7.45468e-19
7.4382e-19
2.07954e-18
2.04344e-18
2.00092e-18
1.96949e-18
1.97957e-18
2.03266e-18
2.11052e-18
2.20375e-18
2.30701e-18
2.41686e-18
2.53081e-18
2.64682e-18
2.76311e-18
2.87805e-18
2.99005e-18
3.09755e-18
3.19913e-18
3.29353e-18
3.37964e-18
3.45656e-18
3.52362e-18
3.5804e-18
3.62676e-18
3.6628e-18
3.68887e-18
3.70552e-18
3.71343e-18
4.91883e-18
5.17328e-18
5.53773e-18
6.00035e-18
6.55184e-18
7.18271e-18
7.88268e-18
8.64034e-18
9.44185e-18
1.027e-17
1.11043e-17
1.1922e-17
1.27005e-17
1.34191e-17
1.4062e-17
1.46189e-17
1.50856e-17
1.54634e-17
1.57582e-17
1.59788e-17
1.61358e-17
1.62406e-17
1.63045e-17
1.6338e-17
1.63512e-17
1.63527e-17
1.63501e-17
2.14903e-17
2.28373e-17
2.4733e-17
2.70651e-17
2.97146e-17
3.25531e-17
3.54503e-17
3.82872e-17
4.09675e-17
4.34252e-17
4.56231e-17
4.75478e-17
4.9202e-17
5.0598e-17
5.17533e-17
5.26882e-17
5.3424e-17
5.39829e-17
5.43876e-17
5.46607e-17
5.48262e-17
5.49071e-17
5.49261e-17
5.49042e-17
5.48618e-17
5.48172e-17
5.47873e-17
8.03977e-17
8.42233e-17
8.95858e-17
9.61983e-17
1.03816e-16
1.12225e-16
1.21234e-16
1.30668e-16
1.40363e-16
1.50179e-16
1.59988e-16
1.69668e-16
1.79101e-16
1.88178e-16
1.96798e-16
2.04871e-16
2.12322e-16
2.19089e-16
2.25126e-16
2.30404e-16
2.34911e-16
2.38654e-16
2.41652e-16
2.4394e-16
2.45564e-16
2.46582e-16
2.47056e-16
2.37645e-16
2.52765e-16
2.7478e-16
3.03298e-16
3.381e-16
3.79034e-16
4.25953e-16
4.78667e-16
5.36904e-16
6.00281e-16
6.68277e-16
7.40226e-16
8.15314e-16
8.92583e-16
9.70955e-16
1.0494e-15
1.12668e-15
1.20151e-15
1.27265e-15
1.33889e-15
1.39913e-15
1.45239e-15
1.49784e-15
1.53481e-15
1.56279e-15
1.58149e-15
1.5908e-15
7.94106e-16
8.63855e-16
9.68085e-16
1.10758e-15
1.28489e-15
1.50251e-15
1.76303e-15
2.0688e-15
2.42147e-15
2.82167e-15
3.26867e-15
3.76024e-15
4.29242e-15
4.85954e-15
5.45425e-15
6.0677e-15
6.68978e-15
7.30941e-15
7.91436e-15
8.49206e-15
9.0302e-15
9.51706e-15
9.94184e-15
1.02949e-14
1.05681e-14
1.07548e-14
1.08498e-14
3.26299e-15
3.59004e-15
4.08397e-15
4.75358e-15
5.61352e-15
6.68109e-15
7.97374e-15
9.50703e-15
1.12926e-14
1.33347e-14
1.56286e-14
1.81605e-14
2.09077e-14
2.38376e-14
2.69091e-14
3.00729e-14
3.32737e-14
3.64518e-14
3.95452e-14
4.24915e-14
4.52297e-14
4.77023e-14
4.98563e-14
5.16446e-14
5.30279e-14
5.3973e-14
5.44545e-14
1.45909e-14
1.58957e-14
1.78471e-14
2.04583e-14
2.376e-14
2.77852e-14
3.25614e-14
3.81034e-14
4.44072e-14
5.14461e-14
5.91687e-14
6.74985e-14
7.63347e-14
8.55559e-14
9.50204e-14
1.04576e-13
1.14061e-13
1.23313e-13
1.32166e-13
1.40462e-13
1.48051e-13
1.548e-13
1.606e-13
1.65359e-13
1.69001e-13
1.71467e-13
1.72712e-13
5.45027e-14
5.80964e-14
6.33559e-14
7.02016e-14
7.85815e-14
8.84429e-14
9.97154e-14
1.12301e-13
1.2607e-13
1.40857e-13
1.56467e-13
1.72678e-13
1.89248e-13
2.05948e-13
2.22557e-13
2.3885e-13
2.54602e-13
2.696e-13
2.83647e-13
2.96563e-13
3.08188e-13
3.18384e-13
3.27037e-13
3.34054e-13
3.39367e-13
3.42929e-13
3.44713e-13
1.44769e-13
1.50838e-13
1.59479e-13
1.70334e-13
1.83078e-13
1.97437e-13
2.13135e-13
2.29885e-13
2.47402e-13
2.65401e-13
2.83609e-13
3.01772e-13
3.19654e-13
3.37044e-13
3.53756e-13
3.69628e-13
3.84525e-13
3.98324e-13
4.10932e-13
4.2227e-13
4.32273e-13
4.40895e-13
4.48098e-13
4.53863e-13
4.58178e-13
4.61041e-13
4.62463e-13
2.63759e-13
2.69508e-13
2.77484e-13
2.87171e-13
2.98108e-13
3.09887e-13
3.22141e-13
3.34554e-13
3.46864e-13
3.5886e-13
3.70382e-13
3.81316e-13
3.91584e-13
4.01139e-13
4.09957e-13
4.18033e-13
4.2537e-13
4.31976e-13
4.37866e-13
4.43056e-13
4.4756e-13
4.5139e-13
4.54558e-13
4.57074e-13
4.58945e-13
4.60184e-13
4.60798e-13
3.43159e-13
3.45512e-13
3.48626e-13
3.52177e-13
3.55882e-13
3.59513e-13
3.62903e-13
3.65937e-13
3.68554e-13
3.70731e-13
3.72484e-13
3.73849e-13
3.74876e-13
3.75624e-13
3.76152e-13
3.76514e-13
3.76757e-13
3.76924e-13
3.77045e-13
3.77142e-13
3.77233e-13
3.77317e-13
3.77399e-13
3.7748e-13
3.77555e-13
3.77615e-13
3.7765e-13
3.40016e-13
3.38954e-13
3.37373e-13
3.35287e-13
3.32718e-13
3.29707e-13
3.26313e-13
3.2261e-13
3.18685e-13
3.14626e-13
3.10522e-13
3.06458e-13
3.02506e-13
2.98728e-13
2.95175e-13
2.91886e-13
2.88889e-13
2.86199e-13
2.83826e-13
2.81771e-13
2.80026e-13
2.78583e-13
2.77427e-13
2.7654e-13
2.75905e-13
2.75502e-13
2.75311e-13
2.7809e-13
2.75591e-13
2.721e-13
2.67825e-13
2.62952e-13
2.57651e-13
2.5208e-13
2.46378e-13
2.40668e-13
2.35056e-13
2.29627e-13
2.24451e-13
2.1958e-13
2.15053e-13
2.10895e-13
2.07119e-13
2.03731e-13
2.00729e-13
1.98104e-13
1.95844e-13
1.93934e-13
1.92356e-13
1.91091e-13
1.9012e-13
1.89421e-13
1.88975e-13
1.88762e-13
2.02363e-13
1.99954e-13
1.96631e-13
1.92624e-13
1.88133e-13
1.83337e-13
1.78386e-13
1.73408e-13
1.68507e-13
1.63763e-13
1.59241e-13
1.54984e-13
1.51024e-13
1.47379e-13
1.44061e-13
1.41069e-13
1.38402e-13
1.36049e-13
1.34e-13
1.32242e-13
1.30759e-13
1.29536e-13
1.28556e-13
1.27803e-13
1.27262e-13
1.26916e-13
1.2675e-13
1.39153e-13
1.3737e-13
1.34921e-13
1.31986e-13
1.2872e-13
1.25258e-13
1.2171e-13
1.18169e-13
1.14706e-13
1.11377e-13
1.08221e-13
1.05267e-13
1.02532e-13
1.00025e-13
9.77506e-14
9.57065e-14
9.3888e-14
9.22876e-14
9.08961e-14
8.97031e-14
8.86978e-14
8.78688e-14
8.72049e-14
8.66949e-14
8.63279e-14
8.60933e-14
8.59809e-14
9.47245e-14
9.35493e-14
9.19392e-14
9.0014e-14
8.78775e-14
8.56187e-14
8.33111e-14
8.1014e-14
7.87735e-14
7.66242e-14
7.4591e-14
7.26907e-14
7.09338e-14
6.93254e-14
6.78671e-14
6.65578e-14
6.53938e-14
6.43698e-14
6.34796e-14
6.27164e-14
6.20731e-14
6.15425e-14
6.11174e-14
6.07906e-14
6.05553e-14
6.04048e-14
6.03326e-14
6.59758e-14
6.52409e-14
6.42346e-14
6.30319e-14
6.16981e-14
6.02885e-14
5.88491e-14
5.74167e-14
5.60198e-14
5.46798e-14
5.3412e-14
5.22268e-14
5.11306e-14
5.01266e-14
4.92157e-14
4.83971e-14
4.76685e-14
4.70269e-14
4.64687e-14
4.59896e-14
4.55853e-14
4.52515e-14
4.49838e-14
4.47778e-14
4.46293e-14
4.45342e-14
4.44885e-14
4.80879e-14
4.76349e-14
4.70143e-14
4.62721e-14
4.54485e-14
4.45773e-14
4.36868e-14
4.27995e-14
4.19332e-14
4.1101e-14
4.03124e-14
3.9574e-14
3.88899e-14
3.82622e-14
3.76918e-14
3.71782e-14
3.67203e-14
3.63163e-14
3.59641e-14
3.56614e-14
3.54057e-14
3.51941e-14
3.50241e-14
3.48931e-14
3.47985e-14
3.47379e-14
3.47087e-14
3.70704e-14
3.67884e-14
3.64019e-14
3.59391e-14
3.54247e-14
3.48797e-14
3.43215e-14
3.37643e-14
3.32189e-14
3.26937e-14
3.21949e-14
3.17267e-14
3.12918e-14
3.08917e-14
3.05272e-14
3.01981e-14
2.99039e-14
2.96437e-14
2.94163e-14
2.92203e-14
2.90543e-14
2.89167e-14
2.88061e-14
2.87207e-14
2.86589e-14
2.86192e-14
2.86001e-14
3.02272e-14
3.00474e-14
2.98006e-14
2.95046e-14
2.9175e-14
2.88249e-14
2.84655e-14
2.81056e-14
2.77525e-14
2.74114e-14
2.70864e-14
2.67804e-14
2.64952e-14
2.62321e-14
2.59915e-14
2.57736e-14
2.55782e-14
2.54048e-14
2.52528e-14
2.51214e-14
2.50098e-14
2.4917e-14
2.48421e-14
2.47842e-14
2.47422e-14
2.47153e-14
2.47023e-14
2.58877e-14
2.57691e-14
2.56059e-14
2.54099e-14
2.51911e-14
2.49581e-14
2.47181e-14
2.44771e-14
2.42399e-14
2.40099e-14
2.379e-14
2.35821e-14
2.33877e-14
2.32077e-14
2.30424e-14
2.28922e-14
2.27571e-14
2.26367e-14
2.25308e-14
2.24389e-14
2.23606e-14
2.22952e-14
2.22423e-14
2.22012e-14
2.21713e-14
2.2152e-14
2.21426e-14
2.30548e-14
2.29733e-14
2.2861e-14
2.27258e-14
2.25744e-14
2.24128e-14
2.22459e-14
2.20776e-14
2.19113e-14
2.17496e-14
2.15943e-14
2.1447e-14
2.13086e-14
2.118e-14
2.10615e-14
2.09534e-14
2.08557e-14
2.07683e-14
2.06912e-14
2.06241e-14
2.05666e-14
2.05186e-14
2.04795e-14
2.04491e-14
2.04269e-14
2.04125e-14
2.04056e-14
2.11406e-14
2.10821e-14
2.10014e-14
2.0904e-14
2.07947e-14
2.06776e-14
2.05563e-14
2.04336e-14
2.03119e-14
2.0193e-14
2.00785e-14
1.99694e-14
1.98665e-14
1.97704e-14
1.96816e-14
1.96003e-14
1.95265e-14
1.94602e-14
1.94016e-14
1.93503e-14
1.93063e-14
1.92694e-14
1.92393e-14
1.92157e-14
1.91985e-14
1.91873e-14
1.91819e-14
1.97981e-14
1.97543e-14
1.96937e-14
1.96205e-14
1.95381e-14
1.94495e-14
1.93575e-14
1.92641e-14
1.91711e-14
1.908e-14
1.89918e-14
1.89075e-14
1.88277e-14
1.87529e-14
1.86835e-14
1.86197e-14
1.85616e-14
1.85093e-14
1.84628e-14
1.8422e-14
1.83869e-14
1.83573e-14
1.83332e-14
1.83142e-14
1.83004e-14
1.82913e-14
1.82869e-14
1.88201e-14
1.87859e-14
1.87386e-14
1.86812e-14
1.86166e-14
1.85469e-14
1.84743e-14
1.84003e-14
1.83264e-14
1.82538e-14
1.81832e-14
1.81156e-14
1.80513e-14
1.79908e-14
1.79345e-14
1.78825e-14
1.78351e-14
1.77922e-14
1.7754e-14
1.77204e-14
1.76913e-14
1.76668e-14
1.76467e-14
1.7631e-14
1.76194e-14
1.76118e-14
1.76081e-14
1.80812e-14
1.80535e-14
1.80152e-14
1.79686e-14
1.7916e-14
1.78592e-14
1.77998e-14
1.77392e-14
1.76784e-14
1.76185e-14
1.75601e-14
1.75039e-14
1.74504e-14
1.73999e-14
1.73527e-14
1.7309e-14
1.7269e-14
1.72328e-14
1.72004e-14
1.71718e-14
1.71471e-14
1.71262e-14
1.7109e-14
1.70954e-14
1.70855e-14
1.70789e-14
1.70758e-14
1.75037e-14
1.74807e-14
1.74486e-14
1.74097e-14
1.73656e-14
1.73178e-14
1.72678e-14
1.72166e-14
1.71651e-14
1.71142e-14
1.70645e-14
1.70165e-14
1.69707e-14
1.69273e-14
1.68867e-14
1.6849e-14
1.68144e-14
1.6783e-14
1.67548e-14
1.67299e-14
1.67083e-14
1.669e-14
1.66749e-14
1.6663e-14
1.66543e-14
1.66485e-14
1.66457e-14
1.70388e-14
1.70191e-14
1.69916e-14
1.69581e-14
1.69202e-14
1.6879e-14
1.68358e-14
1.67914e-14
1.67468e-14
1.67025e-14
1.66592e-14
1.66173e-14
1.65771e-14
1.6539e-14
1.65033e-14
1.64701e-14
1.64395e-14
1.64116e-14
1.63866e-14
1.63645e-14
1.63453e-14
1.6329e-14
1.63155e-14
1.63049e-14
1.6297e-14
1.62919e-14
1.62893e-14
1.66547e-14
1.66374e-14
1.66133e-14
1.6584e-14
1.65506e-14
1.65144e-14
1.64763e-14
1.64371e-14
1.63976e-14
1.63583e-14
1.63198e-14
1.62825e-14
1.62467e-14
1.62126e-14
1.61806e-14
1.61508e-14
1.61233e-14
1.60982e-14
1.60757e-14
1.60557e-14
1.60383e-14
1.60235e-14
1.60113e-14
1.60016e-14
1.59945e-14
1.59898e-14
1.59875e-14
1.63303e-14
1.63149e-14
1.62934e-14
1.62672e-14
1.62374e-14
1.6205e-14
1.61708e-14
1.61356e-14
1.61001e-14
1.60647e-14
1.60299e-14
1.59962e-14
1.59637e-14
1.59329e-14
1.59038e-14
1.58766e-14
1.58516e-14
1.58287e-14
1.58081e-14
1.57898e-14
1.57738e-14
1.57602e-14
1.5749e-14
1.57401e-14
1.57335e-14
1.57292e-14
1.57271e-14
1.60512e-14
1.60372e-14
1.60178e-14
1.59941e-14
1.5967e-14
1.59376e-14
1.59065e-14
1.58745e-14
1.58421e-14
1.58098e-14
1.57781e-14
1.57472e-14
1.57174e-14
1.56891e-14
1.56623e-14
1.56373e-14
1.56142e-14
1.55931e-14
1.5574e-14
1.55571e-14
1.55423e-14
1.55297e-14
1.55193e-14
1.5511e-14
1.55049e-14
1.55009e-14
1.54989e-14
1.58072e-14
1.57944e-14
1.57766e-14
1.57548e-14
1.573e-14
1.5703e-14
1.56745e-14
1.5645e-14
1.56151e-14
1.55853e-14
1.5556e-14
1.55274e-14
1.54999e-14
1.54736e-14
1.54487e-14
1.54255e-14
1.5404e-14
1.53843e-14
1.53665e-14
1.53507e-14
1.53369e-14
1.53251e-14
1.53154e-14
1.53076e-14
1.53019e-14
1.52981e-14
1.52962e-14
1.55909e-14
1.55791e-14
1.55626e-14
1.55425e-14
1.55195e-14
1.54944e-14
1.54679e-14
1.54406e-14
1.54128e-14
1.5385e-14
1.53577e-14
1.5331e-14
1.53053e-14
1.52807e-14
1.52574e-14
1.52356e-14
1.52155e-14
1.5197e-14
1.51803e-14
1.51654e-14
1.51524e-14
1.51413e-14
1.51321e-14
1.51248e-14
1.51193e-14
1.51158e-14
1.5114e-14
1.53968e-14
1.53858e-14
1.53704e-14
1.53516e-14
1.53301e-14
1.53067e-14
1.52819e-14
1.52563e-14
1.52302e-14
1.52042e-14
1.51785e-14
1.51534e-14
1.51292e-14
1.5106e-14
1.50841e-14
1.50635e-14
1.50445e-14
1.5027e-14
1.50112e-14
1.49971e-14
1.49847e-14
1.49742e-14
1.49655e-14
1.49585e-14
1.49534e-14
1.495e-14
1.49483e-14
1.52206e-14
1.52103e-14
1.51959e-14
1.51782e-14
1.5158e-14
1.51359e-14
1.51125e-14
1.50883e-14
1.50637e-14
1.50391e-14
1.50148e-14
1.49911e-14
1.49681e-14
1.49461e-14
1.49253e-14
1.49058e-14
1.48876e-14
1.4871e-14
1.4856e-14
1.48425e-14
1.48308e-14
1.48207e-14
1.48124e-14
1.48058e-14
1.48008e-14
1.47976e-14
1.4796e-14
1.50591e-14
1.50493e-14
1.50356e-14
1.50189e-14
1.49997e-14
1.49788e-14
1.49566e-14
1.49336e-14
1.49103e-14
1.48869e-14
1.48637e-14
1.48411e-14
1.48192e-14
1.47982e-14
1.47783e-14
1.47597e-14
1.47423e-14
1.47264e-14
1.4712e-14
1.46991e-14
1.46879e-14
1.46782e-14
1.46702e-14
1.46639e-14
1.46591e-14
1.4656e-14
1.46545e-14
1.49093e-14
1.49e-14
1.4887e-14
1.4871e-14
1.48527e-14
1.48328e-14
1.48116e-14
1.47896e-14
1.47672e-14
1.47448e-14
1.47227e-14
1.4701e-14
1.468e-14
1.46599e-14
1.46408e-14
1.46228e-14
1.46062e-14
1.45909e-14
1.4577e-14
1.45646e-14
1.45537e-14
1.45444e-14
1.45367e-14
1.45306e-14
1.4526e-14
1.4523e-14
1.45215e-14
1.4769e-14
1.47601e-14
1.47476e-14
1.47322e-14
1.47147e-14
1.46955e-14
1.46751e-14
1.4654e-14
1.46325e-14
1.46109e-14
1.45896e-14
1.45687e-14
1.45484e-14
1.4529e-14
1.45106e-14
1.44932e-14
1.44771e-14
1.44623e-14
1.44489e-14
1.44369e-14
1.44263e-14
1.44173e-14
1.44099e-14
1.44039e-14
1.43995e-14
1.43965e-14
1.43951e-14
1.4636e-14
1.46274e-14
1.46153e-14
1.46005e-14
1.45836e-14
1.4565e-14
1.45453e-14
1.45249e-14
1.45041e-14
1.44832e-14
1.44625e-14
1.44422e-14
1.44225e-14
1.44037e-14
1.43858e-14
1.43689e-14
1.43533e-14
1.43389e-14
1.43258e-14
1.43141e-14
1.43039e-14
1.42951e-14
1.42878e-14
1.4282e-14
1.42777e-14
1.42748e-14
1.42734e-14
1.45084e-14
1.45e-14
1.44883e-14
1.44739e-14
1.44574e-14
1.44394e-14
1.44202e-14
1.44003e-14
1.438e-14
1.43597e-14
1.43395e-14
1.43197e-14
1.43005e-14
1.42821e-14
1.42646e-14
1.42481e-14
1.42328e-14
1.42187e-14
1.42059e-14
1.41945e-14
1.41845e-14
1.41759e-14
1.41687e-14
1.4163e-14
1.41588e-14
1.4156e-14
1.41546e-14
1.43843e-14
1.43761e-14
1.43646e-14
1.43505e-14
1.43344e-14
1.43167e-14
1.4298e-14
1.42785e-14
1.42586e-14
1.42386e-14
1.42188e-14
1.41993e-14
1.41805e-14
1.41624e-14
1.41452e-14
1.4129e-14
1.41139e-14
1.41001e-14
1.40875e-14
1.40762e-14
1.40663e-14
1.40579e-14
1.40508e-14
1.40452e-14
1.40411e-14
1.40383e-14
1.40369e-14
1.42619e-14
1.42539e-14
1.42425e-14
1.42287e-14
1.42128e-14
1.41953e-14
1.41768e-14
1.41575e-14
1.41379e-14
1.41181e-14
1.40985e-14
1.40793e-14
1.40607e-14
1.40428e-14
1.40258e-14
1.40097e-14
1.39948e-14
1.39811e-14
1.39686e-14
1.39574e-14
1.39477e-14
1.39393e-14
1.39323e-14
1.39267e-14
1.39226e-14
1.39199e-14
1.39185e-14
1.41394e-14
1.41314e-14
1.41201e-14
1.41063e-14
1.40905e-14
1.40732e-14
1.40547e-14
1.40356e-14
1.4016e-14
1.39964e-14
1.39769e-14
1.39577e-14
1.39392e-14
1.39213e-14
1.39043e-14
1.38884e-14
1.38735e-14
1.38598e-14
1.38473e-14
1.38362e-14
1.38264e-14
1.38181e-14
1.38111e-14
1.38056e-14
1.38014e-14
1.37987e-14
1.37974e-14
1.40148e-14
1.40067e-14
1.39954e-14
1.39816e-14
1.39658e-14
1.39484e-14
1.39299e-14
1.39106e-14
1.3891e-14
1.38713e-14
1.38517e-14
1.38325e-14
1.38138e-14
1.37959e-14
1.37789e-14
1.37628e-14
1.37478e-14
1.37341e-14
1.37216e-14
1.37104e-14
1.37006e-14
1.36922e-14
1.36852e-14
1.36796e-14
1.36754e-14
1.36727e-14
1.36714e-14
1.38858e-14
1.38777e-14
1.38663e-14
1.38523e-14
1.38363e-14
1.38187e-14
1.38e-14
1.37805e-14
1.37606e-14
1.37407e-14
1.37208e-14
1.37014e-14
1.36825e-14
1.36643e-14
1.3647e-14
1.36308e-14
1.36156e-14
1.36017e-14
1.3589e-14
1.35777e-14
1.35678e-14
1.35592e-14
1.35522e-14
1.35465e-14
1.35423e-14
1.35395e-14
1.35382e-14
1.37504e-14
1.37421e-14
1.37304e-14
1.37162e-14
1.36998e-14
1.36818e-14
1.36627e-14
1.36428e-14
1.36225e-14
1.36021e-14
1.35818e-14
1.35619e-14
1.35426e-14
1.35241e-14
1.35064e-14
1.34898e-14
1.34743e-14
1.34601e-14
1.34472e-14
1.34356e-14
1.34254e-14
1.34167e-14
1.34095e-14
1.34037e-14
1.33995e-14
1.33966e-14
1.33952e-14
1.36059e-14
1.35973e-14
1.35853e-14
1.35706e-14
1.35537e-14
1.35351e-14
1.35154e-14
1.34949e-14
1.3474e-14
1.34529e-14
1.3432e-14
1.34115e-14
1.33916e-14
1.33724e-14
1.33542e-14
1.33371e-14
1.33212e-14
1.33065e-14
1.32932e-14
1.32812e-14
1.32708e-14
1.32618e-14
1.32544e-14
1.32485e-14
1.32441e-14
1.32411e-14
1.32397e-14
1.34495e-14
1.34406e-14
1.34281e-14
1.34127e-14
1.33951e-14
1.33758e-14
1.33553e-14
1.33339e-14
1.33121e-14
1.32902e-14
1.32684e-14
1.32471e-14
1.32263e-14
1.32064e-14
1.31875e-14
1.31697e-14
1.31531e-14
1.31378e-14
1.3124e-14
1.31116e-14
1.31008e-14
1.30915e-14
1.30837e-14
1.30776e-14
1.3073e-14
1.307e-14
1.30685e-14
1.32782e-14
1.32688e-14
1.32557e-14
1.32396e-14
1.32211e-14
1.32008e-14
1.31791e-14
1.31567e-14
1.31338e-14
1.31107e-14
1.30878e-14
1.30654e-14
1.30436e-14
1.30227e-14
1.30029e-14
1.29842e-14
1.29668e-14
1.29508e-14
1.29362e-14
1.29233e-14
1.29119e-14
1.29022e-14
1.28941e-14
1.28876e-14
1.28829e-14
1.28797e-14
1.28781e-14
1.30887e-14
1.30788e-14
1.30648e-14
1.30477e-14
1.3028e-14
1.30065e-14
1.29836e-14
1.29597e-14
1.29354e-14
1.2911e-14
1.28867e-14
1.28629e-14
1.28399e-14
1.28177e-14
1.27967e-14
1.27769e-14
1.27585e-14
1.27416e-14
1.27263e-14
1.27126e-14
1.27006e-14
1.26903e-14
1.26818e-14
1.2675e-14
1.26699e-14
1.26666e-14
1.2665e-14
1.28774e-14
1.28667e-14
1.28518e-14
1.28334e-14
1.28124e-14
1.27893e-14
1.27648e-14
1.27393e-14
1.27133e-14
1.26872e-14
1.26613e-14
1.26359e-14
1.26112e-14
1.25876e-14
1.25652e-14
1.25441e-14
1.25245e-14
1.25065e-14
1.24902e-14
1.24756e-14
1.24628e-14
1.24519e-14
1.24429e-14
1.24357e-14
1.24303e-14
1.24268e-14
1.24251e-14
1.26403e-14
1.26288e-14
1.26127e-14
1.25929e-14
1.25702e-14
1.25454e-14
1.25189e-14
1.24915e-14
1.24635e-14
1.24353e-14
1.24075e-14
1.23802e-14
1.23537e-14
1.23283e-14
1.23043e-14
1.22816e-14
1.22606e-14
1.22413e-14
1.22238e-14
1.22083e-14
1.21946e-14
1.21829e-14
1.21733e-14
1.21656e-14
1.21599e-14
1.21561e-14
1.21543e-14
1.23735e-14
1.2361e-14
1.23435e-14
1.2322e-14
1.22975e-14
1.22705e-14
1.22419e-14
1.22121e-14
1.21818e-14
1.21514e-14
1.21212e-14
1.20917e-14
1.20631e-14
1.20357e-14
1.20097e-14
1.19853e-14
1.19627e-14
1.19419e-14
1.19231e-14
1.19064e-14
1.18917e-14
1.18792e-14
1.18688e-14
1.18605e-14
1.18544e-14
1.18504e-14
1.18484e-14
1.20728e-14
1.20591e-14
1.20401e-14
1.20167e-14
1.19899e-14
1.19606e-14
1.19294e-14
1.18971e-14
1.18641e-14
1.18311e-14
1.17983e-14
1.17663e-14
1.17353e-14
1.17056e-14
1.16775e-14
1.16511e-14
1.16266e-14
1.16042e-14
1.15839e-14
1.15658e-14
1.155e-14
1.15365e-14
1.15253e-14
1.15165e-14
1.15099e-14
1.15056e-14
1.15034e-14
1.1734e-14
1.17192e-14
1.16984e-14
1.16728e-14
1.16436e-14
1.16116e-14
1.15776e-14
1.15423e-14
1.15064e-14
1.14704e-14
1.14348e-14
1.14e-14
1.13663e-14
1.13341e-14
1.13035e-14
1.12749e-14
1.12484e-14
1.12242e-14
1.12022e-14
1.11827e-14
1.11656e-14
1.11511e-14
1.1139e-14
1.11295e-14
1.11224e-14
1.11177e-14
1.11154e-14
1.13534e-14
1.13371e-14
1.13144e-14
1.12865e-14
1.12546e-14
1.12196e-14
1.11825e-14
1.1144e-14
1.11049e-14
1.10656e-14
1.10269e-14
1.0989e-14
1.09524e-14
1.09175e-14
1.08844e-14
1.08534e-14
1.08247e-14
1.07984e-14
1.07747e-14
1.07536e-14
1.07352e-14
1.07195e-14
1.07065e-14
1.06963e-14
1.06886e-14
1.06836e-14
1.06812e-14
1.09274e-14
1.09096e-14
1.08848e-14
1.08543e-14
1.08194e-14
1.07813e-14
1.07408e-14
1.06989e-14
1.06563e-14
1.06137e-14
1.05716e-14
1.05305e-14
1.04908e-14
1.04529e-14
1.04171e-14
1.03836e-14
1.03526e-14
1.03242e-14
1.02987e-14
1.0276e-14
1.02562e-14
1.02393e-14
1.02254e-14
1.02143e-14
1.02062e-14
1.02008e-14
1.01982e-14
1.04532e-14
1.04338e-14
1.04067e-14
1.03736e-14
1.03357e-14
1.02942e-14
1.02503e-14
1.02048e-14
1.01586e-14
1.01124e-14
1.00669e-14
1.00225e-14
9.97975e-15
9.93896e-15
9.90045e-15
9.86447e-15
9.83122e-15
9.80086e-15
9.77351e-15
9.74924e-15
9.72811e-15
9.71013e-15
9.69529e-15
9.68356e-15
9.67488e-15
9.6692e-15
9.6664e-15
9.92939e-15
9.90845e-15
9.87921e-15
9.84338e-15
9.80244e-15
9.75771e-15
9.71034e-15
9.66136e-15
9.61165e-15
9.562e-15
9.51306e-15
9.46539e-15
9.41949e-15
9.37575e-15
9.33449e-15
9.29598e-15
9.26045e-15
9.22803e-15
9.19886e-15
9.17301e-15
9.15052e-15
9.1314e-15
9.11564e-15
9.1032e-15
9.094e-15
9.08798e-15
9.08503e-15
9.35654e-15
9.33399e-15
9.30252e-15
9.26398e-15
9.21997e-15
9.17192e-15
9.12108e-15
9.06856e-15
9.01532e-15
8.96219e-15
8.90988e-15
8.859e-15
8.81006e-15
8.76348e-15
8.7196e-15
8.67871e-15
8.64102e-15
8.60668e-15
8.57582e-15
8.54851e-15
8.52478e-15
8.50463e-15
8.48804e-15
8.47495e-15
8.46529e-15
8.45897e-15
8.45588e-15
8.73505e-15
8.71097e-15
8.6774e-15
8.6363e-15
8.58941e-15
8.53825e-15
8.48419e-15
8.4284e-15
8.37192e-15
8.31562e-15
8.26028e-15
8.20652e-15
8.15488e-15
8.1058e-15
8.05965e-15
8.01669e-15
7.97715e-15
7.94119e-15
7.90892e-15
7.8804e-15
7.85565e-15
7.83466e-15
7.81741e-15
7.80382e-15
7.7938e-15
7.78725e-15
7.78404e-15
8.06901e-15
8.04361e-15
8.00822e-15
7.96494e-15
7.9156e-15
7.86183e-15
7.80508e-15
7.74659e-15
7.68745e-15
7.62859e-15
7.5708e-15
7.51475e-15
7.46099e-15
7.40998e-15
7.36208e-15
7.31756e-15
7.27666e-15
7.23952e-15
7.20623e-15
7.17686e-15
7.15141e-15
7.12987e-15
7.11218e-15
7.09827e-15
7.08803e-15
7.08134e-15
7.07808e-15
7.36635e-15
7.33998e-15
7.30324e-15
7.25835e-15
7.20723e-15
7.15157e-15
7.09287e-15
7.0324e-15
6.97125e-15
6.91033e-15
6.85037e-15
6.79194e-15
6.73567e-15
6.68214e-15
6.63178e-15
6.58491e-15
6.54177e-15
6.50251e-15
6.46727e-15
6.43614e-15
6.40914e-15
6.38626e-15
6.36746e-15
6.35267e-15
6.34177e-15
6.33465e-15
6.33117e-15
6.63344e-15
6.60572e-15
6.5671e-15
6.51987e-15
6.46602e-15
6.40733e-15
6.34549e-15
6.28193e-15
6.21786e-15
6.15432e-15
6.09216e-15
6.03208e-15
5.97466e-15
5.92037e-15
5.86955e-15
5.82248e-15
5.77936e-15
5.74031e-15
5.70541e-15
5.67468e-15
5.64812e-15
5.62567e-15
5.60727e-15
5.59281e-15
5.58217e-15
5.57523e-15
5.57184e-15
5.86791e-15
5.84017e-15
5.80161e-15
5.75463e-15
5.70131e-15
5.64352e-15
5.58286e-15
5.52074e-15
5.45834e-15
5.39667e-15
5.33653e-15
5.2786e-15
5.22343e-15
5.17141e-15
5.12288e-15
5.07806e-15
5.03711e-15
5.00013e-15
4.96715e-15
4.93819e-15
4.9132e-15
4.89211e-15
4.87485e-15
4.86132e-15
4.8514e-15
4.84494e-15
4.84179e-15
5.11873e-15
5.09232e-15
5.05568e-15
5.01112e-15
4.96069e-15
4.90617e-15
4.84912e-15
4.79086e-15
4.73252e-15
4.67503e-15
4.61916e-15
4.5655e-15
4.51455e-15
4.46667e-15
4.42212e-15
4.38111e-15
4.34375e-15
4.31009e-15
4.28017e-15
4.25395e-15
4.23138e-15
4.21238e-15
4.19688e-15
4.18477e-15
4.1759e-15
4.17015e-15
4.16735e-15
4.41656e-15
4.39237e-15
4.35887e-15
4.31822e-15
4.27232e-15
4.22283e-15
4.1712e-15
4.11864e-15
4.06619e-15
4.01468e-15
3.96479e-15
3.91707e-15
3.87192e-15
3.82966e-15
3.79051e-15
3.7546e-15
3.72202e-15