/*--------------------------------*- C++ -*----------------------------------*\
| =========                 |                                                 |
| \\      /  F ield         | OpenFOAM: The Open Source CFD Toolbox           |
|  \\    /   O peration     | Version:  2106                                  |
|   \\  /    A nd           | Website:  www.openfoam.com                      |
|    \\/     M anipulation  |                                                 |
\*---------------------------------------------------------------------------*/
FoamFile
{
    version     2.0;
    format      ascii;
    arch        "LSB;label=32;scalar=64";
    class       volScalarField;
    location    "219.99956";
    object      H;
}
// * * * * * * * * * * * * * * * * * * * * * * * * * * * * * * * * * * * * * //

dimensions      [0 0 0 0 0 0 0];

internalField   nonuniform List<scalar> 
3360
(
7.61813e-26
7.8633e-26
8.20448e-26
8.6218e-26
9.09789e-26
9.61712e-26
1.01654e-25
1.07299e-25
1.12995e-25
1.18639e-25
1.24147e-25
1.29444e-25
1.34469e-25
1.39173e-25
1.43521e-25
1.47486e-25
1.51053e-25
1.54214e-25
1.56971e-25
1.59332e-25
1.61311e-25
1.62928e-25
1.64205e-25
1.65168e-25
1.65845e-25
1.66267e-25
1.66462e-25
3.34231e-25
3.46518e-25
3.63856e-25
3.85446e-25
4.10629e-25
4.38827e-25
4.69524e-25
5.02249e-25
5.36564e-25
5.72053e-25
6.08318e-25
6.44973e-25
6.81635e-25
7.17928e-25
7.5348e-25
7.87927e-25
8.20912e-25
8.52089e-25
8.81125e-25
9.0771e-25
9.31558e-25
9.52417e-25
9.70072e-25
9.84351e-25
9.95126e-25
1.00232e-24
1.00591e-24
1.04887e-24
1.09491e-24
1.16033e-24
1.24254e-24
1.33938e-24
1.44891e-24
1.5693e-24
1.69874e-24
1.83537e-24
1.97735e-24
2.12273e-24
2.26964e-24
2.41618e-24
2.56049e-24
2.70077e-24
2.83532e-24
2.96255e-24
3.08106e-24
3.1896e-24
3.28716e-24
3.37295e-24
3.44642e-24
3.50723e-24
3.5553e-24
3.59074e-24
3.61385e-24
3.6251e-24
3.05537e-24
3.20716e-24
3.42429e-24
3.69901e-24
4.02482e-24
4.39564e-24
4.80539e-24
5.24777e-24
5.71616e-24
6.20362e-24
6.70296e-24
7.20688e-24
7.70812e-24
8.19962e-24
8.67467e-24
9.12712e-24
9.5515e-24
9.94318e-24
1.02984e-23
1.06145e-23
1.08894e-23
1.11224e-23
1.13132e-23
1.14624e-23
1.15713e-23
1.16416e-23
1.16755e-23
8.92954e-24
9.40855e-24
1.00951e-23
1.09657e-23
1.20006e-23
1.31805e-23
1.44859e-23
1.58958e-23
1.73881e-23
1.89394e-23
2.05255e-23
2.21219e-23
2.37046e-23
2.52508e-23
2.67394e-23
2.81512e-23
2.947e-23
3.06822e-23
3.17773e-23
3.27479e-23
3.35894e-23
3.42999e-23
3.488e-23
3.53325e-23
3.56618e-23
3.58739e-23
3.5976e-23
2.63423e-23
2.78143e-23
2.99268e-23
3.26081e-23
3.57969e-23
3.94339e-23
4.34576e-23
4.78027e-23
5.23992e-23
5.71736e-23
6.20498e-23
6.69518e-23
7.18049e-23
7.65386e-23
8.10879e-23
8.53952e-23
8.94114e-23
9.30964e-23
9.64196e-23
9.93599e-23
1.01905e-22
1.0405e-22
1.05799e-22
1.07162e-22
1.08152e-22
1.08789e-22
1.09095e-22
7.83113e-23
8.27893e-23
8.92158e-23
9.73737e-23
1.07076e-22
1.1814e-22
1.30377e-22
1.43586e-22
1.5755e-22
1.72044e-22
1.86836e-22
2.01694e-22
2.16391e-22
2.30715e-22
2.44469e-22
2.57482e-22
2.69608e-22
2.80726e-22
2.90748e-22
2.99611e-22
3.0728e-22
3.13743e-22
3.19011e-22
3.23114e-22
3.26096e-22
3.28015e-22
3.28937e-22
2.33737e-22
2.47243e-22
2.66637e-22
2.91269e-22
3.20576e-22
3.54011e-22
3.90999e-22
4.30931e-22
4.73153e-22
5.16979e-22
5.61706e-22
6.06629e-22
6.51064e-22
6.94365e-22
7.35942e-22
7.75274e-22
8.11919e-22
8.45518e-22
8.75801e-22
9.0258e-22
9.25749e-22
9.45277e-22
9.61195e-22
9.73593e-22
9.82607e-22
9.88409e-22
9.912e-22
7.00365e-22
7.4114e-22
7.99694e-22
8.74074e-22
9.62594e-22
1.0636e-21
1.17538e-21
1.29608e-21
1.42372e-21
1.55626e-21
1.69155e-21
1.82748e-21
1.96197e-21
2.09308e-21
2.21902e-21
2.33821e-21
2.44932e-21
2.55125e-21
2.64318e-21
2.72453e-21
2.79498e-21
2.85442e-21
2.90292e-21
2.94074e-21
2.96828e-21
2.98604e-21
2.9946e-21
2.10362e-21
2.22679e-21
2.40378e-21
2.62875e-21
2.89668e-21
3.20265e-21
3.54152e-21
3.90777e-21
4.29548e-21
4.69842e-21
5.11016e-21
5.52426e-21
5.93443e-21
6.33471e-21
6.71965e-21
7.08438e-21
7.42478e-21
7.73746e-21
8.01985e-21
8.27012e-21
8.48719e-21
8.67064e-21
8.82067e-21
8.93795e-21
9.02358e-21
9.07897e-21
9.10578e-21
6.3474e-21
6.72186e-21
7.26022e-21
7.94507e-21
8.76153e-21
9.695e-21
1.07302e-20
1.18506e-20
1.30385e-20
1.4275e-20
1.55408e-20
1.6816e-20
1.80816e-20
1.9319e-20
2.05115e-20
2.16438e-20
2.2703e-20
2.36783e-20
2.45614e-20
2.53463e-20
2.60291e-20
2.66083e-20
2.70838e-20
2.74572e-20
2.77312e-20
2.79096e-20
2.79965e-20
1.92644e-20
2.04125e-20
2.20649e-20
2.41703e-20
2.66848e-20
2.95657e-20
3.27679e-20
3.62425e-20
3.99362e-20
4.37921e-20
4.77507e-20
5.17514e-20
5.57342e-20
5.96415e-20
6.34194e-20
6.70195e-20
7.03994e-20
7.35237e-20
7.63644e-20
7.89004e-20
8.11177e-20
8.30083e-20
8.45699e-20
8.58045e-20
8.67177e-20
8.73174e-20
8.76125e-20
5.90425e-20
6.26169e-20
6.77702e-20
7.43504e-20
8.22305e-20
9.12868e-20
1.01388e-19
1.12389e-19
1.24131e-19
1.36441e-19
1.49134e-19
1.6202e-19
1.7491e-19
1.87618e-19
1.99967e-19
2.11796e-19
2.22963e-19
2.33344e-19
2.42841e-19
2.51375e-19
2.58889e-19
2.65345e-19
2.70724e-19
2.75017e-19
2.78226e-19
2.80358e-19
2.81421e-19
1.83488e-19
1.94853e-19
2.11283e-19
2.32334e-19
2.57647e-19
2.86876e-19
3.19645e-19
3.55533e-19
3.94063e-19
4.34704e-19
4.76876e-19
5.19971e-19
5.63364e-19
6.06433e-19
6.48579e-19
6.89239e-19
7.27904e-19
7.64125e-19
7.97524e-19
8.27789e-19
8.54678e-19
8.78008e-19
8.97646e-19
9.13498e-19
9.25495e-19
9.33572e-19
9.37658e-19
5.82601e-19
6.19891e-19
6.7399e-19
7.43634e-19
8.27856e-19
9.25728e-19
1.03623e-18
1.15815e-18
1.29007e-18
1.43034e-18
1.57711e-18
1.72836e-18
1.88195e-18
2.03571e-18
2.18749e-18
2.33523e-18
2.47698e-18
2.61101e-18
2.73577e-18
2.84995e-18
2.95245e-18
3.04234e-18
3.11889e-18
3.18142e-18
3.22934e-18
3.26203e-18
3.27879e-18
1.90685e-18
2.03435e-18
2.22023e-18
2.46104e-18
2.75445e-18
3.09828e-18
3.49001e-18
3.92638e-18
4.40322e-18
4.91536e-18
5.45669e-18
6.02021e-18
6.59829e-18
7.18288e-18
7.76575e-18
8.33875e-18
8.89409e-18
9.42445e-18
9.92317e-18
1.03843e-17
1.08026e-17
1.11734e-17
1.14925e-17
1.1756e-17
1.19602e-17
1.21011e-17
1.21741e-17
6.51614e-18
6.97655e-18
7.6518e-18
8.53345e-18
9.61749e-18
1.09007e-17
1.23784e-17
1.40428e-17
1.58823e-17
1.78804e-17
2.00161e-17
2.22641e-17
2.45952e-17
2.69775e-17
2.93775e-17
3.17608e-17
3.40936e-17
3.63433e-17
3.84791e-17
4.04726e-17
4.22977e-17
4.39304e-17
4.5348e-17
4.6529e-17
4.74513e-17
4.80921e-17
4.84264e-17
2.36027e-17
2.53806e-17
2.80063e-17
3.1465e-17
3.57609e-17
4.09026e-17
4.68921e-17
5.3718e-17
6.135e-17
6.97357e-17
7.87991e-17
8.84415e-17
9.85437e-17
1.0897e-16
1.19572e-16
1.30195e-16
1.40683e-16
1.50879e-16
1.60636e-16
1.6981e-16
1.78267e-16
1.85881e-16
1.92531e-16
1.98099e-16
2.02467e-16
2.05512e-16
2.07105e-16
9.21494e-17
9.95712e-17
1.10609e-16
1.25276e-16
1.43676e-16
1.65932e-16
1.9214e-16
2.22331e-16
2.56441e-16
2.94296e-16
3.35598e-16
3.7993e-16
4.26763e-16
4.75471e-16
5.25357e-16
5.75674e-16
6.25653e-16
6.74517e-16
7.21509e-16
7.65894e-16
8.0697e-16
8.44069e-16
8.76547e-16
9.0378e-16
9.25153e-16
9.40044e-16
9.47819e-16
3.93605e-16
4.27247e-16
4.77573e-16
5.44931e-16
6.30105e-16
7.33978e-16
8.57287e-16
1.00043e-15
1.16334e-15
1.34532e-15
1.54507e-15
1.76063e-15
1.98944e-15
2.22843e-15
2.47411e-15
2.72272e-15
2.97034e-15
3.21299e-15
3.44676e-15
3.66783e-15
3.87253e-15
4.05738e-15
4.21906e-15
4.35438e-15
4.46028e-15
4.5338e-15
4.572e-15
1.85571e-15
2.02073e-15
2.26837e-15
2.60102e-15
3.02319e-15
3.53975e-15
4.15466e-15
4.87001e-15
5.68519e-15
6.5965e-15
7.59682e-15
8.67577e-15
9.81994e-15
1.10134e-14
1.22383e-14
1.34754e-14
1.4705e-14
1.59072e-14
1.70623e-14
1.81517e-14
1.91572e-14
2.0062e-14
2.08503e-14
2.1507e-14
2.20184e-14
2.23714e-14
2.25536e-14
9.61812e-15
1.04822e-14
1.1778e-14
1.35159e-14
1.57163e-14
1.83991e-14
2.15781e-14
2.52549e-14
2.94166e-14
3.4033e-14
3.90574e-14
4.44272e-14
5.00669e-14
5.58914e-14
6.18093e-14
6.77262e-14
7.35483e-14
7.91843e-14
8.45476e-14
8.95572e-14
9.41385e-14
9.82235e-14
1.0175e-13
1.04663e-13
1.06911e-13
1.0845e-13
1.09237e-13
5.33161e-14
5.80063e-14
6.50114e-14
7.43564e-14
8.61095e-14
1.00331e-13
1.17041e-13
1.36198e-13
1.57685e-13
1.81309e-13
2.06805e-13
2.33845e-13
2.6205e-13
2.91009e-13
3.20284e-13
3.49429e-13
3.77998e-13
4.05554e-13
4.3168e-13
4.55982e-13
4.78099e-13
4.97702e-13
5.14505e-13
5.28261e-13
5.38769e-13
5.45872e-13
5.49458e-13
2.983e-13
3.2376e-13
3.61769e-13
4.12504e-13
4.76463e-13
5.5423e-13
6.46333e-13
7.53146e-13
8.74806e-13
1.01115e-12
1.16169e-12
1.32552e-12
1.50135e-12
1.68746e-12
1.88172e-12
2.08157e-12
2.28406e-12
2.48592e-12
2.68357e-12
2.87323e-12
3.05103e-12
3.21314e-12
3.3558e-12
3.47552e-12
3.56911e-12
3.63374e-12
3.66703e-12
1.66093e-12
1.81155e-12
2.0391e-12
2.34778e-12
2.74466e-12
3.23823e-12
3.83715e-12
4.54878e-12
5.37755e-12
6.32308e-12
7.37859e-12
8.53006e-12
9.75636e-12
1.10308e-11
1.23233e-11
1.36034e-11
1.48424e-11
1.60155e-11
1.71024e-11
1.80877e-11
1.89602e-11
1.97124e-11
2.03401e-11
2.08408e-11
2.12143e-11
2.14613e-11
2.15835e-11
1.03043e-11
1.13233e-11
1.28483e-11
1.48795e-11
1.7413e-11
2.04261e-11
2.38704e-11
2.76741e-11
3.17495e-11
3.6004e-11
4.03481e-11
4.47013e-11
4.89923e-11
5.31592e-11
5.71483e-11
6.09142e-11
6.44192e-11
6.76336e-11
7.05355e-11
7.31106e-11
7.53467e-11
7.72388e-11
7.87879e-11
8.00004e-11
8.08865e-11
8.14603e-11
8.1738e-11
5.21093e-11
5.60212e-11
6.17154e-11
6.90723e-11
7.79992e-11
8.84039e-11
1.00182e-10
1.13213e-10
1.2736e-10
1.42434e-10
1.58219e-10
1.74482e-10
1.90981e-10
2.07465e-10
2.23691e-10
2.3942e-10
2.54429e-10
2.68515e-10
2.815e-10
2.93234e-10
3.03599e-10
3.12507e-10
3.19904e-10
3.25765e-10
3.30094e-10
3.32921e-10
3.34299e-10
1.73283e-10
1.86725e-10
2.06583e-10
2.32759e-10
2.65321e-10
3.04377e-10
3.50013e-10
4.02246e-10
4.60979e-10
5.25975e-10
5.96827e-10
6.72951e-10
7.53577e-10
8.37753e-10
9.24354e-10
1.01239e-09
1.10045e-09
1.18704e-09
1.27064e-09
1.34971e-09
1.42276e-09
1.48838e-09
1.54529e-09
1.59237e-09
1.62855e-09
1.65312e-09
1.66556e-09
5.27256e-10
5.73776e-10
6.43543e-10
7.37349e-10
8.57543e-10
1.00625e-09
1.18585e-09
1.39868e-09
1.64674e-09
1.93142e-09
2.25326e-09
2.61177e-09
3.00519e-09
3.43044e-09
3.88302e-09
4.35708e-09
4.84552e-09
5.34015e-09
5.83104e-09
6.30749e-09
6.75847e-09
7.17299e-09
7.54035e-09
7.85046e-09
8.09407e-09
8.263e-09
8.35028e-09
1.68462e-09
1.84403e-09
2.08489e-09
2.41178e-09
2.83244e-09
3.35627e-09
3.99318e-09
4.75279e-09
5.64345e-09
6.66889e-09
7.82879e-09
9.11844e-09
1.05282e-08
1.20436e-08
1.36449e-08
1.53076e-08
1.70035e-08
1.87013e-08
2.03677e-08
2.19681e-08
2.3468e-08
2.48338e-08
2.60335e-08
2.7038e-08
2.78214e-08
2.83611e-08
2.86384e-08
5.67711e-09
6.14638e-09
6.84587e-09
7.77804e-09
8.95101e-09
1.0374e-08
1.20542e-08
1.39944e-08
1.6191e-08
1.86327e-08
2.13001e-08
2.41654e-08
2.71933e-08
3.03419e-08
3.3563e-08
3.68049e-08
4.0013e-08
4.31321e-08
4.61062e-08
4.88809e-08
5.14051e-08
5.36319e-08
5.5534e-08
5.70881e-08
5.8274e-08
5.90753e-08
5.94798e-08
1.63338e-08
1.72836e-08
1.86637e-08
2.04441e-08
2.26011e-08
2.51106e-08
2.79446e-08
3.10684e-08
3.44397e-08
3.80084e-08
4.17175e-08
4.55039e-08
4.93008e-08
5.30621e-08
5.67519e-08
6.0331e-08
6.37595e-08
6.69987e-08
7.00132e-08
7.27703e-08
7.5241e-08
7.74006e-08
7.92284e-08
8.07077e-08
8.18263e-08
8.25756e-08
8.29507e-08
3.45006e-08
3.56999e-08
3.73881e-08
3.94749e-08
4.18723e-08
4.45326e-08
4.74072e-08
5.04443e-08
5.35927e-08
5.68032e-08
6.00296e-08
6.32298e-08
6.63659e-08
6.94049e-08
7.23176e-08
7.50791e-08
7.76675e-08
8.0064e-08
8.22533e-08
8.42222e-08
8.59603e-08
8.7459e-08
8.87122e-08
8.97157e-08
9.04671e-08
9.09662e-08
9.12143e-08
5.2321e-08
5.32383e-08
5.45111e-08
5.60586e-08
5.78093e-08
5.97024e-08
6.16835e-08
6.3706e-08
6.57306e-08
6.77252e-08
6.96641e-08
7.15269e-08
7.32986e-08
7.49681e-08
7.65276e-08
7.79716e-08
7.92967e-08
8.04999e-08
8.15808e-08
8.25386e-08
8.33733e-08
8.40851e-08
8.46748e-08
8.51432e-08
8.54917e-08
8.57219e-08
8.58359e-08
6.28475e-08
6.32723e-08
6.38479e-08
6.45263e-08
6.52657e-08
6.60313e-08
6.67953e-08
6.75367e-08
6.82408e-08
6.88981e-08
6.95036e-08
7.00555e-08
7.05545e-08
7.10028e-08
7.14035e-08
7.17601e-08
7.20762e-08
7.23552e-08
7.25999e-08
7.28128e-08
7.2996e-08
7.31506e-08
7.3278e-08
7.3379e-08
7.34543e-08
7.35042e-08
7.35291e-08
6.39488e-08
6.39418e-08
6.39203e-08
6.38759e-08
6.38019e-08
6.36946e-08
6.35528e-08
6.33782e-08
6.31746e-08
6.29473e-08
6.27023e-08
6.24463e-08
6.21857e-08
6.19264e-08
6.16739e-08
6.14327e-08
6.12065e-08
6.09984e-08
6.08104e-08
6.0644e-08
6.05e-08
6.03786e-08
6.02796e-08
6.02026e-08
6.01466e-08
6.01106e-08
6.00933e-08
5.83433e-08
5.81062e-08
5.7772e-08
5.73577e-08
5.68786e-08
5.63494e-08
5.57838e-08
5.51947e-08
5.4594e-08
5.39926e-08
5.33999e-08
5.28241e-08
5.22719e-08
5.17489e-08
5.12594e-08
5.08068e-08
5.03931e-08
5.002e-08
4.96881e-08
4.93974e-08
4.91477e-08
4.89381e-08
4.87675e-08
4.86346e-08
4.85375e-08
4.84748e-08
4.84444e-08
5.00961e-08
4.97969e-08
4.93811e-08
4.88746e-08
4.83004e-08
4.76787e-08
4.70276e-08
4.63624e-08
4.56966e-08
4.5041e-08
4.44048e-08
4.37951e-08
4.32175e-08
4.26763e-08
4.21744e-08
4.17139e-08
4.12958e-08
4.09207e-08
4.05886e-08
4.02988e-08
4.00504e-08
3.98423e-08
3.96732e-08
3.95414e-08
3.94453e-08
3.9383e-08
3.93529e-08
4.19949e-08
4.17194e-08
4.13383e-08
4.0877e-08
4.03574e-08
3.97988e-08
3.92179e-08
3.86286e-08
3.80426e-08
3.74692e-08
3.69159e-08
3.63883e-08
3.58908e-08
3.54264e-08
3.49973e-08
3.46047e-08
3.42492e-08
3.39309e-08
3.36494e-08
3.34041e-08
3.31941e-08
3.30183e-08
3.28754e-08
3.27641e-08
3.26829e-08
3.26303e-08
3.26048e-08
3.52238e-08
3.49992e-08
3.46892e-08
3.43146e-08
3.38938e-08
3.34426e-08
3.29746e-08
3.2501e-08
3.20311e-08
3.15723e-08
3.11303e-08
3.07096e-08
3.03133e-08
2.99438e-08
2.96026e-08
2.92906e-08
2.90083e-08
2.87556e-08
2.85323e-08
2.83376e-08
2.81709e-08
2.80313e-08
2.79178e-08
2.78294e-08
2.77648e-08
2.7723e-08
2.77027e-08
2.99783e-08
2.98045e-08
2.95646e-08
2.9275e-08
2.89498e-08
2.86013e-08
2.82399e-08
2.78744e-08
2.75118e-08
2.71578e-08
2.68168e-08
2.64921e-08
2.61863e-08
2.59009e-08
2.56373e-08
2.53962e-08
2.51777e-08
2.49819e-08
2.48086e-08
2.46575e-08
2.4528e-08
2.44195e-08
2.43312e-08
2.42623e-08
2.42119e-08
2.41793e-08
2.41635e-08
2.60597e-08
2.59276e-08
2.57451e-08
2.55248e-08
2.52772e-08
2.50118e-08
2.47364e-08
2.44577e-08
2.41808e-08
2.39103e-08
2.36494e-08
2.34007e-08
2.31661e-08
2.2947e-08
2.27443e-08
2.25586e-08
2.23901e-08
2.2239e-08
2.2105e-08
2.19879e-08
2.18874e-08
2.18031e-08
2.17343e-08
2.16807e-08
2.16414e-08
2.16159e-08
2.16035e-08
2.31741e-08
2.30736e-08
2.29349e-08
2.27671e-08
2.25785e-08
2.23759e-08
2.21655e-08
2.19522e-08
2.17401e-08
2.15324e-08
2.13318e-08
2.11402e-08
2.09592e-08
2.07898e-08
2.06328e-08
2.04886e-08
2.03576e-08
2.02399e-08
2.01354e-08
2.00439e-08
1.99652e-08
1.9899e-08
1.9845e-08
1.98027e-08
1.97718e-08
1.97516e-08
1.97418e-08
2.10551e-08
2.0978e-08
2.08715e-08
2.07425e-08
2.05973e-08
2.04411e-08
2.02786e-08
2.01136e-08
1.99491e-08
1.97878e-08
1.96316e-08
1.94821e-08
1.93406e-08
1.92078e-08
1.90845e-08
1.89711e-08
1.88677e-08
1.87746e-08
1.86918e-08
1.86192e-08
1.85566e-08
1.85039e-08
1.84608e-08
1.8427e-08
1.84022e-08
1.8386e-08
1.83781e-08
1.94944e-08
1.94344e-08
1.93513e-08
1.92507e-08
1.91373e-08
1.90151e-08
1.88877e-08
1.8758e-08
1.86285e-08
1.85012e-08
1.83776e-08
1.82591e-08
1.81465e-08
1.80407e-08
1.79422e-08
1.78513e-08
1.77683e-08
1.76934e-08
1.76266e-08
1.75679e-08
1.75172e-08
1.74744e-08
1.74394e-08
1.74118e-08
1.73916e-08
1.73784e-08
1.7372e-08
1.83381e-08
1.82907e-08
1.82249e-08
1.81451e-08
1.80549e-08
1.79576e-08
1.7856e-08
1.77523e-08
1.76485e-08
1.75462e-08
1.74466e-08
1.73509e-08
1.72597e-08
1.71738e-08
1.70935e-08
1.70193e-08
1.69514e-08
1.689e-08
1.6835e-08
1.67866e-08
1.67447e-08
1.67093e-08
1.66802e-08
1.66573e-08
1.66404e-08
1.66294e-08
1.6624e-08
1.74759e-08
1.74376e-08
1.73846e-08
1.73201e-08
1.72471e-08
1.71683e-08
1.70857e-08
1.70012e-08
1.69164e-08
1.68326e-08
1.67509e-08
1.66721e-08
1.65968e-08
1.65257e-08
1.64591e-08
1.63973e-08
1.63406e-08
1.62892e-08
1.62431e-08
1.62024e-08
1.6167e-08
1.61371e-08
1.61125e-08
1.6093e-08
1.60787e-08
1.60693e-08
1.60647e-08
1.68285e-08
1.67971e-08
1.67535e-08
1.67004e-08
1.66403e-08
1.65751e-08
1.65068e-08
1.64366e-08
1.63661e-08
1.62962e-08
1.62278e-08
1.61617e-08
1.60983e-08
1.60383e-08
1.5982e-08
1.59295e-08
1.58813e-08
1.58374e-08
1.5798e-08
1.57631e-08
1.57328e-08
1.5707e-08
1.56857e-08
1.5669e-08
1.56565e-08
1.56484e-08
1.56444e-08
1.63394e-08
1.63131e-08
1.62767e-08
1.62322e-08
1.61817e-08
1.61269e-08
1.60692e-08
1.60099e-08
1.59501e-08
1.58907e-08
1.58324e-08
1.57759e-08
1.57216e-08
1.567e-08
1.56214e-08
1.55762e-08
1.55344e-08
1.54963e-08
1.54619e-08
1.54315e-08
1.54049e-08
1.53823e-08
1.53637e-08
1.53489e-08
1.5338e-08
1.53308e-08
1.53272e-08
1.59678e-08
1.59455e-08
1.59144e-08
1.58765e-08
1.58334e-08
1.57864e-08
1.57369e-08
1.56859e-08
1.56343e-08
1.55829e-08
1.55323e-08
1.54831e-08
1.54358e-08
1.53907e-08
1.53481e-08
1.53083e-08
1.52714e-08
1.52378e-08
1.52074e-08
1.51803e-08
1.51567e-08
1.51366e-08
1.51199e-08
1.51067e-08
1.50969e-08
1.50905e-08
1.50873e-08
1.56844e-08
1.5665e-08
1.56381e-08
1.56052e-08
1.55677e-08
1.55268e-08
1.54835e-08
1.54389e-08
1.53936e-08
1.53484e-08
1.53038e-08
1.52603e-08
1.52184e-08
1.51783e-08
1.51403e-08
1.51048e-08
1.50718e-08
1.50416e-08
1.50142e-08
1.49899e-08
1.49686e-08
1.49504e-08
1.49353e-08
1.49233e-08
1.49144e-08
1.49085e-08
1.49056e-08
1.54673e-08
1.54503e-08
1.54266e-08
1.53976e-08
1.53644e-08
1.53282e-08
1.52899e-08
1.52502e-08
1.52098e-08
1.51694e-08
1.51295e-08
1.50905e-08
1.50527e-08
1.50165e-08
1.49822e-08
1.495e-08
1.49201e-08
1.48926e-08
1.48677e-08
1.48455e-08
1.4826e-08
1.48093e-08
1.47955e-08
1.47844e-08
1.47763e-08
1.47708e-08
1.47682e-08
1.53007e-08
1.52855e-08
1.52643e-08
1.52383e-08
1.52086e-08
1.51761e-08
1.51416e-08
1.51058e-08
1.50693e-08
1.50327e-08
1.49965e-08
1.49609e-08
1.49265e-08
1.48935e-08
1.4862e-08
1.48325e-08
1.4805e-08
1.47797e-08
1.47567e-08
1.47361e-08
1.47181e-08
1.47026e-08
1.46898e-08
1.46795e-08
1.46719e-08
1.46669e-08
1.46644e-08
1.51726e-08
1.51589e-08
1.51396e-08
1.51161e-08
1.5089e-08
1.50594e-08
1.50279e-08
1.49952e-08
1.49618e-08
1.49283e-08
1.48949e-08
1.48622e-08
1.48304e-08
1.47999e-08
1.47708e-08
1.47433e-08
1.47178e-08
1.46942e-08
1.46728e-08
1.46536e-08
1.46367e-08
1.46222e-08
1.46102e-08
1.46006e-08
1.45934e-08
1.45887e-08
1.45863e-08
1.5074e-08
1.50614e-08
1.50437e-08
1.5022e-08
1.49972e-08
1.49699e-08
1.49408e-08
1.49106e-08
1.48796e-08
1.48485e-08
1.48175e-08
1.4787e-08
1.47574e-08
1.47288e-08
1.47016e-08
1.46759e-08
1.46519e-08
1.46297e-08
1.46095e-08
1.45914e-08
1.45755e-08
1.45618e-08
1.45505e-08
1.45414e-08
1.45346e-08
1.45301e-08
1.45279e-08
1.49979e-08
1.49862e-08
1.49698e-08
1.49496e-08
1.49265e-08
1.49011e-08
1.48739e-08
1.48457e-08
1.48167e-08
1.47875e-08
1.47584e-08
1.47297e-08
1.47018e-08
1.46749e-08
1.46491e-08
1.46248e-08
1.46021e-08
1.45811e-08
1.45619e-08
1.45447e-08
1.45296e-08
1.45166e-08
1.45057e-08
1.4497e-08
1.44906e-08
1.44863e-08
1.44841e-08
1.49389e-08
1.49279e-08
1.49126e-08
1.48936e-08
1.48719e-08
1.48479e-08
1.48224e-08
1.47957e-08
1.47683e-08
1.47407e-08
1.47131e-08
1.46859e-08
1.46594e-08
1.46337e-08
1.46092e-08
1.4586e-08
1.45643e-08
1.45442e-08
1.45259e-08
1.45095e-08
1.4495e-08
1.44825e-08
1.44721e-08
1.44637e-08
1.44575e-08
1.44534e-08
1.44513e-08
1.48927e-08
1.48823e-08
1.48678e-08
1.48498e-08
1.48292e-08
1.48064e-08
1.47821e-08
1.47567e-08
1.47306e-08
1.47042e-08
1.46779e-08
1.46519e-08
1.46264e-08
1.46019e-08
1.45784e-08
1.45561e-08
1.45352e-08
1.45159e-08
1.44983e-08
1.44824e-08
1.44684e-08
1.44564e-08
1.44463e-08
1.44383e-08
1.44322e-08
1.44283e-08
1.44263e-08
1.48559e-08
1.48459e-08
1.4832e-08
1.48148e-08
1.4795e-08
1.47732e-08
1.47499e-08
1.47255e-08
1.47004e-08
1.4675e-08
1.46497e-08
1.46246e-08
1.46001e-08
1.45764e-08
1.45537e-08
1.45321e-08
1.45119e-08
1.44932e-08
1.44761e-08
1.44608e-08
1.44472e-08
1.44355e-08
1.44257e-08
1.44179e-08
1.44121e-08
1.44082e-08
1.44063e-08
1.48253e-08
1.48157e-08
1.48023e-08
1.47857e-08
1.47666e-08
1.47455e-08
1.4723e-08
1.46994e-08
1.46751e-08
1.46505e-08
1.46259e-08
1.46016e-08
1.45778e-08
1.45547e-08
1.45326e-08
1.45117e-08
1.4492e-08
1.44738e-08
1.44571e-08
1.44422e-08
1.44289e-08
1.44175e-08
1.4408e-08
1.44004e-08
1.43946e-08
1.43909e-08
1.4389e-08
1.47985e-08
1.47892e-08
1.47761e-08
1.476e-08
1.47414e-08
1.47209e-08
1.46989e-08
1.46759e-08
1.46522e-08
1.46282e-08
1.46042e-08
1.45804e-08
1.45572e-08
1.45346e-08
1.4513e-08
1.44925e-08
1.44732e-08
1.44554e-08
1.44391e-08
1.44244e-08
1.44114e-08
1.44002e-08
1.43909e-08
1.43834e-08
1.43778e-08
1.4374e-08
1.43722e-08
1.47732e-08
1.47641e-08
1.47512e-08
1.47354e-08
1.47172e-08
1.46971e-08
1.46755e-08
1.46529e-08
1.46296e-08
1.4606e-08
1.45824e-08
1.4559e-08
1.45361e-08
1.45139e-08
1.44926e-08
1.44724e-08
1.44534e-08
1.44358e-08
1.44198e-08
1.44053e-08
1.43925e-08
1.43815e-08
1.43722e-08
1.43648e-08
1.43593e-08
1.43557e-08
1.43538e-08
1.47471e-08
1.4738e-08
1.47254e-08
1.47097e-08
1.46917e-08
1.46718e-08
1.46504e-08
1.46281e-08
1.4605e-08
1.45817e-08
1.45583e-08
1.45351e-08
1.45124e-08
1.44904e-08
1.44693e-08
1.44493e-08
1.44305e-08
1.44131e-08
1.43971e-08
1.43828e-08
1.43701e-08
1.43592e-08
1.435e-08
1.43427e-08
1.43372e-08
1.43336e-08
1.43318e-08
1.47179e-08
1.4709e-08
1.46963e-08
1.46808e-08
1.46628e-08
1.46429e-08
1.46216e-08
1.45993e-08
1.45763e-08
1.4553e-08
1.45297e-08
1.45066e-08
1.44839e-08
1.4462e-08
1.4441e-08
1.4421e-08
1.44022e-08
1.43848e-08
1.43689e-08
1.43546e-08
1.4342e-08
1.43311e-08
1.4322e-08
1.43147e-08
1.43092e-08
1.43056e-08
1.43038e-08
1.46836e-08
1.46745e-08
1.46618e-08
1.46462e-08
1.46281e-08
1.46081e-08
1.45867e-08
1.45643e-08
1.45412e-08
1.45177e-08
1.44943e-08
1.4471e-08
1.44483e-08
1.44263e-08
1.44051e-08
1.43851e-08
1.43662e-08
1.43488e-08
1.43328e-08
1.43185e-08
1.43058e-08
1.42948e-08
1.42857e-08
1.42784e-08
1.42729e-08
1.42693e-08
1.42675e-08
1.46415e-08
1.46323e-08
1.46194e-08
1.46035e-08
1.45852e-08
1.45649e-08
1.45432e-08
1.45205e-08
1.4497e-08
1.44733e-08
1.44495e-08
1.4426e-08
1.4403e-08
1.43807e-08
1.43593e-08
1.4339e-08
1.432e-08
1.43023e-08
1.42862e-08
1.42717e-08
1.42589e-08
1.42478e-08
1.42386e-08
1.42312e-08
1.42257e-08
1.4222e-08
1.42202e-08
1.4589e-08
1.45796e-08
1.45665e-08
1.45502e-08
1.45314e-08
1.45107e-08
1.44884e-08
1.44652e-08
1.44412e-08
1.44169e-08
1.43927e-08
1.43686e-08
1.43451e-08
1.43224e-08
1.43006e-08
1.42799e-08
1.42605e-08
1.42425e-08
1.42261e-08
1.42113e-08
1.41983e-08
1.41871e-08
1.41777e-08
1.41702e-08
1.41646e-08
1.41609e-08
1.4159e-08
1.45233e-08
1.45136e-08
1.44999e-08
1.44831e-08
1.44637e-08
1.44423e-08
1.44193e-08
1.43953e-08
1.43706e-08
1.43455e-08
1.43205e-08
1.42958e-08
1.42716e-08
1.42481e-08
1.42257e-08
1.42045e-08
1.41845e-08
1.41661e-08
1.41493e-08
1.41341e-08
1.41208e-08
1.41093e-08
1.40997e-08
1.4092e-08
1.40863e-08
1.40825e-08
1.40806e-08
1.4441e-08
1.44308e-08
1.44165e-08
1.4399e-08
1.43787e-08
1.43563e-08
1.43324e-08
1.43074e-08
1.42816e-08
1.42556e-08
1.42295e-08
1.42038e-08
1.41787e-08
1.41544e-08
1.41312e-08
1.41091e-08
1.40885e-08
1.40694e-08
1.4052e-08
1.40364e-08
1.40226e-08
1.40108e-08
1.40009e-08
1.3993e-08
1.39871e-08
1.39832e-08
1.39812e-08
1.43383e-08
1.43276e-08
1.43125e-08
1.4294e-08
1.42726e-08
1.42491e-08
1.42239e-08
1.41976e-08
1.41705e-08
1.41432e-08
1.41158e-08
1.40889e-08
1.40626e-08
1.40371e-08
1.40128e-08
1.39898e-08
1.39683e-08
1.39484e-08
1.39303e-08
1.3914e-08
1.38996e-08
1.38873e-08
1.3877e-08
1.38688e-08
1.38627e-08
1.38587e-08
1.38567e-08
1.42112e-08
1.41998e-08
1.41838e-08
1.4164e-08
1.41413e-08
1.41163e-08
1.40895e-08
1.40616e-08
1.40329e-08
1.40039e-08
1.3975e-08
1.39464e-08
1.39186e-08
1.38918e-08
1.38662e-08
1.38419e-08
1.38193e-08
1.37984e-08
1.37793e-08
1.37622e-08
1.37472e-08
1.37343e-08
1.37235e-08
1.37149e-08
1.37085e-08
1.37043e-08
1.37022e-08
1.4055e-08
1.40428e-08
1.40256e-08
1.40044e-08
1.398e-08
1.39532e-08
1.39245e-08
1.38946e-08
1.38639e-08
1.38329e-08
1.3802e-08
1.37716e-08
1.3742e-08
1.37135e-08
1.36862e-08
1.36605e-08
1.36365e-08
1.36143e-08
1.35941e-08
1.35761e-08
1.35602e-08
1.35466e-08
1.35352e-08
1.35262e-08
1.35194e-08
1.3515e-08
1.35128e-08
1.38648e-08
1.38515e-08
1.38329e-08
1.38099e-08
1.37836e-08
1.37546e-08
1.37236e-08
1.36913e-08
1.36583e-08
1.36249e-08
1.35918e-08
1.35591e-08
1.35273e-08
1.34967e-08
1.34675e-08
1.344e-08
1.34144e-08
1.33907e-08
1.33692e-08
1.335e-08
1.33331e-08
1.33186e-08
1.33066e-08
1.3297e-08
1.32898e-08
1.32851e-08
1.32828e-08
1.36349e-08
1.36204e-08
1.36002e-08
1.35752e-08
1.35465e-08
1.35149e-08
1.34813e-08
1.34463e-08
1.34104e-08
1.33743e-08
1.33384e-08
1.33031e-08
1.32688e-08
1.32358e-08
1.32044e-08
1.31748e-08
1.31472e-08
1.31218e-08
1.30988e-08
1.30782e-08
1.30601e-08
1.30446e-08
1.30317e-08
1.30215e-08
1.30139e-08
1.30088e-08
1.30064e-08
1.33597e-08
1.33439e-08
1.33216e-08
1.32943e-08
1.32629e-08
1.32285e-08
1.31917e-08
1.31535e-08
1.31144e-08
1.30751e-08
1.30361e-08
1.29977e-08
1.29605e-08
1.29248e-08
1.28907e-08
1.28587e-08
1.2829e-08
1.28016e-08
1.27768e-08
1.27546e-08
1.27352e-08
1.27185e-08
1.27047e-08
1.26937e-08
1.26856e-08
1.26802e-08
1.26776e-08
1.30333e-08
1.30159e-08
1.29915e-08
1.29614e-08
1.2927e-08
1.28892e-08
1.2849e-08
1.28071e-08
1.27644e-08
1.27215e-08
1.26789e-08
1.26371e-08
1.25966e-08
1.25577e-08
1.25208e-08
1.24861e-08
1.24539e-08
1.24242e-08
1.23974e-08
1.23735e-08
1.23525e-08
1.23346e-08
1.23197e-08
1.23079e-08
1.22991e-08
1.22934e-08
1.22905e-08
1.26499e-08
1.26307e-08
1.26038e-08
1.25708e-08
1.25329e-08
1.24914e-08
1.24473e-08
1.24014e-08
1.23547e-08
1.23077e-08
1.22612e-08
1.22156e-08
1.21715e-08
1.21292e-08
1.2089e-08
1.20513e-08
1.20163e-08
1.19842e-08
1.19552e-08
1.19293e-08
1.19067e-08
1.18873e-08
1.18713e-08
1.18586e-08
1.18492e-08
1.18429e-08
1.18399e-08
1.2204e-08
1.21828e-08
1.21533e-08
1.2117e-08
1.20754e-08
1.20299e-08
1.19815e-08
1.19313e-08
1.18801e-08
1.18288e-08
1.1778e-08
1.17283e-08
1.16802e-08
1.16342e-08
1.15906e-08
1.15496e-08
1.15117e-08
1.1477e-08
1.14455e-08
1.14176e-08
1.13931e-08
1.13723e-08
1.1355e-08
1.13413e-08
1.13312e-08
1.13245e-08
1.13212e-08
1.1691e-08
1.16678e-08
1.16354e-08
1.15956e-08
1.15501e-08
1.15002e-08
1.14473e-08
1.13924e-08
1.13366e-08
1.12807e-08
1.12254e-08
1.11713e-08
1.11191e-08
1.10692e-08
1.10219e-08
1.09776e-08
1.09366e-08
1.08991e-08
1.08652e-08
1.0835e-08
1.08087e-08
1.07863e-08
1.07677e-08
1.0753e-08
1.07421e-08
1.0735e-08
1.07315e-08
1.11077e-08
1.10824e-08
1.1047e-08
1.10036e-08
1.09539e-08
1.08996e-08
1.0842e-08
1.07823e-08
1.07217e-08
1.0661e-08
1.06011e-08
1.05426e-08
1.04862e-08
1.04323e-08
1.03813e-08
1.03336e-08
1.02895e-08
1.02492e-08
1.02128e-08
1.01805e-08
1.01523e-08
1.01283e-08
1.01084e-08
1.00927e-08
1.00811e-08
1.00735e-08
1.00697e-08
1.04526e-08
1.04251e-08
1.03867e-08
1.03396e-08
1.02859e-08
1.02271e-08
1.01648e-08
1.01005e-08
1.00351e-08
9.96973e-09
9.90528e-09
9.84246e-09
9.7819e-09
9.72414e-09
9.6696e-09
9.61864e-09
9.57155e-09
9.52854e-09
9.48979e-09
9.45539e-09
9.42543e-09
9.39993e-09
9.37888e-09
9.36224e-09
9.34993e-09
9.34185e-09
9.33788e-09
9.72664e-09
9.69707e-09
9.65581e-09
9.60528e-09
9.54759e-09
9.4846e-09
9.41797e-09
9.34913e-09
9.27933e-09
9.20967e-09
9.14107e-09
9.07431e-09
9.01007e-09
8.94889e-09
8.8912e-09
8.83738e-09
8.7877e-09
8.74239e-09
8.70161e-09
8.66546e-09
8.63401e-09
8.60726e-09
8.5852e-09
8.56778e-09
8.5549e-09
8.54646e-09
8.54231e-09
8.93446e-09
8.90307e-09
8.85931e-09
8.80576e-09
8.74469e-09
8.67808e-09
8.6077e-09
8.53507e-09
8.46154e-09
8.38824e-09
8.31614e-09
8.24607e-09
8.17872e-09
8.11465e-09
8.05432e-09
7.9981e-09
7.94627e-09
7.89906e-09
7.85662e-09
7.81904e-09
7.78637e-09
7.75862e-09
7.73576e-09
7.71771e-09
7.70438e-09
7.69565e-09
7.69137e-09
8.08483e-09
8.05193e-09
8.0061e-09
7.95007e-09
7.88624e-09
7.81671e-09
7.74334e-09
7.66775e-09
7.59132e-09
7.51525e-09
7.44055e-09
7.36806e-09
7.2985e-09
7.23242e-09
7.1703e-09
7.11249e-09
7.05928e-09
7.01087e-09
6.9674e-09
6.92896e-09
6.89558e-09
6.86725e-09
6.84393e-09
6.82554e-09
6.81197e-09
6.80309e-09
6.79874e-09
7.18937e-09
7.15548e-09
7.10831e-09
7.0507e-09
6.98516e-09
6.91387e-09
6.83876e-09
6.7615e-09
6.68353e-09
6.60606e-09
6.53013e-09
6.45658e-09
6.38611e-09
6.31929e-09
6.25658e-09
6.19832e-09
6.14477e-09
6.09612e-09
6.0525e-09
6.01397e-09
5.98055e-09
5.95223e-09
5.92893e-09
5.91057e-09
5.89704e-09
5.88819e-09
5.88385e-09
6.26606e-09
6.2319e-09
6.18441e-09
6.12648e-09
6.06067e-09
5.98921e-09
5.91406e-09
5.83691e-09
5.7592e-09
5.68214e-09
5.60676e-09
5.53388e-09
5.46419e-09
5.39824e-09
5.33644e-09
5.27912e-09
5.22652e-09
5.17881e-09
5.13609e-09
5.0984e-09
5.06575e-09
5.0381e-09
5.01539e-09
4.99751e-09
4.98433e-09
4.97572e-09
4.9715e-09
5.33901e-09
5.3055e-09
5.25895e-09
5.20226e-09
5.13795e-09
5.06825e-09
4.99507e-09
4.92007e-09
4.84463e-09
4.76987e-09
4.69673e-09
4.62592e-09
4.55811e-09
4.4939e-09
4.43373e-09
4.37791e-09
4.32667e-09
4.28016e-09
4.23849e-09
4.20171e-09
4.16983e-09
4.14283e-09
4.12064e-09
4.10317e-09
4.09029e-09
4.08187e-09
4.07775e-09
4.43355e-09
4.40114e-09
4.35614e-09
4.30136e-09
4.23924e-09
4.17194e-09
4.10141e-09
4.02931e-09
3.95701e-09
3.88566e-09
3.81618e-09
3.7493e-09
3.68563e-09
3.6256e-09
3.56956e-09
3.51777e-09
3.47038e-09
3.42751e-09
3.38922e-09
3.3555e-09
3.32634e-09
3.30167e-09
3.28143e-09
3.26551e-09
3.25379e-09
3.24613e-09
3.24238e-09
3.56879e-09
3.53898e-09
3.49769e-09
3.44757e-09
3.39096e-09
3.32991e-09
3.26615e-09
3.20119e-09
3.13625e-09
3.07235e-09
3.0103e-09
2.95074e-09
2.89418e-09
2.84099e-09
2.79145e-09
2.74574e-09
2.704e-09
2.66629e-09
2.63265e-09
2.60306e-09
2.5775e-09
2.5559e-09
2.53817e-09
2.52424e-09
2.51397e-09
2.50727e-09
2.50398e-09
2.79302e-09
2.76695e-09
2.73089e-09
2.6872e-09
2.63797e-09
2.58499e-09
2.5298e-09
2.4737e-09
2.41776e-09
2.36283e-09
2.30961e-09
2.25863e-09
2.21031e-09
2.16494e-09
2.12275e-09
2.08388e-09
2.04842e-09
2.01641e-09
1.98788e-09
1.96281e-09
1.94115e-09
1.92285e-09
1.90784e-09
1.89603e-09
1.88733e-09
1.88164e-09
1.87886e-09
2.1289e-09
2.10695e-09
2.07662e-09
2.03993e-09
1.99865e-09
1.9543e-09
1.9082e-09
1.86142e-09
1.81485e-09
1.76921e-09
1.72506e-09
1.68285e-09
1.64288e-09
1.60542e-09
1.57061e-09