/*--------------------------------*- C++ -*----------------------------------*\
| =========                 |                                                 |
| \\      /  F ield         | OpenFOAM: The Open Source CFD Toolbox           |
|  \\    /   O peration     | Version:  2106                                  |
|   \\  /    A nd           | Website:  www.openfoam.com                      |
|    \\/     M anipulation  |                                                 |
\*---------------------------------------------------------------------------*/
FoamFile
{
    version     2.0;
    format      ascii;
    arch        "LSB;label=32;scalar=64";
    class       volScalarField;
    location    "219.99956";
    object      I-C4H51_0;
}
// * * * * * * * * * * * * * * * * * * * * * * * * * * * * * * * * * * * * * //

dimensions      [0 0 0 0 0 0 0];

internalField   nonuniform List<scalar> 
3360
(
4.70886e-20
4.86037e-20
5.07122e-20
5.32913e-20
5.62335e-20
5.94423e-20
6.28305e-20
6.63195e-20
6.98391e-20
7.33275e-20
7.67311e-20
8.00044e-20
8.31097e-20
8.60172e-20
8.87041e-20
9.11545e-20
9.33584e-20
9.53119e-20
9.70156e-20
9.84747e-20
9.96978e-20
1.00697e-19
1.01486e-19
1.02081e-19
1.025e-19
1.0276e-19
1.02881e-19
2.06569e-19
2.14161e-19
2.24874e-19
2.38216e-19
2.53777e-19
2.71201e-19
2.9017e-19
3.10392e-19
3.31596e-19
3.53525e-19
3.75934e-19
3.98584e-19
4.21239e-19
4.43665e-19
4.65634e-19
4.8692e-19
5.07302e-19
5.26567e-19
5.4451e-19
5.60938e-19
5.75674e-19
5.88564e-19
5.99474e-19
6.08297e-19
6.14956e-19
6.19402e-19
6.2162e-19
6.48121e-19
6.76565e-19
7.16982e-19
7.6777e-19
8.27598e-19
8.95269e-19
9.69646e-19
1.04961e-18
1.13402e-18
1.22173e-18
1.31155e-18
1.40231e-18
1.49284e-18
1.58199e-18
1.66865e-18
1.75178e-18
1.83038e-18
1.90359e-18
1.97065e-18
2.03092e-18
2.08392e-18
2.12931e-18
2.16688e-18
2.19658e-18
2.21847e-18
2.23275e-18
2.2397e-18
1.88749e-18
1.98124e-18
2.11535e-18
2.28502e-18
2.48625e-18
2.71527e-18
2.96834e-18
3.24155e-18
3.53083e-18
3.83188e-18
4.14027e-18
4.45149e-18
4.76104e-18
5.06458e-18
5.35797e-18
5.63739e-18
5.89948e-18
6.14138e-18
6.36078e-18
6.55596e-18
6.72579e-18
6.86966e-18
6.98749e-18
7.07964e-18
7.14689e-18
7.19032e-18
7.21127e-18
5.51439e-18
5.81012e-18
6.23398e-18
6.77149e-18
7.41036e-18
8.13878e-18
8.94462e-18
9.815e-18
1.07362e-17
1.16938e-17
1.26729e-17
1.36583e-17
1.46352e-17
1.55896e-17
1.65084e-17
1.73799e-17
1.81939e-17
1.89421e-17
1.96181e-17
2.02172e-17
2.07366e-17
2.11752e-17
2.15333e-17
2.18126e-17
2.20159e-17
2.21468e-17
2.22099e-17
1.62595e-17
1.71677e-17
1.84711e-17
2.01253e-17
2.20925e-17
2.43361e-17
2.68181e-17
2.94982e-17
3.23332e-17
3.52776e-17
3.82848e-17
4.13076e-17
4.43001e-17
4.72187e-17
5.00236e-17
5.26791e-17
5.51551e-17
5.74268e-17
5.94755e-17
6.1288e-17
6.28568e-17
6.41793e-17
6.52576e-17
6.60974e-17
6.67079e-17
6.71007e-17
6.72896e-17
4.82984e-17
5.10581e-17
5.50181e-17
6.00446e-17
6.60218e-17
7.28372e-17
8.03739e-17
8.85073e-17
9.71047e-17
1.06027e-16
1.1513e-16
1.24273e-16
1.33314e-16
1.42125e-16
1.50584e-16
1.58585e-16
1.6604e-16
1.72874e-16
1.79033e-16
1.8448e-16
1.89191e-16
1.93162e-16
1.96398e-16
1.98918e-16
2.00749e-16
2.01927e-16
2.02493e-16
1.43951e-16
1.52255e-16
1.64178e-16
1.79315e-16
1.97322e-16
2.17856e-16
2.40565e-16
2.6507e-16
2.90969e-16
3.1784e-16
3.4525e-16
3.72767e-16
3.99971e-16
4.26468e-16
4.51897e-16
4.75941e-16
4.98331e-16
5.1885e-16
5.37333e-16
5.5367e-16
5.67797e-16
5.79697e-16
5.89391e-16
5.96937e-16
6.02419e-16
6.05944e-16
6.07638e-16
4.30183e-16
4.55141e-16
4.90966e-16
5.36449e-16
5.90543e-16
6.52221e-16
7.20416e-16
7.93984e-16
8.71714e-16
9.52334e-16
1.03454e-15
1.11704e-15
1.19858e-15
1.27797e-15
1.35414e-15
1.42615e-15
1.49318e-15
1.5546e-15
1.60993e-15
1.65882e-15
1.70109e-15
1.7367e-15
1.7657e-15
1.78828e-15
1.80468e-15
1.81523e-15
1.8203e-15
1.2857e-15
1.36046e-15
1.46779e-15
1.60407e-15
1.76615e-15
1.95095e-15
2.15528e-15
2.37569e-15
2.60854e-15
2.85002e-15
3.09622e-15
3.34327e-15
3.58738e-15
3.82502e-15
4.05298e-15
4.26841e-15
4.46894e-15
4.65264e-15
4.81805e-15
4.9642e-15
5.09055e-15
5.19694e-15
5.28359e-15
5.35102e-15
5.4e-15
5.4315e-15
5.44663e-15
3.84471e-15
4.06856e-15
4.38988e-15
4.79777e-15
5.28281e-15
5.83572e-15
6.44686e-15
7.10594e-15
7.80202e-15
8.52368e-15
9.25923e-15
9.99705e-15
1.07259e-14
1.14352e-14
1.21155e-14
1.27582e-14
1.33564e-14
1.39042e-14
1.43974e-14
1.48331e-14
1.52097e-14
1.55268e-14
1.5785e-14
1.5986e-14
1.61319e-14
1.62258e-14
1.62709e-14
1.14872e-14
1.21558e-14
1.31154e-14
1.43335e-14
1.57816e-14
1.74321e-14
1.92559e-14
2.12222e-14
2.32982e-14
2.54499e-14
2.76422e-14
2.98405e-14
3.20114e-14
3.41234e-14
3.61481e-14
3.80605e-14
3.98395e-14
4.14683e-14
4.29342e-14
4.42289e-14
4.53476e-14
4.62892e-14
4.70559e-14
4.76523e-14
4.80854e-14
4.83638e-14
4.84976e-14
3.42885e-14
3.62822e-14
3.91429e-14
4.27725e-14
4.70856e-14
5.19986e-14
5.74247e-14
6.32712e-14
6.94404e-14
7.58301e-14
8.23366e-14
8.88569e-14
9.52918e-14
1.01549e-13
1.07543e-13
1.13202e-13
1.18464e-13
1.23279e-13
1.27611e-13
1.31436e-13
1.34739e-13
1.37519e-13
1.39781e-13
1.41541e-13
1.42818e-13
1.43639e-13
1.44034e-13
1.02075e-13
1.07994e-13
1.16485e-13
1.27253e-13
1.40041e-13
1.54599e-13
1.70665e-13
1.87962e-13
2.06199e-13
2.25071e-13
2.44271e-13
2.63495e-13
2.8245e-13
3.00865e-13
3.18492e-13
3.35119e-13
3.50567e-13
3.64692e-13
3.77391e-13
3.88594e-13
3.98264e-13
4.06397e-13
4.13013e-13
4.18156e-13
4.21888e-13
4.24285e-13
4.25436e-13
3.02839e-13
3.20323e-13
3.45385e-13
3.77141e-13
4.14819e-13
4.57662e-13
5.04886e-13
5.55665e-13
6.09128e-13
6.6438e-13
7.20513e-13
7.76637e-13
8.31901e-13
8.85517e-13
9.36776e-13
9.85066e-13
1.02988e-12
1.07081e-12
1.10757e-12
1.13997e-12
1.16791e-12
1.1914e-12
1.21048e-12
1.22531e-12
1.23607e-12
1.24297e-12
1.24629e-12
8.93339e-13
9.44495e-13
1.01776e-12
1.11049e-12
1.22036e-12
1.34511e-12
1.48238e-12
1.62973e-12
1.78459e-12
1.94432e-12
2.10629e-12
2.26793e-12
2.4268e-12
2.58065e-12
2.72747e-12
2.86556e-12
2.99348e-12
3.11015e-12
3.21478e-12
3.30687e-12
3.38619e-12
3.45276e-12
3.50683e-12
3.54878e-12
3.57918e-12
3.59869e-12
3.60804e-12
2.61512e-12
2.76287e-12
2.9742e-12
3.24124e-12
3.55703e-12
3.91478e-12
4.30753e-12
4.72804e-12
5.16883e-12
5.6223e-12
6.08092e-12
6.53739e-12
6.98487e-12
7.41711e-12
7.82863e-12
8.21476e-12
8.5717e-12
8.89656e-12
9.18732e-12
9.44277e-12
9.66245e-12
9.84656e-12
9.99585e-12
1.01116e-11
1.01953e-11
1.0249e-11
1.02747e-11
7.57429e-12
7.99308e-12
8.59105e-12
9.34494e-12
1.02341e-11
1.12384e-11
1.23375e-11
1.35102e-11
1.47353e-11
1.59912e-11
1.72569e-11
1.85123e-11
1.97389e-11
2.09199e-11
2.20407e-11
2.30893e-11
2.40559e-11
2.49334e-11
2.57168e-11
2.64036e-11
2.6993e-11
2.7486e-11
2.78851e-11
2.81939e-11
2.84172e-11
2.85601e-11
2.86285e-11
2.16257e-11
2.27826e-11
2.44306e-11
2.65021e-11
2.89367e-11
3.1676e-11
3.46611e-11
3.78325e-11
4.11308e-11
4.4497e-11
4.78746e-11
5.12105e-11
5.44562e-11
5.75688e-11
6.05118e-11
6.32552e-11
6.57758e-11
6.80569e-11
7.00877e-11
7.18632e-11
7.33832e-11
7.46519e-11
7.56769e-11
7.64688e-11
7.70402e-11
7.74056e-11
7.75802e-11
6.05657e-11
6.36522e-11
6.80362e-11
7.35262e-11
7.99504e-11
8.71435e-11
9.4942e-11
1.03184e-10
1.11709e-10
1.20364e-10
1.29002e-10
1.37491e-10
1.45711e-10
1.53558e-10
1.60944e-10
1.67802e-10
1.7408e-10
1.7974e-10
1.84764e-10
1.89143e-10
1.92882e-10
1.95995e-10
1.98505e-10
2.0044e-10
2.01835e-10
2.02724e-10
2.03149e-10
1.65371e-10
1.7324e-10
1.84378e-10
1.98262e-10
2.14424e-10
2.32417e-10
2.51807e-10
2.72172e-10
2.93108e-10
3.14233e-10
3.35194e-10
3.55676e-10
3.754e-10
3.94133e-10
4.11685e-10
4.27909e-10
4.42698e-10
4.55984e-10
4.67735e-10
4.77946e-10
4.86641e-10
4.93861e-10
4.9967e-10
5.04139e-10
5.07353e-10
5.09401e-10
5.10378e-10
4.36852e-10
4.55775e-10
4.82451e-10
5.15532e-10
5.53808e-10
5.9614e-10
6.41444e-10
6.88695e-10
7.36932e-10
7.85273e-10
8.32925e-10
8.79193e-10
9.23487e-10
9.65322e-10
1.00432e-09
1.04018e-09
1.07274e-09
1.10187e-09
1.12754e-09
1.14977e-09
1.16864e-09
1.18427e-09
1.19682e-09
1.20645e-09
1.21337e-09
1.21777e-09
1.21986e-09
1.10639e-09
1.14866e-09
1.20798e-09
1.28109e-09
1.36509e-09
1.45728e-09
1.55516e-09
1.65642e-09
1.75897e-09
1.86093e-09
1.96068e-09
2.05683e-09
2.14825e-09
2.23404e-09
2.31353e-09
2.38625e-09
2.45192e-09
2.51042e-09
2.56175e-09
2.60604e-09
2.64352e-09
2.67447e-09
2.69925e-09
2.71823e-09
2.73182e-09
2.74046e-09
2.74457e-09
2.65789e-09
2.74406e-09
2.86427e-09
3.01138e-09
3.17898e-09
3.36125e-09
3.55291e-09
3.74923e-09
3.94609e-09
4.13991e-09
4.32774e-09
4.50716e-09
4.67628e-09
4.83371e-09
4.97847e-09
5.10998e-09
5.22797e-09
5.33244e-09
5.42363e-09
5.50195e-09
5.56792e-09
5.62221e-09
5.66551e-09
5.69858e-09
5.72222e-09
5.73721e-09
5.74432e-09
5.98407e-09
6.14179e-09
6.36035e-09
6.62551e-09
6.92457e-09
7.24617e-09
7.58032e-09
7.91839e-09
8.25313e-09
8.5786e-09
8.8901e-09
9.18405e-09
9.4579e-09
9.70994e-09
9.93922e-09
1.01454e-08
1.03286e-08
1.04894e-08
1.06287e-08
1.07473e-08
1.08466e-08
1.09277e-08
1.09921e-08
1.1041e-08
1.10759e-08
1.10978e-08
1.11082e-08
1.24845e-08
1.27458e-08
1.31056e-08
1.35385e-08
1.40218e-08
1.45358e-08
1.50635e-08
1.55905e-08
1.61056e-08
1.65996e-08
1.70658e-08
1.74995e-08
1.78978e-08
1.8259e-08
1.85828e-08
1.88696e-08
1.91206e-08
1.93376e-08
1.95225e-08
1.96778e-08
1.98056e-08
1.99086e-08
1.99891e-08
2.00493e-08
2.00916e-08
2.01179e-08
2.01301e-08
2.40488e-08
2.44762e-08
2.50642e-08
2.57713e-08
2.65607e-08
2.74004e-08
2.8263e-08
2.91255e-08
2.99694e-08
3.07799e-08
3.15459e-08
3.22591e-08
3.29139e-08
3.35072e-08
3.40374e-08
3.45049e-08
3.49111e-08
3.52588e-08
3.55513e-08
3.57927e-08
3.59874e-08
3.61401e-08
3.62556e-08
3.63388e-08
3.63945e-08
3.64272e-08
3.64414e-08
4.33891e-08
4.42082e-08
4.53533e-08
4.67604e-08
4.83761e-08
5.01546e-08
5.20577e-08
5.40533e-08
5.61145e-08
5.82181e-08
6.0343e-08
6.24693e-08
6.4577e-08
6.66458e-08
6.86553e-08
7.0587e-08
7.24226e-08
7.41459e-08
7.57451e-08
7.72098e-08
7.85294e-08
7.96925e-08
8.06875e-08
8.15026e-08
8.21261e-08
8.25486e-08
8.27624e-08
7.6104e-08
7.81445e-08
8.10942e-08
8.48872e-08
8.94935e-08
9.49054e-08
1.01134e-07
1.08204e-07
1.1615e-07
1.25017e-07
1.34821e-07
1.45526e-07
1.57021e-07
1.69099e-07
1.81443e-07
1.93623e-07
2.05091e-07
2.1519e-07
2.23986e-07
2.31651e-07
2.38284e-07
2.43939e-07
2.4864e-07
2.52397e-07
2.5521e-07
2.57082e-07
2.58014e-07
1.42361e-07
1.48627e-07
1.57896e-07
1.70093e-07
1.85129e-07
2.02759e-07
2.22432e-07
2.43131e-07
2.63183e-07
2.82904e-07
3.02607e-07
3.22378e-07
3.42165e-07
3.61839e-07
3.81212e-07
4.00056e-07
4.18146e-07
4.35257e-07
4.51166e-07
4.65698e-07
4.78695e-07
4.90024e-07
4.99578e-07
5.07275e-07
5.13068e-07
5.1693e-07
5.18853e-07
2.90662e-07
3.00081e-07
3.13431e-07
3.30103e-07
3.49697e-07
3.71682e-07
3.95553e-07
4.20828e-07
4.47038e-07
4.73771e-07
5.00638e-07
5.27267e-07
5.53305e-07
5.78427e-07
6.02327e-07
6.24758e-07
6.4551e-07
6.64431e-07
6.81376e-07
6.96236e-07
7.08938e-07
7.19437e-07
7.27882e-07
7.34416e-07
7.39162e-07
7.42228e-07
7.43713e-07
4.75635e-07
4.86334e-07
5.01208e-07
5.19326e-07
5.39849e-07
5.62004e-07
5.8508e-07
6.08432e-07
6.31485e-07
6.53729e-07
6.74731e-07
6.94117e-07
7.11553e-07
7.27064e-07
7.40845e-07
7.53046e-07
7.63779e-07
7.73145e-07
7.8124e-07
7.88155e-07
7.93974e-07
7.98775e-07
8.02631e-07
8.05607e-07
8.07764e-07
8.09156e-07
8.09829e-07
6.45893e-07
6.52421e-07
6.61044e-07
6.70786e-07
6.80687e-07
6.90451e-07
6.99822e-07
7.08573e-07
7.16541e-07
7.23628e-07
7.298e-07
7.35074e-07
7.39507e-07
7.43185e-07
7.46205e-07
7.48669e-07
7.50671e-07
7.52289e-07
7.53601e-07
7.54665e-07
7.55527e-07
7.56225e-07
7.56782e-07
7.57216e-07
7.57538e-07
7.57753e-07
7.57861e-07
6.9667e-07
6.96968e-07
6.97152e-07
6.97026e-07
6.9644e-07
6.95329e-07
6.93671e-07
6.91491e-07
6.88852e-07
6.85842e-07
6.82563e-07
6.79122e-07
6.75623e-07
6.72163e-07
6.68823e-07
6.65673e-07
6.62763e-07
6.6013e-07
6.57798e-07
6.55779e-07
6.54074e-07
6.52675e-07
6.51566e-07
6.50729e-07
6.5014e-07
6.49774e-07
6.49604e-07
6.45562e-07
6.42663e-07
6.38564e-07
6.33469e-07
6.27569e-07
6.21052e-07
6.14101e-07
6.0689e-07
5.99584e-07
5.92328e-07
5.85251e-07
5.7846e-07
5.72041e-07
5.66059e-07
5.6056e-07
5.55574e-07
5.51113e-07
5.47179e-07
5.43762e-07
5.40846e-07
5.38405e-07
5.3641e-07
5.34829e-07
5.3363e-07
5.32781e-07
5.32248e-07
5.31997e-07
5.46869e-07
5.43182e-07
5.38075e-07
5.31885e-07
5.24912e-07
5.17423e-07
5.09653e-07
5.01803e-07
4.94042e-07
4.86508e-07
4.79309e-07
4.72525e-07
4.66215e-07
4.60416e-07
4.55149e-07
4.5042e-07
4.46224e-07
4.42546e-07
4.39367e-07
4.36661e-07
4.344e-07
4.32554e-07
4.31092e-07
4.29982e-07
4.29194e-07
4.28696e-07
4.28462e-07
4.4336e-07
4.40126e-07
4.35677e-07
4.30328e-07
4.24357e-07
4.18005e-07
4.11478e-07
4.04945e-07
3.98543e-07
3.9238e-07
3.86534e-07
3.81062e-07
3.76001e-07
3.71372e-07
3.67184e-07
3.63435e-07
3.60116e-07
3.57211e-07
3.54703e-07
3.52568e-07
3.50783e-07
3.49325e-07
3.48169e-07
3.47289e-07
3.46663e-07
3.46267e-07
3.46079e-07
3.55712e-07
3.53272e-07
3.49923e-07
3.4591e-07
3.41444e-07
3.36711e-07
3.31863e-07
3.27027e-07
3.22303e-07
3.17765e-07
3.13471e-07
3.09459e-07
3.05753e-07
3.02368e-07
2.99307e-07
2.96567e-07
2.94142e-07
2.92019e-07
2.90184e-07
2.88622e-07
2.87314e-07
2.86244e-07
2.85394e-07
2.84747e-07
2.84285e-07
2.83992e-07
2.83853e-07
2.88623e-07
2.86903e-07
2.84543e-07
2.81716e-07
2.78573e-07
2.75244e-07
2.71836e-07
2.68438e-07
2.6512e-07
2.61933e-07
2.58918e-07
2.561e-07
2.53496e-07
2.51116e-07
2.48963e-07
2.47035e-07
2.45327e-07
2.43831e-07
2.42536e-07
2.41433e-07
2.40508e-07
2.39751e-07
2.39149e-07
2.3869e-07
2.38362e-07
2.38154e-07
2.38056e-07
2.39617e-07
2.38435e-07
2.36813e-07
2.34869e-07
2.32707e-07
2.30416e-07
2.28069e-07
2.25728e-07
2.2344e-07
2.21241e-07
2.19157e-07
2.17209e-07
2.15407e-07
2.13759e-07
2.12266e-07
2.10928e-07
2.09743e-07
2.08703e-07
2.07804e-07
2.07036e-07
2.06394e-07
2.05867e-07
2.05448e-07
2.05128e-07
2.049e-07
2.04756e-07
2.04687e-07
2.04413e-07
2.03604e-07
2.02494e-07
2.01163e-07
1.99682e-07
1.98111e-07
1.96501e-07
1.94893e-07
1.93319e-07
1.91806e-07
1.90372e-07
1.89029e-07
1.87787e-07
1.86649e-07
1.85619e-07
1.84696e-07
1.83876e-07
1.83158e-07
1.82536e-07
1.82005e-07
1.81561e-07
1.81197e-07
1.80908e-07
1.80687e-07
1.8053e-07
1.8043e-07
1.80383e-07
1.79162e-07
1.78606e-07
1.77843e-07
1.76927e-07
1.75907e-07
1.74825e-07
1.73714e-07
1.72605e-07
1.71518e-07
1.70473e-07
1.69482e-07
1.68554e-07
1.67695e-07
1.66908e-07
1.66196e-07
1.65558e-07
1.64992e-07
1.64496e-07
1.64067e-07
1.63701e-07
1.63395e-07
1.63144e-07
1.62945e-07
1.62793e-07
1.62685e-07
1.62617e-07
1.62585e-07
1.60926e-07
1.60541e-07
1.60011e-07
1.59376e-07
1.58668e-07
1.57917e-07
1.57145e-07
1.56374e-07
1.5562e-07
1.54893e-07
1.54205e-07
1.5356e-07
1.52964e-07
1.52418e-07
1.51925e-07
1.51483e-07
1.51091e-07
1.50749e-07
1.50453e-07
1.50202e-07
1.49991e-07
1.49819e-07
1.49683e-07
1.4958e-07
1.49506e-07
1.49459e-07
1.49437e-07
1.47612e-07
1.47342e-07
1.46972e-07
1.46528e-07
1.46032e-07
1.45506e-07
1.44967e-07
1.44428e-07
1.439e-07
1.43393e-07
1.42912e-07
1.42462e-07
1.42047e-07
1.41668e-07
1.41325e-07
1.41019e-07
1.40748e-07
1.40512e-07
1.40309e-07
1.40136e-07
1.39992e-07
1.39875e-07
1.39783e-07
1.39713e-07
1.39663e-07
1.39632e-07
1.39617e-07
1.37763e-07
1.37573e-07
1.37312e-07
1.36999e-07
1.3665e-07
1.3628e-07
1.359e-07
1.35521e-07
1.35151e-07
1.34795e-07
1.34459e-07
1.34144e-07
1.33855e-07
1.33591e-07
1.33354e-07
1.33142e-07
1.32955e-07
1.32793e-07
1.32654e-07
1.32537e-07
1.32439e-07
1.3236e-07
1.32298e-07
1.32252e-07
1.32219e-07
1.32198e-07
1.32189e-07
1.30372e-07
1.30237e-07
1.30052e-07
1.2983e-07
1.29583e-07
1.29321e-07
1.29053e-07
1.28786e-07
1.28526e-07
1.28276e-07
1.28041e-07
1.27821e-07
1.2762e-07
1.27437e-07
1.27273e-07
1.27127e-07
1.27e-07
1.26889e-07
1.26795e-07
1.26716e-07
1.26651e-07
1.26599e-07
1.26558e-07
1.26528e-07
1.26507e-07
1.26494e-07
1.26488e-07
1.24737e-07
1.24641e-07
1.2451e-07
1.24352e-07
1.24177e-07
1.23992e-07
1.23802e-07
1.23614e-07
1.23431e-07
1.23256e-07
1.23092e-07
1.22939e-07
1.228e-07
1.22674e-07
1.22562e-07
1.22463e-07
1.22377e-07
1.22303e-07
1.22241e-07
1.22189e-07
1.22147e-07
1.22113e-07
1.22088e-07
1.22069e-07
1.22056e-07
1.22048e-07
1.22044e-07
1.20369e-07
1.20301e-07
1.20207e-07
1.20095e-07
1.19971e-07
1.1984e-07
1.19706e-07
1.19574e-07
1.19446e-07
1.19324e-07
1.1921e-07
1.19105e-07
1.1901e-07
1.18925e-07
1.1885e-07
1.18784e-07
1.18727e-07
1.1868e-07
1.1864e-07
1.18607e-07
1.18581e-07
1.18561e-07
1.18546e-07
1.18535e-07
1.18528e-07
1.18523e-07
1.18522e-07
1.16922e-07
1.16873e-07
1.16806e-07
1.16727e-07
1.16639e-07
1.16547e-07
1.16453e-07
1.16361e-07
1.16272e-07
1.16188e-07
1.1611e-07
1.1604e-07
1.15976e-07
1.1592e-07
1.15871e-07
1.15829e-07
1.15793e-07
1.15764e-07
1.1574e-07
1.15721e-07
1.15707e-07
1.15696e-07
1.15688e-07
1.15683e-07
1.1568e-07
1.15679e-07
1.15678e-07
1.14148e-07
1.14114e-07
1.14066e-07
1.1401e-07
1.13949e-07
1.13884e-07
1.13819e-07
1.13756e-07
1.13696e-07
1.13639e-07
1.13587e-07
1.13541e-07
1.135e-07
1.13465e-07
1.13434e-07
1.13409e-07
1.13389e-07
1.13373e-07
1.13361e-07
1.13352e-07
1.13346e-07
1.13342e-07
1.13339e-07
1.13338e-07
1.13338e-07
1.13338e-07
1.13339e-07
1.11873e-07
1.11848e-07
1.11815e-07
1.11776e-07
1.11734e-07
1.11689e-07
1.11645e-07
1.11603e-07
1.11563e-07
1.11526e-07
1.11493e-07
1.11464e-07
1.1144e-07
1.1142e-07
1.11403e-07
1.1139e-07
1.11381e-07
1.11375e-07
1.11371e-07
1.11369e-07
1.11369e-07
1.11369e-07
1.11371e-07
1.11373e-07
1.11375e-07
1.11376e-07
1.11377e-07
1.09968e-07
1.09951e-07
1.09929e-07
1.09902e-07
1.09873e-07
1.09844e-07
1.09815e-07
1.09787e-07
1.09762e-07
1.0974e-07
1.09721e-07
1.09705e-07
1.09693e-07
1.09683e-07
1.09677e-07
1.09673e-07
1.09672e-07
1.09672e-07
1.09674e-07
1.09678e-07
1.09682e-07
1.09686e-07
1.0969e-07
1.09694e-07
1.09698e-07
1.097e-07
1.09702e-07
1.08343e-07
1.08332e-07
1.08317e-07
1.08299e-07
1.08281e-07
1.08262e-07
1.08244e-07
1.08228e-07
1.08214e-07
1.08202e-07
1.08193e-07
1.08187e-07
1.08183e-07
1.08182e-07
1.08183e-07
1.08186e-07
1.0819e-07
1.08196e-07
1.08202e-07
1.08209e-07
1.08216e-07
1.08223e-07
1.0823e-07
1.08235e-07
1.0824e-07
1.08243e-07
1.08245e-07
1.06931e-07
1.06924e-07
1.06914e-07
1.06904e-07
1.06892e-07
1.06882e-07
1.06872e-07
1.06864e-07
1.06858e-07
1.06855e-07
1.06853e-07
1.06854e-07
1.06856e-07
1.06861e-07
1.06867e-07
1.06875e-07
1.06884e-07
1.06893e-07
1.06903e-07
1.06913e-07
1.06922e-07
1.06931e-07
1.06939e-07
1.06946e-07
1.06951e-07
1.06955e-07
1.06956e-07
1.05683e-07
1.05679e-07
1.05673e-07
1.05668e-07
1.05662e-07
1.05658e-07
1.05654e-07
1.05653e-07
1.05653e-07
1.05655e-07
1.05659e-07
1.05665e-07
1.05672e-07
1.05681e-07
1.05692e-07
1.05703e-07
1.05715e-07
1.05727e-07
1.05739e-07
1.05751e-07
1.05762e-07
1.05772e-07
1.05781e-07
1.05789e-07
1.05795e-07
1.05799e-07
1.05801e-07
1.04563e-07
1.04561e-07
1.04559e-07
1.04557e-07
1.04556e-07
1.04556e-07
1.04558e-07
1.04561e-07
1.04565e-07
1.04572e-07
1.0458e-07
1.0459e-07
1.04601e-07
1.04614e-07
1.04627e-07
1.04641e-07
1.04656e-07
1.0467e-07
1.04684e-07
1.04697e-07
1.0471e-07
1.04721e-07
1.04731e-07
1.04739e-07
1.04745e-07
1.0475e-07
1.04752e-07
1.03546e-07
1.03546e-07
1.03547e-07
1.03548e-07
1.0355e-07
1.03553e-07
1.03558e-07
1.03565e-07
1.03574e-07
1.03584e-07
1.03595e-07
1.03608e-07
1.03622e-07
1.03637e-07
1.03653e-07
1.03669e-07
1.03685e-07
1.03701e-07
1.03717e-07
1.03731e-07
1.03745e-07
1.03757e-07
1.03767e-07
1.03776e-07
1.03783e-07
1.03787e-07
1.0379e-07
1.02613e-07
1.02615e-07
1.02617e-07
1.02621e-07
1.02625e-07
1.02632e-07
1.0264e-07
1.02649e-07
1.02661e-07
1.02673e-07
1.02688e-07
1.02703e-07
1.02719e-07
1.02737e-07
1.02754e-07
1.02772e-07
1.0279e-07
1.02807e-07
1.02824e-07
1.02839e-07
1.02854e-07
1.02866e-07
1.02877e-07
1.02887e-07
1.02894e-07
1.02898e-07
1.02901e-07
1.01751e-07
1.01753e-07
1.01757e-07
1.01763e-07
1.0177e-07
1.01779e-07
1.01789e-07
1.01801e-07
1.01815e-07
1.0183e-07
1.01846e-07
1.01864e-07
1.01882e-07
1.01901e-07
1.01921e-07
1.0194e-07
1.01959e-07
1.01978e-07
1.01995e-07
1.02011e-07
1.02026e-07
1.0204e-07
1.02051e-07
1.02061e-07
1.02068e-07
1.02073e-07
1.02075e-07
1.0095e-07
1.00954e-07
1.00959e-07
1.00966e-07
1.00975e-07
1.00986e-07
1.00999e-07
1.01013e-07
1.01029e-07
1.01046e-07
1.01064e-07
1.01084e-07
1.01104e-07
1.01124e-07
1.01145e-07
1.01166e-07
1.01186e-07
1.01206e-07
1.01224e-07
1.01241e-07
1.01257e-07
1.01271e-07
1.01283e-07
1.01292e-07
1.013e-07
1.01305e-07
1.01307e-07
1.00205e-07
1.00209e-07
1.00216e-07
1.00225e-07
1.00236e-07
1.00248e-07
1.00263e-07
1.00279e-07
1.00297e-07
1.00316e-07
1.00337e-07
1.00358e-07
1.0038e-07
1.00402e-07
1.00424e-07
1.00446e-07
1.00467e-07
1.00488e-07
1.00507e-07
1.00525e-07
1.00541e-07
1.00556e-07
1.00568e-07
1.00578e-07
1.00586e-07
1.00591e-07
1.00594e-07
9.9512e-08
9.95175e-08
9.95256e-08
9.95361e-08
9.95487e-08
9.95634e-08
9.958e-08
9.95983e-08
9.96182e-08
9.96394e-08
9.96617e-08
9.96848e-08
9.97084e-08
9.97322e-08
9.97559e-08
9.97791e-08
9.98017e-08
9.98233e-08
9.98436e-08
9.98623e-08
9.98792e-08
9.98942e-08
9.99069e-08
9.99173e-08
9.99252e-08
9.99305e-08
9.99332e-08
9.88711e-08
9.88777e-08
9.88872e-08
9.88993e-08
9.89138e-08
9.89306e-08
9.89494e-08
9.89699e-08
9.8992e-08
9.90154e-08
9.90398e-08
9.90648e-08
9.90903e-08
9.91159e-08
9.91412e-08
9.9166e-08
9.91899e-08
9.92126e-08
9.9234e-08
9.92536e-08
9.92713e-08
9.92869e-08
9.93002e-08
9.9311e-08
9.93192e-08
9.93247e-08
9.93275e-08
9.82834e-08
9.82911e-08
9.83021e-08
9.83161e-08
9.83328e-08
9.83519e-08
9.83731e-08
9.83961e-08
9.84207e-08
9.84465e-08
9.84732e-08
9.85006e-08
9.85282e-08
9.85558e-08
9.85829e-08
9.86094e-08
9.86349e-08
9.86591e-08
9.86816e-08
9.87023e-08
9.8721e-08
9.87373e-08
9.87512e-08
9.87624e-08
9.8771e-08
9.87767e-08
9.87796e-08
9.77522e-08
9.77612e-08
9.7774e-08
9.77901e-08
9.78093e-08
9.7831e-08
9.7855e-08
9.78808e-08
9.79083e-08
9.79369e-08
9.79664e-08
9.79964e-08
9.80266e-08
9.80565e-08
9.80859e-08
9.81144e-08
9.81417e-08
9.81675e-08
9.81916e-08
9.82136e-08
9.82333e-08
9.82505e-08
9.82652e-08
9.8277e-08
9.8286e-08
9.8292e-08
9.8295e-08
9.72828e-08
9.72932e-08
9.73081e-08
9.73268e-08
9.73488e-08
9.73736e-08
9.74009e-08
9.74301e-08
9.7461e-08
9.7493e-08
9.75257e-08
9.75589e-08
9.7592e-08
9.76248e-08
9.76569e-08
9.76878e-08
9.77173e-08
9.77452e-08
9.7771e-08
9.77945e-08
9.78156e-08
9.7834e-08
9.78495e-08
9.78621e-08
9.78715e-08
9.78779e-08
9.78811e-08
9.68824e-08
9.68946e-08
9.6912e-08
9.69337e-08
9.69591e-08
9.69876e-08
9.70188e-08
9.70521e-08
9.70869e-08
9.7123e-08
9.71597e-08
9.71966e-08
9.72334e-08
9.72696e-08
9.73048e-08
9.73387e-08
9.7371e-08
9.74012e-08
9.74292e-08
9.74546e-08
9.74773e-08
9.74971e-08
9.75138e-08
9.75272e-08
9.75373e-08
9.75441e-08
9.75475e-08
9.65606e-08
9.65749e-08
9.65952e-08
9.66205e-08
9.665e-08
9.6683e-08
9.67189e-08
9.6757e-08
9.67967e-08
9.68376e-08
9.6879e-08
9.69206e-08
9.69617e-08
9.70021e-08
9.70412e-08
9.70787e-08
9.71142e-08
9.71474e-08
9.7178e-08
9.72058e-08
9.72305e-08
9.7252e-08
9.727e-08
9.72846e-08
9.72955e-08
9.73028e-08
9.73064e-08
9.63292e-08
9.63461e-08
9.63699e-08
9.63995e-08
9.64339e-08
9.64723e-08
9.65138e-08
9.65577e-08
9.66034e-08
9.66501e-08
9.66972e-08
9.67443e-08
9.67908e-08
9.68362e-08
9.688e-08
9.69219e-08
9.69614e-08
9.69982e-08
9.70321e-08
9.70627e-08
9.70899e-08
9.71134e-08
9.71332e-08
9.7149e-08
9.71609e-08
9.71689e-08
9.71728e-08
9.62028e-08
9.62227e-08
9.62507e-08
9.62855e-08
9.63259e-08
9.63707e-08
9.64191e-08
9.647e-08
9.65228e-08
9.65765e-08
9.66306e-08
9.66845e-08
9.67374e-08
9.67888e-08
9.68384e-08
9.68856e-08
9.693e-08
9.69712e-08
9.70091e-08
9.70432e-08
9.70734e-08
9.70994e-08
9.71213e-08
9.71388e-08
9.71519e-08
9.71606e-08
9.71649e-08
9.6199e-08
9.62225e-08
9.62557e-08
9.62967e-08
9.63442e-08
9.63968e-08
9.64534e-08
9.65128e-08
9.65741e-08
9.66364e-08
9.66989e-08
9.67608e-08
9.68215e-08
9.68804e-08
9.69369e-08
9.69906e-08
9.70409e-08
9.70875e-08
9.71302e-08
9.71685e-08
9.72024e-08
9.72316e-08
9.7256e-08
9.72755e-08
9.72901e-08
9.72997e-08
9.73045e-08
9.63388e-08
9.63668e-08
9.64061e-08
9.64546e-08
9.65107e-08
9.65727e-08
9.66391e-08
9.67087e-08
9.67803e-08
9.68529e-08
9.69255e-08
9.69973e-08
9.70674e-08
9.71352e-08
9.72001e-08
9.72616e-08
9.73191e-08
9.73723e-08
9.74208e-08
9.74644e-08
9.75027e-08
9.75357e-08
9.75632e-08
9.75852e-08
9.76016e-08
9.76124e-08
9.76178e-08
9.66476e-08
9.66808e-08
9.67275e-08
9.6785e-08
9.68514e-08
9.69245e-08
9.70028e-08
9.70847e-08
9.71687e-08
9.72537e-08
9.73385e-08
9.74221e-08
9.75036e-08
9.75822e-08
9.76573e-08
9.77283e-08
9.77945e-08
9.78557e-08
9.79113e-08
9.79612e-08
9.8005e-08
9.80426e-08
9.8074e-08
9.80989e-08
9.81175e-08
9.81298e-08
9.81359e-08
9.7155e-08
9.71945e-08
9.725e-08
9.73183e-08
9.7397e-08
9.74836e-08
9.75761e-08
9.76727e-08
9.77716e-08
9.78715e-08
9.79709e-08
9.80687e-08
9.81639e-08
9.82556e-08
9.8343e-08
9.84254e-08
9.85022e-08
9.8573e-08
9.86373e-08
9.86948e-08
9.87453e-08
9.87886e-08
9.88246e-08
9.88532e-08
9.88745e-08
9.88886e-08
9.88955e-08
9.78959e-08
9.7943e-08
9.80089e-08
9.80902e-08
9.81835e-08
9.82862e-08
9.83957e-08
9.85099e-08
9.86267e-08
9.87444e-08
9.88614e-08
9.89763e-08
9.9088e-08
9.91954e-08
9.92976e-08
9.93939e-08
9.94834e-08
9.95659e-08
9.96406e-08
9.97074e-08
9.9766e-08
9.98162e-08
9.98579e-08
9.9891e-08
9.99156e-08
9.99319e-08
9.99399e-08
9.8911e-08
9.89671e-08
9.90455e-08
9.91421e-08
9.9253e-08
9.93748e-08
9.95046e-08
9.96398e-08
9.97779e-08
9.99169e-08
1.00055e-07
1.0019e-07
1.00322e-07
1.00448e-07
1.00568e-07
1.00681e-07
1.00786e-07
1.00883e-07
1.0097e-07
1.01048e-07
1.01117e-07
1.01175e-07
1.01224e-07
1.01262e-07
1.01291e-07
1.0131e-07
1.01319e-07
1.00247e-07
1.00314e-07
1.00407e-07
1.00522e-07
1.00654e-07
1.00798e-07
1.00952e-07
1.01112e-07
1.01276e-07
1.0144e-07
1.01604e-07
1.01764e-07
1.01919e-07
1.02068e-07
1.02209e-07
1.02342e-07
1.02466e-07
1.02579e-07
1.02682e-07
1.02774e-07
1.02854e-07
1.02923e-07
1.0298e-07
1.03026e-07
1.03059e-07
1.03081e-07
1.03092e-07
1.01959e-07
1.02038e-07
1.02149e-07
1.02285e-07
1.02441e-07
1.02613e-07
1.02795e-07
1.02985e-07
1.03179e-07
1.03374e-07
1.03567e-07
1.03756e-07
1.0394e-07
1.04116e-07
1.04283e-07
1.0444e-07
1.04586e-07
1.0472e-07
1.04842e-07
1.0495e-07
1.05045e-07
1.05126e-07
1.05194e-07
1.05247e-07
1.05287e-07
1.05313e-07
1.05326e-07
1.04105e-07
1.04199e-07
1.04331e-07
1.04492e-07
1.04678e-07
1.04881e-07
1.05097e-07
1.05322e-07
1.05552e-07
1.05782e-07
1.06011e-07
1.06235e-07
1.06453e-07
1.06661e-07
1.06859e-07
1.07045e-07
1.07218e-07
1.07377e-07
1.07521e-07
1.0765e-07
1.07763e-07
1.07859e-07
1.07939e-07
1.08003e-07
1.0805e-07
1.08081e-07
1.08096e-07
1.06755e-07
1.06866e-07
1.07022e-07
1.07213e-07
1.07432e-07
1.07673e-07
1.07929e-07
1.08195e-07
1.08466e-07
1.08739e-07
1.0901e-07
1.09276e-07
1.09533e-07
1.09781e-07
1.10016e-07
1.10236e-07
1.10442e-07
1.10631e-07
1.10802e-07
1.10955e-07
1.11089e-07
1.11204e-07
1.113e-07
1.11376e-07
1.11432e-07
1.11469e-07
1.11488e-07
1.0998e-07
1.10111e-07
1.10294e-07
1.1052e-07
1.10779e-07
1.11063e-07
1.11365e-07
1.1168e-07
1.12001e-07
1.12324e-07
1.12644e-07
1.12959e-07
1.13264e-07
1.13557e-07
1.13836e-07
1.14099e-07
1.14344e-07
1.14569e-07
1.14773e-07
1.14956e-07
1.15116e-07
1.15254e-07
1.15368e-07
1.15459e-07
1.15527e-07
1.15572e-07
1.15594e-07
1.13857e-07
1.14011e-07
1.14227e-07
1.14493e-07
1.14797e-07
1.15132e-07
1.15488e-07
1.15859e-07
1.16239e-07
1.1662e-07
1.17e-07
1.17373e-07
1.17736e-07
1.18086e-07
1.18419e-07
1.18733e-07
1.19026e-07
1.19296e-07
1.19541e-07
1.19761e-07
1.19955e-07
1.20121e-07
1.20259e-07
1.2037e-07
1.20452e-07
1.20507e-07
1.20534e-07
1.18471e-07
1.18653e-07
1.18907e-07
1.1922e-07
1.19579e-07
1.19973e-07
1.20394e-07
1.20832e-07
1.2128e-07
1.21732e-07
1.22182e-07
1.22625e-07
1.23055e-07
1.23471e-07
1.23867e-07
1.24242e-07
1.24592e-07
1.24915e-07
1.25209e-07
1.25474e-07
1.25707e-07
1.25907e-07
1.26075e-07
1.26209e-07
1.26309e-07
1.26375e-07
1.26408e-07
1.23917e-07
1.2413e-07
1.24427e-07
1.24793e-07
1.25214e-07
1.25677e-07
1.2617e-07
1.26685e-07
1.27213e-07
1.27746e-07
1.28277e-07
1.288e-07
1.29311e-07
1.29805e-07
1.30277e-07
1.30724e-07
1.31143e-07
1.31531e-07
1.31886e-07
1.32205e-07
1.32486e-07
1.32729e-07
1.32933e-07
1.33096e-07
1.33218e-07
1.33299e-07
1.33339e-07
1.30274e-07
1.30522e-07
1.3087e-07
1.31297e-07
1.3179e-07
1.32332e-07
1.32911e-07
1.33517e-07
1.34138e-07
1.34767e-07
1.35396e-07
1.36017e-07
1.36624e-07
1.37213e-07
1.37778e-07
1.38314e-07
1.38818e-07
1.39286e-07
1.39715e-07
1.40102e-07
1.40445e-07
1.40741e-07
1.4099e-07
1.4119e-07
1.4134e-07
1.4144e-07
1.41489e-07
1.37654e-07
1.37945e-07
1.38352e-07
1.38854e-07
1.39432e-07
1.4007e-07
1.40754e-07
1.41469e-07
1.42205e-07
1.42952e-07
1.437e-07
1.44442e-07
1.45169e-07
1.45875e-07
1.46555e-07
1.47202e-07
1.47812e-07
1.4838e-07
1.48903e-07
1.49376e-07
1.49796e-07
1.5016e-07
1.50467e-07
1.50713e-07
1.50899e-07
1.51023e-07
1.51085e-07
1.46233e-07
1.46576e-07
1.47057e-07
1.47652e-07
1.48338e-07
1.49096e-07
1.49908e-07
1.5076e-07
1.51636e-07
1.52523e-07
1.53409e-07
1.54281e-07
1.5513e-07
1.55952e-07
1.56741e-07
1.57492e-07
1.58198e-07
1.58855e-07
1.59458e-07
1.60003e-07
1.60488e-07
1.60908e-07
1.61261e-07
1.61546e-07
1.6176e-07
1.61902e-07
1.61973e-07
1.56165e-07
1.56556e-07
1.57104e-07
1.5778e-07
1.58559e-07
1.59416e-07
1.60337e-07
1.61305e-07
1.62305e-07
1.63325e-07
1.64352e-07
1.65375e-07
1.66384e-07
1.67369e-07
1.68322e-07
1.69233e-07
1.70096e-07
1.70904e-07
1.71649e-07
1.72325e-07
1.72928e-07
1.73451e-07
1.73893e-07
1.74248e-07
1.74514e-07
1.74692e-07
1.74782e-07
1.6734e-07
1.6781e-07
1.68472e-07
1.69292e-07
1.70241e-07
1.71295e-07
1.7243e-07
1.73627e-07
1.74868e-07
1.76135e-07
1.77414e-07
1.78691e-07
1.79951e-07
1.81184e-07
1.82377e-07
1.83521e-07
1.84604e-07
1.85617e-07
1.86553e-07
1.87403e-07
1.8816e-07
1.88818e-07
1.89371e-07
1.89819e-07
1.90158e-07
1.90385e-07
1.90499e-07
1.80827e-07
1.81411e-07
1.82233e-07
1.83251e-07
1.8443e-07
1.85737e-07
1.87144e-07
1.88626e-07
1.9016e-07
1.91724e-07
1.93299e-07
1.94868e-07
1.96415e-07
1.97924e-07
1.99383e-07
2.00777e-07
2.02096e-07
2.03329e-07
2.04466e-07
2.05497e-07
2.06415e-07
2.07212e-07
2.07886e-07
2.08432e-07
2.08844e-07
2.09121e-07
2.09259e-07
1.97037e-07
1.97735e-07
1.98715e-07
1.99925e-07
2.01319e-07
2.02858e-07
2.04505e-07
2.06229e-07
2.08001e-07
2.09796e-07
2.11593e-07
2.1337e-07
2.1511e-07
2.16799e-07
2.18422e-07
2.19966e-07