/*--------------------------------*- C++ -*----------------------------------*\
| =========                 |                                                 |
| \\      /  F ield         | OpenFOAM: The Open Source CFD Toolbox           |
|  \\    /   O peration     | Version:  2106                                  |
|   \\  /    A nd           | Website:  www.openfoam.com                      |
|    \\/     M anipulation  |                                                 |
\*---------------------------------------------------------------------------*/
FoamFile
{
    version     2.0;
    format      ascii;
    arch        "LSB;label=32;scalar=64";
    class       volScalarField;
    location    "219.99956";
    object      PC3H4;
}
// * * * * * * * * * * * * * * * * * * * * * * * * * * * * * * * * * * * * * //

dimensions      [0 0 0 0 0 0 0];

internalField   nonuniform List<scalar> 
3360
(
7.60069e-17
7.84525e-17
8.18559e-17
8.60188e-17
9.07679e-17
9.59474e-17
1.01416e-16
1.07048e-16
1.12729e-16
1.1836e-16
1.23854e-16
1.29137e-16
1.3415e-16
1.38843e-16
1.4318e-16
1.47135e-16
1.50692e-16
1.53845e-16
1.56595e-16
1.5895e-16
1.60925e-16
1.62537e-16
1.63811e-16
1.64772e-16
1.65448e-16
1.65868e-16
1.66063e-16
3.33428e-16
3.45683e-16
3.62976e-16
3.84511e-16
4.09628e-16
4.37753e-16
4.6837e-16
5.01011e-16
5.35237e-16
5.70634e-16
6.06805e-16
6.43365e-16
6.79932e-16
7.16131e-16
7.51592e-16
7.8595e-16
8.1885e-16
8.49946e-16
8.78907e-16
9.05423e-16
9.29211e-16
9.50016e-16
9.67626e-16
9.81867e-16
9.92616e-16
9.99793e-16
1.00337e-15
1.04615e-15
1.09206e-15
1.1573e-15
1.23928e-15
1.33585e-15
1.44508e-15
1.56513e-15
1.6942e-15
1.83046e-15
1.97203e-15
2.11701e-15
2.2635e-15
2.40963e-15
2.55353e-15
2.69342e-15
2.82759e-15
2.95446e-15
3.07263e-15
3.18087e-15
3.27816e-15
3.36371e-15
3.43697e-15
3.49761e-15
3.54555e-15
3.58089e-15
3.60393e-15
3.61515e-15
3.04664e-15
3.19797e-15
3.41444e-15
3.68831e-15
4.01311e-15
4.38279e-15
4.79127e-15
5.23227e-15
5.6992e-15
6.18514e-15
6.68291e-15
7.18526e-15
7.68492e-15
8.17487e-15
8.64843e-15
9.09945e-15
9.5225e-15
9.91295e-15
1.02671e-14
1.05821e-14
1.08563e-14
1.10885e-14
1.12787e-14
1.14274e-14
1.1536e-14
1.16061e-14
1.16399e-14
8.90092e-15
9.37827e-15
1.00624e-14
1.093e-14
1.19613e-14
1.3137e-14
1.44377e-14
1.58426e-14
1.73296e-14
1.88753e-14
2.04556e-14
2.20461e-14
2.36231e-14
2.51636e-14
2.66467e-14
2.80533e-14
2.93672e-14
3.05749e-14
3.1666e-14
3.2633e-14
3.34714e-14
3.41794e-14
3.47574e-14
3.52082e-14
3.55363e-14
3.57477e-14
3.58495e-14
2.62449e-14
2.77109e-14
2.98146e-14
3.24847e-14
3.56601e-14
3.92815e-14
4.32878e-14
4.76138e-14
5.21898e-14
5.69425e-14
6.17964e-14
6.66756e-14
7.15058e-14
7.6217e-14
8.07443e-14
8.50307e-14
8.90272e-14
9.2694e-14
9.60008e-14
9.89265e-14
1.01459e-13
1.03594e-13
1.05334e-13
1.06689e-13
1.07675e-13
1.08309e-13
1.08614e-13
7.79598e-14
8.24141e-14
8.88062e-14
9.69195e-14
1.06568e-13
1.17568e-13
1.29734e-13
1.42862e-13
1.56739e-13
1.7114e-13
1.85835e-13
2.00592e-13
2.15186e-13
2.29407e-13
2.43061e-13
2.55976e-13
2.68009e-13
2.7904e-13
2.88982e-13
2.97773e-13
3.05379e-13
3.11788e-13
3.17011e-13
3.21078e-13
3.24034e-13
3.25935e-13
3.26849e-13
2.32356e-13
2.45759e-13
2.65003e-13
2.89438e-13
3.18502e-13
3.51647e-13
3.88302e-13
4.27856e-13
4.69661e-13
5.13033e-13
5.57276e-13
6.01692e-13
6.45603e-13
6.88373e-13
7.29418e-13
7.68228e-13
8.04368e-13
8.37488e-13
8.67323e-13
8.93693e-13
9.16496e-13
9.35704e-13
9.51352e-13
9.63531e-13
9.72379e-13
9.7807e-13
9.80805e-13
6.9437e-13
7.34655e-13
7.92481e-13
8.65897e-13
9.53211e-13
1.05277e-12
1.16284e-12
1.28159e-12
1.40706e-12
1.53719e-12
1.66988e-12
1.80305e-12
1.93466e-12
2.06281e-12
2.18576e-12
2.30198e-12
2.41018e-12
2.50932e-12
2.59862e-12
2.67754e-12
2.74577e-12
2.80325e-12
2.85007e-12
2.88651e-12
2.91299e-12
2.93001e-12
2.9382e-12
2.07528e-12
2.19595e-12
2.3692e-12
2.58917e-12
2.85079e-12
3.14909e-12
3.47889e-12
3.83466e-12
4.21051e-12
4.60029e-12
4.9977e-12
5.39645e-12
5.79048e-12
6.17406e-12
6.54201e-12
6.88976e-12
7.21343e-12
7.50994e-12
7.77694e-12
8.01285e-12
8.21678e-12
8.38851e-12
8.52838e-12
8.63722e-12
8.71628e-12
8.76711e-12
8.79154e-12
6.20588e-12
6.56721e-12
7.08585e-12
7.74424e-12
8.52715e-12
9.41962e-12
1.04061e-11
1.14699e-11
1.25935e-11
1.37583e-11
1.49456e-11
1.61365e-11
1.7313e-11
1.84579e-11
1.95559e-11
2.05934e-11
2.15588e-11
2.24431e-11
2.32392e-11
2.39424e-11
2.45503e-11
2.50622e-11
2.5479e-11
2.58034e-11
2.60389e-11
2.61904e-11
2.62632e-11
1.8542e-11
1.96212e-11
2.11702e-11
2.31363e-11
2.54738e-11
2.81378e-11
3.10816e-11
3.42554e-11
3.76064e-11
4.10794e-11
4.46181e-11
4.81665e-11
5.16705e-11
5.50796e-11
5.83477e-11
6.14345e-11
6.4306e-11
6.6935e-11
6.93013e-11
7.1391e-11
7.31967e-11
7.47166e-11
7.59542e-11
7.69169e-11
7.76159e-11
7.80653e-11
7.82812e-11
5.53475e-11
5.85657e-11
6.31831e-11
6.90416e-11
7.60035e-11
8.39337e-11
9.2692e-11
1.02129e-10
1.12087e-10
1.224e-10
1.32903e-10
1.43427e-10
1.53814e-10
1.63913e-10
1.73589e-10
1.82723e-10
1.91216e-10
1.98989e-10
2.05981e-10
2.12154e-10
2.17486e-10
2.21973e-10
2.25625e-10
2.28465e-10
2.30527e-10
2.31852e-10
2.32488e-10
1.64771e-10
1.74326e-10
1.88031e-10
2.05412e-10
2.26054e-10
2.49552e-10
2.75484e-10
3.03403e-10
3.32839e-10
3.63301e-10
3.94292e-10
4.25321e-10
4.55916e-10
4.85639e-10
5.14092e-10
5.40929e-10
5.65863e-10
5.88663e-10
6.0916e-10
6.27242e-10
6.42851e-10
6.55978e-10
6.66657e-10
6.74958e-10
6.80982e-10
6.84852e-10
6.8671e-10
4.88883e-10
5.17105e-10
5.57558e-10
6.08816e-10
6.69633e-10
7.38786e-10
8.15011e-10
8.96972e-10
9.83268e-10
1.07245e-09
1.16305e-09
1.25364e-09
1.34284e-09
1.42938e-09
1.51212e-09
1.59006e-09
1.66239e-09
1.72846e-09
1.78779e-09
1.84009e-09
1.88519e-09
1.92309e-09
1.9539e-09
1.97784e-09
1.9952e-09
2.00634e-09
2.01169e-09
1.44236e-09
1.52493e-09
1.64319e-09
1.79287e-09
1.97023e-09
2.17158e-09
2.39316e-09
2.631e-09
2.88095e-09
3.13877e-09
3.40021e-09
3.66111e-09
3.91753e-09
4.16585e-09
4.40283e-09
4.6257e-09
4.83218e-09
5.0205e-09
5.18937e-09
5.338e-09
5.46603e-09
5.57349e-09
5.66075e-09
5.72847e-09
5.77754e-09
5.80902e-09
5.82412e-09
4.22351e-09
4.46203e-09
4.8032e-09
5.23428e-09
5.74406e-09
6.32157e-09
6.95557e-09
7.63436e-09
8.34589e-09
9.07787e-09
9.81815e-09
1.0555e-08
1.12772e-08
1.19749e-08
1.26392e-08
1.32624e-08
1.38386e-08
1.43629e-08
1.48322e-08
1.52446e-08
1.55992e-08
1.58963e-08
1.61373e-08
1.63241e-08
1.64593e-08
1.65459e-08
1.65875e-08
1.22396e-08
1.29159e-08
1.38816e-08
1.50991e-08
1.6535e-08
1.81568e-08
1.99315e-08
2.18251e-08
2.38032e-08
2.58309e-08
2.78745e-08
2.99015e-08
3.18818e-08
3.37885e-08
3.55981e-08
3.72911e-08
3.88517e-08
4.02684e-08
4.15333e-08
4.26421e-08
4.35936e-08
4.43896e-08
4.5034e-08
4.55327e-08
4.58932e-08
4.61239e-08
4.62344e-08
3.49831e-08
3.68534e-08
3.95176e-08
4.28664e-08
4.6802e-08
5.12298e-08
5.60548e-08
6.11808e-08
6.65116e-08
7.19521e-08
7.74109e-08
8.28021e-08
8.80476e-08
9.3078e-08
9.78344e-08
1.02268e-07
1.06342e-07
1.10029e-07
1.13311e-07
1.16181e-07
1.18638e-07
1.20689e-07
1.22346e-07
1.23626e-07
1.2455e-07
1.2514e-07
1.25423e-07
9.81679e-08
1.03171e-07
1.10278e-07
1.19178e-07
1.29593e-07
1.41253e-07
1.53895e-07
1.67256e-07
1.81076e-07
1.95107e-07
2.09113e-07
2.22877e-07
2.36205e-07
2.48928e-07
2.60907e-07
2.7203e-07
2.82212e-07
2.91394e-07
2.99544e-07
3.06649e-07
3.12716e-07
3.17768e-07
3.21841e-07
3.24982e-07
3.27245e-07
3.28689e-07
3.29379e-07
2.69001e-07
2.81845e-07
3.00027e-07
3.22697e-07
3.49091e-07
3.78481e-07
4.10161e-07
4.43444e-07
4.7767e-07
5.12217e-07
5.46508e-07
5.80025e-07
6.12314e-07
6.42992e-07
6.71746e-07
6.98332e-07
7.22575e-07
7.44362e-07
7.63636e-07
7.80391e-07
7.9466e-07
8.06513e-07
8.1605e-07
8.2339e-07
8.28669e-07
8.32035e-07
8.33639e-07
7.15246e-07
7.46636e-07
7.90912e-07
8.4586e-07
9.09494e-07
9.79941e-07
1.05542e-06
1.13423e-06
1.21479e-06
1.29562e-06
1.3754e-06
1.45296e-06
1.5273e-06
1.5976e-06
1.6632e-06
1.7236e-06
1.77848e-06
1.82763e-06
1.87098e-06
1.90855e-06
1.94047e-06
1.96693e-06
1.98817e-06
2.00449e-06
2.01621e-06
2.02367e-06
2.02723e-06
1.83352e-06
1.90619e-06
2.00831e-06
2.13448e-06
2.27983e-06
2.43985e-06
2.6103e-06
2.78726e-06
2.9671e-06
3.14656e-06
3.32275e-06
3.49318e-06
3.65579e-06
3.80888e-06
3.95117e-06
4.08172e-06
4.19992e-06
4.30547e-06
4.3983e-06
4.47856e-06
4.5466e-06
4.60288e-06
4.64798e-06
4.68258e-06
4.70739e-06
4.72316e-06
4.73067e-06
4.50626e-06
4.66536e-06
4.88826e-06
5.16253e-06
5.47706e-06
5.82164e-06
6.18685e-06
6.56408e-06
6.94559e-06
7.32449e-06
7.69482e-06
8.05156e-06
8.39056e-06
8.70858e-06
9.00317e-06
9.27262e-06
9.51592e-06
9.73261e-06
9.92275e-06
1.00868e-05
1.02256e-05
1.03403e-05
1.0432e-05
1.05023e-05
1.05526e-05
1.05846e-05
1.05998e-05
1.05789e-05
1.09095e-05
1.13714e-05
1.19381e-05
1.25856e-05
1.32922e-05
1.40382e-05
1.48057e-05
1.5579e-05
1.63441e-05
1.70894e-05
1.7805e-05
1.8483e-05
1.91172e-05
1.97031e-05
2.02378e-05
2.07195e-05
2.11477e-05
2.15227e-05
2.18458e-05
2.21187e-05
2.23438e-05
2.25237e-05
2.26613e-05
2.27598e-05
2.28223e-05
2.2852e-05
2.36817e-05
2.43384e-05
2.52544e-05
2.63755e-05
2.76534e-05
2.90442e-05
3.05086e-05
3.2011e-05
3.35207e-05
3.50106e-05
3.64583e-05
3.7845e-05
3.91558e-05
4.03795e-05
4.15078e-05
4.25356e-05
4.34601e-05
4.42805e-05
4.4998e-05
4.56154e-05
4.61363e-05
4.65654e-05
4.6908e-05
4.71699e-05
4.73572e-05
4.74759e-05
4.75322e-05
5.05074e-05
5.17652e-05
5.35184e-05
5.56617e-05
5.81019e-05
6.07544e-05
6.35436e-05
6.64023e-05
6.92713e-05
7.21001e-05
7.4846e-05
7.74739e-05
7.99561e-05
8.22714e-05
8.44049e-05
8.63468e-05
8.80922e-05
8.96402e-05
9.09933e-05
9.21566e-05
9.31374e-05
9.39449e-05
9.45892e-05
9.50814e-05
9.54331e-05
9.56559e-05
9.57616e-05
0.000102384
0.000104726
0.000107992
0.000111986
0.000116536
0.000121487
0.000126699
0.000132047
0.000137422
0.000142731
0.000147891
0.000152839
0.000157521
0.000161896
0.000165935
0.000169618
0.000172934
0.00017588
0.000178459
0.000180679
0.000182554
0.000184099
0.000185333
0.000186277
0.000186952
0.00018738
0.000187583
0.00019617
0.000200391
0.000206286
0.000213514
0.000221773
0.000230789
0.000240317
0.000250139
0.000260059
0.000269908
0.000279538
0.000288828
0.000297675
0.000305998
0.000313736
0.000320843
0.00032729
0.000333063
0.000338156
0.000342576
0.000346337
0.000349462
0.000351977
0.000353915
0.000355311
0.000356202
0.000356628
0.000351607
0.000358759
0.000368768
0.000381073
0.000395181
0.00041065
0.000427078
0.000444107
0.000461417
0.000478723
0.000495771
0.000512346
0.00052826
0.000543361
0.000557523
0.000570649
0.000582664
0.000593519
0.000603184
0.00061165
0.00061892
0.000625015
0.000629967
0.000633817
0.000636615
0.000638418
0.000639287
0.000582068
0.000592865
0.000607974
0.000626548
0.000647843
0.000671188
0.000695979
0.000721672
0.000747779
0.000773869
0.000799562
0.000824532
0.000848499
0.000871233
0.000892546
0.000912292
0.000930364
0.000946688
0.000961222
0.000973952
0.000984888
0.000994061
0.00100152
0.00100732
0.00101154
0.00101427
0.00101558
0.000879713
0.000893321
0.000912287
0.000935478
0.000961892
0.000990634
0.00102091
0.001052
0.0010833
0.00111428
0.00114449
0.00117357
0.00120121
0.00122718
0.0012513
0.00127345
0.00129355
0.00131155
0.00132745
0.00134127
0.00135307
0.0013629
0.00137084
0.00137698
0.00138143
0.00138429
0.00138566
0.00120158
0.00121518
0.00123401
0.00125682
0.00128252
0.00131013
0.00133882
0.00136784
0.00139662
0.00142464
0.00145154
0.001477
0.00150081
0.00152283
0.00154297
0.00156118
0.00157747
0.00159186
0.00160441
0.00161518
0.00162427
0.00163177
0.00163776
0.00164236
0.00164566
0.00164776
0.00164876
0.00147988
0.00149029
0.00150457
0.00152165
0.00154061
0.00156063
0.00158104
0.0016013
0.00162098
0.00163976
0.0016574
0.00167376
0.00168874
0.00170232
0.0017145
0.00172531
0.00173481
0.00174306
0.00175013
0.00175612
0.0017611
0.00176515
0.00176835
0.00177078
0.00177251
0.0017736
0.00177411
0.00165841
0.00166411
0.00167182
0.00168089
0.00169075
0.00170093
0.00171105
0.00172082
0.00173003
0.00173856
0.00174633
0.00175331
0.0017595
0.00176493
0.00176965
0.00177371
0.00177716
0.00178008
0.00178251
0.00178451
0.00178613
0.00178742
0.00178842
0.00178916
0.00178968
0.00179
0.00179015
0.00172465
0.00172627
0.00172839
0.00173076
0.00173317
0.00173547
0.00173754
0.0017393
0.00174074
0.00174183
0.0017426
0.00174309
0.00174333
0.00174336
0.00174324
0.00174299
0.00174267
0.00174231
0.00174192
0.00174154
0.00174119
0.00174087
0.00174059
0.00174037
0.00174021
0.0017401
0.00174005
0.00170507
0.00170419
0.00170292
0.00170128
0.0016993
0.00169702
0.0016945
0.00169178
0.00168893
0.00168601
0.00168308
0.00168018
0.00167736
0.00167467
0.00167214
0.00166979
0.00166765
0.00166572
0.00166401
0.00166252
0.00166125
0.0016602
0.00165935
0.00165869
0.00165822
0.00165792
0.00165778
0.00163705
0.00163504
0.00163223
0.0016288
0.00162488
0.00162062
0.00161614
0.00161154
0.00160693
0.00160239
0.00159798
0.00159377
0.00158979
0.00158608
0.00158266
0.00157955
0.00157676
0.00157428
0.00157211
0.00157025
0.00156868
0.00156738
0.00156634
0.00156555
0.00156498
0.00156462
0.00156445
0.00154943
0.00154708
0.00154383
0.00153988
0.00153543
0.00153064
0.00152566
0.00152061
0.0015156
0.0015107
0.001506
0.00150154
0.00149736
0.00149349
0.00148995
0.00148674
0.00148388
0.00148134
0.00147914
0.00147725
0.00147565
0.00147435
0.0014733
0.0014725
0.00147193
0.00147157
0.0014714
0.00145871
0.00145639
0.0014532
0.00144933
0.00144499
0.00144034
0.00143551
0.00143063
0.00142581
0.00142112
0.00141662
0.00141237
0.00140839
0.00140472
0.00140137
0.00139834
0.00139564
0.00139325
0.00139118
0.0013894
0.0013879
0.00138667
0.0013857
0.00138495
0.00138441
0.00138407
0.00138391
0.00137251
0.00137037
0.00136742
0.00136385
0.00135984
0.00135555
0.00135111
0.00134662
0.00134219
0.00133788
0.00133376
0.00132986
0.00132623
0.00132287
0.00131981
0.00131704
0.00131457
0.00131239
0.0013105
0.00130887
0.00130751
0.00130639
0.0013055
0.00130482
0.00130433
0.00130402
0.00130387
0.00129351
0.00129157
0.00128889
0.00128566
0.00128204
0.00127815
0.00127413
0.00127008
0.00126607
0.00126218
0.00125845
0.00125493
0.00125165
0.00124861
0.00124584
0.00124334
0.00124111
0.00123914
0.00123743
0.00123597
0.00123474
0.00123372
0.00123292
0.0012323
0.00123186
0.00123158
0.00123145
0.00122204
0.00122029
0.00121788
0.00121497
0.0012117
0.0012082
0.00120458
0.00120092
0.00119731
0.0011938
0.00119044
0.00118726
0.0011843
0.00118156
0.00117906
0.00117681
0.00117479
0.00117302
0.00117147
0.00117015
0.00116904
0.00116812
0.00116739
0.00116684
0.00116644
0.00116619
0.00116607
0.00115754
0.00115597
0.00115379
0.00115116
0.00114821
0.00114504
0.00114177
0.00113846
0.0011352
0.00113202
0.00112898
0.00112611
0.00112342
0.00112095
0.00111868
0.00111664
0.00111482
0.00111321
0.00111181
0.00111061
0.0011096
0.00110877
0.00110811
0.00110761
0.00110725
0.00110702
0.00110691
0.00109919
0.00109776
0.00109578
0.0010934
0.00109071
0.00108784
0.00108487
0.00108186
0.0010789
0.00107601
0.00107324
0.00107063
0.00106819
0.00106594
0.00106388
0.00106202
0.00106036
0.00105889
0.00105762
0.00105653
0.00105561
0.00105485
0.00105425
0.00105379
0.00105347
0.00105326
0.00105316
0.00104615
0.00104485
0.00104304
0.00104086
0.00103841
0.00103579
0.00103307
0.00103033
0.00102762
0.00102498
0.00102245
0.00102006
0.00101783
0.00101577
0.00101388
0.00101218
0.00101066
0.00100932
0.00100816
0.00100716
0.00100632
0.00100563
0.00100508
0.00100466
0.00100436
0.00100416
0.00100407
0.000997695
0.000996496
0.00099484
0.000992838
0.00099059
0.000988182
0.000985687
0.000983167
0.000980675
0.000978251
0.000975929
0.000973734
0.000971682
0.000969788
0.000968057
0.000966493
0.000965096
0.000963864
0.000962792
0.000961873
0.0009611
0.000960465
0.000959958
0.000959571
0.000959295
0.000959119
0.000959036
0.000953204
0.000952098
0.000950571
0.000948726
0.000946653
0.000944431
0.00094213
0.000939805
0.000937506
0.00093527
0.000933127
0.0009311
0.000929207
0.000927457
0.000925859
0.000924415
0.000923126
0.000921988
0.000920998
0.000920149
0.000919435
0.000918848
0.00091838
0.000918023
0.000917768
0.000917606
0.000917529
0.000912178
0.000911154
0.000909741
0.000908032
0.000906113
0.000904056
0.000901925
0.000899772
0.000897643
0.000895571
0.000893586
0.000891709
0.000889954
0.000888334
0.000886853
0.000885515
0.000884319
0.000883265
0.000882347
0.00088156
0.000880899
0.000880355
0.000879921
0.00087959
0.000879353
0.000879203
0.000879131
0.000874206
0.000873255
0.000871943
0.000870356
0.000868573
0.000866663
0.000864683
0.000862683
0.000860704
0.00085878
0.000856935
0.00085519
0.00085356
0.000852054
0.000850677
0.000849433
0.000848322
0.000847342
0.000846489
0.000845758
0.000845142
0.000844637
0.000844234
0.000843926
0.000843705
0.000843566
0.000843499
0.000838952
0.000838067
0.000836845
0.000835367
0.000833707
0.000831928
0.000830084
0.000828221
0.000826378
0.000824585
0.000822867
0.000821241
0.000819722
0.000818319
0.000817036
0.000815878
0.000814842
0.000813929
0.000813134
0.000812452
0.000811879
0.000811408
0.000811032
0.000810745
0.00081054
0.00081041
0.000810348
0.00080614
0.000805314
0.000804174
0.000802795
0.000801246
0.000799585
0.000797864
0.000796125
0.000794405
0.000792731
0.000791127
0.00078961
0.000788192
0.000786881
0.000785684
0.000784602
0.000783635
0.000782783
0.00078204
0.000781404
0.000780869
0.000780429
0.000780078
0.00077981
0.000779618
0.000779497
0.000779439
0.000775538
0.000774766
0.000773699
0.00077241
0.000770962
0.00076941
0.000767801
0.000766175
0.000764567
0.000763002
0.000761502
0.000760083
0.000758757
0.000757532
0.000756412
0.0007554
0.000754496
0.000753699
0.000753005
0.00075241
0.000751909
0.000751497
0.000751169
0.000750919
0.000750739
0.000750626
0.000750572
0.000746949
0.000746226
0.000745228
0.000744021
0.000742666
0.000741212
0.000739706
0.000738184
0.000736678
0.000735213
0.000733809
0.000732481
0.000731239
0.000730092
0.000729043
0.000728096
0.00072725
0.000726503
0.000725853
0.000725296
0.000724827
0.000724441
0.000724134
0.0007239
0.000723732
0.000723625
0.000723575
0.000720205
0.000719528
0.000718593
0.000717462
0.000716192
0.00071483
0.000713418
0.000711992
0.00071058
0.000709207
0.000707891
0.000706646
0.000705482
0.000704407
0.000703424
0.000702536
0.000701743
0.000701043
0.000700434
0.000699911
0.000699472
0.000699111
0.000698823
0.000698603
0.000698446
0.000698346
0.000698298
0.000695161
0.000694526
0.000693649
0.000692588
0.000691397
0.000690119
0.000688795
0.000687457
0.000686133
0.000684845
0.000683611
0.000682443
0.000681351
0.000680342
0.000679421
0.000678588
0.000677843
0.000677187
0.000676615
0.000676125
0.000675713
0.000675374
0.000675104
0.000674898
0.00067475
0.000674656
0.000674612
0.000671688
0.000671092
0.000670269
0.000669273
0.000668154
0.000666955
0.000665712
0.000664457
0.000663214
0.000662005
0.000660846
0.00065975
0.000658725
0.000657778
0.000656913
0.000656131
0.000655432
0.000654816
0.000654279
0.000653819
0.000653432
0.000653114
0.000652861
0.000652667
0.000652528
0.000652441
0.000652399
0.000649672
0.000649112
0.000648338
0.000647404
0.000646353
0.000645227
0.000644059
0.00064288
0.000641713
0.000640577
0.000639489
0.000638459
0.000637497
0.000636607
0.000635795
0.00063506
0.000634404
0.000633825
0.000633321
0.000632889
0.000632526
0.000632227
0.000631989
0.000631807
0.000631677
0.000631594
0.000631555
0.000629009
0.000628483
0.000627757
0.000626878
0.000625891
0.000624833
0.000623736
0.000622628
0.000621531
0.000620464
0.000619441
0.000618473
0.000617569
0.000616733
0.00061597
0.00061528
0.000614663
0.000614119
0.000613645
0.000613239
0.000612898
0.000612617
0.000612394
0.000612223
0.0006121
0.000612023
0.000611986
0.000609608
0.000609114
0.000608431
0.000607605
0.000606677
0.000605682
0.000604651
0.000603609
0.000602579
0.000601576
0.000600614
0.000599705
0.000598854
0.000598069
0.000597351
0.000596702
0.000596123
0.000595611
0.000595166
0.000594785
0.000594464
0.0005942
0.000593989
0.000593829
0.000593714
0.000593641
0.000593606
0.000591385
0.00059092
0.000590277
0.000589501
0.000588628
0.000587693
0.000586723
0.000585744
0.000584774
0.000583831
0.000582927
0.000582072
0.000581273
0.000580534
0.000579859
0.000579249
0.000578704
0.000578223
0.000577805
0.000577446
0.000577144
0.000576896
0.000576698
0.000576547
0.000576439
0.00057637
0.000576338
0.000574261
0.000573823
0.000573219
0.000572489
0.000571668
0.000570788
0.000569876
0.000568955
0.000568043
0.000567156
0.000566306
0.000565502
0.00056475
0.000564055
0.00056342
0.000562846
0.000562334
0.000561882
0.000561488
0.000561151
0.000560867
0.000560633
0.000560447
0.000560305
0.000560204
0.000560139
0.000560109
0.000558166
0.000557754
0.000557186
0.000556499
0.000555727
0.000554899
0.000554041
0.000553174
0.000552317
0.000551482
0.000550682
0.000549926
0.000549218
0.000548565
0.000547967
0.000547428
0.000546946
0.00054652
0.00054615
0.000545833
0.000545566
0.000545346
0.000545171
0.000545037
0.000544942
0.000544881
0.000544853
0.000543034
0.000542647
0.000542112
0.000541466
0.000540739
0.000539961
0.000539154
0.000538338
0.000537531
0.000536746
0.000535993
0.000535281
0.000534616
0.000534001
0.000533439
0.000532931
0.000532478
0.000532077
0.000531729
0.00053143
0.000531179
0.000530973
0.000530808
0.000530682
0.000530592
0.000530535
0.000530508
0.000528807
0.000528442
0.000527939
0.000527331
0.000526647
0.000525914
0.000525155
0.000524387
0.000523628
0.000522889
0.000522181
0.000521511
0.000520884
0.000520306
0.000519777
0.000519299
0.000518873
0.000518496
0.000518168
0.000517887
0.000517651
0.000517457
0.000517302
0.000517183
0.000517099
0.000517045
0.00051702
0.000515427
0.000515084
0.00051461
0.000514037
0.000513394
0.000512704
0.000511989
0.000511267
0.000510553
0.000509857
0.000509191
0.00050856
0.000507971
0.000507427
0.000506929
0.000506479
0.000506078
0.000505723
0.000505415
0.00050515
0.000504928
0.000504745
0.0005046
0.000504488
0.000504409
0.000504358
0.000504334
0.000502842
0.00050252
0.000502074
0.000501535
0.000500929
0.00050028
0.000499608
0.000498928
0.000498255
0.000497601
0.000496974
0.00049638
0.000495826
0.000495313
0.000494845
0.000494422
0.000494044
0.000493711
0.00049342
0.000493172
0.000492962
0.00049279
0.000492653
0.000492548
0.000492474
0.000492426
0.000492404
0.000491006
0.000490703
0.000490283
0.000489776
0.000489206
0.000488595
0.000487962
0.000487322
0.000486689
0.000486073
0.000485483
0.000484925
0.000484403
0.000483921
0.00048348
0.000483082
0.000482726
0.000482412
0.000482139
0.000481905
0.000481708
0.000481547
0.000481418
0.000481319
0.000481249
0.000481204
0.000481183
0.000479874
0.000479588
0.000479193
0.000478716
0.00047818
0.000477605
0.000477009
0.000476407
0.000475811
0.000475232
0.000474676
0.000474151
0.00047366
0.000473206
0.000472791
0.000472417
0.000472082
0.000471787
0.00047153
0.00047131
0.000471125
0.000470972
0.000470851
0.000470758
0.000470692
0.00047065
0.00047063
0.000469404
0.000469135
0.000468763
0.000468314
0.00046781
0.000467269
0.000466708
0.000466142
0.000465581
0.000465036
0.000464513
0.000464019
0.000463557
0.00046313
0.00046274
0.000462388
0.000462073
0.000461795
0.000461553
0.000461346
0.000461172
0.000461029
0.000460915
0.000460827
0.000460765
0.000460726
0.000460707
0.000459558
0.000459305
0.000458956
0.000458533
0.000458058
0.00045755
0.000457022
0.000456489
0.000455962
0.000455449
0.000454957
0.000454492
0.000454058
0.000453656
0.00045329
0.000452958
0.000452662
0.000452401
0.000452174
0.000451979
0.000451815
0.00045168
0.000451573
0.000451491
0.000451432
0.000451395
0.000451377
0.000450302
0.000450064
0.000449735
0.000449338
0.000448891
0.000448412
0.000447916
0.000447415
0.000446919
0.000446437
0.000445975
0.000445538
0.000445129
0.000444752
0.000444407
0.000444095
0.000443817
0.000443571
0.000443357
0.000443174
0.00044302
0.000442894
0.000442793
0.000442716
0.000442661
0.000442626
0.000442609
0.000441602
0.000441378
0.000441069
0.000440695
0.000440276
0.000439826
0.000439359
0.000438888
0.000438422
0.000437969
0.000437534
0.000437123
0.000436739
0.000436385
0.000436061
0.000435768
0.000435506
0.000435275
0.000435075
0.000434903
0.000434758
0.000434639
0.000434544
0.000434472
0.00043442
0.000434387
0.000434372
0.000433429
0.000433219
0.000432928
0.000432577
0.000432183
0.00043176
0.000431322
0.000430879
0.000430442
0.000430016
0.000429608
0.000429222
0.000428861
0.000428528
0.000428223
0.000427948
0.000427703
0.000427486
0.000427298
0.000427136
0.000427
0.000426889
0.0004268
0.000426732
0.000426683
0.000426652
0.000426638
0.000425756
0.000425559
0.000425286
0.000424956
0.000424586
0.000424189
0.000423778
0.000423363
0.000422952
0.000422552
0.000422169
0.000421807
0.000421469
0.000421156
0.00042087
0.000420612
0.000420382
0.000420179
0.000420002
0.000419851
0.000419723
0.000419618
0.000419535
0.000419471
0.000419426
0.000419397
0.000419383
0.000418559
0.000418374
0.000418119
0.00041781
0.000417462
0.00041709
0.000416705
0.000416316
0.00041593
0.000415556
0.000415197
0.000414857
0.00041454
0.000414247
0.00041398
0.000413738
0.000413522
0.000413332
0.000413166
0.000413024
0.000412905
0.000412807
0.000412729
0.000412669
0.000412627
0.0004126
0.000412587
0.000411819
0.000411645
0.000411406
0.000411117
0.000410792
0.000410444
0.000410083
0.000409718
0.000409358
0.000409007
0.000408672
0.000408354
0.000408057
0.000407783
0.000407533
0.000407307
0.000407105
0.000406928
0.000406773
0.00040664
0.000406529
0.000406437
0.000406364
0.000406308
0.000406268
0.000406243
0.000406231
0.000405517
0.000405355
0.000405132
0.000404861
0.000404558
0.000404233
0.000403896
0.000403556
0.000403219
0.000402892
0.000402579
0.000402282
0.000402006
0.00040175
0.000401517
0.000401306
0.000401118
0.000400952
0.000400808
0.000400684
0.00040058
0.000400495
0.000400427
0.000400375
0.000400338
0.000400314
0.000400303
0.000399642
0.000399491
0.000399283
0.000399032
0.000398749
0.000398446
0.000398133
0.000397817
0.000397504
0.000397199
0.000396908
0.000396633
0.000396375
0.000396138
0.000395921
0.000395725
0.00039555
0.000395396
0.000395262
0.000395147
0.000395051
0.000394972
0.000394909
0.00039486
0.000394826
0.000394804
0.000394794
0.000394186
0.000394046
0.000393853
0.00039362
0.000393358
0.000393078
0.000392788
0.000392495
0.000392205
0.000391924
0.000391654
0.000391399
0.000391161
0.000390942
0.000390741
0.00039056
0.000390399
0.000390257
0.000390133
0.000390027
0.000389938
0.000389865
0.000389806
0.000389762
0.00038973
0.00038971
0.0003897
0.000389146
0.000389018
0.00038884
0.000388626
0.000388385
0.000388127
0.00038786
0.00038759
0.000387324
0.000387065
0.000386818
0.000386584
0.000386365
0.000386164
0.00038598
0.000385814
0.000385665
0.000385535
0.000385421
0.000385324
0.000385243
0.000385176
0.000385122
0.000385081
0.000385052
0.000385034
0.000385025
0.000384526
0.000384409
0.000384247
0.000384051
0.000383831
0.000383596
0.000383353
0.000383107
0.000382865
0.000382629
0.000382404
0.000382191
0.000381992
0.000381809
0.000381641
0.000381491
0.000381356
0.000381237
0.000381134
0.000381046
0.000380972
0.000380911
0.000380863
0.000380826
0.0003808
0.000380783
0.000380775
0.000380333
0.000380227
0.000380081
0.000379905
0.000379706
0.000379494
0.000379275
0.000379054
0.000378835
0.000378623
0.000378421
0.000378229
0.00037805
0.000377886
0.000377736
0.0003776
0.000377479
0.000377373
0.000377281
0.000377201
0.000377135
0.00037708
0.000377037
0.000377004
0.00037698
0.000376965
0.000376958
0.000376576
0.000376481
0.000376351
0.000376194
0.000376018
0.000375829
0.000375634
0.000375438
0.000375244
0.000375056
0.000374876
0.000374706
0.000374548
0.000374402
0.000374269
0.000374149
0.000374042
0.000373948
0.000373866
0.000373796
0.000373737
0.000373689
0.000373651
0.000373622
0.000373601
0.000373588
0.000373581
0.000373259
0.000373177
0.000373062
0.000372925
0.000372771
0.000372606
0.000372435
0.000372263
0.000372094
0.000371929
0.000371772
0.000371624
0.000371486
0.000371359
0.000371243
0.000371138
0.000371045
0.000370963
0.000370892
0.000370831
0.00037078
0.000370738
0.000370705
0.000370679
0.000370661
0.000370649
0.000370644
0.000370382
0.000370311
0.000370213
0.000370094
0.000369961
0.000369819
0.000369673
0.000369525
0.000369379
0.000369238
0.000369103
0.000368976
0.000368857
0.000368748
0.000368648
0.000368558
0.000368478
0.000368408
0.000368347
0.000368295
0.000368251
0.000368215
0.000368186
0.000368164
0.000368148
0.000368139
0.000368134
0.000367931
0.00036787
0.000367787
0.000367686
0.000367573
0.000367453
0.000367328
0.000367203
0.000367079
0.000366959
0.000366845
0.000366737
0.000366636
0.000366543
0.000366459
0.000366383
0.000366315
0.000366255
0.000366204
0.000366159
0.000366122
0.000366091
0.000366067
0.000366049
0.000366035
0.000366027
0.000366023
0.00036587
0.000365819
0.000365748
0.000365663
0.000365568
0.000365467
0.000365362
0.000365256
0.000365151
0.00036505
0.000364953
0.000364861
0.000364776
0.000364697
0.000364625
0.00036456
0.000364502
0.000364451
0.000364407
0.000364369
0.000364337
0.000364311
0.00036429
0.000364274
0.000364263
0.000364255
0.000364252
0.000364142
0.000364098
0.000364038
0.000363965
0.000363883
0.000363795
0.000363704
0.000363613
0.000363522
0.000363433
0.000363349
0.000363268
0.000363193
0.000363124
0.000363061
0.000363003
0.000362952
0.000362907
0.000362867
0.000362834
0.000362805
0.000362782
0.000362763
0.000362749
0.000362739
0.000362732
0.000362729
0.000362661
0.000362622
0.000362568
0.000362503
0.000362429
0.00036235
0.000362268
0.000362185
0.000362102
0.000362021
0.000361944
0.000361871
0.000361802
0.000361738
0.00036168
0.000361627
0.000361579
0.000361537
0.000361501
0.000361469
0.000361443
0.000361421
0.000361404
0.00036139
0.000361381
0.000361375
0.000361372
0.000361351
0.000361315
0.000361265
0.000361205
0.000361136
0.000361063
0.000360986
0.000360909
0.000360832
0.000360757
0.000360685
0.000360616
0.000360552
0.000360492
0.000360437
0.000360388
0.000360343
0.000360304
0.00036027
0.00036024
0.000360215
0.000360195
0.000360178
0.000360166
0.000360157
0.000360151
0.000360148
0.000360184
0.000360151
0.000360106
0.000360051
0.00035999
0.000359924
0.000359855
0.000359786
0.000359718
0.000359651
0.000359587
0.000359527
0.000359471
0.000359418
0.000359371
0.000359328
0.000359289
0.000359256
0.000359226
0.000359201
0.000359179
0.000359162