/*--------------------------------*- C++ -*----------------------------------*\
| =========                 |                                                 |
| \\      /  F ield         | OpenFOAM: The Open Source CFD Toolbox           |
|  \\    /   O peration     | Version:  2106                                  |
|   \\  /    A nd           | Website:  www.openfoam.com                      |
|    \\/     M anipulation  |                                                 |
\*---------------------------------------------------------------------------*/
FoamFile
{
    version     2.0;
    format      ascii;
    arch        "LSB;label=32;scalar=64";
    class       volScalarField;
    location    "200.00032";
    object      A1C2H3;
}
// * * * * * * * * * * * * * * * * * * * * * * * * * * * * * * * * * * * * * //

dimensions      [0 0 0 0 0 0 0];

internalField   nonuniform List<scalar> 
3360
(
5.90416e-25
6.27352e-25
6.79362e-25
7.43992e-25
8.19099e-25
9.02679e-25
9.92809e-25
1.08762e-24
1.1853e-24
1.28413e-24
1.38248e-24
1.47889e-24
1.57202e-24
1.66073e-24
1.74404e-24
1.82118e-24
1.89158e-24
1.95481e-24
2.01066e-24
2.05905e-24
2.10005e-24
2.13387e-24
2.16082e-24
2.1813e-24
2.19581e-24
2.20489e-24
2.20912e-24
2.98543e-24
3.19201e-24
3.48731e-24
3.86157e-24
4.30737e-24
4.81843e-24
5.38909e-24
6.01388e-24
6.68726e-24
7.40343e-24
8.15615e-24
8.93865e-24
9.74343e-24
1.05623e-23
1.13865e-23
1.22065e-23
1.30122e-23
1.37932e-23
1.45385e-23
1.52371e-23
1.58778e-23
1.64503e-23
1.69444e-23
1.73515e-23
1.7664e-23
1.78758e-23
1.79829e-23
1.14085e-23
1.23467e-23
1.37043e-23
1.54527e-23
1.75735e-23
2.00521e-23
2.2874e-23
2.60217e-23
2.94727e-23
3.31975e-23
3.71591e-23
4.1313e-23
4.56088e-23
4.99903e-23
5.4396e-23
5.87608e-23
6.30176e-23
6.70996e-23
7.0942e-23
7.44847e-23
7.76737e-23
8.04636e-23
8.28182e-23
8.47116e-23
8.61289e-23
8.70654e-23
8.75264e-23
4.121e-23
4.50798e-23
5.07508e-23
5.81571e-23
6.72737e-23
7.80847e-23
9.0562e-23
1.0465e-22
1.20255e-22
1.37241e-22
1.55424e-22
1.74575e-22
1.94426e-22
2.14672e-22
2.34984e-22
2.55018e-22
2.74431e-22
2.92894e-22
3.10105e-22
3.25801e-22
3.39765e-22
3.51833e-22
3.61892e-22
3.69882e-22
3.7579e-22
3.7965e-22
3.8153e-22
1.53122e-22
1.68916e-22
1.92212e-22
2.22866e-22
2.60891e-22
3.06312e-22
3.5907e-22
4.18951e-22
4.85537e-22
5.58181e-22
6.36005e-22
7.17918e-22
8.02652e-22
8.88805e-22
9.74895e-22
1.05942e-21
1.14094e-21
1.21808e-21
1.28964e-21
1.35459e-21
1.41213e-21
1.46165e-21
1.50277e-21
1.53532e-21
1.55931e-21
1.57494e-21
1.58253e-21
5.8382e-22
6.47684e-22
7.42258e-22
8.67209e-22
1.0228e-21
1.20925e-21
1.42638e-21
1.67327e-21
1.94813e-21
2.24814e-21
2.56952e-21
2.90756e-21
3.25683e-21
3.61136e-21
3.96492e-21
4.31127e-21
4.64446e-21
4.959e-21
5.25006e-21
5.51361e-21
5.74651e-21
5.94651e-21
6.11223e-21
6.24314e-21
6.33949e-21
6.40213e-21
6.43252e-21
2.26345e-21
2.52042e-21
2.90176e-21
3.40675e-21
4.0369e-21
4.79339e-21
5.67535e-21
6.67885e-21
7.79611e-21
9.01525e-21
1.03203e-20
1.16917e-20
1.31069e-20
1.45416e-20
1.59704e-20
1.73682e-20
1.8711e-20
1.99771e-20
2.11473e-20
2.22057e-20
2.31401e-20
2.39418e-20
2.46056e-20
2.51296e-20
2.5515e-20
2.57654e-20
2.58869e-20
8.85994e-21
9.88659e-21
1.14123e-20
1.34356e-20
1.59636e-20
1.90017e-20
2.25471e-20
2.65835e-20
3.10793e-20
3.59854e-20
4.12366e-20
4.67528e-20
5.24427e-20
5.82073e-20
6.39444e-20
6.95527e-20
7.49365e-20
8.00083e-20
8.46921e-20
8.89253e-20
9.26593e-20
9.58604e-20
9.85087e-20
1.00598e-19
1.02134e-19
1.03131e-19
1.03614e-19
3.48943e-20
3.89941e-20
4.50907e-20
5.31812e-20
6.3296e-20
7.54575e-20
8.96529e-20
1.05816e-19
1.23816e-19
1.43454e-19
1.64464e-19
1.86523e-19
2.09264e-19
2.32289e-19
2.55191e-19
2.77566e-19
2.99033e-19
3.19246e-19
3.37904e-19
3.5476e-19
3.69623e-19
3.82361e-19
3.92897e-19
4.01207e-19
4.07313e-19
4.11279e-19
4.13201e-19
1.37674e-19
1.53976e-19
1.78233e-19
2.1044e-19
2.50728e-19
2.9919e-19
3.55775e-19
4.20218e-19
4.9199e-19
5.70289e-19
6.5405e-19
7.41976e-19
8.32594e-19
9.24316e-19
1.01551e-18
1.10457e-18
1.18999e-18
1.27037e-18
1.34454e-18
1.41151e-18
1.47054e-18
1.52111e-18
1.56291e-18
1.59587e-18
1.62008e-18
1.6358e-18
1.64341e-18
5.44083e-19
6.08902e-19
7.05359e-19
8.33454e-19
9.93702e-19
1.18647e-18
1.41155e-18
1.66784e-18
1.95321e-18
2.26444e-18
2.59725e-18
2.94646e-18
3.30619e-18
3.67014e-18
4.03182e-18
4.38488e-18
4.72331e-18
5.0417e-18
5.33534e-18
5.60041e-18
5.83396e-18
6.03397e-18
6.19929e-18
6.3296e-18
6.4253e-18
6.48742e-18
6.5175e-18
2.14803e-18
2.40495e-18
2.78734e-18
3.29521e-18
3.93061e-18
4.69493e-18
5.58724e-18
6.60312e-18
7.734e-18
8.96695e-18
1.02849e-17
1.16673e-17
1.30906e-17
1.453e-17
1.59597e-17
1.73545e-17
1.86909e-17
1.99474e-17
2.11057e-17
2.21507e-17
2.3071e-17
2.38588e-17
2.45096e-17
2.50223e-17
2.53987e-17
2.5643e-17
2.57612e-17
8.47101e-18
9.4882e-18
1.10019e-17
1.30119e-17
1.55258e-17
1.85487e-17
2.2076e-17
2.60895e-17
3.05543e-17
3.54188e-17
4.06148e-17
4.60604e-17
5.16632e-17
5.73244e-17
6.29432e-17
6.84209e-17
7.36651e-17
7.85925e-17
8.31316e-17
8.72242e-17
9.08263e-17
9.39078e-17
9.64525e-17
9.84565e-17
9.9927e-17
1.00881e-16
1.01342e-16
3.3274e-17
3.72813e-17
4.32437e-17
5.11593e-17
6.10559e-17
7.29507e-17
8.68225e-17
1.02595e-16
1.20129e-16
1.39214e-16
1.59581e-16
1.80904e-16
2.0282e-16
2.2494e-16
2.46871e-16
2.68227e-16
2.88651e-16
3.07821e-16
3.25462e-16
3.41353e-16
3.55325e-16
3.67269e-16
3.77123e-16
3.84878e-16
3.90564e-16
3.9425e-16
3.96033e-16
1.30101e-16
1.45816e-16
1.69188e-16
2.00199e-16
2.38944e-16
2.8547e-16
3.39673e-16
4.0123e-16
4.69566e-16
5.43844e-16
6.22986e-16
7.05714e-16
7.90602e-16
8.76141e-16
9.60809e-16
1.04313e-15
1.12173e-15
1.1954e-15
1.2631e-15
1.324e-15
1.37749e-15
1.42315e-15
1.46079e-15
1.49038e-15
1.51206e-15
1.52611e-15
1.53289e-15
5.0498e-16
5.66084e-16
6.56906e-16
7.77308e-16
9.27575e-16
1.10779e-15
1.31742e-15
1.5551e-15
1.81847e-15
2.10419e-15
2.408e-15
2.7249e-15
3.04938e-15
3.37564e-15
3.69787e-15
4.01052e-15
4.30843e-15
4.58707e-15
4.84264e-15
5.07212e-15
5.27331e-15
5.44481e-15
5.58595e-15
5.69675e-15
5.77784e-15
5.83029e-15
5.85562e-15
1.94208e-15
2.17713e-15
2.52615e-15
2.98822e-15
3.56396e-15
4.2531e-15
5.05299e-15
5.95769e-15
6.95754e-15
8.0392e-15
9.18603e-15
1.03787e-14
1.15963e-14
1.28169e-14
1.4019e-14
1.51818e-14
1.62869e-14
1.73177e-14
1.82607e-14
1.91055e-14
1.98445e-14
2.04731e-14
2.09895e-14
2.13942e-14
2.16899e-14
2.18809e-14
2.1973e-14
7.38184e-15
8.27282e-15
9.59387e-15
1.13394e-14
1.35093e-14
1.60993e-14
1.90961e-14
2.24742e-14
2.6194e-14
3.0203e-14
3.44369e-14
3.88229e-14
4.32826e-14
4.7736e-14
5.2105e-14
5.63161e-14
6.03035e-14
6.40107e-14
6.73917e-14
7.04113e-14
7.30455e-14
7.52807e-14
7.71124e-14
7.8545e-14
7.95897e-14
8.02634e-14
8.05879e-14
2.76617e-14
3.09755e-14
3.58785e-14
4.23392e-14
5.03433e-14
5.98605e-14
7.08259e-14
8.31293e-14
9.66123e-14
1.11071e-13
1.26264e-13
1.41923e-13
1.57766e-13
1.7351e-13
1.88883e-13
2.03634e-13
2.17542e-13
2.3042e-13
2.42121e-13
2.52535e-13
2.61591e-13
2.69253e-13
2.75515e-13
2.804e-13
2.83955e-13
2.86244e-13
2.87344e-13
1.01895e-13
1.13923e-13
1.31668e-13
1.54963e-13
1.83694e-13
2.17683e-13
2.56627e-13
3.00066e-13
3.4738e-13
3.97804e-13
4.5046e-13
5.04401e-13
5.58649e-13
6.12248e-13
6.64295e-13
7.13977e-13
7.6059e-13
8.03556e-13
8.4243e-13
8.76894e-13
9.06757e-13
9.31939e-13
9.52462e-13
9.68432e-13
9.80025e-13
9.87473e-13
9.91046e-13
3.6795e-13
4.10316e-13
4.72585e-13
5.53931e-13
6.53681e-13
7.70931e-13
9.0435e-13
1.0521e-12
1.21185e-12
1.38086e-12
1.55607e-12
1.7343e-12
1.91233e-12
2.0871e-12
2.25578e-12
2.41589e-12
2.56531e-12
2.70237e-12
2.82582e-12
2.93483e-12
3.02893e-12
3.10801e-12
3.17228e-12
3.22215e-12
3.25827e-12
3.28142e-12
3.29251e-12
1.29836e-12
1.44227e-12
1.65281e-12
1.92622e-12
2.25916e-12
2.64752e-12
3.08589e-12
3.56735e-12
4.08361e-12
4.62533e-12
5.18251e-12
5.74499e-12
6.30283e-12
6.84676e-12
7.36845e-12
7.86072e-12
8.31769e-12
8.73481e-12
9.10883e-12
9.43775e-12
9.72066e-12
9.95765e-12
1.01497e-11
1.02983e-11
1.04057e-11
1.04744e-11
1.05072e-11
4.46177e-12
4.93048e-12
5.61252e-12
6.49216e-12
7.55492e-12
8.78408e-12
1.01593e-11
1.16562e-11
1.32474e-11
1.49029e-11
1.65919e-11
1.82838e-11
1.99499e-11
2.15637e-11
2.3102e-11
2.45454e-11
2.58785e-11
2.70897e-11
2.81712e-11
2.91187e-11
2.9931e-11
3.06093e-11
3.11574e-11
3.15807e-11
3.18859e-11
3.20808e-11
3.21739e-11
1.48744e-11
1.63308e-11
1.84379e-11
2.11357e-11
2.43683e-11
2.80742e-11
3.21833e-11
3.66166e-11
4.12883e-11
4.61091e-11
5.09894e-11
5.58432e-11
6.05908e-11
6.51612e-11
6.94937e-11
7.35383e-11
7.72566e-11
8.06209e-11
8.36138e-11
8.62271e-11
8.84607e-11
9.03212e-11
9.1821e-11
9.29768e-11
9.38087e-11
9.43392e-11
9.4592e-11
4.79187e-11
5.22243e-11
5.8418e-11
6.62913e-11
7.56499e-11
8.62892e-11
9.79868e-11
1.10503e-10
1.2359e-10
1.36993e-10
1.50469e-10
1.63786e-10
1.76737e-10
1.89138e-10
2.00837e-10
2.11712e-10
2.2167e-10
2.30649e-10
2.38612e-10
2.45546e-10
2.51457e-10
2.56371e-10
2.60324e-10
2.63365e-10
2.65551e-10
2.66943e-10
2.67606e-10
1.48664e-10
1.60773e-10
1.78103e-10
1.99991e-10
2.25825e-10
2.54978e-10
2.86797e-10
3.20604e-10
3.55715e-10
3.91454e-10
4.27181e-10
4.62305e-10
4.96299e-10
5.28713e-10
5.59174e-10
5.87391e-10
6.13151e-10
6.36314e-10
6.56805e-10
6.74609e-10
6.89759e-10
7.0233e-10
7.12429e-10
7.20188e-10
7.25758e-10
7.29301e-10
7.30987e-10
4.43099e-10
4.75609e-10
5.21932e-10
5.80128e-10
6.48417e-10
7.25026e-10
8.08158e-10
8.96002e-10
9.86763e-10
1.07872e-09
1.17024e-09
1.25988e-09
1.34632e-09
1.4285e-09
1.50551e-09
1.57667e-09
1.64149e-09
1.69966e-09
1.75103e-09
1.7956e-09
1.83347e-09
1.86486e-09
1.89005e-09
1.90938e-09
1.92325e-09
1.93207e-09
1.93626e-09
1.26652e-09
1.35027e-09
1.46922e-09
1.61808e-09
1.79205e-09
1.98641e-09
2.19648e-09
2.41765e-09
2.64539e-09
2.87544e-09
3.10381e-09
3.32693e-09
3.54169e-09
3.74546e-09
3.93614e-09
4.11211e-09
4.27222e-09
4.41577e-09
4.54244e-09
4.65226e-09
4.74552e-09
4.82278e-09
4.88475e-09
4.9323e-09
4.96639e-09
4.98806e-09
4.99836e-09
3.46608e-09
3.67426e-09
3.96938e-09
4.33792e-09
4.76763e-09
5.24672e-09
5.76358e-09
6.30688e-09
6.86567e-09
7.42959e-09
7.9891e-09
8.53559e-09
9.0616e-09
9.56081e-09
1.00281e-08
1.04596e-08
1.08525e-08
1.1205e-08
1.15163e-08
1.17864e-08
1.2016e-08
1.22064e-08
1.23592e-08
1.24766e-08
1.25608e-08
1.26144e-08
1.26399e-08
9.05582e-09
9.55626e-09
1.02653e-08
1.11503e-08
1.21819e-08
1.33321e-08
1.45735e-08
1.58796e-08
1.72248e-08
1.85846e-08
1.99366e-08
2.12604e-08
2.2538e-08
2.37541e-08
2.48962e-08
2.59541e-08
2.69206e-08
2.77908e-08
2.85619e-08
2.92332e-08
2.98056e-08
3.02818e-08
3.06652e-08
3.09604e-08
3.11729e-08
3.13083e-08
3.13729e-08
2.24751e-08
2.36329e-08
2.5274e-08
2.7324e-08
2.97166e-08
3.23888e-08
3.52795e-08
3.83293e-08
4.14804e-08
4.4678e-08
4.78703e-08
5.101e-08
5.40545e-08
5.69669e-08
5.97154e-08
6.22746e-08
6.46244e-08
6.67505e-08
6.86436e-08
7.02995e-08
7.17179e-08
7.29026e-08
7.38605e-08
7.46009e-08
7.51356e-08
7.54776e-08
7.56411e-08
5.2654e-08
5.51993e-08
5.88095e-08
6.33237e-08
6.85995e-08
7.45026e-08
8.09026e-08
8.76722e-08
9.46875e-08
1.01829e-07
1.08983e-07
1.16044e-07
1.22915e-07
1.29512e-07
1.35759e-07
1.41596e-07
1.46972e-07
1.51851e-07
1.56208e-07
1.60028e-07
1.63309e-07
1.66056e-07
1.68281e-07
1.70004e-07
1.71251e-07
1.72049e-07
1.72432e-07
1.15831e-07
1.21065e-07
1.28487e-07
1.37765e-07
1.48607e-07
1.60737e-07
1.73889e-07
1.87801e-07
2.02218e-07
2.16894e-07
2.31596e-07
2.46104e-07
2.6022e-07
2.73764e-07
2.86585e-07
2.98555e-07
3.09571e-07
3.19561e-07
3.28472e-07
3.3628e-07
3.42978e-07
3.48579e-07
3.53112e-07
3.5662e-07
3.59155e-07
3.60778e-07
3.61555e-07
2.38672e-07
2.48612e-07
2.62685e-07
2.80243e-07
3.0071e-07
3.23545e-07
3.48227e-07
3.74249e-07
4.01124e-07
4.28381e-07
4.55582e-07
4.8232e-07
5.08229e-07
5.32991e-07
5.56335e-07
5.78043e-07
5.97945e-07
6.15923e-07
6.31904e-07
6.45856e-07
6.57787e-07
6.67735e-07
6.75763e-07
6.8196e-07
6.86428e-07
6.89283e-07
6.90646e-07
4.60733e-07
4.7808e-07
5.02572e-07
5.33014e-07
5.68346e-07
6.07572e-07
6.49744e-07
6.93957e-07
7.39351e-07
7.85118e-07
8.30514e-07
8.74872e-07
9.17602e-07
9.58206e-07
9.96274e-07
1.03148e-06
1.06361e-06
1.09248e-06
1.11804e-06
1.14026e-06
1.15919e-06
1.17492e-06
1.18758e-06
1.19732e-06
1.20433e-06
1.20879e-06
1.21092e-06
8.34897e-07
8.62768e-07
9.01985e-07
9.50513e-07
1.00654e-06
1.06838e-06
1.13446e-06
1.20328e-06
1.27349e-06
1.34381e-06
1.41311e-06
1.48041e-06
1.54485e-06
1.60573e-06
1.6625e-06
1.71475e-06
1.76218e-06
1.80465e-06
1.84208e-06
1.87452e-06
1.90206e-06
1.92487e-06
1.94319e-06
1.95725e-06
1.96734e-06
1.97377e-06
1.97683e-06
1.42481e-06
1.46635e-06
1.5246e-06
1.59637e-06
1.67881e-06
1.7693e-06
1.86542e-06
1.96495e-06
2.06586e-06
2.16635e-06
2.26482e-06
2.35993e-06
2.45053e-06
2.53572e-06
2.61481e-06
2.68731e-06
2.75289e-06
2.8114e-06
2.86283e-06
2.90726e-06
2.94491e-06
2.97603e-06
3.00097e-06
3.02009e-06
3.0338e-06
3.04251e-06
3.04666e-06
2.29992e-06
2.35798e-06
2.43916e-06
2.5388e-06
2.65277e-06
2.77728e-06
2.90889e-06
3.04451e-06
3.18135e-06
3.31698e-06
3.4493e-06
3.57657e-06
3.69734e-06
3.8105e-06
3.91522e-06
4.01092e-06
4.09727e-06
4.17414e-06
4.24156e-06
4.29972e-06
4.34891e-06
4.38954e-06
4.42205e-06
4.44695e-06
4.46479e-06
4.47613e-06
4.48152e-06
3.53e-06
3.607e-06
3.7144e-06
3.84586e-06
3.9957e-06
4.15882e-06
4.33061e-06
4.50698e-06
4.6843e-06
4.85945e-06
5.02979e-06
5.19312e-06
5.3477e-06
5.49219e-06
5.6256e-06
5.74729e-06
5.85691e-06
5.95434e-06
6.03968e-06
6.11323e-06
6.17538e-06
6.22667e-06
6.26769e-06
6.2991e-06
6.3216e-06
6.33588e-06
6.34267e-06
5.18093e-06
5.27886e-06
5.41525e-06
5.58181e-06
5.77121e-06
5.97686e-06
6.19288e-06
6.41406e-06
6.63589e-06
6.85448e-06
7.06658e-06
7.26956e-06
7.46132e-06
7.64025e-06
7.80524e-06
7.95554e-06
8.09079e-06
8.21089e-06
8.31603e-06
8.40656e-06
8.48304e-06
8.54613e-06
8.59657e-06
8.63519e-06
8.66284e-06
8.6804e-06
8.68875e-06
7.31229e-06
7.43286e-06
7.60057e-06
7.80508e-06
8.03724e-06
8.28886e-06
8.55269e-06
8.82234e-06
9.09231e-06
9.35791e-06
9.61526e-06
9.86119e-06
1.00933e-05
1.03096e-05
1.05088e-05
1.06902e-05
1.08534e-05
1.09981e-05
1.11248e-05
1.12339e-05
1.1326e-05
1.14019e-05
1.14627e-05
1.15091e-05
1.15424e-05
1.15636e-05
1.15736e-05
9.97657e-06
1.01213e-05
1.03224e-05
1.05674e-05
1.08452e-05
1.1146e-05
1.14609e-05
1.17824e-05
1.21038e-05
1.24198e-05
1.27256e-05
1.30176e-05
1.32929e-05
1.35493e-05
1.37855e-05
1.40003e-05
1.41934e-05
1.43647e-05
1.45146e-05
1.46436e-05
1.47525e-05
1.48424e-05
1.49142e-05
1.49692e-05
1.50085e-05
1.50336e-05
1.50455e-05
1.32194e-05
1.33896e-05
1.36261e-05
1.3914e-05
1.42401e-05
1.45929e-05
1.4962e-05
1.53384e-05
1.57146e-05
1.6084e-05
1.64413e-05
1.67823e-05
1.71036e-05
1.74027e-05
1.76781e-05
1.79285e-05
1.81535e-05
1.83532e-05
1.85278e-05
1.86781e-05
1.8805e-05
1.89096e-05
1.89933e-05
1.90573e-05
1.91032e-05
1.91323e-05
1.91462e-05
1.708e-05
1.72771e-05
1.75508e-05
1.78838e-05
1.82608e-05
1.86684e-05
1.90945e-05
1.9529e-05
1.99628e-05
2.03886e-05
2.08002e-05
2.11929e-05
2.15628e-05
2.19071e-05
2.22238e-05
2.25119e-05
2.27707e-05
2.30003e-05
2.3201e-05
2.33738e-05
2.35197e-05
2.364e-05
2.37361e-05
2.38098e-05
2.38625e-05
2.3896e-05
2.3912e-05
2.15923e-05
2.18176e-05
2.21302e-05
2.25104e-05
2.29408e-05
2.34058e-05
2.38918e-05
2.43869e-05
2.48812e-05
2.53662e-05
2.58348e-05
2.62817e-05
2.67026e-05
2.70942e-05
2.74545e-05
2.7782e-05
2.80762e-05
2.83372e-05
2.85654e-05
2.87617e-05
2.89275e-05
2.90642e-05
2.91736e-05
2.92573e-05
2.93172e-05
2.93553e-05
2.93734e-05
2.67855e-05
2.704e-05
2.73932e-05
2.78227e-05
2.83087e-05
2.88336e-05
2.9382e-05
2.99405e-05
3.04979e-05
3.10445e-05
3.15727e-05
3.20762e-05
3.25502e-05
3.29912e-05
3.33967e-05
3.37654e-05
3.40966e-05
3.43903e-05
3.46471e-05
3.4868e-05
3.50546e-05
3.52084e-05
3.53314e-05
3.54256e-05
3.54931e-05
3.5536e-05
3.55564e-05
3.26843e-05
3.29693e-05
3.33647e-05
3.38454e-05
3.43891e-05
3.49762e-05
3.55894e-05
3.62137e-05
3.68365e-05
3.74472e-05
3.80371e-05
3.85993e-05
3.91285e-05
3.96207e-05
4.00733e-05
4.04846e-05
4.08541e-05
4.11817e-05
4.14681e-05
4.17146e-05
4.19227e-05
4.20942e-05
4.22314e-05
4.23365e-05
4.24117e-05
4.24595e-05
4.24823e-05
3.93103e-05
3.96268e-05
4.00658e-05
4.05994e-05
4.12028e-05
4.18542e-05
4.25344e-05
4.32268e-05
4.39172e-05
4.45941e-05
4.52478e-05
4.58706e-05
4.64567e-05
4.70017e-05
4.75028e-05
4.79583e-05
4.83672e-05
4.87298e-05
4.90468e-05
4.93195e-05
4.95497e-05
4.97396e-05
4.98914e-05
5.00076e-05
5.00909e-05
5.01438e-05
5.0169e-05
4.66816e-05
4.70305e-05
4.75145e-05
4.81026e-05
4.87676e-05
4.94852e-05
5.02343e-05
5.09966e-05
5.17568e-05
5.25017e-05
5.32209e-05
5.3906e-05
5.45507e-05
5.515e-05
5.5701e-05
5.62016e-05
5.66512e-05
5.70496e-05
5.7398e-05
5.76977e-05
5.79507e-05
5.81593e-05
5.8326e-05
5.84537e-05
5.85452e-05
5.86033e-05
5.8631e-05
5.48137e-05
5.51959e-05
5.5726e-05
5.63701e-05
5.70981e-05
5.78836e-05
5.87034e-05
5.95376e-05
6.0369e-05
6.11837e-05
6.19701e-05
6.2719e-05
6.34235e-05
6.40785e-05
6.46805e-05
6.52273e-05
6.57183e-05
6.61535e-05
6.65339e-05
6.68612e-05
6.71374e-05
6.73651e-05
6.75472e-05
6.76866e-05
6.77865e-05
6.78499e-05
6.78801e-05
6.37195e-05
6.41358e-05
6.4713e-05
6.54143e-05
6.62068e-05
6.70617e-05
6.79537e-05
6.88611e-05
6.97654e-05
7.06512e-05
7.15061e-05
7.23202e-05
7.30858e-05
7.37974e-05
7.44513e-05
7.50454e-05
7.55786e-05
7.60512e-05
7.64642e-05
7.68195e-05
7.71194e-05
7.73666e-05
7.75643e-05
7.77156e-05
7.7824e-05
7.78929e-05
7.79256e-05
7.34095e-05
7.38605e-05
7.44859e-05
7.52453e-05
7.61035e-05
7.7029e-05
7.79946e-05
7.89766e-05
7.9955e-05
8.09132e-05
8.18378e-05
8.2718e-05
8.35456e-05
8.43149e-05
8.50216e-05
8.56635e-05
8.62396e-05
8.67501e-05
8.71963e-05
8.75801e-05
8.79039e-05
8.81709e-05
8.83844e-05
8.85478e-05
8.86648e-05
8.87392e-05
8.87746e-05
8.38923e-05
8.43785e-05
8.50527e-05
8.58713e-05
8.67961e-05
8.77934e-05
8.88335e-05
8.98911e-05
9.09447e-05
9.19763e-05
9.29715e-05
9.39188e-05
9.48093e-05
9.56369e-05
9.6397e-05
9.70874e-05
9.77069e-05
9.82559e-05
9.87356e-05
9.91481e-05
9.94962e-05
9.97832e-05
0.000100013
0.000100188
0.000100314
0.000100394
0.000100432
9.51743e-05
9.56962e-05
9.64198e-05
9.72982e-05
9.82905e-05
9.93604e-05
0.000100476
0.00010161
0.00010274
0.000103845
0.000104912
0.000105927
0.000106881
0.000107768
0.000108582
0.000109321
0.000109984
0.000110572
0.000111086
0.000111527
0.0001119
0.000112207
0.000112452
0.00011264
0.000112775
0.00011286
0.000112901
0.00010726
0.000107818
0.000108591
0.00010953
0.000110591
0.000111734
0.000112926
0.000114137
0.000115343
0.000116524
0.000117662
0.000118745
0.000119764
0.000120709
0.000121578
0.000122366
0.000123074
0.0001237
0.000124248
0.000124719
0.000125116
0.000125443
0.000125705
0.000125906
0.000126049
0.00012614
0.000126184
0.000120153
0.000120747
0.00012157
0.00012257
0.000123699
0.000124916
0.000126184
0.000127473
0.000128756
0.000130012
0.000131223
0.000132375
0.000133457
0.000134463
0.000135386
0.000136224
0.000136976
0.000137641
0.000138223
0.000138723
0.000139145
0.000139493
0.000139771
0.000139984
0.000140136
0.000140233
0.000140279
0.000133853
0.000134484
0.000135358
0.000136419
0.000137616
0.000138907
0.000140252
0.000141619
0.00014298
0.000144311
0.000145594
0.000146815
0.000147962
0.000149027
0.000150005
0.000150892
0.000151688
0.000152394
0.000153009
0.000153539
0.000153986
0.000154354
0.000154648
0.000154873
0.000155035
0.000155137
0.000155186
0.000148361
0.000149028
0.000149953
0.000151075
0.000152341
0.000153706
0.000155128
0.000156573
0.000158011
0.000159418
0.000160774
0.000162063
0.000163275
0.000164399
0.000165432
0.000166369
0.00016721
0.000167954
0.000168604
0.000169163
0.000169634
0.000170023
0.000170333
0.000170571
0.000170741
0.000170849
0.000170901
0.000163674
0.000164377
0.000165353
0.000166536
0.000167872
0.00016931
0.00017081
0.000172332
0.000173847
0.00017533
0.000176758
0.000178116
0.000179392
0.000180576
0.000181664
0.00018265
0.000183535
0.000184318
0.000185003
0.000185591
0.000186087
0.000186496
0.000186822
0.000187072
0.000187251
0.000187365
0.000187419
0.000179788
0.000180529
0.000181554
0.000182799
0.000184203
0.000185715
0.000187291
0.000188892
0.000190484
0.000192041
0.000193542
0.000194968
0.000196308
0.000197552
0.000198693
0.000199729
0.000200658
0.00020148
0.000202199
0.000202816
0.000203336
0.000203766
0.000204108
0.000204371
0.000204559
0.000204678
0.000204735
0.0001967
0.000197476
0.000198552
0.000199857
0.00020133
0.000202916
0.000204568
0.000206245
0.000207914
0.000209546
0.000211118
0.000212613
0.000214016
0.000215319
0.000216515
0.000217599
0.000218572
0.000219433
0.000220185
0.000220831
0.000221376
0.000221825
0.000222184
0.000222458
0.000222655
0.00022278
0.000222839
0.0002144
0.000215213
0.000216338
0.000217704
0.000219244
0.000220903
0.000222631
0.000224385
0.00022613
0.000227836
0.000229479
0.000231041
0.000232508
0.000233869
0.000235118
0.000236251
0.000237266
0.000238166
0.000238951
0.000239626
0.000240195
0.000240664
0.000241038
0.000241325
0.00024153
0.000241661
0.000241723
0.000232882
0.00023373
0.000234905
0.00023633
0.000237937
0.000239668
0.000241471
0.000243301
0.000245121
0.0002469
0.000248613
0.000250242
0.000251771
0.00025319
0.000254492
0.000255673
0.000256731
0.000257668
0.000258487
0.00025919
0.000259783
0.000260271
0.000260661
0.00026096
0.000261174
0.00026131
0.000261374
0.000252134
0.000253017
0.000254241
0.000255725
0.000257398
0.0002592
0.000261077
0.000262981
0.000264875
0.000266727
0.00026851
0.000270204
0.000271794
0.00027327
0.000274624
0.000275852
0.000276953
0.000277927
0.000278778
0.000279509
0.000280125
0.000280633
0.000281038
0.000281349
0.000281571
0.000281712
0.000281779
0.000272144
0.000273062
0.000274333
0.000275875
0.000277614
0.000279486
0.000281435
0.000283413
0.00028538
0.000287302
0.000289153
0.000290912
0.000292563
0.000294094
0.000295499
0.000296773
0.000297915
0.000298926
0.000299809
0.000300567
0.000301206
0.000301733
0.000302154
0.000302476
0.000302706
0.000302852
0.000302922
0.000292896
0.000293848
0.000295166
0.000296765
0.000298568
0.000300508
0.000302528
0.000304578
0.000306616
0.000308608
0.000310526
0.000312348
0.000314058
0.000315644
0.000317099
0.000318418
0.000319601
0.000320647
0.000321561
0.000322346
0.000323008
0.000323553
0.000323988
0.000324321
0.00032456
0.000324711
0.000324783
0.000314373
0.000315358
0.000316722
0.000318376
0.000320242
0.000322249
0.000324339
0.000326459
0.000328566
0.000330626
0.000332608
0.000334492
0.000336259
0.000337899
0.000339402
0.000340766
0.000341987
0.000343069
0.000344012
0.000344823
0.000345507
0.00034607
0.00034652
0.000346864
0.00034711
0.000347267
0.000347341
0.000336555
0.000337572
0.000338981
0.000340688
0.000342614
0.000344687
0.000346843
0.000349032
0.000351206
0.000353331
0.000355377
0.00035732
0.000359143
0.000360833
0.000362384
0.00036379
0.00036505
0.000366164
0.000367137
0.000367973
0.000368678
0.000369258
0.000369722
0.000370077
0.00037033
0.000370492
0.000370568
0.000359416
0.000360465
0.000361916
0.000363676
0.00036566
0.000367795
0.000370016
0.00037227
0.000374509
0.000376697
0.000378803
0.000380803
0.000382679
0.00038442
0.000386015
0.000387462
0.000388758
0.000389905
0.000390906
0.000391766
0.00039249
0.000393087
0.000393564
0.000393929
0.00039419
0.000394356
0.000394435
0.000382929
0.000384007
0.000385499
0.000387308
0.000389348
0.000391542
0.000393826
0.000396142
0.000398443
0.000400691
0.000402854
0.000404908
0.000406835
0.000408623
0.000410261
0.000411746
0.000413077
0.000414254
0.000415282
0.000416164
0.000416908
0.000417521
0.00041801
0.000418384
0.000418652
0.000418822
0.000418903
0.000407058
0.000408164
0.000409695
0.000411551
0.000413643
0.000415894
0.000418236
0.00042061
0.000422969
0.000425274
0.000427491
0.000429596
0.000431571
0.000433402
0.00043508
0.000436602
0.000437965
0.00043917
0.000440223
0.000441126
0.000441888
0.000442515
0.000443016
0.000443399
0.000443674
0.000443848
0.000443931
0.000431764
0.000432896
0.000434463
0.000436363
0.000438504
0.000440806
0.000443202
0.000445631
0.000448044
0.0004504
0.000452667
0.000454819
0.000456838
0.000458709
0.000460424
0.000461979
0.000463372
0.000464604
0.000465678
0.000466601
0.000467379
0.00046802
0.000468532
0.000468923
0.000469203
0.000469381
0.000469466
0.000456999
0.000458155
0.000459755
0.000461693
0.000463879
0.000466229
0.000468673
0.000471151
0.000473613
0.000476016
0.000478328
0.000480522
0.00048258
0.000484487
0.000486236
0.00048782
0.000489239
0.000490494
0.000491589
0.000492529
0.000493322
0.000493974
0.000494495
0.000494894
0.000495179
0.00049536
0.000495446
0.000482705
0.000483882
0.000485511
0.000487485
0.000489709
0.0004921
0.000494587
0.000497109
0.000499612
0.000502056
0.000504407
0.000506638
0.00050873
0.000510668
0.000512445
0.000514055
0.000515496
0.000516771
0.000517883
0.000518838
0.000519643
0.000520306
0.000520835
0.000521239
0.000521529
0.000521713
0.0005218
0.000508816
0.000510011
0.000511664
0.000513667
0.000515923
0.00051835
0.000520872
0.000523429
0.000525967
0.000528445
0.000530827
0.000533088
0.000535207
0.000537171
0.00053897
0.0005406
0.00054206
0.000543351
0.000544477
0.000545443
0.000546258
0.000546928
0.000547464
0.000547873
0.000548166
0.000548352
0.000548441
0.000535251
0.000536459
0.000538131
0.000540157
0.000542438
0.000544891
0.00054744
0.000550024
0.000552588
0.00055509
0.000557496
0.000559778
0.000561918
0.000563899
0.000565715
0.000567359
0.000568832
0.000570133
0.000571269
0.000572243
0.000573064
0.00057374
0.00057428
0.000574693
0.000574988
0.000575175
0.000575264
0.000561914
0.000563132
0.000564816
0.000566856
0.000569154
0.000571623
0.000574189
0.000576789
0.000579369
0.000581885
0.000584304
0.000586599
0.000588749
0.00059074
0.000592564
0.000594216
0.000595694
0.000597001
0.000598141
0.000599119
0.000599943
0.000600621
0.000601163
0.000601577
0.000601873
0.000602061
0.000602151
0.000588695
0.000589916
0.000591605
0.00059365
0.000595953
0.000598427
0.000600998
0.000603601
0.000606184
0.000608703
0.000611123
0.000613419
0.000615569
0.000617559
0.000619382
0.000621033
0.00062251
0.000623816
0.000624954
0.000625931
0.000626753
0.000627431
0.000627971
0.000628384
0.00062868
0.000628867
0.000628957
0.00061546
0.000616678
0.000618363
0.000620402
0.000622698
0.000625163
0.000627724
0.000630317
0.000632888
0.000635395
0.000637803
0.000640086
0.000642223
0.000644202
0.000646013
0.000647653
0.00064912
0.000650416
0.000651546
0.000652515
0.000653331
0.000654003
0.000654539
0.000654949
0.000655242
0.000655428
0.000655517
0.000642057
0.000643264
0.000644934
0.000646954
0.000649228
0.000651669
0.000654204
0.000656769
0.000659312
0.00066179
0.000664169
0.000666424
0.000668534
0.000670487
0.000672274
0.000673891
0.000675338
0.000676616
0.000677729
0.000678684
0.000679488
0.00068015
0.000680678
0.000681081
0.00068137
0.000681553
0.00068164
0.000668308
0.000669496
0.000671138
0.000673125
0.00067536
0.000677758
0.000680247
0.000682765
0.00068526
0.00068769
0.000690023
0.000692231
0.000694298
0.00069621
0.000697959
0.00069954
0.000700954
0.000702203
0.000703291
0.000704224
0.000705009
0.000705655
0.00070617
0.000706564
0.000706846
0.000707024
0.000707109
0.000694011
0.000695169
0.00069677
0.000698707
0.000700884
0.000703219
0.000705641
0.00070809
0.000710515
0.000712875
0.00071514
0.000717283
0.000719287
0.00072114
0.000722834
0.000724365
0.000725734
0.000726942
0.000727994
0.000728896
0.000729655
0.000730279
0.000730776
0.000731157
0.000731429
0.000731601
0.000731683
0.00071894
0.000720058
0.000721603
0.00072347
0.000725568
0.000727817
0.000730148
0.000732503
0.000734833
0.0007371
0.000739273
0.000741329
0.000743249
0.000745024
0.000746645
0.000748111
0.000749419
0.000750574
0.000751579
0.00075244
0.000753164
0.000753759
0.000754234
0.000754597
0.000754856
0.00075502
0.000755098
0.000742849
0.000743914
0.000745385
0.000747162
0.000749158
0.000751296
0.00075351
0.000755745
0.000757954
0.000760102
0.000762159
0.000764103
0.000765918
0.000767593
0.000769123
0.000770504
0.000771737
0.000772825
0.00077377
0.00077458
0.000775261
0.000775821
0.000776267
0.000776607
0.000776851
0.000777005
0.000777078
0.000765475
0.000766474
0.000767854
0.000769519
0.000771388
0.000773389
0.000775458
0.000777545
0.000779607
0.000781608
0.000783523
0.00078533
0.000787017
0.000788572
0.00078999
0.00079127
0.000792412
0.000793417
0.000794292
0.00079504
0.000795669
0.000796185
0.000796596
0.00079691
0.000797135
0.000797277
0.000797344
0.000786547
0.000787468
0.000788739
0.000790271
0.000791989
0.000793826
0.000795724
0.000797635
0.000799521
0.000801349
0.000803096
0.000804743
0.000806278
0.000807692
0.00080898
0.000810141
0.000811176
0.000812087
0.000812877
0.000813554
0.000814122
0.000814588
0.000814959
0.000815242
0.000815444
0.000815572
0.000815633
0.000805806
0.000806636
0.000807781
0.000809159
0.000810703
0.000812352
0.000814052
0.000815763
0.000817447
0.000819079
0.000820634
0.000822099
0.000823462
0.000824716
0.000825857
0.000826883
0.000827797
0.0008286
0.000829298
0.000829893
0.000830393
0.000830803
0.000831129
0.000831377
0.000831555
0.000831667
0.00083172
0.000823018
0.000823746
0.00082475
0.000825957
0.000827307
0.000828746
0.000830229
0.000831717
0.00083318
0.000834594
0.000835939
0.000837204
0.000838379
0.000839458
0.000840437
0.000841318
0.0008421
0.000842787
0.000843383
0.000843891
0.000844316
0.000844665
0.000844943
0.000845154
0.000845304
0.0008454
0.000845445
0.000837997
0.000838616
0.000839468
0.000840492
0.000841634
0.00084285
0.000844099
0.000845351
0.000846578
0.000847761
0.000848886
0.00084994
0.000850916
0.000851811
0.000852622
0.00085335
0.000853995
0.000854561
0.00085505
0.000855467
0.000855816
0.000856102
0.000856329
0.000856501
0.000856624
0.000856702
0.000856739
0.000850632
0.000851139
0.000851834
0.000852669
0.000853598
0.000854584
0.000855595
0.000856605
0.000857593
0.000858543
0.000859442
0.000860284
0.000861061
0.000861771
0.000862414
0.000862988
0.000863497
0.000863942
0.000864326
0.000864653
0.000864926
0.000865149
0.000865326
0.000865461
0.000865556
0.000865617
0.000865646
0.000860907
0.000861302
0.000861844
0.000862492
0.000863211
0.000863973
0.000864752
0.000865527
0.000866283
0.000867007
0.00086769
0.000868327
0.000868913
0.000869448
0.000869929
0.000870359
0.000870738
0.000871069