/*--------------------------------*- C++ -*----------------------------------*\
| =========                 |                                                 |
| \\      /  F ield         | OpenFOAM: The Open Source CFD Toolbox           |
|  \\    /   O peration     | Version:  2106                                  |
|   \\  /    A nd           | Website:  www.openfoam.com                      |
|    \\/     M anipulation  |                                                 |
\*---------------------------------------------------------------------------*/
FoamFile
{
    version     2.0;
    format      ascii;
    arch        "LSB;label=32;scalar=64";
    class       volScalarField;
    location    "200.00032";
    object      A2CH2-2_0;
}
// * * * * * * * * * * * * * * * * * * * * * * * * * * * * * * * * * * * * * //

dimensions      [0 0 0 0 0 0 0];

internalField   nonuniform List<scalar> 
3360
(
1.0888e-23
1.15691e-23
1.25283e-23
1.37201e-23
1.51052e-23
1.66465e-23
1.83086e-23
2.0057e-23
2.18583e-23
2.36808e-23
2.54947e-23
2.72725e-23
2.899e-23
3.06258e-23
3.21622e-23
3.35849e-23
3.4883e-23
3.60492e-23
3.70791e-23
3.79714e-23
3.87275e-23
3.93512e-23
3.98481e-23
4.02259e-23
4.04935e-23
4.06608e-23
4.07388e-23
5.50549e-23
5.88645e-23
6.43102e-23
7.12121e-23
7.94331e-23
8.88577e-23
9.93814e-23
1.10903e-22
1.23321e-22
1.36528e-22
1.50409e-22
1.64839e-22
1.79681e-22
1.94782e-22
2.0998e-22
2.25102e-22
2.39961e-22
2.54364e-22
2.68108e-22
2.8099e-22
2.92807e-22
3.03363e-22
3.12476e-22
3.19983e-22
3.25745e-22
3.29652e-22
3.31627e-22
2.10387e-22
2.27687e-22
2.52724e-22
2.84967e-22
3.24076e-22
3.69785e-22
4.21824e-22
4.79873e-22
5.43512e-22
6.12203e-22
6.85259e-22
7.61861e-22
8.41082e-22
9.21881e-22
1.00313e-21
1.08362e-21
1.16212e-21
1.2374e-21
1.30826e-21
1.37359e-21
1.4324e-21
1.48385e-21
1.52727e-21
1.56219e-21
1.58832e-21
1.60559e-21
1.61409e-21
7.59962e-22
8.31326e-22
9.35906e-22
1.07249e-21
1.24061e-21
1.43998e-21
1.67007e-21
1.92987e-21
2.21765e-21
2.5309e-21
2.86621e-21
3.21938e-21
3.58545e-21
3.95881e-21
4.33339e-21
4.70284e-21
5.06084e-21
5.40132e-21
5.71871e-21
6.00816e-21
6.26568e-21
6.48822e-21
6.67372e-21
6.82107e-21
6.93003e-21
7.00121e-21
7.03588e-21
2.82375e-21
3.11502e-21
3.54463e-21
4.10992e-21
4.81114e-21
5.64877e-21
6.62169e-21
7.72597e-21
8.95389e-21
1.02935e-20
1.17287e-20
1.32393e-20
1.48019e-20
1.63906e-20
1.79782e-20
1.95371e-20
2.10402e-20
2.24628e-20
2.37825e-20
2.49804e-20
2.60414e-20
2.69546e-20
2.77129e-20
2.83131e-20
2.87556e-20
2.90437e-20
2.91837e-20
1.07664e-20
1.19441e-20
1.36881e-20
1.59924e-20
1.88616e-20
2.23001e-20
2.63042e-20
3.08572e-20
3.59258e-20
4.14584e-20
4.7385e-20
5.3619e-20
6.00599e-20
6.65978e-20
7.31178e-20
7.95051e-20
8.56495e-20
9.14499e-20
9.68174e-20
1.01678e-19
1.05973e-19
1.09661e-19
1.12717e-19
1.15131e-19
1.16908e-19
1.18063e-19
1.18624e-19
4.17408e-20
4.64796e-20
5.35119e-20
6.28246e-20
7.44454e-20
8.83959e-20
1.0466e-19
1.23166e-19
1.4377e-19
1.66252e-19
1.90319e-19
2.15609e-19
2.41708e-19
2.68165e-19
2.94513e-19
3.2029e-19
3.45054e-19
3.68402e-19
3.89981e-19
4.095e-19
4.26732e-19
4.41515e-19
4.53756e-19
4.6342e-19
4.70527e-19
4.75146e-19
4.77385e-19
1.63388e-19
1.82321e-19
2.10457e-19
2.47769e-19
2.94388e-19
3.50415e-19
4.15795e-19
4.90233e-19
5.7314e-19
6.63615e-19
7.60453e-19
8.62179e-19
9.67107e-19
1.07341e-18
1.17921e-18
1.28264e-18
1.38192e-18
1.47545e-18
1.56183e-18
1.63989e-18
1.70875e-18
1.76778e-18
1.81662e-18
1.85515e-18
1.88347e-18
1.90186e-18
1.91077e-18
6.43492e-19
7.19099e-19
8.31528e-19
9.80725e-19
1.16725e-18
1.39153e-18
1.65331e-18
1.95138e-18
2.28332e-18
2.64546e-18
3.03291e-18
3.43971e-18
3.85907e-18
4.28369e-18
4.70603e-18
5.11865e-18
5.51453e-18
5.88728e-18
6.23135e-18
6.54219e-18
6.81629e-18
7.05119e-18
7.24549e-18
7.39874e-18
7.51135e-18
7.58448e-18
7.61992e-18
2.53887e-18
2.8395e-18
3.28682e-18
3.88077e-18
4.62373e-18
5.51742e-18
6.56093e-18
7.74932e-18
9.07289e-18
1.05168e-17
1.20615e-17
1.36829e-17
1.5354e-17
1.70455e-17
1.87273e-17
2.03697e-17
2.19448e-17
2.34272e-17
2.47949e-17
2.603e-17
2.71185e-17
2.8051e-17
2.8822e-17
2.94298e-17
2.98763e-17
3.01661e-17
3.03065e-17
1.00335e-17
1.12289e-17
1.30077e-17
1.53699e-17
1.83251e-17
2.188e-17
2.60307e-17
3.0757e-17
3.60196e-17
4.1759e-17
4.78964e-17
5.43362e-17
6.09702e-17
6.76818e-17
7.43516e-17
8.08625e-17
8.71036e-17
9.2975e-17
9.83901e-17
1.03278e-16
1.07585e-16
1.11274e-16
1.14322e-16
1.16726e-16
1.1849e-16
1.19636e-16
1.20191e-16
3.96123e-17
4.43502e-17
5.1402e-17
6.07677e-17
7.24852e-17
8.65802e-17
1.03035e-16
1.2177e-16
1.42624e-16
1.65361e-16
1.89666e-16
2.15158e-16
2.41407e-16
2.6795e-16
2.94315e-16
3.20038e-16
3.44683e-16
3.67855e-16
3.89215e-16
4.08486e-16
4.25457e-16
4.39984e-16
4.51986e-16
4.61442e-16
4.68383e-16
4.72887e-16
4.75067e-16
1.56216e-16
1.74974e-16
2.02888e-16
2.39955e-16
2.86315e-16
3.4206e-16
4.07108e-16
4.81121e-16
5.63459e-16
6.53166e-16
7.48986e-16
8.49409e-16
9.52731e-16
1.05713e-15
1.16075e-15
1.26176e-15
1.35847e-15
1.44934e-15
1.53305e-15
1.60852e-15
1.67495e-15
1.73177e-15
1.7787e-15
1.81566e-15
1.84277e-15
1.86036e-15
1.86887e-15
6.13612e-16
6.87511e-16
7.97467e-16
9.43438e-16
1.12595e-15
1.3453e-15
1.60111e-15
1.89198e-15
2.21532e-15
2.56728e-15
2.94286e-15
3.33609e-15
3.74025e-15
4.14817e-15
4.55259e-15
4.94643e-15
5.32307e-15
5.67659e-15
6.00192e-15
6.29495e-15
6.55263e-15
6.77288e-15
6.9546e-15
7.09761e-15
7.20247e-15
7.27044e-15
7.30332e-15
2.39922e-15
2.68902e-15
3.12003e-15
3.69191e-15
4.40641e-15
5.26441e-15
6.26397e-15
7.39916e-15
8.65935e-15
1.00291e-14
1.14886e-14
1.30142e-14
1.45797e-14
1.61571e-14
1.77185e-14
1.92366e-14
2.06861e-14
2.20447e-14
2.32931e-14
2.44162e-14
2.54025e-14
2.62446e-14
2.69388e-14
2.74845e-14
2.78843e-14
2.81432e-14
2.82684e-14
9.31244e-15
1.04393e-14
1.21141e-14
1.43345e-14
1.71056e-14
2.04289e-14
2.42948e-14
2.8678e-14
3.35348e-14
3.88038e-14
4.44064e-14
5.02504e-14
5.62342e-14
6.22508e-14
6.81932e-14
7.39587e-14
7.94525e-14
8.45911e-14
8.93041e-14
9.3536e-14
9.72462e-14
1.00409e-13
1.03012e-13
1.05055e-13
1.0655e-13
1.07518e-13
1.07985e-13
3.58143e-14
4.01489e-14
4.65852e-14
5.51064e-14
6.57238e-14
7.84323e-14
9.31832e-14
1.09867e-13
1.28305e-13
1.48253e-13
1.69401e-13
1.91397e-13
2.1385e-13
2.3636e-13
2.58526e-13
2.79971e-13
3.00349e-13
3.19358e-13
3.3675e-13
3.52329e-13
3.65956e-13
3.77549e-13
3.87072e-13
3.94535e-13
3.99987e-13
4.0351e-13
4.05208e-13
1.3613e-13
1.52561e-13
1.76922e-13
2.09113e-13
2.49127e-13
2.9689e-13
3.52156e-13
4.14451e-13
4.83049e-13
5.56979e-13
6.35058e-13
7.1594e-13
7.98182e-13
8.80309e-13
9.60878e-13
1.03854e-12
1.11207e-12
1.18043e-12
1.24278e-12
1.29847e-12
1.34705e-12
1.38827e-12
1.42205e-12
1.44846e-12
1.46773e-12
1.48015e-12
1.48614e-12
5.10114e-13
5.71225e-13
6.61643e-13
7.80786e-13
9.28389e-13
1.1039e-12
1.30611e-12
1.533e-12
1.78164e-12
2.04828e-12
2.32846e-12
2.61723e-12
2.9094e-12
3.19974e-12
3.48323e-12
3.75525e-12
4.01173e-12
4.24922e-12
4.465e-12
4.65705e-12
4.82405e-12
4.96534e-12
5.08082e-12
5.17092e-12
5.23647e-12
5.27867e-12
5.29896e-12
1.87908e-12
2.10088e-12
2.42812e-12
2.85771e-12
3.38753e-12
4.01433e-12
4.7325e-12
5.53357e-12
6.40609e-12
7.33597e-12
8.30702e-12
9.30174e-12
1.03021e-11
1.12906e-11
1.22504e-11
1.31666e-11
1.40262e-11
1.48185e-11
1.55354e-11
1.6171e-11
1.67217e-11
1.71861e-11
1.75645e-11
1.7859e-11
1.80728e-11
1.82102e-11
1.82761e-11
6.78547e-12
7.56674e-12
8.71504e-12
1.02152e-11
1.20547e-11
1.42169e-11
1.66773e-11
1.9402e-11
2.2348e-11
2.54646e-11
2.86957e-11
3.19824e-11
3.52655e-11
3.84885e-11
4.15992e-11
4.45517e-11
4.73072e-11
4.98348e-11
5.21114e-11
5.41216e-11
5.58569e-11
5.73154e-11
5.85004e-11
5.94201e-11
6.00862e-11
6.05131e-11
6.07176e-11
2.39437e-11
2.65976e-11
3.04801e-11
3.55221e-11
4.16618e-11
4.88237e-11
5.69076e-11
6.57862e-11
7.53066e-11
8.52964e-11
9.55714e-11
1.05944e-10
1.16231e-10
1.26262e-10
1.35882e-10
1.4496e-10
1.53387e-10
1.61079e-10
1.67977e-10
1.74042e-10
1.79259e-10
1.8363e-10
1.87171e-10
1.89912e-10
1.91892e-10
1.93159e-10
1.93765e-10
8.22841e-11
9.09275e-11
1.03505e-10
1.19727e-10
1.39325e-10
1.61991e-10
1.87351e-10
2.14956e-10
2.44298e-10
2.74827e-10
3.05973e-10
3.37174e-10
3.67898e-10
3.97656e-10
4.26024e-10
4.52642e-10
4.77225e-10
4.9956e-10
5.19504e-10
5.36977e-10
5.51955e-10
5.64464e-10
5.74572e-10
5.82377e-10
5.88005e-10
5.91599e-10
5.93315e-10
2.74334e-10
3.01192e-10
3.4005e-10
3.898e-10
4.4941e-10
5.17749e-10
5.93523e-10
6.75274e-10
7.61421e-10
8.50315e-10
9.40307e-10
1.02981e-09
1.11735e-09
1.20163e-09
1.28152e-09
1.3561e-09
1.42466e-09
1.4867e-09
1.54189e-09
1.59007e-09
1.63126e-09
1.66557e-09
1.69322e-09
1.71454e-09
1.72988e-09
1.73966e-09
1.74432e-09
8.83945e-10
9.63347e-10
1.07757e-09
1.22276e-09
1.39534e-09
1.59153e-09
1.80723e-09
2.03803e-09
2.27932e-09
2.52646e-09
2.77492e-09
3.02046e-09
3.25923e-09
3.48787e-09
3.70355e-09
3.90404e-09
4.08763e-09
4.25317e-09
4.39997e-09
4.52779e-09
4.63677e-09
4.72735e-09
4.80022e-09
4.85629e-09
4.89658e-09
4.92224e-09
4.93446e-09
2.74341e-09
2.96675e-09
3.28637e-09
3.69004e-09
4.16644e-09
4.70402e-09
5.29073e-09
5.91408e-09
6.5614e-09
7.22029e-09
7.8789e-09
8.52634e-09
9.15294e-09
9.75036e-09
1.03118e-08
1.08318e-08
1.13065e-08
1.17334e-08
1.2111e-08
1.24391e-08
1.27183e-08
1.29499e-08
1.3136e-08
1.3279e-08
1.33817e-08
1.3447e-08
1.3478e-08
8.18284e-09
8.78264e-09
9.63718e-09
1.07107e-08
1.19702e-08
1.33831e-08
1.4916e-08
1.65357e-08
1.82089e-08
1.99039e-08
2.15909e-08
2.32429e-08
2.48362e-08
2.63507e-08
2.777e-08
2.90816e-08
3.02764e-08
3.13487e-08
3.22958e-08
3.31175e-08
3.38158e-08
3.43946e-08
3.48592e-08
3.52158e-08
3.54716e-08
3.56342e-08
3.57115e-08
2.34184e-08
2.49647e-08
2.71605e-08
2.99082e-08
3.31187e-08
3.67048e-08
4.05805e-08
4.46602e-08
4.8861e-08
5.3104e-08
5.73163e-08
6.1432e-08
6.53937e-08
6.91531e-08
7.26712e-08
7.5918e-08
7.88724e-08
8.15213e-08
8.38588e-08
8.58852e-08
8.76063e-08
8.90318e-08
9.01753e-08
9.10527e-08
9.16819e-08
9.20817e-08
9.22717e-08
6.42137e-08
6.80664e-08
7.35276e-08
8.03469e-08
8.82976e-08
9.71613e-08
1.06723e-07
1.16774e-07
1.27111e-07
1.37541e-07
1.47888e-07
1.57992e-07
1.67714e-07
1.76937e-07
1.85566e-07
1.93529e-07
2.00774e-07
2.07269e-07
2.13001e-07
2.17969e-07
2.22188e-07
2.25683e-07
2.28485e-07
2.30635e-07
2.32176e-07
2.33155e-07
2.3362e-07
1.68322e-07
1.7765e-07
1.90866e-07
2.07364e-07
2.26595e-07
2.48036e-07
2.71176e-07
2.95513e-07
3.20566e-07
3.45875e-07
3.71016e-07
3.95602e-07
4.19296e-07
4.41809e-07
4.62906e-07
4.82402e-07
5.00165e-07
5.1611e-07
5.30194e-07
5.42413e-07
5.52795e-07
5.61397e-07
5.68297e-07
5.7359e-07
5.77383e-07
5.79791e-07
5.80935e-07
4.19522e-07
4.41358e-07
4.72318e-07
5.11004e-07
5.56166e-07
6.06612e-07
6.61181e-07
7.18732e-07
7.78156e-07
8.38391e-07
8.98437e-07
9.57378e-07
1.01439e-06
1.06877e-06
1.11992e-06
1.16735e-06
1.21071e-06
1.24976e-06
1.28434e-06
1.31442e-06
1.34003e-06
1.36128e-06
1.37835e-06
1.39145e-06
1.40084e-06
1.4068e-06
1.40962e-06
9.83504e-07
1.03199e-06
1.1008e-06
1.18691e-06
1.28762e-06
1.40038e-06
1.5227e-06
1.65211e-06
1.78622e-06
1.92268e-06
2.05928e-06
2.19394e-06
2.32476e-06
2.45008e-06
2.56846e-06
2.67871e-06
2.7799e-06
2.87136e-06
2.95265e-06
3.02356e-06
3.0841e-06
3.13446e-06
3.17498e-06
3.20612e-06
3.22845e-06
3.24263e-06
3.24935e-06
2.14108e-06
2.24039e-06
2.38136e-06
2.55779e-06
2.76422e-06
2.99548e-06
3.24653e-06
3.51241e-06
3.78823e-06
4.06926e-06
4.35094e-06
4.629e-06
4.89953e-06
5.15902e-06
5.40442e-06
5.63323e-06
5.84346e-06
6.03364e-06
6.20279e-06
6.35045e-06
6.47654e-06
6.58144e-06
6.6658e-06
6.73062e-06
6.77708e-06
6.80656e-06
6.82053e-06
4.29288e-06
4.47673e-06
4.73726e-06
5.06269e-06
5.44258e-06
5.86708e-06
6.32664e-06
6.81196e-06
7.31393e-06
7.82379e-06
8.3331e-06
8.83416e-06
9.31995e-06
9.7843e-06
1.02219e-05
1.06286e-05
1.1001e-05
1.13367e-05
1.16343e-05
1.18933e-05
1.21137e-05
1.22965e-05
1.24431e-05
1.25555e-05
1.26358e-05
1.26867e-05
1.27107e-05
7.92829e-06
8.23426e-06
8.6665e-06
9.20421e-06
9.82881e-06
1.05229e-05
1.12698e-05
1.20535e-05
1.28588e-05
1.36711e-05
1.44772e-05
1.52648e-05
1.60233e-05
1.67434e-05
1.74177e-05
1.80403e-05
1.86069e-05
1.91147e-05
1.95623e-05
1.99498e-05
2.02781e-05
2.05492e-05
2.07658e-05
2.09312e-05
2.10492e-05
2.11237e-05
2.11589e-05
1.35728e-05
1.40331e-05
1.46807e-05
1.5482e-05
1.64067e-05
1.74269e-05
1.85164e-05
1.96503e-05
2.08057e-05
2.19615e-05
2.30987e-05
2.42008e-05
2.52535e-05
2.62454e-05
2.71673e-05
2.80126e-05
2.87768e-05
2.94577e-05
3.00548e-05
3.0569e-05
3.10029e-05
3.13597e-05
3.16439e-05
3.18603e-05
3.20143e-05
3.21114e-05
3.21572e-05
2.17128e-05
2.23453e-05
2.3231e-05
2.43206e-05
2.55695e-05
2.69372e-05
2.8386e-05
2.98815e-05
3.13927e-05
3.2892e-05
3.43553e-05
3.57623e-05
3.70966e-05
3.83449e-05
3.94978e-05
4.05485e-05
4.14935e-05
4.23314e-05
4.30629e-05
4.36908e-05
4.42188e-05
4.4652e-05
4.49963e-05
4.52581e-05
4.54441e-05
4.55613e-05
4.56166e-05
3.27003e-05
3.35031e-05
3.46228e-05
3.59927e-05
3.75534e-05
3.9251e-05
4.10367e-05
4.28668e-05
4.4703e-05
4.6512e-05
4.82659e-05
4.99419e-05
5.15218e-05
5.29921e-05
5.43434e-05
5.55697e-05
5.66683e-05
5.76392e-05
5.84845e-05
5.92083e-05
5.9816e-05
6.03139e-05
6.07093e-05
6.10098e-05
6.12232e-05
6.13577e-05
6.14211e-05
4.66706e-05
4.76241e-05
4.89496e-05
5.05644e-05
5.2395e-05
5.43754e-05
5.64471e-05
5.85585e-05
6.06654e-05
6.27303e-05
6.47225e-05
6.66176e-05
6.83967e-05
7.00463e-05
7.15573e-05
7.29247e-05
7.41469e-05
7.52249e-05
7.61621e-05
7.69637e-05
7.76362e-05
7.81871e-05
7.86246e-05
7.89572e-05
7.91938e-05
7.9343e-05
7.94134e-05
6.35218e-05
6.45957e-05
6.60847e-05
6.78929e-05
6.99353e-05
7.21362e-05
7.44294e-05
7.67573e-05
7.90714e-05
8.13313e-05
8.35044e-05
8.55654e-05
8.74951e-05
8.92803e-05
9.09123e-05
9.23869e-05
9.37032e-05
9.48632e-05
9.5871e-05
9.67328e-05
9.74557e-05
9.8048e-05
9.85186e-05
9.88767e-05
9.91315e-05
9.92925e-05
9.93686e-05
8.29579e-05
8.41183e-05
8.57246e-05
8.76708e-05
8.98637e-05
9.22207e-05
9.46699e-05
9.71498e-05
9.9609e-05
0.000102005
0.000104305
0.000106482
0.000108517
0.000110398
0.000112115
0.000113666
0.00011505
0.000116269
0.000117328
0.000118234
0.000118995
0.000119618
0.000120114
0.000120491
0.00012076
0.00012093
0.000121011
0.000104562
0.000105777
0.000107458
0.000109491
0.000111779
0.000114234
0.000116781
0.000119356
0.000121905
0.000124386
0.000126765
0.000129015
0.000131117
0.000133059
0.000134831
0.000136432
0.00013786
0.000139118
0.000140212
0.000141148
0.000141935
0.00014258
0.000143093
0.000143485
0.000143764
0.000143941
0.000144025
0.00012787
0.000129114
0.000130833
0.000132912
0.000135248
0.000137753
0.000140349
0.000142972
0.000145567
0.000148092
0.000150511
0.000152799
0.000154936
0.000156909
0.000158712
0.000160339
0.000161792
0.000163073
0.000164188
0.000165142
0.000165945
0.000166604
0.000167129
0.000167529
0.000167816
0.000167997
0.000168083
0.000152425
0.000153678
0.000155408
0.000157498
0.000159848
0.000162365
0.000164974
0.000167609
0.000170216
0.000172751
0.00017518
0.000177477
0.000179624
0.000181607
0.000183419
0.000185056
0.000186518
0.000187808
0.000188931
0.000189894
0.000190704
0.00019137
0.000191901
0.000192307
0.000192597
0.000192781
0.000192869
0.000177814
0.000179059
0.00018078
0.000182859
0.000185194
0.000187697
0.000190291
0.000192911
0.000195502
0.000198024
0.00020044
0.000202726
0.000204863
0.000206838
0.000208643
0.000210275
0.000211734
0.000213022
0.000214145
0.000215107
0.000215918
0.000216585
0.000217118
0.000217526
0.000217817
0.000218003
0.000218091
0.000203678
0.000204906
0.000206602
0.000208652
0.000210956
0.000213424
0.000215983
0.000218568
0.000221126
0.000223615
0.000226001
0.00022826
0.000230372
0.000232325
0.000234112
0.000235728
0.000237174
0.000238451
0.000239565
0.000240521
0.000241327
0.000241991
0.000242522
0.000242928
0.00024322
0.000243405
0.000243493
0.00022972
0.000230924
0.000232586
0.000234596
0.000236854
0.000239274
0.000241784
0.000244319
0.00024683
0.000249273
0.000251618
0.000253837
0.000255914
0.000257835
0.000259594
0.000261185
0.00026261
0.00026387
0.00026497
0.000265914
0.000266711
0.000267368
0.000267894
0.000268297
0.000268585
0.000268769
0.000268857
0.000255701
0.000256875
0.000258497
0.000260458
0.000262662
0.000265025
0.000267476
0.000269953
0.000272406
0.000274795
0.000277087
0.000279259
0.000281292
0.000283174
0.000284897
0.000286458
0.000287857
0.000289094
0.000290174
0.000291103
0.000291887
0.000292534
0.000293052
0.00029345
0.000293735
0.000293917
0.000294003
0.000281432
0.000282574
0.000284151
0.000286058
0.000288201
0.000290501
0.000292886
0.000295297
0.000297686
0.000300014
0.000302248
0.000304366
0.000306349
0.000308186
0.000309869
0.000311394
0.000312761
0.000313972
0.000315029
0.000315939
0.000316708
0.000317343
0.000317851
0.000318242
0.000318522
0.000318701
0.000318787
0.000306766
0.000307872
0.000309402
0.000311251
0.000313331
0.000315562
0.000317877
0.000320218
0.000322539
0.0003248
0.000326972
0.000329031
0.00033096
0.000332748
0.000334387
0.000335873
0.000337205
0.000338386
0.000339418
0.000340307
0.000341058
0.000341679
0.000342176
0.000342559
0.000342834
0.000343009
0.000343093
0.00033159
0.000332661
0.000334141
0.000335931
0.000337944
0.000340104
0.000342346
0.000344614
0.000346863
0.000349055
0.00035116
0.000353158
0.00035503
0.000356766
0.000358357
0.000359802
0.000361097
0.000362245
0.00036325
0.000364116
0.000364848
0.000365453
0.000365939
0.000366312
0.000366581
0.000366752
0.000366835
0.000355821
0.000356855
0.000358285
0.000360014
0.000361959
0.000364047
0.000366214
0.000368407
0.000370581
0.000372702
0.00037474
0.000376673
0.000378486
0.000380168
0.00038171
0.000383111
0.000384367
0.000385482
0.000386458
0.000387299
0.00038801
0.000388599
0.000389072
0.000389436
0.000389698
0.000389865
0.000389946
0.000379398
0.000380395
0.000381774
0.000383442
0.000385318
0.000387332
0.000389423
0.000391539
0.000393639
0.000395686
0.000397655
0.000399523
0.000401275
0.000402901
0.000404394
0.000405749
0.000406966
0.000408045
0.000408991
0.000409806
0.000410497
0.000411069
0.000411528
0.000411882
0.000412137
0.0004123
0.000412378
0.000402276
0.000403236
0.000404564
0.00040617
0.000407977
0.000409917
0.000411932
0.000413971
0.000415995
0.000417969
0.000419867
0.000421669
0.00042336
0.00042493
0.000426371
0.00042768
0.000428856
0.0004299
0.000430815
0.000431605
0.000432274
0.000432828
0.000433273
0.000433616
0.000433864
0.000434022
0.000434098
0.000424426
0.000425349
0.000426626
0.00042817
0.000429908
0.000431775
0.000433713
0.000435675
0.000437623
0.000439523
0.000441351
0.000443086
0.000444716
0.000446228
0.000447618
0.00044888
0.000450015
0.000451023
0.000451907
0.00045267
0.000453317
0.000453853
0.000454284
0.000454617
0.000454857
0.00045501
0.000455084
0.000445828
0.000446714
0.00044794
0.000449424
0.000451093
0.000452886
0.000454748
0.000456633
0.000458505
0.000460331
0.000462089
0.000463758
0.000465325
0.000466781
0.000468119
0.000469335
0.000470428
0.0004714
0.000472252
0.000472988
0.000473613
0.000474131
0.000474548
0.00047487
0.000475102
0.000475251
0.000475322
0.000466471
0.000467321
0.000468497
0.000469919
0.000471521
0.00047324
0.000475026
0.000476836
0.000478632
0.000480385
0.000482072
0.000483675
0.000485181
0.00048658
0.000487866
0.000489035
0.000490087
0.000491023
0.000491843
0.000492553
0.000493155
0.000493655
0.000494058
0.000494368
0.000494593
0.000494737
0.000494806
0.000486351
0.000487165
0.000488291
0.000489653
0.000491187
0.000492834
0.000494545
0.000496279
0.000498
0.00049968
0.000501298
0.000502835
0.00050428
0.000505622
0.000506857
0.00050798
0.000508991
0.00050989
0.000510679
0.000511362
0.000511942
0.000512423
0.000512812
0.000513111
0.000513328
0.000513467
0.000513534
0.000505467
0.000506245
0.000507322
0.000508625
0.000510092
0.000511667
0.000513304
0.000514963
0.00051661
0.000518219
0.000519767
0.000521239
0.000522623
0.000523909
0.000525093
0.00052617
0.00052714
0.000528003
0.000528761
0.000529417
0.000529975
0.000530439
0.000530812
0.000531101
0.00053131
0.000531445
0.000531509
0.000523822
0.000524566
0.000525594
0.000526838
0.000528239
0.000529744
0.000531308
0.000532892
0.000534466
0.000536004
0.000537484
0.000538892
0.000540215
0.000541446
0.000542579
0.00054361
0.00054454
0.000545367
0.000546095
0.000546724
0.00054726
0.000547705
0.000548065
0.000548343
0.000548544
0.000548674
0.000548736
0.000541424
0.000542133
0.000543113
0.000544299
0.000545635
0.00054707
0.000548562
0.000550073
0.000551574
0.000553041
0.000554454
0.000555799
0.000557063
0.000558239
0.000559321
0.000560308
0.000561197
0.000561989
0.000562686
0.000563289
0.000563803
0.000564231
0.000564576
0.000564843
0.000565037
0.000565162
0.000565222
0.000558278
0.000558953
0.000559886
0.000561015
0.000562287
0.000563653
0.000565073
0.000566512
0.000567942
0.00056934
0.000570686
0.000571967
0.000573173
0.000574294
0.000575327
0.000576269
0.000577119
0.000577876
0.000578542
0.00057912
0.000579612
0.000580022
0.000580353
0.000580609
0.000580796
0.000580915
0.000580973
0.000574394
0.000575035
0.000575922
0.000576995
0.000578203
0.000579501
0.00058085
0.000582218
0.000583578
0.000584906
0.000586187
0.000587406
0.000588553
0.000589621
0.000590605
0.000591503
0.000592313
0.000593035
0.000593672
0.000594224
0.000594694
0.000595086
0.000595404
0.00059565
0.000595828
0.000595943
0.000595999
0.00058978
0.000590387
0.000591228
0.000592245
0.00059339
0.000594621
0.000595901
0.000597198
0.000598488
0.000599749
0.000600964
0.000602122
0.000603211
0.000604226
0.000605162
0.000606016
0.000606787
0.000607475
0.000608081
0.000608608
0.000609057
0.000609432
0.000609735
0.00060997
0.000610142
0.000610252
0.000610305
0.000604443
0.000605017
0.000605812
0.000606774
0.000607857
0.000609022
0.000610232
0.00061146
0.00061268
0.000613874
0.000615025
0.000616121
0.000617153
0.000618116
0.000619003
0.000619814
0.000620546
0.0006212
0.000621777
0.000622278
0.000622706
0.000623063
0.000623353
0.000623578
0.000623742
0.000623847
0.000623898
0.00061839
0.000618932
0.000619681
0.000620588
0.00062161
0.000622708
0.00062385
0.000625008
0.00062616
0.000627287
0.000628373
0.000629409
0.000630385
0.000631294
0.000632134
0.000632901
0.000633595
0.000634215
0.000634762
0.000635238
0.000635645
0.000635985
0.000636261
0.000636476
0.000636632
0.000636733
0.000636782
0.000631625
0.000632134
0.000632839
0.000633692
0.000634652
0.000635684
0.000636758
0.000637847
0.00063893
0.00063999
0.000641013
0.000641988
0.000642907
0.000643764
0.000644556
0.00064528
0.000645935
0.000646521
0.000647039
0.00064749
0.000647876
0.000648198
0.00064846
0.000648664
0.000648813
0.000648909
0.000648956
0.000644151
0.000644628
0.000645287
0.000646086
0.000646985
0.000647951
0.000648957
0.000649976
0.000650991
0.000651984
0.000652942
0.000653857
0.000654719
0.000655524
0.000656267
0.000656948
0.000657564
0.000658116
0.000658605
0.00065903
0.000659394
0.0006597
0.000659948
0.000660141
0.000660283
0.000660374
0.000660419
0.000655967
0.000656411
0.000657025
0.000657769
0.000658606
0.000659506
0.000660443
0.000661393
0.000662338
0.000663264
0.000664158
0.00066501
0.000665815
0.000666567
0.000667262
0.000667899
0.000668477
0.000668994
0.000669452
0.000669852
0.000670195
0.000670482
0.000670717
0.0006709
0.000671033
0.00067112
0.000671162
0.000667067
0.000667478
0.000668046
0.000668734
0.000669509
0.000670342
0.000671209
0.000672088
0.000672964
0.000673821
0.000674649
0.000675439
0.000676186
0.000676884
0.00067753
0.000678122
0.00067866
0.000679142
0.00067957
0.000679943
0.000680264
0.000680534
0.000680754
0.000680926
0.000681052
0.000681134
0.000681173
0.00067744
0.000677817
0.000678339
0.00067897
0.000679682
0.000680446
0.000681242
0.000682049
0.000682852
0.00068364
0.000684401
0.000685127
0.000685814
0.000686457
0.000687052
0.000687599
0.000688095
0.000688542
0.000688938
0.000689285
0.000689583
0.000689834
0.000690039
0.0006902
0.000690318
0.000690395
0.000690433
0.00068707
0.000687412
0.000687886
0.000688459
0.000689105
0.000689799
0.000690521
0.000691254
0.000691983
0.000692698
0.00069339
0.000694051
0.000694676
0.000695261
0.000695804
0.000696304
0.000696758
0.000697167
0.00069753
0.000697849
0.000698124
0.000698356
0.000698546
0.000698695
0.000698805
0.000698877
0.000698912
0.000695932
0.000696238
0.000696662
0.000697175
0.000697752
0.000698373
0.000699019
0.000699674
0.000700327
0.000700967
0.000701586
0.000702178
0.000702738
0.000703264
0.000703752
0.000704202
0.000704612
0.000704982
0.000705311
0.000705601
0.000705852
0.000706063
0.000706237
0.000706374
0.000706475
0.000706541
0.000706574
0.000703993
0.000704262
0.000704634
0.000705083
0.000705589
0.000706132
0.000706698
0.000707272
0.000707843
0.000708404
0.000708946
0.000709466
0.000709959
0.000710421
0.000710852
0.000711249
0.000711612
0.000711941
0.000712234
0.000712493
0.000712718
0.000712908
0.000713065
0.000713189
0.000713281
0.000713341
0.000713371
0.000711211
0.00071144
0.000711756
0.000712138
0.000712568
0.00071303
0.00071351
0.000713997
0.000714483
0.000714959
0.000715421
0.000715863
0.000716283
0.000716678
0.000717047
0.000717389
0.000717702
0.000717986
0.000718241
0.000718467
0.000718664
0.000718831
0.00071897
0.00071908
0.000719162
0.000719216
0.000719243
0.000717531
0.000717717
0.000717974
0.000718284
0.000718633
0.000719007
0.000719396
0.00071979
0.000720183
0.000720569
0.000720944
0.000721303
0.000721645
0.000721968
0.000722271
0.000722552
0.000722811
0.000723048
0.000723261
0.000723451
0.000723618
0.000723761
0.00072388
0.000723976
0.000724047
0.000724094
0.000724118
0.000722886
0.000723027
0.00072322
0.000723452
0.000723714
0.000723993
0.000724283
0.000724577
0.00072487
0.000725158
0.000725438
0.000725708
0.000725965
0.00072621
0.00072644
0.000726656
0.000726857
0.000727042
0.00072721
0.000727362
0.000727496
0.000727612
0.00072771
0.000727789
0.000727848
0.000727888
0.000727909
0.000727199
0.000727289
0.000727412
0.000727561
0.000727727
0.000727904
0.000728086
0.000728271
0.000728455
0.000728637
0.000728814
0.000728985
0.000729151
0.00072931
0.000729462
0.000729607
0.000729743
0.000729871
0.000729991
0.0007301
0.000730198
0.000730285
0.00073036
0.000730421
0.000730468
0.0007305
0.000730516
0.000730375
0.00073041
0.000730459
0.000730515
0.000730577
0.000730642
0.000730708
0.000730774
0.000730839
0.000730904
0.000730968
0.000731033
0.000731098
0.000731163
0.00073123
0.000731296
0.000731363
0.000731429
0.000731495
0.000731557
0.000731617
0.000731672
0.000731721
0.000731762
0.000731795
0.000731819
0.000731831
0.000732312
0.000732288
0.000732254
0.00073221
0.000732159
0.000732101
0.000732039
0.000731975
0.000731911
0.000731849
0.000731791
0.000731739
0.000731694
0.000731657
0.00073163
0.000731611
0.000731602
0.000731601
0.000731607
0.000731619
0.000731636
0.000731656
0.000731677
0.000731697
0.000731715
0.000731728
0.000731736
0.000732898
0.000732809
0.000732685
0.000732533
0.000732359
0.000732168
0.000731968
0.000731763
0.000731558
0.000731358
0.000731167
0.000730988
0.000730824
0.000730677
0.000730548
0.000730437
0.000730345
0.00073027
0.000730213
0.00073017
0.00073014
0.000730122
0.000730112
0.000730109
0.000730111
0.000730113
0.000730116
0.000732019
0.000731862
0.000731641
0.000731372
0.000731065
0.000730732
0.000730383
0.000730026
0.000729671
0.000729323
0.00072899
0.000728675
0.000728384
0.000728118
0.00072788
0.00072767
0.00072749
0.000727337
0.00072721
0.000727109
0.000727029
0.00072697
0.000726928
0.0007269
0.000726883
0.000726875
0.000726872
0.000729573
0.000729341
0.000729019
0.000728626
0.00072818
0.000727696
0.00072719
0.000726673
0.000726159
0.000725656
0.000725173
0.000724716
0.000724291
0.000723901
0.000723549
0.000723236
0.000722962
0.000722727
0.000722529
0.000722366
0.000722234
0.000722132
0.000722056
0.000722001
0.000721966
0.000721945
0.000721937
0.000725478
0.000725171
0.000724743
0.000724223
0.000723633
0.000722994
0.000722327
0.000721648
0.000720971
0.00072031
0.000719674
0.000719073
0.000718512
0.000717996
0.000717528
0.00071711
0.000716743
0.000716424
0.000716153
0.000715927
0.000715743
0.000715598
0.000715486
0.000715405
0.000715351
0.000715318
0.000715304
0.000719701
0.000719319
0.000718787
0.000718141
0.000717409
0.000716618
0.000715793
0.000714954
0.000714119
0.000713304
0.00071252
0.000711778
0.000711086
0.000710448
0.000709869
0.00070935
0.000708892
0.000708493
0.000708153
0.000707866
0.000707632
0.000707444
0.000707299
0.000707192
0.000707119
0.000707074
0.000707054
0.000712281
0.000711828
0.0007112
0.000710436
0.000709573
0.000708643
0.000707673
0.000706687
0.000705708
0.000704753
0.000703835
0.000702967
0.000702156
0.00070141
0.000700731
0.000700122
0.000699583
0.000699114
0.00069871
0.000698371
0.00069809
0.000697865
0.00069769
0.00069756
0.00069747
0.000697415
0.000697389
0.000703357
0.000702844
0.000702134
0.000701272
0.000700299
0.000699252
0.000698162
0.000697057
0.00069596
0.000694892
0.000693867
0.000692897
0.000691993
0.000691161
0.000690404
0.000689724
0.000689123
0.000688597
0.000688145
0.000687763
0.000687448
0.000687193
0.000686994
0.000686845
0.000686742
0.000686678
0.000686649
0.000693188
0.000692633
0.000691864
0.000690933
0.000689884
0.000688757
0.000687586
0.000686402
0.000685229
0.000684087
0.000682994
0.000681961
0.000680999
0.000680114
0.00067931
0.000678588
0.000677948
0.000677389
0.000676908
0.000676501
0.000676163
0.00067589
0.000675676
0.000675516
0.000675405
0.000675335
0.000675303
0.000682166
0.000681591
0.000680796
0.000679835
0.000678754
0.000677596
0.000676395
0.000675183
0.000673985
0.000672821
0.000671709
0.000670661
0.000669686
0.000668789
0.000667975
0.000667245
0.000666598
0.000666033
0.000665546
0.000665134
0.000664792
0.000664514
0.000664297
0.000664133
0.000664019
0.000663947
0.000663914
0.000670786
0.000670218
0.000669434
0.000668488
0.000667427
0.000666292
0.000665119
0.000663937
0.000662772
0.000661643
0.000660566
0.000659553
0.000658612
0.000657748
0.000656965
0.000656263
0.000655641
0.000655098
0.00065463
0.000654233
0.000653903
0.000653635
0.000653424
0.000653265
0.000653154
0.000653084
0.000653051
0.000659598
0.000659064
0.000658329
0.000657444
0.000656452
0.000655394
0.000654303
0.000653206
0.000652128
0.000651086
0.000650093
0.000649161
0.000648296
0.000647502
0.000646783
0.000646139