/*--------------------------------*- C++ -*----------------------------------*\
| =========                 |                                                 |
| \\      /  F ield         | OpenFOAM: The Open Source CFD Toolbox           |
|  \\    /   O peration     | Version:  2106                                  |
|   \\  /    A nd           | Website:  www.openfoam.com                      |
|    \\/     M anipulation  |                                                 |
\*---------------------------------------------------------------------------*/
FoamFile
{
    version     2.0;
    format      ascii;
    arch        "LSB;label=32;scalar=64";
    class       volScalarField;
    location    "200.00032";
    object      AC3H4;
}
// * * * * * * * * * * * * * * * * * * * * * * * * * * * * * * * * * * * * * //

dimensions      [0 0 0 0 0 0 0];

internalField   nonuniform List<scalar> 
3360
(
5.61302e-23
5.96416e-23
6.45862e-23
7.07305e-23
7.78708e-23
8.58168e-23
9.43852e-23
1.03399e-22
1.12685e-22
1.2208e-22
1.31431e-22
1.40597e-22
1.4945e-22
1.57883e-22
1.65804e-22
1.73138e-22
1.7983e-22
1.85842e-22
1.91152e-22
1.95752e-22
1.9965e-22
2.02865e-22
2.05427e-22
2.07374e-22
2.08754e-22
2.09616e-22
2.10019e-22
2.83821e-22
3.03461e-22
3.31534e-22
3.67115e-22
4.09497e-22
4.58083e-22
5.12335e-22
5.71733e-22
6.35751e-22
7.03836e-22
7.75396e-22
8.49787e-22
9.26297e-22
1.00415e-21
1.0825e-21
1.16046e-21
1.23706e-21
1.31131e-21
1.38216e-21
1.44857e-21
1.50949e-21
1.56391e-21
1.61089e-21
1.64959e-21
1.67929e-21
1.69944e-21
1.70962e-21
1.0846e-21
1.17378e-21
1.30286e-21
1.46907e-21
1.67069e-21
1.90633e-21
2.17461e-21
2.47386e-21
2.80194e-21
3.15605e-21
3.53267e-21
3.92758e-21
4.33598e-21
4.75252e-21
5.17136e-21
5.58632e-21
5.99102e-21
6.37909e-21
6.74438e-21
7.08117e-21
7.38435e-21
7.64959e-21
7.87343e-21
8.05344e-21
8.18818e-21
8.27721e-21
8.32104e-21
3.91779e-21
4.28569e-21
4.82482e-21
5.52893e-21
6.39564e-21
7.42343e-21
8.60963e-21
9.94895e-21
1.14325e-20
1.30474e-20
1.4776e-20
1.65967e-20
1.84839e-20
2.04086e-20
2.23397e-20
2.42443e-20
2.60899e-20
2.78451e-20
2.94813e-20
3.09735e-20
3.23011e-20
3.34484e-20
3.44047e-20
3.51642e-20
3.5726e-20
3.60929e-20
3.62716e-20
1.45571e-20
1.60587e-20
1.82734e-20
2.11876e-20
2.48026e-20
2.91208e-20
3.41364e-20
3.98293e-20
4.61595e-20
5.30657e-20
6.04643e-20
6.82517e-20
7.63073e-20
8.44977e-20
9.26822e-20
1.00718e-19
1.08468e-19
1.15801e-19
1.22604e-19
1.2878e-19
1.3425e-19
1.38957e-19
1.42867e-19
1.45961e-19
1.48242e-19
1.49728e-19
1.50449e-19
5.55032e-20
6.15746e-20
7.05656e-20
8.24446e-20
9.72363e-20
1.14963e-19
1.35605e-19
1.59076e-19
1.85206e-19
2.13728e-19
2.44281e-19
2.76419e-19
3.09623e-19
3.43328e-19
3.7694e-19
4.09868e-19
4.41544e-19
4.71446e-19
4.99117e-19
5.24173e-19
5.46315e-19
5.65328e-19
5.81083e-19
5.93529e-19
6.02688e-19
6.08644e-19
6.11533e-19
2.15184e-19
2.39613e-19
2.75867e-19
3.23876e-19
3.83784e-19
4.55702e-19
5.3955e-19
6.34951e-19
7.41168e-19
8.5707e-19
9.81141e-19
1.11152e-18
1.24606e-18
1.38245e-18
1.51829e-18
1.65117e-18
1.77884e-18
1.8992e-18
2.01045e-18
2.11107e-18
2.19991e-18
2.27612e-18
2.33922e-18
2.38904e-18
2.42568e-18
2.44949e-18
2.46104e-18
8.42305e-19
9.39907e-19
1.08496e-18
1.27731e-18
1.51764e-18
1.80647e-18
2.14352e-18
2.52727e-18
2.95467e-18
3.4211e-18
3.92032e-18
4.44474e-18
4.98567e-18
5.5337e-18
6.07912e-18
6.6123e-18
7.12413e-18
7.6063e-18
8.05159e-18
8.45403e-18
8.80902e-18
9.11334e-18
9.36512e-18
9.56374e-18
9.70972e-18
9.80454e-18
9.85049e-18
3.31736e-18
3.70713e-18
4.28673e-18
5.05588e-18
6.01748e-18
7.17366e-18
8.52321e-18
1.00598e-17
1.17711e-17
1.3638e-17
1.56354e-17
1.77325e-17
1.98945e-17
2.20835e-17
2.42607e-17
2.63879e-17
2.84288e-17
3.03503e-17
3.21241e-17
3.37266e-17
3.51396e-17
3.63506e-17
3.73523e-17
3.81423e-17
3.87228e-17
3.90999e-17
3.92825e-17
1.30885e-17
1.46383e-17
1.69444e-17
2.00063e-17
2.38364e-17
2.84436e-17
3.38232e-17
3.99497e-17
4.6773e-17
5.42168e-17
6.21798e-17
7.05389e-17
7.91538e-17
8.78738e-17
9.65436e-17
1.05011e-16
1.13131e-16
1.20773e-16
1.27824e-16
1.34191e-16
1.39803e-16
1.4461e-16
1.48584e-16
1.51718e-16
1.5402e-16
1.55514e-16
1.56238e-16
5.17254e-17
5.78877e-17
6.70578e-17
7.92355e-17
9.44702e-17
1.12797e-16
1.34195e-16
1.5856e-16
1.8569e-16
2.15278e-16
2.46918e-16
2.80116e-16
3.14316e-16
3.48916e-16
3.83301e-16
4.16866e-16
4.4904e-16
4.79309e-16
5.07225e-16
5.32425e-16
5.54628e-16
5.73643e-16
5.8936e-16
6.01748e-16
6.10847e-16
6.16752e-16
6.19612e-16
2.04211e-16
2.28636e-16
2.6499e-16
3.13272e-16
3.73679e-16
4.46342e-16
5.31173e-16
6.27752e-16
7.35263e-16
8.52478e-16
9.77776e-16
1.10919e-15
1.24451e-15
1.38135e-15
1.51727e-15
1.64987e-15
1.77692e-15
1.89638e-15
2.0065e-15
2.10585e-15
2.19334e-15
2.26823e-15
2.3301e-15
2.37884e-15
2.41463e-15
2.43785e-15
2.44909e-15
8.0533e-16
9.02033e-16
1.04594e-15
1.23703e-15
1.47602e-15
1.7634e-15
2.09874e-15
2.4803e-15
2.90477e-15
3.36723e-15
3.8612e-15
4.37891e-15
4.91156e-15
5.44977e-15
5.98394e-15
6.5047e-15
7.00326e-15
7.4717e-15
7.90323e-15
8.29231e-15
8.63475e-15
8.92771e-15
9.16963e-15
9.36015e-15
9.49995e-15
9.59062e-15
9.6345e-15
3.16332e-15
3.54429e-15
4.11113e-15
4.86365e-15
5.80452e-15
6.93534e-15
8.25412e-15
9.75364e-15
1.14205e-14
1.32349e-14
1.51712e-14
1.71984e-14
1.92819e-14
2.13848e-14
2.34697e-14
2.55001e-14
2.74417e-14
2.92642e-14
3.09413e-14
3.2452e-14
3.37804e-14
3.49158e-14
3.58527e-14
3.65899e-14
3.71305e-14
3.74809e-14
3.76504e-14
1.23686e-14
1.38625e-14
1.60845e-14
1.90327e-14
2.27161e-14
2.71393e-14
3.22923e-14
3.81445e-14
4.46411e-14
5.17026e-14
5.92266e-14
6.70915e-14
7.51617e-14
8.32938e-14
9.1343e-14
9.91691e-14
1.06642e-13
1.13646e-13
1.20082e-13
1.25871e-13
1.30956e-13
1.35298e-13
1.38876e-13
1.41689e-13
1.4375e-13
1.45085e-13
1.45731e-13
4.80079e-14
5.38169e-14
6.24513e-14
7.38977e-14
8.81835e-14
1.05316e-13
1.25246e-13
1.47842e-13
1.7288e-13
2.00043e-13
2.28926e-13
2.59053e-13
2.89901e-13
3.20918e-13
3.51553e-13
3.81275e-13
4.09597e-13
4.36088e-13
4.60385e-13
4.82201e-13
5.01328e-13
5.17632e-13
5.3105e-13
5.41584e-13
5.49293e-13
5.54279e-13
5.56687e-13
1.84631e-13
2.06977e-13
2.40157e-13
2.84086e-13
3.38821e-13
4.04337e-13
4.80382e-13
5.6639e-13
6.61445e-13
7.64278e-13
8.73306e-13
9.86696e-13
1.10245e-12
1.21849e-12
1.33277e-12
1.44332e-12
1.54837e-12
1.64637e-12
1.73603e-12
1.81634e-12
1.8866e-12
1.94636e-12
1.99545e-12
2.03392e-12
2.06203e-12
2.08019e-12
2.08895e-12
7.01777e-13
7.86481e-13
9.12072e-13
1.07802e-12
1.2843e-12
1.53053e-12
1.81544e-12
2.13659e-12
2.49023e-12
2.87136e-12
3.27387e-12
3.69084e-12
4.11482e-12
4.53821e-12
4.95356e-12
5.35391e-12
5.73299e-12
6.08543e-12
6.40685e-12
6.69393e-12
6.94436e-12
7.15685e-12
7.331e-12
7.46719e-12
7.56651e-12
7.63056e-12
7.6614e-12
2.62971e-12
2.94475e-12
3.41087e-12
4.02509e-12
4.78602e-12
5.69081e-12
6.73328e-12
7.90296e-12
9.18477e-12
1.05594e-11
1.20037e-11
1.34925e-11
1.49987e-11
1.64954e-11
1.79569e-11
1.93592e-11
2.06814e-11
2.19058e-11
2.30182e-11
2.40083e-11
2.48692e-11
2.55976e-11
2.61929e-11
2.66574e-11
2.69953e-11
2.72129e-11
2.73175e-11
9.68656e-12
1.083e-11
1.2517e-11
1.47317e-11
1.7463e-11
2.06943e-11
2.43967e-11
2.85265e-11
3.30246e-11
3.78184e-11
4.28244e-11
4.79525e-11
5.31099e-11
5.82055e-11
6.31537e-11
6.78769e-11
7.23084e-11
7.63932e-11
8.0089e-11
8.33655e-11
8.62045e-11
8.85986e-11
9.05497e-11
9.2068e-11
9.31702e-11
9.38782e-11
9.42179e-11
3.4976e-11
3.90036e-11
4.49234e-11
5.26568e-11
6.214e-11
7.32869e-11
8.59711e-11
1.00018e-10
1.15206e-10
1.31273e-10
1.47931e-10
1.64875e-10
1.81801e-10
1.98416e-10
2.14454e-10
2.29675e-10
2.43881e-10
2.56912e-10
2.68648e-10
2.79012e-10
2.87958e-10
2.95477e-10
3.01586e-10
3.06328e-10
3.09762e-10
3.11963e-10
3.13017e-10
1.23394e-10
1.37075e-10
1.57091e-10
1.83083e-10
2.14735e-10
2.51657e-10
2.93334e-10
3.39107e-10
3.8819e-10
4.39694e-10
4.92669e-10
5.46146e-10
5.99184e-10
6.50899e-10
7.005e-10
7.47304e-10
7.90752e-10
8.3041e-10
8.65972e-10
8.97244e-10
9.24143e-10
9.46676e-10
9.64931e-10
9.79062e-10
9.89273e-10
9.95805e-10
9.98928e-10
4.23852e-10
4.68407e-10
5.33244e-10
6.16868e-10
7.17903e-10
8.34763e-10
9.65511e-10
1.10784e-09
1.25913e-09
1.41654e-09
1.57714e-09
1.73803e-09
1.89646e-09
2.04991e-09
2.1962e-09
2.33346e-09
2.46023e-09
2.57541e-09
2.67825e-09
2.76835e-09
2.84559e-09
2.9101e-09
2.96222e-09
3.00247e-09
3.03149e-09
3.05003e-09
3.05888e-09
1.41156e-09
1.54998e-09
1.75027e-09
2.00672e-09
2.31402e-09
2.66637e-09
3.05709e-09
3.47867e-09
3.92296e-09
4.38146e-09
4.84566e-09
5.30737e-09
5.759e-09
6.1938e-09
6.60597e-09
6.99078e-09
7.34455e-09
7.66465e-09
7.94941e-09
8.19806e-09
8.41058e-09
8.58761e-09
8.73031e-09
8.84028e-09
8.91943e-09
8.9699e-09
8.99396e-09
4.53705e-09
4.94607e-09
5.53454e-09
6.28276e-09
7.17233e-09
8.18388e-09
9.29633e-09
1.0487e-08
1.17321e-08
1.30077e-08
1.42905e-08
1.55584e-08
1.67917e-08
1.79728e-08
1.90873e-08
2.01234e-08
2.10723e-08
2.1928e-08
2.26869e-08
2.33478e-08
2.39113e-08
2.43797e-08
2.47565e-08
2.50465e-08
2.52549e-08
2.53876e-08
2.54508e-08
1.40075e-08
1.51563e-08
1.68008e-08
1.88789e-08
2.13328e-08
2.41037e-08
2.71299e-08
3.03472e-08
3.36907e-08
3.70962e-08
4.05026e-08
4.38535e-08
4.70986e-08
5.01945e-08
5.31056e-08
5.58036e-08
5.82679e-08
6.04848e-08
6.24469e-08
6.41523e-08
6.5604e-08
6.6809e-08
6.77773e-08
6.85215e-08
6.90558e-08
6.93958e-08
6.95576e-08
4.13447e-08
4.44168e-08
4.87973e-08
5.4306e-08
6.07774e-08
6.80464e-08
7.59451e-08
8.43032e-08
9.29516e-08
1.01726e-07
1.10474e-07
1.19053e-07
1.27339e-07
1.35227e-07
1.4263e-07
1.49479e-07
1.55725e-07
1.61338e-07
1.66299e-07
1.70608e-07
1.74273e-07
1.77312e-07
1.79753e-07
1.81628e-07
1.82974e-07
1.83829e-07
1.84236e-07
1.16032e-07
1.2387e-07
1.35018e-07
1.48995e-07
1.65363e-07
1.83694e-07
2.03558e-07
2.24528e-07
2.46184e-07
2.68122e-07
2.89965e-07
3.11367e-07
3.32027e-07
3.51684e-07
3.70127e-07
3.8719e-07
4.02754e-07
4.16738e-07
4.29104e-07
4.39845e-07
4.48982e-07
4.56563e-07
4.62653e-07
4.67331e-07
4.70689e-07
4.72825e-07
4.73841e-07
3.07537e-07
3.26603e-07
3.5369e-07
3.8761e-07
4.27295e-07
4.71707e-07
5.19821e-07
5.70621e-07
6.23113e-07
6.7634e-07
7.29405e-07
7.81488e-07
8.31859e-07
8.79888e-07
9.25053e-07
9.66939e-07
1.00524e-06
1.03973e-06
1.07031e-06
1.09694e-06
1.11965e-06
1.13853e-06
1.15373e-06
1.16543e-06
1.17385e-06
1.17921e-06
1.18177e-06
7.62657e-07
8.0647e-07
8.68713e-07
9.46683e-07
1.03796e-06
1.14024e-06
1.25125e-06
1.36872e-06
1.49047e-06
1.61435e-06
1.73835e-06
1.8606e-06
1.9794e-06
2.09326e-06
2.20093e-06
2.30136e-06
2.39372e-06
2.47743e-06
2.55209e-06
2.61749e-06
2.67362e-06
2.72057e-06
2.7586e-06
2.78805e-06
2.80935e-06
2.823e-06
2.82953e-06
1.74894e-06
1.84224e-06
1.97483e-06
2.14103e-06
2.33581e-06
2.55443e-06
2.79223e-06
3.04463e-06
3.30715e-06
3.5754e-06
3.84521e-06
4.11264e-06
4.37408e-06
4.62627e-06
4.86635e-06
5.09188e-06
5.30084e-06
5.49166e-06
5.66316e-06
5.81458e-06
5.9455e-06
6.05587e-06
6.14593e-06
6.21617e-06
6.26734e-06
6.30033e-06
6.31623e-06
3.67132e-06
3.8515e-06
4.10743e-06
4.4281e-06
4.80385e-06
5.22564e-06
5.68468e-06
6.1724e-06
6.68038e-06
7.20046e-06
7.72477e-06
8.24589e-06
8.75689e-06
9.25145e-06
9.72394e-06
1.01694e-05
1.05838e-05
1.09636e-05
1.13063e-05
1.161e-05
1.18735e-05
1.20965e-05
1.2279e-05
1.24217e-05
1.2526e-05
1.25935e-05
1.26261e-05
7.03248e-06
7.34452e-06
7.78697e-06
8.34014e-06
8.98678e-06
9.71082e-06
1.04968e-05
1.13299e-05
1.21955e-05
1.30796e-05
1.39689e-05
1.48508e-05
1.57137e-05
1.6547e-05
1.73413e-05
1.80885e-05
1.87818e-05
1.94157e-05
1.99862e-05
2.04904e-05
2.09268e-05
2.1295e-05
2.15956e-05
2.18302e-05
2.20012e-05
2.21116e-05
2.21648e-05
1.23579e-05
1.28437e-05
1.35306e-05
1.43859e-05
1.53811e-05
1.64897e-05
1.76865e-05
1.89474e-05
2.02494e-05
2.15708e-05
2.2891e-05
2.41914e-05
2.54548e-05
2.66662e-05
2.78125e-05
2.88831e-05
2.98693e-05
3.07647e-05
3.15649e-05
3.22673e-05
3.28713e-05
3.33778e-05
3.37888e-05
3.41079e-05
3.43391e-05
3.44877e-05
3.4559e-05
2.01236e-05
2.081e-05
2.17765e-05
2.29736e-05
2.43576e-05
2.58883e-05
2.75278e-05
2.92407e-05
3.09939e-05
3.27569e-05
3.4502e-05
3.62045e-05
3.78428e-05
3.93988e-05
4.08575e-05
4.22072e-05
4.34394e-05
4.45484e-05
4.55312e-05
4.63872e-05
4.71177e-05
4.77257e-05
4.8216e-05
4.85942e-05
4.88668e-05
4.90409e-05
4.91241e-05
3.06801e-05
3.15691e-05
3.28149e-05
3.43487e-05
3.61093e-05
3.80406e-05
4.0091e-05
4.22133e-05
4.43646e-05
4.65068e-05
4.86062e-05
5.06342e-05
5.25669e-05
5.4385e-05
5.60738e-05
5.76226e-05
5.90246e-05
6.02763e-05
6.13771e-05
6.2329e-05
6.31359e-05
6.38035e-05
6.43386e-05
6.47492e-05
6.50437e-05
6.5231e-05
6.53202e-05
4.41606e-05
4.52263e-05
4.67131e-05
4.85326e-05
5.06066e-05
5.2864e-05
5.52406e-05
5.76793e-05
6.01295e-05
6.25476e-05
6.48966e-05
6.71462e-05
6.92722e-05
7.12561e-05
7.30848e-05
7.47499e-05
7.62468e-05
7.75748e-05
7.87359e-05
7.97344e-05
8.05766e-05
8.12703e-05
8.1824e-05
8.22472e-05
8.25498e-05
8.27417e-05
8.28327e-05
6.04169e-05
6.16131e-05
6.32751e-05
6.52989e-05
6.75918e-05
7.00711e-05
7.26633e-05
7.53041e-05
7.79383e-05
8.05194e-05
8.30094e-05
8.5378e-05
8.76023e-05
8.96654e-05
9.15564e-05
9.32692e-05
9.48016e-05
9.6155e-05
9.73336e-05
9.83434e-05
9.91924e-05
9.98895e-05
0.000100445
0.000100868
0.00010117
0.000101361
0.000101452
7.90472e-05
8.03197e-05
8.20823e-05
8.42199e-05
8.66307e-05
8.92242e-05
9.19215e-05
9.46547e-05
9.73665e-05
0.00010001
0.000102547
0.00010495
0.000107196
0.000109271
0.000111165
0.000112875
0.0001144
0.000115744
0.000116911
0.000117909
0.000118746
0.000119432
0.000119978
0.000120393
0.00012069
0.000120877
0.000120966
9.94922e-05
0.000100791
0.000102585
0.000104755
0.000107195
0.00010981
0.00011252
0.000115255
0.00011796
0.000120587
0.000123101
0.000125474
0.000127686
0.000129725
0.000131582
0.000133255
0.000134744
0.000136054
0.000137191
0.000138161
0.000138975
0.000139641
0.000140171
0.000140574
0.000140861
0.000141043
0.000141129
0.000121147
0.000122431
0.000124204
0.000126344
0.000128744
0.000131312
0.000133966
0.000136639
0.000139276
0.000141833
0.000144275
0.000146575
0.000148717
0.000150687
0.000152481
0.000154095
0.000155531
0.000156792
0.000157886
0.00015882
0.000159603
0.000160244
0.000160754
0.000161142
0.000161418
0.000161593
0.000161676
0.000143447
0.00014469
0.000146405
0.000148472
0.000150788
0.000153262
0.000155816
0.000158385
0.000160917
0.000163369
0.000165709
0.000167911
0.00016996
0.000171845
0.000173559
0.000175101
0.000176473
0.000177679
0.000178724
0.000179616
0.000180364
0.000180976
0.000181463
0.000181834
0.000182098
0.000182266
0.000182345
0.000165919
0.000167105
0.00016874
0.000170709
0.000172914
0.000175269
0.000177698
0.000180141
0.000182547
0.000184876
0.000187098
0.00018919
0.000191135
0.000192925
0.000194552
0.000196017
0.00019732
0.000198465
0.000199458
0.000200306
0.000201017
0.0002016
0.000202064
0.000202416
0.000202668
0.000202827
0.000202903
0.000188196
0.000189317
0.00019086
0.000192721
0.000194803
0.000197027
0.000199321
0.000201628
0.0002039
0.0002061
0.000208198
0.000210174
0.000212013
0.000213704
0.000215244
0.000216629
0.000217862
0.000218946
0.000219887
0.00022069
0.000221364
0.000221917
0.000222357
0.000222692
0.00022293
0.000223082
0.000223154
0.000210009
0.000211062
0.000212513
0.000214261
0.000216219
0.000218309
0.000220467
0.000222637
0.000224775
0.000226846
0.000228822
0.000230684
0.000232417
0.000234012
0.000235464
0.000236772
0.000237936
0.00023896
0.000239849
0.000240609
0.000241247
0.00024177
0.000242186
0.000242504
0.00024273
0.000242874
0.000242942
0.000231175
0.000232162
0.000233522
0.000235162
0.000236998
0.000238959
0.000240985
0.000243022
0.000245031
0.000246978
0.000248837
0.000250588
0.00025222
0.000253722
0.000255091
0.000256324
0.000257422
0.000258389
0.000259228
0.000259946
0.000260549
0.000261043
0.000261437
0.000261737
0.000261951
0.000262087
0.000262151
0.000251579
0.000252503
0.000253777
0.000255313
0.000257034
0.000258874
0.000260774
0.000262687
0.000264573
0.000266403
0.00026815
0.000269798
0.000271334
0.000272748
0.000274038
0.0002752
0.000276235
0.000277147
0.00027794
0.000278617
0.000279187
0.000279654
0.000280026
0.00028031
0.000280512
0.000280641
0.000280702
0.000271152
0.000272017
0.000273211
0.000274651
0.000276266
0.000277991
0.000279775
0.000281571
0.000283344
0.000285063
0.000286707
0.000288258
0.000289703
0.000291036
0.00029225
0.000293346
0.000294323
0.000295183
0.000295931
0.00029657
0.000297108
0.000297549
0.000297901
0.000298169
0.000298361
0.000298482
0.00029854
0.000289863
0.000290675
0.000291795
0.000293146
0.000294661
0.000296282
0.000297957
0.000299646
0.000301313
0.00030293
0.000304477
0.000305937
0.000307299
0.000308554
0.000309699
0.000310732
0.000311654
0.000312465
0.000313171
0.000313775
0.000314283
0.0003147
0.000315032
0.000315285
0.000315466
0.000315581
0.000315636
0.000307706
0.000308469
0.00030952
0.00031079
0.000312214
0.000313737
0.000315313
0.000316901
0.00031847
0.000319993
0.00032145
0.000322825
0.000324108
0.000325292
0.000326372
0.000327347
0.000328216
0.000328982
0.000329649
0.000330219
0.000330699
0.000331092
0.000331406
0.000331646
0.000331817
0.000331925
0.000331977
0.00032469
0.000325407
0.000326396
0.00032759
0.000328929
0.000330363
0.000331846
0.000333342
0.00033482
0.000336255
0.000337628
0.000338925
0.000340135
0.000341252
0.000342271
0.000343191
0.000344011
0.000344735
0.000345364
0.000345902
0.000346355
0.000346727
0.000347024
0.00034725
0.000347412
0.000347514
0.000347563
0.000340834
0.000341509
0.00034244
0.000343564
0.000344826
0.000346176
0.000347574
0.000348983
0.000350377
0.00035173
0.000353025
0.000354248
0.00035539
0.000356444
0.000357406
0.000358274
0.000359049
0.000359732
0.000360326
0.000360835
0.000361263
0.000361614
0.000361894
0.000362108
0.000362261
0.000362358
0.000362404
0.000356164
0.0003568
0.000357677
0.000358736
0.000359926
0.000361199
0.000362517
0.000363846
0.00036516
0.000366437
0.000367659
0.000368814
0.000369892
0.000370887
0.000371795
0.000372615
0.000373347
0.000373992
0.000374553
0.000375034
0.000375438
0.00037577
0.000376034
0.000376236
0.000376381
0.000376472
0.000376516
0.000370709
0.000371308
0.000372136
0.000373135
0.000374257
0.000375458
0.000376701
0.000377956
0.000379196
0.000380401
0.000381554
0.000382645
0.000383662
0.000384602
0.000385459
0.000386234
0.000386925
0.000387534
0.000388064
0.000388518
0.0003889
0.000389213
0.000389463
0.000389654
0.00038979
0.000389877
0.000389918
0.0003845
0.000385065
0.000385846
0.000386789
0.000387847
0.000388981
0.000390154
0.000391339
0.000392509
0.000393647
0.000394736
0.000395765
0.000396726
0.000397613
0.000398423
0.000399154
0.000399807
0.000400382
0.000400883
0.000401311
0.000401672
0.000401968
0.000402204
0.000402384
0.000402513
0.000402595
0.000402633
0.000397568
0.000398101
0.000398838
0.000399728
0.000400727
0.000401797
0.000402905
0.000404023
0.000405128
0.000406202
0.00040723
0.000408202
0.000409109
0.000409947
0.000410712
0.000411402
0.000412018
0.000412561
0.000413034
0.000413439
0.000413779
0.000414058
0.000414281
0.000414451
0.000414573
0.00041465
0.000414686
0.000409943
0.000410447
0.000411143
0.000411983
0.000412926
0.000413936
0.000414981
0.000416037
0.00041708
0.000418094
0.000419065
0.000419982
0.000420838
0.000421629
0.000422351
0.000423002
0.000423584
0.000424097
0.000424543
0.000424925
0.000425246
0.000425509
0.00042572
0.00042588
0.000425995
0.000426067
0.000426102
0.000421657
0.000422133
0.000422789
0.000423582
0.000424472
0.000425425
0.000426412
0.000427408
0.000428393
0.000429349
0.000430266
0.000431131
0.000431939
0.000432685
0.000433366
0.000433981
0.00043453
0.000435013
0.000435434
0.000435794
0.000436097
0.000436346
0.000436544
0.000436695
0.000436804
0.000436872
0.000436905
0.000432738
0.000433186
0.000433806
0.000434554
0.000435393
0.000436293
0.000437224
0.000438164
0.000439092
0.000439995
0.000440859
0.000441676
0.000442438
0.000443141
0.000443784
0.000444363
0.000444881
0.000445337
0.000445733
0.000446073
0.000446358
0.000446593
0.000446779
0.000446922
0.000447024
0.000447088
0.000447119
0.000443213
0.000443636
0.00044422
0.000444925
0.000445717
0.000446565
0.000447443
0.000448329
0.000449205
0.000450056
0.000450871
0.00045164
0.000452359
0.000453022
0.000453627
0.000454173
0.000454661
0.00045509
0.000455464
0.000455784
0.000456052
0.000456273
0.000456449
0.000456583
0.000456679
0.00045674
0.000456769
0.000453108
0.000453507
0.000454057
0.000454722
0.000455469
0.000456268
0.000457095
0.00045793
0.000458755
0.000459557
0.000460324
0.000461049
0.000461726
0.00046235
0.00046292
0.000463434
0.000463893
0.000464298
0.000464649
0.00046495
0.000465203
0.000465411
0.000465576
0.000465702
0.000465793
0.00046585
0.000465877
0.000462449
0.000462824
0.000463343
0.000463969
0.000464672
0.000465425
0.000466204
0.00046699
0.000467767
0.000468521
0.000469243
0.000469925
0.000470562
0.000471149
0.000471685
0.000472169
0.0004726
0.000472981
0.000473311
0.000473594
0.000473832
0.000474027
0.000474182
0.000474301
0.000474386
0.000474439
0.000474465
0.000471258
0.000471612
0.0004721
0.000472689
0.00047335
0.000474058
0.000474791
0.00047553
0.000476261
0.00047697
0.000477649
0.00047829
0.000478888
0.00047944
0.000479944
0.000480398
0.000480803
0.00048116
0.000481471
0.000481736
0.000481959
0.000482143
0.000482288
0.0004824
0.000482479
0.00048253
0.000482553
0.000479559
0.000479891
0.000480349
0.000480903
0.000481524
0.00048219
0.000482878
0.000483572
0.000484258
0.000484924
0.000485562
0.000486164
0.000486725
0.000487243
0.000487715
0.000488142
0.000488522
0.000488856
0.000489147
0.000489396
0.000489605
0.000489777
0.000489914
0.000490018
0.000490092
0.00049014
0.000490162
0.00048737
0.000487682
0.000488112
0.000488632
0.000489215
0.000489839
0.000490484
0.000491136
0.000491779
0.000492403
0.000493001
0.000493565
0.000494091
0.000494576
0.000495019
0.000495418
0.000495774
0.000496087
0.00049636
0.000496593
0.000496788
0.000496949
0.000497077
0.000497174
0.000497244
0.000497288
0.000497309
0.000494711
0.000495003
0.000495407
0.000495893
0.00049644
0.000497024
0.000497629
0.000498239
0.000498841
0.000499425
0.000499984
0.000500512
0.000501004
0.000501458
0.000501871
0.000502245
0.000502577
0.00050287
0.000503124
0.000503342
0.000503524
0.000503674
0.000503794
0.000503885
0.00050395
0.000503991
0.00050401
0.0005016
0.000501874
0.000502251
0.000502706
0.000503216
0.000503763
0.000504328
0.000504898
0.00050546
0.000506006
0.000506528
0.000507021
0.00050748
0.000507903
0.000508289
0.000508637
0.000508947
0.00050922
0.000509457
0.00050966
0.00050983
0.000509969
0.00051008
0.000510165
0.000510225
0.000510264
0.000510282
0.000508053
0.000508308
0.00050866
0.000509085
0.000509561
0.000510071
0.000510597
0.000511128
0.000511653
0.000512161
0.000512647
0.000513106
0.000513533
0.000513927
0.000514286
0.00051461
0.000514898
0.000515151
0.000515372
0.00051556
0.000515718
0.000515848
0.000515951
0.000516029
0.000516085
0.000516121
0.000516138
0.000514085
0.000514322
0.000514649
0.000515044
0.000515488
0.000515961
0.000516451
0.000516945
0.000517432
0.000517904
0.000518355
0.000518781
0.000519178
0.000519543
0.000519876
0.000520176
0.000520443
0.000520678
0.000520882
0.000521056
0.000521202
0.000521322
0.000521417
0.00052149
0.000521542
0.000521575
0.00052159
0.000519708
0.000519928
0.000520232
0.000520598
0.000521009
0.000521448
0.000521902
0.000522359
0.000522809
0.000523247
0.000523664
0.000524058
0.000524424
0.000524762
0.000525069
0.000525346
0.000525593
0.00052581
0.000525998
0.000526158
0.000526293
0.000526403
0.000526491
0.000526558
0.000526606
0.000526636
0.00052665
0.000524935
0.000525138
0.000525419
0.000525757
0.000526136
0.000526541
0.00052696
0.000527382
0.000527797
0.0005282
0.000528585
0.000528947
0.000529284
0.000529595
0.000529877
0.000530132
0.000530358
0.000530557
0.00053073
0.000530877
0.000531001
0.000531102
0.000531182
0.000531243
0.000531287
0.000531315
0.000531328
0.000529776
0.000529963
0.000530221
0.000530531
0.00053088
0.000531252
0.000531636
0.000532023
0.000532404
0.000532773
0.000533125
0.000533457
0.000533766
0.00053405
0.000534308
0.000534541
0.000534747
0.000534929
0.000535086
0.00053522
0.000535333
0.000535425
0.000535498
0.000535554
0.000535594
0.000535619
0.000535631
0.000534239
0.00053441
0.000534646
0.00053493
0.000535248
0.000535588
0.000535938
0.000536291
0.000536638
0.000536974
0.000537295
0.000537596
0.000537877
0.000538135
0.000538369
0.00053858
0.000538767
0.000538932
0.000539074
0.000539195
0.000539297
0.00053938
0.000539447
0.000539497
0.000539533
0.000539555
0.000539566
0.000538333
0.000538488
0.000538702
0.000538959
0.000539248
0.000539555
0.000539873
0.000540192
0.000540505
0.000540809
0.000541098
0.00054137
0.000541623
0.000541855
0.000542066
0.000542255
0.000542424
0.000542571
0.000542699
0.000542808
0.000542899
0.000542973
0.000543032
0.000543077
0.000543109
0.000543129
0.000543139
0.000542062
0.000542202
0.000542394
0.000542626
0.000542885
0.000543161
0.000543445
0.000543731
0.000544012
0.000544283
0.000544542
0.000544784
0.00054501
0.000545216
0.000545404
0.000545572
0.000545721
0.000545852
0.000545965
0.000546061
0.000546142
0.000546208
0.00054626
0.000546299
0.000546327
0.000546345
0.000546353
0.000545433
0.000545557
0.000545728
0.000545934
0.000546164
0.000546409
0.000546661
0.000546913
0.000547162
0.000547401
0.000547629
0.000547842
0.00054804
0.000548222
0.000548386
0.000548533
0.000548664
0.000548778
0.000548876
0.00054896
0.00054903
0.000549087
0.000549132
0.000549167
0.000549191
0.000549206
0.000549214
0.000548449
0.000548558
0.000548708
0.000548888
0.000549089
0.000549303
0.000549522
0.000549742
0.000549958
0.000550166
0.000550363
0.000550548
0.000550719
0.000550875
0.000551016
0.000551142
0.000551254
0.000551352
0.000551436
0.000551507
0.000551567
0.000551615
0.000551653
0.000551682
0.000551703
0.000551716
0.000551722
0.000551114
0.000551207
0.000551336
0.000551491
0.000551663
0.000551846
0.000552033
0.000552221
0.000552404
0.00055258
0.000552747
0.000552903
0.000553047
0.000553178
0.000553297
0.000553402
0.000553495
0.000553577
0.000553646
0.000553705
0.000553754
0.000553794
0.000553826
0.000553849
0.000553866
0.000553877
0.000553882
0.00055343
0.000553509
0.000553616
0.000553745
0.000553889
0.000554041
0.000554197
0.000554352
0.000554503
0.000554648
0.000554785
0.000554913
0.00055503
0.000555136
0.000555232
0.000555317
0.000555391
0.000555456
0.000555512
0.000555558
0.000555597
0.000555628
0.000555653
0.000555671
0.000555685
0.000555693
0.000555696
0.000555402
0.000555465
0.000555552
0.000555656
0.000555771
0.000555893
0.000556017
0.00055614
0.00055626
0.000556374
0.000556481
0.00055658
0.00055667
0.000556752
0.000556825
0.00055689
0.000556946
0.000556995
0.000557036
0.000557071
0.000557099
0.000557122
0.00055714
0.000557154
0.000557163
0.000557169
0.000557172
0.000557033
0.000557082
0.000557148
0.000557227
0.000557314
0.000557406
0.000557499
0.000557591
0.000557679
0.000557763
0.00055784
0.000557912
0.000557976
0.000558034
0.000558085
0.000558129
0.000558168
0.0005582
0.000558228
0.000558251
0.000558269
0.000558284
0.000558295
0.000558303
0.000558309
0.000558313
0.000558314
0.000558331
0.000558365
0.000558411
0.000558466
0.000558526
0.000558588
0.000558651
0.000558712
0.000558769
0.000558823
0.000558872
0.000558916
0.000558956
0.00055899
0.000559019
0.000559044
0.000559065
0.000559083
0.000559097
0.000559108
0.000559117
0.000559123
0.000559128
0.000559132
0.000559134
0.000559135
0.000559136
0.000559304
0.000559324
0.000559351
0.000559382
0.000559416
0.00055945
0.000559483
0.000559514
0.000559542
0.000559567
0.000559589
0.000559607
0.000559622
0.000559633
0.000559642
0.000559649
0.000559653
0.000559656
0.000559657
0.000559657
0.000559657
0.000559656
0.000559655
0.000559653
0.000559652
0.000559652
0.000559651
0.000559966
0.000559973
0.000559981
0.00055999
0.000559998
0.000560005
0.00056001
0.000560013
0.000560013
0.000560011
0.000560006
0.00056
0.000559992
0.000559982
0.000559972
0.000559961
0.000559949
0.000559938
0.000559928
0.000559918
0.000559908
0.0005599
0.000559894
0.000559888
0.000559884
0.000559881
0.00055988
0.000560333
0.000560327
0.000560318
0.000560305
0.00056029
0.000560272
0.000560251
0.000560227
0.000560202
0.000560174
0.000560146
0.000560116
0.000560087
0.000560058
0.00056003
0.000560003
0.000559977
0.000559954
0.000559932
0.000559913
0.000559896
0.000559882
0.00055987
0.00055986
0.000559853
0.000559849
0.000559847
0.000560426
0.000560408
0.000560383
0.000560352
0.000560315
0.000560274
0.000560229
0.000560182
0.000560133
0.000560083
0.000560033
0.000559983
0.000559935
0.000559889
0.000559845
0.000559804
0.000559766
0.000559731
0.0005597
0.000559673
0.000559649
0.000559629
0.000559613
0.0005596
0.000559591
0.000559585
0.000559582
0.000560272
0.000560244
0.000560204
0.000560156
0.0005601
0.000560039
0.000559974
0.000559905
0.000559836
0.000559767
0.000559698
0.000559631
0.000559567
0.000559506
0.000559449
0.000559396
0.000559348
0.000559304
0.000559265
0.000559231
0.000559202
0.000559178
0.000559158
0.000559143
0.000559131
0.000559124
0.000559121
0.000559901
0.000559864
0.000559813
0.00055975
0.000559679
0.000559601
0.000559518
0.000559433
0.000559347
0.000559262
0.000559179
0.000559098
0.000559022
0.000558949
0.000558882
0.00055882
0.000558764
0.000558713
0.000558669
0.00055863
0.000558596
0.000558569
0.000558546
0.000558529
0.000558516
0.000558508
0.000558505
0.000559349
0.000559306
0.000559246
0.000559172
0.000559089
0.000558998
0.000558903
0.000558805
0.000558707
0.000558611
0.000558517
0.000558427
0.000558341
0.000558261
0.000558187
0.00055812
0.000558058
0.000558003
0.000557955
0.000557913
0.000557878
0.000557848
0.000557824
0.000557806
0.000557792
0.000557784
0.00055778
0.00055866
0.000558612
0.000558546
0.000558465
0.000558374
0.000558275
0.000558172
0.000558067
0.000557962
0.000557859
0.000557759
0.000557664
0.000557575
0.000557491
0.000557414
0.000557343
0.00055728
0.000557224
0.000557174
0.000557131
0.000557095
0.000557065
0.000557041
0.000557022
0.000557009
0.000557
0.000556996
0.000557879
0.000557829
0.00055776
0.000557676
0.000557582
0.00055748
0.000557375
0.000557267
0.000557161
0.000557057
0.000556956
0.000556861
0.000556771
0.000556688
0.000556611
0.000556542
0.000556479