/*--------------------------------*- C++ -*----------------------------------*\
| =========                 |                                                 |
| \\      /  F ield         | OpenFOAM: The Open Source CFD Toolbox           |
|  \\    /   O peration     | Version:  2106                                  |
|   \\  /    A nd           | Website:  www.openfoam.com                      |
|    \\/     M anipulation  |                                                 |
\*---------------------------------------------------------------------------*/
FoamFile
{
    version     2.0;
    format      ascii;
    arch        "LSB;label=32;scalar=64";
    class       volScalarField;
    location    "200.00032";
    object      C2H5;
}
// * * * * * * * * * * * * * * * * * * * * * * * * * * * * * * * * * * * * * //

dimensions      [0 0 0 0 0 0 0];

internalField   nonuniform List<scalar> 
3360
(
3.61177e-27
3.83772e-27
4.15589e-27
4.55125e-27
5.0107e-27
5.52199e-27
6.07334e-27
6.65331e-27
7.25086e-27
7.85542e-27
8.45712e-27
9.04687e-27
9.61658e-27
1.01592e-26
1.06689e-26
1.11408e-26
1.15714e-26
1.19583e-26
1.22999e-26
1.25959e-26
1.28467e-26
1.30536e-26
1.32184e-26
1.33438e-26
1.34325e-26
1.3488e-26
1.35139e-26
1.82628e-26
1.95266e-26
2.1333e-26
2.36225e-26
2.63496e-26
2.94759e-26
3.29669e-26
3.67889e-26
4.09082e-26
4.52893e-26
4.98939e-26
5.46807e-26
5.96038e-26
6.46132e-26
6.96549e-26
7.4671e-26
7.96002e-26
8.43778e-26
8.89371e-26
9.32102e-26
9.71301e-26
1.00632e-25
1.03655e-25
1.06145e-25
1.08056e-25
1.09352e-25
1.10008e-25
6.97899e-26
7.55286e-26
8.3834e-26
9.45295e-26
1.07503e-25
1.22665e-25
1.39928e-25
1.59184e-25
1.80294e-25
2.0308e-25
2.27315e-25
2.52725e-25
2.79004e-25
3.05807e-25
3.32758e-25
3.59459e-25
3.855e-25
4.10471e-25
4.33976e-25
4.55648e-25
4.75156e-25
4.92223e-25
5.06627e-25
5.1821e-25
5.26879e-25
5.32608e-25
5.35428e-25
2.52095e-25
2.75768e-25
3.1046e-25
3.55766e-25
4.11536e-25
4.77671e-25
5.53999e-25
6.40179e-25
7.35643e-25
8.39552e-25
9.50783e-25
1.06794e-24
1.18937e-24
1.31322e-24
1.43748e-24
1.56003e-24
1.67879e-24
1.79173e-24
1.89702e-24
1.99303e-24
2.07846e-24
2.15228e-24
2.21382e-24
2.26269e-24
2.29884e-24
2.32245e-24
2.33395e-24
9.36697e-25
1.03332e-24
1.17583e-24
1.36335e-24
1.59596e-24
1.87382e-24
2.19656e-24
2.56287e-24
2.9702e-24
3.41458e-24
3.89066e-24
4.39175e-24
4.9101e-24
5.43712e-24
5.96377e-24
6.48086e-24
6.9795e-24
7.45139e-24
7.88915e-24
8.28652e-24
8.63849e-24
8.94141e-24
9.19295e-24
9.39205e-24
9.53883e-24
9.63443e-24
9.68086e-24
3.57143e-24
3.9621e-24
4.54065e-24
5.30502e-24
6.25681e-24
7.39743e-24
8.72567e-24
1.0236e-23
1.19174e-23
1.37527e-23
1.57186e-23
1.77866e-23
1.99232e-23
2.20919e-23
2.42548e-23
2.63735e-23
2.84118e-23
3.03359e-23
3.21164e-23
3.37287e-23
3.51534e-23
3.63768e-23
3.73906e-23
3.81915e-23
3.87808e-23
3.91641e-23
3.935e-23
1.38463e-23
1.54183e-23
1.7751e-23
2.08403e-23
2.46952e-23
2.93228e-23
3.47181e-23
4.08568e-23
4.76915e-23
5.51495e-23
6.31329e-23
7.15222e-23
8.01797e-23
8.89561e-23
9.76965e-23
1.06247e-22
1.14462e-22
1.22207e-22
1.29365e-22
1.3584e-22
1.41556e-22
1.4646e-22
1.50521e-22
1.53726e-22
1.56084e-22
1.57616e-22
1.58359e-22
5.41994e-23
6.04797e-23
6.98131e-23
8.21903e-23
9.76549e-23
1.1624e-22
1.37928e-22
1.62621e-22
1.90123e-22
2.20136e-22
2.52259e-22
2.86003e-22
3.20811e-22
3.56075e-22
3.9117e-22
4.25479e-22
4.58413e-22
4.89439e-22
5.18092e-22
5.43987e-22
5.6683e-22
5.86412e-22
6.02613e-22
6.15393e-22
6.24787e-22
6.30888e-22
6.33844e-22
2.13461e-22
2.38541e-22
2.75836e-22
3.25328e-22
3.87204e-22
4.616e-22
5.48439e-22
6.47314e-22
7.57427e-22
8.77557e-22
1.00608e-21
1.14103e-21
1.28014e-21
1.421e-21
1.56109e-21
1.69797e-21
1.82929e-21
1.95294e-21
2.06708e-21
2.17019e-21
2.26111e-21
2.33904e-21
2.40349e-21
2.45432e-21
2.49168e-21
2.51594e-21
2.52769e-21
8.42199e-22
9.41927e-22
1.09031e-21
1.28734e-21
1.53379e-21
1.83025e-21
2.17641e-21
2.57062e-21
3.00968e-21
3.48866e-21
4.00106e-21
4.53893e-21
5.09328e-21
5.65437e-21
6.21225e-21
6.75708e-21
7.27957e-21
7.77131e-21
8.22502e-21
8.63472e-21
8.99582e-21
9.30515e-21
9.5609e-21
9.76253e-21
9.91063e-21
1.00068e-20
1.00533e-20
3.32835e-21
3.72488e-21
4.31494e-21
5.09854e-21
6.07884e-21
7.25809e-21
8.63496e-21
1.02028e-20
1.19485e-20
1.38524e-20
1.58883e-20
1.80245e-20
2.02252e-20
2.24516e-20
2.46641e-20
2.68239e-20
2.88942e-20
3.08419e-20
3.26382e-20
3.42597e-20
3.56884e-20
3.6912e-20
3.79233e-20
3.87205e-20
3.93059e-20
3.96859e-20
3.98699e-20
1.31403e-20
1.4712e-20
1.70512e-20
2.0158e-20
2.4045e-20
2.87206e-20
3.41792e-20
4.03937e-20
4.73117e-20
5.48541e-20
6.29166e-20
7.13729e-20
8.00802e-20
8.88852e-20
9.7631e-20
1.06164e-19
1.14339e-19
1.22026e-19
1.29111e-19
1.35504e-19
1.41134e-19
1.45953e-19
1.49934e-19
1.53071e-19
1.55373e-19
1.56867e-19
1.57591e-19
5.18204e-20
5.8043e-20
6.73028e-20
7.95987e-20
9.49774e-20
1.13469e-19
1.35047e-19
1.59599e-19
1.86912e-19
2.1667e-19
2.48456e-19
2.81768e-19
3.16043e-19
3.50674e-19
3.85047e-19
4.18556e-19
4.50637e-19
4.80779e-19
5.08547e-19
5.33583e-19
5.55618e-19
5.74469e-19
5.90035e-19
6.02294e-19
6.1129e-19
6.17125e-19
6.19948e-19
2.0355e-19
2.28064e-19
2.64539e-19
3.12961e-19
3.73503e-19
4.46268e-19
5.31127e-19
6.27616e-19
7.34873e-19
8.51626e-19
9.76217e-19
1.10666e-18
1.24073e-18
1.37604e-18
1.5102e-18
1.64085e-18
1.76579e-18
1.88306e-18
1.99097e-18
2.08818e-18
2.17366e-18
2.24672e-18
2.307e-18
2.35444e-18
2.38923e-18
2.41177e-18
2.42268e-18
7.95887e-19
8.92019e-19
1.035e-18
1.2247e-18
1.46172e-18
1.74634e-18
2.07792e-18
2.45448e-18
2.87252e-18
3.3269e-18
3.81105e-18
4.31713e-18
4.83642e-18
5.35969e-18
5.87763e-18
6.38122e-18
6.86207e-18
7.31273e-18
7.72687e-18
8.09942e-18
8.42661e-18
8.70596e-18
8.93622e-18
9.11724e-18
9.24986e-18
9.33577e-18
9.37729e-18
3.08925e-18
3.46304e-18
4.01864e-18
4.75518e-18
5.67442e-18
6.77685e-18
8.05926e-18
9.51324e-18
1.11244e-17
1.28722e-17
1.47307e-17
1.66693e-17
1.86543e-17
2.06501e-17
2.26214e-17
2.45339e-17
2.63563e-17
2.80609e-17
2.96243e-17
3.10281e-17
3.22589e-17
3.3308e-17
3.41714e-17
3.48492e-17
3.53452e-17
3.56661e-17
3.5821e-17
1.18812e-17
1.33191e-17
1.54542e-17
1.82809e-17
2.1803e-17
2.60187e-17
3.09119e-17
3.64463e-17
4.25627e-17
4.91796e-17
5.61952e-17
6.34914e-17
7.09397e-17
7.84066e-17
8.57598e-17
9.28735e-17
9.96332e-17
1.05939e-16
1.11708e-16
1.16876e-16
1.21396e-16
1.25242e-16
1.28401e-16
1.30876e-16
1.32685e-16
1.33854e-16
1.34417e-16
4.51646e-17
5.06151e-17
5.86966e-17
6.93751e-17
8.26488e-17
9.84929e-17
1.16826e-16
1.3749e-16
1.60246e-16
1.8477e-16
2.1067e-16
2.375e-16
2.64781e-16
2.92024e-16
3.1875e-16
3.4451e-16
3.68902e-16
3.9158e-16
4.12262e-16
4.30734e-16
4.46848e-16
4.60521e-16
4.71726e-16
4.8049e-16
4.8688e-16
4.91001e-16
4.92986e-16
1.69278e-16
1.89551e-16
2.19546e-16
2.5907e-16
3.08035e-16
3.66256e-16
4.33335e-16
5.08598e-16
5.91077e-16
6.79523e-16
7.72461e-16
8.68249e-16
9.65162e-16
1.06147e-15
1.1555e-15
1.24573e-15
1.33081e-15
1.40958e-15
1.48116e-15
1.54486e-15
1.60025e-15
1.64712e-15
1.68542e-15
1.71531e-15
1.73705e-15
1.75105e-15
1.75778e-15
6.23856e-16
6.97445e-16
8.06011e-16
9.48527e-16
1.12429e-15
1.33222e-15
1.57045e-15
1.83617e-15
2.12559e-15
2.43403e-15
2.75611e-15
3.08604e-15
3.41785e-15
3.74568e-15
4.06402e-15
4.36789e-15
4.65298e-15
4.91578e-15
5.15353e-15
5.36432e-15
5.54697e-15
5.70099e-15
5.82651e-15
5.92418e-15
5.99509e-15
6.04064e-15
6.0625e-15
2.25526e-15
2.51452e-15
2.89555e-15
3.39328e-15
4.00357e-15
4.72087e-15
5.53702e-15
6.44078e-15
7.41788e-15
8.4515e-15
9.52304e-15
1.06129e-14
1.17016e-14
1.27703e-14
1.38018e-14
1.47807e-14
1.56943e-14
1.65324e-14
1.72872e-14
1.79536e-14
1.8529e-14
1.90125e-14
1.94054e-14
1.97103e-14
1.99311e-14
2.00727e-14
2.01405e-14
7.97806e-15
8.85916e-15
1.0148e-14
1.18214e-14
1.38588e-14
1.62349e-14
1.89164e-14
2.18609e-14
2.50177e-14
2.83297e-14
3.17357e-14
3.51736e-14
3.85828e-14
4.19067e-14
4.50943e-14
4.8102e-14
5.08938e-14
5.3442e-14
5.57268e-14
5.7736e-14
5.94642e-14
6.09118e-14
6.20846e-14
6.29924e-14
6.36484e-14
6.40681e-14
6.42687e-14
2.75718e-14
3.04451e-14
3.46247e-14
4.00128e-14
4.65194e-14
5.4041e-14
6.24522e-14
7.16038e-14
8.1327e-14
9.1439e-14
1.01752e-13
1.12079e-13
1.22246e-13
1.3209e-13
1.41472e-13
1.50273e-13
1.58401e-13
1.65783e-13
1.72375e-13
1.78149e-13
1.83098e-13
1.87231e-13
1.9057e-13
1.93149e-13
1.95008e-13
1.96196e-13
1.96763e-13
9.30605e-14
1.02016e-13
1.14961e-13
1.31518e-13
1.51332e-13
1.74021e-13
1.99146e-13
2.26222e-13
2.5472e-13
2.84096e-13
3.13805e-13
3.43325e-13
3.72176e-13
3.9993e-13
4.2622e-13
4.5075e-13
4.73289e-13
4.93673e-13
5.118e-13
5.27623e-13
5.41142e-13
5.52401e-13
5.61476e-13
5.68468e-13
5.73499e-13
5.76707e-13
5.78237e-13
3.07666e-13
3.34347e-13
3.72648e-13
4.21211e-13
4.78765e-13
5.4399e-13
6.1547e-13
6.91709e-13
7.71163e-13
8.52296e-13
9.33627e-13
1.01378e-12
1.09153e-12
1.16581e-12
1.23574e-12
1.30061e-12
1.35991e-12
1.4133e-12
1.46058e-12
1.5017e-12
1.53673e-12
1.56582e-12
1.5892e-12
1.60718e-12
1.6201e-12
1.62832e-12
1.63223e-12
1.00402e-12
1.08064e-12
1.18977e-12
1.32678e-12
1.48732e-12
1.66705e-12
1.8615e-12
2.06621e-12
2.27675e-12
2.48893e-12
2.69886e-12
2.90308e-12
3.0986e-12
3.28297e-12
3.45426e-12
3.61106e-12
3.75246e-12
3.87797e-12
3.98752e-12
4.08138e-12
4.1601e-12
4.22447e-12
4.27542e-12
4.314e-12
4.3413e-12
4.35843e-12
4.36647e-12
3.2677e-12
3.48496e-12
3.79168e-12
4.17226e-12
4.61192e-12
5.09603e-12
5.60996e-12
6.13933e-12
6.67034e-12
7.19012e-12
7.68711e-12
8.15139e-12
8.57499e-12
8.95227e-12
9.28e-12
9.55737e-12
9.78575e-12
9.96826e-12
1.01093e-11
1.02142e-11
1.02886e-11
1.03382e-11
1.03685e-11
1.03847e-11
1.03914e-11
1.03927e-11
1.03919e-11
1.06018e-11
1.12292e-11
1.21075e-11
1.31837e-11
1.4406e-11
1.57208e-11
1.70736e-11
1.84096e-11
1.9677e-11
2.08302e-11
2.18335e-11
2.2663e-11
2.33075e-11
2.37677e-11
2.40542e-11
2.41853e-11
2.41845e-11
2.4078e-11
2.38932e-11
2.36564e-11
2.33924e-11
2.31232e-11
2.28677e-11
2.26422e-11
2.24597e-11
2.23308e-11
2.22633e-11
3.30069e-11
3.47588e-11
3.71756e-11
4.00729e-11
4.32648e-11
4.65647e-11
4.9794e-11
5.27945e-11
5.5439e-11
5.76392e-11
5.93479e-11
6.05573e-11
6.12934e-11
6.16072e-11
6.15658e-11
6.12433e-11
6.07134e-11
6.00448e-11
5.92981e-11
5.85245e-11
5.77663e-11
5.70575e-11
5.64253e-11
5.58913e-11
5.54727e-11
5.51833e-11
5.50341e-11
8.75127e-11
9.13644e-11
9.66004e-11
1.02768e-10
1.09443e-10
1.16244e-10
1.22856e-10
1.29044e-10
1.34668e-10
1.39675e-10
1.44083e-10
1.47961e-10
1.51406e-10
1.54516e-10
1.5738e-10
1.60064e-10
1.62612e-10
1.65042e-10
1.67354e-10
1.69531e-10
1.71544e-10
1.73359e-10
1.7494e-10
1.76253e-10
1.77265e-10
1.77953e-10
1.783e-10
1.72824e-10
1.79476e-10
1.88659e-10
1.99777e-10
2.12354e-10
2.26048e-10
2.40651e-10
2.56086e-10
2.72371e-10
2.89585e-10
3.07829e-10
3.2718e-10
3.47669e-10
3.69256e-10
3.91824e-10
4.15167e-10
4.39e-10
4.62966e-10
4.86642e-10
5.09562e-10
5.31233e-10
5.5115e-10
5.68818e-10
5.83771e-10
5.95556e-10
6.03768e-10
6.08008e-10
2.56113e-10
2.67804e-10
2.84648e-10
3.06255e-10
3.32475e-10
3.63345e-10
3.9905e-10
4.39872e-10
4.86132e-10
5.38123e-10
5.96051e-10
6.59975e-10
7.29757e-10
8.05023e-10
8.85137e-10
9.69203e-10
1.05606e-09
1.1443e-09
1.23236e-09
1.31823e-09
1.39987e-09
1.47522e-09
1.54227e-09
1.59914e-09
1.64389e-09
1.67495e-09
1.69097e-09
3.41221e-10
3.63264e-10
3.9576e-10
4.38609e-10
4.92122e-10
5.56883e-10
6.33628e-10
7.23145e-10
8.26156e-10
9.43202e-10
1.07453e-09
1.22002e-09
1.37907e-09
1.55058e-09
1.7329e-09
1.92329e-09
2.11855e-09
2.31508e-09
2.50895e-09
2.69606e-09
2.87226e-09
3.03346e-09
3.17578e-09
3.29521e-09
3.38845e-09
3.4527e-09
3.48569e-09
4.99943e-10
5.39494e-10
5.98078e-10
6.75677e-10
7.72894e-10
8.90645e-10
1.02993e-09
1.19166e-09
1.37647e-09
1.58459e-09
1.81602e-09
2.06909e-09
2.34126e-09
2.62922e-09
2.92895e-09
3.23551e-09
3.54376e-09
3.84824e-09
4.14334e-09
4.42344e-09
4.68312e-09
4.91729e-09
5.12078e-09
5.28935e-09
5.41939e-09
5.50806e-09
5.55314e-09
8.42769e-10
9.08035e-10
1.00418e-09
1.13053e-09
1.28725e-09
1.47485e-09
1.69397e-09
1.94394e-09
2.22345e-09
2.53049e-09
2.8622e-09
3.21484e-09
3.58392e-09
3.96424e-09
4.35016e-09
4.73569e-09
5.11472e-09
5.4812e-09
5.82929e-09
6.1535e-09
6.44886e-09
6.71091e-09
6.93519e-09
7.11842e-09
7.25797e-09
7.35195e-09
7.39923e-09
1.48885e-09
1.58656e-09
1.72878e-09
1.91263e-09
2.13603e-09
2.39693e-09
2.69296e-09
3.02113e-09
3.37775e-09
3.75845e-09
4.15823e-09
4.57159e-09
4.99268e-09
5.41548e-09
5.83398e-09
6.24232e-09
6.63497e-09
7.0068e-09
7.35316e-09
7.67e-09
7.95384e-09
8.20183e-09
8.4117e-09
8.58099e-09
8.70849e-09
8.79352e-09
8.83591e-09
2.51615e-09
2.64305e-09
2.82518e-09
3.05636e-09
3.33127e-09
3.64476e-09
3.99152e-09
4.36596e-09
4.76219e-09
5.17414e-09
5.59563e-09
6.02056e-09
6.44302e-09
6.85746e-09
7.25874e-09
7.64222e-09
8.00385e-09
8.34013e-09
8.64814e-09
8.92551e-09
9.17043e-09
9.38155e-09
9.55802e-09
9.69938e-09
9.80479e-09
9.87447e-09
9.90893e-09
3.88176e-09
4.02615e-09
4.23077e-09
4.4863e-09
4.78448e-09
5.1175e-09
5.47785e-09
5.85825e-09
6.25172e-09
6.65166e-09
7.05192e-09
7.4469e-09
7.83162e-09
8.20172e-09
8.55351e-09
8.88392e-09
9.19047e-09
9.47125e-09
9.72483e-09
9.95024e-09
1.01469e-08
1.03145e-08
1.04532e-08
1.05631e-08
1.06449e-08
1.06986e-08
1.0725e-08
5.45779e-09
5.60421e-09
5.80954e-09
6.06254e-09
6.35318e-09
6.67224e-09
7.01129e-09
7.36258e-09
7.71919e-09
8.07497e-09
8.4246e-09
8.76358e-09
9.08818e-09
9.39542e-09
9.68299e-09
9.94916e-09
1.01927e-08
1.0413e-08
1.06095e-08
1.07821e-08
1.09311e-08
1.10568e-08
1.11596e-08
1.12403e-08
1.12996e-08
1.13382e-08
1.1357e-08
7.08421e-09
7.21895e-09
7.40631e-09
7.63465e-09
7.89365e-09
8.17403e-09
8.46758e-09
8.76712e-09
9.0665e-09
9.36061e-09
9.64527e-09
9.91717e-09
1.01738e-08
1.04134e-08
1.06347e-08
1.08369e-08
1.10198e-08
1.11832e-08
1.13275e-08
1.14531e-08
1.15604e-08
1.16501e-08
1.1723e-08
1.17797e-08
1.18211e-08
1.18479e-08
1.18609e-08
8.62149e-09
8.73562e-09
8.89321e-09
9.08354e-09
9.29713e-09
9.52565e-09
9.76189e-09
9.99979e-09
1.02344e-08
1.04617e-08
1.06787e-08
1.08832e-08
1.10736e-08
1.1249e-08
1.14089e-08
1.15532e-08
1.1682e-08
1.17959e-08
1.18952e-08
1.19807e-08
1.2053e-08
1.21128e-08
1.2161e-08
1.21981e-08
1.2225e-08
1.22422e-08
1.22505e-08
9.97706e-09
1.00667e-08
1.01898e-08
1.03372e-08
1.0501e-08
1.06743e-08
1.08514e-08
1.10275e-08
1.11988e-08
1.13624e-08
1.15165e-08
1.16595e-08
1.17907e-08
1.19096e-08
1.20164e-08
1.21113e-08
1.21947e-08
1.22672e-08
1.23294e-08
1.23821e-08
1.2426e-08
1.24617e-08
1.249e-08
1.25115e-08
1.25269e-08
1.25366e-08
1.25412e-08
1.1107e-08
1.11722e-08
1.12612e-08
1.13668e-08
1.14829e-08
1.16044e-08
1.17268e-08
1.18466e-08
1.19613e-08
1.2069e-08
1.21684e-08
1.22589e-08
1.234e-08
1.24119e-08
1.24748e-08
1.25292e-08
1.25757e-08
1.26149e-08
1.26475e-08
1.26742e-08
1.26956e-08
1.27124e-08
1.27251e-08
1.27345e-08
1.27408e-08
1.27447e-08
1.27464e-08
1.20048e-08
1.20479e-08
1.21063e-08
1.21747e-08
1.22489e-08
1.23251e-08
1.24004e-08
1.24724e-08
1.25394e-08
1.26004e-08
1.26548e-08
1.27022e-08
1.27428e-08
1.27768e-08
1.28047e-08
1.28271e-08
1.28445e-08
1.28576e-08
1.2867e-08
1.28735e-08
1.28775e-08
1.28797e-08
1.28806e-08
1.28806e-08
1.28801e-08
1.28795e-08
1.28791e-08
1.26873e-08
1.27117e-08
1.27442e-08
1.27815e-08
1.28207e-08
1.28596e-08
1.28962e-08
1.29293e-08
1.29578e-08
1.29814e-08
1.29999e-08
1.30134e-08
1.30221e-08
1.30266e-08
1.30273e-08
1.30248e-08
1.30198e-08
1.3013e-08
1.30048e-08
1.29959e-08
1.29868e-08
1.29779e-08
1.29698e-08
1.29628e-08
1.29572e-08
1.29532e-08
1.29512e-08
1.31827e-08
1.3192e-08
1.32036e-08
1.32159e-08
1.32273e-08
1.32365e-08
1.32426e-08
1.3245e-08
1.32435e-08
1.3238e-08
1.32288e-08
1.32161e-08
1.32004e-08
1.31823e-08
1.31624e-08
1.31412e-08
1.31194e-08
1.30975e-08
1.30762e-08
1.30558e-08
1.30369e-08
1.30199e-08
1.30051e-08
1.29929e-08
1.29835e-08
1.29771e-08
1.29738e-08
1.35228e-08
1.35202e-08
1.35157e-08
1.35086e-08
1.34984e-08
1.34847e-08
1.34674e-08
1.34464e-08
1.3422e-08
1.33945e-08
1.33643e-08
1.3332e-08
1.3298e-08
1.32631e-08
1.32279e-08
1.31928e-08
1.31586e-08
1.31257e-08
1.30947e-08
1.30659e-08
1.30399e-08
1.30169e-08
1.29973e-08
1.29813e-08
1.29692e-08
1.2961e-08
1.29569e-08
1.37381e-08
1.37266e-08
1.37098e-08
1.36881e-08
1.36616e-08
1.36307e-08
1.35958e-08
1.35574e-08
1.3516e-08
1.34722e-08
1.34266e-08
1.33798e-08
1.33325e-08
1.32854e-08
1.3239e-08
1.31939e-08
1.31507e-08
1.31099e-08
1.30719e-08
1.30371e-08
1.3006e-08
1.29788e-08
1.29558e-08
1.29372e-08
1.29231e-08
1.29136e-08
1.29089e-08
1.38557e-08
1.38376e-08
1.38117e-08
1.37792e-08
1.37407e-08
1.36973e-08
1.36496e-08
1.35985e-08
1.35447e-08
1.34891e-08
1.34324e-08
1.33752e-08
1.33184e-08
1.32626e-08
1.32083e-08
1.31561e-08
1.31066e-08
1.30602e-08
1.30174e-08
1.29785e-08
1.29439e-08
1.29138e-08
1.28884e-08
1.28679e-08
1.28525e-08
1.28423e-08
1.28371e-08
1.38983e-08
1.38754e-08
1.38431e-08
1.38027e-08
1.37557e-08
1.37033e-08
1.36465e-08
1.35864e-08
1.35239e-08
1.346e-08
1.33955e-08
1.33312e-08
1.32677e-08
1.32059e-08
1.31462e-08
1.30892e-08
1.30354e-08
1.29853e-08
1.29392e-08
1.28976e-08
1.28606e-08
1.28285e-08
1.28016e-08
1.278e-08
1.27637e-08
1.27529e-08
1.27475e-08
1.38845e-08
1.38582e-08
1.38213e-08
1.37755e-08
1.37226e-08
1.36639e-08
1.36008e-08
1.35346e-08
1.34662e-08
1.33967e-08
1.33269e-08
1.32578e-08
1.319e-08
1.31241e-08
1.30609e-08
1.30008e-08
1.29443e-08
1.28918e-08
1.28436e-08
1.28002e-08
1.27618e-08
1.27286e-08
1.27007e-08
1.26783e-08
1.26616e-08
1.26504e-08
1.26448e-08
1.38288e-08
1.38003e-08
1.37603e-08
1.37109e-08
1.3654e-08
1.35912e-08
1.3524e-08
1.34537e-08
1.33815e-08
1.33084e-08
1.32353e-08
1.31631e-08
1.30926e-08
1.30243e-08
1.2959e-08
1.2897e-08
1.28389e-08
1.2785e-08
1.27357e-08
1.26913e-08
1.26521e-08
1.26182e-08
1.25899e-08
1.25671e-08
1.25501e-08
1.25387e-08
1.25331e-08
1.37428e-08
1.37129e-08
1.3671e-08
1.36193e-08
1.35599e-08
1.34946e-08
1.34249e-08
1.33521e-08
1.32776e-08
1.32024e-08
1.31274e-08
1.30536e-08
1.29815e-08
1.2912e-08
1.28455e-08
1.27826e-08
1.27237e-08
1.26692e-08
1.26194e-08
1.25746e-08
1.25351e-08
1.2501e-08
1.24724e-08
1.24496e-08
1.24325e-08
1.24211e-08
1.24154e-08
1.36354e-08
1.36046e-08
1.35616e-08
1.35086e-08
1.34479e-08
1.33812e-08
1.33101e-08
1.32362e-08
1.31605e-08
1.30843e-08
1.30085e-08
1.29339e-08
1.28612e-08
1.27912e-08
1.27244e-08
1.26613e-08
1.26022e-08
1.25476e-08
1.24978e-08
1.2453e-08
1.24135e-08
1.23795e-08
1.2351e-08
1.23282e-08
1.23111e-08
1.22998e-08
1.22941e-08
1.35132e-08
1.3482e-08
1.34385e-08
1.3385e-08
1.33237e-08
1.32565e-08
1.3185e-08
1.31106e-08
1.30347e-08
1.29582e-08
1.28823e-08
1.28077e-08
1.27352e-08
1.26653e-08
1.25987e-08
1.25358e-08
1.2477e-08
1.24227e-08
1.23732e-08
1.23287e-08
1.22895e-08
1.22557e-08
1.22275e-08
1.22049e-08
1.2188e-08
1.21767e-08
1.21711e-08
1.33813e-08
1.33501e-08
1.33065e-08
1.3253e-08
1.31918e-08
1.31246e-08
1.30533e-08
1.29791e-08
1.29035e-08
1.28275e-08
1.2752e-08
1.26779e-08
1.26059e-08
1.25366e-08
1.24706e-08
1.24083e-08
1.23501e-08
1.22963e-08
1.22474e-08
1.22034e-08
1.21646e-08
1.21313e-08
1.21034e-08
1.20811e-08
1.20644e-08
1.20533e-08
1.20478e-08
1.32435e-08
1.32125e-08
1.31692e-08
1.31161e-08
1.30553e-08
1.29887e-08
1.29179e-08
1.28445e-08
1.27696e-08
1.26943e-08
1.26197e-08
1.25464e-08
1.24753e-08
1.24069e-08
1.23417e-08
1.22802e-08
1.22228e-08
1.21699e-08
1.21216e-08
1.20783e-08
1.20401e-08
1.20072e-08
1.19798e-08
1.19578e-08
1.19414e-08
1.19305e-08
1.1925e-08
1.31027e-08
1.3072e-08
1.30292e-08
1.29767e-08
1.29166e-08
1.28508e-08
1.2781e-08
1.27085e-08
1.26347e-08
1.25605e-08
1.24869e-08
1.24148e-08
1.23447e-08
1.22774e-08
1.22132e-08
1.21528e-08
1.20963e-08
1.20442e-08
1.19968e-08
1.19542e-08
1.19167e-08
1.18844e-08
1.18574e-08
1.18359e-08
1.18197e-08
1.1809e-08
1.18037e-08
1.29607e-08
1.29305e-08
1.28884e-08
1.28367e-08
1.27775e-08
1.27128e-08
1.2644e-08
1.25728e-08
1.25001e-08
1.24272e-08
1.23549e-08
1.2284e-08
1.22152e-08
1.2149e-08
1.2086e-08
1.20267e-08
1.19712e-08
1.19201e-08
1.18736e-08
1.18318e-08
1.1795e-08
1.17633e-08
1.17368e-08
1.17157e-08
1.16998e-08
1.16893e-08
1.16841e-08
1.28191e-08
1.27894e-08
1.2748e-08
1.26972e-08
1.26391e-08
1.25756e-08
1.25081e-08
1.24381e-08
1.23668e-08
1.22952e-08
1.22243e-08
1.21547e-08
1.20872e-08
1.20223e-08
1.19606e-08
1.19024e-08
1.1848e-08
1.17979e-08
1.17523e-08
1.17113e-08
1.16752e-08
1.16442e-08
1.16183e-08
1.15975e-08
1.1582e-08
1.15717e-08
1.15666e-08
1.26788e-08
1.26497e-08
1.2609e-08
1.25592e-08
1.25022e-08
1.24399e-08
1.23737e-08
1.23051e-08
1.22352e-08
1.21651e-08
1.20956e-08
1.20274e-08
1.19612e-08
1.18977e-08
1.18371e-08
1.17801e-08
1.17269e-08
1.16778e-08
1.1633e-08
1.15929e-08
1.15576e-08
1.15272e-08
1.15018e-08
1.14814e-08
1.14662e-08
1.14561e-08
1.14511e-08
1.25402e-08
1.25117e-08
1.24719e-08
1.24231e-08
1.23673e-08
1.23062e-08
1.22414e-08
1.21742e-08
1.21057e-08
1.2037e-08
1.19689e-08
1.19021e-08
1.18373e-08
1.17751e-08
1.17158e-08
1.16599e-08
1.16078e-08
1.15597e-08
1.15159e-08
1.14766e-08
1.1442e-08
1.14122e-08
1.13873e-08
1.13674e-08
1.13525e-08
1.13426e-08
1.13377e-08
1.24039e-08
1.23759e-08
1.2337e-08
1.22892e-08
1.22345e-08
1.21747e-08
1.21112e-08
1.20454e-08
1.19783e-08
1.1911e-08
1.18443e-08
1.17789e-08
1.17154e-08
1.16544e-08
1.15964e-08
1.15416e-08
1.14906e-08
1.14435e-08
1.14006e-08
1.13621e-08
1.13282e-08
1.1299e-08
1.12746e-08
1.12551e-08
1.12405e-08
1.12309e-08
1.1226e-08
1.22697e-08
1.22423e-08
1.22041e-08
1.21573e-08
1.21038e-08
1.20452e-08
1.1983e-08
1.19185e-08
1.18529e-08
1.17869e-08
1.17216e-08
1.16575e-08
1.15953e-08
1.15356e-08
1.14787e-08
1.1425e-08
1.1375e-08
1.13288e-08
1.12868e-08
1.12491e-08
1.12159e-08
1.11873e-08
1.11634e-08
1.11443e-08
1.113e-08
1.11205e-08
1.11158e-08
1.21375e-08
1.21107e-08
1.20733e-08
1.20274e-08
1.19749e-08
1.19175e-08
1.18566e-08
1.17934e-08
1.1729e-08
1.16644e-08
1.16003e-08
1.15375e-08
1.14766e-08
1.1418e-08
1.13622e-08
1.13096e-08
1.12606e-08
1.12153e-08
1.11741e-08
1.11371e-08
1.11045e-08
1.10765e-08
1.10531e-08
1.10343e-08
1.10203e-08
1.1011e-08
1.10064e-08
1.20069e-08
1.19806e-08
1.1944e-08
1.1899e-08
1.18475e-08
1.17912e-08
1.17315e-08
1.16695e-08
1.16063e-08
1.15429e-08
1.14801e-08
1.14184e-08
1.13586e-08
1.13011e-08
1.12464e-08
1.11948e-08
1.11466e-08
1.11022e-08
1.10618e-08
1.10255e-08
1.09935e-08
1.0966e-08
1.0943e-08
1.09246e-08
1.09109e-08
1.09017e-08
1.08972e-08
1.18775e-08
1.18517e-08
1.18157e-08
1.17715e-08
1.1721e-08
1.16657e-08
1.1607e-08
1.15461e-08
1.14841e-08
1.14218e-08
1.13601e-08
1.12995e-08
1.12408e-08
1.11843e-08
1.11305e-08
1.10798e-08
1.10325e-08
1.09888e-08
1.09491e-08
1.09134e-08
1.0882e-08
1.0855e-08
1.08324e-08
1.08143e-08
1.08008e-08
1.07918e-08
1.07874e-08
1.17484e-08
1.17231e-08
1.16876e-08
1.16442e-08
1.15945e-08
1.15402e-08
1.14824e-08
1.14225e-08
1.13615e-08
1.13002e-08
1.12395e-08
1.11799e-08
1.11221e-08
1.10665e-08
1.10136e-08
1.09637e-08
1.09171e-08
1.08742e-08
1.08351e-08
1.08e-08
1.07691e-08
1.07424e-08
1.07202e-08
1.07025e-08
1.06892e-08
1.06803e-08
1.06759e-08
1.16189e-08
1.15939e-08
1.1559e-08
1.15162e-08
1.14672e-08
1.14136e-08
1.13567e-08
1.12977e-08
1.12375e-08
1.11771e-08
1.11172e-08
1.10585e-08
1.10015e-08
1.09467e-08
1.08945e-08
1.08453e-08
1.07994e-08
1.0757e-08
1.07185e-08
1.06839e-08
1.06534e-08
1.06272e-08
1.06053e-08
1.05878e-08
1.05747e-08
1.0566e-08
1.05616e-08
1.14877e-08
1.1463e-08
1.14286e-08
1.13863e-08
1.13379e-08
1.1285e-08
1.12287e-08
1.11704e-08
1.11109e-08
1.10512e-08
1.0992e-08
1.0934e-08
1.08776e-08
1.08234e-08
1.07719e-08
1.07233e-08
1.06779e-08
1.0636e-08
1.05979e-08
1.05638e-08
1.05337e-08
1.05077e-08
1.04861e-08
1.04688e-08
1.04559e-08
1.04473e-08
1.0443e-08
1.13536e-08
1.13292e-08
1.1295e-08
1.12531e-08
1.12052e-08
1.11527e-08
1.1097e-08
1.10392e-08
1.09802e-08
1.0921e-08
1.08623e-08
1.08048e-08
1.07489e-08
1.06952e-08
1.06441e-08
1.05959e-08
1.0551e-08
1.05095e-08
1.04718e-08
1.04379e-08
1.04081e-08
1.03824e-08
1.0361e-08
1.03439e-08
1.03311e-08
1.03226e-08
1.03184e-08
1.1215e-08
1.11907e-08
1.11567e-08
1.11151e-08
1.10674e-08
1.10152e-08
1.09598e-08
1.09022e-08
1.08436e-08
1.07847e-08
1.07263e-08
1.06691e-08
1.06135e-08
1.05601e-08
1.05093e-08
1.04614e-08
1.04167e-08
1.03755e-08
1.0338e-08
1.03043e-08
1.02747e-08
1.02492e-08
1.0228e-08
1.02109e-08
1.01982e-08
1.01898e-08
1.01856e-08
1.107e-08
1.10457e-08
1.10118e-08
1.09702e-08
1.09226e-08
1.08704e-08
1.0815e-08
1.07576e-08
1.0699e-08
1.06402e-08
1.05819e-08
1.05247e-08
1.04692e-08
1.04159e-08
1.03652e-08
1.03174e-08
1.02728e-08
1.02317e-08
1.01942e-08
1.01607e-08
1.01312e-08
1.01058e-08
1.00846e-08
1.00676e-08
1.0055e-08
1.00466e-08
1.00424e-08
1.09164e-08
1.0892e-08
1.0858e-08
1.08162e-08
1.07684e-08
1.07161e-08
1.06605e-08
1.06028e-08
1.0544e-08
1.0485e-08
1.04265e-08
1.03692e-08
1.03135e-08
1.026e-08
1.02092e-08
1.01612e-08
1.01165e-08
1.00753e-08
1.00379e-08
1.00043e-08
9.97472e-09
9.9493e-09
9.9281e-09
9.91117e-09
9.89851e-09
9.89013e-09
9.88597e-09
1.07516e-08
1.0727e-08
1.06926e-08
1.06505e-08
1.06023e-08
1.05495e-08
1.04934e-08
1.04352e-08
1.03759e-08
1.03163e-08
1.02573e-08
1.01995e-08
1.01434e-08
1.00895e-08
1.00382e-08
9.98993e-09
9.94493e-09
9.90347e-09
9.86576e-09
9.83198e-09
9.80227e-09
9.77673e-09
9.75543e-09
9.73843e-09
9.72573e-09
9.71732e-09
9.71314e-09
1.05727e-08
1.05477e-08
1.05129e-08
1.04701e-08
1.04211e-08
1.03675e-08
1.03106e-08
1.02515e-08
1.01913e-08
1.01309e-08
1.0071e-08
1.00124e-08
9.9555e-09
9.90087e-09
9.84894e-09
9.80004e-09
9.75449e-09
9.71255e-09
9.67442e-09
9.64028e-09
9.61026e-09
9.58448e-09
9.56299e-09
9.54584e-09
9.53304e-09
9.52457e-09
9.52036e-09
1.03764e-08
1.03509e-08
1.03152e-08
1.02715e-08
1.02215e-08
1.01667e-08
1.01085e-08
1.00482e-08
9.98673e-09
9.92505e-09
9.86395e-09
9.80411e-09
9.74609e-09
9.69042e-09
9.6375e-09
9.58771e-09
9.54135e-09
9.49869e-09
9.45993e-09
9.42524e-09
9.39477e-09
9.36861e-09
9.34683e-09
9.32945e-09
9.31649e-09
9.30791e-09
9.30366e-09
1.01589e-08
1.01326e-08
1.00959e-08
1.00509e-08
9.99947e-09
9.94311e-09
9.8833e-09
9.82126e-09
9.75809e-09
9.69473e-09
9.63198e-09
9.57055e-09
9.51103e-09
9.45393e-09
9.39971e-09
9.34872e-09
9.30128e-09
9.25764e-09
9.21803e-09
9.18261e-09
9.15152e-09
9.12485e-09
9.10265e-09
9.08496e-09
9.07178e-09
9.06306e-09
9.05874e-09
9.91598e-09
9.88878e-09
9.85078e-09
9.80418e-09
9.75086e-09
9.69251e-09
9.63059e-09
9.5664e-09
9.50106e-09
9.43555e-09
9.37072e-09
9.30727e-09
9.24585e-09
9.18697e-09
9.13109e-09
9.07858e-09
9.02977e-09
8.98492e-09
8.94423e-09
8.90789e-09
8.87601e-09
8.84868e-09
8.82597e-09
8.80788e-09
8.79441e-09
8.78551e-09
8.78111e-09
9.64331e-09
9.61493e-09
9.57531e-09
9.52673e-09
9.47116e-09
9.41036e-09
9.34587e-09
9.27905e-09
9.21107e-09
9.14295e-09
9.07558e-09
9.00971e-09
8.94598e-09
8.88494e-09
8.82707e-09
8.77274e-09
8.72228e-09
8.67596e-09
8.63399e-09
8.59654e-09
8.56372e-09
8.53562e-09
8.51229e-09
8.49373e-09
8.47992e-09
8.47081e-09
8.46631e-09
9.33623e-09
9.30647e-09
9.26492e-09
9.21398e-09
9.15574e-09
9.09205e-09
9.02454e-09
8.95462e-09
8.88355e-09
8.81238e-09
8.74205e-09
8.67335e-09
8.60695e-09
8.54343e-09
8.48325e-09
8.42683e-09
8.37448e-09
8.32649e-09
8.28305e-09
8.24434e-09
8.21046e-09
8.18149e-09
8.15747e-09
8.13838e-09
8.1242e-09
8.11485e-09
8.11024e-09
8.99023e-09
8.95887e-09
8.9151e-09
8.86147e-09
8.80019e-09
8.73321e-09
8.66226e-09
8.58884e-09
8.51427e-09
8.43968e-09
8.36605e-09
8.29419e-09
8.22483e-09
8.15855e-09
8.09585e-09
8.03713e-09
7.98274e-09
7.93293e-09
7.88792e-09
7.84786e-09
7.81286e-09
7.78297e-09
7.75822e-09
7.73859e-09
7.72402e-09
7.71444e-09
7.70971e-09
8.60123e-09
8.5681e-09
8.52189e-09
8.46529e-09
8.40067e-09
8.33009e-09
8.2554e-09
8.17819e-09
8.09986e-09
8.0216e-09
7.94444e-09
7.86925e-09
7.79677e-09
7.72762e-09
7.6623e-09
7.60122e-09
7.54474e-09
7.49311e-09
7.44653e-09
7.40514e-09
7.36904e-09
7.33827e-09
7.31284e-09
7.2927e-09
7.27779e-09
7.26799e-09
7.26317e-09
8.16615e-09
8.13116e-09
8.08237e-09
8.02266e-09
7.95455e-09
7.88024e-09
7.80169e-09
7.7206e-09
7.63845e-09
7.5565e-09
7.47582e-09
7.39735e-09
7.32183e-09
7.2499e-09
7.18209e-09
7.11881e-09
7.0604e-09
7.00712e-09
6.95915e-09
6.91661e-09
6.87959e-09
6.84811e-09
6.82213e-09
6.80162e-09
6.78645e-09
6.77652e-09
6.77164e-09
7.68362e-09
7.64678e-09
7.59546e-09
7.5327e-09
7.4612e-09
7.38329e-09
7.30107e-09
7.21632e-09
7.13062e-09
7.04528e-09
6.96145e-09
6.88007e-09
6.80192e-09
6.72766e-09
6.65781e-09
6.59279e-09
6.53291e-09
6.47842e-09
6.42949e-09
6.38622e-09
6.34865e-09
6.31678e-09
6.29057e-09
6.26992e-09
6.2547e-09
6.24475e-09
6.23989e-09
7.15493e-09
7.11644e-09
7.06285e-09
6.99741e-09
6.92296e-09
6.84199e-09
6.75669e-09
6.66896e-09
6.58044e-09
6.49252e-09
6.40636e-09
6.32294e-09
6.24305e-09
6.16735e-09
6.09634e-09
6.03044e-09
5.96994e-09
5.91506e-09
5.86593e-09
5.82262e-09
5.78515e-09
5.75348e-09
5.72751e-09
5.70713e-09
5.69217e-09
5.68242e-09
5.67768e-09
6.58507e-09
6.54534e-09
6.4901e-09
6.42275e-09
6.34628e-09
6.26329e-09
6.17609e-09
6.08665e-09
5.99666e-09
5.90755e-09
5.82051e-09
5.73651e-09
5.65636e-09
5.58067e-09
5.50995e-09
5.44455e-09
5.38475e-09
5.33071e-09
5.28253e-09
5.24023e-09
5.20378e-09
5.1731e-09
5.14804e-09
5.12844e-09
5.11408e-09
5.10471e-09
5.10006e-09
5.98379e-09
5.94354e-09
5.88766e-09
5.81969e-09
5.7427e-09
5.65939e-09
5.57214e-09
5.48297e-09
5.39359e-09
5.30544e-09
5.21971e-09
5.13734e-09
5.0591e-09
4.98559e-09
4.91723e-09
4.85436e-09
4.79717e-09
4.74578e-09
4.70023e-09
4.66048e-09
4.62644e-09
4.59796e-09
4.57485e-09
4.55689e-09
4.5438e-09
4.53531e-09
4.5311e-09
5.36637e-09
5.32665e-09
5.27162e-09
5.20486e-09
5.1295e-09
5.04828e-09
4.96357e-09
4.87742e-09
4.79151e-09
4.70726e-09
4.62579e-09
4.54801e-09
4.47462e-09
4.40613e-09
4.34292e-09
4.28523e-09
4.23319e-09
4.18683e-09
4.14613e-09
4.11095e-09
4.08115e-09
4.05649e-09
4.03672e-09
4.02155e-09
4.01065e-09
4.00366e-09
4.00024e-09
4.75373e-09
4.71589e-09
4.66363e-09
4.60045e-09
4.52946e-09
4.45337e-09
4.3745e-09
4.29482e-09
4.21597e-09
4.13928e-09
4.0658e-09
3.99635e-09
3.93154e-09
3.87178e-09
3.81736e-09
3.76841e-09
3.72498e-09
3.68701e-09
3.65438e-09
3.62692e-09
3.6044e-09
3.58653e-09
3.573e-09
3.56349e-09
3.55726e-09
3.55368e-09
3.55215e-09
4.17154e-09
4.1372e-09
4.08997e-09
4.03323e-09
3.96993e-09
3.9027e-09
3.83378e-09
3.76504e-09
3.69807e-09
3.63417e-09
3.57447e-09
3.51991e-09
3.47132e-09
3.42947e-09
3.39383e-09
3.36371e-09
3.33859e-09
3.31805e-09