/*--------------------------------*- C++ -*----------------------------------*\
| =========                 |                                                 |
| \\      /  F ield         | OpenFOAM: The Open Source CFD Toolbox           |
|  \\    /   O peration     | Version:  2106                                  |
|   \\  /    A nd           | Website:  www.openfoam.com                      |
|    \\/     M anipulation  |                                                 |
\*---------------------------------------------------------------------------*/
FoamFile
{
    version     2.0;
    format      ascii;
    arch        "LSB;label=32;scalar=64";
    class       volScalarField;
    location    "200.00032";
    object      C3H3;
}
// * * * * * * * * * * * * * * * * * * * * * * * * * * * * * * * * * * * * * //

dimensions      [0 0 0 0 0 0 0];

internalField   nonuniform List<scalar> 
3360
(
5.5819e-24
5.9311e-24
6.42282e-24
7.03384e-24
7.74391e-24
8.5341e-24
9.38619e-24
1.02825e-23
1.1206e-23
1.21404e-23
1.30703e-23
1.39817e-23
1.48622e-23
1.57008e-23
1.64885e-23
1.72178e-23
1.78833e-23
1.84812e-23
1.90092e-23
1.94666e-23
1.98543e-23
2.0174e-23
2.04288e-23
2.06225e-23
2.07596e-23
2.08454e-23
2.08854e-23
2.82248e-23
3.01778e-23
3.29696e-23
3.6508e-23
4.07226e-23
4.55543e-23
5.09495e-23
5.68563e-23
6.32226e-23
6.99934e-23
7.71098e-23
8.45076e-23
9.21161e-23
9.9858e-23
1.0765e-22
1.15402e-22
1.2302e-22
1.30404e-22
1.3745e-22
1.44054e-22
1.50112e-22
1.55524e-22
1.60196e-22
1.64045e-22
1.66998e-22
1.69001e-22
1.70014e-22
1.07858e-22
1.16728e-22
1.29563e-22
1.46093e-22
1.66143e-22
1.89576e-22
2.16255e-22
2.46014e-22
2.7864e-22
3.13856e-22
3.51309e-22
3.9058e-22
4.31194e-22
4.72617e-22
5.14269e-22
5.55535e-22
5.9578e-22
6.34372e-22
6.70699e-22
7.04192e-22
7.34342e-22
7.60718e-22
7.82978e-22
8.00879e-22
8.14278e-22
8.23132e-22
8.27491e-22
3.89607e-22
4.26193e-22
4.79807e-22
5.49828e-22
6.36018e-22
7.38228e-22
8.5619e-22
9.8938e-22
1.13692e-21
1.2975e-21
1.46941e-21
1.65047e-21
1.83814e-21
2.02955e-21
2.22158e-21
2.41099e-21
2.59452e-21
2.76907e-21
2.93179e-21
3.08018e-21
3.2122e-21
3.32629e-21
3.42139e-21
3.49693e-21
3.55279e-21
3.58928e-21
3.60706e-21
1.44764e-21
1.59697e-21
1.81721e-21
2.10702e-21
2.46651e-21
2.89593e-21
3.39472e-21
3.96084e-21
4.59036e-21
5.27715e-21
6.01291e-21
6.78733e-21
7.58842e-21
8.40292e-21
9.21684e-21
1.0016e-20
1.07866e-20
1.15159e-20
1.21925e-20
1.28066e-20
1.33506e-20
1.38187e-20
1.42074e-20
1.45152e-20
1.4742e-20
1.48897e-20
1.49615e-20
5.51954e-21
6.12332e-21
7.01744e-21
8.19876e-21
9.66973e-21
1.14325e-20
1.34853e-20
1.58194e-20
1.8418e-20
2.12543e-20
2.42927e-20
2.74886e-20
3.07907e-20
3.41424e-20
3.7485e-20
4.07596e-20
4.39096e-20
4.68833e-20
4.9635e-20
5.21267e-20
5.43286e-20
5.62194e-20
5.77861e-20
5.90238e-20
5.99347e-20
6.05269e-20
6.08143e-20
2.13991e-20
2.38285e-20
2.74337e-20
3.2208e-20
3.81656e-20
4.53176e-20
5.36558e-20
6.31431e-20
7.37059e-20
8.52319e-20
9.75701e-20
1.10535e-19
1.23915e-19
1.37479e-19
1.50987e-19
1.64202e-19
1.76898e-19
1.88867e-19
1.9993e-19
2.09937e-19
2.18771e-19
2.2635e-19
2.32625e-19
2.3758e-19
2.41223e-19
2.43591e-19
2.44739e-19
8.37635e-20
9.34696e-20
1.07894e-19
1.27023e-19
1.50923e-19
1.79646e-19
2.13164e-19
2.51326e-19
2.93829e-19
3.40213e-19
3.89858e-19
4.4201e-19
4.95803e-19
5.50303e-19
6.04542e-19
6.57564e-19
7.08464e-19
7.56413e-19
8.00695e-19
8.40716e-19
8.76018e-19
9.06281e-19
9.3132e-19
9.51072e-19
9.65589e-19
9.75018e-19
9.79587e-19
3.29897e-19
3.68658e-19
4.26296e-19
5.02785e-19
5.98412e-19
7.13389e-19
8.47595e-19
1.0004e-18
1.17058e-18
1.35624e-18
1.55487e-18
1.76342e-18
1.97842e-18
2.19611e-18
2.41262e-18
2.62416e-18
2.82711e-18
3.01821e-18
3.1946e-18
3.35396e-18
3.49448e-18
3.61491e-18
3.71452e-18
3.79308e-18
3.85082e-18
3.88831e-18
3.90647e-18
1.30159e-18
1.45572e-18
1.68504e-18
1.98954e-18
2.37043e-18
2.82859e-18
3.36357e-18
3.97282e-18
4.65136e-18
5.39162e-18
6.18351e-18
7.01478e-18
7.8715e-18
8.73866e-18
9.60084e-18
1.04428e-17
1.12503e-17
1.20103e-17
1.27115e-17
1.33447e-17
1.39028e-17
1.43808e-17
1.47761e-17
1.50877e-17
1.53166e-17
1.54652e-17
1.55371e-17
5.14386e-18
5.75667e-18
6.6686e-18
7.87962e-18
9.39465e-18
1.12171e-17
1.33451e-17
1.57681e-17
1.8466e-17
2.14084e-17
2.45549e-17
2.78563e-17
3.12573e-17
3.46982e-17
3.81176e-17
4.14555e-17
4.46551e-17
4.76651e-17
5.04413e-17
5.29473e-17
5.51553e-17
5.70463e-17
5.86093e-17
5.98412e-17
6.0746e-17
6.13333e-17
6.16177e-17
2.03079e-17
2.27369e-17
2.63521e-17
3.11536e-17
3.71607e-17
4.43867e-17
5.28228e-17
6.24272e-17
7.31187e-17
8.47752e-17
9.72355e-17
1.10304e-16
1.23761e-16
1.37369e-16
1.50886e-16
1.64073e-16
1.76707e-16
1.88587e-16
1.99537e-16
2.09417e-16
2.18118e-16
2.25565e-16
2.31718e-16
2.36566e-16
2.40124e-16
2.42433e-16
2.43551e-16
8.00865e-17
8.97032e-17
1.04014e-16
1.23017e-16
1.46784e-16
1.75363e-16
2.0871e-16
2.46655e-16
2.88866e-16
3.34856e-16
3.8398e-16
4.35463e-16
4.88433e-16
5.41955e-16
5.95076e-16
6.46864e-16
6.96444e-16
7.43028e-16
7.85942e-16
8.24634e-16
8.58688e-16
8.87822e-16
9.1188e-16
9.30825e-16
9.44728e-16
9.53745e-16
9.58109e-16
3.14578e-16
3.52464e-16
4.08834e-16
4.83669e-16
5.77234e-16
6.89689e-16
8.20836e-16
9.69957e-16
1.13572e-15
1.31616e-15
1.50871e-15
1.7103e-15
1.9175e-15
2.12663e-15
2.33396e-15
2.53587e-15
2.72896e-15
2.9102e-15
3.07698e-15
3.22721e-15
3.35931e-15
3.47223e-15
3.56539e-15
3.6387e-15
3.69246e-15
3.72731e-15
3.74417e-15
1.23e-15
1.37857e-15
1.59953e-15
1.89272e-15
2.25902e-15
2.69888e-15
3.21133e-15
3.7933e-15
4.43936e-15
5.1416e-15
5.88983e-15
6.67195e-15
7.4745e-15
8.2832e-15
9.08366e-15
9.86193e-15
1.06051e-14
1.13016e-14
1.19416e-14
1.25174e-14
1.3023e-14
1.34547e-14
1.38106e-14
1.40904e-14
1.42953e-14
1.44281e-14
1.44923e-14
4.77418e-15
5.35186e-15
6.21051e-15
7.34881e-15
8.76947e-15
1.04732e-14
1.24552e-14
1.47022e-14
1.71922e-14
1.98934e-14
2.27657e-14
2.57617e-14
2.88294e-14
3.19139e-14
3.49604e-14
3.79162e-14
4.07326e-14
4.3367e-14
4.57832e-14
4.79528e-14
4.98549e-14
5.14762e-14
5.28106e-14
5.38582e-14
5.46247e-14
5.51206e-14
5.53601e-14
1.83608e-14
2.0583e-14
2.38827e-14
2.82512e-14
3.36944e-14
4.02096e-14
4.77719e-14
5.63251e-14
6.57778e-14
7.60041e-14
8.68465e-14
9.81226e-14
1.09634e-13
1.21174e-13
1.32538e-13
1.43532e-13
1.53979e-13
1.63724e-13
1.7264e-13
1.80627e-13
1.87614e-13
1.93557e-13
1.98439e-13
2.02265e-13
2.0506e-13
2.06866e-13
2.07737e-13
6.97893e-14
7.82127e-14
9.07022e-14
1.07205e-13
1.27719e-13
1.52205e-13
1.80538e-13
2.12475e-13
2.47643e-13
2.85545e-13
3.25573e-13
3.67039e-13
4.09202e-13
4.51305e-13
4.9261e-13
5.32423e-13
5.70121e-13
6.05169e-13
6.37133e-13
6.65682e-13
6.90586e-13
7.11717e-13
7.29035e-13
7.42579e-13
7.52456e-13
7.58825e-13
7.61893e-13
2.61518e-13
2.92848e-13
3.39202e-13
4.00283e-13
4.75955e-13
5.65932e-13
6.69601e-13
7.8592e-13
9.13391e-13
1.05009e-12
1.19372e-12
1.34177e-12
1.49155e-12
1.6404e-12
1.78574e-12
1.92519e-12
2.05668e-12
2.17844e-12
2.28906e-12
2.38752e-12
2.47313e-12
2.54557e-12
2.60477e-12
2.65096e-12
2.68457e-12
2.7062e-12
2.7166e-12
9.63336e-13
1.07705e-12
1.24482e-12
1.46505e-12
1.73668e-12
2.05801e-12
2.4262e-12
2.83688e-12
3.2842e-12
3.76092e-12
4.25874e-12
4.76871e-12
5.28158e-12
5.78832e-12
6.28038e-12
6.75009e-12
7.19078e-12
7.59699e-12
7.96451e-12
8.29034e-12
8.57267e-12
8.81075e-12
9.00478e-12
9.15577e-12
9.26537e-12
9.33578e-12
9.36957e-12
3.47864e-12
3.87917e-12
4.46788e-12
5.23694e-12
6.18001e-12
7.28853e-12
8.54991e-12
9.94678e-12
1.14571e-11
1.30549e-11
1.47115e-11
1.63964e-11
1.80796e-11
1.9732e-11
2.13267e-11
2.28404e-11
2.42531e-11
2.55489e-11
2.67161e-11
2.77467e-11
2.86363e-11
2.9384e-11
2.99916e-11
3.04631e-11
3.08045e-11
3.10234e-11
3.11283e-11
1.22746e-11
1.36352e-11
1.56257e-11
1.82106e-11
2.13583e-11
2.50301e-11
2.91747e-11
3.37266e-11
3.86076e-11
4.37292e-11
4.89971e-11
5.43151e-11
5.95892e-11
6.47318e-11
6.96642e-11
7.43184e-11
7.86389e-11
8.25826e-11
8.61188e-11
8.92286e-11
9.19034e-11
9.41441e-11
9.59595e-11
9.73647e-11
9.83801e-11
9.90296e-11
9.93402e-11
4.21786e-11
4.66101e-11
5.30586e-11
6.13754e-11
7.14236e-11
8.30452e-11
9.60476e-11
1.10201e-10
1.25246e-10
1.40898e-10
1.56868e-10
1.72866e-10
1.88619e-10
2.03878e-10
2.18423e-10
2.32071e-10
2.44676e-10
2.56128e-10
2.66354e-10
2.75313e-10
2.82993e-10
2.89407e-10
2.9459e-10
2.98592e-10
3.01478e-10
3.03321e-10
3.04201e-10
1.4059e-10
1.54361e-10
1.74285e-10
1.99795e-10
2.30362e-10
2.65406e-10
3.04262e-10
3.46186e-10
3.90364e-10
4.35952e-10
4.82103e-10
5.28005e-10
5.72902e-10
6.16125e-10
6.57097e-10
6.95347e-10
7.30511e-10
7.62327e-10
7.90631e-10
8.15345e-10
8.36469e-10
8.54064e-10
8.68247e-10
8.79178e-10
8.87046e-10
8.92062e-10
8.94453e-10
4.52727e-10
4.9345e-10
5.52032e-10
6.26503e-10
7.15028e-10
8.15671e-10
9.26331e-10
1.04474e-09
1.16855e-09
1.29536e-09
1.42285e-09
1.54885e-09
1.67138e-09
1.78872e-09
1.89941e-09
2.0023e-09
2.09653e-09
2.18148e-09
2.25682e-09
2.32243e-09
2.37836e-09
2.42485e-09
2.46225e-09
2.49103e-09
2.51171e-09
2.52488e-09
2.53115e-09
1.40302e-09
1.51762e-09
1.68165e-09
1.88885e-09
2.13343e-09
2.40947e-09
2.7108e-09
3.03102e-09
3.36361e-09
3.70221e-09
4.04073e-09
4.37356e-09
4.69573e-09
5.00294e-09
5.29168e-09
5.55916e-09
5.80338e-09
6.02299e-09
6.21729e-09
6.38612e-09
6.52979e-09
6.64902e-09
6.74481e-09
6.81841e-09
6.87125e-09
6.90486e-09
6.92086e-09
4.17018e-09
4.47824e-09
4.91733e-09
5.46918e-09
6.11704e-09
6.84421e-09
7.63372e-09
8.46845e-09
9.33141e-09
1.02062e-08
1.10775e-08
1.19313e-08
1.27554e-08
1.35392e-08
1.42742e-08
1.49538e-08
1.55733e-08
1.61296e-08
1.6621e-08
1.70476e-08
1.74103e-08
1.77109e-08
1.79523e-08
1.81376e-08
1.82705e-08
1.8355e-08
1.83952e-08
1.18412e-08
1.26365e-08
1.3767e-08
1.51836e-08
1.68414e-08
1.86965e-08
2.07053e-08
2.28244e-08
2.50111e-08
2.72247e-08
2.94272e-08
3.15837e-08
3.36639e-08
3.56418e-08
3.7496e-08
3.92102e-08
4.07724e-08
4.21749e-08
4.34141e-08
4.44895e-08
4.54036e-08
4.61614e-08
4.67696e-08
4.72365e-08
4.75714e-08
4.77843e-08
4.78855e-08
3.1953e-08
3.39371e-08
3.67563e-08
4.0288e-08
4.44214e-08
4.90496e-08
5.40662e-08
5.93657e-08
6.48444e-08
7.04021e-08
7.59447e-08
8.13857e-08
8.6648e-08
9.16651e-08
9.63815e-08
1.00753e-07
1.04748e-07
1.08344e-07
1.11528e-07
1.14297e-07
1.16655e-07
1.18614e-07
1.20189e-07
1.21399e-07
1.22268e-07
1.22821e-07
1.23084e-07
8.13545e-08
8.61397e-08
9.29507e-08
1.01504e-07
1.11547e-07
1.22837e-07
1.35135e-07
1.48198e-07
1.61787e-07
1.75667e-07
1.89611e-07
2.03406e-07
2.16857e-07
2.29787e-07
2.42045e-07
2.53505e-07
2.64064e-07
2.73647e-07
2.82202e-07
2.89702e-07
2.96137e-07
3.01519e-07
3.05875e-07
3.09244e-07
3.11677e-07
3.13233e-07
3.13977e-07
1.92964e-07
2.03883e-07
2.19469e-07
2.39122e-07
2.6232e-07
2.88567e-07
3.17375e-07
3.48244e-07
3.80674e-07
4.14157e-07
4.4819e-07
4.82282e-07
5.15962e-07
5.48784e-07
5.80342e-07
6.10268e-07
6.38242e-07
6.63995e-07
6.87311e-07
7.08026e-07
7.26029e-07
7.41261e-07
7.53707e-07
7.63399e-07
7.70434e-07
7.74955e-07
7.77126e-07
4.18516e-07
4.41152e-07
4.73529e-07
5.1447e-07
5.62978e-07
6.1812e-07
6.78972e-07
7.44598e-07
8.14029e-07
8.86268e-07
9.60295e-07
1.03507e-06
1.10957e-06
1.18275e-06
1.25364e-06
1.3213e-06
1.38486e-06
1.44352e-06
1.4966e-06
1.54376e-06
1.58479e-06
1.61958e-06
1.64812e-06
1.67049e-06
1.68687e-06
1.69748e-06
1.70262e-06
8.19772e-07
8.6121e-07
9.20467e-07
9.95386e-07
1.08415e-06
1.18505e-06
1.29642e-06
1.41653e-06
1.54358e-06
1.6757e-06
1.8109e-06
1.94714e-06
2.08234e-06
2.21437e-06
2.34122e-06
2.46154e-06
2.57414e-06
2.67801e-06
2.77231e-06
2.85642e-06
2.92985e-06
2.99234e-06
3.04379e-06
3.08427e-06
3.11399e-06
3.13332e-06
3.1427e-06
1.45475e-06
1.52172e-06
1.61723e-06
1.73756e-06
1.87946e-06
2.03988e-06
2.21576e-06
2.40394e-06
2.6011e-06
2.80376e-06
3.00829e-06
3.21185e-06
3.41189e-06
3.60602e-06
3.79206e-06
3.96806e-06
4.13232e-06
4.28341e-06
4.4202e-06
4.54184e-06
4.64774e-06
4.73761e-06
4.81143e-06
4.86937e-06
4.91184e-06
4.93939e-06
4.95275e-06
2.37563e-06
2.47206e-06
2.60877e-06
2.77952e-06
2.97868e-06
3.20078e-06
3.44029e-06
3.69273e-06
3.95386e-06
4.21957e-06
4.48594e-06
4.74929e-06
5.00627e-06
5.25382e-06
5.48926e-06
5.71029e-06
5.91501e-06
6.10191e-06
6.26988e-06
6.41819e-06
6.54648e-06
6.65467e-06
6.74302e-06
6.81202e-06
6.86235e-06
6.89487e-06
6.91058e-06
3.61169e-06
3.73312e-06
3.90413e-06
4.116e-06
4.36106e-06
4.63223e-06
4.92291e-06
5.22702e-06
5.53887e-06
5.85321e-06
6.16523e-06
6.47061e-06
6.76555e-06
7.04676e-06
7.31151e-06
7.5576e-06
7.78335e-06
7.98756e-06
8.16952e-06
8.32887e-06
8.46567e-06
8.58025e-06
8.67321e-06
8.74539e-06
8.79776e-06
8.83144e-06
8.84765e-06
5.12537e-06
5.26618e-06
5.46345e-06
5.70625e-06
5.98492e-06
6.29061e-06
6.61526e-06
6.9515e-06
7.29266e-06
7.63281e-06
7.96674e-06
8.28998e-06
8.59878e-06
8.89011e-06
9.16158e-06
9.41146e-06
9.63857e-06
9.84224e-06
1.00222e-05
1.01787e-05
1.03121e-05
1.04231e-05
1.05126e-05
1.05818e-05
1.06317e-05
1.06637e-05
1.06791e-05
6.87961e-06
7.03092e-06
7.24181e-06
7.49965e-06
7.7932e-06
8.11238e-06
8.44809e-06
8.7923e-06
9.13796e-06
9.47901e-06
9.81037e-06
1.01279e-05
1.04282e-05
1.07089e-05
1.09681e-05
1.12047e-05
1.1418e-05
1.16079e-05
1.17745e-05
1.19185e-05
1.20405e-05
1.21414e-05
1.22225e-05
1.22849e-05
1.23297e-05
1.23583e-05
1.2372e-05
8.7927e-06
8.94409e-06
9.15411e-06
9.40929e-06
9.69772e-06
1.00088e-05
1.03333e-05
1.06629e-05
1.09911e-05
1.13119e-05
1.16209e-05
1.19144e-05
1.21898e-05
1.24451e-05
1.26791e-05
1.28911e-05
1.30811e-05
1.32491e-05
1.33958e-05
1.35217e-05
1.3628e-05
1.37156e-05
1.37856e-05
1.38392e-05
1.38777e-05
1.39022e-05
1.39138e-05
1.07567e-05
1.08989e-05
1.10954e-05
1.1333e-05
1.15999e-05
1.18858e-05
1.21818e-05
1.24804e-05
1.27753e-05
1.30616e-05
1.33353e-05
1.35934e-05
1.38338e-05
1.40553e-05
1.42571e-05
1.44388e-05
1.46007e-05
1.47432e-05
1.48669e-05
1.49727e-05
1.50615e-05
1.51345e-05
1.51926e-05
1.52369e-05
1.52686e-05
1.52888e-05
1.52983e-05
1.26676e-05
1.27943e-05
1.29688e-05
1.31787e-05
1.34134e-05
1.36634e-05
1.39207e-05
1.41787e-05
1.44319e-05
1.46761e-05
1.4908e-05
1.51255e-05
1.53269e-05
1.55113e-05
1.56784e-05
1.58281e-05
1.59607e-05
1.60769e-05
1.61773e-05
1.62628e-05
1.63343e-05
1.63927e-05
1.64392e-05
1.64745e-05
1.64996e-05
1.65155e-05
1.65231e-05
1.44461e-05
1.45539e-05
1.47019e-05
1.48795e-05
1.5077e-05
1.52865e-05
1.55009e-05
1.57147e-05
1.59234e-05
1.61235e-05
1.63125e-05
1.64887e-05
1.6651e-05
1.67987e-05
1.69318e-05
1.70504e-05
1.7155e-05
1.7246e-05
1.73244e-05
1.73908e-05
1.74461e-05
1.74911e-05
1.75266e-05
1.75536e-05
1.75727e-05
1.75847e-05
1.75904e-05
1.60434e-05
1.61315e-05
1.62522e-05
1.63965e-05
1.65564e-05
1.67251e-05
1.6897e-05
1.70675e-05
1.72329e-05
1.73907e-05
1.75388e-05
1.7676e-05
1.78016e-05
1.79152e-05
1.8017e-05
1.81071e-05
1.81861e-05
1.82544e-05
1.83129e-05
1.83621e-05
1.84028e-05
1.84357e-05
1.84616e-05
1.84811e-05
1.84949e-05
1.85035e-05
1.85076e-05
1.74384e-05
1.75077e-05
1.76024e-05
1.77151e-05
1.78396e-05
1.79702e-05
1.81026e-05
1.82332e-05
1.8359e-05
1.84783e-05
1.85894e-05
1.86916e-05
1.87844e-05
1.88678e-05
1.89418e-05
1.90068e-05
1.90632e-05
1.91117e-05
1.91527e-05
1.91869e-05
1.9215e-05
1.92375e-05
1.92551e-05
1.92681e-05
1.92773e-05
1.9283e-05
1.92856e-05
1.86301e-05
1.86824e-05
1.87536e-05
1.8838e-05
1.89307e-05
1.90275e-05
1.91249e-05
1.92201e-05
1.93112e-05
1.93967e-05
1.94756e-05
1.95474e-05
1.96118e-05
1.9669e-05
1.97191e-05
1.97626e-05
1.97997e-05
1.98312e-05
1.98574e-05
1.98789e-05
1.98963e-05
1.99099e-05
1.99204e-05
1.99281e-05
1.99333e-05
1.99365e-05
1.9938e-05
1.96305e-05
1.96679e-05
1.97187e-05
1.97786e-05
1.98439e-05
1.99114e-05
1.99786e-05
2.00436e-05
2.01049e-05
2.01616e-05
2.02131e-05
2.02591e-05
2.02996e-05
2.03347e-05
2.03647e-05
2.039e-05
2.0411e-05
2.04282e-05
2.04421e-05
2.0453e-05
2.04614e-05
2.04677e-05
2.04723e-05
2.04754e-05
2.04774e-05
2.04786e-05
2.0479e-05
2.04583e-05
2.04832e-05
2.05167e-05
2.05558e-05
2.05979e-05
2.06407e-05
2.06826e-05
2.07222e-05
2.07586e-05
2.07912e-05
2.08198e-05
2.08443e-05
2.08648e-05
2.08816e-05
2.0895e-05
2.09053e-05
2.09129e-05
2.09184e-05
2.0922e-05
2.09242e-05
2.09253e-05
2.09255e-05
2.09253e-05
2.09247e-05
2.09241e-05
2.09236e-05
2.09232e-05
2.1135e-05
2.11495e-05
2.11686e-05
2.11904e-05
2.12132e-05
2.12356e-05
2.12565e-05
2.12751e-05
2.1291e-05
2.13038e-05
2.13135e-05
2.13204e-05
2.13245e-05
2.13263e-05
2.1326e-05
2.1324e-05
2.13208e-05
2.13167e-05
2.1312e-05
2.1307e-05
2.13021e-05
2.12975e-05
2.12933e-05
2.12898e-05
2.1287e-05
2.12851e-05
2.12841e-05
2.16824e-05
2.16882e-05
2.16955e-05
2.17032e-05
2.17102e-05
2.17158e-05
2.17196e-05
2.1721e-05
2.172e-05
2.17167e-05
2.17111e-05
2.17036e-05
2.16944e-05
2.16839e-05
2.16726e-05
2.16607e-05
2.16487e-05
2.16368e-05
2.16254e-05
2.16147e-05
2.1605e-05
2.15964e-05
2.15891e-05
2.15832e-05
2.15787e-05
2.15757e-05
2.15742e-05
2.21204e-05
2.21192e-05
2.21169e-05
2.2113e-05
2.21073e-05
2.20993e-05
2.20891e-05
2.20766e-05
2.20621e-05
2.20456e-05
2.20277e-05
2.20085e-05
2.19886e-05
2.19684e-05
2.19481e-05
2.19283e-05
2.19091e-05
2.18911e-05
2.18743e-05
2.1859e-05
2.18455e-05
2.18337e-05
2.18239e-05
2.18161e-05
2.18102e-05
2.18064e-05
2.18045e-05
2.24671e-05
2.24602e-05
2.24502e-05
2.2437e-05
2.24209e-05
2.2402e-05
2.23806e-05
2.23569e-05
2.23314e-05
2.23045e-05
2.22766e-05
2.22481e-05
2.22196e-05
2.21915e-05
2.21641e-05
2.21379e-05
2.21132e-05
2.20901e-05
2.20691e-05
2.20502e-05
2.20336e-05
2.20193e-05
2.20075e-05
2.19982e-05
2.19912e-05
2.19867e-05
2.19845e-05
2.2738e-05
2.27266e-05
2.27103e-05
2.26897e-05
2.26653e-05
2.26377e-05
2.26072e-05
2.25746e-05
2.25404e-05
2.25051e-05
2.24692e-05
2.24334e-05
2.2398e-05
2.23636e-05
2.23306e-05
2.22993e-05
2.22701e-05
2.22432e-05
2.22187e-05
2.2197e-05
2.21779e-05
2.21617e-05
2.21484e-05
2.21378e-05
2.21301e-05
2.2125e-05
2.21225e-05
2.29465e-05
2.29315e-05
2.29102e-05
2.28837e-05
2.28526e-05
2.2818e-05
2.27804e-05
2.27406e-05
2.26994e-05
2.26574e-05
2.26153e-05
2.25735e-05
2.25328e-05
2.24934e-05
2.24559e-05
2.24207e-05
2.23879e-05
2.23579e-05
2.23308e-05
2.23068e-05
2.22859e-05
2.22681e-05
2.22535e-05
2.22421e-05
2.22337e-05
2.22282e-05
2.22255e-05
2.31036e-05
2.30857e-05
2.30605e-05
2.30292e-05
2.29929e-05
2.29526e-05
2.29094e-05
2.2864e-05
2.28172e-05
2.27699e-05
2.27228e-05
2.26764e-05
2.26314e-05
2.25881e-05
2.25471e-05
2.25087e-05
2.24732e-05
2.24408e-05
2.24116e-05
2.23858e-05
2.23635e-05
2.23445e-05
2.2329e-05
2.23168e-05
2.23079e-05
2.23021e-05
2.22993e-05
2.32185e-05
2.31983e-05
2.31699e-05
2.31349e-05
2.30944e-05
2.30498e-05
2.3002e-05
2.29521e-05
2.2901e-05
2.28496e-05
2.27985e-05
2.27485e-05
2.27001e-05
2.26538e-05
2.261e-05
2.25692e-05
2.25315e-05
2.24972e-05
2.24664e-05
2.24393e-05
2.24158e-05
2.2396e-05
2.23797e-05
2.2367e-05
2.23577e-05
2.23516e-05
2.23487e-05
2.32988e-05
2.32768e-05
2.32459e-05
2.32079e-05
2.31641e-05
2.3116e-05
2.30647e-05
2.30113e-05
2.29568e-05
2.2902e-05
2.28479e-05
2.2795e-05
2.27439e-05
2.26953e-05
2.26494e-05
2.26066e-05
2.25673e-05
2.25316e-05
2.24996e-05
2.24714e-05
2.2447e-05
2.24265e-05
2.24097e-05
2.23966e-05
2.2387e-05
2.23807e-05
2.23777e-05
2.33505e-05
2.33271e-05
2.32943e-05
2.32539e-05
2.32076e-05
2.31567e-05
2.31026e-05
2.30464e-05
2.29892e-05
2.29319e-05
2.28754e-05
2.28203e-05
2.27672e-05
2.27167e-05
2.26691e-05
2.26249e-05
2.25843e-05
2.25475e-05
2.25145e-05
2.24856e-05
2.24606e-05
2.24395e-05
2.24223e-05
2.24089e-05
2.23991e-05
2.23927e-05
2.23896e-05
2.33788e-05
2.33542e-05
2.33199e-05
2.32776e-05
2.32293e-05
2.31762e-05
2.312e-05
2.30616e-05
2.30023e-05
2.29431e-05
2.28846e-05
2.28278e-05
2.27732e-05
2.27212e-05
2.26724e-05
2.26271e-05
2.25855e-05
2.25479e-05
2.25142e-05
2.24846e-05
2.24592e-05
2.24377e-05
2.24202e-05
2.24066e-05
2.23966e-05
2.23901e-05
2.2387e-05
2.33875e-05
2.33621e-05
2.33265e-05
2.32828e-05
2.32329e-05
2.31782e-05
2.31202e-05
2.30602e-05
2.29993e-05
2.29384e-05
2.28786e-05
2.28204e-05
2.27645e-05
2.27115e-05
2.26618e-05
2.26156e-05
2.25733e-05
2.2535e-05
2.25008e-05
2.24708e-05
2.2445e-05
2.24233e-05
2.24056e-05
2.23918e-05
2.23817e-05
2.23752e-05
2.2372e-05
2.338e-05
2.33538e-05
2.33173e-05
2.32725e-05
2.32213e-05
2.31653e-05
2.31059e-05
2.30446e-05
2.29824e-05
2.29204e-05
2.28595e-05
2.28003e-05
2.27435e-05
2.26897e-05
2.26392e-05
2.25924e-05
2.25495e-05
2.25108e-05
2.24762e-05
2.24459e-05
2.24198e-05
2.23979e-05
2.238e-05
2.23661e-05
2.2356e-05
2.23494e-05
2.23462e-05
2.33586e-05
2.33319e-05
2.32946e-05
2.32489e-05
2.31967e-05
2.31397e-05
2.30793e-05
2.3017e-05
2.29538e-05
2.28909e-05
2.28291e-05
2.27691e-05
2.27116e-05
2.26571e-05
2.26061e-05
2.25589e-05
2.25156e-05
2.24765e-05
2.24417e-05
2.24111e-05
2.23849e-05
2.23628e-05
2.23449e-05
2.23309e-05
2.23207e-05
2.23141e-05
2.23109e-05
2.33253e-05
2.32982e-05
2.32603e-05
2.32139e-05
2.31609e-05
2.31031e-05
2.30419e-05
2.29788e-05
2.29148e-05
2.28512e-05
2.27887e-05
2.27281e-05
2.26701e-05
2.26152e-05
2.25637e-05
2.25161e-05
2.24726e-05
2.24332e-05
2.23982e-05
2.23675e-05
2.23411e-05
2.2319e-05
2.2301e-05
2.22869e-05
2.22767e-05
2.22701e-05
2.22669e-05
2.32816e-05
2.32541e-05
2.32158e-05
2.31688e-05
2.31152e-05
2.30567e-05
2.29949e-05
2.29311e-05
2.28665e-05
2.28023e-05
2.27393e-05
2.26783e-05
2.26198e-05
2.25645e-05
2.25128e-05
2.24649e-05
2.24211e-05
2.23816e-05
2.23464e-05
2.23156e-05
2.22891e-05
2.22669e-05
2.22489e-05
2.22348e-05
2.22246e-05
2.22179e-05
2.22147e-05
2.32284e-05
2.32007e-05
2.31619e-05
2.31145e-05
2.30604e-05
2.30013e-05
2.29389e-05
2.28746e-05
2.28096e-05
2.27449e-05
2.26814e-05
2.262e-05
2.25612e-05
2.25056e-05
2.24536e-05
2.24055e-05
2.23615e-05
2.23219e-05
2.22866e-05
2.22557e-05
2.22292e-05
2.22069e-05
2.21888e-05
2.21747e-05
2.21645e-05
2.21579e-05
2.21547e-05
2.31664e-05
2.31384e-05
2.30993e-05
2.30515e-05
2.29969e-05
2.29374e-05
2.28745e-05
2.28097e-05
2.27443e-05
2.26791e-05
2.26153e-05
2.25535e-05
2.24944e-05
2.24385e-05
2.23863e-05
2.2338e-05
2.22939e-05
2.22541e-05
2.22187e-05
2.21877e-05
2.21611e-05
2.21388e-05
2.21207e-05
2.21066e-05
2.20964e-05
2.20897e-05
2.20865e-05
2.30959e-05
2.30676e-05
2.30282e-05
2.298e-05
2.29249e-05
2.2865e-05
2.28017e-05
2.27364e-05
2.26705e-05
2.2605e-05
2.25407e-05
2.24786e-05
2.24192e-05
2.23631e-05
2.23106e-05
2.22621e-05
2.22178e-05
2.21779e-05
2.21424e-05
2.21113e-05
2.20847e-05
2.20623e-05
2.20442e-05
2.203e-05
2.20198e-05
2.20132e-05
2.201e-05
2.30166e-05
2.29881e-05
2.29483e-05
2.28997e-05
2.28442e-05
2.27838e-05
2.272e-05
2.26543e-05
2.25879e-05
2.25219e-05
2.24573e-05
2.23948e-05
2.2335e-05
2.22786e-05
2.22258e-05
2.21771e-05
2.21326e-05
2.20925e-05
2.20569e-05
2.20257e-05
2.1999e-05
2.19766e-05
2.19584e-05
2.19442e-05
2.19339e-05
2.19273e-05
2.19241e-05
2.29281e-05
2.28993e-05
2.28592e-05
2.28101e-05
2.27542e-05
2.26932e-05
2.26289e-05
2.25626e-05
2.24957e-05
2.24292e-05
2.23641e-05
2.23011e-05
2.2241e-05
2.21841e-05
2.2131e-05
2.2082e-05
2.20373e-05
2.1997e-05
2.19611e-05
2.19298e-05
2.1903e-05
2.18805e-05
2.18622e-05
2.1848e-05
2.18377e-05
2.1831e-05
2.18278e-05
2.28295e-05
2.28004e-05
2.27599e-05
2.27103e-05
2.26538e-05
2.25922e-05
2.25272e-05
2.24602e-05
2.23927e-05
2.23256e-05
2.22598e-05
2.21963e-05
2.21356e-05
2.20783e-05
2.20248e-05
2.19754e-05
2.19303e-05
2.18897e-05
2.18536e-05
2.18221e-05
2.1795e-05
2.17724e-05
2.1754e-05
2.17398e-05
2.17294e-05
2.17227e-05
2.17195e-05
2.27195e-05
2.26901e-05
2.2649e-05
2.25988e-05
2.25415e-05
2.24792e-05
2.24134e-05
2.23456e-05
2.22772e-05
2.22093e-05
2.21428e-05
2.20786e-05
2.20172e-05
2.19593e-05
2.19052e-05
2.18552e-05
2.18097e-05
2.17687e-05
2.17323e-05
2.17004e-05
2.16732e-05
2.16503e-05
2.16318e-05
2.16174e-05
2.1607e-05
2.16002e-05
2.1597e-05
2.25964e-05
2.25665e-05
2.25247e-05
2.24737e-05
2.24156e-05
2.23522e-05
2.22854e-05
2.22166e-05
2.21472e-05
2.20783e-05
2.20108e-05
2.19456e-05
2.18833e-05
2.18246e-05
2.17697e-05
2.17191e-05
2.1673e-05
2.16314e-05
2.15945e-05
2.15623e-05
2.15347e-05
2.15116e-05
2.14929e-05
2.14783e-05
2.14677e-05
2.14609e-05
2.14577e-05
2.24578e-05
2.24272e-05
2.23847e-05
2.23327e-05
2.22734e-05
2.22088e-05
2.21407e-05
2.20706e-05
2.19999e-05
2.19296e-05
2.18609e-05
2.17945e-05
2.17311e-05
2.16713e-05
2.16154e-05
2.15639e-05
2.1517e-05
2.14747e-05
2.14372e-05
2.14045e-05
2.13764e-05
2.1353e-05
2.13339e-05
2.13192e-05
2.13084e-05
2.13015e-05
2.12982e-05
2.23007e-05
2.22695e-05
2.22259e-05
2.21726e-05
2.21119e-05
2.20458e-05
2.19761e-05
2.19043e-05
2.18319e-05
2.176e-05
2.16896e-05
2.16217e-05
2.15568e-05
2.14956e-05
2.14386e-05
2.13859e-05
2.13379e-05
2.12948e-05
2.12565e-05
2.1223e-05
2.11944e-05
2.11704e-05
2.1151e-05
2.1136e-05
2.1125e-05
2.1118e-05
2.11146e-05
2.21217e-05
2.20895e-05
2.20447e-05
2.19898e-05
2.19273e-05
2.18593e-05
2.17875e-05
2.17136e-05
2.16391e-05
2.15651e-05
2.14927e-05
2.14228e-05
2.13561e-05
2.12932e-05
2.12346e-05
2.11804e-05
2.11311e-05
2.10868e-05
2.10475e-05
2.10132e-05
2.09838e-05
2.09592e-05
2.09393e-05
2.09239e-05
2.09127e-05
2.09054e-05
2.0902e-05
2.19164e-05
2.1883e-05
2.18366e-05
2.17798e-05
2.17151e-05
2.16446e-05
2.15703e-05
2.14938e-05
2.14166e-05
2.134e-05
2.12651e-05
2.11928e-05
2.11238e-05
2.10587e-05
2.0998e-05
2.09421e-05
2.08911e-05
2.08453e-05
2.08047e-05
2.07693e-05
2.07389e-05
2.07136e-05
2.06931e-05
2.06771e-05
2.06656e-05
2.06582e-05
2.06546e-05
2.16795e-05
2.16447e-05
2.15963e-05
2.15371e-05
2.14696e-05
2.13962e-05
2.13187e-05
2.1239e-05
2.11586e-05
2.10788e-05
2.10007e-05
2.09254e-05
2.08535e-05
2.07858e-05
2.07226e-05
2.06644e-05
2.06114e-05
2.05638e-05
2.05216e-05
2.04847e-05
2.04532e-05
2.04269e-05
2.04056e-05
2.03891e-05
2.03771e-05
2.03694e-05
2.03657e-05
2.14049e-05
2.13685e-05
2.13176e-05
2.12555e-05
2.11847e-05
2.11076e-05
2.10262e-05
2.09426e-05
2.08582e-05
2.07745e-05
2.06926e-05
2.06136e-05
2.05383e-05
2.04672e-05
2.04011e-05
2.03401e-05
2.02846e-05
2.02347e-05
2.01905e-05
2.0152e-05
2.01191e-05
2.00916e-05
2.00694e-05
2.00521e-05
2.00396e-05
2.00316e-05
2.00277e-05
2.10857e-05
2.10471e-05
2.09934e-05
2.09277e-05
2.08528e-05
2.07713e-05
2.06853e-05
2.05969e-05
2.05077e-05
2.04193e-05
2.03328e-05
2.02494e-05
2.01698e-05
2.00949e-05
2.00251e-05
1.99608e-05
1.99023e-05
1.98497e-05
1.98032e-05
1.97626e-05
1.9728e-05
1.9699e-05
1.96757e-05
1.96575e-05
1.96444e-05
1.9636e-05
1.96319e-05
2.07136e-05
2.06725e-05
2.06153e-05
2.05454e-05
2.04657e-05
2.03789e-05
2.02874e-05
2.01933e-05
2.00985e-05
2.00044e-05
1.99124e-05
1.98238e-05
1.97392e-05
1.96596e-05
1.95855e-05
1.95172e-05
1.94552e-05
1.93995e-05
1.93501e-05
1.93072e-05
1.92705e-05
1.92399e-05
1.92151e-05
1.9196e-05
1.91821e-05
1.91732e-05
1.91689e-05
2.02798e-05
2.02358e-05
2.01745e-05
2.00996e-05
2.00142e-05
1.99212e-05
1.98233e-05
1.97225e-05
1.9621e-05
1.95203e-05
1.9422e-05
1.93272e-05
1.92368e-05
1.91518e-05
1.90726e-05
1.89998e-05
1.89336e-05
1.88742e-05
1.88216e-05
1.87759e-05
1.87368e-05
1.87043e-05
1.86779e-05
1.86576e-05
1.86429e-05
1.86334e-05
1.86289e-05
1.97748e-05
1.97274e-05
1.96613e-05
1.95806e-05
1.94886e-05
1.93885e-05
1.92831e-05
1.91747e-05
1.90655e-05
1.89572e-05
1.88515e-05
1.87497e-05
1.86527e-05
1.85614e-05
1.84765e-05
1.83984e-05
1.83275e-05
1.82639e-05
1.82077e-05
1.81588e-05
1.81171e-05
1.80823e-05
1.80542e-05
1.80325e-05
1.80168e-05
1.80068e-05
1.8002e-05
1.91886e-05
1.91373e-05
1.90659e-05
1.89786e-05
1.88791e-05
1.8771e-05
1.86571e-05
1.854e-05
1.84222e-05
1.83054e-05
1.81915e-05
1.80817e-05
1.79773e-05
1.78791e-05
1.77878e-05
1.77039e-05
1.76278e-05
1.75596e-05
1.74993e-05
1.74469e-05
1.74022e-05
1.7365e-05
1.7335e-05
1.73119e-05
1.72951e-05
1.72844e-05
1.72792e-05
1.85118e-05
1.84562e-05
1.83788e-05
1.82842e-05
1.81765e-05
1.80594e-05
1.79362e-05
1.78097e-05
1.76823e-05
1.75563e-05
1.74334e-05
1.73151e-05
1.72026e-05
1.70969e-05
1.69987e-05
1.69086e-05
1.68269e-05
1.67537e-05
1.66891e-05
1.6633e-05
1.65852e-05
1.65455e-05
1.65134e-05
1.64887e-05
1.64708e-05
1.64594e-05
1.64539e-05
1.77361e-05
1.76758e-05
1.7592e-05
1.74896e-05
1.73731e-05
1.72465e-05
1.71134e-05
1.69768e-05
1.68395e-05
1.67036e-05
1.65713e-05
1.64441e-05
1.63232e-05
1.62098e-05
1.61046e-05
1.6008e-05
1.59206e-05
1.58423e-05
1.57734e-05
1.57135e-05
1.56626e-05
1.56203e-05
1.55862e-05
1.55599e-05
1.55409e-05
1.55288e-05
1.5523e-05
1.68558e-05
1.67908e-05
1.67003e-05
1.65899e-05
1.64643e-05
1.63281e-05
1.61849e-05
1.60382e-05
1.58908e-05
1.57452e-05
1.56035e-05
1.54675e-05
1.53384e-05
1.52174e-05
1.51053e-05
1.50026e-05
1.49097e-05
1.48266e-05
1.47535e-05
1.46901e-05
1.46363e-05
1.45916e-05
1.45556e-05
1.45278e-05
1.45079e-05
1.44951e-05
1.4489e-05
1.58694e-05
1.57997e-05
1.57028e-05
1.55847e-05
1.54505e-05
1.5305e-05
1.51523e-05
1.4996e-05
1.48392e-05
1.46846e-05
1.45344e-05
1.43903e-05
1.42539e-05
1.41262e-05
1.4008e-05
1.38999e-05
1.38022e-05
1.37151e-05
1.36384e-05
1.35721e-05
1.35158e-05
1.34691e-05
1.34316e-05
1.34027e-05
1.33819e-05
1.33687e-05
1.33623e-05
1.47816e-05
1.47078e-05
1.46052e-05
1.44802e-05
1.43384e-05
1.4185e-05
1.40242e-05
1.38598e-05
1.36953e-05
1.35333e-05
1.33762e-05
1.32258e-05
1.30837e-05
1.29509e-05
1.28282e-05
1.27162e-05
1.26152e-05
1.25252e-05
1.24462e-05
1.23779e-05
1.232e-05
1.22721e-05
1.22336e-05
1.2204e-05
1.21828e-05
1.21692e-05
1.21628e-05
1.36048e-05
1.35278e-05
1.34208e-05
1.32908e-05
1.31435e-05
1.29843e-05
1.28179e-05
1.26481e-05
1.24785e-05
1.23119e-05
1.21506e-05
1.19967e-05
1.18514e-05
1.1716e-05
1.15912e-05
1.14775e-05
1.13751e-05
1.12841e-05
1.12043e-05
1.11355e-05
1.10772e-05
1.10291e-05
1.09905e-05
1.09608e-05
1.09396e-05
1.0926e-05
1.09196e-05
1.23603e-05
1.22816e-05
1.21724e-05
1.20398e-05
1.18899e-05
1.17282e-05
1.15595e-05
1.13879e-05
1.12168e-05
1.10492e-05
1.08873e-05
1.07331e-05
1.0588e-05
1.04531e-05
1.0329e-05
1.02161e-05
1.01147e-05
1.00248e-05
9.94608e-06
9.87831e-06
9.82103e-06
9.77376e-06
9.73591e-06
9.7069e-06
9.68609e-06
9.67286e-06
9.66656e-06
1.10776e-05
1.09988e-05
1.08898e-05
1.07575e-05
1.06083e-05
1.04476e-05
1.02802e-05
1.01102e-05
9.94114e-06
9.77572e-06
9.61628e-06
9.4646e-06
9.32204e-06
9.18958e-06
9.06787e-06
8.95727e-06
8.85793e-06
8.76979e-06
8.69261e-06
8.62606e-06
8.56969e-06
8.52299e-06
8.48538e-06
8.45628e-06
8.43524e-06
8.42177e-06
8.41531e-06
9.78904e-06
9.7117e-06
9.60459e-06
9.47471e-06
9.32817e-06
9.17031e-06
9.00576e-06
8.83847e-06
8.67169e-06
8.50807e-06
8.34969e-06
8.19816e-06
8.05465e-06
7.91997e-06