/*--------------------------------*- C++ -*----------------------------------*\
| =========                 |                                                 |
| \\      /  F ield         | OpenFOAM: The Open Source CFD Toolbox           |
|  \\    /   O peration     | Version:  2106                                  |
|   \\  /    A nd           | Website:  www.openfoam.com                      |
|    \\/     M anipulation  |                                                 |
\*---------------------------------------------------------------------------*/
FoamFile
{
    version     2.0;
    format      ascii;
    arch        "LSB;label=32;scalar=64";
    class       volScalarField;
    location    "200.00032";
    object      C3H6;
}
// * * * * * * * * * * * * * * * * * * * * * * * * * * * * * * * * * * * * * //

dimensions      [0 0 0 0 0 0 0];

internalField   nonuniform List<scalar> 
3360
(
1.29014e-23
1.3708e-23
1.48438e-23
1.62551e-23
1.78951e-23
1.97201e-23
2.16881e-23
2.37582e-23
2.58909e-23
2.80487e-23
3.01961e-23
3.23009e-23
3.43341e-23
3.62706e-23
3.80894e-23
3.97736e-23
4.13103e-23
4.26907e-23
4.39099e-23
4.49662e-23
4.58612e-23
4.65994e-23
4.71877e-23
4.76349e-23
4.79516e-23
4.81497e-23
4.8242e-23
6.5203e-23
6.97119e-23
7.61571e-23
8.43256e-23
9.40551e-23
1.05209e-22
1.17663e-22
1.31298e-22
1.45994e-22
1.61623e-22
1.78049e-22
1.95126e-22
2.12688e-22
2.30558e-22
2.48544e-22
2.66438e-22
2.84022e-22
3.01066e-22
3.1733e-22
3.32574e-22
3.46558e-22
3.5905e-22
3.69834e-22
3.78718e-22
3.85537e-22
3.90161e-22
3.92498e-22
2.48971e-22
2.69431e-22
2.9904e-22
3.3717e-22
3.83418e-22
4.3747e-22
4.99006e-22
5.67646e-22
6.42895e-22
7.24115e-22
8.10496e-22
9.01068e-22
9.94734e-22
1.09027e-21
1.18632e-21
1.28149e-21
1.3743e-21
1.4633e-21
1.54708e-21
1.62432e-21
1.69385e-21
1.75467e-21
1.80601e-21
1.84729e-21
1.87819e-21
1.8986e-21
1.90866e-21
8.9843e-22
9.82745e-22
1.1063e-21
1.26766e-21
1.46628e-21
1.7018e-21
1.97361e-21
2.2805e-21
2.62044e-21
2.99044e-21
3.3865e-21
3.80364e-21
4.236e-21
4.67697e-21
5.11936e-21
5.55571e-21
5.97851e-21
6.38061e-21
6.75545e-21
7.09728e-21
7.4014e-21
7.66422e-21
7.88328e-21
8.05728e-21
8.18597e-21
8.27002e-21
8.31096e-21
3.33442e-21
3.67817e-21
4.18517e-21
4.85227e-21
5.67976e-21
6.66817e-21
7.8162e-21
9.11917e-21
1.0568e-20
1.21485e-20
1.38418e-20
1.56239e-20
1.74674e-20
1.93416e-20
2.12145e-20
2.30534e-20
2.48266e-20
2.65047e-20
2.80613e-20
2.94744e-20
3.07259e-20
3.18031e-20
3.26975e-20
3.34054e-20
3.39274e-20
3.42673e-20
3.44324e-20
1.2698e-20
1.40863e-20
1.61421e-20
1.88582e-20
2.22401e-20
2.62928e-20
3.10118e-20
3.63777e-20
4.23509e-20
4.88707e-20
5.58546e-20
6.32003e-20
7.07898e-20
7.84933e-20
8.61756e-20
9.37012e-20
1.00941e-19
1.07774e-19
1.14098e-19
1.19824e-19
1.24884e-19
1.29229e-19
1.3283e-19
1.35674e-19
1.37767e-19
1.39128e-19
1.39788e-19
4.91686e-20
5.47479e-20
6.30271e-20
7.39908e-20
8.76712e-20
1.04093e-19
1.23239e-19
1.45021e-19
1.69273e-19
1.95734e-19
2.24059e-19
2.53823e-19
2.84538e-19
3.15673e-19
3.4668e-19
3.77013e-19
4.06154e-19
4.33627e-19
4.5902e-19
4.81987e-19
5.02263e-19
5.19658e-19
5.34061e-19
5.45431e-19
5.53793e-19
5.59228e-19
5.61863e-19
1.9222e-19
2.14483e-19
2.47567e-19
2.91439e-19
3.46252e-19
4.12124e-19
4.88988e-19
5.76498e-19
6.7396e-19
7.80315e-19
8.94145e-19
1.01372e-18
1.13705e-18
1.262e-18
1.38634e-18
1.5079e-18
1.62458e-18
1.7345e-18
1.83601e-18
1.92775e-18
2.00868e-18
2.07805e-18
2.13544e-18
2.18072e-18
2.21399e-18
2.23561e-18
2.24608e-18
7.56074e-19
8.44867e-19
9.76901e-19
1.15211e-18
1.37115e-18
1.63449e-18
1.94187e-18
2.29184e-18
2.68156e-18
3.10672e-18
3.56158e-18
4.03914e-18
4.53144e-18
5.02989e-18
5.52564e-18
6.00998e-18
6.47465e-18
6.91217e-18
7.31602e-18
7.68086e-18
8.00256e-18
8.27826e-18
8.5063e-18
8.68616e-18
8.81833e-18
8.90416e-18
8.94575e-18
2.97916e-18
3.33177e-18
3.85642e-18
4.55301e-18
5.42433e-18
6.47238e-18
7.69607e-18
9.08961e-18
1.06416e-17
1.23346e-17
1.41457e-17
1.60468e-17
1.8006e-17
1.9989e-17
2.19606e-17
2.3886e-17
2.57325e-17
2.74702e-17
2.90735e-17
3.05213e-17
3.17973e-17
3.28904e-17
3.37941e-17
3.45065e-17
3.50299e-17
3.53696e-17
3.55342e-17
1.17577e-17
1.31579e-17
1.52414e-17
1.80082e-17
2.14695e-17
2.56329e-17
3.0494e-17
3.60289e-17
4.21917e-17
4.89125e-17
5.60991e-17
6.36396e-17
7.14072e-17
7.92655e-17
8.70747e-17
9.46975e-17
1.02004e-16
1.08878e-16
1.15218e-16
1.20941e-16
1.25983e-16
1.30301e-16
1.3387e-16
1.36683e-16
1.38749e-16
1.4009e-16
1.40739e-16
4.63541e-17
5.18963e-17
6.0145e-17
7.11001e-17
8.48055e-17
1.01291e-16
1.20537e-16
1.42447e-16
1.66836e-16
1.93425e-16
2.21848e-16
2.51657e-16
2.8235e-16
3.13388e-16
3.44216e-16
3.74292e-16
4.03107e-16
4.302e-16
4.55174e-16
4.77705e-16
4.97547e-16
5.14531e-16
5.28562e-16
5.39617e-16
5.47732e-16
5.52998e-16
5.55547e-16
1.82529e-16
2.0444e-16
2.37046e-16
2.80341e-16
3.3449e-16
3.99598e-16
4.75569e-16
5.62008e-16
6.58166e-16
7.62927e-16
8.74825e-16
9.92095e-16
1.11275e-15
1.23465e-15
1.35565e-15
1.4736e-15
1.58652e-15
1.69262e-15
1.79035e-15
1.87847e-15
1.95603e-15
2.02238e-15
2.07717e-15
2.12032e-15
2.15198e-15
2.17251e-15
2.18245e-15
7.15784e-16
8.01971e-16
9.3021e-16
1.10045e-15
1.31329e-15
1.5691e-15
1.86743e-15
2.20663e-15
2.58368e-15
2.9941e-15
3.43206e-15
3.89059e-15
4.36185e-15
4.8375e-15
5.30905e-15
5.76827e-15
6.20742e-15
6.6196e-15
6.99891e-15
7.34058e-15
7.641e-15
7.89779e-15
8.10966e-15
8.27639e-15
8.39865e-15
8.47789e-15
8.51622e-15
2.79339e-15
3.13079e-15
3.63261e-15
4.29843e-15
5.1303e-15
6.12924e-15
7.29298e-15
8.61462e-15
1.00818e-14
1.16765e-14
1.33757e-14
1.51518e-14
1.69743e-14
1.88108e-14
2.06285e-14
2.23959e-14
2.40834e-14
2.5665e-14
2.71184e-14
2.84259e-14
2.95741e-14
3.05545e-14
3.13625e-14
3.19978e-14
3.24632e-14
3.27647e-14
3.29104e-14
1.08175e-14
1.21268e-14
1.40729e-14
1.66528e-14
1.98728e-14
2.37346e-14
2.82269e-14
3.33204e-14
3.89645e-14
4.50876e-14
5.15985e-14
5.83902e-14
6.53442e-14
7.23366e-14
7.92429e-14
8.59435e-14
9.23285e-14
9.83006e-14
1.03778e-13
1.08697e-13
1.13009e-13
1.16684e-13
1.19709e-13
1.22084e-13
1.23822e-13
1.24946e-13
1.25489e-13
4.14803e-14
4.65041e-14
5.39642e-14
6.38414e-14
7.61491e-14
9.08818e-14
1.07983e-13
1.27327e-13
1.48706e-13
1.71836e-13
1.96362e-13
2.21869e-13
2.4791e-13
2.74017e-13
2.99727e-13
3.24601e-13
3.48238e-13
3.70288e-13
3.90461e-13
4.08533e-13
4.24341e-13
4.37789e-13
4.48836e-13
4.57493e-13
4.63818e-13
4.67904e-13
4.69875e-13
1.57044e-13
1.76024e-13
2.04169e-13
2.41362e-13
2.87601e-13
3.42802e-13
4.06683e-13
4.787e-13
5.58014e-13
6.43503e-13
7.33802e-13
8.27354e-13
9.22489e-13
1.0175e-12
1.11072e-12
1.20057e-12
1.28566e-12
1.36478e-12
1.43693e-12
1.50138e-12
1.5576e-12
1.60531e-12
1.64441e-12
1.67499e-12
1.69729e-12
1.71167e-12
1.71859e-12
5.85221e-13
6.5549e-13
7.59474e-13
8.96522e-13
1.06635e-12
1.26833e-12
1.50111e-12
1.76236e-12
2.04873e-12
2.3559e-12
2.67874e-12
3.01157e-12
3.34837e-12
3.68313e-12
4.01006e-12
4.3238e-12
4.61966e-12
4.89366e-12
5.14263e-12
5.36424e-12
5.55697e-12
5.72002e-12
5.85331e-12
5.9573e-12
6.03296e-12
6.08168e-12
6.10509e-12
2.13851e-12
2.39184e-12
2.76568e-12
3.25662e-12
3.86235e-12
4.57924e-12
5.401e-12
6.31803e-12
7.31729e-12
8.38269e-12
9.49571e-12
1.06363e-11
1.17839e-11
1.2918e-11
1.40198e-11
1.50717e-11
1.60589e-11
1.69691e-11
1.77928e-11
1.85231e-11
1.9156e-11
1.96899e-11
2.01249e-11
2.04635e-11
2.07093e-11
2.08672e-11
2.0943e-11
7.63264e-12
8.51588e-12
9.8146e-12
1.15121e-11
1.35949e-11
1.60448e-11
1.88343e-11
2.19257e-11
2.52705e-11
2.88115e-11
3.24849e-11
3.62239e-11
3.99611e-11
4.36318e-11
4.71766e-11
5.05426e-11
5.36855e-11
5.65695e-11
5.9168e-11
6.14631e-11
6.34449e-11
6.51108e-11
6.64647e-11
6.75156e-11
6.82768e-11
6.87648e-11
6.89985e-11
2.64845e-11
2.94385e-11
3.37627e-11
3.93821e-11
4.62307e-11
5.42266e-11
6.32606e-11
7.31923e-11
8.38524e-11
9.50491e-11
1.06576e-10
1.18224e-10
1.29786e-10
1.41068e-10
1.51898e-10
1.62125e-10
1.71624e-10
1.803e-10
1.88084e-10
1.94932e-10
2.00824e-10
2.05763e-10
2.09764e-10
2.12863e-10
2.15102e-10
2.16535e-10
2.1722e-10
8.8918e-11
9.83174e-11
1.12003e-10
1.29667e-10
1.51027e-10
1.75756e-10
2.03451e-10
2.33632e-10
2.65747e-10
2.99197e-10
3.33362e-10
3.67623e-10
4.01395e-10
4.34138e-10
4.65379e-10
4.94718e-10
5.21836e-10
5.46493e-10
5.68524e-10
5.87837e-10
6.044e-10
6.1824e-10
6.29427e-10
6.38069e-10
6.44302e-10
6.48283e-10
6.50184e-10
2.87558e-10
3.158e-10
3.5667e-10
4.09016e-10
4.71764e-10
5.43734e-10
6.23573e-10
7.09753e-10
8.00612e-10
8.94412e-10
9.89412e-10
1.08393e-09
1.17642e-09
1.26547e-09
1.3499e-09
1.42874e-09
1.50122e-09
1.56681e-09
1.62517e-09
1.67612e-09
1.71968e-09
1.75596e-09
1.78521e-09
1.80776e-09
1.82399e-09
1.83433e-09
1.83927e-09
8.9329e-10
9.73122e-10
1.08789e-09
1.23366e-09
1.40675e-09
1.60329e-09
1.81907e-09
2.04959e-09
2.29016e-09
2.53606e-09
2.78275e-09
3.02596e-09
3.26188e-09
3.48722e-09
3.69923e-09
3.89577e-09
4.07527e-09
4.23667e-09
4.37943e-09
4.50341e-09
4.60886e-09
4.69631e-09
4.76652e-09
4.82043e-09
4.85911e-09
4.8837e-09
4.8954e-09
2.66309e-09
2.8759e-09
3.1798e-09
3.56252e-09
4.01259e-09
4.51838e-09
5.06784e-09
5.64859e-09
6.24831e-09
6.85506e-09
7.45768e-09
8.04616e-09
8.6118e-09
9.14742e-09
9.64734e-09
1.01074e-08
1.05248e-08
1.0898e-08
1.12265e-08
1.15107e-08
1.17516e-08
1.19508e-08
1.21104e-08
1.22328e-08
1.23206e-08
1.23763e-08
1.24028e-08
7.60741e-09
8.14593e-09
8.91044e-09
9.86628e-09
1.09813e-08
1.22239e-08
1.35623e-08
1.49655e-08
1.64037e-08
1.78489e-08
1.92765e-08
2.06646e-08
2.19951e-08
2.32533e-08
2.44275e-08
2.55089e-08
2.64914e-08
2.73714e-08
2.81474e-08
2.88199e-08
2.93908e-08
2.98637e-08
3.0243e-08
3.0534e-08
3.07428e-08
3.08754e-08
3.09385e-08
2.07102e-08
2.20157e-08
2.38626e-08
2.61624e-08
2.88347e-08
3.18025e-08
3.49918e-08
3.83317e-08
4.17554e-08
4.52009e-08
4.86114e-08
5.19361e-08
5.51303e-08
5.81569e-08
6.09855e-08
6.35932e-08
6.59638e-08
6.80875e-08
6.996e-08
7.15823e-08
7.29592e-08
7.40991e-08
7.50131e-08
7.5714e-08
7.62164e-08
7.65356e-08
7.66872e-08
5.34112e-08
5.65002e-08
6.08732e-08
6.6326e-08
7.26751e-08
7.97452e-08
8.73655e-08
9.53695e-08
1.03596e-07
1.11894e-07
1.20122e-07
1.28153e-07
1.35878e-07
1.43203e-07
1.50053e-07
1.56372e-07
1.62118e-07
1.67267e-07
1.71808e-07
1.75743e-07
1.79082e-07
1.81847e-07
1.84063e-07
1.85762e-07
1.86979e-07
1.87752e-07
1.88119e-07
1.3054e-07
1.37707e-07
1.4787e-07
1.60568e-07
1.75388e-07
1.91936e-07
2.09824e-07
2.28673e-07
2.48114e-07
2.67796e-07
2.87389e-07
3.06595e-07
3.25149e-07
3.42821e-07
3.59423e-07
3.74806e-07
3.88859e-07
4.01506e-07
4.12707e-07
4.22451e-07
4.30751e-07
4.37646e-07
4.43189e-07
4.47451e-07
4.50512e-07
4.52459e-07
4.53385e-07
2.99223e-07
3.14886e-07
3.3713e-07
3.64984e-07
3.97591e-07
4.34136e-07
4.73824e-07
5.15871e-07
5.59512e-07
6.04006e-07
6.48648e-07
6.9278e-07
7.358e-07
7.77173e-07
8.16433e-07
8.53188e-07
8.87121e-07
9.17991e-07
9.45625e-07
9.6992e-07
9.90835e-07
1.00838e-06
1.02263e-06
1.03369e-06
1.04171e-06
1.04684e-06
1.04931e-06
6.3117e-07
6.62267e-07
7.06472e-07
7.61912e-07
8.26957e-07
9.00074e-07
9.79781e-07
1.06462e-06
1.15317e-06
1.24403e-06
1.33585e-06
1.42735e-06
1.51732e-06
1.60466e-06
1.68835e-06
1.76752e-06
1.84138e-06
1.90931e-06
1.9708e-06
2.02546e-06
2.07302e-06
2.11334e-06
2.1464e-06
2.17229e-06
2.19121e-06
2.20345e-06
2.20936e-06
1.21137e-06
1.26622e-06
1.34412e-06
1.44176e-06
1.55624e-06
1.68489e-06
1.82513e-06
1.97447e-06
2.13047e-06
2.29074e-06
2.45297e-06
2.61496e-06
2.77461e-06
2.92998e-06
3.07928e-06
3.22088e-06
3.35336e-06
3.47547e-06
3.58624e-06
3.68488e-06
3.77085e-06
3.84385e-06
3.90377e-06
3.95078e-06
3.98518e-06
4.00745e-06
4.01821e-06
2.1155e-06
2.2011e-06
2.32238e-06
2.47391e-06
2.65091e-06
2.84903e-06
3.06408e-06
3.29207e-06
3.52915e-06
3.7716e-06
4.01586e-06
4.25854e-06
4.49648e-06
4.72678e-06
4.94681e-06
5.15428e-06
5.34723e-06
5.52402e-06
5.68339e-06
5.82446e-06
5.94668e-06
6.04984e-06
6.13408e-06
6.19981e-06
6.24766e-06
6.27849e-06
6.29333e-06
3.39181e-06
3.51138e-06
3.68015e-06
3.88993e-06
4.13352e-06
4.40429e-06
4.69603e-06
5.00285e-06
5.31914e-06
5.63966e-06
5.9595e-06
6.27416e-06
6.57957e-06
6.87213e-06
7.14874e-06
7.40683e-06
7.64434e-06
7.85972e-06
8.05195e-06
8.22043e-06
8.36504e-06
8.48601e-06
8.58396e-06
8.65978e-06
8.71457e-06
8.74965e-06
8.76642e-06
5.05819e-06
5.21018e-06
5.42368e-06
5.68741e-06
5.99135e-06
6.32632e-06
6.6838e-06
7.05593e-06
7.43542e-06
7.81568e-06
8.19075e-06
8.5554e-06
8.90514e-06
9.2362e-06
9.54554e-06
9.83084e-06
1.00904e-05
1.03233e-05
1.0529e-05
1.07075e-05
1.08593e-05
1.09851e-05
1.10862e-05
1.11638e-05
1.12195e-05
1.1255e-05
1.12718e-05
7.10444e-06
7.28256e-06
7.53152e-06
7.83697e-06
8.18619e-06
8.56758e-06
8.9706e-06
9.38572e-06
9.80445e-06
1.02193e-05
1.06239e-05
1.10128e-05
1.13816e-05
1.17269e-05
1.20461e-05
1.23375e-05
1.26e-05
1.28333e-05
1.30376e-05
1.32134e-05
1.33618e-05
1.3484e-05
1.35815e-05
1.36559e-05
1.37091e-05
1.37427e-05
1.37587e-05
9.48766e-06
9.68228e-06
9.95297e-06
1.0283e-05
1.06575e-05
1.1063e-05
1.14877e-05
1.1921e-05
1.23539e-05
1.27786e-05
1.31888e-05
1.35793e-05
1.39463e-05
1.42868e-05
1.45989e-05
1.48815e-05
1.51342e-05
1.53573e-05
1.55513e-05
1.57173e-05
1.58567e-05
1.59709e-05
1.60616e-05
1.61307e-05
1.61798e-05
1.62108e-05
1.62255e-05
1.21325e-05
1.23329e-05
1.26103e-05
1.29468e-05
1.33262e-05
1.37343e-05
1.41584e-05
1.45879e-05
1.50136e-05
1.54281e-05
1.58255e-05
1.62011e-05
1.65516e-05
1.68747e-05
1.71691e-05
1.74342e-05
1.767e-05
1.78772e-05
1.80567e-05
1.82096e-05
1.83376e-05
1.84422e-05
1.85251e-05
1.85881e-05
1.86328e-05
1.8661e-05
1.86743e-05
1.49425e-05
1.51389e-05
1.54101e-05
1.57375e-05
1.6105e-05
1.64981e-05
1.69045e-05
1.73137e-05
1.77171e-05
1.81077e-05
1.84802e-05
1.88305e-05
1.91559e-05
1.94546e-05
1.97257e-05
1.9969e-05
2.01847e-05
2.03737e-05
2.0537e-05
2.06759e-05
2.07919e-05
2.08866e-05
2.09616e-05
2.10185e-05
2.10588e-05
2.10843e-05
2.10963e-05
1.7818e-05
1.80034e-05
1.82588e-05
1.85663e-05
1.89103e-05
1.92769e-05
1.96545e-05
2.00332e-05
2.04052e-05
2.07641e-05
2.11052e-05
2.14251e-05
2.17214e-05
2.19928e-05
2.22385e-05
2.24585e-05
2.26534e-05
2.28238e-05
2.29709e-05
2.3096e-05
2.32004e-05
2.32855e-05
2.33529e-05
2.34041e-05
2.34404e-05
2.34633e-05
2.34741e-05
2.0672e-05
2.08423e-05
2.10764e-05
2.13578e-05
2.16719e-05
2.20059e-05
2.23491e-05
2.26926e-05
2.30292e-05
2.33534e-05
2.3661e-05
2.3949e-05
2.42154e-05
2.44591e-05
2.46796e-05
2.48769e-05
2.50515e-05
2.52042e-05
2.5336e-05
2.5448e-05
2.55415e-05
2.56178e-05
2.56782e-05
2.57241e-05
2.57567e-05
2.57773e-05
2.5787e-05
2.34385e-05
2.35918e-05
2.38025e-05
2.40554e-05
2.43374e-05
2.46369e-05
2.49444e-05
2.52518e-05
2.55528e-05
2.58425e-05
2.61172e-05
2.63742e-05
2.66119e-05
2.68293e-05
2.70259e-05
2.7202e-05
2.73578e-05
2.74941e-05
2.76119e-05
2.7712e-05
2.77956e-05
2.78639e-05
2.7918e-05
2.79591e-05
2.79884e-05
2.80068e-05
2.80156e-05
2.6073e-05
2.62093e-05
2.63966e-05
2.66215e-05
2.6872e-05
2.71381e-05
2.74112e-05
2.76842e-05
2.79515e-05
2.82087e-05
2.84526e-05
2.8681e-05
2.88923e-05
2.90856e-05
2.92606e-05
2.94173e-05
2.95562e-05
2.96777e-05
2.97828e-05
2.98723e-05
2.9947e-05
3.00082e-05
3.00567e-05
3.00935e-05
3.01198e-05
3.01364e-05
3.01442e-05
2.85498e-05
2.86702e-05
2.88357e-05
2.90344e-05
2.92558e-05
2.9491e-05
2.97325e-05
2.9974e-05
3.02106e-05
3.04385e-05
3.06547e-05
3.08573e-05
3.10449e-05
3.12167e-05
3.13723e-05
3.15119e-05
3.16357e-05
3.17442e-05
3.1838e-05
3.1918e-05
3.19849e-05
3.20397e-05
3.20832e-05
3.21163e-05
3.21399e-05
3.21548e-05
3.21619e-05
3.08577e-05
3.09638e-05
3.11096e-05
3.12848e-05
3.14801e-05
3.16878e-05
3.19011e-05
3.21146e-05
3.2324e-05
3.25258e-05
3.27176e-05
3.28974e-05
3.30641e-05
3.32169e-05
3.33556e-05
3.348e-05
3.35905e-05
3.36874e-05
3.37714e-05
3.3843e-05
3.3903e-05
3.39522e-05
3.39913e-05
3.40211e-05
3.40423e-05
3.40557e-05
3.40621e-05
3.29952e-05
3.30887e-05
3.32173e-05
3.33718e-05
3.35442e-05
3.37277e-05
3.39164e-05
3.41054e-05
3.4291e-05
3.44701e-05
3.46404e-05
3.48003e-05
3.49488e-05
3.5085e-05
3.52088e-05
3.532e-05
3.54189e-05
3.55057e-05
3.5581e-05
3.56453e-05
3.56992e-05
3.57434e-05
3.57786e-05
3.58054e-05
3.58245e-05
3.58367e-05
3.58424e-05
3.49672e-05
3.50498e-05
3.51634e-05
3.53e-05
3.54526e-05
3.56151e-05
3.57824e-05
3.59502e-05
3.61151e-05
3.62744e-05
3.64261e-05
3.65688e-05
3.67013e-05
3.68231e-05
3.69339e-05
3.70335e-05
3.71222e-05
3.72002e-05
3.72678e-05
3.73257e-05
3.73742e-05
3.74141e-05
3.74458e-05
3.747e-05
3.74873e-05
3.74983e-05
3.75035e-05
3.67822e-05
3.68554e-05
3.6956e-05
3.70772e-05
3.72127e-05
3.73571e-05
3.75059e-05
3.76553e-05
3.78023e-05
3.79445e-05
3.80801e-05
3.82077e-05
3.83264e-05
3.84356e-05
3.8535e-05
3.86245e-05
3.87042e-05
3.87744e-05
3.88354e-05
3.88875e-05
3.89313e-05
3.89673e-05
3.8996e-05
3.90179e-05
3.90336e-05
3.90435e-05
3.90482e-05
3.84504e-05
3.85154e-05
3.8605e-05
3.87128e-05
3.88335e-05
3.89623e-05
3.90951e-05
3.92286e-05
3.93601e-05
3.94874e-05
3.96089e-05
3.97234e-05
3.983e-05
3.99282e-05
4.00176e-05
4.00983e-05
4.01701e-05
4.02334e-05
4.02885e-05
4.03356e-05
4.03752e-05
4.04078e-05
4.04338e-05
4.04536e-05
4.04678e-05
4.04768e-05
4.04811e-05
3.99826e-05
4.00406e-05
4.01206e-05
4.02169e-05
4.03248e-05
4.044e-05
4.05589e-05
4.06786e-05
4.07966e-05
4.09109e-05
4.10201e-05
4.11231e-05
4.12191e-05
4.13076e-05
4.13883e-05
4.14611e-05
4.1526e-05
4.15832e-05
4.1633e-05
4.16757e-05
4.17115e-05
4.1741e-05
4.17646e-05
4.17826e-05
4.17955e-05
4.18037e-05
4.18075e-05
4.13894e-05
4.14414e-05
4.1513e-05
4.15994e-05
4.16961e-05
4.17995e-05
4.19064e-05
4.20139e-05
4.21201e-05
4.2223e-05
4.23214e-05
4.24143e-05
4.25009e-05
4.25808e-05
4.26537e-05
4.27196e-05
4.27783e-05
4.28301e-05
4.28752e-05
4.29139e-05
4.29464e-05
4.29732e-05
4.29946e-05
4.30109e-05
4.30226e-05
4.303e-05
4.30336e-05
4.26811e-05
4.27278e-05
4.27921e-05
4.28698e-05
4.29568e-05
4.30498e-05
4.3146e-05
4.32429e-05
4.33386e-05
4.34315e-05
4.35204e-05
4.36043e-05
4.36826e-05
4.37548e-05
4.38208e-05
4.38804e-05
4.39337e-05
4.39806e-05
4.40215e-05
4.40566e-05
4.40861e-05
4.41105e-05
4.41299e-05
4.41447e-05
4.41554e-05
4.41621e-05
4.41653e-05
4.38671e-05
4.39091e-05
4.39671e-05
4.4037e-05
4.41154e-05
4.41993e-05
4.42861e-05
4.43735e-05
4.446e-05
4.45439e-05
4.46242e-05
4.47001e-05
4.4771e-05
4.48364e-05
4.48962e-05
4.49502e-05
4.49985e-05
4.50411e-05
4.50782e-05
4.51101e-05
4.51369e-05
4.5159e-05
4.51766e-05
4.51901e-05
4.51998e-05
4.52059e-05
4.52089e-05
4.4956e-05
4.49939e-05
4.50461e-05
4.51092e-05
4.518e-05
4.52557e-05
4.53341e-05
4.54132e-05
4.54913e-05
4.55672e-05
4.56399e-05
4.57086e-05
4.57728e-05
4.58321e-05
4.58863e-05
4.59353e-05
4.5979e-05
4.60177e-05
4.60514e-05
4.60803e-05
4.61046e-05
4.61247e-05
4.61407e-05
4.6153e-05
4.61618e-05
4.61674e-05
4.61701e-05
4.59556e-05
4.59898e-05
4.6037e-05
4.60939e-05
4.61578e-05
4.62263e-05
4.62971e-05
4.63686e-05
4.64393e-05
4.6508e-05
4.65738e-05
4.6636e-05
4.66941e-05
4.67478e-05
4.67969e-05
4.68413e-05
4.6881e-05
4.69161e-05
4.69467e-05
4.69729e-05
4.6995e-05
4.70132e-05
4.70278e-05
4.70389e-05
4.70469e-05
4.7052e-05
4.70544e-05
4.6873e-05
4.69038e-05
4.69464e-05
4.69979e-05
4.70556e-05
4.71175e-05
4.71815e-05
4.72461e-05
4.731e-05
4.73721e-05
4.74317e-05
4.7488e-05
4.75406e-05
4.75893e-05
4.76337e-05
4.76739e-05
4.77099e-05
4.77417e-05
4.77694e-05
4.77932e-05
4.78133e-05
4.78298e-05
4.7843e-05
4.78531e-05
4.78604e-05
4.7865e-05
4.78672e-05
4.77145e-05
4.77423e-05
4.77807e-05
4.78272e-05
4.78793e-05
4.79351e-05
4.7993e-05
4.80513e-05
4.81091e-05
4.81652e-05
4.8219e-05
4.82699e-05
4.83175e-05
4.83615e-05
4.84017e-05
4.84381e-05
4.84707e-05
4.84994e-05
4.85245e-05
4.85461e-05
4.85642e-05
4.85792e-05
4.85911e-05
4.86003e-05
4.86069e-05
4.86111e-05
4.86131e-05
4.84857e-05
4.85108e-05
4.85454e-05
4.85873e-05
4.86343e-05
4.86846e-05
4.87368e-05
4.87894e-05
4.88415e-05
4.88921e-05
4.89407e-05
4.89866e-05
4.90296e-05
4.90693e-05
4.91056e-05
4.91384e-05
4.91678e-05
4.91938e-05
4.92165e-05
4.92359e-05
4.92523e-05
4.92659e-05
4.92767e-05
4.9285e-05
4.92909e-05
4.92947e-05
4.92965e-05
4.91917e-05
4.92143e-05
4.92454e-05
4.92831e-05
4.93254e-05
4.93707e-05
4.94176e-05
4.94649e-05
4.95118e-05
4.95574e-05
4.96011e-05
4.96424e-05
4.96811e-05
4.97168e-05
4.97495e-05
4.97791e-05
4.98056e-05
4.9829e-05
4.98494e-05
4.98669e-05
4.98817e-05
4.98939e-05
4.99036e-05
4.99111e-05
4.99164e-05
4.99199e-05
4.99215e-05
4.9837e-05
4.98573e-05
4.98852e-05
4.9919e-05
4.99569e-05
4.99975e-05
5.00396e-05
5.00821e-05
5.01241e-05
5.0165e-05
5.02042e-05
5.02413e-05
5.02759e-05
5.0308e-05
5.03373e-05
5.03639e-05
5.03876e-05
5.04086e-05
5.04269e-05
5.04427e-05
5.04559e-05
5.04669e-05
5.04756e-05
5.04823e-05
5.04871e-05
5.04902e-05
5.04917e-05
5.04258e-05
5.04438e-05
5.04688e-05
5.04989e-05
5.05328e-05
5.05691e-05
5.06066e-05
5.06446e-05
5.06821e-05
5.07186e-05
5.07536e-05
5.07867e-05
5.08177e-05
5.08463e-05
5.08725e-05
5.08962e-05
5.09174e-05
5.09361e-05
5.09525e-05
5.09665e-05
5.09784e-05
5.09881e-05
5.0996e-05
5.1002e-05
5.10063e-05
5.1009e-05
5.10103e-05
5.09614e-05
5.09775e-05
5.09996e-05
5.10264e-05
5.10565e-05
5.10887e-05
5.11221e-05
5.11557e-05
5.11891e-05
5.12215e-05
5.12525e-05
5.12819e-05
5.13094e-05
5.13348e-05
5.1358e-05
5.1379e-05
5.13978e-05
5.14145e-05
5.1429e-05
5.14415e-05
5.1452e-05
5.14607e-05
5.14676e-05
5.14729e-05
5.14767e-05
5.14792e-05
5.14803e-05
5.14472e-05
5.14614e-05
5.14809e-05
5.15046e-05
5.15311e-05
5.15595e-05
5.15889e-05
5.16185e-05
5.16479e-05
5.16764e-05
5.17038e-05
5.17296e-05
5.17538e-05
5.17762e-05
5.17967e-05
5.18152e-05
5.18317e-05
5.18464e-05
5.18591e-05
5.18701e-05
5.18794e-05
5.1887e-05
5.18931e-05
5.18978e-05
5.19012e-05
5.19033e-05
5.19044e-05
5.1886e-05
5.18984e-05
5.19154e-05
5.19361e-05
5.19592e-05
5.1984e-05
5.20097e-05
5.20356e-05
5.20612e-05
5.20861e-05
5.21099e-05
5.21325e-05
5.21535e-05
5.2173e-05
5.21908e-05
5.2207e-05
5.22214e-05
5.22342e-05
5.22453e-05
5.22549e-05
5.22629e-05
5.22696e-05
5.22749e-05
5.2279e-05
5.22819e-05
5.22838e-05
5.22847e-05
5.22802e-05
5.22909e-05
5.23056e-05
5.23234e-05
5.23433e-05
5.23647e-05
5.23868e-05
5.24091e-05
5.24312e-05
5.24526e-05
5.24731e-05
5.24925e-05
5.25106e-05
5.25274e-05
5.25427e-05
5.25565e-05
5.25689e-05
5.25799e-05
5.25895e-05
5.25977e-05
5.26046e-05
5.26103e-05
5.26149e-05
5.26184e-05
5.2621e-05
5.26226e-05
5.26233e-05
5.26319e-05
5.2641e-05
5.26535e-05
5.26686e-05
5.26855e-05
5.27036e-05
5.27223e-05
5.27412e-05
5.27598e-05
5.27779e-05
5.27953e-05
5.28116e-05
5.28269e-05
5.28411e-05
5.2854e-05
5.28657e-05
5.28761e-05
5.28854e-05
5.28934e-05
5.29003e-05
5.29062e-05
5.2911e-05
5.29149e-05
5.29179e-05
5.292e-05
5.29213e-05
5.2922e-05
5.29431e-05
5.29506e-05
5.2961e-05
5.29735e-05
5.29875e-05
5.30024e-05
5.30179e-05
5.30335e-05
5.30488e-05
5.30637e-05
5.3078e-05
5.30915e-05
5.3104e-05
5.31157e-05
5.31263e-05
5.31359e-05
5.31444e-05
5.3152e-05
5.31586e-05
5.31643e-05
5.31691e-05
5.31731e-05
5.31762e-05
5.31787e-05
5.31804e-05
5.31815e-05
5.31821e-05
5.32152e-05
5.32212e-05
5.32295e-05
5.32395e-05
5.32507e-05
5.32626e-05
5.32749e-05
5.32873e-05
5.32995e-05
5.33113e-05
5.33226e-05
5.33333e-05
5.33432e-05
5.33524e-05
5.33608e-05
5.33683e-05
5.33751e-05
5.3381e-05
5.33863e-05
5.33907e-05
5.33945e-05
5.33976e-05
5.34001e-05
5.34021e-05
5.34034e-05
5.34043e-05
5.34047e-05
5.34495e-05
5.34541e-05
5.34604e-05
5.34679e-05
5.34764e-05
5.34853e-05
5.34946e-05
5.35039e-05
5.3513e-05
5.35218e-05
5.35302e-05
5.35381e-05
5.35455e-05
5.35523e-05
5.35585e-05
5.3564e-05
5.3569e-05
5.35734e-05
5.35773e-05
5.35805e-05
5.35833e-05
5.35856e-05
5.35875e-05
5.35889e-05
5.35899e-05
5.35906e-05
5.35909e-05
5.3647e-05
5.36502e-05
5.36545e-05
5.36596e-05
5.36654e-05
5.36715e-05
5.36777e-05
5.3684e-05
5.36901e-05
5.36959e-05
5.37015e-05
5.37067e-05
5.37116e-05
5.3716e-05
5.37201e-05
5.37237e-05
5.37269e-05
5.37298e-05
5.37323e-05
5.37344e-05
5.37362e-05
5.37377e-05
5.37389e-05
5.37398e-05
5.37405e-05
5.37409e-05
5.37411e-05
5.38085e-05
5.38102e-05
5.38126e-05
5.38154e-05
5.38185e-05
5.38217e-05
5.3825e-05
5.38282e-05
5.38313e-05
5.38343e-05
5.38371e-05
5.38396e-05
5.3842e-05
5.38441e-05
5.3846e-05
5.38477e-05
5.38492e-05
5.38506e-05
5.38517e-05
5.38527e-05
5.38535e-05
5.38542e-05
5.38548e-05
5.38552e-05
5.38556e-05
5.38558e-05
5.38559e-05
5.39342e-05
5.39346e-05
5.3935e-05
5.39355e-05
5.3936e-05
5.39364e-05
5.39367e-05
5.3937e-05
5.39371e-05
5.39372e-05
5.39372e-05
5.39371e-05
5.3937e-05
5.39368e-05
5.39366e-05
5.39364e-05
5.39362e-05
5.3936e-05
5.39358e-05
5.39357e-05
5.39355e-05
5.39354e-05
5.39354e-05
5.39353e-05
5.39353e-05
5.39353e-05
5.39353e-05
5.40247e-05
5.40236e-05
5.40221e-05
5.40203e-05
5.40181e-05
5.40157e-05
5.40131e-05
5.40104e-05
5.40076e-05
5.40048e-05
5.4002e-05
5.39993e-05
5.39966e-05
5.39942e-05
5.39919e-05
5.39897e-05
5.39878e-05
5.39861e-05
5.39846e-05
5.39833e-05
5.39822e-05
5.39813e-05
5.39806e-05
5.39801e-05
5.39797e-05
5.39794e-05
5.39793e-05
5.40798e-05
5.40773e-05
5.40739e-05
5.40697e-05
5.4065e-05
5.40597e-05
5.40542e-05
5.40485e-05
5.40427e-05
5.4037e-05
5.40314e-05
5.40261e-05
5.4021e-05
5.40162e-05
5.40117e-05
5.40077e-05
5.40041e-05
5.40008e-05
5.3998e-05
5.39955e-05
5.39935e-05
5.39918e-05
5.39904e-05
5.39894e-05
5.39887e-05
5.39882e-05
5.3988e-05
5.40995e-05
5.40957e-05
5.40903e-05
5.40838e-05
5.40764e-05
5.40683e-05
5.40599e-05
5.40512e-05
5.40424e-05
5.40338e-05
5.40254e-05
5.40174e-05
5.40098e-05
5.40027e-05
5.39962e-05
5.39902e-05
5.39849e-05
5.39801e-05
5.39759e-05
5.39723e-05
5.39693e-05
5.39668e-05
5.39648e-05
5.39633e-05
5.39622e-05
5.39615e-05
5.39612e-05
5.40838e-05
5.40786e-05
5.40713e-05
5.40625e-05
5.40524e-05
5.40415e-05
5.40301e-05
5.40184e-05
5.40067e-05
5.39952e-05
5.3984e-05
5.39733e-05
5.39633e-05
5.39539e-05
5.39452e-05
5.39373e-05
5.39302e-05
5.3924e-05
5.39185e-05
5.39137e-05
5.39097e-05
5.39064e-05
5.39038e-05
5.39018e-05
5.39004e-05
5.38995e-05
5.3899e-05
5.40327e-05
5.40261e-05
5.40169e-05
5.40057e-05
5.3993e-05
5.39793e-05
5.3965e-05
5.39503e-05
5.39357e-05
5.39213e-05
5.39074e-05
5.38941e-05
5.38815e-05
5.38699e-05
5.38591e-05
5.38494e-05
5.38406e-05
5.38328e-05
5.3826e-05
5.38201e-05
5.38152e-05
5.38111e-05
5.38079e-05
5.38054e-05
5.38036e-05
5.38025e-05
5.38019e-05
5.39464e-05
5.39384e-05
5.39274e-05
5.39139e-05
5.38987e-05
5.38822e-05
5.3865e-05
5.38475e-05
5.383e-05
5.38128e-05
5.37962e-05
5.37803e-05
5.37654e-05
5.37515e-05
5.37388e-05
5.37272e-05
5.37168e-05
5.37075e-05
5.36994e-05
5.36925e-05
5.36866e-05
5.36818e-05
5.3678e-05
5.3675e-05
5.36729e-05
5.36716e-05
5.36709e-05
5.38258e-05
5.38165e-05
5.38036e-05
5.3788e-05
5.37703e-05
5.37512e-05
5.37313e-05
5.3711e-05
5.36908e-05
5.36709e-05
5.36518e-05
5.36336e-05
5.36164e-05
5.36004e-05
5.35858e-05
5.35724e-05
5.35605e-05
5.35499e-05
5.35406e-05
5.35327e-05
5.35259e-05
5.35204e-05
5.3516e-05
5.35126e-05
5.35102e-05
5.35087e-05
5.35079e-05
5.36723e-05
5.36618e-05
5.36473e-05
5.36297e-05
5.36097e-05
5.35882e-05
5.35658e-05
5.3543e-05
5.35203e-05
5.3498e-05
5.34766e-05
5.34562e-05
5.3437e-05
5.34192e-05
5.34028e-05
5.33879e-05
5.33746e-05
5.33628e-05
5.33525e-05
5.33436e-05
5.33361e-05
5.333e-05
5.3325e-05
5.33213e-05
5.33186e-05
5.33169e-05
5.33161e-05
5.34886e-05
5.34771e-05
5.34611e-05
5.34417e-05
5.34198e-05
5.33962e-05
5.33716e-05
5.33467e-05
5.33219e-05
5.32976e-05
5.32742e-05
5.32519e-05
5.32311e-05
5.32117e-05
5.31939e-05
5.31777e-05
5.31633e-05
5.31505e-05
5.31393e-05
5.31297e-05
5.31216e-05
5.31149e-05
5.31096e-05
5.31055e-05
5.31026e-05
5.31008e-05
5.30999e-05
5.32785e-05
5.32662e-05
5.3249e-05
5.32282e-05
5.32048e-05
5.31796e-05
5.31534e-05
5.31268e-05
5.31004e-05
5.30745e-05
5.30497e-05
5.30261e-05
5.3004e-05
5.29835e-05
5.29647e-05
5.29476e-05
5.29323e-05
5.29188e-05
5.2907e-05
5.28969e-05
5.28884e-05
5.28814e-05
5.28758e-05
5.28715e-05
5.28684e-05
5.28665e-05
5.28656e-05
5.30475e-05
5.30345e-05
5.30167e-05
5.2995e-05
5.29706e-05
5.29444e-05
5.29172e-05
5.28896e-05
5.28622e-05
5.28355e-05
5.28098e-05
5.27855e-05
5.27627e-05
5.27416e-05
5.27223e-05
5.27048e-05
5.26891e-05
5.26753e-05
5.26632e-05
5.26529e-05
5.26441e-05
5.2637e-05
5.26312e-05
5.26269e-05
5.26237e-05
5.26218e-05
5.26208e-05
5.28024e-05
5.27892e-05
5.27711e-05
5.27491e-05
5.27245e-05
5.2698e-05
5.26705e-05
5.26427e-05
5.26152e-05
5.25884e-05
5.25627e-05
5.25383e-05
5.25156e-05
5.24945e-05
5.24752e-05
5.24578e-05
5.24423e-05
5.24285e-05
5.24165e-05
5.24063e-05
5.23976e-05
5.23905e-05
5.23849e-05
5.23805e-05
5.23774e-05
5.23755e-05
5.23745e-05
5.25514e-05
5.25385e-05
5.25206e-05
5.24991e-05
5.24749e-05
5.24489e-05
5.24221e-05
5.2395e-05
5.23682e-05
5.23421e-05
5.23172e-05
5.22936e-05
5.22716e-05
5.22513e-05
5.22327e-05
5.22159e-05
5.2201e-05
5.21878e-05
5.21763e-05
5.21664e-05
5.21582e-05
5.21514e-05
5.21459e-05
5.21418e-05
5.21388e-05
5.2137e-05
5.21361e-05
5.23036e-05
5.22913e-05
5.22743e-05
5.22538e-05
5.22309e-05
5.22064e-05
5.2181e-05
5.21554e-05
5.21302e-05
5.21058e-05
5.20824e-05
5.20604e-05
5.20398e-05
5.20209e-05
5.20036e-05
5.19881e-05
5.19742e-05
5.1962e-05
5.19513e-05
5.19422e-05
5.19346e-05
5.19283e-05
5.19233e-05
5.19195e-05
5.19168e-05
5.19151e-05
5.19142e-05
5.20678e-05
5.20565e-05
5.2041e-05
5.20222e-05
5.20013e-05
5.19789e-05
5.19558e-05
5.19326e-05
5.19097e-05
5.18876e-05
5.18665e-05
5.18467e-05
5.18282e-05
5.18112e-05
5.17957e-05
5.17818e-05
5.17694e-05
5.17585e-05
5.1749e-05
5.17409e-05
5.17341e-05
5.17285e-05
5.17241e-05
5.17207e-05
5.17183e-05
5.17168e-05
5.1716e-05
5.1852e-05
5.1842e-05
5.18283e-05
5.18118e-05
5.17933e-05
5.17736e-05
5.17534e-05
5.17331e-05
5.17131e-05
5.16938e-05
5.16755e-05
5.16583e-05
5.16423e-05
5.16276e-05
5.16142e-05
5.16022e-05
5.15916e-05
5.15822e-05
5.15741e-05
5.15671e-05
5.15613e-05
5.15565e-05
5.15527e-05
5.15498e-05
5.15478e-05
5.15465e-05
5.15458e-05
5.16619e-05
5.16534e-05
5.16417e-05
5.16277e-05
5.1612e-05
5.15954e-05
5.15783e-05
5.15611e-05
5.15443e-05
5.15281e-05
5.15128e-05
5.14983e-05
5.1485e-05
5.14727e-05
5.14616e-05
5.14516e-05
5.14427e-05
5.14349e-05
5.14282e-05
5.14224e-05
5.14176e-05
5.14136e-05
5.14105e-05
5.14081e-05
5.14063e-05
5.14053e-05
5.14047e-05
5.15006e-05
5.14936e-05
5.1484e-05
5.14725e-05
5.14596e-05
5.1446e-05
5.1432e-05
5.1418e-05
5.14043e-05
5.13911e-05
5.13786e-05
5.13668e-05
5.1356e-05
5.1346e-05
5.13369e-05
5.13288e-05
5.13216e-05
5.13153e-05
5.13098e-05