/*--------------------------------*- C++ -*----------------------------------*\
| =========                 |                                                 |
| \\      /  F ield         | OpenFOAM: The Open Source CFD Toolbox           |
|  \\    /   O peration     | Version:  2106                                  |
|   \\  /    A nd           | Website:  www.openfoam.com                      |
|    \\/     M anipulation  |                                                 |
\*---------------------------------------------------------------------------*/
FoamFile
{
    version     2.0;
    format      ascii;
    arch        "LSB;label=32;scalar=64";
    class       volScalarField;
    location    "200.00032";
    object      C4H612_0;
}
// * * * * * * * * * * * * * * * * * * * * * * * * * * * * * * * * * * * * * //

dimensions      [0 0 0 0 0 0 0];

internalField   nonuniform List<scalar> 
3360
(
1.60093e-23
1.70108e-23
1.84211e-23
2.01736e-23
2.22101e-23
2.44764e-23
2.69203e-23
2.94911e-23
3.21397e-23
3.48194e-23
3.74865e-23
4.01006e-23
4.26258e-23
4.50311e-23
4.72901e-23
4.9382e-23
5.12907e-23
5.30054e-23
5.45197e-23
5.58318e-23
5.69436e-23
5.78605e-23
5.85912e-23
5.91467e-23
5.95401e-23
5.97862e-23
5.99009e-23
8.09507e-23
8.65522e-23
9.45594e-23
1.04708e-22
1.16796e-22
1.30653e-22
1.46127e-22
1.63068e-22
1.81327e-22
2.00746e-22
2.21156e-22
2.42374e-22
2.64196e-22
2.864e-22
3.08748e-22
3.30982e-22
3.52831e-22
3.74008e-22
3.94217e-22
4.13158e-22
4.30532e-22
4.46054e-22
4.59454e-22
4.70492e-22
4.78964e-22
4.84709e-22
4.87613e-22
3.09346e-22
3.34783e-22
3.71597e-22
4.19005e-22
4.7651e-22
5.43718e-22
6.20235e-22
7.05587e-22
7.99161e-22
9.00161e-22
1.00758e-21
1.12021e-21
1.2367e-21
1.3555e-21
1.47496e-21
1.59332e-21
1.70874e-21
1.81943e-21
1.92361e-21
2.01967e-21
2.10615e-21
2.18179e-21
2.24564e-21
2.29698e-21
2.33541e-21
2.3608e-21
2.3733e-21
1.11742e-21
1.22235e-21
1.37612e-21
1.57695e-21
1.82415e-21
2.11729e-21
2.45562e-21
2.83761e-21
3.26076e-21
3.72134e-21
4.21438e-21
4.73367e-21
5.27192e-21
5.82089e-21
6.37166e-21
6.91489e-21
7.44128e-21
7.94191e-21
8.40858e-21
8.83418e-21
9.21283e-21
9.54005e-21
9.81281e-21
1.00295e-20
1.01897e-20
1.02943e-20
1.03453e-20
4.15194e-21
4.58022e-21
5.2119e-21
6.04308e-21
7.07413e-21
8.30574e-21
9.7363e-21
1.136e-20
1.31655e-20
1.51352e-20
1.72455e-20
1.94666e-20
2.17642e-20
2.41002e-20
2.64346e-20
2.87266e-20
3.09368e-20
3.30285e-20
3.49689e-20
3.67302e-20
3.82904e-20
3.96331e-20
4.0748e-20
4.16305e-20
4.22811e-20
4.27049e-20
4.29107e-20
1.58305e-20
1.75621e-20
2.01265e-20
2.35146e-20
2.77335e-20
3.27893e-20
3.86768e-20
4.53713e-20
5.28241e-20
6.0959e-20
6.96733e-20
7.88394e-20
8.83099e-20
9.79231e-20
1.0751e-19
1.16901e-19
1.25936e-19
1.34465e-19
1.42357e-19
1.49503e-19
1.55818e-19
1.61241e-19
1.65735e-19
1.69285e-19
1.71897e-19
1.73596e-19
1.7442e-19
6.13742e-20
6.83419e-20
7.8682e-20
9.2375e-20
1.09462e-19
1.29974e-19
1.53889e-19
1.81099e-19
2.11394e-19
2.44451e-19
2.79838e-19
3.17024e-19
3.55398e-19
3.943e-19
4.33042e-19
4.70943e-19
5.07355e-19
5.41685e-19
5.73415e-19
6.02115e-19
6.27451e-19
6.49189e-19
6.67187e-19
6.81396e-19
6.91846e-19
6.98638e-19
7.0193e-19
2.4024e-19
2.68078e-19
3.09448e-19
3.6431e-19
4.32858e-19
5.15238e-19
6.1137e-19
7.20821e-19
8.42724e-19
9.75756e-19
1.11814e-18
1.26772e-18
1.422e-18
1.57831e-18
1.73387e-18
1.88594e-18
2.03193e-18
2.16945e-18
2.29645e-18
2.41124e-18
2.51248e-18
2.59928e-18
2.67109e-18
2.72775e-18
2.76938e-18
2.79642e-18
2.80953e-18
9.46168e-19
1.05734e-18
1.22265e-18
1.44202e-18
1.71629e-18
2.04605e-18
2.43097e-18
2.86923e-18
3.35731e-18
3.88979e-18
4.45948e-18
5.05762e-18
5.67425e-18
6.29859e-18
6.91958e-18
7.52629e-18
8.10837e-18
8.65645e-18
9.16236e-18
9.61941e-18
1.00224e-17
1.03678e-17
1.06535e-17
1.08788e-17
1.10444e-17
1.1152e-17
1.12041e-17
3.73306e-18
4.17511e-18
4.83283e-18
5.70615e-18
6.79856e-18
8.11262e-18
9.64696e-18
1.13943e-17
1.33405e-17
1.54636e-17
1.77348e-17
2.01189e-17
2.2576e-17
2.50631e-17
2.75359e-17
2.99509e-17
3.22668e-17
3.44465e-17
3.64576e-17
3.82736e-17
3.98742e-17
4.12453e-17
4.23789e-17
4.32726e-17
4.3929e-17
4.43552e-17
4.45616e-17
1.4753e-17
1.65106e-17
1.9126e-17
2.25993e-17
2.69445e-17
3.21716e-17
3.82746e-17
4.5224e-17
5.2962e-17
6.1401e-17
7.04252e-17
7.98941e-17
8.96484e-17
9.95169e-17
1.09324e-16
1.18897e-16
1.28074e-16
1.36707e-16
1.44669e-16
1.51857e-16
1.5819e-16
1.63613e-16
1.68096e-16
1.71629e-16
1.74224e-16
1.75908e-16
1.76724e-16
5.82445e-17
6.5211e-17
7.55796e-17
8.93507e-17
1.0658e-16
1.27304e-16
1.515e-16
1.79046e-16
2.0971e-16
2.43142e-16
2.78879e-16
3.16361e-16
3.54956e-16
3.93985e-16
4.32751e-16
4.70573e-16
5.06809e-16
5.4088e-16
5.72288e-16
6.00624e-16
6.25578e-16
6.46937e-16
6.64584e-16
6.78488e-16
6.88694e-16
6.95316e-16
6.98522e-16
2.29694e-16
2.57276e-16
2.9832e-16
3.52822e-16
4.20988e-16
5.02953e-16
5.98597e-16
7.07423e-16
8.2849e-16
9.60392e-16
1.10128e-15
1.24894e-15
1.40086e-15
1.55437e-15
1.70672e-15
1.85525e-15
1.99745e-15
2.13106e-15
2.25414e-15
2.36511e-15
2.46278e-15
2.54634e-15
2.61534e-15
2.66968e-15
2.70955e-15
2.73541e-15
2.74793e-15
9.02234e-16
1.01089e-15
1.17257e-15
1.3872e-15
1.65555e-15
1.97808e-15
2.35422e-15
2.78191e-15
3.25733e-15
3.77483e-15
4.32708e-15
4.90528e-15
5.49953e-15
6.09932e-15
6.69397e-15
7.27306e-15
7.82686e-15
8.34666e-15
8.82501e-15
9.25588e-15
9.63476e-15
9.9586e-15
1.02258e-14
1.04361e-14
1.05903e-14
1.06902e-14
1.07385e-14
3.52773e-15
3.95384e-15
4.58758e-15
5.42845e-15
6.47903e-15
7.7406e-15
9.21033e-15
1.08795e-14
1.27324e-14
1.47465e-14
1.68925e-14
1.91357e-14
2.14374e-14
2.37568e-14
2.60526e-14
2.82848e-14
3.04161e-14
3.24137e-14
3.42494e-14
3.59007e-14
3.7351e-14
3.85892e-14
3.96098e-14
4.04122e-14
4.10001e-14
4.13808e-14
4.15649e-14
1.36927e-14
1.53495e-14
1.78122e-14
2.10769e-14
2.51515e-14
3.0038e-14
3.57223e-14
4.21671e-14
4.93085e-14
5.70558e-14
6.52936e-14
7.38865e-14
8.26848e-14
9.15314e-14
1.00269e-13
1.08746e-13
1.16824e-13
1.2438e-13
1.3131e-13
1.37532e-13
1.42988e-13
1.47638e-13
1.51465e-13
1.54469e-13
1.56668e-13
1.5809e-13
1.58777e-13
5.266e-14
5.90335e-14
6.84972e-14
8.10264e-14
9.66379e-14
1.15324e-13
1.37013e-13
1.61544e-13
1.88656e-13
2.17985e-13
2.49082e-13
2.81423e-13
3.14438e-13
3.47535e-13
3.80128e-13
4.1166e-13
4.41623e-13
4.69574e-13
4.95145e-13
5.18052e-13
5.3809e-13
5.55135e-13
5.69137e-13
5.8011e-13
5.88127e-13
5.93307e-13
5.95804e-13
2.00161e-13
2.2432e-13
2.6014e-13
3.07472e-13
3.66307e-13
4.36536e-13
5.17797e-13
6.09394e-13
7.10258e-13
8.18962e-13
9.33767e-13
1.05269e-12
1.17362e-12
1.29438e-12
1.41284e-12
1.52703e-12
1.63515e-12
1.73567e-12
1.82735e-12
1.90922e-12
1.98065e-12
2.04126e-12
2.09093e-12
2.12977e-12
2.1581e-12
2.17637e-12
2.18516e-12
7.50052e-13
8.39907e-13
9.72854e-13
1.14804e-12
1.36507e-12
1.62313e-12
1.92046e-12
2.25407e-12
2.61967e-12
3.01172e-12
3.42369e-12
3.84829e-12
4.27788e-12
4.70479e-12
5.12162e-12
5.52159e-12
5.89871e-12
6.24791e-12
6.56518e-12
6.84757e-12
7.09312e-12
7.30086e-12
7.47066e-12
7.60314e-12
7.69953e-12
7.76158e-12
7.79141e-12
2.7629e-12
3.08904e-12
3.5702e-12
4.20185e-12
4.98089e-12
5.9025e-12
6.95848e-12
8.13635e-12
9.41929e-12
1.07865e-11
1.22143e-11
1.3677e-11
1.51479e-11
1.66013e-11
1.80125e-11
1.93597e-11
2.06236e-11
2.17887e-11
2.28427e-11
2.37772e-11
2.4587e-11
2.52698e-11
2.58263e-11
2.62593e-11
2.65737e-11
2.67756e-11
2.68725e-11
9.97685e-12
1.11256e-11
1.2814e-11
1.50198e-11
1.77245e-11
2.09038e-11
2.45215e-11
2.85278e-11
3.28595e-11
3.74422e-11
4.21931e-11
4.70257e-11
5.18532e-11
5.65922e-11
6.11661e-11
6.55073e-11
6.9559e-11
7.32755e-11
7.6623e-11
7.95786e-11
8.21302e-11
8.42747e-11
8.60172e-11
8.73695e-11
8.83488e-11
8.89766e-11
8.92773e-11
3.52036e-11
3.91057e-11
4.48145e-11
5.2228e-11
6.12557e-11
7.17864e-11
8.36729e-11
9.67278e-11
1.10726e-10
1.25415e-10
1.40524e-10
1.55775e-10
1.70902e-10
1.85651e-10
1.99796e-10
2.13145e-10
2.25536e-10
2.36846e-10
2.46988e-10
2.55907e-10
2.63578e-10
2.70004e-10
2.75211e-10
2.79241e-10
2.82153e-10
2.84016e-10
2.84907e-10
1.20966e-10
1.33675e-10
1.52169e-10
1.7602e-10
2.04837e-10
2.38166e-10
2.75455e-10
3.16046e-10
3.59191e-10
4.04081e-10
4.49879e-10
4.95759e-10
5.40936e-10
5.84695e-10
6.26408e-10
6.65549e-10
7.01697e-10
7.3454e-10
7.63867e-10
7.89559e-10
8.11583e-10
8.29978e-10
8.4484e-10
8.56318e-10
8.64594e-10
8.69879e-10
8.72402e-10
4.032e-10
4.42689e-10
4.99822e-10
5.72971e-10
6.6062e-10
7.61106e-10
8.72527e-10
9.9274e-10
1.11942e-09
1.25014e-09
1.38248e-09
1.5141e-09
1.64284e-09
1.76678e-09
1.88427e-09
1.99395e-09
2.09479e-09
2.18602e-09
2.26718e-09
2.33805e-09
2.39862e-09
2.44908e-09
2.48975e-09
2.52109e-09
2.54365e-09
2.55804e-09
2.56489e-09
1.29843e-09
1.41516e-09
1.58308e-09
1.79654e-09
2.05028e-09
2.33876e-09
2.65594e-09
2.99534e-09
3.3502e-09
3.71368e-09
4.07912e-09
4.44029e-09
4.79152e-09
5.12785e-09
5.44516e-09
5.74011e-09
6.01021e-09
6.25376e-09
6.46974e-09
6.65781e-09
6.81816e-09
6.95144e-09
7.05867e-09
7.14116e-09
7.20045e-09
7.2382e-09
7.25618e-09
4.02491e-09
4.35312e-09
4.82284e-09
5.41615e-09
6.11644e-09
6.90678e-09
7.76946e-09
8.68613e-09
9.6382e-09
1.06074e-08
1.15763e-08
1.25289e-08
1.34509e-08
1.43301e-08
1.51564e-08
1.59218e-08
1.66206e-08
1.72489e-08
1.78048e-08
1.82877e-08
1.86987e-08
1.90397e-08
1.93136e-08
1.95241e-08
1.96751e-08
1.97712e-08
1.9817e-08
1.19762e-08
1.28568e-08
1.41116e-08
1.56882e-08
1.75384e-08
1.96143e-08
2.18671e-08
2.42478e-08
2.67076e-08
2.91999e-08
3.16806e-08
3.41098e-08
3.64526e-08
3.86793e-08
4.07658e-08
4.26935e-08
4.44492e-08
4.60245e-08
4.74155e-08
4.86219e-08
4.9647e-08
5.04965e-08
5.1178e-08
5.17011e-08
5.20763e-08
5.23148e-08
5.24281e-08
3.4118e-08
3.63832e-08
3.96007e-08
4.36278e-08
4.83342e-08
5.35924e-08
5.92754e-08
6.52574e-08
7.14159e-08
7.76343e-08
8.38046e-08
8.98299e-08
9.56261e-08
1.01122e-07
1.06262e-07
1.11002e-07
1.15311e-07
1.19173e-07
1.22578e-07
1.25527e-07
1.28031e-07
1.30103e-07
1.31765e-07
1.33039e-07
1.33952e-07
1.34532e-07
1.34808e-07
9.2731e-08
9.83383e-08
1.06287e-07
1.16212e-07
1.27782e-07
1.40677e-07
1.54581e-07
1.69185e-07
1.84192e-07
1.9932e-07
2.1431e-07
2.28929e-07
2.42977e-07
2.56286e-07
2.6872e-07
2.80178e-07
2.90587e-07
2.99907e-07
3.08119e-07
3.15228e-07
3.21257e-07
3.26244e-07
3.30239e-07
3.333e-07
3.35493e-07
3.36884e-07
3.37545e-07
2.3862e-07
2.51931e-07
2.70788e-07
2.94318e-07
3.21734e-07
3.52281e-07
3.85219e-07
4.19827e-07
4.55407e-07
4.91302e-07
5.26901e-07
5.61655e-07
5.95085e-07
6.26787e-07
6.56433e-07
6.83773e-07
7.08629e-07
7.30892e-07
7.50514e-07
7.67502e-07
7.81906e-07
7.93816e-07
8.03351e-07
8.1065e-07
8.15871e-07
8.1918e-07
8.20749e-07
5.73727e-07
6.03595e-07
6.45923e-07
6.9878e-07
7.60435e-07
8.29234e-07
9.03565e-07
9.81848e-07
1.06255e-06
1.14422e-06
1.22547e-06
1.30506e-06
1.38189e-06
1.45499e-06
1.52358e-06
1.58703e-06
1.64488e-06
1.69682e-06
1.74271e-06
1.78249e-06
1.81627e-06
1.84422e-06
1.8666e-06
1.88372e-06
1.89596e-06
1.9037e-06
1.90736e-06
1.26901e-06
1.33062e-06
1.41796e-06
1.52709e-06
1.6545e-06
1.79686e-06
1.95093e-06
2.11355e-06
2.28161e-06
2.45216e-06
2.62238e-06
2.78967e-06
2.95168e-06
3.10636e-06
3.25197e-06
3.38709e-06
3.51065e-06
3.6219e-06
3.72038e-06
3.80593e-06
3.87866e-06
3.93889e-06
3.98712e-06
4.02402e-06
4.05036e-06
4.06701e-06
4.07487e-06
2.55223e-06
2.66581e-06
2.82664e-06
3.02734e-06
3.26132e-06
3.5224e-06
3.80458e-06
4.10204e-06
4.40912e-06
4.7204e-06
5.03076e-06
5.3355e-06
5.63034e-06
5.91157e-06
6.17603e-06
6.42118e-06
6.64507e-06
6.84638e-06
7.02435e-06
7.17873e-06
7.30976e-06
7.41808e-06
7.50467e-06
7.57079e-06
7.61792e-06
7.64764e-06
7.66164e-06
4.65591e-06
4.84052e-06
5.10115e-06
5.4251e-06
5.80105e-06
6.21839e-06
6.667e-06
7.13717e-06
7.61966e-06
8.10578e-06
8.58744e-06
9.05736e-06
9.50917e-06
9.93742e-06
1.03377e-05
1.07065e-05
1.10415e-05
1.13411e-05
1.16046e-05
1.18321e-05
1.20243e-05
1.21825e-05
1.23085e-05
1.24044e-05
1.24725e-05
1.25153e-05
1.25354e-05
7.74746e-06
8.01225e-06
8.38435e-06
8.84404e-06
9.37367e-06
9.95687e-06
1.05783e-05
1.12236e-05
1.18795e-05
1.2534e-05
1.31763e-05
1.3797e-05
1.43882e-05
1.49437e-05
1.54584e-05
1.59288e-05
1.63528e-05
1.67291e-05
1.70579e-05
1.734e-05
1.7577e-05
1.77711e-05
1.79249e-05
1.80415e-05
1.8124e-05
1.81758e-05
1.82e-05
1.18654e-05
1.22034e-05
1.26756e-05
1.32549e-05
1.39166e-05
1.46384e-05
1.53998e-05
1.61822e-05
1.6969e-05
1.77458e-05
1.85002e-05
1.92217e-05
1.99024e-05
2.05358e-05
2.11176e-05
2.16449e-05
2.21165e-05
2.25322e-05
2.28931e-05
2.32009e-05
2.34581e-05
2.36678e-05
2.38334e-05
2.39584e-05
2.40467e-05
2.41019e-05
2.41277e-05
1.68788e-05
1.7267e-05
1.78065e-05
1.84636e-05
1.9208e-05
2.00126e-05
2.08532e-05
2.17084e-05
2.25599e-05
2.33922e-05
2.41927e-05
2.49513e-05
2.56607e-05
2.63153e-05
2.6912e-05
2.7449e-05
2.79262e-05
2.83444e-05
2.87055e-05
2.90122e-05
2.92675e-05
2.9475e-05
2.96383e-05
2.97614e-05
2.98481e-05
2.99023e-05
2.99276e-05
2.24999e-05
2.29068e-05
2.34696e-05
2.41507e-05
2.49167e-05
2.57381e-05
2.65891e-05
2.74476e-05
2.8295e-05
2.91166e-05
2.99003e-05
3.06376e-05
3.13219e-05
3.19494e-05
3.25179e-05
3.30268e-05
3.34767e-05
3.38694e-05
3.42073e-05
3.44933e-05
3.47309e-05
3.49235e-05
3.5075e-05
3.51891e-05
3.52693e-05
3.53195e-05
3.5343e-05
2.83505e-05
2.87448e-05
2.92881e-05
2.99422e-05
3.06735e-05
3.14527e-05
3.22545e-05
3.30578e-05
3.38456e-05
3.46042e-05
3.53236e-05
3.59962e-05
3.66174e-05
3.71841e-05
3.76952e-05
3.8151e-05
3.85527e-05
3.89023e-05
3.92024e-05
3.9456e-05
3.96664e-05
3.98368e-05
3.99708e-05
4.00717e-05
4.01429e-05
4.01873e-05
4.02081e-05
3.4047e-05
3.44047e-05
3.48958e-05
3.54847e-05
3.61402e-05
3.6835e-05
3.75464e-05
3.82554e-05
3.89471e-05
3.961e-05
4.02357e-05
4.08183e-05
4.13541e-05
4.18413e-05
4.22795e-05
4.26691e-05
4.30118e-05
4.33095e-05
4.35647e-05
4.37802e-05
4.39588e-05
4.41035e-05
4.42174e-05
4.43031e-05
4.43636e-05
4.44015e-05
4.44192e-05
3.9273e-05
3.95794e-05
3.99992e-05
4.0501e-05
4.10575e-05
4.16452e-05
4.22446e-05
4.28396e-05
4.34179e-05
4.39701e-05
4.44895e-05
4.49717e-05
4.54139e-05
4.58151e-05
4.61751e-05
4.64947e-05
4.67754e-05
4.7019e-05
4.72278e-05
4.7404e-05
4.75502e-05
4.76686e-05
4.77619e-05
4.78322e-05
4.78818e-05
4.7913e-05
4.79276e-05
4.38166e-05
4.40662e-05
4.44076e-05
4.48147e-05
4.52649e-05
4.5739e-05
4.6221e-05
4.6698e-05
4.71603e-05
4.76005e-05
4.80134e-05
4.83959e-05
4.87459e-05
4.90629e-05
4.9347e-05
4.9599e-05
4.98201e-05
5.00119e-05
5.01763e-05
5.03152e-05
5.04304e-05
5.05238e-05
5.05975e-05
5.06531e-05
5.06925e-05
5.07173e-05
5.07289e-05
4.75733e-05
4.77673e-05
4.80321e-05
4.83472e-05
4.8695e-05
4.90602e-05
4.94305e-05
4.9796e-05
5.01493e-05
5.04849e-05
5.0799e-05
5.10894e-05
5.13547e-05
5.15946e-05
5.18094e-05
5.19997e-05
5.21668e-05
5.23117e-05
5.24359e-05
5.25409e-05
5.26281e-05
5.2699e-05
5.27549e-05
5.27973e-05
5.28273e-05
5.28463e-05
5.28552e-05
5.05272e-05
5.06705e-05
5.08659e-05
5.1098e-05
5.13534e-05
5.16209e-05
5.18914e-05
5.21577e-05
5.24143e-05
5.26575e-05
5.28846e-05
5.3094e-05
5.3285e-05
5.34574e-05
5.36117e-05
5.37483e-05
5.38681e-05
5.39722e-05
5.40614e-05
5.41369e-05
5.41997e-05
5.42509e-05
5.42914e-05
5.43221e-05
5.4344e-05
5.43579e-05
5.43644e-05
5.27234e-05
5.28231e-05
5.29586e-05
5.31191e-05
5.32952e-05
5.3479e-05
5.36642e-05
5.38457e-05
5.40201e-05
5.41846e-05
5.43377e-05
5.44785e-05
5.46066e-05
5.47221e-05
5.48251e-05
5.49163e-05
5.49963e-05
5.50658e-05
5.51254e-05
5.5176e-05
5.52182e-05
5.52527e-05
5.52801e-05
5.5301e-05
5.53159e-05
5.53254e-05
5.533e-05
5.42427e-05
5.4306e-05
5.43917e-05
5.44928e-05
5.4603e-05
5.47174e-05
5.48318e-05
5.49433e-05
5.50496e-05
5.51492e-05
5.52414e-05
5.53256e-05
5.54018e-05
5.54702e-05
5.55311e-05
5.55849e-05
5.56321e-05
5.5673e-05
5.57083e-05
5.57383e-05
5.57634e-05
5.57841e-05
5.58007e-05
5.58134e-05
5.58226e-05
5.58285e-05
5.58313e-05
5.51812e-05
5.52149e-05
5.52603e-05
5.53132e-05
5.53702e-05
5.54284e-05
5.54858e-05
5.55406e-05
5.5592e-05
5.56393e-05
5.56822e-05
5.57208e-05
5.57553e-05
5.57858e-05
5.58126e-05
5.58362e-05
5.58569e-05
5.58748e-05
5.58904e-05
5.59037e-05
5.59151e-05
5.59246e-05
5.59323e-05
5.59384e-05
5.59429e-05
5.59458e-05
5.59473e-05
5.56367e-05
5.56471e-05
5.56605e-05
5.56753e-05
5.56901e-05
5.57039e-05
5.5716e-05
5.5726e-05
5.5734e-05
5.57398e-05
5.57439e-05
5.57464e-05
5.57478e-05
5.57483e-05
5.57482e-05
5.57479e-05
5.57475e-05
5.57473e-05
5.57472e-05
5.57473e-05
5.57477e-05
5.57483e-05
5.5749e-05
5.57498e-05
5.57505e-05
5.57512e-05
5.57515e-05
5.57014e-05
5.56936e-05
5.56821e-05
5.56672e-05
5.56492e-05
5.56284e-05
5.56054e-05
5.55807e-05
5.55549e-05
5.55286e-05
5.55024e-05
5.54769e-05
5.54525e-05
5.54297e-05
5.54088e-05
5.53899e-05
5.53732e-05
5.53587e-05
5.53464e-05
5.53362e-05
5.53281e-05
5.53217e-05
5.53169e-05
5.53136e-05
5.53114e-05
5.53102e-05
5.53096e-05
5.5457e-05
5.54352e-05
5.54048e-05
5.53672e-05
5.53242e-05
5.5277e-05
5.52272e-05
5.51759e-05
5.51243e-05
5.50735e-05
5.50243e-05
5.49774e-05
5.49334e-05
5.48929e-05
5.48559e-05
5.48229e-05
5.47937e-05
5.47684e-05
5.47468e-05
5.47287e-05
5.4714e-05
5.47023e-05
5.46933e-05
5.46868e-05
5.46823e-05
5.46797e-05
5.46785e-05
5.49736e-05
5.49414e-05
5.48967e-05
5.48422e-05
5.47804e-05
5.47135e-05
5.46436e-05
5.45725e-05
5.45016e-05
5.44325e-05
5.4366e-05
5.43032e-05
5.42446e-05
5.41907e-05
5.41419e-05
5.40982e-05
5.40597e-05
5.40263e-05
5.39977e-05
5.39738e-05
5.39542e-05
5.39385e-05
5.39263e-05
5.39174e-05
5.39112e-05
5.39075e-05
5.39058e-05
5.43099e-05
5.42701e-05
5.42149e-05
5.4148e-05
5.40724e-05
5.39911e-05
5.39065e-05
5.38209e-05
5.3736e-05
5.36535e-05
5.35745e-05
5.35e-05
5.34308e-05
5.33673e-05
5.33098e-05
5.32584e-05
5.32131e-05
5.31738e-05
5.31402e-05
5.31119e-05
5.30887e-05
5.30701e-05
5.30556e-05
5.30449e-05
5.30375e-05
5.3033e-05
5.30309e-05
5.35137e-05
5.34685e-05
5.34059e-05
5.33301e-05
5.32448e-05
5.31532e-05
5.30582e-05
5.29623e-05
5.28676e-05
5.27756e-05
5.26878e-05
5.26051e-05
5.25284e-05
5.24581e-05
5.23946e-05
5.23378e-05
5.22877e-05
5.22442e-05
5.2207e-05
5.21758e-05
5.215e-05
5.21293e-05
5.21133e-05
5.21013e-05
5.2093e-05
5.20879e-05
5.20856e-05
5.26237e-05
5.25747e-05
5.2507e-05
5.24252e-05
5.23333e-05
5.22348e-05
5.21328e-05
5.203e-05
5.19285e-05
5.18302e-05
5.17365e-05
5.16483e-05
5.15666e-05
5.14918e-05
5.14242e-05
5.13638e-05
5.13106e-05
5.12643e-05
5.12247e-05
5.11915e-05
5.1164e-05
5.1142e-05
5.11248e-05
5.1112e-05
5.11031e-05
5.10976e-05
5.10951e-05
5.16703e-05
5.1619e-05
5.15481e-05
5.14624e-05
5.13663e-05
5.12634e-05
5.1157e-05
5.10498e-05
5.09442e-05
5.08419e-05
5.07445e-05
5.06531e-05
5.05683e-05
5.04907e-05
5.04206e-05
5.0358e-05
5.03028e-05
5.02549e-05
5.02139e-05
5.01794e-05
5.01509e-05
5.0128e-05
5.01101e-05
5.00968e-05
5.00876e-05
5.00818e-05
5.00792e-05
5.06777e-05
5.0625e-05
5.05522e-05
5.04644e-05
5.03659e-05
5.02606e-05
5.01517e-05
5.00422e-05
4.99344e-05
4.98301e-05
4.97307e-05
4.96375e-05
4.95511e-05
4.94721e-05
4.94008e-05
4.93371e-05
4.92809e-05
4.92322e-05
4.91904e-05
4.91552e-05
4.91262e-05
4.91029e-05
4.90847e-05
4.90711e-05
4.90616e-05
4.90558e-05
4.90531e-05
4.96641e-05
4.96108e-05
4.95373e-05
4.94486e-05
4.93492e-05
4.9243e-05
4.91333e-05
4.90229e-05
4.89143e-05
4.88093e-05
4.87094e-05
4.86156e-05
4.85288e-05
4.84494e-05
4.83777e-05
4.83137e-05
4.82573e-05
4.82083e-05
4.81664e-05
4.81311e-05
4.81019e-05
4.80784e-05
4.80601e-05
4.80464e-05
4.80369e-05
4.8031e-05
4.80283e-05
4.86438e-05
4.85905e-05
4.85171e-05
4.84285e-05
4.83292e-05
4.82231e-05
4.81137e-05
4.80036e-05
4.78954e-05
4.77908e-05
4.76912e-05
4.75979e-05
4.75115e-05
4.74325e-05
4.73611e-05
4.72974e-05
4.72413e-05
4.71926e-05
4.71509e-05
4.71157e-05
4.70867e-05
4.70633e-05
4.70451e-05
4.70315e-05
4.7022e-05
4.70161e-05
4.70134e-05
4.76272e-05
4.75745e-05
4.75016e-05
4.74139e-05
4.73155e-05
4.72105e-05
4.71021e-05
4.69932e-05
4.68861e-05
4.67827e-05
4.66843e-05
4.6592e-05
4.65066e-05
4.64285e-05
4.63581e-05
4.62952e-05
4.62398e-05
4.61916e-05
4.61504e-05
4.61157e-05
4.6087e-05
4.6064e-05
4.60459e-05
4.60325e-05
4.60231e-05
4.60173e-05
4.60146e-05
4.66223e-05
4.65703e-05
4.64985e-05
4.64121e-05
4.63152e-05
4.62118e-05
4.61052e-05
4.59981e-05
4.58927e-05
4.5791e-05
4.56942e-05
4.56035e-05
4.55196e-05
4.54429e-05
4.53737e-05
4.53119e-05
4.52575e-05
4.52102e-05
4.51697e-05
4.51356e-05
4.51075e-05
4.50848e-05
4.50671e-05
4.50539e-05
4.50446e-05
4.50389e-05
4.50363e-05
4.56345e-05
4.55835e-05
4.55131e-05
4.54284e-05
4.53334e-05
4.52321e-05
4.51276e-05
4.50227e-05
4.49195e-05
4.48199e-05
4.47252e-05
4.46364e-05
4.45543e-05
4.44792e-05
4.44115e-05
4.4351e-05
4.42978e-05
4.42515e-05
4.42119e-05
4.41786e-05
4.41511e-05
4.41289e-05
4.41116e-05
4.40986e-05
4.40896e-05
4.4084e-05
4.40814e-05
4.46677e-05
4.46179e-05
4.45492e-05
4.44663e-05
4.43736e-05
4.42746e-05
4.41726e-05
4.40701e-05
4.39694e-05
4.38721e-05
4.37797e-05
4.36931e-05
4.3613e-05
4.35397e-05
4.34737e-05
4.34147e-05
4.33628e-05
4.33177e-05
4.32791e-05
4.32466e-05
4.32197e-05
4.31981e-05
4.31812e-05
4.31686e-05
4.31598e-05
4.31543e-05
4.31518e-05
4.37246e-05
4.3676e-05
4.3609e-05
4.35283e-05
4.34379e-05
4.33415e-05
4.32421e-05
4.31423e-05
4.30442e-05
4.29495e-05
4.28595e-05
4.27752e-05
4.26972e-05
4.26259e-05
4.25616e-05
4.25042e-05
4.24537e-05
4.24099e-05
4.23723e-05
4.23407e-05
4.23145e-05
4.22935e-05
4.22771e-05
4.22648e-05
4.22562e-05
4.22509e-05
4.22485e-05
4.28067e-05
4.27594e-05
4.26942e-05
4.26157e-05
4.25278e-05
4.2434e-05
4.23373e-05
4.22403e-05
4.21449e-05
4.20528e-05
4.19654e-05
4.18834e-05
4.18076e-05
4.17384e-05
4.16759e-05
4.16202e-05
4.15711e-05
4.15285e-05
4.1492e-05
4.14613e-05
4.14359e-05
4.14155e-05
4.13995e-05
4.13876e-05
4.13793e-05
4.13742e-05
4.13718e-05
4.19147e-05
4.18687e-05
4.18054e-05
4.17291e-05
4.16438e-05
4.15527e-05
4.14588e-05
4.13645e-05
4.12719e-05
4.11825e-05
4.10976e-05
4.1018e-05
4.09445e-05
4.08773e-05
4.08166e-05
4.07625e-05
4.07149e-05
4.06736e-05
4.06382e-05
4.06084e-05
4.05838e-05
4.0564e-05
4.05485e-05
4.0537e-05
4.05289e-05
4.05239e-05
4.05216e-05
4.10489e-05
4.10043e-05
4.09428e-05
4.08688e-05
4.07859e-05
4.06975e-05
4.06064e-05
4.05149e-05
4.0425e-05
4.03383e-05
4.02559e-05
4.01788e-05
4.01074e-05
4.00422e-05
3.99834e-05
3.9931e-05
3.98848e-05
3.98447e-05
3.98104e-05
3.97815e-05
3.97577e-05
3.97385e-05
3.97235e-05
3.97123e-05
3.97045e-05
3.96997e-05
3.96975e-05
4.0209e-05
4.01657e-05
4.01061e-05
4.00342e-05
3.99538e-05
3.98681e-05
3.97797e-05
3.9691e-05
3.96038e-05
3.95197e-05
3.94399e-05
3.9365e-05
3.92959e-05
3.92327e-05
3.91757e-05
3.91248e-05
3.90801e-05
3.90413e-05
3.9008e-05
3.898e-05
3.89569e-05
3.89383e-05
3.89238e-05
3.8913e-05
3.89054e-05
3.89008e-05
3.88986e-05
3.93944e-05
3.93525e-05
3.92946e-05
3.9225e-05
3.9147e-05
3.90638e-05
3.89781e-05
3.88921e-05
3.88076e-05
3.87261e-05
3.86486e-05
3.85761e-05
3.8509e-05
3.84478e-05
3.83925e-05
3.83433e-05
3.82999e-05
3.82623e-05
3.82301e-05
3.8203e-05
3.81806e-05
3.81626e-05
3.81485e-05
3.8138e-05
3.81307e-05
3.81262e-05
3.81241e-05
3.86045e-05
3.85638e-05
3.85077e-05
3.84401e-05
3.83645e-05
3.82838e-05
3.82007e-05
3.81173e-05
3.80353e-05
3.79563e-05
3.78812e-05
3.78109e-05
3.77458e-05
3.76865e-05
3.76329e-05
3.75852e-05
3.75432e-05
3.75067e-05
3.74755e-05
3.74493e-05
3.74276e-05
3.74101e-05
3.73965e-05
3.73864e-05
3.73793e-05
3.73749e-05
3.73729e-05
3.78381e-05
3.77986e-05
3.77442e-05
3.76786e-05
3.76053e-05
3.7527e-05
3.74464e-05
3.73655e-05
3.7286e-05
3.72094e-05
3.71365e-05
3.70683e-05
3.70053e-05
3.69477e-05
3.68958e-05
3.68496e-05
3.68088e-05
3.67735e-05
3.67432e-05
3.67178e-05
3.66968e-05
3.66799e-05
3.66667e-05
3.66569e-05
3.665e-05
3.66458e-05
3.66438e-05
3.70942e-05
3.70559e-05
3.70031e-05
3.69395e-05
3.68683e-05
3.67924e-05
3.67141e-05
3.66356e-05
3.65585e-05
3.64841e-05
3.64134e-05
3.63473e-05
3.62861e-05
3.62303e-05
3.61799e-05
3.61351e-05
3.60956e-05
3.60613e-05
3.6032e-05
3.60073e-05
3.5987e-05
3.59706e-05
3.59578e-05
3.59483e-05
3.59417e-05
3.59376e-05
3.59357e-05
3.63716e-05
3.63344e-05
3.62831e-05
3.62214e-05
3.61522e-05
3.60785e-05
3.60026e-05
3.59263e-05
3.58515e-05
3.57793e-05
3.57107e-05
3.56465e-05
3.55871e-05
3.55329e-05
3.54841e-05
3.54405e-05
3.54022e-05
3.5369e-05
3.53405e-05
3.53166e-05
3.52969e-05
3.5281e-05
3.52686e-05
3.52594e-05
3.5253e-05
3.5249e-05
3.52472e-05
3.5669e-05
3.56329e-05
3.55831e-05
3.5523e-05
3.54559e-05
3.53843e-05
3.53105e-05
3.52364e-05
3.51637e-05
3.50936e-05
3.50269e-05
3.49646e-05
3.49069e-05
3.48543e-05
3.48069e-05
3.47646e-05
3.47274e-05
3.46951e-05
3.46675e-05
3.46443e-05
3.46252e-05
3.46098e-05
3.45978e-05
3.45888e-05
3.45826e-05
3.45787e-05
3.4577e-05
3.49852e-05
3.495e-05
3.49016e-05
3.48432e-05
3.47779e-05
3.47083e-05
3.46365e-05
3.45645e-05
3.44938e-05
3.44257e-05
3.43609e-05
3.43003e-05
3.42443e-05
3.41931e-05
3.4147e-05
3.4106e-05
3.40699e-05
3.40385e-05
3.40117e-05
3.39892e-05
3.39706e-05
3.39556e-05
3.3944e-05
3.39353e-05
3.39292e-05
3.39255e-05
3.39238e-05
3.43186e-05
3.42844e-05
3.42373e-05
3.41805e-05
3.4117e-05
3.40492e-05
3.39794e-05
3.39094e-05
3.38406e-05
3.37742e-05
3.37113e-05
3.36523e-05
3.35978e-05
3.35481e-05
3.35033e-05
3.34633e-05
3.34282e-05
3.33978e-05
3.33717e-05
3.33498e-05
3.33318e-05
3.33173e-05
3.33059e-05
3.32975e-05
3.32916e-05
3.3288e-05
3.32863e-05
3.36681e-05
3.36348e-05
3.35889e-05
3.35336e-05
3.34717e-05
3.34057e-05
3.33378e-05
3.32696e-05
3.32026e-05
3.3138e-05
3.30767e-05
3.30193e-05
3.29663e-05
3.29179e-05
3.28743e-05
3.28354e-05
3.28013e-05
3.27717e-05
3.27463e-05
3.2725e-05
3.27075e-05
3.26934e-05
3.26824e-05
3.26742e-05
3.26685e-05
3.2665e-05
3.26634e-05
3.30322e-05
3.29998e-05
3.2955e-05
3.29011e-05
3.28408e-05
3.27765e-05
3.27103e-05
3.26438e-05
3.25786e-05
3.25157e-05
3.2456e-05
3.24001e-05
3.23484e-05
3.23013e-05
3.22589e-05
3.22211e-05
3.21878e-05
3.2159e-05
3.21344e-05
3.21137e-05
3.20966e-05
3.20829e-05
3.20722e-05
3.20643e-05
3.20587e-05
3.20553e-05
3.20537e-05
3.24097e-05
3.23781e-05
3.23344e-05
3.22819e-05
3.22231e-05
3.21604e-05
3.20958e-05
3.2031e-05
3.19674e-05
3.19061e-05
3.18479e-05
3.17935e-05
3.17432e-05
3.16973e-05
3.1656e-05
3.16192e-05
3.15868e-05
3.15588e-05
3.15348e-05
3.15147e-05
3.14981e-05
3.14848e-05
3.14744e-05
3.14667e-05
3.14613e-05
3.1458e-05
3.14565e-05
3.17994e-05
3.17686e-05
3.1726e-05
3.16747e-05
3.16174e-05
3.15563e-05
3.14933e-05
3.14301e-05
3.13682e-05
3.13084e-05
3.12517e-05
3.11987e-05
3.11497e-05
3.11051e-05
3.10648e-05
3.1029e-05
3.09976e-05
3.09703e-05
3.0947e-05
3.09274e-05
3.09113e-05
3.08984e-05
3.08883e-05
3.08808e-05
3.08756e-05
3.08724e-05
3.08709e-05
3.12005e-05
3.11703e-05
3.11288e-05
3.10789e-05
3.1023e-05
3.09634e-05
3.09021e-05
3.08406e-05
3.07802e-05
3.07221e-05
3.06669e-05
3.06153e-05
3.05677e-05
3.05243e-05
3.04852e-05
3.04504e-05
3.04198e-05
3.03933e-05
3.03707e-05
3.03517e-05
3.03361e-05
3.03236e-05
3.03138e-05
3.03065e-05
3.03015e-05
3.02984e-05
3.02969e-05
3.06123e-05
3.0583e-05
3.05426e-05
3.04939e-05
3.04396e-05
3.03816e-05
3.0322e-05
3.02622e-05
3.02036e-05
3.01471e-05
3.00936e-05
3.00436e-05
2.99974e-05
2.99553e-05
2.99174e-05
2.98837e-05
2.98542e-05
2.98286e-05
2.98067e-05
2.97884e-05
2.97733e-05
2.97611e-05
2.97517e-05
2.97447e-05
2.97398e-05
2.97368e-05
2.97354e-05
3.00352e-05
3.00068e-05
2.99676e-05
2.99205e-05
2.98678e-05
2.98117e-05
2.97539e-05
2.96961e-05
2.96395e-05
2.95849e-05
2.95332e-05
2.94849e-05
2.94404e-05
2.93999e-05
2.93634e-05
2.9331e-05
2.93026e-05
2.92779e-05
2.92569e-05
2.92393e-05
2.92248e-05
2.92132e-05
2.92042e-05
2.91975e-05
2.91928e-05
2.91899e-05
2.91886e-05
2.94707e-05
2.94433e-05
2.94056e-05
2.93602e-05
2.93095e-05
2.92556e-05
2.92002e-05
2.91447e-05
2.90904e-05
2.90382e-05
2.89887e-05
2.89426e-05
2.89001e-05
2.88614e-05
2.88266e-05
2.87958e-05
2.87687e-05
2.87454e-05
2.87254e-05
2.87087e-05
2.8695e-05
2.8684e-05
2.86754e-05
2.86691e-05
2.86647e-05
2.86619e-05
2.86607e-05
2.8922e-05
2.88959e-05
2.886e-05
2.88169e-05
2.87687e-05
2.87176e-05
2.8665e-05
2.86126e-05
2.85612e-05
2.85119e-05
2.84654e-05
2.8422e-05
2.8382e-05
2.83458e-05
2.83132e-05
2.82844e-05
2.82591e-05
2.82373e-05
2.82187e-05
2.82032e-05
2.81904e-05
2.81802e-05
2.81722e-05
2.81663e-05
2.81623e-05
2.81597e-05
2.81586e-05
2.83948e-05
2.83704e-05
2.83369e-05
2.82967e-05
2.82518e-05
2.82043e-05
2.81556e-05
2.8107e-05
2.80596e-05
2.80142e-05
2.79713e-05
2.79315e-05
2.7895e-05
2.78618e-05
2.78322e-05
2.78059e-05
2.7783e-05
2.77632e-05
2.77464e-05
2.77324e-05
2.77209e-05
2.77117e-05
2.77045e-05
2.76992e-05
2.76956e-05
2.76933e-05
2.76923e-05
2.78977e-05
2.78756e-05
2.78452e-05
2.78088e-05
2.77684e-05
2.77256e-05
2.76819e-05
2.76384e-05
2.75961e-05
2.75557e-05
2.75178e-05
2.74826e-05
2.74504e-05
2.74213e-05
2.73954e-05
2.73725e-05
2.73526e-05
2.73354e-05
2.73209e-05
2.73088e-05
2.72989e-05
2.7291e-05
2.72849e-05
2.72804e-05
2.72773e-05
2.72754e-05
2.72745e-05
2.74425e-05
2.74232e-05
2.73969e-05
2.73655e-05
2.73306e-05
2.72939e-05
2.72565e-05
2.72196e-05
2.71837e-05
2.71497e-05
2.71179e-05
2.70885e-05
2.70618e-05
2.70378e-05
2.70165e-05
2.69977e-05
2.69815e-05
2.69676e-05
2.69559e-05
2.69462e-05
2.69383e-05
2.6932e-05
2.69271e-05
2.69236e-05
2.69211e-05
2.69196e-05
2.6919e-05
2.70427e-05
2.7027e-05
2.70057e-05
2.69802e-05
2.69522e-05
2.69229e-05
2.68932e-05
2.6864e-05
2.6836e-05
2.68095e-05
2.67849e-05
2.67624e-05
2.67421e-05
2.67239e-05
2.67079e-05
2.6694e-05
2.6682e-05
2.66718e-05
2.66633e-05
2.66563e-05
2.66506e-05
2.66462e-05
2.66428e-05
2.66403e-05
2.66386e-05
2.66376e-05
2.66371e-05
2.67116e-05
2.67001e-05
2.66844e-05
2.66658e-05
2.66455e-05
2.66244e-05
2.66033e-05
2.65827e-05
2.65631e-05
2.65449e-05
2.65281e-05
2.65129e-05
2.64994e-05
2.64875e-05
2.64772e-05
2.64683e-05
2.64607e-05
2.64544e-05
2.64491e-05
2.64449e-05
2.64415e-05
2.64389e-05
2.64369e-05
2.64355e-05
2.64346e-05
2.6434e-05
2.64338e-05
2.64587e-05
2.64514e-05
2.64415e-05
2.643e-05
2.64175e-05
2.64047e-05
2.63921e-05
2.638e-05
2.63688e-05
2.63585e-05
2.63493e-05
2.63411e-05
2.6334e-05
2.63279e-05
2.63228e-05
2.63185e-05
2.63149e-05
2.63121e-05
2.63098e-05
2.6308e-05
2.63067e-05
2.63057e-05
2.6305e-05
2.63045e-05
2.63042e-05
2.6304e-05
2.6304e-05
2.62857e-05
2.62823e-05
2.62777e-05
2.62725e-05
2.6267e-05
2.62615e-05
2.62564e-05
2.62517e-05
2.62475e-05
2.62439e-05
2.6241e-05
2.62386e-05
2.62367e-05
2.62353e-05
2.62343e-05
2.62336e-05
2.62332e-05