/*--------------------------------*- C++ -*----------------------------------*\
| =========                 |                                                 |
| \\      /  F ield         | OpenFOAM: The Open Source CFD Toolbox           |
|  \\    /   O peration     | Version:  2106                                  |
|   \\  /    A nd           | Website:  www.openfoam.com                      |
|    \\/     M anipulation  |                                                 |
\*---------------------------------------------------------------------------*/
FoamFile
{
    version     2.0;
    format      ascii;
    arch        "LSB;label=32;scalar=64";
    class       volScalarField;
    location    "200.00032";
    object      C8H8;
}
// * * * * * * * * * * * * * * * * * * * * * * * * * * * * * * * * * * * * * //

dimensions      [0 0 0 0 0 0 0];

internalField   nonuniform List<scalar> 
3360
(
4.20532e-24
4.46841e-24
4.83886e-24
5.2992e-24
5.83415e-24
6.42947e-24
7.07143e-24
7.74671e-24
8.44246e-24
9.14638e-24
9.84695e-24
1.05336e-23
1.1197e-23
1.18288e-23
1.24222e-23
1.29717e-23
1.3473e-23
1.39235e-23
1.43212e-23
1.46659e-23
1.49579e-23
1.51988e-23
1.53908e-23
1.55367e-23
1.564e-23
1.57047e-23
1.57348e-23
2.12641e-23
2.27355e-23
2.48389e-23
2.75046e-23
3.06799e-23
3.432e-23
3.83846e-23
4.28348e-23
4.7631e-23
5.2732e-23
5.80934e-23
6.36668e-23
6.9399e-23
7.52316e-23
8.11019e-23
8.69424e-23
9.26816e-23
9.82443e-23
1.03553e-22
1.08528e-22
1.13092e-22
1.17169e-22
1.20689e-22
1.23589e-22
1.25814e-22
1.27323e-22
1.28086e-22
8.12591e-23
8.79409e-23
9.76111e-23
1.10064e-22
1.2517e-22
1.42824e-22
1.62924e-22
1.85344e-22
2.09924e-22
2.36454e-22
2.64671e-22
2.94258e-22
3.24856e-22
3.56063e-22
3.87443e-22
4.18532e-22
4.48853e-22
4.77927e-22
5.05295e-22
5.30528e-22
5.53243e-22
5.73114e-22
5.89885e-22
6.03371e-22
6.13466e-22
6.20136e-22
6.2342e-22
2.93524e-22
3.21088e-22
3.6148e-22
4.14232e-22
4.79167e-22
5.5617e-22
6.45042e-22
7.45385e-22
8.56537e-22
9.77522e-22
1.10703e-21
1.24344e-21
1.38483e-21
1.52903e-21
1.67371e-21
1.8164e-21
1.95468e-21
2.08618e-21
2.20877e-21
2.32056e-21
2.42003e-21
2.50598e-21
2.57763e-21
2.63454e-21
2.67662e-21
2.70412e-21
2.71751e-21
1.09063e-21
1.20313e-21
1.36906e-21
1.5874e-21
1.85823e-21
2.18175e-21
2.55753e-21
2.98404e-21
3.45831e-21
3.97573e-21
4.53004e-21
5.11348e-21
5.71701e-21
6.33065e-21
6.94384e-21
7.54591e-21
8.12649e-21
8.67593e-21
9.18564e-21
9.6483e-21
1.00581e-20
1.04108e-20
1.07037e-20
1.09355e-20
1.11064e-20
1.12177e-20
1.12718e-20
4.15835e-21
4.61323e-21
5.28684e-21
6.17683e-21
7.28504e-21
8.6131e-21
1.01596e-20
1.19181e-20
1.38758e-20
1.60127e-20
1.83018e-20
2.07096e-20
2.31973e-20
2.57224e-20
2.82407e-20
3.07077e-20
3.30809e-20
3.53212e-20
3.73943e-20
3.92715e-20
4.09304e-20
4.23549e-20
4.35353e-20
4.44677e-20
4.51539e-20
4.56002e-20
4.58166e-20
1.61218e-20
1.79521e-20
2.06682e-20
2.42651e-20
2.87535e-20
3.41416e-20
4.04236e-20
4.75711e-20
5.5529e-20
6.42125e-20
7.35079e-20
8.32758e-20
9.33561e-20
1.03575e-19
1.13752e-19
1.23707e-19
1.33272e-19
1.4229e-19
1.50625e-19
1.58164e-19
1.64819e-19
1.70529e-19
1.75257e-19
1.78989e-19
1.81734e-19
1.83518e-19
1.84383e-19
6.31063e-20
7.04187e-20
8.12859e-20
9.56971e-20
1.13703e-19
1.35343e-19
1.60595e-19
1.89345e-19
2.21367e-19
2.56312e-19
2.93714e-19
3.33004e-19
3.73531e-19
4.1459e-19
4.55453e-19
4.954e-19
5.33747e-19
5.69871e-19
6.03232e-19
6.33384e-19
6.5998e-19
6.8278e-19
7.01643e-19
7.16524e-19
7.27461e-19
7.34565e-19
7.38007e-19
2.4854e-19
2.77741e-19
3.21166e-19
3.78791e-19
4.50835e-19
5.37457e-19
6.38567e-19
7.53691e-19
8.81899e-19
1.02177e-18
1.17142e-18
1.32854e-18
1.49051e-18
1.65452e-18
1.81764e-18
1.97701e-18
2.12991e-18
2.27388e-18
2.40677e-18
2.52683e-18
2.63269e-18
2.72342e-18
2.79847e-18
2.85766e-18
2.90115e-18
2.9294e-18
2.94308e-18
9.80602e-19
1.09672e-18
1.26949e-18
1.49889e-18
1.78585e-18
2.13102e-18
2.53406e-18
2.99306e-18
3.50427e-18
4.06197e-18
4.65857e-18
5.28484e-18
5.93028e-18
6.58358e-18
7.23314e-18
7.86749e-18
8.47585e-18
9.0484e-18
9.57667e-18
1.00537e-17
1.04741e-17
1.08343e-17
1.11321e-17
1.13668e-17
1.15393e-17
1.16512e-17
1.17055e-17
3.87531e-18
4.337e-18
5.02403e-18
5.9364e-18
7.07779e-18
8.45084e-18
1.0054e-17
1.18794e-17
1.39121e-17
1.61288e-17
1.84993e-17
2.09866e-17
2.35488e-17
2.61411e-17
2.87172e-17
3.1232e-17
3.36425e-17
3.59102e-17
3.80018e-17
3.98898e-17
4.15533e-17
4.29778e-17
4.41554e-17
4.50835e-17
4.57652e-17
4.62076e-17
4.64219e-17
1.52997e-17
1.71296e-17
1.98533e-17
2.34707e-17
2.79963e-17
3.34403e-17
3.9796e-17
4.70317e-17
5.50866e-17
6.38685e-17
7.32558e-17
8.31018e-17
9.324e-17
1.03492e-16
1.13675e-16
1.2361e-16
1.33129e-16
1.42079e-16
1.50329e-16
1.57772e-16
1.64327e-16
1.69938e-16
1.74573e-16
1.78225e-16
1.80906e-16
1.82646e-16
1.83488e-16
6.03361e-17
6.75812e-17
7.83627e-17
9.26793e-17
1.10585e-16
1.32116e-16
1.5724e-16
1.85826e-16
2.17628e-16
2.52276e-16
2.89285e-16
3.28072e-16
3.67979e-16
4.08301e-16
4.48322e-16
4.87338e-16
5.24691e-16
5.59787e-16
5.92117e-16
6.21268e-16
6.46924e-16
6.68872e-16
6.86997e-16
7.01271e-16
7.11745e-16
7.18538e-16
7.21826e-16
2.36999e-16
2.65541e-16
3.0801e-16
3.64389e-16
4.3488e-16
5.19602e-16
6.18406e-16
7.30752e-16
8.55635e-16
9.91574e-16
1.13664e-15
1.28852e-15
1.44462e-15
1.60217e-15
1.75837e-15
1.91049e-15
2.05596e-15
2.1925e-15
2.31815e-15
2.43134e-15
2.53086e-15
2.61593e-15
2.68612e-15
2.74135e-15
2.78185e-15
2.8081e-15
2.8208e-15
9.26664e-16
1.03859e-15
1.20507e-15
1.42595e-15
1.70191e-15
2.0333e-15
2.41937e-15
2.85782e-15
3.34455e-15
3.87361e-15
4.43731e-15
5.02656e-15
5.63118e-15
6.24045e-15
6.8435e-15
7.42984e-15
7.98971e-15
8.51443e-15
8.99663e-15
9.4304e-15
9.81136e-15
1.01366e-14
1.04047e-14
1.06155e-14
1.07699e-14
1.08699e-14
1.09183e-14
3.5968e-15
4.03202e-15
4.67891e-15
5.53649e-15
6.60679e-15
7.89038e-15
9.38354e-15
1.10764e-14
1.29524e-14
1.49874e-14
1.71513e-14
1.94085e-14
2.17196e-14
2.40435e-14
2.63387e-14
2.85655e-14
3.06874e-14
3.26721e-14
3.44924e-14
3.6127e-14
3.756e-14
3.87815e-14
3.97868e-14
4.0576e-14
4.11535e-14
4.15271e-14
4.17075e-14
1.38327e-14
1.55069e-14
1.79929e-14
2.1284e-14
2.53849e-14
3.02934e-14
3.59907e-14
4.24345e-14
4.95561e-14
5.72604e-14
6.54289e-14
7.39242e-14
8.25965e-14
9.12906e-14
9.98522e-14
1.08135e-13
1.16006e-13
1.23348e-13
1.30065e-13
1.36082e-13
1.41345e-13
1.45823e-13
1.49501e-13
1.52383e-13
1.54489e-13
1.5585e-13
1.56506e-13
5.25782e-14
5.89243e-14
6.83336e-14
8.07667e-14
9.62216e-14
1.14669e-13
1.36015e-13
1.60076e-13
1.86571e-13
2.15125e-13
2.45282e-13
2.76522e-13
3.08287e-13
3.40007e-13
3.71125e-13
4.0112e-13
4.29521e-13
4.55926e-13
4.80007e-13
5.01515e-13
5.20278e-13
5.36198e-13
5.49245e-13
5.59449e-13
5.66889e-13
5.71688e-13
5.73999e-13
1.97023e-13
2.20627e-13
2.55549e-13
3.01566e-13
3.58576e-13
4.26364e-13
5.04467e-13
5.921e-13
6.88135e-13
7.91119e-13
8.99334e-13
1.01087e-12
1.12371e-12
1.23585e-12
1.34535e-12
1.45041e-12
1.54947e-12
1.6412e-12
1.72454e-12
1.79872e-12
1.86322e-12
1.91779e-12
1.96239e-12
1.99719e-12
2.02251e-12
2.03881e-12
2.04665e-12
7.25756e-13
8.11426e-13
9.37818e-13
1.10374e-12
1.30838e-12
1.55047e-12
1.82785e-12
2.13726e-12
2.47426e-12
2.83341e-12
3.20847e-12
3.59266e-12
3.97906e-12
4.36082e-12
4.73154e-12
5.0854e-12
5.41741e-12
5.72345e-12
6.00033e-12
6.24581e-12
6.45851e-12
6.63788e-12
6.78406e-12
6.89781e-12
6.98038e-12
7.03343e-12
7.05888e-12
2.6207e-12
2.92245e-12
3.36597e-12
3.94537e-12
4.65586e-12
5.49099e-12
6.44129e-12
7.49367e-12
8.63153e-12
9.8353e-12
1.10833e-11
1.23527e-11
1.36208e-11
1.48656e-11
1.60671e-11
1.72075e-11
1.82718e-11
1.9248e-11
2.01274e-11
2.09038e-11
2.1574e-11
2.21373e-11
2.2595e-11
2.29503e-11
2.32075e-11
2.33724e-11
2.34514e-11
9.24707e-12
1.02721e-11
1.17717e-11
1.37191e-11
1.60905e-11
1.88567e-11
2.1979e-11
2.54083e-11
2.90855e-11
3.29441e-11
3.69128e-11
4.09191e-11
4.48925e-11
4.87668e-11
5.24827e-11
5.5989e-11
5.9244e-11
6.2215e-11
6.48791e-11
6.72219e-11
6.9237e-11
7.09251e-11
7.22927e-11
7.33514e-11
7.41163e-11
7.46057e-11
7.48397e-11
3.17737e-11
3.51121e-11
3.997e-11
4.62353e-11
5.3805e-11
6.256e-11
7.23553e-11
8.30179e-11
9.43516e-11
1.06143e-10
1.18174e-10
1.30226e-10
1.42094e-10
1.53588e-10
1.64546e-10
1.74828e-10
1.84323e-10
1.92951e-10
2.00655e-10
2.07404e-10
2.13189e-10
2.18021e-10
2.21926e-10
2.24941e-10
2.27115e-10
2.28503e-10
2.29166e-10
1.05898e-10
1.16271e-10
1.31279e-10
1.50494e-10
1.73519e-10
1.99915e-10
2.29185e-10
2.60764e-10
2.94042e-10
3.28382e-10
3.63147e-10
3.97724e-10
4.31545e-10
4.64104e-10
4.94967e-10
5.23781e-10
5.5027e-10
5.74237e-10
5.95558e-10
6.14176e-10
6.30087e-10
6.43342e-10
6.54026e-10
6.6226e-10
6.68187e-10
6.71965e-10
6.73767e-10
3.40959e-10
3.71622e-10
4.15733e-10
4.71808e-10
5.38467e-10
6.14251e-10
6.97579e-10
7.86747e-10
8.79977e-10
9.75473e-10
1.07149e-09
1.16638e-09
1.25866e-09
1.34703e-09
1.4304e-09
1.50789e-09
1.57886e-09
1.64285e-09
1.6996e-09
1.74901e-09
1.79114e-09
1.82616e-09
1.85433e-09
1.87601e-09
1.89159e-09
1.9015e-09
1.90623e-09
1.05646e-09
1.14268e-09
1.26607e-09
1.42193e-09
1.60592e-09
1.81358e-09
2.04026e-09
2.28115e-09
2.53136e-09
2.7861e-09
3.04078e-09
3.29119e-09
3.53359e-09
3.76474e-09
3.98199e-09
4.18325e-09
4.36701e-09
4.53225e-09
4.67844e-09
4.80547e-09
4.91357e-09
5.00326e-09
5.07532e-09
5.13069e-09
5.17044e-09
5.19572e-09
5.20775e-09
3.14071e-09
3.37195e-09
3.7015e-09
4.11563e-09
4.60174e-09
5.14728e-09
5.73949e-09
6.3655e-09
7.01256e-09
7.66838e-09
8.32143e-09
8.9612e-09
9.57849e-09
1.01655e-08
1.07157e-08
1.12244e-08
1.16878e-08
1.21039e-08
1.24714e-08
1.27902e-08
1.30613e-08
1.32859e-08
1.34663e-08
1.36047e-08
1.3704e-08
1.37671e-08
1.37971e-08
8.93316e-09
9.52728e-09
1.03714e-08
1.14285e-08
1.26645e-08
1.40463e-08
1.55411e-08
1.7116e-08
1.87392e-08
2.03802e-08
2.20107e-08
2.36051e-08
2.51411e-08
2.65997e-08
2.79656e-08
2.92271e-08
3.03757e-08
3.14061e-08
3.23159e-08
3.3105e-08
3.37755e-08
3.43311e-08
3.47769e-08
3.5119e-08
3.53644e-08
3.55204e-08
3.55945e-08
2.4241e-08
2.57083e-08
2.77894e-08
3.03903e-08
3.34257e-08
3.68134e-08
4.04725e-08
4.43234e-08
4.82891e-08
5.22965e-08
5.62774e-08
6.01706e-08
6.39222e-08
6.74866e-08
7.08264e-08
7.3913e-08
7.67254e-08
7.92504e-08
8.14814e-08
8.34179e-08
8.50644e-08
8.64296e-08
8.75257e-08
8.83675e-08
8.89714e-08
8.93554e-08
8.95381e-08
6.25144e-08
6.59924e-08
7.09225e-08
7.70802e-08
8.42635e-08
9.22793e-08
1.00939e-07
1.10057e-07
1.19454e-07
1.28961e-07
1.38418e-07
1.4768e-07
1.56621e-07
1.65131e-07
1.73119e-07
1.80515e-07
1.87266e-07
1.93337e-07
1.98711e-07
2.03382e-07
2.0736e-07
2.10662e-07
2.13317e-07
2.15358e-07
2.16824e-07
2.17756e-07
2.182e-07
1.52386e-07
1.6023e-07
1.71346e-07
1.85227e-07
2.0142e-07
2.19495e-07
2.39031e-07
2.59618e-07
2.80857e-07
3.02368e-07
3.23796e-07
3.44814e-07
3.65134e-07
3.84503e-07
4.02715e-07
4.19601e-07
4.35039e-07
4.48942e-07
4.61263e-07
4.71988e-07
4.8113e-07
4.88729e-07
4.94843e-07
4.99547e-07
5.02929e-07
5.05082e-07
5.06107e-07
3.48965e-07
3.65544e-07
3.89024e-07
4.18322e-07
4.5247e-07
4.90554e-07
5.31685e-07
5.75e-07
6.19662e-07
6.64875e-07
7.09894e-07
7.54037e-07
7.96698e-07
8.37354e-07
8.75569e-07
9.10995e-07
9.43373e-07
9.72528e-07
9.98361e-07
1.02084e-06
1.04e-06
1.05593e-06
1.06874e-06
1.0786e-06
1.08568e-06
1.09019e-06
1.09234e-06
7.47039e-07
7.79429e-07
8.25223e-07
8.82238e-07
9.48529e-07
1.02226e-06
1.10167e-06
1.18505e-06
1.27078e-06
1.35732e-06
1.44325e-06
1.52727e-06
1.60826e-06
1.68524e-06
1.75742e-06
1.82419e-06
1.88508e-06
1.9398e-06
1.98819e-06
2.03024e-06
2.06603e-06
2.09573e-06
2.11959e-06
2.13794e-06
2.15111e-06
2.15949e-06
2.16348e-06
1.49191e-06
1.54998e-06
1.63187e-06
1.73349e-06
1.85119e-06
1.98153e-06
2.12128e-06
2.26734e-06
2.41682e-06
2.56701e-06
2.71545e-06
2.85998e-06
2.99869e-06
3.13003e-06
3.25272e-06
3.3658e-06
3.46861e-06
3.56072e-06
3.64197e-06
3.7124e-06
3.77221e-06
3.82175e-06
3.86151e-06
3.89202e-06
3.91391e-06
3.92782e-06
3.93444e-06
2.78284e-06
2.87854e-06
3.01308e-06
3.17936e-06
3.37107e-06
3.58233e-06
3.80765e-06
4.0419e-06
4.28034e-06
4.51866e-06
4.75303e-06
4.98011e-06
5.19707e-06
5.4016e-06
5.59192e-06
5.76671e-06
5.92508e-06
6.06656e-06
6.19104e-06
6.29869e-06
6.38992e-06
6.46537e-06
6.52582e-06
6.57216e-06
6.60537e-06
6.62647e-06
6.6365e-06
4.86628e-06
5.01232e-06
5.21701e-06
5.46903e-06
5.75828e-06
6.0755e-06
6.41213e-06
6.76033e-06
7.11298e-06
7.46375e-06
7.8071e-06
8.13831e-06
8.45349e-06
8.74951e-06
9.02402e-06
9.27535e-06
9.50246e-06
9.70488e-06
9.88259e-06
1.0036e-05
1.01658e-05
1.0273e-05
1.03589e-05
1.04246e-05
1.04717e-05
1.05016e-05
1.05158e-05
8.02011e-06
8.22878e-06
8.52046e-06
8.87839e-06
9.28764e-06
9.73461e-06
1.02069e-05
1.06934e-05
1.1184e-05
1.16701e-05
1.21442e-05
1.25999e-05
1.30322e-05
1.3437e-05
1.38115e-05
1.41536e-05
1.44621e-05
1.47366e-05
1.49773e-05
1.51847e-05
1.53602e-05
1.55049e-05
1.56207e-05
1.57094e-05
1.57729e-05
1.58132e-05
1.58324e-05
1.25345e-05
1.28169e-05
1.32109e-05
1.36931e-05
1.42428e-05
1.48412e-05
1.54716e-05
1.61187e-05
1.67693e-05
1.74121e-05
1.80371e-05
1.86365e-05
1.92038e-05
1.97341e-05
2.02237e-05
2.06702e-05
2.10725e-05
2.14299e-05
2.17431e-05
2.20129e-05
2.22408e-05
2.24289e-05
2.25793e-05
2.26945e-05
2.27769e-05
2.28293e-05
2.28542e-05
1.8695e-05
1.90611e-05
1.95712e-05
2.01942e-05
2.09028e-05
2.16725e-05
2.24814e-05
2.33098e-05
2.41409e-05
2.49603e-05
2.57556e-05
2.65169e-05
2.72364e-05
2.7908e-05
2.85274e-05
2.90918e-05
2.95998e-05
3.0051e-05
3.0446e-05
3.07862e-05
3.10736e-05
3.13107e-05
3.15003e-05
3.16455e-05
3.17494e-05
3.18154e-05
3.18468e-05
2.67719e-05
2.72308e-05
2.78693e-05
2.86483e-05
2.95329e-05
3.04923e-05
3.14987e-05
3.25279e-05
3.35589e-05
3.45738e-05
3.55577e-05
3.64985e-05
3.73867e-05
3.82151e-05
3.89785e-05
3.96738e-05
4.02993e-05
4.08546e-05
4.13406e-05
4.17592e-05
4.21128e-05
4.24044e-05
4.26376e-05
4.28162e-05
4.29441e-05
4.30253e-05
4.30639e-05
3.70144e-05
3.75745e-05
3.83532e-05
3.93023e-05
4.0379e-05
4.15453e-05
4.27675e-05
4.40159e-05
4.52653e-05
4.64939e-05
4.76841e-05
4.88212e-05
4.9894e-05
5.0894e-05
5.18152e-05
5.26539e-05
5.3408e-05
5.40775e-05
5.46634e-05
5.51679e-05
5.5594e-05
5.59455e-05
5.62267e-05
5.64419e-05
5.65961e-05
5.66941e-05
5.67407e-05
4.96489e-05
5.03182e-05
5.12482e-05
5.23809e-05
5.36651e-05
5.5055e-05
5.65102e-05
5.79957e-05
5.94811e-05
6.0941e-05
6.23543e-05
6.37038e-05
6.49765e-05
6.61623e-05
6.72542e-05
6.82481e-05
6.91417e-05
6.99348e-05
7.06288e-05
7.12264e-05
7.17311e-05
7.21475e-05
7.24805e-05
7.27356e-05
7.29183e-05
7.30344e-05
7.30896e-05
6.48793e-05
6.56654e-05
6.67575e-05
6.80868e-05
6.95931e-05
7.12225e-05
7.29275e-05
7.4667e-05
7.64054e-05
7.81131e-05
7.97655e-05
8.13428e-05
8.28296e-05
8.42145e-05
8.54896e-05
8.66498e-05
8.76928e-05
8.86185e-05
8.94284e-05
9.01257e-05
9.07147e-05
9.12006e-05
9.15893e-05
9.18869e-05
9.21002e-05
9.22357e-05
9.23002e-05
8.2888e-05
8.37984e-05
8.50627e-05
8.66012e-05
8.83437e-05
9.02278e-05
9.21984e-05
9.42079e-05
9.62154e-05
9.81865e-05
0.000100093
0.000101912
0.000103627
0.000105224
0.000106693
0.00010803
0.000109232
0.000110298
0.000111231
0.000112034
0.000112713
0.000113273
0.00011372
0.000114063
0.000114309
0.000114465
0.000114539
0.000103838
0.00010488
0.000106326
0.000108086
0.000110078
0.000112231
0.000114482
0.000116776
0.000119068
0.000121317
0.000123492
0.000125567
0.000127521
0.000129341
0.000131016
0.000132539
0.000133908
0.000135122
0.000136185
0.0001371
0.000137872
0.00013851
0.00013902
0.00013941
0.00013969
0.000139868
0.000139952
0.000127874
0.000129054
0.000130691
0.000132683
0.000134937
0.000137372
0.000139918
0.000142512
0.000145101
0.000147642
0.000150098
0.00015244
0.000154646
0.0001567
0.000158589
0.000160307
0.000161851
0.000163221
0.000164419
0.00016545
0.000166321
0.00016704
0.000167615
0.000168055
0.00016837
0.000168571
0.000168666
0.000155125
0.000156449
0.000158286
0.000160519
0.000163047
0.000165777
0.00016863
0.000171536
0.000174436
0.00017728
0.00018003
0.000182651
0.000185119
0.000187415
0.000189528
0.000191449
0.000193175
0.000194706
0.000196045
0.000197197
0.000198171
0.000198974
0.000199616
0.000200107
0.00020046
0.000200684
0.00020079
0.000185703
0.000187177
0.000189221
0.000191707
0.000194518
0.000197555
0.000200726
0.000203956
0.000207178
0.000210338
0.00021339
0.0002163
0.000219039
0.000221588
0.000223932
0.000226063
0.000227977
0.000229674
0.000231159
0.000232437
0.000233516
0.000234406
0.000235117
0.000235663
0.000236053
0.000236301
0.000236419
0.000219709
0.000221337
0.000223596
0.000226342
0.000229447
0.0002328
0.0002363
0.000239864
0.000243419
0.000246904
0.000250269
0.000253477
0.000256496
0.000259304
0.000261886
0.000264233
0.000266341
0.00026821
0.000269844
0.000271251
0.000272438
0.000273418
0.000274201
0.000274801
0.000275231
0.000275504
0.000275634
0.000257229
0.000259017
0.000261497
0.00026451
0.000267918
0.000271595
0.000275434
0.000279342
0.000283238
0.000287057
0.000290744
0.000294257
0.000297563
0.000300637
0.000303463
0.000306032
0.000308338
0.000310383
0.000312171
0.00031371
0.000315009
0.00031608
0.000316936
0.000317592
0.000318062
0.000318361
0.000318503
0.00029834
0.000300291
0.000302997
0.000306285
0.000310002
0.000314012
0.000318198
0.000322457
0.000326703
0.000330864
0.00033488
0.000338706
0.000342305
0.000345651
0.000348727
0.000351521
0.000354031
0.000356255
0.0003582
0.000359873
0.000361285
0.00036245
0.000363381
0.000364095
0.000364605
0.00036493
0.000365085
0.000343105
0.000345223
0.000348161
0.000351729
0.000355761
0.000360112
0.000364651
0.00036927
0.000373872
0.000378381
0.000382733
0.000386877
0.000390774
0.000394398
0.000397728
0.000400753
0.000403468
0.000405876
0.00040798
0.00040979
0.000411318
0.000412577
0.000413585
0.000414356
0.000414909
0.00041526
0.000415427
0.00039158
0.000393868
0.000397041
0.000400894
0.000405249
0.000409945
0.000414845
0.000419828
0.000424793
0.000429656
0.000434348
0.000438816
0.000443017
0.000446922
0.000450509
0.000453768
0.000456693
0.000459286
0.000461552
0.000463501
0.000465146
0.000466502
0.000467586
0.000468417
0.000469011
0.000469389
0.000469569
0.000443811
0.000446271
0.000449683
0.000453826
0.000458507
0.000463554
0.000468819
0.000474172
0.000479504
0.000484726
0.000489764
0.000494559
0.000499068
0.000503257
0.000507106
0.000510602
0.000513739
0.000516519
0.000518948
0.000521038
0.000522801
0.000524255
0.000525417
0.000526307
0.000526945
0.00052735
0.000527542
0.000499834
0.00050247
0.000506123
0.000510559
0.00051557
0.000520972
0.000526606
0.000532333
0.000538038
0.000543622
0.000549009
0.000554135
0.000558954
0.000563432
0.000567544
0.000571279
0.00057463
0.000577599
0.000580194
0.000582425
0.000584308
0.000585861
0.000587102
0.000588052
0.000588732
0.000589164
0.00058937
0.000559679
0.000562491
0.000566389
0.000571121
0.000576465
0.000582226
0.000588232
0.000594337
0.000600416
0.000606367
0.000612105
0.000617566
0.000622698
0.000627465
0.000631843
0.000635819
0.000639385
0.000642545
0.000645306
0.00064768
0.000649684
0.000651335
0.000652655
0.000653666
0.00065439
0.000654849
0.000655068
0.000623368
0.000626358
0.000630502
0.000635532
0.000641212
0.000647333
0.000653715
0.0006602
0.000666656
0.000672975
0.000679067
0.000684863
0.00069031
0.000695369
0.000700015
0.000704232
0.000708016
0.000711367
0.000714295
0.000716813
0.000718937
0.000720688
0.000722088
0.000723159
0.000723926
0.000724414
0.000724646
0.000690915
0.000694083
0.000698475
0.000703804
0.000709821
0.000716306
0.000723064
0.000729931
0.000736766
0.000743455
0.000749902
0.000756036
0.000761798
0.00076715
0.000772064
0.000776524
0.000780525
0.000784069
0.000787165
0.000789826
0.000792072
0.000793923
0.000795402
0.000796534
0.000797345
0.00079786
0.000798105
0.000762326
0.000765674
0.000770314
0.000775944
0.000782299
0.000789147
0.000796284
0.000803533
0.000810749
0.000817808
0.000824611
0.000831083
0.000837162
0.000842807
0.000847989
0.000852692
0.000856911
0.000860647
0.000863911
0.000866717
0.000869084
0.000871034
0.000872593
0.000873787
0.000874641
0.000875184
0.000875443
0.000837603
0.000841131
0.000846019
0.00085195
0.000858644
0.000865856
0.000873371
0.000881003
0.000888599
0.000896028
0.000903189
0.000909998
0.000916393
0.000922332
0.000927782
0.000932729
0.000937165
0.000941094
0.000944525
0.000947475
0.000949963
0.000952014
0.000953652
0.000954907
0.000955805
0.000956375
0.000956647
0.00091674
0.000920447
0.000925583
0.000931815
0.000938848
0.000946423
0.000954315
0.000962331
0.000970306
0.000978106
0.000985621
0.000992768
0.00099948
0.00100571
0.00101143
0.00101662
0.00102127
0.00102539
0.00102899
0.00103208
0.00103469
0.00103684
0.00103856
0.00103988
0.00104082
0.00104142
0.0010417
0.000999723
0.00100361
0.00100899
0.00101552
0.00102289
0.00103083
0.0010391
0.0010475
0.00105585
0.00106402
0.00107189
0.00107937
0.0010864
0.00109292
0.00109891
0.00110434
0.00110921
0.00111352
0.00111729
0.00112052
0.00112325
0.0011255
0.0011273
0.00112867
0.00112966
0.00113028
0.00113058
0.00108653
0.0010906
0.00109623
0.00110306
0.00111076
0.00111906
0.00112771
0.00113648
0.00114521
0.00115375
0.00116197
0.00116979
0.00117713
0.00118394
0.00119019
0.00119586
0.00120095
0.00120545
0.00120938
0.00121276
0.00121561
0.00121795
0.00121983
0.00122127
0.00122229
0.00122295
0.00122326
0.00117714
0.00118138
0.00118726
0.00119438
0.00120243
0.00121108
0.0012201
0.00122925
0.00123836
0.00124726
0.00125583
0.00126398
0.00127163
0.00127873
0.00128524
0.00129115
0.00129645
0.00130114
0.00130523
0.00130875
0.00131172
0.00131417
0.00131612
0.00131762
0.00131869
0.00131937
0.00131969
0.00127152
0.00127593
0.00128205
0.00128947
0.00129784
0.00130686
0.00131624
0.00132577
0.00133524
0.0013445
0.00135342
0.0013619
0.00136986
0.00137724
0.00138402
0.00139016
0.00139567
0.00140055
0.00140481
0.00140846
0.00141155
0.00141409
0.00141612
0.00141768
0.00141879
0.0014195
0.00141983
0.00136961
0.00137421
0.00138056
0.00138828
0.00139697
0.00140634
0.00141609
0.00142598
0.00143582
0.00144544
0.0014547
0.00146351
0.00147177
0.00147943
0.00148646
0.00149284
0.00149856
0.00150362
0.00150804
0.00151184
0.00151504
0.00151767
0.00151978
0.00152139
0.00152255
0.00152328
0.00152363
0.00147138
0.00147615
0.00148274
0.00149074
0.00149976
0.00150947
0.00151958
0.00152984
0.00154004
0.00155001
0.00155961
0.00156873
0.00157729
0.00158524
0.00159252
0.00159913
0.00160505
0.00161029
0.00161487
0.0016188
0.00162212
0.00162485
0.00162703
0.0016287
0.0016299
0.00163066
0.00163102
0.00157677
0.0015817
0.00158853
0.00159681
0.00160614
0.0016162
0.00162666
0.00163728
0.00164783
0.00165815
0.00166808
0.00167751
0.00168637
0.00169458
0.00170211
0.00170895
0.00171507
0.00172049
0.00172522
0.00172929
0.00173271
0.00173554
0.00173779
0.00173952
0.00174075
0.00174154
0.00174191
0.00168569
0.00169078
0.00169784
0.00170639
0.00171604
0.00172643
0.00173724
0.00174821
0.00175911
0.00176976
0.00178001
0.00178976
0.0017989
0.00180738
0.00181515
0.00182221
0.00182853
0.00183412
0.001839
0.0018432
0.00184673
0.00184965
0.00185197
0.00185375
0.00185503
0.00185584
0.00185622
0.00179806
0.00180331
0.00181059
0.00181942
0.00182937
0.00184008
0.00185123
0.00186254
0.00187377
0.00188476
0.00189533
0.00190537
0.00191479
0.00192353
0.00193154
0.0019388
0.00194532
0.00195108
0.00195611
0.00196043
0.00196407
0.00196707
0.00196947
0.0019713
0.00197261
0.00197345
0.00197384
0.00191378
0.00191919
0.00192669
0.00193577
0.00194602
0.00195704
0.00196852
0.00198015
0.00199172
0.00200302
0.00201389
0.00202422
0.00203392
0.0020429
0.00205114
0.00205862
0.00206531
0.00207124
0.00207641
0.00208085
0.00208459
0.00208768
0.00209014
0.00209203
0.00209338
0.00209423
0.00209464
0.00203273
0.00203829
0.002046
0.00205533
0.00206586
0.00207719
0.00208898
0.00210093
0.00211281
0.00212442
0.00213558
0.00214619
0.00215614
0.00216537
0.00217383
0.0021815
0.00218837
0.00219445
0.00219976
0.00220431
0.00220816
0.00221132
0.00221385
0.00221578
0.00221717
0.00221805
0.00221847
0.00215476
0.00216047
0.00216837
0.00217795
0.00218875
0.00220037
0.00221245
0.00222471
0.00223689
0.00224878
0.00226023
0.0022711
0.00228129
0.00229075
0.00229942
0.00230727
0.00231431
0.00232054
0.00232597
0.00233064
0.00233458
0.00233782
0.00234041
0.00234239
0.00234381
0.00234471
0.00234513
0.00227972
0.00228556
0.00229365
0.00230346
0.00231451
0.0023264
0.00233876
0.0023513
0.00236376
0.00237593
0.00238764
0.00239875
0.00240918
0.00241884
0.0024277
0.00243574
0.00244293
0.0024493
0.00245485
0.00245962
0.00246364
0.00246696
0.0024696
0.00247163
0.00247307
0.00247399
0.00247443
0.00240739
0.00241336
0.00242162
0.00243164
0.00244292
0.00245506
0.00246769
0.00248049
0.00249321
0.00250563
0.00251757
0.00252892
0.00253955
0.00254941
0.00255845
0.00256665
0.00257398
0.00258048
0.00258614
0.002591
0.0025951
0.00259848
0.00260118
0.00260324
0.00260472
0.00260565
0.0026061
0.00253754
0.00254363
0.00255205
0.00256225
0.00257375
0.00258611
0.00259898
0.00261201
0.00262496
0.00263761
0.00264977
0.00266132
0.00267214
0.00268218
0.00269137
0.00269971
0.00270718
0.00271378
0.00271954
0.00272449
0.00272866
0.00273209
0.00273483
0.00273693
0.00273843
0.00273939
0.00273984
0.00266989
0.00267607
0.00268463
0.002695
0.00270669
0.00271925
0.00273232
0.00274556
0.00275871
0.00277155
0.0027839
0.00279562
0.00280661
0.00281679
0.00282613
0.00283458
0.00284216
0.00284886
0.0028547
0.00285972
0.00286395
0.00286743
0.00287021
0.00287234
0.00287386
0.00287483
0.00287529
0.0028041
0.00281037
0.00281904
0.00282955
0.00284139
0.00285412
0.00286735
0.00288076
0.00289408
0.00290708
0.00291958
0.00293144
0.00294256
0.00295287
0.00296231
0.00297086
0.00297852
0.0029853
0.00299121
0.00299628
0.00300056
0.00300408
0.00300689
0.00300904
0.00301058
0.00301155
0.00301202
0.00293977
0.00294611
0.00295487
0.00296548
0.00297744
0.00299029
0.00300365
0.00301719
0.00303063
0.00304375
0.00305636
0.00306832
0.00307953
0.00308992
0.00309944
0.00310806
0.00311578
0.00312261
0.00312856
0.00313368
0.00313798
0.00314153
0.00314436
0.00314653
0.00314808
0.00314906
0.00314953
0.00307645
0.00308282
0.00309164
0.00310232
0.00311435
0.00312728
0.00314072
0.00315433
0.00316784
0.00318102
0.0031937
0.00320571
0.00321698
0.00322741
0.00323697
0.00324563
0.00325338
0.00326023
0.0032662
0.00327133
0.00327565
0.00327921
0.00328205
0.00328422
0.00328578
0.00328677
0.00328724
0.00321358
0.00321997
0.00322881
0.00323951
0.00325156
0.00326451
0.00327796
0.00329159
0.00330512
0.0033183
0.00333098
0.003343
0.00335426
0.0033647
0.00337425
0.0033829
0.00339064
0.00339749
0.00340345
0.00340858
0.00341289
0.00341644
0.00341928
0.00342145
0.003423
0.00342399
0.00342445
0.00335054
0.00335691
0.00336572
0.00337639
0.0033884
0.00340131
0.00341471
0.00342829
0.00344175
0.00345488
0.0034675
0.00347946
0.00349066
0.00350103
0.00351053
0.00351913
0.00352682
0.00353362
0.00353955
0.00354464
0.00354892
0.00355245
0.00355527
0.00355742
0.00355896
0.00355994
0.0035604
0.00348659
0.0034929
0.00350164
0.00351222
0.00352413
0.00353691
0.00355019
0.00356363
0.00357696
0.00358995
0.00360243
0.00361425
0.00362533
0.00363558
0.00364496
0.00365345
0.00366105
0.00366776
0.00367362
0.00367864
0.00368287
0.00368635
0.00368912
0.00369125
0.00369277
0.00369373
0.00369419
0.0036209
0.00362713
0.00363574
0.00364615
0.00365787
0.00367045
0.00368352
0.00369673
0.00370983
0.0037226
0.00373485
0.00374646
0.00375733
0.00376739
0.00377659
0.00378492
0.00379237
0.00379895
0.00380468
0.0038096
0.00381374
0.00381715
0.00381987
0.00382195
0.00382343
0.00382438
0.00382483
0.00375257
0.00375865
0.00376706
0.00377724
0.00378869
0.00380097
0.00381372
0.00382661
0.00383938
0.00385182
0.00386376
0.00387507
0.00388564
0.00389543
0.00390438
0.00391247
0.00391971
0.0039261
0.00393167
0.00393645
0.00394047
0.00394378
0.00394642
0.00394843
0.00394988
0.00395079
0.00395123
0.00388056
0.00388645
0.0038946
0.00390445
0.00391553
0.00392741
0.00393974
0.00395219
0.00396453
0.00397654
0.00398805
0.00399896
0.00400915
0.00401858
0.00402719
0.00403498
0.00404195
0.0040481
0.00405345
0.00405804
0.0040619
0.00406508
0.00406762
0.00406955
0.00407094
0.00407182
0.00407223
0.00400379
0.00400945
0.00401725
0.00402669
0.0040373
0.00404867
0.00406045
0.00407235
0.00408414
0.0040956
0.00410658
0.00411697
0.00412669
0.00413566
0.00414386
0.00415127
0.0041579
0.00416374
0.00416882
0.00417318
0.00417685
0.00417987
0.00418227
0.00418411
0.00418542
0.00418626
0.00418665
0.00412114
0.00412649
0.00413388
0.00414281
0.00415283
0.00416358
0.0041747
0.00418593
0.00419704
0.00420784
0.00421818
0.00422795
0.00423708
0.00424551
0.00425321
0.00426017
0.00426637
0.00427185
0.00427661
0.0042807
0.00428413
0.00428695
0.0042892
0.00429092
0.00429215
0.00429293
0.0042933
0.00423145
0.00423644
0.00424334
0.00425166
0.004261
0.004271
0.00428135
0.00429179
0.0043021
0.00431212
0.0043217
0.00433076
0.0043392
0.004347
0.00435411
0.00436053
0.00436626
0.00437131
0.0043757
0.00437946
0.00438262
0.00438521
0.00438728
0.00438886
0.00438999
0.00439071
0.00439105
0.00433364
0.00433822
0.00434454
0.00435217
0.00436073
0.00436988
0.00437934
0.00438887
0.00439827
0.0044074
0.00441612
0.00442435
0.00443203
0.0044391
0.00444555
0.00445136
0.00445655
0.00446111
0.00446508
0.00446848
0.00447133
0.00447368
0.00447554
0.00447697
0.00447799
0.00447863
0.00447894
0.00442672
0.00443084
0.00443652
0.00444338
0.00445106
0.00445926
0.00446773
0.00447625
0.00448466
0.0044928
0.00450057
0.00450789
0.00451471
0.00452099
0.00452671
0.00453186
0.00453645
0.00454049
0.00454399
0.00454699
0.00454951
0.00455158
0.00455322
0.00455448
0.00455537
0.00455594
0.00455621
0.00450987
0.0045135
0.00451849
0.00452451
0.00453124
0.00453842
0.00454582
0.00455326
0.00456058
0.00456766
0.00457441
0.00458077
0.00458667
0.0045921
0.00459704
0.00460149
0.00460544
0.00460892
0.00461193
0.00461451
0.00461667
0.00461844
0.00461985
0.00462093
0.0046217
0.00462218
0.00462241
0.00458254
0.00458564
0.00458991
0.00459504
0.00460077
0.00460688
0.00461316
0.00461947
0.00462566
0.00463164
0.00463733
0.00464268
0.00464764
0.0046522
0.00465633
0.00466005
0.00466335
0.00466625
0.00466876
0.0046709
0.0046727
0.00467417
0.00467534
0.00467623
0.00467687
0.00467727
0.00467746
0.00464444
0.004647
0.00465053
0.00465476
0.00465949
0.00466451
0.00466967
0.00467483
0.00467989
0.00468477