/*--------------------------------*- C++ -*----------------------------------*\
| =========                 |                                                 |
| \\      /  F ield         | OpenFOAM: The Open Source CFD Toolbox           |
|  \\    /   O peration     | Version:  2106                                  |
|   \\  /    A nd           | Website:  www.openfoam.com                      |
|    \\/     M anipulation  |                                                 |
\*---------------------------------------------------------------------------*/
FoamFile
{
    version     2.0;
    format      ascii;
    arch        "LSB;label=32;scalar=64";
    class       volScalarField;
    location    "200.00032";
    object      CH4_0;
}
// * * * * * * * * * * * * * * * * * * * * * * * * * * * * * * * * * * * * * //

dimensions      [0 0 0 0 0 0 0];

internalField   nonuniform List<scalar> 
3360
(
0.000419988
0.000419988
0.000419988
0.000419988
0.000419988
0.000419988
0.000419988
0.000419988
0.000419988
0.000419988
0.000419988
0.000419988
0.000419988
0.000419988
0.000419988
0.000419988
0.000419988
0.000419988
0.000419988
0.000419988
0.000419988
0.000419988
0.000419988
0.000419988
0.000419988
0.000419988
0.000419988
0.000419988
0.000419988
0.000419988
0.000419988
0.000419988
0.000419988
0.000419988
0.000419988
0.000419988
0.000419988
0.000419988
0.000419988
0.000419988
0.000419988
0.000419988
0.000419988
0.000419988
0.000419988
0.000419988
0.000419988
0.000419988
0.000419988
0.000419988
0.000419988
0.000419988
0.000419988
0.000419988
0.000419988
0.000419988
0.000419988
0.000419988
0.000419988
0.000419988
0.000419988
0.000419988
0.000419988
0.000419988
0.000419988
0.000419988
0.000419988
0.000419988
0.000419988
0.000419988
0.000419988
0.000419988
0.000419988
0.000419988
0.000419988
0.000419988
0.000419988
0.000419988
0.000419988
0.000419988
0.000419988
0.000419988
0.000419988
0.000419988
0.000419988
0.000419988
0.000419988
0.000419988
0.000419988
0.000419988
0.000419988
0.000419988
0.000419988
0.000419988
0.000419988
0.000419988
0.000419988
0.000419988
0.000419988
0.000419988
0.000419988
0.000419988
0.000419988
0.000419988
0.000419988
0.000419988
0.000419988
0.000419988
0.000419988
0.000419988
0.000419988
0.000419988
0.000419988
0.000419988
0.000419988
0.000419988
0.000419988
0.000419988
0.000419988
0.000419988
0.000419988
0.000419988
0.000419988
0.000419988
0.000419988
0.000419988
0.000419988
0.000419988
0.000419988
0.000419988
0.000419988
0.000419988
0.000419988
0.000419988
0.000419988
0.000419988
0.000419988
0.000419988
0.000419988
0.000419988
0.000419988
0.000419988
0.000419988
0.000419988
0.000419988
0.000419988
0.000419988
0.000419988
0.000419988
0.000419988
0.000419988
0.000419988
0.000419988
0.000419988
0.000419988
0.000419988
0.000419988
0.000419988
0.000419988
0.000419988
0.000419988
0.000419988
0.000419988
0.000419988
0.000419988
0.000419988
0.000419988
0.000419988
0.000419988
0.000419988
0.000419988
0.000419988
0.000419988
0.000419988
0.000419988
0.000419988
0.000419988
0.000419988
0.000419988
0.000419988
0.000419988
0.000419988
0.000419988
0.000419988
0.000419988
0.000419988
0.000419988
0.000419988
0.000419988
0.000419988
0.000419988
0.000419988
0.000419988
0.000419988
0.000419988
0.000419988
0.000419988
0.000419988
0.000419988
0.000419988
0.000419988
0.000419988
0.000419988
0.000419988
0.000419988
0.000419988
0.000419988
0.000419988
0.000419988
0.000419988
0.000419988
0.000419988
0.000419988
0.000419988
0.000419988
0.000419988
0.000419988
0.000419988
0.000419988
0.000419988
0.000419988
0.000419988
0.000419988
0.000419988
0.000419988
0.000419988
0.000419988
0.000419988
0.000419988
0.000419988
0.000419988
0.000419988
0.000419988
0.000419988
0.000419988
0.000419988
0.000419988
0.000419988
0.000419988
0.000419988
0.000419988
0.000419988
0.000419988
0.000419988
0.000419988
0.000419988
0.000419988
0.000419988
0.000419988
0.000419988
0.000419988
0.000419988
0.000419988
0.000419988
0.000419988
0.000419988
0.000419988
0.000419988
0.000419988
0.000419988
0.000419988
0.000419988
0.000419988
0.000419988
0.000419988
0.000419988
0.000419988
0.000419988
0.000419988
0.000419988
0.000419988
0.000419988
0.000419988
0.000419988
0.000419988
0.000419988
0.000419988
0.000419988
0.000419988
0.000419988
0.000419988
0.000419988
0.000419988
0.000419988
0.000419988
0.000419988
0.000419988
0.000419988
0.000419988
0.000419988
0.000419988
0.000419988
0.000419988
0.000419988
0.000419988
0.000419988
0.000419988
0.000419988
0.000419988
0.000419988
0.000419988
0.000419988
0.000419988
0.000419988
0.000419988
0.000419988
0.000419988
0.000419988
0.000419988
0.000419988
0.000419988
0.000419988
0.000419988
0.000419988
0.000419988
0.000419988
0.000419988
0.000419988
0.000419988
0.000419988
0.000419988
0.000419988
0.000419988
0.000419988
0.000419988
0.000419988
0.000419988
0.000419988
0.000419988
0.000419988
0.000419988
0.000419988
0.000419988
0.000419988
0.000419988
0.000419988
0.000419988
0.000419988
0.000419988
0.000419988
0.000419988
0.000419988
0.000419988
0.000419988
0.000419988
0.000419988
0.000419988
0.000419988
0.000419988
0.000419988
0.000419988
0.000419988
0.000419988
0.000419988
0.000419988
0.000419988
0.000419988
0.000419988
0.000419988
0.000419988
0.000419988
0.000419988
0.000419988
0.000419988
0.000419988
0.000419988
0.000419988
0.000419988
0.000419988
0.000419988
0.000419988
0.000419988
0.000419988
0.000419988
0.000419988
0.000419988
0.000419988
0.000419988
0.000419988
0.000419988
0.000419988
0.000419988
0.000419988
0.000419988
0.000419988
0.000419988
0.000419988
0.000419988
0.000419988
0.000419988
0.000419988
0.000419988
0.000419988
0.000419988
0.000419988
0.000419988
0.000419988
0.000419988
0.000419988
0.000419988
0.000419988
0.000419988
0.000419988
0.000419988
0.000419988
0.000419988
0.000419988
0.000419988
0.000419988
0.000419988
0.000419988
0.000419988
0.000419988
0.000419988
0.000419988
0.000419988
0.000419988
0.000419988
0.000419988
0.000419988
0.000419988
0.000419988
0.000419988
0.000419988
0.000419988
0.000419988
0.000419988
0.000419988
0.000419988
0.000419988
0.000419988
0.000419988
0.000419988
0.000419988
0.000419988
0.000419988
0.000419988
0.000419988
0.000419988
0.000419988
0.000419988
0.000419988
0.000419988
0.000419988
0.000419988
0.000419988
0.000419988
0.000419988
0.000419988
0.000419988
0.000419988
0.000419988
0.000419988
0.000419988
0.000419988
0.000419988
0.000419988
0.000419988
0.000419988
0.000419988
0.000419988
0.000419988
0.000419988
0.000419988
0.000419988
0.000419988
0.000419988
0.000419988
0.000419988
0.000419988
0.000419988
0.000419988
0.000419988
0.000419988
0.000419988
0.000419988
0.000419988
0.000419988
0.000419988
0.000419988
0.000419988
0.000419988
0.000419988
0.000419988
0.000419988
0.000419988
0.000419988
0.000419988
0.000419988
0.000419988
0.000419988
0.000419988
0.000419988
0.000419988
0.000419988
0.000419988
0.000419988
0.000419988
0.000419988
0.000419988
0.000419988
0.000419988
0.000419988
0.000419988
0.000419988
0.000419988
0.000419988
0.000419988
0.000419988
0.000419988
0.000419988
0.000419988
0.000419988
0.000419988
0.000419988
0.000419988
0.000419988
0.000419988
0.000419988
0.000419988
0.000419988
0.000419988
0.000419988
0.000419988
0.000419988
0.000419988
0.000419988
0.000419988
0.000419988
0.000419988
0.000419988
0.000419988
0.000419988
0.000419988
0.000419988
0.000419988
0.000419988
0.000419988
0.000419988
0.000419988
0.000419988
0.000419988
0.000419988
0.000419988
0.000419988
0.000419988
0.000419988
0.000419988
0.000419988
0.000419988
0.000419988
0.000419988
0.000419988
0.000419988
0.000419988
0.000419988
0.000419988
0.000419988
0.000419988
0.000419988
0.000419988
0.000419988
0.000419988
0.000419988
0.000419988
0.000419988
0.000419988
0.000419988
0.000419988
0.000419988
0.000419988
0.000419988
0.000419988
0.000419988
0.000419988
0.000419988
0.000419988
0.000419988
0.000419988
0.000419988
0.000419988
0.000419988
0.000419988
0.000419988
0.000419988
0.000419988
0.000419988
0.000419988
0.000419988
0.000419988
0.000419988
0.000419988
0.000419988
0.000419988
0.000419988
0.000419988
0.000419988
0.000419988
0.000419988
0.000419988
0.000419988
0.000419988
0.000419988
0.000419988
0.000419988
0.000419989
0.000419989
0.000419989
0.000419989
0.000419989
0.000419989
0.000419989
0.000419989
0.000419989
0.000419989
0.000419989
0.000419989
0.000419989
0.000419989
0.000419989
0.000419989
0.000419988
0.000419988
0.000419989
0.000419989
0.000419989
0.000419989
0.000419989
0.000419989
0.000419989
0.000419989
0.00041999
0.00041999
0.00041999
0.00041999
0.00041999
0.00041999
0.00041999
0.00041999
0.000419991
0.000419991
0.000419991
0.000419991
0.000419991
0.000419991
0.000419991
0.000419991
0.000419991
0.000419989
0.00041999
0.00041999
0.00041999
0.00041999
0.000419991
0.000419991
0.000419991
0.000419992
0.000419992
0.000419993
0.000419993
0.000419993
0.000419994
0.000419994
0.000419994
0.000419995
0.000419995
0.000419995
0.000419996
0.000419996
0.000419996
0.000419996
0.000419996
0.000419996
0.000419996
0.000419996
0.000419993
0.000419993
0.000419993
0.000419994
0.000419995
0.000419996
0.000419997
0.000419998
0.000419999
0.00042
0.000420001
0.000420002
0.000420003
0.000420004
0.000420005
0.000420006
0.000420007
0.000420008
0.000420008
0.000420009
0.000420009
0.00042001
0.00042001
0.00042001
0.000420011
0.000420011
0.000420011
0.000420001
0.000420002
0.000420004
0.000420006
0.000420008
0.00042001
0.000420013
0.000420015
0.000420018
0.000420021
0.000420024
0.000420027
0.00042003
0.000420032
0.000420035
0.000420037
0.000420039
0.000420041
0.000420043
0.000420044
0.000420045
0.000420046
0.000420047
0.000420048
0.000420048
0.000420049
0.000420049
0.000420026
0.000420028
0.000420032
0.000420036
0.000420042
0.000420048
0.000420054
0.000420061
0.000420068
0.000420076
0.000420083
0.00042009
0.000420097
0.000420103
0.000420109
0.000420115
0.00042012
0.000420125
0.000420129
0.000420132
0.000420135
0.000420138
0.00042014
0.000420141
0.000420142
0.000420143
0.000420144
0.000420088
0.000420094
0.000420103
0.000420114
0.000420127
0.000420141
0.000420157
0.000420173
0.000420191
0.000420208
0.000420225
0.000420242
0.000420258
0.000420274
0.000420288
0.000420302
0.000420314
0.000420325
0.000420335
0.000420343
0.000420351
0.000420357
0.000420361
0.000420365
0.000420368
0.000420369
0.00042037
0.000420234
0.000420248
0.000420268
0.000420294
0.000420323
0.000420356
0.000420391
0.000420429
0.000420467
0.000420507
0.000420546
0.000420584
0.000420622
0.000420658
0.000420691
0.000420722
0.000420751
0.000420777
0.0004208
0.00042082
0.000420837
0.000420851
0.000420863
0.000420871
0.000420878
0.000420882
0.000420884
0.000420549
0.000420578
0.00042062
0.000420673
0.000420734
0.000420803
0.000420878
0.000420957
0.000421038
0.000421121
0.000421205
0.000421287
0.000421367
0.000421444
0.000421517
0.000421585
0.000421647
0.000421704
0.000421755
0.0004218
0.000421838
0.000421871
0.000421897
0.000421917
0.000421932
0.000421941
0.000421945
0.000421156
0.000421213
0.000421293
0.000421393
0.000421509
0.00042164
0.000421782
0.000421932
0.000422088
0.000422247
0.000422406
0.000422564
0.000422718
0.000422866
0.000423007
0.000423139
0.000423261
0.000423372
0.000423472
0.00042356
0.000423636
0.0004237
0.000423752
0.000423792
0.000423821
0.00042384
0.000423849
0.000422213
0.00042231
0.000422447
0.000422618
0.000422817
0.00042304
0.000423281
0.000423536
0.0004238
0.000424069
0.000424338
0.000424603
0.000424862
0.000425111
0.000425348
0.000425569
0.000425773
0.000425959
0.000426126
0.000426273
0.000426399
0.000426505
0.000426591
0.000426658
0.000426706
0.000426737
0.000426752
0.000423887
0.000424037
0.00042425
0.000424514
0.000424821
0.000425163
0.000425531
0.000425917
0.000426315
0.000426719
0.00042712
0.000427515
0.000427897
0.000428262
0.000428607
0.000428928
0.000429223
0.00042949
0.000429727
0.000429935
0.000430113
0.000430262
0.000430382
0.000430475
0.000430542
0.000430585
0.000430606
0.00042634
0.000426554
0.000426855
0.000427227
0.000427658
0.000428133
0.000428642
0.000429172
0.000429715
0.00043026
0.000430798
0.000431323
0.000431827
0.000432306
0.000432753
0.000433166
0.000433543
0.000433881
0.000434181
0.000434441
0.000434662
0.000434846
0.000434994
0.000435108
0.000435189
0.000435241
0.000435266
0.000429712
0.000429992
0.000430385
0.000430869
0.000431425
0.000432034
0.000432681
0.000433351
0.000434029
0.000434705
0.000435367
0.000436007
0.000436616
0.000437189
0.000437721
0.000438209
0.00043865
0.000439043
0.000439389
0.000439687
0.00043994
0.000440149
0.000440316
0.000440444
0.000440536
0.000440594
0.000440622
0.000434093
0.000434436
0.000434915
0.000435501
0.00043617
0.000436899
0.000437667
0.000438456
0.000439249
0.000440032
0.000440794
0.000441524
0.000442215
0.000442859
0.000443454
0.000443995
0.000444482
0.000444914
0.000445292
0.000445617
0.00044589
0.000446116
0.000446295
0.000446433
0.00044653
0.000446593
0.000446622
0.000439507
0.000439902
0.000440452
0.000441123
0.000441884
0.000442708
0.000443571
0.000444452
0.000445332
0.000446195
0.00044703
0.000447825
0.000448573
0.000449267
0.000449905
0.000450482
0.000451
0.000451457
0.000451856
0.000452197
0.000452484
0.00045272
0.000452908
0.000453051
0.000453153
0.000453217
0.000453248
0.000445904
0.000446339
0.000446942
0.000447675
0.000448503
0.000449395
0.000450325
0.00045127
0.000452209
0.000453127
0.00045401
0.000454848
0.000455632
0.000456359
0.000457023
0.000457624
0.00045816
0.000458633
0.000459045
0.000459397
0.000459692
0.000459935
0.000460128
0.000460275
0.000460379
0.000460446
0.000460477
0.000453183
0.000453644
0.000454282
0.000455054
0.000455925
0.000456861
0.000457833
0.000458817
0.000459792
0.000460743
0.000461654
0.000462517
0.000463324
0.000464068
0.000464748
0.000465362
0.00046591
0.000466392
0.000466811
0.000467169
0.00046747
0.000467716
0.000467912
0.000468062
0.000468168
0.000468235
0.000468267
0.000461208
0.000461684
0.000462341
0.000463136
0.00046403
0.000464989
0.000465983
0.000466988
0.000467982
0.000468949
0.000469874
0.000470749
0.000471566
0.00047232
0.000473007
0.000473627
0.00047418
0.000474667
0.00047509
0.000475452
0.000475755
0.000476004
0.000476202
0.000476353
0.000476461
0.000476529
0.000476561
0.00046984
0.000470322
0.000470987
0.000471791
0.000472694
0.000473662
0.000474664
0.000475675
0.000476675
0.000477647
0.000478577
0.000479455
0.000480275
0.000481031
0.000481721
0.000482343
0.000482897
0.000483386
0.00048381
0.000484173
0.000484478
0.000484728
0.000484927
0.000485079
0.000485187
0.000485255
0.000485288
0.000478947
0.000479429
0.000480094
0.000480898
0.0004818
0.000482766
0.000483767
0.000484777
0.000485774
0.000486744
0.000487671
0.000488548
0.000489366
0.00049012
0.000490809
0.00049143
0.000491984
0.000492472
0.000492896
0.000493259
0.000493564
0.000493814
0.000494013
0.000494165
0.000494274
0.000494343
0.000494375
0.000488412
0.00048889
0.000489551
0.000490349
0.000491244
0.000492204
0.000493197
0.0004942
0.000495191
0.000496153
0.000497075
0.000497946
0.000498759
0.00049951
0.000500195
0.000500813
0.000501365
0.000501851
0.000502274
0.000502637
0.000502941
0.000503191
0.00050339
0.000503542
0.000503651
0.00050372
0.000503752
0.000498138
0.000498611
0.000499264
0.000500054
0.00050094
0.000501889
0.000502872
0.000503865
0.000504846
0.000505801
0.000506714
0.000507578
0.000508385
0.00050913
0.000509811
0.000510425
0.000510974
0.000511458
0.000511879
0.00051224
0.000512543
0.000512793
0.000512992
0.000513143
0.000513252
0.000513321
0.000513353
0.000508048
0.000508515
0.00050916
0.000509939
0.000510814
0.000511752
0.000512724
0.000513706
0.000514677
0.000515621
0.000516526
0.000517382
0.000518182
0.000518921
0.000519597
0.000520207
0.000520752
0.000521233
0.000521652
0.000522011
0.000522313
0.000522562
0.00052276
0.000522911
0.000523019
0.000523088
0.00052312
0.000518079
0.00051854
0.000519176
0.000519945
0.000520809
0.000521736
0.000522696
0.000523666
0.000524627
0.000525561
0.000526457
0.000527305
0.000528098
0.000528831
0.000529501
0.000530107
0.000530648
0.000531126
0.000531543
0.0005319
0.0005322
0.000532447
0.000532644
0.000532795
0.000532903
0.000532971
0.000533004
0.000528184
0.000528638
0.000529266
0.000530025
0.000530878
0.000531794
0.000532743
0.000533702
0.000534652
0.000535577
0.000536464
0.000537304
0.00053809
0.000538817
0.000539481
0.000540083
0.00054062
0.000541095
0.000541509
0.000541864
0.000542162
0.000542408
0.000542604
0.000542754
0.000542862
0.00054293
0.000542962
0.000538324
0.000538773
0.000539393
0.000540142
0.000540985
0.00054189
0.000542829
0.000543777
0.000544718
0.000545633
0.000546512
0.000547344
0.000548123
0.000548844
0.000549503
0.0005501
0.000550633
0.000551105
0.000551516
0.000551868
0.000552165
0.00055241
0.000552605
0.000552754
0.000552861
0.000552929
0.000552961
0.000548471
0.000548914
0.000549527
0.000550268
0.000551102
0.000551996
0.000552925
0.000553864
0.000554795
0.000555702
0.000556572
0.000557397
0.000558169
0.000558884
0.000559538
0.00056013
0.00056066
0.000561128
0.000561536
0.000561886
0.000562181
0.000562424
0.000562618
0.000562766
0.000562873
0.00056294
0.000562972
0.000558603
0.000559041
0.000559647
0.00056038
0.000561205
0.00056209
0.000563009
0.000563939
0.000564861
0.00056576
0.000566622
0.00056744
0.000568206
0.000568915
0.000569563
0.000570151
0.000570677
0.000571141
0.000571546
0.000571894
0.000572187
0.000572429
0.000572621
0.000572769
0.000572874
0.000572941
0.000572973
0.000568702
0.000569135
0.000569735
0.00057046
0.000571277
0.000572154
0.000573064
0.000573985
0.000574899
0.000575789
0.000576644
0.000577455
0.000578214
0.000578918
0.000579561
0.000580144
0.000580666
0.000581127
0.000581529
0.000581875
0.000582166
0.000582405
0.000582597
0.000582743
0.000582848
0.000582915
0.000582946
0.000578755
0.000579184
0.000579778
0.000580496
0.000581305
0.000582173
0.000583075
0.000583988
0.000584894
0.000585776
0.000586624
0.000587428
0.000588181
0.000588879
0.000589517
0.000590096
0.000590613
0.000591071
0.00059147
0.000591813
0.000592102
0.00059234
0.00059253
0.000592675
0.00059278
0.000592846
0.000592877
0.000588752
0.000589177
0.000589765
0.000590477
0.000591278
0.000592139
0.000593032
0.000593937
0.000594835
0.00059571
0.000596551
0.000597348
0.000598095
0.000598787
0.00059942
0.000599994
0.000600508
0.000600962
0.000601358
0.000601698
0.000601985
0.000602221
0.00060241
0.000602554
0.000602658
0.000602723
0.000602755
0.000598685
0.000599106
0.000599689
0.000600394
0.000601188
0.000602041
0.000602927
0.000603824
0.000604714
0.000605582
0.000606415
0.000607206
0.000607947
0.000608633
0.000609262
0.000609831
0.00061034
0.000610791
0.000611184
0.000611522
0.000611806
0.000612041
0.000612228
0.000612371
0.000612474
0.000612539
0.00061257
0.000608547
0.000608965
0.000609542
0.000610242
0.000611029
0.000611874
0.000612752
0.000613642
0.000614524
0.000615384
0.000616211
0.000616995
0.00061773
0.00061841
0.000619034
0.000619598
0.000620104
0.000620551
0.000620941
0.000621276
0.000621558
0.000621791
0.000621976
0.000622119
0.00062222
0.000622285
0.000622316
0.000618335
0.000618748
0.000619321
0.000620014
0.000620794
0.000621632
0.000622503
0.000623385
0.000624259
0.000625112
0.000625932
0.00062671
0.000627438
0.000628113
0.000628731
0.000629291
0.000629792
0.000630236
0.000630623
0.000630955
0.000631235
0.000631466
0.00063165
0.000631791
0.000631892
0.000631956
0.000631986
0.000628042
0.000628453
0.00062902
0.000629707
0.00063048
0.000631311
0.000632174
0.000633048
0.000633915
0.000634761
0.000635574
0.000636345
0.000637067
0.000637736
0.000638349
0.000638905
0.000639402
0.000639841
0.000640225
0.000640554
0.000640832
0.000641061
0.000641244
0.000641383
0.000641483
0.000641547
0.000641577
0.000637667
0.000638074
0.000638636
0.000639317
0.000640084
0.000640907
0.000641763
0.000642629
0.000643489
0.000644327
0.000645133
0.000645897
0.000646613
0.000647277
0.000647884
0.000648435
0.000648928
0.000649363
0.000649744
0.00065007
0.000650346
0.000650572
0.000650754
0.000650892
0.000650991
0.000651055
0.000651085
0.000647207
0.00064761
0.000648167
0.000648842
0.000649601
0.000650418
0.000651265
0.000652124
0.000652976
0.000653807
0.000654606
0.000655363
0.000656073
0.00065673
0.000657332
0.000657878
0.000658367
0.000658799
0.000659175
0.000659499
0.000659772
0.000659997
0.000660176
0.000660314
0.000660412
0.000660475
0.000660504
0.000656657
0.000657056
0.000657609
0.000658277
0.00065903
0.000659839
0.000660679
0.00066153
0.000662374
0.000663197
0.000663989
0.000664739
0.000665442
0.000666094
0.000666691
0.000667231
0.000667715
0.000668143
0.000668517
0.000668837
0.000669108
0.00066933
0.000669508
0.000669644
0.000669742
0.000669804
0.000669833
0.000666016
0.000666412
0.000666959
0.000667621
0.000668367
0.000669168
0.000670001
0.000670843
0.00067168
0.000672495
0.000673279
0.000674023
0.000674719
0.000675364
0.000675955
0.000676491
0.00067697
0.000677394
0.000677764
0.000678082
0.000678349
0.00067857
0.000678746
0.000678881
0.000678978
0.000679039
0.000679068
0.000675281
0.000675673
0.000676215
0.000676871
0.000677609
0.000678403
0.000679227
0.000680062
0.00068089
0.000681697
0.000682474
0.00068321
0.000683899
0.000684538
0.000685123
0.000685654
0.000686128
0.000686548
0.000686914
0.000687229
0.000687494
0.000687712
0.000687886
0.00068802
0.000688116
0.000688176
0.000688205
0.000684449
0.000684837
0.000685373
0.000686023
0.000686754
0.000687539
0.000688355
0.000689181
0.000690001
0.0006908
0.000691568
0.000692297
0.000692979
0.000693612
0.000694191
0.000694715
0.000695185
0.0006956
0.000695963
0.000696274
0.000696536
0.000696752
0.000696925
0.000697057
0.000697151
0.000697212
0.00069724
0.000693516
0.0006939
0.00069443
0.000695073
0.000695796
0.000696573
0.00069738
0.000698197
0.000699008
0.000699799
0.000700559
0.000701279
0.000701955
0.00070258
0.000703153
0.000703672
0.000704136
0.000704547
0.000704905
0.000705213
0.000705472
0.000705686
0.000705857
0.000705987
0.000706081
0.00070614
0.000706168
0.000702477
0.000702857
0.000703381
0.000704017
0.000704732
0.0007055
0.000706298
0.000707106
0.000707907
0.000708689
0.00070944
0.000710152
0.00071082
0.000711438
0.000712004
0.000712517
0.000712976
0.000713382
0.000713736
0.00071404
0.000714296
0.000714507
0.000714676
0.000714805
0.000714897
0.000714956
0.000714984
0.000711328
0.000711703
0.000712222
0.000712849
0.000713556
0.000714314
0.000715103
0.000715901
0.000716692
0.000717464
0.000718206
0.00071891
0.000719569
0.000720179
0.000720738
0.000721244
0.000721697
0.000722098
0.000722448
0.000722748
0.000723001
0.000723209
0.000723376
0.000723503
0.000723594
0.000723652
0.00072368
0.000720062
0.000720432
0.000720944
0.000721563
0.00072226
0.000723009
0.000723787
0.000724575
0.000725356
0.000726117
0.000726849
0.000727543
0.000728193
0.000728795
0.000729346
0.000729846
0.000730293
0.000730688
0.000731033
0.000731329
0.000731578
0.000731783
0.000731948
0.000732073
0.000732163
0.00073222
0.000732247
0.000728671
0.000729036
0.00072954
0.000730151
0.000730838
0.000731576
0.000732343
0.000733119
0.000733888
0.000734639
0.00073536
0.000736043
0.000736684
0.000737277
0.00073782
0.000738311
0.000738752
0.000739141
0.00073948
0.000739772
0.000740017
0.000740219
0.000740381
0.000740505
0.000740593
0.000740649
0.000740676
0.000737145
0.000737504
0.000738001
0.000738602
0.000739278
0.000740005
0.000740759
0.000741522
0.00074228
0.000743018
0.000743727
0.000744399
0.000745029
0.000745612
0.000746146
0.000746629
0.000747062
0.000747444
0.000747778
0.000748064
0.000748306
0.000748505
0.000748663
0.000748785
0.000748872
0.000748927
0.000748953
0.000745473
0.000745826
0.000746314
0.000746904
0.000747569
0.000748282
0.000749023
0.000749773
0.000750516
0.000751241
0.000751937
0.000752596
0.000753214
0.000753786
0.00075431
0.000754784
0.000755209
0.000755584
0.000755911
0.000756192
0.000756429
0.000756624
0.000756779
0.000756898
0.000756984
0.000757038
0.000757064
0.000753641
0.000753987
0.000754465
0.000755043
0.000755694
0.000756393
0.000757119
0.000757853
0.000758581
0.000759291
0.000759972
0.000760618
0.000761223
0.000761783
0.000762295
0.000762759
0.000763175
0.000763542
0.000763862
0.000764136
0.000764368
0.000764558
0.000764711
0.000764827
0.00076491
0.000764963
0.000764989
0.000761631
0.000761969
0.000762436
0.000763001
0.000763637
0.00076432
0.000765029
0.000765746
0.000766457
0.000767149
0.000767815
0.000768445
0.000769035
0.000769581
0.000770081
0.000770533
0.000770938
0.000771296
0.000771608
0.000771875
0.000772101
0.000772287
0.000772435
0.000772549
0.00077263
0.000772681
0.000772706
0.000769422
0.000769751
0.000770206
0.000770757
0.000771376
0.000772041
0.00077273
0.000773428
0.000774119
0.000774793
0.000775439
0.000776052
0.000776625
0.000777156
0.000777641
0.000778081
0.000778474
0.000778821
0.000779124
0.000779384
0.000779603
0.000779783
0.000779927
0.000780037
0.000780116
0.000780166
0.00078019
0.000776991
0.00077731
0.000777751
0.000778285
0.000778885
0.000779529
0.000780197
0.000780873
0.000781542
0.000782194
0.00078282
0.000783412
0.000783967
0.00078448
0.000784949
0.000785374
0.000785753
0.000786089
0.000786381
0.000786632
0.000786844
0.000787018
0.000787157
0.000787263
0.000787339
0.000787387
0.00078741
0.00078431
0.000784617
0.000785043
0.000785557
0.000786136
0.000786756
0.0007874
0.00078805
0.000788695
0.000789322
0.000789924
0.000790494
0.000791027
0.00079152
0.00079197
0.000792378
0.000792743
0.000793065
0.000793346
0.000793587
0.000793789
0.000793956
0.00079409
0.000794192
0.000794265
0.000794311
0.000794333
0.000791345
0.00079164
0.000792048
0.000792541
0.000793094
0.000793688
0.000794304
0.000794926
0.000795542
0.000796141
0.000796716
0.00079726
0.000797769
0.000798239
0.000798669
0.000799058
0.000799405
0.000799712
0.00079998
0.000800209
0.000800402
0.000800561
0.000800688
0.000800785
0.000800854
0.000800898
0.000800919
0.000798062
0.000798342
0.00079873
0.000799198
0.000799724
0.000800287
0.000800872
0.000801462
0.000802045
0.000802613
0.000803157
0.000803672
0.000804153
0.000804598
0.000805004
0.000805371
0.000805699
0.000805989
0.000806241
0.000806458
0.00080664
0.00080679
0.000806909
0.000807001
0.000807066
0.000807108
0.000807127
0.00080442
0.000804684
0.000805048
0.000805489
0.000805983
0.000806513
0.000807061
0.000807615
0.000808162
0.000808695
0.000809204
0.000809686
0.000810137
0.000810552
0.000810932
0.000811275
0.000811582
0.000811852
0.000812087
0.000812289
0.000812459
0.000812599
0.00081271
0.000812795
0.000812856
0.000812895
0.000812913
0.000810376
0.000810622
0.00081096
0.00081137
0.000811829
0.000812321
0.00081283
0.000813343
0.00081385
0.000814343
0.000814814
0.000815259
0.000815675
0.000816059
0.000816409
0.000816725
0.000817007
0.000817256
0.000817473
0.000817659
0.000817815
0.000817943
0.000818046
0.000818124
0.00081818
0.000818215
0.000818232
0.000815887
0.000816112
0.000816423
0.000816798
0.000817218
0.000817668
0.000818133
0.000818602
0.000819064
0.000819513
0.000819942
0.000820347
0.000820725
0.000821074
0.000821391
0.000821678
0.000821934
0.000822159
0.000822355
0.000822523
0.000822664
0.00082278
0.000822873
0.000822944
0.000822994
0.000823026
0.000823042
0.000820911
0.000821114
0.000821394
0.000821731
0.000822109
0.000822513
0.00082293
0.00082335
0.000823765
0.000824166
0.00082455
0.000824911
0.000825248
0.000825558
0.000825841
0.000826096
0.000826323
0.000826523
0.000826697
0.000826846
0.000826971
0.000827074
0.000827156
0.000827218
0.000827263
0.000827291
0.000827305
0.000825409
0.000825588
0.000825835
0.000826132
0.000826465
0.00082682
0.000827186
0.000827555
0.000827917
0.000828269
0.000828603
0.000828919
0.000829212
0.000829482
0.000829728
0.000829949
0.000830146
0.00083032
0.00083047
0.000830599
0.000830707
0.000830796
0.000830867
0.000830921
0.00083096
0.000830984
0.000830996
0.000829351
0.000829505
0.000829718
0.000829973
0.000830258
0.000830563
0.000830876
0.000831191
0.0008315
0.000831799
0.000832083
0.000832351
0.000832599
0.000832828
0.000833036
0.000833222
0.000833388
0.000833534
0.000833661
0.000833769
0.00083386
0.000833935
0.000833994
0.000834039
0.000834072
0.000834092
0.000834102
0.00083272
0.000832849
0.000833026
0.000833239
0.000833476
0.000833729
0.000833988
0.000834249
0.000834504
0.00083475
0.000834984
0.000835204
0.000835408
0.000835595
0.000835764
0.000835917
0.000836052
0.000836171
0.000836274
0.000836362
0.000836436
0.000836496
0.000836544
0.000836581
0.000836607
0.000836624
0.000836631
0.000835515
0.000835618
0.00083576
0.000835931
0.000836121
0.000836324
0.000836531
0.000836738
0.000836941
0.000837137
0.000837322
0.000837495
0.000837656
0.000837803
0.000837936
0.000838056
0.000838161
0.000838254
0.000838335
0.000838403
0.000838461
0.000838508
0.000838545
0.000838574
0.000838594
0.000838607
0.000838613
0.000837753
0.000837832
0.000837942
0.000838073
0.000838219
0.000838374
0.000838532
0.00083869
0.000838844
0.000838992
0.000839132
0.000839263
0.000839384
0.000839494
0.000839594
0.000839684
0.000839763
0.000839832
0.000839892
0.000839943
0.000839985
0.00084002
0.000840048
0.000840069
0.000840084
0.000840094
0.000840098
0.000839474
0.000839532
0.000839613
0.000839708
0.000839814
0.000839927
0.000840041
0.000840156
0.000840267
0.000840373
0.000840473
0.000840567
0.000840653
0.000840732
0.000840802
0.000840866
0.000840922
0.00084097
0.000841013
0.000841048
0.000841078
0.000841103
0.000841122
0.000841137
0.000841148
0.000841155
0.000841158
0.000840738
0.000840778
0.000840833
0.000840899
0.000840972
0.000841048
0.000841127
0.000841204
0.000841279
0.000841351
0.000841419
0.000841482
0.000841539
0.000841592
0.000841639
0.000841681
0.000841719
0.000841751
0.000841779
0.000841803
0.000841823
0.000841839
0.000841852
0.000841862
0.000841869
0.000841873
0.000841875
0.00084162
0.000841645
0.000841681
0.000841722
0.000841769
0.000841817
0.000841867
0.000841916
0.000841964
0.000842009
0.000842052
0.000842091
0.000842127
0.00084216
0.00084219
0.000842216
0.000842239
0.00084226
0.000842277
0.000842292
0.000842304
0.000842314
0.000842323
0.000842329
0.000842333
0.000842336
0.000842337
0.000842201
0.000842216
0.000842237
0.000842261
0.000842288
0.000842317
0.000842346
0.000842375
0.000842403
0.00084243
0.000842455