/*--------------------------------*- C++ -*----------------------------------*\
| =========                 |                                                 |
| \\      /  F ield         | OpenFOAM: The Open Source CFD Toolbox           |
|  \\    /   O peration     | Version:  2106                                  |
|   \\  /    A nd           | Website:  www.openfoam.com                      |
|    \\/     M anipulation  |                                                 |
\*---------------------------------------------------------------------------*/
FoamFile
{
    version     2.0;
    format      ascii;
    arch        "LSB;label=32;scalar=64";
    class       volScalarField;
    location    "200.00032";
    object      H;
}
// * * * * * * * * * * * * * * * * * * * * * * * * * * * * * * * * * * * * * //

dimensions      [0 0 0 0 0 0 0];

internalField   nonuniform List<scalar> 
3360
(
8.53486e-30
9.0689e-30
9.82091e-30
1.07554e-29
1.18413e-29
1.30498e-29
1.4353e-29
1.57239e-29
1.71363e-29
1.85653e-29
1.99875e-29
2.13816e-29
2.27282e-29
2.40109e-29
2.52156e-29
2.63311e-29
2.7349e-29
2.82634e-29
2.9071e-29
2.97707e-29
3.03636e-29
3.08527e-29
3.12423e-29
3.15386e-29
3.17484e-29
3.18796e-29
3.19408e-29
4.31634e-29
4.61508e-29
5.04212e-29
5.58335e-29
6.22803e-29
6.9671e-29
7.79236e-29
8.69591e-29
9.66974e-29
1.07054e-28
1.1794e-28
1.29256e-28
1.40895e-28
1.52738e-28
1.64657e-28
1.76515e-28
1.88168e-28
1.99463e-28
2.10241e-28
2.20343e-28
2.2961e-28
2.37888e-28
2.45035e-28
2.50922e-28
2.5544e-28
2.58504e-28
2.60053e-28
1.64988e-28
1.78557e-28
1.98196e-28
2.23487e-28
2.54163e-28
2.90017e-28
3.30838e-28
3.76372e-28
4.26292e-28
4.80175e-28
5.37482e-28
5.97572e-28
6.59716e-28
7.23099e-28
7.86833e-28
8.49975e-28
9.11556e-28
9.70608e-28
1.02619e-27
1.07744e-27
1.12358e-27
1.16393e-27
1.198e-27
1.22539e-27
1.24589e-27
1.25944e-27
1.26611e-27
5.96171e-28
6.52165e-28
7.34224e-28
8.41393e-28
9.73313e-28
1.12975e-27
1.31031e-27
1.51417e-27
1.74e-27
1.98581e-27
2.24895e-27
2.5261e-27
2.81338e-27
3.10638e-27
3.40035e-27
3.69029e-27
3.97125e-27
4.23846e-27
4.48755e-27
4.71472e-27
4.91682e-27
5.09148e-27
5.23706e-27
5.3527e-27
5.43822e-27
5.49408e-27
5.52128e-27
2.21606e-27
2.4447e-27
2.78194e-27
3.22569e-27
3.77617e-27
4.43375e-27
5.19758e-27
6.06455e-27
7.02864e-27
8.08049e-27
9.20738e-27
1.03935e-26
1.16206e-26
1.28682e-26
1.4115e-26
1.53393e-26
1.65199e-26
1.76372e-26
1.86737e-26
1.96146e-26
2.04481e-26
2.11654e-26
2.17611e-26
2.22326e-26
2.25802e-26
2.28066e-26
2.29166e-26
8.45357e-27
9.37857e-27
1.07484e-26
1.25584e-26
1.48124e-26
1.75136e-26
2.06595e-26
2.4237e-26
2.822e-26
3.25681e-26
3.72264e-26
4.21269e-26
4.71906e-26
5.23313e-26
5.74586e-26
6.24822e-26
6.73154e-26
7.18786e-26
7.61019e-26
7.99266e-26
8.33069e-26
8.62101e-26
8.86161e-26
9.05172e-26
9.19164e-26
9.28266e-26
9.32682e-26
3.2796e-26
3.65212e-26
4.20499e-26
4.93722e-26
5.85108e-26
6.94834e-26
8.22786e-26
9.68404e-26
1.13057e-25
1.30758e-25
1.49711e-25
1.69634e-25
1.90202e-25
2.11058e-25
2.31837e-25
2.52173e-25
2.71716e-25
2.9015e-25
3.07194e-25
3.22618e-25
3.36241e-25
3.47934e-25
3.57621e-25
3.65274e-25
3.70906e-25
3.7457e-25
3.76348e-25
1.28505e-25
1.4341e-25
1.65566e-25
1.94955e-25
2.31688e-25
2.75851e-25
3.27412e-25
3.86147e-25
4.51604e-25
5.23082e-25
5.99641e-25
6.80125e-25
7.63208e-25
8.47451e-25
9.31365e-25
1.01347e-24
1.09236e-24
1.16676e-24
1.23553e-24
1.29776e-24
1.35271e-24
1.39989e-24
1.43897e-24
1.46986e-24
1.49261e-24
1.50742e-24
1.51461e-24
5.06969e-25
5.66651e-25
6.55439e-25
7.73332e-25
9.20834e-25
1.09834e-24
1.30574e-24
1.54215e-24
1.80577e-24
2.09377e-24
2.40236e-24
2.72687e-24
3.06198e-24
3.40189e-24
3.74061e-24
4.07218e-24
4.39094e-24
4.69172e-24
4.97e-24
5.22201e-24
5.44483e-24
5.63634e-24
5.79529e-24
5.92113e-24
6.01404e-24
6.0747e-24
6.10429e-24
2.00615e-24
2.2446e-24
2.59971e-24
3.07176e-24
3.66311e-24
4.37566e-24
5.20932e-24
6.16088e-24
7.22331e-24
8.38551e-24
9.63244e-24
1.09455e-23
1.23032e-23
1.36823e-23
1.50584e-23
1.64076e-23
1.77066e-23
1.89344e-23
2.00723e-23
2.11048e-23
2.20196e-23
2.28079e-23
2.3464e-23
2.39853e-23
2.43718e-23
2.46254e-23
2.47499e-23
7.96937e-24
8.92549e-24
1.03506e-23
1.22472e-23
1.46263e-23
1.74975e-23
2.08623e-23
2.47097e-23
2.90133e-23
3.37304e-23
3.88017e-23
4.41533e-23
4.96997e-23
5.53468e-23
6.09962e-23
6.65492e-23
7.19112e-23
7.69943e-23
8.17208e-23
8.60248e-23
8.98536e-23
9.31676e-23
9.59402e-23
9.81564e-23
9.98109e-23
1.00906e-22
1.01449e-22
3.17432e-23
3.55874e-23
4.13253e-23
4.89754e-23
5.85922e-23
7.02258e-23
8.38958e-23
9.95719e-23
1.17162e-22
1.36506e-22
1.57376e-22
1.79481e-22
2.02479e-22
2.25988e-22
2.49605e-22
2.7292e-22
2.95534e-22
3.17074e-22
3.37205e-22
3.55636e-22
3.7213e-22
3.86502e-22
3.98616e-22
4.08383e-22
4.15748e-22
4.20682e-22
4.23162e-22
1.27053e-22
1.42634e-22
1.65932e-22
1.97071e-22
2.3633e-22
2.83985e-22
3.40196e-22
4.04925e-22
4.77887e-22
5.58513e-22
6.45945e-22
7.3905e-22
8.36458e-22
9.36613e-22
1.03784e-21
1.13839e-21
1.23657e-21
1.33072e-21
1.41935e-21
1.50113e-21
1.57492e-21
1.63982e-21
1.69508e-21
1.74015e-21
1.77458e-21
1.79798e-21
1.80994e-21
5.11228e-22
5.74939e-22
6.7048e-22
7.98653e-22
9.60988e-22
1.15907e-21
1.39407e-21
1.66639e-21
1.97543e-21
2.31937e-21
2.69511e-21
3.09832e-21
3.52351e-21
3.96425e-21
4.41338e-21
4.86337e-21
5.30653e-21
5.73539e-21
6.14288e-21
6.52258e-21
6.86883e-21
7.17674e-21
7.44218e-21
7.66156e-21
7.83164e-21
7.94912e-21
8.01023e-21
2.07664e-21
2.34125e-21
2.73965e-21
3.27693e-21
3.96174e-21
4.80339e-21
5.80991e-21
6.98638e-21
8.33365e-21
9.84738e-21
1.15174e-20
1.33276e-20
1.52561e-20
1.72759e-20
1.93559e-20
2.1462e-20
2.35585e-20
2.56096e-20
2.75804e-20
2.94383e-20
3.11529e-20
3.26972e-20
3.40463e-20
3.51771e-20
3.60669e-20
3.66911e-20
3.7021e-20
8.55027e-21
9.67176e-21
1.13695e-20
1.36758e-20
1.66408e-20
2.03206e-20
2.47684e-20
3.00269e-20
3.61208e-20
4.30521e-20
5.0795e-20
5.92939e-20
6.84626e-20
7.81862e-20
8.83244e-20
9.87167e-20
1.09189e-19
1.1956e-19
1.29648e-19
1.39275e-19
1.48272e-19
1.56478e-19
1.6374e-19
1.69907e-19
1.74824e-19
1.78319e-19
1.80189e-19
3.59573e-20
4.08507e-20
4.83124e-20
5.85443e-20
7.18456e-20
8.85605e-20
1.09037e-19
1.33586e-19
1.6245e-19
1.95761e-19
2.33517e-19
2.75558e-19
3.21555e-19
3.7101e-19
4.23264e-19
4.77529e-19
5.32905e-19
5.88426e-19
6.43087e-19
6.95872e-19
7.4578e-19
7.91826e-19
8.33033e-19
8.68409e-19
8.96901e-19
9.17341e-19
9.28372e-19
1.56088e-19
1.78298e-19
2.12474e-19
2.59884e-19
3.22355e-19
4.02033e-19
5.01182e-19
6.21982e-19
7.66322e-19
9.35578e-19
1.13042e-18
1.35064e-18
1.59506e-18
1.86144e-18
2.14657e-18
2.44631e-18
2.75579e-18
3.06952e-18
3.38167e-18
3.68615e-18
3.97679e-18
4.24735e-18
4.49148e-18
4.70263e-18
4.87377e-18
4.99717e-18
5.064e-18
7.09964e-19
8.16275e-19
9.81582e-19
1.21396e-18
1.52484e-18
1.92781e-18
2.43769e-18
3.06935e-18
3.83643e-18
4.74999e-18
5.81714e-18
7.03987e-18
8.41416e-18
9.92953e-18
1.1569e-17
1.33096e-17
1.51229e-17
1.69767e-17
1.88353e-17
2.06609e-17
2.24145e-17
2.4056e-17
2.55439e-17
2.68352e-17
2.78843e-17
2.86413e-17
2.90511e-17
3.44864e-18
3.99407e-18
4.85167e-18
6.07388e-18
7.73389e-18
9.91981e-18
1.2729e-17
1.62612e-17
2.06103e-17
2.58554e-17
3.20514e-17
3.92213e-17
4.73498e-17
5.63801e-17
6.62135e-17
7.67117e-17
8.77021e-17
9.89837e-17
1.10334e-16
1.21516e-16
1.32279e-16
1.42369e-16
1.51519e-16
1.59457e-16
1.65895e-16
1.70526e-16
1.73022e-16
1.82689e-17
2.13238e-17
2.61776e-17
3.31813e-17
4.28192e-17
5.56737e-17
7.23887e-17
9.3623e-17
1.19994e-16
1.52015e-16
1.90037e-16
2.34195e-16
2.84371e-16
3.4018e-16
4.00969e-16
4.65841e-16
5.33687e-16
6.03231e-16
6.7307e-16
7.41717e-16
8.07624e-16
8.69207e-16
9.24849e-16
9.72899e-16
1.01166e-15
1.03937e-15
1.05419e-15
1.07052e-16
1.25966e-16
1.56283e-16
2.00466e-16
2.61857e-16
3.44431e-16
4.52517e-16
5.90447e-16
7.62138e-16
9.70667e-16
1.21787e-15
1.50404e-15
1.82774e-15
2.18578e-15
2.57329e-15
2.98397e-15
3.41034e-15
3.84406e-15
4.27623e-15
4.69763e-15
5.09892e-15
5.47072e-15
5.80374e-15
6.08872e-15
6.31641e-15
6.47757e-15
6.56287e-15
6.89466e-16
8.17909e-16
1.0253e-15
1.32989e-15
1.75616e-15
2.33279e-15
3.09056e-15
4.05951e-15
5.26592e-15
6.7292e-15
8.45927e-15
1.04547e-14
1.27016e-14
1.51743e-14
1.78356e-14
2.06392e-14
2.35313e-14
2.64533e-14
2.93434e-14
3.21389e-14
3.47774e-14
3.71984e-14
3.93435e-14
4.11571e-14
4.25871e-14
4.35846e-14
4.41044e-14
4.69593e-15
5.61202e-15
7.10036e-15
9.30175e-15
1.24044e-14
1.6631e-14
2.22233e-14
2.94245e-14
3.84586e-14
4.95098e-14
6.27049e-14
7.80983e-14
9.56625e-14
1.15283e-13
1.36754e-13
1.59783e-13
1.83993e-13
2.08927e-13
2.34064e-13
2.58828e-13
2.82599e-13
3.0474e-13
3.24605e-13
3.41566e-13
3.55029e-13
3.64453e-13
3.69362e-13
3.1789e-14
3.8202e-14
4.86757e-14
6.42728e-14
8.64409e-14
1.16951e-13
1.57836e-13
2.11312e-13
2.79688e-13
3.65253e-13
4.70143e-13
5.96196e-13
7.44783e-13
9.1662e-13
1.11157e-12
1.32843e-12
1.56479e-12
1.81692e-12
2.07971e-12
2.34676e-12
2.61057e-12
2.86274e-12
3.09439e-12
3.29642e-12
3.45994e-12
3.57648e-12
3.63825e-12
2.04121e-13
2.46662e-13
3.16555e-13
4.21517e-13
5.72329e-13
7.82666e-13
1.06893e-12
1.44986e-12
1.94576e-12
2.57715e-12
3.36274e-12
4.31655e-12
5.44444e-12
6.74058e-12
8.18481e-12
9.74234e-12
1.13663e-11
1.30029e-11
1.45981e-11
1.61026e-11
1.74762e-11
1.86885e-11
1.97183e-11
2.05519e-11
2.11812e-11
2.16018e-11
2.18121e-11
1.28115e-12
1.56441e-12
2.03328e-12
2.74339e-12
3.77175e-12
5.21358e-12
7.17558e-12
9.76241e-12
1.30544e-11
1.70787e-11
2.17839e-11
2.70321e-11
3.262e-11
3.8322e-11
4.39337e-11
4.92977e-11
5.43064e-11
5.88925e-11
6.30172e-11
6.66605e-11
6.98149e-11
7.24814e-11
7.46669e-11
7.63823e-11
7.7642e-11
7.84628e-11
7.88632e-11
8.6235e-12
1.05394e-11
1.36628e-11
1.82694e-11
2.46633e-11
3.30809e-11
4.35865e-11
5.60055e-11
6.99489e-11
8.49252e-11
1.00462e-10
1.16169e-10
1.31738e-10
1.46923e-10
1.61524e-10
1.75367e-10
1.88306e-10
2.00224e-10
2.11027e-10
2.20647e-10
2.2904e-10
2.36182e-10
2.42067e-10
2.46706e-10
2.50123e-10
2.52353e-10
2.53442e-10
5.38693e-11
6.27814e-11
7.62603e-11
9.43304e-11
1.16899e-10
1.43707e-10
1.74381e-10
2.08495e-10
2.45594e-10
2.85202e-10
3.26794e-10
3.698e-10
4.1363e-10
4.57686e-10
5.01371e-10
5.44104e-10
5.85329e-10
6.24522e-10
6.61201e-10
6.94926e-10
7.25305e-10
7.51991e-10
7.74687e-10
7.93145e-10
8.07164e-10
8.16595e-10
8.21336e-10
1.89161e-10
2.10869e-10
2.4303e-10
2.85504e-10
3.38353e-10
4.01667e-10
4.75419e-10
5.59468e-10
6.53514e-10
7.57069e-10
8.69444e-10
9.89739e-10
1.11685e-09
1.24945e-09
1.38604e-09
1.5249e-09
1.66414e-09
1.80172e-09
1.93546e-09
2.06306e-09
2.18218e-09
2.29047e-09
2.38561e-09
2.46538e-09
2.52774e-09
2.57081e-09
2.59301e-09
4.23295e-10
4.66778e-10
5.31568e-10
6.17904e-10
7.26645e-10
8.58923e-10
1.01593e-09
1.19877e-09
1.40829e-09
1.645e-09
1.9089e-09
2.19935e-09
2.51496e-09
2.85348e-09
3.21171e-09
3.58543e-09
3.96944e-09
4.35757e-09
4.7428e-09
5.11746e-09
5.47335e-09
5.80207e-09
6.09522e-09
6.34464e-09
6.54219e-09
6.68027e-09
6.75209e-09
7.51617e-10
8.26921e-10
9.39617e-10
1.09077e-09
1.28279e-09
1.51881e-09
1.80232e-09
2.13676e-09
2.5252e-09
2.96993e-09
3.47212e-09
4.03146e-09
4.64581e-09
5.31099e-09
6.02061e-09
6.76606e-09
7.53664e-09
8.31982e-09
9.1015e-09
9.86412e-09
1.05895e-08
1.12594e-08
1.18558e-08
1.23616e-08
1.27604e-08
1.3038e-08
1.3182e-08
1.19982e-09
1.31869e-09
1.49675e-09
1.73583e-09
2.03988e-09
2.41385e-09
2.86301e-09
3.39228e-09
4.00557e-09
4.70522e-09
5.4915e-09
6.36218e-09
7.31238e-09
8.33447e-09
9.41776e-09
1.05453e-08
1.16979e-08
1.28543e-08
1.39919e-08
1.50873e-08
1.61168e-08
1.70572e-08
1.78863e-08
1.85825e-08
1.91269e-08
1.9503e-08
1.96968e-08
1.93111e-09
2.10958e-09
2.3751e-09
2.7283e-09
3.17229e-09
3.71107e-09
4.34845e-09
5.08719e-09
5.92858e-09
6.87198e-09
7.91596e-09
9.05092e-09
1.02639e-08
1.15392e-08
1.28586e-08
1.42009e-08
1.55443e-08
1.68662e-08
1.81435e-08
1.93533e-08
2.04734e-08
2.14827e-08
2.23608e-08
2.30899e-08
2.36542e-08
2.40406e-08
2.42379e-08
3.22303e-09
3.47076e-09
3.83449e-09
4.31032e-09
4.89718e-09
5.59517e-09
6.40469e-09
7.32068e-09
8.33591e-09
9.44104e-09
1.06243e-08
1.18717e-08
1.3167e-08
1.44926e-08
1.58298e-08
1.71595e-08
1.84623e-08
1.97193e-08
2.09121e-08
2.20233e-08
2.30368e-08
2.39376e-08
2.47118e-08
2.53474e-08
2.58345e-08
2.61649e-08
2.63323e-08
5.24226e-09
5.55187e-09
5.9995e-09
6.57325e-09
7.26352e-09
8.0611e-09
8.95604e-09
9.9371e-09
1.09917e-08
1.21061e-08
1.32656e-08
1.44547e-08
1.56579e-08
1.68595e-08
1.80444e-08
1.9198e-08
2.03064e-08
2.13569e-08
2.23375e-08
2.32376e-08
2.40475e-08
2.47587e-08
2.53639e-08
2.58559e-08
2.62298e-08
2.64814e-08
2.66081e-08
7.88421e-09
8.21624e-09
8.68923e-09
9.28404e-09
9.98398e-09
1.07734e-08
1.16368e-08
1.25593e-08
1.35257e-08
1.45215e-08
1.55328e-08
1.65461e-08
1.7549e-08
1.85302e-08
1.94793e-08
2.03869e-08
2.12447e-08
2.20454e-08
2.27827e-08
2.34509e-08
2.40454e-08
2.45621e-08
2.49978e-08
2.53497e-08
2.56152e-08
2.57927e-08
2.58815e-08
1.07141e-08
1.10253e-08
1.14632e-08
1.20057e-08
1.26327e-08
1.33263e-08
1.40697e-08
1.48476e-08
1.56457e-08
1.64516e-08
1.72538e-08
1.80425e-08
1.88093e-08
1.95467e-08
2.02487e-08
2.09103e-08
2.15271e-08
2.20957e-08
2.26133e-08
2.30777e-08
2.34869e-08
2.38396e-08
2.41347e-08
2.43714e-08
2.45494e-08
2.46678e-08
2.47268e-08
1.33093e-08
1.35693e-08
1.39319e-08
1.43755e-08
1.4881e-08
1.54316e-08
1.60122e-08
1.66094e-08
1.72119e-08
1.781e-08
1.83957e-08
1.89625e-08
1.95052e-08
2.00196e-08
2.05028e-08
2.09523e-08
2.13665e-08
2.17443e-08
2.20847e-08
2.23873e-08
2.26517e-08
2.28778e-08
2.30656e-08
2.32152e-08
2.33268e-08
2.34007e-08
2.34374e-08
1.54033e-08
1.55995e-08
1.58708e-08
1.61995e-08
1.65696e-08
1.69673e-08
1.73807e-08
1.77997e-08
1.82161e-08
1.86232e-08
1.90159e-08
1.93903e-08
1.97438e-08
2.00742e-08
2.03806e-08
2.06621e-08
2.09185e-08
2.11499e-08
2.13564e-08
2.15382e-08
2.16959e-08
2.18297e-08
2.19402e-08
2.20277e-08
2.20927e-08
2.21355e-08
2.21567e-08
1.69035e-08
1.70367e-08
1.72195e-08
1.74387e-08
1.76825e-08
1.79411e-08
1.82058e-08
1.84699e-08
1.87281e-08
1.89762e-08
1.92114e-08
1.94318e-08
1.96363e-08
1.98241e-08
1.99953e-08
2.01502e-08
2.0289e-08
2.04124e-08
2.0521e-08
2.06154e-08
2.06964e-08
2.07643e-08
2.08199e-08
2.08636e-08
2.08958e-08
2.09169e-08
2.09272e-08
1.78392e-08
1.79176e-08
1.80243e-08
1.81503e-08
1.82883e-08
1.84317e-08
1.85754e-08
1.87153e-08
1.88483e-08
1.89726e-08
1.90867e-08
1.91901e-08
1.92827e-08
1.93648e-08
1.94368e-08
1.94993e-08
1.95533e-08
1.95994e-08
1.96384e-08
1.96711e-08
1.9698e-08
1.97199e-08
1.97373e-08
1.97505e-08
1.976e-08
1.97662e-08
1.97691e-08
1.83004e-08
1.83351e-08
1.83811e-08
1.84337e-08
1.84888e-08
1.85431e-08
1.8594e-08
1.86396e-08
1.86788e-08
1.87109e-08
1.87359e-08
1.87541e-08
1.87659e-08
1.87721e-08
1.87734e-08
1.87709e-08
1.87653e-08
1.87574e-08
1.87481e-08
1.87381e-08
1.8728e-08
1.87183e-08
1.87096e-08
1.87021e-08
1.86962e-08
1.86922e-08
1.86901e-08
1.83946e-08
1.83962e-08
1.83966e-08
1.83943e-08
1.83879e-08
1.83765e-08
1.83595e-08
1.83367e-08
1.83083e-08
1.82746e-08
1.82364e-08
1.81946e-08
1.81499e-08
1.81034e-08
1.80561e-08
1.80088e-08
1.79626e-08
1.79181e-08
1.78762e-08
1.78374e-08
1.78024e-08
1.77716e-08
1.77454e-08
1.77241e-08
1.7708e-08
1.76972e-08
1.76918e-08
1.82224e-08
1.82002e-08
1.81679e-08
1.81263e-08
1.80763e-08
1.80185e-08
1.79538e-08
1.78833e-08
1.7808e-08
1.77291e-08
1.76477e-08
1.75651e-08
1.74823e-08
1.74005e-08
1.73206e-08
1.72438e-08
1.71706e-08
1.71021e-08
1.70388e-08
1.69813e-08
1.693e-08
1.68855e-08
1.68481e-08
1.68179e-08
1.67952e-08
1.67801e-08
1.67725e-08
1.7868e-08
1.78294e-08
1.77746e-08
1.77063e-08
1.76265e-08
1.75373e-08
1.74406e-08
1.73382e-08
1.72318e-08
1.7123e-08
1.70134e-08
1.69042e-08
1.67967e-08
1.66922e-08
1.65916e-08
1.64959e-08
1.64058e-08
1.63221e-08
1.62454e-08
1.61762e-08
1.61149e-08
1.6062e-08
1.60175e-08
1.59819e-08
1.59551e-08
1.59373e-08
1.59284e-08
1.73971e-08
1.73477e-08
1.72783e-08
1.71925e-08
1.70935e-08
1.69841e-08
1.6867e-08
1.67444e-08
1.66185e-08
1.64911e-08
1.63639e-08
1.62384e-08
1.6116e-08
1.59978e-08
1.58848e-08
1.57779e-08
1.56778e-08
1.55853e-08
1.55008e-08
1.54248e-08
1.53578e-08
1.52999e-08
1.52515e-08
1.52127e-08
1.51837e-08
1.51643e-08
1.51547e-08
1.68582e-08
1.68022e-08
1.67239e-08
1.66276e-08
1.65171e-08
1.63957e-08
1.62665e-08
1.61322e-08
1.5995e-08
1.5857e-08
1.572e-08
1.55856e-08
1.5455e-08
1.53294e-08
1.52098e-08
1.5097e-08
1.49918e-08
1.48947e-08
1.48063e-08
1.4727e-08
1.46571e-08
1.45969e-08
1.45465e-08
1.45062e-08
1.44761e-08
1.4456e-08
1.4446e-08
1.62862e-08
1.62267e-08
1.61436e-08
1.60416e-08
1.59251e-08
1.57975e-08
1.56622e-08
1.55221e-08
1.53794e-08
1.52365e-08
1.5095e-08
1.49566e-08
1.48225e-08
1.46939e-08
1.45718e-08
1.44568e-08
1.43497e-08
1.42511e-08
1.41614e-08
1.4081e-08
1.40102e-08
1.39493e-08
1.38984e-08
1.38577e-08
1.38272e-08
1.3807e-08
1.37969e-08
1.57053e-08
1.56443e-08
1.55592e-08
1.54551e-08
1.53363e-08
1.52066e-08
1.50693e-08
1.49274e-08
1.47834e-08
1.46393e-08
1.4497e-08
1.4358e-08
1.42237e-08
1.4095e-08
1.39729e-08
1.38582e-08
1.37515e-08
1.36533e-08
1.3564e-08
1.34841e-08
1.34138e-08
1.33532e-08
1.33027e-08
1.32623e-08
1.32321e-08
1.3212e-08
1.3202e-08
1.51314e-08
1.50704e-08
1.49854e-08
1.48814e-08
1.47629e-08
1.46338e-08
1.44973e-08
1.43564e-08
1.42136e-08
1.4071e-08
1.39303e-08
1.37931e-08
1.36605e-08
1.35337e-08
1.34135e-08
1.33007e-08
1.31957e-08
1.30992e-08
1.30115e-08
1.2933e-08
1.2864e-08
1.28046e-08
1.27551e-08
1.27154e-08
1.26857e-08
1.2666e-08
1.26562e-08
1.45749e-08
1.45148e-08
1.44312e-08
1.43289e-08
1.42125e-08
1.40857e-08
1.39518e-08
1.38137e-08
1.36739e-08
1.35344e-08
1.33968e-08
1.32628e-08
1.31334e-08
1.30097e-08
1.28925e-08
1.27825e-08
1.26802e-08
1.25862e-08
1.25008e-08
1.24244e-08
1.23572e-08
1.22994e-08
1.22511e-08
1.22125e-08
1.21836e-08
1.21644e-08
1.21549e-08
1.4042e-08
1.39835e-08
1.3902e-08
1.38024e-08
1.36891e-08
1.35658e-08
1.34356e-08
1.33015e-08
1.31657e-08
1.30303e-08
1.28968e-08
1.27668e-08
1.26414e-08
1.25215e-08
1.2408e-08
1.23014e-08
1.22024e-08
1.21113e-08
1.20286e-08
1.19546e-08
1.18895e-08
1.18335e-08
1.17868e-08
1.17494e-08
1.17214e-08
1.17028e-08
1.16936e-08
1.3536e-08
1.34794e-08
1.34005e-08
1.33043e-08
1.31947e-08
1.30755e-08
1.29498e-08
1.28202e-08
1.26891e-08
1.25583e-08
1.24295e-08
1.23041e-08
1.2183e-08
1.20674e-08
1.19578e-08
1.1855e-08
1.17594e-08
1.16716e-08
1.15918e-08
1.15204e-08
1.14576e-08
1.14035e-08
1.13584e-08
1.13223e-08
1.12953e-08
1.12773e-08
1.12684e-08
1.30583e-08
1.30038e-08
1.29278e-08
1.28352e-08
1.27297e-08
1.2615e-08
1.24939e-08
1.23692e-08
1.22431e-08
1.21173e-08
1.19934e-08
1.18727e-08
1.17562e-08
1.16449e-08
1.15395e-08
1.14406e-08
1.13486e-08
1.12641e-08
1.11873e-08
1.11185e-08
1.1058e-08
1.10059e-08
1.09625e-08
1.09277e-08
1.09016e-08
1.08843e-08
1.08757e-08
1.2609e-08
1.25566e-08
1.24837e-08
1.23947e-08
1.22935e-08
1.21833e-08
1.20672e-08
1.19475e-08
1.18263e-08
1.17055e-08
1.15866e-08
1.14706e-08
1.13588e-08
1.12519e-08
1.11506e-08
1.10556e-08
1.09672e-08
1.08859e-08
1.0812e-08
1.07459e-08
1.06877e-08
1.06376e-08
1.05958e-08
1.05623e-08
1.05372e-08
1.05205e-08
1.05122e-08
1.21874e-08
1.21371e-08
1.20673e-08
1.1982e-08
1.1885e-08
1.17794e-08
1.1668e-08
1.15532e-08
1.1437e-08
1.13212e-08
1.12071e-08
1.10958e-08
1.09885e-08
1.08859e-08
1.07887e-08
1.06974e-08
1.06125e-08
1.05344e-08
1.04634e-08
1.03999e-08
1.03439e-08
1.02957e-08
1.02555e-08
1.02232e-08
1.01991e-08
1.0183e-08
1.0175e-08
1.17921e-08
1.1744e-08
1.16771e-08
1.15954e-08
1.15025e-08
1.14013e-08
1.12946e-08
1.11846e-08
1.10733e-08
1.09622e-08
1.08528e-08
1.07461e-08
1.06431e-08
1.05447e-08
1.04513e-08
1.03637e-08
1.02821e-08
1.02071e-08
1.01389e-08
1.00778e-08
1.0024e-08
9.97762e-09
9.9389e-09
9.90788e-09
9.88463e-09
9.86917e-09
9.86147e-09
1.14217e-08
1.13756e-08
1.13116e-08
1.12334e-08
1.11443e-08
1.10475e-08
1.09452e-08
1.08398e-08
1.07331e-08
1.06266e-08
1.05216e-08
1.04193e-08
1.03205e-08
1.02259e-08
1.01363e-08
1.00521e-08
9.97378e-09
9.90166e-09
9.83609e-09
9.77731e-09
9.72554e-09
9.68095e-09
9.64367e-09
9.61381e-09
9.59142e-09
9.57652e-09
9.5691e-09
1.10743e-08
1.10303e-08
1.09689e-08
1.0894e-08
1.08087e-08
1.07159e-08
1.06179e-08
1.05168e-08
1.04144e-08
1.03123e-08
1.02116e-08
1.01133e-08
1.00184e-08
9.92765e-09
9.84153e-09
9.7606e-09
9.68527e-09
9.61592e-09
9.55283e-09
9.49626e-09
9.44642e-09
9.40348e-09
9.36758e-09
9.3388e-09
9.31723e-09
9.30286e-09
9.29571e-09
1.07483e-08
1.07061e-08
1.06473e-08
1.05755e-08
1.04937e-08
1.04047e-08
1.03107e-08
1.02137e-08
1.01155e-08
1.00174e-08
9.92063e-09
9.82626e-09
9.73507e-09
9.64778e-09
9.56495e-09
9.48709e-09
9.41461e-09
9.34784e-09
9.28709e-09
9.23259e-09
9.18457e-09
9.14319e-09
9.10857e-09
9.08082e-09
9.06001e-09
9.04615e-09
9.03925e-09
1.04418e-08
1.04013e-08
1.03449e-08
1.0276e-08
1.01975e-08
1.0112e-08
1.00218e-08
9.92862e-09
9.83423e-09
9.73996e-09
9.64695e-09
9.55618e-09
9.46845e-09
9.38444e-09
9.3047e-09
9.22971e-09
9.15988e-09
9.09553e-09
9.03696e-09
8.98442e-09
8.93809e-09
8.89816e-09
8.86475e-09
8.83797e-09
8.81787e-09
8.80448e-09
8.79781e-09
1.01529e-08
1.0114e-08
1.00599e-08
9.99367e-09
9.91827e-09
9.83611e-09
9.74933e-09
9.65976e-09
9.56895e-09
9.47823e-09
9.3887e-09
9.30129e-09
9.21677e-09
9.13581e-09
9.05895e-09
8.98664e-09
8.91927e-09
8.85718e-09
8.80065e-09
8.74992e-09
8.70518e-09
8.66661e-09
8.63432e-09
8.60843e-09
8.589e-09
8.57606e-09
8.56961e-09
9.87999e-09
9.84258e-09
9.79047e-09
9.72679e-09
9.65424e-09
9.57516e-09
9.49161e-09
9.40534e-09
9.31786e-09
9.23042e-09
9.14411e-09
9.05981e-09
8.97828e-09
8.90015e-09
8.82595e-09
8.75612e-09
8.69105e-09
8.63106e-09
8.57642e-09
8.52737e-09
8.48411e-09
8.44679e-09
8.41556e-09
8.3905e-09
8.37169e-09
8.35916e-09
8.35291e-09
9.62118e-09
9.58514e-09
9.53495e-09
9.47359e-09
9.40365e-09
9.32742e-09
9.24684e-09
9.16362e-09
9.0792e-09
8.9948e-09
8.91146e-09
8.83003e-09
8.75126e-09
8.67574e-09
8.604e-09
8.53646e-09
8.47351e-09
8.41545e-09
8.36257e-09
8.31507e-09
8.27317e-09
8.23702e-09
8.20676e-09
8.18247e-09
8.16424e-09
8.15209e-09
8.14603e-09
9.37476e-09
9.33999e-09
9.29154e-09
9.2323e-09
9.16477e-09
9.09114e-09
9.0133e-09
8.93287e-09
8.85126e-09
8.76965e-09
8.68902e-09
8.61023e-09
8.53398e-09
8.46086e-09
8.39138e-09
8.32595e-09
8.26495e-09
8.20867e-09
8.15739e-09
8.11133e-09
8.07069e-09
8.03561e-09
8.00624e-09
7.98267e-09
7.96497e-09
7.95317e-09
7.94728e-09
9.13898e-09
9.10535e-09
9.05849e-09
9.00119e-09
8.93585e-09
8.86458e-09
8.78922e-09
8.71134e-09
8.63229e-09
8.55321e-09
8.47506e-09
8.39867e-09
8.32472e-09
8.25379e-09
8.18637e-09
8.12286e-09
8.06363e-09
8.00899e-09
7.95917e-09
7.91443e-09
7.87493e-09
7.84084e-09
7.81228e-09
7.78937e-09
7.77215e-09
7.76068e-09
7.75495e-09
8.91203e-09
8.87944e-09
8.83401e-09
8.77845e-09
8.71508e-09
8.64595e-09
8.57283e-09
8.49724e-09
8.42049e-09
8.34369e-09
8.26779e-09
8.19356e-09
8.12169e-09
8.05273e-09
7.98717e-09
7.9254e-09
7.86778e-09
7.8146e-09
7.76612e-09
7.72256e-09
7.68411e-09
7.65091e-09
7.6231e-09
7.60077e-09
7.584e-09
7.57282e-09
7.56724e-09
8.69207e-09
8.66039e-09
8.61624e-09
8.56222e-09
8.50061e-09
8.43338e-09
8.36224e-09
8.28869e-09
8.21399e-09
8.13923e-09
8.06531e-09
7.99301e-09
7.92299e-09
7.85579e-09
7.79189e-09
7.73167e-09
7.67549e-09
7.62363e-09
7.57634e-09
7.53384e-09
7.49632e-09
7.46393e-09
7.43678e-09
7.41499e-09
7.39862e-09
7.38771e-09
7.38226e-09
8.47713e-09
8.44625e-09
8.40321e-09
8.35055e-09
8.29047e-09
8.22489e-09
8.15549e-09
8.08372e-09
8.01081e-09
7.93781e-09
7.86563e-09
7.79502e-09
7.72662e-09
7.66096e-09
7.59851e-09
7.53965e-09
7.48473e-09
7.43402e-09
7.38779e-09
7.34623e-09
7.30953e-09
7.27784e-09
7.25129e-09
7.22998e-09
7.21396e-09
7.20328e-09
7.19795e-09
8.26512e-09
8.23493e-09
8.19283e-09
8.14132e-09
8.08253e-09
8.01836e-09
7.95043e-09
7.88017e-09
7.80878e-09
7.73729e-09
7.66659e-09
7.59741e-09
7.53038e-09
7.46604e-09
7.40483e-09
7.34713e-09
7.29329e-09
7.24358e-09
7.19824e-09
7.15749e-09
7.1215e-09
7.09043e-09
7.06439e-09
7.04349e-09
7.02778e-09
7.0173e-09
7.01207e-09
8.0538e-09
8.02415e-09
7.98283e-09
7.93225e-09
7.87452e-09
7.81148e-09
7.74476e-09
7.67572e-09
7.60556e-09
7.5353e-09
7.4658e-09
7.39779e-09
7.33189e-09
7.26862e-09
7.20843e-09
7.1517e-09
7.09875e-09
7.04986e-09
7.00527e-09
6.96519e-09
6.9298e-09
6.89924e-09
6.87363e-09
6.85307e-09
6.83762e-09
6.82732e-09
6.82218e-09
7.84068e-09
7.81146e-09
7.77071e-09
7.72084e-09
7.66391e-09
7.60174e-09
7.53592e-09
7.46781e-09
7.39859e-09
7.32926e-09
7.26068e-09
7.19356e-09
7.12852e-09
7.06608e-09
7.00668e-09
6.95068e-09
6.89843e-09
6.85018e-09
6.80618e-09
6.76663e-09
6.73171e-09
6.70156e-09
6.6763e-09
6.65601e-09
6.64077e-09
6.63061e-09
6.62554e-09
7.62306e-09
7.59412e-09
7.55376e-09
7.50435e-09
7.44795e-09
7.38635e-09
7.32113e-09
7.25363e-09
7.18504e-09
7.11633e-09
7.04836e-09
6.98184e-09
6.91738e-09
6.85551e-09
6.79664e-09
6.74116e-09
6.68939e-09
6.6416e-09
6.59802e-09
6.55886e-09
6.52428e-09
6.49443e-09
6.46942e-09
6.44935e-09
6.43426e-09
6.42421e-09
6.41919e-09
7.39797e-09
7.36916e-09
7.32897e-09
7.27978e-09
7.22361e-09
7.16227e-09
7.09732e-09
7.03011e-09
6.9618e-09
6.89338e-09
6.8257e-09
6.75947e-09
6.69531e-09
6.63372e-09
6.57514e-09
6.51994e-09
6.46844e-09
6.42091e-09
6.37758e-09
6.33864e-09
6.30428e-09
6.27462e-09
6.24977e-09
6.22983e-09
6.21486e-09
6.20488e-09
6.1999e-09
7.16216e-09
7.13331e-09
7.09308e-09
7.04382e-09
6.98759e-09
6.92618e-09
6.86116e-09
6.79388e-09
6.7255e-09
6.65703e-09
6.58931e-09
6.52306e-09
6.45888e-09
6.3973e-09
6.33874e-09
6.28357e-09
6.23212e-09
6.18465e-09
6.14139e-09
6.10253e-09
6.06824e-09
6.03866e-09
6.01389e-09
5.99401e-09
5.97909e-09
5.96914e-09
5.96418e-09
6.91212e-09
6.88307e-09
6.84255e-09
6.79296e-09
6.73634e-09
6.67452e-09
6.60907e-09
6.54135e-09
6.47256e-09
6.40368e-09
6.33558e-09
6.26897e-09
6.20448e-09
6.14261e-09
6.08381e-09
6.02844e-09
5.97682e-09
5.92922e-09
5.88585e-09
5.84692e-09
5.81257e-09
5.78296e-09
5.75817e-09
5.73829e-09
5.72336e-09
5.71342e-09
5.70847e-09
6.64412e-09
6.61469e-09
6.57367e-09
6.52345e-09
6.46613e-09
6.40355e-09
6.33731e-09
6.26881e-09
6.19923e-09
6.1296e-09
6.06078e-09
5.99351e-09
5.9284e-09
5.86598e-09
5.80668e-09
5.75088e-09
5.69889e-09
5.65096e-09
5.60733e-09
5.56818e-09
5.53366e-09
5.50391e-09
5.47903e-09
5.45908e-09
5.44411e-09
5.43414e-09
5.42918e-09
6.35435e-09
6.32438e-09
6.28261e-09
6.23149e-09
6.17315e-09
6.10949e-09
6.04213e-09
5.97249e-09
5.9018e-09
5.8311e-09
5.76126e-09
5.69304e-09
5.62705e-09
5.56383e-09
5.50382e-09
5.44739e-09
5.39484e-09
5.34644e-09
5.30241e-09
5.26293e-09
5.22815e-09
5.19819e-09
5.17314e-09
5.15307e-09
5.13803e-09
5.12801e-09
5.12303e-09
6.03907e-09
6.00842e-09
5.96569e-09
5.91341e-09
5.85379e-09
5.78875e-09
5.71997e-09
5.64892e-09
5.57684e-09
5.50479e-09
5.43369e-09
5.36429e-09
5.29722e-09
5.23303e-09
5.17214e-09
5.11494e-09
5.06172e-09
5.01275e-09
4.96824e-09
4.92836e-09
4.89326e-09
4.86304e-09
4.8378e-09
4.81759e-09
4.80245e-09
4.79238e-09
4.78737e-09
5.69493e-09
5.66346e-09
5.61961e-09
5.56599e-09
5.50487e-09
5.43824e-09
5.36784e-09
5.29517e-09
5.22152e-09
5.14797e-09
5.07547e-09
5.00477e-09
4.93653e-09
4.87128e-09
4.80946e-09
4.75144e-09
4.69753e-09
4.64798e-09
4.60298e-09
4.56271e-09
4.5273e-09
4.49684e-09
4.47142e-09
4.45109e-09
4.43586e-09
4.42575e-09
4.42071e-09
5.31931e-09
5.28696e-09
5.24191e-09
5.18685e-09
5.12414e-09
5.05585e-09
4.98375e-09
4.90942e-09
4.83417e-09
4.75913e-09
4.68524e-09
4.61329e-09
4.54394e-09
4.47771e-09
4.41506e-09
4.35634e-09
4.30185e-09
4.25182e-09
4.20645e-09
4.1659e-09
4.13027e-09
4.09967e-09
4.07416e-09
4.05376e-09
4.03851e-09
4.02838e-09
4.02334e-09
4.91094e-09
4.87773e-09
4.8315e-09
4.77507e-09
4.71085e-09
4.641e-09
4.56735e-09
4.49153e-09
4.41489e-09
4.33858e-09
4.26357e-09
4.19065e-09
4.12047e-09
4.05358e-09
3.99039e-09
3.93127e-09
3.87649e-09
3.82628e-09
3.78081e-09
3.74022e-09
3.70462e-09
3.67407e-09
3.64862e-09
3.62831e-09
3.61313e-09
3.60306e-09
3.59806e-09
4.4705e-09
4.43656e-09
4.38937e-09
4.33181e-09
4.26641e-09
4.19537e-09
4.1206e-09
4.04376e-09
3.96624e-09
3.88921e-09
3.81364e-09
3.74032e-09
3.66991e-09
3.60293e-09
3.53979e-09
3.48083e-09
3.4263e-09
3.3764e-09
3.3313e-09
3.2911e-09
3.25589e-09
3.22573e-09
3.20064e-09
3.18063e-09
3.1657e-09
3.1558e-09
3.15089e-09
4.00135e-09
3.96699e-09
3.91924e-09
3.8611e-09
3.79514e-09
3.72362e-09
3.64852e-09
3.57151e-09
3.494e-09
3.41716e-09
3.34197e-09
3.2692e-09
3.1995e-09
3.13334e-09
3.07114e-09
3.01318e-09
2.9597e-09
2.91087e-09
2.86682e-09
2.82764e-09
2.79337e-09
2.76407e-09
2.73973e-09
2.72035e-09
2.7059e-09
2.69634e-09
2.6916e-09
3.51026e-09
3.47594e-09
3.42832e-09
3.37043e-09
3.30489e-09
3.23401e-09
3.15976e-09
3.08384e-09
3.00764e-09
2.93233e-09
2.85886e-09
2.78797e-09
2.72027e-09
2.65621e-09
2.59615e-09
2.54034e-09
2.48899e-09
2.44221e-09
2.40012e-09
2.36275e-09
2.33015e-09
2.30232e-09
2.27924e-09
2.2609e-09
2.24724e-09
2.23821e-09
2.23374e-09
3.00778e-09
2.97416e-09
2.92761e-09
2.87114e-09
2.80737e-09
2.7386e-09
2.66679e-09
2.59362e-09
2.52043e-09
2.44837e-09
2.37832e-09
2.31098e-09
2.2469e-09
2.18648e-09
2.13003e-09
2.07775e-09
2.02979e-09
1.98623e-09
1.94714e-09
1.91254e-09
1.88241e-09
1.85674e-09
1.83551e-09
1.81865e-09
1.80611e-09
1.79783e-09
1.79371e-09
2.50813e-09
2.47607e-09
2.43174e-09
2.37812e-09
2.31775e-09
2.25288e-09
2.18541e-09
2.11693e-09
2.04873e-09
1.98187e-09
1.91716e-09
1.85524e-09
1.79656e-09
1.74147e-09
1.6902e-09
1.64291e-09
1.59969e-09
1.56058e-09
1.52559e-09
1.4947e-09
1.46789e-09
1.44511e-09
1.42629e-09
1.41139e-09
1.40032e-09
1.39302e-09
1.3894e-09
2.02833e-09
1.99873e-09
1.95792e-09
1.90869e-09
1.85348e-09
1.79441e-09
1.73324e-09
1.67146e-09
1.61025e-09
1.55054e-09
1.49306e-09
1.43833e-09
1.38674e-09
1.33854e-09
1.29391e-09
1.25293e-09
1.21563e-09
1.18202e-09
1.15207e-09
1.12573e-09
1.10294e-09
1.08363e-09
1.06773e-09
1.05516e-09
1.04585e-09
1.03971e-09
1.03667e-09
1.58619e-09
1.55994e-09
1.52384e-09
1.48045e-09
1.43201e-09
1.38042e-09
1.32729e-09
1.27393e-09
1.22137e-09
1.17042e-09
1.12166e-09
1.07552e-09
1.0323e-09
9.92158e-10
9.55205e-10
9.21471e-10
8.90946e-10
8.63593e-10
8.39354e-10
8.18161e-10
7.99939e-10
7.84615e-10
7.72114e-10
7.62364e-10
7.55219e-10
7.50558e-10
7.48276e-10
1.19759e-09
1.17536e-09
1.14488e-09
1.1084e-09
1.06788e-09
1.02497e-09
9.81074e-10
9.37289e-10
8.94489e-10
8.53342e-10
8.14344e-10
7.7786e-10
7.44153e-10