/*--------------------------------*- C++ -*----------------------------------*\
| =========                 |                                                 |
| \\      /  F ield         | OpenFOAM: The Open Source CFD Toolbox           |
|  \\    /   O peration     | Version:  2106                                  |
|   \\  /    A nd           | Website:  www.openfoam.com                      |
|    \\/     M anipulation  |                                                 |
\*---------------------------------------------------------------------------*/
FoamFile
{
    version     2.0;
    format      ascii;
    arch        "LSB;label=32;scalar=64";
    class       volScalarField;
    location    "200.00032";
    object      H2_0;
}
// * * * * * * * * * * * * * * * * * * * * * * * * * * * * * * * * * * * * * //

dimensions      [0 0 0 0 0 0 0];

internalField   nonuniform List<scalar> 
3360
(
1.39857e-22
1.48606e-22
1.60926e-22
1.76235e-22
1.94026e-22
2.13825e-22
2.35174e-22
2.57632e-22
2.8077e-22
3.0418e-22
3.27479e-22
3.50315e-22
3.72375e-22
3.93387e-22
4.13122e-22
4.31396e-22
4.4807e-22
4.6305e-22
4.76279e-22
4.87741e-22
4.97453e-22
5.05464e-22
5.11847e-22
5.167e-22
5.20136e-22
5.22286e-22
5.23288e-22
7.07178e-22
7.56112e-22
8.26061e-22
9.14715e-22
1.02031e-21
1.14137e-21
1.27655e-21
1.42454e-21
1.58405e-21
1.7537e-21
1.932e-21
2.11735e-21
2.30798e-21
2.50196e-21
2.69718e-21
2.89142e-21
3.08228e-21
3.26728e-21
3.44383e-21
3.60929e-21
3.76108e-21
3.89667e-21
4.01373e-21
4.11016e-21
4.18417e-21
4.23435e-21
4.25972e-21
2.70241e-21
2.92462e-21
3.24622e-21
3.66038e-21
4.16273e-21
4.74985e-21
5.41829e-21
6.16392e-21
6.98136e-21
7.86368e-21
8.80208e-21
9.78603e-21
1.08036e-20
1.18415e-20
1.28851e-20
1.3919e-20
1.49273e-20
1.58943e-20
1.68044e-20
1.76436e-20
1.8399e-20
1.90599e-20
1.96176e-20
2.00661e-20
2.04018e-20
2.06237e-20
2.07329e-20
9.76164e-21
1.06783e-20
1.20216e-20
1.3776e-20
1.59355e-20
1.84964e-20
2.14519e-20
2.4789e-20
2.84855e-20
3.25091e-20
3.68162e-20
4.13526e-20
4.60547e-20
5.08505e-20
5.56619e-20
6.04075e-20
6.5006e-20
6.93794e-20
7.34562e-20
7.71742e-20
8.0482e-20
8.33405e-20
8.57233e-20
8.76159e-20
8.90155e-20
8.99298e-20
9.03751e-20
3.62707e-20
4.00122e-20
4.55304e-20
5.27915e-20
6.17986e-20
7.25578e-20
8.50549e-20
9.92393e-20
1.15012e-19
1.32219e-19
1.50654e-19
1.70057e-19
1.90129e-19
2.10536e-19
2.30929e-19
2.50951e-19
2.7026e-19
2.88532e-19
3.05483e-19
3.2087e-19
3.34499e-19
3.46229e-19
3.55969e-19
3.63678e-19
3.69362e-19
3.73064e-19
3.74862e-19
1.38293e-19
1.5342e-19
1.75823e-19
2.05421e-19
2.42276e-19
2.86443e-19
3.37875e-19
3.96357e-19
4.61463e-19
5.32529e-19
6.08656e-19
6.8873e-19
7.71463e-19
8.55442e-19
9.39191e-19
1.02123e-18
1.10016e-18
1.17466e-18
1.24361e-18
1.30604e-18
1.36121e-18
1.40858e-18
1.44784e-18
1.47885e-18
1.50167e-18
1.51651e-18
1.52371e-18
5.36156e-19
5.97025e-19
6.87354e-19
8.06975e-19
9.56243e-19
1.13544e-18
1.34435e-18
1.58205e-18
1.84671e-18
2.13549e-18
2.44463e-18
2.76947e-18
3.10471e-18
3.44455e-18
3.78299e-18
4.11409e-18
4.43218e-18
4.73208e-18
5.00927e-18
5.25999e-18
5.48132e-18
5.67122e-18
5.82845e-18
5.95257e-18
6.04386e-18
6.1032e-18
6.13196e-18
2.0987e-18
2.34189e-18
2.7033e-18
3.18256e-18
3.78138e-18
4.50104e-18
5.34084e-18
6.29698e-18
7.36192e-18
8.52406e-18
9.76793e-18
1.10746e-17
1.24224e-17
1.37879e-17
1.51468e-17
1.64753e-17
1.77506e-17
1.8952e-17
2.00615e-17
2.10642e-17
2.19487e-17
2.27069e-17
2.33343e-17
2.38292e-17
2.41929e-17
2.44292e-17
2.45436e-17
8.26559e-18
9.23674e-18
1.06809e-17
1.25973e-17
1.49933e-17
1.7874e-17
2.12366e-17
2.50652e-17
2.9329e-17
3.39806e-17
3.89573e-17
4.41826e-17
4.95694e-17
5.50236e-17
6.04485e-17
6.57486e-17
7.08335e-17
7.56214e-17
8.0041e-17
8.40338e-17
8.75545e-17
9.05718e-17
9.30675e-17
9.5036e-17
9.64825e-17
9.74219e-17
9.7877e-17
3.26115e-17
3.64731e-17
4.22189e-17
4.98481e-17
5.93913e-17
7.08706e-17
8.42744e-17
9.95392e-17
1.1654e-16
1.35087e-16
1.54928e-16
1.75756e-16
1.97221e-16
2.18948e-16
2.4055e-16
2.61646e-16
2.81878e-16
3.00919e-16
3.18488e-16
3.34352e-16
3.48335e-16
3.60312e-16
3.70215e-16
3.78023e-16
3.83758e-16
3.87481e-16
3.89284e-16
1.2888e-16
1.44234e-16
1.67082e-16
1.97425e-16
2.35383e-16
2.81046e-16
3.34361e-16
3.9507e-16
4.62668e-16
5.3639e-16
6.15224e-16
6.97943e-16
7.83155e-16
8.69365e-16
9.55039e-16
1.03867e-15
1.11884e-15
1.19425e-15
1.26381e-15
1.3266e-15
1.38192e-15
1.4293e-15
1.46846e-15
1.49933e-15
1.522e-15
1.53671e-15
1.54384e-15
5.08815e-16
5.69673e-16
6.60252e-16
7.80555e-16
9.31064e-16
1.11211e-15
1.32348e-15
1.56412e-15
1.83199e-15
2.12405e-15
2.43624e-15
2.76368e-15
3.10084e-15
3.44179e-15
3.78045e-15
4.11085e-15
4.42741e-15
4.72505e-15
4.99942e-15
5.24696e-15
5.46495e-15
5.65155e-15
5.80571e-15
5.92717e-15
6.01633e-15
6.07418e-15
6.10219e-15
2.00657e-15
2.24752e-15
2.60608e-15
3.0822e-15
3.67769e-15
4.39372e-15
5.22925e-15
6.17994e-15
7.23757e-15
8.38984e-15
9.62064e-15
1.09106e-14
1.22377e-14
1.35787e-14
1.49097e-14
1.62072e-14
1.74494e-14
1.86166e-14
1.96918e-14
2.06613e-14
2.15145e-14
2.22444e-14
2.28472e-14
2.33219e-14
2.36702e-14
2.38961e-14
2.40055e-14
7.88177e-15
8.83099e-15
1.02434e-14
1.21183e-14
1.44626e-14
1.72802e-14
2.05661e-14
2.43023e-14
2.84555e-14
3.29764e-14
3.78007e-14
4.28517e-14
4.8043e-14
5.32828e-14
5.84775e-14
6.35364e-14
6.83743e-14
7.29152e-14
7.70939e-14
8.0858e-14
8.41678e-14
8.69968e-14
8.93311e-14
9.1168e-14
9.25149e-14
9.3388e-14
9.38103e-14
3.08176e-14
3.454e-14
4.00763e-14
4.7422e-14
5.65997e-14
6.76206e-14
8.04599e-14
9.50413e-14
1.11228e-13
1.28823e-13
1.4757e-13
1.67166e-13
1.87274e-13
2.07536e-13
2.27592e-13
2.47091e-13
2.65711e-13
2.83161e-13
2.99197e-13
3.13623e-13
3.26293e-13
3.37109e-13
3.46025e-13
3.53035e-13
3.5817e-13
3.61497e-13
3.63105e-13
1.19616e-13
1.3409e-13
1.55604e-13
1.84124e-13
2.19719e-13
2.62406e-13
3.12064e-13
3.68364e-13
4.3075e-13
4.9843e-13
5.70394e-13
6.45461e-13
7.22321e-13
7.99604e-13
8.75934e-13
9.49991e-13
1.02056e-12
1.08656e-12
1.1471e-12
1.20146e-12
1.24912e-12
1.28974e-12
1.32317e-12
1.34942e-12
1.36863e-12
1.38105e-12
1.38705e-12
4.60021e-13
5.15699e-13
5.98372e-13
7.07826e-13
8.44205e-13
1.00745e-12
1.19692e-12
1.41122e-12
1.64806e-12
1.90428e-12
2.17594e-12
2.45846e-12
2.74687e-12
3.03601e-12
3.32074e-12
3.5962e-12
3.85795e-12
4.10212e-12
4.32551e-12
4.52562e-12
4.70067e-12
4.84957e-12
4.97189e-12
5.06775e-12
5.13779e-12
5.18304e-12
5.20486e-12
1.74849e-12
1.95954e-12
2.27247e-12
2.68595e-12
3.19992e-12
3.81343e-12
4.52332e-12
5.32349e-12
6.20463e-12
7.15426e-12
8.15718e-12
9.19611e-12
1.02525e-11
1.13074e-11
1.23423e-11
1.33399e-11
1.42844e-11
1.51625e-11
1.59634e-11
1.66787e-11
1.73027e-11
1.78321e-11
1.8266e-11
1.86054e-11
1.88528e-11
1.90124e-11
1.90893e-11
6.55165e-12
7.33661e-12
8.498e-12
1.00284e-11
1.19243e-11
1.41787e-11
1.67762e-11
1.96906e-11
2.28844e-11
2.63093e-11
2.99082e-11
3.36176e-11
3.73705e-11
4.10999e-11
4.47414e-11
4.82356e-11
5.153e-11
5.45807e-11
5.73524e-11
5.98193e-11
6.19645e-11
6.37793e-11
6.52627e-11
6.642e-11
6.72621e-11
6.78042e-11
6.80648e-11
2.41303e-11
2.69793e-11
3.11826e-11
3.67005e-11
4.3506e-11
5.15571e-11
6.0782e-11
7.10719e-11
8.22797e-11
9.42243e-11
1.06698e-10
1.19475e-10
1.32326e-10
1.45023e-10
1.57352e-10
1.69121e-10
1.80164e-10
1.90342e-10
1.99551e-10
2.07715e-10
2.14789e-10
2.20754e-10
2.25616e-10
2.29399e-10
2.32146e-10
2.3391e-10
2.34756e-10
8.71058e-11
9.71402e-11
1.11889e-10
1.31157e-10
1.54785e-10
1.82558e-10
2.14163e-10
2.49163e-10
2.87007e-10
3.27043e-10
3.68551e-10
4.10773e-10
4.5295e-10
4.94355e-10
5.34317e-10
5.72248e-10
6.07648e-10
6.4012e-10
6.69367e-10
6.95192e-10
7.17486e-10
7.36223e-10
7.51447e-10
7.63262e-10
7.71819e-10
7.77304e-10
7.79932e-10
3.0712e-10
3.41199e-10
3.9106e-10
4.55814e-10
5.34672e-10
6.26665e-10
7.30509e-10
8.44567e-10
9.66877e-10
1.09523e-09
1.22724e-09
1.36052e-09
1.49271e-09
1.6216e-09
1.74522e-09
1.86188e-09
1.97017e-09
2.06902e-09
2.15766e-09
2.23561e-09
2.30265e-09
2.35882e-09
2.40432e-09
2.43954e-09
2.46499e-09
2.48127e-09
2.48906e-09
1.05351e-09
1.16445e-09
1.32591e-09
1.53419e-09
1.78586e-09
2.07699e-09
2.40276e-09
2.75744e-09
3.1345e-09
3.52686e-09
3.92721e-09
4.32833e-09
4.72334e-09
5.10599e-09
5.47078e-09
5.81309e-09
6.12926e-09
6.41653e-09
6.67305e-09
6.89779e-09
7.09044e-09
7.25135e-09
7.38136e-09
7.48176e-09
7.55415e-09
7.60038e-09
7.62245e-09
3.49838e-09
3.8427e-09
4.34099e-09
4.97919e-09
5.74421e-09
6.62164e-09
7.59496e-09
8.64554e-09
9.7531e-09
1.08964e-08
1.20544e-08
1.32064e-08
1.43337e-08
1.54192e-08
1.64485e-08
1.74097e-08
1.82935e-08
1.90933e-08
1.9805e-08
2.04264e-08
2.09577e-08
2.14002e-08
2.1757e-08
2.2032e-08
2.22299e-08
2.23561e-08
2.24162e-08
1.11792e-08
1.21938e-08
1.36542e-08
1.5512e-08
1.77224e-08
2.02378e-08
2.30062e-08
2.59716e-08
2.90753e-08
3.22578e-08
3.54607e-08
3.86293e-08
4.17137e-08
4.46702e-08
4.74619e-08
5.00593e-08
5.24399e-08
5.45881e-08
5.64946e-08
5.8156e-08
5.95733e-08
6.07522e-08
6.17012e-08
6.24316e-08
6.29569e-08
6.32914e-08
6.34508e-08
3.41392e-08
3.69698e-08
4.10254e-08
4.61556e-08
5.22212e-08
5.90798e-08
6.65817e-08
7.45704e-08
8.28865e-08
9.13718e-08
9.98749e-08
1.08255e-07
1.16386e-07
1.24157e-07
1.31478e-07
1.38276e-07
1.44496e-07
1.50101e-07
1.5507e-07
1.59396e-07
1.63084e-07
1.66149e-07
1.68616e-07
1.70514e-07
1.71878e-07
1.72747e-07
1.73161e-07
9.88944e-08
1.06357e-07
1.17012e-07
1.30431e-07
1.46226e-07
1.64005e-07
1.83371e-07
2.03915e-07
2.25231e-07
2.46918e-07
2.686e-07
2.89924e-07
3.1058e-07
3.30295e-07
3.48846e-07
3.66055e-07
3.8179e-07
3.95963e-07
4.08524e-07
4.19458e-07
4.28781e-07
4.36533e-07
4.42774e-07
4.47579e-07
4.51036e-07
4.5324e-07
4.54291e-07
2.69545e-07
2.88081e-07
3.14482e-07
3.47643e-07
3.86564e-07
4.30261e-07
4.77743e-07
5.28013e-07
5.8008e-07
6.32983e-07
6.85816e-07
7.37747e-07
7.88037e-07
8.36048e-07
8.8125e-07
9.23222e-07
9.6165e-07
9.96316e-07
1.0271e-06
1.05394e-06
1.07688e-06
1.096e-06
1.11143e-06
1.12333e-06
1.13192e-06
1.13741e-06
1.14003e-06
6.85158e-07
7.28202e-07
7.89408e-07
8.66147e-07
9.56051e-07
1.05683e-06
1.1662e-06
1.2819e-06
1.40171e-06
1.52349e-06
1.64522e-06
1.76504e-06
1.88128e-06
1.9925e-06
2.09746e-06
2.19518e-06
2.2849e-06
2.36608e-06
2.43836e-06
2.5016e-06
2.5558e-06
2.60109e-06
2.63775e-06
2.66612e-06
2.68663e-06
2.69977e-06
2.70607e-06
1.60633e-06
1.69836e-06
1.82907e-06
1.99277e-06
2.18437e-06
2.39903e-06
2.63196e-06
2.87849e-06
3.13401e-06
3.3941e-06
3.65456e-06
3.91149e-06
4.16138e-06
4.40111e-06
4.62804e-06
4.83995e-06
5.03511e-06
5.21222e-06
5.37043e-06
5.50926e-06
5.62858e-06
5.72858e-06
5.80971e-06
5.87266e-06
5.91828e-06
5.94757e-06
5.96163e-06
3.43804e-06
3.61654e-06
3.86978e-06
4.1865e-06
4.55675e-06
4.97112e-06
5.42046e-06
5.89587e-06
6.38864e-06
6.89042e-06
7.39331e-06
7.88993e-06
8.3736e-06
8.83836e-06
9.27907e-06
9.69141e-06
1.00719e-05
1.0418e-05
1.07278e-05
1.10002e-05
1.12348e-05
1.14318e-05
1.1592e-05
1.17165e-05
1.18069e-05
1.1865e-05
1.18929e-05
6.69073e-06
7.0011e-06
7.4405e-06
7.98866e-06
8.62766e-06
9.34075e-06
1.01119e-05
1.09255e-05
1.17668e-05
1.26215e-05
1.34764e-05
1.43191e-05
1.51386e-05
1.5925e-05
1.66699e-05
1.73662e-05
1.80083e-05
1.8592e-05
1.91143e-05
1.95734e-05
1.99688e-05
2.03006e-05
2.05703e-05
2.07798e-05
2.09318e-05
2.10295e-05
2.10764e-05
1.1879e-05
1.23619e-05
1.30434e-05
1.38901e-05
1.48727e-05
1.59637e-05
1.71374e-05
1.83691e-05
1.96359e-05
2.09161e-05
2.21897e-05
2.34389e-05
2.46476e-05
2.5802e-05
2.68905e-05
2.79034e-05
2.88334e-05
2.9675e-05
3.04249e-05
3.10813e-05
3.16442e-05
3.2115e-05
3.24962e-05
3.27913e-05
3.30048e-05
3.31416e-05
3.32071e-05
1.94155e-05
2.00932e-05
2.10459e-05
2.22237e-05
2.35823e-05
2.5081e-05
2.66818e-05
2.83497e-05
3.00522e-05
3.17597e-05
3.34457e-05
3.50867e-05
3.66624e-05
3.81559e-05
3.95534e-05
4.08444e-05
4.20212e-05
4.30789e-05
4.40151e-05
4.48295e-05
4.55238e-05
4.61011e-05
4.65661e-05
4.69244e-05
4.71825e-05
4.73471e-05
4.74257e-05
2.9539e-05
3.04076e-05
3.16235e-05
3.31183e-05
3.48314e-05
3.67074e-05
3.86958e-05
4.07505e-05
4.283e-05
4.48975e-05
4.69208e-05
4.88729e-05
5.07312e-05
5.24775e-05
5.40982e-05
5.55834e-05
5.69269e-05
5.81257e-05
5.91794e-05
6.009e-05
6.08616e-05
6.14996e-05
6.20107e-05
6.24027e-05
6.26836e-05
6.28622e-05
6.29471e-05
4.22731e-05
4.33035e-05
4.47399e-05
4.6496e-05
4.84954e-05
5.06692e-05
5.29551e-05
5.5298e-05
5.76495e-05
5.99677e-05
6.22177e-05
6.43707e-05
6.64038e-05
6.82998e-05
7.00464e-05
7.16358e-05
7.3064e-05
7.43303e-05
7.54369e-05
7.63881e-05
7.71899e-05
7.78499e-05
7.83764e-05
7.87785e-05
7.90658e-05
7.92478e-05
7.93341e-05
5.74174e-05
5.85624e-05
6.01523e-05
6.20867e-05
6.42767e-05
6.66425e-05
6.91139e-05
7.16293e-05
7.41363e-05
7.65908e-05
7.89568e-05
8.12059e-05
8.33163e-05
8.52726e-05
8.70645e-05
8.86865e-05
9.01367e-05
9.14167e-05
9.25306e-05
9.34843e-05
9.42856e-05
9.4943e-05
9.5466e-05
9.58645e-05
9.61486e-05
9.63282e-05
9.64133e-05
7.45763e-05
7.57837e-05
7.74555e-05
7.94817e-05
8.17653e-05
8.42204e-05
8.67719e-05
8.93553e-05
9.19166e-05
9.44116e-05
9.68047e-05
9.9069e-05
0.000101184
0.000103137
0.000104919
0.000106526
0.000107958
0.000109219
0.000110313
0.000111248
0.000112032
0.000112674
0.000113184
0.000113572
0.000113849
0.000114023
0.000114106
9.32594e-05
9.44839e-05
9.61756e-05
9.82205e-05
0.000100518
0.00010298
0.000105529
0.000108101
0.000110643
0.00011311
0.000115469
0.000117695
0.000119768
0.000121678
0.000123417
0.000124982
0.000126375
0.000127599
0.00012866
0.000129565
0.000130324
0.000130945
0.000131438
0.000131813
0.00013208
0.000132249
0.000132329
0.000112976
0.000114184
0.000115851
0.000117862
0.000120118
0.000122529
0.000125021
0.00012753
0.000130005
0.000132402
0.000134691
0.000136847
0.000138854
0.000140699
0.000142378
0.000143888
0.00014523
0.00014641
0.000147432
0.000148304
0.000149035
0.000149633
0.000150108
0.000150469
0.000150727
0.000150889
0.000150966
0.000133298
0.000134469
0.000136083
0.000138028
0.000140208
0.000142536
0.000144939
0.000147357
0.000149739
0.000152046
0.000154247
0.000156318
0.000158246
0.000160018
0.00016163
0.00016308
0.000164369
0.000165502
0.000166484
0.000167322
0.000168024
0.0001686
0.000169057
0.000169405
0.000169653
0.000169809
0.000169884
0.000153883
0.000155006
0.000156553
0.000158417
0.000160505
0.000162734
0.000165035
0.00016735
0.00016963
0.000171838
0.000173944
0.000175928
0.000177773
0.000179471
0.000181016
0.000182406
0.000183643
0.00018473
0.000185673
0.000186478
0.000187154
0.000187707
0.000188147
0.000188482
0.000188721
0.000188872
0.000188944
0.000174478
0.000175549
0.000177024
0.000178803
0.000180795
0.000182922
0.000185119
0.000187328
0.000189506
0.000191616
0.00019363
0.000195528
0.000197294
0.00019892
0.0002004
0.000201733
0.00020292
0.000203965
0.000204871
0.000205645
0.000206295
0.000206828
0.000207252
0.000207576
0.000207806
0.000207952
0.000208021
0.000194904
0.000195923
0.000197329
0.000199024
0.000200923
0.000202952
0.000205048
0.000207158
0.000209239
0.000211256
0.000213183
0.000215
0.000216693
0.000218252
0.000219672
0.000220953
0.000222094
0.000223098
0.00022397
0.000224716
0.000225343
0.000225857
0.000226266
0.000226578
0.000226801
0.000226942
0.000227009
0.000215042
0.000216013
0.000217354
0.000218971
0.000220783
0.000222721
0.000224725
0.000226743
0.000228734
0.000230666
0.000232513
0.000234256
0.000235881
0.00023738
0.000238746
0.000239978
0.000241076
0.000242044
0.000242885
0.000243605
0.00024421
0.000244707
0.000245102
0.000245404
0.00024562
0.000245757
0.000245822
0.000234816
0.000235745
0.000237026
0.000238572
0.000240306
0.000242162
0.000244081
0.000246015
0.000247926
0.000249781
0.000251556
0.000253232
0.000254796
0.000256239
0.000257556
0.000258744
0.000259804
0.000260739
0.000261551
0.000262247
0.000262832
0.000263313
0.000263696
0.000263989
0.000264198
0.00026433
0.000264393
0.000254184
0.000255074
0.000256302
0.000257785
0.000259449
0.00026123
0.000263074
0.000264934
0.000266772
0.000268558
0.000270268
0.000271884
0.000273392
0.000274785
0.000276057
0.000277205
0.000278231
0.000279135
0.000279922
0.000280596
0.000281163
0.000281629
0.000282
0.000282284
0.000282487
0.000282616
0.000282677
0.000273124
0.000273979
0.00027516
0.000276586
0.000278187
0.000279903
0.000281679
0.000283472
0.000285245
0.000286969
0.000288621
0.000290182
0.000291641
0.000292989
0.00029422
0.000295332
0.000296325
0.000297202
0.000297965
0.000298619
0.000299169
0.000299622
0.000299983
0.000300258
0.000300456
0.000300581
0.00030064
0.000291627
0.000292452
0.00029359
0.000294966
0.000296512
0.000298168
0.000299885
0.000301618
0.000303333
0.000305001
0.0003066
0.000308112
0.000309526
0.000310832
0.000312026
0.000313105
0.00031407
0.000314921
0.000315662
0.000316298
0.000316833
0.000317273
0.000317624
0.000317892
0.000318084
0.000318206
0.000318263
0.000309697
0.000310495
0.000311596
0.000312927
0.000314423
0.000316026
0.000317688
0.000319367
0.00032103
0.000322647
0.000324199
0.000325666
0.000327039
0.000328308
0.000329468
0.000330517
0.000331455
0.000332283
0.000333004
0.000333622
0.000334143
0.000334571
0.000334913
0.000335174
0.000335361
0.00033548
0.000335536
0.000327343
0.000328115
0.000329183
0.000330473
0.000331924
0.00033348
0.000335093
0.000336724
0.000338338
0.00033991
0.000341418
0.000342845
0.00034418
0.000345414
0.000346543
0.000347564
0.000348477
0.000349284
0.000349986
0.000350589
0.000351096
0.000351513
0.000351847
0.000352101
0.000352283
0.000352399
0.000352454
0.000344575
0.000345325
0.000346362
0.000347617
0.000349027
0.000350539
0.000352108
0.000353694
0.000355265
0.000356795
0.000358262
0.000359652
0.000360952
0.000362155
0.000363255
0.000364251
0.000365141
0.000365927
0.000366612
0.0003672
0.000367695
0.000368102
0.000368427
0.000368675
0.000368853
0.000368966
0.00036902
0.000361409
0.000362139
0.000363148
0.000364369
0.000365742
0.000367215
0.000368743
0.000370288
0.000371819
0.00037331
0.000374741
0.000376096
0.000377364
0.000378537
0.000379611
0.000380582
0.00038145
0.000382218
0.000382887
0.00038346
0.000383944
0.000384342
0.000384659
0.000384902
0.000385076
0.000385186
0.000385238
0.000377859
0.00037857
0.000379554
0.000380744
0.000382083
0.000383519
0.00038501
0.000386517
0.000388011
0.000389466
0.000390863
0.000392186
0.000393424
0.00039457
0.000395618
0.000396567
0.000397415
0.000398165
0.000398819
0.000399379
0.000399852
0.000400241
0.000400551
0.000400788
0.000400958
0.000401066
0.000401117
0.00039394
0.000394635
0.000395595
0.000396757
0.000398064
0.000399467
0.000400922
0.000402394
0.000403854
0.000405275
0.00040664
0.000407933
0.000409143
0.000410263
0.000411288
0.000412215
0.000413045
0.000413778
0.000414417
0.000414966
0.000415428
0.000415808
0.000416112
0.000416344
0.00041651
0.000416615
0.000416666
0.000409669
0.000410348
0.000411286
0.000412422
0.000413699
0.00041507
0.000416493
0.000417932
0.000419359
0.000420749
0.000422084
0.000423349
0.000424532
0.000425628
0.000426631
0.000427538
0.00042835
0.000429068
0.000429693
0.00043023
0.000430682
0.000431054
0.000431351
0.000431579
0.000431741
0.000431844
0.000431894
0.000425059
0.000425723
0.000426641
0.000427752
0.000429001
0.000430343
0.000431735
0.000433143
0.00043454
0.0004359
0.000437207
0.000438445
0.000439603
0.000440676
0.000441658
0.000442546
0.000443341
0.000444044
0.000444656
0.000445182
0.000445625
0.000445989
0.00044628
0.000446503
0.000446662
0.000446763
0.000446811
0.000440125
0.000440775
0.000441674
0.000442761
0.000443984
0.000445298
0.000446661
0.00044804
0.000449408
0.00045074
0.00045202
0.000453232
0.000454367
0.000455418
0.00045638
0.00045725
0.000458029
0.000458718
0.000459318
0.000459833
0.000460267
0.000460624
0.000460909
0.000461127
0.000461283
0.000461382
0.000461429
0.00045488
0.000455516
0.000456397
0.000457462
0.00045866
0.000459947
0.000461283
0.000462634
0.000463974
0.00046528
0.000466534
0.000467722
0.000468835
0.000469865
0.000470807
0.000471661
0.000472424
0.000473099
0.000473687
0.000474192
0.000474618
0.000474968
0.000475247
0.000475461
0.000475614
0.000475711
0.000475758
0.000469335
0.000469959
0.000470821
0.000471866
0.000473041
0.000474302
0.000475611
0.000476936
0.00047825
0.00047953
0.00048076
0.000481925
0.000483016
0.000484026
0.00048495
0.000485787
0.000486536
0.000487198
0.000487775
0.00048827
0.000488687
0.00048903
0.000489304
0.000489514
0.000489664
0.00048976
0.000489805
0.000483501
0.000484113
0.000484959
0.000485983
0.000487136
0.000488373
0.000489657
0.000490957
0.000492245
0.000493501
0.000494707
0.00049585
0.00049692
0.000497911
0.000498818
0.000499639
0.000500373
0.000501022
0.000501588
0.000502074
0.000502483
0.00050282
0.000503089
0.000503295
0.000503442
0.000503536
0.00050358
0.000497389
0.00049799
0.00049882
0.000499825
0.000500955
0.000502169
0.000503429
0.000504704
0.000505968
0.000507201
0.000508384
0.000509505
0.000510556
0.000511528
0.000512417
0.000513223
0.000513944
0.000514581
0.000515136
0.000515613
0.000516015
0.000516345
0.000516609
0.000516811
0.000516956
0.000517047
0.000517091
0.000511008
0.000511597
0.000512412
0.000513398
0.000514507
0.000515698
0.000516935
0.000518187
0.000519427
0.000520637
0.000521798
0.000522899
0.000523929
0.000524884
0.000525757
0.000526548
0.000527255
0.00052788
0.000528425
0.000528893
0.000529287
0.000529612
0.000529871
0.000530069
0.000530211
0.000530301
0.000530344
0.000524365
0.000524943
0.000525743
0.00052671
0.000527799
0.000528969
0.000530182
0.000531411
0.000532629
0.000533816
0.000534956
0.000536036
0.000537048
0.000537984
0.000538842
0.000539618
0.000540312
0.000540926
0.000541461
0.00054192
0.000542307
0.000542626
0.00054288
0.000543075
0.000543214
0.000543302
0.000543344
0.000537466
0.000538033
0.000538818
0.000539768
0.000540837
0.000541985
0.000543177
0.000544382
0.000545578
0.000546743
0.000547862
0.000548923
0.000549916
0.000550835
0.000551677
0.000552438
0.00055312
0.000553722
0.000554248
0.000554698
0.000555078
0.000555391
0.00055564
0.000555831
0.000555968
0.000556055
0.000556096
0.000550316
0.000550873
0.000551644
0.000552576
0.000553625
0.000554752
0.000555921
0.000557105
0.000558278
0.000559422
0.00056052
0.000561561
0.000562536
0.000563438
0.000564264
0.000565012
0.000565681
0.000566272
0.000566787
0.00056723
0.000567602
0.000567909
0.000568154
0.000568342
0.000568476
0.000568561
0.000568601
0.000562918
0.000563465
0.000564221
0.000565136
0.000566166
0.000567272
0.000568419
0.000569581
0.000570733
0.000571855
0.000572933
0.000573954
0.00057491
0.000575796
0.000576606
0.000577339
0.000577996
0.000578576
0.000579082
0.000579516
0.000579881
0.000580182
0.000580422
0.000580606
0.000580738
0.000580821
0.000580861
0.000575275
0.000575811
0.000576553
0.000577451
0.000578461
0.000579546
0.000580671
0.000581811
0.00058294
0.000584041
0.000585098
0.0005861
0.000587038
0.000587906
0.000588701
0.00058942
0.000590064
0.000590633
0.000591129
0.000591554
0.000591913
0.000592208
0.000592444
0.000592624
0.000592753
0.000592835
0.000592874
0.000587384
0.00058791
0.000588638
0.000589518
0.000590509
0.000591572
0.000592676
0.000593793
0.0005949
0.000595979
0.000597016
0.000597998
0.000598917
0.000599768
0.000600547
0.000601252
0.000601882
0.00060244
0.000602926
0.000603343
0.000603694
0.000603983
0.000604214
0.000604391
0.000604517
0.000604597
0.000604636
0.000599245
0.00059976
0.000600473
0.000601335
0.000602306
0.000603348
0.000604429
0.000605523
0.000606608
0.000607665
0.000608679
0.000609641
0.000610541
0.000611375
0.000612137
0.000612828
0.000613445
0.000613991
0.000614466
0.000614875
0.000615219
0.000615502
0.000615728
0.000615901
0.000616024
0.000616103
0.00061614
0.00061085
0.000611355
0.000612053
0.000612897
0.000613846
0.000614866
0.000615924
0.000616995
0.000618056
0.00061909
0.000620082
0.000621023
0.000621904
0.000622719
0.000623464
0.000624139
0.000624743
0.000625277
0.000625742
0.000626141
0.000626477
0.000626754
0.000626975
0.000627144
0.000627265
0.000627341
0.000627378
0.000622194
0.000622687
0.000623369
0.000624194
0.000625122
0.000626118
0.000627152
0.000628198
0.000629234
0.000630244
0.000631214
0.000632133
0.000632992
0.000633788
0.000634516
0.000635175
0.000635765
0.000636285
0.000636739
0.000637129
0.000637457
0.000637727
0.000637943
0.000638108
0.000638225
0.0006383
0.000638336
0.000633263
0.000633744
0.000634409
0.000635214
0.000636119
0.000637091
0.000638099
0.000639119
0.00064013
0.000641114
0.00064206
0.000642955
0.000643793
0.000644568
0.000645278
0.000645919
0.000646494
0.000647001
0.000647443
0.000647822
0.000648142
0.000648405
0.000648615
0.000648775
0.00064889
0.000648963
0.000648998
0.000644043
0.000644511
0.000645159
0.000645942
0.000646823
0.000647768
0.000648749
0.000649742
0.000650725
0.000651682
0.000652601
0.000653471
0.000654286
0.000655039
0.000655729
0.000656352
0.00065691
0.000657403
0.000657832
0.000658201
0.000658511
0.000658766
0.00065897
0.000659126
0.000659237
0.000659308
0.000659342
0.000654515
0.000654969
0.000655598
0.000656358
0.000657213
0.00065813
0.000659081
0.000660044
0.000660997
0.000661925
0.000662815
0.000663659
0.000664448
0.000665178
0.000665845
0.000666449
0.000666989
0.000667466
0.000667882
0.000668239
0.000668539
0.000668786
0.000668983
0.000669134
0.000669242
0.00066931
0.000669343
0.000664655
0.000665095
0.000665702
0.000666437
0.000667264
0.00066815
0.00066907
0.000669999
0.00067092
0.000671816
0.000672676
0.00067349
0.000674251
0.000674955
0.000675599
0.000676181
0.000676702
0.000677162
0.000677563
0.000677906
0.000678196
0.000678434
0.000678624
0.000678769
0.000678873
0.000678939
0.00067897
0.000674435
0.000674859
0.000675444
0.000676151
0.000676946
0.000677799
0.000678684
0.000679577
0.000680462
0.000681323
0.000682149
0.000682931
0.000683662
0.000684338
0.000684956
0.000685514
0.000686014
0.000686455
0.000686839
0.000687168
0.000687446
0.000687674
0.000687856
0.000687995
0.000688095
0.000688158
0.000688188
0.000683823
0.000684228
0.000684788
0.000685465
0.000686226
0.000687042
0.000687888
0.000688742
0.000689588
0.00069041
0.000691199
0.000691945
0.000692643
0.000693287
0.000693877
0.000694409
0.000694885
0.000695306
0.000695672
0.000695985
0.000696249
0.000696467
0.00069664
0.000696772
0.000696867
0.000696927
0.000696956
0.000692779
0.000693165
0.000693698
0.000694341
0.000695065
0.00069584
0.000696643
0.000697454
0.000698256
0.000699036
0.000699783
0.000700491
0.000701151
0.000701762
0.000702319
0.000702823
0.000703273
0.000703671
0.000704016
0.000704313
0.000704562
0.000704767
0.000704931
0.000705056
0.000705145
0.000705202
0.000705229
0.000701263
0.000701627
0.00070213
0.000702737
0.000703418
0.000704148
0.000704904
0.000705667
0.000706422
0.000707155
0.000707857
0.000708521
0.000709141
0.000709714
0.000710237
0.000710709
0.000711131
0.000711503
0.000711827
0.000712104
0.000712337
0.000712529
0.000712682
0.000712799
0.000712883
0.000712936
0.000712961
0.00070923
0.000709569
0.000710039
0.000710605
0.000711241
0.000711922
0.000712626
0.000713337
0.000714039
0.000714721
0.000715374
0.00071599
0.000716566
0.000717097
0.000717582
0.000718019
0.00071841
0.000718754
0.000719054
0.000719311
0.000719526
0.000719704
0.000719845
0.000719953
0.00072003
0.000720079
0.000720103
0.000716631
0.000716945
0.000717378
0.0007179
0.000718486
0.000719113
0.000719761
0.000720415
0.00072106
0.000721686
0.000722285
0.00072285
0.000723377
0.000723864
0.000724307
0.000724707
0.000725064
0.000725379
0.000725652
0.000725886
0.000726083
0.000726245
0.000726374
0.000726472
0.000726542
0.000726587
0.000726608
0.000723422
0.000723708
0.000724101
0.000724576
0.000725108
0.000725677
0.000726265
0.000726857
0.000727441
0.000728007
0.000728548
0.000729058
0.000729533
0.000729971
0.000730371
0.00073073
0.000731051
0.000731334
0.000731579
0.000731789
0.000731966
0.000732111
0.000732226
0.000732314
0.000732377
0.000732417
0.000732436
0.000729561
0.000729816
0.000730168
0.000730592
0.000731067
0.000731574
0.000732098
0.000732625
0.000733144
0.000733646
0.000734126
0.000734578
0.000734998
0.000735386
0.000735738
0.000736056
0.000736338
0.000736587
0.000736803
0.000736988
0.000737143
0.000737271
0.000737372
0.000737449
0.000737505
0.00073754
0.000737556
0.000735012
0.000735236
0.000735545
0.000735916
0.000736331
0.000736774
0.000737231
0.00073769
0.000738141
0.000738578
0.000738994
0.000739386
0.00073975
0.000740084
0.000740389
0.000740662
0.000740906
0.00074112
0.000741306
0.000741465
0.000741598
0.000741708
0.000741795
0.000741861
0.000741908
0.000741938
0.000741953
0.000739756
0.000739948
0.000740211
0.000740528
0.000740883
0.00074126
0.000741649
0.000742039
0.000742422
0.000742792
0.000743144
0.000743474
0.000743781
0.000744063
0.000744319
0.000744549
0.000744753
0.000744933
0.000745088
0.000745221
0.000745333
0.000745424
0.000745496
0.000745552
0.000745591
0.000745616
0.000745628
0.000743786
0.000743945
0.000744165
0.000744428
0.000744722
0.000745035
0.000745356
0.000745678
0.000745993
0.000746297
0.000746586
0.000746857
0.000747108
0.000747339
0.000747547
0.000747735
0.000747901
0.000748047
0.000748173
0.00074828
0.00074837
0.000748444
0.000748503
0.000748548
0.00074858
0.0007486
0.000748609
0.000747117
0.000747246
0.000747422
0.000747634
0.00074787
0.00074812
0.000748377
0.000748634
0.000748885
0.000749127
0.000749356
0.00074957
0.000749769
0.00074995
0.000750114
0.000750261
0.000750392
0.000750506
0.000750605
0.000750689
0.000750759
0.000750817
0.000750862
0.000750897
0.000750922
0.000750938
0.000750945
0.000749787
0.000749886
0.000750023
0.000750187
0.000750369
0.000750562
0.000750759
0.000750956
0.000751149
0.000751333
0.000751508
0.000751671
0.000751821
0.000751959
0.000752083
0.000752194
0.000752292
0.000752378
0.000752452
0.000752515
0.000752568
0.000752611
0.000752645
0.000752671
0.000752689
0.000752701
0.000752706
0.000751852
0.000751926
0.000752027
0.000752148
0.000752283
0.000752425
0.00075257
0.000752715
0.000752856
0.00075299
0.000753118
0.000753236
0.000753345
0.000753445
0.000753534
0.000753614
0.000753685
0.000753746
0.000753799
0.000753844
0.000753882
0.000753913
0.000753937
0.000753956
0.000753969
0.000753977
0.000753981
0.000753389
0.000753441
0.000753512
0.000753597
0.000753692
0.000753791
0.000753893
0.000753994
0.000754092
0.000754185
0.000754273
0.000754355
0.000754431
0.000754499
0.000754561
0.000754616