/*--------------------------------*- C++ -*----------------------------------*\
| =========                 |                                                 |
| \\      /  F ield         | OpenFOAM: The Open Source CFD Toolbox           |
|  \\    /   O peration     | Version:  2106                                  |
|   \\  /    A nd           | Website:  www.openfoam.com                      |
|    \\/     M anipulation  |                                                 |
\*---------------------------------------------------------------------------*/
FoamFile
{
    version     2.0;
    format      ascii;
    arch        "LSB;label=32;scalar=64";
    class       volScalarField;
    location    "200.00032";
    object      I-C4H51;
}
// * * * * * * * * * * * * * * * * * * * * * * * * * * * * * * * * * * * * * //

dimensions      [0 0 0 0 0 0 0];

internalField   nonuniform List<scalar> 
3360
(
3.92902e-25
4.17482e-25
4.52093e-25
4.95102e-25
5.45083e-25
6.00703e-25
6.60681e-25
7.23772e-25
7.88776e-25
8.54542e-25
9.19997e-25
9.84152e-25
1.04613e-24
1.10516e-24
1.1606e-24
1.21194e-24
1.25878e-24
1.30086e-24
1.33803e-24
1.37023e-24
1.39751e-24
1.42002e-24
1.43795e-24
1.45159e-24
1.46124e-24
1.46728e-24
1.47009e-24
1.9867e-24
2.12417e-24
2.32069e-24
2.56975e-24
2.86641e-24
3.2065e-24
3.58626e-24
4.00204e-24
4.45015e-24
4.92673e-24
5.42764e-24
5.94837e-24
6.48392e-24
7.02886e-24
7.57732e-24
8.12299e-24
8.6592e-24
9.17893e-24
9.6749e-24
1.01398e-23
1.05662e-23
1.09471e-23
1.1276e-23
1.15469e-23
1.17548e-23
1.18958e-23
1.1967e-23
7.592e-24
8.21628e-24
9.11977e-24
1.02833e-23
1.16946e-23
1.3344e-23
1.52219e-23
1.73166e-23
1.96131e-23
2.20918e-23
2.47281e-23
2.74924e-23
3.03511e-23
3.32669e-23
3.61987e-23
3.91033e-23
4.19361e-23
4.46525e-23
4.72095e-23
4.9567e-23
5.16892e-23
5.35458e-23
5.51127e-23
5.63727e-23
5.73159e-23
5.79391e-23
5.82459e-23
2.74239e-23
2.99991e-23
3.3773e-23
3.87016e-23
4.47684e-23
5.19628e-23
6.0266e-23
6.9641e-23
8.00259e-23
9.13295e-23
1.0343e-22
1.16174e-22
1.29384e-22
1.42857e-22
1.56374e-22
1.69706e-22
1.82625e-22
1.94911e-22
2.06364e-22
2.16809e-22
2.26102e-22
2.34133e-22
2.40827e-22
2.46144e-22
2.50076e-22
2.52644e-22
2.53895e-22
1.01897e-22
1.12408e-22
1.27911e-22
1.4831e-22
1.73614e-22
2.0384e-22
2.38949e-22
2.78798e-22
3.23109e-22
3.71451e-22
4.2324e-22
4.7775e-22
5.34138e-22
5.9147e-22
6.4876e-22
7.05011e-22
7.59255e-22
8.10589e-22
8.5821e-22
9.01437e-22
9.39726e-22
9.72679e-22
1.00004e-21
1.0217e-21
1.03767e-21
1.04807e-21
1.05312e-21
3.88513e-22
4.31012e-22
4.93947e-22
5.77099e-22
6.80638e-22
8.04719e-22
9.49209e-22
1.11351e-21
1.29641e-21
1.49606e-21
1.70993e-21
1.93489e-21
2.16731e-21
2.40324e-21
2.63852e-21
2.86901e-21
3.09073e-21
3.30005e-21
3.49374e-21
3.66912e-21
3.82411e-21
3.9572e-21
4.06748e-21
4.1546e-21
4.21871e-21
4.2604e-21
4.28063e-21
1.50625e-21
1.67725e-21
1.93102e-21
2.26708e-21
2.68642e-21
3.18984e-21
3.77676e-21
4.44455e-21
5.18805e-21
5.99935e-21
6.86782e-21
7.78043e-21
8.72222e-21
9.67695e-21
1.06278e-20
1.15579e-20
1.24516e-20
1.32941e-20
1.40728e-20
1.47772e-20
1.5399e-20
1.59325e-20
1.63742e-20
1.67229e-20
1.69793e-20
1.7146e-20
1.72268e-20
5.89599e-21
6.57919e-21
7.59451e-21
8.94094e-21
1.06232e-20
1.2645e-20
1.50043e-20
1.76905e-20
2.06822e-20
2.39471e-20
2.74416e-20
3.11124e-20
3.48989e-20
3.8735e-20
4.25528e-20
4.6285e-20
4.98677e-20
5.32428e-20
5.63598e-20
5.91768e-20
6.16617e-20
6.37918e-20
6.55543e-20
6.69446e-20
6.79664e-20
6.86301e-20
6.89518e-20
2.3221e-20
2.59493e-20
3.00064e-20
3.53903e-20
4.21214e-20
5.02144e-20
5.9661e-20
7.0417e-20
8.23954e-20
9.54636e-20
1.09445e-19
1.24125e-19
1.39258e-19
1.54581e-19
1.69821e-19
1.84711e-19
1.98996e-19
2.12447e-19
2.24864e-19
2.36081e-19
2.45971e-19
2.54448e-19
2.6146e-19
2.6699e-19
2.71053e-19
2.73692e-19
2.74971e-19
9.16172e-20
1.02466e-19
1.18608e-19
1.40041e-19
1.66851e-19
1.99101e-19
2.36757e-19
2.79641e-19
3.27403e-19
3.79508e-19
4.35248e-19
4.9376e-19
5.54063e-19
6.15102e-19
6.75789e-19
7.35057e-19
7.91895e-19
8.45389e-19
8.94745e-19
9.39314e-19
9.78595e-19
1.01225e-18
1.04007e-18
1.062e-18
1.07811e-18
1.08857e-18
1.09364e-18
3.62069e-19
4.05204e-19
4.69393e-19
5.54635e-19
6.61276e-19
7.89558e-19
9.39339e-19
1.10989e-18
1.2998e-18
1.50691e-18
1.72838e-18
1.96077e-18
2.20016e-18
2.44235e-18
2.68304e-18
2.91799e-18
3.14321e-18
3.35508e-18
3.55049e-18
3.72688e-18
3.8823e-18
4.0154e-18
4.12542e-18
4.21214e-18
4.27582e-18
4.31716e-18
4.33718e-18
1.42944e-18
1.60041e-18
1.85488e-18
2.19286e-18
2.61569e-18
3.12432e-18
3.71812e-18
4.39416e-18
5.14672e-18
5.96721e-18
6.84427e-18
7.76417e-18
8.71137e-18
9.66921e-18
1.06206e-17
1.15488e-17
1.24382e-17
1.32743e-17
1.40451e-17
1.47406e-17
1.5353e-17
1.58772e-17
1.63103e-17
1.66515e-17
1.6902e-17
1.70645e-17
1.71432e-17
5.63718e-18
6.31408e-18
7.3214e-18
8.65899e-18
1.03319e-17
1.23435e-17
1.46908e-17
1.73617e-17
2.03329e-17
2.357e-17
2.70278e-17
3.06516e-17
3.43801e-17
3.81474e-17
4.18866e-17
4.55318e-17
4.90217e-17
5.23007e-17
5.53213e-17
5.80448e-17
6.04418e-17
6.24925e-17
6.41859e-17
6.55195e-17
6.6498e-17
6.71327e-17
6.74399e-17
2.21427e-17
2.48094e-17
2.87773e-17
3.40448e-17
4.06307e-17
4.85462e-17
5.77775e-17
6.82739e-17
7.99416e-17
9.26424e-17
1.06196e-16
1.20386e-16
1.3497e-16
1.4969e-16
1.64284e-16
1.78496e-16
1.92088e-16
2.04845e-16
2.16584e-16
2.27159e-16
2.36457e-16
2.44405e-16
2.50963e-16
2.56123e-16
2.59907e-16
2.6236e-16
2.63546e-16
8.6578e-17
9.70355e-17
1.12589e-16
1.33226e-16
1.59009e-16
1.89971e-16
2.26041e-16
2.67005e-16
3.1248e-16
3.6191e-16
4.14577e-16
4.69629e-16
5.26119e-16
5.83043e-16
6.39386e-16
6.94167e-16
7.46476e-16
7.955e-16
8.40552e-16
8.81079e-16
9.16672e-16
9.4706e-16
9.72108e-16
9.918e-16
1.00623e-15
1.01557e-15
1.02009e-15
3.36049e-16
3.76711e-16
4.3715e-16
5.17273e-16
6.17271e-16
7.37197e-16
8.76701e-16
1.03487e-15
1.21013e-15
1.40027e-15
1.60244e-15
1.81333e-15
2.02926e-15
2.24637e-15
2.46081e-15
2.66886e-15
2.86711e-15
3.05254e-15
3.22261e-15
3.37533e-15
3.50921e-15
3.62334e-15
3.71726e-15
3.791e-15
3.84495e-15
3.87986e-15
3.89672e-15
1.2924e-15
1.44882e-15
1.68108e-15
1.98857e-15
2.37171e-15
2.83031e-15
3.36261e-15
3.96465e-15
4.63002e-15
5.34983e-15
6.113e-15
6.90671e-15
7.71697e-15
8.52925e-15
9.32915e-15
1.0103e-14
1.08384e-14
1.15243e-14
1.21519e-14
1.27141e-14
1.32058e-14
1.36242e-14
1.39678e-14
1.42371e-14
1.44339e-14
1.4561e-14
1.46223e-14
4.91246e-15
5.50537e-15
6.38449e-15
7.54611e-15
8.99005e-15
1.07136e-14
1.27079e-14
1.49559e-14
1.74313e-14
2.00991e-14
2.29167e-14
2.58354e-14
2.88031e-14
3.17668e-14
3.46741e-14
3.74765e-14
4.013e-14
4.2597e-14
4.48469e-14
4.68563e-14
4.86093e-14
5.00967e-14
5.13157e-14
5.2269e-14
5.29642e-14
5.34126e-14
5.36285e-14
1.84087e-14
2.0614e-14
2.38768e-14
2.81762e-14
3.35026e-14
3.9836e-14
4.7133e-14
5.53205e-14
6.42929e-14
7.39147e-14
8.4025e-14
9.44456e-14
1.04989e-13
1.15466e-13
1.25696e-13
1.35512e-13
1.44767e-13
1.53337e-13
1.61123e-13
1.68053e-13
1.7408e-13
1.79178e-13
1.83345e-13
1.86597e-13
1.88962e-13
1.90485e-13
1.91217e-13
6.78152e-14
7.58194e-14
8.76283e-14
1.0313e-13
1.2225e-13
1.44868e-13
1.70784e-13
1.99691e-13
2.31176e-13
2.64731e-13
2.99771e-13
3.35666e-13
3.71765e-13
4.07433e-13
4.42067e-13
4.75128e-13
5.06146e-13
5.34739e-13
5.60607e-13
5.83541e-13
6.03413e-13
6.20171e-13
6.33828e-13
6.44455e-13
6.52169e-13
6.57125e-13
6.59503e-13
2.4492e-13
2.73114e-13
3.14553e-13
3.68687e-13
4.35068e-13
5.13094e-13
6.01878e-13
7.00198e-13
8.06504e-13
9.18965e-13
1.03556e-12
1.15415e-12
1.27262e-12
1.38891e-12
1.50116e-12
1.60769e-12
1.70712e-12
1.79832e-12
1.88047e-12
1.953e-12
2.01562e-12
2.06824e-12
2.111e-12
2.14419e-12
2.16822e-12
2.18363e-12
2.19101e-12
8.64527e-13
9.60305e-13
1.10042e-12
1.28238e-12
1.50395e-12
1.76239e-12
2.0541e-12
2.37447e-12
2.71799e-12
3.07844e-12
3.44918e-12
3.82342e-12
4.19458e-12
4.55647e-12
4.90356e-12
5.23108e-12
5.53511e-12
5.81262e-12
6.06146e-12
6.28029e-12
6.46851e-12
6.62618e-12
6.75392e-12
6.8528e-12
6.92425e-12
6.96996e-12
6.99182e-12
2.97312e-12
3.28514e-12
3.73915e-12
4.32464e-12
5.03196e-12
5.84996e-12
6.76506e-12
7.76111e-12
8.81974e-12
9.92109e-12
1.10446e-11
1.21701e-11
1.32783e-11
1.43516e-11
1.53747e-11
1.63347e-11
1.72213e-11
1.80268e-11
1.8746e-11
1.93761e-11
1.99162e-11
2.03673e-11
2.07318e-11
2.10132e-11
2.12162e-11
2.13458e-11
2.14077e-11
9.927e-12
1.08972e-11
1.23006e-11
1.40972e-11
1.62494e-11
1.87163e-11
2.14509e-11
2.44006e-11
2.75082e-11
3.07143e-11
3.39594e-11
3.71863e-11
4.0342e-11
4.33795e-11
4.62584e-11
4.89458e-11
5.14162e-11
5.36511e-11
5.56392e-11
5.73751e-11
5.88587e-11
6.00944e-11
6.10906e-11
6.18583e-11
6.24108e-11
6.27631e-11
6.29311e-11
3.2075e-11
3.49487e-11
3.90814e-11
4.43328e-11
5.0572e-11
5.76614e-11
6.54519e-11
7.37835e-11
8.24893e-11
9.14015e-11
1.00357e-10
1.09203e-10
1.17801e-10
1.26032e-10
1.33793e-10
1.41005e-10
1.47607e-10
1.53558e-10
1.58835e-10
1.63429e-10
1.67345e-10
1.706e-10
1.73219e-10
1.75233e-10
1.76681e-10
1.77603e-10
1.78042e-10
9.99917e-11
1.08118e-10
1.19741e-10
1.34412e-10
1.51712e-10
1.71217e-10
1.92484e-10
2.15054e-10
2.38468e-10
2.62273e-10
2.86041e-10
3.09382e-10
3.31947e-10
3.5344e-10
3.73618e-10
3.92292e-10
4.09326e-10
4.24631e-10
4.38162e-10
4.49912e-10
4.59905e-10
4.68194e-10
4.74851e-10
4.79965e-10
4.83635e-10
4.8597e-10
4.8708e-10
2.9977e-10
3.21892e-10
3.53397e-10
3.92952e-10
4.39325e-10
4.91291e-10
5.47611e-10
6.07035e-10
6.68333e-10
7.30327e-10
7.91918e-10
8.52118e-10
9.10065e-10
9.65034e-10
1.01644e-09
1.06385e-09
1.10695e-09
1.14554e-09
1.17956e-09
1.20902e-09
1.23399e-09
1.25466e-09
1.27121e-09
1.28389e-09
1.29297e-09
1.29873e-09
1.30147e-09
8.58024e-10
9.16796e-10
1.00036e-09
1.10508e-09
1.22764e-09
1.36476e-09
1.51319e-09
1.66965e-09
1.83095e-09
1.99403e-09
2.15601e-09
2.3143e-09
2.46661e-09
2.61103e-09
2.74596e-09
2.87023e-09
2.98299e-09
3.08373e-09
3.17224e-09
3.24859e-09
3.31305e-09
3.3661e-09
3.40834e-09
3.4405e-09
3.46336e-09
3.47776e-09
3.48453e-09
2.30573e-09
2.45971e-09
2.6795e-09
2.9565e-09
3.28306e-09
3.65177e-09
4.05516e-09
4.48561e-09
4.93546e-09
5.39706e-09
5.86292e-09
6.32591e-09
6.77937e-09
7.21722e-09
7.6341e-09
8.02543e-09
8.38742e-09
8.71712e-09
9.0124e-09
9.27191e-09
9.49504e-09
9.68187e-09
9.8331e-09
9.94998e-09
1.00342e-08
1.00879e-08
1.01134e-08
5.64166e-09
6.03228e-09
6.59622e-09
7.31814e-09
8.18633e-09
9.19041e-09
1.03203e-08
1.15656e-08
1.2915e-08
1.43565e-08
1.58768e-08
1.74614e-08
1.90944e-08
2.07584e-08
2.24347e-08
2.4103e-08
2.57416e-08
2.73279e-08
2.88385e-08
3.02501e-08
3.154e-08
3.26868e-08
3.36715e-08
3.44778e-08
3.50933e-08
3.55087e-08
3.5718e-08
1.21076e-08
1.30076e-08
1.43271e-08
1.60525e-08
1.81836e-08
2.07283e-08
2.36993e-08
2.71116e-08
3.09795e-08
3.53138e-08
4.01183e-08
4.53855e-08
5.10927e-08
5.71977e-08
6.36354e-08
7.03161e-08
7.71242e-08
8.39208e-08
9.05463e-08
9.6827e-08
1.02575e-07
1.07593e-07
1.11682e-07
1.14646e-07
1.16584e-07
1.17706e-07
1.18195e-07
2.25881e-08
2.43959e-08
2.7083e-08
3.06617e-08
3.518e-08
4.07091e-08
4.73335e-08
5.51397e-08
6.42026e-08
7.45682e-08
8.62341e-08
9.91277e-08
1.13085e-07
1.27832e-07
1.42973e-07
1.57984e-07
1.72199e-07
1.84812e-07
1.94894e-07
2.02914e-07
2.09229e-07
2.14116e-07
2.17794e-07
2.20448e-07
2.22243e-07
2.23322e-07
2.23805e-07
3.91469e-08
4.25403e-08
4.76288e-08
5.44748e-08
6.3203e-08
7.39638e-08
8.68976e-08
1.02091e-07
1.19529e-07
1.39032e-07
1.60205e-07
1.82375e-07
2.04526e-07
2.25234e-07
2.42931e-07
2.58225e-07
2.71488e-07
2.82958e-07
2.92805e-07
3.01165e-07
3.08156e-07
3.13881e-07
3.18435e-07
3.21905e-07
3.24382e-07
3.25945e-07
3.26684e-07
6.96935e-08
7.5905e-08
8.51663e-08
9.74942e-08
1.12939e-07
1.31481e-07
1.52932e-07
1.76824e-07
2.0225e-07
2.27707e-07
2.50867e-07
2.71951e-07
2.91344e-07
3.09197e-07
3.25567e-07
3.40516e-07
3.54056e-07
3.66196e-07
3.76947e-07
3.86328e-07
3.94365e-07
4.01095e-07
4.06551e-07
4.10785e-07
4.1386e-07
4.15834e-07
4.16782e-07
1.31885e-07
1.42065e-07
1.56766e-07
1.75381e-07
1.97015e-07
2.20199e-07
2.42579e-07
2.64398e-07
2.8582e-07
3.06737e-07
3.26965e-07
3.46356e-07
3.64788e-07
3.82153e-07
3.98358e-07
4.13324e-07
4.26994e-07
4.39327e-07
4.50302e-07
4.59916e-07
4.68181e-07
4.75128e-07
4.80773e-07
4.85164e-07
4.88359e-07
4.90422e-07
4.91416e-07
2.29296e-07
2.38241e-07
2.50706e-07
2.65913e-07
2.83138e-07
3.01712e-07
3.21056e-07
3.4076e-07
3.60491e-07
3.79967e-07
3.98943e-07
4.1721e-07
4.34598e-07
4.50969e-07
4.66215e-07
4.80256e-07
4.93039e-07
5.04533e-07
5.14728e-07
5.23629e-07
5.31261e-07
5.37657e-07
5.42865e-07
5.46905e-07
5.49836e-07
5.51721e-07
5.52629e-07
3.14755e-07
3.22971e-07
3.34369e-07
3.4822e-07
3.63884e-07
3.80796e-07
3.98467e-07
4.16482e-07
4.3449e-07
4.52198e-07
4.69365e-07
4.85799e-07
5.01348e-07
5.15897e-07
5.29364e-07
5.41694e-07
5.52857e-07
5.62841e-07
5.71654e-07
5.79314e-07
5.85854e-07
5.91313e-07
5.95741e-07
5.9919e-07
6.01686e-07
6.03288e-07
6.04058e-07
3.99827e-07
4.07243e-07
4.17499e-07
4.29917e-07
4.439e-07
4.58927e-07
4.74546e-07
4.90377e-07
5.06103e-07
5.21465e-07
5.36259e-07
5.50326e-07
5.63547e-07
5.7584e-07
5.87147e-07
5.9744e-07
6.06707e-07
6.14953e-07
6.22194e-07
6.28459e-07
6.33784e-07
6.38209e-07
6.41782e-07
6.44551e-07
6.4657e-07
6.47862e-07
6.48481e-07
4.82118e-07
4.88538e-07
4.97391e-07
5.08069e-07
5.2004e-07
5.3284e-07
5.46072e-07
5.59405e-07
5.72571e-07
5.85355e-07
5.9759e-07
6.09153e-07
6.19956e-07
6.2994e-07
6.39073e-07
6.47339e-07
6.54741e-07
6.61291e-07
6.67013e-07
6.71936e-07
6.76096e-07
6.79532e-07
6.82285e-07
6.84399e-07
6.85917e-07
6.86884e-07
6.87346e-07
5.57949e-07
5.63293e-07
5.70644e-07
5.79483e-07
5.89352e-07
5.99859e-07
6.10668e-07
6.21506e-07
6.32152e-07
6.42432e-07
6.52218e-07
6.61416e-07
6.69963e-07
6.7782e-07
6.84969e-07
6.91406e-07
6.97142e-07
7.02193e-07
7.06585e-07
7.10347e-07
7.13513e-07
7.16117e-07
7.18196e-07
7.19787e-07
7.20926e-07
7.21649e-07
7.21994e-07
6.25157e-07
6.29461e-07
6.35369e-07
6.4245e-07
6.5033e-07
6.58684e-07
6.67242e-07
6.75782e-07
6.84128e-07
6.92147e-07
6.99739e-07
7.06836e-07
7.13395e-07
7.1939e-07
7.24815e-07
7.29672e-07
7.33976e-07
7.37746e-07
7.41007e-07
7.43785e-07
7.46112e-07
7.48016e-07
7.4953e-07
7.50683e-07
7.51505e-07
7.52026e-07
7.52273e-07
6.83017e-07
6.86381e-07
6.90987e-07
6.96493e-07
7.02598e-07
7.09045e-07
7.15618e-07
7.22144e-07
7.28489e-07
7.34549e-07
7.40253e-07
7.45552e-07
7.50416e-07
7.54833e-07
7.58803e-07
7.62333e-07
7.65439e-07
7.6814e-07
7.7046e-07
7.72424e-07
7.74056e-07
7.75384e-07
7.76433e-07
7.77227e-07
7.7779e-07
7.78145e-07
7.78312e-07
7.31715e-07
7.34264e-07
7.37747e-07
7.41895e-07
7.46475e-07
7.51288e-07
7.56169e-07
7.60986e-07
7.65638e-07
7.70049e-07
7.74168e-07
7.77963e-07
7.81417e-07
7.84524e-07
7.8729e-07
7.89725e-07
7.91845e-07
7.9367e-07
7.95221e-07
7.9652e-07
7.97588e-07
7.98448e-07
7.9912e-07
7.99624e-07
7.99978e-07
8.00199e-07
8.00302e-07
7.71941e-07
7.73803e-07
7.7634e-07
7.79347e-07
7.8265e-07
7.86099e-07
7.89569e-07
7.92964e-07
7.96212e-07
7.99259e-07
8.02072e-07
8.0463e-07
8.06927e-07
8.08963e-07
8.10747e-07
8.12291e-07
8.13611e-07
8.14727e-07
8.15657e-07
8.16419e-07
8.17034e-07
8.17518e-07
8.17888e-07
8.1816e-07
8.18346e-07
8.1846e-07
8.18513e-07
8.04617e-07
8.05912e-07
8.07667e-07
8.09734e-07
8.11985e-07
8.1431e-07
8.16623e-07
8.18854e-07
8.20954e-07
8.22889e-07
8.24638e-07
8.26193e-07
8.27551e-07
8.28721e-07
8.29712e-07
8.30538e-07
8.31216e-07
8.31763e-07
8.32195e-07
8.32529e-07
8.32782e-07
8.32967e-07
8.33097e-07
8.33185e-07
8.33239e-07
8.33269e-07
8.33281e-07
8.30739e-07
8.31571e-07
8.32689e-07
8.3399e-07
8.35385e-07
8.36799e-07
8.38173e-07
8.39461e-07
8.40633e-07
8.4167e-07
8.42562e-07
8.43308e-07
8.43913e-07
8.44388e-07
8.44745e-07
8.44998e-07
8.45164e-07
8.45258e-07
8.45295e-07
8.45291e-07
8.45257e-07
8.45206e-07
8.45147e-07
8.4509e-07
8.45041e-07
8.45004e-07
8.44985e-07
8.51282e-07
8.5174e-07
8.52344e-07
8.53027e-07
8.53733e-07
8.54413e-07
8.55031e-07
8.55563e-07
8.5599e-07
8.56308e-07
8.56514e-07
8.56615e-07
8.56621e-07
8.56543e-07
8.56396e-07
8.56195e-07
8.55956e-07
8.55692e-07
8.55418e-07
8.55147e-07
8.54888e-07
8.54652e-07
8.54445e-07
8.54275e-07
8.54145e-07
8.54057e-07
8.54013e-07
8.67144e-07
8.67302e-07
8.67495e-07
8.67684e-07
8.67838e-07
8.67932e-07
8.67947e-07
8.67875e-07
8.6771e-07
8.67456e-07
8.67118e-07
8.66708e-07
8.66239e-07
8.65724e-07
8.6518e-07
8.64622e-07
8.64064e-07
8.6352e-07
8.63003e-07
8.62522e-07
8.62088e-07
8.61708e-07
8.61387e-07
8.61129e-07
8.60935e-07
8.60808e-07
8.60745e-07
8.79125e-07
8.79046e-07
8.7891e-07
8.78706e-07
8.78422e-07
8.7805e-07
8.77588e-07
8.77038e-07
8.76405e-07
8.75698e-07
8.74932e-07
8.74119e-07
8.73276e-07
8.7242e-07
8.71565e-07
8.70727e-07
8.6992e-07
8.69158e-07
8.68451e-07
8.67809e-07
8.6724e-07
8.66748e-07
8.66338e-07
8.66013e-07
8.65771e-07
8.65613e-07
8.65536e-07
8.87921e-07
8.87652e-07
8.87258e-07
8.86743e-07
8.86113e-07
8.85374e-07
8.84535e-07
8.83608e-07
8.82607e-07
8.81546e-07
8.80443e-07
8.79316e-07
8.78181e-07
8.77058e-07
8.75961e-07
8.74906e-07
8.73907e-07
8.72977e-07
8.72124e-07
8.71358e-07
8.70684e-07
8.70107e-07
8.6963e-07
8.69252e-07
8.68974e-07
8.68793e-07
8.68705e-07
8.94121e-07
8.93704e-07
8.93105e-07
8.92346e-07
8.91444e-07
8.90417e-07
8.89283e-07
8.88062e-07
8.86772e-07
8.85435e-07
8.84071e-07
8.82699e-07
8.81339e-07
8.80009e-07
8.78725e-07
8.77504e-07
8.76358e-07
8.75298e-07
8.74334e-07
8.73473e-07
8.7272e-07
8.72079e-07
8.7155e-07
8.71134e-07
8.70828e-07
8.7063e-07
8.70533e-07
8.9822e-07
8.97686e-07
8.96928e-07
8.95978e-07
8.94864e-07
8.93612e-07
8.92249e-07
8.90798e-07
8.89286e-07
8.87735e-07
8.86169e-07
8.84609e-07
8.83075e-07
8.81587e-07
8.80161e-07
8.78813e-07
8.77554e-07
8.76397e-07
8.75349e-07
8.74417e-07
8.73605e-07
8.72915e-07
8.72349e-07
8.71904e-07
8.71578e-07
8.71366e-07
8.71263e-07
9.00627e-07
9.00004e-07
8.99122e-07
8.98023e-07
8.96745e-07
8.95319e-07
8.93778e-07
8.92152e-07
8.90468e-07
8.88753e-07
8.87032e-07
8.85328e-07
8.83663e-07
8.82055e-07
8.80522e-07
8.79078e-07
8.77736e-07
8.76505e-07
8.75395e-07
8.7441e-07
8.73555e-07
8.7283e-07
8.72235e-07
8.71769e-07
8.71429e-07
8.71208e-07
8.71101e-07
9.01681e-07
9.00988e-07
9.0001e-07
8.98797e-07
8.97392e-07
8.95834e-07
8.94157e-07
8.92396e-07
8.90581e-07
8.88742e-07
8.86904e-07
8.85093e-07
8.83328e-07
8.81631e-07
8.80018e-07
8.78504e-07
8.771e-07
8.75816e-07
8.7466e-07
8.73637e-07
8.7275e-07
8.72e-07
8.71386e-07
8.70905e-07
8.70554e-07
8.70327e-07
8.70217e-07
9.01655e-07
9.00908e-07
8.99857e-07
8.98558e-07
8.97056e-07
8.95396e-07
8.93617e-07
8.91754e-07
8.89842e-07
8.87909e-07
8.85985e-07
8.84093e-07
8.82256e-07
8.80494e-07
8.78823e-07
8.77257e-07
8.75809e-07
8.74487e-07
8.73299e-07
8.7225e-07
8.71341e-07
8.70573e-07
8.69946e-07
8.69455e-07
8.69097e-07
8.68865e-07
8.68753e-07
9.00771e-07
8.99983e-07
8.98878e-07
8.97512e-07
8.95939e-07
8.94203e-07
8.92347e-07
8.90409e-07
8.88424e-07
8.86424e-07
8.84436e-07
8.82486e-07
8.80597e-07
8.78788e-07
8.77076e-07
8.75474e-07
8.73996e-07
8.72648e-07
8.71439e-07
8.70371e-07
8.69448e-07
8.68669e-07
8.68033e-07
8.67536e-07
8.67173e-07
8.66939e-07
8.66826e-07
8.99207e-07
8.98389e-07
8.97243e-07
8.95829e-07
8.94202e-07
8.92411e-07
8.90499e-07
8.88506e-07
8.86469e-07
8.8442e-07
8.82387e-07
8.80396e-07
8.78471e-07
8.7663e-07
8.7489e-07
8.73265e-07
8.71767e-07
8.70403e-07
8.6918e-07
8.68101e-07
8.6717e-07
8.66384e-07
8.65743e-07
8.65243e-07
8.64878e-07
8.64642e-07
8.64529e-07
8.97106e-07
8.96267e-07
8.9509e-07
8.93641e-07
8.91976e-07
8.90145e-07
8.88193e-07
8.86162e-07
8.84089e-07
8.82005e-07
8.79942e-07
8.77925e-07
8.75976e-07
8.74114e-07
8.72357e-07
8.70718e-07
8.69207e-07
8.67834e-07
8.66604e-07
8.6552e-07
8.64584e-07
8.63796e-07
8.63153e-07
8.62651e-07
8.62286e-07
8.6205e-07
8.61936e-07
8.94582e-07
8.93727e-07
8.92529e-07
8.91056e-07
8.89363e-07
8.87505e-07
8.85526e-07
8.83469e-07
8.81371e-07
8.79267e-07
8.77184e-07
8.7515e-07
8.73187e-07
8.71314e-07
8.69547e-07
8.67901e-07
8.66385e-07
8.65007e-07
8.63774e-07
8.62689e-07
8.61753e-07
8.60964e-07
8.60322e-07
8.5982e-07
8.59455e-07
8.5922e-07
8.59106e-07
8.91723e-07
8.90857e-07
8.89645e-07
8.88155e-07
8.86445e-07
8.84568e-07
8.82572e-07
8.80499e-07
8.78387e-07
8.76269e-07
8.74176e-07
8.72133e-07
8.70163e-07
8.68285e-07
8.66516e-07
8.64867e-07
8.63351e-07
8.61974e-07
8.60742e-07
8.59658e-07
8.58723e-07
8.57937e-07
8.57296e-07
8.56797e-07
8.56433e-07
8.56198e-07
8.56085e-07
8.88598e-07
8.87726e-07
8.86505e-07
8.85004e-07
8.83283e-07
8.81396e-07
8.7939e-07
8.77308e-07
8.75188e-07
8.73065e-07
8.70968e-07
8.68922e-07
8.66951e-07
8.65073e-07
8.63304e-07
8.61658e-07
8.60144e-07
8.58771e-07
8.57542e-07
8.56462e-07
8.55531e-07
8.54748e-07
8.54111e-07
8.53614e-07
8.53252e-07
8.53019e-07
8.52907e-07
8.85261e-07
8.84385e-07
8.83158e-07
8.81652e-07
8.79925e-07
8.78033e-07
8.76022e-07
8.73937e-07
8.71815e-07
8.69691e-07
8.67594e-07
8.6555e-07
8.63582e-07
8.61708e-07
8.59943e-07
8.58302e-07
8.56794e-07
8.55426e-07
8.54203e-07
8.53128e-07
8.52202e-07
8.51423e-07
8.50789e-07
8.50296e-07
8.49936e-07
8.49705e-07
8.49593e-07
8.8175e-07
8.80871e-07
8.79643e-07
8.78134e-07
8.76405e-07
8.74511e-07
8.725e-07
8.70416e-07
8.68296e-07
8.66174e-07
8.64081e-07
8.62042e-07
8.60079e-07
8.5821e-07
8.56453e-07
8.54818e-07
8.53317e-07
8.51956e-07
8.50739e-07
8.49671e-07
8.4875e-07
8.47977e-07
8.47347e-07
8.46857e-07
8.46501e-07
8.46271e-07
8.4616e-07
8.78092e-07
8.77213e-07
8.75984e-07
8.74475e-07
8.72747e-07
8.70854e-07
8.68845e-07
8.66764e-07
8.64647e-07
8.62531e-07
8.60443e-07
8.58411e-07
8.56455e-07
8.54594e-07
8.52844e-07
8.51217e-07
8.49724e-07
8.4837e-07
8.47161e-07
8.46099e-07
8.45185e-07
8.44417e-07
8.43792e-07
8.43305e-07
8.42952e-07
8.42724e-07
8.42614e-07
8.74304e-07
8.73425e-07
8.72197e-07
8.70689e-07
8.68963e-07
8.67073e-07
8.65068e-07
8.62991e-07
8.6088e-07
8.58769e-07
8.56688e-07
8.54663e-07
8.52714e-07
8.50862e-07
8.4912e-07
8.47501e-07
8.46016e-07
8.4467e-07
8.43468e-07
8.42413e-07
8.41504e-07
8.40742e-07
8.40121e-07
8.39638e-07
8.39287e-07
8.39062e-07
8.38953e-07
8.70394e-07
8.69516e-07
8.68289e-07
8.66783e-07
8.65059e-07
8.63172e-07
8.61171e-07
8.59098e-07
8.56993e-07
8.54888e-07
8.52814e-07
8.50795e-07
8.48854e-07
8.47009e-07
8.45275e-07
8.43664e-07
8.42186e-07
8.40847e-07
8.39652e-07
8.38603e-07
8.37701e-07
8.36943e-07
8.36327e-07
8.35848e-07
8.35499e-07
8.35275e-07
8.35167e-07
8.66361e-07
8.65484e-07
8.64258e-07
8.62753e-07
8.61032e-07
8.59147e-07
8.57149e-07
8.5508e-07
8.52979e-07
8.50879e-07
8.4881e-07
8.46798e-07
8.44863e-07
8.43024e-07
8.41297e-07
8.39692e-07
8.38221e-07
8.36888e-07
8.35699e-07
8.34656e-07
8.33758e-07
8.33005e-07
8.32393e-07
8.31916e-07
8.3157e-07
8.31348e-07
8.31241e-07
8.62197e-07
8.61319e-07
8.60093e-07
8.58589e-07
8.56868e-07
8.54985e-07
8.52988e-07
8.50921e-07
8.48822e-07
8.46726e-07
8.4466e-07
8.42651e-07
8.4072e-07
8.38886e-07
8.37163e-07
8.35564e-07
8.34097e-07
8.32769e-07
8.31584e-07
8.30545e-07
8.29651e-07
8.28902e-07
8.28292e-07
8.27819e-07
8.27475e-07
8.27253e-07
8.27147e-07
8.57883e-07
8.57004e-07
8.55777e-07
8.54271e-07
8.52548e-07
8.50664e-07
8.48665e-07
8.46597e-07
8.44498e-07
8.42401e-07
8.40336e-07
8.38327e-07
8.36398e-07
8.34565e-07
8.32844e-07
8.31246e-07
8.29782e-07
8.28456e-07
8.27274e-07
8.26238e-07
8.25347e-07
8.24599e-07
8.23992e-07
8.2352e-07
8.23177e-07
8.22957e-07
8.22851e-07
8.53393e-07
8.52512e-07
8.51281e-07
8.4977e-07
8.48043e-07
8.46153e-07
8.44149e-07
8.42076e-07
8.39972e-07
8.3787e-07
8.35801e-07
8.33789e-07
8.31856e-07
8.30021e-07
8.28298e-07
8.26699e-07
8.25233e-07
8.23907e-07
8.22725e-07
8.21689e-07
8.20798e-07
8.20052e-07
8.19445e-07
8.18974e-07
8.18632e-07
8.18412e-07
8.18306e-07
8.48691e-07
8.47804e-07
8.46567e-07
8.45048e-07
8.43311e-07
8.41411e-07
8.39396e-07
8.37313e-07
8.35198e-07
8.33086e-07
8.31007e-07
8.28986e-07
8.27045e-07
8.25202e-07
8.23472e-07
8.21867e-07
8.20397e-07
8.19067e-07
8.17882e-07
8.16843e-07
8.1595e-07
8.15202e-07
8.14595e-07
8.14123e-07
8.13781e-07
8.13561e-07
8.13455e-07
8.43728e-07
8.42834e-07
8.41585e-07
8.40053e-07
8.38301e-07
8.36384e-07
8.34353e-07
8.32251e-07
8.30119e-07
8.27989e-07
8.25893e-07
8.23856e-07
8.219e-07
8.20043e-07
8.18301e-07
8.16685e-07
8.15204e-07
8.13865e-07
8.12673e-07
8.11628e-07
8.10731e-07
8.09979e-07
8.09368e-07
8.08895e-07
8.08551e-07
8.0833e-07
8.08224e-07
8.38444e-07
8.37539e-07
8.36274e-07
8.34722e-07
8.32948e-07
8.31006e-07
8.28949e-07
8.26821e-07
8.24662e-07
8.22506e-07
8.20384e-07
8.18322e-07
8.16342e-07
8.14464e-07
8.12701e-07
8.11067e-07
8.0957e-07
8.08217e-07
8.07012e-07
8.05957e-07
8.05051e-07
8.04292e-07
8.03677e-07
8.03199e-07
8.02853e-07
8.0263e-07
8.02524e-07
8.32763e-07
8.31842e-07
8.30555e-07
8.28976e-07
8.2717e-07
8.25194e-07
8.231e-07
8.20935e-07
8.18737e-07
8.16544e-07
8.14385e-07
8.12287e-07
8.10274e-07
8.08364e-07
8.06572e-07
8.04911e-07
8.03391e-07
8.02017e-07
8.00794e-07
7.99723e-07
7.98804e-07
7.98034e-07
7.9741e-07
7.96926e-07
7.96576e-07
7.96351e-07
7.96243e-07
8.26591e-07
8.25649e-07
8.24331e-07
8.22715e-07
8.20866e-07
8.18844e-07
8.16701e-07
8.14485e-07
8.12235e-07
8.0999e-07
8.07781e-07
8.05635e-07
8.03576e-07
8.01622e-07
7.9979e-07
7.98092e-07
7.96539e-07
7.95135e-07
7.93886e-07
7.92793e-07
7.91856e-07
7.91071e-07
7.90436e-07
7.89943e-07
7.89586e-07
7.89357e-07
7.89247e-07
8.19814e-07
8.18842e-07
8.17485e-07
8.1582e-07
8.13915e-07
8.11831e-07
8.09623e-07
8.07339e-07
8.05021e-07
8.02708e-07
8.00432e-07
7.98222e-07
7.96101e-07
7.9409e-07
7.92204e-07
7.90457e-07
7.88859e-07
7.87416e-07
7.86133e-07
7.8501e-07
7.84048e-07
7.83243e-07
7.82591e-07
7.82086e-07
7.81721e-07
7.81487e-07
7.81375e-07
8.12289e-07
8.11281e-07
8.09872e-07
8.08143e-07
8.06166e-07
8.04002e-07
8.01709e-07
7.99338e-07
7.96932e-07
7.9453e-07
7.92168e-07
7.89874e-07
7.87673e-07
7.85587e-07
7.83632e-07
7.81821e-07
7.80165e-07
7.78671e-07
7.77343e-07
7.76181e-07
7.75187e-07
7.74355e-07
7.73682e-07
7.73161e-07
7.72785e-07
7.72544e-07
7.72428e-07
8.03847e-07
8.02791e-07
8.01317e-07
7.99507e-07
7.97437e-07
7.95172e-07
7.92771e-07
7.90288e-07
7.87769e-07
7.85255e-07
7.82782e-07
7.80382e-07
7.7808e-07
7.75897e-07
7.73854e-07
7.71962e-07
7.70232e-07
7.68673e-07
7.67287e-07
7.66077e-07
7.6504e-07
7.64175e-07
7.63475e-07
7.62934e-07
7.62543e-07
7.62293e-07
7.62174e-07
7.9428e-07
7.93166e-07
7.91608e-07
7.89696e-07
7.87509e-07
7.85116e-07
7.8258e-07
7.79957e-07
7.77296e-07
7.7464e-07
7.72029e-07
7.69495e-07
7.67065e-07
7.64763e-07
7.62608e-07
7.60614e-07
7.58793e-07
7.57152e-07
7.55694e-07
7.54423e-07
7.53335e-07
7.52427e-07
7.51694e-07
7.51127e-07
7.50719e-07
7.50458e-07
7.50333e-07
7.83342e-07
7.82153e-07
7.80492e-07
7.78453e-07
7.7612e-07
7.73568e-07
7.70864e-07
7.68066e-07
7.65229e-07
7.62399e-07
7.59616e-07
7.56916e-07
7.54329e-07
7.51879e-07
7.49586e-07
7.47467e-07
7.45533e-07
7.43791e-07
7.42246e-07
7.40898e-07
7.39747e-07
7.38788e-07
7.38014e-07
7.37416e-07
7.36986e-07
7.36712e-07
7.36581e-07
7.70736e-07
7.69456e-07
7.67667e-07
7.65472e-07
7.62961e-07
7.60213e-07
7.57302e-07
7.54291e-07
7.51237e-07
7.48193e-07
7.45201e-07
7.42299e-07
7.39519e-07
7.36889e-07
7.3443e-07
7.32159e-07
7.30088e-07
7.28224e-07
7.26573e-07
7.25135e-07
7.23908e-07
7.22887e-07
7.22064e-07
7.2143e-07
7.20974e-07
7.20684e-07
7.20546e-07
7.56118e-07
7.54727e-07
7.52783e-07
7.50398e-07
7.47669e-07
7.44685e-07
7.41522e-07
7.38253e-07
7.3494e-07
7.31637e-07
7.28392e-07
7.25248e-07
7.22239e-07
7.19394e-07
7.16736e-07
7.14284e-07
7.1205e-07
7.10043e-07
7.08267e-07
7.06723e-07
7.05407e-07
7.04313e-07
7.03434e-07
7.02758e-07
7.02272e-07
7.01964e-07
7.01817e-07
7.39091e-07
7.37567e-07
7.35438e-07
7.32825e-07
7.29837e-07
7.26569e-07
7.23109e-07
7.19533e-07
7.15911e-07
7.12302e-07
7.08761e-07
7.05331e-07
7.02053e-07
6.98956e-07
6.96068e-07
6.93405e-07
6.90984e-07
6.88811e-07
6.86892e-07
6.85226e-07
6.83809e-07
6.82634e-07
6.81691e-07
6.80967e-07
6.80449e-07
6.8012e-07
6.79964e-07
7.19218e-07
7.17538e-07
7.15191e-07
7.12312e-07
7.0902e-07
7.05422e-07
7.01614e-07
6.97682e-07
6.93702e-07
6.89742e-07
6.85859e-07
6.82104e-07
6.78518e-07
6.75137e-07
6.71986e-07
6.69088e-07
6.66457e-07
6.64101e-07
6.62023e-07
6.60224e-07
6.58696e-07
6.57433e-07
6.56421e-07
6.55647e-07
6.55094e-07
6.54745e-07
6.5458e-07
6.96043e-07
6.94183e-07
6.91587e-07
6.88404e-07
6.84766e-07
6.80795e-07
6.76595e-07
6.72263e-07
6.67883e-07
6.63531e-07
6.5927e-07
6.55155e-07
6.51234e-07
6.47542e-07
6.4411e-07
6.40958e-07
6.38103e-07
6.35553e-07
6.3331e-07
6.31372e-07
6.29732e-07
6.28379e-07
6.27299e-07
6.26475e-07
6.25889e-07
6.25519e-07
6.25345e-07
6.69133e-07
6.67076e-07
6.64205e-07
6.60689e-07
6.56675e-07
6.52296e-07
6.47673e-07
6.42911e-07
6.38106e-07
6.33338e-07
6.2868e-07
6.24192e-07
6.19923e-07
6.15914e-07
6.12196e-07
6.08792e-07
6.05716e-07
6.02976e-07
6.00574e-07
5.98505e-07
5.9676e-07
5.95325e-07
5.94185e-07
5.93318e-07
5.92704e-07
5.92318e-07
5.92138e-07
6.38155e-07
6.35891e-07
6.32735e-07
6.28873e-07
6.24472e-07
6.19678e-07
6.14626e-07
6.09433e-07
6.04205e-07
5.9903e-07
5.93987e-07
5.89141e-07
5.84546e-07
5.80243e-07
5.76265e-07
5.72634e-07
5.69364e-07
5.66463e-07
5.63927e-07
5.61752e-07
5.59924e-07
5.58427e-07
5.57241e-07
5.56344e-07
5.55709e-07
5.55311e-07
5.55122e-07
6.02972e-07
6.00509e-07
5.97079e-07
5.92889e-07
5.88122e-07
5.82942e-07
5.77497e-07
5.71915e-07
5.66311e-07
5.60782e-07
5.55412e-07
5.50269e-07
5.4541e-07
5.40877e-07
5.36703e-07
5.32909e-07
5.29507e-07
5.26501e-07
5.23886e-07
5.21654e-07
5.19787e-07
5.18267e-07
5.17069e-07
5.16168e-07
5.15534e-07
5.15139e-07
5.14952e-07
5.63753e-07
5.6112e-07
5.57456e-07
5.5299e-07
5.47922e-07
5.42429e-07
5.36671e-07
5.30789e-07
5.24903e-07
5.19118e-07
5.13519e-07
5.0818e-07
5.03154e-07
4.98487e-07
4.94207e-07
4.90334e-07
4.86877e-07
4.83837e-07
4.81206e-07
4.78971e-07
4.77112e-07
4.75607e-07
4.74428e-07
4.73547e-07
4.72932e-07
4.72552e-07
4.72375e-07
5.21025e-07
5.18264e-07
5.14428e-07
5.09759e-07
5.04471e-07
4.98752e-07
4.9277e-07
4.86671e-07
4.80579e-07
4.746e-07
4.68819e-07
4.63307e-07
4.58118e-07
4.53291e-07
4.48857e-07
4.44833e-07
4.41223e-07
4.38023e-07
4.3522e-07
4.32792e-07
4.30713e-07
4.2895e-07
4.27467e-07
4.26228e-07
4.25281e-07
4.24651e-07
4.24339e-07
4.75545e-07
4.72678e-07
4.68692e-07
4.63832e-07
4.58309e-07
4.5231e-07
4.45993e-07
4.39495e-07
4.32924e-07
4.26357e-07
4.19835e-07
4.13371e-07
4.0694e-07
4.00487e-07
3.94234e-07