/*--------------------------------*- C++ -*----------------------------------*\
| =========                 |                                                 |
| \\      /  F ield         | OpenFOAM: The Open Source CFD Toolbox           |
|  \\    /   O peration     | Version:  2212                                  |
|   \\  /    A nd           | Website:  www.openfoam.com                      |
|    \\/     M anipulation  |                                                 |
\*---------------------------------------------------------------------------*/
FoamFile
{
    version     2.0;
    format      ascii;
    arch        "LSB;label=32;scalar=64";
    class       volScalarField;
    location    "30.00000000";
    object      A2CH3-2;
}
// * * * * * * * * * * * * * * * * * * * * * * * * * * * * * * * * * * * * * //

dimensions      [0 0 0 0 0 0 0];

internalField   nonuniform List<scalar> 
3000
(
1.07269508e-20
1.205150367e-20
1.405034071e-20
1.671414292e-20
2.001597437e-20
2.386630969e-20
2.803326224e-20
3.200977255e-20
3.482152302e-20
4.027863162e-20
4.543500989e-20
5.321301621e-20
6.360157305e-20
7.659089665e-20
9.21099241e-20
1.098889831e-19
1.290347957e-19
1.459893452e-19
9.02446507e-20
1.02599282e-19
1.214132157e-19
1.469600975e-19
1.797002458e-19
2.201103731e-19
2.680294393e-19
3.207715794e-19
3.658329918e-19
1.719498906e-19
1.975419126e-19
2.370861493e-19
2.919238598e-19
3.640010043e-19
4.551531136e-19
5.648821847e-19
6.844155043e-19
7.808894428e-19
3.054778247e-19
3.552598358e-19
4.333939906e-19
5.438574274e-19
6.918539662e-19
8.815419208e-19
1.109754476e-18
1.352139751e-18
1.538216698e-18
5.255827855e-19
6.190750304e-19
7.679199997e-19
9.816361486e-19
1.271644878e-18
1.645269849e-18
2.091365956e-18
2.553695249e-18
2.895783073e-18
8.928384145e-19
1.06469377e-18
1.341488684e-18
1.74341179e-18
2.292888661e-18
3.00089492e-18
3.838182466e-18
4.689012635e-18
5.303030051e-18
1.512093745e-18
1.823328647e-18
2.329070412e-18
3.069118587e-18
4.084826389e-18
5.390905847e-18
6.921894205e-18
8.454970406e-18
9.542859917e-18
2.565165673e-18
3.122839451e-18
4.034863028e-18
5.376115404e-18
7.220134963e-18
9.584736223e-18
1.233641774e-17
1.506305279e-17
1.697643993e-17
4.367065927e-18
5.358319997e-18
6.986701996e-18
9.388899027e-18
1.269309485e-17
1.691833393e-17
2.180736326e-17
2.66159616e-17
2.99650519e-17
7.463931391e-18
9.215174177e-18
1.210067189e-17
1.636492552e-17
2.222873809e-17
2.970783125e-17
3.832393211e-17
4.675409062e-17
5.259681577e-17
1.280290938e-17
1.588262279e-17
2.096676034e-17
2.848655019e-17
3.881904765e-17
5.196542164e-17
6.705589587e-17
8.176678374e-17
9.193927822e-17
2.202789345e-17
2.742615741e-17
3.634848488e-17
4.95483521e-17
6.76643112e-17
9.065201981e-17
1.169409817e-16
1.424928077e-16
1.602279667e-16
3.799415381e-17
4.743755033e-17
6.305958474e-17
8.617360449e-17
1.178575883e-16
1.579341568e-16
2.034931378e-16
2.474462646e-16
2.788129025e-16
6.566125249e-17
8.216436684e-17
1.09494102e-16
1.499618979e-16
2.054375557e-16
2.754698811e-16
3.54289598e-16
4.266215242e-16
4.859926161e-16
1.136327895e-16
1.42447804e-16
1.902292444e-16
2.611114742e-16
3.586088919e-16
4.826916622e-16
6.257107559e-16
7.686209234e-16
8.579679644e-16
1.968127653e-16
2.470386674e-16
3.303745037e-16
4.540500626e-16
6.241343391e-16
8.402055876e-16
1.087412721e-15
1.327095867e-15
1.489821257e-15
3.410495881e-16
4.284649626e-16
5.735356932e-16
7.888074336e-16
1.084675107e-15
1.460021167e-15
1.888464331e-15
2.30285716e-15
2.586510629e-15
5.912045628e-16
7.432068301e-16
9.954902663e-16
1.36982493e-15
1.884139581e-15
2.536260266e-15
3.280185504e-15
3.999498956e-15
4.492216788e-15
1.025147976e-15
1.289323567e-15
1.727829103e-15
2.378473219e-15
3.2723041e-15
4.405373362e-15
5.697632998e-15
6.946888336e-15
7.802507146e-15
1.778052951e-15
2.237047395e-15
2.999003772e-15
4.129602791e-15
5.682681721e-15
7.651182058e-15
9.89584098e-15
1.206536832e-14
1.355101166e-14
3.084585346e-15
3.881920685e-15
5.205639128e-15
7.169827421e-15
9.867860818e-15
1.328718345e-14
1.718556803e-14
2.095276887e-14
2.353208361e-14
5.352186686e-15
6.737099597e-15
9.036413519e-15
1.244824664e-14
1.713453387e-14
2.307299251e-14
2.984239711e-14
3.638288032e-14
4.086053317e-14
9.288368616e-15
1.169368792e-14
1.568722965e-14
2.161293758e-14
2.975158132e-14
4.00636562e-14
5.181680433e-14
6.317080218e-14
7.094292475e-14
1.612182839e-14
2.029923717e-14
2.723491898e-14
3.752575362e-14
5.165834173e-14
6.956263138e-14
8.996564399e-14
1.09672587e-13
1.231612929e-13
2.798644412e-14
3.52413507e-14
4.728603919e-14
6.515582707e-14
8.969340052e-14
1.207740387e-13
1.561851319e-13
1.90381434e-13
2.137844508e-13
4.858807361e-14
6.118739592e-14
8.210318577e-14
1.131300906e-13
1.557258454e-13
2.096666789e-13
2.71105981e-13
3.304211741e-13
3.710055602e-13
8.436207941e-14
1.062421267e-13
1.425595895e-13
1.964224856e-13
2.703483381e-13
3.639316126e-13
4.704829706e-13
5.733106189e-13
6.436433071e-13
1.464807537e-13
1.844750508e-13
2.475266902e-13
3.410114217e-13
4.692668454e-13
6.315483114e-13
8.162177227e-13
9.943351841e-13
1.116105252e-12
2.543309161e-13
3.202976466e-13
4.297376677e-13
5.919331808e-13
8.143337718e-13
1.095549517e-12
1.415319794e-12
1.723504531e-12
1.934045471e-12
4.415284838e-13
5.560308193e-13
7.459160234e-13
1.027174322e-12
1.412543999e-12
1.899382578e-12
2.452391696e-12
2.984786558e-12
3.348133114e-12
7.662975751e-13
9.649555323e-13
1.294222373e-12
1.78155836e-12
2.448617243e-12
3.2902796e-12
4.24499637e-12
5.162763038e-12
5.788240834e-12
1.32933019e-12
1.673748411e-12
2.244198666e-12
3.087644575e-12
4.240609187e-12
5.692999198e-12
7.337405687e-12
8.915042211e-12
9.988206383e-12
2.304408427e-12
2.900897348e-12
3.887926597e-12
5.34538313e-12
7.334243018e-12
9.834318329e-12
1.265805615e-11
1.536014757e-11
1.719365061e-11
3.990683353e-12
5.022159141e-12
6.726939002e-12
9.239973087e-12
1.26617174e-11
1.695139325e-11
2.178145036e-11
2.6388243e-11
2.950429092e-11
6.901473452e-12
8.681449217e-12
1.161887938e-11
1.593972796e-11
2.180666762e-11
2.913695414e-11
3.735888304e-11
4.516875463e-11
5.043063966e-11
1.191420973e-11
1.497743087e-11
2.00230417e-11
2.742524141e-11
3.744164253e-11
4.990452758e-11
6.381777312e-11
7.69683818e-11
8.578664688e-11
2.052194981e-11
2.5775066e-11
3.440776534e-11
4.703129937e-11
6.404192036e-11
8.510186002e-11
1.084811273e-10
1.304498394e-10
1.450994777e-10
3.525212307e-11
4.422132591e-11
5.891956675e-11
8.032870916e-11
1.090350732e-10
1.443660857e-10
1.833325534e-10
2.197018771e-10
2.438012502e-10
6.0357958e-11
7.559070303e-11
1.004699777e-10
1.365411309e-10
1.846263749e-10
2.43407132e-10
3.077556736e-10
3.673623378e-10
4.065831133e-10
1.029498343e-10
1.286570081e-10
1.704796991e-10
2.307908377e-10
3.106549046e-10
4.075356159e-10
5.127194293e-10
6.093485185e-10
6.72450278e-10
1.748281852e-10
2.178940928e-10
2.876420727e-10
3.876085002e-10
5.189956811e-10
6.770302582e-10
8.470757881e-10
1.001917188e-09
1.102232609e-09
2.95421133e-10
3.669642903e-10
4.822437636e-10
6.463404861e-10
8.602448425e-10
1.11518438e-09
1.386902311e-09
1.632060539e-09
1.789600421e-09
4.964381873e-10
6.141787998e-10
8.028291943e-10
1.069362522e-09
1.413728933e-09
1.820204891e-09
2.249185157e-09
2.632632589e-09
2.877038852e-09
8.291510972e-10
1.0209338e-09
1.326341836e-09
1.754387495e-09
2.302295207e-09
2.942593437e-09
3.611634989e-09
4.20413219e-09
4.578787038e-09
1.375635764e-09
1.684571514e-09
2.173353138e-09
2.852674013e-09
3.713908418e-09
4.710263822e-09
5.741108728e-09
6.645796458e-09
7.213504364e-09
2.26589418e-09
2.757727568e-09
3.530643003e-09
4.595650831e-09
5.932856816e-09
7.464504135e-09
9.034040351e-09
1.039965171e-08
1.12504569e-08
3.703572403e-09
4.477058522e-09
5.684284198e-09
7.333438085e-09
9.384431333e-09
1.171105812e-08
1.407355137e-08
1.611251947e-08
1.737441727e-08
6.004065689e-09
7.205369003e-09
9.067588688e-09
1.159006054e-08
1.469838707e-08
1.819218575e-08
2.170963086e-08
2.472280396e-08
2.657636605e-08
9.650247409e-09
1.1492678e-08
1.432990865e-08
1.814193354e-08
2.279845749e-08
2.798770998e-08
3.317109876e-08
3.75813556e-08
4.027963822e-08
1.537300796e-08
1.816382256e-08
2.243450432e-08
2.812862463e-08
3.502784598e-08
4.265595532e-08
5.02211994e-08
5.661903858e-08
6.051459444e-08
2.426643927e-08
2.844300413e-08
3.479671589e-08
4.320818159e-08
5.332420148e-08
6.442937847e-08
7.537287113e-08
8.457808513e-08
9.015953898e-08
3.795112829e-08
4.412954658e-08
5.347783014e-08
6.577378954e-08
8.046240144e-08
9.648488963e-08
1.121853618e-07
1.253302878e-07
1.332718444e-07
5.880400166e-08
6.784455139e-08
8.14558593e-08
9.925468807e-08
1.203899465e-07
1.433156918e-07
1.656712457e-07
1.843131458e-07
1.955416509e-07
9.027479702e-08
1.033686265e-07
1.229953161e-07
1.485277314e-07
1.78687477e-07
2.112434232e-07
2.428564532e-07
2.691283854e-07
2.849125901e-07
1.373263185e-07
1.561124961e-07
1.841622637e-07
2.204877862e-07
2.632015554e-07
3.091159641e-07
3.535407213e-07
3.90354159e-07
4.124254749e-07
2.070443609e-07
2.337664692e-07
2.735311052e-07
3.248270109e-07
3.849075986e-07
4.492588926e-07
5.113332912e-07
5.626496974e-07
5.933640207e-07
3.094737334e-07
3.471892431e-07
4.031505938e-07
4.750984646e-07
5.590855269e-07
6.487690314e-07
7.350586238e-07
8.062531254e-07
8.488075924e-07
4.587619568e-07
5.116220309e-07
5.898609093e-07
6.901632467e-07
8.069161415e-07
9.312678664e-07
1.050659409e-06
1.149007358e-06
1.207730666e-06
6.747180157e-07
7.483411395e-07
8.570833091e-07
9.961532537e-07
1.157642522e-06
1.329272197e-06
1.493766911e-06
1.629094663e-06
1.70983555e-06
9.849285732e-07
1.086898918e-06
1.2372433e-06
1.429124589e-06
1.651488017e-06
1.887391393e-06
2.113164868e-06
2.298719634e-06
2.409366329e-06
1.427618781e-06
1.568150191e-06
1.775039283e-06
2.038632805e-06
2.343584476e-06
2.666628278e-06
2.975445948e-06
3.229057842e-06
3.380232449e-06
2.055501936e-06
2.248321994e-06
2.531834639e-06
2.892533496e-06
3.30924311e-06
3.750146453e-06
4.17125336e-06
4.516887854e-06
4.722874455e-06
2.940935237e-06
3.204461481e-06
3.591533567e-06
4.083400341e-06
4.650997232e-06
5.250973961e-06
5.823617592e-06
6.293450298e-06
6.573436146e-06
4.182786346e-06
4.541687665e-06
5.068397306e-06
5.737057802e-06
6.507962651e-06
7.322242385e-06
8.099040156e-06
8.736230377e-06
9.115966858e-06
5.915512922e-06
6.402775065e-06
7.117367851e-06
8.023846368e-06
9.068194597e-06
1.017070708e-05
1.122213617e-05
1.208453278e-05
1.259855816e-05
8.321065989e-06
8.980710742e-06
9.947586467e-06
1.117336807e-05
1.258485962e-05
1.40744443e-05
1.549480973e-05
1.665989063e-05
1.735449904e-05
1.16443411e-05
1.253498284e-05
1.383991506e-05
1.549358246e-05
1.739716643e-05
1.940575044e-05
2.132106782e-05
2.289248384e-05
2.382966875e-05
1.621300859e-05
1.741246177e-05
1.916936487e-05
2.139521351e-05
2.395707999e-05
2.666033421e-05
2.923862755e-05
3.135477492e-05
3.261740847e-05
2.246262463e-05
2.40737957e-05
2.643338132e-05
2.942244582e-05
3.286282541e-05
3.649383155e-05
3.995836231e-05
4.280341838e-05
4.450193618e-05
3.096792746e-05
3.312621848e-05
3.628686778e-05
4.029076372e-05
4.489998776e-05
4.976638432e-05
5.44122548e-05
5.823004994e-05
6.051087364e-05
4.248108637e-05
4.536348107e-05
4.958456582e-05
5.493241306e-05
6.109050453e-05
6.759536287e-05
7.380972123e-05
7.892067572e-05
8.197667393e-05
5.797729284e-05
6.181315652e-05
6.743081917e-05
7.45491995e-05
8.274885966e-05
9.141505123e-05
9.97006436e-05
0.000106521703
0.0001106045635
7.870733881e-05
8.379070555e-05
9.123570602e-05
0.0001006710547
0.0001115431872
0.0001230402077
0.0001340411062
0.0001431062544
0.0001485368897
0.000106255599
0.0001129583179
0.0001227749409
0.0001352169322
0.0001495569685
0.000164728201
0.0001792535939
0.000191230688
0.0001984103727
0.0001426000437
0.0001513846047
0.0001642488185
0.0001805522909
0.0001993442948
0.0002192277238
0.00023826861
0.0002539744799
0.0002633936852
0.0001901688208
0.0002015990315
0.000218333411
0.0002395348238
0.0002639626269
0.0002898007848
0.0003145386525
0.000334942306
0.0003471802742
0.0002518860039
0.0002666323565
0.0002882089592
0.0003155252101
0.0003469730372
0.0003802088128
0.0004120049543
0.0004382150268
0.0004539304405
0.0003311848585
0.0003500175126
0.0003775491785
0.0004123653345
0.0004523940174
0.000494640184
0.0005350017545
0.0005682329054
0.0005881412076
0.0004319822479
0.0004557563012
0.0004904703384
0.000534299747
0.0005845976531
0.0006375758008
0.0006880895227
0.0007296035942
0.0007544394365
0.000558605227
0.0005882287098
0.0006314175888
0.0006858345723
0.0007481322563
0.00081357702
0.0008758135608
0.0009268367344
0.0009573026992
0.000715648572
0.0007520327321
0.0008049779978
0.0008715218407
0.0009474767323
0.001027011401
0.00110240067
0.001164020839
0.001200726018
0.0009077600804
0.0009517544384
0.00101563243
0.001095680904
0.001186734729
0.001281721661
0.001371414815
0.001444469496
0.001487863954
0.001139355398
0.001191670306
0.001267439759
0.001362075101
0.001469300646
0.001580683502
0.001685409863
0.001770373986
0.001820683764
0.001414278752
0.001475404543
0.001563692738
0.001673563321
0.001797518392
0.001925681539
0.002045620688
0.002142502273
0.002199658776
0.001735438161
0.001805572454
0.001906576575
0.00203178496
0.002172399152
0.002317062335
0.002451750023
0.002559999225
0.002623500425
0.002104453897
0.002183449721
0.002296871354
0.002436908695
0.002593430742
0.002753614612
0.002901922965
0.003020524542
0.00308996088
0.002521362325
0.002608707827
0.002733734071
0.002887475186
0.0030585032
0.003232593151
0.003393141456
0.003521165437
0.003595962652
0.002984410654
0.003079247822
0.003214582667
0.003380322109
0.003564000137
0.003750390812
0.003921721917
0.004057969759
0.004137416465
0.003489956716
0.003591157589
0.003735273849
0.003911348002
0.004105879696
0.004302677637
0.004483044217
0.004626123366
0.004709410204
0.004033437653
0.004139944806
0.004291333872
0.004475856184
0.004679164207
0.004884267771
0.005071758758
0.005220170519
0.00530643677
0.004609728111
0.004720362446
0.004877354807
0.005068298141
0.005278175791
0.005489392941
0.005682042486
0.005834262526
0.00592263942
0.005212857497
0.005326395279
0.00548727391
0.005682582754
0.005896818591
0.006111979143
0.006307861099
0.006462407745
0.00655205485
0.005836357571
0.005951599093
0.006114692548
0.006312384234
0.00652886462
0.006745912536
0.006943215574
0.00709870284
0.007188835941
0.006473607502
0.006589431512
0.006753185852
0.006951429088
0.00716821485
0.007385275497
0.007582356238
0.00773753041
0.007827440465
0.007118144597
0.007233546199
0.007396574026
0.007593741267
0.007809116941
0.00802453857
0.008219952988
0.008373713456
0.008462777199
0.007763917565
0.007878029635
0.008039136799
0.008233831309
0.008446328758
0.008658700604
0.008851216252
0.00900262279
0.009090306233
0.008405469435
0.008517569506
0.008675762456
0.0088668238
0.009075224466
0.009283375636
0.009471968461
0.009620237821
0.009706094289
0.009038047458
0.009147553053
0.009302031041
0.009488524046
0.009691845397
0.009894830466
0.01007867142
0.01022316696
0.01030683146
0.009657646533
0.0097641032
0.00991424109
0.01009543481
0.01029290735
0.01048998363
0.01066841876
0.01080863571
0.01088981706
0.01026100126
0.01036406624
0.01050939182
0.01068473284
0.01087577204
0.01106637296
0.01123890075
0.01137444964
0.01145292169
0.01084553882
0.01094496333
0.01108513309
0.01125421746
0.01143839481
0.01162210279
0.01178835135
0.01191894145
0.01199453418
0.01140930843
0.01150492058
0.01163969643
0.01180224305
0.01197925881
0.01215577997
0.01231548582
0.01244090967
0.01251350087
0.01195089982
0.01204258932
0.01217181796
0.01232764495
0.01249730403
0.01266644587
0.01281943518
0.0129395549
0.01300906272
0.01246936016
0.01255706539
0.01268066082
0.01282966559
0.01299185731
0.01315350981
0.0132996825
0.01341441798
0.01348079439
0.01296411561
0.01304781314
0.01316574249
0.01330788561
0.01346256715
0.01361668723
0.01375600362
0.0138653228
0.01392854822
0.01343490107
0.01351459754
0.01362686994
0.01376216215
0.01390934488
0.01405594417
0.0141884149
0.01429232583
0.01435240438
0.01388169917
0.01395742472
0.01406408257
0.01419257515
0.01433231543
0.01447145071
0.01459712777
0.01469567173
0.0147526274
0.01430468968
0.01437649349
0.01447760633
0.01459938372
0.0147317745
0.01486353978
0.01498250972
0.01507575593
0.01512962944
0.01470420859
0.01477215533
0.01486781489
0.01498298881
0.01510815344
0.01523267387
0.01534505226
0.01543309348
0.01548393964
0.0150807146
0.01514488178
0.01523519826
0.01534390322
0.01546199056
0.01557941753
0.01568534445
0.01576829333
0.01581617883
0.01543476241
0.01549523839
0.01558033755
0.01568272734
0.01579390786
0.01590441502
0.01600405129
0.01608203724
0.01612703876
0.01576698152
0.01582386388
0.01590388474
0.01600012958
0.01610459216
0.01620837201
0.01630189601
0.01637506255
0.01641726506
0.01607805934
0.01613145357
0.01620654652
0.01629683062
0.01639477978
0.01649204077
0.01657964556
0.01664814794
0.0166876433
0.01636872766
0.016418746
0.01648907112
0.01657359059
0.01666524397
0.01675620787
0.01683809871
0.01690210178
0.01693898741
0.01663975163
0.01668651208
0.01675223758
0.01683119843
0.01691678458
0.01700168405
0.01707807601
0.0171377523
0.01717212999
0.01689192073
0.01693554601
0.01699684679
0.01707046311
0.01715021933
0.01722929565
0.01730041148
0.01735593937
0.01738791419
0.01712604106
0.01716665766
0.01722371392
0.01729220608
0.01736637636
0.01743987729
0.01750594536
0.01755750741
0.01758718674
0.01734292871
0.01738066597
0.01743366182
0.01749725477
0.01756608785
0.0176342656
0.01769551796
0.0177432994
0.01777079195
0.01754340398
0.01757839316
0.01762751528
0.01768643687
0.01775018437
0.01781329364
0.01786996427
0.01791415148
0.01793956649
0.01772828615
0.01776065952
0.0178060959
0.01786057529
0.0179194899
0.01797778608
0.01803010917
0.01807088839
0.01809433482
0.01789838883
0.0179282788
0.01797021747
0.0180204836
0.01807481742
0.0181285549
0.01817676329
0.01821431937
0.01823590519
0.01805451569
0.01808205402
0.01812068187
0.01816696205
0.01821696501
0.01826639556
0.01831071933
0.01834523463
0.01836506618
0.01819745666
0.01822277364
0.01825827536
0.01830079393
0.01834671234
0.0183920837
0.01843274888
0.01846440225
0.01848258369
0.01832798446
0.01835120822
0.01838376526
0.01842274238
0.01846481763
0.01850637224
0.01854359966
0.01857256556
0.01858919835
0.01844685151
0.01846810737
0.01849789707
0.01853354764
0.01857201507
0.0186099889
0.01864399319
0.01867044094
0.01868562341
0.0185547873
0.0185741972
0.01860139195
0.01863392469
0.01866901254
0.01870363415
0.01873462288
0.018758716
0.01877254301
0.01865249608
0.01867017808
0.01869494467
0.01872456128
0.01875648984
0.01878797953
0.01881615249
0.01883804818
0.01885061081
0.01874065494
0.0187567228
0.01877922181
0.01880611629
0.01883509722
0.01886366637
0.01888921503
0.01890906375
0.01892044907
0.01881991224
0.01883447507
0.01885486044
0.01887921858
0.01890545432
0.0189313049
0.01895441195
0.01897235709
0.01898264802
0.01889088644
0.01890404848
0.01892246711
0.01894446608
0.01896814949
0.01899147364
0.01901231271
0.0190284904
0.01903776556
0.01895416535
0.01896602571
0.01898261726
0.01900242533
0.01902373938
0.01904471921
0.01906345467
0.01907799364
0.01908632734
0.01901030559
0.0190209582
0.0190358549
0.01905363125
0.01907274889
0.01909155635
0.01910834324
0.0191213648
0.01912882699
0.01905983247
0.01906936599
0.01908269258
0.01909858727
0.01911567138
0.01913246826
0.01914745231
0.01915907041
0.01916572672
0.01910324013
0.01911173795
0.01912361171
0.01913776571
0.01915296917
0.01916790719
0.01918122495
0.01919154622
0.01919745807
0.01914099194
0.01914853224
0.01915906304
0.01917160836
0.01918507421
0.0191982952
0.0192100742
0.01921919818
0.01922442285
0.0191735211
0.01918017693
0.01918946743
0.01920052728
0.01921238896
0.01922402512
0.01923438414
0.01924240346
0.0192469942
0.01920123148
0.01920707092
0.01921521672
0.01922490581
0.01923528743
0.01924546164
0.019254511
0.01926151164
0.01926551788
0.01922449862
0.01922958494
0.01923667483
0.01924509964
0.01925411636
0.01926294255
0.01927078445
0.01927684602
0.01928031348
0.01924367083
0.01924806267
0.01925417893
0.01926143807
0.01926919645
0.01927677999
0.01928350892
0.01928870495
0.01929167585
0.01925907045
0.01926282203
0.0192680407
0.01927422527
0.01928082373
0.01928726185
0.01929296495
0.01929736324
0.01929987648
0.01927099509
0.01927415643
0.01927854767
0.01928374166
0.01928927089
0.01929465315
0.01929941061
0.01930307353
0.0193051649
0.01927971904
0.0192823362
0.01928596457
0.01929024529
0.01929478868
0.01929919741
0.01930308294
0.01930606777
0.01930777011
0.01928549458
0.01928760991
0.01929053475
0.01929397318
0.01929760731
0.01930111808
0.01930419929
0.01930655856
0.01930790197
0.01928855344
0.01929020578
0.01929248152
0.01929514277
0.01929793786
0.0193006199
0.01930295872
0.01930474052
0.01930575258
0.01928910808
0.01929033303
0.01929200954
0.01929395323
0.01929597354
0.01929789023
0.01929954332
0.01930079165
0.01930149754
0.01928735309
0.01928818323
0.01928930611
0.01929058679
0.0192918911
0.01929310036
0.0192941195
0.01929487454
0.01929529729
0.01928346647
0.01928393156
0.01928454252
0.01928521002
0.01928585201
0.01928640674
0.01928683919
0.01928713763
0.01928729825
0.01927761086
0.01927773811
0.01927787521
0.01927797502
0.01927800369
0.01927795216
0.01927784106
0.01927771634
0.01927763398
0.01926993481
0.01926974902
0.01926944699
0.01926902061
0.01926848065
0.01926786688
0.01926725153
0.01926673417
0.01926642629
0.01926057383
0.01926009763
0.01925938814
0.0192584734
0.01925740556
0.01925626966
0.0192551859
0.01925430368
0.01925378618
0.01924965153
0.01924890555
0.01924781746
0.01924644884
0.01924489023
0.01924326876
0.01924174924
0.01924052747
0.01923981486
0.01923728061
0.01923628363
0.01923484324
0.01923305216
0.01923103661
0.01922896288
0.01922703733
0.01922549908
0.01922460454
0.01922356379
0.01922233293
0.01922056421
0.01921837929
0.01921593761
0.01921344195
0.01921113747
0.01920930374
0.01920823931
0.0192085947
0.01920714557
0.01920507035
0.01920251768
0.01919967794
0.019196788
0.01919412927
0.01919201921
0.01919079583
0.01919245872
0.01919080553
0.01918844371
0.01918554705
0.01918233485
0.01917907583
0.01917608534
0.01917371641
0.01917234407
0.01917523367
0.01917338939
0.01917075912
0.01916754014
0.01916397881
0.01916037369
0.01915707198
0.01915446008
0.0191529479
0.01915699059
0.01915496703
0.01915208485
0.01914856333
0.01914467417
0.01914074391
0.01913714971
0.01913430938
0.01913266567
0.01913779429
0.01913560226
0.01913248328
0.01912867726
0.0191244797
0.01912024346
0.01911637387
0.01911331838
0.01911155075
0.01911770399
0.01911535334
0.01911201136
0.01910793735
0.01910344916
0.01909892445
0.01909479512
0.01909153661
0.01908965199
0.01909677383
0.01909427358
0.01909072123
0.01908639432
0.01908163176
0.0190768346
0.01907245984
0.01906900942
0.01906701419
0.01907505338
0.01907241178
0.01906866062
0.01906409463
0.0190590726
0.01905401766
0.01904941061
0.01904577848
0.01904367847
0.01905258804
0.01904981267
0.0190458733
0.01904108089
0.01903581306
0.01903051382
0.01902568653
0.01902188204
0.01901968262
0.0190294195
0.0190265173
0.01902239945
0.01901739228
0.01901189119
0.01900636005
0.01900132359
0.01899735536
0.01899506146
0.01900558604
0.0190025634
0.01899827604
0.01899306482
0.01898734204
0.0189815904
0.01897635499
0.01897223094
0.01896984712
0.01898112294
0.01897798575
0.01897353713
0.01896813174
0.01896219793
0.01895623631
0.01895081137
0.01894653884
0.0189440693
0.01895606272
0.01895281643
0.01894821416
0.01894262374
0.01893648875
0.0189303269
0.01892472116
0.01892030693
0.01891775555
0.01893043546
0.01892708509
0.01892233625
0.01891656924
0.01891024222
0.01890388916
0.01889811071
0.01889356108
0.01889093149
0.01890426904
0.01890081927
0.01889593041
0.01888999468
0.01888348411
0.01887694823
0.0188710046
0.01886632545
0.01886362102
0.0188775894
0.01887404458
0.01886902179
0.01886292466
0.01885623846
0.01884952761
0.01884342584
0.01883862264
0.01883584652
0.01885042073
0.01884678493
0.01884163393
0.01883538224
0.01882852783
0.01882164935
0.01881539604
0.01881047394
0.01880762909
0.01882278574
0.01881906277
0.01881378892
0.01880738911
0.01880037347
0.01879333428
0.01878693566
0.01878189952
0.01877898873
0.01879470585
0.01879089931
0.01878550767
0.01877896584
0.01877179556
0.01876460222
0.01875806419
0.01875291863
0.01874994458
0.01876620143
0.01876231474
0.01875681014
0.01875013208
0.01874281346
0.01873547223
0.01872880044
0.0187235499
0.01872051512
0.01873729203
0.01873332848
0.01872771554
0.01872090683
0.01871344595
0.01870596288
0.0186991628
0.01869381155
0.01869071854
0.01870799669
0.01870395947
0.01869824269
0.01869130876
0.01868371153
0.01867609254
0.01866916953
0.0186637218
0.01866057299
0.01867833425
0.01867422649
0.01866841031
0.01866135652
0.01865362883
0.01864587979
0.0186388392
0.0186332992
0.01863009705
0.01864832371
0.01864414857
0.01863823744
0.01863106921
0.01862321699
0.01861534388
0.01860819116
0.01860256321
0.01859931023
0.01861798471
0.01861374543
0.01860774394
0.01860046686
0.01859249626
0.0185845053
0.01857724615
0.01857153476
0.01856823359
0.01858733813
0.0185830381
0.01857695111
0.0185695711
0.01856148867
0.01855338651
0.01854602705
0.01854023712
0.01853689062
0.01855640674
0.01855204965
0.01854588242
0.01853840594
0.01853021888
0.01852201283
0.01851455983
0.0185086968
0.01850530817
0.01852521605
0.01852080603
0.01851456445
0.01850699876
0.01849871516
0.01849041354
0.01848287473
0.0184769448
0.0184735177
0.0184937954
0.01848933715
0.01848302799
0.01847538146
0.01846701071
0.01845862318
0.01845100758
0.01844501805
0.01844155681
0.01846217911
0.01845767815
0.01845130937
0.01844359187
0.01843514508
0.01842668312
0.0184190015
0.01841296112
0.01840947093
0.01843040798
0.01842587091
0.01841945202
0.01841167539
0.01840316593
0.01839464341
0.01838690883
0.01838082823
0.01837731542
0.01839853091
0.0183939657
0.01838750822
0.01837968683
0.01837113097
0.01836256482
0.01835479324
0.01834868544
0.01834515779
0.0183666068
0.01836202316
0.01835554114
0.01834769252
0.01833911016
0.01833052111
0.01832273214
0.01831661318
0.01831308029
0.01833470661
0.01833011638
0.01832362696
0.01831577256
0.01830718805
0.01829860152
0.01829081923
0.01828470882
0.01828118251
0.01830291552
0.01829833311
0.01829185719
0.01828402314
0.0182754662
0.01826691321
0.01825916702
0.01825308929
0.01824958404
0.01827133516
0.01826677805
0.01826034096
0.01825255893
0.01824406556
0.01823558376
0.01822790935
0.0182218936
0.018218427
0.01824008584
0.01823557502
0.01822920718
0.01822151525
0.01821312872
0.01820476329
0.01819720353
0.01819128495
0.01818787817
0.01820930842
0.0182048689
0.0181986065
0.0181910499
0.01818282161
0.01817462622
0.01816723198
0.01816145233
0.01815813047
0.01817916599
0.01817482712
0.01816871268
0.0181613445
0.01815333471
0.0181453722
0.01813820301
0.01813261114
0.01812940359
0.0181498447
0.01814564055
0.01813972329
0.01813260496
0.01812488326
0.01811722613
0.01811035057
0.01810500267
0.01810194321
0.01812155399
0.01811752341
0.01811185946
0.01810506086
0.0180977063
0.01809043672
0.01808393237
0.01807889197
0.01807601875
0.01809452546
0.01809071204
0.01808536424
0.01807896347
0.01807206418
0.01806527353
0.01805922647
0.01805456386
0.01805191905
0.01806901055
0.01806546224
0.01806049958
0.01805458216
0.01804823434
0.01804202205
0.01803652564
0.01803231686
0.01802994597
0.01804527658
0.01804204496
0.01803754149
0.01803219891
0.01802650511
0.01802097672
0.01801612965
0.01801245479
0.01801040561
0.01802360093
0.01802074014
0.01801677333
0.01801210093
0.01800716747
0.01800243184
0.01799833533
0.01799527609
0.01799359718
0.01800426355
0.01800182873
0.01799847721
0.01799457124
0.0179905048
0.01798667037
0.01798342453
0.01798106114
0.01797979986
0.01798753751
0.01798558288
0.01798292355
0.01797987751
0.01797678086
0.01797395107
0.01797165041
0.01797005782
0.01796925801
0.01797367803
0.01797225453
0.01797035917
0.01796825949
0.01796622644
0.01796449445
0.01796322271
0.0179624663
0.01796216561
0.01796291027
0.01796206294
0.01796099432
0.0179599155
0.01795902544
0.01795846824
0.01795829291
0.01795842382
0.01795865091
0.01795541653
0.01795518163
0.01795498946
0.01795498898
0.01795530109
0.01795597361
0.01795694022
0.01795799084
0.01795876254
0.01795132348
0.01795172569
0.01795244252
0.01795355589
0.01795510361
0.01795703305
0.01795916002
0.0179611397
0.01796245858
0.01795069058
0.01795174035
0.01795337788
0.01795561412
0.01795840032
0.01796158138
0.01796485567
0.01796774743
0.01796959986
0.01795350045
0.01795519182
0.01795773793
0.01796107611
0.01796506944
0.01796946086
0.01797383518
0.01797759367
0.01797994874
0.01795965243
0.0179619616
0.01796537837
0.01796976555
0.01797489853
0.01798042165
0.01798581348
0.01799036461
0.01799317418
0.01796896014
0.01797184492
0.01797606818
0.01798141912
0.01798758837
0.01799412791
0.0180004209
0.0180056634
0.01800886323
0.01798115379
0.01798455424
0.01798949465
0.01799569364
0.01800276248
0.01801016993
0.01801721764
0.01802302645
0.01802653838
0.01799588761
0.01799972781
0.01800527374
0.01801217858
0.01801998216
0.01802808163
0.01803571401
0.01804194763
0.0180456855
0.01801275225
0.01801694328
0.01802296537
0.01803041332
0.01803876617
0.01804736437
0.01805539852
0.01806190642
0.01806577918
0.01803129141
0.01803573539
0.01804209285
0.01804991022
0.01805861747
0.01806751331
0.01807576097
0.01808239053
0.01808630731
0.01805102494
0.01805562101
0.01806216977
0.01807017959
0.01807904487
0.01808803888
0.01809631653
0.0181029216
0.01810679688
0.01807147235
0.01807612048
0.01808271886
0.01809074942
0.01809958509
0.01810849006
0.01811662892
0.01812307798
0.01812683646
0.01809217142
0.01809677741
0.01810329334
0.01811118682
0.01811982354
0.01812847433
0.01813632955
0.01814251358
0.01814609507
0.01811269866
0.01811717859
0.01812349585
0.01813111582
0.01813941069
0.01814767243
0.01815513105
0.01816097271
0.0181643393
0.01813268637
0.01813697027
0.01814299342
0.01815023055
0.01815807285
0.01816584675
0.01817282875
0.01817826282
0.01818137473
0.01815183592
0.01815587029
0.01816152786
0.01816830388
0.01817561633
0.01818282523
0.01818925904
0.01819423474
0.01819706715
0.01816992727
0.01817367706
0.01817892105
0.01818517632