/*--------------------------------*- C++ -*----------------------------------*\
| =========                 |                                                 |
| \\      /  F ield         | OpenFOAM: The Open Source CFD Toolbox           |
|  \\    /   O peration     | Version:  2212                                  |
|   \\  /    A nd           | Website:  www.openfoam.com                      |
|    \\/     M anipulation  |                                                 |
\*---------------------------------------------------------------------------*/
FoamFile
{
    version     2.0;
    format      ascii;
    arch        "LSB;label=32;scalar=64";
    class       volScalarField;
    location    "30.00000000";
    object      AC3H4_0;
}
// * * * * * * * * * * * * * * * * * * * * * * * * * * * * * * * * * * * * * //

dimensions      [0 0 0 0 0 0 0];

internalField   nonuniform List<scalar> 
3000
(
2.73749402e-21
3.075517195e-21
3.585616315e-21
4.265413173e-21
5.108033778e-21
6.090631434e-21
7.154029147e-21
8.168826392e-21
8.886379342e-21
1.027901795e-20
1.159491517e-20
1.357984655e-20
1.623098505e-20
1.954583389e-20
2.350625793e-20
2.804343733e-20
3.292940939e-20
3.725617557e-20
2.303023795e-20
2.618311486e-20
3.09843926e-20
3.750390504e-20
4.585912436e-20
5.617170666e-20
6.840055475e-20
8.18602414e-20
9.335982205e-20
4.388124148e-20
5.041227392e-20
6.050388337e-20
7.449835635e-20
9.289229792e-20
1.161541318e-19
1.441567686e-19
1.746614298e-19
1.992813839e-19
7.795728952e-20
9.066155853e-20
1.106012375e-19
1.387912841e-19
1.765597028e-19
2.249676869e-19
2.832070718e-19
3.450633069e-19
3.92549771e-19
1.341276134e-19
1.579866463e-19
1.959715841e-19
2.505115184e-19
3.245211695e-19
4.198695223e-19
5.337123698e-19
6.516979002e-19
7.389980509e-19
2.278504748e-19
2.717076214e-19
3.423451425e-19
4.449151471e-19
5.851406086e-19
7.658224968e-19
9.794967624e-19
1.196627117e-18
1.353323317e-18
3.8588313e-19
4.653097005e-19
5.943740999e-19
7.832331483e-19
1.042440174e-18
1.375749725e-18
1.766455858e-18
2.15769498e-18
2.435323182e-18
6.546249336e-19
7.969424329e-19
1.02968962e-18
1.371975711e-18
1.842567854e-18
2.446012542e-18
3.148240493e-18
3.844077224e-18
4.332373771e-18
1.1144665e-18
1.367433662e-18
1.782995865e-18
2.396036252e-18
3.239268084e-18
4.31755226e-18
5.565238137e-18
6.792399671e-18
7.647093799e-18
1.904781545e-18
2.351698809e-18
3.088079608e-18
4.176322611e-18
5.672779072e-18
7.581462902e-18
9.780318461e-18
1.19317244e-17
1.342281012e-17
3.267281056e-18
4.053227138e-18
5.350708132e-18
7.269778342e-18
9.906667285e-18
1.32616758e-17
1.711283342e-17
2.086712232e-17
2.346319135e-17
5.621482328e-18
6.999127508e-18
9.27612593e-18
1.264477313e-17
1.726803459e-17
2.31345945e-17
2.984365084e-17
3.636458185e-17
4.089065711e-17
9.696035892e-18
1.210599974e-17
1.609276677e-17
2.199151175e-17
3.007733773e-17
4.030496824e-17
5.193170448e-17
6.314859397e-17
7.11533647e-17
1.675658858e-17
2.096817308e-17
2.794271052e-17
3.827007894e-17
5.242743844e-17
7.029961758e-17
9.041427111e-17
1.088731836e-16
1.240244875e-16
2.899872372e-17
3.635224314e-17
4.854594397e-17
6.663489202e-17
9.151592343e-17
1.231813837e-16
1.59679235e-16
1.96149215e-16
2.189500706e-16
5.022586844e-17
6.304332328e-17
8.431029133e-17
1.158717629e-16
1.592764864e-16
2.144168004e-16
2.775027643e-16
3.386685946e-16
3.801952037e-16
8.703443354e-17
1.093424417e-16
1.463638182e-16
2.013001346e-16
2.768041047e-16
3.725905281e-16
4.819270462e-16
5.876779979e-16
6.60064948e-16
1.508728469e-16
1.89663119e-16
2.540446645e-16
3.495730891e-16
4.808237267e-16
6.472418116e-16
8.37088016e-16
1.020653461e-15
1.146392798e-15
2.61613276e-16
3.290296762e-16
4.409342717e-16
6.069756529e-16
8.350771873e-16
1.124231294e-15
1.454010116e-15
1.772814496e-15
1.991164627e-15
4.537513048e-16
5.708846211e-16
7.653324571e-16
1.053856242e-15
1.450195022e-15
1.952547523e-15
2.525374516e-15
3.079028307e-15
3.458157944e-15
7.871726154e-16
9.906490447e-16
1.3284561e-15
1.829708221e-15
2.518234371e-15
3.390830365e-15
4.385680881e-15
5.347053912e-15
6.005283661e-15
1.365854477e-15
1.719278119e-15
2.306052849e-15
3.176737564e-15
4.372657338e-15
5.888125741e-15
7.6156479e-15
9.284750341e-15
1.042742758e-14
2.370350732e-15
2.984177588e-15
4.003311783e-15
5.515526262e-15
7.592472189e-15
1.022406815e-14
1.322341965e-14
1.612090976e-14
1.810432112e-14
4.114219493e-15
5.180275763e-15
6.95023112e-15
9.576406664e-15
1.318298074e-14
1.775207638e-14
2.29588351e-14
2.798795993e-14
3.143021811e-14
7.14201703e-15
8.993437159e-15
1.206718846e-14
1.662747941e-14
2.28893598e-14
3.082100141e-14
3.985775604e-14
4.85845013e-14
5.455684784e-14
1.23994619e-14
1.561475333e-14
2.095237053e-14
2.887029962e-14
3.974054816e-14
5.350601069e-14
6.918504929e-14
8.432202466e-14
9.467898077e-14
2.152883021e-14
2.711252168e-14
3.638057781e-14
5.012615108e-14
6.899170222e-14
9.287374069e-14
1.200651768e-13
1.463063386e-13
1.642549301e-13
3.73812416e-14
4.70772185e-14
6.316771848e-14
8.702460921e-14
1.197548271e-13
1.611683408e-13
2.082951593e-13
2.53749949e-13
2.848251328e-13
6.490412687e-14
8.173854529e-14
1.096671555e-13
1.510587344e-13
2.078143834e-13
2.795794002e-13
3.611833634e-13
4.398307477e-13
4.935598661e-13
1.126761197e-13
1.418966103e-13
1.903544761e-13
2.621303523e-13
3.604749929e-13
4.847140494e-13
6.258395356e-13
7.617043545e-13
8.544287916e-13
1.95555758e-13
2.462523919e-13
3.302798362e-13
4.546458292e-13
6.248763122e-13
8.396648312e-13
1.083304337e-12
1.317514341e-12
1.477133513e-12
3.392391958e-13
4.271332057e-13
5.727095933e-13
7.87953267e-13
1.082184748e-12
1.45282827e-12
1.872473549e-12
2.275079429e-12
2.548946189e-12
5.880748571e-13
7.402961975e-13
9.921817063e-13
1.364118182e-12
1.87166645e-12
2.509674639e-12
3.230280071e-12
3.91984188e-12
4.387743763e-12
1.018404772e-12
1.281632842e-12
1.716685141e-12
2.358000352e-12
3.231214404e-12
4.325920758e-12
5.558530024e-12
6.734163181e-12
7.52936486e-12
1.761225549e-12
2.215467511e-12
2.965086729e-12
4.067748224e-12
5.564965344e-12
7.435622133e-12
9.533822119e-12
1.15268669e-11
1.286967674e-11
3.040453692e-12
3.822174212e-12
5.109791836e-12
6.998800553e-12
9.554941939e-12
1.273541524e-11
1.628601414e-11
1.964199147e-11
2.189237383e-11
5.23711087e-12
6.577682948e-12
8.780709734e-12
1.200217995e-11
1.634321541e-11
2.171761915e-11
2.768390509e-11
3.329022354e-11
3.702874663e-11
8.99618577e-12
1.128508677e-11
1.503601299e-11
2.049953173e-11
2.782526928e-11
3.684158793e-11
4.678565874e-11
5.606694987e-11
6.221700364e-11
1.540308313e-11
1.929041245e-11
2.56394936e-11
3.484469288e-11
4.711583525e-11
6.211642551e-11
7.853788991e-11
9.374924808e-11
1.037582172e-10
2.627233928e-11
3.283269658e-11
4.350566287e-11
5.889679967e-11
7.927775786e-11
1.04001289e-10
1.308437355e-10
1.555030541e-10
1.716063455e-10
4.461536937e-11
5.560559884e-11
7.340497576e-11
9.891596788e-11
1.324453987e-10
1.727751286e-10
2.161700015e-10
2.556848472e-10
2.812849024e-10
7.53901349e-11
9.364763261e-11
1.230664461e-10
1.649432082e-10
2.195306617e-10
2.845901158e-10
3.539313441e-10
4.164946527e-10
4.566981422e-10
1.26688736e-10
1.567356199e-10
2.048783698e-10
2.728965066e-10
3.607773113e-10
4.645082078e-10
5.739821105e-10
6.718362336e-10
7.34207652e-10
2.115954226e-10
2.605375201e-10
3.384763085e-10
4.477116944e-10
5.875353714e-10
7.509367272e-10
9.216732684e-10
1.072876024e-09
1.16848634e-09
3.510553989e-10
4.298944346e-10
5.546293663e-10
7.279891214e-10
9.477724753e-10
1.202038183e-09
1.465105503e-09
1.695978053e-09
1.84085475e-09
5.782440485e-10
7.037577519e-10
9.010024182e-10
1.172787907e-09
1.514037353e-09
1.904907561e-09
2.305446963e-09
2.653945594e-09
2.871067719e-09
9.451294785e-10
1.142519719e-09
1.450598565e-09
1.871455907e-09
2.394861388e-09
2.988607845e-09
3.591507565e-09
4.11184496e-09
4.433876774e-09
1.532195316e-09
1.838762651e-09
2.31399344e-09
2.957718658e-09
3.75095276e-09
4.642559009e-09
5.540200501e-09
6.309153618e-09
6.782177322e-09
2.462658793e-09
2.932839127e-09
3.656889438e-09
4.629705565e-09
5.818037688e-09
7.142323323e-09
8.465114586e-09
9.590604953e-09
1.027920229e-08
3.923014842e-09
4.63521909e-09
5.725082577e-09
7.178208139e-09
8.938879382e-09
1.088556879e-08
1.281622055e-08
1.444895314e-08
1.544310168e-08
6.192408834e-09
7.258251873e-09
8.879702624e-09
1.102630047e-08
1.360791644e-08
1.644198449e-08
1.923480548e-08
2.158401958e-08
2.300843449e-08
9.684257094e-09
1.126096801e-08
1.364663796e-08
1.678458479e-08
2.053318446e-08
2.46222434e-08
2.862916315e-08
3.198390752e-08
3.401069631e-08
1.500478495e-08
1.731190766e-08
2.078552381e-08
2.532788048e-08
3.072182205e-08
3.657283829e-08
4.227844625e-08
4.70363306e-08
4.990215943e-08
2.303352749e-08
2.637504641e-08
3.138385201e-08
3.790001507e-08
4.559739194e-08
5.390663731e-08
6.19755245e-08
6.868138505e-08
7.271038164e-08
3.503511428e-08
3.982932448e-08
4.698784985e-08
5.625885903e-08
6.716090292e-08
7.888061147e-08
9.022085105e-08
9.961878759e-08
1.052536e-07
5.281372357e-08
5.963318532e-08
6.978165683e-08
8.287405239e-08
9.820999901e-08
1.146378045e-07
1.304861767e-07
1.435894246e-07
1.514329023e-07
7.892397182e-08
8.854891259e-08
1.028313717e-07
1.211960356e-07
1.426367649e-07
1.655355187e-07
1.875717105e-07
2.05756316e-07
2.166273749e-07
1.169578395e-07
1.30447475e-07
1.504161568e-07
1.76020443e-07
2.058304638e-07
2.375885404e-07
2.680880026e-07
2.932183223e-07
3.082269233e-07
1.719327475e-07
1.907204065e-07
2.184750059e-07
2.539791108e-07
2.952195322e-07
3.390650756e-07
3.811036141e-07
4.157006276e-07
4.36348487e-07
2.508128627e-07
2.76832578e-07
3.152056588e-07
3.641975786e-07
4.209968119e-07
4.812840258e-07
5.390118502e-07
5.864790728e-07
6.147950385e-07
3.632035026e-07
3.990579275e-07
4.518610558e-07
5.191689579e-07
5.970834445e-07
6.796751743e-07
7.586841339e-07
8.236111606e-07
8.623336377e-07
5.222666126e-07
5.714488727e-07
6.437983241e-07
7.359048918e-07
8.423990168e-07
9.551774467e-07
1.062993177e-06
1.151564325e-06
1.204387913e-06
7.459131912e-07
8.130985344e-07
9.118442856e-07
1.037433895e-06
1.182515942e-06
1.336062462e-06
1.482803378e-06
1.603348496e-06
1.675258679e-06
1.058334465e-06
1.149760543e-06
1.284046704e-06
1.454722385e-06
1.651781499e-06
1.860276805e-06
2.059533078e-06
2.223268619e-06
2.320996136e-06
1.491934108e-06
1.615890744e-06
1.797878868e-06
2.029090797e-06
2.295986172e-06
2.57838934e-06
2.848383953e-06
3.070401479e-06
3.203034722e-06
2.089717193e-06
2.257166834e-06
2.502953959e-06
2.81518145e-06
3.175635078e-06
3.557200403e-06
3.922294302e-06
4.222853661e-06
4.402647856e-06
2.90817677e-06
3.133523449e-06
3.464281098e-06
3.884501759e-06
4.369834248e-06
4.884008861e-06
5.3765932e-06
5.782758163e-06
6.026166317e-06
4.020693021e-06
4.322708748e-06
4.766054369e-06
5.329511989e-06
5.980730104e-06
6.671435004e-06
7.334205243e-06
7.881810185e-06
8.21072549e-06
5.521420057e-06
5.924320235e-06
6.515904347e-06
7.268145878e-06
8.138334278e-06
9.062559967e-06
9.951084007e-06
1.068693884e-05
1.113008129e-05
7.529572749e-06
8.064203514e-06
8.849449825e-06
9.848536341e-06
1.100541982e-05
1.223596331e-05
1.342134246e-05
1.440547964e-05
1.499979216e-05
1.019392734e-05
1.089898446e-05
1.19348523e-05
1.325355499e-05
1.4781979e-05
1.641001275e-05
1.79812962e-05
1.92889522e-05
2.008083355e-05
1.369720081e-05
1.462034072e-05
1.597688875e-05
1.770455977e-05
1.970848821e-05
2.184547974e-05
2.391131852e-05
2.563419545e-05
2.668023066e-05
1.825977278e-05
1.945840663e-05
2.121983327e-05
2.346350857e-05
2.606697568e-05
2.884530198e-05
3.153411581e-05
3.377995038e-05
3.514597004e-05
2.414198187e-05
2.568347569e-05
2.794821773e-05
3.083239605e-05
3.417876542e-05
3.775031901e-05
4.120801158e-05
4.409777057e-05
4.585710507e-05
3.164400391e-05
3.360495974e-05
3.648437076e-05
4.014886583e-05
4.439770294e-05
4.892937925e-05
5.331412713e-05
5.697762488e-05
5.920844928e-05
4.110218314e-05
4.356646679e-05
4.718162967e-05
5.17768933e-05
5.709726986e-05
6.276325877e-05
6.823759157e-05
7.280595863e-05
7.558591613e-05
5.288073369e-05
5.593589564e-05
6.04117544e-05
6.609077889e-05
7.265195651e-05
7.962306792e-05
8.634261123e-05
9.193841099e-05
9.533840299e-05
6.73568839e-05
7.108867696e-05
7.654613031e-05
8.345427618e-05
9.141289119e-05
9.984268917e-05
0.0001079426701
0.0001146682271
0.0001187451742
8.490035216e-05
8.938619334e-05
9.593221357e-05
0.0001041943046
0.0001136799139
0.0001236889061
0.000133268721
0.0001411935899
0.0001459829536
0.0001058477531
0.0001111489515
0.0001188653497
0.0001285716652
0.0001396705936
0.0001513298662
0.0001624382406
0.0001715875017
0.0001770965769
0.0001304724139
0.0001366259388
0.000145557566
0.0001567499896
0.000169490324
0.0001828070599
0.0001954292334
0.0002057742002
0.0002119771829
0.0001589521861
0.000165963091
0.0001761076142
0.0001887671946
0.0002031064594
0.0002180128736
0.000232062454
0.0002435155178
0.0002503512907
0.0001913382307
0.0001991735896
0.00021047348
0.0002245124079
0.0002403302538
0.0002566784039
0.0002719949781
0.000284409748
0.0002917830784
0.0002275285113
0.000236113995
0.0002484526721
0.0002637111436
0.0002808085069
0.0002983724734
0.000314726454
0.000327904137
0.0003356910643
0.0002672497005
0.0002764695627
0.0002896725606
0.0003059221923
0.0003240277066
0.0003425131948
0.0003596179625
0.0003733202087
0.0003813797322
0.0003100509299
0.0003197518045
0.0003335933482
0.0003505470886
0.000369330436
0.0003883910868
0.0004059207844
0.0004198831373
0.0004280514111
0.0003553121435
0.0003653106073
0.0003795253692
0.0003968533327
0.0004159439985
0.0004352017099
0.0004527995537
0.0004667288435
0.0004748338465
0.0004022688239
0.0004123621326
0.0004266612664
0.0004440116819
0.0004630179318
0.0004820658608
0.0004993585617
0.0005129614804
0.0005208341246
0.0004500532602
0.0004600312855
0.0004741144625
0.0004911164197
0.0005096319596
0.0005280691293
0.0005446984127
0.0005576988445
0.0005651827396
0.0004977132931
0.0005073605693
0.0005209261406
0.0005372217879
0.0005548644106
0.0005723204493
0.0005879628577
0.000600116832
0.0006070764347
0.000544252966
0.0005533699915
0.0005661423444
0.0005814093627
0.0005978419839
0.0006139974883
0.0006283808337
0.0006394880424
0.0006458145645
0.0005887089987
0.0005971236946
0.0006088683215
0.0006228374023
0.0006377849032
0.0006523861989
0.0006653007872
0.0006752117688
0.0006808264983
0.0006302061452
0.0006377824028
0.0006483169196
0.000660783559
0.000674043451
0.0006869109
0.0006982148877
0.0007068336501
0.000711688694
0.0006680040878
0.0006746466935
0.0006838467463
0.0006946767597
0.0007061231222
0.0007171528831
0.0007267719714
0.0007340544251
0.000738131184
0.0007015312563
0.0007071870224
0.0007149869655
0.0007241158979
0.0007336970235
0.0007428569882
0.0007507793191
0.0007567283293
0.0007600342251
0.0007304030066
0.0007350584712
0.0007414474326
0.0007488747854
0.0007566057029
0.0007639269224
0.0007701944615
0.0007748525649
0.0007774166265
0.0007544238595
0.0007581003167
0.0007631147772
0.0007688944701
0.0007748459181
0.0007804110377
0.0007851087629
0.000788549572
0.0007904174792
0.000773575392
0.000776322119
0.0007800362299
0.0007842647845
0.0007885502962
0.0007924808154
0.0007957254102
0.0007980449257
0.000799274096
0.0007879928853
0.0007898798471
0.0007923952349
0.0007951996594
0.0007979626601
0.0008004064207
0.0008023353608
0.0008036437771
0.0008042988404
0.000797936273
0.0007990469154
0.0008004827511
0.0008020089559
0.0008034106846
0.0008045304538
0.0008052922854
0.0008057068248
0.0008058557192
0.0008037578351
0.000804182627
0.0008046668288
0.0008050695104
0.0008052786468
0.0008052424758
0.0008049887366
0.0008046277779
0.0008043385846
0.0008058704209
0.0008057015091
0.0008053635266
0.0008047979703
0.0008039823428
0.0008029559683
0.0008018349073
0.0008008134757
0.0008001520096
0.0008047187083
0.0008040458182
0.0008030111455
0.0008016270591
0.0007999474868
0.000798088764
0.0007962407995
0.0007946673408
0.0007936954406
0.0008007550207
0.0007996625652
0.0007980489041
0.0007959861582
0.0007935922561
0.000791047424
0.000788602142
0.0007865764198
0.0007853508443
0.0007944203412
0.0007929855911
0.0007909004524
0.0007882864596
0.0007853141093
0.0007822155933
0.0007792900256
0.0007769019385
0.000775473753
0.0007861304893
0.0007844226055
0.0007819620711
0.000778910483
0.0007754806391
0.000771946057
0.0007686439429
0.0007659730537
0.0007643874071
0.0007762669847
0.0007743467132
0.0007715950803
0.0007682054633
0.0007644239134
0.000760555976
0.0007569677771
0.0007540833838
0.0007523795666
0.0007651718464
0.0007630916691
0.0007601217028
0.0007564799064
0.0007524377523
0.0007483247977
0.000744528223
0.0007414897914
0.0007397014928
0.0007531455086
0.0007509501041
0.0007478237045
0.0007440026906
0.0007397772729
0.0007354942068
0.000731555071
0.0007284129099
0.0007265686057
0.0007404470893
0.0007381739755
0.000734943086
0.0007310040235
0.0007266601092
0.0007222695811
0.0007182428575
0.0007150389345
0.0007131623524
0.000727296302
0.0007249765689
0.0007216842014
0.0007176776887
0.0007132687846
0.0007088224749
0.0007047534393
0.0007015222627
0.0006996328839
0.0007138764262
0.0007115354949
0.0007082167865
0.0007041841067
0.0006997537995
0.0006952937298
0.000691219121
0.000687988634
0.0006861022026
0.0007003378793
0.0006979962431
0.0006946794877
0.0006906538308
0.0006862370922
0.000681796898
0.0006777460454
0.0006745384946
0.0006726675123
0.0006868020408
0.0006844759639
0.0006811835836
0.000677191197
0.0006728156107
0.0006684217392
0.0006644176244
0.0006612503781
0.0006594045714
0.0006733650832
0.0006710672416
0.0006678166774
0.0006638779218
0.0006595648102
0.0006552376207
0.0006512978529
0.0006481841548
0.0006463709053
0.0006601016396
0.0006578416976
0.0006546462114
0.000650776511
0.0006465419503
0.0006422967054
0.0006384344015
0.0006353840501
0.0006336087832
0.0006470682038
0.000644853324
0.0006417227089
0.0006379333937
0.000633789113
0.0006296368588
0.0006258614242
0.0006228813763
0.0006211479063
0.0006343062019
0.0006321414918
0.0006290826926
0.0006253817347
0.0006213359039
0.0006172842388
0.000613602051
0.0006106969495
0.0006090077815
0.0006218447128
0.0006197336101
0.0006167512602
0.0006131439108
0.00060920182
0.00060525556
0.0006016705582
0.0005988431879
0.0005971997781
0.0006097028351
0.0006076474376
0.0006047443178
0.0006012336508
0.000597398292
0.0005935600382
0.0005900742268
0.0005873259026
0.0005857288803
0.0005978917164
0.000595893061
0.0005930704878
0.0005896578606
0.0005859304185
0.0005822010365
0.0005788149095
0.0005761458037
0.0005745951576
0.0005864162682
0.0005844745652
0.0005817327163
0.0005784181549
0.0005747984178
0.0005711774379
0.0005678903329
0.0005652997469
0.0005637949798
0.0005752765983
0.0005733914254
0.0005707296098
0.0005675121281
0.0005639988277
0.0005604847752
0.0005572951647
0.0005547817527
0.000553322009
0.0005644691908
0.0005626396531
0.0005600565326
0.0005569343945
0.000553525484
0.0005501161489
0.0005470218774
0.000544583828
0.0005431679962
0.00055398787
0.00055221273
0.000549706499
0.0005466774294
0.0005433703073
0.0005400629614
0.0005370614363
0.0005346966185
0.0005333234137
0.0005438245724
0.0005421023534
0.0005396708823
0.0005367322373
0.0005335239276
0.0005303154982
0.0005274038419
0.0005251099198
0.0005237779484
0.0005339699572
0.0005322990268
0.000529939978
0.0005270888799
0.000523976174
0.0005208633798
0.0005180385473
0.0005158130697
0.0005145208796
0.0005244138917
0.0005227925269
0.0005205034438
0.0005177368851
0.0005147164506
0.0005116959067
0.0005089547766
0.000506795246
0.0005055413649
0.0005151458224
0.0005135722591
0.0005113506339
0.0005086655568
0.0005057340217
0.0005028023186
0.0005001417619
0.0004980456854
0.0004968286495
0.000506155055
0.0005046275251
0.0005024708505
0.0004998642074
0.0004970182213
0.0004941719841
0.0004915889148
0.0004895538415
0.000488372216
0.0004974309615
0.0004959477212
0.0004938535285
0.0004913223247
0.0004885586049
0.0004857945357
0.0004832859461
0.0004813094941
0.0004801618876
0.0004889631308
0.0004875224799
0.0004854883656
0.0004830296911
0.0004803450535
0.0004776599604
0.000475222946
0.0004733028196
0.0004721878937
0.0004807414717
0.0004793417677
0.0004773654117
0.0004749764612
0.0004723678416
0.0004697586579
0.000467390433
0.0004655244339
0.0004644409089
0.0004727562814
0.0004713959477
0.0004694751252
0.0004671532114
0.0004646176776
0.0004620814731
0.0004597793794
0.0004579654127
0.0004569120705
0.000464998286
0.000463675817
0.0004618084046
0.0004595509649
0.0004570857237
0.0004546197097
0.0004523812198
0.000450617296
0.000449592981
0.0004574586605
0.0004561726236
0.000454356602
0.0004521612008
0.0004497635996
0.0004473651297
0.0004451878474
0.0004434720817
0.0004424756998
0.0004501290335
0.0004488780693
0.0004471115229
0.0004449758508
0.0004426433755
0.0004403099433
0.0004381916007
0.0004365222101
0.0004355527273
0.0004430014809
0.0004417843016
0.000440065416
0.0004379872866
0.0004357175581
0.0004334467927
0.0004313852452
0.0004297605448
0.0004288169842
0.0004360685121
0.0004348838989
0.0004332109575
0.0004311883023
0.0004289790706
0.0004267687305
0.0004247619513
0.0004231803492
0.0004222617882
0.0004293230507
0.0004281698506
0.0004265412297
0.0004245720928
0.0004224212303
0.0004202691964
0.0004183152699
0.0004167752617
0.0004158808287
0.0004227584126
0.000421635535
0.0004200496987
0.0004181322299
0.0004160377245
0.0004139419926
0.0004120391072
0.0004105392707
0.0004096681419
0.0004163682822
0.0004152746949
0.0004137301896
0.0004118626379
0.0004098225852
0.0004077812589
0.0004059277004
0.0004044666897
0.0004036180856
0.0004101466879
0.0004090814134
0.0004075768624
0.0004057575694
0.0004037701657
0.0004017814485
0.0003999755929
0.0003985521332
0.0003977253154
0.0004040879783
0.0004030500899
0.0004015841879
0.0003998115812
0.0003978751161
0.0003959373042
0.0003941776115
0.0003927904935
0.0003919847618
0.0003981867984
0.0003971754166
0.0003957469247
0.0003940195116
0.0003921323613
0.0003902438368
0.0003885288444
0.0003871769198
0.000386391609
0.0003924380677
0.0003914523566
0.0003900600975
0.000388376459
0.0003865370795
0.0003846963043
0.0003830246211
0.0003817067974
0.0003809412749
0.0003868369592
0.0003858761233
0.0003845189764
0.0003828777618
0.0003810846833
0.0003792901924
0.0003776604935
0.0003763757302
0.0003756293932
0.0003813788795
0.000380442161
0.000379119058
0.0003775189798
0.0003757708008
0.000374021197
0.0003724322187
0.000371179523
0.0003704517965
0.0003760594516
0.0003751461269
0.0003738560483
0.0003722958772
0.0003705912592
0.0003688852083
0.0003673357432
0.0003661141665
0.0003654045009
0.0003708744973
0.0003699838749
0.0003687258463
0.0003672044069
0.0003655420702
0.0003638782957
0.0003623671886
0.0003611758232
0.0003604836926
0.000365820023
0.0003649514411
0.0003637245293
0.0003622406964
0.0003606194152
0.0003589966945
0.0003575228388
0.0003563608148
0.0003556857151
0.0003608922053
0.0003600450296
0.0003588483403
0.0003574010348
0.0003558196337
0.000354236794
0.0003527991278
0.0003516656104
0.0003510070577
0.0003560873791
0.0003552610006
0.0003540936753
0.0003526818614
0.0003511392115
0.0003495951263
0.0003481926293
0.0003470868165
0.0003464443459
0.0003514020256
0.0003505958592
0.0003494570726
0.0003480797544
0.0003465747704
0.0003450683563
0.0003437000473
0.0003426211673
0.0003419943314
0.0003468327625
0.0003460462453
0.0003449352034
0.0003435914224
0.0003421230595
0.0003406532733
0.0003393182072
0.0003382655166
0.0003376538844
0.0003423763349
0.0003416089245
0.0003405248622
0.0003392136949
0.0003377809461
0.0003363467824
0.0003350440481
0.00033401683
0.0003334199859
0.0003380296066
0.00033728078
0.0003362229595
0.0003349435151
0.0003335454089
0.0003321458974
0.0003308746155
0.0003298721782
0.0003292897208
0.0003337895528
0.0003330588051
0.0003320265142
0.0003307779325
0.0003294135309
0.0003280477345
0.0003268070555
0.0003258287305
0.0003252602721
0.0003296532531
0.0003289400967
0.0003279326471
0.000326714097
0.0003253824932
0.000324049506
0.0003228386088
0.0003218837496
0.0003213289152
0.0003256178858
0.0003249218491
0.0003239385752
0.0003227492528
0.0003214495698
0.0003201485154
0.0003189666052
0.0003180345863
0.000317493013
0.0003216807221
0.0003210013485
0.0003200416063
0.0003188807334
0.0003176121223
0.0003163421522
0.0003151884595
0.0003142786751
0.0003137500116
0.0003178391208
0.0003171759685
0.0003162391341
0.0003151059572
0.0003138675954
0.0003126278877
0.000311501667
0.0003106135301
0.0003100974356
0.0003140905244
0.000313443165
0.000312528634
0.0003114224226
0.0003102135132
0.000309003271
0.0003079037995
0.000307036741
0.0003065328852
0.0003104324545
0.0003098004729
0.0003089076591
0.0003078277051
0.0003066474749
0.0003054659254
0.0003043925021
0.0003035459698
0.0003030540323
0.0003068625083
0.0003062455017
0.0003053738366
0.0003043194528
0.0003031671519
0.0003020135452
0.0003009654897
0.0003001389479
0.0002996586178
0.0003033783551
0.0003027759326
0.0003019248644
0.000300895384
0.0002997702844
0.0002986438926
0.0002976205445
0.0002968134729
0.0002963444483
0.0002999777333
0.0002993895156
0.0002985585085
0.000297553284
0.0002964546789
0.0002953547952
0.0002943555131
0.0002935674067
0.0002931093942
0.0002966584477
0.0002960840661
0.0002952725999
0.0002942910027
0.0002932182055
0.0002921441434
0.0002911683043
0.0002903986722
0.0002899513871
0.0002934183667
0.0002928574633
0.0002920650326
0.0002911064517
0.0002900587956
0.0002890098881
0.0002880568868
0.0002873052524
0.0002868684179
0.0002902554201
0.0002897076473
0.0002889337611
0.000287997603
0.00028697444
0.0002859500391
0.0002850192875
0.0002842851874
0.0002838585346
0.0002871675972
0.000286632617
0.0002858767982
0.0002849624864
0.0002839631868
0.0002829626629
0.0002820535896
0.0002813365738
0.0002809198414
0.0002841529451
0.0002836304291
0.0002828922142
0.0002819991882
0.0002810231403
0.0002800458815
0.0002791579314
0.0002784575625
0.0002780504967
0.0002812095663
0.0002806991956
0.0002799781341
0.0002791058496
0.0002781524591
0.000277197871
0.0002763305047
0.000275646358
0.0002752487123
0.0002783356184
0.000277837083
0.0002771327373
0.0002762806656
0.000275349355
0.0002744168605
0.0002735695543
0.0002729012173
0.0002725127523
0.000275529312
0.000275042311
0.0002743542562
0.0002735218836
0.0002726120926
0.0002717011312
0.0002708733767
0.0002702204492
0.0002698409327
0.0002727889102
0.0002723131513
0.0002716409751
0.0002708278033
0.0002699389877
0.0002690490157
0.00026824032
0.0002676024137
0.0002672316206
0.0002701127279
0.0002696479277
0.0002689912297
0.0002681967753
0.0002673284078
0.000266458898
0.000265668783
0.000265045522
0.0002646832343
0.0002674991309
0.0002670450145
0.000266403407
0.0002656272013
0.0002647787708
0.0002639292128
0.0002631572157
0.0002625482361
0.0002621942429
0.0002649465358
0.000264502837
0.0002638759443
0.0002631175339
0.0002622885457
0.0002614584454
0.000260704119
0.0002601090691
0.0002597631667
0.00026245341
0.0002620198712
0.00026140733
0.0002606662763
0.0002598562522
0.0002590451325
0.0002583080447
0.000257726585
0.0002573885771
0.0002600182712
0.0002595946436
0.0002589961029
0.0002582719823
0.0002574804608
0.0002566878613
0.0002559675955
0.0002553993992
0.0002550690968
0.0002576396879
0.0002572257315
0.0002566408528
0.0002559332569
0.0002551597933
0.0002543852705
0.0002536814259
0.0002531261783
0.0002528033997
0.0002553162794
0.0002549117629
0.0002543402203
0.000253648756
0.0002528929224
0.0002521360498
0.0002514482408
0.0002509056401
0.0002505902109
0.0002530467161
0.0002526514171
0.0002520928971
0.0002514171866
0.0002506785716
0.0002499389397
0.0002492667965
0.0002487365525
0.0002484283055
0.0002508297189
0.000250443424
0.0002498976259
0.0002492373065
0.0002485155156
0.0002477927312
0.0002471358987
0.0002466177334
0.000246316508
0.0002486640599
0.0002482865645
0.0002477531997
0.0002471079238
0.0002464025785
0.0002456962647
0.0002450544021
0.0002445480483
0.0002442536904
0.0002465485615
0.0002461796694
0.0002456584618
0.0002450278961
0.0002443386337
0.0002436484285
0.0002430212086
0.0002425264091
0.0002422387696
0.0002444820955
0.0002441216193
0.0002436123042
0.0002429961294
0.0002423226016
0.0002416481573
0.0002410352644
0.0002405517705
0.000240270705
0.0002424635828
0.0002421113428
0.0002416136667
0.0002410115763
0.0002403534483
0.0002396944294
0.0002390955579
0.0002386231277
0.0002383484945
0.000240491991
0.0002401478151
0.0002396615347
0.000239073234
0.0002384301827
0.000237786264
0.0002372011165
0.0002367395124
0.0002364711713
0.0002385663335
0.0002382300565
0.0002377549378
0.0002371801423
0.0002365518545
0.0002359227192
0.000235351003
0.0002348999895
0.0002346377999
0.0002366856675
0.0002363571301
0.0002358929469
0.0002353313809
0.0002347175515
0.0002341028883
0.0002335443134
0.0002331036543
0.0002328474732
0.0002348490928
0.0002345281408
0.0002340746737
0.0002335260681
0.0002329263973
0.0002323258978
0.0002317801741
0.0002313496296
0.0002310993097
0.0002330557501
0.0002327422339
0.0002322992686
0.0002317633593
0.0002311775505
0.0002305909067
0.0002300577407
0.0002296370651
0.0002293924531
0.0002313048207
0.000230998594
0.0002305659205
0.0002300424468
0.0002294702046
0.0002288971066
0.000228376199
0.0002279651384
0.0002277260731
0.0002295955265
0.0002292964461
0.0002288738576
0.0002283625609
0.0002278035897
0.0002272437238
0.000226734768
0.0002263330585
0.00022609937
0.0002279271326
0.0002276350577
0.0002272223498
0.000226722973
0.0002261769763
0.000225630024
0.0002251327054
0.0002247400725
0.0002245115819
0.0002262989502
0.0002260137426
0.0002256107136
0.0002251230011
0.0002245896811
0.0002240553201
0.0002235693161
0.0002231854751
0.0002229619947
0.000224710343
0.0002244318674
0.0002240383189
0.0002235620171
0.0002230410766
0.0002225189815
0.0002220439635
0.0002216686219
0.0002214499571
0.0002231607346
0.0002228888594
0.0002225045976
0.0002220394574
0.0002215306017
0.0002210204475
0.0002205560845
0.0002201889451
0.0002199748967
0.0002216496187
0.0002213842173
0.0002210090549
0.0002205548343
0.0002200577752
0.0002195592417
0.0002191052055
0.000218745972
0.0002185363406
0.0002201765693
0.0002199175223
0.0002195512815
0.0002191077495
0.0002186222103
0.0002181349883
0.0002176909606
0.0002173393447
0.000217133936
0.0002187412537
0.0002184884506
0.0002181309667
0.000217697908