/*--------------------------------*- C++ -*----------------------------------*\
| =========                 |                                                 |
| \\      /  F ield         | OpenFOAM: The Open Source CFD Toolbox           |
|  \\    /   O peration     | Version:  2212                                  |
|   \\  /    A nd           | Website:  www.openfoam.com                      |
|    \\/     M anipulation  |                                                 |
\*---------------------------------------------------------------------------*/
FoamFile
{
    version     2.0;
    format      ascii;
    arch        "LSB;label=32;scalar=64";
    class       volScalarField;
    location    "30.00000000";
    object      AC3H4;
}
// * * * * * * * * * * * * * * * * * * * * * * * * * * * * * * * * * * * * * //

dimensions      [0 0 0 0 0 0 0];

internalField   nonuniform List<scalar> 
3000
(
2.737520145e-21
3.07554737e-21
3.585652602e-21
4.265457619e-21
5.108088335e-21
6.090697754e-21
7.154108148e-21
8.168917436e-21
8.886478883e-21
1.027911818e-20
1.159503135e-20
1.357998676e-20
1.62311574e-20
1.954604636e-20
2.350651813e-20
2.804375185e-20
3.292978189e-20
3.725659895e-20
2.303046994e-20
2.618338539e-20
3.098472179e-20
3.750431371e-20
4.585963456e-20
5.617234153e-20
6.84013365e-20
8.186118371e-20
9.336090061e-20
4.388169962e-20
5.041281188e-20
6.050454422e-20
7.449918675e-20
9.289334973e-20
1.161554615e-19
1.441584301e-19
1.746634499e-19
1.992836907e-19
7.795812788e-20
9.066254882e-20
1.106024641e-19
1.387928409e-19
1.765616958e-19
2.249702308e-19
2.832102681e-19
3.45067185e-19
3.925541614e-19
1.341290729e-19
1.579883739e-19
1.959737299e-19
2.50514249e-19
3.245246695e-19
4.198739807e-19
5.337179323e-19
6.51704563e-19
7.390054858e-19
2.27852904e-19
2.717104789e-19
3.423486591e-19
4.449195629e-19
5.851461653e-19
7.658294038e-19
9.795051212e-19
1.196636797e-18
1.35333381e-18
3.858869515e-19
4.653140908e-19
5.943793079e-19
7.832393555e-19
1.042447451e-18
1.375757976e-18
1.766464774e-18
2.157704072e-18
2.435331981e-18
6.546304396e-19
7.969483536e-19
1.029695876e-18
1.371981828e-18
1.84257283e-18
2.446014816e-18
3.148238206e-18
3.844069033e-18
4.332360339e-18
1.114473237e-18
1.367439549e-18
1.782999338e-18
2.396034318e-18
3.239256005e-18
4.317523807e-18
5.565187056e-18
6.792322985e-18
7.646996904e-18
1.904787025e-18
2.351699194e-18
3.088068927e-18
4.17629084e-18
5.67271161e-18
7.581342012e-18
9.780128169e-18
1.193145988e-17
1.342249056e-17
3.267279123e-18
4.053209854e-18
5.350659549e-18
7.269673305e-18
9.906471202e-18
1.326134951e-17
1.711234563e-17
2.086646992e-17
2.346242371e-17
5.621463383e-18
6.999074647e-18
9.276006371e-18
1.264453788e-17
1.726762053e-17
2.31339366e-17
2.984270624e-17
3.636336203e-17
4.088925806e-17
9.695993133e-18
1.210589983e-17
1.609255837e-17
2.199112339e-17
3.007668617e-17
4.030398153e-17
5.193035578e-17
6.314693188e-17
7.115152175e-17
1.675653083e-17
2.096804419e-17
2.794245307e-17
3.826962243e-17
5.242671709e-17
7.029860146e-17
9.041299517e-17
1.088717505e-16
1.24022993e-16
2.899868292e-17
3.635214342e-17
4.854574742e-17
6.66345668e-17
9.151546695e-17
1.231808466e-16
1.596787199e-16
1.961488244e-16
2.189498418e-16
5.022588594e-17
6.304332188e-17
8.431027284e-17
1.158717543e-16
1.592765564e-16
2.144170612e-16
2.775033365e-16
3.386695335e-16
3.801964147e-16
8.703453301e-17
1.093425709e-16
1.463640167e-16
2.01300472e-16
2.768046813e-16
3.725914513e-16
4.819283816e-16
5.876797141e-16
6.600668918e-16
1.508730199e-16
1.896633554e-16
2.540450213e-16
3.495736438e-16
4.808245622e-16
6.47242983e-16
8.370895125e-16
1.020655194e-15
1.146394635e-15
2.616134909e-16
3.290299628e-16
4.409346829e-16
6.069762471e-16
8.350780082e-16
1.124232343e-15
1.454011337e-15
1.772815796e-15
1.991165931e-15
4.53751526e-16
5.708849021e-16
7.653328349e-16
1.053856748e-15
1.450195666e-15
1.952548279e-15
2.525375322e-15
3.079029097e-15
3.458158694e-15
7.871728164e-16
9.906492845e-16
1.328456399e-15
1.82970859e-15
2.518234801e-15
3.390830825e-15
4.385681326e-15
5.347054308e-15
6.005284012e-15
1.365854643e-15
1.719278303e-15
2.30605306e-15
3.176737798e-15
4.372657584e-15
5.888125975e-15
7.615648095e-15
9.284750488e-15
1.04274277e-14
2.370350856e-15
2.984177713e-15
4.003311914e-15
5.515526389e-15
7.5924723e-15
1.022406823e-14
1.322341969e-14
1.612090977e-14
1.810432111e-14
4.114219574e-15
5.180275833e-15
6.950231184e-15
9.576406711e-15
1.318298075e-14
1.775207637e-14
2.295883506e-14
2.798795987e-14
3.143021803e-14
7.14201707e-15
8.993437178e-15
1.206718847e-14
1.66274794e-14
2.288935976e-14
3.082100135e-14
3.985775595e-14
4.85845012e-14
5.455684776e-14
1.23994619e-14
1.56147533e-14
2.095237049e-14
2.887029957e-14
3.974054808e-14
5.350601059e-14
6.918504918e-14
8.432202456e-14
9.46789807e-14
2.152883018e-14
2.711252162e-14
3.638057775e-14
5.0126151e-14
6.899170212e-14
9.287374057e-14
1.200651767e-13
1.463063385e-13
1.642549301e-13
3.738124155e-14
4.707721842e-14
6.31677184e-14
8.702460911e-14
1.19754827e-13
1.611683406e-13
2.082951592e-13
2.53749949e-13
2.848251329e-13
6.490412682e-14
8.173854519e-14
1.096671554e-13
1.510587343e-13
2.078143833e-13
2.795794001e-13
3.611833633e-13
4.398307478e-13
4.935598663e-13
1.126761196e-13
1.418966102e-13
1.90354476e-13
2.621303522e-13
3.604749928e-13
4.847140493e-13
6.258395355e-13
7.617043546e-13
8.544287921e-13
1.95555758e-13
2.462523918e-13
3.302798362e-13
4.546458292e-13
6.24876312e-13
8.396648311e-13
1.083304337e-12
1.317514341e-12
1.477133514e-12
3.392391958e-13
4.271332056e-13
5.727095933e-13
7.87953267e-13
1.082184748e-12
1.45282827e-12
1.87247355e-12
2.27507943e-12
2.548946191e-12
5.880748572e-13
7.402961975e-13
9.921817063e-13
1.364118182e-12
1.87166645e-12
2.509674639e-12
3.230280072e-12
3.919841882e-12
4.387743768e-12
1.018404773e-12
1.281632843e-12
1.716685141e-12
2.358000352e-12
3.231214405e-12
4.325920758e-12
5.558530026e-12
6.734163185e-12
7.529364868e-12
1.76122555e-12
2.215467512e-12
2.96508673e-12
4.067748225e-12
5.564965346e-12
7.435622134e-12
9.533822124e-12
1.152686691e-11
1.286967676e-11
3.040453695e-12
3.822174213e-12
5.10979184e-12
6.998800555e-12
9.554941943e-12
1.273541524e-11
1.628601415e-11
1.964199149e-11
2.189237386e-11
5.237110875e-12
6.57768295e-12
8.780709742e-12
1.200217995e-11
1.634321542e-11
2.171761916e-11
2.768390511e-11
3.329022358e-11
3.702874669e-11
8.996185779e-12
1.128508677e-11
1.5036013e-11
2.049953174e-11
2.78252693e-11
3.684158795e-11
4.678565878e-11
5.606694994e-11
6.221700374e-11
1.540308314e-11
1.929041246e-11
2.563949361e-11
3.48446929e-11
4.711583527e-11
6.211642556e-11
7.853788998e-11
9.374924821e-11
1.037582174e-10
2.627233931e-11
3.283269661e-11
4.35056629e-11
5.889679972e-11
7.927775791e-11
1.040012891e-10
1.308437356e-10
1.555030543e-10
1.716063458e-10
4.461536942e-11
5.56055989e-11
7.340497582e-11
9.891596796e-11
1.324453988e-10
1.727751288e-10
2.161700017e-10
2.556848476e-10
2.81284903e-10
7.539013499e-11
9.364763271e-11
1.230664462e-10
1.649432083e-10
2.195306619e-10
2.84590116e-10
3.539313445e-10
4.164946533e-10
4.56698143e-10
1.266887362e-10
1.5673562e-10
2.0487837e-10
2.728965068e-10
3.607773115e-10
4.645082081e-10
5.739821111e-10
6.718362345e-10
7.342076534e-10
2.115954229e-10
2.605375203e-10
3.384763088e-10
4.477116947e-10
5.875353718e-10
7.509367278e-10
9.216732694e-10
1.072876026e-09
1.168486342e-09
3.510553994e-10
4.29894435e-10
5.546293667e-10
7.279891219e-10
9.477724758e-10
1.202038184e-09
1.465105505e-09
1.695978056e-09
1.840854753e-09
5.782440492e-10
7.037577524e-10
9.010024187e-10
1.172787908e-09
1.514037353e-09
1.904907562e-09
2.305446965e-09
2.653945598e-09
2.871067725e-09
9.451294795e-10
1.14251972e-09
1.450598566e-09
1.871455907e-09
2.394861389e-09
2.988607847e-09
3.591507568e-09
4.111844966e-09
4.433876782e-09
1.532195317e-09
1.838762651e-09
2.31399344e-09
2.957718659e-09
3.750952761e-09
4.642559011e-09
5.540200506e-09
6.309153627e-09
6.782177335e-09
2.462658794e-09
2.932839128e-09
3.656889438e-09
4.629705565e-09
5.81803769e-09
7.142323327e-09
8.465114593e-09
9.590604966e-09
1.02792023e-08
3.923014843e-09
4.63521909e-09
5.725082578e-09
7.178208139e-09
8.938879384e-09
1.08855688e-08
1.281622056e-08
1.444895315e-08
1.544310171e-08
6.192408836e-09
7.258251874e-09
8.879702624e-09
1.102630047e-08
1.360791645e-08
1.64419845e-08
1.923480549e-08
2.158401961e-08
2.300843453e-08
9.684257096e-09
1.126096801e-08
1.364663795e-08
1.678458479e-08
2.053318447e-08
2.462224341e-08
2.862916317e-08
3.198390756e-08
3.401069637e-08
1.500478495e-08
1.731190766e-08
2.078552381e-08
2.532788047e-08
3.072182206e-08
3.65728383e-08
4.227844628e-08
4.703633066e-08
4.990215951e-08
2.303352749e-08
2.637504641e-08
3.138385201e-08
3.790001507e-08
4.559739195e-08
5.390663733e-08
6.197552454e-08
6.868138513e-08
7.271038175e-08
3.503511428e-08
3.982932448e-08
4.698784984e-08
5.625885903e-08
6.716090293e-08
7.88806115e-08
9.02208511e-08
9.96187877e-08
1.052536001e-07
5.281372355e-08
5.96331853e-08
6.978165682e-08
8.287405238e-08
9.820999902e-08
1.146378046e-07
1.304861768e-07
1.435894248e-07
1.514329025e-07
7.892397179e-08
8.854891257e-08
1.028313717e-07
1.211960356e-07
1.426367649e-07
1.655355187e-07
1.875717106e-07
2.057563162e-07
2.166273751e-07
1.169578394e-07
1.30447475e-07
1.504161568e-07
1.76020443e-07
2.058304638e-07
2.375885404e-07
2.680880028e-07
2.932183226e-07
3.082269237e-07
1.719327475e-07
1.907204064e-07
2.184750058e-07
2.539791107e-07
2.952195322e-07
3.390650757e-07
3.811036143e-07
4.157006281e-07
4.363484876e-07
2.508128626e-07
2.76832578e-07
3.152056587e-07
3.641975786e-07
4.209968119e-07
4.812840259e-07
5.390118505e-07
5.864790734e-07
6.147950393e-07
3.632035024e-07
3.990579274e-07
4.518610557e-07
5.191689578e-07
5.970834445e-07
6.796751744e-07
7.586841343e-07
8.236111614e-07
8.623336388e-07
5.222666123e-07
5.714488724e-07
6.437983239e-07
7.359048916e-07
8.423990168e-07
9.551774469e-07
1.062993177e-06
1.151564326e-06
1.204387915e-06
7.459131906e-07
8.130985339e-07
9.118442852e-07
1.037433895e-06
1.182515942e-06
1.336062462e-06
1.482803378e-06
1.603348498e-06
1.675258681e-06
1.058334464e-06
1.149760542e-06
1.284046703e-06
1.454722385e-06
1.651781499e-06
1.860276805e-06
2.059533079e-06
2.223268621e-06
2.320996138e-06
1.491934107e-06
1.615890743e-06
1.797878867e-06
2.029090796e-06
2.295986172e-06
2.57838934e-06
2.848383954e-06
3.070401481e-06
3.203034726e-06
2.089717191e-06
2.257166832e-06
2.502953957e-06
2.815181448e-06
3.175635077e-06
3.557200403e-06
3.922294303e-06
4.222853665e-06
4.402647861e-06
2.908176767e-06
3.133523447e-06
3.464281095e-06
3.884501757e-06
4.369834247e-06
4.884008861e-06
5.376593201e-06
5.782758167e-06
6.026166323e-06
4.020693016e-06
4.322708744e-06
4.766054365e-06
5.329511986e-06
5.980730102e-06
6.671435003e-06
7.334205244e-06
7.881810191e-06
8.210725498e-06
5.52142005e-06
5.924320229e-06
6.515904342e-06
7.268145873e-06
8.138334274e-06
9.062559965e-06
9.951084009e-06
1.068693885e-05
1.11300813e-05
7.529572739e-06
8.064203505e-06
8.849449817e-06
9.848536334e-06
1.100541982e-05
1.223596331e-05
1.342134246e-05
1.440547965e-05
1.499979217e-05
1.019392733e-05
1.089898445e-05
1.193485229e-05
1.325355498e-05
1.478197899e-05
1.641001275e-05
1.79812962e-05
1.928895221e-05
2.008083356e-05
1.369720079e-05
1.462034071e-05
1.597688873e-05
1.770455976e-05
1.97084882e-05
2.184547974e-05
2.391131852e-05
2.563419546e-05
2.668023068e-05
1.825977275e-05
1.945840661e-05
2.121983325e-05
2.346350856e-05
2.606697567e-05
2.884530197e-05
3.153411581e-05
3.377995039e-05
3.514597006e-05
2.414198184e-05
2.568347567e-05
2.79482177e-05
3.083239603e-05
3.41787654e-05
3.7750319e-05
4.120801158e-05
4.409777059e-05
4.58571051e-05
3.164400387e-05
3.36049597e-05
3.648437073e-05
4.01488658e-05
4.439770292e-05
4.892937924e-05
5.331412713e-05
5.69776249e-05
5.920844932e-05
4.110218309e-05
4.356646675e-05
4.718162963e-05
5.177689326e-05
5.709726983e-05
6.276325875e-05
6.823759157e-05
7.280595866e-05
7.558591617e-05
5.288073363e-05
5.593589559e-05
6.041175435e-05
6.609077884e-05
7.265195648e-05
7.962306789e-05
8.634261122e-05
9.193841102e-05
9.533840304e-05
6.735688381e-05
7.108867689e-05
7.654613024e-05
8.345427612e-05
9.141289114e-05
9.984268913e-05
0.0001079426701
0.0001146682272
0.0001187451743
8.490035206e-05
8.938619325e-05
9.593221348e-05
0.0001041943045
0.0001136799138
0.0001236889061
0.0001332687209
0.0001411935899
0.0001459829537
0.000105847753
0.0001111489514
0.0001188653496
0.0001285716651
0.0001396705936
0.0001513298661
0.0001624382406
0.0001715875017
0.000177096577
0.0001304724138
0.0001366259387
0.0001455575659
0.0001567499894
0.0001694903239
0.0001828070598
0.0001954292333
0.0002057742002
0.000211977183
0.0001589521859
0.0001659630909
0.000176107614
0.0001887671944
0.0002031064593
0.0002180128735
0.000232062454
0.0002435155179
0.0002503512907
0.0001913382305
0.0001991735895
0.0002104734798
0.0002245124078
0.0002403302537
0.0002566784038
0.000271994978
0.000284409748
0.0002917830785
0.0002275285111
0.0002361139949
0.0002484526719
0.0002637111435
0.0002808085067
0.0002983724733
0.000314726454
0.000327904137
0.0003356910644
0.0002672497003
0.0002764695625
0.0002896725604
0.0003059221921
0.0003240277065
0.0003425131946
0.0003596179624
0.0003733202087
0.0003813797323
0.0003100509296
0.0003197518042
0.000333593348
0.0003505470884
0.0003693304359
0.0003883910867
0.0004059207843
0.0004198831373
0.0004280514112
0.0003553121432
0.000365310607
0.000379525369
0.0003968533327
0.000415944
0.0004352017099
0.0004527995536
0.0004667288435
0.0004748338466
0.0004022688236
0.0004123621323
0.0004266612662
0.0004440116817
0.0004630179317
0.0004820658607
0.0004993585617
0.0005129614805
0.0005208341246
0.0004500532599
0.0004600312853
0.0004741144623
0.0004911164195
0.0005096319595
0.0005280691292
0.0005446984126
0.0005576988446
0.0005651827397
0.0004977132928
0.0005073605691
0.0005209261404
0.0005372217877
0.0005548644104
0.0005723204492
0.0005879628576
0.000600116832
0.0006070764348
0.0005442529657
0.0005533699913
0.0005661423442
0.0005814093625
0.0005978419838
0.0006139974882
0.0006283808336
0.0006394880424
0.0006458145645
0.0005887089984
0.0005971236944
0.0006088683213
0.0006228374022
0.000637784903
0.0006523861988
0.0006653007871
0.0006752117688
0.0006808264984
0.0006302061449
0.0006377824026
0.0006483169194
0.0006607835589
0.0006740434509
0.0006869108999
0.0006982148876
0.0007068336501
0.000711688694
0.0006680040876
0.0006746466933
0.0006838467462
0.0006946767595
0.000706123122
0.000717152883
0.0007267719714
0.0007340544252
0.0007381311841
0.0007015312561
0.0007071870222
0.0007149869654
0.0007241158977
0.0007336970234
0.0007428569881
0.000750779319
0.0007567283293
0.0007600342251
0.0007304030064
0.0007350584711
0.0007414474325
0.0007488747853
0.0007566057028
0.0007639269223
0.0007701944615
0.0007748525649
0.0007774166265
0.0007544238593
0.0007581003166
0.0007631147771
0.0007688944701
0.000774845918
0.0007804110377
0.0007851087629
0.000788549572
0.0007904174793
0.0007735753919
0.0007763221189
0.0007800362299
0.0007842647844
0.0007885502962
0.0007924808154
0.0007957254102
0.0007980449257
0.000799274096
0.0007879928852
0.0007898798471
0.0007923952349
0.0007951996594
0.0007979626601
0.0008004064207
0.0008023353608
0.0008036437771
0.0008042988404
0.0007979362729
0.0007990469154
0.0008004827511
0.0008020089559
0.0008034106846
0.0008045304539
0.0008052922854
0.0008057068248
0.0008058557192
0.0008037578351
0.000804182627
0.0008046668288
0.0008050695104
0.0008052786468
0.0008052424758
0.0008049887366
0.0008046277779
0.0008043385847
0.0008058704209
0.0008057015091
0.0008053635266
0.0008047979703
0.0008039823428
0.0008029559683
0.0008018349073
0.0008008134757
0.0008001520096
0.0008047187084
0.0008040458182
0.0008030111455
0.0008016270592
0.0007999474868
0.000798088764
0.0007962407995
0.0007946673408
0.0007936954406
0.0008007550207
0.0007996625653
0.0007980489041
0.0007959861582
0.0007935922561
0.000791047424
0.000788602142
0.0007865764198
0.0007853508443
0.0007944203413
0.0007929855912
0.0007909004524
0.0007882864597
0.0007853141094
0.0007822155933
0.0007792900257
0.0007769019385
0.000775473753
0.0007861304894
0.0007844226056
0.0007819620711
0.000778910483
0.0007754806391
0.0007719460571
0.0007686439429
0.0007659730537
0.0007643874071
0.0007762669848
0.0007743467132
0.0007715950804
0.0007682054634
0.0007644239135
0.000760555976
0.0007569677771
0.0007540833837
0.0007523795666
0.0007651718465
0.0007630916692
0.0007601217029
0.0007564799065
0.0007524377524
0.0007483247978
0.000744528223
0.0007414897914
0.0007397014928
0.0007531455086
0.0007509501041
0.0007478237046
0.0007440026907
0.0007397772729
0.0007354942069
0.000731555071
0.0007284129099
0.0007265686057
0.0007404470894
0.0007381739755
0.0007349430861
0.0007310040235
0.0007266601093
0.0007222695812
0.0007182428576
0.0007150389345
0.0007131623524
0.0007272963021
0.000724976569
0.0007216842015
0.0007176776888
0.0007132687847
0.000708822475
0.0007047534393
0.0007015222627
0.0006996328839
0.0007138764263
0.000711535495
0.0007082167866
0.0007041841067
0.0006997537996
0.0006952937298
0.000691219121
0.000687988634
0.0006861022026
0.0007003378794
0.0006979962432
0.0006946794878
0.0006906538308
0.0006862370923
0.000681796898
0.0006777460454
0.0006745384945
0.0006726675122
0.0006868020409
0.000684475964
0.0006811835836
0.000677191197
0.0006728156107
0.0006684217392
0.0006644176244
0.0006612503781
0.0006594045714
0.0006733650832
0.0006710672417
0.0006678166774
0.0006638779218
0.0006595648103
0.0006552376207
0.0006512978529
0.0006481841548
0.0006463709053
0.0006601016397
0.0006578416976
0.0006546462115
0.0006507765111
0.0006465419503
0.0006422967054
0.0006384344015
0.0006353840501
0.0006336087832
0.0006470682039
0.0006448533241
0.000641722709
0.0006379333937
0.000633789113
0.0006296368588
0.0006258614242
0.0006228813763
0.0006211479062
0.000634306202
0.0006321414919
0.0006290826927
0.0006253817348
0.000621335904
0.0006172842388
0.000613602051
0.0006106969495
0.0006090077814
0.0006218447128
0.0006197336102
0.0006167512602
0.0006131439108
0.00060920182
0.00060525556
0.0006016705582
0.0005988431878
0.000597199778
0.0006097028352
0.0006076474377
0.0006047443178
0.0006012336508
0.000597398292
0.0005935600382
0.0005900742267
0.0005873259026
0.0005857288803
0.0005978917164
0.000595893061
0.0005930704878
0.0005896578606
0.0005859304185
0.0005822010365
0.0005788149095
0.0005761458037
0.0005745951575
0.0005864162683
0.0005844745652
0.0005817327164
0.0005784181549
0.0005747984178
0.0005711774379
0.0005678903328
0.0005652997468
0.0005637949798
0.0005752765983
0.0005733914254
0.0005707296099
0.0005675121281
0.0005639988277
0.0005604847752
0.0005572951647
0.0005547817526
0.000553322009
0.0005644691908
0.0005626396531
0.0005600565326
0.0005569343945
0.000553525484
0.0005501161489
0.0005470218773
0.0005445838279
0.0005431679962
0.0005539878701
0.0005522127301
0.000549706499
0.0005466774294
0.0005433703073
0.0005400629614
0.0005370614363
0.0005346966185
0.0005333234137
0.0005438245724
0.0005421023534
0.0005396708823
0.0005367322373
0.0005335239276
0.0005303154982
0.0005274038419
0.0005251099198
0.0005237779483
0.0005339699572
0.0005322990268
0.0005299399781
0.0005270888799
0.000523976174
0.0005208633799
0.0005180385473
0.0005158130697
0.0005145208796
0.0005244138917
0.000522792527
0.0005205034439
0.0005177368851
0.0005147164507
0.0005116959067
0.0005089547766
0.000506795246
0.0005055413649
0.0005151458225
0.0005135722591
0.0005113506339
0.0005086655569
0.0005057340217
0.0005028023186
0.0005001417619
0.0004980456854
0.0004968286495
0.000506155055
0.0005046275251
0.0005024708505
0.0004998642074
0.0004970182213
0.0004941719841
0.0004915889148
0.0004895538415
0.000488372216
0.0004974309616
0.0004959477212
0.0004938535285
0.0004913223247
0.000488558605
0.0004857945357
0.0004832859461
0.0004813094941
0.0004801618876
0.0004889631308
0.00048752248
0.0004854883656
0.0004830296911
0.0004803450535
0.0004776599604
0.000475222946
0.0004733028196
0.0004721878936
0.0004807414717
0.0004793417677
0.0004773654117
0.0004749764612
0.0004723678416
0.0004697586579
0.000467390433
0.0004655244339
0.0004644409088
0.0004727562814
0.0004713959477
0.0004694751252
0.0004671532114
0.0004646176776
0.0004620814731
0.0004597793794
0.0004579654126
0.0004569120704
0.000464998286
0.000463675817
0.0004618084046
0.0004595509649
0.0004570857237
0.0004546197097
0.0004523812198
0.000450617296
0.000449592981
0.0004574586605
0.0004561726236
0.0004543566021
0.0004521612008
0.0004497635996
0.0004473651297
0.0004451878474
0.0004434720816
0.0004424756998
0.0004501290335
0.0004488780694
0.0004471115229
0.0004449758508
0.0004426433755
0.0004403099433
0.0004381916007
0.0004365222101
0.0004355527273
0.0004430014809
0.0004417843016
0.0004400654161
0.0004379872866
0.0004357175581
0.0004334467927
0.0004313852452
0.0004297605448
0.0004288169842
0.0004360685121
0.0004348838989
0.0004332109575
0.0004311883023
0.0004289790706
0.0004267687305
0.0004247619513
0.0004231803492
0.0004222617881
0.0004293230507
0.0004281698506
0.0004265412297
0.0004245720928
0.0004224212303
0.0004202691964
0.0004183152698
0.0004167752617
0.0004158808286
0.0004227584126
0.000421635535
0.0004200496987
0.0004181322299
0.0004160377245
0.0004139419926
0.0004120391072
0.0004105392707
0.0004096681418
0.0004163682822
0.0004152746949
0.0004137301896
0.0004118626379
0.0004098225852
0.0004077812589
0.0004059277004
0.0004044666897
0.0004036180856
0.0004101466879
0.0004090814135
0.0004075768624
0.0004057575694
0.0004037701657
0.0004017814485
0.0003999755929
0.0003985521332
0.0003977253154
0.0004040879783
0.0004030500899
0.0004015841879
0.0003998115812
0.0003978751161
0.0003959373042
0.0003941776115
0.0003927904935
0.0003919847618
0.0003981867984
0.0003971754166
0.0003957469247
0.0003940195116
0.0003921323613
0.0003902438368
0.0003885288444
0.0003871769197
0.000386391609
0.0003924380677
0.0003914523566
0.0003900600975
0.000388376459
0.0003865370795
0.0003846963043
0.0003830246211
0.0003817067974
0.0003809412749
0.0003868369592
0.0003858761234
0.0003845189764
0.0003828777618
0.0003810846833
0.0003792901923
0.0003776604935
0.0003763757301
0.0003756293932
0.0003813788796
0.000380442161
0.0003791190581
0.0003775189798
0.0003757708007
0.000374021197
0.0003724322187
0.0003711795229
0.0003704517965
0.0003760594516
0.0003751461269
0.0003738560483
0.0003722958772
0.0003705912592
0.0003688852083
0.0003673357432
0.0003661141664
0.0003654045009
0.0003708744973
0.0003699838749
0.0003687258463
0.0003672044069
0.0003655420702
0.0003638782957
0.0003623671886
0.0003611758232
0.0003604836926
0.000365820023
0.0003649514411
0.0003637245293
0.0003622406964
0.0003606194152
0.0003589966945
0.0003575228388
0.0003563608148
0.000355685715
0.0003608922054
0.0003600450296
0.0003588483403
0.0003574010348
0.0003558196337
0.000354236794
0.0003527991277
0.0003516656104
0.0003510070577
0.0003560873791
0.0003552610006
0.0003540936753
0.0003526818614
0.0003511392115
0.0003495951263
0.0003481926293
0.0003470868164
0.0003464443459
0.0003514020256
0.0003505958592
0.0003494570726
0.0003480797544
0.0003465747704
0.0003450683563
0.0003437000473
0.0003426211673
0.0003419943314
0.0003468327625
0.0003460462453
0.0003449352034
0.0003435914224
0.0003421230594
0.0003406532733
0.0003393182072
0.0003382655166
0.0003376538844
0.0003423763349
0.0003416089245
0.0003405248622
0.0003392136949
0.0003377809461
0.0003363467824
0.000335044048
0.00033401683
0.0003334199858
0.0003380296066
0.00033728078
0.0003362229595
0.0003349435151
0.0003335454089
0.0003321458974
0.0003308746155
0.0003298721782
0.0003292897207
0.0003337895528
0.0003330588051
0.0003320265142
0.0003307779325
0.0003294135309
0.0003280477344
0.0003268070555
0.0003258287305
0.000325260272
0.0003296532531
0.0003289400967
0.0003279326471
0.000326714097
0.0003253824932
0.000324049506
0.0003228386088
0.0003218837495
0.0003213289151
0.0003256178859
0.0003249218491
0.0003239385752
0.0003227492528
0.0003214495698
0.0003201485154
0.0003189666052
0.0003180345863
0.000317493013
0.0003216807221
0.0003210013485
0.0003200416063
0.0003188807334
0.0003176121223
0.0003163421522
0.0003151884595
0.0003142786751
0.0003137500115
0.0003178391208
0.0003171759685
0.0003162391341
0.0003151059572
0.0003138675954
0.0003126278877
0.000311501667
0.0003106135301
0.0003100974356
0.0003140905244
0.000313443165
0.000312528634
0.0003114224226
0.0003102135132
0.000309003271
0.0003079037995
0.000307036741
0.0003065328852
0.0003104324545
0.0003098004729
0.0003089076591
0.0003078277051
0.0003066474749
0.0003054659254
0.000304392502
0.0003035459698
0.0003030540323
0.0003068625083
0.0003062455017
0.0003053738366
0.0003043194528
0.0003031671519
0.0003020135452
0.0003009654896
0.0003001389478
0.0002996586177
0.0003033783551
0.0003027759326
0.0003019248644
0.000300895384
0.0002997702844
0.0002986438926
0.0002976205445
0.0002968134729
0.0002963444483
0.0002999777333
0.0002993895156
0.0002985585085
0.000297553284
0.0002964546789
0.0002953547952
0.0002943555131
0.0002935674066
0.0002931093942
0.0002966584477
0.0002960840661
0.0002952725999
0.0002942910027
0.0002932182055
0.0002921441434
0.0002911683043
0.0002903986722
0.0002899513871
0.0002934183667
0.0002928574633
0.0002920650326
0.0002911064517
0.0002900587956
0.0002890098881
0.0002880568868
0.0002873052523
0.0002868684178
0.0002902554201
0.0002897076473
0.0002889337611
0.000287997603
0.00028697444
0.0002859500391
0.0002850192875
0.0002842851874
0.0002838585346
0.0002871675973
0.000286632617
0.0002858767982
0.0002849624864
0.0002839631868
0.0002829626629
0.0002820535896
0.0002813365737
0.0002809198414
0.0002841529451
0.0002836304291
0.0002828922142
0.0002819991882
0.0002810231403
0.0002800458815
0.0002791579314
0.0002784575624
0.0002780504967
0.0002812095663
0.0002806991956
0.0002799781341
0.0002791058496
0.0002781524591
0.000277197871
0.0002763305047
0.000275646358
0.0002752487123
0.0002783356184
0.000277837083
0.0002771327373
0.0002762806656
0.000275349355
0.0002744168605
0.0002735695543
0.0002729012173
0.0002725127523
0.000275529312
0.000275042311
0.0002743542562
0.0002735218836
0.0002726120926
0.0002717011312
0.0002708733767
0.0002702204492
0.0002698409327
0.0002727889102
0.0002723131513
0.0002716409751
0.0002708278033
0.0002699389877
0.0002690490157
0.0002682403199
0.0002676024137
0.0002672316206
0.0002701127279
0.0002696479277
0.0002689912297
0.0002681967753
0.0002673284078
0.000266458898
0.000265668783
0.000265045522
0.0002646832343
0.0002674991309
0.0002670450145
0.0002664034069
0.0002656272013
0.0002647787708
0.0002639292128
0.0002631572157
0.0002625482361
0.0002621942429
0.0002649465358
0.000264502837
0.0002638759443
0.0002631175339
0.0002622885457
0.0002614584454
0.000260704119
0.0002601090691
0.0002597631667
0.00026245341
0.0002620198712
0.00026140733
0.0002606662763
0.0002598562522
0.0002590451325
0.0002583080446
0.000257726585
0.0002573885771
0.0002600182712
0.0002595946436
0.0002589961029
0.0002582719823
0.0002574804608
0.0002566878613
0.0002559675955
0.0002553993992
0.0002550690967
0.0002576396879
0.0002572257315
0.0002566408528
0.0002559332569
0.0002551597933
0.0002543852705
0.0002536814258
0.0002531261783
0.0002528033997
0.0002553162794
0.0002549117629
0.0002543402203
0.000253648756
0.0002528929223
0.0002521360498
0.0002514482408
0.00025090564
0.0002505902108
0.0002530467161
0.0002526514171
0.0002520928971
0.0002514171866
0.0002506785716
0.0002499389397
0.0002492667964
0.0002487365525
0.0002484283055
0.0002508297189
0.000250443424
0.0002498976259
0.0002492373065
0.0002485155156
0.0002477927312
0.0002471358986
0.0002466177333
0.000246316508
0.0002486640599
0.0002482865645
0.0002477531997
0.0002471079238
0.0002464025785
0.0002456962647
0.0002450544021
0.0002445480483
0.0002442536904
0.0002465485615
0.0002461796694
0.0002456584618
0.0002450278961
0.0002443386337
0.0002436484285
0.0002430212086
0.0002425264091
0.0002422387696
0.0002444820955
0.0002441216193
0.0002436123042
0.0002429961294
0.0002423226016
0.0002416481573
0.0002410352644
0.0002405517705
0.0002402707049
0.0002424635828
0.0002421113428
0.0002416136667
0.0002410115763
0.0002403534483
0.0002396944293
0.0002390955579
0.0002386231277
0.0002383484944
0.000240491991
0.0002401478151
0.0002396615347
0.000239073234
0.0002384301827
0.000237786264
0.0002372011165
0.0002367395124
0.0002364711712
0.0002385663335
0.0002382300565
0.0002377549378
0.0002371801422
0.0002365518545
0.0002359227192
0.000235351003
0.0002348999895
0.0002346377999
0.0002366856675
0.0002363571301
0.0002358929469
0.0002353313809
0.0002347175515
0.0002341028882
0.0002335443134
0.0002331036542
0.0002328474732
0.0002348490928
0.0002345281408
0.0002340746737
0.0002335260681
0.0002329263973
0.0002323258978
0.0002317801741
0.0002313496296
0.0002310993097
0.0002330557501
0.0002327422339
0.0002322992686
0.0002317633593
0.0002311775504
0.0002305909067
0.0002300577406
0.0002296370651
0.000229392453
0.0002313048207
0.000230998594
0.0002305659205
0.0002300424468
0.0002294702046
0.0002288971066
0.000228376199
0.0002279651384
0.000227726073
0.0002295955265
0.0002292964461
0.0002288738576
0.0002283625609
0.0002278035897
0.0002272437237
0.000226734768
0.0002263330585
0.00022609937
0.0002279271326
0.0002276350577
0.0002272223498
0.000226722973
0.0002261769763
0.000225630024
0.0002251327054
0.0002247400725
0.0002245115819
0.0002262989502
0.0002260137426
0.0002256107136
0.0002251230011
0.0002245896811
0.0002240553201
0.0002235693161
0.0002231854751
0.0002229619947
0.000224710343
0.0002244318674
0.0002240383189
0.0002235620171
0.0002230410766
0.0002225189815
0.0002220439635
0.0002216686219
0.0002214499571
0.0002231607346
0.0002228888594
0.0002225045976
0.0002220394574
0.0002215306017
0.0002210204475
0.0002205560845
0.0002201889451
0.0002199748967
0.0002216496187
0.0002213842173
0.0002210090548
0.0002205548343
0.0002200577752
0.0002195592417
0.0002191052055
0.000218745972
0.0002185363406
0.0002201765693
0.0002199175223
0.0002195512815
0.0002191077495
0.0002186222103
0.0002181349883
0.0002176909605
0.0002173393447
0.000217133936
0.0002187412537
0.0002184884506
0.0002181309667
0.000217697908
0.0002172236299