/*--------------------------------*- C++ -*----------------------------------*\
| =========                 |                                                 |
| \\      /  F ield         | OpenFOAM: The Open Source CFD Toolbox           |
|  \\    /   O peration     | Version:  2212                                  |
|   \\  /    A nd           | Website:  www.openfoam.com                      |
|    \\/     M anipulation  |                                                 |
\*---------------------------------------------------------------------------*/
FoamFile
{
    version     2.0;
    format      ascii;
    arch        "LSB;label=32;scalar=64";
    class       volScalarField;
    location    "30.00000000";
    object      AC3H5_0;
}
// * * * * * * * * * * * * * * * * * * * * * * * * * * * * * * * * * * * * * //

dimensions      [0 0 0 0 0 0 0];

internalField   nonuniform List<scalar> 
3000
(
2.999934829e-35
3.362715114e-35
3.906871267e-35
4.624321661e-35
5.496619037e-35
6.476502122e-35
7.453737983e-35
8.202548523e-35
8.375445476e-35
1.113078303e-34
1.250225193e-34
1.454451953e-34
1.721383027e-34
2.043525676e-34
2.406516347e-34
2.782886385e-34
3.121875709e-34
3.329880792e-34
2.455786417e-34
2.774407798e-34
3.251142646e-34
3.880879752e-34
4.655681525e-34
5.55742596e-34
6.540654079e-34
7.499078882e-34
8.167546902e-34
4.599582666e-34
5.242105291e-34
6.215662345e-34
7.527337954e-34
9.184748486e-34
1.117544949e-33
1.341849468e-33
1.565832155e-33
1.722946267e-33
8.026127523e-34
9.248694528e-34
1.112986366e-33
1.371616798e-33
1.705847992e-33
2.11563988e-33
2.582879199e-33
3.046335925e-33
3.364784969e-33
1.356112963e-33
1.581535242e-33
1.933570162e-33
2.425924173e-33
3.072551215e-33
3.874010941e-33
4.788570706e-33
5.684166884e-33
6.289815976e-33
2.262619283e-33
2.670409532e-33
3.315228835e-33
4.228859569e-33
5.441330795e-33
6.951035592e-33
8.667848707e-33
1.033092242e-32
1.145788067e-32
3.764817778e-33
4.492678151e-33
5.654978713e-33
7.317369121e-33
9.537930322e-33
1.230715758e-32
1.544333477e-32
1.845736792e-32
2.050783133e-32
6.277797183e-33
7.564360931e-33
9.634159744e-33
1.261417126e-32
1.661081808e-32
2.159621455e-32
2.722278953e-32
3.260294901e-32
3.628287879e-32
1.051112627e-32
1.276858821e-32
1.642041994e-32
2.170268652e-32
2.880516383e-32
3.76635121e-32
4.763675672e-32
5.714576396e-32
6.368913357e-32
1.767923763e-32
2.161846217e-32
2.801659614e-32
3.730151875e-32
4.980661001e-32
6.539982268e-32
8.292804566e-32
9.961865225e-32
1.111784475e-31
2.986257436e-32
3.670850543e-32
4.786056121e-32
6.408124118e-32
8.595010255e-32
1.132110274e-31
1.438221435e-31
1.729652028e-31
1.933006319e-31
5.063039919e-32
6.249538158e-32
8.186637978e-32
1.100876989e-31
1.48157338e-31
1.95582068e-31
2.487613279e-31
2.994005649e-31
3.351731107e-31
8.611572487e-32
1.066505342e-31
1.40240692e-31
1.892518065e-31
2.553999892e-31
3.377048747e-31
4.296526772e-31
5.168074729e-31
5.806151913e-31
1.468685051e-31
1.823986751e-31
2.406433142e-31
3.258208091e-31
4.410024612e-31
5.843451137e-31
7.432532686e-31
8.867287458e-31
1.008598471e-30
2.51039956e-31
3.125225248e-31
4.135692722e-31
5.618716192e-31
7.635399021e-31
1.017269429e-30
1.306453648e-30
1.593181593e-30
1.778171837e-30
4.298848639e-31
5.362470027e-31
7.114258752e-31
9.691864396e-31
1.320619419e-30
1.763484267e-30
2.266569711e-30
2.754226255e-30
3.09463353e-30
7.37480697e-31
9.21614465e-31
1.225562486e-30
1.674067006e-30
2.287566604e-30
3.063360782e-30
3.947774906e-30
4.811010575e-30
5.416768374e-30
1.268013722e-30
1.587631224e-30
2.116837786e-30
2.901068654e-30
3.979728275e-30
5.352978221e-30
6.931042161e-30
8.487896649e-30
9.580984088e-30
2.187155817e-30
2.744938111e-30
3.672772509e-30
5.056987746e-30
6.977928224e-30
9.450525103e-30
1.232770249e-29
1.520448925e-29
1.72317957e-29
3.791015985e-30
4.773693924e-30
6.420164945e-30
8.902562788e-30
1.239593035e-29
1.696922154e-29
2.23902129e-29
2.790284012e-29
3.182160279e-29
6.622487355e-30
8.381333312e-30
1.136164388e-29
1.592882417e-29
2.249273121e-29
3.130021107e-29
4.201206173e-29
5.313291992e-29
6.115153636e-29
1.171603599e-29
1.49449988e-29
2.051046918e-29
2.924613546e-29
4.21800053e-29
6.011832111e-29
8.265520619e-29
1.066111662e-28
1.24206777e-28
2.115214861e-29
2.731283951e-29
3.819248325e-29
5.583531803e-29
8.297186857e-29
1.221270746e-28
1.731330614e-28
2.28697368e-28
2.703013715e-28
3.940942935e-29
5.181638787e-29
7.442657968e-29
1.125749703e-28
1.738272515e-28
2.659224035e-28
3.901930733e-28
5.29147733e-28
6.343152314e-28
7.687960733e-29
1.036245917e-28
1.541438686e-28
2.430354085e-28
3.918583264e-28
6.240241059e-28
9.466369951e-28
1.315096967e-27
1.597741893e-27
1.594619247e-28
2.215980216e-28
3.43192507e-28
5.654973687e-28
9.50994303e-28
1.569868968e-27
2.448392065e-27
3.466475148e-27
4.254376257e-27
3.55638486e-28
5.1064887e-28
8.23250866e-28
1.412353046e-27
2.460645854e-27
4.176966378e-27
6.646894447e-27
9.534126811e-27
1.177923766e-26
8.544743962e-28
1.264526624e-27
2.110172218e-27
3.737875632e-27
6.683476411e-27
1.156362004e-26
1.863902566e-26
2.694292594e-26
3.340881157e-26
2.192917022e-27
3.324751522e-27
5.693719175e-27
1.031370756e-26
1.875453785e-26
3.282063037e-26
5.326901716e-26
7.727455944e-26
9.593593831e-26
5.92147487e-27
9.13288645e-27
1.591292314e-26
2.922749902e-26
5.365390494e-26
9.441243255e-26
1.536035674e-25
2.228926882e-25
2.765109943e-25
1.655435962e-26
2.581149882e-26
4.543623723e-26
8.406872585e-26
1.549477811e-25
2.72956639e-25
4.436200816e-25
6.422430727e-25
7.947697525e-25
4.726360217e-26
7.414292815e-26
1.311735222e-25
2.43335754e-25
4.484796252e-25
7.88249605e-25
1.276150442e-24
1.839029201e-24
2.266506338e-24
1.363982681e-25
2.145338685e-25
3.800405105e-25
7.043554538e-25
1.294047222e-24
2.262907133e-24
3.640339748e-24
5.210725103e-24
6.385763545e-24
3.949612352e-25
6.212943534e-25
1.098922703e-24
2.029200907e-24
3.706403937e-24
6.432393403e-24
1.025814149e-23
1.455466239e-23
1.770950221e-23
1.141392395e-24
1.792206542e-24
3.157890808e-24
5.795718052e-24
1.049911392e-23
1.804026514e-23
2.845691734e-23
3.994420564e-23
4.818878632e-23
3.278424997e-24
5.129804305e-24
8.985751541e-24
1.635463263e-23
2.931542772e-23
4.975836381e-23
7.747256987e-23
1.073965978e-22
1.283147569e-22
9.327845046e-24
1.452141581e-23
2.523716353e-23
4.545148678e-23
8.043333636e-23
1.345718892e-22
2.064264263e-22
2.822144179e-22
3.3368519e-22
2.621311427e-23
4.053579043e-23
6.975476568e-23
1.240385273e-22
2.162448097e-22
3.559445045e-22
5.371305271e-22
7.235753442e-22
8.465130952e-22
7.257196191e-23
1.112885837e-22
1.892336932e-22
3.315368386e-22
5.682924526e-22
9.188683013e-22
1.362797974e-21
1.80863546e-21
2.094783427e-21
1.975135612e-22
2.998305784e-22
5.027346919e-22
8.660600791e-22
1.457193406e-21
2.312016845e-21
3.369508346e-21
4.409119925e-21
5.063966634e-21
5.276006589e-22
7.91400147e-22
1.30585697e-21
2.207986683e-21
3.642175936e-21
5.668766747e-21
8.125729794e-21
1.05094462e-20
1.201342329e-20
1.38209583e-21
2.04486514e-21
3.314258157e-21
5.492280823e-21
8.877373484e-21
1.356710306e-20
1.919067045e-20
2.469597129e-20
2.836455614e-20
3.551541756e-21
5.17457233e-21
8.225578668e-21
1.335093467e-20
2.116880229e-20
3.191144661e-20
4.50331843e-20
5.889653225e-20
6.999440689e-20
8.968181692e-21
1.285305356e-20
2.002962955e-20
3.189527239e-20
4.994137056e-20
7.558194347e-20
1.106210661e-19
1.573844281e-19
2.095526146e-19
2.233681418e-20
3.15004119e-20
4.826597463e-20
7.616692949e-20
1.210131095e-19
1.956252287e-19
3.317064184e-19
5.862094346e-19
9.537267767e-19
5.524437079e-20
7.703136441e-20
1.17736696e-19
1.913066646e-19
3.361087923e-19
6.685163032e-19
1.499092242e-18
3.390611855e-18
6.380394968e-18
1.374337038e-19
1.929861269e-19
3.087188475e-19
5.726850016e-19
1.289862337e-18
3.44573709e-18
9.659874049e-18
2.457769675e-17
4.84627954e-17
3.539679915e-19
5.276291284e-19
9.847736843e-19
2.380799332e-18
7.095347063e-18
2.277594511e-17
6.930522977e-17
1.811830081e-16
3.591165048e-16
1.00873485e-18
1.764898586e-18
4.273613601e-18
1.330815746e-17
4.600862352e-17
1.560954947e-16
4.798519972e-16
1.24489255e-15
2.440138843e-15
3.557302793e-18
7.850567681e-18
2.369579023e-17
8.318209998e-17
2.980117724e-16
1.007828095e-15
3.040147194e-15
7.707660314e-15
1.481698871e-14
1.660141241e-17
4.333879291e-17
1.431373049e-16
5.115625475e-16
1.803568984e-15
5.918394319e-15
1.725146591e-14
4.23319925e-14
7.939689116e-14
9.473067192e-17
2.585946667e-16
8.508503106e-16
2.946093679e-15
9.94738009e-15
3.114434255e-14
8.665317884e-14
2.03769933e-13
3.699344231e-13
5.798174572e-16
1.529289605e-15
4.775935071e-15
1.558576175e-14
4.949009154e-14
1.457261685e-13
3.816600529e-13
8.475407514e-13
1.4691752e-12
3.508725473e-15
8.601935805e-15
2.486126372e-14
7.51221098e-14
2.210787545e-13
6.029386404e-13
1.460007194e-12
2.9981823e-12
4.860138537e-12
2.005327992e-14
4.50177755e-14
1.187908797e-13
3.282376092e-13
8.829330618e-13
2.192844439e-12
4.807665272e-12
8.912345714e-12
1.32178641e-11
1.053712869e-13
2.158415876e-13
5.161749146e-13
1.290425709e-12
3.128765505e-12
6.954799395e-12
1.354565687e-11
2.232932754e-11
3.01752441e-11
4.995099467e-13
9.33779944e-13
2.012895553e-12
4.507319527e-12
9.718571005e-12
1.906710544e-11
3.276370586e-11
4.849584553e-11
6.111965885e-11
2.094145574e-12
3.57628621e-12
6.918075254e-12
1.375522911e-11
2.613696318e-11
4.520222046e-11
6.96619763e-11
9.555232554e-11
1.155557913e-10
7.587200618e-12
1.185517235e-11
2.053769466e-11
3.61739233e-11
6.089174262e-11
9.483967091e-11
1.356222177e-10
1.776464393e-10
2.096238603e-10
2.321115652e-11
3.334160266e-11
5.205125202e-11
8.231630991e-11
1.260727401e-10
1.832354818e-10
2.50567744e-10
3.191621731e-10
3.706789341e-10
5.932863044e-11
7.9405527e-11
1.141173514e-10
1.671305126e-10
2.412995316e-10
3.369521277e-10
4.488818364e-10
5.621630942e-10
6.466105381e-10
1.292803736e-10
1.648927794e-10
2.248708511e-10
3.149374526e-10
4.400701311e-10
6.010538371e-10
7.893505487e-10
9.801138085e-10
1.122171192e-09
2.513568554e-10
3.120904893e-10
4.137344761e-10
5.659402307e-10
7.774394353e-10
1.050586944e-09
1.372333483e-09
1.700965192e-09
1.947377153e-09
4.54205513e-10
5.563445655e-10
7.271801766e-10
9.834095785e-10
1.341659734e-09
1.808889978e-09
2.366421351e-09
2.944460917e-09
3.384145624e-09
7.808141377e-10
9.504569276e-10
1.235033257e-09
1.664647279e-09
2.271312543e-09
3.073569453e-09
4.047674895e-09
5.077594112e-09
5.876168658e-09
1.292741119e-09
1.571290292e-09
2.040913587e-09
2.755917704e-09
3.77807289e-09
5.151755241e-09
6.852216984e-09
8.688315545e-09
1.014133154e-08
2.079138775e-09
2.530536571e-09
3.296190147e-09
4.472927138e-09
6.177041396e-09
8.504431946e-09
1.14391413e-08
1.467003195e-08
1.727491634e-08
3.270675235e-09
3.991790901e-09
5.222311852e-09
7.130466282e-09
9.926302278e-09
1.379831548e-08
1.875610736e-08
2.430056741e-08
2.883891455e-08
5.065838641e-09
6.200667248e-09
8.146685392e-09
1.118565669e-08
1.56779681e-08
2.196288968e-08
3.009767109e-08
3.929563913e-08
4.690813811e-08
7.775795096e-09
9.53406335e-09
1.255784743e-08
1.729897815e-08
2.434211964e-08
3.425014169e-08
4.714988173e-08
6.182823515e-08
7.406585362e-08
1.18926814e-08
1.457246395e-08
1.918210463e-08
2.641286649e-08
3.716100071e-08
5.229390502e-08
7.202413325e-08
9.453815581e-08
1.134254625e-07
1.817981598e-08
2.219193293e-08
2.907566311e-08
3.983912684e-08
5.578343997e-08
7.816224562e-08
1.072889498e-07
1.405845585e-07
1.686764913e-07
2.777272266e-08
3.366272385e-08
4.371698064e-08
5.933887621e-08
8.232580691e-08
1.143986656e-07
1.560013535e-07
2.03428452e-07
2.432269985e-07
4.227239352e-08
5.073573912e-08
6.508211572e-08
8.718346183e-08
1.194259903e-07
1.640934986e-07
2.214922803e-07
2.862187887e-07
3.40289634e-07
6.381610798e-08
7.570671399e-08
9.570422138e-08
1.262113737e-07
1.703363529e-07
2.305507496e-07
3.067485846e-07
3.916499211e-07
4.620503655e-07
9.514429257e-08
1.114887108e-07
1.388006637e-07
1.79964652e-07
2.383994419e-07
3.168021214e-07
4.144672177e-07
5.218496033e-07
6.100817267e-07
1.397900188e-07
1.617833548e-07
1.98011466e-07
2.517408856e-07
3.266719766e-07
4.255263245e-07
5.466978992e-07
6.779643882e-07
7.846765201e-07
2.015143186e-07
2.301581284e-07
2.767516513e-07
3.447649461e-07
4.380799666e-07
5.589531427e-07
7.045532498e-07
8.598689485e-07
9.846474902e-07
2.839316475e-07
3.201339441e-07
3.783194318e-07
4.619661234e-07
5.747484438e-07
7.181626616e-07
8.878155283e-07
1.065913272e-06
1.207179041e-06
3.904707435e-07
4.348860429e-07
5.054111738e-07
6.053653015e-07
7.377375573e-07
9.029795517e-07
1.094735455e-06
1.292797884e-06
1.447797406e-06
5.239654289e-07
5.768909111e-07
6.599848798e-07
7.758602566e-07
9.266636086e-07
1.111396863e-06
1.321834508e-06
1.535556273e-06
1.700467891e-06
6.861714361e-07
7.47363225e-07
8.423459825e-07
9.728423996e-07
1.139589964e-06
1.339930014e-06
1.564003324e-06
1.787701966e-06
1.957819402e-06
8.773569625e-07
9.459507317e-07
1.051209086e-06
1.193652725e-06
1.3724533e-06
1.583211919e-06
1.814510147e-06
2.041385922e-06
2.211345241e-06
1.095912102e-06
1.170382613e-06
1.283352654e-06
1.43392445e-06
1.619570708e-06
1.834178429e-06
2.065087166e-06
2.287348869e-06
2.45100754e-06
1.338029356e-06
1.416193377e-06
1.533389251e-06
1.687178243e-06
1.873292655e-06
2.084003929e-06
2.305691884e-06
2.514018153e-06
2.662517208e-06
1.597497849e-06
1.676567235e-06
1.793674183e-06
1.944807891e-06
2.123989358e-06
2.321882643e-06
2.523902248e-06
2.709066761e-06
2.840525744e-06
1.865567355e-06
1.942217311e-06
2.054157186e-06
2.195795946e-06
2.359553752e-06
2.534514598e-06
2.710612147e-06
2.870540107e-06
2.983002914e-06
2.130522553e-06
2.200868714e-06
2.301543401e-06
2.425363226e-06
2.566023896e-06
2.715007033e-06
2.862418412e-06
2.994197333e-06
3.085748979e-06
2.375755723e-06
2.435575509e-06
2.520478718e-06
2.624065064e-06
2.7394488e-06
2.859077005e-06
2.974786365e-06
3.076211049e-06
3.145750844e-06
2.590554818e-06
2.638801141e-06
2.706239046e-06
2.786806047e-06
2.874079015e-06
2.961773259e-06
3.043994315e-06
3.114258971e-06
3.161758025e-06
2.768628087e-06
2.803872596e-06
2.851938508e-06
2.907380338e-06
2.96477642e-06
3.019493766e-06
3.068137371e-06
3.108005754e-06
3.134504112e-06
2.902523751e-06
2.923830122e-06
2.951470059e-06
2.980984942e-06
3.00834118e-06
3.030808452e-06
3.047510499e-06
3.05919829e-06
3.066652788e-06
2.986446829e-06
2.993678002e-06
3.001017077e-06
3.005293347e-06
3.0041068e-06
2.996716912e-06
2.984609544e-06
2.971496344e-06
2.962543401e-06
3.017510217e-06
3.011372093e-06
2.999713121e-06
2.980828151e-06
2.954043432e-06
2.920538456e-06
2.883868272e-06
2.850118618e-06
2.827800414e-06
2.996160924e-06
2.978096305e-06
2.949731697e-06
2.910867786e-06
2.86250351e-06
2.807538458e-06
2.751214428e-06
2.701373648e-06
2.668867783e-06
2.926041525e-06
2.898035193e-06
2.85595179e-06
2.801011902e-06
2.735712507e-06
2.664382031e-06
2.593524531e-06
2.532143638e-06
2.492527201e-06
2.813438661e-06
2.77778246e-06
2.7253253e-06
2.658522978e-06
2.581110937e-06
2.498504776e-06
2.418049361e-06
2.34937669e-06
2.305444703e-06
2.666466327e-06
2.625524679e-06
2.566073467e-06
2.491556455e-06
2.40664418e-06
2.31748904e-06
2.231887495e-06
2.159651882e-06
2.113798922e-06
2.494148168e-06
2.450161648e-06
2.386867962e-06
2.308424969e-06
2.220127133e-06
2.128534294e-06
2.041561004e-06
1.968846592e-06
1.923008757e-06
2.305561707e-06
2.260502988e-06
2.196104211e-06
2.116967876e-06
2.028722285e-06
1.938048074e-06
1.852710351e-06
1.781915325e-06
1.737563656e-06
2.109131532e-06
2.064621226e-06
2.001338131e-06
1.924087032e-06
1.838580151e-06
1.751386489e-06
1.669921724e-06
1.602783128e-06
1.560955339e-06
1.912138893e-06
1.869415959e-06
1.808924225e-06
1.735469004e-06
1.654646349e-06
1.572738469e-06
1.496674432e-06
1.43433806e-06
1.395694556e-06
1.720455822e-06
1.680390598e-06
1.623848557e-06
1.55547972e-06
1.48061561e-06
1.40513067e-06
1.335384458e-06
1.278499705e-06
1.243391315e-06
1.538475661e-06
1.501611248e-06
1.44972385e-06
1.387197462e-06
1.318998862e-06
1.250521052e-06
1.187515238e-06
1.136338298e-06
1.104875881e-06
1.369191993e-06
1.335800546e-06
1.288901335e-06
1.232541776e-06
1.171265023e-06
1.109947657e-06
1.053727378e-06
1.008220741e-06
9.803398255e-07
1.21437278e-06
1.184516003e-06
1.142652872e-06
1.092456984e-06
1.038022229e-06
9.837030588e-07
9.340428785e-07
8.939636343e-07
8.694804288e-07
1.074781994e-06
1.048368571e-06
1.011383804e-06
9.671159068e-07
9.192087591e-07
8.715106218e-07
8.280059677e-07
7.929795238e-07
7.716364434e-07
9.504110059e-07
9.272464108e-07
8.948453718e-07
8.561179031e-07
8.142747759e-07
7.726881588e-07
7.34828666e-07
7.044066992e-07
6.85907518e-07
8.406947429e-07
8.205218786e-07
7.923286237e-07
7.586665946e-07
7.223417672e-07
6.862887776e-07
6.535141799e-07
6.272179926e-07
6.11253615e-07
7.44698698e-07
7.272291609e-07
7.0282888e-07
6.73718567e-07
6.423342168e-07
6.112155943e-07
5.829561044e-07
5.603073403e-07
5.465736553e-07
6.612707632e-07
6.462076114e-07
6.251772997e-07
6.001010619e-07
5.730825707e-07
5.46310324e-07
5.220141181e-07
5.025551793e-07
4.907645957e-07
5.891578856e-07
5.76211266e-07
5.581405939e-07
5.36600272e-07
5.13399568e-07
4.904181007e-07
4.695686406e-07
4.528751254e-07
4.427633036e-07
5.270909584e-07
5.15988075e-07
5.004925417e-07
4.820239472e-07
4.621336074e-07
4.424320664e-07
4.245577792e-07
4.102450171e-07
4.015741093e-07
4.738429921e-07
4.643338041e-07
4.510621021e-07
4.352428717e-07
4.182034136e-07
4.013216395e-07
3.860001057e-07
3.73725518e-07
3.662849908e-07
4.282660156e-07
4.201258567e-07
4.087630862e-07
3.952158184e-07
3.806181939e-07
3.661482232e-07
3.530066032e-07
3.424692632e-07
3.360751353e-07
3.893118317e-07
3.823419152e-07
3.726099638e-07
3.610021612e-07
3.484870418e-07
3.360716779e-07
3.247847116e-07
3.157231407e-07
3.102162571e-07
3.560410629e-07
3.500676117e-07
3.417237084e-07
3.31765686e-07
3.210207385e-07
3.103503286e-07
3.006368915e-07
2.928258506e-07
2.880696399e-07
3.276241012e-07
3.224966518e-07
3.15330836e-07
3.067724452e-07
2.975284699e-07
2.883367047e-07
2.799556226e-07
2.73202431e-07
2.690804507e-07
3.033367761e-07
2.989260461e-07
2.927580787e-07
2.853848464e-07
2.774113861e-07
2.694706897e-07
2.622162917e-07
2.563570301e-07
2.527705033e-07
2.825528455e-07
2.787484319e-07
2.734245061e-07
2.670535937e-07
2.601544249e-07
2.532713099e-07
2.469690328e-07
2.418648586e-07
2.387303268e-07
2.647348233e-07
2.614429059e-07
2.568323928e-07
2.513086373e-07
2.453174027e-07
2.393280265e-07
2.338302621e-07
2.293639733e-07
2.266111358e-07
2.494241932e-07
2.465653521e-07
2.425577226e-07
2.377499177e-07
2.325260555e-07
2.27292113e-07
2.224744046e-07
2.185473228e-07
2.16117096e-07
2.362317017e-07
2.337389088e-07
2.302409119e-07
2.260384145e-07
2.214634644e-07
2.168684852e-07
2.126261212e-07
2.091553197e-07
2.069981259e-07
2.248281603e-07
2.226449741e-07
2.195781071e-07
2.158878063e-07
2.118621242e-07
2.07808193e-07
2.040532066e-07
2.009690848e-07
1.990433644e-07
2.149360034e-07
2.130149747e-07
2.10313253e-07
2.070569038e-07
2.034967809e-07
1.99901675e-07
1.965602374e-07
1.938044222e-07
1.920753537e-07
2.063217088e-07
2.046229905e-07
2.022310063e-07
1.993429157e-07
1.961780857e-07
1.929728043e-07
1.899829806e-07
1.875065281e-07
1.859449361e-07
1.987891127e-07
1.972792613e-07
1.951505135e-07
1.925755513e-07
1.897470506e-07
1.868736993e-07
1.841835341e-07
1.819453999e-07
1.80526831e-07
1.921735981e-07
1.908245494e-07
1.889200151e-07
1.866119156e-07
1.840702602e-07
1.814802524e-07
1.790461461e-07
1.770118924e-07
1.757158355e-07
1.863370879e-07
1.851252855e-07
1.834122074e-07
1.813321294e-07
1.790357719e-07
1.766883093e-07
1.744736483e-07
1.726143554e-07
1.714235887e-07
1.811637685e-07
1.800694282e-07
1.785202907e-07
1.766356031e-07
1.74549632e-07
1.724104253e-07
1.703844319e-07
1.68675786e-07
1.675758298e-07
1.76556464e-07
1.755629542e-07
1.741546231e-07
1.724378843e-07
1.705329318e-07
1.685731285e-07
1.667098965e-07
1.651314272e-07
1.641100882e-07
1.724335766e-07
1.715268999e-07
1.702399003e-07
1.686680028e-07
1.669193316e-07
1.651146185e-07
1.633923092e-07
1.619267528e-07
1.609737445e-07
1.687265177e-07
1.678948759e-07
1.667127894e-07
1.652662457e-07
1.636529851e-07
1.619828399e-07
1.603830103e-07
1.590157803e-07
1.581224072e-07
1.653775559e-07
1.646109883e-07
1.63519949e-07
1.621822954e-07
1.606868048e-07
1.591338723e-07
1.576409163e-07
1.563596627e-07
1.555185578e-07
1.623380208e-07
1.616281016e-07
1.606163772e-07
1.593736771e-07
1.579810158e-07
1.565305882e-07
1.551312718e-07
1.539255138e-07
1.531304212e-07
1.595668052e-07
1.589063922e-07
1.579640341e-07
1.568044646e-07
1.555019508e-07
1.541415355e-07
1.528246095e-07
1.516854315e-07
1.509310249e-07
1.570291183e-07
1.564121436e-07
1.555306967e-07
1.544442044e-07
1.532210478e-07
1.519400078e-07
1.506958862e-07
1.496156842e-07
1.488974167e-07
1.546954493e-07
1.54116745e-07
1.532890054e-07
1.522670204e-07
1.511140166e-07
1.499032714e-07
1.487237637e-07
1.476960344e-07
1.470100137e-07
1.525407049e-07
1.519958582e-07
1.512156722e-07
1.502508695e-07
1.49160146e-07
1.480119223e-07
1.468900109e-07
1.459091766e-07
1.452520606e-07
1.50543493e-07
1.500287257e-07
1.49290822e-07
1.483769235e-07
1.473417275e-07
1.462493524e-07
1.451790066e-07
1.442402692e-07
1.436091795e-07
1.48685527e-07
1.481975946e-07
1.474974448e-07
1.466290538e-07
1.456435764e-07
1.44601304e-07
1.43577326e-07
1.42676545e-07
1.420689949e-07
1.469511302e-07
1.464872384e-07
1.458209407e-07
1.449934042e-07
1.440526328e-07
1.430555002e-07
1.420733956e-07
1.412069867e-07
1.406208208e-07
1.45326823e-07
1.448845581e-07
1.442487401e-07
1.434580336e-07
1.425576292e-07
1.416013364e-07
1.406572066e-07
1.398220567e-07
1.392554007e-07
1.438009799e-07
1.433782499e-07
1.427699875e-07
1.420126194e-07
1.411488139e-07
1.402296228e-07
1.393200747e-07
1.385134712e-07
1.379646893e-07
1.423635425e-07
1.419585286e-07
1.413752783e-07
1.406482089e-07
1.398177195e-07
1.389323697e-07
1.380544405e-07
1.372740113e-07
1.367416712e-07
1.410057806e-07
1.406168962e-07
1.40056438e-07
1.393570126e-07
1.385569693e-07
1.377026077e-07
1.368537012e-07
1.360973652e-07
1.355802083e-07
1.397200918e-07
1.393459484e-07
1.388063384e-07
1.381322306e-07
1.373601161e-07
1.365342371e-07
1.357120707e-07
1.349779954e-07
1.344749121e-07
1.384998343e-07
1.381392126e-07
1.376187427e-07
1.36967907e-07
1.362215056e-07
1.354219017e-07
1.346244616e-07
1.339110278e-07
1.33421036e-07
1.373391864e-07
1.36991012e-07
1.364881765e-07
1.35858808e-07
1.351361632e-07
1.343608824e-07
1.335863856e-07
1.32892158e-07
1.324143856e-07
1.362330283e-07
1.358963513e-07
1.354098184e-07
1.348003194e-07
1.340996973e-07
1.33347008e-07
1.325938705e-07
1.319175718e-07
1.314512415e-07
1.351768428e-07
1.348508208e-07
1.343794081e-07
1.337883596e-07
1.331082187e-07
1.323765792e-07
1.31643389e-07
1.309838788e-07
1.305282955e-07
1.341666316e-07
1.338505146e-07
1.333931697e-07
1.328193068e-07
1.321582716e-07
1.314463051e-07
1.307317993e-07
1.300880558e-07
1.296425956e-07
1.33198844e-07
1.328919627e-07
1.324477449e-07
1.318899369e-07
1.312467764e-07
1.305532488e-07
1.298562937e-07
1.292273985e-07
1.287914994e-07
1.322703175e-07
1.31972072e-07
1.315401383e-07
1.309973706e-07
1.303709794e-07
1.296947812e-07
1.290143559e-07
1.283994806e-07
1.279726348e-07
1.31378226e-07
1.310880773e-07
1.306676697e-07
1.301390293e-07
1.295284114e-07
1.288685416e-07
1.282037241e-07
1.276021186e-07
1.271838658e-07
1.305200368e-07
1.30237499e-07
1.298279338e-07
1.293125965e-07
1.287168517e-07
1.280724046e-07
1.274223588e-07
1.268333425e-07
1.264232635e-07
1.296934734e-07
1.294181071e-07
1.290187654e-07
1.285159848e-07
1.279342972e-07
1.273044504e-07
1.266684164e-07
1.260913689e-07
1.256890814e-07
1.288964833e-07
1.2862789e-07
1.282382105e-07
1.277473085e-07
1.271789361e-07
1.265629408e-07
1.259402254e-07
1.253745801e-07
1.249797338e-07
1.281272114e-07
1.278650286e-07
1.274845002e-07
1.270048591e-07
1.264491251e-07
1.258462975e-07
1.252362666e-07
1.246815039e-07
1.242937771e-07
1.27383976e-07
1.271278729e-07
1.267560289e-07
1.262870845e-07
1.257433699e-07
1.251530836e-07
1.245551552e-07
1.240107977e-07
1.236298939e-07
1.266652484e-07
1.264149225e-07
1.260513359e-07
1.25592571e-07
1.250603079e-07
1.244819876e-07
1.238956263e-07
1.233612337e-07
1.22986879e-07
1.259696358e-07
1.257248094e-07
1.253690882e-07
1.249200278e-07
1.243986938e-07
1.238318094e-07
1.232565213e-07
1.227316863e-07
1.223636267e-07
1.252958654e-07
1.250562833e-07
1.247080666e-07
1.242682731e-07
1.237573866e-07
1.232014485e-07
1.226367764e-07
1.221211215e-07
1.217591211e-07
1.246427717e-07
1.244081984e-07
1.240671532e-07
1.236362224e-07
1.231353379e-07
1.225898928e-07
1.220354127e-07
1.21528587e-07
1.211724258e-07
1.240092844e-07
1.237795023e-07
1.234453205e-07
1.23022878e-07
1.225315827e-07
1.219962098e-07
1.214515273e-07
1.209532037e-07
1.206026762e-07
1.233944182e-07
1.231692255e-07
1.228416216e-07
1.224273201e-07
1.219452301e-07
1.214195378e-07
1.208842853e-07
1.203941583e-07
1.200490722e-07
1.227972639e-07
1.225764732e-07
1.222551816e-07
1.21848698e-07
1.21375456e-07
1.20859079e-07
1.203329131e-07
1.198506967e-07
1.195108715e-07
1.2221698e-07
1.220004168e-07
1.216851902e-07
1.212862231e-07
1.208214957e-07
1.203140926e-07
1.197966918e-07
1.193221179e-07
1.189873838e-07
1.216527855e-07
1.21440287e-07
1.211308944e-07
1.207391624e-07
1.202826376e-07
1.197838889e-07
1.192749518e-07
1.188077684e-07
1.184779658e-07
1.211039529e-07
1.208953668e-07
1.205915922e-07
1.202068318e-07
1.197582174e-07
1.192678233e-07
1.18767067e-07
1.183070374e-07
1.179820159e-07
1.205698014e-07
1.203649852e-07
1.20066626e-07
1.1968859e-07
1.192476119e-07
1.187652912e-07
1.182724497e-07
1.178193512e-07
1.174989695e-07
1.200496908e-07
1.198485104e-07
1.195553766e-07
1.191838328e-07
1.187502333e-07
1.182757214e-07
1.177905449e-07
1.173441684e-07
1.170282934e-07
1.19543014e-07
1.193453432e-07
1.190572556e-07
1.186919856e-07
1.182655221e-07
1.177985703e-07
1.173208241e-07
1.168809733e-07
1.165694808e-07
1.190491893e-07
1.18854909e-07
1.185716984e-07
1.182124958e-07
1.177929399e-07
1.17333314e-07
1.168627778e-07
1.164292691e-07
1.161220434e-07
1.185676515e-07
1.183766486e-07
1.180981546e-07
1.177448239e-07
1.173319592e-07
1.168794386e-07
1.164159056e-07
1.159885681e-07
1.156855024e-07
1.180978407e-07
1.17910007e-07
1.176360762e-07
1.172884309e-07
1.16882052e-07
1.164364281e-07
1.159797043e-07
1.155583795e-07
1.152593761e-07
1.176391882e-07
1.174544189e-07
1.171849032e-07
1.168427638e-07
1.164426735e-07
1.160037475e-07
1.155536503e-07
1.151381913e-07
1.148431624e-07
1.171910989e-07
1.170092909e-07
1.167440448e-07
1.164072353e-07
1.160132415e-07
1.155808215e-07
1.151371772e-07
1.147274478e-07
1.144363147e-07
1.167529288e-07
1.165739782e-07
1.163128549e-07
1.159811983e-07
1.15593109e-07
1.151670052e-07
1.14729645e-07
1.143255169e-07
1.140382093e-07
1.163239567e-07
1.161477546e-07
1.158906009e-07
1.155639131e-07
1.151815293e-07
1.147615466e-07
1.143303003e-07
1.139316482e-07
1.136481017e-07
1.15903348e-07
1.157297761e-07
1.154764252e-07
1.151545054e-07
1.147776107e-07
1.143635384e-07
1.13938224e-07
1.135449175e-07
1.132650694e-07
1.154901106e-07
1.153190343e-07
1.150692957e-07
1.147519145e-07
1.143802608e-07
1.139718568e-07
1.135522658e-07
1.13164157e-07
1.128879378e-07
1.150830411e-07
1.149143004e-07
1.146679474e-07
1.143548296e-07
1.139881174e-07
1.135850871e-07
1.131709633e-07
1.127878682e-07
1.125151902e-07
1.146806604e-07
1.145140585e-07
1.142708105e-07
1.139616137e-07
1.135994664e-07
1.132014342e-07
1.127924448e-07
1.124141171e-07
1.121448564e-07
1.142811385e-07
1.141164275e-07
1.138759289e-07
1.13570215e-07
1.132121456e-07
1.128186179e-07
1.124143149e-07
1.120404114e-07
1.11774384e-07
1.138822086e-07
1.137190712e-07
1.134808646e-07
1.131780657e-07
1.12823435e-07
1.124337537e-07
1.120335258e-07
1.116635607e-07
1.114004904e-07
1.13481071e-07
1.13319099e-07
1.130825932e-07
1.127819695e-07
1.124299361e-07
1.120432214e-07
1.116462337e-07
1.112795225e-07
1.110190007e-07
1.13074288e-07
1.129129576e-07
1.126773898e-07
1.123779808e-07
1.120274416e-07
1.116425244e-07
1.112476469e-07
1.108832381e-07
1.106246743e-07
1.126576738e-07
1.124963162e-07
1.122607097e-07
1.119612778e-07
1.116107998e-07
1.112261444e-07
1.108318688e-07
1.104684651e-07
1.10211029e-07
1.122261799e-07
1.120639503e-07
1.118270665e-07
1.115260346e-07
1.111737795e-07
1.107873969e-07
1.103917445e-07
1.100276129e-07
1.097701687e-07
1.117737833e-07
1.116096259e-07
1.113699135e-07
1.110652988e-07
1.107089413e-07
1.103182956e-07
1.099187167e-07
1.095515921e-07
1.092926265e-07
1.112933797e-07
1.111259927e-07
1.108815342e-07
1.105708778e-07
1.102075213e-07
1.098094332e-07
1.094027024e-07
1.090296861e-07
1.087672331e-07
1.107766894e-07
1.106044886e-07
1.103529474e-07
1.100332445e-07
1.096593361e-07
1.092498853e-07
1.088319979e-07
1.084494565e-07
1.081810219e-07
1.102141794e-07
1.100352645e-07
1.097738331e-07
1.094414668e-07
1.090527165e-07
1.086271498e-07
1.081932225e-07
1.077966926e-07
1.075191823e-07
1.095950098e-07
1.094071326e-07
1.09132487e-07
1.087831677e-07
1.083744767e-07
1.079271264e-07
1.074713107e-07
1.070554148e-07
1.067650729e-07
1.089070089e-07
1.087075475e-07
1.084158085e-07
1.080445252e-07
1.076099272e-07
1.071341461e-07
1.066495598e-07
1.062079419e-07
1.059003033e-07
1.081366828e-07
1.079226227e-07
1.076093288e-07
1.072103147e-07
1.067429371e-07
1.062310564e-07
1.057097422e-07
1.052350302e-07
1.049048935e-07
1.072692651e-07
1.070371895e-07
1.066972841e-07
1.062640024e-07
1.057560521e-07
1.051993699e-07
1.04632288e-07
1.041160911e-07
1.037575198e-07
1.062888095e-07
1.060349023e-07
1.056627388e-07
1.051878928e-07
1.046306735e-07
1.040194814e-07
1.03396545e-07
1.028294952e-07
1.024358527e-07
1.051783323e-07
1.04898394e-07
1.044877633e-07
1.039633364e-07
1.033473042e-07
1.026709592e-07
1.019811224e-07
1.013529694e-07
1.00916995e-07
1.039200069e-07
1.036094883e-07
1.031536718e-07
1.025710031e-07
1.018858666e-07
1.011329183e-07
1.003643261e-07
9.966409414e-08
9.917802757e-08
1.024954163e-07
1.021494722e-07
1.016413255e-07
1.00991227e-07
1.002261018e-07
9.938448356e-08
9.852469405e-08
9.774091197e-08
9.719667253e-08
1.008858722e-07
1.004994376e-07