/*--------------------------------*- C++ -*----------------------------------*\
| =========                 |                                                 |
| \\      /  F ield         | OpenFOAM: The Open Source CFD Toolbox           |
|  \\    /   O peration     | Version:  2212                                  |
|   \\  /    A nd           | Website:  www.openfoam.com                      |
|    \\/     M anipulation  |                                                 |
\*---------------------------------------------------------------------------*/
FoamFile
{
    version     2.0;
    format      ascii;
    arch        "LSB;label=32;scalar=64";
    class       volScalarField;
    location    "30.00000000";
    object      AC3H5;
}
// * * * * * * * * * * * * * * * * * * * * * * * * * * * * * * * * * * * * * //

dimensions      [0 0 0 0 0 0 0];

internalField   nonuniform List<scalar> 
3000
(
2.999962178e-35
3.362746685e-35
3.906909162e-35
4.624367924e-35
5.496675492e-35
6.476570036e-35
7.45381734e-35
8.202636743e-35
8.375536072e-35
1.113088691e-34
1.250237202e-34
1.454466375e-34
1.721400613e-34
2.043547086e-34
2.406542063e-34
2.782916555e-34
3.121909882e-34
3.329917434e-34
2.455810167e-34
2.774435371e-34
3.251175936e-34
3.880920596e-34
4.655731653e-34
5.557486861e-34
6.540726676e-34
7.499162823e-34
8.167638732e-34
4.599628976e-34
5.242159349e-34
6.215728106e-34
7.527419433e-34
9.184849726e-34
1.117557431e-33
1.341864587e-33
1.565849888e-33
1.722965815e-33
8.026211234e-34
9.248792748e-34
1.112998401e-33
1.371631846e-33
1.705866882e-33
2.115663415e-33
2.582907948e-33
3.04636976e-33
3.364822207e-33
1.356127377e-33
1.581552186e-33
1.933590981e-33
2.425950279e-33
3.072584062e-33
3.874051873e-33
4.788620539e-33
5.684225082e-33
6.28987947e-33
2.262643054e-33
2.670437322e-33
3.315262706e-33
4.228901561e-33
5.44138282e-33
6.95109912e-33
8.667924139e-33
1.033100813e-32
1.145797216e-32
3.764854952e-33
4.492720691e-33
5.655028882e-33
7.31742851e-33
9.537999486e-33
1.230723561e-32
1.544341897e-32
1.845745405e-32
2.050791532e-32
6.277850758e-33
7.564418705e-33
9.634221272e-33
1.261423278e-32
1.661087157e-32
2.159624776e-32
2.722278832e-32
3.260290357e-32
3.628279421e-32
1.051119287e-32
1.276864831e-32
1.642046065e-32
2.170268334e-32
2.880507876e-32
3.766329667e-32
4.763636437e-32
5.71451754e-32
6.368839125e-32
1.767929644e-32
2.161847819e-32
2.80165194e-32
3.730126665e-32
4.980606502e-32
6.539884649e-32
8.292651993e-32
9.96165507e-32
1.111759199e-31
2.986257323e-32
3.670837374e-32
4.786016488e-32
6.408037215e-32
8.594848124e-32
1.132083473e-31
1.438181732e-31
1.729599429e-31
1.932944655e-31
5.063025708e-32
6.249495028e-32
8.186538319e-32
1.100857308e-31
1.481538863e-31
1.955766219e-31
2.487535752e-31
2.993906379e-31
3.351617513e-31
8.611538618e-32
1.066497089e-31
1.402389477e-31
1.892485498e-31
2.553945435e-31
3.376966768e-31
4.296415516e-31
5.16793858e-31
5.806001079e-31
1.468680493e-31
1.823976164e-31
2.406411705e-31
3.258169962e-31
4.409964477e-31
5.843366796e-31
7.432427364e-31
8.867169815e-31
1.008586203e-30
2.510396586e-31
3.125217333e-31
4.135676718e-31
5.618689515e-31
7.635361599e-31
1.017265051e-30
1.306449502e-30
1.593178531e-30
1.778170133e-30
4.298850731e-31
5.362470612e-31
7.114258047e-31
9.691864756e-31
1.320620149e-30
1.763486638e-30
2.266574738e-30
2.754234403e-30
3.094644022e-30
7.374816046e-31
9.216156336e-31
1.225564258e-30
1.674069979e-30
2.287571638e-30
3.063368808e-30
3.947786502e-30
4.811025514e-30
5.416785371e-30
1.268015251e-30
1.587633297e-30
2.116840899e-30
2.901073484e-30
3.979735566e-30
5.352988505e-30
6.93105541e-30
8.487912159e-30
9.581000685e-30
2.187157702e-30
2.744940617e-30
3.672776105e-30
5.056992972e-30
6.97793553e-30
9.450534597e-30
1.232771376e-29
1.520450151e-29
1.72318082e-29
3.79101794e-30
4.77369641e-30
6.42016831e-30
8.902567369e-30
1.239593633e-29
1.696922878e-29
2.239022091e-29
2.790284826e-29
3.182161071e-29
6.62248917e-30
8.381335495e-30
1.136164665e-29
1.592882769e-29
2.24927355e-29
3.13002159e-29
4.201206668e-29
5.313292456e-29
6.115154061e-29
1.171603755e-29
1.494500056e-29
2.051047127e-29
2.92461379e-29
4.218000804e-29
6.011832391e-29
8.265520869e-29
1.066111682e-28
1.242067785e-28
2.115214986e-29
2.731284081e-29
3.819248468e-29
5.583531952e-29
8.297186997e-29
1.221270757e-28
1.731330619e-28
2.286973677e-28
2.703013708e-28
3.940943025e-29
5.181638867e-29
7.442658045e-29
1.125749709e-28
1.738272516e-28
2.659224029e-28
3.901930716e-28
5.291477304e-28
6.343152283e-28
7.687960781e-29
1.036245919e-28
1.541438686e-28
2.43035408e-28
3.918583249e-28
6.240241031e-28
9.466369908e-28
1.315096962e-27
1.597741888e-27
1.594619246e-28
2.215980208e-28
3.431925058e-28
5.654973667e-28
9.509942991e-28
1.569868962e-27
2.448392056e-27
3.466475138e-27
4.254376248e-27
3.55638485e-28
5.106488678e-28
8.232508629e-28
1.412353041e-27
2.460645846e-27
4.176966366e-27
6.646894432e-27
9.534126794e-27
1.177923765e-26
8.544743938e-28
1.26452662e-27
2.110172212e-27
3.737875622e-27
6.683476396e-27
1.156362002e-26
1.863902563e-26
2.694292591e-26
3.340881156e-26
2.192917017e-27
3.324751513e-27
5.693719165e-27
1.031370754e-26
1.875453782e-26
3.282063032e-26
5.32690171e-26
7.727455939e-26
9.593593832e-26
5.92147486e-27
9.132886431e-27
1.591292312e-26
2.922749897e-26
5.365390485e-26
9.441243241e-26
1.536035672e-25
2.228926881e-25
2.765109944e-25
1.655435959e-26
2.581149878e-26
4.543623718e-26
8.406872576e-26
1.549477808e-25
2.729566386e-25
4.436200811e-25
6.422430724e-25
7.947697528e-25
4.726360213e-26
7.414292805e-26
1.31173522e-25
2.433357538e-25
4.484796245e-25
7.88249604e-25
1.276150441e-24
1.8390292e-24
2.266506339e-24
1.363982681e-25
2.145338683e-25
3.800405101e-25
7.043554532e-25
1.29404722e-24
2.26290713e-24
3.640339745e-24
5.210725101e-24
6.385763548e-24
3.949612351e-25
6.212943526e-25
1.098922702e-24
2.029200904e-24
3.706403932e-24
6.432393394e-24
1.025814148e-23
1.455466239e-23
1.770950222e-23
1.141392395e-24
1.79220654e-24
3.157890806e-24
5.795718044e-24
1.049911391e-23
1.804026512e-23
2.845691731e-23
3.994420563e-23
4.818878635e-23
3.278424997e-24
5.129804297e-24
8.985751539e-24
1.635463261e-23
2.931542769e-23
4.975836376e-23
7.747256981e-23
1.073965978e-22
1.28314757e-22
9.327845048e-24
1.452141579e-23
2.523716353e-23
4.545148674e-23
8.043333627e-23
1.345718891e-22
2.064264261e-22
2.82214418e-22
3.336851903e-22
2.621311428e-23
4.05357904e-23
6.975476565e-23
1.240385272e-22
2.162448094e-22
3.559445041e-22
5.371305267e-22
7.235753443e-22
8.465130959e-22
7.257196191e-23
1.112885836e-22
1.892336931e-22
3.315368384e-22
5.682924519e-22
9.188683004e-22
1.362797974e-21
1.80863546e-21
2.094783429e-21
1.975135612e-22
2.998305783e-22
5.027346914e-22
8.660600785e-22
1.457193404e-21
2.312016843e-21
3.369508344e-21
4.409119926e-21
5.063966639e-21
5.276006587e-22
7.914001468e-22
1.305856969e-21
2.207986681e-21
3.642175932e-21
5.668766742e-21
8.12572979e-21
1.050944621e-20
1.20134233e-20
1.382095829e-21
2.044865139e-21
3.314258155e-21
5.492280818e-21
8.877373474e-21
1.356710304e-20
1.919067045e-20
2.46959713e-20
2.836455618e-20
3.551541756e-21
5.174572326e-21
8.225578663e-21
1.335093466e-20
2.116880227e-20
3.191144658e-20
4.503318429e-20
5.889653229e-20
6.999440703e-20
8.968181692e-21
1.285305355e-20
2.002962953e-20
3.189527236e-20
4.99413705e-20
7.558194343e-20
1.106210662e-19
1.573844284e-19
2.095526154e-19
2.233681417e-20
3.150041187e-20
4.826597458e-20
7.61669294e-20
1.210131093e-19
1.956252288e-19
3.31706419e-19
5.86209437e-19
9.537267826e-19
5.524437078e-20
7.703136432e-20
1.177366959e-19
1.913066644e-19
3.361087921e-19
6.685163043e-19
1.499092248e-18
3.390611876e-18
6.380395019e-18
1.374337037e-19
1.929861266e-19
3.087188471e-19
5.726850015e-19
1.289862338e-18
3.445737101e-18
9.659874095e-18
2.457769693e-17
4.846279582e-17
3.539679913e-19
5.276291278e-19
9.847736834e-19
2.380799334e-18
7.095347084e-18
2.27759452e-17
6.930523014e-17
1.811830095e-16
3.59116508e-16
1.008734849e-18
1.764898586e-18
4.273613604e-18
1.330815748e-17
4.600862371e-17
1.560954954e-16
4.798520002e-16
1.24489256e-15
2.440138865e-15
3.557302795e-18
7.850567688e-18
2.369579028e-17
8.318210016e-17
2.980117738e-16
1.0078281e-15
3.040147214e-15
7.707660378e-15
1.481698885e-14
1.660141245e-17
4.333879297e-17
1.431373054e-16
5.115625492e-16
1.803568994e-15
5.918394352e-15
1.725146603e-14
4.233199285e-14
7.939689186e-14
9.473067217e-17
2.585946673e-16
8.508503142e-16
2.946093694e-15
9.947380148e-15
3.114434275e-14
8.665317942e-14
2.037699346e-13
3.699344262e-13
5.798174591e-16
1.529289611e-15
4.775935092e-15
1.558576182e-14
4.949009183e-14
1.457261694e-13
3.816600555e-13
8.47540758e-13
1.469175211e-12
3.508725486e-15
8.601935843e-15
2.486126385e-14
7.51221102e-14
2.210787558e-13
6.029386441e-13
1.460007204e-12
2.998182321e-12
4.860138571e-12
2.005328001e-14
4.501777573e-14
1.187908804e-13
3.28237611e-13
8.82933067e-13
2.192844452e-12
4.807665301e-12
8.912345772e-12
1.321786418e-11
1.053712874e-13
2.158415888e-13
5.161749175e-13
1.290425716e-12
3.128765523e-12
6.954799433e-12
1.354565694e-11
2.232932766e-11
3.017524425e-11
4.995099493e-13
9.337799492e-13
2.012895564e-12
4.507319552e-12
9.718571056e-12
1.906710553e-11
3.276370601e-11
4.849584575e-11
6.111965911e-11
2.094145585e-12
3.576286229e-12
6.918075293e-12
1.375522917e-11
2.61369633e-11
4.520222065e-11
6.966197657e-11
9.55523259e-11
1.155557917e-10
7.587200655e-12
1.185517241e-11
2.053769477e-11
3.617392345e-11
6.089174285e-11
9.483967123e-11
1.356222181e-10
1.776464399e-10
2.096238611e-10
2.321115663e-11
3.334160281e-11
5.205125223e-11
8.231631018e-11
1.260727404e-10
1.832354822e-10
2.505677447e-10
3.191621741e-10
3.706789352e-10
5.932863063e-11
7.940552726e-11
1.141173517e-10
1.67130513e-10
2.412995321e-10
3.369521284e-10
4.488818373e-10
5.621630957e-10
6.466105399e-10
1.292803738e-10
1.648927798e-10
2.248708515e-10
3.149374532e-10
4.400701318e-10
6.010538381e-10
7.893505502e-10
9.80113811e-10
1.122171195e-09
2.513568557e-10
3.120904897e-10
4.137344766e-10
5.659402314e-10
7.774394363e-10
1.050586946e-09
1.372333486e-09
1.700965196e-09
1.947377158e-09
4.542055132e-10
5.563445658e-10
7.271801772e-10
9.834095793e-10
1.341659736e-09
1.80888998e-09
2.366421355e-09
2.944460925e-09
3.384145634e-09
7.808141376e-10
9.504569279e-10
1.235033258e-09
1.66464728e-09
2.271312545e-09
3.073569457e-09
4.047674902e-09
5.077594125e-09
5.876168675e-09
1.292741118e-09
1.571290292e-09
2.040913587e-09
2.755917705e-09
3.778072894e-09
5.151755247e-09
6.852216997e-09
8.688315569e-09
1.014133157e-08
2.079138774e-09
2.530536571e-09
3.296190149e-09
4.472927141e-09
6.177041403e-09
8.504431958e-09
1.143914133e-08
1.467003199e-08
1.727491639e-08
3.270675233e-09
3.991790901e-09
5.222311855e-09
7.130466289e-09
9.926302291e-09
1.37983155e-08
1.87561074e-08
2.430056749e-08
2.883891465e-08
5.065838639e-09
6.200667249e-09
8.146685397e-09
1.118565671e-08
1.567796812e-08
2.196288972e-08
3.009767116e-08
3.929563925e-08
4.690813828e-08
7.775795095e-09
9.534063354e-09
1.255784744e-08
1.729897817e-08
2.434211968e-08
3.425014175e-08
4.714988184e-08
6.182823535e-08
7.406585387e-08
1.189268141e-08
1.457246396e-08
1.918210465e-08
2.641286653e-08
3.716100077e-08
5.229390513e-08
7.202413343e-08
9.453815611e-08
1.134254629e-07
1.817981599e-08
2.219193296e-08
2.907566315e-08
3.983912691e-08
5.578344008e-08
7.81622458e-08
1.0728895e-07
1.40584559e-07
1.686764918e-07
2.777272269e-08
3.366272391e-08
4.371698072e-08
5.933887633e-08
8.232580709e-08
1.143986659e-07
1.560013539e-07
2.034284527e-07
2.432269993e-07
4.227239358e-08
5.073573921e-08
6.508211586e-08
8.718346201e-08
1.194259905e-07
1.64093499e-07
2.214922809e-07
2.862187895e-07
3.40289635e-07
6.381610809e-08
7.570671415e-08
9.570422159e-08
1.26211374e-07
1.703363533e-07
2.305507501e-07
3.067485854e-07
3.916499222e-07
4.620503669e-07
9.514429275e-08
1.114887111e-07
1.38800664e-07
1.799646524e-07
2.383994424e-07
3.168021221e-07
4.144672187e-07
5.218496048e-07
6.100817284e-07
1.39790019e-07
1.617833551e-07
1.980114665e-07
2.517408862e-07
3.266719773e-07
4.255263254e-07
5.466979005e-07
6.7796439e-07
7.846765222e-07
2.01514319e-07
2.301581289e-07
2.767516519e-07
3.447649468e-07
4.380799675e-07
5.589531439e-07
7.045532514e-07
8.598689506e-07
9.846474926e-07
2.839316481e-07
3.201339449e-07
3.783194326e-07
4.619661244e-07
5.74748445e-07
7.181626631e-07
8.878155302e-07
1.065913275e-06
1.207179044e-06
3.904707443e-07
4.348860439e-07
5.054111749e-07
6.053653027e-07
7.377375588e-07
9.029795533e-07
1.094735458e-06
1.292797887e-06
1.447797409e-06
5.239654298e-07
5.768909123e-07
6.599848812e-07
7.758602581e-07
9.266636103e-07
1.111396865e-06
1.32183451e-06
1.535556276e-06
1.700467894e-06
6.861714373e-07
7.473632265e-07
8.423459842e-07
9.728424014e-07
1.139589966e-06
1.339930017e-06
1.564003327e-06
1.787701969e-06
1.957819406e-06
8.77356964e-07
9.459507335e-07
1.051209088e-06
1.193652727e-06
1.372453303e-06
1.583211921e-06
1.81451015e-06
2.041385925e-06
2.211345245e-06
1.095912104e-06
1.170382615e-06
1.283352656e-06
1.433924452e-06
1.619570711e-06
1.834178432e-06
2.065087169e-06
2.287348872e-06
2.451007544e-06
1.338029358e-06
1.416193379e-06
1.533389254e-06
1.687178245e-06
1.873292657e-06
2.084003931e-06
2.305691887e-06
2.514018157e-06
2.662517211e-06
1.597497851e-06
1.676567238e-06
1.793674186e-06
1.944807892e-06
2.123989333e-06
2.321882645e-06
2.523902251e-06
2.709066764e-06
2.840525747e-06
1.865567358e-06
1.942217314e-06
2.054157186e-06
2.195795885e-06
2.359552631e-06
2.534514546e-06
2.710612148e-06
2.870540111e-06
2.983002917e-06
2.130522556e-06
2.200868718e-06
2.301543404e-06
2.425363227e-06
2.566023857e-06
2.715007034e-06
2.862418415e-06
2.994197336e-06
3.085748982e-06
2.375755726e-06
2.435575512e-06
2.520478722e-06
2.624065067e-06
2.739448802e-06
2.859077008e-06
2.974786368e-06
3.076211052e-06
3.145750847e-06
2.590554821e-06
2.638801145e-06
2.70623905e-06
2.786806051e-06
2.874079018e-06
2.961773262e-06
3.043994318e-06
3.114258974e-06
3.161758028e-06
2.768628091e-06
2.8038726e-06
2.851938512e-06
2.907380342e-06
2.964776424e-06
3.01949377e-06
3.068137374e-06
3.108005757e-06
3.134504115e-06
2.902523755e-06
2.923830127e-06
2.951470063e-06
2.980984946e-06
3.008341184e-06
3.030808455e-06
3.047510502e-06
3.059198293e-06
3.06665279e-06
2.986446834e-06
2.993678006e-06
3.001017081e-06
3.005293351e-06
3.004106804e-06
2.996716915e-06
2.984609546e-06
2.971496346e-06
2.962543403e-06
3.017510222e-06
3.011372098e-06
2.999713125e-06
2.980828155e-06
2.954043436e-06
2.92053846e-06
2.883868275e-06
2.850118621e-06
2.827800416e-06
2.996160928e-06
2.978096309e-06
2.949731701e-06
2.910867789e-06
2.862503514e-06
2.807538461e-06
2.751214431e-06
2.70137365e-06
2.668867784e-06
2.92604153e-06
2.898035197e-06
2.855951794e-06
2.801011906e-06
2.73571251e-06
2.664382034e-06
2.593524533e-06
2.53214364e-06
2.492527202e-06
2.813438665e-06
2.777782464e-06
2.725325304e-06
2.658522981e-06
2.58111094e-06
2.498504778e-06
2.418049363e-06
2.349376691e-06
2.305444704e-06
2.666466331e-06
2.625524683e-06
2.566073471e-06
2.491556458e-06
2.406644182e-06
2.317489042e-06
2.231887497e-06
2.159651883e-06
2.113798922e-06
2.494148171e-06
2.450161651e-06
2.386867965e-06
2.308424972e-06
2.220127136e-06
2.128534296e-06
2.041561005e-06
1.968846593e-06
1.923008757e-06
2.30556171e-06
2.260502991e-06
2.196104213e-06
2.116967878e-06
2.028722287e-06
1.938048076e-06
1.852710352e-06
1.781915326e-06
1.737563656e-06
2.109131534e-06
2.064621229e-06
2.001338133e-06
1.924087034e-06
1.838580152e-06
1.75138649e-06
1.669921725e-06
1.602783128e-06
1.560955339e-06
1.912138896e-06
1.869415961e-06
1.808924227e-06
1.735469006e-06
1.65464635e-06
1.57273847e-06
1.496674433e-06
1.434338061e-06
1.395694557e-06
1.720455824e-06
1.6803906e-06
1.623848558e-06
1.555479722e-06
1.480615612e-06
1.405130671e-06
1.335384459e-06
1.278499705e-06
1.243391315e-06
1.538475663e-06
1.50161125e-06
1.449723852e-06
1.387197463e-06
1.318998863e-06
1.250521053e-06
1.187515239e-06
1.136338298e-06
1.104875881e-06
1.369191995e-06
1.335800547e-06
1.288901336e-06
1.232541777e-06
1.171265024e-06
1.109947658e-06
1.053727379e-06
1.008220741e-06
9.803398255e-07
1.214372782e-06
1.184516004e-06
1.142652873e-06
1.092456985e-06
1.03802223e-06
9.837030595e-07
9.340428789e-07
8.939636345e-07
8.694804289e-07
1.074781996e-06
1.048368572e-06
1.011383805e-06
9.671159077e-07
9.192087598e-07
8.715106224e-07
8.280059681e-07
7.92979524e-07
7.716364434e-07
9.50411007e-07
9.272464118e-07
8.948453727e-07
8.561179039e-07
8.142747766e-07
7.726881593e-07
7.348286663e-07
7.044066993e-07
6.85907518e-07
8.406947439e-07
8.205218795e-07
7.923286244e-07
7.586665952e-07
7.223417678e-07
6.86288778e-07
6.535141802e-07
6.272179926e-07
6.11253615e-07
7.446986988e-07
7.272291616e-07
7.028288806e-07
6.737185675e-07
6.423342172e-07
6.112155947e-07
5.829561046e-07
5.603073404e-07
5.465736553e-07
6.612707639e-07
6.46207612e-07
6.251773003e-07
6.001010623e-07
5.730825711e-07
5.463103243e-07
5.220141183e-07
5.025551793e-07
4.907645957e-07
5.891578862e-07
5.762112665e-07
5.581405943e-07
5.366002724e-07
5.133995683e-07
4.90418101e-07
4.695686407e-07
4.528751255e-07
4.427633036e-07
5.270909589e-07
5.159880754e-07
5.004925421e-07
4.820239475e-07
4.621336076e-07
4.424320666e-07
4.245577794e-07
4.102450171e-07
4.015741092e-07
4.738429925e-07
4.643338044e-07
4.510621024e-07
4.352428719e-07
4.182034138e-07
4.013216397e-07
3.860001058e-07
3.737255181e-07
3.662849908e-07
4.282660159e-07
4.20125857e-07
4.087630864e-07
3.952158186e-07
3.80618194e-07
3.661482233e-07
3.530066033e-07
3.424692632e-07
3.360751353e-07
3.89311832e-07
3.823419154e-07
3.72609964e-07
3.610021614e-07
3.484870419e-07
3.36071678e-07
3.247847117e-07
3.157231406e-07
3.102162571e-07
3.560410631e-07
3.500676119e-07
3.417237086e-07
3.317656861e-07
3.210207386e-07
3.103503286e-07
3.006368916e-07
2.928258506e-07
2.880696399e-07
3.276241014e-07
3.224966519e-07
3.153308362e-07
3.067724453e-07
2.9752847e-07
2.883367047e-07
2.799556226e-07
2.73202431e-07
2.690804506e-07
3.033367763e-07
2.989260462e-07
2.927580788e-07
2.853848465e-07
2.774113862e-07
2.694706898e-07
2.622162917e-07
2.563570301e-07
2.527705032e-07
2.825528457e-07
2.78748432e-07
2.734245061e-07
2.670535937e-07
2.60154425e-07
2.5327131e-07
2.469690328e-07
2.418648586e-07
2.387303268e-07
2.647348234e-07
2.61442906e-07
2.568323928e-07
2.513086373e-07
2.453174027e-07
2.393280265e-07
2.338302621e-07
2.293639733e-07
2.266111358e-07
2.494241933e-07
2.465653522e-07
2.425577227e-07
2.377499178e-07
2.325260555e-07
2.27292113e-07
2.224744046e-07
2.185473228e-07
2.161170959e-07
2.362317018e-07
2.337389089e-07
2.30240912e-07
2.260384146e-07
2.214634644e-07
2.168684852e-07
2.126261212e-07
2.091553197e-07
2.069981259e-07
2.248281604e-07
2.226449741e-07
2.195781071e-07
2.158878063e-07
2.118621242e-07
2.07808193e-07
2.040532066e-07
2.009690848e-07
1.990433644e-07
2.149360034e-07
2.130149748e-07
2.10313253e-07
2.070569038e-07
2.034967809e-07
1.999016751e-07
1.965602374e-07
1.938044222e-07
1.920753537e-07
2.063217088e-07
2.046229905e-07
2.022310063e-07
1.993429157e-07
1.961780857e-07
1.929728044e-07
1.899829806e-07
1.875065281e-07
1.859449361e-07
1.987891127e-07
1.972792613e-07
1.951505136e-07
1.925755514e-07
1.897470506e-07
1.868736993e-07
1.841835341e-07
1.819453999e-07
1.80526831e-07
1.921735981e-07
1.908245494e-07
1.889200152e-07
1.866119156e-07
1.840702602e-07
1.814802524e-07
1.790461461e-07
1.770118924e-07
1.757158355e-07
1.863370879e-07
1.851252856e-07
1.834122074e-07
1.813321294e-07
1.790357719e-07
1.766883093e-07
1.744736484e-07
1.726143554e-07
1.714235887e-07
1.811637686e-07
1.800694282e-07
1.785202908e-07
1.766356032e-07
1.74549632e-07
1.724104254e-07
1.703844319e-07
1.68675786e-07
1.675758298e-07
1.76556464e-07
1.755629543e-07
1.741546232e-07
1.724378843e-07
1.705329318e-07
1.685731285e-07
1.667098965e-07
1.651314272e-07
1.641100882e-07
1.724335766e-07
1.715268999e-07
1.702399003e-07
1.686680028e-07
1.669193317e-07
1.651146185e-07
1.633923092e-07
1.619267528e-07
1.609737445e-07
1.687265177e-07
1.678948759e-07
1.667127894e-07
1.652662457e-07
1.636529851e-07
1.619828399e-07
1.603830103e-07
1.590157803e-07
1.581224072e-07
1.653775559e-07
1.646109883e-07
1.63519949e-07
1.621822954e-07
1.606868048e-07
1.591338723e-07
1.576409163e-07
1.563596627e-07
1.555185578e-07
1.623380208e-07
1.616281016e-07
1.606163772e-07
1.593736771e-07
1.579810158e-07
1.565305882e-07
1.551312718e-07
1.539255138e-07
1.531304212e-07
1.595668052e-07
1.589063922e-07
1.579640341e-07
1.568044646e-07
1.555019508e-07
1.541415355e-07
1.528246095e-07
1.516854315e-07
1.509310249e-07
1.570291183e-07
1.564121436e-07
1.555306967e-07
1.544442044e-07
1.532210479e-07
1.519400078e-07
1.506958862e-07
1.496156842e-07
1.488974167e-07
1.546954493e-07
1.54116745e-07
1.532890054e-07
1.522670204e-07
1.511140167e-07
1.499032714e-07
1.487237637e-07
1.476960344e-07
1.470100137e-07
1.525407049e-07
1.519958582e-07
1.512156722e-07
1.502508695e-07
1.49160146e-07
1.480119223e-07
1.468900109e-07
1.459091766e-07
1.452520606e-07
1.50543493e-07
1.500287257e-07
1.49290822e-07
1.483769235e-07
1.473417275e-07
1.462493524e-07
1.451790066e-07
1.442402692e-07
1.436091795e-07
1.486855271e-07
1.481975946e-07
1.474974448e-07
1.466290538e-07
1.456435764e-07
1.44601304e-07
1.43577326e-07
1.426765449e-07
1.420689949e-07
1.469511302e-07
1.464872384e-07
1.458209408e-07
1.449934042e-07
1.440526328e-07
1.430555002e-07
1.420733956e-07
1.412069867e-07
1.406208208e-07
1.45326823e-07
1.448845581e-07
1.442487401e-07
1.434580336e-07
1.425576292e-07
1.416013364e-07
1.406572066e-07
1.398220567e-07
1.392554007e-07
1.438009799e-07
1.433782499e-07
1.427699875e-07
1.420126194e-07
1.411488139e-07
1.402296228e-07
1.393200747e-07
1.385134712e-07
1.379646893e-07
1.423635425e-07
1.419585286e-07
1.413752783e-07
1.406482089e-07
1.398177195e-07
1.389323697e-07
1.380544405e-07
1.372740113e-07
1.367416712e-07
1.410057806e-07
1.406168962e-07
1.40056438e-07
1.393570126e-07
1.385569693e-07
1.377026077e-07
1.368537012e-07
1.360973652e-07
1.355802083e-07
1.397200918e-07
1.393459484e-07
1.388063384e-07
1.381322306e-07
1.373601161e-07
1.365342371e-07
1.357120707e-07
1.349779954e-07
1.344749121e-07
1.384998343e-07
1.381392126e-07
1.376187427e-07
1.36967907e-07
1.362215056e-07
1.354219017e-07
1.346244616e-07
1.339110278e-07
1.33421036e-07
1.373391864e-07
1.36991012e-07
1.364881765e-07
1.35858808e-07
1.351361632e-07
1.343608824e-07
1.335863856e-07
1.32892158e-07
1.324143856e-07
1.362330283e-07
1.358963513e-07
1.354098184e-07
1.348003194e-07
1.340996974e-07
1.33347008e-07
1.325938705e-07
1.319175718e-07
1.314512415e-07
1.351768428e-07
1.348508208e-07
1.343794081e-07
1.337883596e-07
1.331082187e-07
1.323765792e-07
1.31643389e-07
1.309838788e-07
1.305282955e-07
1.341666316e-07
1.338505146e-07
1.333931697e-07
1.328193068e-07
1.321582716e-07
1.314463051e-07
1.307317993e-07
1.300880558e-07
1.296425956e-07
1.33198844e-07
1.328919627e-07
1.324477449e-07
1.318899369e-07
1.312467764e-07
1.305532488e-07
1.298562937e-07
1.292273985e-07
1.287914994e-07
1.322703175e-07
1.31972072e-07
1.315401383e-07
1.309973706e-07
1.303709794e-07
1.296947812e-07
1.290143559e-07
1.283994806e-07
1.279726348e-07
1.31378226e-07
1.310880773e-07
1.306676697e-07
1.301390293e-07
1.295284114e-07
1.288685416e-07
1.282037241e-07
1.276021186e-07
1.271838658e-07
1.305200368e-07
1.30237499e-07
1.298279338e-07
1.293125965e-07
1.287168517e-07
1.280724046e-07
1.274223588e-07
1.268333424e-07
1.264232635e-07
1.296934734e-07
1.294181071e-07
1.290187654e-07
1.285159848e-07
1.279342972e-07
1.273044504e-07
1.266684164e-07
1.260913689e-07
1.256890814e-07
1.288964833e-07
1.2862789e-07
1.282382105e-07
1.277473085e-07
1.271789361e-07
1.265629408e-07
1.259402254e-07
1.253745801e-07
1.249797338e-07
1.281272115e-07
1.278650286e-07
1.274845002e-07
1.270048591e-07
1.264491251e-07
1.258462975e-07
1.252362666e-07
1.246815039e-07
1.242937771e-07
1.27383976e-07
1.271278729e-07
1.267560289e-07
1.262870845e-07
1.257433699e-07
1.251530836e-07
1.245551552e-07
1.240107977e-07
1.236298939e-07
1.266652484e-07
1.264149225e-07
1.260513359e-07
1.25592571e-07
1.250603079e-07
1.244819876e-07
1.238956263e-07
1.233612337e-07
1.22986879e-07
1.259696358e-07
1.257248094e-07
1.253690882e-07
1.249200278e-07
1.243986938e-07
1.238318094e-07
1.232565213e-07
1.227316863e-07
1.223636267e-07
1.252958654e-07
1.250562833e-07
1.247080666e-07
1.242682731e-07
1.237573866e-07
1.232014485e-07
1.226367764e-07
1.221211215e-07
1.217591211e-07
1.246427717e-07
1.244081984e-07
1.240671532e-07
1.236362224e-07
1.231353379e-07
1.225898928e-07
1.220354127e-07
1.21528587e-07
1.211724258e-07
1.240092844e-07
1.237795023e-07
1.234453205e-07
1.23022878e-07
1.225315827e-07
1.219962098e-07
1.214515273e-07
1.209532037e-07
1.206026762e-07
1.233944182e-07
1.231692255e-07
1.228416216e-07
1.224273201e-07
1.219452301e-07
1.214195378e-07
1.208842853e-07
1.203941583e-07
1.200490722e-07
1.227972639e-07
1.225764732e-07
1.222551816e-07
1.21848698e-07
1.21375456e-07
1.20859079e-07
1.203329131e-07
1.198506967e-07
1.195108715e-07
1.2221698e-07
1.220004168e-07
1.216851902e-07
1.212862231e-07
1.208214957e-07
1.203140926e-07
1.197966918e-07
1.193221179e-07
1.189873838e-07
1.216527855e-07
1.21440287e-07
1.211308944e-07
1.207391624e-07
1.202826376e-07
1.197838889e-07
1.192749518e-07
1.188077684e-07
1.184779658e-07
1.211039529e-07
1.208953668e-07
1.205915922e-07
1.202068318e-07
1.197582174e-07
1.192678233e-07
1.18767067e-07
1.183070374e-07
1.179820159e-07
1.205698014e-07
1.203649852e-07
1.200666261e-07
1.196885901e-07
1.192476119e-07
1.187652912e-07
1.182724497e-07
1.178193512e-07
1.174989695e-07
1.200496908e-07
1.198485104e-07
1.195553766e-07
1.191838328e-07
1.187502333e-07
1.182757214e-07
1.177905449e-07
1.173441684e-07
1.170282934e-07
1.19543014e-07
1.193453432e-07
1.190572556e-07
1.186919856e-07
1.182655221e-07
1.177985703e-07
1.173208241e-07
1.168809733e-07
1.165694808e-07
1.190491893e-07
1.18854909e-07
1.185716984e-07
1.182124958e-07
1.177929399e-07
1.17333314e-07
1.168627778e-07
1.164292691e-07
1.161220433e-07
1.185676516e-07
1.183766486e-07
1.180981546e-07
1.177448239e-07
1.173319592e-07
1.168794386e-07
1.164159056e-07
1.159885681e-07
1.156855024e-07
1.180978407e-07
1.17910007e-07
1.176360762e-07
1.172884309e-07
1.16882052e-07
1.164364281e-07
1.159797043e-07
1.155583795e-07
1.152593761e-07
1.176391882e-07
1.174544189e-07
1.171849032e-07
1.168427638e-07
1.164426735e-07
1.160037475e-07
1.155536503e-07
1.151381913e-07
1.148431624e-07
1.171910989e-07
1.170092909e-07
1.167440448e-07
1.164072353e-07
1.160132415e-07
1.155808215e-07
1.151371772e-07
1.147274478e-07
1.144363147e-07
1.167529288e-07
1.165739782e-07
1.163128549e-07
1.159811983e-07
1.15593109e-07
1.151670051e-07
1.14729645e-07
1.143255169e-07
1.140382093e-07
1.163239567e-07
1.161477546e-07
1.158906009e-07
1.155639131e-07
1.151815293e-07
1.147615466e-07
1.143303003e-07
1.139316482e-07
1.136481017e-07
1.15903348e-07
1.157297761e-07
1.154764252e-07
1.151545054e-07
1.147776107e-07
1.143635384e-07
1.13938224e-07
1.135449175e-07
1.132650694e-07
1.154901106e-07
1.153190343e-07
1.150692957e-07
1.147519145e-07
1.143802608e-07
1.139718568e-07
1.135522658e-07
1.13164157e-07
1.128879378e-07
1.150830411e-07
1.149143004e-07
1.146679474e-07
1.143548296e-07
1.139881174e-07
1.135850871e-07
1.131709633e-07
1.127878682e-07
1.125151902e-07
1.146806604e-07
1.145140585e-07
1.142708105e-07
1.139616137e-07
1.135994664e-07
1.132014342e-07
1.127924448e-07
1.124141171e-07
1.121448564e-07
1.142811385e-07
1.141164275e-07
1.138759289e-07
1.13570215e-07
1.132121456e-07
1.128186179e-07
1.124143149e-07
1.120404114e-07
1.11774384e-07
1.138822086e-07
1.137190712e-07
1.134808646e-07
1.131780657e-07
1.12823435e-07
1.124337537e-07
1.120335258e-07
1.116635607e-07
1.114004904e-07
1.13481071e-07
1.13319099e-07
1.130825932e-07
1.127819695e-07
1.124299361e-07
1.120432214e-07
1.116462337e-07
1.112795225e-07
1.110190007e-07
1.13074288e-07
1.129129576e-07
1.126773898e-07
1.123779808e-07
1.120274416e-07
1.116425244e-07
1.112476469e-07
1.108832381e-07
1.106246743e-07
1.126576738e-07
1.124963162e-07
1.122607097e-07
1.119612778e-07
1.116107998e-07
1.112261444e-07
1.108318688e-07
1.104684651e-07
1.10211029e-07
1.122261799e-07
1.120639503e-07
1.118270665e-07
1.115260346e-07
1.111737795e-07
1.107873969e-07
1.103917445e-07
1.100276129e-07
1.097701687e-07
1.117737833e-07
1.116096259e-07
1.113699135e-07
1.110652988e-07
1.107089413e-07
1.103182956e-07
1.099187167e-07
1.095515921e-07
1.092926265e-07
1.112933797e-07
1.111259927e-07
1.108815342e-07
1.105708778e-07
1.102075213e-07
1.098094332e-07
1.094027024e-07
1.09029686e-07
1.087672331e-07
1.107766894e-07
1.106044886e-07
1.103529474e-07
1.100332445e-07
1.096593361e-07
1.092498853e-07
1.088319979e-07
1.084494565e-07
1.081810219e-07
1.102141793e-07
1.100352645e-07
1.097738331e-07
1.094414667e-07
1.090527165e-07
1.086271498e-07
1.081932225e-07
1.077966926e-07
1.075191823e-07
1.095950098e-07
1.094071326e-07
1.09132487e-07
1.087831677e-07
1.083744767e-07
1.079271264e-07
1.074713107e-07
1.070554147e-07
1.067650729e-07
1.089070088e-07
1.087075475e-07
1.084158085e-07
1.080445252e-07
1.076099272e-07
1.071341461e-07
1.066495598e-07
1.062079419e-07
1.059003033e-07
1.081366828e-07
1.079226227e-07
1.076093288e-07
1.072103147e-07
1.067429371e-07
1.062310564e-07
1.057097422e-07
1.052350302e-07
1.049048935e-07
1.07269265e-07
1.070371895e-07
1.066972841e-07
1.062640024e-07
1.05756052e-07
1.051993699e-07
1.04632288e-07
1.041160911e-07
1.037575198e-07
1.062888095e-07
1.060349023e-07
1.056627388e-07
1.051878928e-07
1.046306735e-07
1.040194814e-07
1.033965449e-07
1.028294952e-07
1.024358527e-07
1.051783323e-07
1.04898394e-07
1.044877633e-07
1.039633364e-07
1.033473042e-07
1.026709592e-07
1.019811224e-07
1.013529693e-07
1.00916995e-07
1.039200068e-07
1.036094883e-07
1.031536718e-07
1.025710031e-07
1.018858666e-07
1.011329182e-07
1.003643261e-07
9.966409411e-08
9.917802753e-08
1.024954163e-07
1.021494722e-07
1.016413255e-07
1.00991227e-07
1.002261018e-07
9.938448354e-08
9.852469402e-08
9.774091194e-08
9.719667249e-08
1.008858722e-07
1.004994375e-07