/*--------------------------------*- C++ -*----------------------------------*\
| =========                 |                                                 |
| \\      /  F ield         | OpenFOAM: The Open Source CFD Toolbox           |
|  \\    /   O peration     | Version:  2212                                  |
|   \\  /    A nd           | Website:  www.openfoam.com                      |
|    \\/     M anipulation  |                                                 |
\*---------------------------------------------------------------------------*/
FoamFile
{
    version     2.0;
    format      ascii;
    arch        "LSB;label=32;scalar=64";
    class       volScalarField;
    location    "30.00000000";
    object      C2H6;
}
// * * * * * * * * * * * * * * * * * * * * * * * * * * * * * * * * * * * * * //

dimensions      [0 0 0 0 0 0 0];

internalField   nonuniform List<scalar> 
3000
(
5.66148749e-22
6.360564591e-22
7.415517736e-22
8.821428497e-22
1.05640805e-21
1.259622365e-21
1.479547194e-21
1.689420782e-21
1.837820282e-21
2.125832768e-21
2.397977932e-21
2.808488309e-21
3.356779236e-21
4.042334313e-21
4.861402912e-21
5.79975212e-21
6.810236164e-21
7.705068867e-21
4.762950268e-21
5.415007457e-21
6.407975992e-21
7.756298395e-21
9.484269411e-21
1.161704903e-20
1.414613768e-20
1.692977981e-20
1.930804568e-20
9.075210023e-21
1.042591483e-20
1.251299437e-20
1.540723786e-20
1.921134955e-20
2.402220535e-20
2.981352118e-20
3.61222878e-20
4.12140184e-20
1.612258272e-20
1.874999392e-20
2.287378308e-20
2.870385601e-20
3.651486041e-20
4.652626377e-20
5.85709259e-20
7.13635961e-20
8.118440817e-20
2.773933559e-20
3.267369394e-20
4.052947056e-20
5.180902993e-20
6.711516966e-20
8.683441514e-20
1.10378544e-19
1.347794187e-19
1.528341632e-19
4.712241598e-20
5.619262476e-20
7.080134273e-20
9.201407939e-20
1.210144023e-19
1.583815706e-19
2.025719155e-19
2.474769777e-19
2.798835217e-19
7.980550216e-20
9.623185621e-20
1.229238725e-19
1.61982065e-19
2.155889382e-19
2.845209264e-19
3.653230187e-19
4.462352116e-19
5.036514147e-19
1.353843921e-19
1.648171733e-19
2.129516966e-19
2.837398409e-19
3.81062709e-19
5.058604216e-19
6.510870372e-19
7.949915517e-19
8.959748526e-19
2.304844413e-19
2.828003523e-19
3.687421558e-19
4.95523691e-19
6.69909967e-19
8.929059072e-19
1.150934298e-18
1.404717333e-18
1.581471707e-18
3.939289363e-19
4.863546026e-19
6.386427656e-19
8.636971368e-19
1.173170636e-18
1.567892637e-18
2.022621235e-18
2.467535627e-18
2.775893806e-18
6.757050199e-19
8.382426753e-19
1.106566995e-18
1.503436148e-18
2.048749137e-18
2.742567089e-18
3.538986137e-18
4.315370967e-18
4.852236135e-18
1.162571716e-18
1.447473929e-18
1.918363356e-18
2.615004804e-18
3.571097778e-18
4.784301508e-18
6.171731302e-18
7.520257301e-18
8.456250277e-18
2.00522074e-18
2.503610354e-18
3.328085613e-18
4.547959066e-18
6.220121672e-18
8.335212121e-18
1.073964351e-17
1.305932518e-17
1.47147415e-17
3.465401923e-18
4.336379084e-18
5.778746433e-18
7.914492796e-18
1.084229977e-17
1.453835644e-17
1.869818308e-17
2.251560994e-17
2.564901601e-17
5.997185393e-18
7.51794407e-18
1.003968562e-17
1.378060776e-17
1.892618994e-17
2.547486043e-17
3.302293235e-17
4.056526219e-17
4.528070794e-17
1.03871539e-17
1.303790938e-17
1.743609669e-17
2.396328069e-17
3.293976448e-17
4.434329188e-17
5.739007271e-17
7.003976499e-17
7.862787874e-17
1.799949688e-17
2.261298953e-17
3.02693403e-17
4.163066756e-17
5.724558129e-17
7.705510087e-17
9.966690824e-17
1.215371827e-16
1.365074656e-16
3.120183873e-17
3.922400998e-17
5.253868571e-17
7.22948163e-17
9.943862028e-17
1.338553611e-16
1.73117232e-16
2.110801689e-16
2.37084149e-16
5.410390634e-17
6.80462043e-17
9.118904879e-17
1.255278507e-16
1.72701226e-16
2.325007888e-16
3.007018733e-16
3.666333298e-16
4.117899826e-16
9.383967694e-17
1.180638503e-16
1.582773279e-16
2.179465133e-16
2.999127526e-16
4.03803519e-16
5.222689918e-16
6.367692701e-16
7.151764735e-16
1.627940176e-16
2.048746715e-16
2.747360384e-16
3.78399228e-16
5.207922672e-16
7.012524985e-16
9.069959879e-16
1.105816043e-15
1.241943507e-15
2.824703089e-16
3.555613087e-16
4.769112873e-16
6.56976249e-16
9.043025665e-16
1.217714235e-15
1.574980407e-15
1.920164886e-15
2.156480189e-15
4.902086134e-16
6.171531948e-16
8.279187596e-16
1.140657492e-15
1.570187458e-15
2.114423735e-15
2.734714964e-15
3.333940398e-15
3.744126624e-15
8.508554004e-16
1.071324844e-15
1.437366568e-15
1.98048186e-15
2.726351852e-15
3.671279439e-15
4.748081138e-15
5.788146652e-15
6.500034733e-15
1.47702951e-15
1.859918835e-15
2.495596578e-15
3.438703283e-15
4.733713062e-15
6.374043576e-15
8.242920802e-15
1.004768547e-14
1.128281722e-14
2.564313533e-15
3.229262968e-15
4.333127314e-15
5.970621965e-15
8.218681227e-15
1.106549522e-14
1.430805291e-14
1.743850735e-14
1.958041342e-14
4.45234405e-15
5.607098632e-15
7.523810968e-15
1.036651169e-14
1.426806711e-14
1.920707451e-14
2.483049331e-14
3.025738737e-14
3.39693078e-14
7.730756702e-15
9.735966666e-15
1.306361806e-14
1.799742469e-14
2.476631038e-14
3.333097503e-14
4.307719941e-14
5.247763413e-14
5.890424481e-14
1.3422722e-14
1.6904222e-14
2.268009464e-14
3.1240223e-14
4.297777092e-14
5.781938294e-14
7.469577226e-14
9.09607161e-14
1.020723519e-13
2.330237389e-14
2.934541831e-14
3.936691454e-14
5.421077239e-14
7.454927527e-14
1.002429622e-13
1.294289056e-13
1.575268986e-13
1.76703096e-13
4.044258364e-14
5.092707601e-14
6.830466172e-14
9.402460023e-14
1.292297029e-13
1.736497841e-13
2.240364933e-13
2.724731017e-13
3.054836959e-13
7.015753311e-14
8.833475725e-14
1.184411847e-13
1.629553957e-13
2.238049529e-13
3.00457166e-13
3.872433569e-13
4.705056558e-13
5.27143617e-13
1.216188514e-13
1.530995112e-13
2.051915634e-13
2.821111705e-13
3.870764422e-13
5.190219283e-13
6.680492227e-13
8.106564335e-13
9.074224984e-13
2.10614716e-13
2.650525058e-13
3.550249984e-13
4.876544046e-13
6.682424515e-13
8.946369782e-13
1.149550993e-12
1.392681868e-12
1.557136297e-12
3.642363337e-13
4.581774109e-13
6.132050013e-13
8.412447186e-13
1.150881874e-12
1.537749509e-12
1.971675001e-12
2.383853508e-12
2.661557935e-12
6.287915335e-13
7.904579442e-13
1.056748153e-12
1.447411122e-12
1.976042765e-12
2.633791525e-12
3.368085387e-12
4.062129866e-12
4.527527958e-12
1.083078826e-12
1.360320462e-12
1.815925023e-12
2.48215229e-12
3.379915112e-12
4.491387227e-12
5.72526558e-12
6.884699617e-12
7.65785779e-12
1.860487347e-12
2.33385142e-12
3.109574667e-12
4.239476515e-12
5.754500947e-12
7.619151831e-12
9.675669698e-12
1.159511913e-11
1.286700222e-11
3.185488045e-12
3.989420607e-12
5.302464248e-12
7.206177244e-12
9.743953158e-12
1.284620194e-11
1.624229949e-11
1.938813684e-11
2.14580762e-11
5.433342582e-12
6.790079925e-12
8.997339544e-12
1.218035666e-11
1.639531093e-11
2.150834592e-11
2.705959044e-11
3.215934566e-11
3.548964226e-11
9.226837661e-12
1.149971002e-11
1.518077154e-11
2.045666013e-11
2.739082938e-11
3.573135772e-11
4.470578335e-11
5.287778661e-11
5.817209387e-11
1.559132334e-11
1.936712819e-11
2.545118728e-11
3.4111655e-11
4.54008005e-11
5.885564351e-11
7.319599313e-11
8.613461175e-11
9.444903165e-11
2.620031913e-11
3.24142687e-11
4.237059572e-11
5.643731947e-11
7.461180902e-11
9.606422954e-11
1.18704351e-10
1.38941404e-10
1.518403362e-10
4.375977187e-11
5.388141132e-11
6.999980986e-11
9.259060574e-11
1.215073137e-10
1.553000795e-10
1.906098202e-10
2.218798097e-10
2.416528197e-10
7.260136358e-11
8.890594253e-11
1.147021759e-10
1.50554424e-10
1.960074509e-10
2.485917054e-10
3.029961987e-10
3.507425443e-10
3.807042389e-10
1.195861436e-10
1.45543438e-10
1.863352885e-10
2.425427847e-10
3.131159769e-10
3.939511237e-10
4.767859182e-10
5.488582499e-10
5.937608591e-10
1.95461821e-10
2.362837892e-10
2.999970602e-10
3.870338059e-10
4.952782748e-10
6.180697513e-10
7.427541395e-10
8.503639656e-10
9.169626529e-10
3.168737852e-10
3.802744929e-10
4.785561307e-10
6.116836518e-10
7.757306141e-10
9.60121506e-10
1.145760383e-09
1.304785484e-09
1.402610229e-09
5.09306188e-10
6.065434254e-10
7.562828616e-10
9.574686792e-10
1.203224354e-09
1.477095687e-09
1.750657577e-09
1.983416156e-09
2.125822463e-09
8.113322573e-10
9.586220222e-10
1.184014245e-09
1.484530874e-09
1.84864883e-09
2.251235183e-09
2.650503787e-09
2.988160635e-09
3.193755206e-09
1.280692705e-09
1.501117797e-09
1.836445587e-09
2.280375077e-09
2.814265668e-09
3.400361069e-09
3.977923513e-09
4.463745254e-09
4.758316487e-09
2.002912239e-09
2.328988762e-09
2.822360786e-09
3.471302304e-09
4.246521299e-09
5.092139005e-09
5.92076233e-09
6.614511903e-09
7.03364324e-09
3.103426234e-09
3.580557476e-09
4.29891988e-09
5.238288483e-09
6.353746189e-09
7.563703001e-09
8.743568538e-09
9.727438346e-09
1.032004886e-08
4.76427423e-09
5.455326861e-09
6.491166966e-09
7.838698964e-09
9.430454964e-09
1.114868272e-08
1.281715078e-08
1.420373017e-08
1.503678901e-08
7.24731493e-09
8.238798188e-09
9.719195355e-09
1.16363775e-08
1.389073185e-08
1.631402567e-08
1.865871165e-08
2.060168978e-08
2.17665945e-08
1.092637013e-08
1.233670428e-08
1.443540997e-08
1.714274058e-08
2.031374799e-08
2.371019506e-08
2.698649744e-08
2.969500514e-08
3.131612276e-08
1.633124471e-08
1.832182035e-08
2.12754221e-08
2.507283637e-08
2.950574879e-08
3.423939164e-08
3.879394152e-08
4.255174386e-08
4.479784071e-08
2.420786061e-08
2.699782703e-08
3.112736526e-08
3.642155071e-08
4.258416261e-08
4.914796641e-08
5.544997469e-08
6.064115219e-08
6.374071458e-08
3.560002414e-08
3.948605203e-08
4.522590636e-08
5.256679769e-08
6.109131647e-08
7.015122027e-08
7.883441963e-08
8.597778149e-08
9.023955515e-08
5.19600068e-08
5.734266665e-08
6.527910992e-08
7.540860416e-08
8.714758786e-08
9.960145892e-08
1.115203237e-07
1.213155526e-07
1.271560799e-07
7.529705067e-08
8.271596755e-08
9.363858459e-08
1.075556143e-07
1.236568639e-07
1.40713574e-07
1.570187812e-07
1.704083886e-07
1.783889959e-07
1.083750991e-07
1.185557992e-07
1.335261441e-07
1.52573783e-07
1.745808e-07
1.978664493e-07
2.201063988e-07
2.383591971e-07
2.492358476e-07
1.549736755e-07
1.68890043e-07
1.893333475e-07
2.153154001e-07
2.453021637e-07
2.770030437e-07
3.072609772e-07
3.320851554e-07
3.468760828e-07
2.202282862e-07
2.391855204e-07
2.670127411e-07
3.023493797e-07
3.431010844e-07
3.861564771e-07
4.272365159e-07
4.609339151e-07
4.810122259e-07
3.110675783e-07
3.368115156e-07
3.745806807e-07
4.22515222e-07
4.777699933e-07
5.361321394e-07
5.918124943e-07
6.374905556e-07
6.647123649e-07
4.367634434e-07
4.716230123e-07
5.227503074e-07
5.876213454e-07
6.623910035e-07
7.413737876e-07
8.167507345e-07
8.786144148e-07
9.154974982e-07
6.096064878e-07
6.566761823e-07
7.257074514e-07
8.133011294e-07
9.142901834e-07
1.021030128e-06
1.122979704e-06
1.206730159e-06
1.256702184e-06
8.457109009e-07
9.090788247e-07
1.002030071e-06
1.120024368e-06
1.256162845e-06
1.40021212e-06
1.537993e-06
1.651357752e-06
1.719093045e-06
1.165938766e-06
1.250962046e-06
1.37573148e-06
1.534235709e-06
1.71732974e-06
1.911386166e-06
2.09739038e-06
2.250793681e-06
2.342647329e-06
1.596913204e-06
1.710535451e-06
1.877378076e-06
2.089553942e-06
2.335034928e-06
2.595784271e-06
2.846407639e-06
3.053755372e-06
3.178280059e-06
2.172062429e-06
2.323156437e-06
2.545193546e-06
2.827916992e-06
3.155633286e-06
3.504632403e-06
3.841183703e-06
4.120689723e-06
4.289202674e-06
2.932603486e-06
3.132305869e-06
3.426015203e-06
3.800499808e-06
4.235442747e-06
4.699905288e-06
5.149397389e-06
5.524311426e-06
5.751404653e-06
3.928336567e-06
4.190320124e-06
4.575919378e-06
5.068175411e-06
5.640968361e-06
6.254236269e-06
6.849792415e-06
7.348615995e-06
7.652046626e-06
5.218079957e-06
5.558687019e-06
6.060289588e-06
6.701248182e-06
7.448183606e-06
8.249620237e-06
9.030066194e-06
9.685833501e-06
1.008609393e-05
6.86953251e-06
7.307672858e-06
7.953068459e-06
8.77817287e-06
9.740546326e-06
1.077437423e-05
1.178271336e-05
1.263171246e-05
1.315124833e-05
8.958319738e-06
9.515025904e-06
1.033493696e-05
1.138297522e-05
1.26051887e-05
1.391816767e-05
1.519911415e-05
1.627836684e-05
1.693965706e-05
1.156595984e-05
1.226346278e-05
1.328992372e-05
1.460065434e-05
1.612746112e-05
1.776556497e-05
1.936178705e-05
2.070561049e-05
2.15289132e-05
1.47760622e-05
1.563618764e-05
1.690021173e-05
1.851131059e-05
2.038366485e-05
2.238753855e-05
2.433520685e-05
2.597111632e-05
2.697181589e-05
1.866892365e-05
1.971114819e-05
2.123970908e-05
2.318266658e-05
2.543322533e-05
2.783293405e-05
3.015629741e-05
3.210053371e-05
3.328640556e-05
2.331472984e-05
2.455377398e-05
2.63662914e-05
2.866191836e-05
3.130958622e-05
3.411898293e-05
3.682526738e-05
3.907866563e-05
4.044747514e-05
2.87652463e-05
3.020839254e-05
3.231275954e-05
3.496668331e-05
3.801158999e-05
4.122348674e-05
4.42982644e-05
4.68429833e-05
4.838078697e-05
3.504472613e-05
3.668932956e-05
3.907861177e-05
4.207677574e-05
4.54959187e-05
4.907810357e-05
5.248263445e-05
5.528047638e-05
5.696097342e-05
4.214077022e-05
4.397215123e-05
4.662173639e-05
4.992784867e-05
5.367253866e-05
5.756579725e-05
6.123615955e-05
6.422870283e-05
6.601374608e-05
4.999638034e-05
5.198659305e-05
5.485279026e-05
5.840704036e-05
6.240262747e-05
6.652178254e-05
7.037067791e-05
7.348143557e-05
7.53225065e-05
5.850449321e-05
6.061234173e-05
6.36328783e-05
6.735336541e-05
7.150185345e-05
7.573956295e-05
7.966094116e-05
8.279972044e-05
8.464012463e-05
6.75062868e-05
6.967883832e-05
7.277553752e-05
7.65624158e-05
8.074822642e-05
8.498218724e-05
8.885950377e-05
9.193201148e-05
9.371950442e-05
7.679438098e-05
7.897005199e-05
8.205372109e-05
8.579597283e-05
8.989466966e-05
9.399811958e-05
9.771805382e-05
0.0001006379981
0.0001023227427
8.612173095e-05
8.823483153e-05
9.121213489e-05
9.479661031e-05
9.868665241e-05
0.0001025429992
0.0001060028996
0.0001086917598
0.0001102296988
9.52170508e-05
9.720382748e-05
9.99868774e-05
0.0001033116597
0.0001068858759
0.0001103921298
0.0001135036601
0.0001158962916
0.0001172521668
0.0001038128966
0.0001056182623
0.0001081316118
0.0001111092591
0.0001142781024
0.0001173517553
0.0001200473209
0.0001220964181
0.0001232459807
0.0001116631386
0.0001132423405
0.0001154261012
0.0001179897543
0.0001206878898
0.0001232724199
0.0001255092866
0.0001271878217
0.0001281187983
0.000118556505
0.0001198784402
0.000121692625
0.000123800385
0.0001259905508
0.0001280580762
0.0001298196593
0.0001311210438
0.0001318327995
0.0001243333188
0.0001253823445
0.0001268089014
0.0001284453957
0.0001301190271
0.0001316697537
0.0001329640822
0.0001339002334
0.0001344023178
0.0001288968774
0.0001296727883
0.0001307150639
0.0001318900141
0.0001330647464
0.0001341235448
0.0001349794028
0.0001355772314
0.0001358871499
0.0001322174977
0.0001327337834
0.0001334136894
0.0001341579408
0.0001348726689
0.0001354835935
0.0001359451732
0.0001362421872
0.0001363828066
0.0001343288876
0.0001346097151
0.0001349632773
0.0001353231754
0.0001356316931
0.0001358514964
0.0001359725047
0.0001360122431
0.0001360092197
0.0001353180268
0.0001353945684
0.0001354667388
0.0001354978984
0.0001354622206
0.0001353538935
0.0001351919663
0.0001350198547
0.0001348993822
0.0001353108179
0.0001352175616
0.0001350571473
0.0001348185728
0.0001345028772
0.0001341300247
0.0001337420571
0.0001334020751
0.0001331891329
0.0001344561973
0.0001342277428
0.0001338830993
0.0001334323387
0.0001328981443
0.0001323206815
0.0001317593986
0.0001312917291
0.0001310088916
0.0001329111404
0.000132579781
0.0001320956362
0.0001314853143
0.0001307881645
0.0001300594879
0.0001293713056
0.0001288109503
0.0001284777241
0.0001308283102
0.0001304224925
0.0001298379808
0.0001291137453
0.0001283013552
0.0001274668822
0.0001266909132
0.0001260671318
0.000125699728
0.0001283472163
0.0001278908023
0.0001272385811
0.000126438272
0.0001255498997
0.0001246467132
0.0001238146638
0.0001231510322
0.0001227624581
0.0001255889606
0.000125101122
0.0001244073234
0.0001235610628
0.0001226277767
0.0001216850476
0.0001208217202
0.0001201365963
0.0001197369507
0.0001226540904
0.000122149633
0.0001214343731
0.0001205652519
0.0001196107566
0.000118650635
0.0001177747787
0.0001170819907
0.0001166788647
0.0001196227973
0.0001191127278
0.000118390921
0.0001175159999
0.0001165577395
0.0001155964598
0.0001147217649
0.0001140313784
0.0001136302881
0.0001165566511
0.0001160488388
0.0001153311228
0.0001144625321
0.0001135128656
0.0001125618818
0.0001116979691
0.000111017037
0.0001106218422
0.0001135011589
0.0001130009922
0.0001122946326
0.0001114406274
0.0001105079279
0.0001095749657
0.0001087282962
0.000108061537
0.0001076748143
0.0001104885985
0.0001099995737
0.0001093092679
0.0001084751605
0.0001075647852
0.0001066547552
0.0001058294076
0.0001051797817
0.000104803141
0.000107540765
0.0001070649828
0.0001063935372
0.0001055824759
0.0001046975677
0.0001038133163
0.0001030116239
0.0001023808036
0.0001020151458
0.0001046714274
0.0001042099913
0.0001035588624
0.0001027724522
0.0001019145761
0.0001010574796
0.000100280533
9.966927316e-05
9.931499341e-05
0.0001018883997
0.0001014417238
0.0001008114349
0.0001000502147
9.9219846e-05
9.839026581e-05
9.763829759e-05
9.704671894e-05
9.670386232e-05
9.919521255e-05
9.8763251e-05
9.815370342e-05
9.741750191e-05
9.661439015e-05
9.581201194e-05
9.508468335e-05
9.45124843e-05
9.418086234e-05
9.659241538e-05
9.61748294e-05
9.558552821e-05
9.487372168e-05
9.409715495e-05
9.332123521e-05
9.261784498e-05
9.206445604e-05
9.174373197e-05
9.40785611e-05
9.367483664e-05
9.310505037e-05
9.241674585e-05
9.16657381e-05
9.091527919e-05
9.023491208e-05
8.969960601e-05
8.938935575e-05
9.165093133e-05
9.126046036e-05
9.07093312e-05
9.004349271e-05
8.931691346e-05
8.859078499e-05
8.793241509e-05
8.741438372e-05
8.71141386e-05
8.930605773e-05
8.892819272e-05
8.839481051e-05
8.775034403e-05
8.704700574e-05
8.634402668e-05
8.570658741e-05
8.520499389e-05
8.491426978e-05
8.704008756e-05
8.667417689e-05
8.615762727e-05
8.553343611e-05
8.485215131e-05
8.417114374e-05
8.355357385e-05
8.306758713e-05
8.278590374e-05
8.48490333e-05
8.449444331e-05
8.399383777e-05
8.338885723e-05
8.272847437e-05
8.206829728e-05
8.14695699e-05
8.099838648e-05
8.072527959e-05
8.272893772e-05
8.238506567e-05
8.189955916e-05
8.131277694e-05
8.067220148e-05
8.003177074e-05
7.945091055e-05
7.899376745e-05
7.872879623e-05
8.067597849e-05
8.034225935e-05
7.987105965e-05
7.930152658e-05
7.867973214e-05
7.805803111e-05
7.749412343e-05
7.705030501e-05
7.67930559e-05
7.868653032e-05
7.836243959e-05
7.79048111e-05
7.735164557e-05
7.674767853e-05
7.614376231e-05
7.559595676e-05
7.516479756e-05
7.491488583e-05
7.67571979e-05
7.644225186e-05
7.599751592e-05
7.545990422e-05
7.487288398e-05
7.428587965e-05
7.375339033e-05
7.333427508e-05
7.30913449e-05
7.488482907e-05
7.457858343e-05
7.414611649e-05
7.362331061e-05
7.305242727e-05
7.248153159e-05
7.196363498e-05
7.155599698e-05
7.131972051e-05
7.306651502e-05
7.276856271e-05
7.234779323e-05
7.183910726e-05
7.128361772e-05
7.072809325e-05
7.022412473e-05
6.982744324e-05
6.959751912e-05
7.129958261e-05
7.100955111e-05
7.059995581e-05
7.010476133e-05
6.956398439e-05
6.902315477e-05
6.853250456e-05
6.814630163e-05
6.792245316e-05
6.958158111e-05
6.929912945e-05
6.890022913e-05
6.841795049e-05
6.789126187e-05
6.736450702e-05
6.688661575e-05
6.651045272e-05
6.629242586e-05
6.791026606e-05
6.763508197e-05
6.724643774e-05
6.677654742e-05
6.626337473e-05
6.575012569e-05
6.528447985e-05
6.491795388e-05
6.470551528e-05
6.628358302e-05
6.601538024e-05
6.563658954e-05
6.517860343e-05
6.467842105e-05
6.417815511e-05
6.372428273e-05
6.336702339e-05
6.31599584e-05
6.469965068e-05
6.443816619e-05
6.406885902e-05
6.362233197e-05
6.313465637e-05
6.26468924e-05
6.220435883e-05
6.185602489e-05
6.165413576e-05
6.315674409e-05
6.290173569e-05
6.254157117e-05
6.210609291e-05
6.16304782e-05
6.115477235e-05
6.072317642e-05
6.03834528e-05
6.018655688e-05
6.165327893e-05
6.140452295e-05
6.105318622e-05
6.062837759e-05
6.01644115e-05
5.970035317e-05
5.927932363e-05
5.894791866e-05
5.875584685e-05
6.018779686e-05
5.994508612e-05
5.960228545e-05
5.918779501e-05
5.873509523e-05
5.828230347e-05
5.787149573e-05
5.754813859e-05
5.736073384e-05
5.875895199e-05
5.852209399e-05
5.818755819e-05
5.778305913e-05
5.734127e-05
5.689939025e-05
5.649848345e-05
5.618292192e-05
5.600003793e-05
5.736549861e-05
5.713431387e-05
5.680779003e-05
5.641297744e-05
5.598176696e-05
5.555046812e-05
5.515916251e-05
5.485116087e-05
5.467266093e-05
5.600628013e-05
5.578060071e-05
5.546185214e-05
5.507644053e-05
5.465549774e-05
5.423446955e-05
5.385248416e-05
5.355182139e-05
5.337757727e-05
5.46802191e-05
5.445988733e-05
5.414869171e-05
5.377241287e-05
5.336144549e-05
5.295039622e-05
5.257746675e-05
5.228393492e-05
5.211382598e-05
5.338630838e-05
5.31711757e-05
5.286732351e-05
5.249992456e-05
5.209865694e-05
5.169731134e-05
5.133318835e-05
5.104659114e-05
5.088050349e-05
5.212360327e-05
5.19135292e-05
5.16168223e-05
5.125806401e-05
5.086623528e-05
5.047433278e-05
5.011878006e-05
4.983893156e-05
4.96767573e-05
5.089121452e-05
5.068606581e-05
5.039631619e-05
5.004597151e-05
4.966333399e-05
4.928062712e-05
4.893342028e-05
4.866014381e-05
4.850178042e-05
4.968830227e-05
4.948795211e-05
4.92049808e-05
4.886283356e-05
4.848915136e-05
4.811540437e-05
4.777632957e-05
4.750945677e-05
4.735480654e-05
4.851407063e-05
4.831839798e-05
4.804203413e-05
4.770787788e-05
4.734292569e-05
4.697791332e-05
4.664676621e-05
4.638613615e-05
4.623510569e-05
4.736776302e-05
4.7176652e-05
4.690673202e-05
4.658036908e-05
4.622393108e-05
4.586743752e-05
4.55440223e-05
4.528948075e-05
4.514198055e-05
4.624865799e-05
4.606199741e-05
4.579836428e-05
4.547960485e-05
4.51314738e-05
4.478329179e-05
4.446742035e-05
4.421881915e-05
4.407476321e-05
4.51560657e-05
4.497374857e-05
4.471625123e-05
4.440491266e-05
4.406488909e-05
4.372481909e-05
4.341631033e-05
4.317350681e-05
4.303281234e-05
4.40893248e-05
4.391124796e-05
4.365974072e-05
4.335564687e-05
4.302353838e-05
4.26913879e-05
4.239006708e-05
4.215292358e-05
4.20155107e-05
4.304779964e-05
4.287386346e-05
4.262820557e-05
4.233118623e-05
4.200680689e-05
4.168238987e-05
4.138808809e-05
4.115647155e-05
4.102226302e-05
4.203087801e-05
4.186098604e-05
4.162104128e-05
4.133093171e-05
4.10141015e-05
4.069723783e-05
4.040979155e-05
4.01835731e-05
4.005249416e-05
4.103796903e-05
4.087202779e-05
4.063766411e-05
4.035430457e-05
4.004484899e-05
3.9735364e-05
3.945461464e-05
3.923366934e-05
3.910564747e-05
4.006850138e-05
3.990642014e-05
3.967750934e-05
3.940074479e-05
3.909849439e-05
3.87962185e-05
3.852201207e-05
3.830621859e-05
3.818118339e-05
3.912192177e-05
3.896361235e-05
3.874002984e-05
3.846970956e-05
3.817449965e-05
3.787926801e-05
3.761145482e-05
3.740069522e-05
3.727857825e-05
3.81976936e-05
3.80430702e-05
3.782469476e-05
3.756067211e-05
3.727234242e-05
3.698399462e-05
3.6722429e-05
3.65165885e-05
3.639732317e-05
3.729529578e-05
3.714427484e-05
3.693098842e-05
3.667312059e-05
3.639151504e-05
3.610989483e-05
3.58544349e-05
3.565340171e-05
3.553692315e-05
3.641422172e-05
3.62667218e-05
3.605840935e-05
3.580655712e-05
3.553152357e-05
3.525647867e-05
3.500698613e-05
3.481065129e-05
3.469689628e-05
3.555397842e-05
3.540992012e-05
3.52064694e-05
3.496049702e-05
3.469188707e-05
3.442326893e-05
3.417960889e-05
3.398786612e-05
3.3876773e-05
3.471408577e-05
3.457339156e-05
3.437469306e-05
3.413446802e-05
3.387213685e-05
3.36098005e-05
3.337184132e-05
3.318458689e-05
3.30760955e-05
3.389407578e-05
3.375666999e-05
3.356261677e-05
3.332800969e-05
3.30718159e-05
3.281561979e-05
3.258323291e-05
3.240036555e-05
3.229441713e-05
3.309349204e-05
3.295930074e-05
3.276978834e-05
3.254067285e-05
3.229047831e-05
3.204028416e-05
3.181334403e-05
3.163476481e-05
3.153130198e-05
3.231188919e-05
3.218084015e-05
3.19957665e-05
3.177201909e-05
3.152768882e-05
3.128336152e-05
3.106174545e-05
3.088735771e-05
3.07863244e-05
3.154883244e-05
3.142085506e-05
3.124012038e-05
3.102162035e-05
3.078302242e-05
3.054442991e-05
3.032801797e-05
3.015772725e-05
3.005906865e-05
3.08038972e-05
3.067892242e-05
3.050242918e-05
3.028905852e-05
3.005606394e-05
2.98230771e-05
2.961175206e-05
2.944546599e-05
2.934912855e-05
3.007666864e-05
2.995462898e-05
2.978228179e-05
2.957392509e-05
2.934640775e-05
2.911890033e-05
2.891254756e-05
2.875017584e-05
2.865610716e-05
2.936674146e-05
2.924757089e-05
2.907927647e-05
2.887582088e-05
2.865365742e-05
2.843150598e-05
2.823001336e-05
2.807146769e-05
2.797961658e-05
2.867371954e-05
2.855735349e-05
2.839302059e-05
2.819435573e-05
2.797742553e-05
2.776050931e-05
2.756376723e-05
2.740896125e-05
2.731927762e-05
2.799721571e-05
2.788359101e-05
2.77231304e-05
2.752914831e-05
2.731733338e-05
2.71055343e-05
2.691343553e-05
2.676228479e-05
2.667471966e-05
2.73368515e-05
2.722590639e-05
2.706923078e-05
2.687982587e-05
2.667301082e-05
2.646621337e-05
2.627865308e-05
2.613107499e-05
2.604558048e-05
2.669225698e-05
2.658393104e-05
2.643095507e-05
2.624602407e-05
2.604409605e-05
2.584218731e-05
2.565906295e-05
2.551497677e-05
2.543150604e-05
2.60630706e-05
2.595730473e-05
2.580794492e-05
2.562738686e-05
2.543023552e-05
2.523310506e-05
2.50543164e-05
2.491364319e-05
2.483215048e-05
2.544893899e-05
2.534567543e-05
2.519985017e-05
2.502356632e-05
2.48310838e-05
2.463862369e-05
2.446407275e-05
2.432673535e-05
2.424717592e-05
2.484951696e-05
2.474869925e-05
2.460632876e-05
2.443422265e-05
2.424630354e-05
2.405840829e-05
2.388799936e-05
2.37539224e-05
2.367625256e-05
2.426446738e-05
2.416604034e-05
2.402704669e-05
2.385902407e-05
2.367556541e-05
2.349213204e-05
2.332577163e-05
2.319488152e-05
2.311905861e-05
2.369346119e-05
2.359737096e-05
2.346167807e-05
2.329764693e-05
2.311854822e-05
2.293947618e-05
2.277707309e-05
2.264929803e-05
2.257528044e-05
2.313617748e-05
2.304237151e-05
2.290990514e-05
2.274977573e-05
2.257493897e-05
2.240013026e-05
2.224159556e-05
2.211686558e-05
2.204461276e-05
2.259230362e-05
2.250073068e-05
2.237141851e-05
2.22151034e-05
2.204443312e-05
2.187379229e-05
2.171903943e-05
2.159728643e-05
2.152675894e-05
2.206153548e-05
2.197214572e-05
2.184591738e-05
2.169333151e-05
2.152673488e-05
2.136016915e-05
2.120911404e-05
2.109027188e-05
2.102143141e-05
2.154357781e-05
2.145632282e-05
2.133310996e-05
2.118417078e-05
2.102155772e-05
2.085897712e-05
2.071153823e-05
2.059554282e-05
2.052835228e-05
2.103814471e-05
2.095297758e-05
2.083271403e-05
2.068734163e-05
2.052862502e-05
2.036994256e-05
2.022604112e-05
2.01128306e-05
2.004725419e-05
2.054496033e-05
2.04618358e-05
2.034445769e-05
2.020257501e-05
2.004767089e-05
1.989280282e-05
1.975236308e-05
1.964187799e-05
1.957788134e-05
2.006375974e-05
1.99826343e-05
1.986808033e-05
1.972961345e-05
1.957844133e-05
1.942730748e-05
1.9290257e-05
1.918244054e-05
1.911999085e-05
1.959429007e-05
1.951512219e-05
1.940333386e-05
1.926821231e-05
1.912069562e-05
1.89732198e-05
1.883948984e-05
1.873428821e-05
1.867335446e-05
1.913631188e-05
1.905906224e-05
1.894998422e-05
1.881814146e-05
1.867420799e-05
1.853031851e-05
1.839984456e-05
1.829720738e-05
1.823776055e-05
1.868960092e-05
1.861423269e-05
1.850781326e-05
1.837918719e-05
1.823876974e-05
1.809840008e-05
1.797112243e-05
1.78710032e-05
1.781301661e-05
1.82539501e-05
1.818042933e-05
1.807662087e-05
1.795115452e-05
1.781419164e-05
1.767728119e-05
1.755314568e-05
1.745550241e-05
1.739895204e-05
1.78291719e-05
1.775746793e-05
1.765622758e-05
1.753386985e-05
1.740030668e-05
1.726680168e-05
1.714576057e-05
1.705055647e-05
1.699542139e-05
1.741510106e-05
1.734518702e-05
1.724647738e-05
1.712718394e-05
1.699697326e-05
1.686682782e-05
1.674884074e-05
1.665604501e-05
1.660230788e-05
1.701159754e-05
1.694345092e-05
1.684724086e-05
1.673097517e-05
1.660407852e-05
1.647725579e-05
1.636229087e-05
1.627187961e-05
1.621952715e-05
1.661854979e-05
1.655215306e-05
1.645841863e-05
1.634515303e-05
1.622154193e-05
1.60980154e-05
1.598605045e-05
1.589800759e-05
1.584703122e-05
1.623587811e-05
1.61712194e-05
1.607994476e-05
1.596966166e-05
1.584931897e-05
1.572907379e-05
1.562009752e-05
1.553441588e-05
1.548481229e-05
1.586353805e-05
1.580061183e-05
1.571179027e-05
1.560448335e-05
1.548740457e-05
1.537043893e-05
1.526445228e-05
1.518113452e-05
1.513290624e-05
1.550152369e-05
1.544033145e-05
1.535396635e-05
1.524964178e-05
1.513583638e-05
1.502216283e-05
1.491918008e-05
1.48382397e-05
1.479139569e-05
1.514987053e-05
1.509042145e-05
1.50065272e-05
1.490520469e-05
1.479469729e-05
1.46843439e-05
1.458439381e-05
1.450585596e-05
1.44604121e-05
1.480865783e-05
1.475096933e-05
1.466957209e-05
1.457128586e-05
1.446411721e-05
1.435712855e-05
1.426025516e-05
1.418415726e-05
1.414013665e-05
1.447801016e-05
1.442210826e-05
1.434324654e-05
1.424804594e-05
1.414427361e-05
1.404071132e-05
1.39469744e-05
1.387336649e-05
1.383079965e-05
1.415809783e-05
1.410401743e-05
1.402774228e-05
1.3935692e-05
1.38353905e-05
1.37353334e-05
1.364480855e-05
1.357375319e-05
1.353267801e-05
1.384913589e-05
1.379692063e-05
1.372329556e-05
1.363447538e-05
1.353773579e-05
1.344127937e-05
1.335405734e-05
1.328562915e-05
1.324609049e-05
1.35513814e-05
1.350108333e-05
1.343018366e-05
1.334468761e-05
1.32516165e-05
1.315887164e-05
1.307505707e-05
1.300934152e-05
1.297139053e-05
1.326512889e-05
1.321680762e-05
1.31487193e-05
1.306665411e-05
1.297737166e-05
1.288846258e-05
1.280817194e-05
1.274526356e-05
1.270895655e-05
1.299070366e-05
1.294442519e-05
1.287924297e-05
1.280072567e-05
1.271536293e-05
1.263042417e-05
1.255378278e-05
1.249378273e-05
1.24591796e-05
1.272845295e-05
1.268428796e-05
1.262211291e-05
1.254726769e-05
1.24659628e-05
1.238513528e-05
1.231227351e-05
1.225528627e-05
1.222244857e-05
1.247873489e-05
1.243675656e-05
1.237769288e-05
1.230664704e-05
1.222954067e-05
1.215296677e-05
1.208401527e-05
1.203014477e-05
1.199913331e-05
1.224190541e-05
1.22021868e-05
1.2146338e-05
1.207921716e-05
1.200644695e-05
1.193426471e-05
1.186934893e-05
1.181869399e-05
1.17895661e-05
1.201830342e-05
1.198091441e-05
1.19283789e-05
1.186530146e-05
1.179699582e-05
1.172933246e-05
1.16685665e-05
1.162121581e-05
1.159402227e-05
1.180823453e-05
1.177323848e-05
1.172410471e-05
1.166517586e-05
1.160144719e-05
1.153841211e-05
1.148189218e-05
1.143791898e-05
1.14127009e-05
1.161195413e-05
1.157940428e-05
1.153374565e-05
1.147905107e-05