/*--------------------------------*- C++ -*----------------------------------*\
| =========                 |                                                 |
| \\      /  F ield         | OpenFOAM: The Open Source CFD Toolbox           |
|  \\    /   O peration     | Version:  2212                                  |
|   \\  /    A nd           | Website:  www.openfoam.com                      |
|    \\/     M anipulation  |                                                 |
\*---------------------------------------------------------------------------*/
FoamFile
{
    version     2.0;
    format      ascii;
    arch        "LSB;label=32;scalar=64";
    class       volScalarField;
    location    "30.00000000";
    object      C3H3_0;
}
// * * * * * * * * * * * * * * * * * * * * * * * * * * * * * * * * * * * * * //

dimensions      [0 0 0 0 0 0 0];

internalField   nonuniform List<scalar> 
3000
(
1.990205497e-22
2.235952608e-22
2.606801064e-22
3.101021912e-22
3.713617672e-22
4.427978539e-22
5.20108213e-22
5.938852626e-22
6.460522718e-22
7.473019686e-22
8.429693101e-22
9.872762477e-22
1.180017265e-21
1.421010844e-21
1.708938558e-21
2.038797148e-21
2.394013469e-21
2.708574876e-21
1.674335736e-21
1.903553642e-21
2.252612252e-21
2.726588602e-21
3.334023074e-21
4.083760251e-21
4.972812365e-21
5.951348056e-21
6.78738169e-21
3.190234255e-21
3.665047952e-21
4.398719799e-21
5.416134524e-21
6.753395951e-21
8.444559123e-21
1.048038457e-20
1.269811043e-20
1.448801105e-20
5.667610128e-21
6.591225488e-21
8.0408639e-21
1.009031433e-20
1.283612456e-20
1.635544499e-20
2.058952134e-20
2.508654819e-20
2.853887523e-20
9.751269214e-21
1.148585071e-20
1.424740395e-20
1.821252817e-20
2.359312851e-20
3.05250841e-20
3.88016186e-20
4.737933603e-20
5.372618585e-20
1.656505483e-20
1.975353072e-20
2.488898019e-20
3.234597278e-20
4.254058161e-20
5.567644665e-20
7.121092432e-20
8.699667955e-20
9.838877815e-20
2.805427991e-20
3.382872299e-20
4.321192735e-20
5.694232279e-20
7.578716934e-20
1.000194454e-19
1.284246093e-19
1.568685635e-19
1.770527842e-19
4.759230801e-20
5.793908002e-20
7.486030031e-20
9.974528217e-20
1.339584796e-19
1.778304756e-19
2.288843799e-19
2.794737301e-19
3.149743875e-19
8.102380933e-20
9.941516724e-20
1.296276682e-19
1.74197496e-19
2.355031005e-19
3.138979852e-19
4.046092017e-19
4.938284628e-19
5.559681117e-19
1.384817918e-19
1.709740914e-19
2.245114743e-19
3.036307348e-19
4.124290422e-19
5.511984289e-19
7.110650561e-19
8.67482326e-19
9.758915051e-19
2.375396231e-19
2.946808724e-19
3.890130019e-19
5.285378116e-19
7.202520315e-19
9.641778537e-19
1.244177024e-18
1.517133907e-18
1.705882247e-18
4.08697807e-19
5.0885842e-19
6.744064422e-19
9.193232831e-19
1.2554579e-18
1.681987844e-18
2.169772507e-18
2.643879599e-18
2.972949494e-18
7.049316155e-19
8.801464014e-19
1.170002451e-18
1.598869243e-18
2.186748483e-18
2.930348081e-18
3.775669249e-18
4.591191226e-18
5.173174582e-18
1.218257213e-18
1.524456643e-18
2.031534814e-18
2.782378714e-18
3.811679526e-18
5.111062399e-18
6.573479899e-18
7.91551564e-18
9.017069495e-18
2.108300079e-18
2.64292837e-18
3.529456111e-18
4.844590098e-18
6.65353214e-18
8.955723185e-18
1.16092406e-17
1.426072586e-17
1.591841985e-17
3.651582337e-18
4.583455703e-18
6.129637514e-18
8.424263879e-18
1.157993226e-17
1.558881327e-17
2.017536475e-17
2.462231343e-17
2.764142832e-17
6.327687186e-18
7.949554512e-18
1.064113257e-17
1.463518545e-17
2.012457336e-17
2.708856106e-17
3.503768493e-17
4.272612771e-17
4.798889946e-17
1.096895711e-17
1.378914105e-17
1.846989666e-17
2.541513505e-17
3.495749887e-17
4.705665634e-17
6.085912081e-17
7.420495698e-17
8.334664009e-17
1.902016936e-17
2.39215726e-17
3.205742008e-17
4.412919792e-17
6.071296351e-17
8.173546444e-17
1.057115272e-16
1.288897146e-16
1.447645311e-16
3.298927364e-17
4.15052711e-17
5.564230212e-17
7.66189815e-17
1.054341871e-16
1.419569619e-16
1.836034814e-16
2.238560456e-16
2.514200957e-16
5.723016763e-17
7.202361202e-17
9.658336083e-17
1.330261359e-16
1.83084387e-16
2.465251599e-16
3.188542653e-16
3.887494423e-16
4.366050443e-16
9.93023609e-17
1.24997492e-16
1.676580612e-16
2.309598771e-16
3.179074172e-16
4.280872586e-16
5.536841487e-16
6.750337218e-16
7.581103453e-16
1.72332747e-16
2.16960101e-16
2.910547125e-16
4.009979811e-16
5.519991963e-16
7.433254037e-16
9.613887217e-16
1.172046361e-15
1.316247285e-15
2.991180943e-16
3.766241043e-16
5.053060334e-16
6.962381565e-16
9.584486718e-16
1.290637862e-15
1.66918738e-15
2.034822294e-15
2.285086468e-15
5.192495436e-16
6.538542452e-16
8.773266863e-16
1.208875744e-15
1.664136287e-15
2.240794292e-15
2.897797865e-15
3.532262676e-15
3.966473095e-15
9.014841362e-16
1.135247038e-15
1.523310425e-15
2.098971484e-15
2.889276459e-15
3.890073586e-15
5.029994363e-15
6.130505251e-15
6.883492071e-15
1.565221086e-15
1.971174933e-15
2.644994938e-15
3.644346052e-15
5.015937408e-15
6.75224488e-15
8.729157094e-15
1.063698105e-14
1.194190623e-14
2.717746772e-15
3.422678118e-15
4.592513593e-15
6.326992756e-15
8.706593738e-15
1.171750059e-14
1.514378462e-14
1.844850632e-14
2.070778053e-14
4.718756774e-15
5.942677737e-15
7.97318514e-15
1.098249732e-14
1.510883096e-14
2.032639794e-14
2.625929061e-14
3.197722967e-14
3.588352392e-14
8.191947962e-15
1.031637965e-14
1.383943563e-14
1.90577923e-14
2.620779076e-14
3.524040349e-14
4.550071847e-14
5.537856456e-14
6.211995448e-14
1.421758863e-14
1.790341106e-14
2.401249976e-14
3.305434168e-14
4.543069192e-14
6.104656662e-14
7.876000854e-14
9.57878926e-14
1.073927632e-13
2.466388082e-14
3.105408286e-14
4.163799531e-14
5.728696264e-14
7.867861902e-14
1.056256969e-13
1.361353731e-13
1.654062252e-13
1.853172944e-13
4.275511494e-14
5.382214011e-14
7.213509911e-14
9.917618291e-14
1.360767171e-13
1.824621421e-13
2.348526739e-13
2.849862255e-13
3.190043268e-13
7.404163667e-14
9.317924347e-14
1.248090746e-13
1.714349414e-13
2.349206642e-13
3.145096494e-13
4.041246561e-13
4.895972995e-13
5.47411245e-13
1.280473917e-13
1.610723893e-13
2.155723541e-13
2.957397326e-13
4.045926868e-13
5.405960094e-13
6.931425154e-13
8.380438682e-13
9.356708627e-13
2.210519815e-13
2.778858523e-13
3.715002379e-13
5.08837881e-13
6.946784172e-13
9.259100745e-13
1.18405116e-12
1.428042572e-12
1.591653336e-12
3.807572381e-13
4.782216743e-13
6.383896641e-13
8.726021267e-13
1.188210961e-12
1.57894933e-12
2.012719633e-12
2.420319036e-12
2.692123077e-12
6.540566563e-13
8.204682009e-13
1.093174326e-12
1.490392146e-12
2.023000004e-12
2.678519207e-12
3.401489371e-12
4.076273127e-12
4.523404617e-12
1.119864346e-12
1.402487963e-12
1.864090203e-12
2.5333429e-12
3.425501067e-12
4.516100279e-12
5.710002483e-12
6.815925734e-12
7.543615985e-12
1.910106837e-12
2.387070874e-12
3.163037755e-12
4.282034064e-12
5.763809871e-12
7.561307894e-12
9.512859956e-12
1.1305691e-11
1.247646564e-11
3.24373273e-12
4.04276892e-12
5.336858692e-12
7.191615152e-12
9.629345891e-12
1.256148785e-11
1.571648073e-11
1.858938205e-11
2.045062009e-11
5.481222694e-12
6.808627115e-12
8.94751055e-12
1.199214446e-11
1.596090564e-11
2.069103346e-11
2.573247288e-11
3.028113342e-11
3.320413157e-11
9.210946757e-12
1.139551129e-11
1.489573978e-11
1.984101452e-11
2.623041515e-11
3.377221351e-11
4.173157826e-11
4.884614195e-11
5.338092281e-11
1.538428301e-11
1.894266915e-11
2.460929323e-11
3.255137951e-11
4.271744304e-11
5.459778764e-11
6.701149813e-11
7.800502401e-11
8.495661867e-11
2.552426874e-11
3.125644024e-11
4.032558976e-11
5.293015214e-11
6.891011817e-11
8.739731471e-11
1.065245868e-10
1.233111516e-10
1.338451122e-10
4.204343576e-11
5.116941958e-11
6.551093217e-11
8.527233586e-11
1.100845862e-10
1.38504999e-10
1.676287676e-10
1.929688828e-10
2.087565127e-10
6.872132506e-11
8.307389161e-11
1.054749084e-10
1.360764854e-10
1.741349676e-10
2.173087262e-10
2.611487473e-10
2.989858938e-10
3.224033603e-10
1.114122373e-10
1.337043724e-10
1.682611703e-10
2.150706921e-10
2.727528654e-10
3.375896895e-10
4.028668953e-10
4.587872056e-10
4.931876246e-10
1.790808316e-10
2.132725809e-10
2.659264555e-10
3.366720505e-10
4.230923967e-10
5.194024921e-10
6.156070335e-10
6.974650961e-10
7.47549253e-10
2.852998285e-10
3.370969144e-10
4.163615856e-10
5.220483595e-10
6.501070309e-10
7.917006771e-10
9.321339538e-10
1.050902541e-09
1.123222499e-09
4.503941454e-10
5.27921659e-10
6.458656129e-10
8.020134836e-10
9.898130418e-10
1.195987324e-09
1.399172264e-09
1.570093997e-09
1.673736528e-09
7.04484786e-10
8.191948683e-10
9.927638939e-10
1.221073881e-09
1.493827538e-09
1.791371406e-09
2.082958424e-09
2.327104425e-09
2.474618182e-09
1.091781256e-09
1.259677978e-09
1.512473378e-09
1.84306388e-09
2.235656503e-09
2.661547812e-09
3.076888894e-09
3.423270741e-09
3.631927063e-09
1.676506392e-09
1.919775155e-09
2.284442116e-09
2.758881808e-09
3.319367697e-09
3.924459319e-09
4.512103126e-09
5.000528549e-09
5.294013671e-09
2.551162142e-09
2.900381507e-09
3.421853255e-09
4.097265502e-09
4.891578019e-09
5.745556167e-09
6.571978452e-09
7.256938462e-09
7.667680488e-09
3.848021391e-09
4.345148108e-09
5.085014532e-09
6.039609807e-09
7.157933738e-09
8.356056131e-09
9.512111382e-09
1.046810326e-08
1.104046866e-08
5.75495484e-09
6.457359031e-09
7.49978204e-09
8.840366729e-09
1.040581162e-08
1.207811226e-08
1.368787925e-08
1.501672072e-08
1.581139906e-08
8.537199049e-09
9.523146175e-09
1.098291219e-08
1.285513978e-08
1.503562399e-08
1.735956566e-08
1.959251436e-08
2.143337999e-08
2.253338852e-08
1.256725406e-08
1.394340521e-08
1.59769718e-08
1.857945172e-08
2.160410046e-08
2.4822034e-08
2.790978302e-08
3.045303063e-08
3.197201506e-08
1.836595657e-08
2.027772584e-08
2.309850947e-08
2.670236062e-08
3.088422111e-08
3.532754633e-08
3.958710798e-08
4.309356582e-08
4.518743629e-08
2.66589503e-08
2.930490598e-08
3.32045418e-08
3.818057137e-08
4.394821132e-08
5.007115115e-08
5.593766898e-08
6.076596234e-08
6.364944477e-08
3.845400006e-08
4.210590368e-08
4.748386094e-08
5.434057051e-08
6.228261044e-08
7.071026635e-08
7.878397184e-08
8.54299718e-08
8.940063995e-08
5.514548799e-08
6.017627739e-08
6.758148518e-08
7.701901576e-08
8.794804353e-08
9.954608925e-08
1.106610964e-07
1.198163188e-07
1.252904894e-07
7.865344987e-08
8.557673598e-08
9.576686468e-08
1.087546796e-07
1.238004212e-07
1.397781437e-07
1.551057833e-07
1.677464914e-07
1.753147643e-07
1.116053343e-07
1.211314088e-07
1.351577101e-07
1.530471775e-07
1.73793821e-07
1.958590812e-07
2.170667804e-07
2.345941209e-07
2.451105056e-07
1.575671077e-07
1.706816524e-07
1.90009536e-07
2.146966177e-07
2.433854732e-07
2.739792719e-07
3.034780248e-07
3.279428024e-07
3.426714885e-07
2.213254386e-07
2.393978056e-07
2.660747599e-07
3.002305903e-07
3.40054106e-07
3.827007134e-07
4.240266011e-07
4.584877209e-07
4.793446146e-07
3.092161492e-07
3.341426355e-07
3.710228026e-07
4.18406943e-07
4.739165184e-07
5.33721778e-07
5.9209555e-07
6.41163589e-07
6.710954546e-07
4.294889729e-07
4.638718021e-07
5.148977384e-07
5.807536536e-07
6.583787428e-07
7.426710756e-07
8.257280168e-07
8.962881306e-07
9.397917833e-07
5.927040524e-07
6.400583001e-07
7.105833455e-07
8.020830727e-07
9.106993233e-07
1.029704039e-06
1.14822088e-06
1.250105535e-06
1.313680436e-06
8.121777498e-07
8.771476489e-07
9.742596388e-07
1.100919329e-06
1.252315228e-06
1.419584478e-06
1.58771834e-06
1.733558445e-06
1.825057416e-06
1.104520945e-06
1.193072926e-06
1.325853675e-06
1.4997972e-06
1.708818499e-06
1.941034788e-06
2.175409359e-06
2.37845187e-06
2.504719986e-06
1.490281912e-06
1.609809132e-06
1.789410844e-06
2.025288445e-06
2.309374767e-06
2.625178361e-06
2.942696069e-06
3.216466557e-06
3.388663916e-06
1.994503596e-06
2.153693715e-06
2.392974955e-06
2.70715207e-06
3.084652828e-06
3.501758893e-06
3.920170166e-06
4.284377244e-06
4.516089703e-06
2.646499456e-06
2.854676841e-06
3.166893928e-06
3.575350805e-06
4.061863758e-06
4.599827013e-06
5.143268474e-06
5.620333264e-06
5.926891188e-06
3.477196437e-06
3.742759728e-06
4.138206655e-06
4.65328341e-06
5.269352371e-06
5.953121313e-06
6.647223336e-06
7.260124867e-06
7.656927311e-06
4.511443242e-06
4.840539482e-06
5.331776212e-06
5.972581733e-06
6.740565706e-06
7.5945521e-06
8.463339339e-06
9.232784046e-06
9.733327058e-06
5.777159068e-06
6.18007468e-06
6.781738949e-06
7.566574178e-06
8.506871061e-06
9.551882774e-06
1.061450225e-05
1.155583314e-05
1.216953979e-05
7.311119704e-06
7.797062124e-06
8.521874372e-06
9.465617019e-06
1.059355833e-05
1.184351028e-05
1.311084432e-05
1.423106789e-05
1.496128565e-05
9.148743106e-06
9.724424483e-06
1.058101433e-05
1.16925946e-05
1.301549499e-05
1.44744444e-05
1.594621607e-05
1.724167978e-05
1.808423682e-05
1.131902247e-05
1.198738237e-05
1.29785178e-05
1.425855127e-05
1.57732434e-05
1.743296133e-05
1.909616304e-05
2.055148143e-05
2.149419058e-05
1.383950823e-05
1.459857874e-05
1.571957443e-05
1.715915487e-05
1.885071454e-05
2.068979264e-05
2.251843164e-05
2.41071021e-05
2.51306665e-05
1.671200161e-05
1.755421663e-05
1.87921196e-05
2.037165219e-05
2.221335174e-05
2.419875111e-05
2.6156243e-05
2.784417293e-05
2.892625792e-05
1.991952029e-05
2.083165383e-05
2.216549028e-05
2.385583431e-05
2.581093054e-05
2.79007271e-05
2.994505249e-05
3.169881622e-05
3.283178541e-05
2.342517293e-05
2.438899332e-05
2.579105771e-05
2.755573251e-05
2.958096401e-05
3.172984828e-05
3.382146418e-05
3.560828306e-05
3.672922793e-05
2.717397374e-05
2.816783786e-05
2.96064219e-05
3.140598838e-05
3.34568139e-05
3.562450967e-05
3.770049371e-05
3.943464221e-05
4.051634064e-05
3.109971388e-05
3.210156665e-05
3.354553071e-05
3.534836509e-05
3.738285407e-05
3.948176099e-05
4.146682981e-05
4.311135764e-05
4.412864912e-05
3.514283055e-05
3.613662404e-05
3.755419169e-05
3.92885958e-05
4.122112166e-05
4.320092481e-05
4.505346965e-05
4.657182038e-05
4.750140123e-05
3.920765055e-05
4.014761341e-05
4.148197494e-05
4.310661961e-05
4.489899421e-05
4.671580146e-05
4.839543753e-05
4.97549072e-05
5.057705943e-05
4.316080865e-05
4.402843532e-05
4.525283016e-05
4.673160341e-05
4.834547418e-05
4.996089533e-05
5.143359392e-05
5.260808384e-05
5.330792803e-05
4.69236909e-05
4.77005458e-05
4.878912921e-05
5.009099657e-05
5.149407936e-05
5.287779739e-05
5.411826323e-05
5.508973619e-05
5.565785346e-05
5.041550584e-05
5.108599073e-05
5.201763594e-05
5.311866102e-05
5.428734134e-05
5.541881377e-05
5.641160145e-05
5.717061112e-05
5.760314489e-05
5.356211716e-05
5.411492716e-05
5.48749747e-05
5.575966348e-05
5.668014047e-05
5.754925334e-05
5.828894884e-05
5.883445119e-05
5.913279305e-05
5.630187522e-05
5.673065201e-05
5.731160787e-05
5.797337743e-05
5.864182287e-05
5.924865789e-05
5.973929868e-05
6.007788931e-05
6.024804128e-05
5.858944275e-05
5.88928666e-05
5.929436676e-05
5.973524423e-05
6.015717156e-05
6.051104755e-05
6.07649394e-05
6.090965837e-05
6.096136735e-05
6.039791503e-05
6.057936062e-05
6.080756045e-05
6.103725294e-05
6.122626623e-05
6.134423283e-05
6.138034031e-05
6.134920149e-05
6.12949705e-05
6.171929999e-05
6.178615873e-05
6.185269029e-05
6.188719602e-05
6.186332365e-05
6.176835377e-05
6.161051683e-05
6.14249581e-05
6.127903852e-05
6.256353854e-05
6.252636872e-05
6.244709075e-05
6.230711118e-05
6.209497091e-05
6.181399322e-05
6.148902607e-05
6.11723363e-05
6.094976444e-05
6.295643875e-05
6.282794561e-05
6.262148726e-05
6.233064826e-05
6.195749427e-05
6.151945153e-05
6.105538793e-05
6.063130921e-05
6.034707124e-05
6.293626994e-05
6.273032397e-05
6.241671288e-05
6.199993355e-05
6.149391506e-05
6.092806687e-05
6.035265995e-05
5.984423217e-05
5.95126001e-05
6.25500993e-05
6.228085756e-05
6.188031211e-05
6.136239952e-05
6.075109899e-05
6.008563996e-05
5.942518262e-05
5.885386947e-05
5.848792102e-05
6.185011244e-05
6.153129925e-05
6.10632551e-05
6.046779598e-05
5.97771076e-05
5.903814289e-05
5.831662925e-05
5.770172842e-05
5.731304395e-05
6.089025772e-05
6.053462978e-05
6.001702887e-05
5.936560088e-05
5.861896015e-05
5.782983427e-05
5.70684445e-05
5.642675714e-05
5.602527236e-05
5.972344384e-05
5.934243864e-05
5.879127375e-05
5.810296003e-05
5.732089679e-05
5.650183797e-05
5.571870298e-05
5.506442037e-05
5.465840503e-05
5.83994033e-05
5.800295092e-05
5.743203461e-05
5.672319936e-05
5.592316288e-05
5.509118638e-05
5.430137598e-05
5.364613293e-05
5.324226202e-05
5.696323335e-05
5.655970104e-05
5.598061498e-05
5.526488622e-05
5.446128384e-05
5.363028857e-05
5.284595789e-05
5.219900238e-05
5.180249163e-05
5.545455646e-05
5.505079398e-05
5.447297208e-05
5.376137149e-05
5.296574666e-05
5.214674401e-05
5.137739118e-05
5.074582952e-05
5.036060549e-05
5.390719043e-05
5.350863999e-05
5.293953673e-05
5.224070589e-05
5.146201705e-05
5.066344098e-05
4.991622177e-05
4.93052977e-05
4.89341823e-05
5.234920838e-05
5.196005492e-05
5.140536643e-05
5.07258477e-05
4.997079256e-05
4.919884531e-05
4.84789098e-05
4.789229197e-05
4.753718599e-05
5.080327605e-05
5.042661547e-05
4.989052157e-05
4.923505801e-05
4.850841096e-05
4.776741309e-05
4.707823774e-05
4.651829611e-05
4.618035124e-05
4.928716012e-05
4.89251694e-05
4.84105755e-05
4.778240616e-05
4.708734505e-05
4.638006827e-05
4.572376576e-05
4.519182467e-05
4.487159811e-05
4.781432403e-05
4.746842269e-05
4.697718764e-05
4.637832282e-05
4.571672993e-05
4.504469966e-05
4.442229661e-05
4.391885819e-05
4.361644672e-05
4.639454861e-05
4.606554534e-05
4.559868703e-05
4.503015487e-05
4.440288409e-05
4.376664521e-05
4.317832326e-05
4.270325873e-05
4.241841207e-05
4.503453449e-05
4.472275577e-05
4.428063076e-05
4.374269141e-05
4.314979855e-05
4.254914247e-05
4.199444217e-05
4.154715186e-05
4.12793661e-05
4.373845902e-05
4.344385897e-05
4.302631544e-05
4.251864241e-05
4.195957905e-05
4.139373339e-05
4.087172289e-05
4.04512672e-05
4.01998603e-05
4.250847301e-05
4.223072528e-05
4.183723045e-05
4.135906107e-05
4.083283443e-05
4.030061831e-05
3.981003036e-05
3.941523492e-05
3.917940662e-05
4.134513186e-05
4.108370497e-05
4.07134493e-05
4.026370735e-05
3.976900983e-05
3.926895889e-05
3.880830013e-05
3.843783885e-05
3.821671733e-05
4.024776143e-05
4.000197955e-05
3.965396066e-05
3.923135463e-05
3.876666719e-05
3.82971326e-05
3.786476938e-05
3.751722897e-05
3.730990658e-05
3.921476282e-05
3.89838542e-05
3.865694342e-05
3.826004419e-05
3.782371753e-05
3.738294327e-05
3.697716804e-05
3.665109726e-05
3.645665741e-05
3.824386256e-05
3.802699743e-05
3.771999189e-05
3.734729323e-05
3.693761074e-05
3.652379298e-05
3.614287477e-05
3.583682146e-05
3.56543584e-05
3.733231505e-05
3.712863502e-05
3.684029781e-05
3.649026287e-05
3.610548861e-05
3.571682066e-05
3.535904282e-05
3.507158108e-05
3.490021422e-05
3.647706451e-05
3.628570497e-05
3.60147957e-05
3.568589214e-05
3.532430686e-05
3.495901253e-05
3.462270038e-05
3.435245013e-05
3.419133393e-05
3.567487296e-05
3.549497989e-05
3.52402775e-05
3.493100359e-05
3.459093126e-05
3.424728912e-05
3.393082964e-05
3.367647013e-05
3.352480073e-05
3.492242022e-05
3.475316257e-05
3.451348207e-05
3.422238567e-05
3.390221248e-05
3.357857285e-05
3.328042817e-05
3.304070695e-05
3.28977263e-05
3.421638119e-05
3.405695983e-05
3.383116418e-05
3.355685595e-05
3.325504336e-05
3.294983976e-05
3.26685559e-05
3.244229424e-05
3.230729225e-05
3.355348435e-05
3.340313806e-05
3.319014623e-05
3.293130858e-05
3.264640188e-05
3.235815829e-05
3.209237021e-05
3.187846576e-05
3.17507811e-05
3.293055504e-05
3.278856461e-05
3.25873568e-05
3.234274947e-05
3.207338284e-05
3.180071739e-05
3.154915126e-05
3.134657881e-05
3.122559856e-05
3.234454744e-05
3.221023792e-05
3.201985848e-05
3.178832129e-05
3.153322002e-05
3.127484633e-05
3.103631959e-05
3.084413019e-05
3.07292888e-05
3.179256648e-05
3.166530821e-05
3.148486663e-05
3.126532035e-05
3.102330094e-05
3.07780274e-05
3.05514473e-05
3.036876636e-05
3.025954396e-05
3.127188208e-05
3.115109066e-05
3.097976136e-05
3.077120687e-05
3.054117564e-05
3.030790326e-05
3.009226418e-05
2.991828865e-05
2.981420907e-05
3.077993725e-05
3.06650728e-05
3.050209383e-05
3.030361019e-05
3.008456065e-05
2.986227981e-05
2.965665969e-05
2.949065475e-05
2.939128314e-05
3.031435142e-05
3.020491721e-05
3.004958814e-05
2.98603298e-05
2.965133909e-05
2.943912559e-05
2.924268179e-05
2.908397708e-05
2.898891748e-05
2.98729199e-05
2.976846062e-05
2.962013992e-05
2.94393332e-05
2.923955803e-05
2.903656847e-05
2.88485332e-05
2.869651888e-05
2.860541162e-05
2.945361043e-05
2.935371011e-05
2.921181208e-05
2.903875133e-05
2.884742336e-05
2.865289033e-05
2.847256587e-05
2.832668849e-05
2.823920763e-05
2.905455752e-05
2.895883727e-05
2.882282875e-05
2.865687214e-05
2.847329325e-05
2.828652019e-05
2.811327398e-05
2.797303236e-05
2.788888308e-05
2.867405513e-05
2.858217073e-05
2.845156764e-05
2.829213285e-05
2.81156702e-05
2.793602628e-05
2.776928604e-05
2.763422723e-05
2.755314332e-05
2.831054818e-05
2.822218767e-05
2.80965515e-05
2.794311137e-05
2.777319247e-05
2.760010753e-05
2.743935642e-05
2.730907168e-05
2.723081312e-05
2.796262337e-05
2.78775046e-05
2.77564389e-05
2.76085171e-05
2.744462501e-05
2.727758452e-05
2.712235649e-05
2.69964775e-05
2.692082816e-05
2.762899955e-05
2.754686777e-05
2.743001473e-05
2.728718154e-05
2.712885016e-05
2.696739049e-05
2.681726581e-05
2.669546102e-05
2.662222643e-05
2.730851795e-05
2.72291435e-05
2.711618064e-05
2.697804892e-05
2.68248585e-05
2.666856231e-05
2.652316332e-05
2.640513454e-05
2.633413984e-05
2.70001325e-05
2.692330858e-05
2.681394557e-05
2.668016692e-05
2.653173982e-05
2.638023173e-05
2.623921885e-05
2.612469803e-05
2.605578608e-05
2.670290038e-05
2.662844093e-05
2.652241665e-05
2.639267771e-05
2.624867439e-05
2.6101617e-05
2.596468503e-05
2.585343127e-05
2.578646086e-05
2.64159729e-05
2.634371065e-05
2.624079033e-05
2.611480946e-05
2.597492477e-05
2.583201484e-05
2.569888953e-05
2.559068635e-05
2.552553057e-05
2.613858692e-05
2.606837153e-05
2.596834418e-05
2.584586828e-05
2.570982798e-05
2.557079301e-05
2.544122786e-05
2.533588067e-05
2.527242542e-05
2.587005666e-05
2.580175302e-05
2.570442905e-05
2.558523064e-05
2.545278826e-05
2.53173833e-05
2.519115669e-05
2.508849049e-05
2.502663312e-05
2.560976618e-05
2.554325285e-05
2.544846181e-05
2.533233641e-05
2.520327033e-05
2.507127508e-05
2.494818764e-05
2.484804493e-05
2.4787693e-05
2.535716235e-05
2.529233012e-05
2.519991874e-05
2.508668241e-05
2.496079324e-05
2.483200941e-05
2.47118816e-05
2.461412048e-05
2.455519068e-05
2.51117484e-05
2.504849901e-05
2.495832934e-05
2.484781647e-05
2.472492465e-05
2.45991736e-05
2.448184358e-05
2.438633604e-05
2.432875315e-05
2.487307804e-05
2.481132298e-05
2.472327074e-05
2.461533212e-05
2.449527573e-05
2.437239632e-05
2.425771799e-05
2.416434839e-05
2.41080444e-05
2.464075012e-05
2.458040958e-05
2.449436266e-05
2.438886361e-05
2.427149651e-05
2.415134311e-05
2.403918439e-05
2.394784808e-05
2.389276139e-05
2.441440373e-05
2.435540563e-05
2.427126277e-05
2.41680816e-05
2.405327159e-05
2.393571245e-05
2.382595366e-05
2.373655577e-05
2.368263047e-05
2.419371387e-05
2.413599302e-05
2.405366258e-05
2.39526891e-05
2.384031642e-05
2.372523206e-05
2.361776461e-05
2.35302189e-05
2.347740413e-05
2.397838746e-05
2.392188479e-05
2.384128371e-05
2.374241797e-05
2.36323739e-05
2.351965573e-05
2.341438082e-05
2.332860878e-05
2.327685817e-05
2.376815988e-05
2.371282173e-05
2.363387453e-05
2.353702567e-05
2.342921128e-05
2.331876042e-05
2.321558795e-05
2.313151788e-05
2.308078902e-05
2.356279172e-05
2.350856927e-05
2.343120723e-05
2.333629244e-05
2.32306175e-05
2.312234364e-05
2.302119125e-05
2.293875751e-05
2.288901153e-05
2.336206603e-05
2.330891474e-05
2.323307512e-05
2.314001874e-05
2.303640075e-05
2.293022121e-05
2.283101338e-05
2.275015571e-05
2.270135688e-05
2.316578576e-05
2.311366489e-05
2.303929027e-05
2.294802301e-05
2.284638627e-05
2.274222515e-05
2.264489246e-05
2.256555538e-05
2.251767073e-05
2.297377157e-05
2.292264372e-05
2.28496814e-05
2.276013959e-05
2.266041453e-05
2.255820191e-05
2.246268033e-05
2.23848126e-05
2.233781167e-05
2.278585976e-05
2.273569056e-05
2.2664092e-05
2.257621699e-05
2.247833941e-05
2.237801074e-05
2.228424105e-05
2.220779519e-05
2.216164969e-05
2.260190058e-05
2.255265829e-05
2.248237871e-05
2.239611627e-05
2.230002678e-05
2.220152223e-05
2.210944948e-05
2.203438138e-05
2.198906499e-05
2.242175662e-05
2.237341188e-05
2.230440977e-05
2.221970965e-05
2.212535311e-05
2.202861709e-05
2.193819011e-05
2.186445864e-05
2.181994679e-05
2.224530143e-05
2.219782697e-05
2.213006378e-05
2.204687923e-05
2.19542043e-05
2.185918495e-05
2.177035599e-05
2.169792268e-05
2.165419235e-05
2.207241829e-05
2.20257887e-05
2.19592285e-05
2.18775159e-05
2.178647463e-05
2.169312346e-05
2.160584777e-05
2.153467653e-05
2.14917061e-05
2.190299911e-05
2.185719067e-05
2.179179983e-05
2.171151836e-05
2.16220658e-05
2.153033731e-05
2.144457284e-05
2.137462972e-05
2.13323988e-05
2.173694347e-05
2.169193391e-05
2.162768092e-05
2.154879223e-05
2.146088615e-05
2.13707375e-05
2.128644463e-05
2.121769757e-05
2.11761869e-05
2.157415773e-05
2.152992614e-05
2.146678131e-05
2.138924931e-05
2.130284987e-05
2.121424062e-05
2.113138189e-05
2.106380056e-05
2.102299191e-05
2.141455429e-05
2.137108091e-05
2.130901626e-05
2.123280684e-05
2.114787636e-05
2.106076826e-05
2.097930815e-05
2.091286377e-05
2.087273978e-05
2.125805084e-05
2.121531701e-05
2.115430602e-05
2.107938687e-05
2.099588965e-05
2.091024634e-05
2.083015114e-05
2.076481631e-05
2.072536048e-05
2.110456976e-05
2.106255776e-05
2.100257528e-05
2.09289157e-05
2.084681779e-05
2.076260471e-05
2.068384226e-05
2.061959089e-05
2.058078747e-05
2.095403747e-05
2.091273046e-05
2.085375253e-05
2.07813233e-05
2.070059234e-05
2.061777651e-05
2.054031616e-05
2.04771233e-05
2.043895723e-05
2.080638386e-05
2.076576575e-05
2.070776952e-05
2.063654273e-05
2.055714781e-05
2.047569772e-05
2.039951013e-05
2.033735193e-05
2.02998088e-05
2.066154161e-05
2.062159702e-05
2.056456061e-05
2.049450955e-05
2.041642108e-05
2.033630654e-05
2.02613636e-05
2.020021721e-05
2.01632832e-05
2.051944552e-05
2.048015968e-05
2.042406211e-05
2.035516112e-05
2.027835067e-05
2.019954269e-05
2.012581743e-05
2.006566089e-05
2.002932277e-05
2.038003168e-05
2.034139036e-05
2.028621138e-05
2.021843574e-05
2.014287591e-05
2.006534656e-05
1.9992813e-05
1.993362523e-05
1.989787027e-05
2.024323645e-05
2.020522585e-05
2.015094583e-05
2.008427156e-05
2.00099358e-05
1.993365805e-05
1.986229108e-05
1.98040517e-05
1.976886764e-05
2.010899518e-05
2.007160178e-05
2.001820152e-05
1.995260519e-05
1.987946757e-05
1.980441502e-05
1.973419018e-05
1.967687938e-05
1.964225436e-05
1.997724049e-05
1.994045091e-05
1.988791138e-05
1.982336977e-05
1.975140461e-05
1.967755119e-05
1.960844435e-05
1.95520427e-05
1.951796509e-05
1.984790012e-05
1.981170084e-05
1.976000282e-05
1.969649248e-05
1.96256739e-05
1.955299332e-05
1.948498021e-05
1.942946822e-05
1.939592646e-05
1.972089403e-05
1.968527105e-05
1.963439464e-05
1.957189127e-05
1.950219237e-05
1.94306574e-05
1.936371295e-05
1.930907054e-05
1.927605278e-05
1.959613078e-05
1.956106911e-05
1.951099297e-05
1.944947047e-05
1.938086242e-05
1.931044376e-05
1.924454099e-05
1.919074664e-05
1.915824025e-05
1.947350279e-05
1.943898579e-05
1.938968616e-05
1.932911543e-05
1.926156589e-05
1.919223068e-05
1.912733928e-05
1.907436879e-05
1.90423596e-05
1.935288058e-05
1.931888903e-05
1.927033839e-05
1.921068555e-05
1.914415679e-05
1.907586647e-05
1.901195073e-05
1.89597755e-05
1.892824678e-05
1.923410563e-05
1.92006165e-05
1.915278178e-05
1.909400597e-05
1.902845218e-05
1.896115965e-05
1.889817572e-05
1.884676048e-05
1.881569147e-05
1.911698179e-05
1.908396671e-05
1.903680704e-05
1.897885745e-05
1.891422137e-05
1.884786739e-05
1.878575969e-05
1.873505939e-05
1.870442344e-05
1.900126531e-05
1.896868863e-05
1.892215241e-05
1.886496467e-05
1.880117332e-05
1.873568188e-05
1.867437859e-05
1.862433457e-05
1.859409668e-05
1.888665334e-05
1.885446973e-05
1.880849119e-05
1.87519829e-05
1.868894235e-05
1.862421502e-05
1.856362253e-05
1.851415778e-05
1.848427164e-05
1.877277115e-05
1.874092278e-05
1.869541785e-05
1.863948322e-05
1.857707242e-05
1.851298172e-05
1.845297804e-05
1.84039915e-05
1.837439588e-05
1.865915825e-05
1.862757158e-05
1.858243303e-05
1.852693688e-05
1.846500052e-05
1.840138217e-05
1.834180933e-05
1.829316941e-05
1.826378404e-05
1.854525392e-05
1.851383601e-05
1.846892819e-05
1.841369904e-05
1.835203962e-05
1.828868403e-05
1.822933966e-05
1.818087694e-05
1.81515979e-05
1.843038259e-05
1.839901718e-05
1.835417021e-05
1.829899301e-05
1.823736233e-05
1.81740054e-05
1.811463371e-05
1.806613324e-05
1.803682803e-05
1.831373994e-05
1.828228337e-05
1.823728715e-05
1.818189568e-05
1.811998605e-05
1.805629983e-05
1.799658243e-05
1.794777582e-05
1.791827836e-05
1.819438051e-05
1.816265762e-05
1.811725595e-05
1.806132543e-05
1.799876119e-05
1.793434478e-05
1.787389184e-05
1.782444981e-05
1.77945557e-05
1.80712081e-05
1.803900848e-05
1.799289358e-05
1.79360338e-05
1.787236354e-05
1.780673507e-05
1.774507763e-05
1.76946034e-05
1.766406583e-05
1.794296974e-05
1.791004455e-05
1.786285258e-05
1.780460241e-05
1.773929285e-05
1.767188308e-05
1.76084671e-05
1.755649168e-05
1.752501847e-05
1.780825489e-05
1.777431465e-05
1.772562258e-05
1.766544632e-05
1.75978785e-05
1.752802729e-05
1.746221058e-05
1.740819039e-05
1.737544272e-05
1.766550083e-05
1.763021451e-05
1.757953907e-05
1.751682554e-05
1.744629427e-05
1.737325058e-05
1.73043035e-05
1.724762151e-05
1.721321489e-05
1.751300555e-05
1.747600142e-05
1.742280066e-05
1.735686564e-05
1.728258305e-05
1.720550967e-05
1.713262054e-05
1.707259162e-05
1.703609966e-05
1.734894912e-05
1.730981771e-05
1.725349566e-05
1.718358847e-05
1.710469257e-05
1.702267621e-05
1.694496237e-05
1.688084364e-05
1.68418051e-05
1.717142409e-05
1.712972359e-05
1.706963864e-05
1.699495346e-05
1.69105222e-05
1.682258989e-05
1.673911494e-05
1.667012159e-05
1.662805109e-05
1.697847544e-05
1.693373981e-05
1.686921699e-05
1.678890926e-05
1.66979807e-05
1.660312263e-05
1.651292025e-05
1.64382471e-05
1.639264945e-05
1.676814963e-05
1.671989947e-05
1.665024686e-05
1.65634549e-05
1.646505329e-05
1.636225219e-05
1.62643563e-05
1.618320485e-05
1.613359291e-05
1.653855192e-05
1.648630812e-05
1.641083716e-05
1.631670865e-05
1.620987621e-05
1.609814252e-05
1.599162298e-05
1.590323306e-05
1.584914851e-05
1.628791045e-05
1.623121012e-05
1.614925935e-05