/*--------------------------------*- C++ -*----------------------------------*\
| =========                 |                                                 |
| \\      /  F ield         | OpenFOAM: The Open Source CFD Toolbox           |
|  \\    /   O peration     | Version:  2212                                  |
|   \\  /    A nd           | Website:  www.openfoam.com                      |
|    \\/     M anipulation  |                                                 |
\*---------------------------------------------------------------------------*/
FoamFile
{
    version     2.0;
    format      ascii;
    arch        "LSB;label=32;scalar=64";
    class       volScalarField;
    location    "30.00000000";
    object      C4H2_0;
}
// * * * * * * * * * * * * * * * * * * * * * * * * * * * * * * * * * * * * * //

dimensions      [0 0 0 0 0 0 0];

internalField   nonuniform List<scalar> 
3000
(
4.423491004e-20
4.96969591e-20
5.793954886e-20
6.892425028e-20
8.253998828e-20
9.841758846e-20
1.156008224e-19
1.319987324e-19
1.435935297e-19
1.660975701e-19
1.87360883e-19
2.194349813e-19
2.622741838e-19
3.158381481e-19
3.798338372e-19
4.531492126e-19
5.321006771e-19
6.020160595e-19
3.721428484e-19
4.230895208e-19
5.006723567e-19
6.060197904e-19
7.410300387e-19
9.076689295e-19
1.105272395e-18
1.322764768e-18
1.508584206e-18
7.090709904e-19
8.146045516e-19
9.77672732e-19
1.203806484e-18
1.50103037e-18
1.87691358e-18
2.329402533e-18
2.822321273e-18
3.220150271e-18
1.25970008e-18
1.464985733e-18
1.787186937e-18
2.242704258e-18
2.852996743e-18
3.635212114e-18
4.57629149e-18
5.575815168e-18
6.343140602e-18
2.167346823e-18
2.552880461e-18
3.166672161e-18
4.047973436e-18
5.243883076e-18
6.784602086e-18
8.62417174e-18
1.053068348e-17
1.194135543e-17
3.681800503e-18
4.390481569e-18
5.531903392e-18
7.189319028e-18
9.455206376e-18
1.237482724e-17
1.582757196e-17
1.933616674e-17
2.186821297e-17
6.235433224e-18
7.518880105e-18
9.604422257e-18
1.265618548e-17
1.684470364e-17
2.22306499e-17
2.854407624e-17
3.486612439e-17
3.935233674e-17
1.057802076e-17
1.287772881e-17
1.663869537e-17
2.216971336e-17
2.977405051e-17
3.952518297e-17
5.087258874e-17
6.211674023e-17
7.000722949e-17
1.800862019e-17
2.209634391e-17
2.88114723e-17
3.871770376e-17
5.234367821e-17
6.976796454e-17
8.992971138e-17
1.097598471e-16
1.235711849e-16
3.077942967e-17
3.800127156e-17
4.99006556e-17
6.748593755e-17
9.166776006e-17
1.225110258e-16
1.580434082e-16
1.928091159e-16
2.169044132e-16
5.279637012e-17
6.549675889e-17
8.646329371e-17
1.174744634e-16
1.600853666e-16
2.143009264e-16
2.765342134e-16
3.372022499e-16
3.791538923e-16
9.083860558e-17
1.131006064e-16
1.498957864e-16
2.043316688e-16
2.790418151e-16
3.738434206e-16
4.822596353e-16
5.876358484e-16
6.607757571e-16
1.566806581e-16
1.956244555e-16
2.600487538e-16
3.553699616e-16
4.860337094e-16
6.513083123e-16
8.391918932e-16
1.020452304e-15
1.149805816e-15
2.707744833e-16
3.388314554e-16
4.515364274e-16
6.184216087e-16
8.471976204e-16
1.136003125e-15
1.461045469e-15
1.759331466e-15
2.004167361e-15
4.685991945e-16
5.874277913e-16
7.844709628e-16
1.076777911e-15
1.478840754e-15
1.990535388e-15
2.580317643e-15
3.169648571e-15
3.538095119e-15
8.116158219e-16
1.018737944e-15
1.362398914e-15
1.872412479e-15
2.573805162e-15
3.464836904e-15
4.484264547e-15
5.472663654e-15
6.143705962e-15
1.406418568e-15
1.766901876e-15
2.365143827e-15
3.252879669e-15
4.472975447e-15
6.020822498e-15
7.787630416e-15
9.496498182e-15
1.066622538e-14
2.438007429e-15
3.064833888e-15
4.105199231e-15
5.648878566e-15
7.769806531e-15
1.045901876e-14
1.352681543e-14
1.649311973e-14
1.852499037e-14
4.227504855e-15
5.3169122e-15
7.125221319e-15
9.808347604e-15
1.349432806e-14
1.816688121e-14
2.349590576e-14
2.864759087e-14
3.217599681e-14
7.33233868e-15
9.225141454e-15
1.23672997e-14
1.702966806e-14
2.343426143e-14
3.155197268e-14
4.080850962e-14
4.975521984e-14
5.58817256e-14
1.272022519e-14
1.600828061e-14
2.146703743e-14
2.956696745e-14
4.069313246e-14
5.479375498e-14
7.086993692e-14
8.640514324e-14
9.704173767e-14
2.20713739e-14
2.778248565e-14
3.726440956e-14
5.133414685e-14
7.065948577e-14
9.514853709e-14
1.230642487e-13
1.500359332e-13
1.685009052e-13
3.830342529e-14
4.822249529e-14
6.469108628e-14
8.912755588e-14
1.226897434e-13
1.652147394e-13
2.136824419e-13
2.60504126e-13
2.925548513e-13
6.648328816e-14
8.371011138e-14
1.123115172e-13
1.547489222e-13
2.13028973e-13
2.868627888e-13
3.71000853e-13
4.522684611e-13
5.07893266e-13
1.154106614e-13
1.453284883e-13
1.94998446e-13
2.686899829e-13
3.698781734e-13
4.980486926e-13
6.440771675e-13
7.85096079e-13
8.816055775e-13
2.003677831e-13
2.523249432e-13
3.385776007e-13
4.665265336e-13
6.421831583e-13
8.646246854e-13
1.117988441e-12
1.362592783e-12
1.529954913e-12
3.47892839e-13
4.381219073e-13
5.878880741e-13
8.100082025e-13
1.114864068e-12
1.500783327e-12
1.940180445e-12
2.364221706e-12
2.654260059e-12
6.040581925e-13
7.607392993e-13
1.020752021e-12
1.406264908e-12
1.93516538e-12
2.604382647e-12
3.365923454e-12
4.100445292e-12
4.602601416e-12
1.048811323e-12
1.320845316e-12
1.772154719e-12
2.441017534e-12
3.358154404e-12
4.517833555e-12
5.836504114e-12
7.107398152e-12
7.975628122e-12
1.820777743e-12
2.292963151e-12
3.076012875e-12
4.235867509e-12
5.825057263e-12
7.832685078e-12
1.011318736e-11
1.230868044e-11
1.380705112e-11
3.160062399e-12
3.979289258e-12
5.3371218e-12
7.346800831e-12
1.009762221e-11
1.356847444e-11
1.750554113e-11
2.129023276e-11
2.38695818e-11
5.481899505e-12
6.902213401e-12
9.254639544e-12
1.273284679e-11
1.748744912e-11
2.34768237e-11
3.025803699e-11
3.676390389e-11
4.118942469e-11
9.502932556e-12
1.19627371e-11
1.603305417e-11
2.20433221e-11
3.024499439e-11
4.055481993e-11
5.219936688e-11
6.334226769e-11
7.090327847e-11
1.645680204e-11
2.0710408e-11
2.774058933e-11
3.810385431e-11
5.221446406e-11
6.990425522e-11
8.982247392e-11
1.088199933e-10
1.216699705e-10
2.846033245e-11
3.580060704e-11
4.791399902e-11
6.573234035e-11
8.992646166e-11
1.20155142e-10
1.540607827e-10
1.862671791e-10
2.079661727e-10
4.913187511e-11
6.176400447e-11
8.25711245e-11
1.130963605e-10
1.54402057e-10
2.057965799e-10
2.63172109e-10
3.174026716e-10
3.537674883e-10
8.462849861e-11
1.062913299e-10
1.41890907e-10
1.939479142e-10
2.640964201e-10
3.509435345e-10
4.47355109e-10
5.379498273e-10
5.983621011e-10
1.453727986e-10
1.82360049e-10
2.429727429e-10
3.312598991e-10
4.496393914e-10
5.953376599e-10
7.560278492e-10
9.060079205e-10
1.005389083e-09
2.489041703e-10
3.1172105e-10
4.143183535e-10
5.630688114e-10
7.613630781e-10
1.0037636e-09
1.269124609e-09
1.514931036e-09
1.676669974e-09
4.245441709e-10
5.305555532e-10
7.030242238e-10
9.517357204e-10
1.281079786e-09
1.68059729e-09
2.114355248e-09
2.51283518e-09
2.773054795e-09
7.20954734e-10
8.985501405e-10
1.186177303e-09
1.598419643e-09
2.140235324e-09
2.791939981e-09
3.493175681e-09
4.13171248e-09
4.545394393e-09
1.218251513e-09
1.513281504e-09
1.988671774e-09
2.66537538e-09
3.547476727e-09
4.598800007e-09
5.719314692e-09
6.730302242e-09
7.379967789e-09
2.047192362e-09
2.532731518e-09
3.310689439e-09
4.409822828e-09
5.829926804e-09
7.506160768e-09
9.275199678e-09
1.085646976e-08
1.186435835e-08
3.419195427e-09
4.210069356e-09
5.469513811e-09
7.234695907e-09
9.494171628e-09
1.21346542e-08
1.489367283e-08
1.733703652e-08
1.888205309e-08
5.672680535e-09
6.946669837e-09
8.962313526e-09
1.1763715e-08
1.531530861e-08
1.942413217e-08
2.36751949e-08
2.74060071e-08
2.9747159e-08
9.34362902e-09
1.137185026e-08
1.455921317e-08
1.895113856e-08
2.446560019e-08
3.078194656e-08
3.725456894e-08
4.288623632e-08
4.639488582e-08
1.527151607e-08
1.846121312e-08
2.34396063e-08
3.024050764e-08
3.869863469e-08
4.829354505e-08
5.803643983e-08
6.644515585e-08
7.164923063e-08
2.475613532e-08
2.971005559e-08
3.738957055e-08
4.779205599e-08
6.061080585e-08
7.501949622e-08
8.952590678e-08
1.019527354e-07
1.095971445e-07
3.978663694e-08
4.738441454e-08
5.908482779e-08
7.480567429e-08
9.400988833e-08
1.154118306e-07
1.367901435e-07
1.549800658e-07
1.661090758e-07
6.337177526e-08
7.488043574e-08
9.249247791e-08
1.159759596e-07
1.444311362e-07
1.758943308e-07
2.07099761e-07
2.334907601e-07
2.495601292e-07
1.00010484e-07
1.172335114e-07
1.434363838e-07
1.781286441e-07
2.198554002e-07
2.656669392e-07
3.108157072e-07
3.487958084e-07
3.718255625e-07
1.563551476e-07
1.81832806e-07
2.203864195e-07
2.711043661e-07
3.3170199e-07
3.978145749e-07
4.626099017e-07
5.168670152e-07
5.496505271e-07
2.421369794e-07
2.794155031e-07
3.355520657e-07
4.089773798e-07
4.961920784e-07
5.908256264e-07
6.831359382e-07
7.601362687e-07
8.065285546e-07
3.714228185e-07
4.254099689e-07
5.063568498e-07
6.117031578e-07
7.362023201e-07
8.706672698e-07
1.00131579e-06
1.109958074e-06
1.175269944e-06
5.64330331e-07
6.417727206e-07
7.574554363e-07
9.073633398e-07
1.083772495e-06
1.273575465e-06
1.457412363e-06
1.609926571e-06
1.701475276e-06
8.493418006e-07
9.59456979e-07
1.123429471e-06
1.33515506e-06
1.583443576e-06
1.84977663e-06
2.107134643e-06
2.320313761e-06
2.448185808e-06
1.266361469e-06
1.421668676e-06
1.652338884e-06
1.949324765e-06
2.296645931e-06
2.668376009e-06
3.027029268e-06
3.323901808e-06
3.501997848e-06
1.870702285e-06
2.088102942e-06
2.410329634e-06
2.824257206e-06
3.307360495e-06
3.823648937e-06
4.321405091e-06
4.733459521e-06
4.98089109e-06
2.738197087e-06
3.040359645e-06
3.487500654e-06
4.060925403e-06
4.729258003e-06
5.442932572e-06
6.13097186e-06
6.701021725e-06
7.043908682e-06
3.971628709e-06
4.388728878e-06
5.005212756e-06
5.794868379e-06
6.714455252e-06
7.696214168e-06
8.643231973e-06
9.428947881e-06
9.902618405e-06
5.708648463e-06
6.280499651e-06
7.12496407e-06
8.20577535e-06
9.463899554e-06
1.080733672e-05
1.210443917e-05
1.318246791e-05
1.383398922e-05
8.131288564e-06
8.909862815e-06
1.005884556e-05
1.152860511e-05
1.323919574e-05
1.506649614e-05
1.683264642e-05
1.830309925e-05
1.919397619e-05
1.147705396e-05
1.252933656e-05
1.408141464e-05
1.606595355e-05
1.837543208e-05
2.084340988e-05
2.323104693e-05
2.522199247e-05
2.64307856e-05
1.605138789e-05
1.746243025e-05
1.954258413e-05
2.220111331e-05
2.529427181e-05
2.860024099e-05
3.180052948e-05
3.447200645e-05
3.609655949e-05
2.224104177e-05
2.411698648e-05
2.688083727e-05
3.041098048e-05
3.451630287e-05
3.890312426e-05
4.315018546e-05
4.669718988e-05
4.885613803e-05
3.052756703e-05
3.29983338e-05
3.663578799e-05
4.12777072e-05
4.667143893e-05
5.243101855e-05
5.800447098e-05
6.265839294e-05
6.549165731e-05
4.14998354e-05
4.472109981e-05
4.945887166e-05
5.549783525e-05
6.250609424e-05
6.998064475e-05
7.720586696e-05
8.323395749e-05
8.690201335e-05
5.586425765e-05
6.001834587e-05
6.612083698e-05
7.388762813e-05
8.288594694e-05
9.246647266e-05
0.0001017121813
0.0001094148053
0.0001140966288
7.445128095e-05
7.97466554e-05
8.751476458e-05
9.738347373e-05
0.0001087933637
0.0001209150706
0.0001325880589
0.0001422937103
0.0001481834474
9.821685196e-05
0.0001048859709
0.0001146535767
0.0001270365489
0.0001413189487
0.0001564535718
0.0001709907299
0.0001830490181
0.0001903515742
0.0001282378446
0.0001365333284
0.0001486614039
0.0001640013807
0.0001816471463
0.0002002924694
0.000218150412
0.0002329232778
0.000241848798
0.0001657009297
0.0001758901304
0.0001907586782
0.0002095184434
0.0002310363186
0.0002537034148
0.0002753462878
0.0002931979716
0.0003039562097
0.0002118849362
0.0002242431605
0.0002422413585
0.0002648914103
0.0002907940409
0.0003179927494
0.0003438790033
0.0003651657571
0.0003779597634
0.0002681373263
0.0002829400792
0.0003044551708
0.0003314600706
0.0003622488624
0.0003944729974
0.0004250416698
0.000450100794
0.0004651208468
0.0003358458174
0.0003533604953
0.0003787660051
0.0004105700829
0.000446720202
0.0004844321843
0.0005200893654
0.000549229028
0.0005666469659
0.0004164061495
0.0004368836402
0.0004665278036
0.0005035416634
0.0005454868337
0.0005891032178
0.0006302094787
0.0006636992085
0.0006836631318
0.0005111892031
0.0005348558965
0.000569050355
0.000611637305
0.0006597560833
0.00070963445
0.0007564935326
0.0007945558611
0.0008171856093
0.0006215066399
0.0006485569291
0.0006875666013
0.0007360310438
0.0007906346007
0.0008470621472
0.0008999114274
0.0009427149441
0.0009680984045
0.0007485779745
0.000779167899
0.000823202295
0.0008777797344
0.0009391018262
0.001002286088
0.001061288908
0.001108942906
0.001137133279
0.000893499955
0.0009277419572
0.0009769481675
0.001037797342
0.001105986438
0.00117604835
0.001241288654
0.001293839595
0.00132485374
0.001057218702
0.001095177656
0.001149635094
0.001216832419
0.001291946457
0.001368916115
0.001440395409
0.001497825324
0.001531643256
0.001240505159
0.001282195829
0.001341913123
0.001415449352
0.001497453114
0.001581268157
0.001658905154
0.001721132117
0.001757697721
0.001443934047
0.001489319986
0.001554233827
0.001634013577
0.001722778941
0.00181328577
0.001896918514
0.001963799087
0.002003021921
0.001667866616
0.001716860629
0.001786836873
0.001872680602
0.001967989759
0.002064947835
0.002154338377
0.002225671755
0.002267429408
0.001912437608
0.001964903898
0.002039741076
0.002131390097
0.00223294194
0.002336031088
0.00243087272
0.002506406229
0.002550545193
0.002177547076
0.00223330523
0.002312740656
0.002409865335
0.002517285501
0.002626117056
0.002726045528
0.002805487979
0.00285184684
0.00246285806
0.002521688967
0.002605407606
0.002707618908
0.002820473895
0.002934606627
0.003039225576
0.003122273429
0.003170678332
0.002767801387
0.002829455219
0.002917101311
0.003023965233
0.003141783211
0.003260756775
0.003369654802
0.003455989162
0.003506259432
0.00309158951
0.003155796309
0.003246992499
0.003358062095
0.003480361685
0.003603700075
0.00371645384
0.00380574984
0.003857702959
0.003433268537
0.003499756179
0.003594121363
0.003708940384
0.003835231975
0.003962456189
0.004078643178
0.004170579197
0.004224035675
0.003791752331
0.003860247211
0.003957399794
0.004075515005
0.004205315502
0.00433595674
0.004455166597
0.004549432391
0.004604219996
0.004165836505
0.004236071509
0.004335640573
0.004456614105
0.00458945983
0.004723071242
0.004844915358
0.004941218731
0.004997175849
0.004554232908
0.004625954556
0.004727589501
0.004851009598
0.004986467002
0.005122633176
0.005246752152
0.005344823918
0.005401801948
0.004955605715
0.005028579984
0.005131958205
0.005257447613
0.005395121325
0.005533465115
0.005659533829
0.005759130977
0.005816995753
0.005368606907
0.005442623418
0.00554745569
0.005674677314
0.005814215264
0.005954401815
0.006082132099
0.006183039203
0.00624167149
0.00579190903
0.005866783492
0.005972816936
0.006101476679
0.006242572296
0.006384310403
0.006513451503
0.006615480548
0.006674775682
0.006224233498
0.006299808476
0.006406827237
0.006536674194
0.006679065758
0.006822106011
0.006952442268
0.007055430658
0.007115297479
0.00666437178
0.006740515216
0.006848338169
0.006979161588
0.007122628857
0.007266760877
0.007398109365
0.007501917966
0.007562277573
0.007111197943
0.007187801692
0.007296280241
0.007427906683
0.007572267494
0.007717315931
0.007849522639
0.007954032856
0.008014817055
0.007563681492
0.007640658519
0.007749672617
0.007881961129
0.008027066174
0.008172885667
0.008305821148
0.008410931735
0.008472081363
0.008020891283
0.008098172389
0.008207625986
0.008340462736
0.008486189933
0.008632659802
0.008766214709
0.008871838583
0.008933301863
0.008481994686
0.008559525093
0.008669341449
0.008802634306
0.008948883224
0.009095902311
0.00922998315
0.009336044408
0.00939777544
0.008946253126
0.009023989183
0.0091341064
0.009267779828
0.009414466515
0.009561948473
0.009696473787
0.009802905067
0.009864862503
0.009413015142
0.009490921347
0.009601288358
0.009735278885
0.009882331334
0.01003020054
0.01016509764
0.01027183789
0.01033398382
0.009881708013
0.009959754471
0.01007032762
0.01020458001
0.01035193443
0.01050012255
0.01063532473
0.01074231745
0.01080461669
0.0103518288
0.01042998919
0.01054072948
0.01067519351
0.01082279077
0.01097123429
0.01110667931
0.01121387143
0.01127629067
0.01082293487
0.01090118461
0.01101205539
0.01114668369
0.01129446816
0.01144310663
0.01157873488
0.0116860755
0.01174858286
0.01129463547
0.01137295076
0.01148391652
0.01161866318
0.01176658065
0.01191535523
0.01205110877
0.01215854854
0.01222111328
0.01176658457
0.01184494157
0.01195596692
0.0120907862
0.01223878289
0.01238763546
0.01252345736
0.01263094813
0.01269354043
0.01223847397
0.0123168484
0.01242789735
0.01256274306
0.01271076501
0.01285963768
0.0129954717
0.01310296627
0.01316555719
0.01271002753
0.01278839434
0.01289943004
0.01303425523
0.01318224804
0.01333108298
0.01346687346
0.01357432555
0.01363688692
0.01318099616
0.01325932952
0.0133703142
0.0135050711
0.01365297994
0.01380171943
0.01393741134
0.0140447756
0.01410728007
0.01365115373
0.0137294271
0.01384032217
0.01397496239
0.01412273219
0.01427131878
0.01440685784
0.01451408998
0.01457651104
0.01412029371
0.01419848001
0.01430924631
0.0144437211
0.01459129682
0.01473967361
0.01487500653
0.01498206339
0.01504437543
0.01458822646
0.01466629827
0.01477689637
0.01491115693
0.01505848393
0.01520659484
0.01534166955
0.01544850928
0.01551068764
0.01505477701
0.01513270681
0.01524309732
0.01537709519
0.01552411957
0.01567190969
0.01580667553
0.01591325773
0.01597527874
0.01551978329
0.01559754372
0.01570768761
0.01584137504
0.01598804396
0.01613545983
0.0162698678
0.0163761536
0.01643799466
0.01598309478
0.01606065883
0.01617051773
0.01630384797
0.01645011001
0.01659709987
0.0167311028
0.01683705502
0.01689869457
0.0164445713
0.01652191255
0.01663144901
0.01676437665
0.01691018205
0.01705669606
0.01719024878
0.01729583197
0.01735724958
0.01690408217
0.01698117494
0.01709035268
0.01722283384
0.01736813476
0.0175141252
0.01764718466
0.01775236515
0.0178135415
0.01736150543
0.01743832495
0.01754710905
0.01767910162
0.01782385228
0.0179692737
0.018101799
0.018206545
0.01826746189
0.01781672726
0.01789324978
0.0180016068
0.0181330706
0.01827722745
0.01842203674
0.01855398926
0.0186582708
0.01871891114
0.01826964147
0.01834584433
0.01845374246
0.01858463933
0.01872816114
0.01887231758
0.01900366097
0.01910744994
0.01916779775
0.01872014904
0.01879601077
0.01890341989
0.01903371377
0.01917656166
0.01932002699
0.01945072718
0.01955399728
0.01961403764
0.01916815768
0.01924365802
0.01935054974
0.01948020673
0.01962234426
0.01976508268
0.01989510783
0.01999783457
0.02005755362
0.01961358158
0.01968870151
0.01979504926
0.01992403764
0.02006543072
0.02020740884
0.02033672932
0.02043888995
0.02049827481
0.02005634121
0.02013106295
0.02023684187
0.02036513204
0.02050574895
0.0206469357
0.02077552404
0.02087709749
0.02093613629
0.02049636288
0.02057066988
0.02067585685
0.02080342128
0.02094323258
0.02108359922
0.02121143003
0.02131239686
0.02137107866
0.02093357849
0.02100745537
0.02111202896
0.02123884221
0.0213778207
0.02151734071
0.02164439058
0.02174473293
0.02180304767
0.02136792524
0.02144135782
0.02154529826
0.02167133687
0.02180945751
0.02194810651
0.02207435397
0.02217405545
0.02223199393
0.02179934545
0.02187232068
0.0219756098
0.02210085223
0.02223809204
0.0223758477
0.02250127312
0.02260031877
0.02265787259
0.0222277863
0.02230029222
0.02240291338
0.02252733991
0.02266367793
0.02280051987
0.02292510534
0.02302348155
0.02308064309
0.02265319958
0.02272522527
0.0228271633
0.02295075597
0.0230861731
0.02322208281
0.02334581211
0.02344350652
0.02350026887
0.0230755415
0.02314707705
0.02324831815
0.02337106068
0.02350553961
0.02364050033
0.02376335876
0.02386036026
0.02391671719
0.02349477244
0.02356580886
0.02366634059
0.02378821825
0.02392174337
0.02405574
0.02417771436
0.02427401292
0.02432995886
0.02391085677
0.02398138597
0.0240811971
0.02420219666
0.02433475395
0.02446777295
0.02458885142
0.02468443811
0.02473996807
0.0243237626
0.02439377734
0.02449285781
0.02461296744
0.02474454439
0.02487657368
0.02499674575
0.02509161262
0.02514672218
0.02473346161
0.02480295543
0.02490129631
0.02502050549
0.02515109097
0.02528211987
0.02540137623
0.02549551628
0.02555020154
0.02513992887
0.02520889605
0.02530648942
0.02542478885
0.02555437307
0.02568439218
0.02580272467
0.02589613177
0.02595038934
0.0255431426
0.02561157811
0.02570841704
0.02582579858
0.02595437298
0.0260833741
0.02620077562
0.02629344445
0.0263472714
0.02594308406
0.02601098352
0.02610706197
0.02622351854
0.02635107572
0.02647905176
0.02659551622
0.02668744223
0.02674083605
0.02633973731
0.02640709695
0.02650240971
0.02661793526
0.02674446887
0.02687141381
0.02698693604
0.02707811538
0.02713107397
0.02673308908
0.02679990569
0.02689444836
0.02700903776
0.02713454245
0.02726045125
0.02737502694
0.02746545643
0.02751797805
0.02712312864
0.02718939952
0.02728316842
0.0273968174
0.02752128877
0.02764615727
0.02775978291
0.02784946
0.02790154328
0.02750984757
0.02757557052
0.02766856264
0.02778126775
0.02790470225
0.02802852717
0.0281412
0.02823012268
0.02828176655
0.02789323968
0.02795841296
0.02805062593
0.02816238445
0.02828477934
0.02840755815
0.02851927611
0.02860744292
0.02865864664
0.02827330086
0.02833792313
0.02842935516
0.02854016509
0.02866151836
0.02878324927
0.02889401094
0.02898142092
0.029032184
0.02865002893
0.02871409925
0.02880474909
0.02891460907
0.0290349194
0.0291556013
0.02926540584
0.02935205848
0.02940238069
0.02902342354
0.02908694131
0.02917680822
0.02928571746
0.02940498419
0.02952461658
0.02963346372
0.02971935895
0.02976924031
0.029393486
0.02945645099
0.02954553468
0.02965349297
0.029771716
0.02989029898
0.02999818896
0.03008332706
0.03013276783
0.02976021926
0.02982263151
0.02991093214
0.03001793976
0.03013511956
0.03025265374
0.03035958726
0.03044396892
0.03049296953
0.03012362771
0.03018548755
0.03027300566
0.03037906338
0.03049520091
0.0306116874
0.03071766562
0.03080129184
0.03084985293
0.03048371712
0.03054502517
0.03063176166
0.03073687068
0.03085196737
0.03096740774
0.03107243221
0.0311553043
0.03120342669
0.03084049457
0.03090125166
0.03098720778
0.03109136969
0.0312054274
0.03131982365
0.03142389628
0.03150601586
0.03155370052
0.0311939683
0.0312541755
0.03133935281
0.03144256957
0.03155559056
0.03166894506
0.03177206813
0.03185343706
0.03190068512
0.03154414768
0.03160380625
0.03168820659
0.03179048051
0.03190246741
0.03201478289
0.03211695898
0.03219757937
0.0322443921
0.03189104308
0.03195015449
0.03203377996
0.03213511367
0.03224606942
0.03235734895
0.03245858094
0.03253845513
0.03258483391
0.03223466585
0.03229323173
0.03237608467
0.03247648106
0.03258640895
0.03269665588
0.03279694691
0.03287607744
0.03292202379
0.03257502819
0.03263305032
0.03271513331
0.03281459556
0.03292349911
0.03303271709
0.03313207054
0.03321046015
0.03325597568
0.03291214312
0.03296962343
0.03305093923
0.03314947074
0.03325735377
0.03336554669
0.03346396617
0.03354161775
0.03358670417
0.03324602437
0.03330296493
0.0333835165
0.0334811209
0.03358798743
0.0336951594
0.03379264873
0.03386956534
0.03391422444
0.03357668637
0.03363308936
0.03371287981
0.03380956092
0.0339154152
0.03402157055
0.03411813371
0.03419431855
0.03423855222
0.03390414413
0.03396001184
0.03403904444
0.03413480626
0.03423965272
0.03434479595
0.0344404371
0.03451589348
0.03455970367
0.03422841322
0.03428374803
0.03436202617
0.03445687286
0.0345607161
0.03466485187
0.03475957531
0.03483430665
0.03487769536
0.03454950966
0.03460431404
0.03468184122
0.03477577706
0.03487862182
0.03498175494
0.03507556507
0.0351495749
0.03519254419
0.03486744987
0.03492172636
0.0349985062
0.03509153559
0.03519338672
0.0352955221
0.03538842344
0.03546171533
0.03550426731
0.03518225062
0.0352360018
0.03531203797
0.0354041654
0.03550502786
0.03560617049
0.03569816761
0.03577074521
0.035812882
0.03549392889
0.03554715739
0.03562245363
0.03571368364
0.03581356243
0.03591371737
0.0360048149
0.03607668188
0.03611840561
0.03580250179
0.03585521027
0.03592977034
0.03602010752
0.03611900767
0.03621817999
0.03630838256
0.03637954259
0.03642085542
0.03610798649
0.0361601776
0.03623400527
0.03632345417
0.03642138071
0.03651957546
0.03660888768
0.0366793444
0.03672024843
0.03641039999
0.03646207637
0.03653517537
0.03662374053
0.0367206984
0.03681792056
0.03690634695
0.03697610393
0.03701660125
0.03670975904
0.03676092327
0.03683329725
0.03692098309
0.03701697714
0.03711323153
0.03720077648
0.03726983717
0.03730992977
0.03700607985
0.03705673443
0.03712838692
0.03721519769
0.03731023254
0.03740552378
0.03749219147
0.03756055915
0.03760024892
0.03729937788
0.03734952517
0.03742045949
0.03750639919
0.03760047918
0.03769481158
0.03778060586
0.03784828354
0.03788757222
0.03758966743
0.03763930961
0.0377095288
0.03779460108
0.03788773013
0.03798110754
0.03806603185
0.03813302219
0.03817191129
0.03787696127
0.03792610025
0.03799560697
0.03807981498
0.03817199644
0.03826442212
0.03834847933
0.03841478451
0.03845327524
0.03816127006
0.03820990739
0.03827870379
0.03836205001
0.0384532865
0.03854476291
0.03862795511
0.03869357666
0.03873166987
0.03844260169
0.03849073846
0.03855882599
0.03864131206
0.03873160517
0.03882213372
0.038904462
0.03896940064
0.03900709668
0.03872096047
0.03876859714
0.03883597636
0.03891760278
0.03900695283
0.03909653357
0.03917799772
0.0392422531
0.03927955166
0.03899634604
0.0390434823
0.03911015262
0.03919091845
0.0392793241
0.03936795534
0.0394485535
0.03951212389
0.03954902385
0.0392687522
0.03931538673
0.0393813461
0.03946124855
0.03954870636
0.03963638422
0.03971611244
0.0397789944
0.0398154936
0.03953816543
0.03958429563
0.03964954014
0.03972857412
0.03981507803
0.03990179586
0.03998064756
0.04004283551
0.0400789305
0.03980456312
0.03985018481
0.03991470829
0.03999286584
0.0400784065
0.04016415424
0.04024211961
0.04030360531
0.04033929104
0.0400679116
0.04011301867
0.04017681211
0.04025408174
0.04033864581
0.04042340922
0.04050047449
0.04056124644
0.04059651594
0.04032816384
0.04037274781
0.04043579878
0.04051216474
0.04059573403
0.04067949382
0.04075564044
0.04081568324
0.0408505272
0.04058525696
0.04062930651
0.04069159849
0.04076703988
0.0408495904
0.04093232124
0.04100752497
0.0410668186
0.0411012249
0.04083910943
0.04088260988
0.04094412148
0.04101861138
0.0411001123
0.04118178176
0.04125601168
0.04131453063
0.04134848393
0.04108961818
0.04113255092
0.04119325509
0.04126675952
0.04134717207
0.04142773949
0.04150095692
0.04155866943
0.04159215063
0.0413366556
0.0413789975
0.04143886067
0.04151133759
0.04159061388
0.0416700292
0.04174218668
0.0417990538
0.04183203955
0.04158006657
0.04162178939
0.04168077063
0.04175216886
0.04183025078
0.0419084534
0.04197949359
0.0420354684
0.04206793062
0.0418196657
0.04186073547
0.04191878568
0.04198904394
0.04206586208
0.04214277977
0.0422126345
0.04226766137
0.04229956677
0.04205523482
0.04209561141
0.04215267256
0.04222171859
0.04229719125
0.04237273926
0.04244132875
0.04249534265
0.04252665246
0.0422865211
0.04232615771
0.04238216232
0.04244991223
0.04252394478
0.04259802511
0.04266525733
0.04271818348
0.04274885315
0.04251323588
0.04255207879
0.04260694951
0.04267330734
0.04274579182
0.04281829296
0.04288406343
0.0429358171
0.04296579627
0.04273505453
0.04277304303
0.04282669254
0.04289155023
0.04296236531
0.04303316232
0.04309735429
0.04314784102
0.04317707363
0.04295161753
0.04298868403
0.04304101533
0.04310425304
0.04317326461
0.04324221971
0.04330470483
0.04335382105
0.0433822458
0.04316253293
0.04319860342
0.04324951045
0.04331099754
0.04337805975
0.04344502361
0.04350566319
0.0435532973
0.04358084831
0.04336738045
0.04340237524
0.04345174406
0.04351134054
0.04357629758
0.04364111125
0.04369975816
0.04374579221
0.0437724
0.04356571729
0.04359955214
0.04364726259
0.04370482122
0.04376750986
0.04383000742
0.04388650872
0.04393082053
0.04395641339
0.04375708571
0.04378967334
0.0438356012
0.04389097033
0.04395122309
0.04401123507
0.04406543527
0.04410790118
0.04413240682
0.04394102236
0.04397227431
0.04401629406
0.04406932102
0.04412697009
0.0441843276
0.04423607257
0.04427657068
0.04429991816
0.04411706923
0.04414689805
0.04418888603
0.04423942114
0.04429430295
0.0443488424
0.04439798387
0.04443639767
0.04445851959
0.04428478586
0.04431310762
0.04435294567
0.04440084671
0.04445280691
0.04450437519
0.04455077561
0.04458699794
0.04460783281
0.04444376252
0.04447049954
0.04450807883
0.04455321583
0.04460211468
0.04465057465
0.04469411223
0.04472804936
0.044747544
0.04459363391
0.04461871752
0.04465394261
0.04469620271
0.04474192047
0.04478715643
0.0448277302
0.04485930584
0.0448774177
0.04473409263
0.04475746597
0.0447902587
0.04482955095
0.04487199309
0.044913916
0.04495145056
0.04498060957
0.04499730893
0.04486490187
0.04488652251
0.04491682566
0.0449530854
0.04499218734
0.04503073952
0.04506518918
0.04509190083
0.04510717259
0.04498590671
0.04500574889
0.04503352935
0.04506672194
0.04510245302
0.04513761192
0.04516896409
0.0451932246
0.04520706981
0.04509704318
0.04511509963
0.04514035085
0.04517047446
0.04520284081
0.04523462174
0.04526289916
0.04528473365
0.04529717081
0.04519834467
0.04521462777
0.04523737129
0.04526445862
0.04529350465
0.04532196206
0.04534722328
0.04536668376
0.04537774576
0.04528994517
0.04530448742
0.04532477334
0.04534889202
0.04537470015
0.04539992479
0.04542226009
0.0454394245
0.04544916021
0.04537207922
0.04538493291
0.04540283875
0.04542408778
0.04544677404
0.04546889156
0.04548842405
0.04550339614
0.04551186923
0.04544507408
0.04545630844
0.04547193591
0.04549044492
0.04551015924
0.0455293287
0.04554621119
0.04555911759
0.04556640473
0.04550934055
0.04551904184
0.04553251642
0.04554844307
0.0455653652
0.04558177458
0.04559618513
0.04560717165
0.04561336016
0.04556536757
0.04557363665
0.04558510402
0.04559862952
0.04561296385
0.04562682453
0.04563896123
0.04564818838
0.0456533736
0.04561370921
0.04562065867
0.04563028043
0.04564160431
0.0456535739
0.04566511441
0.04567518944
0.04568282772
0.04568711012
0.04565496973
0.04566072063
0.04566866968
0.04567800399
0.04568784413
0.04569730358
0.04570553713
0.0457117621
0.04571524448
0.04568978753
0.04569446598
0.04570092165
0.04570848503
0.04571643668
0.04572405818
0.04573067247
0.04573566004
0.04573844469
0.04571881873
0.04572255248
0.04572769571
0.04573370765
0.04574001116