/*--------------------------------*- C++ -*----------------------------------*\
| =========                 |                                                 |
| \\      /  F ield         | OpenFOAM: The Open Source CFD Toolbox           |
|  \\    /   O peration     | Version:  2212                                  |
|   \\  /    A nd           | Website:  www.openfoam.com                      |
|    \\/     M anipulation  |                                                 |
\*---------------------------------------------------------------------------*/
FoamFile
{
    version     2.0;
    format      ascii;
    arch        "LSB;label=32;scalar=64";
    class       volScalarField;
    location    "30.00000000";
    object      C5H6_0;
}
// * * * * * * * * * * * * * * * * * * * * * * * * * * * * * * * * * * * * * //

dimensions      [0 0 0 0 0 0 0];

internalField   nonuniform List<scalar> 
3000
(
3.487648915e-20
3.918300944e-20
4.568183071e-20
5.434265385e-20
6.507790193e-20
7.759650078e-20
9.114451697e-20
1.040733477e-19
1.13215194e-19
1.309577602e-19
1.477227002e-19
1.73011343e-19
2.067876714e-19
2.490198745e-19
2.994769039e-19
3.572819727e-19
4.195307645e-19
4.746550982e-19
2.934121448e-19
3.335807763e-19
3.947505452e-19
4.778111545e-19
5.842592339e-19
7.156447161e-19
8.714440075e-19
1.042924552e-18
1.189432737e-18
5.590602407e-19
6.422676122e-19
7.70837829e-19
9.491317194e-19
1.183476175e-18
1.479839048e-18
1.836601172e-18
2.225239821e-18
2.538905488e-18
9.931993783e-19
1.15505564e-18
1.409093208e-18
1.768242928e-18
2.249423943e-18
2.866156142e-18
3.608143231e-18
4.396209965e-18
5.001201473e-18
1.708826009e-18
2.012797184e-18
2.496736517e-18
3.191591274e-18
4.134495736e-18
5.349261197e-18
6.799651527e-18
8.302820484e-18
9.415048749e-18
2.90288228e-18
3.461634839e-18
4.36157681e-18
5.668347272e-18
7.454858187e-18
9.756794324e-18
1.247906135e-17
1.524535892e-17
1.724170873e-17
4.916261577e-18
5.928177361e-18
7.572491842e-18
9.97860492e-18
1.328096787e-17
1.752741366e-17
2.250510361e-17
2.748958153e-17
3.102662782e-17
8.340100451e-18
1.01532602e-17
1.311851493e-17
1.747931891e-17
2.347476783e-17
3.116278275e-17
4.010931183e-17
4.897440978e-17
5.519540037e-17
1.41985878e-17
1.742144404e-17
2.271579287e-17
3.052604875e-17
4.12689802e-17
5.500651096e-17
7.090223647e-17
8.653646662e-17
9.742539532e-17
2.426736236e-17
2.996117013e-17
3.934278887e-17
5.320717953e-17
7.22722558e-17
9.658914579e-17
1.24602838e-16
1.520119948e-16
1.710085835e-16
4.162584847e-17
5.163891992e-17
6.816900799e-17
9.261820251e-17
1.262124609e-16
1.689556006e-16
2.180196896e-16
2.658496334e-16
2.989237487e-16
7.161874225e-17
8.917011361e-17
1.18179331e-16
1.610962334e-16
2.19996991e-16
2.947374239e-16
3.802112847e-16
4.632883958e-16
5.209509109e-16
1.235291402e-16
1.542323475e-16
2.05024166e-16
2.801747228e-16
3.831888326e-16
5.134896694e-16
6.616152153e-16
8.045193062e-16
9.065007988e-16
2.134815502e-16
2.671376019e-16
3.559939425e-16
4.875656557e-16
6.679318084e-16
8.9562514e-16
1.151887878e-15
1.387056376e-15
1.580085756e-15
3.694479842e-16
4.631326758e-16
6.184818185e-16
8.489370696e-16
1.165924255e-15
1.569345926e-15
2.034332967e-15
2.498965086e-15
2.789450894e-15
6.398845377e-16
8.031804583e-16
1.074124191e-15
1.476221151e-15
2.029202616e-15
2.731697018e-15
3.535420075e-15
4.314680452e-15
4.843734677e-15
1.108830185e-15
1.393036908e-15
1.864693724e-15
2.564589048e-15
3.526518785e-15
4.746849435e-15
6.139809895e-15
7.487089725e-15
8.409308084e-15
1.922139124e-15
2.416331798e-15
3.236560325e-15
4.453603767e-15
6.125752376e-15
8.245938309e-15
1.066460107e-14
1.300324605e-14
1.460517962e-14
3.332984961e-15
4.191877742e-15
5.617555282e-15
7.732941704e-15
1.063898156e-14
1.432283806e-14
1.852425791e-14
2.258586194e-14
2.536766733e-14
5.780845328e-15
7.273137208e-15
9.750424901e-15
1.342625088e-14
1.847565211e-14
2.487568009e-14
3.217356093e-14
3.92271729e-14
4.405732734e-14
1.002867062e-14
1.262098349e-14
1.692468379e-14
2.331069276e-14
3.208259405e-14
4.319956595e-14
5.587407423e-14
6.812207552e-14
7.650799706e-14
1.740114307e-14
2.190380038e-14
2.937937702e-14
4.047199905e-14
5.570815259e-14
7.501539187e-14
9.702422002e-14
1.182887744e-13
1.32846612e-13
3.019853916e-14
3.801876294e-14
5.100264819e-14
7.026843219e-14
9.672895891e-14
1.3025579e-13
1.684678685e-13
2.053822213e-13
2.306511072e-13
5.241562491e-14
6.599730275e-14
8.854673486e-14
1.220045093e-13
1.679526724e-13
2.261634696e-13
2.924981669e-13
3.565697884e-13
4.004245485e-13
9.099010909e-14
1.145774117e-13
1.537373523e-13
2.118359768e-13
2.916130441e-13
3.926630592e-13
5.077923396e-13
6.189720657e-13
6.950604393e-13
1.579705536e-13
1.989337316e-13
2.66935581e-13
3.678108971e-13
5.062990984e-13
6.816726553e-13
8.814253888e-13
1.074272175e-12
1.206220973e-12
2.742797426e-13
3.454166064e-13
4.634926946e-13
6.3861286e-13
8.789621257e-13
1.18322201e-12
1.529643997e-12
1.863959382e-12
2.092626478e-12
4.762412641e-13
5.997691118e-13
8.047639105e-13
1.10870341e-12
1.525690107e-12
2.05330298e-12
2.653704006e-12
3.232803196e-12
3.628704571e-12
8.26885948e-13
1.041358352e-12
1.397172021e-12
1.924505444e-12
2.647578866e-12
3.561873341e-12
4.601517114e-12
5.603493736e-12
6.288008815e-12
1.435506559e-12
1.807778932e-12
2.425137652e-12
3.339570479e-12
4.592492387e-12
6.175312101e-12
7.973266851e-12
9.704200102e-12
1.088551998e-11
2.491402548e-12
3.13728343e-12
4.207802628e-12
5.792239528e-12
7.960995252e-12
1.069742543e-11
1.380142047e-11
1.678528257e-11
1.8818849e-11
4.321945804e-12
5.441725488e-12
7.29638523e-12
1.003861413e-11
1.37871567e-11
1.850919737e-11
2.385552602e-11
2.898477077e-11
3.247386449e-11
7.492140185e-12
9.43145738e-12
1.264050743e-11
1.737902049e-11
2.384524324e-11
3.197354027e-11
4.115413561e-11
4.993923166e-11
5.5900355e-11
1.297459152e-11
1.632814709e-11
2.18707629e-11
3.004119177e-11
4.116603837e-11
5.511272222e-11
7.081630497e-11
8.579400561e-11
9.592496578e-11
2.243821053e-11
2.822530483e-11
3.777553905e-11
5.18235723e-11
7.089828942e-11
9.47306708e-11
1.214619787e-10
1.468535973e-10
1.639611484e-10
3.873571616e-11
4.869492453e-11
6.509931987e-11
8.916550681e-11
1.217310408e-10
1.622506356e-10
2.074856736e-10
2.502412106e-10
2.789113405e-10
6.672135953e-11
8.380040027e-11
1.11867213e-10
1.529091128e-10
2.082144042e-10
2.766849284e-10
3.526961017e-10
4.241212483e-10
4.717504656e-10
1.146123458e-10
1.437732046e-10
1.915604337e-10
2.611662919e-10
3.544970384e-10
4.693659903e-10
5.960546179e-10
7.142993568e-10
7.92651764e-10
1.96236785e-10
2.457618014e-10
3.266498238e-10
4.439251326e-10
6.002609304e-10
7.913702341e-10
1.000581658e-09
1.19437619e-09
1.32189166e-09
3.347118762e-10
4.182915694e-10
5.542663907e-10
7.503512893e-10
1.010007154e-09
1.324987977e-09
1.666964083e-09
1.98112689e-09
2.186284839e-09
5.684028193e-10
7.084195756e-10
9.351857073e-10
1.260198834e-09
1.687367994e-09
2.20117398e-09
2.754030412e-09
3.257454846e-09
3.583602982e-09
9.604729949e-10
1.193075537e-09
1.567874688e-09
2.101389925e-09
2.796841425e-09
3.625708088e-09
4.50912553e-09
5.306191458e-09
5.818389941e-09
1.614012177e-09
1.996812722e-09
2.610157163e-09
3.476717436e-09
4.596332083e-09
5.91788062e-09
7.312597048e-09
8.559275992e-09
9.353898975e-09
2.695702791e-09
3.319230157e-09
4.312180085e-09
5.703855433e-09
7.485233918e-09
9.567000025e-09
1.174222087e-08
1.366857848e-08
1.488667578e-08
4.472355438e-09
5.476772183e-09
7.065911798e-09
9.274546101e-09
1.207463567e-08
1.531404892e-08
1.866560554e-08
2.160699532e-08
2.345277074e-08
7.366538374e-09
8.965592759e-09
1.147851847e-08
1.494112707e-08
1.928875073e-08
2.426858813e-08
2.937163868e-08
3.381167869e-08
3.657791973e-08
1.204009581e-08
1.455485691e-08
1.847983187e-08
2.384168287e-08
3.051010657e-08
3.807478894e-08
4.575615672e-08
5.23856578e-08
5.648859631e-08
1.951779519e-08
2.342345976e-08
2.947798915e-08
3.767932763e-08
4.778568478e-08
5.914559934e-08
7.058260017e-08
8.038006879e-08
8.640702846e-08
3.136792977e-08
3.735796779e-08
4.658251955e-08
5.89768123e-08
7.411747424e-08
9.099095506e-08
1.07845943e-07
1.221872637e-07
1.309616561e-07
4.996279382e-08
5.903602102e-08
7.292109706e-08
9.143525082e-08
1.138692728e-07
1.386751671e-07
1.632782685e-07
1.840859426e-07
1.967558406e-07
7.885004975e-08
9.24280178e-08
1.130854337e-07
1.404358412e-07
1.733326162e-07
2.094507472e-07
2.450476576e-07
2.7499386e-07
2.931529512e-07
1.232767956e-07
1.43361391e-07
1.737541215e-07
2.137367238e-07
2.615090234e-07
3.136314867e-07
3.647191332e-07
4.075021811e-07
4.333557536e-07
1.909224685e-07
2.203073922e-07
2.645569671e-07
3.224347023e-07
3.911840261e-07
4.657866272e-07
5.385667467e-07
5.992874201e-07
6.35880228e-07
2.928987754e-07
3.354484027e-07
3.992443096e-07
4.82268359e-07
5.803882581e-07
6.863701271e-07
7.89360391e-07
8.750254051e-07
9.26542034e-07
4.451249496e-07
5.061483307e-07
5.972971329e-07
7.154027707e-07
8.543795199e-07
1.003907847e-06
1.148746447e-06
1.268921544e-06
1.341065745e-06
6.702060502e-07
7.569527099e-07
8.861039107e-07
1.052829811e-06
1.24829892e-06
1.457916606e-06
1.660398975e-06
1.828027494e-06
1.928485253e-06
9.999609385e-07
1.122275477e-06
1.303879034e-06
1.537576208e-06
1.810701471e-06
2.10275324e-06
2.384147652e-06
2.616598586e-06
2.75566498e-06
1.478798569e-06
1.649978311e-06
1.903534706e-06
2.228933502e-06
2.608175007e-06
3.012623161e-06
3.401377596e-06
3.721875755e-06
3.913341771e-06
2.168159743e-06
2.406060166e-06
2.757721419e-06
3.207923038e-06
3.731283622e-06
4.288069903e-06
4.822121042e-06
5.261692202e-06
5.524008411e-06
3.152213003e-06
3.480638762e-06
3.965220051e-06
4.584220312e-06
5.302172921e-06
6.064393658e-06
6.794258126e-06
7.394261979e-06
7.752034399e-06
4.544912293e-06
4.995355517e-06
5.658891695e-06
6.504879509e-06
7.484271089e-06
8.522367666e-06
9.515142321e-06
1.033055337e-05
1.08165105e-05
6.498559368e-06
7.112438332e-06
8.015528487e-06
9.16521558e-06
1.049431095e-05
1.190141459e-05
1.32459178e-05
1.434960802e-05
1.500717874e-05
9.214184032e-06
1.004571798e-05
1.126777481e-05
1.282181116e-05
1.461656755e-05
1.651522897e-05
1.832857843e-05
1.981684311e-05
2.070352433e-05
1.295371045e-05
1.407338529e-05
1.57177247e-05
1.780719968e-05
2.021890901e-05
2.276940182e-05
2.520520542e-05
2.720474878e-05
2.839641529e-05
1.805321419e-05
1.955173832e-05
2.175143009e-05
2.454543786e-05
2.776965983e-05
3.117975343e-05
3.443787758e-05
3.711425097e-05
3.871043365e-05
2.493634742e-05
2.692897175e-05
2.985322655e-05
3.356707496e-05
3.785336408e-05
4.238902663e-05
4.672636264e-05
5.029335668e-05
5.24231892e-05
3.412682467e-05
3.675760892e-05
4.061804786e-05
4.55212947e-05
5.118264239e-05
5.717834816e-05
6.291913251e-05
6.764777985e-05
7.047573628e-05
4.625822888e-05
4.970364772e-05
5.475948755e-05
6.118237417e-05
6.860248657e-05
7.646883384e-05
8.401196815e-05
9.023672802e-05
9.396651933e-05
6.207922203e-05
6.655018213e-05
7.311086602e-05
8.144710158e-05
9.108284833e-05
0.0001013082593
0.0001111280739
0.0001192468463
0.000124121226
8.245169424e-05
8.819276285e-05
9.661617193e-05
0.0001073195101
0.0001196953161
0.0001328380655
0.0001454746017
0.0001559390975
0.0001622333829
0.0001083387988
0.0001156232379
0.0001263073564
0.0001398791639
0.0001555700026
0.000172236979
0.0001882724356
0.0002015665026
0.0002095753486
0.0001407791461
0.0001498983104
0.0001632642551
0.000180229484
0.0001998296099
0.0002206389301
0.0002406578005
0.0002572621643
0.0002672767486
0.000180843138
0.000192089098
0.0002085540096
0.0002294239716
0.0002534999031
0.0002790262707
0.0003035572278
0.0003238910801
0.0003361504825
0.00022956825
0.0002432093077
0.0002631489749
0.0002883713357
0.0003174008225
0.000348106081
0.0003775441357
0.0004018905099
0.0004165421009
0.0002878725216
0.0003041225564
0.0003278256455
0.0003577248264
0.0003920258808
0.0004281734815
0.0004626975052
0.0004911505931
0.0005082273044
0.0003564498873
0.0003754338616
0.0004030519689
0.0004377640996
0.0004774102426
0.0005189868606
0.0005584976621
0.000590909153
0.0006102887546
0.0004356541828
0.0004573715195
0.0004888610151
0.0005282632244
0.0005730272738
0.000619691792
0.0006637667135
0.0006997171932
0.0007211116941
0.0005253628686
0.0005496516845
0.0005847355145
0.0006284113715
0.0006777224336
0.0007287794983
0.0007766665881
0.0008154675446
0.0008384297537
0.0006248730135
0.000651397785
0.0006895484691
0.000736770787
0.00078972147
0.0008441334313
0.0008947706038
0.0009354950772
0.0009594434374
0.0007328499852
0.0007611026556
0.0008015513129
0.0008513040834
0.0009066791977
0.0009631148916
0.00101519401
0.001056737768
0.001080997898
0.0008473238145
0.000876642741
0.0009184094693
0.0009694449913
0.001025796499
0.001082723614
0.001134780005
0.001175944351
0.001199802112
0.0009657498398
0.0009953605915
0.001037322514
0.00108823672
0.00114398531
0.001199783234
0.001250316734
0.001289908257
0.001312670151
0.001085130528
0.00111420019
0.001155170607
0.001204518184
0.001258079642
0.001311171319
0.001358774768
0.001395714004
0.001416773462
0.00120219197
0.001229893354
0.001268715178
0.001315122367
0.001365041555
0.001414039321
0.001457538203
0.00149098471
0.001509911961
0.001313599053
0.001339176664
0.001374815953
0.001417094504
0.001462170256
0.001506005652
0.001544595382
0.001574106951
0.001590922649
0.001416192111
0.001439021292
0.00147064794
0.001507886855
0.001547263098
0.001585270386
0.001618604741
0.001644060917
0.001658396266
0.001507232909
0.001526865471
0.001553913051
0.001585538432
0.001618740258
0.001650673507
0.001678347321
0.001699142248
0.001710681822
0.001584657857
0.001600847434
0.001623052948
0.001648903932
0.001675698103
0.001700922035
0.001722317172
0.001738034982
0.001746575294
0.001647377706
0.001660072088
0.001677256201
0.001696836316
0.001716635309
0.001734699166
0.00174948003
0.001759923582
0.001765386187
0.001694233115
0.001703166185
0.001714982551
0.001727983989
0.001740522166
0.001751263021
0.001759369653
0.001764557618
0.001766986154
0.00172380783
0.001728879075
0.001735228868
0.001741610525
0.001746927776
0.001750478227
0.001752112651
0.001752262279
0.00175181017
0.001735350878
0.001736626766
0.001737644107
0.001737632247
0.001736051841
0.00173281374
0.001728407958
0.001723905326
0.001720816853
0.00172883122
0.001726529942
0.001722555821
0.001716613038
0.00170870004
0.001699298055
0.001689467814
0.001680829208
0.001675416475
0.001704925936
0.00169939083
0.001690933756
0.001679710024
0.001666214887
0.001651437989
0.001636928565
0.001624757665
0.001617376105
0.001664949613
0.001656615434
0.001644303383
0.001628577796
0.001610372698
0.001591111149
0.00157274149
0.001557686931
0.001548711776
0.001610737176
0.001600093602
0.001584623182
0.001565243895
0.001543259285
0.001520443973
0.001499054697
0.001481771758
0.001471577358
0.0015444967
0.001532053227
0.001514141619
0.00149197035
0.001467137897
0.001441687406
0.001418096756
0.001399215764
0.001388158908
0.001468650861
0.001454906439
0.001435250491
0.001411116231
0.00138432236
0.001357100893
0.001332070641
0.001312173193
0.001300580875
0.001385684368
0.001371103641
0.001350348346
0.00132501247
0.001297064296
0.001268851873
0.001243064007
0.001222667233
0.001210828778
0.001298010247
0.001283007323
0.001261724719
0.001235858284
0.001207462237
0.001178936773
0.001152980163
0.001132528217
0.001120691258
0.001207864622
0.001192793963
0.001171471701
0.001145643788
0.001117395442
0.001089125086
0.001063490587
0.001043352104
0.001031721648
0.001117233054
0.001102386404
0.001081424396
0.001056099505
0.001028482415
0.001000925963
0.0009760079907
0.000956478042
0.0009452178508
0.001027807512
0.001013415415
0.0009931285503
0.00096867071
0.0009420617858
0.0009155748325
0.000891677477
0.0008729826142
0.0008622181538
0.0009409700315
0.0009272064681
0.0009078313983
0.0008845126792
0.0008591917766
0.0008340364997
0.0008113824321
0.0007936876182
0.000783509959
0.0008577975439
0.0008447863736
0.0008264906152
0.0008045021013
0.0007806638863
0.0007570207288
0.0007357615479
0.0007191779996
0.0007096481524
0.0007790819522
0.0007669041248
0.0007497961205
0.0007292598557
0.0007070265652
0.0006850064752
0.0006652333335
0.0006498265725
0.0006409799864
0.0007053600325
0.0006940608914
0.0006782000892
0.0006591808594
0.0006386146
0.0006182709872
0.0006000250606
0.0005858227921
0.0005776736891
0.0006369483599
0.00062654445
0.0006119506882
0.0005944670517
0.000575581498
0.0005569214026
0.0005402035646
0.0005272029599
0.0005197483858
0.0005739797359
0.0005644649636
0.0005511269729
0.0005351612141
0.0005179320553
0.0005009261719
0.0004857057073
0.0004738799899
0.0004671034963
0.0005164387176
0.0005077897228
0.0004956725342
0.0004811793379
0.0004655534021
0.0004501448513
0.0004363671083
0.0004256713642
0.0004195462733
0.0004641945003
0.0004563752246
0.0004454264724
0.0004323403147
0.0004182433618
0.0004043552032
0.0003919481728
0.0003823243686
0.0003768166085
0.0004170302042
0.0004099956982
0.0004001508786
0.0003883922054
0.0003757354575
0.0003632770056
0.0003521568707
0.000343538103
0.0003386086194
0.0003746681411
0.0003683676828
0.0003595544671
0.0003490347694
0.0003377202887
0.000326592325
0.0003166680542
0.0003089820775
0.0003045888431
0.0003367910107
0.0003311706169
0.0003233123293
0.000313938242
0.0003038632783
0.0002939622741
0.0002851393481
0.0002783114427
0.0002744110949
0.0003030592146
0.0002980636295
0.0002910820003
0.0002827585492
0.0002738189874
0.0002650404515
0.0002572238192
0.0002511790669
0.0002477282082
0.0002731246257
0.0002686988622
0.000262516163
0.0002551492803
0.0002472423083
0.0002394833759
0.0002325797366
0.0002272447757
0.0002242009765
0.000246641222
0.0002427317271
0.0002372723818
0.0002307708015
0.0002237969146
0.0002169582854
0.0002108777919
0.0002061821221
0.0002035046649
0.0002232730234
0.0002198285284
0.0002150202866
0.0002092969184
0.0002031613654
0.0001971486937
0.0001918061651
0.0001876830713
0.0001853334746
0.0002026997587
0.0001996718709
0.0001954466187
0.0001904194912
0.0001850332574
0.0001797580859
0.0001750738129
0.0001714609718
0.0001694033317
0.0001846206689
0.0001819642505
0.0001782585258
0.0001738513774
0.0001691317898
0.0001645121127
0.0001604123317
0.00015725216
0.0001554533424
0.0001687568092
0.0001664301865
0.0001631854573
0.0001593280448
0.000155199074
0.0001511596029
0.0001475767049
0.0001448165029
0.0001432462182
0.0001548521723
0.0001528172107
0.0001499799657
0.0001466081511
0.0001430004773
0.0001394726749
0.0001363452101
0.0001339371459
0.0001325679324
0.0001426739084
0.0001408959836
0.0001384176797
0.0001354733473
0.0001323242445
0.0001292461846
0.0001265187108
0.0001244196863
0.0001232268261
0.000132011874
0.0001304597661
0.0001282966692
0.000125727517
0.0001229806057
0.0001202967032
0.0001179195238
0.0001160909558
0.0001150523424
0.0001226777043
0.0001213234367
0.0001194363852
0.0001171956264
0.000114800532
0.0001124611859
0.0001103900119
0.0001087975556
0.0001078935296
0.0001145035572
0.0001133221972
0.000111676315
0.0001097223219
0.0001076342747
0.0001055954556
0.0001037910193
0.0001024042575
0.0001016174233
0.0001073406584
0.000106310096
0.000104874476
0.0001031703909
0.000101349791
9.957259685e-05
9.800024186e-05
9.679235672e-05
9.610739009e-05
0.0001010577471
0.0001001584622
9.890583456e-05
9.741916291e-05
9.583113126e-05
9.428133265e-05
9.291059671e-05
9.185803818e-05
9.126149262e-05
9.553948663e-05
9.475431417e-05
9.366071175e-05
9.236291579e-05
9.097684733e-05
8.962443739e-05
8.842864128e-05
8.7510802e-05
8.699091972e-05
9.06848975e-05
8.999879605e-05
8.904322812e-05
8.790933096e-05
8.669846077e-05
8.551722032e-05
8.447307258e-05
8.367197632e-05
8.32185076e-05
8.64058497e-05
8.580568046e-05
8.496981987e-05
8.397802755e-05
8.291901835e-05
8.188610386e-05
8.097332764e-05
8.027333622e-05
7.987736982e-05
8.262564115e-05
8.209995909e-05
8.136784806e-05
8.049919476e-05
7.957175096e-05
7.866731021e-05
7.78682963e-05
7.72558378e-05
7.690964414e-05
7.927767682e-05
7.881653665e-05
7.817431372e-05
7.741233331e-05
7.659884455e-05
7.580566272e-05
7.510515091e-05
7.45684707e-05
7.426535851e-05
7.630425699e-05
7.589903493e-05
7.533468454e-05
7.466510993e-05
7.395032558e-05
7.32535028e-05
7.263829237e-05
7.216722741e-05
7.190141387e-05
7.365547727e-05
7.329870896e-05
7.280183402e-05
7.221232465e-05
7.158305933e-05
7.096971975e-05
7.042840859e-05
7.00141845e-05
6.978067883e-05
7.128823868e-05
7.097347313e-05
7.053509032e-05
7.001498719e-05
6.945985661e-05
6.891888771e-05
6.84416393e-05
6.807668931e-05
6.787118901e-05
6.91653638e-05
6.888703269e-05
6.849938953e-05
6.803949662e-05
6.754868214e-05
6.707050299e-05
6.664883938e-05
6.632664389e-05
6.614544283e-05
6.725481256e-05
6.700811412e-05
6.666452651e-05
6.625691691e-05
6.582195717e-05
6.539831351e-05
6.502493269e-05
6.473987779e-05
6.457978538e-05
6.55289905e-05
6.530978693e-05
6.500449576e-05
6.464234077e-05
6.425594808e-05
6.387973212e-05
6.354834757e-05
6.329560097e-05
6.315387131e-05
6.396414163e-05
6.376886886e-05
6.34969141e-05
6.317433318e-05
6.28302327e-05
6.249532535e-05
6.220052577e-05
6.197592851e-05
6.185019855e-05
6.253981787e-05
6.236540665e-05
6.212251715e-05
6.183444694e-05
6.15272362e-05
6.122836957e-05
6.096549679e-05
6.076546896e-05
6.06537048e-05
6.123841714e-05
6.108222426e-05
6.086472183e-05
6.060680203e-05
6.033182888e-05
6.006446681e-05
5.982950975e-05
5.965096882e-05
5.955141916e-05
6.004478271e-05
5.990453122e-05
5.970924733e-05
5.94777218e-05
5.923097857e-05
5.899121319e-05
5.878071621e-05
5.862100637e-05
5.853216234e-05
5.894585657e-05
5.881958406e-05
5.864378779e-05
5.843541893e-05
5.8213451e-05
5.799791341e-05
5.780889717e-05
5.766572849e-05
5.758628897e-05
5.793038043e-05
5.781639437e-05
5.765773018e-05
5.746972516e-05
5.726955211e-05
5.707533543e-05
5.690522883e-05
5.677662485e-05
5.670546674e-05
5.698863838e-05
5.688547761e-05
5.67419118e-05
5.657185902e-05
5.639090683e-05
5.62155001e-05
5.606208174e-05
5.594633455e-05
5.58824872e-05
5.611223579e-05
5.601863747e-05
5.588841211e-05
5.573422667e-05
5.557026953e-05
5.541150092e-05
5.5272849e-05
5.516848065e-05
5.511110396e-05
5.529390971e-05
5.520878093e-05
5.509037442e-05
5.49502513e-05
5.480136172e-05
5.465734997e-05
5.453179928e-05
5.443752886e-05
5.438589458e-05
5.452736653e-05
5.444976002e-05
5.434185327e-05
5.421422727e-05
5.407873339e-05
5.394784618e-05
5.383395144e-05
5.374866685e-05
5.370214255e-05
5.380714313e-05
5.373623641e-05
5.36376839e-05
5.352119544e-05
5.339764451e-05
5.327846297e-05
5.317496739e-05
5.309770125e-05
5.305573668e-05
5.312848824e-05
5.306356588e-05
5.297337094e-05
5.286683673e-05
5.275396394e-05
5.264525227e-05
5.255106079e-05
5.248096991e-05
5.244308533e-05
5.248726108e-05
5.24276995e-05
5.234499321e-05
5.22473813e-05
5.214408316e-05
5.204476272e-05
5.195891916e-05
5.1895267e-05
5.186104322e-05
5.187984497e-05
5.182509948e-05
5.174912263e-05
5.165953106e-05
5.15648427e-05
5.147396992e-05
5.139563745e-05
5.133777918e-05
5.130684908e-05
5.130307354e-05
5.125266725e-05
5.118275499e-05
5.110039361e-05
5.10134694e-05
5.093021693e-05
5.085866146e-05
5.080603115e-05
5.077807246e-05
5.075416781e-05
5.070768222e-05
5.064325094e-05
5.056742586e-05
5.048752286e-05
5.04111635e-05
5.034573948e-05
5.029783927e-05
5.027256841e-05
5.023068253e-05
5.018774947e-05
5.012828557e-05
5.005838594e-05
4.998484984e-05
4.991474278e-05
4.985488111e-05
4.98112719e-05
4.978843866e-05
4.973046037e-05
4.969075513e-05
4.96358055e-05
4.95712922e-05
4.950354522e-05
4.943912437e-05
4.938432203e-05
4.934461557e-05
4.932399866e-05
4.925159283e-05
4.921482827e-05
4.916399214e-05
4.910438809e-05
4.904191875e-05
4.89826827e-05
4.893249396e-05
4.889634605e-05
4.887774923e-05
4.879238683e-05
4.875830839e-05
4.871123031e-05
4.865611228e-05
4.859846657e-05
4.854397004e-05
4.849799887e-05
4.846510359e-05
4.844835241e-05
4.835133619e-05
4.831971757e-05
4.827608149e-05
4.822507298e-05
4.817184686e-05
4.812169339e-05
4.807958701e-05
4.804967175e-05
4.80346107e-05
4.792709714e-05
4.789773666e-05
4.785726082e-05
4.781002602e-05
4.776085897e-05
4.771469465e-05
4.7676138e-05
4.76489592e-05
4.763544932e-05
4.751846748e-05
4.74911849e-05
4.745361742e-05
4.740985607e-05
4.736442557e-05
4.732193363e-05
4.728664461e-05
4.72619841e-05
4.724990091e-05
4.712436856e-05
4.709900241e-05
4.706411757e-05
4.702356046e-05
4.698157724e-05
4.694247345e-05
4.691019884e-05
4.688786073e-05
4.687709243e-05
4.674382996e-05
4.672023518e-05
4.668783017e-05
4.665023536e-05
4.661143931e-05
4.657546801e-05
4.654597993e-05
4.652578792e-05
4.651623386e-05
4.63759762e-05
4.635402219e-05
4.632391434e-05
4.628906382e-05
4.625322051e-05
4.622015116e-05
4.619324409e-05
4.617503908e-05
4.616660847e-05
4.602001543e-05
4.599958431e-05
4.597160869e-05
4.593930558e-05
4.590620322e-05
4.587582747e-05
4.585131559e-05
4.583495375e-05
4.582756447e-05
4.567522968e-05
4.565621478e-05
4.563022217e-05
4.560028825e-05
4.556973507e-05
4.554186423e-05
4.55195792e-05
4.550493018e-05
4.549850782e-05
4.53409665e-05
4.532327113e-05
4.52991262e-05
4.527139984e-05
4.524322184e-05
4.521768464e-05
4.519747366e-05
4.518441916e-05
4.517889617e-05
4.501663185e-05
4.500016819e-05
4.4977748e-05
4.495208233e-05
4.492612138e-05
4.490276216e-05
4.488448629e-05
4.487291871e-05
4.48682337e-05
4.470168418e-05
4.468637232e-05
4.466556503e-05
4.464182641e-05
4.46179386e-05
4.459661565e-05
4.458014844e-05
4.456996985e-05
4.456606693e-05
4.439562945e-05
4.438139667e-05
4.436210044e-05
4.434016716e-05
4.431822143e-05
4.42988057e-05
4.428403198e-05
4.427515321e-05
4.42719815e-05
4.409801736e-05
4.408479743e-05
4.406691953e-05
4.404668079e-05
4.402655782e-05
4.400893185e-05
4.39957468e-05
4.398808672e-05
4.398559996e-05
4.380843851e-05
4.379617121e-05
4.377962737e-05
4.376098248e-05
4.374257388e-05
4.372663098e-05
4.371493946e-05
4.370842448e-05
4.370658071e-05
4.352652282e-05
4.351515364e-05
4.349986756e-05
4.348272544e-05
4.346593322e-05
4.345157705e-05
4.34412932e-05
4.343585694e-05
4.343461838e-05
4.325193931e-05
4.324141929e-05
4.322732251e-05
4.321160149e-05
4.319633793e-05
4.318348235e-05
4.317452956e-05
4.31701129e-05
4.316944591e-05
4.298439745e-05
4.297468324e-05
4.296171527e-05
4.294734337e-05
4.293353132e-05
4.292210084e-05
4.291441214e-05
4.291096355e-05
4.291083889e-05
4.27236504e-05
4.27147047e-05
4.27028136e-05
4.268972923e-05
4.267730307e-05
4.26672338e-05
4.266075289e-05
4.265822929e-05
4.265862261e-05
4.246950063e-05
4.246129287e-05
4.245043636e-05
4.243858983e-05
4.242749711e-05
4.241873862e-05
4.241342161e-05
4.241178983e-05
4.241268256e-05
4.22218083e-05
4.221431591e-05
4.220446315e-05
4.21938189e-05
4.218402305e-05
4.217654122e-05
4.21723594e-05
4.217159848e-05
4.217297923e-05
4.1980503e-05
4.197371318e-05
4.196484746e-05
4.19553875e-05
4.194687172e-05
4.194065293e-05
4.193759685e-05
4.193770141e-05
4.193956796e-05
4.174559948e-05
4.173951176e-05
4.173163422e-05
4.172336284e-05
4.171613566e-05
4.171119265e-05
4.170927774e-05
4.171026267e-05
4.171262488e-05
4.151721786e-05
4.151184757e-05
4.150498225e-05
4.149793248e-05
4.149203517e-05
4.148841495e-05
4.148768915e-05
4.148959601e-05
4.149247963e-05
4.129560908e-05
4.129099184e-05
4.128519235e-05
4.127943436e-05
4.127495064e-05
4.127274482e-05
4.127329858e-05
4.12762039e-05
4.127965571e-05
4.108118592e-05
4.107738346e-05
4.107274138e-05
4.106839319e-05
4.106546162e-05
4.106481959e-05
4.106679857e-05
4.10708245e-05
4.107491879e-05
4.087456008e-05
4.087166738e-05
4.086832282e-05
4.086556363e-05
4.086439296e-05
4.086553821e-05
4.086915907e-05
4.087448658e-05
4.087933327e-05
4.067658536e-05
4.067473943e-05
4.067289377e-05
4.067198011e-05
4.067286793e-05
4.067611779e-05
4.068168727e-05
4.068857215e-05
4.069432661e-05
4.048840701e-05
4.048779725e-05
4.048772828e-05
4.048901312e-05
4.049236785e-05
4.049815686e-05
4.050609432e-05
4.051488606e-05
4.052176075e-05
4.031151661e-05
4.031239682e-05
4.031447631e-05
4.031843119e-05
4.032479747e-05
4.033370429e-05
4.03445676e-05
4.03557311e-05
4.036400895e-05
4.014781186e-05
4.01505139e-05
4.015522737e-05
4.016246736e-05
4.017255468e-05
4.018533225e-05
4.01998469e-05
4.021398676e-05
4.022403612e-05
3.999966003e-05
4.000460885e-05
4.001257747e-05
4.002388858e-05
4.003860264e-05
4.005621123e-05
4.007530192e-05
4.009318887e-05
4.010547975e-05
3.986996341e-05
3.987769326e-05
3.98896973e-05
3.990606586e-05
3.992654193e-05
3.995018413e-05
3.997500828e-05
3.999760693e-05
4.001272812e-05
3.976222487e-05
3.977339621e-05
3.979039948e-05
3.981304253e-05
3.984067992e-05
3.987183652e-05
3.990381827e-05
3.993231529e-05
3.99509915e-05
3.968061101e-05
3.96960276e-05
3.971920194e-05
3.974959761e-05
3.978609376e-05
3.982655898e-05
3.98674223e-05
3.990325356e-05
3.992636186e-05
3.963001006e-05
3.96506354e-05
3.968138425e-05
3.972130058e-05
3.976868309e-05
3.982059721e-05
3.987239618e-05
3.991727111e-05
3.994585552e-05
3.961608125e-05
3.964305354e-05
3.968303298e-05
3.973455343e-05
3.979520785e-05
3.986108486e-05
3.992622857e-05
3.998214962e-05
4.001743239e-05
3.964529163e-05
3.967993598e-05
3.973107174e-05
3.979661509e-05
3.987330567e-05
3.995605291e-05
4.003732198e-05
4.010659659e-05
4.014998452e-05
3.972493573e-05
3.976877227e-05
3.983327033e-05
3.991560209e-05
4.001148233e-05
4.011440843e-05
4.021495949e-05
4.030020119e-05
4.035328485e-05
3.986313215e-05
3.991787819e-05
3.999822641e-05
4.010045843e-05
4.021906707e-05
4.034587364e-05
4.046922722e-05
4.057334212e-05
4.063788558e-05
4.006878994e-05
4.01363539e-05
4.023531139e-05
4.036088522e-05
4.050612279e-05
4.066087444e-05
4.081088084e-05
4.093703463e-05
4.101495271e-05
4.035153547e-05
4.043399996e-05
4.055457005e-05
4.070721897e-05
4.088329876e-05
4.107036483e-05
4.125114152e-05
4.140270187e-05
4.149602159e-05
4.072158844e-05
4.08211792e-05
4.096656136e-05
4.115024496e-05
4.136161134e-05
4.158557188e-05
4.180140533e-05
4.198185342e-05
4.209265611e-05
4.118957333e-05
4.130861025e-05
4.148212544e-05
4.170092993e-05
4.195213638e-05
4.221764435e-05
4.247284872e-05
4.268565423e-05
4.281599483e-05
4.176625055e-05
4.190707696e-05
4.211206078e-05
4.237005818e-05
4.266559732e-05
4.297718948e-05
4.327591556e-05
4.352436988e-05
4.36761707e-05
4.246215144e-05
4.262703775e-05
4.286669632e-05
4.316775651e-05
4.351183613e-05
4.387368715e-05
4.421967743e-05