/*--------------------------------*- C++ -*----------------------------------*\
| =========                 |                                                 |
| \\      /  F ield         | OpenFOAM: The Open Source CFD Toolbox           |
|  \\    /   O peration     | Version:  2212                                  |
|   \\  /    A nd           | Website:  www.openfoam.com                      |
|    \\/     M anipulation  |                                                 |
\*---------------------------------------------------------------------------*/
FoamFile
{
    version     2.0;
    format      ascii;
    arch        "LSB;label=32;scalar=64";
    class       volScalarField;
    location    "30.00000000";
    object      C9H7_0;
}
// * * * * * * * * * * * * * * * * * * * * * * * * * * * * * * * * * * * * * //

dimensions      [0 0 0 0 0 0 0];

internalField   nonuniform List<scalar> 
3000
(
4.404401624e-27
4.948795837e-27
5.770349942e-27
6.865257427e-27
8.222463726e-27
9.805175144e-27
1.151806685e-26
1.315269321e-26
1.430853586e-26
1.65398509e-26
1.865942723e-26
2.185677275e-26
2.612744127e-26
3.146748345e-26
3.78476871e-26
4.515709071e-26
5.302824564e-26
5.999819848e-26
3.706475645e-26
4.214436736e-26
4.988007786e-26
6.038472441e-26
7.384784537e-26
9.046558918e-26
1.101716554e-25
1.318612082e-25
1.503919005e-25
7.064128245e-26
8.116658959e-26
9.74309904e-26
1.199870483e-25
1.496360838e-25
1.871338867e-25
2.322760066e-25
2.814532669e-25
3.211445454e-25
1.255412094e-25
1.460228151e-25
1.781715028e-25
2.236260907e-25
2.845305682e-25
3.625987972e-25
4.565294501e-25
5.562999803e-25
6.328968848e-25
2.160870955e-25
2.545691232e-25
3.158399557e-25
4.03823616e-25
5.232289523e-25
6.770783746e-25
8.607882912e-25
1.051200515e-24
1.192101318e-24
3.672571204e-25
4.380292413e-25
5.520281555e-25
7.175816595e-25
9.439425876e-25
1.235648768e-24
1.580662674e-24
1.931295692e-24
2.18435959e-24
6.22315472e-25
7.505562737e-25
9.589649522e-25
1.263969718e-24
1.682647217e-24
2.221096379e-24
2.852355986e-24
3.484556182e-24
3.933219546e-24
1.056336816e-24
1.286256002e-24
1.662314139e-24
2.215441364e-24
2.976031518e-24
3.951501367e-24
5.086829008e-24
6.211978227e-24
7.001628783e-24
1.799484254e-24
2.208416966e-24
2.880280941e-24
3.871579363e-24
5.235338378e-24
6.979550053e-24
8.998113706e-24
1.098376222e-23
1.236689098e-23
3.077579655e-24
3.800510107e-24
4.991841806e-24
6.752722558e-24
9.174573195e-24
1.22641301e-23
1.582399295e-23
1.9307566e-23
2.172223837e-23
5.282529656e-24
6.55471722e-24
8.655217088e-24
1.176255877e-23
1.603298941e-23
2.146742408e-23
2.770660856e-23
3.378979877e-23
3.799681757e-23
9.094998469e-24
1.132645438e-23
1.501519665e-23
2.047339012e-23
2.796584893e-23
3.747496941e-23
4.835157254e-23
5.892481164e-23
6.626451773e-23
1.569801638e-23
1.960421495e-23
2.606714856e-23
3.563129946e-23
4.874403448e-23
6.533315704e-23
8.419473774e-23
1.023940445e-22
1.153839071e-22
2.714787415e-23
3.397882536e-23
4.529281964e-23
6.204872779e-23
8.502303604e-23
1.140309612e-22
1.466837755e-22
1.766517712e-22
2.012562786e-22
4.701420996e-23
5.894921951e-23
7.874295106e-23
1.081115479e-22
1.485152264e-22
1.999456185e-22
2.592350635e-22
3.18488457e-22
3.55537224e-22
8.148511708e-23
1.023023537e-22
1.368478388e-22
1.881246055e-22
2.58656105e-22
3.48274471e-22
4.508246516e-22
5.502687202e-22
6.17791791e-22
1.413003544e-22
1.775562631e-22
2.377339102e-22
3.270480611e-22
4.49824205e-22
6.056110942e-22
7.834675179e-22
9.555182564e-22
1.073302554e-21
2.451122944e-22
3.081992769e-22
4.129225695e-22
5.683376202e-22
7.819104224e-22
1.052760184e-21
1.361795287e-21
1.660653367e-21
1.865392003e-21
4.253201199e-22
5.350392674e-22
7.171895934e-22
9.875089746e-22
1.358935883e-21
1.829867785e-21
2.367059751e-21
2.886456302e-21
3.242237295e-21
7.382038148e-22
9.289682999e-22
1.245695548e-21
1.715744192e-21
2.361565082e-21
3.180289345e-21
4.114039097e-21
5.016676332e-21
5.634859607e-21
1.281535843e-21
1.613148782e-21
2.163767872e-21
2.980947608e-21
4.103653696e-21
5.526776467e-21
7.149576064e-21
8.718012724e-21
9.792019917e-21
2.225194095e-21
2.801579928e-21
3.758673e-21
5.179111301e-21
7.130517383e-21
9.603812465e-21
1.242369233e-20
1.514863995e-20
1.701438995e-20
3.864376198e-21
4.866137152e-21
6.529605163e-21
8.998342731e-21
1.238967754e-20
1.668749527e-20
2.158679589e-20
2.632045738e-20
2.956118723e-20
6.712104632e-21
8.453106524e-21
1.134409239e-20
1.563437094e-20
2.152742163e-20
2.899463541e-20
3.750549801e-20
4.572730275e-20
5.135555613e-20
1.166000127e-20
1.46857005e-20
1.970974585e-20
2.716487006e-20
3.740369482e-20
5.03752168e-20
6.51566916e-20
7.943333183e-20
8.920512414e-20
2.025770672e-20
2.551599224e-20
3.424640076e-20
4.719955091e-20
6.498584246e-20
8.751362677e-20
1.131776025e-19
1.379581976e-19
1.549156378e-19
3.519839369e-20
4.433638328e-20
5.950619323e-20
8.200863855e-20
1.12898588e-19
1.520096549e-19
1.965482332e-19
2.395369899e-19
2.689444643e-19
6.116167353e-20
7.704092917e-20
1.033962759e-19
1.424791506e-19
1.961082423e-19
2.639773934e-19
3.412228607e-19
4.157391717e-19
4.666887828e-19
1.06275704e-19
1.338657367e-19
1.796442438e-19
2.475012781e-19
3.405623158e-19
4.582545084e-19
5.921045432e-19
7.211245353e-19
8.092776617e-19
1.846499946e-19
2.325755132e-19
3.120628832e-19
4.2981766e-19
5.911873953e-19
7.950799536e-19
1.026722127e-18
1.249762005e-18
1.402000508e-18
3.207552904e-19
4.039697109e-19
5.4190949e-19
7.460971267e-19
1.025627775e-18
1.378378885e-18
1.778570998e-18
2.163327519e-18
2.425579856e-18
5.569814013e-19
7.013729312e-19
9.405467335e-19
1.294219825e-18
1.777739359e-18
2.386905922e-18
3.076695566e-18
3.738558653e-18
4.188834902e-18
9.666466264e-19
1.21694364e-18
1.631143633e-18
2.242801089e-18
3.077543967e-18
4.126940592e-18
5.312303367e-18
6.446714573e-18
7.216553098e-18
1.676331795e-18
2.109605903e-18
2.825712782e-18
3.881350417e-18
5.318732863e-18
7.120756173e-18
9.14986333e-18
1.108529403e-17
1.23945443e-17
2.904123389e-18
3.652720775e-18
4.888028024e-18
6.704978635e-18
9.171870661e-18
1.22538319e-17
1.571050134e-17
1.899390799e-17
2.120622134e-17
5.024958872e-18
6.315182351e-18
8.440005837e-18
1.155654979e-17
1.577272705e-17
2.101745761e-17
2.687137619e-17
3.240373184e-17
3.611347412e-17
8.682156031e-18
1.089903278e-17
1.454082565e-17
1.986379517e-17
2.703310385e-17
3.590462884e-17
4.574881035e-17
5.499606799e-17
6.116173181e-17
1.497788607e-17
1.877277402e-17
2.498767491e-17
3.403288981e-17
4.615023748e-17
6.105028006e-17
7.74696279e-17
9.278450176e-17
1.029291001e-16
2.579952622e-17
3.226757719e-17
4.282053227e-17
5.810010047e-17
7.84377361e-17
1.032597116e-16
1.303922285e-16
1.554945717e-16
1.719997488e-16
4.438262658e-17
5.53537164e-17
7.317239018e-17
9.881236987e-17
1.326803763e-16
1.736567268e-16
2.180319241e-16
2.587101681e-16
2.852373537e-16
7.629276835e-17
9.480699127e-17
1.247138159e-16
1.674323424e-16
2.233562186e-16
2.903372037e-16
3.621071021e-16
4.272205226e-16
4.692986335e-16
1.311643198e-16
1.62250474e-16
2.12143714e-16
2.82797528e-16
3.743339698e-16
4.827027438e-16
5.974269054e-16
7.003114747e-16
7.661366138e-16
2.258372402e-16
2.777981798e-16
3.605725346e-16
4.766193733e-16
6.25171479e-16
7.987201379e-16
9.79949698e-16
1.140372893e-15
1.241877039e-15
3.901288461e-16
4.76699187e-16
6.134240487e-16
8.029169671e-16
1.042186011e-15
1.317523275e-15
1.600614076e-15
1.847534213e-15
2.001822764e-15
6.776470805e-16
8.217061748e-16
1.047032942e-15
1.355310742e-15
1.738607548e-15
2.17222532e-15
2.610273211e-15
2.985980281e-15
3.21739541e-15
1.186323962e-15
1.426487385e-15
1.798190537e-15
2.299594948e-15
2.912543616e-15
3.593002225e-15
4.267004542e-15
4.834151276e-15
5.177724753e-15
2.097686412e-15
2.500414871e-15
3.116939482e-15
3.936447901e-15
4.920643886e-15
5.991624504e-15
7.030177128e-15
7.885842315e-15
8.394409259e-15
3.752008892e-15
4.434614991e-15
5.468729724e-15
6.824127945e-15
8.424480161e-15
1.013271422e-14
1.175509581e-14
1.306341397e-14
1.382506427e-14
6.791511441e-15
7.967226594e-15
9.733084123e-15
1.202134988e-14
1.468701166e-14
1.749004268e-14
2.010947831e-14
2.218538716e-14
2.337116325e-14
1.243159776e-14
1.450017976e-14
1.759128897e-14
2.1572665e-14
2.618261774e-14
3.100433344e-14
3.548987625e-14
3.902696496e-14
4.102935452e-14
2.297329466e-14
2.670711657e-14
3.228715468e-14
3.948805375e-14
4.786965298e-14
5.672306999e-14
6.508115017e-14
7.178596765e-14
7.563073566e-14
4.277794924e-14
4.971084013e-14
6.013676814e-14
7.374410049e-14
8.987647265e-14
1.073873164e-13
1.245281564e-13
1.388785988e-13
1.474593484e-13
8.016088139e-14
9.341297286e-14
1.135846708e-13
1.404386836e-13
1.732286354e-13
2.102829184e-13
2.484476464e-13
2.823361602e-13
3.038771229e-13
1.511991796e-13
1.772508395e-13
2.175601558e-13
2.72590964e-13
3.421599429e-13
4.243209417e-13
5.134197645e-13
5.970362909e-13
6.532148159e-13
2.877524598e-13
3.403255094e-13
4.231580194e-13
5.392255621e-13
6.908790454e-13
8.767927108e-13
1.085995393e-12
1.288488708e-12
1.427679071e-12
5.55075295e-13
6.637188138e-13
8.378817965e-13
1.087542594e-12
1.422005609e-12
1.841040853e-12
2.317757739e-12
2.776323962e-12
3.085083418e-12
1.09150293e-12
1.320660945e-12
1.6932173e-12
2.235764951e-12
2.971412455e-12
3.893739836e-12
4.92430703e-12
5.879389089e-12
6.494150388e-12
2.198280098e-12
2.688587719e-12
3.492341965e-12
4.669198808e-12
6.25851861e-12
8.212165381e-12
1.031819232e-11
1.218939294e-11
1.335001608e-11
4.535829637e-12
5.587727048e-12
7.31251058e-12
9.821280319e-12
1.314916414e-11
1.712448584e-11
2.128078452e-11
2.489042426e-11
2.709737724e-11
9.514838808e-12
1.173999748e-11
1.536149307e-11
2.055344019e-11
2.730419303e-11
3.522046903e-11
4.341912467e-11
5.05450084e-11
5.493218666e-11
1.996887867e-11
2.454432048e-11
3.192336987e-11
4.238674485e-11
5.588641012e-11
7.172532058e-11
8.829545428e-11
1.029528342e-10
1.121765166e-10
4.120535137e-11
5.035765142e-11
6.507960463e-11
8.597110737e-11
1.131232582e-10
1.454640543e-10
1.800480114e-10
2.114885203e-10
2.319239823e-10
8.28694126e-11
1.009347448e-10
1.30159194e-10
1.720802365e-10
2.274928032e-10
2.950063941e-10
3.692470297e-10
4.390048756e-10
4.860706036e-10
1.626517809e-10
1.982473121e-10
2.564526764e-10
3.412971989e-10
4.558272304e-10
5.990457396e-10
7.614426318e-10
9.194055215e-10
1.03001634e-09
3.132770417e-10
3.83492578e-10
4.997797841e-10
6.723179571e-10
9.105418131e-10
1.216560239e-09
1.5742841e-09
1.933817149e-09
2.194090128e-09
5.953076319e-10
7.336167786e-10
9.657283326e-10
1.31638274e-09
1.81139254e-09
2.463706355e-09
3.247666062e-09
4.058344456e-09
4.661664591e-09
1.120911241e-09
1.392193226e-09
1.853249011e-09
2.561581777e-09
3.581779299e-09
4.956431012e-09
6.647361746e-09
8.43661466e-09
9.797493306e-09
2.099867708e-09
2.628369242e-09
3.536522761e-09
4.951813505e-09
7.02415926e-09
9.866309443e-09
1.34253262e-08
1.725681556e-08
2.021895171e-08
3.929442726e-09
4.949921636e-09
6.718399251e-09
9.504112041e-09
1.363226392e-08
1.936453794e-08
2.663081143e-08
3.454608636e-08
4.073694267e-08
7.369206999e-09
9.318244691e-09
1.271389525e-08
1.809764377e-08
2.61320549e-08
3.736740317e-08
5.1708044e-08
6.743973277e-08
7.984215381e-08
1.387220632e-08
1.75461583e-08
2.395906389e-08
3.414865104e-08
4.93882571e-08
7.074509894e-08
9.80703597e-08
1.281528935e-07
1.520241464e-07
2.618562453e-08
3.300325561e-08
4.488681492e-08
6.373390796e-08
9.186283874e-08
1.312072489e-07
1.815000904e-07
2.369772517e-07
2.812496499e-07
4.938312646e-08
6.180292963e-08
8.336048581e-08
1.173732968e-07
1.678583576e-07
2.381186957e-07
3.276641425e-07
4.262116003e-07
5.045178822e-07
9.254084254e-08
1.146938424e-07
1.529033609e-07
2.127300394e-07
3.0083668e-07
4.22637097e-07
5.765897211e-07
7.444212269e-07
8.7712726e-07
1.713214086e-07
2.099324817e-07
2.760241071e-07
3.785430546e-07
5.282330227e-07
7.324947962e-07
9.872951279e-07
1.262149031e-06
1.478042044e-06
3.118105546e-07
3.775032854e-07
4.89135683e-07
6.603212983e-07
9.062796677e-07
1.237053429e-06
1.644027873e-06
2.07771721e-06
2.415460891e-06
5.563584195e-07
6.653705352e-07
8.48263017e-07
1.124613901e-06
1.515261732e-06
2.033318475e-06
2.661996976e-06
3.322321162e-06
3.831200422e-06
9.692298161e-07
1.144314343e-06
1.434600914e-06
1.866636275e-06
2.469419558e-06
3.25497208e-06
4.192816154e-06
5.163573467e-06
5.902945508e-06
1.6434228e-06
1.916052773e-06
2.362968253e-06
3.018921563e-06
3.919392545e-06
5.072797473e-06
6.426231634e-06
7.805868436e-06
8.843194311e-06
2.709299239e-06
3.120764988e-06
3.787209038e-06
4.753779502e-06
6.057803242e-06
7.699764168e-06
9.589911528e-06
1.148717726e-05
1.28941859e-05
4.342279378e-06
4.945063261e-06
5.911394166e-06
7.289740109e-06
9.119551668e-06
1.138295667e-05
1.39431669e-05
1.647087207e-05
1.831805723e-05
6.767684966e-06
7.623677618e-06
8.981282108e-06
1.089131743e-05
1.338198015e-05
1.640592747e-05
1.976862089e-05
2.303292845e-05
2.538196035e-05
1.026340453e-05
1.144199087e-05
1.329107884e-05
1.585608031e-05
1.914570965e-05
2.306921913e-05
2.735452844e-05
3.14421614e-05
3.433647603e-05
1.515687979e-05
1.673106489e-05
1.917453887e-05
2.251698255e-05
2.673409459e-05
3.167483157e-05
3.69721624e-05
4.193267154e-05
4.538249027e-05
2.181455521e-05
2.385481851e-05
2.698854913e-05
3.121612628e-05
3.646315101e-05
4.249918404e-05
4.884528245e-05
5.466645e-05
5.860738277e-05
3.062203198e-05
3.318824623e-05
3.708891093e-05
4.227871048e-05
4.861362135e-05
5.576208555e-05
6.311493423e-05
6.971933835e-05
7.414122035e-05
4.195273102e-05
4.508453705e-05
4.979542794e-05
5.597626914e-05
6.339577119e-05
7.159533152e-05
7.990720225e-05
8.727076766e-05
9.212708659e-05
5.612126662e-05
5.982743887e-05
6.53411353e-05
7.246833972e-05
8.091175399e-05
9.01444848e-05
9.936127246e-05
0.000107393848
0.0001126012579
7.331129134e-05
7.756463232e-05
8.385081224e-05
9.191305836e-05
0.0001013473435
0.000111520818
0.000121515743
0.0001300760889
0.0001355231318
9.370215379e-05
9.849198927e-05
0.0001055192041
0.0001144432166
0.0001247559592
0.0001357164075
0.0001463094085
0.0001552181973
0.0001607736413
0.000117438802
0.0001227132311
0.0001303940207
0.0001400500961
0.0001510705157
0.0001626133762
0.0001735843515
0.0001826364074
0.0001881578704
0.0001445024518
0.0001501772576
0.0001583811543
0.0001685930869
0.0001801053512
0.0001919885206
0.000203091321
0.000212068511
0.0002174113515
0.0001747202983
0.0001806857399
0.0001892491535
0.0001998058525
0.0002115630041
0.0002235218925
0.0002344993586
0.0002431837049
0.0002482095929
0.0002077739866
0.0002139021745
0.0002226391484
0.0002333080298
0.0002450472942
0.0002568107528
0.0002674096973
0.0002755956225
0.0002801800359
0.0002432156377
0.0002493687934
0.0002580827787
0.0002686240618
0.0002800824237
0.0002913880843
0.0003013728188
0.0003088774166
0.0003129154238
0.0002804927123
0.0002865316617
0.0002950272994
0.0003052078013
0.0003161363226
0.0003267438826
0.000335907094
0.0003425776258
0.0003459875776
0.0003189794481
0.000324771471
0.000332865186
0.0003424702529
0.0003526458307
0.0003623472477
0.0003705175507
0.000376235848
0.0003789609142
0.0003580112843
0.0003634366239
0.0003709651541
0.000379807842
0.0003890416575
0.0003976676797
0.0004047135492
0.0004093973329
0.0004114050662
0.0003969187612
0.0004018752612
0.0004087014782
0.000416628388
0.0004247706617
0.000432193714
0.000438024152
0.0004416257686
0.0004429061138
0.0004350573736
0.0004394631898
0.0004454792463
0.0004523732199
0.0004593146865
0.0004654486404
0.0004700111982
0.0004725144252
0.0004730766754
0.0004718320238
0.0004756265574
0.0004807546313
0.0004865347297
0.0004922054032
0.0004970029487
0.0005002798869
0.0005016955314
0.0005015647351
0.0005067152241
0.0005098586101
0.0005140497488
0.0005186691632
0.0005230351568
0.0005264835898
0.0005284869639
0.0005288479265
0.0005280611847
0.0005392591723
0.0005417307299
0.0005449623702
0.0005484049674
0.0005514641319
0.0005535803121
0.0005543466637
0.0005537030102
0.0005523059937
0.000569102361
0.0005708984027
0.0005731711151
0.0005754472501
0.0005772242818
0.000578049372
0.0005776345399
0.0005760489583
0.0005740928586
0.0005959716237
0.00059710296
0.0005984368655
0.0005995789638
0.000600120477
0.0005997148934
0.0005981892779
0.0005957331386
0.0005932721507
0.0006196805484
0.0006201699412
0.000620601129
0.000620659389
0.0006200292789
0.0006184681167
0.00061591256
0.0006126626494
0.0006097520088
0.0006401251017
0.000640004833
0.0006395819938
0.0006386204292
0.0006368956991
0.0006342647297
0.0006307670589
0.0006268029874
0.0006234975118
0.0006572771933
0.0006565868462
0.0006553682254
0.0006534611302
0.0006507282421
0.0006471205181
0.0006427727234
0.0006381749197
0.0006345279751
0.0006711767595
0.0006699612455
0.000668011959
0.0006652408326
0.0006615925854
0.0006571056017
0.0006520015574
0.0006468497444
0.0006429125451
0.0006819228663
0.0006802307098
0.0006776204205
0.0006740713306
0.0006696042161
0.0006643375496
0.0006585711808
0.0006529432258
0.0006487643805
0.0006896642684
0.0006875461304
0.00068434706
0.000680108397
0.0006749203684
0.0006689737161
0.0006626375175
0.0006566085593
0.0006522337886
0.0006945897922
0.0006920972119
0.0006883824475
0.0006835430203
0.0006777316106
0.000671203154
0.0006643869822
0.0006580287599
0.0006535007253
0.0006969188661
0.0006941031942
0.0006899452553
0.0006845926817
0.00067825342
0.0006712384572
0.0006640285381
0.0006574088651
0.0006527670687
0.0006968924739
0.0006938039749
0.000689273608
0.0006834929632
0.0006767180467
0.0006693078518
0.000661785963
0.0006549683108
0.0006502490392
0.0006947647547
0.0006914518607
0.0006866170375
0.0006804897313
0.0006733669252
0.0006656478082
0.000657890613
0.0006509337844
0.0006461700824
0.0006907954227
0.0006873041237
0.0006822292239
0.0006758320879
0.0006684438342
0.0006604963843
0.0006525749039
0.0006455327867
0.0006407544537
0.0006852431264
0.0006816164865
0.0006763616522
0.0006697662208
0.0006621889424
0.0006540874461
0.0006460666645
0.0006389880621
0.0006342216724
0.000678359815
0.0006746376061
0.0006692582549
0.0006625302302
0.0006548338213
0.0006466458468
0.0006385844457
0.0006315129859
0.0006267819324
0.0006703861349
0.0006666045793
0.0006611510671
0.000654349956
0.0006465974485
0.0006383835919
0.0006303338112
0.0006233079328
0.0006186324987
0.0006615478363
0.00065773945
0.0006522568728
0.0006454357849
0.0006376831808
0.000629496964
0.0006215045849
0.0006145576011
0.0006099550598
0.0006520531381
0.0006482466669
0.0006427747895
0.0006359803833
0.0006282766399
0.00062016455
0.0006122689908
0.0006054292273
0.0006009139704
0.0006420909737
0.000638311412
0.0006328847111
0.0006261572725
0.000618544425
0.0006105460809
0.0006027805966
0.0005960715955
0.0005916552898
0.0006318300223
0.0006280987045
0.0006227465106
0.0006161201473
0.000608633551
0.0006007819808
0.0005931739522
0.0005866147361
0.0005823065035
0.000621418419
0.0006177531715
0.0006124998957
0.0006060028296
0.0005986715023
0.0005909935124
0.0005835648086
0.0005771701924
0.0005729768111
0.0006109840367
0.0006073993808
0.0006022648094
0.0005959197449
0.0005887667869
0.0005812834024
0.000574050802
0.0005678317421
0.0005637578619
0.0006006352215
0.0005971426127
0.0005921422514
0.0005859668032
0.0005790098784
0.0005717368386
0.0005647124909
0.0005586764604
0.0005547248277
0.000590461879
0.0005870699744
0.0005822154311
0.000576222594
0.00056947445
0.0005624227361
0.0005556146476
0.0005497660241
0.0005459377108
0.0005805368258
0.0005772517682
0.0005725511564
0.0005667497955
0.0005602188035
0.000553395182
0.0005468077116
0.0005411481683
0.000537442799
0.0005709173083
0.0005677430158
0.0005632013648
0.0005575967135
0.000551287412
0.0005446949785
0.0005383293293
0.0005328582197
0.000529274192
0.0005616466114
0.000558585067
0.0005542047298
0.000548798881
0.0005427125109
0.0005363512209
0.0005302059165
0.0005249206437
0.0005214553387
0.0005527557007
0.0005498072325
0.0005455882807
0.0005403806618
0.0005345156793
0.0005283828548
0.0005224541914
0.0005173505566
0.0005140005355
0.0005442648414
0.0005414283904
0.0005373689888
0.0005323568096
0.0005267093692
0.0005208001733
0.0005150826406
0.0005101551656
0.0005069163496
0.0005361851571
0.0005334585258
0.0005295552814
0.0005247339501
0.0005192983507
0.0005136062236
0.0005080928898
0.0005033351094
0.0005002029431
0.0005285200955
0.0005259001769
0.0005221484573
0.0005175119595
0.000512281049
0.0005067981021
0.0005014809598
0.000496885684
0.0004938552796
0.0005212667819
0.0005187497652
0.0005151439855
0.0005106852238
0.0005056507607
0.0005003681268
0.0004952383986
0.0004907979422
0.0004878642055
0.0005144172472
0.0005119988001
0.0005085326764
0.0005042437697
0.0004993967405
0.0004943048795
0.000489353284
0.0004850596655
0.0004822174036
0.000507959523
0.0005056349513
0.0005023017214
0.000498174265
0.0004935051583
0.0004885941205
0.000483811099
0.0004796562084
0.0004769002205
0.0005018786054
0.0004996429896
0.0004964356019
0.0004924608889
0.0004879599279
0.000483219576
0.0004785954831
0.0004745712223
0.0004718963741
0.0004961572887
0.0004940055992
0.0004909168716
0.0004870860785
0.0004827434155
0.0004781636084
0.0004736888686
0.0004697872652
0.0004671885485
0.0004907768761
0.0004887040691
0.0004857268202
0.0004820311596
0.0004778370342
0.0004734077764
0.0004690730096
0.0004652863074
0.0004627588869
0.000485717777
0.0004837188714
0.0004808460268
0.0004772768699
0.000473221736
0.0004689332955
0.0004647294155
0.0004610501438
0.0004585893918
0.0004809599996
0.0004790301389
0.0004762548142
0.0004728037873
0.0004688784109
0.0004647214097
0.0004606396982
0.0004570607232
0.0004546622445
0.0004764835502
0.0004746180491
0.0004719336145
0.0004685926711
0.0004647882042
0.0004607536851
0.0004567858451
0.0004533004052
0.0004509600532
0.0004722687504
0.00047046313
0.0004678632564
0.0004646247303
0.0004609327627
0.0004570122354
0.0004531504268
0.0004497521551
0.0004474660404
0.0004682964817
0.0004665464936
0.0004640251851
0.0004608818258
0.0004572944198
0.0004534798897
0.0004497167502
0.0004463996855
0.0004441641792
0.0004645483695
0.0004628500113
0.0004604016252
0.0004573466192
0.0004538563287
0.0004501403119
0.000446468965
0.0004432275545
0.0004410392859
0.0004610069139
0.0004593564372
0.0004569756941
0.0004540026744
0.0004506025519
0.0004469780783
0.0004433921328
0.0004402212268
0.0004380770778
0.0004576555779
0.0004560494906
0.0004537314757
0.0004508345221
0.0004475181165
0.0004439787236
0.0004404722642
0.0004373671055
0.000435264202
0.0004544788388
0.0004529139025
0.0004506540616
0.000447827693
0.0004445890388
0.000441128759
0.0004376963313
0.0004346525407
0.0004325882419
0.0004514622116
0.0004499354354
0.0004477295648
0.0004449687266
0.0004418023279
0.0004384156696
0.0004350522607
0.0004320658193
0.000430037705
0.0004485922488
0.0004471008802
0.0004449451136
0.0004422451601
0.0004391459699
0.0004358278952
0.0004325289115
0.0004295961406
0.0004276019983
0.0004458565223
0.0004443980364
0.0004422888287
0.0004396455027
0.0004366088998
0.0004333547996
0.000430116042
0.000427233582
0.0004252713933
0.0004432435923
0.0004418156793
0.0004397497886
0.0004371591993
0.0004341809627
0.0004309866299
0.0004278042685
0.0004249690572
0.0004230369833
0.0004407429657
0.0004393435176
0.0004373179865
0.0004347765859
0.0004318528685
0.0004287144707
0.0004255850182
0.000422794269
0.0004208906375
0.0004383450478
0.000436972145
0.0004349842809
0.0004324888399
0.0004296161417
0.0004265301936
0.0004234504801
0.0004207016602
0.0004188249513
0.0004360410899
0.0004346929873
0.000432740343
0.0004302879275
0.0004274630692
0.0004244264056
0.0004213935525
0.0004186843625
0.000416833196
0.0004338231339
0.0004324982475
0.0004305786021
0.0004281665496
0.0004253866465
0.000422396396
0.000419407792
0.0004167361453
0.0004149092685
0.0004316839567
0.0004303808504
0.0004284921903
0.0004261180873
0.0004233805248
0.0004204340845
0.0004174873619
0.0004148513661
0.0004130476419
0.0004296170143
0.0004283343873
0.0004264748887
0.0004241365492
0.0004214389586
0.0004185339703
0.0004156269832
0.0004130249218
0.0004112433179
0.0004276163876
0.0004263530624
0.0004245210744
0.0004222165191
0.0004195567557
0.0004166910829
0.0004138218865
0.0004112522023
0.000409491781
0.0004256767299
0.0004244316409
0.0004226256693
0.0004203531068
0.0004177292285
0.0004149009362
0.000412067767
0.0004095290468
0.0004077889557
0.0004237932169
0.0004225654
0.0004207840927
0.0004185419013
0.0004159521495
0.0004131594837
0.0004103607422
0.0004078517023
0.0004061311654
0.0004219614993
0.0004207500819
0.000418992215
0.0004167789262
0.0004142217073
0.0004114630777
0.0004086973118
0.0004062167847
0.000404515095
0.0004201776579
0.0004189818502
0.0004172463153
0.0004150605985
0.0004125344676
0.0004098084308
0.0004070743206
0.0004046212432
0.0004029377549
0.0004184381622
0.0004172572485
0.0004155430408
0.0004133836893
0.000410887335
0.0004081925794
0.0004054889235
0.0004030623261
0.0004013964489
0.0004167398306
0.0004155731618
0.0004138793697
0.0004117452878
0.0004092775182
0.0004066128501
0.0004039385535
0.0004015375501
0.0003998887425
0.0004150797936
0.0004139267801
0.0004122525752
0.0004101427666
0.0004077024968
0.000405066828
0.0004024208905
0.0004000446699
0.0003984124348
0.0004134554583
0.0004123155637
0.0004106601921
0.000408573749
0.0004061599894
0.0004035523262
0.0004009338324
0.0003985816502
0.00039696553
0.000411864474
0.0004107372093
0.000409099983
0.0004070360767
0.0004046479228
0.0004020673553
0.0003994754658
0.0003971466378
0.0003955462102
0.000410304698
0.0004091896159
0.0004075699054
0.0004055277769
0.0004031643997
0.0004006100929
0.0003980440359
0.0003957379317
0.0003941528071
0.0004087741593
0.0004076708492
0.0004060680763
0.0004040470281
0.0004017076647
0.0003991788497
0.000396637914
0.0003943539519
0.0003927837702
0.0004072710191
0.0004061791019
0.0004045927327
0.0004025921202
0.0004002760654
0.0003977720313
0.000395255559
0.0003929932014
0.0003914376299
0.0004057935256
0.0004047126483
0.0004031421853
0.000401161408
0.0003988680053
0.0003963880904
0.0003938954705
0.0003916542195
0.0003901129515
0.000404339958
0.0004032697875
0.0004017147615
0.0003997532532
0.0003974818841
0.0003950254667
0.0003925561274
0.0003903355202
0.0003888082733
0.0004029085567
0.0004018487727
0.0004003087325
0.0003983659491
0.0003961160202
0.0003936825064
0.0003912359057
0.0003890355087
0.0003875220236
0.0004014974339
0.0004004477191
0.0003989222177
0.0003969976209
0.0003947685472
0.0003923573547
0.000389932967
0.000387752368
0.0003862524051
0.000400104456
0.000399064483
0.0003975530596
0.0003956460948
0.0003934372753
0.0003910478104
0.0003886451069
0.0003864839015
0.000384997236
0.0003987270905
0.0003976965045
0.0003961986587
0.0003943087237
0.0003921195072
0.0003897511306
0.00038736955
0.0003852273204
0.0003837537323
0.0003973622084
0.0003963406017
0.0003948557579
0.0003929821593
0.0003908117955
0.0003884637726
0.0003861026763
0.000383978958
0.0003825182149
0.0003960058286
0.000394992707
0.0003935201655
0.0003916620568
0.0003895096273
0.0003871810576
0.0003848396638
0.0003827338939
0.0003812857224
0.0003946527965
0.0003936475332
0.0003921864028
0.0003903427008
0.0003882070232
0.0003858967398
0.0003835740296
0.0003814854707
0.000380049512
0.0003932963837
0.0003922981573
0.0003908472659
0.0003890165378
0.0003868960362
0.0003846024694
0.0003822970551
0.0003802246858
0.0003788004295
0.0003919277989
0.0003909355144
0.0003894932922
0.0003876736073
0.0003855661413
0.0003832871359
0.0003809970834
0.000378939448
0.0003775261378
0.0003905356059
0.0003895477923
0.000388112123
0.0003863008638
0.0003842035088
0.0003819360875
0.0003796586838
0.0003776136915
0.0003762101971
0.0003891050435
0.0003881197282
0.0003866877641
0.0003848813908
0.0003827901628
0.0003805302294
0.0003782616867
0.0003762263538
0.0003748310017
0.000387617254
0.0003866318107
0.0003851997494
0.0003833935146
0.0003813030372
0.0003790450134
0.0003767801066
0.0003747502353
0.0003733605967
0.0003860484317
0.0003850594023
0.0003836222253
0.0003818098399
0.0003797129516
0.0003774493496
0.0003751809846
0.0003731507789
0.0003717634107
0.0003843689178
0.0003833718105
0.0003819229861
0.0003800962396
0.0003779835492
0.000375704484
0.000373423205
0.0003713848271
0.0003699949705
0.0003825422777
0.0003815313459
0.0003800625053
0.0003782108524
0.0003760702529
0.000373762911
0.0003714563593
0.0003693994403
0.0003680006832
0.000380524414
0.0003794924259
0.0003779930259
0.0003761031561
0.0003739193209
0.0003715674072
0.000369219759
0.0003671308852
0.0003657148047
0.000378262786
0.0003772007976
0.0003756577892
0.0003737132071
0.0003714670994
0.0003690503015
0.0003666417192
0.0003645039289
0.0003630597353
0.0003756958216
0.0003745929715
0.0003729905024
0.0003709711544
0.0003686395952
0.0003661331117
0.0003636392622
0.0003614315981
0.0003599458126
0.0003727526273
0.0003715959767
0.000369915164
0.0003677971545
0.0003653525008
0.0003627266977
0.0003601184025
0.00035781558
0.0003562717861
0.0003693531067
0.0003681275541
0.0003663463671
0.0003641018258
0.0003615118296
0.0003587320969
0.0003559751855
0.0003535474473
0.0003519261646
0.0003654086173
0.0003640969179
0.0003621902212
0.0003597873779
0.0003570152988
0.0003540421921
0.0003510976513
0.0003485108838
0.0003467896188
0.0003608232852
0.0003594062117
0.000357346018
0.0003547495533
0.0003517546011
0.0003485443548
0.000345368859
0.0003425850556
0.0003407385852
0.000355496092
0.0003539527685
0.0003517087515
0.0003488804854
0.0003456186693
0.0003421241613
0.0003386710681
0.0003356492144
0.0003336501577
0.0003493238152
0.0003476322558
0.0003451725656
0.0003420725386
0.0003384979829
0.0003346702177
0.0003308910953
0.0003275885385
0.0003254082597
0.0003422048648
0.0003403427368
0.0003376351468
0.0003342231275
0.0003302898919
0.000326080041
0.0003219267646
0.0003183010993
0.0003159109684
0.0003340439929
0.0003319896111
0.0003290030046
0.0003252404293
0.000320904835
0.0003162668297
0.0003116942391
0.0003077057036
0.0003050787122
0.0003247577749
0.0003224913149
0.000319197488
0.000315049799
0.0003102732132
0.00030516683
0.0003001358827
0.0002957502054
0.0002928628989
0.0003142806668
0.0003117855601
0.0003081612838
0.0003036005826
0.0002983525552
0.0002927468697
0.0002872281545
0.0002824197254
0.0002792543702
0.0003025713422
0.0002998357894
0.0002958650298
0.0002908729123
0.0002851344962