/*--------------------------------*- C++ -*----------------------------------*\
| =========                 |                                                 |
| \\      /  F ield         | OpenFOAM: The Open Source CFD Toolbox           |
|  \\    /   O peration     | Version:  2212                                  |
|   \\  /    A nd           | Website:  www.openfoam.com                      |
|    \\/     M anipulation  |                                                 |
\*---------------------------------------------------------------------------*/
FoamFile
{
    version     2.0;
    format      ascii;
    arch        "LSB;label=32;scalar=64";
    class       volScalarField;
    location    "30.00000000";
    object      CH2CO_0;
}
// * * * * * * * * * * * * * * * * * * * * * * * * * * * * * * * * * * * * * //

dimensions      [0 0 0 0 0 0 0];

internalField   nonuniform List<scalar> 
3000
(
4.45371854e-20
5.003651455e-20
5.83353619e-20
6.939503573e-20
8.310370312e-20
9.908967099e-20
1.163901857e-19
1.329000184e-19
1.445739546e-19
1.672324872e-19
1.886409152e-19
2.20933907e-19
2.640654688e-19
3.179949848e-19
3.824274244e-19
4.56243169e-19
5.357334912e-19
6.061260783e-19
3.746852188e-19
4.259795494e-19
5.04091807e-19
6.101581266e-19
7.460896855e-19
9.138657398e-19
1.112817707e-18
1.331794349e-18
1.518881935e-18
7.139141553e-19
8.201678227e-19
9.843487041e-19
1.212025504e-18
1.511277564e-18
1.889725752e-18
2.345302502e-18
2.841585014e-18
3.242128936e-18
1.268302475e-18
1.474988915e-18
1.799388746e-18
2.258014515e-18
2.872471799e-18
3.660025449e-18
4.607527568e-18
5.613873178e-18
6.38643605e-18
2.182145419e-18
2.570310233e-18
3.188291157e-18
4.075607896e-18
5.279681105e-18
6.830918397e-18
8.683047735e-18
1.060257749e-17
1.202288297e-17
3.706939429e-18
4.42045899e-18
5.569674683e-18
7.238409092e-18
9.519773039e-18
1.245933906e-17
1.593567505e-17
1.946824706e-17
2.201760073e-17
6.278015429e-18
7.570231029e-18
9.670024632e-18
1.274264692e-17
1.695980166e-17
2.238258164e-17
2.873919697e-17
3.510450571e-17
3.962142675e-17
1.065028799e-17
1.296572433e-17
1.675242088e-17
2.232129272e-17
2.997769517e-17
3.979562036e-17
5.122078606e-17
6.254202225e-17
7.048663015e-17
1.813173216e-17
2.224745223e-17
2.900859267e-17
3.898273975e-17
5.270218846e-17
7.024607759e-17
9.054629677e-17
1.105127001e-16
1.244189978e-16
3.09900286e-17
3.826141587e-17
5.024248681e-17
6.794857984e-17
9.229666319e-17
1.233521489e-16
1.591291773e-16
1.941343874e-16
2.183957608e-16
5.315796508e-17
6.594563349e-17
8.705636478e-17
1.182810031e-16
1.611854817e-16
2.157748563e-16
2.784374972e-16
3.395242622e-16
3.817655187e-16
9.146130917e-17
1.138764901e-16
1.50925046e-16
2.057361013e-16
2.809615482e-16
3.764174042e-16
4.855820655e-16
5.91685782e-16
6.653305115e-16
1.57755412e-16
1.969672678e-16
2.618352786e-16
3.578133903e-16
4.893779987e-16
6.557922951e-16
8.449713653e-16
1.027481188e-15
1.157725646e-15
2.726324775e-16
3.411576373e-16
4.546381843e-16
6.226720434e-16
8.530227935e-16
1.143815864e-15
1.471094333e-15
1.771431573e-15
2.017949356e-15
4.718149854e-16
5.91460273e-16
7.898577657e-16
1.08417372e-15
1.488999398e-15
2.004209072e-15
2.598041093e-15
3.191416908e-15
3.562391737e-15
8.171860267e-16
1.025730667e-15
1.371751785e-15
1.885267566e-15
2.591475844e-15
3.488624e-15
4.515048149e-15
5.510229942e-15
6.185877013e-15
1.416072297e-15
1.779030786e-15
2.381380238e-15
3.275210842e-15
4.503682677e-15
6.06215539e-15
7.841092061e-15
9.561691294e-15
1.073944936e-14
2.454745044e-15
3.085875652e-15
4.133384612e-15
5.68766342e-15
7.823154535e-15
1.053083252e-14
1.361969564e-14
1.660637079e-14
1.865219608e-14
4.256532798e-15
5.353421557e-15
7.174149104e-15
9.875701738e-15
1.35869962e-14
1.829163986e-14
2.365726499e-14
2.88443341e-14
3.239697544e-14
7.382692253e-15
9.288494942e-15
1.24522339e-14
1.714662428e-14
2.359520631e-14
3.176867349e-14
4.108878954e-14
5.009695178e-14
5.626553895e-14
1.280758641e-14
1.61182256e-14
2.161447561e-14
2.977003991e-14
4.097262543e-14
5.517009936e-14
7.13567027e-14
8.69986151e-14
9.770826883e-14
2.222296522e-14
2.797330406e-14
3.752035521e-14
5.168673161e-14
7.114480844e-14
9.58020654e-14
1.239095193e-13
1.510664618e-13
1.696582625e-13
3.856650891e-14
4.855370891e-14
6.513541587e-14
8.973972953e-14
1.235324419e-13
1.663495245e-13
2.151501314e-13
2.622934139e-13
2.94564282e-13
6.693992836e-14
8.428507542e-14
1.130829322e-13
1.558118217e-13
2.144921732e-13
2.888331215e-13
3.735490932e-13
4.553748926e-13
5.113817595e-13
1.162033634e-13
1.463266829e-13
1.963378019e-13
2.705354936e-13
3.72418701e-13
5.014695662e-13
6.485010452e-13
7.904885518e-13
8.876609302e-13
2.017440185e-13
2.540580492e-13
3.409031377e-13
4.697308945e-13
6.465940253e-13
8.705634024e-13
1.125667398e-12
1.371951816e-12
1.54046348e-12
3.502823578e-13
4.411311689e-13
5.919260117e-13
8.155717824e-13
1.122521564e-12
1.511091526e-12
1.953506662e-12
2.380460469e-12
2.672490962e-12
6.082071944e-13
7.659644723e-13
1.027763103e-12
1.415923902e-12
1.948457149e-12
2.622270964e-12
3.389042446e-12
4.128609378e-12
4.634214583e-12
1.05601513e-12
1.329917599e-12
1.784326841e-12
2.457783768e-12
3.381220032e-12
4.548864489e-12
5.876592395e-12
7.156215623e-12
8.030409068e-12
1.833283828e-12
2.308712461e-12
3.097140596e-12
4.264961741e-12
5.865066915e-12
7.886484211e-12
1.018265022e-11
1.239322315e-11
1.390188545e-11
3.181767401e-12
4.006621154e-12
5.373780028e-12
7.397262628e-12
1.016697815e-11
1.366167008e-11
1.76257787e-11
2.143646567e-11
2.403353109e-11
5.519552096e-12
6.949621479e-12
9.318205365e-12
1.282030284e-11
1.760756238e-11
2.363807527e-11
3.046586565e-11
3.701641842e-11
4.147233613e-11
9.568203642e-12
1.204490346e-11
1.614317769e-11
2.219472743e-11
3.045273331e-11
4.083337243e-11
5.255790056e-11
6.377733698e-11
7.139028098e-11
1.656983566e-11
2.08526577e-11
2.793112615e-11
3.836557174e-11
5.257310097e-11
7.038439547e-11
9.043942364e-11
1.095674286e-10
1.225056666e-10
2.86558116e-11
3.604650318e-11
4.824309657e-11
6.618382415e-11
9.054412424e-11
1.209804322e-10
1.551189562e-10
1.875465644e-10
2.093945991e-10
4.946933404e-11
6.218822768e-11
8.313826243e-11
1.138731629e-10
1.554625704e-10
2.072101006e-10
2.649797184e-10
3.195827683e-10
3.561973599e-10
8.520975712e-11
1.070213802e-10
1.428654748e-10
1.952800392e-10
2.659103661e-10
3.533539986e-10
4.504277868e-10
5.416447655e-10
6.02471988e-10
1.463712516e-10
1.836125497e-10
2.446415647e-10
3.335351283e-10
4.527277235e-10
5.994267408e-10
7.61220656e-10
9.122308906e-10
1.012294669e-09
2.506136456e-10
3.138619826e-10
4.171639801e-10
5.669361454e-10
7.665924273e-10
1.010657926e-09
1.277841632e-09
1.525336443e-09
1.688186327e-09
4.274597885e-10
5.341993036e-10
7.078525802e-10
9.582723839e-10
1.289878625e-09
1.692140343e-09
2.128877735e-09
2.530094793e-09
2.792101836e-09
7.259055601e-10
9.04720752e-10
1.19432348e-09
1.609397378e-09
2.154934714e-09
2.811115944e-09
3.517168533e-09
4.160091578e-09
4.576615163e-09
1.226616096e-09
1.523672394e-09
2.002327841e-09
2.683679546e-09
3.571840109e-09
4.630385323e-09
5.758597509e-09
6.776530294e-09
7.430658897e-09
2.061245222e-09
2.550118944e-09
3.333420065e-09
4.440103195e-09
5.869962463e-09
7.557712142e-09
9.338905157e-09
1.093103975e-08
1.194585336e-08
3.442657571e-09
4.238962457e-09
5.507056591e-09
7.284363501e-09
9.559361783e-09
1.221798727e-08
1.499596581e-08
1.74561218e-08
1.9011757e-08
5.71158293e-09
6.994318975e-09
9.023804161e-09
1.184444797e-08
1.5420444e-08
1.955750698e-08
2.383779452e-08
2.759426015e-08
2.995151161e-08
9.407648049e-09
1.14497889e-08
1.465903407e-08
1.908112499e-08
2.463348207e-08
3.099325863e-08
3.751040964e-08
4.318083769e-08
4.671364273e-08
1.537600815e-08
1.858757993e-08
2.360013373e-08
3.044773682e-08
3.896399947e-08
4.862492715e-08
5.843492917e-08
6.690162055e-08
7.214160338e-08
2.492518948e-08
2.991303707e-08
3.764519237e-08
4.811907213e-08
6.102593915e-08
7.553386186e-08
9.014038532e-08
1.026531575e-07
1.103505369e-07
4.005759e-08
4.770727199e-08
5.948772406e-08
7.531632382e-08
9.465251255e-08
1.162020149e-07
1.377282926e-07
1.560446438e-07
1.672513307e-07
6.380182571e-08
7.538875829e-08
9.312081238e-08
1.167647892e-07
1.454152484e-07
1.770955454e-07
2.08517734e-07
2.350934231e-07
2.512760961e-07
1.006863893e-07
1.180256466e-07
1.444057967e-07
1.793337482e-07
2.213457445e-07
2.674731034e-07
3.129364061e-07
3.511841586e-07
3.743779351e-07
1.574077495e-07
1.830550918e-07
2.218662159e-07
2.729247022e-07
3.339326372e-07
4.004982752e-07
4.657443107e-07
5.203847725e-07
5.534028873e-07
2.437641087e-07
2.81285566e-07
3.377887663e-07
4.116961235e-07
4.994888721e-07
5.947587979e-07
6.877014443e-07
7.652396933e-07
8.119613003e-07
3.739282615e-07
4.28255181e-07
5.097108941e-07
6.157202823e-07
7.410076731e-07
8.763337561e-07
1.007833115e-06
1.11719706e-06
1.18294967e-06
5.681960617e-07
6.461002229e-07
7.624652056e-07
9.132465405e-07
1.09067226e-06
1.281559984e-06
1.466441678e-06
1.61981547e-06
1.711867264e-06
8.553696063e-07
9.660906681e-07
1.130935358e-06
1.343735368e-06
1.59320944e-06
1.860717485e-06
2.11908976e-06
2.332964604e-06
2.461125967e-06
1.275954905e-06
1.432025315e-06
1.663739594e-06
1.961904282e-06
2.310342686e-06
2.682889136e-06
3.04181753e-06
3.338319822e-06
3.515717493e-06
1.886419969e-06
2.104743534e-06
2.428109664e-06
2.843059422e-06
3.326620496e-06
3.842286934e-06
4.337945107e-06
4.746602469e-06
4.990758025e-06
2.764787677e-06
3.068029853e-06
3.516239728e-06
4.089986476e-06
4.756914294e-06
5.466411811e-06
6.146939907e-06
6.707085548e-06
7.041372367e-06
4.017803526e-06
4.436144719e-06
5.053339775e-06
5.841669065e-06
6.755951683e-06
7.72654838e-06
8.655888384e-06
9.419842263e-06
9.875381757e-06
5.78981882e-06
6.363140396e-06
7.207612131e-06
8.284177522e-06
9.530366141e-06
1.085108928e-05
1.211399994e-05
1.315119541e-05
1.376931536e-05
8.27350765e-06
9.054162878e-06
1.020247492e-05
1.166413536e-05
1.335360714e-05
1.514192994e-05
1.685042349e-05
1.825274194e-05
1.90881953e-05
1.172270072e-05
1.277904968e-05
1.433128345e-05
1.630483067e-05
1.858362043e-05
2.099384443e-05
2.329534369e-05
2.51839829e-05
2.630913127e-05
1.64674193e-05
1.788812493e-05
1.997420672e-05
2.262445699e-05
2.56827111e-05
2.891620523e-05
3.200366544e-05
3.453776848e-05
3.604791051e-05
2.29304404e-05
2.482938431e-05
2.76163241e-05
3.11553954e-05
3.523832941e-05
3.955552572e-05
4.367940765e-05
4.706641011e-05
4.908626349e-05
3.164427165e-05
3.416583049e-05
3.786551049e-05
4.256286948e-05
4.798263553e-05
5.371604337e-05
5.9197383e-05
6.370441237e-05
6.639534522e-05
4.326715213e-05
4.659145018e-05
5.146832102e-05
5.766057611e-05
6.480770606e-05
7.2374336e-05
7.961712574e-05
8.558177503e-05
8.914868188e-05
5.859660877e-05
6.294400768e-05
6.932151299e-05
7.742033236e-05
8.677260924e-05
9.668314951e-05
0.0001061830438
0.0001140206512
0.0001187165288
7.857857951e-05
8.421241958e-05
9.247659106e-05
0.0001029725419
0.0001150984262
0.0001279596885
0.0001403051962
0.0001505090112
0.0001566347998
0.0001043097883
0.0001115361538
0.0001221344805
0.0001355942184
0.0001511476389
0.0001676546593
0.0001835171941
0.0001966484377
0.0002045464768
0.0001370303553
0.0001461934953
0.0001596270354
0.0001766812521
0.0001963848321
0.0002172997779
0.0002374104681
0.0002540779122
0.0002641214137
0.0001781027742
0.0001895748486
0.00020638172
0.0002277016802
0.0002523162513
0.0002784324082
0.0003035449428
0.0003243754464
0.000336951808
0.0002289729562
0.0002431371523
0.0002638662404
0.0002901278464
0.0003204075047
0.0003524977872
0.000383335959
0.0004089144807
0.0004243569524
0.0002911099604
0.0003083369101
0.0003335121124
0.0003653486176
0.0004019840655
0.0004407394692
0.0004779157555
0.00050869486
0.000527253446
0.0003659239086
0.0003865426326
0.0004166200084
0.0004545667154
0.0004981228703
0.0005440575303
0.0005879789709
0.0006242399646
0.0006460609737
0.0004546662437
0.0004789321041
0.0005142560632
0.0005586908858
0.0006095006451
0.0006628665838
0.0007136839215
0.0007554819739
0.000780564647
0.0005583244075
0.000586383058
0.0006271127857
0.000678158485
0.0007362722947
0.0007970139002
0.0008545702609
0.0009016996134
0.0009298812089
0.0006774529668
0.0007092877839
0.0007553556079
0.0008128538777
0.0008779878497
0.0009457021386
0.001009513727
0.001061496282
0.001092449607
0.0008120432854
0.0008474664314
0.0008985549334
0.0009620336721
0.001033559626
0.001107485687
0.001176736026
0.001232830529
0.00126607534
0.0009614568252
0.00100009915
0.001055633579
0.001124306284
0.001201251134
0.001280286657
0.001353858814
0.001413094901
0.001448023176
0.001124376849
0.001165691231
0.001224846042
0.001297638919
0.001378723756
0.001461478752
0.00153800711
0.001599237712
0.00163514926
0.001298811358
0.001342094858
0.001403834847
0.001479425746
0.001563126464
0.001647992928
0.001725944326
0.001787913124
0.001824057487
0.001482148127
0.00152657618
0.001589706177
0.001666604235
0.001751236457
0.001836476053
0.001914234063
0.00197564467
0.002011261196
0.001671262954
0.001715935597
0.001779168374
0.001855794829
0.00193961093
0.0020234573
0.002099408269
0.002158983415
0.002193323769
0.001862672974
0.001906668773
0.001968702371
0.002043485483
0.002124776636
0.002205532095
0.002278142673
0.002334661543
0.00236693936
0.002052721459
0.002095154008
0.002154751175
0.002226221512
0.002303420421
0.002379555924
0.002447460983
0.002499913473
0.002529760709
0.002237775146
0.002277846627
0.002333908312
0.002400785137
0.002472564093
0.002542822874
0.002605130847
0.002653046335
0.00268021129
0.002414410769
0.002451458421
0.002503082846
0.002564331016
0.002629741765
0.002693501671
0.002749780781
0.002792874438
0.002817219156
0.002579564507
0.002613108884
0.002659733435
0.002714888882
0.002773554484
0.002830498379
0.002880544225
0.002918711938
0.002940202989
0.002731163953
0.00276104582
0.002802483076
0.002851354221
0.002903144169
0.002953215211
0.002997045961
0.003030351564
0.003049049078
0.002868080291
0.002894275509
0.002930522076
0.002973149659
0.003018171297
0.003061541504
0.003099370125
0.003128020665
0.003144062454
0.002989760593
0.003012368561
0.003043590222
0.003080213614
0.003118777352
0.003155806937
0.003188002297
0.003212316118
0.003225898685
0.003096207875
0.003115430884
0.003141932099
0.003172947814
0.003205520686
0.003236710016
0.003263752818
0.003284124975
0.003295483714
0.003187918845
0.003204035696
0.003226221822
0.003252136951
0.003279291974
0.003305231627
0.003327670296
0.003344539054
0.003353929612
0.003265790548
0.003279128437
0.003297466503
0.003318852241
0.003341219398
0.003362543389
0.00338095401
0.003394771266
0.003402453464
0.003331010107
0.003341918155
0.003356900626
0.003374350422
0.003392573675
0.003409919572
0.003424872663
0.00343608005
0.003442305181
0.003384941629
0.003393768439
0.003405882995
0.003419978394
0.003434681446
0.003448659434
0.003460694896
0.00346970626
0.003474708015
0.003429022087
0.003436098607
0.003445805437
0.003457090983
0.003468852828
0.00348002436
0.003489634806
0.003496824976
0.003500813811
0.003464674521
0.003470302591
0.00347801953
0.003486986811
0.003496326754
0.003505192045
0.003512813578
0.003518512554
0.003521672978
0.00349324313
0.003497689154
0.003503783751
0.003510863338
0.003518234029
0.003525226916
0.003531235979
0.003535727452
0.003538217607
0.003515950294
0.003519443095
0.003524230281
0.003529789945
0.003535576638
0.003541065012
0.003545779717
0.003549302715
0.003551255561
0.003533873431
0.003536605175
0.003540348967
0.00354469633
0.00354922045
0.003553510446
0.003557194855
0.003559947379
0.003561472904
0.003547937821
0.003550066911
0.003552984678
0.00355637262
0.003559897932
0.003563240313
0.003566110362
0.003568254101
0.003569442044
0.003558921017
0.003560576043
0.003562844108
0.00356547755
0.003568217555
0.003570815061
0.003573045141
0.003574710567
0.003575633303
0.003567464669
0.003568748727
0.003570508399
0.003572551472
0.003574677058
0.003576691851
0.003578421357
0.003579712707
0.003580428049
0.003574090323
0.003575085258
0.003576448686
0.003578031617
0.003579678324
0.003581238979
0.003582578404
0.003583578281
0.003584132038
0.003579216623
0.003579986895
0.003581042407
0.003582267755
0.003583542318
0.003584750073
0.0035857864
0.003586559825
0.003586988056
0.003583176177
0.003583772249
0.003584588998
0.003585537064
0.003586523056
0.003587457177
0.003588258511
0.00358885639
0.003589187329
0.003586231037
0.003586692237
0.003587324121
0.003588057498
0.003588820068
0.003589542348
0.003590161784
0.003590623806
0.003590879464
0.003588586294
0.003588943164
0.00358943205
0.003589999364
0.00359058913
0.003591147587
0.003591626379
0.003591983382
0.003592180862
0.003590401604
0.003590677811
0.003591056142
0.003591495078
0.003591951273
0.003592383123
0.00359275325
0.003593029134
0.00359318169
0.003591800749
0.0035920146
0.003592307475
0.003592647191
0.003593000171
0.003593334211
0.00359362041
0.003593833664
0.003593951546
0.003592879398
0.003593045043
0.003593271859
0.003593534891
0.003593808116
0.003594066598
0.003594287986
0.003594452891
0.003594544017
0.003593711327
0.003593839695
0.003594015436
0.00359421919
0.003594430778
0.003594630886
0.00359480222
0.003594929799
0.003595000276
0.003594353342
0.003594452872
0.00359458911
0.003594747025
0.003594910965
0.003595065963
0.00359519863
0.003595297386
0.003595351925
0.003594849137
0.003594926349
0.003595032019
0.003595154473
0.003595281565
0.003595401687
0.003595504473
0.003595580964
0.003595623195
0.003595232306
0.003595292236
0.00359537424
0.003595469248
0.003595567828
0.003595660976
0.003595740659
0.003595799941
0.003595832664
0.003595528671
0.003595575212
0.003595638884
0.003595712638
0.003595789146
0.00359586142
0.00359592323
0.003595969204
0.003595994576
0.003595758088
0.003595794249
0.003595843714
0.003595900999
0.003595960409
0.003596016519
0.003596064495
0.003596100172
0.003596119858
0.003595935828
0.003595963938
0.003596002385
0.003596046901
0.003596093061
0.003596136646
0.003596173906
0.00359620161
0.003596216895
0.003596073644
0.003596095507
0.003596125404
0.003596160015
0.003596195898
0.003596229773
0.003596258728
0.003596280254
0.003596292128
0.00359618059
0.003596197601
0.00359622086
0.003596247783
0.003596275691
0.003596302034
0.003596324547
0.003596341282
0.003596350513
0.003596263643
0.003596276884
0.003596294987
0.00359631594
0.003596337655
0.00359635815
0.003596375664
0.003596388682
0.003596395863
0.003596328188
0.003596338499
0.003596352594
0.003596368907
0.003596385811
0.003596401765
0.003596415396
0.003596425528
0.003596431117
0.003596378383
0.003596386415
0.003596397394
0.003596410099
0.003596423264
0.003596435687
0.003596446302
0.003596454191
0.003596458543
0.003596417442
0.003596423701
0.003596432256
0.003596442154
0.003596452411
0.003596462089
0.003596470358
0.003596476503
0.003596479893
0.003596447853
0.003596452732
0.003596459399
0.003596467114
0.003596475107
0.003596482649
0.003596489093
0.003596493883
0.003596496525
0.003596471543
0.003596475347
0.003596480545
0.003596486559
0.00359649279
0.00359649867
0.003596503693
0.003596507427
0.003596509487
0.003596490005
0.003596492971
0.003596497025
0.003596501715
0.003596506574
0.003596511158
0.003596515075
0.003596517987
0.003596519593
0.003596504399
0.003596506713
0.003596509874
0.003596513532
0.003596517321
0.003596520897
0.003596523952
0.003596526223
0.003596527476
0.003596515624
0.003596517429
0.003596519895
0.003596522749
0.003596525705
0.003596528494
0.003596530877
0.003596532648
0.003596533626
0.003596524381
0.003596525789
0.003596527713
0.003596529939
0.003596532245
0.003596534421
0.00359653628
0.003596537662
0.003596538425
0.003596531213
0.003596532311
0.003596533813
0.003596535549
0.003596537348
0.003596539046
0.003596540496
0.003596541575
0.00359654217
0.003596536544
0.003596537401
0.003596538572
0.003596539927
0.003596541331
0.003596542655
0.003596543787
0.003596544628
0.003596545092
0.003596540704
0.003596541373
0.003596542286
0.003596543343
0.003596544438
0.003596545471
0.003596546354
0.00359654701
0.003596547373
0.00359654395
0.003596544472
0.003596545184
0.003596546009
0.003596546862
0.003596547668
0.003596548357
0.003596548869
0.003596549151
0.003596546483
0.003596546889
0.003596547445
0.003596548088
0.003596548754
0.003596549382
0.003596549919
0.003596550318
0.003596550538
0.003596548458
0.003596548775
0.003596549208
0.003596549709
0.003596550228
0.003596550717
0.003596551136
0.003596551447
0.003596551618
0.003596549998
0.003596550245
0.003596550582
0.003596550972
0.003596551377
0.003596551758
0.003596552084
0.003596552326
0.00359655246
0.003596551197
0.00359655139
0.003596551653
0.003596551956
0.003596552271
0.003596552568
0.003596552821
0.00359655301
0.003596553114
0.003596552132
0.003596552281
0.003596552486
0.003596552722
0.003596552967
0.003596553197
0.003596553394
0.003596553541
0.003596553621
0.003596552858
0.003596552974
0.003596553133
0.003596553317
0.003596553507
0.003596553686
0.003596553839
0.003596553952
0.003596554015
0.003596553422
0.003596553513
0.003596553636
0.003596553778
0.003596553925
0.003596554064
0.003596554182
0.00359655427
0.003596554319
0.00359655386
0.00359655393
0.003596554025
0.003596554135
0.003596554249
0.003596554356
0.003596554448
0.003596554515
0.003596554553
0.003596554198
0.003596554252
0.003596554326
0.00359655441
0.003596554498
0.003596554581
0.003596554651
0.003596554703
0.003596554732
0.003596554459
0.0035965545
0.003596554557
0.003596554622
0.00359655469
0.003596554753
0.003596554807
0.003596554847
0.003596554869
0.003596554659
0.003596554691
0.003596554734
0.003596554784
0.003596554835
0.003596554884
0.003596554925
0.003596554955
0.003596554972
0.003596554812
0.003596554836
0.003596554869
0.003596554907
0.003596554946
0.003596554982
0.003596555013
0.003596555036
0.003596555048
0.003596554927
0.003596554945
0.00359655497
0.003596554999
0.003596555028
0.003596555055
0.003596555079
0.003596555095
0.003596555105
0.003596555014
0.003596555028
0.003596555046
0.003596555067
0.003596555089
0.003596555109
0.003596555126
0.003596555138
0.003596555145
0.003596555078
0.003596555088
0.003596555102
0.003596555117
0.003596555133
0.003596555147
0.003596555159
0.003596555168
0.003596555173
0.003596555124
0.003596555132
0.003596555141
0.003596555152
0.003596555163
0.003596555173
0.003596555182
0.003596555188
0.003596555191
0.003596555157
0.003596555162
0.003596555168
0.003596555176
0.003596555183
0.00359655519
0.003596555195
0.003596555199
0.003596555201
0.003596555179
0.003596555182
0.003596555186
0.003596555191
0.003596555195
0.003596555199
0.003596555202
0.003596555205
0.003596555206
0.003596555192
0.003596555194
0.003596555196
0.003596555199
0.003596555201
0.003596555203
0.003596555204
0.003596555205
0.003596555205
0.003596555198
0.003596555199
0.0035965552
0.003596555201
0.003596555202
0.003596555202
0.003596555202
0.003596555202
0.003596555201
0.0035965552
0.0035965552
0.0035965552
0.003596555199
0.003596555199
0.003596555197
0.003596555196
0.003596555195
0.003596555194
0.003596555197
0.003596555197
0.003596555195
0.003596555194
0.003596555192
0.00359655519
0.003596555188
0.003596555186
0.003596555185
0.003596555191
0.00359655519
0.003596555189
0.003596555186
0.003596555184
0.003596555181
0.003596555178
0.003596555176
0.003596555174
0.003596555183
0.003596555182
0.003596555179
0.003596555176
0.003596555173
0.00359655517
0.003596555167
0.003596555164
0.003596555162
0.003596555173
0.003596555171
0.003596555168
0.003596555165
0.003596555161
0.003596555157
0.003596555154
0.003596555151
0.003596555149
0.003596555161
0.003596555159
0.003596555156
0.003596555152
0.003596555148
0.003596555144
0.00359655514
0.003596555137
0.003596555135
0.003596555148
0.003596555146
0.003596555143
0.003596555139
0.003596555134
0.00359655513
0.003596555125
0.003596555122
0.00359655512
0.003596555135
0.003596555132
0.003596555129
0.003596555124
0.00359655512
0.003596555115
0.00359655511
0.003596555107
0.003596555105
0.00359655512
0.003596555118
0.003596555114
0.003596555109
0.003596555105
0.0035965551
0.003596555095
0.003596555091
0.003596555089
0.003596555105
0.003596555102
0.003596555099
0.003596555094
0.003596555089
0.003596555084
0.003596555079
0.003596555075
0.003596555073
0.00359655509
0.003596555087
0.003596555083
0.003596555078
0.003596555073
0.003596555068
0.003596555063
0.003596555059
0.003596555057
0.003596555074
0.003596555071
0.003596555067
0.003596555062
0.003596555057
0.003596555052
0.003596555047
0.003596555043
0.003596555041
0.003596555058
0.003596555055
0.003596555051
0.003596555046
0.003596555041
0.003596555035
0.00359655503
0.003596555027
0.003596555024
0.003596555041
0.003596555039
0.003596555035
0.00359655503
0.003596555024
0.003596555019
0.003596555014
0.00359655501
0.003596555008
0.003596555025
0.003596555022
0.003596555018
0.003596555013
0.003596555008
0.003596555002
0.003596554997
0.003596554993
0.003596554991
0.003596555008
0.003596555006
0.003596555002
0.003596554997
0.003596554991
0.003596554986
0.003596554981
0.003596554977
0.003596554974
0.003596554992
0.003596554989
0.003596554985
0.00359655498
0.003596554974
0.003596554969
0.003596554964
0.00359655496
0.003596554958
0.003596554975
0.003596554972
0.003596554968
0.003596554963
0.003596554958
0.003596554952
0.003596554947
0.003596554943
0.003596554941
0.003596554959
0.003596554956
0.003596554952
0.003596554947
0.003596554941
0.003596554936
0.00359655493
0.003596554926
0.003596554924
0.003596554942
0.003596554939
0.003596554935
0.00359655493
0.003596554924
0.003596554919
0.003596554914
0.00359655491
0.003596554907
0.003596554925
0.003596554922
0.003596554918
0.003596554913
0.003596554908
0.003596554902
0.003596554897
0.003596554893
0.003596554891
0.003596554909
0.003596554906
0.003596554901
0.003596554896
0.003596554891
0.003596554885
0.00359655488
0.003596554876
0.003596554874
0.003596554892
0.003596554889
0.003596554885
0.00359655488
0.003596554874
0.003596554869
0.003596554864
0.00359655486
0.003596554857
0.003596554875
0.003596554872
0.003596554868
0.003596554863
0.003596554858
0.003596554852
0.003596554847
0.003596554843
0.003596554841
0.003596554859
0.003596554856
0.003596554851
0.003596554846
0.003596554841
0.003596554835
0.00359655483
0.003596554826
0.003596554824
0.003596554842
0.003596554839
0.003596554835
0.00359655483
0.003596554824
0.003596554819
0.003596554814
0.00359655481
0.003596554808
0.003596554825
0.003596554822
0.003596554818
0.003596554813
0.003596554808
0.003596554802
0.003596554797
0.003596554793
0.003596554791
0.003596554809
0.003596554806
0.003596554802
0.003596554797
0.003596554791
0.003596554786
0.003596554781
0.003596554777
0.003596554774
0.003596554792
0.003596554789
0.003596554785
0.00359655478
0.003596554775
0.003596554769
0.003596554764
0.00359655476
0.003596554758
0.003596554776
0.003596554773
0.003596554769
0.003596554764
0.003596554758
0.003596554753
0.003596554748
0.003596554744
0.003596554742
0.003596554759
0.003596554756
0.003596554752
0.003596554747
0.003596554742
0.003596554737
0.003596554732
0.003596554728
0.003596554725
0.003596554743
0.00359655474
0.003596554736
0.003596554731
0.003596554726
0.00359655472
0.003596554715
0.003596554711
0.003596554709
0.003596554727
0.003596554724
0.00359655472
0.003596554715
0.003596554709
0.003596554704
0.003596554699
0.003596554695
0.003596554693
0.00359655471
0.003596554708
0.003596554704
0.003596554699
0.003596554693
0.003596554688
0.003596554683
0.003596554679
0.003596554677
0.003596554694
0.003596554691
0.003596554687
0.003596554683
0.003596554677
0.003596554672
0.003596554667
0.003596554663
0.003596554661
0.003596554678
0.003596554675
0.003596554671
0.003596554667
0.003596554661
0.003596554656
0.003596554651
0.003596554647
0.003596554645
0.003596554662
0.003596554659
0.003596554655
0.003596554651
0.003596554645
0.00359655464
0.003596554635
0.003596554631
0.003596554629
0.003596554646
0.003596554644
0.00359655464
0.003596554635
0.003596554629
0.003596554624
0.003596554619
0.003596554616
0.003596554613
0.003596554631
0.003596554628
0.003596554624
0.003596554619
0.003596554614
0.003596554609
0.003596554604
0.0035965546
0.003596554598
0.003596554615
0.003596554612
0.003596554608
0.003596554603
0.003596554598
0.003596554593
0.003596554588
0.003596554585
0.003596554582
0.003596554599
0.003596554597
0.003596554593
0.003596554588
0.003596554583
0.003596554578
0.003596554573
0.003596554569
0.003596554567
0.003596554584
0.003596554581
0.003596554577
0.003596554573
0.003596554568
0.003596554563
0.003596554558
0.003596554554
0.003596554552
0.003596554569
0.003596554566
0.003596554562
0.003596554558
0.003596554553
0.003596554548
0.003596554543
0.003596554539
0.003596554537
0.003596554554
0.003596554551
0.003596554547
0.003596554543
0.003596554538
0.003596554533
0.003596554529
0.003596554525
0.003596554523
0.003596554539
0.003596554536
0.003596554533
0.003596554528
0.003596554523
0.003596554519
0.003596554514
0.003596554511
0.003596554508
0.003596554525
0.003596554522
0.003596554518
0.003596554514
0.003596554509
0.003596554504
0.0035965545
0.003596554497
0.003596554495
0.00359655451
0.003596554508
0.003596554504
0.0035965545
0.003596554495
0.003596554491
0.003596554486
0.003596554483
0.003596554481
0.003596554496
0.003596554494
0.00359655449
0.003596554486
0.003596554482
0.003596554477
0.003596554473
0.003596554469
0.003596554468
0.003596554483
0.00359655448
0.003596554477
0.003596554473
0.003596554468
0.003596554464
0.00359655446
0.003596554456
0.003596554455
0.003596554469
0.003596554467
0.003596554464
0.00359655446
0.003596554455
0.003596554451
0.003596554447
0.003596554444
0.003596554442
0.003596554456
0.003596554454
0.003596554451
0.003596554447
0.003596554443
0.003596554438
0.003596554435
0.003596554432
0.00359655443
0.003596554444
0.003596554442
0.003596554438
0.003596554435
0.003596554431
0.003596554426
0.003596554423
0.00359655442
0.003596554418
0.003596554432
0.003596554429
0.003596554426
0.003596554423
0.003596554419
0.003596554415
0.003596554411
0.003596554408
0.003596554406
0.00359655442
0.003596554418
0.003596554415
0.003596554411
0.003596554407
0.003596554403
0.0035965544
0.003596554397
0.003596554395
0.003596554408
0.003596554406
0.003596554403
0.0035965544
0.003596554396
0.003596554393