/*--------------------------------*- C++ -*----------------------------------*\
| =========                 |                                                 |
| \\      /  F ield         | OpenFOAM: The Open Source CFD Toolbox           |
|  \\    /   O peration     | Version:  2212                                  |
|   \\  /    A nd           | Website:  www.openfoam.com                      |
|    \\/     M anipulation  |                                                 |
\*---------------------------------------------------------------------------*/
FoamFile
{
    version     2.0;
    format      ascii;
    arch        "LSB;label=32;scalar=64";
    class       volScalarField;
    location    "30.00000000";
    object      CH3;
}
// * * * * * * * * * * * * * * * * * * * * * * * * * * * * * * * * * * * * * //

dimensions      [0 0 0 0 0 0 0];

internalField   nonuniform List<scalar> 
3000
(
3.89641706e-24
4.373883408e-24
5.094242125e-24
6.053996644e-24
7.243351605e-24
8.630049611e-24
1.013064298e-23
1.156262149e-23
1.257515093e-23
1.461833746e-23
1.647501619e-23
1.927489743e-23
2.301334751e-23
2.768643893e-23
3.326867921e-23
3.966377364e-23
4.655178613e-23
5.26538902e-23
3.270289177e-23
3.714347298e-23
4.390342801e-23
5.307905407e-23
6.483406819e-23
7.933896345e-23
9.653654371e-23
1.154649596e-22
1.316387217e-22
6.217714441e-23
7.135318287e-23
8.552571791e-23
1.05169494e-22
1.309756302e-22
1.63596391e-22
2.028507479e-22
2.456009957e-22
2.8009809e-22
1.101547515e-22
1.279497786e-22
1.558642642e-22
1.953029536e-22
2.481056649e-22
3.157382412e-22
3.970576679e-22
4.833827413e-22
5.49626077e-22
1.888874253e-22
2.22186702e-22
2.751654388e-22
3.511720216e-22
4.542216768e-22
5.868683853e-22
7.451159569e-22
9.090034022e-22
1.030194621e-21
3.196219353e-22
3.805816169e-22
4.786873907e-22
6.210060736e-22
8.153711984e-22
1.065552848e-21
1.361125997e-21
1.66121323e-21
1.877617922e-21
5.389358897e-22
6.488390312e-22
8.272667165e-22
1.08807433e-21
1.445608734e-21
1.904811969e-21
2.442484558e-21
2.980344495e-21
3.361699515e-21
9.099040569e-22
1.105878088e-21
1.426060938e-21
1.896369808e-21
2.542138301e-21
3.369137062e-21
4.330324084e-21
5.28170588e-21
5.9487266e-21
1.541180866e-21
1.887744254e-21
2.456462439e-21
3.294364359e-21
4.445295771e-21
5.915004318e-21
7.613360723e-21
9.281804719e-21
1.044273377e-20
2.620040092e-21
3.229056748e-21
4.231414451e-21
5.71072787e-21
7.741991296e-21
1.032902381e-20
1.330522701e-20
1.621359955e-20
1.822730043e-20
4.469335154e-21
5.534459139e-21
7.290795058e-21
9.884910091e-21
1.344397124e-20
1.796546324e-20
2.314818445e-20
2.8194049e-20
3.167952279e-20
7.646045106e-21
9.502493404e-21
1.256721783e-20
1.709471195e-20
2.329881335e-20
3.115921528e-20
4.013538862e-20
4.884836372e-20
5.488865717e-20
1.311169914e-20
1.634045123e-20
2.167518654e-20
2.955666323e-20
4.034325243e-20
5.396572852e-20
6.942939087e-20
8.43289038e-20
9.494512759e-20
2.252623495e-20
2.813541382e-20
3.74127052e-20
5.112883461e-20
6.990100409e-20
9.356092845e-20
1.201516638e-19
1.445312969e-19
1.644938024e-19
3.875148383e-20
4.84866678e-20
6.460882482e-20
8.848800441e-20
1.212780249e-19
1.629388184e-19
2.1088106e-19
2.587182086e-19
2.885973967e-19
6.671409858e-20
8.358046846e-20
1.115288252e-19
1.529400568e-19
2.097937365e-19
2.818973418e-19
3.642609497e-19
4.440072165e-19
4.980853338e-19
1.149048402e-19
1.440808495e-19
1.924359121e-19
2.640752178e-19
3.623662577e-19
4.868478061e-19
6.287110609e-19
7.657283296e-19
8.594098036e-19
1.979667172e-19
2.483871426e-19
3.319595643e-19
4.557618866e-19
6.255632559e-19
8.404888293e-19
1.085273706e-18
1.321622839e-18
1.483332538e-18
3.411552112e-19
4.282400225e-19
5.725966761e-19
7.864385086e-19
1.07969019e-18
1.450782621e-18
1.873319085e-18
2.281207622e-18
2.560249085e-18
5.880293368e-19
7.38387446e-19
9.876495817e-19
1.356895723e-18
1.863221754e-18
2.503850297e-18
3.233146836e-18
3.937012803e-18
4.418442739e-18
1.013719959e-18
1.273262029e-18
1.703555214e-18
2.340977848e-18
3.214985099e-18
4.320681474e-18
5.579194788e-18
6.793583494e-18
7.624069987e-18
1.747822303e-18
2.195757103e-18
2.93841447e-18
4.038555608e-18
5.546923684e-18
7.45490699e-18
9.626222478e-18
1.172102108e-17
1.31534331e-17
3.013890482e-18
3.786871645e-18
5.068459967e-18
6.966897785e-18
9.569578809e-18
1.286136847e-17
1.660683788e-17
2.02197246e-17
2.268989035e-17
5.19756525e-18
6.531345906e-18
8.742696116e-18
1.201822058e-17
1.650836572e-17
2.218653455e-17
2.864615061e-17
3.487603172e-17
3.913499992e-17
8.964043822e-18
1.126530604e-17
1.508051369e-17
2.073119361e-17
2.847612979e-17
3.826843583e-17
4.940603837e-17
6.014532894e-17
6.748603479e-17
1.546056288e-17
1.943074686e-17
2.601223625e-17
3.5758649e-17
4.91146071e-17
6.599693861e-17
8.519313972e-17
1.036975624e-16
1.163430083e-16
2.666519898e-17
3.351389836e-17
4.486559798e-17
6.167260585e-17
8.469752548e-17
1.137915937e-16
1.468603087e-16
1.787247181e-16
2.004925311e-16
4.598685153e-17
5.779914776e-17
7.737398295e-17
1.063472925e-16
1.460239036e-16
1.961347997e-16
2.53060651e-16
3.078828723e-16
3.453153413e-16
7.929555638e-17
9.966342455e-17
1.334064812e-16
1.833299922e-16
2.516591598e-16
3.379006754e-16
4.357971934e-16
5.300024299e-16
5.94279311e-16
1.366874113e-16
1.717926927e-16
2.299280957e-16
3.158923348e-16
4.334630857e-16
5.817211513e-16
7.498420513e-16
9.114486488e-16
1.021602013e-15
2.354977929e-16
2.959638936e-16
3.960449265e-16
5.439228532e-16
7.459721926e-16
1.00045103e-15
1.288622914e-15
1.565220802e-15
1.753489546e-15
4.054234491e-16
5.094679377e-16
6.8155889e-16
9.355865152e-16
1.282221271e-15
1.718108347e-15
2.210800141e-15
2.682776415e-15
3.003424943e-15
6.971812681e-16
8.759527198e-16
1.171377238e-15
1.606902399e-15
2.200202798e-15
2.94472768e-15
3.784274323e-15
4.586470741e-15
5.130115726e-15
1.19704489e-15
1.503590037e-15
2.009580773e-15
2.754309329e-15
3.766654408e-15
5.033697863e-15
6.458130786e-15
7.81478752e-15
8.731296663e-15
2.051043372e-15
2.57523e-15
3.439205992e-15
4.708202988e-15
6.428578969e-15
8.574734525e-15
1.097842195e-14
1.325856967e-14
1.479296861e-14
3.504834998e-15
4.397885592e-15
5.867158474e-15
8.019680068e-15
1.092818302e-14
1.454197101e-14
1.857095136e-14
2.237439879e-14
2.492194341e-14
5.968621107e-15
7.482834533e-15
9.968485556e-15
1.35986034e-14
1.848394045e-14
2.452472486e-14
3.122310898e-14
3.751065804e-14
4.169916291e-14
1.012135772e-14
1.267320466e-14
1.68507469e-14
2.292862655e-14
3.106889284e-14
4.107744471e-14
5.21058798e-14
6.239070477e-14
6.919992958e-14
1.707546234e-14
2.134345504e-14
2.830741666e-14
3.839337235e-14
5.182557172e-14
6.823248458e-14
8.618244878e-14
1.028008844e-13
1.137291417e-13
2.863289431e-14
3.570498679e-14
4.719869621e-14
6.375586029e-14
8.56615152e-14
1.122186724e-13
1.410425244e-13
1.675173638e-13
1.848017009e-13
4.767726323e-14
5.926493028e-14
7.800826189e-14
1.048377559e-13
1.400639743e-13
1.824088565e-13
2.279640796e-13
2.69451064e-13
2.963322036e-13
7.87679958e-14
9.750380751e-14
1.276366438e-13
1.704442599e-13
2.261494224e-13
2.924634022e-13
3.631054648e-13
4.268472655e-13
4.678249236e-13
1.290408091e-13
1.588719167e-13
2.065156306e-13
2.735816907e-13
3.599227524e-13
4.615270433e-13
5.685240354e-13
6.640587262e-13
7.249532769e-13
2.095951251e-13
2.562796547e-13
3.301952934e-13
4.330558612e-13
5.636995281e-13
7.151903294e-13
8.72362683e-13
1.010778142e-12
1.098040151e-12
3.377024173e-13
4.094259339e-13
5.217417101e-13
6.757300065e-13
8.677897654e-13
1.08590667e-12
1.307141014e-12
1.497553274e-12
1.615167638e-12
5.404425403e-13
6.486395858e-13
8.15709829e-13
1.040279492e-12
1.313233525e-12
1.613257999e-12
1.905395919e-12
2.144543532e-12
2.283985001e-12
8.607366781e-13
1.021387052e-12
1.265164866e-12
1.58441176e-12
1.958226711e-12
2.347372947e-12
2.696022762e-12
2.945143798e-12
3.059820783e-12
1.36688767e-12
1.602843225e-12
1.953735149e-12
2.398714127e-12
2.893798433e-12
3.36593205e-12
3.721435058e-12
3.882258967e-12
3.860748033e-12
2.165778305e-12
2.510762378e-12
3.013249014e-12
3.628827034e-12
4.274553443e-12
4.824829228e-12
5.141235743e-12
5.168884647e-12
5.077462546e-12
3.416284458e-12
3.92054509e-12
4.641806508e-12
5.500020908e-12
6.363108869e-12
7.074940993e-12
7.601435498e-12
8.399378483e-12
9.392266811e-12
5.331800737e-12
6.06893588e-12
7.111729118e-12
8.342172938e-12
9.63077227e-12
1.108679316e-11
1.382097253e-11
1.773357246e-11
2.134223052e-11
8.151218492e-12
9.234331334e-12
1.078881728e-11
1.275088026e-11
1.543975142e-11
2.122448168e-11
3.031216777e-11
4.198660073e-11
5.258816351e-11
1.208014278e-11
1.375554048e-11
1.644229769e-11
2.088845706e-11
3.035676002e-11
4.650588993e-11
7.075782081e-11
1.018598268e-10
1.305456003e-10
1.752141929e-11
2.072181796e-11
2.762195246e-11
4.131661793e-11
6.560680342e-11
1.052790134e-10
1.642060706e-10
2.39213094e-10
3.074615373e-10
2.808990264e-11
3.74137301e-11
5.563816835e-11
8.863888322e-11
1.450167483e-10
2.350737091e-10
3.649079574e-10
5.220441256e-10
6.557806438e-10
5.662723837e-11
7.8567086e-11
1.204488342e-10
1.943773638e-10
3.17268892e-10
5.053892104e-10
7.581758056e-10
1.035390229e-09
1.24697459e-09
1.252007175e-10
1.741745436e-10
2.659984655e-10
4.233891319e-10
6.726129097e-10
1.025861577e-09
1.452913621e-09
1.86928746e-09
2.155957672e-09
2.852051124e-10
3.905038857e-10
5.819485427e-10
8.936909168e-10
1.35067131e-09
1.935932354e-09
2.571027542e-09
3.138417887e-09
3.506839966e-09
6.442666178e-10
8.560843905e-10
1.222931854e-09
1.778870963e-09
2.523221392e-09
3.392987428e-09
4.275098404e-09
5.035348617e-09
5.51893367e-09
1.384712592e-09
1.768017146e-09
2.394913652e-09
3.278770806e-09
4.382128766e-09
5.61207329e-09
6.837048603e-09
7.890672319e-09
8.559590636e-09
2.731056533e-09
3.347368456e-09
4.311088655e-09
5.612006804e-09
7.193845822e-09
8.949660478e-09
1.071531666e-08
1.225391163e-08
1.324003766e-08
4.884424e-09
5.799534401e-09
7.206014449e-09
9.089393723e-09
1.139231484e-08
1.398943932e-08
1.665569983e-08
1.903023365e-08
2.058239652e-08
8.045947519e-09
9.376950458e-09
1.142866541e-08
1.420482694e-08
1.76595442e-08
2.16459405e-08
2.584833265e-08
2.970000243e-08
3.229307244e-08
1.251638785e-08
1.447067623e-08
1.751367065e-08
2.169635968e-08
2.701375942e-08
3.331163672e-08
4.01550423e-08
4.66437831e-08
5.11721874e-08
1.874557304e-08
2.164673391e-08
2.621813823e-08
3.26120856e-08
4.092634735e-08
5.104926374e-08
6.240871961e-08
7.357094892e-08
8.165612496e-08
2.734866379e-08
3.167520104e-08
3.857658971e-08
4.840068422e-08
6.146893377e-08
7.78229617e-08
9.675831334e-08
1.160013419e-07
1.304201125e-07
3.916170202e-08
4.560014038e-08
5.599421606e-08
7.104328439e-08
9.149711847e-08
1.177486256e-07
1.490000295e-07
1.816848662e-07
2.068742219e-07
5.536510686e-08
6.488209641e-08
8.041654792e-08
1.032534851e-07
1.348790548e-07
1.763385443e-07
2.268130353e-07
2.808008531e-07
3.233235292e-07
7.772436159e-08
9.165738245e-08
1.146105427e-07
1.487726944e-07
1.96778347e-07
2.607183053e-07
3.398324508e-07
4.258156472e-07
4.94621503e-07
1.089742192e-07
1.291374418e-07
1.625744415e-07
2.12766633e-07
2.839839578e-07
3.798018944e-07
4.995594897e-07
6.310476204e-07
7.374426006e-07
1.533330792e-07
1.82125203e-07
2.300396532e-07
3.022733871e-07
4.052370885e-07
5.444105172e-07
7.192062188e-07
9.122934341e-07
1.070028823e-06
2.170641809e-07
2.575521849e-07
3.249536647e-07
4.265846526e-07
5.714537778e-07
7.673028322e-07
1.013604799e-06
1.287013339e-06
1.512345949e-06
3.08935735e-07
3.64882127e-07
4.577889093e-07
5.974217774e-07
7.957539129e-07
1.063094922e-06
1.399200929e-06
1.772242771e-06
2.078582418e-06
4.404282362e-07
5.162449198e-07
6.415789035e-07
8.288838614e-07
1.093429599e-06
1.448603077e-06
1.892029113e-06
2.379747746e-06
2.779261939e-06
6.256550153e-07
7.263207509e-07
8.918096612e-07
1.137388883e-06
1.482386852e-06
1.939642279e-06
2.502939518e-06
3.116412985e-06
3.616297886e-06
8.812535025e-07
1.012328267e-06
1.226980574e-06
1.542456712e-06
1.978267197e-06
2.54748892e-06
3.239367432e-06
3.984607219e-06
4.58766869e-06
1.227539904e-06
1.3950512e-06
1.665863728e-06
2.058310605e-06
2.592068481e-06
3.279446091e-06
4.103745494e-06
4.980514589e-06
5.684055789e-06
1.68303909e-06
1.890548056e-06
2.222392747e-06
2.696674441e-06
3.333144149e-06
4.139832388e-06
5.092885441e-06
6.093595222e-06
6.889001369e-06
2.26217166e-06
2.512187134e-06
2.907942435e-06
3.46627757e-06
4.204455432e-06
5.125284345e-06
6.196441e-06
7.306193468e-06
8.179162405e-06
2.976235852e-06
3.269391593e-06
3.728604019e-06
4.369018122e-06
5.2026017e-06
6.226137693e-06
7.3970151e-06
8.593847098e-06
9.524981063e-06
3.831617453e-06
4.166489797e-06
4.686136349e-06
5.400531828e-06
6.31668573e-06
7.423527361e-06
8.66985655e-06
9.925859933e-06
1.0891674e-05
4.827876492e-06
5.200153798e-06
5.772286063e-06
6.548932744e-06
7.529057205e-06
8.69338822e-06
9.984290899e-06
1.126649386e-05
1.224054024e-05
5.956729302e-06
6.359230749e-06
6.971758471e-06
7.792471234e-06
8.812328819e-06
1.000401386e-05
1.130391295e-05
1.257580432e-05
1.35298543e-05
7.201136188e-06
7.623939802e-06
8.260985235e-06
9.10333169e-06
1.013384727e-05
1.131774762e-05
1.258723543e-05
1.38094747e-05
1.471301141e-05
8.534665026e-06
8.965340976e-06
9.607627214e-06
1.044533619e-05
1.145351199e-05
1.259077521e-05
1.378681369e-05
1.491536586e-05
1.572847352e-05
9.921235856e-06
1.034522734e-05
1.097066387e-05
1.177436979e-05
1.272415039e-05
1.377251446e-05
1.484756993e-05
1.584147422e-05
1.655491803e-05
1.13150001e-05
1.171602217e-05
1.230014588e-05
1.303756955e-05
1.389006998e-05
1.480491727e-05
1.573106893e-05
1.657993068e-05
1.718433302e-05
1.26589453e-05
1.301902178e-05
1.353431781e-05
1.416904214e-05
1.489081977e-05
1.56579657e-05
1.642209671e-05
1.711256829e-05
1.759932629e-05
1.387858951e-05
1.417965e-05
1.46066065e-05
1.512739903e-05
1.570801391e-05
1.631213247e-05
1.690094886e-05
1.742371577e-05
1.778852858e-05
1.492651326e-05
1.516350231e-05
1.549415582e-05
1.588851965e-05
1.631552466e-05
1.67457265e-05
1.715232675e-05
1.750518336e-05
1.774917954e-05
1.577263767e-05
1.593923584e-05
1.616529859e-05
1.642437623e-05
1.669083965e-05
1.694391393e-05
1.716982502e-05
1.735837322e-05
1.748803347e-05
1.638286419e-05
1.647529015e-05
1.659277067e-05
1.671411869e-05
1.68209626e-05
1.690236347e-05
1.695758992e-05
1.699461545e-05
1.702099753e-05
1.673147856e-05
1.674982891e-05
1.676044924e-05
1.674884021e-05
1.670504712e-05
1.662835662e-05
1.653025034e-05
1.643430078e-05
1.637185776e-05
1.680671722e-05
1.675514725e-05
1.666631191e-05
1.653324311e-05
1.635483804e-05
1.614024265e-05
1.591164989e-05
1.570517178e-05
1.557038686e-05
1.661271498e-05
1.64989451e-05
1.632286214e-05
1.608521889e-05
1.579349424e-05
1.546568665e-05
1.51327434e-05
1.484008182e-05
1.465010974e-05
1.616892958e-05
1.600333548e-05
1.575562889e-05
1.543386112e-05
1.505322528e-05
1.463910174e-05
1.422900816e-05
1.387452733e-05
1.364599385e-05
1.550765891e-05
1.530215712e-05
1.500026051e-05
1.461640504e-05
1.417219874e-05
1.369866596e-05
1.323770202e-05
1.284421599e-05
1.259227803e-05
1.467027251e-05
1.443718683e-05
1.409876809e-05
1.367459798e-05
1.319116171e-05
1.268332292e-05
1.219531169e-05
1.17829513e-05
1.152066739e-05
1.370287095e-05
1.345395404e-05
1.309559668e-05
1.265113479e-05
1.215033265e-05
1.163017628e-05
1.113545869e-05
1.072099297e-05
1.045899839e-05
1.265212162e-05
1.239781474e-05
1.203405338e-05
1.158653819e-05
1.108680141e-05
1.057243732e-05
1.008736243e-05
9.683944799e-06
9.430392406e-06
1.156172359e-05
1.131069987e-05
1.095345614e-05
1.051678825e-05
1.003267482e-05
9.538073109e-06
9.074932296e-06
8.692191113e-06
8.452895652e-06
1.046985426e-05
1.022883117e-05
9.887217679e-06
9.471830171e-06
9.014018438e-06
8.549149536e-06
8.116445258e-06
7.760818009e-06
7.539534806e-06
9.407685279e-06
9.181456407e-06
8.861872521e-06
8.474925491e-06
8.050524567e-06
7.621776282e-06
7.224705979e-06
6.899916718e-06
6.698690471e-06
8.398873829e-06
8.190494098e-06
7.896920124e-06
7.542706019e-06
7.155760253e-06
6.76651049e-06
6.407556955e-06
6.115150934e-06
5.93468255e-06
7.45982358e-06
7.270882421e-06
7.005282117e-06
6.685737652e-06
6.337817142e-06
5.989061261e-06
5.668603555e-06
5.408474076e-06
5.248467913e-06
6.600468255e-06
6.431395532e-06
6.194153219e-06
5.90939543e-06
5.600191731e-06
5.291149807e-06
5.008032835e-06
4.778897846e-06
4.638367925e-06
5.825343183e-06
5.675708514e-06
5.466048627e-06
5.214876694e-06
4.942744236e-06
4.671402485e-06
4.423434029e-06
4.223241213e-06
4.100764304e-06
5.134749453e-06
5.003528342e-06
4.819884195e-06
4.600215045e-06
4.362635675e-06
4.126199549e-06
3.91055638e-06
3.736807229e-06
3.630721588e-06
4.525874061e-06
4.411670067e-06
4.251989105e-06
4.061213161e-06
3.855168636e-06
3.650420746e-06
3.46396393e-06
3.313960591e-06
3.222514261e-06
3.993783663e-06
3.895003144e-06
3.75698502e-06
3.592240643e-06
3.414496295e-06
3.238064787e-06
3.077571993e-06
2.948595594e-06
2.870051172e-06
3.53225011e-06
3.447232381e-06
3.328504894e-06
3.186879035e-06
3.03418841e-06
2.882737414e-06
2.745064595e-06
2.634496505e-06
2.56720049e-06
3.134398982e-06
3.061507899e-06
2.959749737e-06
2.838416233e-06
2.707659911e-06
2.57801615e-06
2.460202338e-06
2.365600327e-06
2.308024988e-06
2.793192472e-06
2.730876656e-06
2.643897213e-06
2.540205249e-06
2.428477669e-06
2.317707312e-06
2.217035745e-06
2.136176089e-06
2.086940991e-06
2.501768823e-06
2.44859765e-06
2.374383862e-06
2.285908476e-06
2.190565561e-06
2.096014018e-06
2.010041205e-06
1.940936225e-06
1.898815347e-06
2.253664618e-06
2.208346305e-06
2.145085293e-06
2.069650244e-06
1.988328776e-06
1.907634119e-06
1.834196455e-06
1.775095148e-06
1.739014348e-06
2.042945969e-06
2.004333061e-06
1.950417818e-06
1.886099256e-06
1.81671686e-06
1.747805416e-06
1.685010877e-06
1.634388618e-06
1.603417025e-06
1.86427204e-06
1.831358453e-06
1.785382268e-06
1.730499806e-06
1.671242393e-06
1.612313029e-06
1.558523681e-06
1.515065415e-06
1.488403387e-06
1.712910564e-06
1.68482335e-06
1.645567276e-06
1.598667395e-06
1.547969153e-06
1.497471069e-06
1.451280533e-06
1.413860633e-06
1.390826145e-06
1.584721091e-06
1.560709233e-06
1.527125709e-06
1.486961062e-06
1.443480651e-06
1.400088087e-06
1.360296875e-06
1.32795786e-06
1.307972558e-06
1.476118025e-06
1.455539879e-06
1.426734685e-06
1.392241778e-06
1.354837235e-06
1.31742342e-06
1.283014086e-06
1.254945633e-06
1.237521358e-06
1.384022342e-06
1.366332813e-06
1.34154683e-06
1.311823727e-06
1.279527733e-06
1.247139575e-06
1.217252918e-06
1.192772057e-06
1.177498315e-06
1.305808304e-06
1.290546462e-06
1.269138159e-06
1.24342324e-06
1.215419773e-06
1.187254195e-06
1.161167247e-06
1.139700226e-06
1.126232839e-06
1.239249476e-06
1.226027022e-06
1.207456211e-06
1.185108585e-06
1.160711527e-06
1.13609394e-06
1.113200085e-06
1.094266136e-06
1.082317173e-06
1.182466792e-06
1.170957596e-06
1.154770746e-06
1.135252609e-06
1.113886568e-06
1.092251677e-06
1.072043038e-06
1.055240081e-06
1.044569059e-06
1.133880369e-06
1.123811158e-06
1.109628352e-06
1.092489365e-06
1.073672762e-06
1.054547715e-06
1.036599766e-06
1.021591994e-06
1.011998278e-06
1.092165855e-06
1.083308053e-06
1.070811574e-06
1.055675235e-06
1.039005594e-06
1.021995378e-06
1.005953654e-06
9.924608546e-07
9.837771582e-07
1.056215691e-06
1.048378345e-06
1.037302812e-06
1.023854697e-06
1.008995974e-06
9.937708658e-07
9.793395898e-07
9.671280411e-07
9.592149101e-07
1.025105242e-06
1.018128958e-06
1.008252865e-06
9.962305549e-07
9.829023213e-07
9.691872015e-07
9.561196198e-07
9.449943834e-07
9.377355419e-07
9.980635217e-07
9.918152985e-07
9.829538149e-07
9.72138342e-07
9.601066034e-07
9.476719113e-07
9.357621357e-07
9.255605656e-07
9.188590107e-07
9.744481179e-07
9.688169727e-07
9.608158602e-07
9.510244867e-07
9.400939462e-07
9.287480642e-07
9.178242166e-07
9.084105185e-07
9.021852549e-07
9.537239031e-07
9.486171923e-07
9.413476861e-07
9.324278325e-07
9.224353946e-07
9.12018265e-07
9.019367402e-07
8.931974271e-07
8.873807474e-07
9.354450623e-07
9.307853965e-07
9.241399174e-07
9.159640814e-07
9.0677342e-07
8.971512124e-07
8.877918926e-07
8.796320004e-07
8.741672239e-07
9.192400048e-07
9.149626722e-07
9.088512466e-07
9.013127628e-07
8.92809791e-07
8.83870461e-07
8.75132734e-07
8.674726771e-07
8.623122745e-07
9.047987486e-07
9.008495682e-07
8.951968467e-07
8.882063574e-07
8.802954605e-07
8.719450579e-07
8.637445106e-07
8.565174734e-07
8.516215134e-07
8.91862409e-07
8.881959468e-07
8.829387266e-07
8.764212503e-07
8.690221576e-07
8.611817633e-07
8.534474397e-07
8.465972159e-07
8.419320797e-07
8.802144645e-07
8.767925523e-07
8.71877722e-07
8.657702221e-07
8.588154131e-07
8.514186001e-07
8.440907309e-07
8.375699347e-07
8.331072524e-07
8.696735134e-07
8.664640222e-07
8.618468583e-07
8.560962283e-07
8.49528785e-07
8.425195162e-07
8.355476385e-07
8.293162247e-07
8.250319964e-07
8.600872785e-07
8.57063102e-07
8.527058589e-07
8.472672544e-07
8.410390823e-07
8.343699709e-07
8.277113726e-07
8.217354124e-07
8.176092809e-07
8.513276491e-07
8.484658628e-07
8.443366048e-07
8.391720634e-07
8.3324242e-07
8.26873289e-07
8.20491722e-07
8.147423896e-07
8.107570391e-07
8.432865842e-07
8.405677491e-07
8.366393849e-07
8.317166835e-07
8.260509602e-07
8.199476509e-07
8.138122651e-07
8.082649997e-07
8.044056578e-07
8.358727292e-07
8.33280316e-07
8.295297989e-07
8.24821508e-07
8.193902215e-07
8.13523607e-07
8.076080683e-07
8.022418792e-07
7.984959045e-07
8.290086221e-07
8.265285342e-07
8.229362e-07
8.184189008e-07
8.13196858e-07
8.075420253e-07
8.018237847e-07
7.966206758e-07
7.929772157e-07
8.226283855e-07
8.202485636e-07
8.167975824e-07
8.124512177e-07
8.074168236e-07
8.019523962e-07
7.964120829e-07
7.913565752e-07
7.878062823e-07
8.166758199e-07
8.14385915e-07
8.110618361e-07
8.068691721e-07
8.020038554e-07
7.967114305e-07
7.91332349e-07
7.864110836e-07
7.829458794e-07
8.111028269e-07
8.088939283e-07
8.056843028e-07
8.016304825e-07
7.969182185e-07
7.917819001e-07
7.865496111e-07
7.81751019e-07
7.783638975e-07
8.058681048e-07
8.037325143e-07
8.006265814e-07
7.966987532e-07
7.921256671e-07
7.871316767e-07
7.820336492e-07
7.773476762e-07
7.740325399e-07
8.009360675e-07
7.988671113e-07
7.958555376e-07
7.920425457e-07
7.875965825e-07
7.827329354e-07
7.777582553e-07
7.731761328e-07
7.699276558e-07
7.962759476e-07
7.942678201e-07
7.913424817e-07
7.876346087e-07
7.833052576e-07
7.785614919e-07
7.7370062e-07
7.692146725e-07
7.660281859e-07
7.918610518e-07
7.89908685e-07
7.870624858e-07
7.834512373e-07
7.79229301e-07
7.745962518e-07
7.6984082e-07
7.654443049e-07
7.623157005e-07
7.876681407e-07
7.857670946e-07
7.829938148e-07
7.79471739e-07
7.753491411e-07
7.708187508e-07
7.661613921e-07
7.618483638e-07
7.587740138e-07
7.836769119e-07
7.818232833e-07
7.791174515e-07
7.756779882e-07
7.716476114e-07
7.672127705e-07
7.626469753e-07
7.584121725e-07
7.553888607e-07
7.798695681e-07
7.780599136e-07
7.754167e-07
7.720540536e-07
7.681096034e-07
7.637640162e-07
7.59284012e-07
7.551227612e-07
7.52147626e-07
7.762304553e-07
7.744617263e-07
7.718768528e-07
7.685858851e-07
7.647217749e-07
7.604598469e-07
7.560604961e-07
7.51968631e-07
7.490391165e-07
7.727457587e-07
7.710152474e-07
7.684849112e-07
7.652610509e-07
7.614723055e-07
7.572890472e-07
7.529657609e-07
7.489395534e-07
7.460533683e-07
7.694032479e-07
7.677085404e-07
7.652293497e-07
7.620685163e-07
7.58350689e-07
7.542416352e-07
7.499902998e-07
7.460264018e-07
7.431814841e-07
7.661920598e-07
7.645309974e-07
7.620999169e-07
7.589984552e-07
7.553475583e-07
7.51308699e-07
7.471256139e-07
7.432210077e-07
7.404154946e-07
7.631025172e-07
7.614731627e-07
7.590874669e-07
7.560420917e-07
7.524545371e-07
7.484822585e-07
7.44364083e-07
7.405160385e-07
7.377482413e-07
7.601259723e-07
7.58526582e-07
7.561838156e-07
7.531915646e-07
7.496641126e-07
7.457551469e-07
7.416988545e-07
7.379048934e-07
7.35173275e-07
7.572546756e-07
7.556836744e-07
7.533816184e-07
7.504398118e-07
7.469695278e-07
7.431209101e-07
7.391237496e-07
7.353816136e-07
7.3268477e-07
7.544816624e-07
7.529376233e-07
7.506742657e-07
7.477804712e-07
7.443646882e-07
7.405737195e-07
7.366331814e-07
7.329408057e-07
7.302774497e-07
7.518006559e-07
7.502822819e-07
7.480557928e-07
7.452077958e-07
7.418440822e-07
7.381082975e-07
7.342220849e-07
7.305775751e-07
7.279465223e-07
7.492059839e-07
7.477120927e-07
7.455208026e-07
7.427165805e-07
7.394027122e-07
7.35719853e-07
7.318858567e-07
7.282874687e-07
7.256876253e-07
7.46692507e-07
7.452220173e-07
7.430643984e-07
7.403020983e-07
7.370360348e-07
7.33404025e-07
7.296203021e-07
7.260664248e-07
7.234967776e-07
7.442555557e-07
7.42807476e-07
7.406821259e-07
7.379600451e-07
7.347399087e-07
7.311568342e-07
7.274215892e-07
7.239107298e-07
7.213703367e-07
7.418908761e-07
7.404642943e-07
7.383699223e-07
7.356864915e-07
7.325105491e-07
7.2897464e-07
7.252862086e-07
7.218169795e-07
7.193049621e-07
7.395945819e-07
7.381886567e-07
7.36124071e-07
7.334778402e-07
7.303444877e-07
7.268541026e-07
7.23210938e-07
7.197820459e-07
7.172975828e-07
7.373631115e-07
7.359770648e-07
7.339411625e-07
7.313307878e-07
7.282385366e-07
7.247921495e-07
7.211928102e-07
7.178030466e-07
7.153453678e-07
7.351931895e-07
7.338262998e-07
7.318180571e-07
7.292422901e-07
7.261897553e-07
7.227859442e-07
7.192290839e-07
7.158773174e-07
7.134457e-07
7.330817908e-07
7.317333871e-07
7.297518518e-07
7.272095299e-07
7.241954203e-07
7.208328572e-07
7.173172169e-07
7.140023868e-07
7.115961514e-07
7.310261059e-07
7.296955628e-07
7.277398468e-07
7.252298851e-07
7.222529947e-07
7.18930438e-07
7.154548386e-07
7.121759504e-07
7.097944588e-07
7.290235056e-07
7.277102389e-07
7.25779512e-07
7.23300896e-07
7.203600965e-07
7.170763842e-07
7.136397219e-07
7.103958442e-07
7.080384983e-07
7.270715038e-07
7.257749658e-07
7.238684501e-07
7.214202292e-07
7.185144638e-07
7.15268508e-07
7.118697505e-07
7.086600135e-07
7.063262562e-07
7.251677134e-07
7.238873892e-07
7.220043533e-07
7.195856347e-07
7.167139121e-07
7.135046947e-07
7.101428791e-07
7.06966475e-07
7.046557915e-07
7.233097947e-07
7.220451973e-07
7.201849506e-07
7.177948924e-07
7.149562809e-07
7.117828493e-07
7.084570805e-07
7.053132652e-07
7.03025187e-07
7.21495389e-07
7.20246054e-07
7.18407939e-07
7.160457427e-07
7.132393627e-07
7.101008245e-07
7.068102738e-07
7.036983695e-07
7.014324787e-07
7.197220325e-07
7.184875112e-07
7.16670894e-07
7.143357931e-07
7.11560807e-07
7.084563227e-07
7.052002241e-07
7.02119621e-07
6.998755561e-07
7.179870445e-07
7.167668932e-07
7.149711499e-07
7.126623944e-07
7.099179906e-07
7.068467599e-07
7.036244026e-07
7.005745584e-07
6.983520185e-07
7.162873789e-07
7.150811452e-07
7.133056411e-07
7.110224734e-07
7.083078417e-07
7.052690815e-07
7.020797936e-07
6.990602259e-07
6.968589725e-07
7.14619432e-07
7.134266332e-07
7.116706935e-07
7.094123124e-07
7.067266051e-07
7.037195123e-07
7.005626306e-07
6.975728988e-07
6.953927502e-07
7.129787929e-07
7.117988863e-07
7.100617529e-07
7.078272607e-07
7.051695341e-07
7.021932273e-07
6.99068046e-07
6.96107714e-07
6.939485279e-07
7.113599276e-07
7.101922682e-07
7.084730385e-07
7.062613649e-07
7.036304934e-07
7.006839242e-07
6.975896122e-07
6.946581837e-07
6.925198222e-07
7.097557827e-07
7.085995656e-07
7.068971086e-07
7.047069046e-07
7.021014586e-07
6.991832823e-07
6.961187596e-07
6.932155751e-07
6.910978416e-07
7.081573016e-07
7.070114845e-07
7.053243275e-07
7.031538212e-07
7.005718993e-07
6.976802942e-07
6.94644053e-07
6.917681357e-07
6.896706768e-07
7.065528422e-07
7.054160453e-07
7.037422257e-07
7.015890323e-07
6.990280382e-07
6.961604611e-07
6.931503202e-07
6.903001573e-07
6.882223173e-07
7.04927495e-07
7.03797873e-07
7.021347499e-07
6.99995629e-07
6.974519831e-07
6.946048511e-07
6.916176295e-07
6.887908771e-07
6.867314957e-07
7.032623014e-07
7.021373865e-07
7.004814072e-07
6.983519606e-07
6.958207401e-07
6.929890284e-07
6.900201294e-07
6.872132282e-07
6.851703727e-07
7.015333826e-07
7.004098954e-07
6.987563155e-07
6.966306233e-07
6.941051251e-07
6.912818766e-07
6.883247746e-07
6.855324713e-07
6.835030962e-07
6.997109978e-07
6.985846275e-07
6.969271836e-07
6.947973782e-07
6.922686074e-07
6.894443537e-07
6.864899845e-07
6.837047566e-07
6.816842891e-07
6.977585607e-07
6.966237171e-07
6.949542572e-07
6.928100423e-07
6.902661314e-07
6.874282351e-07
6.844642981e-07
6.816756891e-07
6.796575461e-07
6.95631657e-07
6.944811997e-07
6.927892815e-07
6.906174079e-07
6.88042984e-07
6.851749183e-07
6.8218511e-07
6.793789951e-07
6.773540418e-07
6.932771171e-07
6.921020734e-07
6.903745446e-07
6.881582635e-07
6.855337885e-07
6.826143864e-07
6.795775968e-07
6.767354082e-07
6.746913845e-07
6.906322143e-07
6.894214983e-07
6.876420805e-07
6.853606043e-07
6.826617253e-07
6.7966444e-07
6.765539608e-07
6.7365192e-07
6.715728647e-07
6.876240699e-07
6.863642235e-07
6.845131294e-07
6.821411357e-07
6.793380909e-07
6.76230324e-07
6.73013132e-07
6.700215501e-07
6.678872726e-07
6.841693527e-07
6.828443306e-07
6.8089795e-07
6.784051811e-07
6.754623255e-07
6.722048927e-07
6.688410786e-07
6.657238033e-07
6.635094591e-07
6.801743743e-07
6.78765401e-07
6.766960967e-07
6.740471071e-07
6.709226237e-07
6.67469442e-07
6.639118841e-07
6.606259773e-07
6.583018158e-07
6.755356794e-07
6.740212082e-07
6.717972679e-07
6.689513819e-07
6.655972562e-07
6.618953389e-07
6.580897155e-07
6.545854658e-07
6.521168238e-07
6.701412253e-07
6.684970316e-07
6.660828232e-07
6.629943654e-07
6.593566994e-07
6.553465519e-07
6.512317915e-07
6.474531575e-07
6.448007768e-07
6.638722285e-07
6.620716675e-07
6.594280444e-07
6.560469034e-07
6.520666436e-07
6.476831421e-07
6.431924038e-07
6.390779793e-07
6.361987155e-07
6.566057347e-07
6.546201907e-07
6.517051859e-07
6.479777615e-07
6.435918993e-07
6.387657203e-07
6.338279758e-07
6.293125438e-07
6.2616052e-07
6.482179303e-07
6.460174762e-07
6.427873115e-07
6.386578784e-07
6.338011608e-07
6.284607997e-07
6.230030526e-07
6.180197637e-07
6.145479904e-07
6.385881653e-07
6.361424409e-07
6.325528625e-07
6.279653584e-07
6.225725125e-07
6.166468879e-07
6.105970195e-07
6.050801741e-07
6.012426203e-07
6.276036063e-07
6.24882907e-07
6.208908311e-07
6.157910458e-07
6.097994783e-07
6.03221066e-07
5.965112365e-07
5.903995919e-07
5.8615364e-07
6.151643699e-07
6.121409214e-07
6.077063489e-07
6.02044449e-07
5.953973327e-07
5.88105716e-07