/*--------------------------------*- C++ -*----------------------------------*\
| =========                 |                                                 |
| \\      /  F ield         | OpenFOAM: The Open Source CFD Toolbox           |
|  \\    /   O peration     | Version:  2212                                  |
|   \\  /    A nd           | Website:  www.openfoam.com                      |
|    \\/     M anipulation  |                                                 |
\*---------------------------------------------------------------------------*/
FoamFile
{
    version     2.0;
    format      ascii;
    arch        "LSB;label=32;scalar=64";
    class       volScalarField;
    location    "30.00000000";
    object      CH3CO;
}
// * * * * * * * * * * * * * * * * * * * * * * * * * * * * * * * * * * * * * //

dimensions      [0 0 0 0 0 0 0];

internalField   nonuniform List<scalar> 
3000
(
3.158810796e-43
4.016390847e-43
5.507189905e-43
7.87226687e-43
1.143436842e-42
1.655445503e-42
2.348536272e-42
3.195379881e-42
3.999343953e-42
3.319809234e-42
4.254970544e-42
5.89244587e-42
8.519920994e-42
1.255006294e-41
1.852722421e-41
2.706840847e-41
3.847926986e-41
5.070885103e-41
1.591107228e-41
2.074508058e-41
2.938951354e-41
4.368783604e-41
6.650058158e-41
1.019292595e-40
1.548202282e-40
2.271340953e-40
3.014470251e-40
5.726570821e-41
7.634622052e-41
1.114375161e-40
1.716601552e-40
2.718298658e-40
4.336078166e-40
6.814311926e-40
1.018334186e-39
1.344684394e-39
1.810780998e-40
2.47652143e-40
3.738276206e-40
5.982753958e-40
9.851566577e-40
1.627499354e-39
2.620591898e-39
3.941911682e-39
5.155716359e-39
5.390123852e-40
7.56722346e-40
1.181251049e-39
1.96048383e-39
3.34166237e-39
5.675218572e-39
9.283113217e-39
1.397619248e-38
1.811228373e-38
1.565808076e-39
2.253736864e-39
3.628724865e-39
6.217437414e-39
1.089987722e-38
1.888915656e-38
3.118782509e-38
4.687578486e-38
6.025096163e-38
4.520339782e-39
6.652671743e-39
1.10016872e-38
1.935126733e-38
3.466891745e-38
6.093823328e-38
1.011545265e-37
1.5167057e-37
1.937190067e-37
1.308437849e-38
1.962304528e-38
3.317118618e-38
5.955968906e-38
1.084293618e-37
1.924247954e-37
3.203223673e-37
4.791135476e-37
6.090177024e-37
3.810492467e-38
5.802722061e-38
9.979885643e-38
1.819987951e-37
3.351478996e-37
5.985085731e-37
9.975948525e-37
1.488736551e-36
1.885398182e-36
1.117256987e-37
1.721833887e-37
3.000402403e-37
5.534047846e-37
1.027122473e-36
1.841247589e-36
3.069694894e-36
4.571417824e-36
5.77280368e-36
3.29610797e-37
5.125975043e-37
9.019106007e-37
1.676844293e-36
3.128119831e-36
5.618437851e-36
9.360828151e-36
1.391180378e-35
1.753086631e-35
9.774241902e-37
1.530388645e-36
2.711709403e-36
5.069514486e-36
9.48620789e-36
1.704560634e-35
2.835047081e-35
4.202852232e-35
5.292625294e-35
2.910400225e-36
4.580376764e-36
8.158945188e-36
1.53149592e-35
2.871580017e-35
5.157299307e-35
8.548771908e-35
1.260378381e-34
1.593630024e-34
8.693288618e-36
1.373695933e-35
2.457533738e-35
4.629999528e-35
8.703331824e-35
1.564129025e-34
2.582494516e-34
3.72949162e-34
4.819520734e-34
2.602030364e-35
4.124783834e-35
7.405854667e-35
1.400414213e-34
2.643726371e-34
4.783656296e-34
8.015334314e-34
1.202757245e-33
1.4900651e-33
7.79608021e-35
1.238543244e-34
2.228754343e-34
4.221925832e-34
7.977175587e-34
1.442409072e-33
2.406841093e-33
3.565461049e-33
4.464165516e-33
2.336868959e-34
3.717759726e-34
6.698937946e-34
1.269998873e-33
2.399720919e-33
4.335447871e-33
7.221779107e-33
1.067298965e-32
1.337336035e-32
7.006416408e-34
1.11569688e-33
2.012007014e-33
3.816117907e-33
7.210558349e-33
1.302100744e-32
2.167339994e-32
3.199586503e-32
4.008970222e-32
2.100970794e-33
3.347678484e-33
6.040358798e-33
1.145974145e-32
2.165240189e-32
3.908860123e-32
6.503084401e-32
9.592859026e-32
1.201835651e-31
6.300465623e-33
1.004338707e-32
1.812793368e-32
3.439695114e-32
6.498440183e-32
1.172803699e-31
1.950338997e-31
2.875421655e-31
3.602139854e-31
1.889373634e-32
3.012588698e-32
5.438576032e-32
1.031946709e-31
1.949229335e-31
3.516641519e-31
5.845667191e-31
8.616361856e-31
1.079332747e-30
5.665180859e-32
9.034223404e-32
1.6309726e-31
3.094252742e-31
5.842821125e-31
1.053643076e-30
1.75070534e-30
2.581089798e-30
3.233149562e-30
1.698263354e-31
2.708197253e-31
4.888510441e-31
9.271439458e-31
1.749838363e-30
3.153558572e-30
5.237107018e-30
7.72703934e-30
9.68046632e-30
5.088754687e-31
8.113777695e-31
1.464117859e-30
2.775282598e-30
5.233906204e-30
9.423858426e-30
1.563543997e-29
2.305760729e-29
2.892830516e-29
1.523745361e-30
2.428757056e-30
4.380092776e-30
8.295312533e-30
1.562594975e-29
2.809620645e-29
4.654637626e-29
6.854846456e-29
8.592213112e-29
4.557539829e-30
7.260414152e-30
1.308141683e-29
2.474109286e-29
4.652353595e-29
8.347780101e-29
1.37985428e-28
2.027774162e-28
2.537768029e-28
1.360858358e-29
2.166039365e-29
3.897106295e-29
7.35582051e-29
1.379609263e-28
2.467800897e-28
4.06540774e-28
5.954803966e-28
7.433883294e-28
4.053241664e-29
6.443043026e-29
1.156795563e-28
2.17703741e-28
4.067652051e-28
7.24319422e-28
1.187284998e-27
1.730520628e-27
2.151956927e-27
1.202839289e-28
1.908429951e-28
3.416116222e-28
6.401939029e-28
1.189697983e-27
2.104774511e-27
3.425333087e-27
4.956698398e-27
6.12780602e-27
3.551159624e-28
5.619237389e-28
1.001596858e-27
1.865995563e-27
3.441524654e-27
6.033704501e-27
9.720647561e-27
1.392352843e-26
1.706802565e-26
1.040956574e-27
1.641081646e-27
2.908124379e-27
5.374353127e-27
9.810443848e-27
1.698896009e-26
2.699637873e-26
3.813172634e-26
4.619681785e-26
3.02208285e-27
4.740449042e-27
8.334735532e-27
1.523765799e-26
2.743629584e-26
4.674256589e-26
7.29392655e-26
1.011365759e-25
1.206202437e-25
8.66254845e-27
1.349754877e-26
2.3487311e-26
4.23384321e-26
7.488908599e-26
1.249315183e-25
1.904647277e-25
2.579271254e-25
3.014948765e-25
2.442472047e-26
3.772747619e-26
6.478018504e-26
1.146897373e-25
1.983553391e-25
3.222995036e-25
4.773716622e-25
6.278848504e-25
7.160183304e-25
6.744612031e-26
1.030300261e-25
1.73956746e-25
3.011454124e-25
5.066028966e-25
7.97197541e-25
1.140460187e-24
1.448911939e-24
1.6047451e-24
1.814926326e-25
2.734308121e-25
4.521834568e-25
7.617102973e-25
1.239522332e-24
1.878062147e-24
2.580340034e-24
3.15040107e-24
3.375758922e-24
4.732982202e-25
7.010878049e-25
1.130790641e-24
1.844094302e-24
2.886768753e-24
4.188169295e-24
5.49866481e-24
6.424981944e-24
6.642050944e-24
1.189093116e-24
1.726132467e-24
2.703387857e-24
4.246523127e-24
6.361620729e-24
8.79543742e-24
1.099164025e-23
1.225799036e-23
1.220920169e-23
2.860639988e-24
4.055807458e-24
6.141099012e-24
9.248032361e-24
1.319959226e-23
1.732887873e-23
2.05654893e-23
2.186905524e-23
2.099334183e-23
6.550939921e-24
9.041703999e-24
1.318293249e-23
1.895659337e-23
2.569383805e-23
3.196653237e-23
3.601116525e-23
3.655142349e-23
3.388688331e-23
1.420377814e-23
1.902799522e-23
2.662466221e-23
3.64509406e-23
4.683495169e-23
5.521127864e-23
5.9129964e-23
5.745252698e-23
5.162577405e-23
2.903227344e-23
3.765759212e-23
5.044391072e-23
6.564822051e-23
7.995454475e-23
8.945972367e-23
9.138671355e-23
8.537745115e-23
7.470893169e-23
5.5787584e-23
6.994418075e-23
8.957808496e-23
1.108041892e-22
1.281177919e-22
1.364997764e-22
1.336150436e-22
1.206689446e-22
1.033645645e-22
1.007161362e-22
1.219581687e-22
1.493235911e-22
1.757876984e-22
1.935179045e-22
1.97155369e-22
1.858604302e-22
1.63126533e-22
1.374701679e-22
1.71164958e-22
2.002314239e-22
2.346643551e-22
2.635754938e-22
2.772744913e-22
2.712876823e-22
2.473641367e-22
2.118323095e-22
1.762377728e-22
2.751404338e-22
3.113766406e-22
3.501758649e-22
3.76587216e-22
3.800601623e-22
3.583529678e-22
3.167180462e-22
2.647678433e-22
2.174189773e-22
4.214086969e-22
4.626015897e-22
5.011536413e-22
5.183503416e-22
5.039148382e-22
4.58883723e-22
3.926192431e-22
3.186100647e-22
2.562343838e-22
6.205233709e-22
6.633889574e-22
6.9603304e-22
6.964480291e-22
6.553872403e-22
5.775786166e-22
4.767986895e-22
3.715385458e-22
2.881810762e-22
8.863185954e-22
9.275858918e-22
9.490553731e-22
9.256419259e-22
8.492546942e-22
7.284452262e-22
5.828545734e-22
4.406481714e-22
3.411015347e-22
1.236332834e-21
1.274078937e-21
1.28107678e-21
1.228838667e-21
1.110601156e-21
9.420852556e-22
7.613453757e-22
6.366607208e-22
5.709665165e-22
1.688988308e-21
1.724055347e-21
1.717042592e-21
1.635715059e-21
1.479775578e-21
1.299059889e-21
1.228469485e-21
1.222637359e-21
1.211032487e-21
2.255592211e-21
2.294808818e-21
2.285522601e-21
2.199431298e-21
2.085103767e-21
2.214833642e-21
2.466456396e-21
2.726286529e-21
2.871359266e-21
2.93163161e-21
3.003565286e-21
3.065092961e-21
3.173919177e-21
3.675872234e-21
4.476311204e-21
5.458708642e-21
6.420450188e-21
7.037893596e-21
3.750948895e-21
3.991532419e-21
4.563741357e-21
5.674687924e-21
7.381214923e-21
9.670865677e-21
1.238211083e-20
1.503261887e-20
1.675262006e-20
5.354098019e-21
6.469118872e-21
8.402241312e-21
1.139983829e-20
1.566717334e-20
2.123928765e-20
2.764431056e-20
3.351984392e-20
3.693367646e-20
9.885593417e-21
1.260484098e-20
1.719717341e-20
2.415875767e-20
3.389029901e-20
4.613832926e-20
5.91329248e-20
6.947365868e-20
7.420285439e-20
2.06576425e-20
2.674620404e-20
3.698752301e-20
5.228999694e-20
7.288303586e-20
9.684490927e-20
1.191567438e-19
1.337866695e-19
1.384171676e-19
4.574724356e-20
5.899791988e-20
8.090158335e-20
1.123611082e-19
1.517287835e-19
1.927399614e-19
2.259262391e-19
2.442538461e-19
2.47887205e-19
1.030173426e-19
1.303607446e-19
1.738419547e-19
2.323943677e-19
2.993931802e-19
3.626404848e-19
4.098613601e-19
4.344829305e-19
4.386348545e-19
2.256259045e-19
2.770858762e-19
3.549631524e-19
4.53231196e-19
5.588405927e-19
6.552973685e-19
7.285469701e-19
7.705445843e-19
7.826322659e-19
4.625565036e-19
5.50263509e-19
6.783711511e-19
8.352991512e-19
1.003357051e-18
1.162509268e-18
1.2941571e-18
1.384380813e-18
1.427501356e-18
8.764589671e-19
1.018620454e-18
1.225591233e-18
1.482717762e-18
1.769178767e-18
2.059616025e-18
2.326740979e-18
2.543918376e-18
2.681605902e-18
1.558720995e-18
1.792380702e-18
2.139202724e-18
2.585433803e-18
3.109427241e-18
3.680872033e-18
4.260839425e-18
4.796706997e-18
5.190243135e-18
2.66665297e-18
3.065413259e-18
3.672807174e-18
4.485100292e-18
5.490439371e-18
6.662807847e-18
7.95255505e-18
9.252524961e-18
1.028333015e-17
4.471080432e-18
5.172077064e-18
6.268241576e-18
7.790320877e-18
9.767253087e-18
1.220874508e-17
1.50653868e-17
1.811129685e-17
2.06234835e-17
7.428450075e-18
8.682262598e-18
1.069242277e-17
1.358149476e-17
1.749563576e-17
2.255923123e-17
2.875377543e-17
3.559282007e-17
4.134018888e-17
1.231522242e-17
1.457513316e-17
1.828155131e-17
2.37715665e-17
3.147294995e-17
4.179384204e-17
5.480945691e-17
6.947363784e-17
8.188558504e-17
2.048072565e-17
2.45593118e-17
3.137942208e-17
4.173271284e-17
5.66479803e-17
7.713891737e-17
1.03479029e-16
1.334678991e-16
1.588673715e-16
3.432632236e-17
4.166155576e-17
5.411319969e-17
7.33608574e-17
1.016019178e-16
1.410088571e-16
1.92194e-16
2.506929426e-16
3.000923745e-16
5.818664965e-17
7.12781687e-17
9.372637329e-17
1.288249953e-16
1.808692415e-16
2.540568839e-16
3.494767375e-16
4.584594457e-16
5.500518459e-16
9.987258064e-17
1.229656292e-16
1.627653472e-16
2.253134423e-16
3.184130084e-16
4.495341344e-16
6.202999823e-16
8.146920386e-16
9.773345514e-16
1.732061503e-16
2.133077347e-16
2.824595728e-16
3.911066266e-16
5.525554963e-16
7.792198197e-16
1.073160582e-15
1.406433943e-15
1.684220178e-15
3.018997045e-16
3.702004166e-16
4.876119472e-16
6.712509194e-16
9.42583913e-16
1.321077436e-15
1.809009046e-15
2.358345126e-15
2.811474758e-15
5.250843628e-16
6.388319522e-16
8.332381084e-16
1.135032077e-15
1.577246593e-15
2.189146669e-15
2.969567517e-15
3.837232989e-15
4.546902392e-15
9.047272906e-16
1.089584371e-15
1.403200451e-15
1.885474484e-15
2.585709653e-15
3.54066038e-15
4.740337078e-15
6.056972317e-15
7.123200471e-15
1.535292515e-15
1.828265802e-15
2.321821396e-15
3.07187757e-15
4.142371983e-15
5.579053912e-15
7.356412282e-15
9.280351168e-15
1.082166939e-14
2.557507512e-15
3.010070858e-15
3.762492563e-15
4.888762203e-15
6.469528768e-15
8.557225368e-15
1.109982122e-14
1.381113749e-14
1.595795498e-14
4.1633885e-15
4.838951444e-15
5.948662969e-15
7.584603295e-15
9.845131164e-15
1.277819734e-14
1.629008756e-14
1.9977826e-14
2.286159675e-14
6.600242705e-15
7.576448351e-15
9.161190529e-15
1.146288453e-14
1.458976524e-14
1.857466839e-14
2.326209702e-14
2.810637488e-14
3.184488335e-14
1.017556783e-14
1.154087092e-14
1.373063042e-14
1.686632721e-14
2.105166294e-14
2.628956606e-14
3.233563116e-14
3.848346271e-14
4.316282603e-14
1.524956427e-14
1.709808492e-14
2.002913954e-14
2.415918787e-14
2.957682633e-14
3.623143199e-14
4.377267062e-14
5.131168748e-14
5.696737874e-14
2.221455515e-14
2.463474846e-14
2.842785861e-14
3.369275947e-14
4.047390036e-14
4.864374855e-14
5.773297675e-14
6.666243469e-14
7.326112167e-14
3.14621807e-14
3.452413881e-14
3.926699893e-14
4.574980247e-14
5.395103956e-14
6.364369384e-14
7.422197672e-14
8.442825656e-14
9.185294123e-14
4.3335309e-14
4.707561315e-14
5.280121216e-14
6.050694011e-14
7.008007688e-14
8.117400207e-14
9.304198579e-14
1.042753244e-13
1.123050072e-13
5.806651944e-14
6.247208975e-14
6.913604357e-14
7.796424421e-14
8.872908111e-14
1.009494251e-13
1.137414917e-13
1.255832675e-13
1.338284179e-13
7.570805839e-14
8.070153184e-14
8.816261099e-14
9.788594338e-14
1.095101499e-13
1.2240795e-13
1.35567326e-13
1.474740051e-13
1.556754918e-13
9.605895341e-14
1.014874364e-13
1.09492629e-13
1.197394662e-13
1.317251516e-13
1.446750667e-13
1.576542846e-13
1.69221364e-13
1.770743625e-13
1.185870815e-13
1.24213637e-13
1.323824623e-13
1.42617498e-13
1.543708531e-13
1.668780285e-13
1.791641719e-13
1.899026394e-13
1.970714263e-13
1.423207898e-13
1.478358629e-13
1.557595623e-13
1.655635143e-13
1.766024278e-13
1.880948031e-13
1.991220895e-13
2.085461126e-13
2.147191015e-13
1.662320794e-13
1.71395773e-13
1.787149363e-13
1.876056842e-13
1.973850833e-13
2.072989866e-13
2.165483219e-13
2.242433012e-13
2.291717935e-13
1.892569265e-13
1.937957148e-13
2.001224184e-13
2.07631006e-13
2.156518057e-13
2.235101075e-13
2.305759914e-13
2.362461801e-13
2.397699209e-13
2.101685019e-13
2.138312254e-13
2.188240586e-13
2.245629074e-13
2.304414817e-13
2.35911079e-13
2.405450878e-13
2.440408042e-13
2.460998553e-13
2.277811328e-13
2.303765116e-13
2.337887807e-13
2.375001696e-13
2.41012072e-13
2.439364772e-13
2.460661807e-13
2.473899327e-13
2.480229814e-13
2.411120585e-13
2.425319679e-13
2.442396553e-13
2.458212804e-13
2.469189204e-13
2.473244565e-13
2.470479864e-13
2.46341125e-13
2.456721229e-13
2.495009347e-13
2.497292185e-13
2.497386254e-13
2.492452102e-13
2.480500399e-13
2.4612774e-13
2.436877431e-13
2.412020985e-13
2.394187491e-13
2.526755683e-13
2.517828753e-13
2.502193243e-13
2.478428592e-13
2.446164399e-13
2.406855911e-13
2.364293294e-13
2.324901816e-13
2.298186063e-13
2.507578744e-13
2.488852209e-13
2.459672226e-13
2.420019586e-13
2.371034704e-13
2.315649963e-13
2.258985594e-13
2.208656125e-13
2.175453729e-13
2.442151361e-13
2.415505457e-13
2.375557878e-13
2.323558834e-13
2.261948618e-13
2.194835493e-13
2.128280885e-13
2.070603609e-13
2.033231165e-13
2.337720104e-13
2.305254907e-13
2.257558471e-13
2.196938977e-13
2.12686355e-13
2.052287264e-13
1.979839972e-13
1.918122248e-13
1.878658948e-13
2.203049364e-13
2.166858006e-13
2.114365817e-13
2.048686161e-13
1.974017625e-13
1.895841016e-13
1.821024709e-13
1.758107608e-13
1.718297837e-13
2.047377337e-13
2.009371305e-13
1.954740979e-13
1.887145009e-13
1.811228307e-13
1.732709948e-13
1.65842491e-13
1.596590259e-13
1.557802403e-13
1.879539916e-13
1.84133734e-13
1.78678996e-13
1.719860674e-13
1.64538845e-13
1.569091709e-13
1.497563234e-13
1.438516594e-13
1.401746682e-13
1.70734399e-13
1.670217981e-13
1.617479029e-13
1.553188493e-13
1.48217249e-13
1.409964115e-13
1.342765989e-13
1.287674907e-13
1.253581212e-13
1.537206422e-13
1.502081857e-13
1.452386642e-13
1.392117619e-13
1.325930532e-13
1.259041468e-13
1.197168775e-13
1.146735019e-13
1.115690253e-13
1.374027537e-13
1.341511255e-13
1.295653635e-13
1.240267562e-13
1.179728124e-13
1.118850038e-13
1.062817818e-13
1.017365158e-13
9.895152041e-14
1.221242561e-13
1.191672411e-13
1.150076983e-13
1.100005532e-13
1.045483646e-13
9.908791912e-14
9.408280912e-14
9.003917832e-14
8.75713282e-14
1.0809884e-13
1.054489469e-13
1.017291532e-13
9.726339244e-14
9.2415754e-14
8.7576882e-14
8.315657413e-14
7.95974942e-14
7.743266177e-14
9.543290157e-14
9.308684718e-14
8.979906971e-14
8.586052203e-14
8.15958958e-14
7.735047107e-14
7.348305246e-14
7.03778419e-14
6.849438587e-14
8.414961942e-14
8.209320702e-14
7.921519469e-14
7.577351785e-14
7.205440031e-14
6.836006291e-14
6.50021962e-14
6.231220472e-14
6.068433471e-14
7.421170029e-14
7.242385554e-14
6.992436705e-14
6.69394655e-14
6.371907376e-14
6.052560536e-14
5.762808292e-14
5.531096812e-14
5.391125163e-14
6.554112923e-14
6.399704726e-14
6.18401291e-14
5.92670695e-14
5.649439951e-14
5.374847662e-14
5.126029349e-14
4.927309862e-14
4.807422662e-14
5.803524708e-14
5.670871693e-14
5.485683975e-14
5.264941833e-14
5.027286888e-14
4.792141551e-14
4.57925891e-14
4.409382653e-14
4.306977714e-14
5.157912797e-14
5.044415568e-14
4.886038636e-14
4.697357057e-14
4.494338571e-14
4.293578904e-14
4.111917719e-14
3.967013097e-14
3.879686875e-14
4.605460946e-14
4.508647856e-14
4.373588381e-14
4.212736498e-14
4.039715322e-14
3.868660176e-14
3.713895871e-14
3.590440191e-14
3.516023529e-14
4.134650699e-14
4.052240949e-14
3.937287633e-14
3.800395279e-14
3.65315178e-14
3.507569272e-14
3.375817055e-14
3.270666372e-14
3.207236255e-14
3.734658826e-14
3.664594232e-14
3.566857542e-14
3.450455363e-14
3.325223402e-14
3.201354481e-14
3.089181034e-14
2.999571471e-14
2.945446808e-14
3.395584898e-14
3.336039816e-14
3.252962398e-14
3.153988855e-14
3.047456442e-14
2.942007976e-14
2.846417888e-14
2.769948675e-14
2.723676161e-14
3.108555699e-14
3.057932491e-14
2.987280328e-14
2.903067205e-14
2.812355847e-14
2.722474633e-14
2.640881452e-14
2.575487238e-14
2.535821694e-14
2.865744473e-14
2.822660041e-14
2.762501852e-14
2.690746857e-14
2.613378433e-14
2.536614411e-14
2.466803416e-14
2.410721203e-14
2.37660346e-14
2.66033453e-14
2.623601875e-14
2.572282117e-14
2.511014705e-14
2.444872118e-14
2.379136604e-14
2.319224214e-14
2.270958571e-14
2.24149291e-14
2.486449199e-14
2.455056789e-14
2.411165972e-14
2.358710593e-14
2.301996435e-14
2.245519274e-14
2.193912327e-14
2.152201237e-14
2.126633707e-14
2.339063973e-14
2.31215473e-14
2.274499508e-14
2.229439024e-14
2.180635019e-14
2.131923141e-14
2.087280093e-14
2.051062871e-14
2.028761199e-14
2.213911754e-14
2.190762837e-14
2.158337397e-14
2.11947839e-14
2.077307273e-14
2.035106134e-14
1.99630131e-14
1.964689357e-14
1.945124844e-14
2.107388422e-14
2.087392472e-14
2.059352121e-14
2.025693034e-14
1.989083778e-14
1.952342436e-14
1.918433909e-14
1.890684651e-14
1.87341617e-14
2.016463231e-14
1.999111424e-14
1.974748794e-14
1.945451345e-14
1.913508125e-14
1.881348238e-14
1.851549496e-14
1.827043536e-14
1.811703602e-14
1.938596489e-14
1.923463517e-14
1.902187521e-14
1.87655153e-14
1.848526487e-14
1.820215237e-14
1.793870532e-14
1.772091881e-14
1.758374671e-14
1.871665783e-14
1.858396744e-14
1.83971426e-14
1.817155769e-14
1.792425411e-14
1.767352112e-14
1.743915263e-14
1.72443441e-14
1.712085551e-14
1.813901081e-14
1.802200167e-14
1.785700242e-14
1.765732694e-14
1.743777651e-14
1.721433746e-14
1.700450069e-14
1.682909606e-14
1.671717542e-14
1.763828378e-14
1.753449199e-14
1.738789563e-14
1.721007762e-14
1.701395567e-14
1.681357656e-14
1.662448673e-14
1.646551163e-14
1.636339894e-14
1.720221313e-14
1.710958693e-14
1.697854327e-14
1.681920863e-14
1.664291405e-14
1.646206937e-14
1.629057509e-14
1.61455531e-14
1.605178319e-14
1.682060011e-14
1.673743063e-14
1.661956577e-14
1.647590404e-14
1.631643704e-14
1.615218966e-14
1.599566525e-14
1.586253285e-14
1.577588481e-14
1.648496314e-14
1.640982641e-14
1.630316198e-14
1.617283067e-14
1.602769051e-14
1.587759142e-14
1.573384705e-14
1.561088286e-14
1.553033797e-14
1.618824594e-14
1.611995432e-14
1.60228401e-14
1.590388484e-14
1.577098457e-14
1.563298939e-14
1.550019637e-14
1.538596236e-14
1.531066927e-14
1.59245734e-14
1.586213526e-14
1.577319304e-14
1.566398118e-14
1.554157683e-14
1.541397642e-14
1.529060525e-14
1.518389805e-14
1.511314395e-14
1.568904851e-14
1.563163459e-14
1.554971163e-14
1.544887714e-14
1.533550889e-14
1.521687192e-14
1.510164096e-14
1.500145159e-14
1.493463846e-14
1.547758362e-14
1.542449928e-14
1.534862966e-14
1.525502747e-14
1.514947105e-14
1.50385964e-14
1.493042948e-14
1.48359101e-14
1.4772535e-14
1.528676077e-14
1.523742295e-14
1.516679566e-14
1.507946391e-14
1.498069034e-14
1.487656786e-14
1.477455919e-14
1.468499561e-14
1.462463454e-14
1.511371628e-14
1.506763448e-14
1.5001567e-14
1.491969581e-14
1.48268382e-14
1.472861621e-14
1.463200149e-14
1.454679052e-14
1.448908501e-14
1.495604537e-14
1.491280591e-14
1.485072242e-14
1.477362815e-14
1.468595422e-14
1.459291275e-14
1.450104527e-14
1.441967603e-14
1.436432215e-14
1.481172358e-14
1.477097666e-14
1.471239001e-14
1.4639494e-14
1.455638344e-14
1.446791207e-14
1.438024301e-14
1.430228148e-14
1.424902074e-14
1.467904196e-14
1.464049091e-14
1.45849878e-14
1.451579875e-14
1.443672455e-14
1.435230417e-14
1.426836634e-14
1.419344263e-14
1.414205446e-14
1.455655367e-14
1.451994614e-14
1.446717479e-14
1.440127432e-14
1.432578727e-14
1.424497503e-14
1.416436941e-14
1.409216723e-14
1.40424628e-14
1.444302998e-14
1.440815058e-14
1.435781066e-14
1.429484127e-14
1.422255725e-14
1.414497404e-14
1.406735868e-14
1.399760665e-14
1.394942372e-14
1.433742394e-14
1.430408826e-14
1.425592245e-14
1.419557766e-14
1.412616703e-14
1.405148723e-14
1.397656804e-14
1.390903248e-14
1.386223115e-14
1.423884051e-14
1.420689007e-14
1.416067715e-14
1.410269328e-14
1.403587219e-14
1.396381506e-14
1.389133824e-14
1.382581719e-14
1.37802764e-14
1.414651178e-14
1.411580994e-14
1.407135903e-14
1.40155084e-14
1.395103154e-14
1.388135421e-14
1.381109986e-14
1.374741815e-14
1.370303273e-14
1.40597766e-14
1.403020508e-14
1.398735091e-14
1.393343621e-14
1.387109077e-14
1.380358231e-14
1.373535927e-14
1.367336434e-14
1.36300426e-14
1.397806361e-14
1.39495197e-14
1.390811861e-14
1.385596822e-14
1.379556894e-14
1.37300455e-14
1.366368689e-14
1.360324543e-14
1.35609071e-14
1.390087731e-14
1.387327143e-14
1.383319811e-14
1.378266221e-14
1.372404716e-14
1.366034788e-14
1.359570753e-14
1.353670257e-14
1.349527712e-14
1.382778635e-14
1.380104013e-14
1.376218486e-14
1.371313214e-14
1.365615931e-14
1.359414293e-14
1.353109227e-14
1.347342081e-14
1.343284605e-14
1.37584139e-14
1.37324585e-14
1.369472485e-14
1.364703985e-14
1.359158418e-14
1.353112619e-14
1.346955176e-14
1.341312273e-14
1.337334357e-14
1.369242954e-14
1.366720428e-14
1.363050722e-14
1.358408799e-14
1.353003901e-14
1.347102924e-14
1.341083051e-14
1.335556311e-14
1.33165306e-14
1.362954257e-14
1.360499377e-14
1.3569258e-14
1.352401425e-14
1.347127398e-14
1.34136146e-14
1.335470218e-14
1.330052446e-14
1.326219491e-14
1.35694963e-14
1.354557631e-14
1.351073497e-14
1.346658641e-14
1.341506763e-14
1.335867148e-14
1.33009656e-14
1.324781322e-14
1.321014754e-14
1.351206335e-14
1.348872972e-14
1.345472318e-14
1.34115982e-14
1.336122303e-14
1.330601217e-14
1.324944137e-14
1.319725664e-14
1.316021966e-14
1.345704162e-14
1.34342564e-14
1.340103137e-14
1.335886583e-14
1.330956449e-14
1.325546896e-14
1.319996904e-14
1.314869999e-14
1.311226002e-14
1.340425094e-14
1.338198009e-14
1.334948871e-14
1.330822505e-14
1.325993477e-14
1.32068916e-14
1.315240466e-14
1.310200435e-14
1.306613267e-14
1.335353017e-14
1.333174307e-14
1.329994227e-14
1.325952859e-14
1.321219277e-14
1.316014507e-14
1.310661871e-14
1.305704459e-14
1.302171511e-14
1.330473477e-14
1.328340379e-14
1.325225468e-14
1.321264407e-14
1.316621147e-14
1.311510768e-14
1.306249434e-14
1.30137077e-14
1.297889665e-14
1.325773474e-14
1.323683486e-14
1.320630219e-14
1.316745213e-14
1.312187625e-14
1.307166951e-14
1.301992587e-14
1.297189138e-14
1.2937577e-14
1.321241283e-14
1.319192132e-14
1.316197308e-14
1.312384489e-14
1.307908338e-14
1.302973093e-14
1.297881742e-14
1.293150274e-14
1.289766506e-14
1.316866298e-14
1.314855916e-14
1.311916616e-14
1.308172456e-14
1.303773875e-14
1.298920151e-14
1.293908185e-14
1.289245727e-14
1.285907791e-14
1.312638903e-14
1.3106654e-14
1.307778958e-14
1.30410023e-14
1.299775677e-14
1.294999886e-14
1.290063973e-14
1.285467788e-14
1.282173985e-14
1.308550356e-14
1.306612002e-14
1.303775975e-14
1.300159719e-14
1.295905939e-14
1.291204783e-14
1.28634185e-14
1.281809409e-14
1.278558165e-14
1.304592691e-14
1.302687897e-14
1.299900038e-14
1.296343531e-14
1.292157529e-14
1.287527964e-14
1.282735171e-14
1.278264131e-14
1.275053984e-14
1.300758626e-14
1.298885929e-14
1.29614417e-14
1.292644901e-14
1.288523911e-14
1.283963121e-14
1.279237837e-14
1.274826022e-14
1.271655609e-14
1.297041492e-14
1.295199541e-14
1.292501972e-14
1.28905762e-14
1.284999081e-14
1.280504457e-14
1.275844236e-14
1.271489618e-14
1.268357667e-14
1.293435158e-14
1.291622705e-14
1.288967557e-14
1.28557597e-14
1.281577505e-14
1.277146622e-14
1.272549188e-14
1.268249878e-14
1.265155198e-14
1.289933971e-14
1.288149857e-14
1.285535488e-14
1.282194669e-14
1.27825407e-14
1.273884671e-14
1.269347902e-14
1.265102131e-14
1.262043609e-14
1.286532697e-14
1.284775845e-14
1.282200729e-14
1.278908819e-14
1.275024028e-14
1.270714007e-14
1.26623592e-14
1.262042037e-14
1.259018628e-14
1.283226461e-14
1.281495867e-14
1.278958581e-14
1.275713846e-14
1.271882944e-14
1.267630335e-14
1.263209081e-14
1.259065541e-14
1.256076268e-14
1.280010689e-14
1.278305416e-14
1.275804631e-14
1.272605451e-14
1.268826643e-14
1.264629612e-14
1.260263461e-14
1.256168824e-14
1.253212776e-14
1.276881043e-14
1.275200214e-14
1.272734683e-14
1.269579542e-14
1.265851151e-14
1.261707982e-14
1.257395322e-14
1.253348247e-14
1.250424583e-14
1.27383335e-14
1.272176137e-14
1.26974469e-14
1.266632162e-14
1.262952614e-14
1.258861703e-14
1.254601035e-14
1.250600284e-14
1.24770823e-14
1.270863509e-14
1.269229129e-14
1.266830657e-14
1.263759397e-14
1.26012721e-14
1.256087056e-14
1.251876988e-14
1.247921423e-14
1.24506028e-14
1.267967379e-14
1.266355082e-14
1.263988527e-14
1.260957253e-14
1.257371024e-14
1.253380217e-14
1.249219455e-14
1.245308043e-14
1.242477193e-14
1.265140641e-14
1.263549697e-14
1.261214029e-14
1.2582215e-14
1.254679883e-14
1.250737083e-14
1.246624425e-14
1.24275623e-14
1.239955139e-14
1.262378607e-14
1.260808286e-14
1.258502481e-14
1.255547469e-14
1.252049138e-14
1.248153049e-14
1.244087359e-14
1.240261534e-14
1.237489754e-14
1.259675985e-14
1.258125534e-14
1.255848533e-14
1.252929774e-14
1.249473379e-14
1.245622701e-14
1.241602871e-14
1.237818634e-14
1.235075793e-14
1.257026577e-14
1.255495177e-14
1.253245833e-14
1.250361963e-14
1.246946055e-14
1.243139408e-14
1.239164294e-14
1.235420883e-14
1.232706665e-14
1.254422884e-14
1.252909602e-14
1.250686608e-14
1.247836067e-14
1.244458992e-14
1.240694812e-14
1.236763131e-14
1.233059718e-14
1.23037382e-14
1.251855638e-14
1.250359355e-14
1.248161136e-14
1.24534204e-14
1.242001789e-14
1.238278162e-14
1.234388341e-14
1.230723911e-14
1.228065962e-14
1.249313203e-14
1.247832521e-14
1.245657097e-14
1.242867061e-14
1.239561066e-14
1.235875512e-14
1.232025467e-14
1.228398625e-14
1.225768067e-14
1.24678088e-14
1.245313996e-14
1.243158805e-14
1.240394711e-14
1.237119568e-14
1.23346874e-14
1.229655578e-14
1.226064282e-14
1.223460191e-14
1.244240076e-14
1.242784631e-14
1.240646294e-14
1.237903995e-14
1.234655117e-14
1.231034414e-14
1.227254029e-14
1.223695229e-14
1.221116067e-14
1.241667363e-14
1.240220247e-14
1.238094287e-14
1.235368238e-14
1.232139415e-14
1.228542487e-14
1.224789057e-14
1.221258222e-14
1.218701508e-14
1.239033415e-14
1.237590539e-14
1.23547104e-14
1.232753856e-14
1.22953672e-14
1.225954872e-14
1.222220226e-14
1.218710761e-14
1.216172652e-14
1.23630187e-14
1.234857897e-14
1.232737102e-14
1.230019035e-14
1.226802434e-14
1.223223916e-14
1.219496789e-14
1.215999323e-14
1.21347411e-14
1.233428122e-14
1.231976164e-14
1.229844024e-14
1.227112376e-14
1.223881662e-14
1.220290857e-14
1.216556028e-14
1.213057602e-14
1.210537105e-14
1.230358112e-14
1.228889396e-14
1.226733075e-14
1.223971548e-14
1.220707793e-14
1.217084331e-14
1.213321675e-14
1.209804825e-14
1.207277731e-14
1.227027167e-14
1.225530684e-14
1.223334038e-14
1.220522053e-14
1.217201227e-14
1.213519041e-14
1.209702524e-14
1.206144315e-14
1.203595458e-14
1.223358966e-14
1.221821118e-14
1.219564165e-14
1.216676183e-14
1.213268329e-14
1.209494716e-14
1.205591388e-14
1.201962439e-14
1.199372069e-14
1.219264721e-14
1.217668987e-14
1.215327413e-14
1.212332285e-14
1.208800742e-14
1.204895485e-14
1.200864538e-14
1.197128109e-14
1.194471212e-14
1.214642677e-14
1.212969316e-14
1.210514048e-14
1.207374464e-14
1.20367521e-14
1.199589832e-14
1.19538181e-14
1.191493037e-14
1.188738754e-14
1.20937802e-14
1.207603857e-14
1.205000741e-14
1.201672829e-14
1.197754013e-14
1.193431265e-14
1.188987524e-14
1.184892898e-14
1.182004132e-14
1.203343323e-14
1.201441633e-14
1.198651279e-14
1.195084424e-14
1.190886173e-14
1.186259839e-14
1.181512368e-14
1.177149574e-14
1.174082867e-14
1.196399612e-14
1.194340145e-14
1.191317985e-14
1.187454932e-14
1.182909514e-14
1.177904649e-14
1.172776361e-14
1.168074588e-14
1.16478035e-14
1.188398139e-14
1.186147322e-14
1.182843929e-14
1.17862124e-14
1.173653677e-14
1.168187357e-14
1.16259296e-14
1.157473779e-14
1.153896962e-14
1.17918293e-14
1.17670427e-14
1.173065989e-14
1.168414911e-14
1.162944091e-14
1.15692677e-14
1.150774289e-14
1.145153197e-14
1.141234468e-14
1.168594123e-14
1.165848838e-14
1.161818754e-14
1.15666654e-14
1.150606889e-14
1.143944402e-14
1.137137426e-14
1.13092609e-14
1.126603547e-14
1.15647208e-14
1.153419966e-14
1.148939232e-14
1.143210929e-14
1.136474663e-14
1.129070888e-14
1.121511531e-14
1.114620745e-14
1.109832159e-14
1.142662192e-14
1.139262728e-14
1.134272241e-14
1.127892938e-14
1.120392856e-14
1.112153004e-14
1.10374553e-14
1.096088805e-14
1.090774353e-14
1.127020247e-14
1.123233921e-14
1.117676317e-14
1.110573794e-14