/*--------------------------------*- C++ -*----------------------------------*\
| =========                 |                                                 |
| \\      /  F ield         | OpenFOAM: The Open Source CFD Toolbox           |
|  \\    /   O peration     | Version:  2212                                  |
|   \\  /    A nd           | Website:  www.openfoam.com                      |
|    \\/     M anipulation  |                                                 |
\*---------------------------------------------------------------------------*/
FoamFile
{
    version     2.0;
    format      ascii;
    arch        "LSB;label=32;scalar=64";
    class       volScalarField;
    location    "30.00000000";
    object      CH3CO_0;
}
// * * * * * * * * * * * * * * * * * * * * * * * * * * * * * * * * * * * * * //

dimensions      [0 0 0 0 0 0 0];

internalField   nonuniform List<scalar> 
3000
(
3.158751568e-43
4.0163133e-43
5.507080084e-43
7.872105082e-43
1.14341274e-42
1.65540991e-42
2.348485045e-42
3.195309515e-42
3.999255433e-42
3.319745822e-42
4.254886903e-42
5.89232633e-42
8.519743042e-42
1.254979437e-41
1.852682021e-41
2.706781018e-41
3.847841185e-41
5.070771522e-41
1.591075791e-41
2.07446595e-41
2.93888993e-41
4.368689855e-41
6.649912353e-41
1.01926988e-40
1.548167385e-40
2.271289383e-40
3.014401562e-40
5.726453288e-41
7.63446167e-41
1.114351171e-40
1.716563811e-40
2.718237921e-40
4.335980193e-40
6.814156887e-40
1.018310933e-39
1.344653657e-39
1.810742627e-40
2.476468074e-40
3.738194373e-40
5.982621465e-40
9.851347021e-40
1.627463024e-39
2.620533509e-39
3.941824189e-39
5.155602418e-39
5.390008053e-40
7.567060057e-40
1.181225513e-39
1.960441666e-39
3.341591316e-39
5.675099834e-39
9.282922589e-39
1.397591075e-38
1.811192405e-38
1.565775091e-39
2.253690084e-39
3.628651442e-39
6.217316158e-39
1.089967433e-38
1.888882323e-38
3.118730463e-38
4.687504265e-38
6.025004552e-38
4.52025141e-39
6.652548337e-39
1.100149879e-38
1.935096975e-38
3.46684516e-38
6.093753537e-38
1.011535578e-37
1.516693614e-37
1.937176827e-37
1.308416212e-38
1.962276182e-38
3.317080147e-38
5.955919798e-38
1.084288568e-37
1.92424583e-37
3.203230578e-37
4.791158781e-37
6.090217803e-37
3.810447652e-38
5.802675204e-38
9.979854135e-38
1.819992508e-37
3.351507201e-37
5.98517019e-37
9.976139838e-37
1.488771141e-36
1.885446891e-36
1.117250936e-37
1.721834368e-37
3.000425684e-37
5.534137453e-37
1.027147915e-36
1.841307914e-36
3.069816399e-36
4.571622454e-36
5.773079795e-36
3.296112669e-37
5.126021397e-37
9.019276094e-37
1.676893976e-36
3.128245568e-36
5.618716398e-36
9.361362496e-36
1.391267068e-35
1.753200589e-35
9.774307807e-37
1.530412043e-36
2.711779897e-36
5.069703481e-36
9.486660794e-36
1.70465663e-35
2.835224053e-35
4.203129504e-35
5.292980782e-35
2.910424967e-36
4.580450995e-36
8.159152767e-36
1.531548824e-35
2.871701094e-35
5.157544019e-35
8.549201067e-35
1.260442471e-34
1.593709667e-34
8.69334374e-36
1.37371189e-35
2.457576674e-35
4.630103879e-35
8.703556867e-35
1.564171289e-34
2.582562351e-34
3.729582964e-34
4.819628621e-34
2.602036216e-35
4.12480344e-35
7.405907329e-35
1.400426143e-34
2.643749015e-34
4.783691117e-34
8.015375319e-34
1.202760669e-33
1.490066761e-33
7.796071785e-35
1.238542677e-34
2.228753893e-34
4.221923344e-34
7.977162573e-34
1.442404589e-33
2.406829866e-33
3.565439871e-33
4.464135789e-33
2.336863235e-34
3.71775016e-34
6.698918128e-34
1.269994304e-33
2.399710445e-33
4.335425857e-33
7.221738795e-33
1.067292754e-32
1.337328228e-32
7.006400206e-34
1.115694075e-33
2.012001338e-33
3.816105852e-33
7.210533673e-33
1.302096147e-32
2.167332487e-32
3.199576011e-32
4.008957808e-32
2.100967419e-33
3.347672807e-33
6.040347906e-33
1.145971993e-32
2.165236139e-32
3.908853225e-32
6.503074106e-32
9.592845762e-32
1.201834162e-31
6.300459737e-33
1.004337767e-32
1.812791683e-32
3.439692032e-32
6.498434833e-32
1.172802863e-31
1.950337852e-31
2.875420296e-31
3.602138409e-31
1.889372724e-32
3.012587339e-32
5.43857378e-32
1.031946332e-31
1.949228736e-31
3.516640666e-31
5.845666136e-31
8.616360724e-31
1.079332635e-30
5.665179584e-32
9.034221646e-32
1.630972333e-31
3.09425234e-31
5.842820557e-31
1.053643005e-30
1.750705266e-30
2.581089734e-30
3.233149509e-30
1.698263193e-31
2.708197053e-31
4.888510168e-31
9.271439107e-31
1.749838324e-30
3.153558538e-30
5.237107006e-30
7.727039358e-30
9.680466362e-30
5.088754514e-31
8.113777522e-31
1.464117839e-30
2.775282581e-30
5.233906207e-30
9.423858461e-30
1.563544007e-29
2.305760745e-29
2.892830535e-29
1.523745349e-30
2.428757054e-30
4.380092782e-30
8.295312561e-30
1.562594984e-29
2.809620662e-29
4.654637653e-29
6.854846493e-29
8.592213151e-29
4.557539836e-30
7.260414191e-30
1.308141689e-29
2.474109297e-29
4.652353619e-29
8.347780142e-29
1.379854286e-28
2.02777417e-28
2.537768036e-28
1.360858363e-29
2.166039378e-29
3.897106315e-29
7.355820541e-29
1.379609269e-28
2.467800906e-28
4.065407751e-28
5.95480398e-28
7.433883304e-28
4.053241679e-29
6.443043056e-29
1.156795567e-28
2.177037418e-28
4.067652062e-28
7.243194239e-28
1.187285e-27
1.73052063e-27
2.151956928e-27
1.202839292e-28
1.908429958e-28
3.41611623e-28
6.401939046e-28
1.189697985e-27
2.104774516e-27
3.425333092e-27
4.956698403e-27
6.127806021e-27
3.551159632e-28
5.619237403e-28
1.001596859e-27
1.865995566e-27
3.441524661e-27
6.033704512e-27
9.720647575e-27
1.392352844e-26
1.706802565e-26
1.040956576e-27
1.64108165e-27
2.908124383e-27
5.374353134e-27
9.810443866e-27
1.698896012e-26
2.699637876e-26
3.813172637e-26
4.619681785e-26
3.022082854e-27
4.74044905e-27
8.334735544e-27
1.5237658e-26
2.743629589e-26
4.674256596e-26
7.293926559e-26
1.011365759e-25
1.206202437e-25
8.662548457e-27
1.349754879e-26
2.348731103e-26
4.233843214e-26
7.488908611e-26
1.249315185e-25
1.904647279e-25
2.579271255e-25
3.014948764e-25
2.442472048e-26
3.772747625e-26
6.478018512e-26
1.146897375e-25
1.983553394e-25
3.222995041e-25
4.773716627e-25
6.278848509e-25
7.160183304e-25
6.744612032e-26
1.030300262e-25
1.739567462e-25
3.011454129e-25
5.066028972e-25
7.971975422e-25
1.140460189e-24
1.44891194e-24
1.6047451e-24
1.814926326e-25
2.734308125e-25
4.521834571e-25
7.617102984e-25
1.239522333e-24
1.878062149e-24
2.580340037e-24
3.150401072e-24
3.375758922e-24
4.732982202e-25
7.010878058e-25
1.130790641e-24
1.844094305e-24
2.886768757e-24
4.188169302e-24
5.498664817e-24
6.424981949e-24
6.642050945e-24
1.189093116e-24
1.726132469e-24
2.703387859e-24
4.246523133e-24
6.36162074e-24
8.795437436e-24
1.099164026e-23
1.225799037e-23
1.220920169e-23
2.860639989e-24
4.055807462e-24
6.141099019e-24
9.248032373e-24
1.319959229e-23
1.732887876e-23
2.056548933e-23
2.186905527e-23
2.099334184e-23
6.550939926e-24
9.041704007e-24
1.318293251e-23
1.89565934e-23
2.569383811e-23
3.196653244e-23
3.601116532e-23
3.655142354e-23
3.388688334e-23
1.420377815e-23
1.902799524e-23
2.662466225e-23
3.645094067e-23
4.68349518e-23
5.521127878e-23
5.912996413e-23
5.745252708e-23
5.162577411e-23
2.903227347e-23
3.765759217e-23
5.04439108e-23
6.564822067e-23
7.995454497e-23
8.945972392e-23
9.138671379e-23
8.537745133e-23
7.470893179e-23
5.578758406e-23
6.994418086e-23
8.957808515e-23
1.108041895e-22
1.281177923e-22
1.364997768e-22
1.33615044e-22
1.206689449e-22
1.033645647e-22
1.007161364e-22
1.21958169e-22
1.493235915e-22
1.757876989e-22
1.935179052e-22
1.971553696e-22
1.858604308e-22
1.631265334e-22
1.374701681e-22
1.711649583e-22
2.002314244e-22
2.346643558e-22
2.635754947e-22
2.772744923e-22
2.712876833e-22
2.473641375e-22
2.118323101e-22
1.762377732e-22
2.751404344e-22
3.113766416e-22
3.501758662e-22
3.765872176e-22
3.800601639e-22
3.583529693e-22
3.167180474e-22
2.647678442e-22
2.174189779e-22
4.214086981e-22
4.626015913e-22
5.011536434e-22
5.183503439e-22
5.039148405e-22
4.58883725e-22
3.926192447e-22
3.186100659e-22
2.562343846e-22
6.205233732e-22
6.633889602e-22
6.960330433e-22
6.964480326e-22
6.553872435e-22
5.775786192e-22
4.767986916e-22
3.715385472e-22
2.881810772e-22
8.863185991e-22
9.275858961e-22
9.49055378e-22
9.256419308e-22
8.492546987e-22
7.284452298e-22
5.82854576e-22
4.406481732e-22
3.411015358e-22
1.23633284e-21
1.274078943e-21
1.281076787e-21
1.228838674e-21
1.110601162e-21
9.420852603e-22
7.61345379e-22
6.366607225e-22
5.709665169e-22
1.688988317e-21
1.724055357e-21
1.717042602e-21
1.635715068e-21
1.479775586e-21
1.299059895e-21
1.228469488e-21
1.222637361e-21
1.211032486e-21
2.255592223e-21
2.294808831e-21
2.285522614e-21
2.199431311e-21
2.085103778e-21
2.214833649e-21
2.4664564e-21
2.726286529e-21
2.871359261e-21
2.931631627e-21
3.003565304e-21
3.06509298e-21
3.173919194e-21
3.675872247e-21
4.476311213e-21
5.458708646e-21
6.420450183e-21
7.037893582e-21
3.750948917e-21
3.991532443e-21
4.563741381e-21
5.674687946e-21
7.381214941e-21
9.670865691e-21
1.238211083e-20
1.503261885e-20
1.675262003e-20
5.354098049e-21
6.469118903e-21
8.402241344e-21
1.139983833e-20
1.566717337e-20
2.123928768e-20
2.764431056e-20
3.351984388e-20
3.693367638e-20
9.885593458e-21
1.260484102e-20
1.719717346e-20
2.415875772e-20
3.389029906e-20
4.613832929e-20
5.91329248e-20
6.947365861e-20
7.420285427e-20
2.065764257e-20
2.674620412e-20
3.69875231e-20
5.228999703e-20
7.288303594e-20
9.684490931e-20
1.191567438e-19
1.337866694e-19
1.384171674e-19
4.574724368e-20
5.899792002e-20
8.09015835e-20
1.123611084e-19
1.517287836e-19
1.927399615e-19
2.259262392e-19
2.44253846e-19
2.478872047e-19
1.030173429e-19
1.303607449e-19
1.738419549e-19
2.32394368e-19
2.993931805e-19
3.626404851e-19
4.098613603e-19
4.344829303e-19
4.38634854e-19
2.25625905e-19
2.770858767e-19
3.54963153e-19
4.532311967e-19
5.588405934e-19
6.552973692e-19
7.285469705e-19
7.70544584e-19
7.826322651e-19
4.625565046e-19
5.502635101e-19
6.783711525e-19
8.352991528e-19
1.003357053e-18
1.16250927e-18
1.294157101e-18
1.384380812e-18
1.427501355e-18
8.764589696e-19
1.018620457e-18
1.225591236e-18
1.482717765e-18
1.76917877e-18
2.059616028e-18
2.326740981e-18
2.543918374e-18
2.681605898e-18
1.558721e-18
1.792380707e-18
2.139202731e-18
2.58543381e-18
3.109427247e-18
3.680872038e-18
4.260839427e-18
4.796706992e-18
5.190243126e-18
2.66665298e-18
3.06541327e-18
3.672807186e-18
4.485100304e-18
5.490439382e-18
6.662807855e-18
7.952555051e-18
9.252524949e-18
1.028333013e-17
4.47108045e-18
5.172077083e-18
6.268241596e-18
7.790320897e-18
9.767253104e-18
1.220874509e-17
1.50653868e-17
1.811129682e-17
2.062348345e-17
7.428450105e-18
8.682262629e-18
1.06924228e-17
1.358149479e-17
1.749563578e-17
2.255923124e-17
2.875377541e-17
3.559282e-17
4.134018876e-17
1.231522247e-17
1.45751332e-17
1.828155136e-17
2.377156655e-17
3.147294998e-17
4.179384205e-17
5.480945685e-17
6.947363767e-17
8.188558479e-17
2.048072572e-17
2.455931188e-17
3.137942214e-17
4.17327129e-17
5.664798033e-17
7.713891735e-17
1.034790289e-16
1.334678987e-16
1.58867371e-16
3.432632247e-17
4.166155586e-17
5.411319978e-17
7.336085746e-17
1.016019178e-16
1.410088571e-16
1.921939997e-16
2.506929419e-16
3.000923736e-16
5.81866498e-17
7.127816884e-17
9.372637339e-17
1.288249954e-16
1.808692415e-16
2.540568837e-16
3.494767369e-16
4.584594444e-16
5.500518442e-16
9.987258084e-17
1.229656293e-16
1.627653473e-16
2.253134423e-16
3.184130082e-16
4.49534134e-16
6.202999812e-16
8.146920365e-16
9.773345485e-16
1.732061505e-16
2.133077348e-16
2.824595728e-16
3.911066265e-16
5.525554959e-16
7.792198188e-16
1.07316058e-15
1.40643394e-15
1.684220173e-15
3.018997048e-16
3.702004166e-16
4.876119471e-16
6.71250919e-16
9.425839121e-16
1.321077434e-15
1.809009042e-15
2.35834512e-15
2.81147475e-15
5.25084363e-16
6.388319521e-16
8.332381079e-16
1.135032077e-15
1.577246591e-15
2.189146667e-15
2.969567512e-15
3.837232979e-15
4.54690238e-15
9.047272907e-16
1.089584371e-15
1.40320045e-15
1.885474483e-15
2.585709651e-15
3.540660375e-15
4.740337069e-15
6.056972302e-15
7.123200453e-15
1.535292515e-15
1.828265801e-15
2.321821394e-15
3.071877567e-15
4.142371978e-15
5.579053905e-15
7.356412269e-15
9.280351146e-15
1.082166936e-14
2.557507511e-15
3.010070856e-15
3.762492559e-15
4.888762198e-15
6.469528761e-15
8.557225357e-15
1.109982121e-14
1.381113746e-14
1.595795494e-14
4.163388498e-15
4.838951441e-15
5.948662964e-15
7.584603287e-15
9.845131153e-15
1.277819732e-14
1.629008753e-14
1.997782595e-14
2.286159671e-14
6.600242703e-15
7.576448345e-15
9.161190521e-15
1.146288452e-14
1.458976522e-14
1.857466837e-14
2.326209698e-14
2.810637482e-14
3.184488329e-14
1.017556783e-14
1.154087091e-14
1.373063041e-14
1.686632719e-14
2.105166292e-14
2.628956603e-14
3.233563112e-14
3.848346264e-14
4.316282595e-14
1.524956426e-14
1.709808491e-14
2.002913952e-14
2.415918785e-14
2.95768263e-14
3.623143195e-14
4.377267057e-14
5.13116874e-14
5.696737864e-14
2.221455514e-14
2.463474845e-14
2.842785859e-14
3.369275944e-14
4.047390033e-14
4.86437485e-14
5.773297668e-14
6.666243459e-14
7.326112156e-14
3.146218069e-14
3.452413879e-14
3.926699891e-14
4.574980243e-14
5.395103952e-14
6.364369379e-14
7.422197664e-14
8.442825645e-14
9.185294111e-14
4.333530899e-14
4.707561312e-14
5.280121212e-14
6.050694007e-14
7.008007682e-14
8.117400201e-14
9.30419857e-14
1.042753243e-13
1.12305007e-13
5.806651942e-14
6.247208971e-14
6.913604352e-14
7.796424416e-14
8.872908107e-14
1.00949425e-13
1.137414916e-13
1.255832674e-13
1.338284177e-13
7.570805836e-14
8.070153178e-14
8.816261094e-14
9.788594345e-14
1.095101514e-13
1.224079498e-13
1.355673258e-13
1.47474005e-13
1.556754917e-13
9.605895336e-14
1.014874363e-13
1.094926291e-13
1.197394696e-13
1.317252095e-13
1.446750696e-13
1.576542846e-13
1.692213639e-13
1.770743623e-13
1.185870815e-13
1.242136369e-13
1.323824622e-13
1.426174977e-13
1.543708553e-13
1.668780286e-13
1.791641717e-13
1.899026392e-13
1.970714261e-13
1.423207898e-13
1.478358628e-13
1.557595622e-13
1.655635141e-13
1.766024277e-13
1.880948029e-13
1.991220894e-13
2.085461124e-13
2.147191014e-13
1.662320792e-13
1.713957729e-13
1.787149361e-13
1.876056841e-13
1.973850831e-13
2.072989864e-13
2.165483218e-13
2.24243301e-13
2.291717933e-13
1.892569264e-13
1.937957146e-13
2.001224183e-13
2.076310058e-13
2.156518056e-13
2.235101073e-13
2.305759912e-13
2.362461799e-13
2.397699207e-13
2.101685017e-13
2.138312252e-13
2.188240585e-13
2.245629072e-13
2.304414816e-13
2.359110788e-13
2.405450877e-13
2.44040804e-13
2.460998551e-13
2.277811326e-13
2.303765114e-13
2.337887805e-13
2.375001694e-13
2.410120718e-13
2.43936477e-13
2.460661805e-13
2.473899325e-13
2.480229812e-13
2.411120583e-13
2.425319677e-13
2.44239655e-13
2.458212801e-13
2.469189202e-13
2.473244564e-13
2.470479862e-13
2.463411248e-13
2.456721228e-13
2.495009345e-13
2.497292183e-13
2.497386252e-13
2.4924521e-13
2.480500397e-13
2.461277398e-13
2.436877429e-13
2.412020983e-13
2.39418749e-13
2.52675568e-13
2.517828751e-13
2.502193241e-13
2.47842859e-13
2.446164397e-13
2.406855909e-13
2.364293293e-13
2.324901815e-13
2.298186061e-13
2.507578741e-13
2.488852206e-13
2.459672224e-13
2.420019584e-13
2.371034702e-13
2.315649961e-13
2.258985593e-13
2.208656124e-13
2.175453728e-13
2.442151358e-13
2.415505455e-13
2.375557875e-13
2.323558831e-13
2.261948616e-13
2.194835491e-13
2.128280883e-13
2.070603608e-13
2.033231165e-13
2.337720101e-13
2.305254904e-13
2.257558469e-13
2.196938974e-13
2.126863548e-13
2.052287262e-13
1.97983997e-13
1.918122248e-13
1.878658947e-13
2.203049361e-13
2.166858003e-13
2.114365814e-13
2.048686159e-13
1.974017623e-13
1.895841015e-13
1.821024708e-13
1.758107607e-13
1.718297837e-13
2.047377335e-13
2.009371303e-13
1.954740977e-13
1.887145007e-13
1.811228306e-13
1.732709947e-13
1.658424909e-13
1.596590258e-13
1.557802403e-13
1.879539914e-13
1.841337338e-13
1.786789958e-13
1.719860672e-13
1.645388449e-13
1.569091708e-13
1.497563233e-13
1.438516593e-13
1.401746682e-13
1.707343988e-13
1.670217979e-13
1.617479028e-13
1.553188492e-13
1.482172489e-13
1.409964114e-13
1.342765988e-13
1.287674907e-13
1.253581212e-13
1.53720642e-13
1.502081855e-13
1.452386641e-13
1.392117617e-13
1.325930531e-13
1.259041467e-13
1.197168774e-13
1.146735018e-13
1.115690253e-13
1.374027536e-13
1.341511254e-13
1.295653634e-13
1.240267561e-13
1.179728123e-13
1.118850038e-13
1.062817817e-13
1.017365157e-13
9.895152041e-14
1.221242559e-13
1.19167241e-13
1.150076981e-13
1.100005531e-13
1.045483646e-13
9.908791905e-14
9.408280908e-14
9.003917831e-14
8.75713282e-14
1.080988399e-13
1.054489468e-13
1.017291531e-13
9.726339235e-14
9.241575393e-14
8.757688194e-14
8.315657409e-14
7.959749419e-14
7.743266177e-14
9.543290146e-14
9.308684708e-14
8.979906963e-14
8.586052195e-14
8.159589574e-14
7.735047102e-14
7.348305243e-14
7.037784189e-14
6.849438587e-14
8.414961933e-14
8.209320694e-14
7.921519462e-14
7.577351778e-14
7.205440026e-14
6.836006287e-14
6.500219618e-14
6.231220471e-14
6.068433471e-14
7.421170021e-14
7.242385547e-14
6.992436699e-14
6.693946545e-14
6.371907372e-14
6.052560533e-14
5.762808289e-14
5.531096812e-14
5.391125163e-14
6.554112915e-14
6.39970472e-14
6.184012904e-14
5.926706945e-14
5.649439947e-14
5.374847659e-14
5.126029347e-14
4.927309862e-14
4.807422662e-14
5.803524702e-14
5.670871688e-14
5.485683971e-14
5.264941829e-14
5.027286885e-14
4.792141549e-14
4.579258908e-14
4.409382653e-14
4.306977715e-14
5.157912792e-14
5.044415564e-14
4.886038632e-14
4.697357054e-14
4.494338568e-14
4.293578902e-14
4.111917718e-14
3.967013097e-14
3.879686875e-14
4.605460942e-14
4.508647853e-14
4.373588378e-14
4.212736495e-14
4.03971532e-14
3.868660175e-14
3.713895871e-14
3.590440192e-14
3.516023529e-14
4.134650696e-14
4.052240946e-14
3.937287631e-14
3.800395277e-14
3.653151778e-14
3.507569271e-14
3.375817055e-14
3.270666372e-14
3.207236256e-14
3.734658823e-14
3.66459423e-14
3.56685754e-14
3.450455362e-14
3.325223401e-14
3.20135448e-14
3.089181034e-14
2.999571471e-14
2.945446809e-14
3.395584896e-14
3.336039815e-14
3.252962396e-14
3.153988854e-14
3.047456441e-14
2.942007975e-14
2.846417888e-14
2.769948676e-14
2.723676161e-14
3.108555697e-14
3.05793249e-14
2.987280327e-14
2.903067204e-14
2.812355846e-14
2.722474633e-14
2.640881452e-14
2.575487238e-14
2.535821695e-14
2.865744472e-14
2.82266004e-14
2.762501851e-14
2.690746856e-14
2.613378432e-14
2.536614411e-14
2.466803416e-14
2.410721204e-14
2.37660346e-14
2.660334529e-14
2.623601874e-14
2.572282116e-14
2.511014705e-14
2.444872117e-14
2.379136604e-14
2.319224214e-14
2.270958571e-14
2.24149291e-14
2.486449199e-14
2.455056788e-14
2.411165972e-14
2.358710592e-14
2.301996434e-14
2.245519273e-14
2.193912327e-14
2.152201238e-14
2.126633708e-14
2.339063972e-14
2.31215473e-14
2.274499507e-14
2.229439024e-14
2.180635019e-14
2.131923141e-14
2.087280093e-14
2.051062871e-14
2.028761199e-14
2.213911753e-14
2.190762837e-14
2.158337397e-14
2.11947839e-14
2.077307272e-14
2.035106134e-14
1.99630131e-14
1.964689357e-14
1.945124844e-14
2.107388422e-14
2.087392471e-14
2.059352121e-14
2.025693034e-14
1.989083778e-14
1.952342436e-14
1.918433909e-14
1.890684651e-14
1.87341617e-14
2.01646323e-14
1.999111424e-14
1.974748793e-14
1.945451345e-14
1.913508125e-14
1.881348238e-14
1.851549496e-14
1.827043536e-14
1.811703602e-14
1.938596488e-14
1.923463517e-14
1.902187521e-14
1.87655153e-14
1.848526486e-14
1.820215237e-14
1.793870532e-14
1.772091881e-14
1.758374671e-14
1.871665782e-14
1.858396743e-14
1.83971426e-14
1.817155769e-14
1.79242541e-14
1.767352112e-14
1.743915263e-14
1.72443441e-14
1.712085551e-14
1.81390108e-14
1.802200166e-14
1.785700242e-14
1.765732694e-14
1.743777651e-14
1.721433746e-14
1.700450069e-14
1.682909606e-14
1.671717542e-14
1.763828378e-14
1.753449199e-14
1.738789563e-14
1.721007762e-14
1.701395567e-14
1.681357656e-14
1.662448673e-14
1.646551163e-14
1.636339894e-14
1.720221313e-14
1.710958692e-14
1.697854327e-14
1.681920863e-14
1.664291405e-14
1.646206937e-14
1.629057509e-14
1.61455531e-14
1.605178319e-14
1.68206001e-14
1.673743063e-14
1.661956577e-14
1.647590404e-14
1.631643704e-14
1.615218966e-14
1.599566525e-14
1.586253285e-14
1.577588481e-14
1.648496314e-14
1.640982641e-14
1.630316198e-14
1.617283067e-14
1.602769051e-14
1.587759142e-14
1.573384705e-14
1.561088286e-14
1.553033797e-14
1.618824594e-14
1.611995432e-14
1.60228401e-14
1.590388483e-14
1.577098457e-14
1.563298939e-14
1.550019637e-14
1.538596236e-14
1.531066927e-14
1.59245734e-14
1.586213526e-14
1.577319304e-14
1.566398118e-14
1.554157683e-14
1.541397642e-14
1.529060525e-14
1.518389805e-14
1.511314395e-14
1.568904851e-14
1.563163459e-14
1.554971163e-14
1.544887714e-14
1.533550889e-14
1.521687192e-14
1.510164096e-14
1.500145159e-14
1.493463846e-14
1.547758361e-14
1.542449927e-14
1.534862966e-14
1.525502747e-14
1.514947105e-14
1.50385964e-14
1.493042948e-14
1.48359101e-14
1.4772535e-14
1.528676077e-14
1.523742295e-14
1.516679566e-14
1.507946391e-14
1.498069034e-14
1.487656786e-14
1.477455919e-14
1.468499562e-14
1.462463454e-14
1.511371628e-14
1.506763448e-14
1.5001567e-14
1.49196958e-14
1.48268382e-14
1.472861621e-14
1.463200149e-14
1.454679052e-14
1.448908501e-14
1.495604537e-14
1.491280591e-14
1.485072242e-14
1.477362815e-14
1.468595422e-14
1.459291275e-14
1.450104527e-14
1.441967603e-14
1.436432215e-14
1.481172358e-14
1.477097666e-14
1.471239001e-14
1.4639494e-14
1.455638345e-14
1.446791207e-14
1.438024301e-14
1.430228148e-14
1.424902074e-14
1.467904196e-14
1.464049091e-14
1.45849878e-14
1.451579875e-14
1.443672455e-14
1.435230417e-14
1.426836635e-14
1.419344263e-14
1.414205447e-14
1.455655367e-14
1.451994614e-14
1.446717479e-14
1.440127432e-14
1.432578728e-14
1.424497503e-14
1.416436941e-14
1.409216723e-14
1.40424628e-14
1.444302998e-14
1.440815058e-14
1.435781066e-14
1.429484128e-14
1.422255725e-14
1.414497404e-14
1.406735868e-14
1.399760665e-14
1.394942372e-14
1.433742394e-14
1.430408826e-14
1.425592245e-14
1.419557766e-14
1.412616703e-14
1.405148723e-14
1.397656804e-14
1.390903248e-14
1.386223115e-14
1.423884051e-14
1.420689007e-14
1.416067715e-14
1.410269328e-14
1.403587219e-14
1.396381506e-14
1.389133824e-14
1.382581719e-14
1.37802764e-14
1.414651178e-14
1.411580994e-14
1.407135903e-14
1.40155084e-14
1.395103154e-14
1.388135421e-14
1.381109986e-14
1.374741815e-14
1.370303273e-14
1.40597766e-14
1.403020508e-14
1.398735091e-14
1.393343621e-14
1.387109077e-14
1.380358231e-14
1.373535927e-14
1.367336434e-14
1.36300426e-14
1.397806361e-14
1.39495197e-14
1.390811861e-14
1.385596822e-14
1.379556894e-14
1.37300455e-14
1.366368689e-14
1.360324543e-14
1.35609071e-14
1.390087731e-14
1.387327143e-14
1.383319811e-14
1.378266221e-14
1.372404716e-14
1.366034788e-14
1.359570753e-14
1.353670257e-14
1.349527713e-14
1.382778635e-14
1.380104013e-14
1.376218486e-14
1.371313214e-14
1.365615931e-14
1.359414293e-14
1.353109227e-14
1.347342081e-14
1.343284605e-14
1.37584139e-14
1.37324585e-14
1.369472485e-14
1.364703985e-14
1.359158418e-14
1.353112619e-14
1.346955176e-14
1.341312273e-14
1.337334357e-14
1.369242954e-14
1.366720429e-14
1.363050722e-14
1.358408799e-14
1.353003901e-14
1.347102924e-14
1.341083051e-14
1.335556311e-14
1.33165306e-14
1.362954257e-14
1.360499377e-14
1.3569258e-14
1.352401425e-14
1.347127398e-14
1.34136146e-14
1.335470218e-14
1.330052446e-14
1.326219491e-14
1.35694963e-14
1.354557631e-14
1.351073497e-14
1.346658641e-14
1.341506763e-14
1.335867149e-14
1.33009656e-14
1.324781323e-14
1.321014754e-14
1.351206335e-14
1.348872972e-14
1.345472319e-14
1.34115982e-14
1.336122303e-14
1.330601217e-14
1.324944137e-14
1.319725664e-14
1.316021967e-14
1.345704162e-14
1.34342564e-14
1.340103137e-14
1.335886583e-14
1.330956449e-14
1.325546896e-14
1.319996904e-14
1.314869999e-14
1.311226002e-14
1.340425094e-14
1.338198009e-14
1.334948871e-14
1.330822505e-14
1.325993477e-14
1.32068916e-14
1.315240466e-14
1.310200435e-14
1.306613267e-14
1.335353017e-14
1.333174307e-14
1.329994227e-14
1.325952859e-14
1.321219277e-14
1.316014507e-14
1.310661871e-14
1.305704459e-14
1.302171511e-14
1.330473477e-14
1.328340379e-14
1.325225468e-14
1.321264407e-14
1.316621147e-14
1.311510768e-14
1.306249434e-14
1.30137077e-14
1.297889665e-14
1.325773474e-14
1.323683486e-14
1.320630219e-14
1.316745213e-14
1.312187625e-14
1.307166951e-14
1.301992587e-14
1.297189138e-14
1.2937577e-14
1.321241283e-14
1.319192132e-14
1.316197308e-14
1.312384489e-14
1.307908338e-14
1.302973093e-14
1.297881742e-14
1.293150274e-14
1.289766506e-14
1.316866298e-14
1.314855916e-14
1.311916616e-14
1.308172456e-14
1.303773875e-14
1.298920151e-14
1.293908185e-14
1.289245727e-14
1.285907791e-14
1.312638903e-14
1.3106654e-14
1.307778958e-14
1.30410023e-14
1.299775677e-14
1.294999886e-14
1.290063973e-14
1.285467788e-14
1.282173985e-14
1.308550356e-14
1.306612002e-14
1.303775975e-14
1.300159719e-14
1.295905939e-14
1.291204783e-14
1.28634185e-14
1.281809409e-14
1.278558165e-14
1.304592691e-14
1.302687897e-14
1.299900038e-14
1.296343531e-14
1.292157529e-14
1.287527964e-14
1.282735171e-14
1.278264131e-14
1.275053984e-14
1.300758626e-14
1.298885929e-14
1.29614417e-14
1.292644901e-14
1.288523911e-14
1.283963121e-14
1.279237837e-14
1.274826022e-14
1.271655609e-14
1.297041492e-14
1.295199541e-14
1.292501973e-14
1.28905762e-14
1.284999081e-14
1.280504457e-14
1.275844236e-14
1.271489618e-14
1.268357667e-14
1.293435158e-14
1.291622705e-14
1.288967557e-14
1.28557597e-14
1.281577505e-14
1.277146622e-14
1.272549188e-14
1.268249878e-14
1.265155199e-14
1.289933971e-14
1.288149857e-14
1.285535488e-14
1.282194669e-14
1.27825407e-14
1.273884671e-14
1.269347902e-14
1.265102131e-14
1.262043609e-14
1.286532697e-14
1.284775845e-14
1.282200729e-14
1.278908819e-14
1.275024028e-14
1.270714007e-14
1.26623592e-14
1.262042037e-14
1.259018628e-14
1.283226461e-14
1.281495867e-14
1.278958581e-14
1.275713846e-14
1.271882944e-14
1.267630336e-14
1.263209081e-14
1.259065541e-14
1.256076268e-14
1.280010689e-14
1.278305416e-14
1.275804631e-14
1.272605451e-14
1.268826643e-14
1.264629612e-14
1.260263461e-14
1.256168824e-14
1.253212777e-14
1.276881043e-14
1.275200214e-14
1.272734683e-14
1.269579542e-14
1.265851151e-14
1.261707982e-14
1.257395322e-14
1.253348247e-14
1.250424583e-14
1.27383335e-14
1.272176137e-14
1.26974469e-14
1.266632162e-14
1.262952614e-14
1.258861703e-14
1.254601035e-14
1.250600284e-14
1.24770823e-14
1.270863509e-14
1.269229129e-14
1.266830658e-14
1.263759397e-14
1.26012721e-14
1.256087056e-14
1.251876988e-14
1.247921423e-14
1.24506028e-14
1.267967379e-14
1.266355082e-14
1.263988527e-14
1.260957253e-14
1.257371024e-14
1.253380217e-14
1.249219455e-14
1.245308043e-14
1.242477193e-14
1.265140641e-14
1.263549697e-14
1.261214029e-14
1.2582215e-14
1.254679883e-14
1.250737083e-14
1.246624425e-14
1.24275623e-14
1.239955139e-14
1.262378607e-14
1.260808286e-14
1.258502481e-14
1.255547469e-14
1.252049138e-14
1.248153049e-14
1.244087359e-14
1.240261534e-14
1.237489754e-14
1.259675986e-14
1.258125534e-14
1.255848533e-14
1.252929774e-14
1.249473379e-14
1.245622701e-14
1.241602871e-14
1.237818634e-14
1.235075793e-14
1.257026577e-14
1.255495177e-14
1.253245833e-14
1.250361963e-14
1.246946055e-14
1.243139409e-14
1.239164294e-14
1.235420883e-14
1.232706665e-14
1.254422884e-14
1.252909602e-14
1.250686608e-14
1.247836067e-14
1.244458993e-14
1.240694812e-14
1.236763131e-14
1.233059718e-14
1.23037382e-14
1.251855638e-14
1.250359355e-14
1.248161136e-14
1.24534204e-14
1.242001789e-14
1.238278162e-14
1.234388341e-14
1.230723911e-14
1.228065962e-14
1.249313203e-14
1.247832521e-14
1.245657097e-14
1.242867061e-14
1.239561066e-14
1.235875512e-14
1.232025467e-14
1.228398625e-14
1.225768067e-14
1.24678088e-14
1.245313996e-14
1.243158805e-14
1.240394711e-14
1.237119568e-14
1.23346874e-14
1.229655578e-14
1.226064282e-14
1.223460191e-14
1.244240076e-14
1.242784631e-14
1.240646294e-14
1.237903995e-14
1.234655117e-14
1.231034414e-14
1.227254029e-14
1.223695229e-14
1.221116067e-14
1.241667363e-14
1.240220247e-14
1.238094287e-14
1.235368238e-14
1.232139415e-14
1.228542487e-14
1.224789058e-14
1.221258222e-14
1.218701508e-14
1.239033415e-14
1.237590539e-14
1.23547104e-14
1.232753856e-14
1.22953672e-14
1.225954872e-14
1.222220226e-14
1.218710761e-14
1.216172653e-14
1.23630187e-14
1.234857897e-14
1.232737102e-14
1.230019035e-14
1.226802434e-14
1.223223916e-14
1.219496789e-14
1.215999324e-14
1.21347411e-14
1.233428122e-14
1.231976164e-14
1.229844024e-14
1.227112376e-14
1.223881662e-14
1.220290857e-14
1.216556028e-14
1.213057602e-14
1.210537105e-14
1.230358112e-14
1.228889396e-14
1.226733075e-14
1.223971548e-14
1.220707793e-14
1.217084331e-14
1.213321675e-14
1.209804825e-14
1.207277731e-14
1.227027167e-14
1.225530684e-14
1.223334038e-14
1.220522053e-14
1.217201227e-14
1.213519041e-14
1.209702524e-14
1.206144315e-14
1.203595458e-14
1.223358966e-14
1.221821118e-14
1.219564165e-14
1.216676183e-14
1.213268329e-14
1.209494716e-14
1.205591388e-14
1.201962439e-14
1.199372069e-14
1.219264721e-14
1.217668987e-14
1.215327413e-14
1.212332285e-14
1.208800742e-14
1.204895485e-14
1.200864538e-14
1.197128109e-14
1.194471212e-14
1.214642677e-14
1.212969316e-14
1.210514048e-14
1.207374464e-14
1.20367521e-14
1.199589832e-14
1.19538181e-14
1.191493037e-14
1.188738754e-14
1.20937802e-14
1.207603857e-14
1.205000741e-14
1.201672829e-14
1.197754013e-14
1.193431265e-14
1.188987524e-14
1.184892898e-14
1.182004132e-14
1.203343323e-14
1.201441633e-14
1.198651279e-14
1.195084424e-14
1.190886173e-14
1.186259839e-14
1.181512368e-14
1.177149574e-14
1.174082867e-14
1.196399612e-14
1.194340145e-14
1.191317985e-14
1.187454932e-14
1.182909515e-14
1.177904649e-14
1.172776362e-14
1.168074589e-14
1.16478035e-14
1.188398139e-14
1.186147322e-14
1.182843929e-14
1.17862124e-14
1.173653678e-14
1.168187357e-14
1.16259296e-14
1.157473779e-14
1.153896962e-14
1.17918293e-14
1.17670427e-14
1.173065989e-14
1.168414911e-14
1.162944091e-14
1.15692677e-14
1.150774289e-14
1.145153197e-14
1.141234468e-14
1.168594123e-14
1.165848838e-14
1.161818754e-14
1.15666654e-14
1.150606889e-14
1.143944402e-14
1.137137426e-14
1.130926091e-14
1.126603547e-14
1.15647208e-14
1.153419966e-14
1.148939232e-14
1.143210929e-14
1.136474663e-14
1.129070888e-14
1.121511531e-14
1.114620745e-14
1.109832159e-14
1.142662192e-14
1.139262729e-14
1.134272241e-14
1.127892938e-14
1.120392857e-14
1.112153004e-14
1.10374553e-14
1.096088805e-14
1.090774354e-14
1.127020247e-14
1.123233921e-14
1.117676318e-14