/*--------------------------------*- C++ -*----------------------------------*\
| =========                 |                                                 |
| \\      /  F ield         | OpenFOAM: The Open Source CFD Toolbox           |
|  \\    /   O peration     | Version:  2212                                  |
|   \\  /    A nd           | Website:  www.openfoam.com                      |
|    \\/     M anipulation  |                                                 |
\*---------------------------------------------------------------------------*/
FoamFile
{
    version     2.0;
    format      ascii;
    arch        "LSB;label=32;scalar=64";
    class       volScalarField;
    location    "30.00000000";
    object      CH4;
}
// * * * * * * * * * * * * * * * * * * * * * * * * * * * * * * * * * * * * * //

dimensions      [0 0 0 0 0 0 0];

internalField   nonuniform List<scalar> 
3000
(
0.0004199879352
0.0004199879352
0.0004199879352
0.0004199879352
0.0004199879352
0.0004199879352
0.0004199879352
0.0004199879352
0.0004199879352
0.0004199879352
0.0004199879352
0.0004199879352
0.0004199879352
0.0004199879352
0.0004199879352
0.0004199879352
0.0004199879352
0.0004199879352
0.0004199879352
0.0004199879352
0.0004199879352
0.0004199879352
0.0004199879352
0.0004199879352
0.0004199879352
0.0004199879352
0.0004199879352
0.0004199879352
0.0004199879352
0.0004199879352
0.0004199879352
0.0004199879352
0.0004199879352
0.0004199879352
0.0004199879352
0.0004199879352
0.0004199879352
0.0004199879352
0.0004199879352
0.0004199879352
0.0004199879352
0.0004199879352
0.0004199879352
0.0004199879352
0.0004199879352
0.0004199879352
0.0004199879352
0.0004199879352
0.0004199879352
0.0004199879352
0.0004199879352
0.0004199879352
0.0004199879352
0.0004199879352
0.0004199879352
0.0004199879352
0.0004199879352
0.0004199879352
0.0004199879352
0.0004199879352
0.0004199879352
0.0004199879352
0.0004199879352
0.0004199879352
0.0004199879352
0.0004199879352
0.0004199879352
0.0004199879352
0.0004199879352
0.0004199879352
0.0004199879352
0.0004199879352
0.0004199879352
0.0004199879352
0.0004199879352
0.0004199879352
0.0004199879352
0.0004199879352
0.0004199879352
0.0004199879352
0.0004199879352
0.0004199879352
0.0004199879352
0.0004199879352
0.0004199879352
0.0004199879352
0.0004199879352
0.0004199879352
0.0004199879352
0.0004199879352
0.0004199879352
0.0004199879352
0.0004199879352
0.0004199879352
0.0004199879352
0.0004199879352
0.0004199879352
0.0004199879352
0.0004199879352
0.0004199879352
0.0004199879352
0.0004199879352
0.0004199879352
0.0004199879352
0.0004199879352
0.0004199879352
0.0004199879352
0.0004199879352
0.0004199879352
0.0004199879352
0.0004199879352
0.0004199879352
0.0004199879352
0.0004199879352
0.0004199879352
0.0004199879352
0.0004199879352
0.0004199879352
0.0004199879352
0.0004199879352
0.0004199879352
0.0004199879352
0.0004199879352
0.0004199879352
0.0004199879352
0.0004199879352
0.0004199879352
0.0004199879352
0.0004199879352
0.0004199879352
0.0004199879352
0.0004199879352
0.0004199879352
0.0004199879352
0.0004199879352
0.0004199879352
0.0004199879352
0.0004199879352
0.0004199879352
0.0004199879352
0.0004199879352
0.0004199879352
0.0004199879352
0.0004199879352
0.0004199879352
0.0004199879352
0.0004199879352
0.0004199879352
0.0004199879352
0.0004199879352
0.0004199879352
0.0004199879352
0.0004199879352
0.0004199879352
0.0004199879352
0.0004199879352
0.0004199879352
0.0004199879352
0.0004199879352
0.0004199879352
0.0004199879352
0.0004199879352
0.0004199879352
0.0004199879352
0.0004199879352
0.0004199879352
0.0004199879352
0.0004199879352
0.0004199879352
0.0004199879352
0.0004199879352
0.0004199879352
0.0004199879352
0.0004199879352
0.0004199879352
0.0004199879352
0.0004199879352
0.0004199879352
0.0004199879352
0.0004199879352
0.0004199879352
0.0004199879352
0.0004199879352
0.0004199879352
0.0004199879352
0.0004199879352
0.0004199879352
0.0004199879352
0.0004199879352
0.0004199879352
0.0004199879352
0.0004199879352
0.0004199879352
0.0004199879352
0.0004199879352
0.0004199879352
0.0004199879352
0.0004199879352
0.0004199879352
0.0004199879352
0.0004199879352
0.0004199879352
0.0004199879352
0.0004199879352
0.0004199879352
0.0004199879352
0.0004199879352
0.0004199879352
0.0004199879352
0.0004199879352
0.0004199879352
0.0004199879352
0.0004199879352
0.0004199879352
0.0004199879352
0.0004199879352
0.0004199879352
0.0004199879352
0.0004199879352
0.0004199879352
0.0004199879352
0.0004199879352
0.0004199879352
0.0004199879352
0.0004199879352
0.0004199879352
0.0004199879352
0.0004199879352
0.0004199879352
0.0004199879352
0.0004199879352
0.0004199879352
0.0004199879352
0.0004199879352
0.0004199879352
0.0004199879352
0.0004199879352
0.0004199879352
0.0004199879352
0.0004199879352
0.0004199879352
0.0004199879352
0.0004199879352
0.0004199879352
0.0004199879352
0.0004199879352
0.0004199879352
0.0004199879352
0.0004199879352
0.0004199879353
0.0004199879353
0.0004199879353
0.0004199879352
0.0004199879352
0.0004199879352
0.0004199879352
0.0004199879353
0.0004199879353
0.0004199879353
0.0004199879353
0.0004199879353
0.0004199879352
0.0004199879352
0.0004199879353
0.0004199879353
0.0004199879353
0.0004199879353
0.0004199879354
0.0004199879354
0.0004199879354
0.0004199879353
0.0004199879353
0.0004199879353
0.0004199879353
0.0004199879354
0.0004199879354
0.0004199879355
0.0004199879356
0.0004199879356
0.0004199879353
0.0004199879353
0.0004199879354
0.0004199879354
0.0004199879355
0.0004199879356
0.0004199879357
0.0004199879358
0.0004199879359
0.0004199879354
0.0004199879354
0.0004199879355
0.0004199879356
0.0004199879357
0.0004199879359
0.0004199879361
0.0004199879363
0.0004199879364
0.0004199879355
0.0004199879355
0.0004199879357
0.0004199879358
0.0004199879361
0.0004199879364
0.0004199879367
0.000419987937
0.0004199879372
0.0004199879357
0.0004199879358
0.000419987936
0.0004199879363
0.0004199879367
0.0004199879372
0.0004199879378
0.0004199879383
0.0004199879387
0.000419987936
0.0004199879362
0.0004199879366
0.0004199879371
0.0004199879378
0.0004199879386
0.0004199879396
0.0004199879405
0.0004199879412
0.0004199879366
0.000419987937
0.0004199879376
0.0004199879384
0.0004199879396
0.0004199879411
0.0004199879428
0.0004199879443
0.0004199879454
0.0004199879376
0.0004199879382
0.0004199879393
0.0004199879408
0.0004199879428
0.0004199879453
0.000419987948
0.0004199879506
0.0004199879524
0.0004199879394
0.0004199879404
0.0004199879422
0.0004199879447
0.0004199879481
0.0004199879523
0.0004199879569
0.0004199879612
0.000419987964
0.0004199879423
0.0004199879441
0.0004199879471
0.0004199879514
0.000419987957
0.000419987964
0.0004199879716
0.0004199879787
0.0004199879833
0.0004199879474
0.0004199879504
0.0004199879554
0.0004199879625
0.000419987972
0.0004199879834
0.0004199879959
0.0004199880073
0.0004199880148
0.0004199879559
0.000419987961
0.0004199879692
0.0004199879811
0.0004199879966
0.0004199880153
0.0004199880354
0.0004199880538
0.0004199880656
0.0004199879702
0.0004199879786
0.0004199879923
0.0004199880117
0.000419988037
0.0004199880672
0.0004199880993
0.0004199881284
0.000419988147
0.000419987994
0.0004199880079
0.0004199880302
0.0004199880618
0.0004199881025
0.0004199881506
0.0004199882014
0.0004199882468
0.0004199882757
0.0004199880333
0.0004199880561
0.0004199880922
0.0004199881429
0.0004199882077
0.0004199882835
0.0004199883627
0.0004199884329
0.0004199884772
0.0004199880981
0.0004199881346
0.0004199881925
0.0004199882729
0.0004199883749
0.0004199884928
0.0004199886149
0.000419988722
0.0004199887892
0.0004199882035
0.0004199882617
0.0004199883533
0.0004199884794
0.0004199886377
0.0004199888191
0.0004199890049
0.0004199891666
0.0004199892673
0.0004199883738
0.0004199884654
0.0004199886084
0.0004199888037
0.0004199890466
0.0004199893222
0.000419989602
0.0004199898435
0.0004199899929
0.0004199886464
0.0004199887888
0.0004199890094
0.0004199893082
0.0004199896765
0.0004199900904
0.0004199905071
0.000419990864
0.0004199910836
0.0004199890787
0.000419989297
0.0004199896333
0.000419990085
0.0004199906369
0.0004199912519
0.0004199918662
0.0004199923889
0.0004199927087
0.0004199897574
0.0004199900882
0.0004199905946
0.0004199912697
0.0004199920877
0.0004199929922
0.0004199938893
0.0004199946479
0.0004199951099
0.0004199908125
0.0004199913079
0.0004199920616
0.0004199930595
0.0004199942596
0.0004199955772
0.0004199968758
0.0004199979682
0.0004199986305
0.0004199924369
0.0004199931702
0.0004199942798
0.0004199957394
0.0004199974833
0.0004199993859
0.0004200012506
0.0004200028119
0.0004200037554
0.0004199949133
0.000419995987
0.0004199976038
0.0004199997183
0.0004200022298
0.0004200049548
0.0004200076126
0.0004200098296
0.0004200111653
0.0004199986524
0.0004200002087
0.0004200025419
0.0004200055779
0.0004200091654
0.0004200130393
0.0004200168026
0.0004200199314
0.0004200218119
0.000420004245
0.0004200064797
0.0004200098172
0.0004200141409
0.0004200192272
0.0004200246974
0.0004200299932
0.000420034384
0.0004200370178
0.0004200125346
0.0004200157161
0.0004200204519
0.0004200265637
0.0004200337261
0.0004200414023
0.0004200488118
0.000420054941
0.0004200586112
0.0004200247169
0.000420029211
0.0004200358818
0.0004200444626
0.0004200544854
0.0004200651951
0.0004200755063
0.0004200840183
0.0004200891081
0.0004200424741
0.0004200487777
0.0004200581115
0.000420070084
0.0004200840286
0.0004200988901
0.0004201131667
0.000420124932
0.0004201319588
0.0004200681585
0.0004200769432
0.0004200899237
0.0004201065329
0.0004201258304
0.0004201463502
0.0004201660254
0.0004201822169
0.0004201918792
0.0004201050365
0.0004201172071
0.000420135158
0.0004201580784
0.0004201846522
0.0004202128557
0.0004202398574
0.0004202620547
0.0004202752929
0.0004201576141
0.0004201743845
0.0004201990815
0.0004202305594
0.0004202669904
0.0004203055971
0.0004203425154
0.0004203728413
0.0004203909204
0.0004202320651
0.0004202550601
0.0004202888805
0.0004203319237
0.0004203816703
0.0004204343258
0.000420484635
0.0004205259391
0.0004205505585
0.0004203367967
0.0004203681869
0.0004204143073
0.0004204729371
0.0004205406246
0.0004206122078
0.0004206805614
0.0004207366641
0.0004207701044
0.0004204831888
0.000420525867
0.0004205885222
0.0004206681015
0.0004207599026
0.0004208569308
0.0004209495522
0.0004210255699
0.0004210708893
0.0004206865442
0.0004207443536
0.0004208291717
0.0004209368324
0.0004210609631
0.0004211921222
0.0004213173191
0.0004214200943
0.0004214813901
0.0004209672938
0.0004210453205
0.0004211597534
0.0004213049454
0.0004214723051
0.000421649136
0.0004218179692
0.0004219566327
0.0004220393847
0.0004213525044
0.0004214574478
0.0004216113161
0.0004218065042
0.0004220314887
0.0004222692622
0.0004224964003
0.0004226830927
0.0004227946058
0.0004218777391
0.0004220183725
0.0004222245444
0.0004224860764
0.0004227875907
0.0004231063974
0.0004234111831
0.0004236619561
0.0004238119144
0.0004225893144
0.0004227770485
0.0004230522674
0.0004234014301
0.000423804119
0.0004242301905
0.0004246379307
0.0004249738355
0.0004251749719
0.0004235469904
0.0004237965427
0.0004241624099
0.0004246266784
0.0004251623752
0.0004257296325
0.0004262731017
0.0004267214539
0.0004269903259
0.0004248271013
0.0004251572687
0.0004256413708
0.0004262558333
0.0004269651992
0.0004277169891
0.0004284381028
0.000429033882
0.0004293917389
0.0004265260927
0.0004269606045
0.00042759775
0.0004284066546
0.0004293409351
0.0004303318619
0.0004312834156
0.0004320707105
0.000432544377
0.0004287643624
0.0004293327697
0.0004301662626
0.0004312245825
0.000432447343
0.0004337450285
0.0004349923034
0.0004360255085
0.0004366479286
0.0004316902086
0.0004324287334
0.000433511565
0.0004348864187
0.0004364750623
0.0004381615972
0.0004397834912
0.0004411279765
0.0004419385891
0.0004354835699
0.0004364358011
0.0004378315892
0.0004396032895
0.0004416500647
0.0004438226858
0.0004459120755
0.0004476445051
0.0004486895379
0.000440359113
0.000441576398
0.0004433598516
0.0004456222545
0.0004482341549
0.0004510048794
0.000453668066
0.0004558755788
0.0004572072131
0.0004465680765
0.0004481093754
0.0004503658005
0.0004532253647
0.0004565229938
0.000460017008
0.0004633716602
0.0004661498773
0.0004678249219
0.0004543976461
0.0004563285412
0.0004591523766
0.0004627261375
0.0004668406809
0.0004711928604
0.000475364425
0.0004788140314
0.0004808916734
0.0004641675117
0.0004665585117
0.0004700505814
0.0004744622419
0.0004795309421
0.0004848803426
0.0004899961661
0.0004942178317
0.0004967564324
0.000476222991
0.0004791467285
0.0004834100075
0.0004887842908
0.0004949433458
0.0005014254213
0.0005076071301
0.0005126949532
0.0005157479997
0.0004909235973
0.0004944508428
0.0004995843901
0.0005060395541
0.0005134152112
0.0005211523165
0.0005285062607
0.000534539951
0.0005381513686
0.0005086267693
0.0005128214798
0.0005189133281
0.000526551513
0.0005352492995
0.0005443393925
0.0005529463414
0.0005599828074
0.0005641820159
0.0005296666318
0.0005345800947
0.0005416987257
0.000550595896
0.0005606890443
0.0005711937641
0.0005810981083
0.0005891630623
0.0005939601773
0.0005543284864
0.0005599930871
0.000568178617
0.0005783737577
0.0005898917892
0.0006018255284
0.0006130255502
0.0006221060849
0.0006274875825
0.0005828203667
0.0005892436249
0.0005984996047
0.0006099852574
0.000622904272
0.0006362252566
0.0006486659162
0.0006587053871
0.0006646307452
0.0006152438336
0.0006224035025
0.0006326904815
0.000645405842
0.0006596422936
0.0006742479993
0.0006878188526
0.0006987189
0.0007051296698
0.0006515670258
0.0006594081285
0.0006706402117
0.0006844682649
0.0006998779723
0.0007156070329
0.0007301505126
0.0007417808606
0.000748596952
0.0006916037692
0.0007000384467
0.0007120840679
0.000726854174
0.0007432390968
0.0007598846339
0.0007752026581
0.0007873996087
0.0007945228972
0.0007350039235
0.0007439153556
0.0007566053234
0.0007721076076
0.000789229281
0.0008065421057
0.0008224006424
0.0008349751828
0.0008422944658
0.0007812714772
0.0007905228445
0.0008036600407
0.0008196499137
0.0008372349635
0.000854936041
0.0008710783816
0.0008838270811
0.0008912245012
0.0008297808923
0.0008392189582
0.0008525851931
0.0008687966018
0.0008865529023
0.0009043498038
0.0009205118891
0.0009332289712
0.0009405869073
0.0008797970305
0.0008892614296
0.0009026308885
0.0009187925293
0.0009364270834
0.0009540316141
0.0009699576292
0.0009824467879
0.0009896543966
0.0009305155563
0.0009398488939
0.0009530022271
0.0009688541221
0.0009860905239
0.001003235296
0.00101869175
0.001030776431
0.001037735168
0.0009811109182
0.0009901682891
0.001002905568
0.001018213877
0.001034807331
0.001051259446
0.001066046305
0.001077577498
0.001084205152
0.001030785893
0.001039442675
0.001051593731
0.001066162167
0.001081910551
0.001097481156
0.001111439154
0.001122300186
0.001128533207
0.00107881673
0.001086973883
0.001098405076
0.001112081968
0.00112683217
0.001141381363
0.001154395241
0.001164503509
0.001170297671
0.001124588938
0.001132175494
0.0011427926
0.001155473415
0.001169122919
0.001182560207
0.001194558208
0.001203864217
0.001209193831
0.001167620584
0.001174593489
0.00118434099
0.001195966773
0.00120846116
0.001220742207
0.001231692575
0.00124017687
0.001245032917
0.001207572147
0.001213913948
0.001222771488
0.001233324176
0.00124465158
0.001255772325
0.001265677755
0.001273346483
0.001277734054
0.001244244026
0.001249959099
0.00125793605
0.00126743179
0.001277615523
0.00128760479
0.001296495795
0.001303375591
0.001307311012
0.001277564194
0.00128267422
0.001289803349
0.001298284934
0.001307375397
0.001316287035
0.001324215069
0.001330347862
0.001333855808
0.001307569245
0.001312108565
0.001318439606
0.001325968952
0.001334035737
0.001341941086
0.001348972053
0.001354410223
0.001357521048
0.00133438209
0.001338393395
0.00134398715
0.001350638452
0.001357763249
0.001364744458
0.001370953011
0.001375755162
0.001378502578
0.00135818913
0.001361719758
0.001366643061
0.001372497012
0.001378767666
0.001384912128
0.001390376961
0.001394604445
0.001397023608
0.001379218952
0.001382317921
0.001386639623
0.001391778821
0.00139728465
0.001402680641
0.001407480804
0.001411195013
0.001413321036
0.001397723862
0.001400439642
0.001404227602
0.001408733126
0.001413561418
0.001418294887
0.001422507097
0.001425767464
0.001427634308
0.001413964827
0.001416343767
0.001419662742
0.001423611778
0.001427845427
0.001431997774
0.00143569453
0.001438557149
0.001440196856
0.001428199967
0.001430285294
0.001433195604
0.001436659933
0.00144037589
0.00144402256
0.001447270972
0.001449787728
0.001451229939
0.001440676303
0.001442507554
0.001445064324
0.001448109478
0.001451377916
0.00145458764
0.001457448799
0.001459666906
0.0014609386
0.001451624292
0.001453237074
0.001455489921
0.001458174842
0.001461058838
0.001463893356
0.001466422113
0.001468383957
0.001469509357
0.001461254634
0.00146268061
0.001464673646
0.001467050716
0.001469606295
0.001472120422
0.001474365462
0.001476108656
0.001477109265
0.001469756825
0.001471023868
0.001472795909
0.001474911208
0.001477187642
0.00147942957
0.001481433679
0.001482991278
0.001483885994
0.001477298999
0.001478431432
0.001480016347
0.00148191007
0.001483950325
0.001485962064
0.001487762533
0.001489163338
0.001489968626
0.001484028658
0.001485047554
0.001486474678
0.001488181632
0.001490022902
0.001491840809
0.001493469898
0.001494738817
0.001495468915
0.001490073974
0.00149099747
0.001492292053
0.00149384219
0.001495516472
0.001497171808
0.001498657245
0.001499815682
0.001500482822
0.001495545412
0.001496389041
0.001497572695
0.001498991646
0.001500526309
0.001502045805
0.001503411289
0.001504477526
0.001505092155
0.00150053752
0.001501314513
0.001502405651
0.001503715241
0.001505133582
0.00150653998
0.001507805661
0.001508795239
0.00150936623
0.001505130733
0.001505852316
0.001506866552
0.001508085287
0.001509407049
0.001510719611
0.001511902548
0.001512828612
0.001513363469
0.001509393124
0.001510068785
0.001511019312
0.001512162818
0.001513404668
0.001514639642
0.001515754215
0.001516627841
0.001517132884
0.001513382044
0.001514019772
0.001514917698
0.001515999128
0.001517175081
0.001518346126
0.001519404416
0.001520234904
0.001520715434
0.001517145622
0.001517752126
0.001518606772
0.001519637158
0.001520758967
0.00152187753
0.001522889652
0.001523684783
0.001524145235
0.00152072411
0.001521305005
0.001522124172
0.001523112744
0.001524190235
0.001525265878
0.00152624028
0.001527006548
0.00152745062
0.001524151073
0.001524711049
0.00152550125
0.001526455709
0.001527497076
0.00152853777
0.001529481488
0.001530224297
0.001530655067
0.001527454431
0.001527997394
0.001528764055
0.001529690811
0.001530702875
0.001531715248
0.001532634129
0.00153335797
0.001533777992
0.001530657356
0.001531186556
0.001531934184
0.001532838567
0.001533826989
0.001534816545
0.00153571544
0.001536424037
0.001536835429
0.001533779046
0.001534297179
0.001535029518
0.001535915947
0.001536885425
0.001537856722
0.001538739652
0.001539436086
0.0015398406
0.001536835385
0.001537344687
0.001538064838
0.001538936974
0.001539891396
0.00154084821
0.001541718498
0.001542405319
0.001542804404
0.001539839497
0.001540341819
0.001541052348
0.001541913221
0.001542855803
0.001543801255
0.001544661649
0.001545340963
0.001545735814
0.001542802218
0.00154329909
0.001544002119
0.001544854234
0.001545787634
0.001546724301
0.001547577071
0.001548250616
0.001548642223
0.001545732486
0.001546225174
0.001546922457
0.001547767882
0.001548694295
0.001549624307
0.001550471325
0.001551140538
0.001551529714
0.001548637674
0.001549127222
0.001549820208
0.00155066065
0.001551581889
0.001552507003
0.001553349816
0.001554015879
0.001554403297
0.00155152386
0.001552011131
0.001552701015
0.001553537887
0.001554455447
0.001555377112
0.001556216996
0.001556880887
0.001557267101
0.001554396058
0.001554881764
0.001555569533
0.001556403997
0.001557319114
0.001558238528
0.001559076534
0.001559739059
0.001560124528
0.0015572584
0.00155774313
0.001558429599
0.001559262616
0.001560176308
0.001561094458
0.001561931456
0.001562593281
0.001562978381
0.001560114297
0.001560598535
0.001561284378
0.001562116742
0.001563029851
0.001563947552
0.001564784259
0.001565445932
0.001565830977
0.001562966563
0.001563450711
0.001564136482
0.001564968848
0.001565882069
0.001566799995
0.001567637004
0.00156829898
0.001568684226
0.001565817522
0.00156630191
0.001566988069
0.001567820978
0.001568734884
0.001569653592
0.001570491392
0.001571154045
0.001571539706
0.001568669092
0.001569153994
0.00156984092
0.001570674819
0.001571589885
0.001572509835
0.001573348831
0.00157401247
0.001574398722
0.001571522859
0.001572008502
0.001572696507
0.001573531766
0.001574448384
0.001575369955
0.00157621048
0.001576875363
0.001577262351
0.001574380133
0.001574866703
0.001575556048
0.001576392971
0.001577311465
0.00157823497
0.001579077301
0.001579743639
0.001580131482
0.001577241998
0.001577729649
0.001578420546
0.001579259386
0.001580180022
0.00158110572
0.001581950085
0.001582618052
0.001583006851
0.001580109346
0.001580598205
0.001581290831
0.001582131795
0.001583054793
0.001583982899
0.001584829485
0.001585499225
0.00158588906
0.001582982915
0.001583473088
0.001584167586
0.001585010846
0.001585936387
0.001586867075
0.001587716037
0.001588387667
0.001588778606
0.001585863312
0.001586354883
0.001587051375
0.001587897069
0.001588825302
0.001589758716
0.001590610179
0.001591283797
0.001591675895
0.001588751035
0.001589244075
0.001589942656
0.001590790899
0.001591721946
0.001592658202
0.001593512269
0.001594187952
0.001594581254
0.00159164649
0.001592141056
0.001592841805
0.001593692691
0.001594626647
0.001595565841
0.001596422594
0.001597100407
0.001597494947
0.001594550007
0.001595046145
0.001595749125
0.001596602727
0.001597539673
0.00159848188
0.001599341386
0.001600021378
0.001600417186
0.001597461851
0.001597959598
0.00159866486
0.001599521237
0.001600461234
0.001601406513
0.001602268824
0.001602951035
0.001603348132
0.001600382233
0.001600881616
0.001601589199
0.001602448398
0.001603391494
0.00160433989
0.001605205046
0.001605889506
0.001606287909
0.001603311316
0.001603812358
0.001604522292
0.001605384345
0.001606330576
0.001607282125
0.001608150154
0.001608836884
0.001609236607
0.001606249224
0.00160675194
0.001607464246
0.00160832918
0.001609278571
0.001610233296
0.001611104219
0.001611793234
0.001612194284
0.001609196046
0.001609700447
0.00161041514
0.001611282971
0.001612235539
0.001613193454
0.001614067283
0.001614758593
0.001615160975
0.001612151843
0.001612657935
0.001613375023
0.001614245759
0.001615201513
0.001616162626
0.001617039367
0.001617732975
0.001618136691
0.001615116648
0.001615624434
0.00161634392
0.001617217565
0.001618176506
0.001619140819
0.001620020471
0.001620716376
0.001621121424
0.001618090474
0.001618599953
0.001619321836
0.001620198386
0.00162116051
0.001622128017
0.001623010575
0.001623708772
0.00162411515
0.001621073313
0.001621584481
0.001622308755
0.001623188203
0.001624153501
0.001625124191
0.001626009645
0.001626710126
0.001627117828
0.00162406514
0.001624577991
0.001625304646
0.00162618698
0.001627155439
0.001628129298
0.001629017633
0.001629720385
0.001630129405
0.001627065916
0.001627580442
0.001628309466
0.00162919467
0.00163016627
0.001631143279
0.001632034478
0.001632739487
0.001633149815
0.001630075588
0.001630591778
0.001631323154
0.001632211209
0.001633185929
0.001634166065
0.001635060106
0.001635767355
0.001636178981
0.001633094091
0.001633611932
0.001634345643
0.001635236526
0.001636214341
0.001637197578
0.001638094437
0.001638803906
0.001639216819
0.001636121349
0.001636640826
0.001637376852
0.001638270538
0.001639251419
0.001640237728
0.001641137378
0.001641849045
0.001642263233
0.001639157276
0.001639678374
0.001640416692
0.001641313152
0.001642297068
0.001643286418
0.001644188829
0.001644902672
0.001645318119
0.001642201778
0.00164272448
0.001643465064
0.00164436427
0.001645351187
0.001646343542
0.001647248684
0.001647964676
0.001648381369
0.001645254753
0.00164577904
0.001646521865
0.001647423782
0.001648413665
0.001649408989
0.001650316826
0.001651034941
0.001651452863
0.001648316091
0.001648841942
0.00164958698
0.001650491574
0.001651484384
0.001652482638
0.001653393135
0.001654113343
0.001654532478
0.001651385674
0.001651913069
0.001652660289
0.001653567524
0.00165456322
0.001655564363
0.001656477481
0.001657199752
0.001657620082
0.001654463377
0.001654992295
0.001655741665
0.001656651501
0.001657650041
0.001658654028
0.001659569728
0.00166029403
0.001660715536
0.00165754907
0.001658079486
0.001658830973
0.00165974337
0.001660744707
0.001661751494
0.001662669732
0.001663396032
0.001663818693
0.001660642612
0.001661174502
0.001661928071
0.001662842986
0.001663847073
0.00166485661
0.001665777342
0.001666505604
0.0016669294
0.001663743858
0.001664277195
0.001665032808
0.001665950195
0.001666956982
0.001667969218
0.001668892397
0.001669622582
0.001670047492
0.00166685265
0.001667387407
0.001668145026
0.001669064836
0.001670074269
0.001671089148
0.001672014724
0.001672746793
0.001673172792
0.001669968823
0.00167050497
0.001671264552
0.001672186734
0.001673198755
0.00167421622
0.001675144139
0.001675878047
0.00167630511
0.001673092198
0.001673629703
0.001674391202
0.001675315701
0.001676330248
0.001677350236
0.001678280438
0.00167901614
0.001679444239
0.001676222579
0.001676761409
0.001677524776
0.001678451531
0.001679468537
0.001680490979
0.001681423402
0.001682160845
0.00168258995
0.001679359754
0.001679899871
0.001680665053
0.001681593997
0.001682613388
0.001683638208
0.00168457278
0.001685311909
0.001685741986
0.001682503487
0.001683044848
0.001683811785
0.001684742844
0.001685764538
0.001686791651
0.001687728293
0.001688469043
0.001688900055
0.001685653509
0.001686196069
0.001686964692
0.001687897784
0.001688921686
0.001689950995
0.001690889618
0.001691631916
0.001692063819
0.001688809516
0.00168935322
0.001690123453
0.001691058482
0.001692084485
0.00169311588
0.001694056379
0.001694800141
0.001695232885
0.001691971154
0.001692515939
0.001693287693
0.001694224548
0.001695252527
0.001696285879
0.001697228132
0.00169797326
0.001698406787
0.001695138006
0.001695683801
0.001696456972
0.001697395521
0.00169842533
0.001699460486
0.001700404351
0.001701150728
0.001701584968
0.001698309581
0.0016988563
0.001699630762
0.001700570853
0.001701602317
0.001702639095
0.001703584401
0.001704331887
0.001704766756
0.001701485291
0.001702032831
0.001702808437
0.001703749883
0.001704782792
0.001705820974
0.001706767516
0.001707515943
0.001707951342
0.001704664428
0.001705212666
0.001705989236
0.001706931815
0.001707965916
0.001709005241
0.00170995277
0.001710701935
0.001711137742
0.00170784614
0.001708394926
0.001709172245
0.001710115687
0.001711150676
0.001712190824
0.001713139039
0.001713888697
0.001714324765
0.001711029397
0.001711578551
0.001712356357
0.001713300337
0.001714335842
0.001715376428
0.001716324965
0.001717074818
0.001717510968
0.001714212959
0.001714762261
0.001715540239
0.001716484361
0.001717519935
0.001718560493
0.001719508911
0.001720258599
0.001720694616
0.001717395333
0.00171794452
0.001718722287
0.001719666075
0.001720701178
0.001721741146
0.001722688914
0.001723438003
0.001723873628
0.001720574734
0.001721123489
0.001721900586
0.001722843467
0.00172387745
0.001724916152
0.001725862634
0.001726610604
0.001727045525
0.001723749037
0.00172429698
0.001725072859
0.001726014148
0.001727046237
0.001728082869
0.001729027305
0.001729773536
0.001730207385
0.001726915733
0.001727462413
0.001728236421
0.001729175308
0.001730204584
0.001731238192
0.001732179684
0.001732923446
0.001733355785
0.001730071879
0.001730616763
0.001731388134
0.001732323661
0.001733349046
0.001734378511
0.001735316007
0.001736056442
0.001736486761
0.001733214056
0.001733756524
0.001734524359
0.001735455413
0.001736475648
0.001737499668
0.001738431946
0.001739168061
0.00173959577
0.001736338331
0.001736877662
0.001737640925
0.001738566217
0.001739579853
0.001740596929
0.001741522583
0.001742253239
0.001742677661
0.001739440221
0.001739975591
0.001740733094
0.001741651153
0.001742656536
0.001743664962
0.001744582395
0.001745306299
0.001745726667
0.001742514675
0.001743045149
0.00174379555
0.001744704715
0.001745699979
0.001746697835
0.001747605256
0.00174832096
0.001748736417
0.001745556067
0.0017460806
0.001746822399
0.001747720815
0.001748703884
0.001749689038
0.001750584459
0.001751290362
0.001751699963
0.001748558207
0.001749075645
0.001749807184
0.00175069281
0.001751661404
0.001752631518
0.001753512768
0.001754207124
0.001754609839
0.001751514372
0.001752023456
0.001752742934
0.001753613553
0.0017545652
0.00175551775
0.001756382492
0.001757063425
0.001757458153
0.001754417363
0.001754916739
0.001755622225
0.001756475464
0.001757407529
0.00175833983
0.001759185586
0.001759851117
0.001760236695
0.001757259578
0.001757747817
0.00175843727
0.001759270634
0.001760180352
0.001761089599
0.001761913786
0.001762561859
0.001762937087
0.001760033123
0.001760508739
0.001761180044
0.00176199095
0.001762875473
0.001763758786
0.001764558766
0.001765187289
0.001765550949
0.001762729937
0.001763191413
0.001763842418
0.001764628249
0.001765484698
0.001766339181
0.001767112316
0.001767719203
0.001768070087
0.001765341947
0.001765787766
0.001766416327
0.001767174484
0.001768000015
0.001768822823
0.001769566532
0.001770149761
0.001770486701
0.001767861234
0.001768289918
0.001768893946
0.001769621911
0.001770413788
0.001771202197
0.001771914029
0.001772471687
0.001772793587
0.00177028022
0.001770690361
0.001771267882
0.001771963286
0.001772718947
0.001773470431
0.001774148131
0.001774678474
0.001774984343
0.001772591852
0.001772982156
0.001773531361
0.001774192049
0.001774909186
0.001775621489
0.001776263064
0.001776764569
0.001777053549
0.001774789792
0.001775159116
0.001775678414
0.00177630251
0.001776979135
0.001777650342
0.001778254124
0.001778725535
0.001778996929
0.00177686859
0.001777215973
0.001777704044
0.001778290007
0.001778924515
0.001779553108
0.001780117808
0.001780558179
0.001780811475
0.001778823836
0.001779148532
0.001779604364
0.001780151038
0.001780742256
0.001781327165
0.00178185191
0.001782260633
0.001782495522
0.001780652282
0.001780953783
0.001781376703
0.001781883351