/*--------------------------------*- C++ -*----------------------------------*\
| =========                 |                                                 |
| \\      /  F ield         | OpenFOAM: The Open Source CFD Toolbox           |
|  \\    /   O peration     | Version:  2212                                  |
|   \\  /    A nd           | Website:  www.openfoam.com                      |
|    \\/     M anipulation  |                                                 |
\*---------------------------------------------------------------------------*/
FoamFile
{
    version     2.0;
    format      ascii;
    arch        "LSB;label=32;scalar=64";
    class       volScalarField;
    location    "30.00000000";
    object      CO_0;
}
// * * * * * * * * * * * * * * * * * * * * * * * * * * * * * * * * * * * * * //

dimensions      [0 0 0 0 0 0 0];

internalField   nonuniform List<scalar> 
3000
(
7.38378109e-21
8.29551086e-21
9.671370721e-21
1.150494601e-20
1.377769603e-20
1.642799804e-20
1.929623778e-20
2.20333909e-20
2.396880429e-20
2.772533026e-20
3.127461817e-20
3.662845012e-20
4.377920088e-20
5.272013674e-20
6.340234471e-20
7.564020385e-20
8.881884673e-20
1.004891824e-19
6.211874811e-20
7.062279902e-20
8.357297517e-20
1.011576356e-19
1.23693633e-19
1.515091067e-19
1.844932125e-19
2.207971943e-19
2.518143116e-19
1.183592472e-19
1.359749689e-19
1.631944031e-19
2.009407815e-19
2.505535719e-19
3.132962328e-19
3.888259832e-19
4.711043122e-19
5.375102069e-19
2.102708681e-19
2.445372697e-19
2.983192922e-19
3.743545386e-19
4.762249812e-19
6.067929459e-19
7.63878651e-19
9.307199725e-19
1.058802616e-18
3.617762117e-19
4.261297821e-19
5.285843995e-19
6.756920038e-19
8.753144262e-19
1.132492916e-18
1.43955606e-18
1.757793451e-18
1.993264807e-18
6.145706625e-19
7.328645397e-19
9.233921419e-19
1.200050336e-18
1.578275874e-18
2.065624167e-18
2.641963061e-18
3.227625213e-18
3.650280362e-18
1.040827311e-18
1.255062684e-18
1.603185717e-18
2.11259313e-18
2.811751475e-18
3.710789198e-18
4.764646437e-18
5.819944748e-18
6.568800506e-18
1.765702585e-18
2.149576641e-18
2.777369446e-18
3.700627157e-18
4.969974136e-18
6.597677254e-18
8.491842487e-18
1.036877684e-17
1.168590357e-17
3.00604395e-18
3.688384758e-18
4.809306617e-18
6.462908595e-18
8.737438732e-18
1.164601683e-17
1.501156192e-17
1.832176293e-17
2.062726695e-17
5.137806847e-18
6.343320959e-18
8.329646705e-18
1.126511465e-17
1.530174646e-17
2.045038563e-17
2.638179903e-17
3.21852517e-17
3.620750105e-17
8.81300213e-18
1.093305106e-17
1.443296656e-17
1.960964775e-17
2.672270586e-17
3.577297736e-17
4.616169633e-17
5.628915091e-17
6.329224467e-17
1.516326385e-17
1.887944092e-17
2.502165842e-17
3.410868505e-17
4.658017008e-17
6.240561001e-17
8.050380191e-17
9.809452531e-17
1.103039405e-16
2.615407546e-17
3.265494513e-17
4.340930222e-17
5.932134303e-17
8.113319902e-17
1.087227175e-16
1.400863681e-16
1.703443439e-16
1.919373514e-16
4.51993948e-17
5.65600746e-17
7.537383403e-17
1.032318958e-16
1.414213732e-16
1.89631492e-16
2.438904818e-16
2.93682942e-16
3.345527886e-16
7.822160956e-17
9.805743054e-17
1.309494657e-16
1.797436866e-16
2.468591663e-16
3.322750747e-16
4.30725706e-16
5.291007364e-16
5.906041971e-16
1.354802359e-16
1.700545722e-16
2.274209519e-16
3.125560558e-16
4.296374097e-16
5.783744608e-16
7.485440382e-16
9.135340007e-16
1.025548698e-15
2.347688166e-16
2.949432302e-16
3.948059626e-16
5.42992984e-16
7.466597532e-16
1.005036954e-15
1.299964594e-15
1.585220537e-15
1.780479527e-15
4.069690021e-16
5.116033189e-16
6.852684603e-16
9.429503155e-16
1.296990601e-15
1.745892992e-15
2.25799155e-15
2.753148475e-15
3.092323129e-15
7.056849889e-16
8.875367249e-16
1.189392736e-15
1.637279572e-15
2.25257016e-15
3.032546777e-15
3.922106608e-15
4.78206385e-15
5.371051488e-15
1.22396677e-15
1.539927256e-15
2.064439317e-15
2.842716032e-15
3.911817827e-15
5.266886009e-15
6.812055552e-15
8.305506675e-15
9.328188451e-15
2.123352685e-15
2.672219122e-15
3.583435052e-15
4.935535131e-15
6.792796768e-15
9.146576929e-15
1.183013218e-14
1.442338384e-14
1.619892295e-14
3.684315693e-15
4.63765666e-15
6.220449468e-15
8.569074015e-15
1.179500248e-14
1.588289604e-14
2.054279311e-14
2.504510619e-14
2.812741589e-14
6.393889866e-15
8.049654362e-15
1.079871332e-14
1.487782949e-14
2.048027796e-14
2.757886467e-14
3.566945186e-14
4.348527345e-14
4.88354174e-14
1.109788102e-14
1.397350969e-14
1.874786777e-14
2.583183306e-14
3.556036986e-14
4.788525601e-14
6.19302034e-14
7.549599299e-14
8.478129637e-14
1.926519987e-14
2.425930463e-14
3.255058099e-14
4.485171684e-14
6.17427972e-14
8.313796714e-14
1.075141189e-13
1.310540373e-13
1.471641156e-13
3.344687044e-14
4.211994345e-14
5.651787426e-14
7.787605533e-14
1.071979567e-13
1.443295394e-13
1.866228889e-13
2.274540523e-13
2.55391375e-13
5.80728427e-14
7.313454528e-14
9.813462009e-14
1.352125525e-13
1.861013453e-13
2.505218383e-13
3.238692502e-13
3.946533493e-13
4.430686931e-13
1.008338559e-13
1.269882235e-13
1.703914674e-13
2.347441256e-13
3.230320985e-13
4.34742787e-13
5.618648025e-13
6.84476612e-13
7.683002205e-13
1.75075334e-13
2.204852571e-13
2.958211558e-13
4.074726764e-13
5.605679357e-13
7.541501435e-13
9.742723712e-13
1.186419389e-12
1.331350747e-12
3.039376723e-13
3.827583477e-13
5.134707904e-13
7.07082291e-13
9.723615802e-13
1.30748964e-12
1.68816792e-12
2.054655838e-12
2.304774935e-12
5.275009644e-13
6.642523616e-13
8.909117967e-13
1.226382261e-12
1.685569678e-12
2.26494996e-12
2.922154202e-12
3.553922874e-12
3.984486861e-12
9.150791805e-13
1.152168465e-12
1.544852808e-12
2.125460844e-12
2.919134171e-12
3.918924797e-12
5.050894985e-12
6.136902321e-12
6.875642926e-12
1.586299771e-12
1.99690851e-12
2.676355892e-12
3.679634192e-12
5.048717882e-12
6.769710071e-12
8.713503806e-12
1.057355906e-11
1.18356988e-11
2.747091191e-12
3.457134511e-12
4.630664289e-12
6.360576989e-12
8.716024128e-12
1.166893463e-11
1.49938307e-11
1.816503682e-11
2.031004985e-11
4.750809638e-12
5.976102485e-12
7.998159318e-12
1.097252838e-11
1.501118966e-11
2.0057184e-11
2.571696367e-11
3.109309292e-11
3.471524901e-11
8.201457682e-12
1.031010602e-11
1.378338413e-11
1.88788818e-11
2.577393334e-11
3.435308605e-11
4.39306323e-11
5.298319753e-11
5.905348078e-11
1.412682056e-11
1.774294041e-11
2.368548465e-11
3.237522429e-11
4.408492992e-11
5.85820899e-11
7.467581969e-11
8.979855688e-11
9.98830183e-11
2.426672033e-11
3.044090557e-11
4.055882386e-11
5.529636669e-11
7.505714282e-11
9.937816881e-11
1.262017554e-10
1.512375301e-10
1.678269634e-10
4.154897797e-11
5.203483621e-11
6.916113526e-11
9.399165652e-11
1.270923912e-10
1.675556619e-10
2.118516626e-10
2.528834679e-10
2.798821138e-10
7.086820906e-11
8.856441415e-11
1.173541568e-10
1.588709056e-10
2.138474238e-10
2.805377939e-10
3.529438213e-10
4.194609806e-10
4.62898726e-10
1.203475499e-10
1.499930931e-10
1.980059384e-10
2.66820442e-10
3.572642425e-10
4.660514748e-10
5.831067602e-10
6.89695885e-10
7.587506271e-10
2.033608551e-10
2.526094576e-10
3.319650965e-10
4.449253652e-10
5.921720208e-10
7.67666316e-10
9.547104567e-10
1.123471531e-09
1.231918226e-09
3.417361908e-10
4.227860194e-10
5.526484502e-10
7.361236347e-10
9.731772564e-10
1.252985609e-09
1.548285389e-09
1.812241453e-09
1.980484892e-09
5.707677959e-10
7.027864339e-10
9.130220401e-10
1.207678463e-09
1.584845063e-09
2.025611092e-09
2.486163338e-09
2.894024277e-09
3.151927735e-09
9.469547333e-10
1.159618736e-09
1.496084351e-09
1.963712645e-09
2.556565878e-09
3.242433184e-09
3.95204224e-09
4.5748077e-09
4.965604282e-09
1.559787189e-09
1.898353572e-09
2.430410142e-09
3.163536163e-09
4.084036915e-09
5.13838645e-09
6.218817795e-09
7.158872114e-09
7.744546132e-09
2.549450013e-09
3.081899453e-09
3.912924896e-09
5.048163224e-09
6.460018225e-09
8.061612802e-09
9.687896981e-09
1.109147412e-08
1.196013453e-08
4.133053106e-09
4.960001817e-09
6.24190972e-09
7.978319605e-09
1.0118018e-08
1.252306628e-08
1.494439215e-08
1.701858905e-08
1.82945372e-08
6.642993102e-09
7.911278927e-09
9.864361777e-09
1.248847016e-08
1.569391188e-08
1.926607134e-08
2.283419418e-08
2.587011096e-08
2.772754494e-08
1.058239231e-08
1.250352429e-08
1.544336272e-08
1.936306353e-08
2.411232806e-08
2.936334191e-08
3.45710801e-08
3.897520315e-08
4.165681239e-08
1.670438323e-08
1.957943633e-08
2.395318898e-08
2.974345394e-08
3.670709583e-08
4.435165014e-08
5.18849023e-08
5.822156037e-08
6.206370366e-08
2.612450049e-08
3.037759256e-08
3.681275465e-08
4.527703673e-08
5.538837073e-08
6.641791357e-08
7.722578014e-08
8.627445556e-08
9.174124194e-08
4.047885981e-08
4.670220544e-08
5.607198162e-08
6.832437672e-08
8.287351075e-08
9.865517429e-08
1.140443079e-07
1.268770087e-07
1.346064644e-07
6.214190423e-08
7.115551396e-08
8.466627157e-08
1.022424738e-07
1.230040813e-07
1.454151861e-07
1.6717715e-07
1.852623129e-07
1.961278524e-07
9.452919969e-08
1.074615025e-07
1.267708649e-07
1.517772954e-07
1.811814306e-07
2.127888729e-07
2.433707559e-07
2.687129004e-07
2.839065627e-07
1.425166371e-07
1.609123874e-07
1.882868958e-07
2.235999026e-07
2.649606441e-07
3.092615371e-07
3.519949326e-07
3.873221603e-07
4.084663869e-07
2.130143666e-07
2.389790148e-07
2.775051773e-07
3.270378089e-07
3.848596011e-07
4.466038487e-07
5.060119763e-07
5.550277705e-07
5.843255715e-07
3.157504818e-07
3.521433011e-07
4.060100215e-07
4.750691881e-07
5.554572199e-07
6.410799664e-07
7.232898098e-07
7.910112885e-07
8.314482257e-07
4.643360299e-07
5.150283792e-07
5.899048093e-07
6.856694305e-07
7.968795293e-07
9.150813273e-07
1.028377385e-06
1.121590578e-06
1.177207148e-06
6.777047909e-07
7.479253039e-07
8.514662116e-07
9.836273905e-07
1.136803326e-06
1.299329541e-06
1.454899583e-06
1.582774459e-06
1.659035432e-06
9.82047996e-07
1.078843552e-06
1.221364896e-06
1.402983056e-06
1.613145951e-06
1.835835847e-06
2.048778724e-06
2.223704552e-06
2.328003956e-06
1.413395502e-06
1.546245858e-06
1.741626889e-06
1.990278938e-06
2.277655799e-06
2.581857545e-06
2.872550649e-06
3.111278297e-06
3.253636524e-06
2.021029597e-06
2.202664638e-06
2.469549741e-06
2.808862061e-06
3.200668935e-06
3.615150328e-06
4.011111021e-06
4.336323925e-06
4.530358543e-06
2.871952756e-06
3.119434111e-06
3.482827212e-06
3.944516922e-06
4.477345946e-06
5.040870889e-06
5.579290382e-06
6.021768256e-06
6.286049529e-06
4.056661362e-06
4.392803405e-06
4.886168132e-06
5.512742679e-06
6.235737012e-06
7.000518501e-06
7.731690198e-06
8.333269381e-06
8.693197635e-06
5.696496323e-06
6.15171265e-06
6.819707967e-06
7.667994656e-06
8.647020774e-06
9.683288235e-06
1.067517726e-05
1.149272909e-05
1.198307837e-05
7.952838177e-06
8.567503442e-06
9.469488819e-06
1.061516861e-05
1.193819333e-05
1.334010103e-05
1.468427803e-05
1.579489183e-05
1.64631313e-05
1.103837388e-05
1.186577943e-05
1.308020241e-05
1.462348653e-05
1.640730965e-05
1.830033016e-05
2.011938358e-05
2.162681977e-05
2.253722916e-05
1.52305644e-05
1.634050812e-05
1.797022251e-05
2.004271127e-05
2.244106228e-05
2.499081957e-05
2.744713277e-05
2.948937921e-05
3.072780635e-05
2.088725892e-05
2.237023197e-05
2.454866716e-05
2.732124274e-05
3.053399539e-05
3.395617173e-05
3.726158934e-05
4.001900721e-05
4.16978762e-05
2.846410014e-05
3.043590469e-05
3.333380159e-05
3.702511746e-05
4.130800084e-05
4.587850673e-05
5.030393634e-05
5.400703828e-05
5.626991455e-05
3.853291877e-05
4.113936817e-05
4.497151467e-05
4.985626283e-05
5.552997986e-05
6.159404617e-05
6.747752697e-05
7.241302229e-05
7.543788823e-05
5.179971603e-05
5.522084442e-05
6.025190872e-05
6.666761589e-05
7.412476791e-05
8.210311296e-05
8.98544508e-05
9.636790286e-05
0.0001003679591
6.912011557e-05
7.357308916e-05
8.012131538e-05
8.847200973e-05
9.817986326e-05
0.0001085698103
0.0001186695821
0.0001271627541
0.0001323837252
9.150939464e-05
9.724912197e-05
0.000105686398
0.0001164412684
0.0001289382162
0.0001423073571
0.0001552982189
0.0001662196063
0.0001729326673
0.000120143575
0.0001274599327
0.000138206715
0.0001518919274
0.0001677754737
0.000184746048
0.0002012147431
0.0002150421805
0.0002235320038
0.0001563479719
0.0001655586381
0.0001790722814
0.0001962542312
0.0002161591475
0.000237381914
0.0002579312954
0.0002751464834
0.0002856945791
0.000201569259
0.0002130074159
0.0002297630783
0.000251022423
0.0002755884937
0.0003017060966
0.0003269177341
0.0003479736224
0.0003608377965
0.0002573284735
0.0002713251648
0.0002917891571
0.000317685794
0.000347515987
0.0003791172754
0.0004095066113
0.0004347897489
0.0004501812168
0.000325153533
0.0003420151192
0.0003666115976
0.0003976421347
0.0004332534516
0.0004708217322
0.0005067892051
0.0005365802621
0.000554640547
0.0004064919539
0.0004264738746
0.0004555468638
0.0004920974728
0.000533868256
0.0005777279126
0.0006195105917
0.0006539470538
0.0006747271742
0.0005026068949
0.0005258857401
0.0005596595873
0.0006019583046
0.0006500769476
0.0007003438273
0.0007479729281
0.0007870183622
0.0008104629078
0.000614462253
0.0006411087792
0.0006796509292
0.0007277245063
0.0007821453457
0.0008386868822
0.0008919565593
0.0009353806525
0.0009613190693
0.0007426051463
0.0007725613427
0.0008157519008
0.0008693925419
0.0009298048278
0.0009922156816
0.001050667989
0.00109804075
0.001126187418
0.0008870564656
0.0009201199216
0.000967632518
0.001026379834
0.001092195146
0.001159793054
0.00122272259
0.001273424694
0.001303388404
0.001047222017
0.0010830406
0.001134338562
0.001197481102
0.0012678433
0.00133968834
0.001406168694
0.001459420239
0.001490727773
0.001221837713
0.001259916858
0.001314267534
0.001380866601
0.001454686355
0.001529624832
0.001598558811
0.001653465121
0.001685584538
0.00140896174
0.001448685433
0.00150519366
0.001574129775
0.001650143715
0.001726877128
0.00179706095
0.001852661551
0.00188503356
0.001606024297
0.001646689368
0.001704349815
0.001774392218
0.001851241099
0.0019284008
0.001998593205
0.00205391847
0.002085988833
0.001809946729
0.001850808343
0.001908568776
0.00197844818
0.002054756245
0.002130985453
0.002199981285
0.00225410827
0.002285358599
0.002017305507
0.002057621876
0.002114446495
0.002182932843
0.002257390894
0.002331423965
0.002398121731
0.002450223278
0.002480197006
0.002224524204
0.00226360243
0.002318534791
0.002384509683
0.002455949069
0.002526679059
0.002590135654
0.00263951809
0.002667839381
0.002428086303
0.002465322094
0.002517538102
0.002580053623
0.002647503463
0.002714031388
0.002773499242
0.00281962591
0.002846010392
0.002624740386
0.002659647259
0.002708492729
0.002766810921
0.002829533611
0.00289119585
0.002946140552
0.002988640543
0.003012897909
0.002811674312
0.002843899777
0.002888909669
0.002942520165
0.003000023752
0.00305639742
0.003106496698
0.003145160103
0.003167189636
0.002986640307
0.003015968701
0.00305686815
0.003105484935
0.003157514319
0.003208403416
0.003253530603
0.003288293097
0.003308073809
0.003148021402
0.003174365072
0.003211054911
0.003254595934
0.003301107427
0.003346514618
0.003386711153
0.00341763145
0.003435208833
0.003294839187
0.003318221062
0.003350752267
0.003389307305
0.003430432422
0.003470522158
0.003505964049
0.003533197835
0.003548669141
0.003426711068
0.003447242273
0.003475784324
0.003509576917
0.003545581349
0.003580639806
0.003611602517
0.003635375997
0.003648875647
0.00354377063
0.00356162659
0.003586434381
0.003615782981
0.003647025829
0.003677422135
0.003704247411
0.003724832805
0.003736519066
0.003646566674
0.003661964461
0.00368334733
0.00370862954
0.003735526477
0.003761678289
0.003784745192
0.003802439635
0.003812483274
0.003735955461
0.003749134173
0.003767429343
0.003789051625
0.003812044089
0.003834389213
0.00385409052
0.003869199037
0.003877774206
0.003812997677
0.003824202744
0.003839754232
0.003858128072
0.003877659297
0.003896633821
0.003913358017
0.003926180619
0.003933457978
0.003878867835
0.003888339381
0.003901482463
0.00391700697
0.003933504643
0.003949527269
0.00396364574
0.003974468292
0.003980610142
0.00393478011
0.003942745028
0.003953795732
0.003966845965
0.003980710716
0.003994172444
0.004006031112
0.004015119415
0.004020276558
0.003981931643
0.003988598771
0.003997847531
0.004008767526
0.004020366108
0.00403162429
0.004041538888
0.004049135334
0.004053445259
0.004021462225
0.004027019896
0.004034728411
0.004043827859
0.004053490098
0.004062865773
0.00407111975
0.004077441885
0.004081028029
0.004054428232
0.004059043614
0.004065444071
0.004072997593
0.004081015805
0.004088793385
0.004095637793
0.004100878322
0.004103850082
0.004081788058
0.004085607645
0.004090903482
0.004097151647
0.004103781851
0.004110210411
0.004115865124
0.004120192861
0.004122646128
0.004104396231
0.00410754708
0.004111914735
0.004117066176
0.004122530411
0.004127825981
0.004132481734
0.004136043166
0.004138061189
0.004123003834
0.004125595204
0.004129186408
0.004133420559
0.0041379098
0.004142258212
0.004146079102
0.004149000289
0.004150654741
0.004138263146
0.004140388323
0.004143332635
0.004146802719
0.004150480061
0.004154040029
0.004157166221
0.004159554856
0.004160906981
0.004150734908
0.004152473056
0.004154880426
0.004157716482
0.004160720345
0.00416362657
0.004166177023
0.004168124506
0.004169226288
0.004160896984
0.004162314926
0.004164278161
0.004166589954
0.004169037169
0.004171403331
0.004173478424
0.004175061869
0.004175957166
0.004169153543
0.004170307417
0.004171904484
0.004173784211
0.004175772897
0.004177694446
0.004179378437
0.004180662555
0.004181388163
0.004175844174
0.004176780941
0.00417807705
0.004179601811
0.004181213994
0.004182770699
0.004184133975
0.004185172803
0.004185759438
0.004181252543
0.00418201133
0.004183060805
0.004184294809
0.004185598777
0.004186857012
0.00418795811
0.004188796563
0.004189269746
0.004185614375
0.004186227662
0.004187075586
0.004188072103
0.004189124479
0.004190139253
0.004191026656
0.004191701909
0.00419208275
0.004189124643
0.004189619299
0.004190302955
0.004191106018
0.004191953584
0.004192770311
0.004193484017
0.004194026721
0.004194332614
0.004191943935
0.004192342115
0.004192892232
0.004193538114
0.004194219383
0.004194875427
0.004195448317
0.004195883647
0.004196128869
0.004194204015
0.004194523925
0.004194965749
0.004195484237
0.004196030812
0.004196556807
0.004197015819
0.004197364384
0.004197560614
0.004196012611
0.004196269171
0.004196623381
0.004197038856
0.004197476591
0.004197897576
0.004198264709
0.004198543323
0.004198700084
0.004197457522
0.004197662923
0.004197946406
0.004198278769
0.004198628748
0.00419896513
0.004199258295
0.004199480638
0.004199605669
0.004198610089
0.004198774263
0.004199000773
0.004199266223
0.004199545594
0.004199813955
0.004200047695
0.004200224864
0.004200324438
0.004199528123
0.004199659141
0.004199839849
0.004200051535
0.004200274209
0.004200487988
0.004200674079
0.004200815052
0.004200894243
0.004200258348
0.004200362752
0.00420050671
0.004200675278
0.004200852512
0.004201022574
0.004201170529
0.00420128255
0.004201345448
0.00420083844
0.004200921521
0.004201036045
0.004201170097
0.004201310975
0.004201446084
0.004201563567
0.004201652473
0.004201702369
0.00420129871
0.004201364737
0.004201455727
0.004201562194
0.004201674034
0.004201781243
0.004201874419
0.004201944896
0.004201984433
0.004201663496
0.004201715905
0.00420178811
0.004201872566
0.004201961249
0.004202046221
0.004202120037
0.004202175845
0.004202207139
0.004201952301
0.004201993851
0.004202051083
0.004202118004
0.004202188248
0.004202255523
0.00420231394
0.004202358086
0.004202382832
0.004202180722
0.004202213628
0.004202258943
0.004202311914
0.004202367495
0.004202420705
0.00420246689
0.004202501779
0.004202521328
0.004202361217
0.004202387251
0.004202423094
0.004202464982
0.004202508917
0.004202550964
0.004202587445
0.004202614992
0.004202630424
0.004202503717
0.004202524294
0.004202552619
0.004202585711
0.004202620411
0.004202653607
0.004202682398
0.004202704131
0.004202716301
0.004202616128
0.004202632378
0.004202654742
0.004202680863
0.004202708245
0.004202734432
0.004202757136
0.004202774269
0.00420278386
0.004202704737
0.004202717559
0.004202735201
0.004202755804
0.004202777394
0.004202798036
0.004202815927
0.004202829424
0.004202836977
0.004202774534
0.004202784642
0.00420279855
0.004202814787
0.004202831799
0.004202848058
0.004202862147
0.004202872772
0.004202878717
0.004202829475
0.00420283744
0.004202848395
0.004202861183
0.004202874578
0.004202887377
0.004202898464
0.004202906823
0.004202911499
0.004202872697
0.004202878968
0.004202887592
0.004202897657
0.004202908197
0.004202918266
0.004202926986
0.004202933559
0.004202937235
0.00420290668
0.004202911614
0.004202918399
0.004202926316
0.004202934605
0.004202942522
0.004202949377
0.004202954542
0.004202957431
0.004202933385
0.004202937265
0.0042029426
0.004202948824
0.004202955339
0.004202961561
0.004202966946
0.004202971004
0.004202973272
0.004202954359
0.004202957409
0.004202961602
0.004202966492
0.004202971611
0.004202976498
0.004202980727
0.004202983913
0.004202985694
0.004202970826
0.004202973222
0.004202976516
0.004202980357
0.004202984377
0.004202988213
0.004202991533
0.004202994034
0.004202995431
0.004202983749
0.00420298563
0.004202988217
0.004202991232
0.004202994388
0.004202997399
0.004203000004
0.004203001966
0.004203003062
0.004202993887
0.004202995364
0.004202997393
0.00420299976
0.004203002236
0.004203004599
0.004203006643
0.004203008181
0.004203009041
0.004203001837
0.004203002996
0.004203004589
0.004203006446
0.004203008388
0.004203010241
0.004203011844
0.004203013051
0.004203013725
0.004203008071
0.00420300898
0.004203010229
0.004203011685
0.004203013209
0.004203014662
0.004203015919
0.004203016865
0.004203017393
0.004203012956
0.004203013669
0.004203014649
0.004203015791
0.004203016986
0.004203018125
0.00420301911
0.004203019852
0.004203020266
0.004203016786
0.004203017345
0.004203018113
0.004203019008
0.004203019945
0.004203020838
0.00420302161
0.004203022192
0.004203022516
0.004203019786
0.004203020224
0.004203020827
0.004203021529
0.004203022263
0.004203022963
0.004203023569
0.004203024024
0.004203024279
0.004203022137
0.004203022481
0.004203022953
0.004203023504
0.004203024079
0.004203024628
0.004203025103
0.00420302546
0.004203025659
0.00420302398
0.004203024249
0.004203024619
0.004203025051
0.004203025502
0.004203025933
0.004203026305
0.004203026585
0.004203026741
0.004203025423
0.004203025635
0.004203025925
0.004203026264
0.004203026618
0.004203026955
0.004203027247
0.004203027467
0.004203027589
0.004203026555
0.004203026721
0.004203026949
0.004203027215
0.004203027492
0.004203027757
0.004203027986
0.004203028159
0.004203028255
0.004203027443
0.004203027573
0.004203027752
0.00420302796
0.004203028179
0.004203028386
0.004203028566
0.004203028702
0.004203028777
0.004203028139
0.004203028242
0.004203028382
0.004203028546
0.004203028717
0.004203028881
0.004203029022
0.004203029129
0.004203029188
0.004203028686
0.004203028767
0.004203028877
0.004203029006
0.004203029141
0.004203029269
0.004203029381
0.004203029464
0.004203029511
0.004203029116
0.00420302918
0.004203029267
0.004203029368
0.004203029474
0.004203029576
0.004203029663
0.004203029729
0.004203029766
0.004203029455
0.004203029505
0.004203029573
0.004203029653
0.004203029737
0.004203029817
0.004203029886
0.004203029939
0.004203029968
0.004203029722
0.004203029761
0.004203029816
0.004203029879
0.004203029945
0.004203030008
0.004203030063
0.004203030105
0.004203030128
0.004203029933
0.004203029964
0.004203030007
0.004203030057
0.00420303011
0.00420303016
0.004203030204
0.004203030237
0.004203030255
0.0042030301
0.004203030125
0.004203030159
0.004203030199
0.004203030241
0.004203030281
0.004203030316
0.004203030342
0.004203030357
0.004203030234
0.004203030253
0.004203030281
0.004203030313
0.004203030346
0.004203030378
0.004203030406
0.004203030427
0.004203030439
0.00420303034
0.004203030356
0.004203030378
0.004203030404
0.004203030431
0.004203030456
0.004203030479
0.004203030496
0.004203030506
0.004203030426
0.004203030439
0.004203030456
0.004203030477
0.004203030499
0.00420303052
0.004203030538
0.004203030552
0.00420303056
0.004203030495
0.004203030505
0.00420303052
0.004203030537
0.004203030555
0.004203030572
0.004203030587
0.004203030598
0.004203030605
0.004203030552
0.00420303056
0.004203030572
0.004203030586
0.004203030601
0.004203030615
0.004203030627
0.004203030637
0.004203030642
0.004203030598
0.004203030605
0.004203030615
0.004203030627
0.004203030639
0.004203030651
0.004203030661
0.004203030669
0.004203030674
0.004203030637
0.004203030643
0.004203030651
0.004203030661
0.004203030672
0.004203030682
0.00420303069
0.004203030697
0.004203030701
0.00420303067
0.004203030675
0.004203030682
0.00420303069
0.004203030699
0.004203030708
0.004203030716
0.004203030721
0.004203030725
0.004203030698
0.004203030702
0.004203030708
0.004203030716
0.004203030723
0.004203030731
0.004203030738
0.004203030743
0.004203030746
0.004203030722
0.004203030726
0.004203030731
0.004203030738
0.004203030745
0.004203030751
0.004203030757
0.004203030762
0.004203030764
0.004203030744
0.004203030747
0.004203030752
0.004203030757
0.004203030764
0.00420303077
0.004203030775
0.004203030779
0.004203030781
0.004203030763
0.004203030766
0.00420303077
0.004203030775
0.004203030781
0.004203030786
0.004203030791
0.004203030795
0.004203030797
0.00420303078
0.004203030783
0.004203030787
0.004203030792
0.004203030797
0.004203030802
0.004203030806
0.00420303081
0.004203030812
0.004203030796
0.004203030799
0.004203030802
0.004203030807
0.004203030811
0.004203030816
0.00420303082
0.004203030824
0.004203030826
0.004203030811
0.004203030813
0.004203030817
0.004203030821
0.004203030825
0.00420303083
0.004203030834
0.004203030837
0.004203030839
0.004203030825
0.004203030827
0.00420303083
0.004203030834
0.004203030839
0.004203030843
0.004203030847
0.00420303085
0.004203030852
0.004203030838
0.00420303084
0.004203030844
0.004203030847
0.004203030851
0.004203030856
0.004203030859
0.004203030862
0.004203030864
0.004203030851
0.004203030853
0.004203030856
0.00420303086
0.004203030864
0.004203030868
0.004203030871
0.004203030874
0.004203030876
0.004203030863
0.004203030865
0.004203030868
0.004203030872
0.004203030876
0.00420303088
0.004203030883
0.004203030886
0.004203030888
0.004203030875
0.004203030877
0.00420303088
0.004203030884
0.004203030887
0.004203030891
0.004203030895
0.004203030897
0.004203030899
0.004203030887
0.004203030889
0.004203030892
0.004203030895
0.004203030899
0.004203030903
0.004203030906
0.004203030909
0.00420303091
0.004203030899
0.004203030901
0.004203030903
0.004203030907
0.00420303091
0.004203030914
0.004203030917
0.00420303092
0.004203030922
0.00420303091
0.004203030912
0.004203030915
0.004203030918
0.004203030922
0.004203030925
0.004203030929
0.004203030931
0.004203030933
0.004203030921
0.004203030923
0.004203030926
0.004203030929
0.004203030933
0.004203030936
0.004203030939
0.004203030942
0.004203030944
0.004203030932
0.004203030934
0.004203030937
0.00420303094
0.004203030944
0.004203030947
0.00420303095
0.004203030953
0.004203030955
0.004203030943
0.004203030945
0.004203030948
0.004203030951
0.004203030954
0.004203030958
0.004203030961
0.004203030964
0.004203030965
0.004203030954
0.004203030956
0.004203030958
0.004203030962
0.004203030965
0.004203030969
0.004203030972
0.004203030974
0.004203030976
0.004203030965
0.004203030967
0.004203030969
0.004203030972
0.004203030976
0.004203030979
0.004203030983
0.004203030985
0.004203030987
0.004203030975
0.004203030977
0.00420303098
0.004203030983
0.004203030986
0.00420303099
0.004203030993
0.004203030996
0.004203030997
0.004203030986
0.004203030988
0.00420303099
0.004203030993
0.004203030997
0.004203031
0.004203031004
0.004203031006
0.004203031007
0.004203030996
0.004203030998
0.004203031001
0.004203031004
0.004203031007
0.004203031011
0.004203031014
0.004203031016
0.004203031018
0.004203031007
0.004203031009
0.004203031011
0.004203031014
0.004203031018
0.004203031021
0.004203031024
0.004203031026
0.004203031028
0.004203031017
0.004203031019
0.004203031021
0.004203031024
0.004203031028
0.004203031031
0.004203031034
0.004203031037
0.004203031038
0.004203031027
0.004203031029
0.004203031031
0.004203031034
0.004203031038
0.004203031041
0.004203031044
0.004203031046
0.004203031048
0.004203031037
0.004203031039
0.004203031041
0.004203031044
0.004203031048
0.004203031051
0.004203031054
0.004203031056
0.004203031058
0.004203031047
0.004203031049
0.004203031051
0.004203031054
0.004203031057
0.004203031061
0.004203031063
0.004203031066
0.004203031067
0.004203031057
0.004203031058
0.004203031061
0.004203031064
0.004203031067
0.00420303107
0.004203031073
0.004203031075
0.004203031076
0.004203031066
0.004203031068
0.00420303107
0.004203031073
0.004203031076
0.004203031079
0.004203031082
0.004203031084
0.004203031085
0.004203031076
0.004203031077
0.004203031079
0.004203031082
0.004203031085
0.004203031088
0.004203031091
0.004203031093
0.004203031094
0.004203031085
0.004203031086
0.004203031088
0.004203031091
0.004203031094
0.004203031097
0.004203031099
0.004203031101
0.004203031102
0.004203031093
0.004203031095
0.004203031097
0.004203031099
0.004203031102
0.004203031105
0.004203031107
0.004203031109
0.00420303111
0.004203031102
0.004203031103
0.004203031105
0.004203031107
0.00420303111
0.004203031113
0.004203031115
0.004203031117
0.004203031118
0.00420303111
0.004203031111
0.004203031113
0.004203031115
0.004203031118
0.00420303112
0.004203031122
0.004203031124
0.004203031125
0.004203031117
0.004203031119
0.00420303112
0.004203031122
0.004203031125
0.004203031127
0.004203031129
0.004203031131
0.004203031132
0.004203031124
0.004203031126
0.004203031127
0.004203031129
0.004203031131
0.004203031133
0.004203031135
0.004203031137
0.004203031138
0.004203031131
0.004203031132
0.004203031134
0.004203031135
0.004203031137
0.004203031139
0.004203031141
0.004203031142
0.004203031143
0.004203031137
0.004203031138
0.00420303114
0.004203031141
0.004203031143
0.004203031145
0.004203031146
0.004203031147
0.004203031148
0.004203031143
0.004203031144
0.004203031145
0.004203031146
0.004203031148
0.004203031149
0.004203031151
0.004203031152
0.004203031152
0.004203031148
0.004203031148
0.004203031149
0.004203031151
0.004203031152
0.004203031153
0.004203031154
0.004203031155
0.004203031156
0.004203031152