/*--------------------------------*- C++ -*----------------------------------*\
| =========                 |                                                 |
| \\      /  F ield         | OpenFOAM: The Open Source CFD Toolbox           |
|  \\    /   O peration     | Version:  2212                                  |
|   \\  /    A nd           | Website:  www.openfoam.com                      |
|    \\/     M anipulation  |                                                 |
\*---------------------------------------------------------------------------*/
FoamFile
{
    version     2.0;
    format      ascii;
    arch        "LSB;label=32;scalar=64";
    class       volScalarField;
    location    "30.00000000";
    object      H;
}
// * * * * * * * * * * * * * * * * * * * * * * * * * * * * * * * * * * * * * //

dimensions      [0 0 0 0 0 0 0];

internalField   nonuniform List<scalar> 
3000
(
3.654672839e-29
4.103998185e-29
4.780682728e-29
5.679191769e-29
6.785524078e-29
8.059115535e-29
9.399859557e-29
1.059420767e-28
1.126723519e-28
1.366901211e-28
1.540091694e-28
1.800187054e-28
2.145005945e-28
2.570939651e-28
3.069791973e-28
3.622702962e-28
4.185751989e-28
4.637190948e-28
3.047589282e-28
3.458357989e-28
4.08012919e-28
4.916479617e-28
5.973492316e-28
7.252406554e-28
8.727140086e-28
1.028791147e-27
1.154265587e-27
5.77622699e-28
6.619901865e-28
7.914852755e-28
9.693019422e-28
1.199898894e-27
1.486457346e-27
1.823813971e-27
2.180880371e-27
2.456603834e-27
1.020740873e-27
1.1837697e-27
1.437930438e-27
1.793858144e-27
2.264900702e-27
2.859587001e-27
3.562136048e-27
4.291410853e-27
4.83158926e-27
1.747199829e-27
2.051803004e-27
2.533602759e-27
3.219258749e-27
4.139413585e-27
5.309384003e-27
6.684974839e-27
8.083652373e-27
9.08849869e-27
2.953609776e-27
3.511215865e-27
4.403781716e-27
5.689186395e-27
7.428939525e-27
9.644787449e-27
1.223069429e-26
1.48163341e-26
1.664364125e-26
4.979322839e-27
5.985672088e-27
7.61147284e-27
9.972405951e-27
1.318339898e-26
1.726996424e-26
2.200484613e-26
2.66808998e-26
2.99524216e-26
8.4111893e-27
1.020896887e-26
1.313315753e-26
1.740339918e-26
2.32259829e-26
3.062364864e-26
3.914416146e-26
4.748629839e-26
5.328996959e-26
1.426334867e-26
1.745037779e-26
2.265951254e-26
3.029443411e-26
4.071750917e-26
5.393573613e-26
6.909107313e-26
8.384191631e-26
9.407434249e-26
2.428985436e-26
2.990696326e-26
3.911904392e-26
5.265213147e-26
7.113474889e-26
9.453278577e-26
1.212679453e-25
1.471880967e-25
1.651509539e-25
4.152612283e-26
5.13831409e-26
6.758556513e-26
9.141978163e-26
1.239657864e-25
1.650957483e-25
2.119620289e-25
2.572855503e-25
2.887301985e-25
7.1230137e-26
8.847458987e-26
1.168636256e-25
1.586538695e-25
2.156841734e-25
2.876083555e-25
3.693175536e-25
4.481814506e-25
5.032671591e-25
1.225181682e-25
1.526319945e-25
2.022676939e-25
2.753733263e-25
3.750683152e-25
5.004691427e-25
6.42166632e-25
7.780227135e-25
8.758701809e-25
2.1119956e-25
2.637434134e-25
3.50468385e-25
4.783509381e-25
6.528392583e-25
8.719989592e-25
1.117293486e-24
1.341015051e-24
1.52694486e-24
3.646599656e-25
4.562743104e-25
6.077289606e-25
8.31558668e-25
1.138130551e-24
1.526539584e-24
1.972130222e-24
2.415782906e-24
2.696127135e-24
6.302786292e-25
7.89765734e-25
1.053656527e-24
1.443940464e-24
1.978613649e-24
2.655076161e-24
3.425803386e-24
4.171700488e-24
4.682627196e-24
1.090134984e-24
1.367403563e-24
1.826384301e-24
2.505339603e-24
3.435231815e-24
4.610558429e-24
5.947280237e-24
7.240217467e-24
8.131290739e-24
1.886545739e-24
2.368202864e-24
3.165790532e-24
4.34587946e-24
5.96212256e-24
8.004583723e-24
1.03272336e-23
1.25767158e-23
1.41252662e-23
3.266350114e-24
4.102754035e-24
5.488215179e-24
7.538649002e-24
1.034740443e-23
1.389723757e-23
1.793472559e-23
2.184899995e-23
2.453922137e-23
5.657784119e-24
7.110000543e-24
9.516249776e-24
1.307843089e-23
1.795917286e-23
2.412879128e-23
3.114716486e-23
3.795462941e-23
4.262741486e-23
9.804061163e-24
1.232546535e-23
1.650448888e-23
2.269283661e-23
3.117399374e-23
4.189699181e-23
5.409661208e-23
6.592557148e-23
7.404040743e-23
1.69957036e-23
2.137395877e-23
2.863255147e-23
3.938433296e-23
5.412385615e-23
7.276392571e-23
9.397180487e-23
1.145009494e-22
1.285897353e-22
2.947507957e-23
3.707950565e-23
4.969027389e-23
6.837612142e-23
9.400121648e-23
1.264177237e-22
1.632999556e-22
1.988764898e-22
2.233222131e-22
5.1141905e-23
6.435531006e-23
8.627484422e-23
1.187670253e-22
1.633463519e-22
2.197687037e-22
2.839913621e-22
3.459038111e-22
3.880919967e-22
8.878610849e-23
1.117605703e-22
1.498882278e-22
2.064371401e-22
2.840740903e-22
3.824125428e-22
4.944420512e-22
6.025353408e-22
6.762488222e-22
1.542488517e-22
1.942335438e-22
2.606277713e-22
3.591763876e-22
4.946094321e-22
6.663609555e-22
8.62296773e-22
1.051642733e-21
1.180999454e-21
2.682255053e-22
3.37911728e-22
4.537160573e-22
6.257968674e-22
8.626326019e-22
1.163532416e-21
1.507558605e-21
1.840876144e-21
2.069341156e-21
4.669897414e-22
5.886786271e-22
7.911283214e-22
1.092451542e-21
1.508066815e-21
2.037563334e-21
2.644993871e-21
3.235937997e-21
3.643243992e-21
8.143576051e-22
1.027427567e-21
1.38247286e-21
1.912153256e-21
2.645037024e-21
3.582484229e-21
4.663258193e-21
5.721224202e-21
6.456813508e-21
1.423139889e-21
1.797559161e-21
2.422867538e-21
3.358807222e-21
4.65951959e-21
6.332684597e-21
8.275226039e-21
1.01936861e-20
1.154471558e-20
2.49396991e-21
3.155034388e-21
4.262464217e-21
5.927469613e-21
8.255305573e-21
1.12726625e-20
1.480920588e-20
1.834418478e-20
2.087750496e-20
4.386371756e-21
5.560606124e-21
7.535820674e-21
1.052325998e-20
1.473311614e-20
2.024468961e-20
2.678458505e-20
3.342382346e-20
3.828948449e-20
7.750554531e-21
9.852176024e-21
1.340636255e-20
1.882336378e-20
2.653418297e-20
3.675674031e-20
4.9073122e-20
6.181639695e-20
7.140977408e-20
1.377551871e-20
1.757202053e-20
2.403618873e-20
3.398333623e-20
4.831918823e-20
6.761546281e-20
9.128880013e-20
1.163293956e-19
1.357600601e-19
2.466406447e-20
3.159896864e-20
4.350548966e-20
6.20413749e-20
8.915142363e-20
1.262907805e-19
1.727991799e-19
2.232066899e-19
2.635991876e-19
4.455924557e-20
5.739294067e-20
7.964658821e-20
1.147644429e-19
1.66998674e-19
2.399754868e-19
3.334134915e-19
4.373037292e-19
5.232793152e-19
8.138788333e-20
1.054943484e-19
1.477751811e-19
2.15527941e-19
3.181855995e-19
4.646434646e-19
6.565088999e-19
8.753265149e-19
1.062029601e-18
1.506076213e-19
1.966486739e-19
2.784334923e-19
4.116891572e-19
6.175724721e-19
9.176254246e-19
1.319633726e-18
1.789233642e-18
2.201039667e-18
2.829933435e-19
3.725379676e-19
5.337772623e-19
8.010848659e-19
1.222266658e-18
1.848875384e-18
2.706064747e-18
3.728941662e-18
4.646904672e-18
5.411880099e-19
7.187356537e-19
1.04292144e-18
1.589691865e-18
2.467481378e-18
3.79813423e-18
5.651605834e-18
7.902708118e-18
9.959860005e-18
1.055693623e-18
1.414845755e-18
2.079573121e-18
3.218918872e-18
5.078838022e-18
7.943210343e-18
1.199045998e-17
1.697145819e-17
2.158188593e-17
2.104910587e-18
2.846265172e-18
4.235478813e-18
6.650245313e-18
1.064624608e-17
1.687361174e-17
2.575891993e-17
3.678571592e-17
4.706807361e-17
4.296986706e-18
5.858141436e-18
8.814156166e-18
1.400914711e-17
2.268868269e-17
3.631120191e-17
5.583888259e-17
8.015002041e-17
1.028692205e-16
8.991095009e-18
1.234264261e-17
1.873785278e-17
3.005789576e-17
4.90630665e-17
7.894645742e-17
1.217517035e-16
1.749302529e-16
2.244844626e-16
1.928927243e-17
2.661725862e-17
4.06638766e-17
6.560056921e-17
1.074607903e-16
1.730470869e-16
2.664121197e-16
3.815498518e-16
4.88011695e-16
4.239736608e-17
5.869376088e-17
8.997308786e-17
1.454363456e-16
2.380921994e-16
3.820353727e-16
5.846567286e-16
8.314543445e-16
1.056812575e-15
9.526493425e-17
1.32062277e-16
2.025911202e-16
3.270902539e-16
5.333558928e-16
8.499743298e-16
1.289125822e-15
1.815423913e-15
2.287990616e-15
2.179742208e-16
3.021342332e-16
4.629406865e-16
7.450755671e-16
1.208131442e-15
1.910159008e-15
2.869660316e-15
4.000853501e-15
4.997804418e-15
5.049677624e-16
6.992493412e-16
1.069247206e-15
1.715004222e-15
2.767598839e-15
4.351202978e-15
6.498895298e-15
9.009870717e-15
1.119481583e-14
1.175807781e-15
1.626324323e-15
2.482775371e-15
3.975058668e-15
6.407355721e-15
1.007942565e-14
1.510172104e-14
2.104458858e-14
2.625230116e-14
2.729887691e-15
3.77344898e-15
5.759642435e-15
9.235131195e-15
1.495776462e-14
2.376594162e-14
3.618604039e-14
5.146042104e-14
6.531746005e-14
6.274594622e-15
8.677638561e-15
1.327443535e-14
2.140841915e-14
3.508524932e-14
5.686515511e-14
8.905208646e-14
1.30862575e-13
1.707877969e-13
1.422046067e-14
1.971314672e-14
3.031504992e-14
4.939838868e-14
8.239536205e-14
1.370249338e-13
2.216004488e-13
3.366932848e-13
4.510130024e-13
3.183271413e-14
4.434448891e-14
6.87831933e-14
1.136304089e-13
1.932225258e-13
3.288844595e-13
5.440772255e-13
8.402546181e-13
1.133816146e-12
7.107173785e-14
9.97445045e-14
1.563869303e-13
2.618587585e-13
4.515481633e-13
7.75991463e-13
1.281965551e-12
1.948292202e-12
2.567777759e-12
1.6091547e-13
2.275488324e-13
3.598566462e-13
6.065200965e-13
1.045258189e-12
1.770111651e-12
2.825587126e-12
4.079472269e-12
5.115452208e-12
3.75075859e-13
5.315464301e-13
8.395672881e-13
1.401493152e-12
2.357221299e-12
3.817640535e-12
5.715617864e-12
7.690798094e-12
9.138306884e-12
8.997113832e-13
1.261942189e-12
1.954564871e-12
3.155087418e-12
5.038322598e-12
7.61265881e-12
1.056731643e-11
1.333627294e-11
1.522353541e-11
2.163386407e-12
2.953591521e-12
4.388691366e-12
6.688918357e-12
9.946087428e-12
1.394137741e-11
1.815755725e-11
2.192580397e-11
2.442031631e-11
4.974531516e-12
6.517692202e-12
9.142867729e-12
1.300821108e-11
1.803026935e-11
2.382021254e-11
2.976090833e-11
3.502662001e-11
3.848755811e-11
1.044010964e-11
1.307027468e-11
1.730081234e-11
2.318460448e-11
3.053910294e-11
3.890957186e-11
4.753419466e-11
5.524405738e-11
6.032224547e-11
1.960791079e-11
2.365350292e-11
2.999266162e-11
3.866154359e-11
4.948350066e-11
6.193954581e-11
7.498670624e-11
8.683455859e-11
9.473652043e-11
3.345269508e-11
3.944931363e-11
4.882481667e-11
6.17164737e-11
7.80374506e-11
9.717988652e-11
1.176654953e-10
1.36707567e-10
1.497017233e-10
5.335051989e-11
6.224598333e-11
7.62546242e-11
9.577209542e-11
1.209106093e-10
1.510495981e-10
1.841607042e-10
2.158597211e-10
2.381653772e-10
8.135930192e-11
9.465024479e-11
1.157740109e-10
1.456113483e-10
1.847896281e-10
2.329196604e-10
2.873500413e-10
3.411762306e-10
3.803510365e-10
1.203011741e-10
1.401508787e-10
1.720147005e-10
2.176983976e-10
2.788978334e-10
3.559736232e-10
4.456947329e-10
5.372572374e-10
6.060646134e-10
1.738527264e-10
2.03323676e-10
2.511104335e-10
3.20639644e-10
4.15593384e-10
5.379841524e-10
6.842116105e-10
8.375890238e-10
9.560436001e-10
2.47078256e-10
2.903987926e-10
3.613000526e-10
4.65838185e-10
6.110169112e-10
8.018237723e-10
1.034648315e-09
1.28419645e-09
1.481119538e-09
3.473717252e-10
4.102456272e-10
5.139380335e-10
6.684432653e-10
8.85786812e-10
1.175566261e-09
1.534527115e-09
1.925225477e-09
2.238450094e-09
4.859468799e-10
5.758700149e-10
7.249337783e-10
9.48564806e-10
1.265673892e-09
1.692139787e-09
2.225211953e-09
2.811063766e-09
3.2860757e-09
6.797218522e-10
8.062245792e-10
1.016364775e-09
1.332463241e-09
1.782032426e-09
2.388632101e-09
3.149947539e-09
3.991817726e-09
4.682255234e-09
9.530970605e-10
1.127781296e-09
1.417671823e-09
1.853153518e-09
2.471646008e-09
3.305517948e-09
4.353430027e-09
5.520523417e-09
6.490081244e-09
1.338856043e-09
1.575099592e-09
1.965733023e-09
2.549922129e-09
3.375928455e-09
4.486236426e-09
5.884008937e-09
7.443126805e-09
8.730879189e-09
1.877539876e-09
2.189886748e-09
2.70362535e-09
3.467157888e-09
4.54094524e-09
5.981898112e-09
7.783471775e-09
9.769994962e-09
1.140485882e-08
2.615527664e-09
3.019187042e-09
3.679506026e-09
4.6546006e-09
6.023170416e-09
7.832958425e-09
1.006038565e-08
1.248908883e-08
1.447562106e-08
3.603948728e-09
4.115583594e-09
4.952013571e-09
6.176206473e-09
7.859949688e-09
1.005086311e-08
1.270809648e-08
1.557055689e-08
1.789348026e-08
4.908957266e-09
5.547734708e-09
6.575842687e-09
8.057409059e-09
1.006097106e-08
1.262970074e-08
1.570095353e-08
1.896429154e-08
2.1587427e-08
6.579194484e-09
7.348553807e-09
8.572586467e-09
1.031104462e-08
1.263038414e-08
1.555451926e-08
1.899607874e-08
2.260258191e-08
2.547095199e-08
8.636567456e-09
9.536195609e-09
1.095272285e-08
1.293837846e-08
1.554756514e-08
1.878362879e-08
2.25311839e-08
2.640303412e-08
2.94473609e-08
1.108982657e-08
1.211263627e-08
1.370625438e-08
1.591550526e-08
1.877285248e-08
2.226043504e-08
2.62298263e-08
3.027376802e-08
3.341550469e-08
1.39300495e-08
1.506279089e-08
1.681180812e-08
1.920172943e-08
2.224786102e-08
2.590619552e-08
3.000405822e-08
3.411838419e-08
3.727512972e-08
1.712745474e-08
1.834870195e-08
2.021700956e-08
2.273900737e-08
2.590294282e-08
2.964003856e-08
3.376261515e-08
3.784144064e-08
4.093119359e-08
2.063275195e-08
2.191455041e-08
2.38573504e-08
2.644760679e-08
2.964931833e-08
3.337100709e-08
3.741139389e-08
4.134859462e-08
4.429150752e-08
2.437879942e-08
2.568830373e-08
2.765477951e-08
3.024425926e-08
3.339775734e-08
3.700323584e-08
4.08495745e-08
4.453154704e-08
4.723497076e-08
2.828259536e-08
2.958345884e-08
3.151845054e-08
3.403357992e-08
3.704737437e-08
4.042653481e-08
4.394536955e-08
4.720486066e-08
4.945440057e-08
3.224665245e-08
3.349973062e-08
3.534388082e-08
3.770472578e-08
4.0475734e-08
4.34930352e-08
4.648830603e-08
4.916730581e-08
5.105055156e-08
3.615525803e-08
3.73167317e-08
3.900064828e-08
4.11077699e-08
4.349576133e-08
4.596046952e-08
4.840890766e-08
5.062247084e-08
5.218051711e-08
3.984777484e-08
4.086036076e-08
4.227825894e-08
4.396855752e-08
4.587112196e-08
4.787485677e-08
4.986077319e-08
5.164584641e-08
5.289383464e-08
4.300098226e-08
4.378868202e-08
4.490136962e-08
4.62537392e-08
4.776597277e-08
4.934667679e-08
5.089326368e-08
5.22651218e-08
5.321417321e-08
4.557260861e-08
4.618583606e-08
4.704763674e-08
4.808698887e-08
4.922988441e-08
5.040053091e-08
5.15210582e-08
5.249563857e-08
5.316078665e-08
4.768076334e-08
4.813010733e-08
4.875192359e-08
4.948517386e-08
5.026738935e-08
5.104052521e-08
5.175359834e-08
5.23542608e-08
5.275635651e-08
4.933134541e-08
4.961968823e-08
5.000628637e-08
5.044112145e-08
5.087597928e-08
5.127219845e-08
5.160563887e-08
5.186403842e-08
5.202925996e-08
5.050692677e-08
5.063914477e-08
5.079953769e-08
5.095075186e-08
5.10604499e-08
5.110989278e-08
5.110037773e-08
5.105508043e-08
5.101352633e-08
5.119636037e-08
5.118179035e-08
5.113153295e-08
5.10220263e-08
5.083746731e-08
5.057853186e-08
5.026956509e-08
4.996381273e-08
4.974780008e-08
5.140430105e-08
5.125674578e-08
5.101749114e-08
5.067710069e-08
5.023603067e-08
4.971297276e-08
4.915224437e-08
4.863149505e-08
4.827386563e-08
5.115320917e-08
5.089001905e-08
5.048803381e-08
4.995147885e-08
4.92959795e-08
4.855617345e-08
4.779284481e-08
4.710243334e-08
4.663503762e-08
5.048197798e-08
5.012278699e-08
4.958709651e-08
4.889164207e-08
4.806546628e-08
4.715656843e-08
4.623867565e-08
4.542174417e-08
4.487420985e-08
4.944249491e-08
4.900779647e-08
4.836818601e-08
4.755126892e-08
4.659736119e-08
4.556508892e-08
4.453758906e-08
4.363358997e-08
4.303245482e-08
4.809519547e-08
4.760517192e-08
4.689058296e-08
4.598795755e-08
4.494652941e-08
4.383278555e-08
4.273602679e-08
4.1779656e-08
4.114782935e-08
4.650486048e-08
4.597835731e-08
4.521551741e-08
4.425973036e-08
4.316677528e-08
4.200838612e-08
4.087716693e-08
3.989779814e-08
3.925434222e-08
4.473630899e-08
4.419010231e-08
4.340257899e-08
4.242196966e-08
4.130836301e-08
4.013639784e-08
3.899956593e-08
3.802112216e-08
3.73813015e-08
4.285083554e-08
4.229920085e-08
4.150687652e-08
4.052507758e-08
3.941620814e-08
3.825581084e-08
3.713631157e-08
3.617748252e-08
3.555301444e-08
4.090360226e-08
4.035815396e-08
3.957707065e-08
3.861293388e-08
3.75287705e-08
3.639939397e-08
3.531465486e-08
3.43893581e-08
3.378879575e-08
3.894203036e-08
3.841177807e-08
3.765427145e-08
3.672211671e-08
3.567759318e-08
3.459351422e-08
3.355604898e-08
3.267403756e-08
3.210322342e-08
3.700510261e-08
3.649666079e-08
3.577169411e-08
3.488177328e-08
3.388737389e-08
3.285837313e-08
3.187650163e-08
3.104403385e-08
3.050657159e-08
3.512340439e-08
3.464129397e-08
3.395490772e-08
3.311398671e-08
3.217643454e-08
3.12085417e-08
3.028713536e-08
2.950764184e-08
2.900535316e-08
3.331970074e-08
3.286669338e-08
3.222250217e-08
3.143447823e-08
3.055743112e-08
2.965366345e-08
2.879486645e-08
2.806957484e-08
2.760291278e-08
3.160984057e-08
3.118730185e-08
3.058698237e-08
2.98534821e-08
2.90382011e-08
2.819924832e-08
2.74031267e-08
2.673161164e-08
2.630001881e-08
3.000381808e-08
2.961202796e-08
2.905577036e-08
2.837669386e-08
2.762263726e-08
2.68474617e-08
2.611256282e-08
2.549321199e-08
2.50954193e-08
2.850686634e-08
2.814530084e-08
2.763220199e-08
2.700619181e-08
2.631152109e-08
2.559786171e-08
2.492167777e-08
2.435207254e-08
2.398633966e-08
2.71204901e-08
2.678805783e-08
2.63164494e-08
2.574127837e-08
2.510327253e-08
2.444805321e-08
2.382739188e-08
2.330460789e-08
2.296891075e-08
2.584338499e-08
2.553861833e-08
2.510633043e-08
2.457921118e-08
2.399459449e-08
2.339424354e-08
2.282551499e-08
2.234635203e-08
2.203852444e-08
2.467221886e-08
2.439342319e-08
2.399798921e-08
2.351581305e-08
2.298100594e-08
2.243169844e-08
2.191113053e-08
2.147228272e-08
2.119011971e-08
2.360227116e-08
2.334763762e-08
2.298644827e-08
2.254596363e-08
2.205726856e-08
2.155510405e-08
2.107889814e-08
2.067707549e-08
2.041840603e-08
2.262793906e-08
2.239562685e-08
2.206604214e-08
2.166398334e-08
2.121771773e-08
2.075884579e-08
2.032328538e-08
1.995529697e-08
1.971803271e-08
2.174312595e-08
2.153132031e-08
2.12307478e-08
2.086392442e-08
2.045651176e-08
2.003721681e-08
1.963873946e-08
1.93015473e-08
1.908371312e-08
2.094153079e-08
2.07484819e-08
2.047442898e-08
2.01397847e-08
1.976781372e-08
1.938456895e-08
1.901981066e-08
1.871056154e-08
1.851031277e-08
2.021685688e-08
2.004090446e-08
1.97910109e-08
1.948565962e-08
1.914591959e-08
1.879541787e-08
1.846123729e-08
1.817727879e-08
1.799290881e-08
1.956295718e-08
1.940254448e-08
1.917460055e-08
1.889584583e-08
1.858534458e-08
1.826451308e-08
1.795800127e-08
1.769688667e-08
1.752682786e-08
1.897393086e-08
1.882761103e-08
1.861956547e-08
1.836490816e-08
1.808087802e-08
1.77868813e-08
1.750536173e-08
1.726484726e-08
1.710766754e-08
1.844418338e-08
1.831062074e-08
1.812058153e-08
1.788771941e-08
1.762761489e-08
1.735785036e-08
1.709887234e-08
1.68769097e-08
1.67313063e-08
1.796846006e-08
1.784642779e-08
1.767265833e-08
1.74594804e-08
1.722097058e-08
1.697305913e-08
1.673438726e-08
1.652911307e-08
1.639390471e-08
1.754186074e-08
1.743023638e-08
1.727114869e-08
1.707572627e-08
1.685668396e-08
1.662845768e-08
1.640805895e-08
1.621778277e-08
1.609190106e-08
1.715984124e-08
1.705760094e-08
1.691174729e-08
1.673232325e-08
1.65308124e-08
1.632030085e-08
1.611633072e-08
1.593952235e-08
1.582200297e-08
1.681820638e-08
1.67244185e-08
1.659048207e-08
1.642545921e-08
1.623972158e-08
1.604513749e-08
1.58559257e-08
1.569120253e-08
1.558117655e-08
1.651309701e-08
1.642691549e-08
1.630370085e-08
1.615163009e-08
1.598007185e-08
1.5799797e-08
1.562383365e-08
1.546994839e-08
1.536663397e-08
1.624097378e-08
1.616163157e-08
1.604805537e-08
1.59076242e-08
1.574880291e-08
1.558137441e-08
1.541729656e-08
1.527312554e-08
1.517582008e-08
1.599859922e-08
1.592540197e-08
1.582048386e-08
1.569050523e-08
1.554311735e-08
1.538721459e-08
1.523379368e-08
1.509832588e-08
1.500639874e-08
1.578301891e-08
1.571533894e-08
1.5618193e-08
1.549759478e-08
1.53604639e-08
1.521489634e-08
1.50710263e-08
1.494335321e-08
1.485623894e-08
1.559154247e-08
1.552881307e-08
1.543863977e-08
1.532645494e-08
1.519852075e-08
1.506221647e-08
1.492690281e-08
1.480620893e-08
1.472340109e-08
1.542172478e-08
1.536343498e-08
1.52795137e-08
1.517487111e-08
1.50551792e-08
1.492717427e-08
1.479952386e-08
1.468507805e-08
1.460612351e-08
1.527134784e-08
1.521703751e-08
1.513871952e-08
1.50408354e-08
1.492852772e-08
1.480795643e-08
1.468716814e-08
1.457831561e-08
1.450280936e-08
1.51384033e-08
1.508765856e-08
1.50143606e-08
1.492253067e-08
1.481683675e-08
1.470292249e-08
1.458827854e-08
1.448443351e-08
1.441201391e-08
1.502107575e-08
1.497352479e-08
1.490472309e-08
1.481831522e-08
1.471854408e-08
1.461059099e-08
1.450144899e-08
1.4402088e-08
1.433243244e-08
1.491772687e-08
1.487303608e-08
1.480826083e-08
1.472670835e-08
1.463224095e-08
1.452962624e-08
1.442541189e-08
1.433006759e-08
1.426288855e-08
1.482688047e-08
1.478475084e-08
1.47235811e-08
1.464637655e-08
1.455665897e-08
1.44588258e-08
1.43590262e-08
1.426728176e-08
1.420232323e-08
1.47472084e-08
1.470737218e-08
1.464943122e-08
1.457612066e-08
1.44906577e-08
1.439710872e-08
1.430126624e-08
1.421275024e-08
1.414978443e-08
1.467751728e-08
1.463973502e-08
1.458468598e-08
1.451486373e-08
1.443321313e-08
1.434350452e-08
1.425121117e-08
1.41655929e-08
1.410441732e-08
1.461673621e-08
1.458079393e-08
1.452833589e-08
1.446163972e-08
1.438340685e-08
1.429714287e-08
1.420803526e-08
1.412502048e-08
1.406545522e-08
1.456390529e-08
1.45296119e-08
1.447947628e-08
1.441558301e-08
1.4340416e-08
1.425724408e-08
1.417099872e-08
1.409032584e-08
1.403221118e-08
1.451816494e-08
1.448534998e-08
1.443729721e-08
1.437591874e-08
1.430350406e-08
1.422311027e-08
1.41394394e-08
1.406087595e-08
1.400407016e-08
1.447874617e-08
1.444725766e-08
1.440107419e-08
1.434195382e-08
1.427201227e-08
1.419411726e-08
1.411276502e-08
1.403610455e-08
1.398048194e-08
1.444496154e-08
1.441466402e-08
1.437015964e-08
1.431306876e-08
1.424535186e-08
1.416970715e-08
1.409044616e-08
1.401550539e-08
1.396095452e-08
1.441619693e-08
1.438696977e-08
1.434397507e-08
1.428871021e-08
1.422299688e-08
1.414938155e-08
1.407200982e-08
1.399862609e-08
1.394504821e-08
1.439190402e-08
1.436363982e-08
1.432200403e-08
1.426838413e-08
1.420447775e-08
1.413269543e-08
1.405703356e-08
1.398506256e-08
1.393237017e-08
1.43715935e-08
1.434419665e-08
1.430378561e-08
1.425164962e-08
1.418937536e-08
1.411925157e-08
1.404514025e-08
1.397445398e-08
1.392256955e-08
1.435482887e-08
1.432821431e-08
1.428890865e-08
1.423811333e-08
1.417731577e-08
1.410869546e-08
1.403599327e-08
1.396647818e-08
1.391533307e-08
1.434122085e-08
1.43153129e-08
1.427700644e-08
1.422742441e-08
1.416796541e-08
1.410071084e-08
1.402929221e-08
1.396084762e-08
1.391038102e-08
1.433042239e-08
1.43051537e-08
1.426775201e-08
1.421927001e-08
1.416102676e-08
1.409501557e-08
1.402476903e-08
1.395730562e-08
1.390746367e-08
1.43221241e-08
1.429743479e-08
1.426085385e-08
1.421337117e-08
1.415623452e-08
1.409135799e-08
1.402218458e-08
1.395562313e-08
1.390635813e-08
1.431605023e-08
1.429188701e-08
1.425605214e-08
1.420947921e-08
1.415335213e-08
1.408951366e-08
1.402132548e-08
1.395559572e-08
1.39068654e-08
1.431195506e-08
1.428827053e-08
1.425311525e-08
1.420737243e-08
1.415216865e-08
1.408928239e-08
1.402200139e-08
1.395704095e-08
1.390880784e-08
1.430961958e-08
1.428637156e-08
1.425183675e-08
1.42068532e-08
1.4152496e-08
1.409048564e-08
1.402404248e-08
1.395979599e-08
1.391202688e-08
1.430884868e-08
1.428599963e-08
1.425203268e-08
1.420774535e-08
1.415416651e-08
1.409296419e-08
1.402729723e-08
1.396371553e-08
1.391638097e-08
1.430946847e-08
1.428698497e-08
1.425353906e-08
1.420989187e-08
1.415703066e-08
1.409657602e-08
1.403163047e-08
1.396866988e-08
1.392174372e-08
1.431132402e-08
1.428917634e-08
1.425620978e-08
1.421315279e-08
1.416095517e-08
1.410119449e-08
1.40369216e-08
1.397454328e-08
1.39280023e-08
1.431427731e-08
1.429243894e-08
1.425991459e-08
1.421740333e-08
1.416582118e-08
1.410670665e-08
1.404306302e-08
1.398123241e-08
1.393505596e-08
1.431820533e-08
1.429665268e-08
1.426453746e-08
1.42225323e-08
1.417152274e-08
1.411301173e-08
1.404995871e-08
1.398864504e-08
1.394281475e-08
1.432299852e-08
1.430171053e-08
1.426997495e-08
1.422844057e-08
1.417796536e-08
1.412001989e-08
1.405752301e-08
1.399669885e-08
1.395119834e-08
1.432855922e-08
1.430751713e-08
1.427613489e-08
1.423503977e-08
1.418506481e-08
1.412765098e-08
1.406567948e-08
1.400532033e-08
1.3960135e-08
1.433480045e-08
1.431398751e-08
1.428293512e-08
1.424225114e-08
1.419274597e-08
1.413583349e-08
1.407435988e-08
1.401444386e-08
1.396956065e-08
1.434164469e-08
1.432104593e-08
1.429030243e-08
1.425000444e-08
1.420094185e-08
1.414450364e-08
1.408350334e-08
1.402401086e-08
1.397941806e-08
1.434902286e-08
1.432862491e-08
1.429817154e-08
1.425823707e-08
1.420959269e-08
1.415360451e-08
1.409305548e-08
1.403396898e-08
1.39896561e-08
1.435687337e-08
1.433666427e-08
1.430648426e-08
1.426689318e-08
1.421864519e-08
1.416308529e-08
1.410296776e-08
1.404427145e-08
1.400022905e-08
1.436514129e-08
1.434511033e-08
1.431518863e-08
1.42759229e-08
1.422805172e-08
1.41729006e-08
1.41131968e-08
1.405487647e-08
1.401109604e-08
1.437377758e-08
1.435391516e-08
1.432423829e-08
1.428528171e-08
1.423776976e-08
1.418300985e-08
1.412370377e-08
1.406574661e-08
1.402222045e-08
1.438273841e-08
1.436303589e-08
1.433359173e-08
1.429492973e-08
1.424776118e-08
1.419337668e-08
1.413445388e-08
1.407684831e-08
1.403356946e-08
1.439198444e-08
1.437243406e-08
1.434321171e-08
1.430483118e-08
1.425799177e-08
1.420396841e-08
1.414541583e-08
1.408815137e-08
1.404511352e-08
1.440148024e-08
1.4382075e-08
1.435306462e-08
1.431495374e-08
1.426843058e-08
1.421475547e-08
1.415656133e-08
1.40996285e-08
1.405682593e-08
1.441119363e-08
1.43919272e-08
1.43631199e-08
1.432526796e-08
1.427904942e-08
1.422571089e-08
1.416786452e-08
1.411125475e-08
1.406868231e-08
1.442109494e-08
1.44019616e-08
1.437334932e-08
1.433574662e-08
1.428982213e-08
1.423680965e-08
1.417930143e-08
1.412300702e-08
1.408066009e-08
1.443115632e-08
1.441215082e-08
1.43837262e-08
1.434636392e-08
1.430072391e-08
1.424802792e-08
1.419084919e-08
1.413486327e-08
1.40927378e-08
1.444135071e-08
1.442246824e-08
1.439422452e-08
1.435709456e-08
1.431173028e-08
1.425934216e-08
1.420248517e-08
1.414680173e-08
1.410489426e-08
1.445165073e-08
1.443288679e-08
1.440481767e-08
1.436791251e-08
1.432281592e-08
1.427072781e-08
1.421418571e-08
1.415879959e-08
1.411710731e-08
1.446202711e-08
1.444337737e-08
1.441547683e-08
1.437878935e-08
1.433395292e-08
1.428215765e-08
1.422592436e-08
1.417083129e-08
1.412935216e-08
1.44724467e-08
1.445390684e-08
1.44261689e-08
1.438969209e-08
1.434510851e-08
1.429359933e-08
1.423766947e-08
1.418286608e-08
1.414159889e-08
1.448286976e-08
1.446443522e-08
1.443685358e-08
1.440058012e-08
1.435624192e-08
1.430501215e-08
1.424938078e-08
1.419486452e-08
1.415380897e-08
1.449324642e-08
1.447491203e-08
1.444747957e-08
1.441140122e-08
1.436730011e-08
1.431634255e-08
1.426100471e-08
1.42067736e-08
1.416593028e-08
1.450351199e-08
1.448527144e-08
1.445797945e-08
1.442208617e-08
1.437821203e-08
1.432751801e-08
1.427246793e-08
1.421852007e-08
1.417789028e-08
1.451358093e-08
1.4495426e-08
1.446826313e-08
1.443254172e-08
1.438888117e-08
1.433843904e-08
1.428366884e-08
1.423000141e-08
1.418958669e-08
1.452333904e-08
1.450525861e-08
1.447820934e-08
1.444264154e-08
1.439917576e-08
1.434896875e-08
1.429446634e-08
1.424107405e-08
1.420087531e-08
1.453263383e-08
1.45146124e-08
1.448765495e-08
1.445221486e-08
1.440891661e-08
1.435891957e-08
1.43046657e-08
1.425153823e-08
1.421155423e-08
1.454126253e-08
1.452327833e-08
1.449638188e-08
1.446103239e-08
1.441786189e-08
1.436803696e-08
1.431400082e-08
1.426111914e-08
1.422134419e-08
1.45489577e-08
1.453098021e-08
1.450410128e-08
1.446878943e-08
1.442568892e-08
1.437597955e-08
1.43221129e-08
1.42694441e-08
1.42298646e-08
1.455537027e-08
1.453735713e-08
1.451043494e-08
1.447508596e-08
1.443197271e-08
1.438229601e-08
1.432852539e-08
1.427601564e-08
1.42366054e-08
1.456005009e-08
1.454194319e-08
1.451489397e-08
1.447940398e-08
1.443616153e-08
1.438639859e-08
1.433261534e-08
1.428018088e-08
1.424089485e-08
1.456242404e-08
1.454414493e-08
1.451685507e-08
1.448108218e-08
1.443754982e-08
1.438753392e-08
1.433358201e-08
1.428109786e-08
1.424186428e-08
1.456177242e-08
1.454321691e-08
1.451553497e-08
1.447928895e-08
1.44352493e-08
1.438475203e-08
1.433041358e-08
1.427770005e-08
1.423841079e-08
1.455720403e-08
1.453823613e-08
1.450996385e-08
1.447299446e-08
1.442815952e-08
1.437687504e-08
1.432185377e-08
1.426866084e-08
1.422916024e-08
1.454763135e-08
1.452807667e-08
1.449895919e-08
1.446094346e-08
1.441493936e-08
1.436246721e-08
1.430637029e-08
1.425236046e-08
1.42124328e-08
1.453174691e-08
1.45113858e-08
1.448110148e-08
1.444163057e-08
1.439398175e-08
1.4339809e-08
1.428212815e-08
1.422685834e-08
1.41862146e-08
1.450800296e-08
1.448656371e-08
1.445471412e-08
1.441328037e-08
1.436339413e-08
1.430687791e-08
1.424697086e-08
1.418987465e-08
1.414813927e-08
1.447459639e-08
1.445174904e-08
1.441784984e-08
1.437383505e-08
1.432098763e-08
1.426133948e-08
1.419841341e-08
1.413878494e-08
1.40954838e-08
1.442946134e-08
1.440481267e-08
1.436828633e-08
1.432095255e-08
1.426427826e-08
1.420055208e-08
1.41336508e-08
1.407063248e-08
1.40251834e-08
1.437027228e-08
1.434336267e-08
1.430353409e-08
1.425201824e-08
1.419050349e-08
1.412158909e-08
1.404958641e-08
1.398216227e-08
1.39338698e-08
1.429446015e-08
1.426476314e-08
1.422085925e-08
1.416417323e-08
1.409665725e-08
1.402128181e-08
1.394288342e-08
1.38698808e-08
1.381793689e-08
1.419924407e-08
1.41661694e-08
1.411732417e-08
1.405436195e-08
1.397954623e-08
1.389628582e-08
1.381004207e-08
1.373014394e-08
1.367363657e-08
1.408168088e-08
1.404458177e-08
1.39898475e-08
1.391940078e-08
1.383586895e-08
1.374317225e-08
1.364750418e-08
1.355927421e-08
1.349720539e-08
1.393873367e-08
1.389691899e-08
1.383528508e-08
1.375606858e-08
1.366231828e-08
1.355854396e-08
1.345178406e-08
1.335370602e-08
1.32850205e-08
1.376735977e-08
1.372011156e-08
1.365053115e-08
1.356121842e-08
1.345570568e-08
1.333917429e-08
1.321962282e-08
1.311015506e-08
1.303378018e-08
1.3564617e-08
1.351121342e-08
1.343263805e-08
1.333190763e-08
1.321310392e-08
1.308216395e-08
1.29481603e-08
1.282580453e-08
1.274070066e-08
1.332778558e-08
1.326752887e-08
1.317895073e-08
1.306554193e-08
1.293200237e-08
1.278510885e-08
1.263511589e-08
1.249849828e-08
1.240371811e-08
1.305450116e-08
1.298675002e-08
1.288725028e-08