/*--------------------------------*- C++ -*----------------------------------*\
| =========                 |                                                 |
| \\      /  F ield         | OpenFOAM: The Open Source CFD Toolbox           |
|  \\    /   O peration     | Version:  2212                                  |
|   \\  /    A nd           | Website:  www.openfoam.com                      |
|    \\/     M anipulation  |                                                 |
\*---------------------------------------------------------------------------*/
FoamFile
{
    version     2.0;
    format      ascii;
    arch        "LSB;label=32;scalar=64";
    class       volScalarField;
    location    "30.00000000";
    object      H2;
}
// * * * * * * * * * * * * * * * * * * * * * * * * * * * * * * * * * * * * * //

dimensions      [0 0 0 0 0 0 0];

internalField   nonuniform List<scalar> 
3000
(
4.600872031e-21
5.168984264e-21
6.026302849e-21
7.168830783e-21
8.585015e-21
1.023645725e-20
1.202369931e-20
1.372925896e-20
1.493524304e-20
1.72758185e-20
1.948743428e-20
2.28234893e-20
2.72792323e-20
3.285046683e-20
3.950671317e-20
4.713230626e-20
5.534411113e-20
6.261606366e-20
3.870664415e-20
4.400565447e-20
5.207511643e-20
6.303239899e-20
7.707493635e-20
9.440719428e-20
1.149601006e-19
1.37581664e-19
1.569088954e-19
7.375069378e-20
8.472733818e-20
1.016882102e-19
1.252085869e-19
1.561231067e-19
1.952190434e-19
2.422827982e-19
2.93551677e-19
3.349301841e-19
1.310219424e-19
1.523738832e-19
1.858863043e-19
2.332650318e-19
2.96742025e-19
3.781008161e-19
4.759831265e-19
5.799442239e-19
6.597541899e-19
2.254267987e-19
2.655264205e-19
3.293672886e-19
4.21031937e-19
5.454190853e-19
7.056698944e-19
8.970041209e-19
1.095300843e-18
1.242024995e-18
3.829457176e-19
4.566558706e-19
5.75375418e-19
7.477633876e-19
9.834382326e-19
1.287107425e-18
1.646226181e-18
2.011153312e-18
2.274509631e-18
6.485490435e-19
7.820399923e-19
9.989562791e-19
1.316368102e-18
1.752011999e-18
2.312197893e-18
2.968848244e-18
3.626393658e-18
4.092995535e-18
1.100218806e-18
1.339408648e-18
1.730581127e-18
2.305851995e-18
3.0967619e-18
4.110951166e-18
5.291160018e-18
6.460625287e-18
7.281284308e-18
1.873064386e-18
2.298218287e-18
2.996638948e-18
4.02695133e-18
5.444133041e-18
7.25635137e-18
9.353268994e-18
1.141568731e-17
1.285211787e-17
3.201324689e-18
3.952438947e-18
5.190037673e-18
7.018986309e-18
9.533985762e-18
1.274177721e-17
1.643722773e-17
2.005292344e-17
2.255886628e-17
5.491232035e-18
6.812127446e-18
8.992721364e-18
1.221796466e-17
1.664957293e-17
2.228804467e-17
2.876033236e-17
3.50698107e-17
3.943277662e-17
9.447854422e-18
1.176317491e-17
1.558996411e-17
2.125138262e-17
2.90213002e-17
3.888069598e-17
5.015598759e-17
6.111512099e-17
6.872170238e-17
1.629582375e-17
2.03461016e-17
2.704639325e-17
3.695998709e-17
5.054922407e-17
6.773802815e-17
8.727823595e-17
1.061297041e-16
1.195828518e-16
2.816231122e-17
3.524051102e-17
4.696225107e-17
6.431890576e-17
8.811243615e-17
1.181493354e-16
1.519551717e-16
1.829784099e-16
2.084427771e-16
4.873742488e-17
6.109622716e-17
8.1589755e-17
1.119912454e-16
1.5380804e-16
2.070273618e-16
2.683685482e-16
3.296630603e-16
3.679842335e-16
8.441351937e-17
1.059555065e-16
1.41698411e-16
1.947431104e-16
2.676926222e-16
3.603660738e-16
4.663938078e-16
5.691945064e-16
6.38987834e-16
1.462770134e-16
1.837696506e-16
2.459907946e-16
3.383213086e-16
4.652196027e-16
6.262063594e-16
8.099665797e-16
9.877005662e-16
1.109360139e-15
2.53568984e-16
3.187630658e-16
4.269679465e-16
5.875208483e-16
8.081114468e-16
1.087807315e-15
1.406878307e-15
1.715393218e-15
1.926720809e-15
4.396881217e-16
5.529935405e-16
7.410694052e-16
1.020131905e-15
1.403497653e-15
1.889473158e-15
2.443725666e-15
2.979533512e-15
3.346509925e-15
7.626104118e-16
9.594739715e-16
1.286278454e-15
1.771194427e-15
2.437312778e-15
3.281606083e-15
4.244344261e-15
5.174858341e-15
5.812053361e-15
1.322984455e-15
1.664963007e-15
2.232708207e-15
3.075152054e-15
4.232343349e-15
5.698896847e-15
7.370920833e-15
8.986679867e-15
1.009295247e-14
2.295562642e-15
2.889554236e-15
3.875734033e-15
5.339075268e-15
7.349032096e-15
9.896047432e-15
1.279945693e-14
1.560468165e-14
1.75251548e-14
3.983797964e-15
5.015443644e-15
6.72828071e-15
9.26982725e-15
1.276050584e-14
1.718337284e-14
2.22243187e-14
2.709406829e-14
3.04275453e-14
6.914680834e-15
8.706378791e-15
1.16811049e-14
1.609486193e-14
2.215635377e-14
2.983553502e-14
3.858642292e-14
4.703876536e-14
5.282409499e-14
1.200343531e-14
1.511507747e-14
2.028106549e-14
2.794544887e-14
3.846965716e-14
5.180019739e-14
6.698807738e-14
8.165493128e-14
9.169252626e-14
2.083951028e-14
2.624338171e-14
3.521420066e-14
4.852169453e-14
6.679108842e-14
8.992640647e-14
1.162778308e-13
1.417182211e-13
1.591249354e-13
3.618304398e-14
4.55674346e-14
6.114405802e-14
8.424594855e-14
1.159528762e-13
1.560909065e-13
2.017909706e-13
2.45893929e-13
2.760597421e-13
6.282585191e-14
7.912167248e-14
1.06164631e-13
1.46260396e-13
2.012693717e-13
2.708721765e-13
3.500772102e-13
4.26472101e-13
4.786994963e-13
1.090829746e-13
1.373762207e-13
1.843152372e-13
2.538811765e-13
3.492691789e-13
4.698831037e-13
6.070331349e-13
7.392141073e-13
8.295154845e-13
1.893723367e-13
2.384825885e-13
3.199246843e-13
4.405568599e-13
6.058425879e-13
8.146485053e-13
1.051835083e-12
1.280180169e-12
1.436020142e-12
3.286663614e-13
4.13871106e-13
5.550942286e-13
7.641134844e-13
1.050216204e-12
1.41120666e-12
1.82068635e-12
2.214318077e-12
2.482586596e-12
5.701520158e-13
7.178735908e-13
9.625407e-13
1.324296122e-12
1.818804656e-12
2.441737268e-12
3.147026084e-12
3.823677145e-12
4.283959133e-12
9.883647234e-13
1.244199859e-12
1.667538422e-12
2.29264407e-12
3.145669547e-12
4.217956215e-12
5.4290623e-12
6.587994035e-12
7.374386691e-12
1.711610838e-12
2.154012592e-12
2.885195638e-12
3.963040334e-12
5.430632443e-12
7.270481916e-12
9.342101867e-12
1.13179633e-11
1.26544417e-11
2.960053377e-12
3.723488059e-12
4.98335695e-12
6.836576427e-12
9.3529171e-12
1.249688984e-11
1.602328959e-11
1.937295725e-11
2.162978899e-11
5.110023538e-12
6.423844346e-12
8.587915559e-12
1.17627319e-11
1.60587839e-11
2.140413726e-11
2.737155289e-11
3.301187227e-11
3.67940418e-11
8.801894934e-12
1.105496542e-11
1.475754503e-11
2.017180078e-11
2.746768611e-11
3.650033173e-11
4.652774141e-11
5.595016157e-11
6.223341782e-11
1.511968248e-11
1.896658865e-11
2.527068931e-11
3.445310792e-11
4.676531867e-11
6.191885402e-11
7.863164363e-11
9.42305139e-11
1.045667796e-10
2.588759213e-11
3.242094151e-11
4.309170464e-11
5.856268576e-11
7.918653451e-11
1.043977116e-10
1.319969245e-10
1.575623385e-10
1.743842055e-10
4.415524686e-11
5.518109443e-11
7.31189167e-11
9.898647171e-11
1.332403211e-10
1.747926509e-10
2.199062055e-10
2.613506255e-10
2.884151037e-10
7.498378598e-11
9.345481775e-11
1.233698411e-10
1.662456251e-10
2.225978525e-10
2.903792288e-10
3.633121515e-10
4.297239999e-10
4.727495269e-10
1.267057241e-10
1.573906793e-10
2.068342301e-10
2.772156303e-10
3.689596905e-10
4.78303908e-10
5.948444849e-10
6.999935669e-10
7.675628898e-10
2.129206654e-10
2.634197407e-10
3.443321861e-10
4.586488897e-10
6.063485615e-10
7.806873947e-10
9.646785752e-10
1.129140661e-09
1.233967469e-09
3.556173656e-10
4.378730954e-10
5.688630501e-10
7.524528701e-10
9.874523537e-10
1.262079026e-09
1.549034323e-09
1.803159641e-09
1.963851226e-09
5.899935434e-10
7.224960937e-10
9.32135208e-10
1.22349798e-09
1.592885481e-09
2.020228592e-09
2.462365797e-09
2.850393994e-09
3.093888856e-09
9.717946905e-10
1.182741537e-09
1.514245972e-09
1.971032188e-09
2.544569238e-09
3.20150777e-09
3.874700791e-09
4.460430036e-09
4.825352365e-09
1.588332338e-09
1.920078489e-09
2.437859077e-09
3.145191069e-09
4.02488476e-09
5.022811935e-09
6.036132315e-09
6.910691862e-09
7.451949606e-09
2.574797106e-09
3.090029721e-09
3.888737969e-09
4.970649505e-09
6.30386662e-09
7.802449113e-09
9.311199445e-09
1.060366561e-08
1.13987335e-08
4.138087572e-09
4.928288078e-09
6.145179261e-09
7.780212495e-09
9.7775333e-09
1.200343378e-08
1.422688619e-08
1.611873947e-08
1.727622411e-08
6.591180563e-09
7.78811231e-09
9.619808956e-09
1.206214785e-08
1.502155796e-08
1.829382102e-08
2.153929513e-08
2.428407167e-08
2.595536568e-08
1.040213782e-08
1.219333672e-08
1.49184281e-08
1.85263987e-08
2.286594668e-08
2.763032328e-08
3.232580721e-08
3.627578766e-08
3.867093206e-08
1.626326321e-08
1.891284232e-08
2.292222308e-08
2.819657077e-08
3.449829287e-08
4.137352428e-08
4.811181616e-08
5.375427045e-08
5.716361307e-08
2.518779459e-08
2.906437826e-08
3.490185102e-08
4.25369069e-08
5.160560639e-08
6.14455682e-08
7.104392473e-08
7.90504087e-08
8.387428206e-08
3.864172024e-08
4.425530643e-08
5.267170935e-08
6.362431097e-08
7.656732141e-08
9.054554741e-08
1.041264028e-07
1.154193002e-07
1.222078689e-07
5.872475573e-08
6.677617953e-08
7.880205048e-08
9.438370091e-08
1.12717076e-07
1.324391231e-07
1.515378941e-07
1.673794302e-07
1.768861437e-07
8.841673303e-08
9.98632202e-08
1.16904891e-07
1.389037553e-07
1.646931645e-07
1.923459164e-07
2.190538984e-07
2.411634726e-07
2.544150025e-07
1.319075725e-07
1.480491706e-07
1.720155354e-07
2.028574079e-07
2.389039245e-07
2.774520872e-07
3.146040528e-07
3.45312633e-07
3.637020313e-07
1.950353015e-07
2.176279958e-07
2.510963401e-07
2.940549598e-07
3.441373404e-07
3.975794126e-07
4.489992879e-07
4.9145497e-07
5.168682714e-07
2.858597451e-07
3.17261767e-07
3.636919118e-07
4.231600113e-07
4.923468078e-07
5.660467319e-07
6.368701934e-07
6.95310692e-07
7.302940889e-07
4.154006033e-07
4.587586098e-07
5.227651257e-07
6.045993654e-07
6.996487327e-07
8.007652583e-07
8.978587273e-07
9.779621485e-07
1.025934972e-06
5.985659983e-07
6.580485743e-07
7.457433675e-07
8.577015938e-07
9.87571931e-07
1.125606338e-06
1.258096042e-06
1.367419777e-06
1.432939214e-06
8.5529727e-07
9.363866247e-07
1.055809031e-06
1.208100494e-06
1.384589512e-06
1.572064135e-06
1.751986822e-06
1.90050501e-06
1.989589476e-06
1.211963102e-06
1.321815922e-06
1.483462729e-06
1.689420519e-06
1.927939383e-06
2.181215227e-06
2.424300551e-06
2.62505019e-06
2.745566659e-06
1.703023788e-06
1.850901963e-06
2.068355775e-06
2.345229334e-06
2.665711375e-06
3.005947229e-06
3.332536708e-06
3.602376378e-06
3.764495515e-06
2.372945653e-06
2.570709147e-06
2.861354826e-06
3.231210211e-06
3.659143258e-06
4.113385366e-06
4.549476489e-06
4.909951071e-06
5.126668092e-06
3.278316261e-06
3.540963121e-06
3.926771096e-06
4.417474436e-06
4.985023765e-06
5.587387534e-06
6.165766268e-06
6.644047717e-06
6.931752311e-06
4.49008878e-06
4.836320809e-06
5.344662774e-06
5.990894793e-06
6.738052182e-06
7.53092249e-06
8.292307205e-06
8.922142715e-06
9.301194904e-06
6.09587044e-06
6.548646574e-06
7.213085007e-06
8.057309428e-06
9.032970723e-06
1.006810527e-05
1.1062177e-05
1.188472804e-05
1.237996295e-05
8.202136313e-06
8.789165167e-06
9.650142125e-06
1.07434261e-05
1.200626901e-05
1.334565393e-05
1.463181095e-05
1.569623347e-05
1.633729635e-05
1.093622597e-05
1.169033758e-05
1.279567187e-05
1.419823774e-05
1.581725301e-05
1.75335473e-05
1.918122277e-05
2.054485961e-05
2.136630427e-05
1.444793624e-05
1.540726297e-05
1.681235186e-05
1.859372737e-05
2.064825163e-05
2.282466919e-05
2.491309424e-05
2.664124752e-05
2.768251104e-05
1.891046259e-05
2.011835117e-05
2.188596392e-05
2.412459207e-05
2.670369079e-05
2.943317439e-05
3.205048467e-05
3.421579152e-05
3.552093419e-05
2.452038356e-05
2.602496009e-05
2.822451387e-05
3.100669278e-05
3.42077465e-05
3.759126639e-05
4.083274164e-05
4.351287353e-05
4.512744851e-05
3.149636503e-05
3.334969015e-05
3.605592938e-05
3.947400008e-05
4.340046073e-05
4.754453513e-05
5.150892905e-05
5.478216194e-05
5.675187016e-05
4.007630994e-05
4.233309298e-05
4.562414607e-05
4.977389948e-05
5.453230058e-05
5.954402365e-05
6.432836324e-05
6.827126239e-05
7.064065838e-05
5.051280335e-05
5.322867829e-05
5.718364652e-05
6.216091895e-05
6.785450042e-05
7.383596815e-05
7.953164677e-05
8.42148861e-05
8.702416241e-05
6.306713336e-05
6.629627526e-05
7.099038152e-05
7.688433677e-05
8.36085224e-05
9.065212053e-05
9.733954539e-05
0.0001028235994
0.000106106157
7.79977464e-05
8.178879195e-05
8.728927584e-05
9.417850236e-05
0.0001020147448
0.0001101971046
0.0001179405981
0.0001242714406
0.0001280513752
9.55481255e-05
9.994182384e-05
0.0001063037749
0.0001142505037
0.0001232609363
0.0001326368654
0.0001414787372
0.0001486835108
0.0001529732237
0.0001159353289
0.000120961272
0.0001282231435
0.0001372678756
0.0001474888742
0.0001580853297
0.0001680409415
0.0001761242198
0.0001809224159
0.0001393362561
0.0001450095803
0.0001531883731
0.0001633449585
0.0001747818729
0.0001865931984
0.0001976464038
0.0002065871709
0.0002118773825
0.0001658737501
0.0001721923943
0.0001812802743
0.0001925307908
0.0002051533282
0.0002181370408
0.000230237499
0.0002399872763
0.0002457370165
0.0001956032386
0.0002025456724
0.0002125068125
0.000224799093
0.0002385384423
0.0002526125923
0.0002656738865
0.0002761556019
0.000282315784
0.0002285012019
0.0002360251383
0.000246794186
0.0002600400617
0.0002747879293
0.0002898308894
0.0003037300514
0.0003148369439
0.0003213398603
0.0002644565597
0.000272498951
0.0002839813866
0.0002980577054
0.0003136679308
0.0003295201691
0.0003440986355
0.0003556922302
0.00036244013
0.0003032658862
0.0003117444254
0.0003238191103
0.0003385715468
0.0003548652567
0.0003713353484
0.0003864048962
0.0003983321121
0.0004052609155
0.0003446328471
0.0003534490335
0.0003659729272
0.0003812224984
0.0003979974632
0.0004148739228
0.0004302627896
0.0004424127324
0.0004494572465
0.0003881714407
0.0003972152422
0.0004100298386
0.0004255796356
0.0004426324032
0.0004597473006
0.0004753119092
0.0004875719532
0.0004946675343
0.0004334114803
0.0004425692853
0.0004555253044
0.000471219764
0.0004883902676
0.0005055819324
0.0005211792697
0.0005334395077
0.0005405240597
0.000479898229
0.0004890829152
0.0005020590073
0.0005177501668
0.0005348811465
0.0005519959444
0.0005674911852
0.0005796493177
0.0005866656959
0.0005272136175
0.0005363414693
0.0005492213138
0.0005647712294
0.0005817169921
0.0005986149026
0.0006138867593
0.0006258518836
0.0006327498177
0.0005749350989
0.0005839297417
0.0005966080875
0.0006118937852
0.0006285260083
0.0006450854443
0.000660030031
0.0006717252512
0.0006784626274
0.0006226543923
0.0006314498644
0.0006438366076
0.0006587541047
0.0006749657313
0.0006910867384
0.0007056199062
0.0007169837664
0.0007235272653
0.0006699941361
0.0006785368529
0.0006905594896
0.0007050261934
0.0007207334855
0.0007363392086
0.0007503973831
0.0007613841973
0.0007677093427
0.0007166211647
0.0007248707762
0.0007364753439
0.0007504307702
0.000765573626
0.0007806101682
0.0007941498552
0.0008047290896
0.0008108198029
0.0007622556606
0.0007701849114
0.0007813355915
0.000794740593
0.0008092813747
0.0008237163244
0.0008367125488
0.0008468674699
0.0008527152526
0.0008066759226
0.0008142697003
0.0008249473541
0.0008377821773
0.0008517034062
0.0008655233716
0.0008779673491
0.000887693169
0.000893296043
0.0008497189402
0.0008569727316
0.0008671726719
0.0008794342082
0.0008927355259
0.0009059431063
0.000917839532
0.0009271413238
0.0009325026643
0.0008912773881
0.0008981954379
0.0009079248397
0.0009196235239
0.0009323183608
0.0009449288934
0.0009562930926
0.0009651836482
0.0009703110066
0.000931294143
0.0009378874982
0.0009471626883
0.0009583193129
0.0009704315393
0.0009824699044
0.0009933250905
0.001001822889
0.001006726886
0.0009697550582
0.0009760396884
0.0009848835681
0.0009955262927
0.001007087117
0.001018584822
0.001028959623
0.001037087017
0.001041780359
0.001006680995
0.001012676114
0.001021115871
0.001031277593
0.001042322864
0.001053315527
0.001063241876
0.00107102355
0.001075520198
0.001042119875
0.001047846524
0.001055911722
0.001065627891
0.001076195874
0.001086721174
0.001096232587
0.001103694313
0.001108008806
0.001076139292
0.001081619221
0.001089340282
0.001098647182
0.001108776816
0.001118872885
0.001128003136
0.001135170803
0.001139317737
0.001108820046
0.001114074863
0.001121481928
0.001130415389
0.001140144997
0.001149849231
0.001158631354
0.001165530262
0.00116952391
0.001140250723
0.001145301298
0.001152423424
0.001161017906
0.001170384246
0.001179732489
0.001188198126
0.001194852495
0.001198706523
0.001170523339
0.001175389387
0.001182254001
0.001190542012
0.001199579756
0.001208605766
0.001216784697
0.001223217326
0.001226944612
0.001199730014
0.001204429873
0.001211062482
0.001219074236
0.001227815587
0.001236550717
0.0012444706
0.001250702677
0.001254315205
0.001227960565
0.001232511077
0.001238935105
0.001246698348
0.001255172878
0.00126364592
0.001271332171
0.001277383183
0.001280891993
0.001255300795
0.001259717276
0.001265954024
0.001273493989
0.0012817286
0.001289965761
0.00129744153
0.001303329245
0.001306744416
0.001281831374
0.001286127636
0.00129219632
0.00129953578
0.001307554758
0.001315579713
0.001322865929
0.001328606431
0.0013319371
0.001307627179
0.001311815598
0.001317733438
0.001324892806
0.001332717937
0.001340551936
0.001347667403
0.001353275156
0.001356529548
0.001332756981
0.001336848582
0.001342630924
0.001349628399
0.001357279113
0.001364941123
0.001371902638
0.001377390574
0.001380576053
0.001357283384
0.001361287939
0.001366948388
0.001373800113
0.001381293653
0.001388800518
0.001395623006
0.001401002627
0.001404125749
0.00138126294
0.001385189071
0.001390739636
0.001397459863
0.001404811461
0.001412178063
0.001418874723
0.001424156206
0.001427222777
0.001404746392
0.001408601675
0.001414052906
0.001420654162
0.001427877209
0.001435116643
0.001441699089
0.001446891398
0.001449906534
0.001427778988
0.00143157005
0.001436931182
0.001443424428
0.001450530649
0.001457654377
0.001464132784
0.001469243774
0.001472211961
0.001450400852
0.001454133468
0.001459412544
0.001465807333
0.001472806943
0.001479824957
0.001486208197
0.001491244717
0.001494169871
0.001472647376
0.001476326554
0.001481530551
0.00148783517
0.00149473703
0.001501658001
0.00150795377
0.001512921765
0.001515807285
0.001494549618
0.001498179682
0.001503314627
0.00150953623
0.001516347993
0.001523179404
0.001529394348
0.001534298953
0.001537147775
0.0015161347
0.001519719368
0.001524790438
0.001530935173
0.001537663413
0.001544411696
0.001550551524
0.001555397151
0.0015582118
0.001537426193
0.001540968644
0.001545980268
0.001552053393
0.001558703731
0.001565374382
0.001571443975
0.001576234395
0.001579017028
0.001558444486
0.001561947427
0.001566903372
0.001572909358
0.001579486575
0.001586084267
0.001592087774
0.001596826194
0.001599578647
0.001579207133
0.001582672854
0.001587576309
0.001593518939
0.001600027076
0.001606555762
0.001612496692
0.001617185823
0.001619909649
0.001599729175
0.001603159603
0.00160801325
0.001613895708
0.001620338166
0.00162680117
0.001632682472
0.001637324595
0.001640021099
0.001620023443
0.00162342019
0.001628226276
0.001634051223
0.001640430846
0.001646830946
0.001652655086
0.001657252107
0.001659922383
0.001640100839
0.001643465247
0.001648225636
0.001653995285
0.001660314435
0.001666653939
0.001672422966
0.001676976469
0.001679621425
0.001659970581
0.001663303758
0.001668019991
0.001673736167
0.001679996794
0.001686277608
0.001691993215
0.00169650451
0.001699124899
0.001679640431
0.001682943285
0.001687616626
0.001693280828
0.001699484533
0.00170570822
0.001711371797
0.00171584196
0.001718438399
0.001699116897
0.001702390169
0.001707021648
0.001712635099
0.001718783185
0.001724951023
0.001730563703
0.001734993614
0.001737566611
0.001718405422
0.001721649712
0.001726240163
0.001731803851
0.001737897377
0.0017440104
0.001749573105
0.001753963478
0.001756513444
0.00173751054
0.001740726329
0.001745276424
0.001750791146
0.001756830963
0.001762890006
0.001768403481
0.001772754896
0.001775282166
0.001756436021
0.001759623696
0.001764133971
0.001769600365
0.001775587157
0.001781592891
0.001787057735
0.00179137066
0.001793875505
0.001775185
0.001778344866
0.00178281575
0.001788234323
0.001794168637
0.0018001216
0.001805538294
0.001809813107
0.001812295747
0.001793760078
0.001796892379
0.001801324211
0.00180669537
0.001812577641
0.001818478264
0.001823847197
0.001828084202
0.001830544815
0.001812163424
0.001815268353
0.001819661403
0.00182498547
0.001830816049
0.001836664678
0.001841986164
0.00184618561
0.001848624343
0.001830396854
0.001833474564
0.001837829048
0.001843106283
0.001848885451
0.001854682369
0.001859956665
0.001864118756
0.00186653573
0.001848461897
0.001851512513
0.001855828605
0.001861059219
0.001866787207
0.001872532647
0.001877759967
0.001881884876
0.001884280193
0.001866359858
0.001869383481
0.001873661326
0.001878845496
0.001884522498
0.001890216657
0.001895397184
0.001899485059
0.001901858808
0.001884091866
0.001887088583
0.001891328304
0.00189646618
0.001902092366
0.001907735416
0.001912869312
0.001916920284
0.001919272544
0.001901658916
0.001904628803
0.001908830509
0.001913922226
0.001919497746
0.001925089845
0.001930177257
0.001934191447
0.001936522292
0.001919061901
0.001922005028
0.001926168821
0.001931214506
0.001936739503
0.001942280798
0.001947321867
0.001951299391
0.00195360889
0.001936301646
0.001939218081
0.001943344058
0.001948343833
0.001953818446
0.001959309083
0.001964303946
0.001968244918
0.001970533141
0.001953378923
0.001956268734
0.001960356995
0.001965310983
0.001970735353
0.001976175478
0.001981124276
0.00198502881
0.001987295827
0.001970294478
0.001973157736
0.001977208383
0.001982116711
0.001987490983
0.001992880749
0.001997783624
0.00200165184
0.002003897722
0.00198704904
0.001989885819
0.001993898959
0.001998761763
0.002004086089
0.002009425654
0.002014282759
0.00201811478
0.002020339602
0.002003643337
0.002006453716
0.002010429464
0.002015246886
0.002020521428
0.002025810961
0.002030622454
0.002034418411
0.002036622252
0.0020200781
0.002022862164
0.002026800643
0.002031572836
0.002036797767
0.002042037447
0.002046803497
0.002050563527
0.002052746469
0.002036354075
0.002039111916
0.002043013256
0.002047740385
0.002052915888
0.002058105906
0.002062826691
0.00206655094
0.002068713069
0.002052472025
0.00205520374
0.002059068084
0.002063750321
0.002068876593
0.002074017151
0.00207869286
0.00208238148
0.002084522888
0.002068432733
0.002071138428
0.002074965924
0.002079603456
0.002084680705
0.002089772016
0.002094402849
0.002098056002
0.002100176785
0.002084237008
0.002086916793
0.002090707602
0.002095300624
0.00210032907
0.002105371359
0.002109957526
0.002113575382
0.002115675639
0.002099885681
0.002102539673
0.002106293963
0.002110842685
0.002115822558
0.002120816062
0.002125357782
0.002128940517
0.002131020353
0.00211537961
0.002118007934
0.002121725882
0.002126230519
0.002131162062
0.002136107029
0.002140604532
0.002144152329
0.002146211853
0.002130719678
0.002133322463
0.002137004254
0.002141465034
0.0021463485
0.002151245188
0.002155698711
0.002159211762
0.002161251086
0.002145906791
0.002148484172
0.002152129999
0.00215654716
0.002161382811
0.002166231486
0.002170641276
0.002174119779
0.00217613902
0.002160941881
0.002163493998
0.002167104062
0.002171477847
0.002176265955
0.002181066894
0.002185433206
0.002188877364
0.002190876641
0.002175825899
0.002178352899
0.002181927405
0.002186258069
0.002190998914
0.0021957524
0.002200075496
0.002203485518
0.002205464953
0.002190559821
0.002193061852
0.002196601015
0.002200888816
0.002205582686
0.002210289012
0.00221456916
0.002217945259
0.002219904979
0.002205144639
0.002207621855
0.002211125892
0.002215371099
0.002220018288
0.002224677751
0.002228915226
0.002232257621
0.002234197752
0.002219581363
0.002222033921
0.002225503056
0.00222970594
0.00223430675
0.002238919655
0.002243114735
0.002246423649
0.002248344322
0.00223387102
0.00223629908
0.00223973354
0.002243894379
0.002248449115
0.002253015772
0.002257168741
0.002260444399
0.002262345746
0.002248014649
0.002250418374
0.00225381839
0.002257937466
0.002262446439
0.002266967161
0.002271078307
0.002274320937
0.002276203092
0.002262013299
0.002264392854
0.002267758662
0.00227183626
0.002276299784
0.002280774889
0.002284844502
0.002288054335
0.002289917432
0.002275868031
0.002278223583
0.002281555419
0.002285591828
0.00229001022
0.002294440028
0.002298468401
0.002301645669
0.002303489843
0.00228957991
0.002291911627
0.00229520973
0.002299205239
0.002303578819
0.002307963651
0.002311951078
0.002315096014
0.002316921402
0.002303150006
0.002305458057
0.002308722665
0.002312677566
0.002317006654
0.002321346831
0.002325293606
0.002328406444
0.002330213181
0.002316579386
0.002318863939
0.002322095293
0.002326009877
0.002330294792
0.002334590637
0.002338497053
0.002341578024
0.002343366245
0.002329869115
0.00233213034
0.002335328678
0.002339203234
0.002343444293
0.002347696125
0.002351562473
0.002354611808
0.002356381648
0.00234302025
0.002345258313
0.002348423872
0.002352258686
0.002356456204
0.002360664338
0.002364490905
0.00236750883
0.00236926042
0.00235603383
0.002358248896
0.002361381908
0.002365177263
0.002369331548
0.002373496293
0.00237728336
0.002380270096
0.002382003564
0.002368910874
0.002371103104
0.002374203795
0.002377959966
0.002382071318
0.002386192974
0.002389940813
0.002392896575
0.002394612046
0.002381652368
0.002383821916
0.002386890507
0.002390607758
0.002394676465
0.00239875532
0.002402464192
0.002405389183
0.002407086775
0.002394259252
0.002396406268
0.002399442967
0.002403121548
0.002407147883
0.002411184208
0.002414854356
0.002417748768
0.00241942859
0.00240673241
0.002408857031
0.002411862031
0.002415502176
0.002419486391
0.002423480433
0.002427112081
0.002429976086
0.002431638238
0.002419072644
0.002421174994
0.002424148471
0.002427750388
0.002431692705
0.002435644685
0.002439238026
0.002442071775
0.002443716341
0.002431280652
0.00243336084
0.002436302943
0.002439866807
0.002443767415
0.002447677512
0.002451232705
0.002454036316
0.002455663363
0.002443357
0.00244541511
0.002448325955
0.002451851903
0.00245571094
0.002459579286
0.002463096439
0.002465869994
0.002467479566
0.002455302078
0.002457338166
0.002460217827
0.00246370594
0.002467523486
0.002471350147
0.002474829311
0.002477572838
0.002479164948
0.002467116055
0.002469130141
0.002471978639
0.00247542893
0.002479204985
0.002482989947
0.002486431093
0.00248914456
0.002490719182
0.002478798826
0.00248079088
0.002483608166
0.002487020563
0.002490755031
0.002494498175
0.002497901178
0.00250058447
0.002502141532
0.002490349935
0.00249231987
0.002495105808
0.002498480132
0.002502172791
0.002505873872
0.002509238483
0.002511891386
0.002513430754
0.0025017685
0.002503716153
0.002506470503
0.002509806437
0.002513456915
0.002517115528
0.002520441347
0.002523063522
0.002524584988
0.002513053116
0.002514978235
0.002517700622
0.002520997688
0.002524605425
0.002528220966
0.002531507408
0.002534098366
0.00253560163
0.00252420175
0.002526103972
0.002528793862
0.002532051379
0.002535615586
0.002539187217
0.002542433473
0.002544992539
0.002546477194
0.002535211621
0.002537090448
0.002539747114
0.002542964162
0.002546483778
0.002550010376
0.002553215368
0.002555741651
0.002557207156
0.002546079068
0.002547933846
0.002550556332
0.002553731705
0.002557205348
0.002560685454
0.002563847789
0.002566340138
0.0025677858
0.002556799415
0.002558629303
0.002561216387
0.002564348547
0.002567774458
0.002571206226
0.002574324145
0.00257678111
0.002578206057
0.002567366827
0.002569170772
0.002571720923
0.00257480795
0.00257818394
0.002581565078
0.002584636401
0.002587056194
0.002588459351
0.002577774171
0.002579550878
0.002582062217
0.00258510176
0.002588425154
0.002591752867
0.002594774948
0.002597155399
0.002598535464
0.002588012888
0.00258976079
0.002592231052
0.002595220279
0.002598487865
0.002601758806
0.002604728481
0.002607067002
0.002608422426
0.002598072872
0.00259979011
0.002602216605
0.002605152163
0.002608360147
0.002611570371
0.00261448392
0.002616777475
0.002618106444
0.002607942385
0.002609626786
0.002612006376
0.00261488436
0.002618028329
0.002621173262
0.002624026381
0.002626271466
0.002627571888
0.00261760801
0.002619257071
0.00262158615
0.002624402082
0.002627476991
0.002630551414
0.002633339205
0.002635531838
0.002636801342
0.002627054646
0.002628665534
0.002630940024
0.002633688852
0.002636689023
0.002639687079
0.002642404059
0.002644539796
0.002645775739
0.002636265571
0.002637835129
0.002640050497
0.002642726615
0.002645645766
0.002648560992
0.002651201129
0.002653275094
0.002654474582
0.002645222572
0.002646747343
0.002648898631
0.002651495928
0.002654327228
0.002657152622
0.002659709402
0.002661716344
0.00266287627
0.002653906152
0.002655382417
0.002657464306
0.00265997624
0.002662712404
0.002665440523
0.002667907048
0.002669841425
0.00267095852
0.00266229583
0.002663719665
0.002665726556
0.002668146265
0.002670779678
0.002673402776
0.002675771898
0.002677627995
0.002678698897
0.002670370518
0.002671737872
0.002673663999
0.002675984441
0.002678507324
0.002681017528
0.00268328202
0.002685054083
0.002686075427
0.00267810899
0.002679415778
0.002681255345
0.002683469473
0.002685874085
0.002688263604
0.002690416359
0.002692098768
0.002693067282
0.002685490426
0.00268673264
0.002688479983
0.002690580949
0.002692859813
0.002695121181
0.002697155441
0.002698742895
0.002699655516
0.002692495014
0.00269366885
0.002695318619
0.002697299995
0.002699446153
0.002701572489
0.002703482096
0.002704969814
0.002705823811
0.002699104599
0.002700206588
0.00270175394
0.00270360996
0.002705617242
0.002707602526
0.002709382169
0.002710766098
0.002711559189
0.00270530334
0.002706330492
0.002707771285
0.002709497086
0.002711360375
0.002713199718
0.002714845188
0.002716122199
0.00271685267
0.002711078359
0.002712028294
0.002713359283
0.002714951134
0.00271666662
0.002718356515
0.002719864932
0.002721032997
0.002721699804
0.002716420336
0.002717291408
0.002718510417
0.002719965929
0.002721531329
0.00272306987
0.002724439873
0.002725498215
0.002726101067
0.002721324014
0.002722115419
0.002723221484
0.002724539778
0.002725954518
0.002727341566
0.002728573456
0.002729522649
0.002730062061
0.002725788599
0.002726500452
0.002727493927
0.002728675754
0.002729941078
0.002731178363
0.002732274178
0.002733116206
0.002733593536
0.002729818005
0.002730451381
0.002731333996
0.002732381787