/*--------------------------------*- C++ -*----------------------------------*\
| =========                 |                                                 |
| \\      /  F ield         | OpenFOAM: The Open Source CFD Toolbox           |
|  \\    /   O peration     | Version:  2212                                  |
|   \\  /    A nd           | Website:  www.openfoam.com                      |
|    \\/     M anipulation  |                                                 |
\*---------------------------------------------------------------------------*/
FoamFile
{
    version     2.0;
    format      ascii;
    arch        "LSB;label=32;scalar=64";
    class       volScalarField;
    location    "30.00000000";
    object      H_0;
}
// * * * * * * * * * * * * * * * * * * * * * * * * * * * * * * * * * * * * * //

dimensions      [0 0 0 0 0 0 0];

internalField   nonuniform List<scalar> 
3000
(
3.654638461e-29
4.103958475e-29
4.780634955e-29
5.67913327e-29
6.785452364e-29
8.059028623e-29
9.399756682e-29
1.059409059e-28
1.126711e-28
1.366888059e-28
1.540076456e-28
1.800168675e-28
2.144983397e-28
2.570911956e-28
3.069758266e-28
3.622662628e-28
4.185704956e-28
4.637138579e-28
3.047558933e-28
3.45832263e-28
4.080086235e-28
4.916426462e-28
5.9734263e-28
7.252325043e-28
8.727040809e-28
1.028779351e-27
1.154252296e-27
5.776167211e-28
6.619831767e-28
7.91476684e-28
9.692911894e-28
1.199885354e-27
1.486440367e-27
1.823792974e-27
2.180855152e-27
2.456575384e-27
1.020729957e-27
1.183756826e-27
1.437914533e-27
1.793838044e-27
2.264875122e-27
2.859554601e-27
3.562095712e-27
4.291362409e-27
4.831534938e-27
1.747180853e-27
2.051780579e-27
2.533574975e-27
3.219223535e-27
4.139368693e-27
5.309327203e-27
6.68490452e-27
8.083568833e-27
9.088406153e-27
2.953578215e-27
3.511178781e-27
4.403736169e-27
5.689129379e-27
7.428868072e-27
9.644699063e-27
1.22305879e-26
1.481621157e-26
1.664350901e-26
4.979273152e-27
5.985615012e-27
7.611405144e-27
9.972325294e-27
1.318330441e-26
1.726985689e-26
2.200472976e-26
2.668078046e-26
2.995230528e-26
8.411117459e-27
1.020889138e-26
1.313307514e-26
1.740331754e-26
2.322591404e-26
3.062361126e-26
3.914417764e-26
4.748638392e-26
5.329011674e-26
1.426325982e-26
1.745029884e-26
2.265946257e-26
3.029444976e-26
4.071764818e-26
5.393607365e-26
6.909168351e-26
8.384283346e-26
9.407550133e-26
2.428977891e-26
2.990695053e-26
3.911916786e-26
5.265251596e-26
7.113557319e-26
9.453426542e-26
1.212702711e-25
1.471913214e-25
1.651548452e-25
4.152613705e-26
5.138334618e-26
6.758616038e-26
9.142107974e-26
1.239682149e-25
1.650997863e-25
2.119680522e-25
2.572935841e-25
2.887396432e-25
7.123036021e-26
8.847523727e-26
1.16865108e-25
1.586567992e-25
2.156893351e-25
2.876165496e-25
3.693292952e-25
4.481965773e-25
5.032845025e-25
1.225186841e-25
1.526332265e-25
2.022702868e-25
2.753781762e-25
3.750764612e-25
5.004814729e-25
6.421834608e-25
7.780434139e-25
8.758931379e-25
2.112002555e-25
2.637449986e-25
3.504715804e-25
4.783566276e-25
6.528482621e-25
8.720116413e-25
1.117309393e-24
1.341032889e-24
1.526963468e-24
3.646604382e-25
4.562755142e-25
6.07731367e-25
8.315626713e-25
1.138136176e-24
1.526546187e-24
1.97213651e-24
2.415787601e-24
2.696129801e-24
6.302783665e-25
7.897656966e-25
1.053656685e-24
1.443940473e-24
1.978612641e-24
2.655072736e-24
3.425796049e-24
4.171688568e-24
4.682611872e-24
1.090133704e-24
1.367401903e-24
1.82638176e-24
2.505335307e-24
3.435224516e-24
4.610546801e-24
5.947263494e-24
7.240196017e-24
8.131266466e-24
1.886543562e-24
2.368199895e-24
3.16578606e-24
4.345872523e-24
5.962112136e-24
8.004569149e-24
1.032721504e-23
1.257669435e-23
1.412524348e-23
3.266347439e-24
4.102750476e-24
5.488210082e-24
7.53864165e-24
1.03473943e-23
1.389722464e-23
1.793471059e-23
2.184898402e-23
2.45392054e-23
5.657781386e-24
7.109997082e-24
9.516245134e-24
1.307842469e-23
1.795916497e-23
2.412878206e-23
3.114715505e-23
3.795461983e-23
4.262740577e-23
9.804058695e-24
1.232546241e-23
1.650448524e-23
2.269283213e-23
3.117398853e-23
4.189698625e-23
5.409660673e-23
6.592556674e-23
7.404040324e-23
1.699570158e-23
2.137395654e-23
2.863254892e-23
3.938433013e-23
5.41238532e-23
7.276392293e-23
9.397180257e-23
1.145009477e-22
1.28589734e-22
2.947507807e-23
3.707950414e-23
4.969027232e-23
6.837611991e-23
9.400121517e-23
1.264177228e-22
1.632999551e-22
1.988764897e-22
2.233222133e-22
5.114190403e-23
6.435530924e-23
8.627484348e-23
1.187670248e-22
1.633463517e-22
2.197687039e-22
2.839913627e-22
3.459038119e-22
3.880919976e-22
8.878610803e-23
1.117605701e-22
1.498882278e-22
2.064371402e-22
2.840740908e-22
3.824125436e-22
4.944420523e-22
6.02535342e-22
6.762488232e-22
1.542488517e-22
1.942335441e-22
2.606277717e-22
3.591763882e-22
4.946094331e-22
6.663609567e-22
8.622967742e-22
1.051642734e-21
1.180999454e-21
2.682255057e-22
3.379117287e-22
4.537160582e-22
6.257968683e-22
8.62632603e-22
1.163532418e-21
1.507558607e-21
1.840876144e-21
2.069341156e-21
4.66989742e-22
5.886786281e-22
7.911283224e-22
1.092451543e-21
1.508066816e-21
2.037563336e-21
2.644993872e-21
3.235937997e-21
3.64324399e-21
8.143576058e-22
1.027427568e-21
1.382472861e-21
1.912153257e-21
2.645037025e-21
3.58248423e-21
4.663258193e-21
5.7212242e-21
6.456813503e-21
1.423139889e-21
1.797559162e-21
2.422867538e-21
3.358807222e-21
4.659519591e-21
6.332684599e-21
8.275226039e-21
1.019368609e-20
1.154471557e-20
2.49396991e-21
3.15503439e-21
4.262464217e-21
5.927469613e-21
8.255305575e-21
1.12726625e-20
1.480920588e-20
1.834418477e-20
2.087750494e-20
4.386371756e-21
5.560606125e-21
7.535820674e-21
1.052325997e-20
1.473311615e-20
2.024468961e-20
2.678458505e-20
3.342382344e-20
3.828948445e-20
7.750554529e-21
9.852176023e-21
1.340636255e-20
1.882336378e-20
2.653418297e-20
3.675674031e-20
4.907312198e-20
6.181639691e-20
7.140977399e-20
1.37755187e-20
1.757202053e-20
2.403618872e-20
3.398333622e-20
4.831918822e-20
6.76154628e-20
9.128880008e-20
1.163293955e-19
1.357600599e-19
2.466406445e-20
3.159896864e-20
4.350548964e-20
6.204137489e-20
8.91514236e-20
1.262907805e-19
1.727991798e-19
2.232066897e-19
2.635991872e-19
4.455924553e-20
5.739294067e-20
7.964658815e-20
1.147644429e-19
1.669986739e-19
2.399754867e-19
3.334134913e-19
4.373037286e-19
5.232793142e-19
8.138788324e-20
1.054943484e-19
1.47775181e-19
2.155279409e-19
3.181855993e-19
4.646434643e-19
6.565088992e-19
8.753265135e-19
1.062029599e-18
1.506076211e-19
1.966486738e-19
2.78433492e-19
4.116891569e-19
6.175724716e-19
9.176254236e-19
1.319633725e-18
1.789233639e-18
2.201039662e-18
2.829933432e-19
3.725379672e-19
5.337772618e-19
8.01084865e-19
1.222266657e-18
1.848875381e-18
2.706064743e-18
3.728941654e-18
4.64690466e-18
5.411880093e-19
7.187356528e-19
1.042921439e-18
1.589691863e-18
2.467481375e-18
3.798134224e-18
5.651605824e-18
7.9027081e-18
9.959859976e-18
1.055693622e-18
1.414845753e-18
2.079573119e-18
3.218918867e-18
5.078838015e-18
7.94321033e-18
1.199045995e-17
1.697145815e-17
2.158188586e-17
2.104910584e-18
2.846265168e-18
4.235478807e-18
6.650245303e-18
1.064624606e-17
1.687361171e-17
2.575891988e-17
3.678571583e-17
4.706807346e-17
4.296986698e-18
5.858141427e-18
8.814156149e-18
1.400914709e-17
2.268868265e-17
3.631120184e-17
5.583888245e-17
8.015002017e-17
1.028692201e-16
8.991094989e-18
1.23426426e-17
1.873785274e-17
3.005789571e-17
4.906306642e-17
7.894645725e-17
1.217517031e-16
1.749302523e-16
2.244844618e-16
1.928927239e-17
2.661725858e-17
4.066387652e-17
6.560056908e-17
1.074607902e-16
1.730470865e-16
2.66412119e-16
3.815498506e-16
4.880116932e-16
4.239736598e-17
5.869376078e-17
8.99730877e-17
1.454363453e-16
2.38092199e-16
3.820353718e-16
5.846567271e-16
8.314543419e-16
1.056812571e-15
9.526493401e-17
1.320622768e-16
2.025911199e-16
3.270902533e-16
5.333558919e-16
8.49974328e-16
1.289125819e-15
1.815423908e-15
2.287990608e-15
2.179742204e-16
3.021342327e-16
4.629406859e-16
7.45075566e-16
1.20813144e-15
1.910159004e-15
2.869660309e-15
4.000853489e-15
4.9978044e-15
5.049677614e-16
6.992493402e-16
1.069247205e-15
1.71500422e-15
2.767598834e-15
4.35120297e-15
6.498895283e-15
9.009870689e-15
1.119481579e-14
1.175807779e-15
1.626324321e-15
2.482775367e-15
3.975058663e-15
6.40735571e-15
1.007942563e-14
1.5101721e-14
2.104458851e-14
2.625230106e-14
2.729887687e-15
3.773448976e-15
5.759642428e-15
9.235131185e-15
1.495776459e-14
2.376594157e-14
3.61860403e-14
5.146042086e-14
6.531745976e-14
6.274594614e-15
8.677638553e-15
1.327443534e-14
2.140841912e-14
3.508524925e-14
5.686515497e-14
8.905208621e-14
1.308625745e-13
1.707877961e-13
1.422046066e-14
1.97131467e-14
3.031504988e-14
4.93983886e-14
8.239536186e-14
1.370249335e-13
2.21600448e-13
3.366932833e-13
4.510130002e-13
3.18327141e-14
4.434448886e-14
6.878319319e-14
1.136304087e-13
1.932225253e-13
3.288844586e-13
5.440772237e-13
8.402546143e-13
1.13381614e-12
7.107173777e-14
9.974450436e-14
1.5638693e-13
2.618587579e-13
4.515481621e-13
7.759914607e-13
1.281965546e-12
1.948292193e-12
2.567777747e-12
1.609154698e-13
2.27548832e-13
3.598566454e-13
6.06520095e-13
1.045258186e-12
1.770111645e-12
2.825587115e-12
4.079472252e-12
5.115452186e-12
3.750758583e-13
5.31546429e-13
8.39567286e-13
1.401493148e-12
2.357221292e-12
3.817640522e-12
5.715617844e-12
7.690798066e-12
9.138306852e-12
8.997113814e-13
1.261942186e-12
1.954564865e-12
3.155087409e-12
5.038322583e-12
7.612658786e-12
1.05673164e-11
1.33362729e-11
1.522353537e-11
2.163386402e-12
2.953591513e-12
4.388691353e-12
6.688918339e-12
9.946087401e-12
1.394137738e-11
1.815755721e-11
2.192580391e-11
2.442031625e-11
4.974531503e-12
6.517692184e-12
9.142867703e-12
1.300821104e-11
1.803026931e-11
2.38202125e-11
2.976090828e-11
3.502661993e-11
3.848755802e-11
1.044010962e-11
1.307027465e-11
1.73008123e-11
2.318460444e-11
3.053910289e-11
3.89095718e-11
4.753419459e-11
5.524405727e-11
6.032224534e-11
1.960791076e-11
2.365350289e-11
2.999266158e-11
3.866154354e-11
4.94835006e-11
6.193954574e-11
7.498670615e-11
8.683455844e-11
9.473652024e-11
3.345269506e-11
3.94493136e-11
4.882481663e-11
6.171647366e-11
7.803745055e-11
9.717988644e-11
1.176654952e-10
1.367075667e-10
1.49701723e-10
5.33505199e-11
6.224598332e-11
7.625462419e-11
9.57720954e-11
1.209106092e-10
1.51049598e-10
1.84160704e-10
2.158597207e-10
2.381653767e-10
8.135930196e-11
9.465024482e-11
1.157740109e-10
1.456113483e-10
1.84789628e-10
2.329196603e-10
2.87350041e-10
3.4117623e-10
3.803510356e-10
1.203011742e-10
1.401508788e-10
1.720147005e-10
2.176983976e-10
2.788978333e-10
3.559736229e-10
4.456947323e-10
5.372572362e-10
6.060646119e-10
1.738527266e-10
2.033236761e-10
2.511104335e-10
3.206396439e-10
4.155933837e-10
5.379841518e-10
6.842116094e-10
8.375890218e-10
9.560435974e-10
2.470782563e-10
2.903987927e-10
3.613000526e-10
4.658381848e-10
6.110169106e-10
8.018237713e-10
1.034648313e-09
1.284196446e-09
1.481119534e-09
3.473717255e-10
4.102456273e-10
5.139380333e-10
6.684432648e-10
8.85786811e-10
1.175566259e-09
1.534527111e-09
1.925225471e-09
2.238450087e-09
4.859468801e-10
5.758700148e-10
7.249337778e-10
9.48564805e-10
1.265673891e-09
1.692139785e-09
2.225211948e-09
2.811063758e-09
3.286075689e-09
6.797218521e-10
8.062245786e-10
1.016364774e-09
1.332463239e-09
1.782032423e-09
2.388632097e-09
3.149947532e-09
3.991817715e-09
4.68225522e-09
9.5309706e-10
1.127781294e-09
1.417671821e-09
1.853153515e-09
2.471646003e-09
3.305517941e-09
4.353430016e-09
5.520523401e-09
6.490081224e-09
1.338856041e-09
1.57509959e-09
1.96573302e-09
2.549922124e-09
3.375928449e-09
4.486236417e-09
5.884008923e-09
7.443126784e-09
8.730879163e-09
1.877539873e-09
2.189886744e-09
2.703625345e-09
3.467157881e-09
4.54094523e-09
5.981898099e-09
7.783471756e-09
9.769994935e-09
1.140485879e-08
2.615527659e-09
3.019187036e-09
3.679506018e-09
4.65460059e-09
6.023170403e-09
7.832958408e-09
1.006038562e-08
1.248908879e-08
1.447562102e-08
3.603948721e-09
4.115583585e-09
4.95201356e-09
6.176206459e-09
7.859949671e-09
1.005086308e-08
1.270809645e-08
1.557055685e-08
1.789348021e-08
4.908957256e-09
5.547734695e-09
6.575842671e-09
8.057409041e-09
1.006097104e-08
1.262970072e-08
1.57009535e-08
1.896429149e-08
2.158742695e-08
6.57919447e-09
7.34855379e-09
8.572586447e-09
1.03110446e-08
1.263038412e-08
1.555451922e-08
1.89960787e-08
2.260258186e-08
2.547095194e-08
8.636567438e-09
9.536195587e-09
1.095272282e-08
1.293837844e-08
1.554756511e-08
1.878362876e-08
2.253118386e-08
2.640303407e-08
2.944736084e-08
1.108982655e-08
1.211263624e-08
1.370625435e-08
1.591550523e-08
1.877285245e-08
2.2260435e-08
2.622982626e-08
3.027376797e-08
3.341550462e-08
1.393004947e-08
1.506279086e-08
1.681180809e-08
1.920172939e-08
2.224786098e-08
2.590619547e-08
3.000405816e-08
3.411838413e-08
3.727512966e-08
1.712745471e-08
1.834870191e-08
2.021700952e-08
2.273900733e-08
2.590294277e-08
2.964003852e-08
3.37626151e-08
3.784144058e-08
4.093119352e-08
2.063275191e-08
2.191455036e-08
2.385735035e-08
2.644760675e-08
2.964931828e-08
3.337100704e-08
3.741139383e-08
4.134859455e-08
4.429150746e-08
2.437879938e-08
2.568830369e-08
2.765477946e-08
3.024425921e-08
3.339775729e-08
3.700323579e-08
4.084957444e-08
4.453154698e-08
4.72349707e-08
2.828259531e-08
2.958345878e-08
3.151845048e-08
3.403357987e-08
3.70473743e-08
4.042653475e-08
4.394536949e-08
4.72048606e-08
4.945440051e-08
3.22466524e-08
3.349973056e-08
3.534388076e-08
3.770472567e-08
4.047573391e-08
4.349303508e-08
4.648830596e-08
4.916730576e-08
5.105055151e-08
3.615525798e-08
3.731673164e-08
3.900064816e-08
4.110776977e-08
4.349577136e-08
4.59604694e-08
4.840890757e-08
5.062247078e-08
5.218051707e-08
3.984777479e-08
4.08603607e-08
4.227825886e-08
4.396855734e-08
4.587112184e-08
4.787485666e-08
4.986077313e-08
5.164584636e-08
5.289383459e-08
4.30009822e-08
4.378868196e-08
4.490136956e-08
4.625373913e-08
4.776597269e-08
4.934667673e-08
5.089326363e-08
5.226512176e-08
5.321417316e-08
4.557260855e-08
4.6185836e-08
4.704763668e-08
4.808698881e-08
4.922988436e-08
5.040053086e-08
5.152105815e-08
5.249563852e-08
5.316078661e-08
4.768076328e-08
4.813010726e-08
4.875192353e-08
4.94851738e-08
5.02673893e-08
5.104052516e-08
5.17535983e-08
5.235426076e-08
5.275635647e-08
4.933134534e-08
4.961968817e-08
5.000628631e-08
5.04411214e-08
5.087597922e-08
5.12721984e-08
5.160563883e-08
5.186403838e-08
5.202925993e-08
5.050692671e-08
5.063914471e-08
5.079953763e-08
5.09507518e-08
5.106044985e-08
5.110989273e-08
5.110037769e-08
5.10550804e-08
5.10135263e-08
5.119636031e-08
5.118179029e-08
5.113153289e-08
5.102202625e-08
5.083746726e-08
5.057853182e-08
5.026956505e-08
4.99638127e-08
4.974780005e-08
5.140430099e-08
5.125674572e-08
5.101749109e-08
5.067710064e-08
5.023603063e-08
4.971297272e-08
4.915224434e-08
4.863149502e-08
4.827386561e-08
5.115320912e-08
5.0890019e-08
5.048803376e-08
4.99514788e-08
4.929597946e-08
4.855617341e-08
4.779284478e-08
4.710243331e-08
4.663503759e-08
5.048197792e-08
5.012278694e-08
4.958709646e-08
4.889164202e-08
4.806546624e-08
4.71565684e-08
4.623867562e-08
4.542174415e-08
4.487420983e-08
4.944249486e-08
4.900779642e-08
4.836818597e-08
4.755126888e-08
4.659736115e-08
4.556508889e-08
4.453758904e-08
4.363358995e-08
4.30324548e-08
4.809519542e-08
4.760517187e-08
4.689058291e-08
4.598795751e-08
4.494652937e-08
4.383278552e-08
4.273602677e-08
4.177965598e-08
4.114782933e-08
4.650486044e-08
4.597835726e-08
4.521551738e-08
4.425973033e-08
4.316677524e-08
4.200838609e-08
4.087716691e-08
3.989779812e-08
3.925434221e-08
4.473630895e-08
4.419010228e-08
4.340257895e-08
4.242196963e-08
4.130836299e-08
4.013639782e-08
3.899956591e-08
3.802112215e-08
3.738130149e-08
4.285083551e-08
4.229920081e-08
4.150687649e-08
4.052507755e-08
3.941620811e-08
3.825581082e-08
3.713631156e-08
3.61774825e-08
3.555301443e-08
4.090360223e-08
4.035815393e-08
3.957707062e-08
3.861293386e-08
3.752877048e-08
3.639939395e-08
3.531465484e-08
3.438935809e-08
3.378879574e-08
3.894203033e-08
3.841177804e-08
3.765427143e-08
3.672211669e-08
3.567759316e-08
3.459351421e-08
3.355604897e-08
3.267403755e-08
3.210322342e-08
3.700510258e-08
3.649666076e-08
3.577169408e-08
3.488177326e-08
3.388737387e-08
3.285837312e-08
3.187650161e-08
3.104403385e-08
3.050657159e-08
3.512340436e-08
3.464129395e-08
3.39549077e-08
3.311398669e-08
3.217643452e-08
3.120854168e-08
3.028713535e-08
2.950764183e-08
2.900535315e-08
3.331970072e-08
3.286669336e-08
3.222250215e-08
3.143447822e-08
3.05574311e-08
2.965366343e-08
2.879486644e-08
2.806957483e-08
2.760291277e-08
3.160984055e-08
3.118730184e-08
3.058698235e-08
2.985348209e-08
2.903820108e-08
2.819924831e-08
2.740312669e-08
2.673161163e-08
2.630001881e-08
3.000381806e-08
2.961202795e-08
2.905577034e-08
2.837669385e-08
2.762263725e-08
2.684746168e-08
2.611256282e-08
2.549321199e-08
2.50954193e-08
2.850686632e-08
2.814530082e-08
2.763220198e-08
2.700619179e-08
2.631152107e-08
2.55978617e-08
2.492167777e-08
2.435207254e-08
2.398633966e-08
2.712049009e-08
2.678805782e-08
2.631644939e-08
2.574127836e-08
2.510327252e-08
2.44480532e-08
2.382739187e-08
2.330460788e-08
2.296891075e-08
2.584338498e-08
2.553861832e-08
2.510633042e-08
2.457921117e-08
2.399459448e-08
2.339424353e-08
2.282551499e-08
2.234635203e-08
2.203852444e-08
2.467221884e-08
2.439342318e-08
2.39979892e-08
2.351581304e-08
2.298100593e-08
2.243169843e-08
2.191113052e-08
2.147228271e-08
2.119011971e-08
2.360227114e-08
2.334763761e-08
2.298644826e-08
2.254596362e-08
2.205726855e-08
2.155510405e-08
2.107889814e-08
2.067707549e-08
2.041840603e-08
2.262793905e-08
2.239562685e-08
2.206604213e-08
2.166398334e-08
2.121771772e-08
2.075884578e-08
2.032328537e-08
1.995529697e-08
1.97180327e-08
2.174312594e-08
2.15313203e-08
2.123074779e-08
2.086392441e-08
2.045651175e-08
2.003721681e-08
1.963873946e-08
1.93015473e-08
1.908371312e-08
2.094153078e-08
2.074848189e-08
2.047442898e-08
2.01397847e-08
1.976781372e-08
1.938456894e-08
1.901981066e-08
1.871056154e-08
1.851031277e-08
2.021685687e-08
2.004090446e-08
1.979101089e-08
1.948565962e-08
1.914591959e-08
1.879541786e-08
1.846123728e-08
1.817727879e-08
1.799290881e-08
1.956295718e-08
1.940254447e-08
1.917460055e-08
1.889584583e-08
1.858534458e-08
1.826451308e-08
1.795800127e-08
1.769688666e-08
1.752682785e-08
1.897393085e-08
1.882761103e-08
1.861956547e-08
1.836490816e-08
1.808087802e-08
1.77868813e-08
1.750536173e-08
1.726484726e-08
1.710766754e-08
1.844418337e-08
1.831062074e-08
1.812058153e-08
1.78877194e-08
1.762761488e-08
1.735785036e-08
1.709887234e-08
1.68769097e-08
1.67313063e-08
1.796846006e-08
1.784642779e-08
1.767265832e-08
1.745948039e-08
1.722097058e-08
1.697305913e-08
1.673438726e-08
1.652911307e-08
1.639390471e-08
1.754186073e-08
1.743023637e-08
1.727114869e-08
1.707572627e-08
1.685668395e-08
1.662845768e-08
1.640805895e-08
1.621778277e-08
1.609190106e-08
1.715984124e-08
1.705760094e-08
1.691174729e-08
1.673232325e-08
1.65308124e-08
1.632030085e-08
1.611633072e-08
1.593952235e-08
1.582200297e-08
1.681820637e-08
1.67244185e-08
1.659048206e-08
1.642545921e-08
1.623972158e-08
1.604513749e-08
1.58559257e-08
1.569120253e-08
1.558117655e-08
1.6513097e-08
1.642691549e-08
1.630370085e-08
1.615163009e-08
1.598007185e-08
1.5799797e-08
1.562383365e-08
1.546994839e-08
1.536663397e-08
1.624097377e-08
1.616163157e-08
1.604805537e-08
1.59076242e-08
1.574880291e-08
1.558137441e-08
1.541729656e-08
1.527312553e-08
1.517582008e-08
1.599859921e-08
1.592540197e-08
1.582048386e-08
1.569050523e-08
1.554311735e-08
1.538721459e-08
1.523379368e-08
1.509832588e-08
1.500639874e-08
1.578301891e-08
1.571533893e-08
1.561819299e-08
1.549759478e-08
1.53604639e-08
1.521489634e-08
1.50710263e-08
1.494335321e-08
1.485623894e-08
1.559154247e-08
1.552881306e-08
1.543863977e-08
1.532645494e-08
1.519852075e-08
1.506221647e-08
1.492690281e-08
1.480620893e-08
1.472340109e-08
1.542172478e-08
1.536343498e-08
1.52795137e-08
1.517487111e-08
1.505517919e-08
1.492717427e-08
1.479952386e-08
1.468507805e-08
1.460612351e-08
1.527134784e-08
1.521703751e-08
1.513871952e-08
1.50408354e-08
1.492852772e-08
1.480795643e-08
1.468716814e-08
1.457831561e-08
1.450280936e-08
1.51384033e-08
1.508765856e-08
1.50143606e-08
1.492253066e-08
1.481683675e-08
1.470292249e-08
1.458827854e-08
1.448443351e-08
1.441201391e-08
1.502107575e-08
1.497352479e-08
1.490472309e-08
1.481831522e-08
1.471854408e-08
1.461059099e-08
1.450144899e-08
1.4402088e-08
1.433243243e-08
1.491772687e-08
1.487303608e-08
1.480826083e-08
1.472670834e-08
1.463224095e-08
1.452962624e-08
1.442541189e-08
1.433006759e-08
1.426288855e-08
1.482688047e-08
1.478475084e-08
1.47235811e-08
1.464637655e-08
1.455665896e-08
1.44588258e-08
1.43590262e-08
1.426728176e-08
1.420232323e-08
1.47472084e-08
1.470737218e-08
1.464943122e-08
1.457612066e-08
1.44906577e-08
1.439710872e-08
1.430126624e-08
1.421275023e-08
1.414978443e-08
1.467751728e-08
1.463973502e-08
1.458468598e-08
1.451486373e-08
1.443321313e-08
1.434350452e-08
1.425121117e-08
1.41655929e-08
1.410441732e-08
1.461673621e-08
1.458079392e-08
1.452833589e-08
1.446163972e-08
1.438340685e-08
1.429714287e-08
1.420803526e-08
1.412502048e-08
1.406545522e-08
1.456390529e-08
1.45296119e-08
1.447947628e-08
1.441558301e-08
1.4340416e-08
1.425724408e-08
1.417099872e-08
1.409032584e-08
1.403221118e-08
1.451816494e-08
1.448534998e-08
1.443729721e-08
1.437591874e-08
1.430350406e-08
1.422311027e-08
1.41394394e-08
1.406087595e-08
1.400407016e-08
1.447874617e-08
1.444725766e-08
1.440107419e-08
1.434195382e-08
1.427201227e-08
1.419411726e-08
1.411276502e-08
1.403610455e-08
1.398048194e-08
1.444496154e-08
1.441466402e-08
1.437015963e-08
1.431306876e-08
1.424535186e-08
1.416970715e-08
1.409044616e-08
1.401550539e-08
1.396095452e-08
1.441619692e-08
1.438696977e-08
1.434397507e-08
1.428871021e-08
1.422299688e-08
1.414938154e-08
1.407200982e-08
1.399862609e-08
1.394504821e-08
1.439190402e-08
1.436363981e-08
1.432200403e-08
1.426838413e-08
1.420447775e-08
1.413269543e-08
1.405703356e-08
1.398506256e-08
1.393237017e-08
1.43715935e-08
1.434419665e-08
1.430378561e-08
1.425164962e-08
1.418937536e-08
1.411925157e-08
1.404514025e-08
1.397445398e-08
1.392256955e-08
1.435482887e-08
1.432821431e-08
1.428890865e-08
1.423811333e-08
1.417731577e-08
1.410869546e-08
1.403599327e-08
1.396647818e-08
1.391533307e-08
1.434122085e-08
1.43153129e-08
1.427700644e-08
1.422742441e-08
1.416796541e-08
1.410071084e-08
1.402929221e-08
1.396084762e-08
1.391038102e-08
1.433042239e-08
1.43051537e-08
1.426775201e-08
1.421927001e-08
1.416102676e-08
1.409501557e-08
1.402476903e-08
1.395730562e-08
1.390746367e-08
1.43221241e-08
1.429743479e-08
1.426085385e-08
1.421337117e-08
1.415623452e-08
1.409135799e-08
1.402218458e-08
1.395562313e-08
1.390635813e-08
1.431605023e-08
1.429188701e-08
1.425605214e-08
1.420947921e-08
1.415335213e-08
1.408951366e-08
1.402132548e-08
1.395559572e-08
1.39068654e-08
1.431195506e-08
1.428827053e-08
1.425311525e-08
1.420737243e-08
1.415216865e-08
1.408928239e-08
1.402200139e-08
1.395704095e-08
1.390880784e-08
1.430961958e-08
1.428637156e-08
1.425183675e-08
1.42068532e-08
1.4152496e-08
1.409048564e-08
1.402404248e-08
1.395979599e-08
1.391202688e-08
1.430884868e-08
1.428599963e-08
1.425203268e-08
1.420774535e-08
1.415416651e-08
1.409296418e-08
1.402729723e-08
1.396371553e-08
1.391638097e-08
1.430946846e-08
1.428698497e-08
1.425353906e-08
1.420989187e-08
1.415703066e-08
1.409657602e-08
1.403163047e-08
1.396866988e-08
1.392174372e-08
1.431132402e-08
1.428917634e-08
1.425620978e-08
1.421315279e-08
1.416095517e-08
1.410119449e-08
1.40369216e-08
1.397454328e-08
1.39280023e-08
1.431427731e-08
1.429243894e-08
1.425991459e-08
1.421740333e-08
1.416582118e-08
1.410670665e-08
1.404306302e-08
1.398123241e-08
1.393505596e-08
1.431820533e-08
1.429665268e-08
1.426453746e-08
1.42225323e-08
1.417152274e-08
1.411301173e-08
1.404995871e-08
1.398864504e-08
1.394281475e-08
1.432299852e-08
1.430171053e-08
1.426997495e-08
1.422844057e-08
1.417796536e-08
1.412001989e-08
1.405752301e-08
1.399669885e-08
1.395119834e-08
1.432855922e-08
1.430751713e-08
1.427613489e-08
1.423503977e-08
1.418506481e-08
1.412765098e-08
1.406567948e-08
1.400532033e-08
1.3960135e-08
1.433480045e-08
1.43139875e-08
1.428293512e-08
1.424225114e-08
1.419274597e-08
1.413583349e-08
1.407435988e-08
1.401444386e-08
1.396956065e-08
1.434164469e-08
1.432104593e-08
1.429030243e-08
1.425000444e-08
1.420094185e-08
1.414450363e-08
1.408350334e-08
1.402401086e-08
1.397941806e-08
1.434902286e-08
1.432862491e-08
1.429817154e-08
1.425823707e-08
1.420959269e-08
1.415360451e-08
1.409305548e-08
1.403396898e-08
1.39896561e-08
1.435687337e-08
1.433666427e-08
1.430648426e-08
1.426689318e-08
1.421864518e-08
1.416308529e-08
1.410296776e-08
1.404427145e-08
1.400022905e-08
1.436514128e-08
1.434511033e-08
1.431518863e-08
1.42759229e-08
1.422805172e-08
1.41729006e-08
1.41131968e-08
1.405487647e-08
1.401109604e-08
1.437377758e-08
1.435391516e-08
1.432423829e-08
1.428528171e-08
1.423776976e-08
1.418300985e-08
1.412370377e-08
1.406574661e-08
1.402222045e-08
1.438273841e-08
1.436303589e-08
1.433359173e-08
1.429492973e-08
1.424776118e-08
1.419337668e-08
1.413445388e-08
1.40768483e-08
1.403356946e-08
1.439198444e-08
1.437243406e-08
1.434321171e-08
1.430483118e-08
1.425799177e-08
1.420396841e-08
1.414541583e-08
1.408815137e-08
1.404511352e-08
1.440148024e-08
1.4382075e-08
1.435306462e-08
1.431495374e-08
1.426843058e-08
1.421475547e-08
1.415656133e-08
1.40996285e-08
1.405682593e-08
1.441119363e-08
1.43919272e-08
1.43631199e-08
1.432526796e-08
1.427904942e-08
1.422571089e-08
1.416786452e-08
1.411125475e-08
1.406868231e-08
1.442109494e-08
1.44019616e-08
1.437334931e-08
1.433574662e-08
1.428982213e-08
1.423680965e-08
1.417930143e-08
1.412300701e-08
1.408066009e-08
1.443115632e-08
1.441215082e-08
1.43837262e-08
1.434636392e-08
1.430072391e-08
1.424802792e-08
1.419084919e-08
1.413486327e-08
1.40927378e-08
1.444135071e-08
1.442246824e-08
1.439422452e-08
1.435709456e-08
1.431173028e-08
1.425934216e-08
1.420248517e-08
1.414680173e-08
1.410489426e-08
1.445165073e-08
1.443288678e-08
1.440481767e-08
1.436791251e-08
1.432281592e-08
1.427072781e-08
1.421418571e-08
1.415879959e-08
1.411710731e-08
1.446202711e-08
1.444337737e-08
1.441547683e-08
1.437878935e-08
1.433395292e-08
1.428215765e-08
1.422592436e-08
1.417083129e-08
1.412935216e-08
1.44724467e-08
1.445390684e-08
1.44261689e-08
1.438969209e-08
1.434510851e-08
1.429359933e-08
1.423766947e-08
1.418286608e-08
1.414159889e-08
1.448286976e-08
1.446443522e-08
1.443685358e-08
1.440058012e-08
1.435624192e-08
1.430501215e-08
1.424938078e-08
1.419486452e-08
1.415380897e-08
1.449324642e-08
1.447491203e-08
1.444747957e-08
1.441140122e-08
1.436730011e-08
1.431634255e-08
1.426100471e-08
1.42067736e-08
1.416593028e-08
1.450351199e-08
1.448527144e-08
1.445797945e-08
1.442208617e-08
1.437821203e-08
1.432751801e-08
1.427246793e-08
1.421852007e-08
1.417789027e-08
1.451358093e-08
1.4495426e-08
1.446826313e-08
1.443254172e-08
1.438888117e-08
1.433843904e-08
1.428366884e-08
1.423000141e-08
1.418958669e-08
1.452333904e-08
1.450525861e-08
1.447820934e-08
1.444264154e-08
1.439917576e-08
1.434896875e-08
1.429446634e-08
1.424107405e-08
1.42008753e-08
1.453263383e-08
1.45146124e-08
1.448765495e-08
1.445221486e-08
1.440891661e-08
1.435891957e-08
1.43046657e-08
1.425153822e-08
1.421155423e-08
1.454126253e-08
1.452327833e-08
1.449638188e-08
1.446103239e-08
1.441786189e-08
1.436803696e-08
1.431400082e-08
1.426111914e-08
1.422134419e-08
1.45489577e-08
1.453098021e-08
1.450410128e-08
1.446878943e-08
1.442568892e-08
1.437597955e-08
1.43221129e-08
1.42694441e-08
1.42298646e-08
1.455537027e-08
1.453735713e-08
1.451043494e-08
1.447508596e-08
1.443197271e-08
1.438229601e-08
1.432852539e-08
1.427601564e-08
1.42366054e-08
1.456005009e-08
1.454194319e-08
1.451489397e-08
1.447940398e-08
1.443616153e-08
1.438639859e-08
1.433261534e-08
1.428018088e-08
1.424089485e-08
1.456242404e-08
1.454414493e-08
1.451685507e-08
1.448108218e-08
1.443754982e-08
1.438753391e-08
1.433358201e-08
1.428109786e-08
1.424186428e-08
1.456177242e-08
1.454321691e-08
1.451553497e-08
1.447928895e-08
1.44352493e-08
1.438475203e-08
1.433041358e-08
1.427770005e-08
1.423841079e-08
1.455720403e-08
1.453823613e-08
1.450996385e-08
1.447299446e-08
1.442815952e-08
1.437687504e-08
1.432185377e-08
1.426866084e-08
1.422916024e-08
1.454763135e-08
1.452807667e-08
1.449895919e-08
1.446094346e-08
1.441493936e-08
1.436246721e-08
1.430637029e-08
1.425236046e-08
1.42124328e-08
1.453174691e-08
1.45113858e-08
1.448110148e-08
1.444163057e-08
1.439398175e-08
1.4339809e-08
1.428212815e-08
1.422685834e-08
1.41862146e-08
1.450800296e-08
1.448656371e-08
1.445471412e-08
1.441328037e-08
1.436339413e-08
1.430687791e-08
1.424697086e-08
1.418987465e-08
1.414813927e-08
1.447459639e-08
1.445174904e-08
1.441784984e-08
1.437383505e-08
1.432098763e-08
1.426133948e-08
1.419841341e-08
1.413878495e-08
1.40954838e-08
1.442946134e-08
1.440481267e-08
1.436828633e-08
1.432095255e-08
1.426427826e-08
1.420055208e-08
1.41336508e-08
1.407063248e-08
1.40251834e-08
1.437027228e-08
1.434336267e-08
1.430353409e-08
1.425201824e-08
1.419050349e-08
1.412158909e-08
1.404958641e-08
1.398216227e-08
1.39338698e-08
1.429446015e-08
1.426476314e-08
1.422085926e-08
1.416417323e-08
1.409665725e-08
1.402128181e-08
1.394288342e-08
1.38698808e-08
1.381793689e-08
1.419924407e-08
1.41661694e-08
1.411732417e-08
1.405436196e-08
1.397954623e-08
1.389628582e-08
1.381004207e-08
1.373014395e-08
1.367363657e-08
1.408168088e-08
1.404458177e-08
1.39898475e-08
1.391940078e-08
1.383586895e-08
1.374317226e-08
1.364750419e-08
1.355927421e-08
1.349720539e-08
1.393873367e-08
1.389691899e-08
1.383528509e-08
1.375606859e-08
1.366231828e-08
1.355854397e-08
1.345178406e-08
1.335370602e-08
1.328502051e-08
1.376735977e-08
1.372011157e-08
1.365053115e-08
1.356121842e-08
1.345570568e-08
1.33391743e-08
1.321962283e-08
1.311015506e-08
1.303378019e-08
1.356461701e-08
1.351121342e-08
1.343263805e-08
1.333190764e-08
1.321310392e-08
1.308216396e-08
1.29481603e-08
1.282580454e-08
1.274070066e-08
1.332778559e-08
1.326752888e-08
1.317895073e-08
1.306554193e-08
1.293200238e-08
1.278510885e-08
1.26351159e-08
1.249849829e-08
1.240371812e-08
1.305450116e-08
1.298675002e-08
1.288725028e-08
1.276002664e-08
1.261046719e-08