/*--------------------------------*- C++ -*----------------------------------*\
| =========                 |                                                 |
| \\      /  F ield         | OpenFOAM: The Open Source CFD Toolbox           |
|  \\    /   O peration     | Version:  2212                                  |
|   \\  /    A nd           | Website:  www.openfoam.com                      |
|    \\/     M anipulation  |                                                 |
\*---------------------------------------------------------------------------*/
FoamFile
{
    version     2.0;
    format      ascii;
    arch        "LSB;label=32;scalar=64";
    class       volScalarField;
    location    "30.00000000";
    object      I-C4H51;
}
// * * * * * * * * * * * * * * * * * * * * * * * * * * * * * * * * * * * * * //

dimensions      [0 0 0 0 0 0 0];

internalField   nonuniform List<scalar> 
3000
(
7.687871745e-24
8.637149411e-24
1.006967155e-23
1.19787596e-23
1.434510914e-23
1.710455947e-23
2.009092283e-23
2.294080088e-23
2.495592082e-23
2.886716044e-23
3.256261883e-23
3.813693835e-23
4.558218062e-23
5.489133387e-23
6.601347016e-23
7.875532362e-23
9.247670432e-23
1.046276599e-22
6.467702939e-23
7.353130247e-23
8.701480704e-23
1.053236606e-22
1.28787763e-22
1.577487656e-22
1.920912578e-22
2.29890345e-22
2.621848346e-22
1.232337298e-22
1.415749179e-22
1.6991533e-22
2.092162208e-22
2.608722167e-22
3.261988046e-22
4.048390827e-22
4.905058536e-22
5.59646508e-22
2.18930627e-22
2.546082121e-22
3.106051274e-22
3.897717185e-22
4.95837461e-22
6.317825465e-22
7.953374132e-22
9.690496237e-22
1.102406954e-21
3.766755262e-22
4.436793277e-22
5.50353265e-22
7.035190939e-22
9.113623794e-22
1.179131945e-21
1.498840421e-21
1.830183223e-21
2.075351482e-21
6.398809035e-22
7.630463171e-22
9.614201279e-22
1.249471449e-21
1.643272635e-21
2.150690127e-21
2.750762622e-21
3.360542016e-21
3.800601586e-21
1.083691928e-21
1.306749582e-21
1.669208279e-21
2.199592734e-21
2.927541414e-21
3.863599497e-21
4.960851357e-21
6.059602735e-21
6.839292655e-21
1.83841858e-21
2.23809979e-21
2.89174325e-21
3.85301692e-21
5.174628675e-21
6.869349446e-21
8.841500821e-21
1.079570936e-20
1.216706072e-20
3.129836609e-21
3.840272276e-21
5.00734537e-21
6.729027029e-21
9.097195723e-21
1.212550869e-20
1.562959337e-20
1.907604968e-20
2.147644921e-20
5.349379525e-21
6.604523696e-21
8.672619776e-21
1.172892208e-20
1.593170337e-20
2.129224784e-20
2.746776923e-20
3.351005264e-20
3.769782502e-20
9.175901521e-21
1.138322024e-20
1.502719475e-20
2.041693237e-20
2.782271681e-20
3.724541126e-20
4.806161049e-20
5.860578502e-20
6.589704106e-20
1.578763261e-20
1.96567714e-20
2.605178808e-20
3.551278312e-20
4.849748464e-20
6.497413304e-20
8.381704992e-20
1.021316348e-19
1.148435045e-19
2.723100583e-20
3.399946713e-20
4.519647297e-20
6.176341789e-20
8.447297722e-20
1.131979992e-19
1.458525444e-19
1.773560014e-19
1.998379233e-19
4.706060983e-20
5.888898911e-20
7.847725974e-20
1.074821533e-19
1.472438087e-19
1.974387396e-19
2.53931754e-19
3.057745468e-19
3.483274301e-19
8.144278903e-20
1.020953635e-19
1.363417583e-19
1.871451699e-19
2.570243668e-19
3.459577812e-19
4.484629604e-19
5.508896423e-19
6.149263954e-19
1.410596106e-19
1.770577637e-19
2.367866046e-19
3.254278296e-19
4.473311047e-19
6.021940078e-19
7.79372363e-19
9.511579133e-19
1.067786318e-18
2.444373878e-19
3.070900228e-19
4.110655509e-19
5.653556703e-19
7.774105952e-19
1.046429343e-18
1.353503941e-18
1.650508462e-18
1.85380933e-18
4.237295164e-19
5.326731454e-19
7.134906407e-19
9.817851096e-19
1.350406555e-18
1.817796968e-18
2.350986155e-18
2.866535801e-18
3.21967901e-18
7.347477425e-19
9.240888956e-19
1.238376623e-18
1.70470935e-18
2.345340183e-18
3.15743938e-18
4.083634678e-18
4.979008046e-18
5.592252191e-18
1.27437416e-18
1.603347103e-18
2.149460568e-18
2.959789656e-18
4.072921018e-18
5.483795781e-18
7.092600793e-18
8.647557299e-18
9.712356508e-18
2.21079982e-18
2.782270537e-18
3.731013583e-18
5.138797921e-18
7.072548083e-18
9.52326503e-18
1.231733823e-17
1.501738876e-17
1.686605054e-17
3.836048527e-18
4.828651371e-18
6.476629056e-18
8.921978045e-18
1.22807613e-17
1.653700826e-17
2.138881575e-17
2.607654936e-17
2.928579904e-17
6.657212056e-18
8.381166583e-18
1.124344119e-17
1.549054928e-17
2.132372568e-17
2.871465637e-17
3.71384415e-17
4.527614525e-17
5.084662636e-17
1.155492929e-17
1.454898611e-17
1.951996851e-17
2.689567562e-17
3.702486669e-17
4.985733368e-17
6.44806999e-17
7.8605175e-17
8.827287888e-17
2.005860539e-17
2.52583843e-17
3.38911236e-17
4.669886207e-17
6.428557465e-17
8.656187069e-17
1.119419157e-16
1.364512883e-16
1.532248348e-16
3.482432344e-17
4.385458288e-17
5.884546929e-17
8.108325286e-17
1.1161273e-16
1.502735181e-16
1.943086523e-16
2.368213828e-16
2.659092603e-16
6.046447155e-17
7.614646566e-17
1.02176128e-16
1.407810554e-16
1.937656219e-16
2.608391709e-16
3.372072806e-16
4.109065117e-16
4.613157656e-16
1.049865136e-16
1.322180052e-16
1.774087403e-16
2.444116582e-16
3.3633563e-16
4.526469464e-16
5.85004283e-16
7.126656687e-16
7.999414221e-16
1.822854664e-16
2.295655192e-16
3.080039999e-16
4.242537041e-16
5.836539445e-16
7.85208529e-16
1.014396147e-15
1.235280112e-15
1.386180244e-15
3.164546786e-16
3.985214413e-16
5.346170468e-16
7.36202108e-16
1.012406489e-15
1.361336265e-15
1.757692188e-15
2.139273349e-15
2.399693217e-15
5.492247522e-16
6.916079889e-16
9.276019683e-16
1.276888184e-15
1.754986456e-15
2.358227578e-15
3.042497754e-15
3.700284856e-15
4.14858096e-15
9.527639026e-16
1.199617189e-15
1.60847342e-15
2.212992672e-15
3.039352006e-15
4.080317336e-15
5.258905927e-15
6.389638808e-15
7.1588033e-15
1.65162534e-15
2.079143932e-15
2.786572707e-15
3.831168806e-15
5.256635478e-15
7.048503636e-15
9.072349302e-15
1.100900798e-14
1.232312691e-14
2.860215968e-15
3.599500096e-15
4.821358172e-15
6.622512689e-15
9.074963387e-15
1.214948345e-14
1.561130927e-14
1.891311603e-14
2.114646758e-14
4.94643816e-15
6.222189328e-15
8.327516541e-15
1.142437462e-14
1.562935608e-14
2.088315686e-14
2.677602199e-14
3.237355591e-14
3.614488256e-14
8.539153289e-15
1.073463331e-14
1.435093902e-14
1.965626998e-14
2.683526572e-14
3.576772095e-14
4.573968952e-14
5.516505883e-14
6.14853282e-14
1.470843333e-14
1.847345039e-14
2.466068961e-14
3.370825375e-14
4.590015169e-14
6.099430146e-14
7.775077751e-14
9.349627785e-14
1.039960195e-13
2.526564935e-14
3.169403429e-14
4.222853301e-14
5.757287858e-14
7.814731202e-14
1.034697953e-13
1.313979073e-13
1.574645928e-13
1.747371259e-13
4.325894586e-14
5.417644541e-14
7.200776032e-14
9.786049302e-14
1.323239651e-13
1.744531468e-13
2.205728939e-13
2.632940472e-13
2.914042362e-13
7.378389823e-14
9.220835203e-14
1.221829296e-13
1.654083856e-13
2.226476983e-13
2.920831111e-13
3.674694923e-13
4.367245564e-13
4.819501291e-13
1.252967105e-13
1.561617315e-13
2.061497057e-13
2.77795243e-13
3.719601189e-13
4.852232768e-13
6.070946523e-13
7.180690091e-13
7.899644479e-13
2.117185858e-13
2.629917185e-13
3.456097109e-13
4.632140977e-13
6.165147315e-13
7.992244281e-13
9.939584298e-13
1.169656823e-12
1.282560581e-12
3.557687157e-13
4.401470564e-13
5.753427778e-13
7.663532245e-13
1.013142439e-12
1.304441443e-12
1.611866101e-12
1.886657246e-12
2.061804446e-12
5.941774589e-13
7.316096334e-13
9.504658814e-13
1.257203767e-12
1.649832783e-12
2.108664246e-12
2.588085935e-12
3.012649067e-12
3.28110747e-12
9.857329964e-13
1.207097884e-12
1.557327365e-12
2.044080087e-12
2.661169592e-12
3.375060053e-12
4.113640693e-12
4.761808789e-12
5.168529836e-12
1.623531786e-12
1.975903979e-12
2.529647364e-12
3.292637392e-12
4.250602828e-12
5.34781652e-12
6.472111159e-12
7.450268616e-12
8.059642358e-12
2.653370784e-12
3.207425161e-12
4.072141378e-12
5.253345831e-12
6.722272003e-12
8.388472415e-12
1.00801967e-11
1.154010012e-11
1.244352791e-11
4.300984981e-12
5.161246185e-12
6.494709087e-12
8.300790032e-12
1.052608196e-11
1.302698598e-11
1.554441312e-11
1.770057125e-11
1.902672861e-11
6.911864686e-12
8.23070446e-12
1.026141087e-11
1.298938671e-11
1.6321048e-11
2.003299963e-11
2.373979921e-11
2.689287958e-11
2.882153777e-11
1.10087838e-11
1.300532703e-11
1.60599976e-11
2.013175763e-11
2.5063679e-11
3.051461442e-11
3.591844912e-11
4.04865845e-11
4.326708582e-11
1.737408664e-11
2.035952795e-11
2.489986509e-11
3.090821503e-11
3.813049843e-11
4.605442171e-11
5.385820995e-11
6.041855049e-11
6.439431947e-11
2.716644872e-11
3.157774512e-11
3.824922377e-11
4.701884741e-11
5.748692283e-11
6.889574059e-11
8.006518089e-11
8.940856752e-11
9.504939964e-11
4.208558633e-11
4.853020226e-11
5.822646412e-11
7.089396182e-11
8.591898268e-11
1.021962403e-10
1.180479676e-10
1.312503306e-10
1.391946176e-10
6.460004246e-11
7.391425619e-11
8.786162427e-11
1.059812179e-10
1.273496983e-10
1.503741095e-10
1.72690341e-10
1.912045834e-10
2.023129393e-10
9.826643519e-11
1.115927754e-10
1.314621177e-10
1.571442006e-10
1.872729719e-10
2.19576881e-10
2.507521771e-10
2.765254981e-10
2.91949526e-10
1.481768842e-10
1.670662709e-10
1.951195803e-10
2.312113463e-10
2.733485604e-10
3.183221769e-10
3.615508107e-10
3.971730077e-10
4.184413782e-10
2.215827958e-10
2.481306022e-10
2.874156625e-10
3.377397607e-10
3.962284288e-10
4.583847137e-10
5.179000442e-10
5.667891144e-10
5.959122001e-10
3.28767754e-10
3.657992403e-10
4.20414572e-10
4.900929107e-10
5.70726199e-10
6.560534965e-10
7.374389812e-10
8.040721424e-10
8.436642394e-10
4.842705713e-10
5.356039125e-10
6.110758378e-10
7.069917407e-10
8.175196872e-10
9.339794291e-10
1.044595235e-09
1.134808524e-09
1.188231138e-09
7.085965085e-10
7.794373164e-10
8.832916565e-10
1.01479959e-09
1.165716109e-09
1.324020484e-09
1.473668149e-09
1.595112312e-09
1.666675088e-09
1.030593194e-09
1.128162257e-09
1.270851456e-09
1.450957817e-09
1.656853159e-09
1.871857992e-09
2.074033379e-09
2.237086049e-09
2.33247741e-09
1.490684709e-09
1.625261981e-09
1.821750603e-09
2.069217284e-09
2.351325654e-09
2.64485061e-09
2.919523878e-09
3.139570668e-09
3.26713155e-09
2.145112298e-09
2.331812363e-09
2.604373811e-09
2.94762772e-09
3.338891896e-09
3.745810142e-09
4.126057171e-09
4.429621194e-09
4.604302024e-09
3.071217662e-09
3.333011018e-09
3.716183438e-09
4.200637735e-09
4.755863404e-09
5.337320151e-09
5.885050077e-09
6.325790152e-09
6.580595609e-09
4.373707014e-09
4.746452787e-09
5.295636616e-09
5.997093942e-09
6.812757769e-09
7.683825603e-09
8.52518471e-09
9.22267899e-09
9.638578598e-09
6.192023654e-09
6.732555332e-09
7.538354795e-09
8.586465209e-09
9.83733353e-09
1.122117358e-08
1.262003381e-08
1.384508241e-08
1.462079137e-08
8.710150482e-09
9.5087406e-09
1.071972639e-08
1.233659825e-08
1.433846604e-08
1.666307207e-08
1.915798462e-08
2.149871581e-08
2.309327866e-08
1.217353354e-08
1.337244614e-08
1.522940784e-08
1.778848927e-08
2.109529558e-08
2.514573519e-08
2.976967264e-08
3.440501138e-08
3.778172118e-08
1.692456044e-08
1.874508096e-08
2.162991529e-08
2.573769536e-08
3.12716713e-08
3.838622395e-08
4.693868425e-08
5.596729507e-08
6.288848454e-08
2.347785448e-08
2.625925396e-08
3.076103169e-08
3.735671547e-08
4.654391849e-08
5.877182079e-08
7.395287157e-08
9.042410209e-08
1.033411628e-07
3.266544016e-08
3.691940411e-08
4.391643723e-08
5.436848658e-08
6.920111304e-08
8.919834002e-08
1.140410924e-07
1.403772333e-07
1.591377941e-07
4.587763766e-08
5.235446421e-08
6.309387983e-08
7.923416284e-08
1.021005593e-07
1.323709973e-07
1.679986034e-07
2.001939594e-07
2.164475838e-07
6.538174238e-08
7.511292961e-08
9.120534812e-08
1.151240549e-07
1.480417091e-07
1.888568974e-07
2.295972181e-07
2.594538975e-07
2.759813894e-07
9.455846943e-08
1.087505415e-07
1.318159388e-07
1.649111865e-07
2.070464484e-07
2.507092808e-07
2.893711306e-07
3.203557685e-07
3.388361973e-07
1.374913241e-07
1.569277031e-07
1.871418524e-07
2.274049812e-07
2.683429827e-07
3.102631515e-07
3.502475933e-07
3.840284222e-07
4.051898248e-07
1.96078385e-07
2.192144589e-07
2.496722264e-07
2.86411388e-07
3.273954909e-07
3.708424789e-07
4.135518973e-07
4.505220464e-07
4.743731494e-07
2.582284297e-07
2.791001427e-07
3.087151454e-07
3.456514667e-07
3.881350503e-07
4.338685995e-07
4.793473689e-07
5.190625786e-07
5.451178031e-07
3.18188338e-07
3.390755003e-07
3.693233464e-07
4.074411179e-07
4.516290391e-07
4.993172751e-07
5.467914178e-07
5.88296624e-07
6.157612757e-07
3.805381495e-07
4.019417791e-07
4.330176922e-07
4.721526497e-07
5.174560186e-07
5.661561873e-07
6.144118558e-07
6.564797146e-07
6.844039228e-07
4.462221183e-07
4.679510927e-07
4.993646413e-07
5.38865072e-07
5.842938228e-07
6.328447048e-07
6.803665042e-07
7.216489982e-07
7.490464808e-07
5.144483644e-07
5.360738549e-07
5.672225455e-07
6.059704428e-07
6.502323623e-07
6.971032055e-07
7.425479097e-07
7.817696693e-07
8.077242356e-07
5.834960004e-07
6.044304642e-07
6.344272013e-07
6.714997828e-07
7.132949538e-07
7.56942572e-07
7.989462295e-07
8.349384736e-07
8.586560172e-07
6.511871169e-07
6.707971754e-07
6.987111633e-07
7.328975016e-07
7.709895874e-07
8.102837961e-07
8.476952865e-07
8.794735354e-07
9.003045007e-07
7.151663726e-07
7.328547204e-07
7.578414634e-07
7.88125155e-07
8.214430092e-07
8.55336652e-07
8.871518318e-07
9.13805674e-07
9.310709611e-07
7.731145325e-07
7.883706681e-07
8.097253605e-07
8.352785328e-07
8.62933949e-07
8.904862524e-07
9.156070348e-07
9.355965054e-07
9.465748511e-07
8.229295003e-07
8.353552618e-07
8.525269612e-07
8.726834101e-07
8.938732326e-07
9.140012969e-07
9.303929316e-07
9.420443212e-07
9.487757947e-07
8.628048315e-07
8.720878123e-07
8.845858458e-07
8.986495336e-07
9.122370037e-07
9.229404163e-07
9.31367375e-07
9.375511469e-07
9.41277612e-07
8.909336932e-07
8.967135116e-07
9.036456733e-07
9.098748941e-07
9.152705891e-07
9.193492451e-07
9.222733553e-07
9.243336974e-07
9.256712117e-07
9.03396354e-07
9.049820285e-07
9.065479158e-07
9.074294979e-07
9.074157284e-07
9.065292566e-07
9.051506543e-07
9.038702956e-07
9.03226865e-07
9.014742844e-07
9.003692261e-07
8.983551325e-07
8.952471748e-07
8.911051539e-07
8.862741865e-07
8.814095402e-07
8.773887089e-07
8.751059255e-07
8.893761678e-07
8.862776654e-07
8.815541197e-07
8.753217534e-07
8.679094968e-07
8.59923978e-07
8.522597422e-07
8.46032768e-07
8.424262061e-07
8.692245205e-07
8.645865948e-07
8.577594404e-07
8.490864236e-07
8.391200989e-07
8.286761215e-07
8.188366685e-07
8.108987184e-07
8.062642758e-07
8.425459792e-07
8.367399596e-07
8.283207966e-07
8.178086951e-07
8.059313159e-07
7.936625446e-07
7.822202292e-07
7.730268224e-07
7.676374576e-07
8.10696354e-07
8.040501795e-07
7.944946067e-07
7.826836479e-07
7.694743549e-07
7.559516906e-07
7.434216037e-07
7.333822564e-07
7.274834016e-07
7.749531248e-07
7.677571353e-07
7.574684666e-07
7.448363741e-07
7.308059267e-07
7.165311822e-07
7.033646347e-07
6.928373963e-07
6.866435527e-07
7.365125843e-07
7.29018077e-07
7.183445215e-07
7.053023268e-07
6.908884018e-07
6.76290019e-07
6.628708775e-07
6.521595395e-07
6.458525567e-07
6.964667828e-07
6.888847571e-07
6.781177487e-07
6.650079789e-07
6.505733301e-07
6.360038627e-07
6.2264699e-07
6.120003722e-07
6.057293481e-07
6.557798738e-07
6.482805375e-07
6.376543814e-07
6.247512673e-07
6.105851541e-07
5.963252555e-07
5.83280282e-07
5.728951828e-07
5.667780067e-07
6.152719263e-07
6.079875789e-07
5.976836886e-07
5.851984821e-07
5.715224389e-07
5.577856811e-07
5.452417054e-07
5.352668027e-07
5.293925513e-07
5.756170567e-07
5.686453963e-07
5.587970739e-07
5.46883985e-07
5.338585051e-07
5.207984171e-07
5.088905068e-07
4.994315983e-07
4.938636753e-07
5.373449423e-07
5.307533256e-07
5.214518147e-07
5.102153781e-07
4.979480196e-07
4.85666279e-07
4.744829671e-07
4.65608966e-07
4.603886822e-07
5.008493078e-07
4.946794739e-07
4.859806024e-07
4.754836648e-07
4.640377222e-07
4.525927921e-07
4.421839187e-07
4.339330997e-07
4.290834035e-07
4.66401394e-07
4.606742455e-07
4.526051072e-07
4.428767969e-07
4.322798811e-07
4.216954916e-07
4.120798665e-07
4.044659568e-07
3.999950747e-07
4.341664911e-07
4.288866266e-07
4.214518869e-07
4.124950945e-07
4.027471415e-07
3.930201697e-07
3.84192669e-07
3.772104849e-07
3.731152951e-07
4.042218016e-07
3.993815928e-07
3.925691426e-07
3.843672028e-07
3.754475969e-07
3.665550608e-07
3.584929179e-07
3.521233484e-07
3.48392361e-07
3.765741956e-07
3.721572911e-07
3.65943099e-07
3.584655184e-07
3.503392057e-07
3.422442042e-07
3.349123201e-07
3.291265572e-07
3.257424718e-07
3.511768193e-07
3.471610564e-07
3.415131811e-07
3.347203322e-07
3.273427554e-07
3.199993408e-07
3.133546847e-07
3.081177167e-07
3.050595097e-07
3.279437971e-07
3.243034966e-07
3.191852497e-07
3.130320988e-07
3.063531844e-07
2.997102329e-07
2.937053016e-07
2.88978656e-07
2.862232332e-07
3.067626958e-07
3.034704327e-07
2.988428226e-07
2.932817964e-07
2.87248982e-07
2.812531426e-07
2.758385977e-07
2.715824336e-07
2.691058905e-07
2.875047187e-07
2.845326314e-07
2.803561662e-07
2.753392608e-07
2.698997199e-07
2.644975767e-07
2.596241764e-07
2.557988154e-07
2.535773605e-07
2.700327105e-07
2.673534278e-07
2.635893876e-07
2.590696541e-07
2.541718596e-07
2.493114469e-07
2.449313958e-07
2.414983904e-07
2.395089889e-07
2.542072045e-07
2.517944673e-07
2.484057558e-07
2.443382903e-07
2.399330519e-07
2.355648544e-07
2.316326907e-07
2.285555243e-07
2.267763189e-07
2.398908012e-07
2.377198499e-07
2.346715214e-07
2.310140738e-07
2.270551708e-07
2.23132729e-07
2.196058573e-07
2.168503604e-07
2.152609215e-07
2.269511841e-07
2.249989705e-07
2.22258516e-07
2.189718153e-07
2.154163296e-07
2.118965514e-07
2.087355104e-07
2.062700677e-07
2.04851516e-07
2.152630606e-07
2.135083337e-07
2.110457931e-07
2.080936698e-07
2.049021023e-07
2.017453643e-07
1.989139074e-07
1.96709514e-07
1.954445524e-07
2.047092831e-07
2.031325882e-07
2.009205428e-07
1.982699105e-07
1.954061503e-07
1.925762549e-07
1.900413009e-07
1.880715164e-07
1.869444e-07
1.951813677e-07
1.937649883e-07
1.917784745e-07
1.893992194e-07
1.868304158e-07
1.842944549e-07
1.820259553e-07
1.802667917e-07
1.792632584e-07
1.865795854e-07
1.853074495e-07
1.835238245e-07
1.8138864e-07
1.790850159e-07
1.768131778e-07
1.747839347e-07
1.732137058e-07
1.723208821e-07
1.788127633e-07
1.776703305e-07
1.760691123e-07
1.741533024e-07
1.720879373e-07
1.700532851e-07
1.682387438e-07
1.668378938e-07
1.660441907e-07
1.717979e-07
1.707720411e-07
1.693347371e-07
1.67616009e-07
1.657646101e-07
1.639428492e-07
1.623208813e-07
1.610718088e-07
1.603668126e-07
1.654596724e-07
1.645385477e-07
1.632484835e-07
1.617067401e-07
1.600474143e-07
1.584166616e-07
1.569673523e-07
1.558542352e-07
1.552286012e-07
1.597298885e-07
1.58902831e-07
1.57744985e-07
1.563621251e-07
1.548751604e-07
1.534157238e-07
1.521211667e-07
1.511297964e-07
1.505751468e-07
1.54546924e-07
1.538043289e-07
1.527651775e-07
1.515249081e-07
1.501925682e-07
1.488867395e-07
1.477308462e-07
1.468484718e-07
1.463573013e-07
1.498551677e-07
1.491883906e-07
1.482557641e-07
1.471434277e-07
1.459497629e-07
1.447816269e-07
1.437499503e-07
1.42965136e-07
1.425307244e-07
1.45604491e-07
1.450057552e-07
1.441687071e-07
1.431711226e-07
1.421017962e-07
1.410570565e-07
1.401366306e-07
1.394391251e-07
1.390554582e-07
1.41749749e-07
1.412120604e-07
1.40460748e-07
1.395660678e-07
1.386081995e-07
1.376740204e-07
1.368532143e-07
1.362338328e-07
1.358955305e-07
1.382503169e-07
1.377673884e-07
1.370929659e-07
1.362905462e-07
1.354325701e-07
1.345974336e-07
1.338658195e-07
1.333163371e-07
1.330185886e-07
1.35069667e-07
1.346358494e-07
1.340303712e-07
1.333106546e-07
1.325421908e-07
1.31795767e-07
1.311440013e-07
1.306570562e-07
1.303955619e-07
1.321749795e-07
1.317852001e-07
1.312415325e-07
1.305959421e-07
1.299076809e-07
1.292407112e-07
1.286604267e-07
1.282294338e-07
1.280003528e-07
1.295367881e-07
1.29186494e-07
1.286982369e-07
1.281190806e-07
1.275026773e-07
1.26906869e-07
1.263905774e-07
1.260096494e-07
1.258095523e-07
1.271286567e-07
1.268137644e-07
1.263751791e-07
1.258555634e-07
1.253035434e-07
1.247714735e-07
1.243124776e-07
1.239763543e-07
1.238021805e-07
1.249268852e-07
1.24643735e-07
1.242496797e-07
1.237834303e-07
1.232891032e-07
1.228141317e-07
1.224064454e-07
1.221104292e-07
1.219594484e-07
1.229102418e-07
1.226555556e-07
1.223014265e-07
1.218830176e-07
1.214403985e-07
1.210165895e-07
1.206548654e-07
1.203947635e-07
1.202645411e-07
1.21059719e-07
1.208305628e-07
1.205122404e-07
1.201367295e-07
1.197404679e-07
1.193625179e-07
1.190419814e-07
1.188140531e-07
1.18702419e-07
1.193583116e-07
1.191520608e-07
1.188658609e-07
1.185288297e-07
1.181741451e-07
1.178373181e-07
1.17553708e-07
1.17354617e-07
1.17259637e-07
1.177908142e-07
1.176051223e-07
1.173477522e-07
1.170452529e-07
1.167278756e-07
1.164279436e-07
1.161774581e-07
1.160042294e-07
1.159241801e-07
1.163436377e-07
1.161764076e-07
1.159449251e-07
1.156734318e-07
1.153895498e-07
1.151227396e-07
1.149019872e-07
1.147519685e-07
1.14685314e-07
1.150046417e-07
1.148539999e-07
1.146457773e-07
1.144021414e-07
1.141483517e-07
1.139112964e-07
1.137172521e-07
1.135880782e-07
1.135334497e-07
1.137629833e-07
1.136272564e-07
1.134399469e-07
1.132213571e-07
1.129946223e-07
1.127843175e-07
1.126142826e-07
1.125038443e-07
1.124600215e-07
1.126089799e-07
1.124866731e-07
1.123181808e-07
1.121221271e-07
1.119197356e-07
1.117334998e-07
1.115850664e-07
1.114914822e-07
1.114573765e-07
1.115339847e-07
1.11423763e-07
1.112722159e-07
1.110964566e-07
1.109159874e-07
1.107514268e-07
1.106224453e-07
1.105440358e-07
1.105186759e-07
1.105302758e-07
1.10430946e-07
1.102946716e-07
1.101372043e-07
1.099764948e-07
1.098314712e-07
1.097200221e-07
1.096552876e-07
1.096378059e-07
1.095909547e-07
1.095014506e-07
1.093789542e-07
1.092379891e-07
1.090951065e-07
1.089677092e-07
1.08872077e-07
1.08819677e-07
1.088092982e-07
1.087098572e-07
1.086292251e-07
1.085191699e-07
1.083931065e-07
1.082663226e-07
1.081548428e-07
1.080734931e-07
1.080322286e-07
1.08028259e-07
1.078814718e-07
1.078088584e-07
1.07710048e-07
1.075974542e-07
1.074852222e-07
1.073881305e-07
1.073196899e-07
1.072884875e-07
1.072903058e-07
1.071008681e-07
1.070355091e-07
1.069468724e-07
1.068464655e-07
1.067473999e-07
1.066633263e-07
1.066065642e-07
1.065844616e-07
1.065915107e-07
1.063636325e-07
1.06304843e-07
1.062254197e-07
1.061360498e-07
1.060489086e-07
1.059766245e-07
1.05930437e-07
1.05916571e-07
1.059283508e-07
1.056658107e-07
1.056129763e-07
1.05541905e-07
1.054625403e-07
1.053862089e-07
1.053246114e-07
1.052880073e-07
1.052816023e-07
1.052976634e-07
1.050038574e-07
1.049564263e-07
1.048929332e-07
1.048226471e-07
1.047561239e-07
1.047042221e-07
1.046763102e-07
1.046766687e-07
1.046966065e-07
1.043745905e-07
1.043320667e-07
1.042754564e-07
1.042134156e-07
1.041557999e-07
1.04112702e-07
1.040926804e-07
1.040991741e-07
1.041226242e-07
1.037751518e-07
1.037370889e-07
1.036867353e-07
1.036321896e-07
1.035826705e-07
1.035475733e-07
1.035347192e-07
1.035467818e-07
1.035734152e-07
1.032029708e-07
1.031689668e-07
1.031243058e-07
1.030765793e-07
1.030344256e-07
1.030066047e-07
1.03000266e-07
1.030173861e-07
1.030469058e-07
1.026557339e-07
1.026254261e-07
1.02585949e-07
1.025444318e-07
1.025089835e-07
1.024877851e-07
1.024873726e-07
1.02509088e-07
1.02541225e-07
1.021313563e-07
1.021044173e-07
1.020696646e-07
1.020338057e-07
1.020044667e-07
1.019892994e-07
1.019942804e-07
1.020201728e-07
1.020546836e-07
1.016279574e-07
1.016040912e-07
1.015736475e-07
1.015429486e-07
1.015191796e-07
1.015095085e-07
1.015194005e-07
1.015490908e-07
1.015857546e-07
1.01143839e-07
1.011227777e-07
1.010962671e-07
1.010702773e-07
1.010515897e-07
1.010469301e-07
1.010612956e-07
1.010944399e-07
1.011330562e-07
1.006774659e-07
1.006589669e-07
1.006360488e-07
1.006143592e-07
1.006003102e-07
1.006002224e-07
1.006186646e-07
1.006549506e-07
1.006953371e-07
1.002274489e-07
1.002112922e-07
1.001916576e-07
1.001738974e-07
1.001640852e-07
1.001681699e-07
1.001903282e-07
1.00229472e-07
1.002714628e-07
9.97925296e-08
9.977851551e-08
9.976188384e-08
9.974771632e-08
9.974177564e-08
9.974967008e-08
9.97752165e-08
9.981695963e-08
9.986040376e-08
9.937156684e-08
9.935951384e-08
9.934563022e-08
9.933474917e-08
9.933234803e-08
9.934372207e-08
9.937235807e-08
9.941646516e-08
9.946122481e-08
9.896352472e-08
9.895326778e-08
9.894190033e-08
9.893402716e-08
9.893486335e-08
9.894941637e-08
9.898086995e-08
9.902712636e-08
9.907307583e-08
9.856746208e-08
9.855885096e-08
9.854978855e-08
9.854466959e-08
9.854846778e-08
9.856592583e-08
9.859994895e-08
9.864815883e-08
9.86951833e-08
9.818252297e-08
9.81754208e-08
9.816847107e-08
9.816587512e-08
9.817238431e-08
9.819249751e-08
9.822886382e-08
9.827884832e-08
9.832684285e-08
9.78079283e-08
9.780221031e-08
9.779719787e-08
9.779691407e-08
9.780590527e-08
9.782844554e-08
9.786694835e-08
9.791854404e-08
9.796741268e-08
9.744296844e-08
9.743852081e-08
9.743528563e-08
9.743712154e-08
9.744838572e-08
9.747314481e-08
9.751359526e-08
9.756665272e-08
9.761630765e-08
9.70869966e-08
9.708371544e-08
9.708211145e-08
9.70858914e-08
9.709923766e-08
9.712602528e-08
9.716825075e-08
9.722263333e-08
9.727299418e-08
9.67394231e-08
9.673721358e-08
9.673710741e-08
9.674267096e-08
9.675792491e-08
9.67865672e-08
9.683040989e-08
9.688599256e-08
9.693698576e-08
9.639971036e-08
9.63984859e-08
9.639975578e-08
9.640695642e-08
9.642395878e-08
9.645429686e-08
9.649961249e-08
9.655628091e-08
9.660783909e-08
9.606736863e-08
9.606705022e-08
9.606958502e-08
9.6078289e-08
9.609689434e-08
9.612878313e-08
9.617543987e-08
9.623308947e-08
9.628515096e-08
9.57419525e-08
9.574246809e-08
9.574616648e-08
9.575625187e-08
9.577632757e-08
9.580963469e-08
9.585751222e-08
9.591604746e-08
9.596855584e-08
9.542305818e-08
9.542434225e-08
9.542911205e-08
9.544046791e-08
9.546189327e-08
9.549649821e-08
9.55454869e-08
9.560482062e-08
9.565772432e-08
9.511032179e-08
9.511231495e-08
9.51180726e-08
9.513059837e-08
9.515326399e-08
9.518905746e-08
9.523905776e-08
9.529911069e-08
9.535236265e-08
9.480341869e-08
9.480606743e-08
9.481273772e-08
9.482634286e-08
9.485015022e-08
9.488703371e-08
9.493795579e-08
9.499865613e-08
9.505221354e-08
9.450206416e-08
9.450532087e-08
9.451283681e-08
9.452744074e-08
9.455230211e-08
9.459018785e-08
9.464195141e-08
9.470323472e-08
9.47570588e-08
9.420601585e-08
9.420983887e-08
9.421814198e-08
9.423367436e-08
9.425951319e-08
9.429832443e-08
9.435085903e-08
9.44126683e-08
9.44667243e-08
9.391507817e-08
9.391943235e-08
9.392847328e-08
9.394487487e-08
9.397162668e-08
9.401129867e-08
9.406454446e-08
9.412683062e-08
9.418108797e-08
9.362910956e-08
9.363396702e-08
9.364370681e-08
9.366093096e-08
9.368854508e-08
9.372902678e-08
9.378293607e-08
9.384565912e-08
9.39000919e-08
9.334803292e-08
9.335337444e-08
9.336378645e-08
9.338180158e-08
9.341024392e-08
9.345150085e-08
9.350604073e-08
9.356917168e-08
9.362375969e-08
9.307185026e-08
9.307766728e-08
9.308874015e-08
9.310753345e-08
9.31367907e-08
9.317880936e-08
9.323396572e-08
9.329748981e-08
9.335222025e-08
9.280066226e-08
9.280695978e-08
9.281870163e-08
9.283828439e-08
9.286837014e-08
9.291116432e-08
9.296694793e-08
9.303086952e-08
9.308573985e-08
9.253469378e-08
9.254149434e-08
9.255393863e-08
9.257435357e-08
9.260531679e-08
9.264893663e-08
9.270539177e-08
9.276974146e-08
9.282476373e-08
9.227432621e-08
9.228167526e-08
9.229488856e-08
9.231621983e-08
9.234815637e-08
9.239270063e-08
9.244991703e-08
9.251476177e-08
9.256996886e-08
9.202013758e-08
9.202811041e-08
9.204220273e-08
9.206458888e-08
9.209765664e-08
9.2143289e-08
9.220141788e-08
9.226687478e-08
9.232232918e-08
9.177295113e-08
9.178166183e-08
9.179679961e-08
9.182045035e-08
9.185488876e-08
9.190185889e-08
9.196113388e-08
9.20273884e-08
9.20831941e-08
9.153389297e-08
9.154350547e-08
9.155992794e-08
9.158514491e-08
9.162129934e-08
9.166996947e-08
9.173073318e-08
9.17980626e-08
9.185438056e-08
9.130445881e-08
9.13152004e-08
9.133323939e-08
9.136044163e-08
9.139879323e-08
9.144967073e-08
9.151240758e-08
9.158121022e-08
9.163827807e-08
9.108658976e-08
9.109876708e-08
9.111887066e-08
9.114862479e-08
9.11898261e-08
9.12436025e-08
9.130897829e-08
9.137980909e-08
9.143796526e-08
9.088275606e-08
9.089677377e-08
9.09195336e-08
9.095258903e-08
9.099750539e-08
9.105510194e-08
9.112401023e-08
9.119762277e-08
9.125733542e-08
9.069604766e-08
9.071242945e-08
9.073861189e-08
9.077594063e-08
9.082569721e-08
9.088831674e-08
9.096193189e-08
9.103932679e-08
9.110122739e-08
9.053026925e-08
9.054968123e-08
9.058026159e-08
9.06231023e-08
9.067913612e-08
9.074832051e-08
9.082815676e-08
9.091063598e-08
9.097555749e-08
9.039003734e-08
9.041331304e-08
9.044951256e-08
9.049941791e-08
9.056353386e-08
9.064122613e-08
9.07292018e-08
9.081842808e-08
9.088744707e-08
9.028087577e-08
9.030904245e-08
9.035236688e-08
9.041125309e-08
9.048568266e-08
9.057429225e-08
9.067279758e-08
9.077085798e-08
9.084534034e-08
9.0209306e-08
9.024361123e-08
9.029588998e-08
9.036608719e-08
9.045354816e-08
9.055601773e-08
9.066798488e-08
9.077745715e-08
9.085910668e-08
9.018292796e-08
9.022486566e-08
9.028829014e-08
9.037259169e-08
9.047634701e-08
9.059621872e-08
9.072519236e-08
9.0849213e-08
9.094012234e-08
9.021048711e-08
9.026182198e-08
9.033898159e-08
9.044069057e-08
9.056460425e-08
9.070608371e-08
9.085629031e-08
9.099862337e-08
9.110132706e-08
9.030192324e-08
9.036471248e-08
9.045862679e-08
9.058159789e-08
9.073018609e-08
9.089820201e-08
9.107461663e-08
9.12397225e-08
9.135725232e-08
9.046839706e-08
9.054500834e-08
9.065915384e-08
9.080782882e-08
9.09863042e-08
9.118656228e-08
9.139497189e-08
9.158807618e-08
9.172401943e-08
9.072229085e-08
9.081541547e-08
9.095374566e-08
9.113318083e-08
9.134748885e-08
9.15865189e-08
9.183358203e-08
9.206074517e-08
9.221930733e-08
9.107718015e-08
9.118984065e-08
9.135679835e-08
9.157268302e-08
9.182952917e-08
9.211472511e-08
9.240802835e-08
9.267621766e-08
9.286229163e-08
9.154777454e-08
9.16833262e-08
9.188384735e-08
9.214251264e-08
9.244938056e-08
9.278903377e-08
9.313714668e-08
9.345431353e-08
9.367355833e-08
9.214982644e-08
9.231195239e-08
9.255146135e-08
9.28598795e-08
9.32250405e-08
9.362836809e-08
9.404089916e-08
9.441606491e-08
9.467499761e-08
9.290000821e-08
9.309270855e-08
9.337710535e-08
9.374288057e-08
9.417539641e-08
9.465256712e-08
9.514022447e-08
9.558357977e-08
9.588968513e-08
9.381575951e-08
9.404333516e-08
9.437897612e-08