/*--------------------------------*- C++ -*----------------------------------*\
| =========                 |                                                 |
| \\      /  F ield         | OpenFOAM: The Open Source CFD Toolbox           |
|  \\    /   O peration     | Version:  2212                                  |
|   \\  /    A nd           | Website:  www.openfoam.com                      |
|    \\/     M anipulation  |                                                 |
\*---------------------------------------------------------------------------*/
FoamFile
{
    version     2.0;
    format      ascii;
    arch        "LSB;label=32;scalar=64";
    class       volScalarField;
    location    "30.00000000";
    object      I-C4H51_0;
}
// * * * * * * * * * * * * * * * * * * * * * * * * * * * * * * * * * * * * * //

dimensions      [0 0 0 0 0 0 0];

internalField   nonuniform List<scalar> 
3000
(
7.68779952e-24
8.63706594e-24
1.006957104e-23
1.197863635e-23
1.434495769e-23
1.71043752e-23
2.009070317e-23
2.29405476e-23
2.495564382e-23
2.886688304e-23
3.256229703e-23
3.813654944e-23
4.5581702e-23
5.489074318e-23
6.601274604e-23
7.875444763e-23
9.247566621e-23
1.046264795e-22
6.467638605e-23
7.35305515e-23
8.701389193e-23
1.053225231e-22
1.287863411e-22
1.577469942e-22
1.920890746e-22
2.298877115e-22
2.621818185e-22
1.232324558e-22
1.415734203e-22
1.699134873e-22
2.09213902e-22
2.608692756e-22
3.261950818e-22
4.048344257e-22
4.905001863e-22
5.596400317e-22
2.18928288e-22
2.546054457e-22
3.106016948e-22
3.897673547e-22
4.958318652e-22
6.317753935e-22
7.953284132e-22
9.690386915e-22
1.102394567e-21
3.766714386e-22
4.436744823e-22
5.503472342e-22
7.035114035e-22
9.113525017e-22
1.179119337e-21
1.498824662e-21
1.830164316e-21
2.075330358e-21
6.398740707e-22
7.630382633e-22
9.614101898e-22
1.249458933e-21
1.643256835e-21
2.150670423e-21
2.750738696e-21
3.360514222e-21
3.80057138e-21
1.083681119e-21
1.306737127e-21
1.669193437e-21
2.199574946e-21
2.927520411e-21
3.86357547e-21
4.960825097e-21
6.059575588e-21
6.839266029e-21
1.83840288e-21
2.238082802e-21
2.891725106e-21
3.85299883e-21
5.174613302e-21
6.869341e-21
8.841504371e-21
1.079572864e-20
1.21670941e-20
3.129817104e-21
3.840254886e-21
5.007334295e-21
6.729030444e-21
9.097226668e-21
1.212558437e-20
1.562973114e-20
1.907625791e-20
2.14767132e-20
5.349362874e-21
6.604520828e-21
8.672647154e-21
1.172900756e-20
1.593188769e-20
2.129258064e-20
2.746829532e-20
3.351078579e-20
3.769871203e-20
9.175904568e-21
1.138326558e-20
1.502732688e-20
2.04172219e-20
2.782326125e-20
3.724632128e-20
4.806297489e-20
5.860761321e-20
6.589919453e-20
1.578768189e-20
1.965691497e-20
2.605211813e-20
3.551343824e-20
4.849864427e-20
6.497598272e-20
8.381971269e-20
1.021350794e-19
1.148474594e-19
2.72311202e-20
3.399974115e-20
4.519705174e-20
6.176450478e-20
8.447481056e-20
1.132007863e-19
1.458563644e-19
1.773607177e-19
1.998431586e-19
4.706076438e-20
5.888934252e-20
7.847797454e-20
1.074834307e-19
1.472458381e-19
1.974416095e-19
2.539353675e-19
3.057786126e-19
3.483316734e-19
8.144289407e-20
1.020956322e-19
1.363422974e-19
1.871460699e-19
2.570256359e-19
3.459592764e-19
4.484643891e-19
5.508907118e-19
6.149270026e-19
1.410595513e-19
1.770577547e-19
2.367866393e-19
3.254278306e-19
4.473308757e-19
6.021932297e-19
7.793706922e-19
9.511551939e-19
1.067782822e-18
2.444371002e-19
3.070896492e-19
4.11064978e-19
5.653546997e-19
7.774089418e-19
1.046426702e-18
1.353500128e-18
1.650503569e-18
1.853803793e-18
4.237290266e-19
5.326724769e-19
7.134896318e-19
9.81783541e-19
1.350404192e-18
1.817793656e-18
2.350981927e-18
2.866530909e-18
3.219673827e-18
7.347471399e-19
9.24088093e-19
1.238375472e-18
1.704707687e-18
2.345337884e-18
3.157436442e-18
4.08363126e-18
4.979004412e-18
5.59224855e-18
1.274373544e-18
1.603346321e-18
2.149459519e-18
2.95978825e-18
4.072919228e-18
5.483793682e-18
7.09259856e-18
8.647555113e-18
9.712354438e-18
2.210799263e-18
2.782269874e-18
3.731012758e-18
5.138796907e-18
7.0725469e-18
9.523263767e-18
1.231733701e-17
1.501738768e-17
1.686604959e-17
3.83604807e-18
4.828650866e-18
6.47662848e-18
8.921977405e-18
1.228076063e-17
1.653700763e-17
2.138881523e-17
2.607654897e-17
2.928579875e-17
6.657211717e-18
8.381166242e-18
1.124344084e-17
1.549054894e-17
2.132372539e-17
2.871465616e-17
3.71384414e-17
4.527614525e-17
5.084662642e-17
1.155492907e-17
1.454898593e-17
1.951996834e-17
2.68956755e-17
3.702486666e-17
4.985733372e-17
6.448070004e-17
7.86051752e-17
8.82728791e-17
2.005860529e-17
2.525838426e-17
3.389112359e-17
4.669886211e-17
6.428557478e-17
8.656187089e-17
1.119419159e-16
1.364512886e-16
1.532248351e-16
3.482432344e-17
4.385458296e-17
5.88454694e-17
8.1083253e-17
1.116127302e-16
1.502735183e-16
1.943086526e-16
2.368213831e-16
2.659092605e-16
6.046447164e-17
7.614646584e-17
1.021761282e-16
1.407810557e-16
1.937656222e-16
2.608391712e-16
3.372072809e-16
4.10906512e-16
4.613157657e-16
1.049865137e-16
1.322180054e-16
1.774087405e-16
2.444116585e-16
3.363356302e-16
4.526469467e-16
5.850042833e-16
7.126656689e-16
7.999414219e-16
1.822854666e-16
2.295655194e-16
3.080040001e-16
4.242537044e-16
5.836539448e-16
7.852085294e-16
1.014396148e-15
1.235280112e-15
1.386180243e-15
3.164546788e-16
3.985214416e-16
5.346170469e-16
7.362021082e-16
1.012406489e-15
1.361336265e-15
1.757692188e-15
2.139273348e-15
2.399693215e-15
5.492247524e-16
6.916079892e-16
9.276019683e-16
1.276888184e-15
1.754986456e-15
2.358227579e-15
3.042497754e-15
3.700284854e-15
4.148580957e-15
9.527639026e-16
1.199617189e-15
1.60847342e-15
2.212992672e-15
3.039352007e-15
4.080317336e-15
5.258905926e-15
6.389638805e-15
7.158803294e-15
1.65162534e-15
2.079143932e-15
2.786572707e-15
3.831168805e-15
5.256635478e-15
7.048503636e-15
9.0723493e-15
1.100900798e-14
1.232312689e-14
2.860215966e-15
3.599500096e-15
4.821358171e-15
6.622512688e-15
9.074963386e-15
1.214948345e-14
1.561130927e-14
1.891311601e-14
2.114646755e-14
4.946438157e-15
6.222189328e-15
8.327516538e-15
1.142437462e-14
1.562935608e-14
2.088315686e-14
2.677602198e-14
3.237355588e-14
3.614488252e-14
8.539153282e-15
1.073463331e-14
1.435093901e-14
1.965626997e-14
2.683526571e-14
3.576772094e-14
4.573968949e-14
5.516505878e-14
6.148532812e-14
1.470843332e-14
1.847345038e-14
2.466068959e-14
3.370825374e-14
4.590015167e-14
6.099430143e-14
7.775077746e-14
9.349627774e-14
1.039960193e-13
2.526564932e-14
3.169403428e-14
4.222853298e-14
5.757287855e-14
7.814731199e-14
1.034697952e-13
1.313979072e-13
1.574645926e-13
1.747371256e-13
4.325894581e-14
5.417644537e-14
7.200776027e-14
9.786049294e-14
1.32323965e-13
1.744531467e-13
2.205728937e-13
2.632940468e-13
2.914042357e-13
7.378389816e-14
9.220835195e-14
1.221829295e-13
1.654083854e-13
2.226476982e-13
2.920831109e-13
3.674694919e-13
4.367245558e-13
4.819501283e-13
1.252967104e-13
1.561617314e-13
2.061497055e-13
2.777952428e-13
3.719601187e-13
4.852232764e-13
6.070946517e-13
7.180690081e-13
7.899644464e-13
2.117185856e-13
2.629917182e-13
3.456097105e-13
4.632140974e-13
6.165147311e-13
7.992244275e-13
9.939584288e-13
1.169656821e-12
1.282560579e-12
3.557687152e-13
4.40147056e-13
5.753427772e-13
7.66353224e-13
1.013142439e-12
1.304441442e-12
1.611866099e-12
1.886657243e-12
2.061804442e-12
5.941774581e-13
7.316096328e-13
9.504658806e-13
1.257203766e-12
1.649832782e-12
2.108664245e-12
2.588085932e-12
3.012649063e-12
3.281107464e-12
9.857329952e-13
1.207097883e-12
1.557327364e-12
2.044080086e-12
2.661169591e-12
3.375060051e-12
4.113640689e-12
4.761808782e-12
5.168529826e-12
1.623531784e-12
1.975903977e-12
2.529647363e-12
3.29263739e-12
4.250602826e-12
5.347816517e-12
6.472111153e-12
7.450268606e-12
8.059642343e-12
2.653370782e-12
3.20742516e-12
4.072141376e-12
5.253345829e-12
6.722272001e-12
8.38847241e-12
1.008019669e-11
1.15401001e-11
1.244352788e-11
4.300984978e-12
5.161246183e-12
6.494709086e-12
8.300790031e-12
1.052608195e-11
1.302698597e-11
1.55444131e-11
1.770057123e-11
1.902672858e-11
6.911864683e-12
8.230704458e-12
1.026141087e-11
1.298938671e-11
1.632104799e-11
2.003299962e-11
2.373979919e-11
2.689287954e-11
2.882153772e-11
1.10087838e-11
1.300532702e-11
1.60599976e-11
2.013175763e-11
2.5063679e-11
3.051461441e-11
3.59184491e-11
4.048658445e-11
4.326708574e-11
1.737408663e-11
2.035952794e-11
2.489986509e-11
3.090821503e-11
3.813049843e-11
4.60544217e-11
5.385820992e-11
6.041855042e-11
6.439431936e-11
2.716644871e-11
3.157774512e-11
3.824922378e-11
4.701884741e-11
5.748692282e-11
6.889574056e-11
8.006518084e-11
8.940856742e-11
9.504939949e-11
4.208558633e-11
4.853020226e-11
5.822646413e-11
7.089396183e-11
8.591898267e-11
1.021962403e-10
1.180479675e-10
1.312503304e-10
1.391946174e-10
6.460004248e-11
7.391425621e-11
8.786162429e-11
1.059812179e-10
1.273496982e-10
1.503741094e-10
1.726903409e-10
1.912045831e-10
2.02312939e-10
9.826643521e-11
1.115927754e-10
1.314621177e-10
1.571442006e-10
1.872729719e-10
2.195768809e-10
2.50752177e-10
2.765254978e-10
2.919495256e-10
1.481768842e-10
1.670662709e-10
1.951195803e-10
2.312113464e-10
2.733485604e-10
3.183221768e-10
3.615508105e-10
3.971730073e-10
4.184413776e-10
2.215827958e-10
2.481306023e-10
2.874156625e-10
3.377397608e-10
3.962284287e-10
4.583847135e-10
5.179000439e-10
5.667891138e-10
5.959121993e-10
3.287677541e-10
3.657992404e-10
4.20414572e-10
4.900929107e-10
5.707261989e-10
6.560534963e-10
7.374389806e-10
8.040721414e-10
8.436642382e-10
4.842705714e-10
5.356039126e-10
6.110758379e-10
7.069917407e-10
8.17519687e-10
9.339794287e-10
1.044595234e-09
1.134808522e-09
1.188231137e-09
7.085965087e-10
7.794373165e-10
8.832916566e-10
1.01479959e-09
1.165716109e-09
1.324020483e-09
1.473668148e-09
1.595112311e-09
1.666675086e-09
1.030593195e-09
1.128162257e-09
1.270851456e-09
1.450957817e-09
1.656853158e-09
1.871857992e-09
2.074033377e-09
2.237086047e-09
2.332477407e-09
1.49068471e-09
1.625261981e-09
1.821750603e-09
2.069217285e-09
2.351325654e-09
2.644850609e-09
2.919523877e-09
3.139570665e-09
3.267131546e-09
2.1451123e-09
2.331812364e-09
2.604373812e-09
2.947627721e-09
3.338891897e-09
3.745810142e-09
4.126057169e-09
4.42962119e-09
4.604302019e-09
3.071217664e-09
3.33301102e-09
3.716183441e-09
4.200637737e-09
4.755863406e-09
5.337320151e-09
5.885050075e-09
6.325790147e-09
6.580595602e-09
4.373707019e-09
4.746452791e-09
5.29563662e-09
5.997093945e-09
6.812757772e-09
7.683825604e-09
8.525184708e-09
9.222678983e-09
9.638578587e-09
6.192023661e-09
6.732555338e-09
7.538354802e-09
8.586465215e-09
9.837333533e-09
1.122117359e-08
1.262003381e-08
1.384508239e-08
1.462079135e-08
8.710150495e-09
9.508740611e-09
1.07197264e-08
1.233659826e-08
1.433846604e-08
1.666307208e-08
1.915798461e-08
2.149871579e-08
2.309327862e-08
1.217353356e-08
1.337244616e-08
1.522940785e-08
1.778848928e-08
2.109529558e-08
2.514573519e-08
2.976967262e-08
3.440501132e-08
3.77817211e-08
1.692456047e-08
1.874508099e-08
2.162991531e-08
2.573769537e-08
3.12716713e-08
3.838622394e-08
4.69386842e-08
5.596729496e-08
6.288848439e-08
2.347785452e-08
2.625925399e-08
3.076103172e-08
3.735671549e-08
4.654391849e-08
5.877182076e-08
7.395287148e-08
9.04241019e-08
1.033411626e-07
3.266544021e-08
3.691940415e-08
4.391643726e-08
5.436848658e-08
6.920111302e-08
8.919833996e-08
1.140410922e-07
1.403772331e-07
1.591377938e-07
4.587763772e-08
5.235446425e-08
6.309387986e-08
7.923416283e-08
1.021005592e-07
1.323709972e-07
1.679986032e-07
2.001939591e-07
2.164475835e-07
6.538174244e-08
7.511292964e-08
9.120534812e-08
1.151240548e-07
1.48041709e-07
1.888568973e-07
2.295972179e-07
2.594538972e-07
2.75981389e-07
9.455846948e-08
1.087505415e-07
1.318159388e-07
1.649111864e-07
2.070464482e-07
2.507092806e-07
2.893711304e-07
3.203557682e-07
3.388361969e-07
1.374913241e-07
1.56927703e-07
1.871418523e-07
2.27404981e-07
2.683429825e-07
3.102631514e-07
3.502475931e-07
3.840284219e-07
4.051898244e-07
1.96078385e-07
2.192144588e-07
2.496722263e-07
2.864113879e-07
3.273954908e-07
3.708424789e-07
4.135518971e-07
4.505220461e-07
4.74373149e-07
2.582284297e-07
2.791001427e-07
3.087151454e-07
3.456514666e-07
3.881350502e-07
4.338685994e-07
4.793473687e-07
5.190625783e-07
5.451178027e-07
3.181883381e-07
3.390755003e-07
3.693233464e-07
4.074411179e-07
4.51629039e-07
4.99317275e-07
5.467914176e-07
5.882966237e-07
6.157612753e-07
3.805381496e-07
4.019417791e-07
4.330176922e-07
4.721526497e-07
5.174560185e-07
5.661561872e-07
6.144118556e-07
6.564797142e-07
6.844039224e-07
4.462221184e-07
4.679510927e-07
4.993646413e-07
5.388650719e-07
5.842938227e-07
6.328447047e-07
6.80366504e-07
7.216489978e-07
7.490464803e-07
5.144483644e-07
5.360738548e-07
5.672225454e-07
6.059704426e-07
6.502323621e-07
6.971032053e-07
7.425479095e-07
7.81769669e-07
8.077242352e-07
5.834960003e-07
6.044304641e-07
6.344272011e-07
6.714997826e-07
7.132949536e-07
7.569425718e-07
7.989462293e-07
8.349384733e-07
8.586560168e-07
6.511871168e-07
6.707971752e-07
6.987111632e-07
7.328975014e-07
7.709895872e-07
8.102837959e-07
8.476952862e-07
8.794735351e-07
9.003045004e-07
7.151663725e-07
7.328547202e-07
7.578414632e-07
7.881251548e-07
8.21443009e-07
8.553366518e-07
8.871518315e-07
9.138056738e-07
9.310709608e-07
7.731145324e-07
7.883706679e-07
8.097253603e-07
8.352785326e-07
8.629339486e-07
8.904862521e-07
9.156070346e-07
9.355965052e-07
9.465748509e-07
8.229295001e-07
8.353552615e-07
8.525269609e-07
8.726834092e-07
8.938732317e-07
9.140012954e-07
9.303929313e-07
9.420443211e-07
9.487757945e-07
8.628048313e-07
8.72087812e-07
8.845858448e-07
8.986495319e-07
9.12237135e-07
9.229404148e-07
9.313673743e-07
9.375511467e-07
9.412776119e-07
8.909336929e-07
8.967135113e-07
9.036456728e-07
9.098748915e-07
9.152705878e-07
9.193492441e-07
9.22273355e-07
9.243336972e-07
9.256712117e-07
9.033963537e-07
9.049820282e-07
9.065479155e-07
9.074294975e-07
9.074157278e-07
9.065292563e-07
9.051506542e-07
9.038702955e-07
9.032268649e-07
9.014742841e-07
9.003692259e-07
8.983551322e-07
8.952471746e-07
8.911051537e-07
8.862741863e-07
8.814095401e-07
8.773887088e-07
8.751059255e-07
8.893761675e-07
8.862776651e-07
8.815541194e-07
8.753217531e-07
8.679094966e-07
8.599239778e-07
8.522597421e-07
8.460327679e-07
8.42426206e-07
8.692245201e-07
8.645865945e-07
8.577594401e-07
8.490864233e-07
8.391200986e-07
8.286761213e-07
8.188366683e-07
8.108987183e-07
8.062642758e-07
8.425459788e-07
8.367399592e-07
8.283207963e-07
8.178086948e-07
8.059313157e-07
7.936625444e-07
7.822202291e-07
7.730268224e-07
7.676374576e-07
8.106963537e-07
8.040501792e-07
7.944946064e-07
7.826836476e-07
7.694743546e-07
7.559516904e-07
7.434216036e-07
7.333822563e-07
7.274834016e-07
7.749531244e-07
7.67757135e-07
7.574684663e-07
7.448363738e-07
7.308059265e-07
7.16531182e-07
7.033646345e-07
6.928373962e-07
6.866435527e-07
7.365125839e-07
7.290180766e-07
7.183445212e-07
7.053023265e-07
6.908884016e-07
6.762900188e-07
6.628708774e-07
6.521595394e-07
6.458525567e-07
6.964667824e-07
6.888847568e-07
6.781177484e-07
6.650079786e-07
6.505733299e-07
6.360038625e-07
6.226469899e-07
6.120003721e-07
6.057293481e-07
6.557798735e-07
6.482805371e-07
6.376543811e-07
6.247512671e-07
6.105851538e-07
5.963252553e-07
5.832802819e-07
5.728951828e-07
5.667780067e-07
6.15271926e-07
6.079875786e-07
5.976836883e-07
5.851984818e-07
5.715224387e-07
5.57785681e-07
5.452417053e-07
5.352668027e-07
5.293925514e-07
5.756170564e-07
5.68645396e-07
5.587970737e-07
5.468839848e-07
5.338585049e-07
5.207984169e-07
5.088905067e-07
4.994315983e-07
4.938636753e-07
5.37344942e-07
5.307533254e-07
5.214518145e-07
5.102153779e-07
4.979480195e-07
4.856662789e-07
4.74482967e-07
4.65608966e-07
4.603886822e-07
5.008493075e-07
4.946794737e-07
4.859806022e-07
4.754836646e-07
4.640377221e-07
4.525927919e-07
4.421839186e-07
4.339330997e-07
4.290834036e-07
4.664013938e-07
4.606742453e-07
4.52605107e-07
4.428767967e-07
4.32279881e-07
4.216954915e-07
4.120798664e-07
4.044659568e-07
3.999950747e-07
4.341664909e-07
4.288866264e-07
4.214518867e-07
4.124950944e-07
4.027471414e-07
3.930201696e-07
3.841926689e-07
3.77210485e-07
3.731152952e-07
4.042218014e-07
3.993815926e-07
3.925691424e-07
3.843672027e-07
3.754475968e-07
3.665550607e-07
3.584929178e-07
3.521233484e-07
3.483923611e-07
3.765741954e-07
3.72157291e-07
3.659430989e-07
3.584655183e-07
3.503392056e-07
3.422442041e-07
3.3491232e-07
3.291265572e-07
3.257424719e-07
3.511768191e-07
3.471610562e-07
3.41513181e-07
3.347203321e-07
3.273427553e-07
3.199993408e-07
3.133546847e-07
3.081177167e-07
3.050595098e-07
3.279437969e-07
3.243034965e-07
3.191852496e-07
3.130320987e-07
3.063531844e-07
2.997102329e-07
2.937053016e-07
2.889786561e-07
2.862232332e-07
3.067626956e-07
3.034704326e-07
2.988428225e-07
2.932817963e-07
2.87248982e-07
2.812531425e-07
2.758385977e-07
2.715824336e-07
2.691058906e-07
2.875047185e-07
2.845326312e-07
2.803561661e-07
2.753392607e-07
2.698997198e-07
2.644975766e-07
2.596241764e-07
2.557988154e-07
2.535773606e-07
2.700327104e-07
2.673534277e-07
2.635893875e-07
2.590696541e-07
2.541718596e-07
2.493114468e-07
2.449313957e-07
2.414983904e-07
2.395089889e-07
2.542072044e-07
2.517944672e-07
2.484057557e-07
2.443382903e-07
2.399330518e-07
2.355648543e-07
2.316326907e-07
2.285555243e-07
2.267763189e-07
2.398908011e-07
2.377198498e-07
2.346715214e-07
2.310140737e-07
2.270551708e-07
2.23132729e-07
2.196058573e-07
2.168503605e-07
2.152609215e-07
2.26951184e-07
2.249989704e-07
2.22258516e-07
2.189718153e-07
2.154163296e-07
2.118965514e-07
2.087355104e-07
2.062700678e-07
2.04851516e-07
2.152630606e-07
2.135083336e-07
2.110457931e-07
2.080936698e-07
2.049021023e-07
2.017453643e-07
1.989139074e-07
1.96709514e-07
1.954445524e-07
2.047092831e-07
2.031325882e-07
2.009205428e-07
1.982699104e-07
1.954061503e-07
1.925762549e-07
1.900413009e-07
1.880715164e-07
1.869444001e-07
1.951813677e-07
1.937649883e-07
1.917784744e-07
1.893992194e-07
1.868304158e-07
1.842944548e-07
1.820259553e-07
1.802667917e-07
1.792632584e-07
1.865795854e-07
1.853074494e-07
1.835238245e-07
1.8138864e-07
1.790850159e-07
1.768131778e-07
1.747839347e-07
1.732137058e-07
1.723208822e-07
1.788127633e-07
1.776703305e-07
1.760691123e-07
1.741533024e-07
1.720879373e-07
1.700532851e-07
1.682387438e-07
1.668378938e-07
1.660441907e-07
1.717979e-07
1.707720411e-07
1.693347371e-07
1.67616009e-07
1.657646101e-07
1.639428492e-07
1.623208813e-07
1.610718088e-07
1.603668126e-07
1.654596724e-07
1.645385477e-07
1.632484835e-07
1.617067401e-07
1.600474143e-07
1.584166616e-07
1.569673523e-07
1.558542352e-07
1.552286012e-07
1.597298885e-07
1.58902831e-07
1.57744985e-07
1.563621251e-07
1.548751604e-07
1.534157238e-07
1.521211667e-07
1.511297964e-07
1.505751468e-07
1.54546924e-07
1.538043289e-07
1.527651775e-07
1.515249081e-07
1.501925682e-07
1.488867395e-07
1.477308462e-07
1.468484718e-07
1.463573013e-07
1.498551677e-07
1.491883906e-07
1.482557641e-07
1.471434277e-07
1.459497629e-07
1.447816269e-07
1.437499503e-07
1.42965136e-07
1.425307244e-07
1.45604491e-07
1.450057552e-07
1.44168707e-07
1.431711226e-07
1.421017962e-07
1.410570565e-07
1.401366306e-07
1.394391251e-07
1.390554582e-07
1.41749749e-07
1.412120604e-07
1.404607479e-07
1.395660678e-07
1.386081995e-07
1.376740204e-07
1.368532143e-07
1.362338329e-07
1.358955305e-07
1.382503169e-07
1.377673883e-07
1.370929659e-07
1.362905462e-07
1.354325701e-07
1.345974336e-07
1.338658195e-07
1.333163371e-07
1.330185886e-07
1.35069667e-07
1.346358494e-07
1.340303712e-07
1.333106546e-07
1.325421908e-07
1.31795767e-07
1.311440013e-07
1.306570562e-07
1.30395562e-07
1.321749795e-07
1.317852001e-07
1.312415325e-07
1.305959421e-07
1.299076809e-07
1.292407112e-07
1.286604267e-07
1.282294338e-07
1.280003528e-07
1.295367881e-07
1.29186494e-07
1.286982368e-07
1.281190806e-07
1.275026773e-07
1.26906869e-07
1.263905774e-07
1.260096494e-07
1.258095523e-07
1.271286566e-07
1.268137644e-07
1.263751791e-07
1.258555634e-07
1.253035434e-07
1.247714735e-07
1.243124776e-07
1.239763543e-07
1.238021805e-07
1.249268852e-07
1.24643735e-07
1.242496797e-07
1.237834303e-07
1.232891032e-07
1.228141317e-07
1.224064454e-07
1.221104292e-07
1.219594484e-07
1.229102418e-07
1.226555556e-07
1.223014265e-07
1.218830176e-07
1.214403985e-07
1.210165895e-07
1.206548654e-07
1.203947635e-07
1.202645411e-07
1.21059719e-07
1.208305628e-07
1.205122404e-07
1.201367295e-07
1.197404679e-07
1.193625179e-07
1.190419814e-07
1.188140531e-07
1.18702419e-07
1.193583116e-07
1.191520608e-07
1.188658609e-07
1.185288297e-07
1.181741451e-07
1.178373181e-07
1.17553708e-07
1.17354617e-07
1.17259637e-07
1.177908142e-07
1.176051223e-07
1.173477522e-07
1.170452529e-07
1.167278756e-07
1.164279436e-07
1.161774581e-07
1.160042294e-07
1.159241801e-07
1.163436377e-07
1.161764076e-07
1.159449251e-07
1.156734318e-07
1.153895498e-07
1.151227396e-07
1.149019872e-07
1.147519685e-07
1.14685314e-07
1.150046417e-07
1.148539999e-07
1.146457773e-07
1.144021414e-07
1.141483517e-07
1.139112964e-07
1.137172521e-07
1.135880782e-07
1.135334497e-07
1.137629833e-07
1.136272564e-07
1.134399469e-07
1.132213571e-07
1.129946223e-07
1.127843175e-07
1.126142826e-07
1.125038443e-07
1.124600215e-07
1.126089799e-07
1.124866731e-07
1.123181808e-07
1.121221271e-07
1.119197356e-07
1.117334999e-07
1.115850664e-07
1.114914822e-07
1.114573765e-07
1.115339847e-07
1.11423763e-07
1.112722159e-07
1.110964566e-07
1.109159874e-07
1.107514268e-07
1.106224453e-07
1.105440358e-07
1.105186759e-07
1.105302758e-07
1.10430946e-07
1.102946716e-07
1.101372043e-07
1.099764948e-07
1.098314712e-07
1.097200222e-07
1.096552876e-07
1.096378059e-07
1.095909547e-07
1.095014506e-07
1.093789542e-07
1.092379891e-07
1.090951065e-07
1.089677092e-07
1.08872077e-07
1.08819677e-07
1.088092982e-07
1.087098572e-07
1.086292251e-07
1.085191699e-07
1.083931065e-07
1.082663226e-07
1.081548428e-07
1.080734931e-07
1.080322286e-07
1.08028259e-07
1.078814718e-07
1.078088584e-07
1.07710048e-07
1.075974542e-07
1.074852222e-07
1.073881305e-07
1.0731969e-07
1.072884875e-07
1.072903058e-07
1.071008681e-07
1.070355091e-07
1.069468724e-07
1.068464655e-07
1.067473999e-07
1.066633263e-07
1.066065642e-07
1.065844616e-07
1.065915107e-07
1.063636325e-07
1.06304843e-07
1.062254197e-07
1.061360498e-07
1.060489086e-07
1.059766245e-07
1.05930437e-07
1.05916571e-07
1.059283508e-07
1.056658107e-07
1.056129763e-07
1.05541905e-07
1.054625403e-07
1.053862089e-07
1.053246114e-07
1.052880073e-07
1.052816023e-07
1.052976634e-07
1.050038574e-07
1.049564263e-07
1.048929332e-07
1.048226471e-07
1.047561239e-07
1.047042221e-07
1.046763102e-07
1.046766687e-07
1.046966065e-07
1.043745905e-07
1.043320667e-07
1.042754564e-07
1.042134156e-07
1.041557999e-07
1.04112702e-07
1.040926804e-07
1.040991741e-07
1.041226242e-07
1.037751518e-07
1.037370889e-07
1.036867353e-07
1.036321897e-07
1.035826705e-07
1.035475733e-07
1.035347192e-07
1.035467818e-07
1.035734152e-07
1.032029708e-07
1.031689668e-07
1.031243058e-07
1.030765793e-07
1.030344256e-07
1.030066047e-07
1.03000266e-07
1.030173862e-07
1.030469058e-07
1.026557339e-07
1.026254261e-07
1.02585949e-07
1.025444318e-07
1.025089835e-07
1.024877851e-07
1.024873726e-07
1.02509088e-07
1.02541225e-07
1.021313563e-07
1.021044173e-07
1.020696646e-07
1.020338057e-07
1.020044667e-07
1.019892994e-07
1.019942804e-07
1.020201728e-07
1.020546836e-07
1.016279574e-07
1.016040912e-07
1.015736475e-07
1.015429486e-07
1.015191796e-07
1.015095085e-07
1.015194005e-07
1.015490908e-07
1.015857546e-07
1.01143839e-07
1.011227777e-07
1.010962671e-07
1.010702773e-07
1.010515897e-07
1.010469301e-07
1.010612956e-07
1.010944399e-07
1.011330562e-07
1.006774659e-07
1.006589669e-07
1.006360488e-07
1.006143592e-07
1.006003102e-07
1.006002224e-07
1.006186646e-07
1.006549506e-07
1.006953371e-07
1.002274489e-07
1.002112922e-07
1.001916576e-07
1.001738974e-07
1.001640852e-07
1.001681699e-07
1.001903282e-07
1.00229472e-07
1.002714628e-07
9.979252961e-08
9.977851551e-08
9.976188384e-08
9.974771632e-08
9.974177564e-08
9.974967009e-08
9.97752165e-08
9.981695964e-08
9.986040377e-08
9.937156684e-08
9.935951384e-08
9.934563023e-08
9.933474917e-08
9.933234803e-08
9.934372207e-08
9.937235807e-08
9.941646516e-08
9.946122482e-08
9.896352472e-08
9.895326779e-08
9.894190033e-08
9.893402717e-08
9.893486335e-08
9.894941638e-08
9.898086996e-08
9.902712637e-08
9.907307584e-08
9.856746208e-08
9.855885096e-08
9.854978855e-08
9.85446696e-08
9.854846778e-08
9.856592583e-08
9.859994895e-08
9.864815884e-08
9.869518331e-08
9.818252297e-08
9.81754208e-08
9.816847108e-08
9.816587513e-08
9.817238432e-08
9.819249751e-08
9.822886382e-08
9.827884832e-08
9.832684286e-08
9.780792831e-08
9.780221032e-08
9.779719788e-08
9.779691407e-08
9.780590528e-08
9.782844555e-08
9.786694836e-08
9.791854405e-08
9.796741268e-08
9.744296844e-08
9.743852081e-08
9.743528563e-08
9.743712155e-08
9.744838573e-08
9.747314481e-08
9.751359526e-08
9.756665272e-08
9.761630765e-08
9.70869966e-08
9.708371544e-08
9.708211145e-08
9.70858914e-08
9.709923766e-08
9.712602528e-08
9.716825076e-08
9.722263333e-08
9.727299419e-08
9.67394231e-08
9.673721358e-08
9.673710742e-08
9.674267096e-08
9.675792491e-08
9.678656721e-08
9.683040989e-08
9.688599257e-08
9.693698577e-08
9.639971036e-08
9.63984859e-08
9.639975579e-08
9.640695642e-08
9.642395878e-08
9.645429687e-08
9.64996125e-08
9.655628092e-08
9.660783909e-08
9.606736864e-08
9.606705022e-08
9.606958502e-08
9.6078289e-08
9.609689434e-08
9.612878313e-08
9.617543988e-08
9.623308948e-08
9.628515096e-08
9.57419525e-08
9.57424681e-08
9.574616649e-08
9.575625188e-08
9.577632758e-08
9.580963469e-08
9.585751223e-08
9.591604747e-08
9.596855584e-08
9.542305818e-08
9.542434226e-08
9.542911205e-08
9.544046791e-08
9.546189327e-08
9.549649822e-08
9.55454869e-08
9.560482063e-08
9.565772433e-08
9.511032179e-08
9.511231495e-08
9.511807261e-08
9.513059837e-08
9.5153264e-08
9.518905746e-08
9.523905777e-08
9.529911069e-08
9.535236266e-08
9.480341869e-08
9.480606744e-08
9.481273773e-08
9.482634287e-08
9.485015023e-08
9.488703372e-08
9.493795579e-08
9.499865614e-08
9.505221355e-08
9.450206417e-08
9.450532087e-08
9.451283681e-08
9.452744074e-08
9.455230212e-08
9.459018785e-08
9.464195141e-08
9.470323473e-08
9.475705881e-08
9.420601585e-08
9.420983887e-08
9.421814198e-08
9.423367436e-08
9.42595132e-08
9.429832444e-08
9.435085903e-08
9.44126683e-08
9.446672431e-08
9.391507817e-08
9.391943235e-08
9.392847329e-08
9.394487487e-08
9.397162669e-08
9.401129868e-08
9.406454447e-08
9.412683063e-08
9.418108797e-08
9.362910956e-08
9.363396702e-08
9.364370682e-08
9.366093096e-08
9.368854508e-08
9.372902678e-08
9.378293608e-08
9.384565912e-08
9.390009191e-08
9.334803292e-08
9.335337444e-08
9.336378646e-08
9.338180158e-08
9.341024392e-08
9.345150086e-08
9.350604074e-08
9.356917169e-08
9.362375969e-08
9.307185026e-08
9.307766728e-08
9.308874015e-08
9.310753346e-08
9.313679071e-08
9.317880936e-08
9.323396572e-08
9.329748982e-08
9.335222025e-08
9.280066226e-08
9.280695978e-08
9.281870164e-08
9.283828439e-08
9.286837015e-08
9.291116432e-08
9.296694794e-08
9.303086952e-08
9.308573986e-08
9.253469378e-08
9.254149435e-08
9.255393863e-08
9.257435358e-08
9.26053168e-08
9.264893664e-08
9.270539178e-08
9.276974146e-08
9.282476374e-08
9.227432622e-08
9.228167526e-08
9.229488857e-08
9.231621983e-08
9.234815637e-08
9.239270064e-08
9.244991703e-08
9.251476178e-08
9.256996887e-08
9.202013758e-08
9.202811042e-08
9.204220273e-08
9.206458889e-08
9.209765664e-08
9.214328901e-08
9.220141788e-08
9.226687478e-08
9.232232919e-08
9.177295114e-08
9.178166183e-08
9.179679962e-08
9.182045036e-08
9.185488876e-08
9.19018589e-08
9.196113389e-08
9.202738841e-08
9.208319411e-08
9.153389297e-08
9.154350547e-08
9.155992794e-08
9.158514492e-08
9.162129934e-08
9.166996948e-08
9.173073319e-08
9.17980626e-08
9.185438057e-08
9.130445881e-08
9.13152004e-08
9.13332394e-08
9.136044163e-08
9.139879323e-08
9.144967073e-08
9.151240759e-08
9.158121022e-08
9.163827808e-08
9.108658976e-08
9.109876709e-08
9.111887067e-08
9.11486248e-08
9.11898261e-08
9.12436025e-08
9.13089783e-08
9.13798091e-08
9.143796527e-08
9.088275607e-08
9.089677377e-08
9.09195336e-08
9.095258904e-08
9.099750539e-08
9.105510195e-08
9.112401024e-08
9.119762278e-08
9.125733542e-08
9.069604766e-08
9.071242946e-08
9.073861189e-08
9.077594064e-08
9.082569721e-08
9.088831675e-08
9.096193189e-08
9.103932679e-08
9.11012274e-08
9.053026925e-08
9.054968123e-08
9.058026159e-08
9.062310231e-08
9.067913612e-08
9.074832051e-08
9.082815676e-08
9.091063598e-08
9.09755575e-08
9.039003734e-08
9.041331304e-08
9.044951257e-08
9.049941791e-08
9.056353387e-08
9.064122613e-08
9.07292018e-08
9.081842809e-08
9.088744707e-08
9.028087577e-08
9.030904245e-08
9.035236688e-08
9.041125309e-08
9.048568266e-08
9.057429225e-08
9.067279758e-08
9.077085798e-08
9.084534034e-08
9.0209306e-08
9.024361123e-08
9.029588998e-08
9.036608719e-08
9.045354816e-08
9.055601773e-08
9.066798488e-08
9.077745715e-08
9.085910668e-08
9.018292796e-08
9.022486566e-08
9.028829014e-08
9.037259169e-08
9.047634701e-08
9.059621872e-08
9.072519236e-08
9.0849213e-08
9.094012234e-08
9.021048711e-08
9.026182198e-08
9.033898159e-08
9.044069057e-08
9.056460425e-08
9.070608371e-08
9.085629032e-08
9.099862337e-08
9.110132706e-08
9.030192324e-08
9.036471248e-08
9.045862679e-08
9.058159789e-08
9.073018609e-08
9.089820201e-08
9.107461663e-08
9.12397225e-08
9.135725232e-08
9.046839706e-08
9.054500834e-08
9.065915384e-08
9.080782882e-08
9.09863042e-08
9.118656228e-08
9.139497189e-08
9.158807618e-08
9.172401943e-08
9.072229085e-08
9.081541547e-08
9.095374566e-08
9.113318083e-08
9.134748885e-08
9.15865189e-08
9.183358202e-08
9.206074516e-08
9.221930733e-08
9.107718015e-08
9.118984065e-08
9.135679835e-08
9.157268302e-08
9.182952917e-08
9.211472511e-08
9.240802834e-08
9.267621765e-08
9.286229163e-08
9.154777454e-08
9.168332619e-08
9.188384734e-08
9.214251263e-08
9.244938055e-08
9.278903376e-08
9.313714667e-08
9.345431352e-08
9.367355832e-08
9.214982644e-08
9.231195239e-08
9.255146135e-08
9.285987949e-08
9.322504049e-08
9.362836809e-08
9.404089916e-08
9.44160649e-08
9.467499759e-08
9.290000821e-08
9.309270855e-08
9.337710534e-08
9.374288056e-08
9.41753964e-08
9.465256711e-08
9.514022446e-08
9.558357976e-08
9.588968511e-08
9.381575951e-08
9.404333515e-08
9.437897611e-08