/*--------------------------------*- C++ -*----------------------------------*\
| =========                 |                                                 |
| \\      /  F ield         | OpenFOAM: The Open Source CFD Toolbox           |
|  \\    /   O peration     | Version:  2212                                  |
|   \\  /    A nd           | Website:  www.openfoam.com                      |
|    \\/     M anipulation  |                                                 |
\*---------------------------------------------------------------------------*/
FoamFile
{
    version     2.0;
    format      ascii;
    arch        "LSB;label=32;scalar=64";
    class       volScalarField;
    location    "30.00000000";
    object      p;
}
// * * * * * * * * * * * * * * * * * * * * * * * * * * * * * * * * * * * * * //

dimensions      [1 -1 -2 0 0 0 0];

internalField   nonuniform List<scalar> 
3000
(
10000.16776
10000.16777
10000.16782
10000.16788
10000.16798
10000.16812
10000.16837
10000.16864
10000.16956
10000.16774
10000.16774
10000.16777
10000.1678
10000.16784
10000.16788
10000.16796
10000.16797
10000.16807
10000.16771
10000.16771
10000.16773
10000.16775
10000.16778
10000.16782
10000.16786
10000.16786
10000.1679
10000.16761
10000.16761
10000.16761
10000.16761
10000.16762
10000.16762
10000.16762
10000.16761
10000.16759
10000.16753
10000.16752
10000.16752
10000.16752
10000.16752
10000.16751
10000.16751
10000.1675
10000.16749
10000.16741
10000.1674
10000.1674
10000.16739
10000.16739
10000.16738
10000.16738
10000.16737
10000.16736
10000.16731
10000.1673
10000.1673
10000.1673
10000.16729
10000.16729
10000.16728
10000.16728
10000.16727
10000.16721
10000.1672
10000.1672
10000.16719
10000.16719
10000.16719
10000.16718
10000.16718
10000.16717
10000.16712
10000.16711
10000.16711
10000.1671
10000.1671
10000.1671
10000.16709
10000.16709
10000.16709
10000.16702
10000.16702
10000.16702
10000.16701
10000.16701
10000.16701
10000.16701
10000.167
10000.167
10000.16693
10000.16693
10000.16693
10000.16693
10000.16693
10000.16692
10000.16692
10000.16692
10000.16692
10000.16685
10000.16684
10000.16684
10000.16684
10000.16684
10000.16684
10000.16684
10000.16684
10000.16684
10000.16676
10000.16676
10000.16676
10000.16676
10000.16676
10000.16676
10000.16676
10000.16676
10000.16676
10000.16668
10000.16668
10000.16668
10000.16668
10000.16668
10000.16668
10000.16668
10000.16668
10000.16668
10000.1666
10000.1666
10000.1666
10000.1666
10000.1666
10000.1666
10000.1666
10000.1666
10000.1666
10000.16652
10000.16652
10000.16652
10000.16652
10000.16652
10000.16652
10000.16652
10000.16652
10000.16652
10000.16644
10000.16644
10000.16644
10000.16644
10000.16644
10000.16644
10000.16644
10000.16644
10000.16644
10000.16636
10000.16636
10000.16636
10000.16636
10000.16636
10000.16636
10000.16636
10000.16636
10000.16636
10000.16628
10000.16628
10000.16628
10000.16628
10000.16628
10000.16628
10000.16628
10000.16628
10000.16628
10000.1662
10000.1662
10000.1662
10000.1662
10000.1662
10000.1662
10000.1662
10000.1662
10000.1662
10000.16612
10000.16612
10000.16612
10000.16612
10000.16612
10000.16612
10000.16612
10000.16612
10000.16612
10000.16604
10000.16604
10000.16604
10000.16604
10000.16604
10000.16604
10000.16604
10000.16604
10000.16604
10000.16596
10000.16596
10000.16596
10000.16596
10000.16596
10000.16596
10000.16596
10000.16596
10000.16596
10000.16588
10000.16588
10000.16588
10000.16588
10000.16588
10000.16588
10000.16588
10000.16588
10000.16588
10000.1658
10000.1658
10000.1658
10000.1658
10000.1658
10000.1658
10000.1658
10000.1658
10000.1658
10000.16572
10000.16572
10000.16572
10000.16572
10000.16572
10000.16572
10000.16572
10000.16572
10000.16572
10000.16565
10000.16565
10000.16565
10000.16565
10000.16565
10000.16565
10000.16565
10000.16565
10000.16565
10000.16557
10000.16557
10000.16557
10000.16557
10000.16557
10000.16557
10000.16557
10000.16557
10000.16557
10000.16549
10000.16549
10000.16549
10000.16549
10000.16549
10000.16549
10000.16549
10000.16549
10000.16549
10000.16541
10000.16541
10000.16541
10000.16541
10000.16541
10000.16541
10000.16541
10000.16541
10000.16541
10000.16532
10000.16532
10000.16533
10000.16533
10000.16533
10000.16533
10000.16533
10000.16533
10000.16532
10000.16524
10000.16524
10000.16524
10000.16524
10000.16524
10000.16524
10000.16524
10000.16524
10000.16524
10000.16516
10000.16516
10000.16516
10000.16516
10000.16516
10000.16516
10000.16516
10000.16516
10000.16516
10000.16508
10000.16508
10000.16508
10000.16508
10000.16508
10000.16508
10000.16508
10000.16508
10000.16507
10000.16499
10000.16499
10000.16499
10000.16499
10000.16499
10000.16499
10000.16499
10000.16499
10000.16498
10000.1649
10000.1649
10000.1649
10000.1649
10000.1649
10000.1649
10000.1649
10000.1649
10000.16489
10000.16481
10000.16481
10000.16481
10000.16481
10000.16481
10000.16481
10000.16481
10000.16481
10000.1648
10000.16471
10000.16471
10000.16471
10000.16471
10000.16471
10000.16471
10000.16471
10000.16471
10000.1647
10000.16461
10000.16461
10000.16461
10000.16461
10000.16461
10000.16461
10000.16461
10000.16461
10000.16459
10000.1645
10000.1645
10000.1645
10000.1645
10000.1645
10000.1645
10000.1645
10000.1645
10000.16448
10000.16439
10000.16439
10000.16439
10000.16439
10000.16439
10000.16439
10000.16438
10000.16438
10000.16436
10000.16427
10000.16427
10000.16427
10000.16427
10000.16427
10000.16427
10000.16426
10000.16426
10000.16424
10000.16414
10000.16414
10000.16414
10000.16414
10000.16414
10000.16413
10000.16413
10000.16412
10000.1641
10000.164
10000.164
10000.164
10000.164
10000.16399
10000.16399
10000.16398
10000.16398
10000.16395
10000.16384
10000.16384
10000.16384
10000.16384
10000.16384
10000.16383
10000.16382
10000.16382
10000.16379
10000.16368
10000.16368
10000.16368
10000.16368
10000.16367
10000.16367
10000.16365
10000.16365
10000.16362
10000.1635
10000.1635
10000.1635
10000.16349
10000.16349
10000.16348
10000.16347
10000.16346
10000.16343
10000.16331
10000.16331
10000.1633
10000.1633
10000.16329
10000.16328
10000.16327
10000.16326
10000.16322
10000.1631
10000.16309
10000.16309
10000.16308
10000.16308
10000.16307
10000.16305
10000.16304
10000.163
10000.16287
10000.16287
10000.16286
10000.16285
10000.16284
10000.16283
10000.16281
10000.1628
10000.16276
10000.16262
10000.16262
10000.16261
10000.1626
10000.16259
10000.16258
10000.16256
10000.16254
10000.1625
10000.16236
10000.16235
10000.16234
10000.16233
10000.16232
10000.1623
10000.16228
10000.16227
10000.16223
10000.16207
10000.16206
10000.16205
10000.16204
10000.16203
10000.16201
10000.16199
10000.16197
10000.16193
10000.16176
10000.16175
10000.16174
10000.16173
10000.16171
10000.16169
10000.16167
10000.16165
10000.16161
10000.16143
10000.16142
10000.16141
10000.16139
10000.16137
10000.16135
10000.16133
10000.16131
10000.16127
10000.16107
10000.16106
10000.16105
10000.16103
10000.16101
10000.16099
10000.16097
10000.16095
10000.1609
10000.16069
10000.16068
10000.16067
10000.16065
10000.16063
10000.16061
10000.16058
10000.16056
10000.16052
10000.16029
10000.16028
10000.16026
10000.16024
10000.16022
10000.1602
10000.16017
10000.16015
10000.16011
10000.15986
10000.15985
10000.15984
10000.15982
10000.15979
10000.15977
10000.15974
10000.15972
10000.15968
10000.15941
10000.1594
10000.15938
10000.15936
10000.15934
10000.15932
10000.15929
10000.15927
10000.15922
10000.15894
10000.15893
10000.15891
10000.15889
10000.15887
10000.15884
10000.15881
10000.15879
10000.15875
10000.15844
10000.15843
10000.15841
10000.15839
10000.15837
10000.15834
10000.15832
10000.15829
10000.15825
10000.15792
10000.15791
10000.15789
10000.15787
10000.15785
10000.15782
10000.15779
10000.15777
10000.15773
10000.15738
10000.15737
10000.15735
10000.15733
10000.1573
10000.15728
10000.15725
10000.15723
10000.15719
10000.15682
10000.1568
10000.15679
10000.15676
10000.15674
10000.15672
10000.15669
10000.15667
10000.15663
10000.15623
10000.15622
10000.1562
10000.15618
10000.15616
10000.15613
10000.15611
10000.15608
10000.15605
10000.15562
10000.15561
10000.1556
10000.15558
10000.15555
10000.15553
10000.1555
10000.15548
10000.15544
10000.155
10000.15499
10000.15497
10000.15495
10000.15493
10000.1549
10000.15488
10000.15486
10000.15482
10000.15436
10000.15435
10000.15433
10000.15431
10000.15429
10000.15426
10000.15424
10000.15422
10000.15418
10000.15369
10000.15368
10000.15367
10000.15365
10000.15363
10000.1536
10000.15358
10000.15356
10000.15353
10000.15302
10000.153
10000.15299
10000.15297
10000.15295
10000.15293
10000.1529
10000.15289
10000.15285
10000.15232
10000.15231
10000.15229
10000.15228
10000.15225
10000.15223
10000.15221
10000.15219
10000.15216
10000.15161
10000.1516
10000.15158
10000.15157
10000.15155
10000.15152
10000.1515
10000.15149
10000.15146
10000.15088
10000.15087
10000.15086
10000.15084
10000.15082
10000.1508
10000.15078
10000.15077
10000.15074
10000.15014
10000.15013
10000.15012
10000.1501
10000.15008
10000.15006
10000.15005
10000.15003
10000.15
10000.14939
10000.14938
10000.14937
10000.14935
10000.14933
10000.14931
10000.1493
10000.14928
10000.14926
10000.14862
10000.14861
10000.1486
10000.14859
10000.14857
10000.14855
10000.14853
10000.14852
10000.1485
10000.14784
10000.14784
10000.14782
10000.14781
10000.14779
10000.14778
10000.14776
10000.14775
10000.14773
10000.14706
10000.14705
10000.14704
10000.14702
10000.14701
10000.14699
10000.14697
10000.14696
10000.14694
10000.14626
10000.14625
10000.14624
10000.14622
10000.14621
10000.14619
10000.14618
10000.14617
10000.14615
10000.14545
10000.14544
10000.14543
10000.14542
10000.1454
10000.14539
10000.14537
10000.14536
10000.14535
10000.14463
10000.14462
10000.14461
10000.1446
10000.14459
10000.14457
10000.14456
10000.14455
10000.14453
10000.1438
10000.1438
10000.14379
10000.14378
10000.14376
10000.14375
10000.14374
10000.14373
10000.14371
10000.14297
10000.14296
10000.14295
10000.14294
10000.14293
10000.14292
10000.14291
10000.1429
10000.14288
10000.14213
10000.14212
10000.14211
10000.1421
10000.14209
10000.14208
10000.14207
10000.14206
10000.14205
10000.14128
10000.14127
10000.14127
10000.14125
10000.14124
10000.14123
10000.14122
10000.14121
10000.1412
10000.14042
10000.14042
10000.14041
10000.1404
10000.14039
10000.14038
10000.14037
10000.14036
10000.14035
10000.13956
10000.13956
10000.13955
10000.13954
10000.13953
10000.13952
10000.13951
10000.1395
10000.1395
10000.1387
10000.13869
10000.13868
10000.13868
10000.13867
10000.13866
10000.13865
10000.13864
10000.13863
10000.13782
10000.13782
10000.13781
10000.13781
10000.1378
10000.13779
10000.13778
10000.13777
10000.13777
10000.13695
10000.13694
10000.13694
10000.13693
10000.13692
10000.13691
10000.13691
10000.1369
10000.1369
10000.13607
10000.13607
10000.13606
10000.13605
10000.13604
10000.13604
10000.13603
10000.13603
10000.13602
10000.13518
10000.13518
10000.13518
10000.13517
10000.13516
10000.13516
10000.13515
10000.13515
10000.13514
10000.1343
10000.1343
10000.13429
10000.13428
10000.13428
10000.13427
10000.13427
10000.13426
10000.13426
10000.13341
10000.13341
10000.1334
10000.1334
10000.13339
10000.13339
10000.13338
10000.13338
10000.13337
10000.13252
10000.13251
10000.13251
10000.13251
10000.1325
10000.1325
10000.13249
10000.13249
10000.13249
10000.13162
10000.13162
10000.13162
10000.13161
10000.13161
10000.13161
10000.1316
10000.1316
10000.1316
10000.13073
10000.13072
10000.13072
10000.13072
10000.13072
10000.13071
10000.13071
10000.13071
10000.1307
10000.12983
10000.12983
10000.12983
10000.12982
10000.12982
10000.12982
10000.12981
10000.12981
10000.12981
10000.12893
10000.12893
10000.12893
10000.12893
10000.12892
10000.12892
10000.12892
10000.12892
10000.12891
10000.12803
10000.12803
10000.12803
10000.12803
10000.12803
10000.12802
10000.12802
10000.12802
10000.12802
10000.12713
10000.12713
10000.12713
10000.12713
10000.12713
10000.12713
10000.12712
10000.12712
10000.12712
10000.12623
10000.12623
10000.12623
10000.12623
10000.12623
10000.12623
10000.12622
10000.12622
10000.12622
10000.12533
10000.12533
10000.12533
10000.12533
10000.12533
10000.12533
10000.12533
10000.12532
10000.12532
10000.12443
10000.12443
10000.12443
10000.12443
10000.12443
10000.12443
10000.12443
10000.12442
10000.12442
10000.12353
10000.12353
10000.12353
10000.12353
10000.12353
10000.12353
10000.12352
10000.12352
10000.12352
10000.12263
10000.12263
10000.12263
10000.12262
10000.12262
10000.12262
10000.12262
10000.12262
10000.12262
10000.12172
10000.12172
10000.12172
10000.12172
10000.12172
10000.12172
10000.12172
10000.12172
10000.12172
10000.12082
10000.12082
10000.12082
10000.12082
10000.12082
10000.12082
10000.12082
10000.12082
10000.12082
10000.11992
10000.11992
10000.11992
10000.11992
10000.11992
10000.11992
10000.11992
10000.11992
10000.11992
10000.11902
10000.11902
10000.11902
10000.11902
10000.11902
10000.11902
10000.11901
10000.11901
10000.11901
10000.11811
10000.11811
10000.11811
10000.11811
10000.11811
10000.11811
10000.11811
10000.11811
10000.11811
10000.11721
10000.11721
10000.11721
10000.11721
10000.11721
10000.11721
10000.11721
10000.11721
10000.11721
10000.11631
10000.11631
10000.11631
10000.11631
10000.11631
10000.11631
10000.11631
10000.11631
10000.11631
10000.1154
10000.1154
10000.1154
10000.1154
10000.1154
10000.1154
10000.1154
10000.1154
10000.1154
10000.1145
10000.1145
10000.1145
10000.1145
10000.1145
10000.1145
10000.1145
10000.1145
10000.1145
10000.1136
10000.1136
10000.1136
10000.1136
10000.1136
10000.1136
10000.1136
10000.1136
10000.1136
10000.11269
10000.11269
10000.11269
10000.11269
10000.11269
10000.11269
10000.11269
10000.11269
10000.11269
10000.11179
10000.11179
10000.11179
10000.11179
10000.11179
10000.11179
10000.11179
10000.11179
10000.11179
10000.11089
10000.11089
10000.11089
10000.11089
10000.11089
10000.11089
10000.11089
10000.11089
10000.11089
10000.10998
10000.10998
10000.10998
10000.10998
10000.10999
10000.10999
10000.10999
10000.10999
10000.10999
10000.10908
10000.10908
10000.10908
10000.10908
10000.10908
10000.10908
10000.10908
10000.10908
10000.10908
10000.10818
10000.10818
10000.10818
10000.10818
10000.10818
10000.10818
10000.10818
10000.10818
10000.10818
10000.10728
10000.10728
10000.10728
10000.10728
10000.10728
10000.10728
10000.10728
10000.10728
10000.10728
10000.10637
10000.10637
10000.10637
10000.10637
10000.10637
10000.10637
10000.10637
10000.10637
10000.10637
10000.10547
10000.10547
10000.10547
10000.10547
10000.10547
10000.10547
10000.10547
10000.10547
10000.10547
10000.10457
10000.10457
10000.10457
10000.10457
10000.10457
10000.10457
10000.10457
10000.10457
10000.10457
10000.10367
10000.10367
10000.10367
10000.10367
10000.10367
10000.10367
10000.10367
10000.10367
10000.10367
10000.10276
10000.10276
10000.10276
10000.10276
10000.10276
10000.10276
10000.10276
10000.10276
10000.10276
10000.10186
10000.10186
10000.10186
10000.10186
10000.10186
10000.10186
10000.10186
10000.10186
10000.10186
10000.10096
10000.10096
10000.10096
10000.10096
10000.10096
10000.10096
10000.10096
10000.10096
10000.10096
10000.10006
10000.10006
10000.10006
10000.10006
10000.10006
10000.10006
10000.10006
10000.10006
10000.10006
10000.09916
10000.09916
10000.09916
10000.09916
10000.09916
10000.09916
10000.09916
10000.09916
10000.09916
10000.09825
10000.09825
10000.09825
10000.09825
10000.09825
10000.09825
10000.09825
10000.09826
10000.09826
10000.09735
10000.09735
10000.09735
10000.09735
10000.09735
10000.09735
10000.09735
10000.09735
10000.09735
10000.09645
10000.09645
10000.09645
10000.09645
10000.09645
10000.09645
10000.09645
10000.09645
10000.09645
10000.09555
10000.09555
10000.09555
10000.09555
10000.09555
10000.09555
10000.09555
10000.09555
10000.09555
10000.09465
10000.09465
10000.09465
10000.09465
10000.09465
10000.09465
10000.09465
10000.09465
10000.09465
10000.09375
10000.09375
10000.09375
10000.09375
10000.09375
10000.09375
10000.09375
10000.09375
10000.09375
10000.09285
10000.09285
10000.09285
10000.09285
10000.09285
10000.09285
10000.09285
10000.09285
10000.09285
10000.09195
10000.09195
10000.09195
10000.09195
10000.09195
10000.09195
10000.09195
10000.09195
10000.09195
10000.09105
10000.09105
10000.09105
10000.09105
10000.09105
10000.09105
10000.09105
10000.09105
10000.09105
10000.09015
10000.09015
10000.09015
10000.09015
10000.09015
10000.09015
10000.09015
10000.09015
10000.09015
10000.08925
10000.08925
10000.08925
10000.08925
10000.08925
10000.08925
10000.08925
10000.08925
10000.08925
10000.08835
10000.08835
10000.08835
10000.08835
10000.08835
10000.08835
10000.08835
10000.08835
10000.08835
10000.08745
10000.08745
10000.08745
10000.08745
10000.08745
10000.08745
10000.08745
10000.08745
10000.08746
10000.08655
10000.08655
10000.08655
10000.08656
10000.08656
10000.08656
10000.08656
10000.08656
10000.08656
10000.08566
10000.08566
10000.08566
10000.08566
10000.08566
10000.08566
10000.08566
10000.08566
10000.08566
10000.08476
10000.08476
10000.08476
10000.08476
10000.08476
10000.08476
10000.08476
10000.08476
10000.08476
10000.08386
10000.08386
10000.08386
10000.08386
10000.08386
10000.08386
10000.08386
10000.08386
10000.08386
10000.08296
10000.08296
10000.08296
10000.08296
10000.08296
10000.08296
10000.08296
10000.08296
10000.08296
10000.08207
10000.08207
10000.08207
10000.08207
10000.08207
10000.08207
10000.08207
10000.08207
10000.08207
10000.08117
10000.08117
10000.08117
10000.08117
10000.08117
10000.08117
10000.08117
10000.08117
10000.08117
10000.08027
10000.08027
10000.08027
10000.08027
10000.08027
10000.08027
10000.08027
10000.08027
10000.08027
10000.07938
10000.07938
10000.07938
10000.07938
10000.07938
10000.07938
10000.07938
10000.07938
10000.07938
10000.07848
10000.07848
10000.07848
10000.07848
10000.07848
10000.07848
10000.07848
10000.07848
10000.07848
10000.07758
10000.07758
10000.07758
10000.07758
10000.07758
10000.07758
10000.07758
10000.07758
10000.07758
10000.07669
10000.07669
10000.07669
10000.07669
10000.07669
10000.07669
10000.07669
10000.07669
10000.07669
10000.07579
10000.07579
10000.07579
10000.07579
10000.07579
10000.07579
10000.07579
10000.07579
10000.07579
10000.0749
10000.0749
10000.0749
10000.0749
10000.0749
10000.0749
10000.0749
10000.0749
10000.0749
10000.074
10000.074
10000.074
10000.074
10000.074
10000.074
10000.074
10000.074
10000.074
10000.07311
10000.07311
10000.07311
10000.07311
10000.07311
10000.07311
10000.07311
10000.07311
10000.07311
10000.07221
10000.07221
10000.07221
10000.07221
10000.07221
10000.07221
10000.07221
10000.07221
10000.07221
10000.07132
10000.07132
10000.07132
10000.07132
10000.07132
10000.07132
10000.07132
10000.07132
10000.07132
10000.07042
10000.07042
10000.07042
10000.07042
10000.07042
10000.07042
10000.07042
10000.07042
10000.07043
10000.06953
10000.06953
10000.06953
10000.06953
10000.06953
10000.06953
10000.06953
10000.06953
10000.06953
10000.06864
10000.06864
10000.06864
10000.06864
10000.06864
10000.06864
10000.06864
10000.06864
10000.06864
10000.06774
10000.06774
10000.06774
10000.06774
10000.06774
10000.06774
10000.06774
10000.06774
10000.06774
10000.06685
10000.06685
10000.06685
10000.06685
10000.06685
10000.06685
10000.06685
10000.06685
10000.06685
10000.06596
10000.06596
10000.06596
10000.06596
10000.06596
10000.06596
10000.06596
10000.06596
10000.06596
10000.06506
10000.06506
10000.06506
10000.06506
10000.06507
10000.06507
10000.06507
10000.06507
10000.06507
10000.06417
10000.06417
10000.06417
10000.06417
10000.06417
10000.06417
10000.06417
10000.06417
10000.06417
10000.06328
10000.06328
10000.06328
10000.06328
10000.06328
10000.06328
10000.06328
10000.06328
10000.06328
10000.06239
10000.06239
10000.06239
10000.06239
10000.06239
10000.06239
10000.06239
10000.06239
10000.06239
10000.0615
10000.0615
10000.0615
10000.0615
10000.0615
10000.0615
10000.0615
10000.0615
10000.0615
10000.06061
10000.06061
10000.06061
10000.06061
10000.06061
10000.06061
10000.06061
10000.06061
10000.06061
10000.05971
10000.05971
10000.05971
10000.05971
10000.05971
10000.05972
10000.05972
10000.05972
10000.05972
10000.05882
10000.05882
10000.05882
10000.05882
10000.05882
10000.05882
10000.05882
10000.05882
10000.05883
10000.05793
10000.05793
10000.05793
10000.05793
10000.05793
10000.05793
10000.05793
10000.05793
10000.05793
10000.05704
10000.05704
10000.05704
10000.05704
10000.05704
10000.05704
10000.05704
10000.05704
10000.05704
10000.05615
10000.05615
10000.05615
10000.05615
10000.05615
10000.05615
10000.05615
10000.05615
10000.05615
10000.05526
10000.05526
10000.05526
10000.05526
10000.05526
10000.05526
10000.05526
10000.05526
10000.05526
10000.05437
10000.05437
10000.05437
10000.05437
10000.05437
10000.05437
10000.05437
10000.05437
10000.05437
10000.05348
10000.05348
10000.05348
10000.05348
10000.05348
10000.05348
10000.05348
10000.05348
10000.05349
10000.05259
10000.05259
10000.05259
10000.05259
10000.05259
10000.05259
10000.0526
10000.0526
10000.0526
10000.0517
10000.05171
10000.05171
10000.05171
10000.05171
10000.05171
10000.05171
10000.05171
10000.05171
10000.05082
10000.05082
10000.05082
10000.05082
10000.05082
10000.05082
10000.05082
10000.05082
10000.05082
10000.04993
10000.04993
10000.04993
10000.04993
10000.04993
10000.04993
10000.04993
10000.04993
10000.04993
10000.04904
10000.04904
10000.04904
10000.04904
10000.04904
10000.04904
10000.04904
10000.04904
10000.04904
10000.04815
10000.04815
10000.04815
10000.04815
10000.04815
10000.04815
10000.04815
10000.04815
10000.04815
10000.04726
10000.04726
10000.04726
10000.04727
10000.04727
10000.04727
10000.04727
10000.04727
10000.04727
10000.04638
10000.04638
10000.04638
10000.04638
10000.04638
10000.04638
10000.04638
10000.04638
10000.04638
10000.04549
10000.04549
10000.04549
10000.04549
10000.04549
10000.04549
10000.04549
10000.04549
10000.0455
10000.04461
10000.04461
10000.04461
10000.04461
10000.04461
10000.04461
10000.04461
10000.04461
10000.04461
10000.04372
10000.04372
10000.04372
10000.04372
10000.04372
10000.04372
10000.04372
10000.04372
10000.04373
10000.04284
10000.04284
10000.04284
10000.04284
10000.04284
10000.04284
10000.04284
10000.04284
10000.04284
10000.04195
10000.04195
10000.04195
10000.04195
10000.04195
10000.04196
10000.04196
10000.04196
10000.04196
10000.04107
10000.04107
10000.04107
10000.04107
10000.04107
10000.04107
10000.04107
10000.04108
10000.04108
10000.04019
10000.04019
10000.04019
10000.04019
10000.04019
10000.04019
10000.0402
10000.0402
10000.0402
10000.03931
10000.03931
10000.03931
10000.03931
10000.03931
10000.03932
10000.03932
10000.03932
10000.03932
10000.03844
10000.03844
10000.03844
10000.03844
10000.03844
10000.03844
10000.03844
10000.03844
10000.03845
10000.03756
10000.03756
10000.03756
10000.03756
10000.03757
10000.03757
10000.03757
10000.03757
10000.03758
10000.03669
10000.03669
10000.03669
10000.03669
10000.03669
10000.0367
10000.0367
10000.0367
10000.03671
10000.03583
10000.03583
10000.03583
10000.03583
10000.03583
10000.03583
10000.03583
10000.03583
10000.03584
10000.03496
10000.03496
10000.03496
10000.03496
10000.03496
10000.03497
10000.03497
10000.03497
10000.03498
10000.0341
10000.0341
10000.0341
10000.0341
10000.0341
10000.03411
10000.03411
10000.03411
10000.03412
10000.03325
10000.03325
10000.03325
10000.03325
10000.03325
10000.03325
10000.03326
10000.03326
10000.03327
10000.0324
10000.0324
10000.0324
10000.0324
10000.0324
10000.03241
10000.03241
10000.03241
10000.03243
10000.03156
10000.03156
10000.03156
10000.03156
10000.03156
10000.03156
10000.03157
10000.03157
10000.03159
10000.03072
10000.03072
10000.03072
10000.03072
10000.03072
10000.03073
10000.03073
10000.03074
10000.03075
10000.02989
10000.02989
10000.02989
10000.02989
10000.0299
10000.0299
10000.02991
10000.02991
10000.02993
10000.02907
10000.02907
10000.02907
10000.02907
10000.02908
10000.02908
10000.02909
10000.02909
10000.02911
10000.02826
10000.02826
10000.02826
10000.02826
10000.02827
10000.02827
10000.02828
10000.02828
10000.0283
10000.02746
10000.02746
10000.02746
10000.02746
10000.02746
10000.02747
10000.02748
10000.02748
10000.02751
10000.02666
10000.02667
10000.02667
10000.02667
10000.02667
10000.02668
10000.02669
10000.0267
10000.02672
10000.02588
10000.02588
10000.02589
10000.02589
10000.02589
10000.0259
10000.02591
10000.02592
10000.02594
10000.02511
10000.02511
10000.02512
10000.02512
10000.02512
10000.02513
10000.02514
10000.02515
10000.02517
10000.02435
10000.02436
10000.02436
10000.02436
10000.02437
10000.02437
10000.02438
10000.02439
10000.02442
10000.02361
10000.02361
10000.02361
10000.02362
10000.02362
10000.02363
10000.02364
10000.02365
10000.02368
10000.02288
10000.02288
10000.02288
10000.02288
10000.02289
10000.0229
10000.02291
10000.02292
10000.02295
10000.02216
10000.02216
10000.02216
10000.02217
10000.02217
10000.02218
10000.02219
10000.0222
10000.02223
10000.02145
10000.02146
10000.02146
10000.02146
10000.02147
10000.02148
10000.02149
10000.0215
10000.02153
10000.02076
10000.02077
10000.02077
10000.02077
10000.02078
10000.02079
10000.0208
10000.02081
10000.02084
10000.02009
10000.02009
10000.02009
10000.0201
10000.0201
10000.02011
10000.02013
10000.02014
10000.02017
10000.01943
10000.01943
10000.01943
10000.01944
10000.01945
10000.01945
10000.01947
10000.01948
10000.01951
10000.01878
10000.01879
10000.01879
10000.01879
10000.0188
10000.01881
10000.01882
10000.01884
10000.01887
10000.01816
10000.01816
10000.01816
10000.01817
10000.01817
10000.01818
10000.0182
10000.01821
10000.01824
10000.01754
10000.01754
10000.01755
10000.01755
10000.01756
10000.01757
10000.01758
10000.0176
10000.01763
10000.01695
10000.01695
10000.01695
10000.01696
10000.01696
10000.01697
10000.01699
10000.017
10000.01704
10000.01636
10000.01637
10000.01637
10000.01638
10000.01638
10000.01639
10000.01641
10000.01642
10000.01646
10000.0158
10000.0158
10000.01581
10000.01581
10000.01582
10000.01583
10000.01584
10000.01586
10000.01589
10000.01525
10000.01525
10000.01526
10000.01526
10000.01527
10000.01528
10000.0153
10000.01531
10000.01534
10000.01472
10000.01472
10000.01472
10000.01473
10000.01474
10000.01475
10000.01476
10000.01478
10000.01481
10000.0142
10000.0142
10000.01421
10000.01421
10000.01422
10000.01423
10000.01425
10000.01426
10000.0143
10000.0137
10000.0137
10000.01371
10000.01371
10000.01372
10000.01373
10000.01374
10000.01376
10000.01379
10000.01321
10000.01321
10000.01322
10000.01323
10000.01323
10000.01324
10000.01326
10000.01327
10000.01331
10000.01274
10000.01274
10000.01275
10000.01275
10000.01276
10000.01277
10000.01279
10000.0128
10000.01284
10000.01228
10000.01229
10000.01229
10000.0123
10000.01231
10000.01232
10000.01233
10000.01235
10000.01238
10000.01184
10000.01185
10000.01185
10000.01186
10000.01187
10000.01188
10000.01189
10000.0119
10000.01194
10000.01142
10000.01142
10000.01142
10000.01143
10000.01144
10000.01145
10000.01146
10000.01148
10000.01151
10000.011
10000.01101
10000.01101
10000.01102
10000.01103
10000.01104
10000.01105
10000.01106
10000.01109
10000.0106
10000.01061
10000.01061
10000.01062
10000.01063
10000.01064
10000.01065
10000.01066
10000.01069
10000.01022
10000.01022
10000.01023
10000.01023
10000.01024
10000.01025
10000.01026
10000.01028
10000.01031
10000.00985
10000.00985
10000.00985
10000.00986
10000.00987
10000.00988
10000.00989
10000.0099
10000.00993
10000.00949
10000.00949
10000.00949
10000.0095
10000.00951
10000.00952
10000.00953
10000.00954
10000.00957
10000.00914
10000.00914
10000.00915
10000.00915
10000.00916
10000.00917
10000.00918
10000.00919
10000.00922
10000.0088
10000.00881
10000.00881
10000.00882
10000.00882
10000.00883
10000.00884
10000.00886
10000.00888
10000.00848
10000.00848
10000.00849
10000.00849
10000.0085
10000.00851
10000.00852
10000.00853
10000.00856
10000.00816
10000.00817
10000.00817
10000.00818
10000.00818
10000.00819
10000.00821
10000.00822
10000.00824
10000.00786
10000.00787
10000.00787
10000.00787
10000.00788
10000.00789
10000.0079
10000.00791
10000.00794
10000.00757
10000.00757
10000.00758
10000.00758
10000.00759
10000.0076
10000.00761
10000.00762
10000.00764
10000.00729
10000.00729
10000.00729
10000.0073
10000.00731
10000.00732
10000.00733
10000.00734
10000.00736
10000.00702
10000.00702
10000.00702
10000.00703
10000.00703
10000.00704
10000.00705
10000.00706
10000.00708
10000.00675
10000.00675
10000.00676
10000.00676
10000.00677
10000.00678
10000.00679
10000.0068
10000.00682
10000.0065
10000.0065
10000.0065
10000.00651
10000.00652
10000.00652
10000.00653
10000.00654
10000.00656
10000.00625
10000.00625
10000.00626
10000.00626
10000.00627
10000.00628
10000.00629
10000.00629
10000.00631
10000.00601
10000.00602
10000.00602
10000.00602
10000.00603
10000.00604
10000.00605
10000.00605
10000.00607
10000.00578
10000.00579
10000.00579
10000.00579
10000.0058
10000.00581
10000.00582
10000.00582
10000.00584
10000.00556
10000.00556
10000.00557
10000.00557
10000.00558
10000.00558
10000.00559
10000.0056
10000.00562
10000.00534
10000.00535
10000.00535
10000.00536
10000.00536
10000.00537
10000.00538
10000.00538
10000.0054
10000.00514
10000.00514
10000.00514
10000.00515
10000.00515
10000.00516
10000.00517
10000.00517
10000.00519
10000.00493
10000.00494
10000.00494
10000.00494
10000.00495
10000.00496
10000.00496
10000.00497
10000.00499
10000.00474
10000.00474
10000.00474
10000.00475
10000.00475
10000.00476
10000.00477
10000.00477
10000.00479
10000.00455
10000.00455
10000.00455
10000.00456
10000.00456
10000.00457
10000.00458
10000.00458
10000.0046
10000.00436
10000.00437
10000.00437
10000.00437
10000.00438
10000.00438
10000.00439
10000.0044
10000.00441
10000.00418
10000.00419
10000.00419
10000.00419
10000.0042
10000.0042
10000.00421
10000.00422
10000.00423
10000.00401
10000.00401
10000.00402
10000.00402
10000.00402
10000.00403
10000.00404
10000.00404
10000.00405
10000.00384
10000.00384
10000.00385
10000.00385
10000.00385
10000.00386
10000.00387
10000.00387
10000.00388
10000.00368
10000.00368
10000.00368
10000.00369
10000.00369
10000.0037
10000.0037
10000.00371
10000.00372
10000.00352
10000.00352
10000.00352
10000.00353
10000.00353
10000.00354
10000.00354
10000.00355
10000.00356
10000.00336
10000.00336
10000.00337
10000.00337
10000.00337
10000.00338
10000.00339
10000.00339
10000.0034
10000.00321
10000.00321
10000.00322
10000.00322
10000.00322
10000.00323
10000.00323