/*--------------------------------*- C++ -*----------------------------------*\
| =========                 |                                                 |
| \\      /  F ield         | OpenFOAM: The Open Source CFD Toolbox           |
|  \\    /   O peration     | Version:  2212                                  |
|   \\  /    A nd           | Website:  www.openfoam.com                      |
|    \\/     M anipulation  |                                                 |
\*---------------------------------------------------------------------------*/
FoamFile
{
    version     2.0;
    format      ascii;
    arch        "LSB;label=32;scalar=64";
    class       surfaceScalarField;
    location    "30.00000000";
    object      phi;
}
// * * * * * * * * * * * * * * * * * * * * * * * * * * * * * * * * * * * * * //

dimensions      [1 0 -1 0 0 0 0];

oriented        oriented;

internalField   nonuniform List<scalar> 
5690
(
-5.465399204e-11
8.582855134e-10
1.327470083e-11
-1.341627674e-10
1.42111988e-09
-2.675342448e-10
1.983835993e-09
-4.777855415e-10
2.554087921e-09
-7.885403581e-10
3.132843102e-09
-1.197359088e-09
3.694392831e-09
-1.609654564e-09
4.146935275e-09
-1.626087956e-09
4.18605879e-09
2.964773276e-09
-1.154930788e-10
9.453263605e-10
2.845228006e-11
-2.662434435e-10
1.57187053e-09
-4.845301719e-10
2.202122828e-09
-7.645769288e-10
2.834134937e-09
-1.073693319e-09
3.441959887e-09
-1.323474631e-09
3.944175175e-09
-1.353226945e-09
4.176688489e-09
-9.104385397e-10
3.743271264e-09
2.054334329e-09
-1.516693206e-10
1.058768778e-09
3.822690654e-11
-3.351477581e-10
1.755348615e-09
-5.767440287e-10
2.443719192e-09
-8.452686316e-10
3.102659653e-09
-1.078211463e-09
3.67490266e-09
-1.179180298e-09
4.045143068e-09
-1.024758692e-09
4.022266618e-09
-5.517374891e-10
3.27025049e-09
1.502596812e-09
-1.482452787e-10
1.168970861e-09
3.804341625e-11
-3.17339667e-10
1.924442542e-09
-5.212295239e-10
2.647608874e-09
-7.177688354e-10
3.299198612e-09
-8.456254456e-10
3.802759527e-09
-8.31023636e-10
4.030541029e-09
-6.195916864e-10
3.810834233e-09
-2.730162103e-10
2.923675043e-09
1.229580623e-09
-1.315693319e-10
1.266284521e-09
3.425580357e-11
-2.743522679e-10
2.067225803e-09
-4.336136537e-10
2.806870437e-09
-5.67533752e-10
3.433119233e-09
-6.265196378e-10
3.861745338e-09
-5.682787558e-10
3.972300292e-09
-3.843652554e-10
3.626921057e-09
-1.474390192e-10
2.686748669e-09
1.082141507e-09
-1.070042386e-10
1.345014407e-09
2.827435989e-11
-2.180510756e-10
2.17827252e-09
-3.334726061e-10
2.922291583e-09
-4.1820727e-10
3.517854224e-09
-4.377891239e-10
3.881327121e-09
-3.729223311e-10
3.907433421e-09
-2.34827731e-10
3.488827044e-09
-8.201218298e-11
2.533932618e-09
1.000129237e-09
-8.368513959e-11
1.406347517e-09
2.23518926e-11
-1.674174723e-10
2.262004577e-09
-2.493555064e-10
3.004229639e-09
-3.023913084e-10
3.570889678e-09
-3.041269878e-10
3.883062807e-09
-2.474063473e-10
3.850712416e-09
-1.479639315e-10
3.389384791e-09
-4.78429307e-11
2.433811376e-09
9.522864938e-10
-6.330517568e-11
1.452563608e-09
1.708927419e-11
-1.246519506e-10
2.323351301e-09
-1.81629916e-10
3.061207549e-09
-2.143859191e-10
3.603645586e-09
-2.090420531e-10
3.877718996e-09
-1.64481367e-10
3.806151573e-09
-9.524775369e-11
3.320151033e-09
-2.983495893e-11
2.368398696e-09
9.224517789e-10
-4.711953653e-11
1.486867396e-09
1.281576989e-11
-9.163692604e-11
2.367868719e-09
-1.312448625e-10
3.100815407e-09
-1.517370843e-10
3.624137956e-09
-1.445963365e-10
3.870578284e-09
-1.110722155e-10
3.772627476e-09
-6.279543248e-11
3.271873959e-09
-1.900435069e-11
2.3246076e-09
9.034474294e-10
-3.466674173e-11
1.512038677e-09
9.49547402e-12
-6.673109429e-11
2.399932817e-09
-9.42786084e-11
3.128362727e-09
-1.072890052e-10
3.637148424e-09
-1.005543735e-10
3.863843579e-09
-7.603066311e-11
3.748103878e-09
-4.246711597e-11
3.238310169e-09
-1.280008161e-11
2.294940402e-09
8.906471907e-10
-2.53839541e-11
1.530436669e-09
6.986046415e-12
-4.848769447e-11
2.423036198e-09
-6.78055279e-11
3.147680464e-09
-7.62750858e-11
3.645617851e-09
-7.06513709e-11
3.858219622e-09
-5.284042916e-11
3.730293167e-09
-2.924021078e-11
3.214709722e-09
-8.706547027e-12
2.274406661e-09
8.819405065e-10
-1.855483048e-11
1.543863401e-09
5.128022273e-12
-3.523057468e-11
2.439711691e-09
-4.889282639e-11
3.161342768e-09
-5.455134211e-11
3.651276283e-09
-5.014033127e-11
3.853808337e-09
-3.727230858e-11
3.717425425e-09
-2.057009263e-11
3.198007245e-09
-6.156174998e-12
2.259992655e-09
8.75784229e-10
-1.357752196e-11
1.553678477e-09
3.762279038e-12
-2.56715275e-11
2.451805559e-09
-3.54380432e-11
3.171109432e-09
-3.932234796e-11
3.655160478e-09
-3.596513498e-11
3.850451024e-09
-2.663708306e-11
3.708097605e-09
-1.467077104e-11
3.186040859e-09
-4.380963084e-12
2.249702476e-09
8.714032069e-10
-9.962896273e-12
1.56087465e-09
2.766667756e-12
-1.87805827e-11
2.4606231e-09
-2.583373816e-11
3.178162623e-09
-2.856851661e-11
3.657895039e-09
-2.606239158e-11
3.847944952e-09
-1.928263059e-11
3.701317825e-09
-1.063566587e-11
3.177393979e-09
-3.196120554e-12
2.242262618e-09
8.682070241e-10
-7.338432351e-12
1.566172886e-09
2.040165551e-12
-1.380782662e-11
2.467092407e-09
-1.895374127e-11
3.183308546e-09
-2.092286898e-11
3.659863977e-09
-1.906858246e-11
3.84609079e-09
-1.411219525e-11
3.696361071e-09
-7.799539272e-12
3.171081335e-09
-2.341425519e-12
2.236804644e-09
8.658654511e-10
-5.430523235e-12
1.570092449e-09
1.510886655e-12
-1.020714028e-11
2.471869029e-09
-1.399741875e-11
3.187098953e-09
-1.544450404e-11
3.661310932e-09
-1.408306711e-11
3.844729441e-09
-1.044608372e-11
3.692723628e-09
-5.804724907e-12
3.16643991e-09
-1.737478359e-12
2.232737739e-09
8.641277162e-10
-4.038368324e-12
1.573006996e-09
1.123767215e-12
-7.587772044e-12
2.475418384e-09
-1.040381075e-11
3.189915124e-09
-1.14841184e-11
3.662391077e-09
-1.048563051e-11
3.843731015e-09
-7.799516896e-12
3.690037272e-09
-4.356973201e-12
3.162997336e-09
-1.295342396e-12
2.229676289e-09
8.628322279e-10
-3.018516553e-12
1.575185524e-09
8.399874758e-13
-5.67175677e-12
2.47807152e-09
-7.779291539e-12
3.192022738e-09
-8.594193867e-12
3.663205879e-09
-7.859087878e-12
3.842995953e-09
-5.860262417e-12
3.688038446e-09
-3.286551698e-12
3.160423656e-09
-9.776045471e-13
2.227367384e-09
8.618546504e-10
-2.267816694e-12
1.576822464e-09
6.309028171e-13
-4.26251548e-12
2.48006605e-09
-5.849450793e-12
3.19360986e-09
-6.467639392e-12
3.663824163e-09
-5.92170274e-12
3.842449915e-09
-4.42221398e-12
3.686538964e-09
-2.483967576e-12
3.158485425e-09
-7.378563636e-13
2.225621265e-09
8.611168438e-10
-1.712997236e-12
1.578059066e-09
4.764292897e-13
-3.22071156e-12
2.481573409e-09
-4.421273332e-12
3.194810643e-09
-4.89023128e-12
3.664293236e-09
-4.477960219e-12
3.842037522e-09
-3.341792923e-12
3.685402767e-09
-1.871727807e-12
3.157015382e-09
-5.569377129e-13
2.22430627e-09
8.605599573e-10
-1.302143465e-12
1.578999134e-09
3.620577688e-13
-2.448224436e-12
2.482719097e-09
-3.35986461e-12
3.195722258e-09
-3.712341276e-12
3.664645771e-09
-3.390558683e-12
3.841715673e-09
-2.515004959e-12
3.684527283e-09
-1.388599281e-12
3.155889079e-09
-4.143089377e-13
2.223331768e-09
8.60145657e-10
-9.987748894e-13
1.57972012e-09
2.777116223e-13
-1.876545998e-12
2.48359669e-09
-2.571664324e-12
3.196417164e-09
-2.832071484e-12
3.664906178e-09
-2.56867862e-12
3.841452272e-09
-1.875532528e-12
3.683834313e-09
-9.972227362e-13
3.155010929e-09
-2.971247541e-13
2.222631661e-09
8.598483137e-10
-7.794896585e-13
1.580282689e-09
2.168642124e-13
-1.462711068e-12
2.484279831e-09
-1.998502275e-12
3.196952851e-09
-2.185827358e-12
3.665093456e-09
-1.953411454e-12
3.841219865e-09
-1.376266015e-12
3.683257248e-09
-6.656046053e-13
3.154300282e-09
-1.949022107e-13
2.22216106e-09
8.596530674e-10
-6.275712865e-13
1.580735423e-09
1.747883526e-13
-1.175977091e-12
2.484828063e-09
-1.601097803e-12
3.197378074e-09
-1.740557668e-12
3.665232847e-09
-1.538735872e-12
3.841017973e-09
-1.054392815e-12
3.682772914e-09
-4.687948412e-13
3.153714457e-09
-9.62857779e-14
2.221788694e-09
8.595566517e-10
-5.416890904e-13
1.581126446e-09
1.50601095e-13
-1.018811076e-12
2.485305039e-09
-1.393267064e-12
3.197752619e-09
-1.518401972e-12
3.665357931e-09
-1.340320729e-12
3.840839721e-09
-9.179036227e-13
3.682350586e-09
-4.149695865e-13
3.153211268e-09
-5.454776686e-14
2.221428418e-09
8.595021475e-10
-5.176450104e-13
1.581500857e-09
1.432669172e-13
-9.821364523e-13
2.485769467e-09
-1.359541437e-12
3.198129927e-09
-1.501018311e-12
3.665499403e-09
-1.333923618e-12
3.840672486e-09
-9.171510882e-13
3.681933921e-09
-4.228236664e-13
3.1527168e-09
-6.517567149e-14
2.221070604e-09
8.594370303e-10
-5.490426494e-13
1.581898702e-09
1.513136573e-13
-1.050463046e-12
2.486270815e-09
-1.471001889e-12
3.198550317e-09
-1.651221509e-12
3.665679614e-09
-1.506521719e-12
3.840527795e-09
-1.073575827e-12
3.681500858e-09
-5.226201473e-13
3.152165797e-09
-8.738465012e-14
2.220634859e-09
8.593497734e-10
-6.493067254e-13
1.582370247e-09
1.778166819e-13
-1.255555312e-12
2.486876974e-09
-1.784704655e-12
3.199079441e-09
-2.043870306e-12
3.665938687e-09
-1.920880524e-12
3.84040486e-09
-1.425863436e-12
3.681005587e-09
-7.363035871e-13
3.151476209e-09
-1.423357602e-13
2.22004048e-09
8.592075025e-10
-8.299594746e-13
1.582974363e-09
2.257980191e-13
-1.621692013e-12
2.487668545e-09
-2.339998155e-12
3.199797888e-09
-2.73319019e-12
3.666331696e-09
-2.630158487e-12
3.840301831e-09
-2.013243027e-12
3.680388651e-09
-1.089738313e-12
3.150552602e-09
-2.427225623e-13
2.219193458e-09
8.589646178e-10
-1.104407823e-12
1.583779778e-09
2.989164151e-13
-2.175562209e-12
2.488739334e-09
-3.175783132e-12
3.200798329e-09
-3.765946634e-12
3.666921763e-09
-3.695344042e-12
3.840231143e-09
-2.90544565e-12
3.679598946e-09
-1.639766851e-12
3.149286817e-09
-4.127606918e-13
2.217966576e-09
8.585515512e-10
-1.48779292e-12
1.584866302e-09
4.011908986e-13
-2.94760269e-12
2.490198742e-09
-4.338990658e-12
3.202189903e-09
-5.202344611e-12
3.667785174e-09
-5.179364568e-12
3.840207967e-09
-4.156373497e-12
3.678576019e-09
-2.421291182e-12
3.147551714e-09
-6.659012695e-13
2.216211181e-09
8.578854574e-10
-1.993903633e-12
1.586323836e-09
5.362589071e-13
-3.965115298e-12
2.492169704e-09
-5.870012223e-12
3.204094886e-09
-7.091564496e-12
3.669006803e-09
-7.132496168e-12
3.840248724e-09
-5.808641709e-12
3.677252024e-09
-3.462186021e-12
3.145205318e-09
-1.013000666e-12
2.213761879e-09
8.568725121e-10
-2.633332573e-12
1.588250008e-09
7.070629275e-13
-5.248474587e-12
2.494784693e-09
-7.796964411e-12
3.206643404e-09
-9.464579064e-12
3.670674402e-09
-9.582016918e-12
3.840366157e-09
-7.88100734e-12
3.675550787e-09
-4.771969622e-12
3.142096455e-09
-1.457480121e-12
2.210447247e-09
8.554151967e-10
-3.410612873e-12
1.590745646e-09
9.149468611e-13
-6.804665573e-12
2.49817865e-09
-1.012591878e-11
3.20996461e-09
-1.232175862e-11
3.672870139e-09
-1.251985931e-11
3.840564439e-09
-1.03587394e-11
3.673389472e-09
-6.336409319e-12
3.138074334e-09
-1.993621925e-12
2.206104301e-09
8.534217138e-10
-4.321601696e-12
1.593908319e-09
1.158950993e-12
-8.622034347e-12
2.502479152e-09
-1.283274949e-11
3.214175177e-09
-1.562296212e-11
3.675660258e-09
-1.589226676e-11
3.840833947e-09
-1.318477913e-11
3.670681949e-09
-8.111965462e-12
3.133001582e-09
-2.604408973e-12
2.20059656e-09
8.508173684e-10
-5.350783439e-12
1.597823945e-09
1.435204274e-12
-1.066545846e-11
2.507793921e-09
-1.58559903e-11
3.219365551e-09
-1.92795888e-11
3.679083841e-09
-1.959259163e-11
3.841146993e-09
-1.625517659e-11
3.667344681e-09
-1.002396188e-11
3.126770216e-09
-3.261180939e-12
2.193833744e-09
8.475561396e-10
-6.46954241e-12
1.602557064e-09
1.736428171e-12
-1.287270915e-11
2.514197049e-09
-1.909263761e-11
3.225585394e-09
-2.315104614e-11
3.683142179e-09
-2.345995852e-11
3.841455833e-09
-1.942038849e-11
3.663305367e-09
-1.196933213e-11
3.119318928e-09
-3.925487363e-12
2.185790105e-09
8.436305261e-10
-7.635281529e-12
1.608140589e-09
2.05164325e-12
-1.515339635e-11
2.521715079e-09
-2.239816072e-11
3.232830182e-09
-2.704713397e-11
3.68779099e-09
-2.728557537e-11
3.841694203e-09
-2.249404537e-11
3.658514075e-09
-1.38247867e-11
3.110649466e-09
-4.552773754e-12
2.176518313e-09
8.390776518e-10
-8.79183658e-12
1.614566043e-09
2.366255803e-12
-1.739130404e-11
2.530314453e-09
-2.559195353e-11
3.241030966e-09
-3.073829605e-11
3.69293726e-09
-3.082743439e-11
3.841783292e-09
-2.52692292e-11
3.652955953e-09
-1.545953803e-11
3.100839608e-09
-5.097387886e-12
2.166156195e-09
8.339802343e-10
-9.871993512e-12
1.621775524e-09
2.662505082e-12
-1.945038753e-11
2.539892616e-09
-2.846875814e-11
3.250049556e-09
-3.39735703e-11
3.698442176e-09
-3.38324942e-11
3.841642125e-09
-2.754020407e-11
3.646663627e-09
-1.675044055e-11
3.090049693e-09
-5.518346789e-12
2.154924031e-09
8.28461864e-10
-1.080200496e-11
1.62965704e-09
2.920531068e-12
-2.118469678e-11
2.55027498e-09
-3.081606264e-11
3.259681142e-09
-3.65047433e-11
3.704130966e-09
-3.60638122e-11
3.841201081e-09
-2.912649507e-11
3.639726263e-09
-1.75969463e-11
3.07852008e-09
-5.784584235e-12
2.143111631e-09
8.226772464e-10
-1.150776385e-11
1.638044661e-09
3.120119221e-12
-2.24520888e-11
2.561219085e-09
-3.243594166e-11
3.269665125e-09
-3.81138827e-11
3.709808888e-09
-3.732871716e-11
3.840415862e-09
-2.989493014e-11
3.632292437e-09
-1.79331889e-11
3.06655834e-09
-5.878316871e-12
2.131056699e-09
8.167989063e-10
-1.192241437e-11
1.646724306e-09
3.242713972e-12
-2.313004319e-11
2.572426604e-09
-3.31683346e-11
3.279703457e-09
-3.864025702e-11
3.715280713e-09
-3.75029756e-11
3.839278607e-09
-2.977555226e-11
3.624564979e-09
-1.773472711e-11
3.054517557e-09
-5.796117187e-12
2.119117948e-09
8.110027875e-10
-1.199466939e-11
1.65544547e-09
3.273521732e-12
-2.313104935e-11
2.583562898e-09
-3.291192815e-11
3.289484335e-09
-3.800151546e-11
3.720370202e-09
-3.654606823e-11
3.837823178e-09
-2.876834258e-11
3.616787252e-09
-1.701903035e-11
3.04276833e-09
-5.547971952e-12
2.107646782e-09
8.054548018e-10
-1.169616146e-11
1.663938113e-09
3.203569341e-12
-2.241518801e-11
2.59428195e-09
-3.163871851e-11
3.298707856e-09
-3.620463236e-11
3.724936023e-09
-3.450448711e-11
3.836122958e-09
-2.693970801e-11
3.609222509e-09
-1.583999347e-11
3.031668738e-09
-5.154747012e-12
2.096961589e-09
8.00299971e-10
-1.102616171e-11
1.671932979e-09
3.031298679e-12
-2.09972608e-11
2.604253187e-09
-2.939897833e-11
3.307109556e-09
-3.334429434e-11
3.728881294e-09
-3.150288309e-11
3.834281444e-09
-2.44102472e-11
3.602129964e-09
-1.427840653e-11
3.021537048e-09
-4.644776211e-12
2.087328048e-09
7.956551452e-10
-1.001284892e-11
1.679182625e-09
2.763176503e-12
-1.894615143e-11
2.613186593e-09
-2.63149403e-11
3.314478283e-09
-2.958906777e-11
3.732155468e-09
-2.77252668e-11
3.832417687e-09
-2.133688772e-11
3.595741665e-09
-1.243055664e-11
3.012630867e-09
-4.050031124e-12
2.07894744e-09
7.916051924e-10
-8.710586933e-12
1.685480108e-09
2.413108053e-12
-1.637656564e-11
2.620852582e-09
-2.256471488e-11
3.320666363e-09
-2.515862289e-11
3.734749463e-09
-2.339076222e-11
3.830650029e-09
-1.789337522e-11
3.59024424e-09
-1.039761448e-11
3.005135235e-09
-3.404687337e-12
2.071954355e-09
7.882006667e-10
-7.193258164e-12
1.690672616e-09
2.000795274e-12
-1.343462312e-11
2.6270939e-09
-1.835979524e-11
3.325591549e-09
-2.029669939e-11
3.736686414e-09
-1.87283428e-11
3.829081877e-09
-1.425215191e-11
3.585767942e-09
-8.276269641e-12
2.999159428e-09
-2.743326926e-12
2.066421468e-09
7.854574673e-10
-5.545200955e-12
1.69466851e-09
1.54935585e-12
-1.028026294e-11
2.631828895e-09
-1.392065595e-11
3.329232006e-09
-1.524491482e-11
3.738010692e-09
-1.395449741e-11
3.827791548e-09
-1.056880812e-11
3.582382245e-09
-6.150611279e-12
2.994741233e-09
-2.07692479e-12
2.06234803e-09
7.833805962e-10
-3.851359299e-12
1.697437326e-09
1.082548693e-12
-7.069402929e-12
2.635046891e-09
-9.453874839e-12
3.331616504e-09
-1.022056282e-11
3.73877745e-09
-9.255982393e-12
3.826827009e-09
-6.972122484e-12
3.580098585e-09
-4.087159954e-12
2.991856262e-09
-1.416315029e-12
2.059677392e-09
7.819642656e-10
-2.189025889e-12
1.69900391e-09
6.223994673e-13
-3.940174152e-12
2.636798035e-09
-5.13651013e-12
3.332812833e-09
-5.404045093e-12
3.739045087e-09
-4.783636334e-12
3.826206647e-09
-3.567275907e-12
3.578882403e-09
-2.123981995e-12
2.990412969e-09
-7.969909518e-13
2.058350523e-09
7.811672565e-10
-6.221412006e-13
1.699438572e-09
1.874381684e-13
-1.003902954e-12
2.637179823e-09
-1.106859489e-12
3.33291586e-09
-9.321985751e-13
3.738870495e-09
-6.475478763e-13
3.825922015e-09
-4.448574727e-13
3.578679802e-09
-2.935368253e-13
2.99026171e-09
-2.279743626e-13
2.058285001e-09
7.809393207e-10
8.021179862e-13
1.698845059e-09
-2.086171549e-13
1.658066123e-12
2.636323896e-09
2.535633736e-12
3.332038441e-09
3.100932082e-12
3.738305219e-09
3.074332133e-12
3.825948634e-09
2.393997929e-12
3.579360161e-09
1.307825436e-12
2.991348017e-09
2.884272805e-13
2.059304399e-09
7.812278191e-10
2.051996412e-12
1.697349662e-09
-5.566082116e-13
3.991070497e-12
2.634384886e-09
5.724478308e-12
3.330305164e-09
6.630505905e-12
3.737399214e-09
6.334160105e-12
3.826245006e-09
4.870186668e-12
3.580824166e-09
2.707191345e-12
2.993511136e-09
7.44966901e-13
2.06126663e-09
7.819728096e-10
3.113072935e-12
1.695088634e-09
-8.520513099e-13
5.973080495e-12
2.631524959e-09
8.43804171e-12
3.327840291e-09
9.642561839e-12
3.736194779e-09
9.128256771e-12
3.82675936e-09
7.004033669e-12
3.582948444e-09
3.946133096e-12
2.996569108e-09
1.145134759e-12
2.064067622e-09
7.831179441e-10
3.984598768e-12
1.692198478e-09
-1.094427604e-12
7.605209078e-12
2.627904375e-09
1.068108692e-11
3.324764444e-09
1.214475669e-11
3.734731145e-09
1.146387751e-11
3.827440256e-09
8.801269102e-12
3.585611079e-09
5.000242985e-12
3.000370113e-09
1.487477502e-12
2.067580411e-09
7.846054419e-10
4.675649862e-12
1.68880902e-09
-1.286159515e-12
8.905189017e-12
2.623674795e-09
1.247850453e-11
3.321191148e-09
1.416451368e-11
3.733045087e-09
1.336486083e-11
3.828239927e-09
1.027741018e-11
3.588698508e-09
5.873604427e-12
3.004773869e-09
1.773156168e-12
2.071680881e-09
7.86378628e-10
5.201497329e-12
1.685039081e-09
-1.431510311e-12
9.901054738e-12
2.618975166e-09
1.386744711e-11
3.317224788e-09
1.574125657e-11
3.731171227e-09
1.486555796e-11
3.829115624e-09
1.145695931e-11
3.592107099e-09
6.580257869e-12
3.009650523e-09
2.011511776e-12
2.076249578e-09
7.883901764e-10
5.580769191e-12
1.680994136e-09
-1.53575127e-12
1.06263792e-11
2.613929442e-09
1.489172947e-11
3.312959492e-09
1.692076133e-11
3.729142199e-09
1.600552881e-11
3.830030818e-09
1.236762251e-11
3.595744992e-09
7.135224273e-12
3.014882861e-09
2.206736882e-12
2.081177984e-09
7.905969561e-10
5.833280719e-12
1.676765464e-09
-1.604537434e-12
1.111678669e-11
2.608645793e-09
1.55976391e-11
3.308478679e-09
1.775121606e-11
3.726988648e-09
1.682636407e-11
3.830955617e-09
1.303843302e-11
3.599532905e-09
7.553552749e-12
3.020367676e-09
2.355310692e-12
2.086376195e-09
7.929522766e-10
5.978612283e-12
1.672430324e-09
-1.643452787e-12
1.140753398e-11
2.603216744e-09
1.603116083e-11
3.303855064e-09
1.828078972e-11
3.724738981e-09
1.737004679e-11
3.831866325e-09
1.349945171e-11
3.603403498e-09
7.851697775e-12
3.026015388e-09
2.464878084e-12
2.091763032e-09
7.954171183e-10
6.035213177e-12
1.66805279e-09
-1.657714947e-12
1.153188486e-11
2.597719955e-09
1.623590855e-11
3.299151054e-09
1.855553206e-11
3.722419299e-09
1.767687618e-11
3.832744961e-09
1.377963715e-11
3.607300755e-09
8.045469265e-12
3.031749522e-09
2.54104036e-12
2.097267467e-09
7.979580915e-10
6.019886063e-12
1.663684915e-09
-1.652054222e-12
1.15203346e-11
2.592219378e-09
1.625213195e-11
3.294419292e-09
1.861823784e-11
3.720053184e-09
1.778463777e-11
3.833578556e-09
1.390629655e-11
3.611179103e-09
8.149745e-12
3.037506039e-09
2.588391797e-12
2.102828809e-09
8.005464003e-10
5.947534348e-12
1.659368039e-09
-1.630682966e-12
1.14001816e-11
2.586766598e-09
1.611615508e-11
3.28970335e-09
1.850783712e-11
3.717661528e-09
1.772806225e-11
3.834358325e-09
1.39048039e-11
3.61500231e-09
8.178512871e-12
3.043232296e-09
2.611171941e-12
2.10839615e-09
8.031574986e-10
5.831126951e-12
1.655134152e-09
-1.597256384e-12
1.119535867e-11
2.58140226e-09
1.586015289e-11
3.285038583e-09
1.825916481e-11
3.715262502e-09
1.753855736e-11
3.835078907e-09
1.379840679e-11
3.61874235e-09
8.144746491e-12
3.048885942e-09
2.613321554e-12
2.113927606e-09
8.057707804e-10
5.681782356e-12
1.65100723e-09
-1.554884887e-12
1.09265051e-11
2.576157459e-09
1.551214087e-11
3.28045297e-09
1.790295675e-11
3.712871597e-09
1.724416376e-11
3.835737656e-09
1.360811414e-11
3.622378303e-09
8.060301251e-12
3.054433789e-09
2.598477848e-12
2.119389453e-09
8.083692418e-10
5.508885039e-12
1.647004485e-09
-1.506168806e-12
1.061117198e-11
2.571055117e-09
1.509616062e-11
3.275967988e-09
1.746592531e-11
3.710501725e-09
1.686954872e-11
3.836333999e-09
1.335259374e-11
3.625895219e-09
7.935817991e-12
3.059850617e-09
2.569969266e-12
2.124755258e-09
8.109391996e-10
5.320245591e-12
1.643137488e-09
-1.453256732e-12
1.026409915e-11
2.56611123e-09
1.463261638e-11
3.271599447e-09
1.697097258e-11
3.708163325e-09
1.64361176e-11
3.836868833e-09
1.304823475e-11
3.629283067e-09
7.780810896e-12
3.065118055e-09
2.530913035e-12
2.130005055e-09
8.134701017e-10
5.122233028e-12
1.639413186e-09
-1.39790436e-12
9.897399278e-12
2.561336045e-09
1.41384232e-11
3.267358356e-09
1.643712031e-11
3.705864642e-09
1.596167692e-11
3.837344242e-09
1.27086274e-11
3.632536039e-09
7.602876083e-12
3.07022376e-09
2.48333082e-12
2.135124501e-09
8.159534154e-10
4.920059301e-12
1.635834717e-09
-1.341558039e-12
9.52109696e-12
2.556735002e-09
1.362777371e-11
3.26325158e-09
1.588058488e-11
3.703611846e-09
1.546169561e-11
3.837763111e-09
1.234574294e-11
3.635651911e-09
7.40872663e-12
3.075160686e-09
2.430796862e-12
2.140102386e-09
8.183841858e-10
4.717857669e-12
1.632402213e-09
-1.285344343e-12
9.143179371e-12
2.55230967e-09
1.311203659e-11
3.259282626e-09
1.531438892e-11
3.701409491e-09
1.49482138e-11
3.83812928e-09
1.197198924e-11
3.63862808e-09
7.209484839e-12
3.079923069e-09
2.375842057e-12
2.144936025e-09
8.207599932e-10
4.519199369e-12
1.629113198e-09
-1.230202051e-12
8.77067995e-12
2.548058163e-09
1.260147421e-11
3.255451789e-09
1.475095577e-11
3.699260023e-09
1.443913957e-11
3.838441056e-09
1.159729956e-11
3.641469876e-09
7.007279851e-12
3.084512958e-09
2.318193278e-12
2.149625075e-09
8.230781596e-10
4.326578517e-12
1.625963389e-09
-1.176790798e-12
8.408572979e-12
2.543976126e-09
1.210349615e-11
3.251756875e-09
1.420491889e-11
3.697158632e-09
1.394102126e-11
3.83870486e-09
1.122708431e-11
3.644183756e-09
6.803725372e-12
3.08893622e-09
2.26004816e-12
2.154168644e-09
8.25338185e-10
4.142607368e-12
1.622945975e-09
-1.125213653e-12
8.063659721e-12
2.540055038e-09
1.163101193e-11
3.248189538e-09
1.367988951e-11
3.695109771e-09
1.345578502e-11
3.838928854e-09
1.086716717e-11
3.646772309e-09
6.606520862e-12
3.093196836e-09
2.20354741e-12
2.158571502e-09
8.275416876e-10
3.968882416e-12
1.620054867e-09
-1.077792956e-12
7.735818624e-12
2.536288085e-09
1.117949835e-11
3.244745862e-09
1.317374407e-11
3.693115496e-09
1.299133833e-11
3.839111185e-09
1.052181977e-11
3.649241781e-09
6.416895938e-12
3.097301778e-09
2.149118712e-12
2.162839226e-09
8.296907445e-10
3.804787469e-12
1.617283158e-09
-1.033096941e-12
7.424801849e-12
2.532668064e-09
1.074773653e-11
3.241422935e-09
1.269476224e-11
3.691168404e-09
1.255141184e-11
3.839254515e-09
1.019452448e-11
3.651598652e-09
6.237253978e-12
3.101259038e-09
2.097685841e-12
2.166978806e-09
8.317883977e-10
3.651223524e-12
1.614622006e-09
-9.900768242e-13
7.135120126e-12
2.529184167e-09
1.034684384e-11
3.238211215e-09
1.224788177e-11
3.689267305e-09
1.21400771e-11
3.839362339e-09
9.888428623e-12
3.653850293e-09
6.06960044e-12
3.105077819e-09
2.049952836e-12
2.170998469e-09
8.338383746e-10
3.508928326e-12
1.612063853e-09
-9.507621613e-13
6.865928246e-12
2.525827179e-09
9.973892208e-12
3.235103234e-09
1.183190804e-11
3.687409271e-09
1.175717315e-11
3.839437092e-09
9.603782541e-12
3.65600367e-09
5.914190466e-12
3.108767397e-09
2.006011521e-12
2.174906634e-09
8.358444369e-10
3.377184018e-12
1.609601063e-09
-9.143698973e-13
6.616567149e-12
2.522587818e-09
9.628223604e-12
3.23209155e-09
1.144611652e-11
3.685591399e-09
1.140195416e-11
3.839481253e-09
9.33984818e-12
3.658065759e-09
5.77038677e-12
3.112336924e-09
1.965593387e-12
2.178711402e-09
8.378100547e-10
3.25521754e-12
1.607226576e-09
-8.807211519e-13
6.385448914e-12
2.519457604e-09
9.307428682e-12
3.229169566e-09
1.108748009e-11
3.683811378e-09
1.107115979e-11
3.839497571e-09
9.093625379e-12
3.660043298e-09
5.635945062e-12
3.115794699e-09
1.927754461e-12
2.182419588e-09
8.397377985e-10
3.14173764e-12
1.604934282e-09
-8.494542334e-13
6.169979349e-12
2.516429358e-09
9.007522455e-12
3.226332044e-09
1.075088759e-11
3.68206802e-09
1.075915767e-11
3.839489324e-09
8.85989758e-12
3.661942616e-09
5.507133176e-12
3.119147517e-09
1.890964538e-12
2.18603579e-09
8.41628748e-10
3.034909174e-12
1.602719425e-09
-8.200664334e-13
5.966441753e-12
2.51349781e-09
8.722754633e-12
3.223575747e-09
1.042900027e-11
3.680361757e-09
1.045787094e-11
3.839460489e-09
8.631168324e-12
3.663769415e-09
5.378695125e-12
3.122399994e-09
1.853099514e-12
2.189561439e-09
8.434818557e-10
2.932378308e-12
1.600578972e-09
-7.919232591e-13
5.770070128e-12
2.510660121e-09
8.445780558e-12
3.220900023e-09
1.011246239e-11
3.678695058e-09
1.015709955e-11
3.839415877e-09
8.39808735e-12
3.665528492e-09
5.244069195e-12
3.12555401e-09
1.811510213e-12
2.192994063e-09
8.452933822e-10
2.83135802e-12
1.598511922e-09
-7.642927823e-13
5.575230467e-12
2.507916279e-09
8.168081371e-12
3.21830715e-09
9.790516117e-12
3.677072627e-09
9.845317312e-12
3.839361083e-09
8.150324373e-12
3.667223457e-09
5.096035799e-12
3.128608317e-09
1.763230594e-12
2.196326934e-09
8.470566127e-10
2.728780675e-12
1.596519526e-09
-7.363718588e-13
5.375743126e-12
2.505269346e-09
7.880406516e-12
3.215802485e-09
9.45170863e-12
3.675501354e-09
9.510577383e-12
3.839302215e-09
7.877426555e-12
3.668856514e-09
4.92711567e-12
3.131558643e-09
1.704950874e-12
2.199549136e-09
8.487615584e-10
2.621320642e-12
1.594605473e-09
-7.072685006e-13
5.164983849e-12
2.50272567e-09
7.572867597e-12
3.213394619e-09
9.083742574e-12
3.67399051e-09
9.139679387e-12
3.83924629e-09
7.567074469e-12
3.670429067e-09
4.729528112e-12
3.134396179e-09
1.635038051e-12
2.202643621e-09
8.503966034e-10
2.505718602e-12
1.592775856e-09
-6.761102597e-13
4.936438088e-12
2.500294908e-09
7.235443336e-12
3.211095622e-09
8.673458608e-12
3.672552493e-09
8.718435408e-12
3.839201332e-09
7.209967981e-12
3.671937565e-09
4.500675548e-12
3.137105447e-09
1.554051242e-12
2.205590212e-09
8.519506663e-10
2.378319855e-12
1.591039442e-09
-6.419176536e-13
4.682622236e-12
2.497990591e-09
6.857299742e-12
3.208920935e-09
8.211166574e-12
3.671198595e-09
8.243101331e-12
3.839169397e-09
6.807972316e-12
3.673372748e-09
4.243880824e-12
3.139669533e-09
1.462998146e-12
2.208371077e-09
8.534136495e-10
2.237039702e-12
1.58940639e-09
-6.039998766e-13
4.401322478e-12
2.495826347e-09
6.439019079e-12
3.206883236e-09
7.701818156e-12
3.669935774e-09
7.722219669e-12
3.839148964e-09
6.368272677e-12
3.674726698e-09
3.962781747e-12
3.142075048e-09
1.363024236e-12
2.210970834e-09
8.547766316e-10
2.084418052e-12
1.58788497e-09
-5.630079462e-13
4.098367533e-12
2.493812446e-09
5.990243285e-12
3.204991392e-09
7.156002264e-12
3.668770053e-09
7.163608844e-12
3.839141318e-09
5.89620918e-12
3.675994049e-09
3.660533006e-12
3.144310757e-09
1.255242698e-12
2.213376114e-09
8.56031847e-10
1.923518671e-12
1.586481265e-09
-5.198187055e-13
3.778713233e-12
2.491957246e-09
5.516295741e-12
3.203253861e-09
6.57923373e-12
3.667707204e-09
6.573022924e-12
3.839147519e-09
5.396960491e-12
3.677170078e-09
3.340722774e-12
3.146367021e-09
1.141080832e-12
2.215575729e-09
8.571729574e-10
1.755824136e-12
1.585200245e-09
-4.747958498e-13
3.445572271e-12
2.490267454e-09
5.02231999e-12
3.20167714e-09
5.978170901e-12
3.666751415e-09
5.957834629e-12
3.839167891e-09
4.87727993e-12
3.67825067e-09
3.008078357e-12
3.148236243e-09
1.022437426e-12
2.217561359e-09
8.58195473e-10
1.583338875e-12
1.584045393e-09
-4.284676697e-13
3.103134395e-12
2.488747661e-09
4.51486179e-12
3.200265401e-09
5.361274222e-12
3.665904992e-09
5.327264256e-12
3.839201966e-09
4.345466926e-12
3.679232559e-09
2.668322323e-12
3.149913417e-09
9.015419218e-13
2.219328168e-09
8.590970965e-10
1.408547761e-12
1.583018359e-09
-3.814929249e-13
2.75645661e-12
2.487399836e-09
4.001781844e-12
3.199020063e-09
4.738615601e-12
3.66516812e-09
4.692104175e-12
3.839248548e-09
3.811077258e-12
3.680113688e-09
2.327886956e-12
3.151396635e-09
7.808174151e-13
2.220875302e-09
8.598779636e-10
1.23435581e-12
1.582118681e-09
-3.346595974e-13
2.411311869e-12
2.486222972e-09
3.491887971e-12
3.197939513e-09
4.121238978e-12
3.66453878e-09
4.063986468e-12
3.839305857e-09
3.284227583e-12
3.680893522e-09
1.993447737e-12
3.15268744e-09
6.627156539e-13
2.222206119e-09
8.605406992e-10
1.063810034e-12
1.58134367e-09
-2.887840452e-13
2.073794912e-12
2.485213006e-09
2.994293779e-12
3.197019076e-09
3.520326531e-12
3.664012826e-09
3.454503964e-12
3.839371721e-09
2.774839514e-12
3.68157324e-09
1.671428022e-12
3.153790885e-09
5.495537569e-13
2.223328087e-09
8.610902772e-10
8.998440893e-13
1.580688475e-09
-2.446389315e-13
1.749831124e-12
2.484362976e-09
2.517725753e-12
3.196251242e-09
2.946402214e-12
3.663584236e-09
2.874386893e-12
3.83944377e-09
2.291925262e-12
3.682155764e-09
1.367546913e-12
3.154715323e-09
4.433673705e-13
2.224252368e-09
8.615336904e-10
7.450887776e-13
1.580146303e-09
-2.029183137e-13
1.444682774e-12
2.483663375e-09
2.069867397e-12
3.195626094e-09
2.408643337e-12
3.663245502e-09
2.332816585e-12
3.839519633e-09
1.843022163e-12
3.682645636e-09
1.086480188e-12
3.155471964e-09
3.457832872e-13
2.224993169e-09
8.61879513e-10
6.0174674e-13
1.579708769e-09
-1.642221904e-13
1.162591095e-12
2.4831026e-09
1.656879681e-12
3.195131832e-09
1.914329789e-12
3.662988054e-09
1.836923718e-12
3.83959708e-09
1.433833606e-12
3.683048791e-09
8.316424572e-13
3.156074267e-09
2.579271426e-13
2.22556696e-09