/*--------------------------------*- C++ -*----------------------------------*\
| =========                 |                                                 |
| \\      /  F ield         | OpenFOAM: The Open Source CFD Toolbox           |
|  \\    /   O peration     | Version:  2212                                  |
|   \\  /    A nd           | Website:  www.openfoam.com                      |
|    \\/     M anipulation  |                                                 |
\*---------------------------------------------------------------------------*/
FoamFile
{
    version     2.0;
    format      ascii;
    arch        "LSB;label=32;scalar=64";
    class       volScalarField;
    location    "30.00000000";
    object      Qdot;
}
// * * * * * * * * * * * * * * * * * * * * * * * * * * * * * * * * * * * * * //

dimensions      [1 -1 -3 0 0 0 0];

internalField   nonuniform List<scalar> 
3000
(
-4.65610846e-15
-4.658610554e-15
-4.659941608e-15
-4.655915492e-15
-4.637984944e-15
-4.588111458e-15
-4.46715325e-15
-4.18909986e-15
-3.566769237e-15
-4.819087667e-15
-4.837465645e-15
-4.859736914e-15
-4.877931463e-15
-4.878889655e-15
-4.841547324e-15
-4.733821613e-15
-4.511447958e-15
-4.121778645e-15
-5.155061696e-15
-5.222397775e-15
-5.319589863e-15
-5.441412944e-15
-5.580962332e-15
-5.728656765e-15
-5.8690429e-15
-5.971570392e-15
-5.946083758e-15
-5.784743726e-15
-5.962051338e-15
-6.232805047e-15
-6.602795652e-15
-7.080987877e-15
-7.674161009e-15
-8.369813447e-15
-9.090213182e-15
-9.568278547e-15
-6.903758969e-15
-7.297160902e-15
-7.913205219e-15
-8.781585711e-15
-9.940062729e-15
-1.141451013e-14
-1.316549064e-14
-1.497365483e-14
-1.62374869e-14
-8.838438872e-15
-9.631190271e-15
-1.08912303e-14
-1.269535168e-14
-1.5131759e-14
-1.82460427e-14
-2.191715695e-14
-2.563532728e-14
-2.822378069e-14
-1.214921995e-14
-1.366086849e-14
-1.608846977e-14
-1.959739599e-14
-2.436235861e-14
-3.044466619e-14
-3.754430155e-14
-4.461412206e-14
-4.95328125e-14
-1.780019975e-14
-2.058818234e-14
-2.509983427e-14
-3.16624433e-14
-4.05983872e-14
-5.197417598e-14
-6.514052921e-14
-7.808897473e-14
-8.707235959e-14
-2.745669226e-14
-3.249390617e-14
-4.069184734e-14
-5.266787908e-14
-6.89960501e-14
-8.972595929e-14
-1.135627789e-13
-1.36804612e-13
-1.529049451e-13
-4.399487812e-14
-5.29760722e-14
-6.76540906e-14
-8.915946602e-14
-1.184963013e-13
-1.556555262e-13
-1.981812e-13
-2.394072737e-13
-2.67961592e-13
-7.238708263e-14
-8.826054481e-14
-1.142807878e-13
-1.524776255e-13
-2.045895437e-13
-2.704694149e-13
-3.456044371e-13
-4.181708138e-13
-4.684888747e-13
-1.212342189e-13
-1.491238213e-13
-1.949374741e-13
-2.622693968e-13
-3.541056207e-13
-4.700003166e-13
-6.018209312e-13
-7.288353171e-13
-8.171593915e-13
-2.054285485e-13
-2.542416321e-13
-3.345436437e-13
-4.526395525e-13
-6.136147087e-13
-8.163534929e-13
-1.046283279e-12
-1.267425169e-12
-1.422480813e-12
-3.50779704e-13
-4.360241998e-13
-5.764284478e-13
-7.830266682e-13
-1.064450387e-12
-1.417982263e-12
-1.816820678e-12
-2.197908151e-12
-2.473804345e-12
-6.02029527e-13
-7.507428714e-13
-9.960264077e-13
-1.357390072e-12
-1.849929069e-12
-2.467821954e-12
-3.158348306e-12
-3.785875273e-12
-4.310864987e-12
-1.0366552e-12
-1.295882847e-12
-1.724149429e-12
-2.356539256e-12
-3.221861262e-12
-4.316984185e-12
-5.571595303e-12
-6.817453688e-12
-7.609794015e-12
-1.788656576e-12
-2.239806244e-12
-2.98583051e-12
-4.088314366e-12
-5.597321491e-12
-7.504567286e-12
-9.674480494e-12
-1.177137071e-11
-1.321474349e-11
-3.090109355e-12
-3.874213206e-12
-5.171457364e-12
-7.089060062e-12
-9.713239938e-12
-1.302692513e-11
-1.679015983e-11
-2.042872939e-11
-2.294527638e-11
-5.343305593e-12
-6.705049204e-12
-8.958824257e-12
-1.229127373e-11
-1.685195663e-11
-2.261032192e-11
-2.914903729e-11
-3.54852786e-11
-3.985755953e-11
-9.245839627e-12
-1.160994597e-11
-1.552411688e-11
-2.131351213e-11
-2.923861551e-11
-3.924669449e-11
-5.061308921e-11
-6.164684429e-11
-6.924103307e-11
-1.600772874e-11
-2.011153418e-11
-2.690841281e-11
-3.696501491e-11
-5.073561701e-11
-6.81299342e-11
-8.788950407e-11
-1.070888415e-10
-1.20277668e-10
-2.772869659e-11
-3.485255569e-11
-4.665521526e-11
-6.412430769e-11
-8.805257104e-11
-1.182860512e-10
-1.526391511e-10
-1.860078054e-10
-2.08910482e-10
-4.805444995e-11
-6.04226788e-11
-8.092062861e-11
-1.112703313e-10
-1.528565163e-10
-2.054184202e-10
-2.651605036e-10
-3.230537139e-10
-3.628206857e-10
-8.331972993e-11
-1.047994126e-10
-1.404097344e-10
-1.931560405e-10
-2.654618571e-10
-3.568914258e-10
-4.608551424e-10
-5.610261867e-10
-6.300663134e-10
-1.44542858e-10
-1.818645127e-10
-2.437624247e-10
-3.354908634e-10
-4.613060582e-10
-6.204987413e-10
-8.016374804e-10
-9.761487167e-10
-1.094722263e-09
-2.509143675e-10
-3.158105114e-10
-4.23493057e-10
-5.83175523e-10
-8.023745614e-10
-1.079990883e-09
-1.396220129e-09
-1.70123238e-09
-1.908751793e-09
-4.359206265e-10
-5.488889429e-10
-7.364618778e-10
-1.014871671e-09
-1.397507908e-09
-1.882830102e-09
-2.436607735e-09
-2.971790549e-09
-3.336830897e-09
-7.581426348e-10
-9.551075152e-10
-1.282453903e-09
-1.768978134e-09
-2.438829689e-09
-3.290350274e-09
-4.2646153e-09
-5.20922251e-09
-5.856518711e-09
-1.320406121e-09
-1.664597251e-09
-2.237390332e-09
-3.090370948e-09
-4.267837446e-09
-5.769654705e-09
-7.410311459e-09
-9.282478742e-09
-1.044383504e-08
-2.30399426e-09
-2.907327071e-09
-3.913282867e-09
-5.415485784e-09
-7.412212073e-09
-1.027065382e-08
-1.335418811e-08
-1.638239522e-08
-1.841529031e-08
-4.03032832e-09
-5.092326445e-09
-6.78298342e-09
-9.635260689e-09
-1.334267542e-08
-1.81266771e-08
-1.550090791e-07
-1.607369404e-07
1.310327441e-07
-6.988644533e-09
-8.868249391e-09
-1.221263606e-08
-1.696563332e-08
-1.549392504e-07
1.318991864e-07
1.21659502e-07
1.112352713e-07
1.037883405e-07
-1.257332134e-08
-1.592341972e-08
-1.528771836e-07
-1.616405942e-07
1.219319173e-07
1.059112754e-07
-4.473199501e-08
2.312119363e-07
8.490598724e-08
-1.5350732e-07
-1.59721793e-07
1.257708914e-07
1.100124763e-07
-4.383059961e-08
9.027459222e-08
5.349559686e-08
1.791817405e-07
1.781802559e-08
1.246764794e-07
1.136219727e-07
-3.651279349e-08
2.300949227e-07
5.640984519e-08
3.168806706e-08
1.240997534e-07
3.751951476e-07
3.450572122e-07
-3.839862035e-08
-5.866194522e-08
7.064249206e-08
1.800063847e-07
1.318591531e-07
2.16325876e-07
2.69573524e-07
4.714482397e-07
5.327240627e-07
6.742373229e-08
1.938617726e-07
1.607637975e-07
8.831022833e-08
2.90891055e-07
5.907554288e-07
5.584173783e-07
9.435355749e-07
7.752531669e-07
1.552190968e-07
2.47690966e-07
3.175654792e-07
3.413198208e-07
4.505355098e-07
9.078406701e-07
1.272827858e-06
1.562488791e-06
2.036609438e-06
1.771416564e-07
2.350003129e-07
3.79274324e-07
7.217973816e-07
1.057360112e-06
1.732898693e-06
2.46538994e-06
3.41673084e-06
4.108389871e-06
6.596815774e-07
6.47216826e-07
9.342675354e-07
1.30494771e-06
2.182341521e-06
3.360301455e-06
4.985191394e-06
7.230641531e-06
9.062102667e-06
7.765245213e-07
1.173758117e-06
2.020482931e-06
3.011814815e-06
4.58884974e-06
6.958700256e-06
1.080764119e-05
1.531793596e-05
2.004002725e-05
1.84030614e-06
2.628352574e-06
3.829403502e-06
5.993008453e-06
9.422448146e-06
1.496011099e-05
2.31857369e-05
3.354399699e-05
4.42552784e-05
3.62770184e-06
5.257863007e-06
7.800977075e-06
1.246734237e-05
2.025872622e-05
3.258808793e-05
5.064570345e-05
7.367604488e-05
9.77171759e-05
7.936559077e-06
1.070458851e-05
1.663604752e-05
2.661656685e-05
4.384821408e-05
7.122676724e-05
0.0001111382548
0.0001620274028
0.0002148909142
1.677932607e-05
2.329581598e-05
3.578869184e-05
5.806304682e-05
9.592051492e-05
0.0001560740661
0.0002430333881
0.0003530252226
0.0004665237694
3.701445038e-05
5.144439487e-05
7.884343094e-05
0.0001282666138
0.0002116799364
0.0003428059552
0.0005292056113
0.0007609994388
0.0009974662579
8.308171083e-05
0.0001149423176
0.0001765257037
0.0002860407395
0.0004687272229
0.0007505659535
0.001142726073
0.001619390264
0.002097663862
0.0001889223751
0.000261162731
0.0003991820028
0.0006417584087
0.001039249072
0.001638063927
0.002449380572
0.003409472378
0.00435625717
0.0004348701048
0.0005984338014
0.000908418952
0.001444084302
0.00230361255
0.003566797215
0.005232586954
0.007156586691
0.009033428194
0.001005473897
0.001374746
0.002067129305
0.003245290558
0.005099726444
0.007769899362
0.01122949213
0.01519181785
0.01902150703
0.002312885221
0.003140436698
0.004674966542
0.007253561724
0.01126301104
0.01699860892
0.02448438554
0.03302641276
0.04138725272
0.005245510677
0.007072022847
0.01043357956
0.01604694201
0.02478459428
0.03751562013
0.05422041423
0.07435877665
0.09578330766
0.01163258796
0.01558823424
0.02284857713
0.03502209022
0.05437072234
0.08261761611
0.1222361083
0.1743197973
0.2348838111
0.02511178851
0.03352458165
0.0490453115
0.07540329969
0.1171962735
0.1819726576
0.2790960952
0.4168513986
0.588028074
0.0529058524
0.07067950779
0.1033400647
0.1589347737
0.2509572714
0.4001014492
0.6348955471
0.979653126
1.415151888
0.1096967937
0.1463496616
0.214734762
0.3340610327
0.5369924999
0.8744024839
1.408475383
2.170510285
3.091766053
0.2266592662
0.3040919611
0.4501222984
0.7085407983
1.15197951
1.879702248
2.972052598
4.396417776
5.998865298
0.480096197
0.6471306806
0.963006258
1.519425415
2.449742408
3.881123044
5.815381786
8.093313903
10.61745927
1.053149669
1.414575527
2.086991212
3.22846406
5.005674986
7.460267066
10.4425887
13.86025508
17.93024495
2.34901941
3.096560461
4.428601523
6.529676913
9.480503696
13.17109534
17.52903057
22.84848303
29.73154883
5.075803168
6.460966174
8.774294185
12.11793153
16.45165318
21.75675296
28.37097693
37.07689899
48.82565778
10.0536843
12.26467424
15.75299799
20.55117502
26.72956205
34.65972466
45.20989996
59.65527344
79.23947251
17.78955987
20.95891628
25.88373129
32.7251208
41.90555338
54.32873832
71.44290726
95.00701483
126.4862011
28.65516809
33.13765892
40.22517967
50.39840424
64.60849367
84.38471305
111.8156038
149.1364555
197.7916648
43.63196808
50.18556115
60.77173218
76.37746629
98.60106605
129.7556731
172.6430767
229.8221073
302.246574
64.6555468
74.48305086
90.56234225
114.5310642
148.8712726
196.8289405
261.9089675
346.6810267
450.8157951
94.70574842
109.4358708
133.6696831
169.9155223
221.7442157
293.4681778
389.2054943
511.0236619
656.117295
137.8501209
159.6041033
195.4192749
248.8916625
324.895118
428.9086298
565.4790573
735.4474955
931.9025562
199.552755
230.9565771
282.5450214
359.208419
467.3125116
613.5506786
802.6155394
1033.205769
1292.274543
286.9112622
331.081066
403.3512451
510.0737882
659.2385884
858.725498
1112.992836
1417.539903
1750.868156
408.8657919
469.3592472
567.8338169
712.201173
912.1206577
1176.537487
1509.217122
1901.348988
2320.63082
576.295877
657.0354482
787.7126315
977.8075629
1238.594494
1579.879144
2004.250114
2497.626384
3015.21499
801.9524902
907.1349385
1076.345962
1320.557344
1652.525645
2082.756304
2612.126529
3221.959681
3853.013278
1100.237953
1234.258782
1448.57384
1755.51916
2169.269683
2700.537588
3350.794014
4094.112584
4846.592731
1486.956115
1654.394842
1920.649791
2299.413126
2805.843254
3454.392836
4241.874543
5128.924492
6009.296637
1979.366362
2185.097985
2510.641312
2970.752767
3586.709741
4366.652137
5302.49413
6345.879553
7366.20323
2596.247652
2845.673905
3241.070095
3798.092157
4533.534204
5456.850071
6554.962186
7767.094729
8935.761902
3363.257491
3664.892919
4138.412579
4800.422371
5670.306743
6751.079025
8022.955732
9414.817869
10737.88506
4305.700725
4664.237713
5224.463663
6005.165707
7018.782274
8270.35899
9729.451408
11308.2639
12787.36394
5448.093757
5870.066779
6526.471005
7435.426828
8606.745061
10039.68915
11692.7281
13459.3556
15089.30929
6819.516161
7311.243953
8074.449671
9119.45744
10457.17921
12074.353
13922.47272
15868.32806
17634.78177
8450.037355
9016.882878
9889.609798
11079.99513
12586.29822
14386.23091
16415.19292
18519.80295
20397.60198
10367.21285
11011.91765
11998.34772
13329.3717
14997.43288
16966.89413
19151.34362
21380.70862
23333.54451
12591.68105
13313.03511
14408.86721
15872.84925
17684.65854
19792.79322
22093.55835
24401.00229
26383.19846
15131.65641
15923.21037
17116.18317
18692.65673
20617.56387
22822.81312
25189.11367
27519.66417
29449.44848
17977.34473
18826.55595
20095.60197
21753.41302
23749.62453
26001.20922
28367.39853
30606.02507
32042.08642
21096.80308
21985.13842
23301.17783
25000.68105
27019.98656
29238.84272
31322.65668
33058.14658
34384.05835
24435.63353
25340.263
26669.75565
28350.41325
30276.93813
32019.31207
33764.64695
35340.56058
36508.56431
27909.90569
28793.3029
30029.73719
31353.71542
32861.49158
34452.71375
36003.81745
37368.37215
38350.32671
31068.72864
31752.2794
32729.61346
33931.21249
35269.31866
36645.57765
37952.73849
39072.32621
39853.12544
33786.68795
34392.97418
35246.76451
36274.75776
37392.74574
38512.03932
39544.67209
40402.36413
40979.31232
36265.44038
36767.96692
37464.14174
38283.53575
39149.86248
39988.67775
40733.90634
41328.15394
41709.6719
38390.96146
38773.01139
39291.11174
39882.45384
40482.75262
41034.9308
41496.11138
41838.94669
42042.67221
40078.58899
40332.26241
40664.16528
41022.64097
41358.37878
41633.39647
41827.91893
41942.45968
41992.86151
41273.72708
41399.26018
41548.10813
41682.09985
41768.56104
41788.9598
41745.27577
41662.68238
41588.43004
41952.70105
41957.4506
41936.03862
41864.89135
41728.33183
41526.41293
41280.55334
41036.75835
40868.13564
42121.70149
42018.66944
41847.21968
41598.34193
41272.57338
40886.73028
40478.71762
40111.28961
39877.90929
41813.23665
41619.28019
41322.85557
40928.52221
40451.36085
39922.46691
39392.9944
38938.42963
38667.43772
41080.48348
40814.43707
40420.3174
39914.56111
39324.5397
38692.8273
38080.55796
37572.21879
37287.06483
39990.40652
39671.39278
39206.77679
38622.76121
37956.46953
37259.09033
36598.67424
36065.41654
35785.19103
38616.82713
38262.88242
37753.06901
37121.08887
36411.25108
35680.64952
35001.53081
34467.01287
34206.28369
37034.12605
36661.25025
36128.42278
35474.63478
34748.97986
34012.04547
33337.9715
32820.53302
32589.56816
35312.30295
34933.92537
34396.50926
33742.32982
33023.15451
32301.02709
31650.11737
31163.0848
30968.33643
33513.58993
33140.39237
32612.89227
31974.93584
31279.20697
30587.56726
29972.77511
29525.04341
29369.776
31690.56846
31330.57708
30823.76709
30214.16914
29553.99382
28903.66687
28333.47446
27930.23122
27815.1966
29885.55331
29544.40596
29065.7436
28492.71732
27876.0222
27273.74176
26752.95544
26396.44111
26320.52853
28130.92138
27812.22761
27366.38026
26834.88077
26266.17479
25715.38929
25245.93268
24936.16221
24896.97975
26450.0586
26155.78997
25745.1895
25257.58951
24738.70898
24240.34896
23821.99592
23557.39919
23551.76056
24858.63413
24589.4977
24214.86382
23771.58137
23302.37291
22855.53295
22486.53917
22264.49517
22288.80604
23365.98307
23121.7552
22782.55857
22382.6043
21961.50769
21564.01862
21241.64016
21058.90269
21109.45101
21976.45072
21756.25822
21451.10733
21092.53647
20717.05986
20365.94763
20086.84833
19939.86977
20013.03138
20690.60524
20493.15156
20220.1017
19900.37169
19567.4631
19259.30201
19019.86019
18905.02648
18997.40038
19506.27485
19330.01477
19086.80522
18803.04777
18509.37436
18240.54818
18037.07789
17950.87019
18059.35815
18419.39833
18262.6679
18046.89714
17796.11735
17538.2671
17305.15411
17134.05698
17073.15537
17194.99997
17424.69804
17285.8074
17095.05746
16874.27362
16648.89462
16447.9922
16305.85532
16267.19872
16399.99159
16516.19539
16393.49228
16225.41298
16031.74983
15835.64124
15663.64435
15547.29755
15528.11176
15669.78184
15687.59363
15579.50432
15431.86691
15262.61381
15092.78054
14946.62596
14853.16976
14850.9733
14999.76272
14932.5527
14837.60629
14708.33445
14560.97768
14414.65876
14291.54497
14218.35806
14230.95336
14385.38661
14244.87919
14161.71979
14048.9045
13921.14132
13795.81982
13693.21004
13637.94315
13663.39876
13822.24904
13618.65116
13546.04177
13447.94496
13337.68505
13231.0856
13146.69982
13107.26108
13143.88891
13306.14463
13048.29429
12985.11501
12900.16581
12805.52461
12715.60287
12647.40309
12621.93855
12668.26908
12833.10197
12528.62247
12473.86522
12400.65156
12319.93844
12244.86599
12191.03769
12177.9096
12232.6669
12399.40291
12054.85316
12007.61428
11944.87176
11876.5756
11814.72228
11773.65424
11771.41887
11833.49665
12001.59008
11622.60537
11582.07719
11528.67678
11471.45013
11421.36566
11391.62957
11399.01559
11467.45506
11636.4659
11227.88616
11193.34817
11148.28347
11100.92678
11061.32246
11041.65322
11057.54139
11131.51118
11301.08582
10867.06999
10837.88021
10800.25506
10761.7012
10731.4325
10720.70972
10744.11437
10822.89268
10992.74751
10536.87396
10512.46063
10481.47731
10450.77719
10428.82764
10426.05869
10456.1109
10539.06989
10708.97764
10234.33118
10214.18513
10189.13351
10165.44284
10150.90918
10155.21392
10191.14665
10277.73887
10447.51731
9956.764075
9940.431692
9920.67929
9903.24648
9895.325436
9905.9225
9947.057491
10036.80422
10206.30688
9701.75818
9688.835051
9673.818125
9661.973515
9659.949887
9676.144658
9721.880967
9814.362254
9983.470961
9467.137317
9457.262569
9446.478125
9439.624392
9442.860605
9464.034599
9513.838682
9608.684909
9777.303694
9250.940407
9243.791683
9236.790439
9234.394133
9242.321021
9267.92264
9321.319769
9418.204489
9586.25477
9051.400176
9046.689199
9043.069371
9044.65348
9056.76223
9086.298713
9142.865589
9241.499498
9408.91625
8866.923738
8864.392412
8863.79427
8868.931708
8884.766825
8917.79726
8977.155664
9077.281529
9244.010271
8696.075036
8695.492031
8697.59312
8705.901036
8725.054214
8761.183488
8822.994825
8924.383213
9090.377661
8537.559035
8538.71679
8543.22776
8554.362565
8576.467355
8615.340898
8679.301514
8781.747201
8946.967456
8390.20754
8392.919644
8399.580593
8413.233625
8437.96078
8479.260015
8545.097166
8648.416113
8812.827275
8252.966501
8257.065399
8265.642678
8281.5364
8308.589824
8352.028208
8419.496583
8523.523383
8687.094498
8124.884653
8130.219629
8140.503039
8158.387722
8187.500923
8232.820499
8301.699217
8406.284929
8568.988205
8005.103361
8011.538767
8023.339099
8042.9899
8073.92288
8120.89127
8190.981273
8295.991584
8457.801807
7892.84752
7900.261222
7913.408084
7934.622481
7967.159009
8015.566769
8086.688548
8192.002198
8352.896311
7787.417413
7795.699408
7810.039314
7832.634838
7866.58004
7916.238336
7988.22995
8093.737376
8253.694174
7688.181395
7697.232595
7712.627265
7736.439494
7771.617717
7822.356278
7895.071598
8000.673769
8159.673685
7594.569328
7604.300471
7620.625324
7645.506097
7681.759021
7733.424314
7806.731486
7912.338879
8070.363834
7506.066661
7516.397346
7533.540155
7559.355981
7596.540929
7648.99454
7722.774614
7828.306321
7985.339629
7422.209098
7433.06692
7450.926611
7477.557249
7515.545677
7568.662863
7642.808573
7748.191515
7904.217809
7342.577783
7353.897559
7372.383132
7399.720313
7438.396459
7492.064852
7566.479526
7671.647749
7826.652942
7266.794948
7278.51802
7297.54758
7325.49386
7364.753528
7418.871968
7493.468546
7598.362599
7752.333854
7194.519968
7206.593576
7226.09346
7254.561192
7294.310652
7348.788137
7423.48829
7528.054662
7680.980371
7125.445796
7137.822512
7157.726504
7186.6369
7226.791902
7281.546639
7356.27997
7460.470585
7612.34035
7059.295724
7071.932941
7092.181559
7121.463849
7161.948727
7216.90727
7291.610597
7395.382352
7546.186973
6995.820451
7008.679921
7029.219773
7058.810444
7099.557305
7154.653779
7229.270475
7332.584827
7482.316284
6934.795418
6947.842836
6968.626038
6998.468139
7039.416129
7094.591524
7169.070925
7271.893506
7420.544941
6876.018401
6889.223021
6910.20667
6940.249188
6981.343822
7036.545351
7110.842215
7213.142488
7360.70818
6819.307315
6832.641612
6853.787302
6883.984595
6925.177156
6980.357672
7054.431682
7156.182619
7302.657962
6764.498236
6777.93759
6799.210982
6829.52226
6870.769246
6925.886712
6999.702033
7100.879822
7246.261295
6711.443596
6724.966011
6746.33644
6776.725296
6817.987924
6873.004931
6946.529794
7047.113569
7191.398705
6660.010559
6673.596408
6695.036519
6725.470509
6766.714257
6821.597586
6894.803918
6994.775513
7137.962857
6610.079541
6623.711331
6645.196763
6675.647014
6716.841214
6771.561435
6844.424516
6943.768232
7085.857311
6561.542881
6575.205044
6596.714129
6627.154993
6668.272452
6722.803561
6795.301713
6894.00411
7034.995384
6514.303625
6527.982328
6549.495826
6579.904561
6620.921221
6675.240313
6747.35461
6845.40431
6985.299134
6468.274445
6481.957412
6503.458269
6533.814748
6574.70938
6628.79634
6700.510353
6797.897857
6936.69843
6423.376645
6437.053003
6458.526131
6488.81258
6529.566496
6583.403727
6654.70328
6751.420801
6889.13012
6379.539274
6393.19941
6414.631482
6444.832242
6485.42904
6539.00121
6609.874159
6705.915463
6842.537272
6336.698324
6350.333751
6371.713024
6401.814326
6442.239653
6495.533463
6565.969488
6661.329745
6796.868477
6294.796009
6308.399248
6329.715388
6359.705156
6399.946488
6452.950451
6522.940868
6617.616504
6752.077223
6253.780115
6267.344582
6288.588511
6318.456174
6358.502611
6411.206851
6480.744421
6574.732979
6708.121307
6213.603419
6227.123326
6248.287077
6278.023386
6317.86546
6370.261514
6439.340263
6532.640253
6664.962285
6174.223184
6187.693434
6208.77001
6238.366875
6277.996357
6330.07698
6398.692017
6491.302757
6622.564951
6135.600711
6149.016811
6170.000048
6199.450367
6238.860082
6290.619047
6358.76636
6450.687799
6580.896833
6097.700972
6111.058934
6131.943373
6161.240863
6200.424491
6251.856378
6319.532619
6410.765116
6539.927683
6060.492329
6073.788582
6094.569324
6123.708347
6162.660217
6213.760175
6280.962401
6371.506457
6499.628989
6023.946354
6037.177644
6057.850215
6086.825592
6125.540453
6176.303934
6243.0293
6332.885212
6459.973485
5988.037791
6001.201086
6021.761284
6050.568096
6089.040864
6139.463311
6205.7087
6294.876117
6420.934707
5952.744691
5965.837083
5986.280827
6014.914199
6053.139676
6103.216167
6168.977738
6257.455089
6382.486642
5918.048796
5931.067402
5951.390578
5979.845459
6017.81803
6067.54287
6132.815523
6220.599312
6344.603583
5883.936236
5896.878114
5917.07643
5945.347377
5983.060695
6032.426976
6097.203734
6184.287683
6307.260326
5850.398652
5863.260738
5883.329612
5911.4106
5948.857292
5997.856439
6062.127783
6148.501853
6270.432976
5817.434864
5830.213952
5850.148457
5878.032759
5915.20419
5963.825556
6027.57876
6113.228106
6234.100632
5785.053214
5797.746011
5817.540926
5845.221117
5882.107292
5930.337883
5993.556451
6078.460413
6198.248387
5753.27476
5765.878051
5785.528069
5812.996234
5849.585938
5897.410381
5960.073722
6044.205033
6162.872081
5722.137465
5734.648436
5754.148614
5781.39686
5817.678153
5865.079078
5927.162629
6010.487081
6127.985345
5691.701545
5704.118323
5723.464851
5750.486245
5786.447487
5833.406521
5894.882563
5977.359457
6093.629443
5662.0561
5674.378584
5693.569981
5720.360058
5755.991635
5802.49124
5863.330714
5944.914497
6059.886385
5633.327131
5645.558161
5664.597014
5691.155998
5726.452961
5772.479384
5832.655041
5913.29858
6026.895636
5605.686943
5617.833904
5636.729234
5663.065129
5698.030933
5743.578525
5803.069772
5882.729738
5994.874514
5579.364875
5591.441772
5610.212141
5636.344817
5670.996342
5716.073485
5774.87323
5853.518055
5964.142041
5554.65915
5566.689201
5585.366612
5611.332977
5645.706954
5690.34376
5748.467511
5826.088261
5935.145567
5531.949492
5543.968251
5562.602857
5588.463125
5622.623998
5666.881845
5724.379157
5801.00351
5908.488887
5511.709962
5523.768936
5542.434491
5568.279492
5602.328617
5646.311392
5703.279533
5778.988757
5884.95995
5494.521269
5506.69192
5525.491844
5551.45113
5585.537024
5629.40373
5686.003139
5760.95156
5865.555404
5481.081541
5493.459509
5512.533258
5538.78364
5573.112763
5617.090797
5673.561485
5747.99741
5851.498418
5472.214272
5484.923552
5504.452889
5531.226777
5566.07402
5610.472077
5667.14962
5741.436005
5844.245275
5468.871902
5482.06856
5502.2831
5529.875796
5565.593527
5610.812603
5668.14176
5742.774143
5845.475403
5472.133155
5486.008096
5507.189297
5535.964049
5572.988121
5619.528573
5678.071979
5753.690348
5857.05881
5483.19197
5497.972067
5520.454639
5550.843996
5589.694764
5638.156858
5698.59544
5775.985901
5880.994547
5503.33558
5519.282364
5543.451791
5575.953468
5617.229425
5668.304328
5731.42563
5811.506957
5919.314005
5533.909062
5551.314005
5577.598717
5612.763882
5657.125219
5711.573012
5778.243201
5862.033053
5973.943859
5576.263567
5595.43889
5624.295401
5662.70716
5710.846356
5769.45754
5840.572833
5929.128536
6046.52559
5631.68543
5652.949305
5684.838644
5727.07843
5779.675108
5843.212347
5919.626192
6013.955932
6138.191975
5701.303694
5724.958752
5760.312572
5806.912465
5864.570205
5933.687904
6016.1116
6117.05391
6249.306064
5785.974233
5812.278493
5851.453669
5902.833268
5965.997161
6041.138119
6130.014938
6238.087681
6379.174886
5886.13999
5915.269757
5958.490992
6014.878702
6083.734192
6165.005115
6260.361538
6375.586296
6525.758492
6001.668988
6033.673972
6080.96519
6142.305602
6216.661828
6303.693134
6404.975551
6526.689342
6685.404223
6131.675021
6166.427065
6217.534133
6283.385791
6362.550196
6454.350111
6560.261033
6686.934062
6852.645264
6274.330486
6311.468764
6365.778469
6435.209655
6517.864908
6612.68314
6721.037023
6850.121866
7020.109714
6426.686648
6465.564072
6522.027122
6593.521062
6677.619991
6772.841423
6880.465565
7008.308284
7178.588981
6584.523351
6624.160959
6681.229778
6752.61441
6835.312776
6927.40563
7030.114738
7151.960039
7317.309235
6742.256828
6781.314832
6836.909472
6905.329804
6982.97923
7067.523449
7160.195604
7270.314282
7424.434121
6892.939222
6929.714592
6981.231484
7043.183384
7111.406317
7183.225121
7260.00096
7351.93971
7487.757488
7028.384386
7060.844783
7105.222205
7156.664142
7210.52822
7263.919182
7318.508169
7385.566604
7495.825216
7139.449138
7165.311036
7199.161615
7235.692521
7269.966271
7299.137227
7325.394147
7361.131381
7438.876904
7216.462481
7233.302863
7253.100729
7270.330499
7279.970677
7279.470199
7271.802799
7270.604629
7309.878392
7249.914704
7255.399054
7257.813023
7251.644044
7232.116063
7197.32143
7151.302227
7109.003408
7105.47972
7231.255897
7223.274234
7205.384781
7172.409686
7120.194892
7047.85273
6960.766722
6875.194986
6826.716337
7153.562294
7130.461033
7090.097486
7027.998668
6941.044498
6829.748718
6701.070849
6572.511529
6479.468596
7012.369702
6973.15546
6909.184369
6817.082646
6695.182554
6545.766033
6377.544896
6203.920324
6062.360762
6806.344905
6750.85649
6663.413656
6542.138487
6387.191669
6199.263246
5986.919276
5770.573302
5590.788597
6537.798186
6466.841158
6357.477753
6206.928237
6016.05259
5788.707633
5543.330559
5299.840376
5091.781951
6210.973942
6123.248456
5989.725153
5808.799098
5588.961828
5338.785795
5071.953986
4808.530739
4579.712033
5822.465113
5720.703351
5568.73252
5370.68508
5133.267756
4866.77252
4585.848113
4310.316389
4068.774332
5393.56369
5283.330598
5120.200948
4910.03307
4661.217865
4385.448317
4098.013544
3818.989389
3571.870417
4941.897827
4826.025023
4655.932619
4439.031275
4185.190693
3907.185536
3620.617847
3344.544546
3100.020539
4479.199285
4360.612353
4187.809083
3969.510692
3716.761332
3443.059211
3163.979043
2896.778222
2661.541044
4016.897346
3898.418964
3726.933379
3512.17528
3266.010283
3002.279495
2736.177032
2483.635844
2261.972825
3565.38387
3449.569028
3282.983326
3076.050173
2841.090726
2591.923203
2343.061952
2108.97709
1904.424349
3133.476607
3022.495907
2863.794743
2668.158022
2448.009495
2216.814895
1988.169485
1775.013245
1589.481075
2728.105349
2623.676031
2475.163156
2293.404626
2090.610093
1879.623568
1672.964287
1482.428503
1319.433284
2354.201882
2257.560674
2120.834857
1954.643923
1770.726317
1581.132945
1398.560244
1232.423887
1088.010908
2014.760293
1926.676475
1802.667474
1652.918674
1488.635787
1322.646315
1163.083854
1016.283339
893.0862015
1711.044189
1631.88273
1520.970705
1389.161133
1245.828692
1098.416579
959.9238402
835.2454052
729.7924302
1443.516116
1374.153161
1277.384693
1161.920837
1034.840694
909.0715679
790.0414585
683.6900433
594.3657056
1212.493115
1151.691394
1065.123107
964.893608
857.0271187
749.1830894
647.8398662
557.9439231
482.9608905
1011.180189
958.4759322
885.4994267
799.2831213
707.0196929
615.3516466
529.7795067
454.3907036
391.9520726
841.1017132
795.8104354
733.3061646
659.7798732
581.5038869
504.1773507
432.4458268
369.6639069
318.0097005
697.1084115
658.5061678
605.3929644
543.1604705
477.2158469
412.4283154
352.6738947
300.6852192
258.1796375
576.1285314
543.4622737
498.6336501
446.3017288
391.0960198
337.1195983
287.5936925
244.7381545
209.9051651
475.1461301
447.6726749
410.0682026
366.3110471
320.328824
275.5645225
234.6813605
199.4771435
171.0156018
391.3375753
368.3542595
336.9638723
300.5423173
262.3994385
225.408255
191.761693
162.9125881
139.7028443
322.1021864
302.9566808
276.857688
246.6515892
215.1119097
184.6248478
156.9914176
133.3874464
114.4759323
265.1118645
249.2169548
227.5846144
202.6018604
176.5813017
151.4997265
128.833704
109.5320835
94.11915886
218.3269788
205.1641261
187.274486
166.6503912
145.2157216
124.601631
106.0158587
90.22504224
77.6435604
179.9894812
169.1076969
154.3352239
137.3302877
119.685732
102.7449263
87.49372115
74.54823623
64.37047744
148.6061981
139.6202646
127.431979
113.4168476
98.8910591
84.95794773
72.41927769
61.90502476
53.55317641
122.9246069
115.5069193
105.451791
93.89741388
81.92854729
70.44846404
60.24091876
51.58801568
44.68728706
101.9009015
95.77595543
87.4755305
77.93925774
68.05925736
58.70544378
50.282838
43.12997378
37.40380813
84.67210104
79.60894561
72.74579812
64.8870274
56.81982349
49.07732259
42.10940785
36.17908437
31.39933925
70.5250919
66.33076329
60.71407038
54.25986568
47.57375398
41.16350821
35.38713229
30.4461938
26.44830676
58.95102548
55.51338959
50.85326022
45.50203614
39.96265737
34.64742638
29.83943085
25.70840335
22.36630678
49.43453901
46.58178633
42.7179801
38.28234244
33.68748
29.2651171
25.24631624
21.78885305
18.95497991
41.57258381
39.2067277
36.00249634
32.32131731
28.4983362
24.80348155
21.44261569
18.49655372
16.09250715
35.07362974
33.1103322
30.44914978
27.38522203
24.19377303
21.10649774
18.23891146
15.71770432
13.68640339
29.69219547