/*--------------------------------*- C++ -*----------------------------------*\
| =========                 |                                                 |
| \\      /  F ield         | OpenFOAM: The Open Source CFD Toolbox           |
|  \\    /   O peration     | Version:  2212                                  |
|   \\  /    A nd           | Website:  www.openfoam.com                      |
|    \\/     M anipulation  |                                                 |
\*---------------------------------------------------------------------------*/
FoamFile
{
    version     2.0;
    format      ascii;
    arch        "LSB;label=32;scalar=64";
    class       volScalarField;
    location    "30.00000000";
    object      SC3H5;
}
// * * * * * * * * * * * * * * * * * * * * * * * * * * * * * * * * * * * * * //

dimensions      [0 0 0 0 0 0 0];

internalField   nonuniform List<scalar> 
3000
(
1.026629867e-22
1.15349538e-22
1.344948357e-22
1.600099975e-22
1.916372664e-22
2.285191345e-22
2.684342125e-22
3.065251498e-22
3.334588893e-22
3.855224977e-22
4.349158068e-22
5.094239967e-22
6.089427176e-22
7.333793632e-22
8.820529785e-22
1.052378181e-21
1.235793556e-21
1.398210227e-21
8.639007519e-22
9.822683741e-22
1.162527678e-21
1.407306053e-21
1.721018491e-21
2.108234666e-21
2.567409864e-21
3.07280168e-21
3.504589378e-21
1.646417586e-21
1.891671457e-21
2.270649068e-21
2.796220894e-21
3.487053623e-21
4.360753681e-21
5.412555442e-21
6.558366888e-21
7.483154808e-21
2.925775732e-21
3.402996086e-21
4.152047713e-21
5.211102762e-21
6.630102003e-21
8.44896453e-21
1.063736301e-20
1.296179075e-20
1.474630907e-20
5.035608009e-21
5.932173899e-21
7.359655917e-21
9.409448907e-21
1.21912267e-20
1.577537188e-20
2.005507975e-20
2.449085247e-20
2.777318328e-20
8.557703763e-21
1.020644173e-20
1.286215887e-20
1.671880185e-20
2.199185241e-20
2.87869503e-20
3.682363737e-20
4.499105658e-20
5.088567362e-20
1.449965986e-20
1.748694857e-20
2.234159473e-20
2.944615661e-20
3.919826511e-20
5.173983789e-20
6.644278768e-20
8.116732305e-20
9.161693388e-20
2.460972641e-20
2.996503596e-20
3.872403234e-20
5.160689233e-20
6.932123704e-20
9.203952199e-20
1.184801064e-19
1.446830187e-19
1.630723622e-19
4.191864454e-20
5.14425899e-20
6.708975198e-20
9.017558566e-20
1.219344448e-19
1.625519042e-19
2.095568198e-19
2.557940781e-19
2.880005855e-19
7.168389851e-20
8.851897553e-20
1.162610986e-19
1.572647902e-19
2.136578392e-19
2.855961007e-19
3.684825723e-19
4.495905841e-19
5.058102424e-19
1.230286928e-19
1.526512271e-19
2.015594103e-19
2.739085328e-19
3.733346803e-19
4.998574018e-19
6.45111558e-19
7.867302988e-19
8.846692094e-19
2.117966175e-19
2.637498254e-19
3.49629424e-19
4.767002772e-19
6.511242752e-19
8.724887438e-19
1.125679708e-18
1.371802843e-18
1.54265282e-18
3.65522001e-19
4.56457476e-19
6.069090514e-19
8.295471146e-19
1.134780484e-18
1.520924211e-18
1.959952458e-18
2.383556694e-18
2.685900142e-18
6.320589849e-19
7.910663633e-19
1.054420904e-18
1.444434464e-18
1.979172288e-18
2.654326463e-18
3.414297308e-18
4.111772008e-18
4.684396256e-18
1.094471244e-18
1.372261215e-18
1.832953434e-18
2.516477697e-18
3.456804442e-18
4.653725361e-18
6.033511957e-18
7.412429033e-18
8.274600045e-18
1.896735788e-18
2.381213109e-18
3.185167439e-18
4.378464201e-18
6.019802439e-18
8.105250967e-18
1.049156392e-17
1.280554606e-17
1.437672392e-17
3.288704036e-18
4.132396344e-18
5.532725746e-18
7.611000232e-18
1.046782415e-17
1.409265224e-17
1.823087639e-17
2.223392245e-17
2.497431795e-17
5.704260903e-18
7.172169096e-18
9.608812982e-18
1.322482064e-17
1.819381923e-17
2.449523595e-17
3.168484588e-17
3.863752275e-17
4.340050138e-17
9.896984279e-18
1.244965656e-17
1.668737602e-17
2.297616319e-17
3.161687886e-17
4.257210344e-17
5.506837659e-17
6.71504007e-17
7.542629969e-17
1.717575774e-17
2.161351659e-17
2.89813746e-17
3.991555262e-17
5.49380497e-17
7.39818932e-17
9.570066967e-17
1.166952799e-16
1.3107345e-16
2.981418957e-17
3.752768626e-17
5.033508164e-17
6.934213294e-17
9.545472802e-17
1.285536088e-16
1.66295512e-16
2.027722176e-16
2.277496377e-16
5.176218592e-17
6.516780449e-17
8.742741528e-17
1.204623533e-16
1.658445681e-16
2.233622045e-16
2.889380181e-16
3.523046861e-16
3.956905154e-16
8.988271038e-17
1.131792479e-16
1.518632787e-16
2.092722931e-16
2.88133406e-16
3.880706579e-16
5.019910595e-16
6.120572905e-16
6.874087069e-16
1.56101383e-16
1.965850728e-16
2.63807939e-16
3.635652426e-16
5.005861066e-16
6.742032018e-16
8.72080331e-16
1.063232233e-15
1.194083056e-15
2.711418327e-16
3.414911345e-16
4.583006254e-16
6.31628338e-16
8.696688767e-16
1.17123285e-15
1.51486568e-15
1.846754374e-15
2.073914446e-15
4.710161474e-16
5.932610186e-16
7.962217861e-16
1.097343488e-15
1.510810001e-15
2.03448475e-15
2.631047096e-15
3.207061576e-15
3.601222239e-15
8.182992891e-16
1.030715797e-15
1.383337925e-15
1.906395098e-15
2.624397382e-15
3.533467355e-15
4.568665196e-15
5.567818195e-15
6.251298741e-15
1.421695043e-15
1.79077175e-15
2.403331194e-15
3.311689993e-15
4.558102981e-15
6.135439035e-15
7.930648608e-15
9.662394501e-15
1.08464309e-14
2.469956173e-15
3.111142062e-15
4.17501128e-15
5.75195108e-15
7.914574825e-15
1.064954785e-14
1.375994479e-14
1.675804377e-14
1.880645987e-14
4.290596294e-15
5.404218688e-15
7.251219508e-15
9.987399154e-15
1.373699601e-14
1.847460771e-14
2.385693716e-14
2.903930741e-14
3.257652923e-14
7.45129479e-15
9.384597362e-15
1.258934083e-14
1.733324469e-14
2.382762996e-14
3.202317697e-14
4.132090847e-14
5.025994218e-14
5.635273819e-14
1.29345581e-14
1.628852185e-14
2.184424036e-14
3.005985927e-14
4.129203288e-14
5.544330697e-14
7.146772877e-14
8.684342908e-14
9.730363369e-14
2.243752774e-14
2.825004877e-14
3.786929122e-14
5.207507176e-14
7.146321602e-14
9.5838368e-14
1.233728834e-13
1.497244431e-13
1.676071527e-13
3.888447868e-14
4.89428396e-14
6.556866819e-14
9.008014889e-14
1.234595412e-13
1.65311378e-13
2.124414721e-13
2.573983043e-13
2.878103387e-13
6.72986372e-14
8.466906431e-14
1.133377984e-13
1.555135809e-13
2.127881452e-13
2.843573761e-13
3.646417924e-13
4.409110019e-13
4.92302257e-13
1.162769339e-13
1.461949793e-13
1.954795067e-13
2.677909741e-13
3.656519789e-13
4.874293798e-13
6.233932525e-13
7.519172528e-13
8.381081098e-13
2.004688123e-13
2.518224183e-13
3.362219147e-13
4.596516357e-13
6.259949288e-13
8.31956461e-13
1.060621675e-12
1.275509026e-12
1.418816363e-12
3.447129271e-13
4.324858684e-13
5.763356663e-13
7.858843621e-13
1.066883299e-12
1.412758326e-12
1.794250835e-12
2.150340135e-12
2.386310889e-12
5.908854237e-13
7.401332177e-13
9.839165495e-13
1.337397457e-12
1.808650391e-12
2.384762434e-12
3.015477215e-12
3.599739038e-12
3.984196609e-12
1.00913571e-12
1.261365476e-12
1.671752827e-12
2.263616202e-12
3.047427039e-12
3.998300131e-12
5.030701588e-12
5.979152567e-12
6.598531047e-12
1.716134238e-12
2.139385549e-12
2.824949473e-12
3.807657813e-12
5.099380417e-12
6.653194282e-12
8.325152846e-12
9.847616703e-12
1.083394643e-11
2.904366175e-12
3.608874501e-12
4.744273444e-12
6.360798146e-12
8.468357995e-12
1.098056767e-11
1.365831507e-11
1.607435527e-11
1.762686569e-11
4.888531613e-12
6.05062614e-12
7.913161159e-12
1.054555966e-11
1.39478719e-11
1.79650662e-11
2.220565274e-11
2.599661552e-11
2.841296078e-11
8.177914555e-12
1.007576082e-11
1.309959768e-11
1.734040761e-11
2.277257697e-11
2.912522304e-11
3.576727027e-11
4.165227793e-11
4.537446147e-11
1.358729615e-11
1.665318599e-11
2.150812951e-11
2.826342801e-11
3.683938278e-11
4.677577797e-11
5.707211127e-11
6.612146593e-11
7.180630567e-11
2.240378275e-11
2.729874128e-11
3.500198336e-11
4.563700953e-11
5.902308938e-11
7.440122908e-11
9.021399926e-11
1.040238837e-10
1.126590907e-10
3.663333008e-11
4.435060988e-11
5.642082922e-11
7.29599996e-11
9.361396903e-11
1.171697428e-10
1.412532309e-10
1.622164503e-10
1.753204332e-10
5.936060359e-11
7.136515779e-11
9.002841025e-11
1.154200159e-10
1.469048038e-10
1.826026717e-10
2.189739124e-10
2.506362678e-10
2.705224922e-10
9.527391349e-11
1.136862917e-10
1.421438988e-10
1.805970765e-10
2.279644509e-10
2.813885944e-10
3.35641965e-10
3.827585299e-10
4.121128636e-10
1.514424443e-10
1.792806518e-10
2.220556621e-10
2.794600076e-10
3.496778386e-10
4.282956588e-10
5.072318013e-10
5.73585689e-10
6.130504025e-10
2.384975231e-10
2.800000177e-10
3.433867958e-10
4.278091839e-10
5.300724378e-10
6.425857143e-10
7.503746498e-10
8.370109582e-10
8.863183529e-10
3.724629806e-10
4.33508816e-10
5.260802184e-10
6.480360348e-10
7.927123716e-10
9.424311166e-10
1.078769497e-09
1.179572194e-09
1.228212157e-09
5.774934226e-10
6.659850367e-10
7.985182643e-10
9.686851156e-10
1.15788345e-09
1.343672948e-09
1.494571537e-09
1.579608427e-09
1.592823677e-09
8.888445842e-10
1.013989123e-09
1.194886541e-09
1.414915653e-09
1.646929966e-09
1.848366602e-09
1.966577417e-09
1.964738761e-09
1.874702661e-09
1.349088702e-09
1.513920048e-09
1.745367722e-09
2.012016809e-09
2.261221476e-09
2.418375721e-09
2.409311232e-09
2.217556229e-09
1.95854771e-09
1.99521909e-09
2.201175696e-09
2.474622761e-09
2.754641909e-09
2.948224712e-09
2.94746862e-09
2.691213179e-09
2.247947172e-09
1.837482137e-09
2.857199705e-09
3.086030082e-09
3.356298594e-09
3.561262894e-09
3.566053488e-09
3.270917425e-09
2.711896366e-09
2.08100078e-09
1.619168414e-09
3.895001762e-09
4.090209472e-09
4.254447593e-09
4.236889368e-09
3.908004036e-09
3.27128192e-09
2.504691179e-09
1.829342655e-09
1.398981355e-09
4.922462582e-09
4.984054147e-09
4.901062582e-09
4.53274465e-09
3.85125223e-09
3.003826265e-09
2.203671413e-09
1.585646877e-09
1.215901052e-09
5.592305567e-09
5.430229216e-09
5.032092365e-09
4.353166035e-09
3.49315692e-09
2.635393029e-09
1.916320271e-09
1.389311713e-09
1.08010733e-09
5.607231477e-09
5.247684374e-09
4.64949295e-09
3.868789418e-09
3.039628426e-09
2.290172274e-09
1.687386912e-09
1.249714961e-09
9.921220777e-10
5.042205562e-09
4.624662961e-09
4.022461203e-09
3.321531192e-09
2.626988476e-09
2.016631419e-09
1.526258643e-09
1.165639141e-09
9.496551923e-10
4.253997844e-09
3.892926785e-09
3.398874627e-09
2.844476039e-09
2.301984972e-09
1.822361792e-09
1.429726661e-09
1.133365004e-09
9.510822697e-10
3.513800568e-09
3.245764635e-09
2.881986162e-09
2.47272297e-09
2.067299959e-09
1.700651783e-09
1.39141234e-09
1.150096874e-09
9.967346685e-10
2.914706868e-09
2.733979668e-09
2.485625569e-09
2.200928103e-09
1.911448593e-09
1.641382057e-09
1.405619802e-09
1.214764333e-09
1.088785321e-09
2.458290356e-09
2.349231032e-09
2.19505377e-09
2.012548381e-09
1.82064704e-09
1.635500539e-09
1.468222244e-09
1.327517804e-09
1.230299022e-09
2.122313031e-09
2.069244764e-09
1.989998427e-09
1.891420938e-09
1.783555835e-09
1.676206099e-09
1.576312552e-09
1.488667475e-09
1.423844712e-09
1.8826735e-09
1.873138057e-09
1.853968688e-09
1.825735287e-09
1.792440943e-09
1.758866812e-09
1.7275141e-09
1.697568455e-09
1.670074721e-09
1.721482275e-09
1.746331036e-09
1.776342932e-09
1.808509255e-09
1.842954176e-09
1.88057259e-09
1.919413875e-09
1.951879041e-09
1.966778064e-09
1.627847805e-09
1.680515119e-09
1.751723814e-09
1.836739813e-09
1.933386009e-09
2.039639289e-09
2.149348657e-09
2.247585504e-09
2.30904456e-09
1.59626618e-09
1.671987524e-09
1.77833888e-09
1.910030229e-09
2.063668273e-09
2.23513861e-09
2.414659296e-09
2.580268153e-09
2.692158099e-09
1.624417437e-09
1.719582588e-09
1.85619013e-09
2.029053836e-09
2.234285002e-09
2.466457617e-09
2.713331664e-09
2.947694804e-09
3.113736869e-09
1.711071603e-09
1.822746195e-09
1.985373679e-09
2.194214115e-09
2.445440018e-09
2.733432998e-09
3.045176963e-09
3.346082675e-09
3.560961837e-09
1.854494872e-09
1.980137817e-09
2.164981466e-09
2.404971914e-09
2.697259021e-09
3.037441826e-09
3.407500171e-09
3.763899668e-09
4.021729359e-09
2.051684346e-09
2.189141891e-09
2.393119921e-09
2.660580154e-09
2.991397828e-09
3.374904335e-09
3.789486087e-09
4.188885464e-09
4.480270972e-09
2.299309391e-09
2.447270304e-09
2.669753266e-09
2.962761997e-09
3.321372358e-09
3.735043595e-09
4.180830943e-09
4.610362582e-09
4.925605816e-09
2.597427915e-09
2.75525706e-09
2.990743945e-09
3.299261817e-09
3.674506749e-09
4.106448032e-09
4.571114055e-09
5.017956973e-09
5.34706582e-09
2.937645768e-09
3.100444993e-09
3.342464564e-09
3.657995766e-09
4.041389552e-09
4.480249258e-09
4.950443795e-09
5.401752971e-09
5.734801438e-09
3.305929485e-09
3.469832185e-09
3.712824702e-09
4.028512149e-09
4.410385846e-09
4.845101591e-09
5.308507664e-09
5.752214266e-09
6.079871328e-09
3.689594341e-09
3.850943882e-09
4.089191568e-09
4.398392429e-09
4.769926586e-09
5.190511726e-09
5.635463995e-09
6.060544359e-09
6.374408231e-09
4.076504499e-09
4.232044151e-09
4.461141e-09
4.756127028e-09
5.108601542e-09
5.504950015e-09
5.921902486e-09
6.318889831e-09
6.611765432e-09
4.454516986e-09
4.600856061e-09
4.815578859e-09
5.090615948e-09
5.416354037e-09
5.77958592e-09
6.159889457e-09
6.520737472e-09
6.786693275e-09
4.811904199e-09
4.945832231e-09
5.141392208e-09
5.390226651e-09
5.682561474e-09
6.00600929e-09
6.342617652e-09
6.660819512e-09
6.895143853e-09
5.13758721e-09
5.256248339e-09
5.428519919e-09
5.646049565e-09
5.899375271e-09
6.177252206e-09
6.464358282e-09
6.734441175e-09
6.932707821e-09
5.421331568e-09
5.522305735e-09
5.667866166e-09
5.849951683e-09
6.059707537e-09
6.287158976e-09
6.519419808e-09
6.735087054e-09
6.889042509e-09
5.653919172e-09
5.73525167e-09
5.851360555e-09
5.994682319e-09
6.157077001e-09
6.32947027e-09
6.500570229e-09
6.65778885e-09
6.773949611e-09
5.827089247e-09
5.887203186e-09
5.97154227e-09
6.073004768e-09
6.184187265e-09
6.296535167e-09
6.409799653e-09
6.517634828e-09
6.60020218e-09
5.932485819e-09
5.969809631e-09
6.019502729e-09
6.07480498e-09
6.134103199e-09
6.195435903e-09
6.258840577e-09
6.322309342e-09
6.374135398e-09
5.957703158e-09
5.970972099e-09
5.987386273e-09
6.004067848e-09
6.020042788e-09
6.036030608e-09
6.054592925e-09
6.07793561e-09
6.101944859e-09
5.906698498e-09
5.9002696e-09
5.888775206e-09
5.871416508e-09
5.848983982e-09
5.824470517e-09
5.803127329e-09
5.790993462e-09
5.790559603e-09
5.790098764e-09
5.766408313e-09
5.730358345e-09
5.682898669e-09
5.626708512e-09
5.566912605e-09
5.51120209e-09
5.468848712e-09
5.447763371e-09
5.613840274e-09
5.575124729e-09
5.517822848e-09
5.444534546e-09
5.359750055e-09
5.27050956e-09
5.186546204e-09
5.119664965e-09
5.081957018e-09
5.384047272e-09
5.3327817e-09
5.257906754e-09
5.163555669e-09
5.055849324e-09
4.943441079e-09
4.837638983e-09
4.752060693e-09
4.701776214e-09
5.108342413e-09
5.047248255e-09
4.958795604e-09
4.848467993e-09
4.72375781e-09
4.594569956e-09
4.473297741e-09
4.374682993e-09
4.315677428e-09
4.795856048e-09
4.727767591e-09
4.629838734e-09
4.508658629e-09
4.372777635e-09
4.232962812e-09
4.102216871e-09
3.99578666e-09
3.931555647e-09
4.456735327e-09
4.384431586e-09
4.280994824e-09
4.153834906e-09
4.012220797e-09
3.867395459e-09
3.732536816e-09
3.622870721e-09
3.556431989e-09
4.101476499e-09
4.027525399e-09
3.922203353e-09
3.793441724e-09
3.650890588e-09
3.505910066e-09
3.371483327e-09
3.262394505e-09
3.1962238e-09
3.740240947e-09
3.666876685e-09
3.562785448e-09
3.436131761e-09
3.296636374e-09
3.155467213e-09
3.025113745e-09
2.919603178e-09
2.855620496e-09
3.382260307e-09
3.311309979e-09
3.210968617e-09
3.089375727e-09
2.956055893e-09
2.821734284e-09
2.698183783e-09
2.598458318e-09
2.538054283e-09
3.035410795e-09
2.968264968e-09
2.8735661e-09
2.759213628e-09
2.634322665e-09
2.508988117e-09
2.39411549e-09
2.301655666e-09
2.245746903e-09
2.705956919e-09
2.643580325e-09
2.555814833e-09
2.450154054e-09
2.335146835e-09
2.220131276e-09
2.115058613e-09
2.030718496e-09
1.979820204e-09
2.398471838e-09
2.341443945e-09
2.26136487e-09
2.165206189e-09
2.060847587e-09
1.956798359e-09
1.862021853e-09
1.786144226e-09
1.740449413e-09
2.115905795e-09
2.064479822e-09
1.992389442e-09
1.906013407e-09
1.812506879e-09
1.719523988e-09
1.635048397e-09
1.567581655e-09
1.527038811e-09
1.859761651e-09
1.813931501e-09
1.749777246e-09
1.673052673e-09
1.590172181e-09
1.507944195e-09
1.433411686e-09
1.37401861e-09
1.338402188e-09
1.630333869e-09
1.589900632e-09
1.533368769e-09
1.465865652e-09
1.393078769e-09
1.321006665e-09
1.255811502e-09
1.203963874e-09
1.172934313e-09
1.426971956e-09
1.391604307e-09
1.342204037e-09
1.283293435e-09
1.219868568e-09
1.157171209e-09
1.100555421e-09
1.055611705e-09
1.028764056e-09
1.248338434e-09
1.217623911e-09
1.174758006e-09
1.12369469e-09
1.06878804e-09
1.014587117e-09
9.65716695e-10
9.269827896e-10
9.038839143e-10
1.09264057e-09
1.066126264e-09
1.029146742e-09
9.851339217e-10
9.378573436e-10
8.912422498e-10
8.492641917e-10
8.160381716e-10
7.962537783e-10
9.578251374e-10
9.350483942e-10
9.03298262e-10
8.655355693e-10
8.250059769e-10
7.850804765e-10
7.49163202e-10
7.207664675e-10
7.038795836e-10
8.417329109e-10
8.222430811e-10
7.950856477e-10
7.628024335e-10
7.281756217e-10
6.940892369e-10
6.634492298e-10
6.392465904e-10
6.248691847e-10
7.422140596e-10
7.25586801e-10
7.02424747e-10
6.749014121e-10
6.453932928e-10
6.163605229e-10
5.902781564e-10
5.696893391e-10
5.574687198e-10
6.572088863e-10
6.430546157e-10
6.233410626e-10
5.999211226e-10
5.748193094e-10
5.501296187e-10
5.279568733e-10
5.104616957e-10
5.000831081e-10
5.847997811e-10
5.727677523e-10
5.560113885e-10
5.361067017e-10
5.1477504e-10
4.937961733e-10
4.749585691e-10
4.60097657e-10
4.512842525e-10
5.232405269e-10
5.130197985e-10
4.987858027e-10
4.818770056e-10
4.637552048e-10
4.459319276e-10
4.299265488e-10
4.172990978e-10
4.098101966e-10
4.709686588e-10
4.622869727e-10
4.501951344e-10
4.35828909e-10
4.204289805e-10
4.05278884e-10
3.916699467e-10
3.809296715e-10
3.745580103e-10
4.266057908e-10
4.192271453e-10
4.089482506e-10
3.967326622e-10
3.836334512e-10
3.707410508e-10
3.591540914e-10
3.50004202e-10
3.445726663e-10
3.889499029e-10
3.826713992e-10
3.739226694e-10
3.635214797e-10
3.523622226e-10
3.413722346e-10
3.314876852e-10
3.236754785e-10
3.19033666e-10
3.569626856e-10
3.516110564e-10
3.441511933e-10
3.352777812e-10
3.257513418e-10
3.163617469e-10
3.079084195e-10
3.012198829e-10
2.97240725e-10
3.297542422e-10
3.251823404e-10
3.188065508e-10
3.112178675e-10
3.030640795e-10
2.95019373e-10
2.877681904e-10
2.82022865e-10
2.785994468e-10
3.065667843e-10
3.026502087e-10
2.971854473e-10
2.906762702e-10
2.83675657e-10
2.767605291e-10
2.705187017e-10
2.655649517e-10
2.626076079e-10
2.867584323e-10
2.833923956e-10
2.786929638e-10
2.730906058e-10
2.670586256e-10
2.610922049e-10
2.556979589e-10
2.514087162e-10
2.488424365e-10
2.697878259e-10
2.668843197e-10
2.628278915e-10
2.579874386e-10
2.527693256e-10
2.476000409e-10
2.429179361e-10
2.391869408e-10
2.369490921e-10
2.55199959e-10
2.526852343e-10
2.491693321e-10
2.44969431e-10
2.404356477e-10
2.359367141e-10
2.318535469e-10
2.285920724e-10
2.266304234e-10
2.426134381e-10
2.404257995e-10
2.373647132e-10
2.337038976e-10
2.297461759e-10
2.258116783e-10
2.222329382e-10
2.193669701e-10
2.176379981e-10
2.317092278e-10
2.297971246e-10
2.271192478e-10
2.23912765e-10
2.20440697e-10
2.169822251e-10
2.138290607e-10
2.112968881e-10
2.097643384e-10
2.222208395e-10
2.205412271e-10
2.181867746e-10
2.153638738e-10
2.123020019e-10
2.092457846e-10
2.064524236e-10
2.04202598e-10
2.02836267e-10
2.139258771e-10
2.124428246e-10
2.103618935e-10
2.078635224e-10
2.051488718e-10
2.024333502e-10
1.999449213e-10
1.979345365e-10
1.967092501e-10
2.066388251e-10
2.053223368e-10
2.034732667e-10
2.012501261e-10
1.988301232e-10
1.964039083e-10
1.941746101e-10
1.923678605e-10
1.912626193e-10
2.002049323e-10
1.990299555e-10
1.973779495e-10
1.95388859e-10
1.932195852e-10
1.910397457e-10
1.890313152e-10
1.873982912e-10
1.863955588e-10
1.944950581e-10
1.934406523e-10
1.919566218e-10
1.901671525e-10
1.882118842e-10
1.862425168e-10
1.844229518e-10
1.829386376e-10
1.820237484e-10
1.894013521e-10
1.884499951e-10
1.871095965e-10
1.8549093e-10
1.837189214e-10
1.819299609e-10
1.802724572e-10
1.789158978e-10
1.780765672e-10
1.848336464e-10
1.839706563e-10
1.827534887e-10
1.812814681e-10
1.796669395e-10
1.780331692e-10
1.765152391e-10
1.752688497e-10
1.744947677e-10
1.807164522e-10
1.799295074e-10
1.788184457e-10
1.774727875e-10
1.759940855e-10
1.744943168e-10
1.730970578e-10
1.719460525e-10
1.712285479e-10
1.769864658e-10
1.762652066e-10
1.752458487e-10
1.740094888e-10
1.726483897e-10
1.712647825e-10
1.699722721e-10
1.68904191e-10
1.682359543e-10
1.735905009e-10
1.729261989e-10
1.719864076e-10
1.708449602e-10
1.695860933e-10
1.68303593e-10
1.67102388e-10
1.661067057e-10
1.654815599e-10
1.704837764e-10
1.698690615e-10
1.689985849e-10
1.679398936e-10
1.667702642e-10
1.655761361e-10
1.64454858e-10
1.635226608e-10
1.629353717e-10
1.676285011e-10
1.670571346e-10
1.662472918e-10
1.652610587e-10
1.641696527e-10
1.630530963e-10
1.620020887e-10
1.61125807e-10
1.60571927e-10
1.649927018e-10
1.64459389e-10
1.637028103e-10
1.627802886e-10
1.617577452e-10
1.607095755e-10
1.597206204e-10
1.588938074e-10
1.583695461e-10
1.625492556e-10
1.620494909e-10
1.613399021e-10
1.604736414e-10
1.595119826e-10
1.585243655e-10
1.575904483e-10
1.56807597e-10
1.563097142e-10
1.602750891e-10
1.598050267e-10
1.591370709e-10
1.583207067e-10
1.574131124e-10
1.56479346e-10
1.555944608e-10
1.548508521e-10
1.543765688e-10
1.581505153e-10
1.577068633e-10
1.570759527e-10
1.563040311e-10
1.554446532e-10
1.54558986e-10
1.537179743e-10
1.530095513e-10
1.525564763e-10
1.561586855e-10
1.557386168e-10
1.551408099e-10
1.544086427e-10
1.535924502e-10
1.527499305e-10
1.519483469e-10
1.512716102e-10
1.508376791e-10
1.542851338e-10
1.538862128e-10
1.533181126e-10
1.526216564e-10
1.518443074e-10
1.510406577e-10
1.502746586e-10
1.496265794e-10
1.492100035e-10
1.525173999e-10
1.521375215e-10
1.515961903e-10
1.509319465e-10
1.501896809e-10
1.494211937e-10
1.486874442e-10
1.480653921e-10
1.476646163e-10
1.508447158e-10
1.504820542e-10
1.49964943e-10
1.49329874e-10
1.486194245e-10
1.478828751e-10
1.471784718e-10
1.465801541e-10
1.461938217e-10
1.492577441e-10
1.489107106e-10
1.484156001e-10
1.478070593e-10
1.471255771e-10
1.464181512e-10
1.457405575e-10
1.451639689e-10
1.447908917e-10
1.477483609e-10
1.474155681e-10
1.469405196e-10
1.463561934e-10
1.457011859e-10
1.450204187e-10
1.443674105e-10
1.438107908e-10
1.434499246e-10
1.463094743e-10
1.459897066e-10
1.455330204e-10
1.449708791e-10
1.443401576e-10
1.436838829e-10
1.430535034e-10
1.42515302e-10
1.421657259e-10
1.449348718e-10
1.446270604e-10
1.441872413e-10
1.436454983e-10
1.430371347e-10
1.424034418e-10
1.417939633e-10
1.412728094e-10
1.409337083e-10
1.436190934e-10
1.433222953e-10
1.428980236e-10
1.423751007e-10
1.417873902e-10
1.411745885e-10
1.405844801e-10
1.400791577e-10
1.397498075e-10
1.423573243e-10
1.420707047e-10
1.416608115e-10
1.4115531e-10
1.405867404e-10
1.399933283e-10
1.394212291e-10
1.389306558e-10
1.386104109e-10
1.411453046e-10
1.408681223e-10
1.404715689e-10
1.399822447e-10
1.394314701e-10
1.388561098e-10
1.383008057e-10
1.378240144e-10
1.375122974e-10
1.399792536e-10
1.397108478e-10
1.39326708e-10
1.388524515e-10
1.383182699e-10
1.377597654e-10
1.372201695e-10
1.367562936e-10
1.364525863e-10
1.388558047e-10
1.385955848e-10
1.382230304e-10
1.377628481e-10
1.372441825e-10
1.367014611e-10
1.361765976e-10
1.357248577e-10
1.354286933e-10
1.377719513e-10
1.375193876e-10
1.371576753e-10
1.367106751e-10
1.362065576e-10
1.356786542e-10
1.35167644e-10
1.347273369e-10
1.344382936e-10
1.367249998e-10
1.364796158e-10
1.361280765e-10
1.35693455e-10
1.352030129e-10
1.346890564e-10
1.341911048e-10
1.337615942e-10
1.334792896e-10
1.357125302e-10
1.354738959e-10
1.351319255e-10
1.347089567e-10
1.342314009e-10
1.337306025e-10
1.332449893e-10
1.328256973e-10
1.325497837e-10
1.347323617e-10
1.345000878e-10
1.341671395e-10
1.337551655e-10
1.332897801e-10
1.328014238e-10
1.32327494e-10
1.319178945e-10
1.316480547e-10
1.337825237e-10
1.335562571e-10
1.33231834e-10
1.32830257e-10
1.32376391e-10
1.318998244e-10
1.314369807e-10
1.310365933e-10
1.30772537e-10
1.328612308e-10
1.326406499e-10
1.323242998e-10
1.319325747e-10
1.314896341e-10
1.310242616e-10
1.305719578e-10
1.301803422e-10
1.299218031e-10
1.319668608e-10
1.317516721e-10
1.314429818e-10
1.310606108e-10
1.306280521e-10
1.301733282e-10
1.297310634e-10
1.293478151e-10
1.290945481e-10
1.310979361e-10
1.308878711e-10
1.305864623e-10
1.30212989e-10
1.297903138e-10
1.293457374e-10
1.289130508e-10
1.285377975e-10
1.282895763e-10
1.302531073e-10
1.300479195e-10
1.297534448e-10
1.293884499e-10
1.289751998e-10
1.285403097e-10
1.281167766e-10
1.277491742e-10
1.275057895e-10
1.294311389e-10
1.292306015e-10
1.289427413e-10
1.285858386e-10
1.28181591e-10
1.277559613e-10
1.27341189e-10
1.269809189e-10
1.267421765e-10
1.28630897e-10
1.284348009e-10
1.281532602e-10
1.27804093e-10
1.274084572e-10
1.269916938e-10
1.265853185e-10
1.26232085e-10
1.259978043e-10
1.278513383e-10
1.276594901e-10
1.273839961e-10
1.270422342e-10
1.266548482e-10
1.262465857e-10
1.258482692e-10
1.255017972e-10
1.252718097e-10
1.270915005e-10
1.26903721e-10
1.266340206e-10
1.262993578e-10
1.259198854e-10
1.255197838e-10
1.251292114e-10
1.247892443e-10
1.245633927e-10
1.263504937e-10
1.261666165e-10
1.259024745e-10
1.255746258e-10
1.252027542e-10
1.248104968e-10
1.244273749e-10
1.240936729e-10
1.238718098e-10
1.256274927e-10
1.254473629e-10
1.251885603e-10
1.248672602e-10
1.245026975e-10
1.241179885e-10
1.237420426e-10
1.234143813e-10
1.231963685e-10
1.249217305e-10
1.247452034e-10
1.244915358e-10
1.241765363e-10
1.238190097e-10
1.234415725e-10
1.230725453e-10
1.227507141e-10
1.225364219e-10
1.242324912e-10
1.240594316e-10
1.238107077e-10
1.235017767e-10
1.231510306e-10
1.227806059e-10
1.224182564e-10
1.221020576e-10
1.218913641e-10
1.235591044e-10
1.233893857e-10
1.231454262e-10
1.22842346e-10
1.224981406e-10
1.22134485e-10
1.217785865e-10
1.214678345e-10
1.212606251e-10
1.229009393e-10
1.227344423e-10
1.224950788e-10
1.221976446e-10
1.218597545e-10
1.21502639e-10
1.211529787e-10
1.20847499e-10
1.206436661e-10
1.222573983e-10
1.220940109e-10
1.218590843e-10
1.215671033e-10
1.212353161e-10
1.208845252e-10
1.205409027e-10
1.202405313e-10
1.200399741e-10
1.216279107e-10
1.214675265e-10
1.212368868e-10
1.209501766e-10
1.206242915e-10
1.202796217e-10
1.199418482e-10
1.196464314e-10
1.194490557e-10
1.210119252e-10
1.208544433e-10
1.206279475e-10
1.203463347e-10
1.200261613e-10
1.1968742e-10
1.193553176e-10
1.19064711e-10
1.188704293e-10
1.204089013e-10
1.20254225e-10
1.200317362e-10
1.197550551e-10
1.194404115e-10
1.191074154e-10
1.187808157e-10
1.18494884e-10
1.183036151e-10
1.198182994e-10
1.196663349e-10
1.194477207e-10
1.191758109e-10
1.188665216e-10
1.185390948e-10
1.182178373e-10
1.179364531e-10
1.177481221e-10
1.192395676e-10
1.190902226e-10
1.188753527e-10
1.186080568e-10
1.183039502e-10
1.179819213e-10
1.176658511e-10
1.173888935e-10
1.172034312e-10
1.186721269e-10
1.185253086e-10
1.183140521e-10
1.180512119e-10
1.17752116e-10
1.174353143e-10
1.17124279e-10
1.168516309e-10
1.166689725e-10
1.181153519e-10
1.179709643e-10
1.177631857e-10
1.175046379e-10
1.172103751e-10
1.168986253e-10
1.165924694e-10
1.163240139e-10
1.161440968e-10
1.175685479e-10
1.174264885e-10
1.172220429e-10
1.169676123e-10
1.166779925e-10
1.163711068e-10
1.160696649e-10
1.158052788e-10
1.156280389e-10
1.170309234e-10
1.168910787e-10
1.16689805e-10
1.164392968e-10
1.161541073e-10
1.158518754e-10
1.155549619e-10
1.152945075e-10
1.151198741e-10
1.165015578e-10
1.163637973e-10
1.161655104e-10
1.159186988e-10
1.156376923e-10
1.153398678e-10
1.150472634e-10
1.147905765e-10
1.146184638e-10
1.159793632e-10
1.15843533e-10
1.156480127e-10
1.154046283e-10
1.15127507e-10
1.1483379e-10
1.145452241e-10
1.142920977e-10
1.141223946e-10
1.154630428e-10
1.153289563e-10
1.151359353e-10
1.148956484e-10
1.146220446e-10
1.1433206e-10
1.140471885e-10
1.13797353e-10
1.136299087e-10
1.149510435e-10
1.148184719e-10
1.146276204e-10
1.143900218e-10
1.141194746e-10
1.138327467e-10
1.135511249e-10
1.133042227e-10
1.131388292e-10
1.144415065e-10
1.14310167e-10
1.141210759e-10
1.138856544e-10
1.136175831e-10
1.133335051e-10
1.130545563e-10
1.128101122e-10
1.126464827e-10
1.139322164e-10
1.138017592e-10
1.136139205e-10
1.133800382e-10
1.131137126e-10
1.128315128e-10
1.125544926e-10
1.123118802e-10
1.121496248e-10
1.134205509e-10
1.132905456e-10
1.131033325e-10
1.128701981e-10
1.126047063e-10
1.12323412e-10
1.120473696e-10
1.118057744e-10
1.116443732e-10
1.129034353e-10
1.127733569e-10
1.125860025e-10
1.123526445e-10
1.120868601e-10
1.118052607e-10
1.11529e-10
1.112873813e-10
1.111261567e-10
1.123773054e-10
1.122465205e-10
1.12058098e-10
1.118233385e-10
1.115558901e-10
1.112725016e-10
1.109945431e-10
1.107515986e-10
1.105896881e-10
1.118380829e-10
1.117058379e-10
1.115152428e-10
1.112776748e-10
1.110069185e-10
1.107199535e-10
1.104385031e-10
1.101926377e-10
1.100289713e-10
1.112811686e-10
1.111465805e-10
1.109525177e-10
1.107104887e-10
1.10434489e-10
1.101418355e-10
1.098547617e-10
1.096040668e-10
1.094373516e-10
1.107014592e-10
1.105635112e-10
1.103644884e-10
1.101160929e-10
1.098326148e-10
1.095318284e-10
1.092366562e-10
1.089789043e-10
1.088076205e-10
1.100933927e-10
1.099509355e-10
1.097452664e-10
1.09488351e-10
1.091948684e-10
1.08883184e-10
1.085771088e-10
1.083097692e-10
1.081321828e-10
1.094510282e-10
1.093027894e-10
1.090886085e-10
1.088207938e-10
1.085145175e-10
1.081888849e-10
1.078688146e-10
1.075890966e-10
1.074032935e-10
1.087681644e-10
1.086127677e-10
1.083880602e-10
1.08106781e-10
1.077847123e-10
1.074418612e-10
1.071044911e-10
1.068094213e-10
1.066133681e-10
1.080384991e-10
1.078744945e-10
1.076371431e-10
1.073397135e-10
1.069987259e-10
1.066352654e-10
1.062771909e-10
1.059637294e-10
1.057553644e-10
1.072558334e-10
1.070817403e-10
1.068295909e-10
1.065132928e-10
1.061502455e-10
1.057628004e-10
1.053806722e-10
1.050458717e-10
1.048232295e-10
1.06414317e-10
1.0622868e-10
1.059596276e-10
1.056218271e-10
1.052337111e-10
1.048190974e-10
1.044098198e-10
1.040510275e-10
1.038123987e-10
1.055087324e-10
1.053101913e-10
1.050222856e-10
1.046605748e-10
1.042446916e-10
1.03800129e-10
1.033610989e-10
1.029762011e-10
1.027203235e-10
1.045348112e-10
1.043221827e-10
1.040137524e-10