/*--------------------------------*- C++ -*----------------------------------*\
| =========                 |                                                 |
| \\      /  F ield         | OpenFOAM: The Open Source CFD Toolbox           |
|  \\    /   O peration     | Version:  2212                                  |
|   \\  /    A nd           | Website:  www.openfoam.com                      |
|    \\/     M anipulation  |                                                 |
\*---------------------------------------------------------------------------*/
FoamFile
{
    version     2.0;
    format      ascii;
    arch        "LSB;label=32;scalar=64";
    class       volScalarField;
    location    "20.00000000";
    object      A1C2H3;
}
// * * * * * * * * * * * * * * * * * * * * * * * * * * * * * * * * * * * * * //

dimensions      [0 0 0 0 0 0 0];

internalField   nonuniform List<scalar> 
3000
(
5.647494336e-24
6.343000878e-24
7.392012024e-24
8.788925614e-24
1.051874665e-23
1.253380784e-23
1.471251322e-23
1.679034043e-23
1.825902538e-23
2.12026722e-23
2.390951066e-23
2.799019372e-23
3.343580231e-23
4.023731531e-23
4.83540048e-23
5.764344273e-23
6.764296012e-23
7.649909824e-23
4.749327789e-23
5.397725705e-23
6.384522875e-23
7.723255967e-23
9.436916625e-23
1.154920554e-22
1.405070475e-22
1.680143532e-22
1.915058186e-22
9.046078356e-23
1.03889263e-22
1.246275684e-22
1.533632383e-22
1.91091902e-22
2.387420575e-22
2.960157583e-22
3.583091338e-22
4.085152863e-22
1.606354746e-22
1.867529423e-22
2.277304238e-22
2.856338088e-22
3.631609341e-22
4.62447441e-22
5.817709288e-22
7.083078791e-22
8.05219544e-22
2.762163202e-22
3.252512797e-22
4.03304781e-22
5.153574233e-22
6.673954853e-22
8.632860005e-22
1.097273162e-21
1.340031595e-21
1.519998465e-21
4.688854005e-22
5.589654059e-22
7.04033779e-22
9.146595086e-22
1.202594629e-21
1.573616484e-21
2.012449406e-21
2.45847929e-21
2.780408155e-21
7.934326113e-22
9.564365637e-22
1.221275616e-21
1.608757735e-21
2.140501979e-21
2.824183205e-21
3.625505448e-21
4.427811813e-21
4.997021921e-21
1.34482164e-21
1.636651483e-21
2.113851186e-21
2.815537546e-21
3.780114064e-21
5.016829768e-21
6.455793798e-21
7.881457393e-21
8.881772591e-21
2.287554773e-21
2.805928238e-21
3.657428598e-21
4.913497657e-21
6.641152702e-21
8.850358164e-21
1.140658494e-20
1.392067459e-20
1.567167995e-20
3.9068919e-21
4.822360868e-21
6.330883548e-21
8.560565512e-21
1.162735668e-20
1.554006005e-20
2.004872591e-20
2.446062175e-20
2.751835977e-20
6.697785827e-21
8.30774038e-21
1.096639287e-20
1.490081779e-20
2.031090778e-20
2.720046185e-20
3.511535267e-20
4.283340404e-20
4.816554235e-20
1.151962029e-20
1.434250558e-20
1.901115659e-20
2.592522436e-20
3.54288969e-20
4.751312007e-20
6.136424875e-20
7.483882837e-20
8.413258701e-20
1.986486764e-20
2.480441159e-20
3.298261265e-20
4.510042297e-20
6.17514513e-20
8.289869875e-20
1.070941385e-19
1.305868401e-19
1.46799481e-19
3.432453398e-20
4.295527523e-20
5.72575333e-20
7.846091726e-20
1.075968851e-19
1.445783274e-19
1.868287907e-19
2.277414076e-19
2.560993578e-19
5.939291057e-20
7.445368433e-20
9.942991702e-20
1.364799056e-19
1.874130699e-19
2.520890152e-19
3.260526591e-19
3.978161185e-19
4.468850155e-19
1.028608116e-19
1.291049297e-19
1.726457312e-19
2.372474729e-19
3.260432747e-19
4.387297038e-19
5.674335364e-19
6.920343203e-19
7.774197942e-19
1.782394623e-19
2.239160157e-19
2.997136654e-19
4.121767619e-19
5.667167249e-19
7.62726834e-19
9.864294125e-19
1.202837759e-18
1.351140852e-18
3.089721736e-19
3.884027918e-19
5.202332354e-19
7.158345576e-19
9.845702949e-19
1.325306441e-18
1.714024368e-18
2.089923396e-18
2.347453054e-18
5.357473871e-19
6.73801741e-19
9.029575351e-19
1.242972373e-18
1.710073143e-18
2.302203375e-18
2.977542598e-18
3.630430957e-18
4.077610415e-18
9.291960781e-19
1.169062937e-18
1.567256828e-18
2.15810458e-18
2.969746013e-18
3.998499479e-18
5.171592181e-18
6.305435393e-18
7.081872603e-18
1.611941543e-18
2.028622818e-18
2.720392663e-18
3.746878674e-18
5.156887406e-18
6.943866759e-18
8.981232957e-18
1.095005962e-17
1.229807835e-17
2.796897191e-18
3.520642851e-18
4.722258753e-18
6.505294365e-18
8.95439418e-18
1.205793024e-17
1.55957749e-17
1.901401528e-17
2.135417958e-17
4.853790292e-18
6.11080049e-18
8.197831027e-18
1.12946538e-17
1.554803339e-17
2.093735584e-17
2.707989516e-17
3.301389188e-17
3.707590849e-17
8.424717945e-18
1.060783695e-17
1.423247407e-17
1.96106124e-17
2.699661566e-17
3.635393045e-17
4.701729586e-17
5.73169882e-17
6.436682542e-17
1.462482812e-17
1.84162998e-17
2.471102482e-17
3.405016422e-17
4.687423008e-17
6.311814069e-17
8.162556464e-17
9.949829396e-17
1.117300103e-16
2.539080342e-17
3.197540315e-17
4.290645146e-17
5.912202871e-17
8.138417644e-17
1.095761193e-16
1.416875493e-16
1.726891725e-16
1.939011562e-16
4.408581972e-17
5.552084093e-17
7.45014281e-17
1.026522013e-16
1.412892369e-16
1.902008886e-16
2.458911298e-16
2.996357652e-16
3.363966733e-16
7.654870614e-17
9.640571356e-17
1.293588855e-16
1.782182747e-16
2.452514711e-16
3.300698067e-16
4.265908022e-16
5.19688389e-16
5.833351402e-16
1.329115057e-16
1.673883148e-16
2.24586696e-16
3.093587911e-16
4.255991253e-16
5.72582146e-16
7.397187658e-16
9.008017765e-16
1.010848952e-15
2.307430325e-16
2.90587388e-16
3.898316558e-16
5.368346395e-16
7.382558306e-16
9.927156502e-16
1.281765325e-15
1.560043495e-15
1.749963202e-15
4.004736735e-16
5.043033654e-16
6.763986768e-16
9.311145466e-16
1.279771627e-15
1.719696799e-15
2.218720765e-15
2.698436788e-15
3.025376376e-15
6.947301828e-16
8.747450909e-16
1.172902467e-15
1.613753102e-15
2.216391758e-15
2.975547423e-15
3.835080689e-15
4.659722884e-15
5.22067838e-15
1.204341386e-15
1.516109358e-15
2.03200819e-15
2.793800463e-15
3.833366045e-15
5.140160711e-15
6.616154523e-15
8.028579212e-15
8.986987369e-15
2.085663888e-15
2.624795662e-15
3.515861066e-15
4.829409413e-15
6.617963033e-15
8.860220227e-15
1.138497441e-14
1.379305265e-14
1.542189714e-14
3.606996995e-15
4.537369285e-15
6.072748291e-15
8.331265894e-15
1.139797624e-14
1.522965072e-14
1.952746095e-14
2.360992619e-14
2.636050111e-14
6.226960224e-15
7.828094809e-15
1.046544983e-14
1.433465719e-14
1.957041556e-14
2.608509385e-14
3.335801151e-14
4.023235353e-14
4.484204544e-14
1.072596385e-14
1.347179191e-14
1.798419914e-14
2.458275605e-14
3.347466155e-14
4.448341797e-14
5.670473011e-14
6.818881927e-14
7.584694107e-14
1.842509749e-14
2.311341544e-14
3.07964696e-14
4.198760433e-14
5.699342236e-14
7.546244874e-14
9.583215232e-14
1.148444171e-13
1.274425942e-13
3.15475623e-14
3.951004147e-14
5.251512536e-14
7.137078647e-14
9.650701762e-14
1.272347062e-13
1.608733993e-13
1.920335891e-13
2.125369335e-13
5.381007668e-14
6.724797812e-14
8.91102038e-14
1.206374611e-13
1.623865152e-13
2.130317802e-13
2.680182763e-13
3.185332093e-13
3.515212501e-13
9.138102879e-14
1.138932197e-13
1.503535873e-13
2.026112288e-13
2.71295156e-13
3.539104517e-13
4.428058057e-13
5.237537008e-13
5.761969061e-13
1.544161578e-13
1.918151042e-13
2.520777866e-13
3.378610468e-13
4.496834128e-13
5.829595333e-13
7.250087426e-13
8.531743399e-13
9.355347413e-13
2.594913721e-13
3.210409015e-13
4.196600651e-13
5.589953794e-13
7.390220122e-13
9.515209651e-13
1.175787496e-12
1.376251907e-12
1.504027118e-12
4.334090459e-13
5.336661457e-13
6.933243454e-13
9.17096909e-13
1.203534692e-12
1.538277284e-12
1.888050709e-12
2.197809848e-12
2.393681635e-12
7.190752132e-13
8.80578436e-13
1.136103113e-12
1.491242438e-12
1.94148977e-12
2.462384112e-12
3.001315571e-12
3.474295612e-12
3.7711009e-12
1.184451008e-12
1.441572519e-12
1.845643058e-12
2.402423095e-12
3.101516049e-12
3.902273049e-12
4.722847403e-12
5.436813222e-12
5.881631764e-12
1.935998502e-12
2.340369819e-12
2.97150284e-12
3.833685031e-12
4.90596355e-12
6.122360159e-12
7.357520807e-12
8.423544349e-12
9.083299609e-12
3.138603361e-12
3.766644251e-12
4.740221818e-12
6.058998121e-12
7.6840853e-12
9.510724297e-12
1.134974374e-11
1.292512745e-11
1.38942341e-11
5.04471279e-12
6.007951194e-12
7.491293673e-12
9.48429399e-12
1.191884217e-11
1.46319424e-11
1.734200103e-11
1.964785525e-11
2.105862904e-11
8.036447078e-12
9.495533449e-12
1.172833976e-11
1.470538174e-11
1.831252096e-11
2.230078472e-11
2.625621246e-11
2.960129347e-11
3.163807589e-11
1.268582942e-11
1.486944673e-11
1.819135983e-11
2.258916997e-11
2.787823017e-11
3.368451065e-11
3.940629678e-11
4.421925467e-11
4.713753653e-11
1.984017739e-11
2.307046958e-11
2.795811169e-11
3.438696384e-11
4.206685784e-11
5.044422477e-11
5.865327446e-11
6.552617986e-11
6.967848552e-11
3.074230681e-11
3.546909857e-11
4.258572184e-11
5.18918357e-11
6.294246954e-11
7.49293283e-11
8.661810843e-11
9.636520397e-11
1.022361485e-10
4.719606151e-11
5.404219605e-11
6.43040924e-11
7.765388218e-11
9.342316309e-11
1.104453651e-10
1.269745806e-10
1.40711152e-10
1.489641015e-10
7.179662334e-11
8.161917666e-11
9.628533085e-11
1.152786002e-10
1.37612068e-10
1.616190214e-10
1.848470503e-10
2.040953591e-10
2.156355675e-10
1.082496545e-10
1.222218368e-10
1.430135639e-10
1.698346179e-10
2.012488327e-10
2.34895924e-10
2.673523422e-10
2.941836806e-10
3.102429634e-10
1.618088861e-10
1.815295591e-10
2.107905393e-10
2.484103677e-10
2.923249402e-10
3.392177015e-10
3.843356116e-10
4.215606903e-10
4.4381094e-10
2.39875024e-10
2.675150878e-10
3.08425301e-10
3.608718792e-10
4.219197172e-10
4.869403873e-10
5.493673053e-10
6.007911852e-10
6.314965118e-10
3.528126008e-10
3.913105463e-10
4.481720634e-10
5.208914708e-10
6.053333448e-10
6.950774101e-10
7.810911192e-10
8.518544756e-10
8.940750047e-10
5.150603398e-10
5.683832977e-10
6.470018158e-10
7.473404109e-10
8.636186938e-10
9.869783165e-10
1.105043046e-09
1.202078942e-09
1.259943851e-09
7.466354095e-10
8.201273988e-10
9.283213153e-10
1.066169321e-09
1.225647493e-09
1.394591193e-09
1.556101465e-09
1.688746824e-09
1.767820324e-09
1.075164306e-09
1.176010542e-09
1.324289906e-09
1.512940175e-09
1.730890206e-09
1.961504721e-09
2.181780385e-09
2.362594994e-09
2.470367114e-09
1.538615015e-09
1.676460496e-09
1.878931907e-09
2.1362251e-09
2.43314518e-09
2.747027462e-09
3.046644983e-09
3.292508994e-09
3.439054301e-09
2.188958122e-09
2.376730657e-09
2.652301756e-09
3.002151802e-09
3.405523545e-09
3.831639597e-09
4.238212804e-09
4.571797434e-09
4.770659343e-09
3.097050004e-09
3.352052975e-09
3.726032659e-09
4.200455198e-09
4.747083132e-09
5.324246626e-09
5.874805416e-09
6.326541265e-09
6.59591785e-09
4.359111062e-09
4.704469939e-09
5.210687885e-09
5.852489416e-09
6.59160614e-09
7.371772969e-09
8.115930304e-09
8.726632627e-09
9.090961014e-09
6.105266133e-09
6.57183446e-09
7.255435162e-09
8.121760314e-09
9.119126072e-09
1.017174856e-08
1.117589109e-08
1.200023806e-08
1.249229645e-08
8.510719268e-09
9.139572883e-09
1.006067247e-08
1.122764752e-08
1.257091804e-08
1.398864787e-08
1.53414264e-08
1.64525181e-08
1.711618245e-08
1.181024286e-08
1.265591241e-08
1.389433601e-08
1.546308112e-08
1.726875267e-08
1.91748132e-08
2.099423393e-08
2.248947571e-08
2.338327593e-08
1.631675713e-08
1.745136296e-08
1.91126977e-08
2.121699664e-08
2.363924812e-08
2.619679852e-08
2.86392072e-08
3.064774539e-08
3.184934839e-08
2.244483613e-08
2.396328862e-08
2.618648089e-08
2.900238053e-08
3.224410128e-08
3.566786817e-08
3.893906023e-08
4.163093518e-08
4.324264847e-08
3.073996683e-08
3.276637011e-08
3.57330524e-08
3.949059796e-08
4.381679938e-08
4.838713432e-08
5.275569976e-08
5.635278027e-08
5.850809342e-08
4.191426895e-08
4.460960786e-08
4.855524834e-08
5.355243298e-08
5.930607214e-08
6.538541771e-08
7.119824789e-08
7.598683623e-08
7.885791808e-08
5.688911494e-08
6.046020858e-08
6.568702905e-08
7.23058334e-08
7.992586907e-08
8.797736217e-08
9.567698091e-08
1.020217805e-07
1.058277041e-07
7.684463017e-08
8.155420118e-08
8.844561158e-08
9.716978774e-08
1.072109801e-07
1.178186125e-07
1.279617707e-07
1.363206582e-07
1.41336024e-07
1.032754522e-07
1.094530086e-07
1.184890942e-07
1.299230463e-07
1.43076746e-07
1.569662605e-07
1.702428704e-07
1.811817633e-07
1.877452735e-07
1.380514111e-07
1.461044621e-07
1.578778337e-07
1.727657439e-07
1.898805978e-07
2.079399341e-07
2.251913333e-07
2.393982945e-07
2.479207735e-07
1.834809407e-07
1.939060008e-07
2.091371246e-07
2.283811234e-07
2.504824532e-07
2.73780542e-07
2.960159316e-07
3.143136107e-07
3.252849528e-07
2.423743872e-07
2.557669503e-07
2.753179117e-07
2.999941592e-07
3.283007284e-07
3.581033404e-07
3.86513269e-07
4.098688261e-07
4.238633957e-07
3.181035107e-07
3.351663469e-07
3.600520837e-07
3.914235524e-07
4.273604674e-07
4.651419354e-07
5.011078323e-07
5.306396189e-07
5.483197111e-07
4.146534576e-07
4.362025196e-07
4.675985725e-07
5.071234614e-07
5.523301289e-07
5.997799763e-07
6.448789589e-07
6.818594248e-07
7.039765191e-07
5.366631917e-07
5.636305359e-07
6.028765237e-07
6.522114346e-07
7.085437464e-07
7.675675354e-07
8.235720211e-07
8.69426608e-07
8.968203463e-07
6.894505293e-07
7.228837728e-07
7.714819735e-07
8.324791943e-07
9.02005366e-07
9.747193892e-07
1.043591423e-06
1.099893669e-06
1.133488952e-06
8.790182309e-07
9.200761724e-07
9.79684724e-07
1.054383107e-06
1.139372733e-06
1.228092321e-06
1.311972806e-06
1.380436544e-06
1.421240768e-06
1.112038094e-06
1.161982201e-06
1.2344025e-06
1.325011398e-06
1.427917079e-06
1.535137798e-06
1.636329921e-06
1.718797972e-06
1.767896637e-06
1.395810777e-06
1.45599231e-06
1.54315023e-06
1.652025865e-06
1.775456272e-06
1.903825888e-06
2.024769254e-06
2.123193749e-06
2.181721115e-06
1.738200232e-06
1.810042934e-06
1.913963695e-06
2.04357758e-06
2.190260999e-06
2.342539361e-06
2.485768484e-06
2.60213583e-06
2.671239634e-06
2.147543108e-06
2.232521427e-06
2.355298049e-06
2.508197442e-06
2.680936284e-06
2.859938957e-06
3.027981418e-06
3.164277657e-06
3.245108798e-06
2.632534628e-06
2.732146963e-06
2.875900821e-06
3.054657064e-06
3.256241158e-06
3.464726366e-06
3.66007789e-06
3.81826182e-06
3.911952845e-06
3.202090657e-06
3.317825556e-06
3.484642208e-06
3.69174059e-06
3.924862851e-06
4.165509625e-06
4.390586926e-06
4.572550201e-06
4.680192316e-06
3.865100183e-06
3.998366344e-06
4.19022323e-06
4.428040271e-06
4.695272774e-06
4.970629246e-06
5.2277218e-06
5.435250287e-06
5.557870995e-06
4.630173627e-06
4.782297653e-06
5.001053583e-06
5.271813777e-06
5.57555507e-06
5.887986716e-06
6.179210365e-06
6.413948044e-06
6.552490511e-06
5.505523933e-06
5.677724282e-06
5.925081554e-06
6.230813369e-06
6.573240336e-06
6.924883075e-06
7.252138795e-06
7.515556281e-06
7.670861563e-06
6.498796481e-06
6.692159508e-06
6.969630565e-06
7.312127752e-06
7.695154918e-06
8.08787633e-06
8.45281684e-06
8.746186375e-06
8.918979486e-06
7.616912181e-06
7.832372767e-06
8.14125387e-06
8.522045416e-06
8.94729429e-06
9.382665262e-06
9.786671329e-06
1.011104951e-05
1.030193e-05
8.865934673e-06
9.104262858e-06
9.44561638e-06
9.865946982e-06
1.033472703e-05
1.081400509e-05
1.125817244e-05
1.161439124e-05
1.182382855e-05
1.025096959e-05
1.051276383e-05
1.088740989e-05
1.13482316e-05
1.186153329e-05
1.238565786e-05
1.287079467e-05
1.325946067e-05
1.348779411e-05
1.177610063e-05
1.206178765e-05
1.247030486e-05
1.297227958e-05
1.353077892e-05
1.410037765e-05
1.462701182e-05
1.504851286e-05
1.529595582e-05
1.344436386e-05
1.375420447e-05
1.419693898e-05
1.474045048e-05
1.534452359e-05
1.59599283e-05
1.652832293e-05
1.698284086e-05
1.724948843e-05
1.525775858e-05
1.559185847e-05
1.60689397e-05
1.665411349e-05
1.73038591e-05
1.796512903e-05
1.857530412e-05
1.90628322e-05
1.934867131e-05
1.721729053e-05
1.75756147e-05
1.808697603e-05
1.871370464e-05
1.940897208e-05
2.011592218e-05
2.076768042e-05
2.128804369e-05
2.159296485e-05
1.932304102e-05
1.970543053e-05
2.025083286e-05
2.091880436e-05
2.165922462e-05
2.241145648e-05
2.310441111e-05
2.365728811e-05
2.39810979e-05
2.157425479e-05
2.198044438e-05
2.25595009e-05
2.326822851e-05
2.405324617e-05
2.485017944e-05
2.558378232e-05
2.616872685e-05
2.651116037e-05
2.396943915e-05
2.439907466e-05
2.501127519e-05
2.57601262e-05
2.658903032e-05
2.742993295e-05
2.820350138e-05
2.881996314e-05
2.918069581e-05
2.650646745e-05
2.695912225e-05
2.760385588e-05
2.839207848e-05
2.926403116e-05
3.014804716e-05
3.096078839e-05
3.160813188e-05
3.19867901e-05
2.918268123e-05
2.965787077e-05
3.03344462e-05
3.116119333e-05
3.207525503e-05
3.300142897e-05
3.385246179e-05
3.452998285e-05
3.49261535e-05
3.199498626e-05
3.249218072e-05
3.319984365e-05
3.406419347e-05
3.501934464e-05
3.598664266e-05
3.687501584e-05
3.758195578e-05
3.799519427e-05
3.49399398e-05
3.545857458e-05
3.619652215e-05
3.709749508e-05
3.809265411e-05
3.909998125e-05
4.002468883e-05
4.076024624e-05
4.119008322e-05
3.801382722e-05
3.855331136e-05
3.932070386e-05
4.025727624e-05
4.129131401e-05
4.233752831e-05
4.329752206e-05
4.406086239e-05
4.450680924e-05
4.121272757e-05
4.177245038e-05
4.25684204e-05
4.353953535e-05
4.46112867e-05
4.569521039e-05
4.668940975e-05
4.747967301e-05
4.794122633e-05
4.453256842e-05
4.51119046e-05
4.593556412e-05
4.694013988e-05
4.80484126e-05
4.916884092e-05
5.019614089e-05
5.101244786e-05
5.148909303e-05
4.796917092e-05
4.856748441e-05
4.941793021e-05
5.045486664e-05
5.159844841e-05
5.275415656e-05
5.381343396e-05
5.465489114e-05
5.514610524e-05
5.151828633e-05
5.213493327e-05
5.301125106e-05
5.407943465e-05
5.525709855e-05
5.644684715e-05
5.753696568e-05
5.84026693e-05
5.890792352e-05
5.517562545e-05
5.580995642e-05
5.671122411e-05
5.780953188e-05
5.902004077e-05
6.024258035e-05
6.136239474e-05
6.225143414e-05
6.277019577e-05
5.893688214e-05
5.958824403e-05
6.051353429e-05
6.164083707e-05
6.288294721e-05
6.413702197e-05
6.52853815e-05
6.619684203e-05
6.672857615e-05
6.279775237e-05
6.346548986e-05
6.441387238e-05
6.556903758e-05
6.68415018e-05
6.812585287e-05
6.930160449e-05
7.023456997e-05
7.077874103e-05
6.675394959e-05
6.743740654e-05
6.840795004e-05
6.958984415e-05
7.089141465e-05
7.220478307e-05
7.340677419e-05
7.436032914e-05
7.491640239e-05
7.080121748e-05
7.149973826e-05
7.249151229e-05
7.369900325e-05
7.50284344e-05
7.63695636e-05
7.759664423e-05
7.856987658e-05
7.913731952e-05
7.493534056e-05
7.564827136e-05
7.666034814e-05
7.789230706e-05
7.924835691e-05
8.061599589e-05
8.186702267e-05
8.285902553e-05
8.343730888e-05
7.915215225e-05
7.98788418e-05
8.091029755e-05
8.216560156e-05
8.354703626e-05
8.493994242e-05
8.621377993e-05
8.722365336e-05
8.781225221e-05
8.344754235e-05
8.41873436e-05
8.523726108e-05
8.651479575e-05
8.792039123e-05
8.933733255e-05
9.063285578e-05
9.165970866e-05
9.22581036e-05
8.781746472e-05
8.856973609e-05
8.963720615e-05
9.093586744e-05
9.236441169e-05
9.380416908e-05
9.512026556e-05
9.616321734e-05
9.677089547e-05
9.225794299e-05
9.302204949e-05
9.410617272e-05
9.542486891e-05
9.687516414e-05
9.833653363e-05
9.967210549e-05
0.0001007302878
0.0001013467436
9.676507554e-05
9.754038992e-05
9.864027813e-05
9.997793172e-05
0.0001014487965
0.0001029305913
0.0001042845571
0.0001053571152
0.0001059818515
0.0001013350398
0.0001021209436
0.0001032357214
0.0001045912708
0.0001060815419
0.0001075825944
0.0001089538909
0.0001100399849
0.0001106725135
0.0001059640961
0.0001067599805
0.0001078887865
0.0001092611881
0.0001107697222
0.0001122888855
0.0001136764691
0.0001147752754
0.0001154151177
0.0001106485905
0.0001114538575
0.0001125958459
0.0001139840748
0.0001155097504
0.0001170459001
0.0001184487484
0.0001195594603
0.0001202061481
0.0001153849578
0.0001161990209
0.0001173533623
0.0001187564143
0.0001202981328
0.0001218501684
0.000123267281
0.0001243891101
0.0001250421857
0.0001201697236
0.0001209920083
0.000122157891
0.0001235747835
0.0001251314707
0.0001266983163
0.0001281287163
0.0001292608928
0.0001299199099
0.0001249995054
0.0001258294503
0.0001270060808
0.0001284358541
0.0001300064609
0.0001315870668
0.0001330298014
0.0001341715751
0.0001348360986
0.0001298710146
0.0001307080715
0.0001318946756
0.0001333363933
0.0001349198972
0.0001365132404
0.0001379673813
0.0001391180218
0.0001397876286
0.0001347810567
0.0001356246914
0.0001368205146
0.0001382732647
0.0001398686696
0.0001414737546
0.0001429383992
0.0001440971962
0.000144771475
0.0001397265319
0.0001405762243
0.0001417805324
0.0001432434275
0.0001448497653
0.0001464656243
0.0001479398954
0.0001491061594
0.000149784711
0.0001447044351
0.0001455596797
0.000146771759
0.0001482439371
0.0001498602671
0.0001514859608
0.0001529690073
0.0001541420693
0.0001548245066
0.0001497118559
0.0001505721617
0.0001517913195
0.000153271944
0.0001548973538
0.000156531971
0.0001580229679
0.0001592021799
0.0001598881279
0.0001547459775
0.0001556108684
0.0001568364329
0.0001583246927
0.0001599582983
0.0001616009566
0.0001630991051
0.0001642838397
0.0001649729355
0.0001598040762
0.0001606730909
0.0001619044116
0.0001633995216
0.0001650404672
0.0001666903127
0.0001681948401
0.0001693844905
0.0001700763835
0.000164883521
0.0001657562134
0.0001669926608
0.0001684938614
0.0001701413193
0.0001717975264
0.0001733076858
0.0001745016659
0.0001751960172
0.0001699817724
0.0001708577108
0.0001720986765
0.0001736052335
0.000175258404
0.0001769201753
0.0001784352456
0.0001796329897
0.0001803294724
0.0001750963804
0.000175975148
0.0001772200442
0.0001787312487
0.0001803893601
0.0001820559262
0.0001835752117
0.000184776174
0.0001854744729
0.0001802249834
0.0001811061779
0.0001823544376
0.000183869606
0.0001855319137
0.0001872025328
0.0001887253629
0.0001899290177
0.0001906288291
0.0001853653067
0.0001862485403
0.000187499617
0.0001890180903
0.0001906838772
0.0001923578344
0.0001938835635
0.0001950894044
0.0001957904359
0.000190515161
0.0001914000602
0.0001926534275
0.000194174571
0.0001958431465
0.0001975197542
0.0001990477607
0.0002002553006
0.0002009572711
0.0001956724406
0.0001965586459
0.0001978137972
0.0001993370004
0.0002010077003
0.0002026862968
0.0002042159833
0.000205424754
0.0002061273932
0.0002008351218
0.0002017222874
0.0002029787356
0.0002045034116
0.0002061755973
0.000207855547
0.0002093863393
0.0002105958911
0.0002112989393
0.0002060012609
0.0002068890547
0.0002081463318
0.0002096719168
0.0002113449752
0.0002130256675
0.0002145570146
0.0002157669156
0.0002164701238
0.0002111689928
0.0002120570957
0.0002133147526
0.0002148407053
0.0002165140478
0.0002181948972
0.0002197262703
0.0002209361067
0.0002216392359
0.0002163365287
0.0002172246347
0.0002184822403
0.0002200080418
0.0002216811043
0.0002233615491
0.0002248924416
0.0002261018164
0.0002268046379
0.0002215021543
0.0002223899703
0.0002236471116
0.0002251722644
0.0002268445062
0.0002285240086
0.0002300539352
0.0002312624685
0.0002319647629
0.0002266642284
0.0002275514733
0.0002288077549
0.0002303317827
0.0002320026863
0.0002336807315
0.0002352092276
0.0002364165559
0.0002371181137
0.0002318211805
0.0002327075856
0.0002339626289
0.0002354850762
0.0002371541463
0.0002388302419
0.0002403568636
0.0002415626392
0.00024226326
0.0002369715093
0.0002378568174
0.0002391102607
0.0002406306917
0.0002422974553
0.0002439711308
0.0002454954536
0.0002466993446
0.000247398837
0.0002421137804
0.000242997746
0.0002442492435
0.0002457672424
0.0002474312476
0.0002491020536
0.0002506236726
0.0002518253621
0.0002525235435
0.0002472466251
0.0002481290138
0.0002493782356
0.0002508934053
0.0002525542208
0.0002542217289
0.0002557402578
0.0002569394436
0.0002576361398
0.000252368738
0.0002532493262
0.0002544959577
0.0002560079196
0.0002576651345
0.0002593289362
0.0002608440068
0.0002620404011
0.0002627354462
0.0002574788754
0.00025835745
0.0002596011915
0.0002611095851
0.0002627628078
0.0002644225143
0.0002659337762
0.0002671271049
0.000267820341
0.0002625758535
0.0002634522118
0.0002646927779
0.00026619726
0.0002678461181
0.0002695013593
0.0002710084792
0.0002721984818
0.0002728897588
0.0002676585467
0.0002685324958
0.0002697696152
0.0002712698594
0.000272913999
0.0002745644232
0.0002760670845
0.0002772535134
0.0002779426888
0.0002727258855
0.0002735972422
0.0002748306573
0.0002763263538
0.0002779654385
0.000279610712
0.0002811086141
0.0002822912345
0.000282978173
0.0002777768554
0.0002786454458
0.0002798749119
0.0002813657668
0.0002829994778
0.000284639284
0.0002861321419
0.0002873107312
0.0002879953046
0.0002828104946
0.0002836761537
0.0002849014391
0.0002863871737
0.0002880152089
0.0002896492481
0.000291136792
0.0002923111395
0.0002929932265
0.0002878258926
0.0002886884645
0.0002899093497
0.0002913897004
0.0002930117739
0.0002946397625
0.0002961217372
0.0002972916435
0.0002979711296
0.0002928221886
0.0002936815257
0.0002948978034
0.0002963725209
0.0002979883627
0.0002996100327
0.0003010861973
0.0003022514745
0.0003029282513
0.0002977985702
0.0002986545331
0.0002998660073
0.0003013348566
0.0003029442117
0.0003045593106
0.0003060294379
0.0003071899087
0.0003078638743
0.0003027542714
0.0003036067287
0.000304813215
0.0003062759743
0.0003078786029
0.0003094868926
0.0003109507689
0.0003121062665
0.000312777325
0.0003076885716
0.0003085373998
0.0003097387245
0.0003111951855
0.0003127908618
0.0003143921189
0.0003158495433
0.0003169999111
0.0003176679726
0.0003126007942
0.0003134458772
0.0003146418774
0.0003160918444
0.0003176803567
0.0003192743717
0.000320725156
0.0003218702473
0.0003225352275
0.0003174903053
0.0003183315343
0.0003195220572
0.0003209653473
0.0003225464977
0.0003241330745
0.0003255770428
0.0003267167207
0.0003273785409
0.0003223565125
0.000323193786
0.0003243786891
0.0003258151313
0.000327388735
0.000328967691
0.0003304046796
0.0003315388166
0.0003321974035
0.0003271988641
0.0003280320875
0.0003292112382
0.0003306406735
0.0003322065588
0.0003337777243
0.0003352075812
0.0003363360591
0.000336991345
0.0003320168482
0.0003328459337
0.0003340192089
0.0003354414902
0.0003369994983
0.0003385627165
0.0003399853014
0.0003411080111
0.0003417599335
0.0003368099914
0.0003376348582
0.0003388021446
0.0003402171362
0.0003417671209
0.0003433222477
0.0003447374317
0.0003458542733
0.0003465027751
0.0003415778591
0.0003423984328
0.0003435596265
0.0003449672043
0.0003465090319
0.0003480559359
0.0003494636017
0.0003505744842
0.0003512195134
0.0003463200539
0.0003471362671
0.0003482912735
0.0003496913249
0.0003512248744
0.0003527634365
0.0003541634782
0.0003552683199
0.0003559098297
0.0003510362161
0.0003518480078
0.000352996742
0.0003543891656
0.0003559143284
0.0003574444423
0.0003588367656
0.0003599354937
0.0003605734427
0.0003557260226
0.0003565333386
0.0003576757249
0.000359060431
0.0003605771111
0.0003620986833
0.0003634832052
0.0003645757561
0.0003652101083
0.0003603891869
0.0003611919795
0.0003623279518
0.0003637048622
0.0003652129764
0.000366725926
0.0003681025754
0.0003691888946
0.0003698196192
0.0003650254584
0.0003658236869
0.0003669531886
0.0003683222366
0.0003698217144
0.0003713259732
0.0003726946907
0.0003737747331
0.0003744018048
0.0003696346219
0.0003704282522
0.0003715512364
0.0003729123669
0.0003744031506
0.0003758986634
0.0003772594012
0.000378333131
0.0003789565297
0.0003742164968
0.0003750055015
0.0003761219306
0.0003774751001
0.0003789571445
0.000380443869
0.0003817965909
0.0003828639813
0.0003834836925
0.0003787709356
0.0003795552939
0.0003806651396
0.000382010316
0.0003834835884
0.0003849614943
0.0003863061755
0.0003873672087
0.0003879832228
0.0003832978219
0.0003840775192
0.0003851807623
0.0003865179241
0.0003879824035
0.0003894514726
0.0003907880988
0.0003918427654
0.0003924550777
0.0003877970676
0.0003885720954
0.0003896687248
0.0003909978605
0.0003924535369
0.0003939137615
0.0003952423281
0.0003962906259
0.0003968992358
0.0003922686091
0.0003930389638
0.0003941289758
0.0003954500827
0.0003968969551
0.0003983483367
0.0003996688469
0.0004007107798
0.0004013156903
0.0003967124013
0.0003974780837
0.0003985614802
0.0003998745621
0.0004013126366
0.0004027551832
0.0004040676459
0.0004051032219
0.0004057044378
0.0004011284106
0.000401889424
0.0004029662105
0.0004042712751
0.0004057005616
0.0004071342842
0.0004084387105
0.0004094679387
0.0004100654655
0.0004055166046
0.0004062729529
0.0004073431353
0.0004086401904
0.0004100606979
0.0004114856062
0.0004127820046
0.0004138048916
0.0004143987326
0.0004098769386
0.0004106286235
0.0004116922042
0.0004129812526
0.0004143929835
0.0004158090788
0.0004170974496
0.0004181139943
0.000418704148
0.0004142093388
0.000414956356
0.0004160133283
0.0004172943606
0.0004186973029
0.0004201045706
0.0004213848975
0.0004223950842
0.00042298154
0.0004185136794
0.0004192560138
0.0004203063551
0.0004215793411
0.0004229734579
0.0004243718562
0.000425644096
0.0004266478866
0.0004272306196
0.0004227897538
0.0004235273736
0.0004245710358
0.000425835913
0.0004272211297
0.0004286105762
0.0004298746462
0.0004308719687
0.0004314509335
0.000427037238
0.0004277700866
0.0004288069856
0.0004300636448
0.000431439832
0.0004328201862
0.0004340759478
0.0004350666834
0.0004356418059
0.000431255643
0.0004319836296
0.0004330136309
0.0004342618991
0.0004356288537
0.0004369998958
0.0004382471332
0.0004392310998
0.0004398022672
0.0004354442587
0.0004361672462
0.0004371901475
0.0004384297659
0.0004397871859
0.0004411485916
0.0004423869887
0.00044336392
0.000443930969
0.0004396020836
0.0004403198744
0.000441335385
0.0004425659829
0.0004439134379
0.0004452647472
0.0004464938581
0.0004474633804
0.0004480260828
0.0004437277419
0.0004444400606
0.0004454477767
0.000446668841
0.0004480057373
0.0004493463183
0.000450565533
0.0004515271377
0.0004520851835
0.0004478193858
0.0004485258598
0.000449525236
0.0004507360757
0.0004520616161
0.0004533906238
0.0004545991295
0.000455552141
0.0004561051203
0.000451874585
0.0004525747222
0.0004535650397
0.0004547647462
0.000456077886
0.0004573942162
0.0004585909542
0.0004595344957
0.0004600818778
0.0004558902054
0.0004565833702
0.0004575637019
0.0004587511063
0.0004600505053
0.0004613527456
0.0004625363663
0.0004634693229
0.0004640104351
0.0004598622808
0.0004605476686
0.0004615168433
0.0004626904724
0.0004639744459
0.0004652608264
0.0004664296435
0.0004673506264
0.0004678846327
0.0004637858851
0.0004644624974
0.0004654190647
0.0004665770983
0.0004678435706
0.0004691119173
0.0004702638655
0.0004711711789
0.0004716970611
0.0004676550132
0.0004683216356
0.0004692638341
0.0004704040675
0.0004716505317
0.0004728982272
0.0004740308284
0.0004749224434
0.0004754389867
0.0004714624843
0.0004721176684
0.0004730434019