/*--------------------------------*- C++ -*----------------------------------*\
| =========                 |                                                 |
| \\      /  F ield         | OpenFOAM: The Open Source CFD Toolbox           |
|  \\    /   O peration     | Version:  2212                                  |
|   \\  /    A nd           | Website:  www.openfoam.com                      |
|    \\/     M anipulation  |                                                 |
\*---------------------------------------------------------------------------*/
FoamFile
{
    version     2.0;
    format      ascii;
    arch        "LSB;label=32;scalar=64";
    class       volScalarField;
    location    "20.00000000";
    object      A2_0;
}
// * * * * * * * * * * * * * * * * * * * * * * * * * * * * * * * * * * * * * //

dimensions      [0 0 0 0 0 0 0];

internalField   nonuniform List<scalar> 
3000
(
3.089910641e-22
3.47044956e-22
4.04440732e-22
4.808720544e-22
5.755184404e-22
6.857713392e-22
8.049768922e-22
9.186614808e-22
9.990167702e-22
1.160060754e-21
1.308162399e-21
1.531433274e-21
1.829385735e-21
2.201525286e-21
2.645620407e-21
3.153873437e-21
3.700967138e-21
4.185497956e-21
2.598496742e-21
2.953259345e-21
3.49317403e-21
4.225646587e-21
5.163251301e-21
6.318942173e-21
7.687545175e-21
9.192457048e-21
1.047762234e-20
4.949371811e-21
5.684089984e-21
6.818754438e-21
8.390978386e-21
1.045521883e-20
1.30622351e-20
1.619564981e-20
1.960346831e-20
2.234973192e-20
8.788823639e-21
1.021779175e-20
1.245979686e-20
1.562786205e-20
1.986956653e-20
2.530168649e-20
3.182980747e-20
3.875183998e-20
4.405145229e-20
1.511256444e-20
1.779540866e-20
2.206594157e-20
2.8196666e-20
3.651511224e-20
4.723288828e-20
6.00352267e-20
7.331817838e-20
8.316728095e-20
2.565400553e-20
3.058252928e-20
3.851961694e-20
5.004352911e-20
6.579726504e-20
8.609696191e-20
1.101069386e-19
1.34510953e-19
1.521252638e-19
4.34108515e-20
5.232923352e-20
6.681928329e-20
8.801945924e-20
1.171126034e-19
1.545186485e-19
1.983612017e-19
2.422576547e-19
2.734007709e-19
7.357882041e-20
8.9545604e-20
1.156544558e-19
1.540455513e-19
2.068200418e-19
2.744839676e-19
3.532134219e-19
4.312151671e-19
4.859449806e-19
1.251582588e-19
1.535198248e-19
2.001076092e-19
2.688303523e-19
3.633547132e-19
4.84225843e-19
6.240832917e-19
7.61635244e-19
8.574369662e-19
2.137564443e-19
2.638440727e-19
3.463791033e-19
4.68370436e-19
6.361618772e-19
8.502349158e-19
1.096914087e-18
1.338298584e-18
1.505594261e-18
3.664534406e-19
4.545379683e-19
5.999991443e-19
8.152605534e-19
1.111258386e-18
1.488199687e-18
1.92123759e-18
2.343506008e-18
2.635238543e-18
6.302682376e-19
7.847149168e-19
1.040147431e-18
1.418430937e-18
1.938394693e-18
2.599539028e-18
3.357345702e-18
4.094552139e-18
4.603033116e-18
1.086857846e-18
1.357111786e-18
1.80455943e-18
2.467549044e-18
3.378550334e-18
4.535523833e-18
5.859237927e-18
7.144474821e-18
8.031543157e-18
1.877983129e-18
2.350191484e-18
3.132700696e-18
4.292780981e-18
5.886851879e-18
7.910120814e-18
1.02215306e-17
1.245895302e-17
1.401140286e-17
3.249538717e-18
4.073551131e-18
5.440063322e-18
7.467163174e-18
1.025385504e-17
1.379247459e-17
1.783937753e-17
2.176671452e-17
2.445054785e-17
5.62777991e-18
7.063662571e-18
9.445891693e-18
1.298042328e-17
1.783869037e-17
2.400411136e-17
3.10459276e-17
3.786329458e-17
4.253488587e-17
9.751939678e-18
1.225102155e-17
1.639810654e-17
2.255125481e-17
3.100654514e-17
4.173079192e-17
5.397017924e-17
6.581046147e-17
7.39244895e-17
1.690466042e-17
2.125051394e-17
2.846329687e-17
3.916514909e-17
5.386837503e-17
7.25109325e-17
9.377869853e-17
1.143451008e-16
1.284352004e-16
2.931211024e-17
3.686541775e-17
4.94031185e-17
6.800620147e-17
9.356248078e-17
1.259594412e-16
1.629089769e-16
1.986301651e-16
2.230964916e-16
5.083869041e-17
6.39624191e-17
8.574862409e-17
1.180754138e-16
1.624823888e-16
2.187681161e-16
2.829510098e-16
3.449864624e-16
3.874673207e-16
8.819343483e-17
1.109911305e-16
1.488396235e-16
2.050012916e-16
2.821464658e-16
3.799166632e-16
4.913861625e-16
5.991056888e-16
6.728592305e-16
1.530253794e-16
1.926233503e-16
2.583668203e-16
3.559212454e-16
4.899177413e-16
6.597201126e-16
8.532846149e-16
1.040305262e-15
1.168341618e-15
2.655632457e-16
3.343374793e-16
4.485242411e-16
6.179593114e-16
8.50672554e-16
1.145536127e-15
1.481610116e-15
1.806274207e-15
2.028517495e-15
4.609378033e-16
5.803818115e-16
7.786949495e-16
1.072946611e-15
1.477053682e-15
1.989016233e-15
2.572436144e-15
3.135958575e-15
3.521673148e-15
8.001616406e-16
1.007602725e-15
1.35200318e-15
1.862971309e-15
2.56460865e-15
3.453354418e-15
4.465942772e-15
5.443805367e-15
6.113033763e-15
1.3891956e-15
1.749455844e-15
2.347521366e-15
3.234716943e-15
4.452735807e-15
5.995188885e-15
7.752087093e-15
9.448264954e-15
1.060882667e-14
2.412047609e-15
3.037686781e-15
4.076163097e-15
5.616363677e-15
7.730294406e-15
1.040637558e-14
1.345333067e-14
1.639383672e-14
1.840511974e-14
4.188174895e-15
5.274602409e-15
7.077554461e-15
9.750776219e-15
1.341833331e-14
1.805896071e-14
2.333987047e-14
2.843347683e-14
3.191575289e-14
7.271927364e-15
9.158241507e-15
1.228771077e-14
1.692580823e-14
2.328561329e-14
3.13274291e-14
4.047189971e-14
4.928516196e-14
5.530612356e-14
1.262453963e-14
1.589877692e-14
2.132868383e-14
2.937159187e-14
4.039185878e-14
5.431400427e-14
7.012864894e-14
8.535395716e-14
9.574494859e-14
2.191093574e-14
2.759172293e-14
3.700749618e-14
5.094365082e-14
7.001956857e-14
9.408899635e-14
1.213918698e-13
1.476383565e-13
1.65526055e-13
3.801045958e-14
4.785953417e-14
6.417248439e-14
8.829254652e-14
1.212644438e-13
1.627997856e-13
2.09827042e-13
2.54945319e-13
2.856366245e-13
6.589258774e-14
8.29502083e-14
1.111763486e-13
1.52855946e-13
2.097332292e-13
2.812312969e-13
3.619866813e-13
4.392640371e-13
4.91700991e-13
1.141119886e-13
1.436092623e-13
1.923617222e-13
2.642293009e-13
3.620856291e-13
4.847652362e-13
6.229009741e-13
7.546530739e-13
8.437713087e-13
1.97348001e-13
2.482510406e-13
3.322555401e-13
4.558247956e-13
6.236123362e-13
8.332530147e-13
1.068397169e-12
1.29175925e-12
1.442250217e-12
3.406928672e-13
4.282950218e-13
5.725914379e-13
7.842856356e-13
1.070747323e-12
1.427181979e-12
1.825101844e-12
2.201214621e-12
2.453422618e-12
5.868448218e-13
7.370760738e-13
9.83961376e-13
1.344985244e-12
1.83148406e-12
2.433801186e-12
3.102460327e-12
3.730784122e-12
4.149779489e-12
1.008084041e-12
1.264593866e-12
1.684953343e-12
2.29724885e-12
3.118255404e-12
4.128742916e-12
5.243221324e-12
6.283430799e-12
6.972709184e-12
1.726047519e-12
2.161695049e-12
2.873236336e-12
3.904877617e-12
5.280144896e-12
6.961335067e-12
8.801793715e-12
1.050664714e-11
1.162843738e-11
2.944086366e-12
3.679308203e-12
4.87544629e-12
6.600382899e-12
8.88458007e-12
1.165551162e-11
1.4663963e-11
1.742776379e-11
1.923262361e-11
4.999688751e-12
6.23138809e-12
8.226227726e-12
1.10853765e-11
1.484324924e-11
1.93633427e-11
2.422703418e-11
2.865589995e-11
3.152520145e-11
8.448500856e-12
1.049469252e-11
1.379181746e-11
1.848523829e-11
2.460332504e-11
3.189520145e-11
3.9667076e-11
4.667934279e-11
5.118549043e-11
1.419743236e-11
1.756496394e-11
2.29606697e-11
3.058405996e-11
4.043377616e-11
5.206013598e-11
6.43303302e-11
7.529824984e-11
8.228915774e-11
2.371290803e-11
2.919822936e-11
3.793353631e-11
5.017670384e-11
6.584844577e-11
8.416306759e-11
1.033000651e-10
1.202477791e-10
1.309644251e-10
3.93424226e-11
4.817867515e-11
6.215908128e-11
8.158965956e-11
1.062238408e-10
1.347233017e-10
1.642096207e-10
1.900875697e-10
2.063265469e-10
6.4804293e-11
7.887206507e-11
1.009797936e-10
1.314426503e-10
1.696918133e-10
2.135032798e-10
2.58399008e-10
2.97461912e-10
3.217990771e-10
1.059233052e-10
1.280474874e-10
1.625783822e-10
2.09750572e-10
2.684176773e-10
3.349698623e-10
4.025486851e-10
4.608735866e-10
4.969705016e-10
1.7172071e-10
2.060824195e-10
2.593493259e-10
3.315029501e-10
4.20415648e-10
5.203557891e-10
6.209733189e-10
7.071666682e-10
7.60189021e-10
2.760083797e-10
3.287095862e-10
4.098670238e-10
5.189091777e-10
6.521096016e-10
8.005503901e-10
9.488248217e-10
1.074984203e-09
1.152171376e-09
4.396927087e-10
5.195229879e-10
6.416854837e-10
8.045670975e-10
1.001923082e-09
1.220131533e-09
1.436543575e-09
1.619562e-09
1.730999894e-09
6.940696484e-10
8.135407787e-10
9.952910316e-10
1.235906553e-09
1.525284971e-09
1.842962222e-09
2.156016878e-09
2.419347247e-09
2.579014653e-09
1.085496046e-09
1.262233219e-09
1.529648348e-09
1.881387446e-09
2.301574975e-09
2.759923906e-09
3.209064459e-09
3.585101208e-09
3.812286126e-09
1.68196491e-09
1.94057887e-09
2.329946816e-09
2.839108294e-09
3.443718504e-09
4.099553882e-09
4.739082126e-09
5.272376024e-09
5.59359397e-09
2.58215904e-09
2.956726347e-09
3.518178992e-09
4.248579992e-09
5.111360827e-09
6.042696223e-09
6.947062346e-09
7.698636321e-09
8.150183693e-09
3.928045896e-09
4.465457406e-09
5.267874832e-09
6.307043148e-09
7.528968794e-09
8.842463416e-09
1.011334814e-08
1.116649395e-08
1.179790308e-08
5.922326796e-09
6.686766955e-09
7.824320766e-09
9.291759983e-09
1.101051498e-08
1.285145273e-08
1.462726049e-08
1.609531081e-08
1.697398289e-08
8.852355491e-09
9.93129013e-09
1.153219348e-08
1.359043787e-08
1.599310457e-08
1.85587458e-08
2.102730953e-08
2.306404902e-08
2.428146095e-08
1.312286263e-08
1.463503852e-08
1.687323678e-08
1.974262207e-08
2.308263375e-08
2.664005873e-08
3.005562444e-08
3.286921413e-08
3.454922625e-08
1.930056883e-08
2.140669121e-08
2.45174655e-08
2.849584233e-08
3.311560967e-08
3.802553653e-08
4.273144251e-08
4.660302217e-08
4.891298245e-08
2.817479413e-08
3.1091762e-08
3.539252959e-08
4.088154048e-08
4.724261152e-08
5.39911503e-08
6.045007318e-08
6.575858045e-08
6.892414815e-08
4.083950648e-08
4.485936366e-08
5.077736632e-08
5.831742253e-08
6.704063119e-08
7.628156136e-08
8.511579447e-08
9.237102521e-08
9.669592889e-08
5.880397041e-08
6.431909264e-08
7.242819468e-08
8.27449611e-08
9.46637872e-08
1.072747506e-07
1.193197464e-07
1.292063131e-07
1.350986275e-07
8.414134603e-08
9.167785014e-08
1.027473466e-07
1.168133943e-07
1.330447303e-07
1.502017549e-07
1.665771409e-07
1.80012788e-07
1.880198004e-07
1.196873084e-07
1.299492482e-07
1.450084243e-07
1.64124769e-07
1.861625049e-07
2.094385588e-07
2.316420591e-07
2.498547938e-07
2.607091249e-07
1.693039911e-07
1.832316038e-07
2.036548069e-07
2.295583416e-07
2.593966609e-07
2.908914888e-07
3.209226536e-07
3.455523523e-07
3.602327081e-07
2.382282286e-07
2.570743109e-07
2.84692487e-07
3.19696813e-07
3.599917895e-07
4.025020551e-07
4.430243745e-07
4.762558844e-07
4.960666171e-07
3.335269347e-07
3.589563151e-07
3.962022349e-07
4.433809708e-07
4.976608356e-07
5.549014283e-07
6.094531162e-07
6.541892403e-07
6.808636896e-07
4.646859839e-07
4.989038673e-07
5.489994232e-07
6.124224813e-07
6.853584712e-07
7.622473769e-07
8.35512493e-07
8.955963068e-07
9.314294825e-07
6.443611679e-07
6.902766546e-07
7.574713031e-07
8.425053884e-07
9.40255813e-07
1.043275536e-06
1.141427504e-06
1.221923645e-06
1.269939873e-06
8.893193386e-07
9.507502705e-07
1.040619361e-06
1.154303311e-06
1.284942466e-06
1.422589601e-06
1.55371754e-06
1.661260508e-06
1.725420391e-06
1.22159289e-06
1.303516854e-06
1.423326444e-06
1.574828988e-06
1.748868607e-06
1.932198546e-06
2.106821967e-06
2.250035151e-06
2.335484372e-06
1.669859338e-06
1.778712578e-06
1.937852557e-06
2.139013589e-06
2.370016456e-06
2.61328079e-06
2.844949016e-06
3.034931302e-06
3.148288548e-06
2.271038515e-06
2.415059289e-06
2.625538696e-06
2.891484616e-06
3.196756886e-06
3.518117782e-06
3.824077139e-06
4.074938116e-06
4.224604001e-06
3.072072942e-06
3.261678541e-06
3.538666077e-06
3.888475429e-06
4.289809518e-06
4.712098596e-06
5.113988113e-06
5.443395256e-06
5.639874373e-06
4.131824223e-06
4.380002398e-06
4.742383022e-06
5.199765171e-06
5.724187611e-06
6.275648273e-06
6.800168873e-06
7.229879693e-06
7.486085456e-06
5.52298858e-06
5.845676794e-06
6.316586363e-06
6.910521702e-06
7.590966895e-06
8.30591962e-06
8.985434665e-06
9.54175787e-06
9.873274932e-06
7.33391563e-06
7.750334443e-06
8.357610279e-06
9.122868327e-06
9.998739158e-06
1.091812077e-05
1.179111885e-05
1.250526304e-05
1.293054315e-05
9.670162243e-06
1.020305532e-05
1.097956968e-05
1.19570979e-05
1.307464927e-05
1.42463571e-05
1.535773272e-05
1.626600769e-05
1.680647992e-05
1.265567338e-05
1.333145924e-05
1.43153075e-05
1.555241878e-05
1.69649184e-05
1.844392573e-05
1.98450464e-05
2.09888931e-05
2.166897461e-05
1.643352557e-05
1.728231883e-05
1.851682492e-05
2.006716557e-05
2.183481082e-05
2.368303386e-05
2.54315771e-05
2.685741272e-05
2.770441075e-05
2.116610517e-05
2.222160312e-05
2.375513479e-05
2.567842256e-05
2.786800616e-05
3.015391926e-05
3.231347933e-05
3.407235768e-05
3.511626127e-05
2.703463945e-05
2.83338676e-05
3.021945454e-05
3.25809826e-05
3.526530986e-05
3.806332206e-05
4.070281108e-05
4.284992905e-05
4.412311194e-05
3.423795944e-05
3.582086486e-05
3.811560581e-05
4.098550109e-05
4.424255859e-05
4.763217755e-05
5.082508783e-05
5.341924176e-05
5.49561671e-05
4.299033242e-05
4.489919822e-05
4.766341787e-05
5.111560671e-05
5.502744167e-05
5.909222305e-05
6.291584677e-05
6.601909514e-05
6.78563288e-05
5.351818159e-05
5.579681264e-05
5.909288532e-05
6.320364181e-05
6.785477833e-05
7.268085443e-05
7.721534559e-05
8.089332206e-05
8.307255736e-05
6.605555555e-05
6.874817212e-05
7.263889937e-05
7.748477598e-05
8.295978929e-05
8.863320998e-05
9.395888374e-05
9.827839115e-05
0.0001008357579
8.083833755e-05
8.398813628e-05
8.853461991e-05
9.418968311e-05
0.0001005698126
0.0001071724195
0.0001133653811
0.0001183785238
0.0001213412558
9.809732794e-05
0.0001017446841
0.0001070036843
0.0001135361272
0.0001208955275
0.0001284989778
0.0001356113529
0.0001413552862
0.0001447438277
0.0001180504062
0.0001222305942
0.0001282511644
0.0001357188644
0.0001441120525
0.0001527587596
0.0001608247936
0.0001673234455
0.000171150486
0.0001408942565
0.0001456347055
0.0001524503765
0.0001608833882
0.0001703365303
0.0001800479995
0.0001890830375
0.000196345597
0.0002006152867
0.000166775846
0.0001720856563
0.0001797065164
0.0001891139652
0.0001996320324
0.0002104083442
0.0002204082313
0.0002284285738
0.0002331362164
0.0001957713498
0.0002016477401
0.0002100675078
0.0002204383372
0.0002320046514
0.0002438243519
0.0002547655165
0.0002635223634
0.0002686545575
0.0002278974325
0.0002343260046
0.0002435221547
0.0002548257334
0.0002674025487
0.0002802234436
0.0002920638239
0.000301521604
0.0003070567963
0.0002631101554
0.0002700654598
0.0002800000609
0.0002921874344
0.0003057174599
0.0003194783422
0.0003321591372
0.000342269484
0.0003481788815
0.0003013061315
0.0003087526919
0.0003193739399
0.0003323798501
0.0003467886239
0.0003614118193
0.0003748599387
0.0003855637031
0.0003918124687
0.0003423262224
0.0003502199931
0.0003614643402
0.0003752099117
0.0003904088563
0.0004058033908
0.0004199344105
0.0004311640311
0.0004377126678
0.000385961624
0.0003942517757
0.0004060464936
0.0004204423903
0.0004363323168
0.0004523974655
0.0004671188698
0.0004788009268
0.000485606751
0.0004319619108
0.0004405928096
0.0004528587928
0.0004678086128
0.0004842834226
0.000500912389
0.0005161268739
0.000528184651
0.0005352032542
0.0004800444503
0.0004889576889
0.0005016123014
0.0005170159779
0.0005339663147
0.0005510498051
0.0005666584411
0.0005790143586
0.000586200988
0.0005299045272
0.0005390408764
0.0005520006625
0.0005677576631
0.0005850743047
0.0006025038091
0.0006184089145
0.0006309867089
0.0006382974936
0.0005812255173
0.0005905266888
0.0006037098034
0.0006197219757
0.0006372988171
0.0006549694536
0.0006710770487
0.0006838036178
0.0006911966002
0.0006336885398
0.0006430986917
0.0006564269581
0.0006726009068
0.0006903374177
0.0007081502458
0.0007243720251
0.0007371788953
0.0007446148451
0.000686981133
0.0006964480649
0.0007098485943
0.0007260975314
0.0007439006428
0.0007617644117
0.0007780192125
0.000790843616
0.0007982866246
0.0007408046048
0.0007502806313
0.0007636869921
0.0007799320523
0.000797717472
0.0008155498128
0.0008317645934
0.0008445501732
0.0008519680378
0.0007948798811
0.0008043223936
0.0008176753506
0.0008338464001
0.0008515393937
0.0008692674989
0.0008853778721
0.0008980750502
0.0009054394687
0.0008489517987
0.0008583235463
0.0008715714128
0.0008876074079
0.0009051431103
0.0009227039665
0.0009386543485
0.0009512204063
0.000958507013
0.0009027918992
0.0009120610297
0.0009251596925
0.0009410086606
0.0009583319974
0.000975672252
0.0009914156983
0.001003814624
0.001011002895
0.0009561998622
0.0009653397716
0.0009782524561
0.0009938711791
0.001010936484
0.001028012027
0.001043509828
0.001055711986
0.001062785045
0.001009003772
0.001017992809
0.001030689652
0.00104604313
0.001062813538
0.001079588881
0.00109480999
0.001106791666
0.001113736023
0.001061059433
0.00106988051
0.001082337998
0.001097398768
0.001113845467
0.001130292987
0.001145213334
0.001156956199
0.001163761445
0.001112248965
0.001120889104
0.00113308944
0.00114783681
0.001163938207
0.001180037324
0.001194639074
0.00120612961
0.001212788085
0.001162478885
0.001170928742
0.001182859177
0.001197278424
0.001213019284
0.001228755611
0.001243026411
0.001254255326
0.001260761787
0.001211677864
0.001219931251
0.001231583418
0.001245664997
0.001261035594
0.001276400104
0.001290332341
0.001301293997
0.001307645294
0.001259794323
0.001267847753
0.001279217027
0.001292955813
0.001307951119
0.001322939356
0.001336529457
0.00134722133
0.001353416094
0.001306793995
0.001314646251
0.001325731156
0.001339125741
0.001353744677
0.001368356022
0.001381603806
0.001392025987
0.001398064349
0.001352657544
0.001360309292
0.001371110963
0.001384163018
0.001398407772
0.001412644784
0.001425552876
0.001435707619
0.001441590947
0.001397378321
0.001404831765
0.001415353464
0.00142806717
0.001441942596
0.001455810421
0.001468383732
0.001478275053
0.001484005728
0.001440960293
0.00144821887
0.00145846557
0.001470847119
0.001484360208
0.001497866063
0.00151011133
0.001519744659
0.001525325873
0.001483416171
0.001490484291
0.001500462308
0.001512519477
0.001525678889
0.001538831624
0.001550757031
0.001560138909
0.001565574488
0.001524765741
0.00153164856
0.001541365245
0.001553107029
0.001565922729
0.001578732446
0.001590347282
0.001599485097
0.001604779353
0.001565034412
0.001571737651
0.001581201135
0.001592637447
0.001605120364
0.001617598103
0.001628912475
0.001637814245
0.001642971852
0.001604251977
0.001610781764
0.001620000739
0.001631142151
0.001643303907
0.001655461374
0.001666485974
0.001675160166
0.001680186052
0.001642451542
0.001648814282
0.001657797824
0.001668655354
0.00168050804
0.001692357387
0.001703103295
0.00171155867
0.001716457933
0.001679668625
0.001685870898
0.001694628318
0.001705213256
0.001716769243
0.001728322888
0.001738801412
0.001747046905
0.001751824738
0.001715940406
0.001721988879
0.001730529607
0.001740853375
0.001752125164
0.001763395645
0.001773618191
0.001781662803
0.00178632444
0.001751305107
0.001757206465
0.001765539951
0.001775613989
0.001786614094
0.001797613946
0.001807591912
0.001815444633
0.001819995298
0.001785801477
0.001791562371
0.001799698012
0.001809533689
0.001820274536
0.001831016202
0.00184076089
0.001848430635
0.001852875503
0.001819468388
0.001825095389
0.001833042466
0.001842651006
0.001853144859
0.001863640612
0.001873163168
0.001880658719
0.001885002889
0.001852344495
0.001857844061
0.001865611696
0.001875004125
0.001885263025
0.001895524909
0.001904836266
0.001912166236
0.001916414708
0.001884467976
0.001889846428
0.001897443544
0.001906630645
0.001916666364
0.001926706151
0.001935816989
0.00194298979
0.001947147445
0.001915876324
0.001921139825
0.001928575118
0.001937567401
0.001947391407
0.001957220562
0.001966141279
0.001973165097
0.001977236683
0.001946606186
0.001951760725
0.001959042648
0.001967850321
0.001977473755
0.001987103408
0.001995844096
0.002002726875
0.002006716999
0.001976693243
0.001981744624
0.001988881369
0.001997514326
0.002006947977
0.002016388908
0.002024959339
0.002031708766
0.002035621885
0.002006172113
0.002011125952
0.00201812544
0.002026593245
0.002035847542
0.002045110167
0.002053519778
0.002060143278
0.002063983694
0.002035076295
0.002039938011
0.002046807886
0.002055119765
0.002064204769
0.00207329913
0.002081557021
0.002088061747
0.002091833608
0.002063438115
0.002068212928
0.002074960553
0.002083125393
0.002092050789
0.002100986556
0.002109101482
0.002115494319
0.002119201611
0.002091288704
0.002095981635
0.002102614091
0.002110640438
0.002119415537
0.002128202001
0.002136182374
0.002142469931
0.002146116484
0.002118657985
0.002123273857
0.002129797944
0.002137694
0.00214632774
0.002154973814
0.002162827704
0.002169016322
0.002172605806
0.002145574667
0.002150118106
0.002156540343
0.002164313973
0.002172814917
0.002181329146
0.002189064282
0.002195160032
0.002198695962
0.002172066253
0.002176541688
0.002182868318
0.002190527051
0.002198903399
0.002207293957
0.002214917734
0.002220926423
0.002224412159
0.002198159048
0.002202570715
0.00220880771
0.002216358746
0.002224618336
0.002232893036
0.00224041252
0.002246339694
0.002249778447
0.002223878178
0.002228230126
0.002234383191
0.002241833406
0.002249983723
0.002258150023
0.002265571957
0.002271422909
0.002274817738
0.002249247616
0.002253543707
0.002259618285
0.002266974239
0.002275022421
0.002283087433
0.002290418245
0.002296198018
0.002299551841
0.0022742902
0.002278534118
0.002284535397
0.002291803342
0.002299756189
0.002307726686
0.002314972497
0.002320685891
0.002324001482
0.00229902767
0.002303222921
0.002309155839
0.002316341726
0.002324205709
0.002332088135
0.002339254765
0.002344906345
0.002348186341
0.00232348069
0.002327630609
0.002333499863
0.002340609348
0.002348390619
0.002356191098
0.002363284076
0.002368878177
0.002372125084
0.002347668882
0.002351776638
0.002357586691
0.002364625147
0.002372329547
0.002380053891
0.002387078465
0.002392619199
0.002395835393
0.00237161086
0.00237567946
0.002381434545
0.002388407071
0.002396040139
0.002403693859
0.002410655004
0.002416146268
0.002419334
0.00239532426
0.002399356556
0.002405060685
0.002411972111
0.002419539096
0.002427127414
0.00243402984
0.002439475324
0.002442636724
0.002418825775
0.002422824467
0.002428481441
0.00243533634
0.00244284221
0.002450370063
0.002457218226
0.002462621419
0.0024657585
0.00244213119
0.002446098831
0.002451712245
0.002458514941
0.00246596439
0.002473436448
0.002480234557
0.002485598753
0.002488713418
0.002465255413
0.002469194416
0.002474767664
0.002481522241
0.002488919706
0.002496340374
0.002503092401
0.00250842071
0.002511514753
0.002488212508
0.002492125151
0.002497661437
0.00250437175
0.002511721411
0.002519094846
0.002525804536
0.002531099889
0.002534174998
0.002511015732
0.002514904163
0.002520406507
0.002527076187
0.002534381985
0.0025417121
0.002548382981
0.002553648134
0.002556705902
0.002533677565
0.002537543806
0.002543015052
0.002549647516
0.002556913161
0.002564203638
0.002570839025
0.002576076573
0.002579118494
0.002556209743
0.002560055695
0.002565498517
0.002572096981
0.002579325957
0.002586580256
0.002593183266
0.002598395645
0.002601423123
0.00257862329
0.00258245074
0.00258786765
0.002594435131
0.002601630712
0.002608852081
0.002615425636
0.002620615129
0.002623629481
0.002600928549
0.002604739174
0.002610132528
0.002616671857
0.002623837111
0.002631028594
0.002637575434
0.002642744183
0.002645746642
0.002623135213
0.002626930584
0.00263230259
0.00263881642
0.00264595422
0.002653118667
0.002659641355
0.002664791362
0.002667783081
0.002645252354
0.002649033942
0.002654386667
0.002660877478
0.002667990512
0.002675130587
0.002681631521
0.002686764656
0.002689746713
0.002667288455
0.002671057634
0.002676393008
0.002682863117
0.002689953896
0.002697072088
0.002703553503
0.002708671514
0.002711644913
0.002689251434
0.002693009486
0.00269832931
0.002704780881
0.002711851745
0.002718950373
0.002725414355
0.002730518867
0.002733484545
0.002711148671
0.002714896792
0.002720202746
0.002726637792
0.002733690921
0.002740772144
0.002747220633
0.002752313159
0.002755271988
0.002732987038
0.002736726341
0.002742019986
0.002748440381
0.002755477802
0.002762543627
0.002768978423
0.00277406037
0.002777013156
0.002754772922
0.00275850444
0.002763787226
0.002770194708
0.002777218302
0.002784270589
0.002790693365
0.002795766033
0.002798713525
0.002776512247
0.002780236937
0.002785510208
0.002791906389
0.002798917896
0.002805958369
0.002812370668
0.002817435262
0.002820378153
0.002798210495
0.002801929243
0.002807194241
0.002813580609
0.002820581639
0.002827611887
0.002834015137
0.002839072766
0.002842011693
0.002819872729
0.002823586353
0.002828844224
0.002835222151
0.002842214185
0.002849235671
0.002855631182
0.002860682867
0.002863618416
0.00284150361
0.002845212859
0.002850464656
0.002856835401
0.002863819798
0.002870833864
0.002877222837
0.002882269513
0.002885202219
0.002863107408
0.002866812971
0.002872059656
0.002878424371
0.002885402371
0.002892410241
0.002898793771
0.002903836286
0.002906766636
0.00288468802
0.002888390522
0.00289363297
0.002899992701
0.002906965431
0.002913968213
0.002920347288
0.00292538641
0.002928314844
0.002906248972
0.002909948977
0.002915187979
0.002921543667
0.002928512139
0.002935510828
0.002941886335
0.002946922749
0.002949849658
0.002927793424
0.002931491438
0.002936727698
0.002943080182
0.002950045295
0.00295704077
0.002963413491
0.0029684478
0.002971373527
0.002949324168
0.002953020634
0.002958254769
0.002964604783
0.00297156732
0.002978560346
0.002984930955
0.002989963677
0.002992888517
0.002970843613
0.002974538912
0.002979771453
0.00298611962
0.002993080244
0.003000071462
0.003006440521
0.003011472085
0.003014396278
0.002992353769
0.002996048216
0.003001279596
0.003007626426
0.00301458567
0.003021575592
0.003027943543
0.003032974279
0.003035898011
0.003013856211
0.003017550049
0.003022780599
0.003029126475
0.003036084733
0.003043073725
0.003049440877
0.00305447101
0.0030573944
0.003035352033
0.003039045426
0.003044275365
0.003050620528
0.003057578037
0.003064566305
0.003070932816
0.003075962448
0.003078885546
0.00305684179
0.003060534809
0.003065764225
0.003072108757
0.003079065574
0.003086053138
0.003092418991
0.003097448085
0.003100370855
0.003078325407
0.003082018023
0.003087246852
0.003093590648
0.003100546619
0.003107533281
0.003113898257
0.003118926609
0.003121848919
0.003099802081
0.003103494138
0.003108722142
0.003115064877
0.003122019598
0.003129004905
0.003135368541
0.00314039575
0.003143317349
0.003121270143
0.003124961342
0.003130188071
0.003136529156
0.003143481931
0.003150465118
0.003156826664
0.003161852092
0.003164772589
0.003142726903
0.003146416769
0.003151641521
0.003157980055
0.003164929828
0.003171909766
0.003178268121
0.003183290849
0.003186209683
0.003164168455
0.003167856305
0.003173078074
0.003179412781
0.003186358074
0.003193333187
0.003199686835
0.003204705602
0.003207622008
0.003185589453
0.003189274353
0.003194491777
0.003200820929
0.003207759752
0.003214727939
0.003221074865
0.003226088003
0.003229000974
0.003206982857
0.003210663578
0.003215874862
0.003222196196
0.003229125958
0.003236084489
0.003242422086
0.003247427446
0.003250335687
0.003228339646
0.003232014607
0.00323721745
0.003243528076
0.003250445471
0.003257390876
0.003263715842
0.003268710707
0.003271612586
0.003249648504
0.003253315714
0.003258507224
0.003264803513
0.003271704405
0.003278632355
0.003284940579
0.003289921575
0.003292815067
0.003270895491
0.003274552484
0.003279729084
0.003286006558
0.003292885856
0.003299791029
0.003306077472
0.003311040469
0.0033139231
0.003292063703
0.003295707469
0.003300864803
0.003307118017
0.003313969539
0.003320845495
0.003327104064
0.003332044082
0.003334912871
0.003313132934
0.003316759855
0.003321892689
0.003328115112
0.003334931461
0.003341770503
0.003347993938
0.003352905049
0.003355756454
0.003334079362
0.003337685147
0.003342787278
0.003348971184
0.003355743623
0.003362536684
0.003368716446
0.003373591692
0.00337642156
0.003354875276
0.0033584549
0.003363519077
0.00336965545
0.003376373803
0.003383110339
0.00338923652
0.003394067845
0.003396871377
0.003375488866
0.003379036525
0.003384054388
0.003390132847
0.003396785423
0.003403453348
0.003409514613
0.003414292816
0.00341706454
0.003395884112
0.003399393196
0.003404355231
0.003410363989
0.003416937543
0.003423523197
0.003429506767
0.003434221497
0.003436955266
0.003416020782
0.003419483867
0.003424379408
0.003430305276
0.003436785019
0.003443273191
0.003449164871
0.003453804658
0.003456493674
0.003435854582
0.003439263452
0.003444080717
0.003449909156
0.003456278833
0.003462652845
0.003468437118
0.003472989457
0.003475626327
0.003455337468
0.003458683176
0.003463409353
0.003469124594
0.00347536662
0.003481608494
0.003487268684
0.003491720178
0.003494297
0.003474418148
0.003477691109
0.003482312502
0.003487897732
0.003493993423
0.00350008412
0.003505602633
0.003509939197
0.00351244769
0.00349304279
0.003496232917
0.00350073515
0.003506172776
0.003512102651
0.0035180224
0.003523381047
0.003527588177
0.003530019846
0.003511155917
0.003514252809
0.00351862109
0.003523893076
0.003529637246
0.003535365965
0.003540546356
0.003544609464
0.003546955801
0.003528701514
0.003531694673
0.003535914121
0.003541002395
0.003546541035
0.003552058815
0.003557042831
0.00356094763
0.003563200346
0.003545624291
0.003548503383
0.003552559404
0.003557446329
0.003562760206
0.003568047865
0.003572818182
0.003576551109
0.003578702394
0.003561871084
0.003564626227
0.003568504925
0.003573173811
0.003578244863
0.003583284543
0.003587825179
0.003591373845
0.003593416628
0.003577392329
0.003580014397
0.003583703013
0.00358813865
0.003592950575
0.003597726341
0.003602023216
0.00360537685
0.003607305061
0.003592143552
0.003594624483
0.003598111823
0.003602301012
0.003606839845
0.003611338263
0.00361537972
0.003618529576
0.003620338382
0.003606086795
0.003608419876
0.003611696722
0.003615628753
0.003619883394
0.003624094045
0.003627871305
0.003630811011
0.003632497011
0.003619191882
0.003621372005
0.003624431465
0.003628098536
0.003632061177
0.003635977068
0.003639484578
0.003642210393
0.003643771757
0.003631437469
0.003633461331
0.003636299106
0.003639696628
0.003643363062
0.003646980899
0.003650216551