/*--------------------------------*- C++ -*----------------------------------*\
| =========                 |                                                 |
| \\      /  F ield         | OpenFOAM: The Open Source CFD Toolbox           |
|  \\    /   O peration     | Version:  2212                                  |
|   \\  /    A nd           | Website:  www.openfoam.com                      |
|    \\/     M anipulation  |                                                 |
\*---------------------------------------------------------------------------*/
FoamFile
{
    version     2.0;
    format      ascii;
    arch        "LSB;label=32;scalar=64";
    class       volScalarField;
    location    "20.00000000";
    object      A2CH3-2_0;
}
// * * * * * * * * * * * * * * * * * * * * * * * * * * * * * * * * * * * * * //

dimensions      [0 0 0 0 0 0 0];

internalField   nonuniform List<scalar> 
3000
(
2.598507832e-21
2.918527905e-21
3.401206546e-21
4.043967571e-21
4.839911e-21
5.767099813e-21
6.769577336e-21
7.725625422e-21
8.401385597e-21
9.755709146e-21
1.100119276e-20
1.287882364e-20
1.538450089e-20
1.851406594e-20
2.224875243e-20
2.652298461e-20
3.112385319e-20
3.519858945e-20
2.185245747e-20
2.48358882e-20
2.937638394e-20
3.553622481e-20
4.34211561e-20
5.314011621e-20
6.464959297e-20
7.730537924e-20
8.811317247e-20
4.1622502e-20
4.780122738e-20
5.734336251e-20
7.056522141e-20
8.792476827e-20
1.098488707e-19
1.361997994e-19
1.648583657e-19
1.879534831e-19
7.391096039e-20
8.592808682e-20
1.047825725e-19
1.314249021e-19
1.670961653e-19
2.127784078e-19
2.676776348e-19
3.25889514e-19
3.704573933e-19
1.270914262e-19
1.496532151e-19
1.855669149e-19
2.371241796e-19
3.070794251e-19
3.972122012e-19
5.048754245e-19
6.165804439e-19
6.99407995e-19
2.157412859e-19
2.571884592e-19
3.2393661e-19
4.208487089e-19
5.533321561e-19
7.240455556e-19
9.259611203e-19
1.131190408e-18
1.279320648e-18
3.650701928e-19
4.400706872e-19
5.619269712e-19
7.402130841e-19
9.848763156e-19
1.299448155e-18
1.66814879e-18
2.037302703e-18
2.299205485e-18
6.187723286e-19
7.530474294e-19
9.72613798e-19
1.295469567e-18
1.739284685e-18
2.308314776e-18
2.970402113e-18
3.626369667e-18
4.086628367e-18
1.052537476e-18
1.291048386e-18
1.682835455e-18
2.260769827e-18
3.05568683e-18
4.072170992e-18
5.248323487e-18
6.405087553e-18
7.210746705e-18
1.797617407e-18
2.218836942e-18
2.912927841e-18
3.938832511e-18
5.34990015e-18
7.150179909e-18
9.224665879e-18
1.125462548e-17
1.266152388e-17
3.081746026e-18
3.822506256e-18
5.045784126e-18
6.856057652e-18
9.345296381e-18
1.251524148e-17
1.615693943e-17
1.970806975e-17
2.216143875e-17
5.300336659e-18
6.599179471e-18
8.747277991e-18
1.192851055e-17
1.630122465e-17
2.186121819e-17
2.823410824e-17
3.44337575e-17
3.870990535e-17
9.140096323e-18
1.141283786e-17
1.517571673e-17
2.075122847e-17
2.841243194e-17
3.814217583e-17
4.927414995e-17
6.008254455e-17
6.754247986e-17
1.57931845e-17
1.976429233e-17
2.634492227e-17
3.610079339e-17
4.950637426e-17
6.652136097e-17
8.595951236e-17
1.047754547e-16
1.178310176e-16
2.73274894e-17
3.425714683e-17
4.574903843e-17
6.27962422e-17
8.623135032e-17
1.159899083e-16
1.500229521e-16
1.830504894e-16
2.056205925e-16
4.732766958e-17
5.940294269e-17
7.943665994e-17
1.091608396e-16
1.500171739e-16
2.018662174e-16
2.610854397e-16
3.184171215e-16
3.577035777e-16
8.201041681e-17
1.03026825e-16
1.379023654e-16
1.896481993e-16
2.607542461e-16
3.509414264e-16
4.538704111e-16
5.534430608e-16
6.216792104e-16
1.421623069e-16
1.787094214e-16
2.393664136e-16
3.293652634e-16
4.530142724e-16
6.097916875e-16
7.886461921e-16
9.616024722e-16
1.080095301e-15
2.465046382e-16
3.100253235e-16
4.154630199e-16
5.719084682e-16
7.868278757e-16
1.059275029e-15
1.370007754e-15
1.670410505e-15
1.876163789e-15
4.275356795e-16
5.379016667e-16
7.211160624e-16
9.929731042e-16
1.366420297e-15
1.839763659e-15
2.37951944e-15
2.901215989e-15
3.258465211e-15
7.416760692e-16
9.333967496e-16
1.251689392e-15
1.72398946e-15
2.372753505e-15
3.194966812e-15
4.132386477e-15
5.038270174e-15
5.658511772e-15
1.286890142e-15
1.619895285e-15
2.172774969e-15
2.993173707e-15
4.120037567e-15
5.548016368e-15
7.175826415e-15
8.748604919e-15
9.825346077e-15
2.233294402e-15
2.811661752e-15
3.771932649e-15
5.196822576e-15
7.153859895e-15
9.633559846e-15
1.245982504e-14
1.519013697e-14
1.705912562e-14
3.876326383e-15
4.880808891e-15
6.548553312e-15
9.023107297e-15
1.242150702e-14
1.672693377e-14
2.163329202e-14
2.637231941e-14
2.961604462e-14
6.729080708e-15
8.473587979e-15
1.136987585e-14
1.566693986e-14
2.156746553e-14
2.90415079e-14
3.755702329e-14
4.578050715e-14
5.140848488e-14
1.168265115e-14
1.471231433e-14
1.974183708e-14
2.720284289e-14
3.744595733e-14
5.041745051e-14
6.519235255e-14
7.945661762e-14
8.921653746e-14
2.028448031e-14
2.554588785e-14
3.427911199e-14
4.723166245e-14
6.500908365e-14
8.751399432e-14
1.131378254e-13
1.378664572e-13
1.547806469e-13
3.52210922e-14
4.435756922e-14
5.951976805e-14
8.200063202e-14
1.128435098e-13
1.5186957e-13
1.96280182e-13
2.391156375e-13
2.684003663e-13
6.115437647e-14
7.701762146e-14
1.033353681e-13
1.423401524e-13
1.95823898e-13
2.634527682e-13
3.403545812e-13
4.144710474e-13
4.651052375e-13
1.061679815e-13
1.337031767e-13
1.793668028e-13
2.470048583e-13
3.396814649e-13
4.567618597e-13
5.897575136e-13
7.177970532e-13
8.051816722e-13
1.842633385e-13
2.320367803e-13
3.11220154e-13
4.28418361e-13
5.888401857e-13
7.912556905e-13
1.020863347e-12
1.24158716e-12
1.392016474e-12
3.196547269e-13
4.02482014e-13
5.396682439e-13
7.42509566e-13
1.019791739e-12
1.369089498e-12
1.764572345e-12
2.144001342e-12
2.402104532e-12
5.541337138e-13
6.975823619e-13
9.349543716e-13
1.285465269e-12
1.763783413e-12
2.36505726e-12
3.044181917e-12
3.694057566e-12
4.135034085e-12
9.596420806e-13
1.207703879e-12
1.617695087e-12
2.222076394e-12
3.045014033e-12
4.076706802e-12
5.238380248e-12
6.34636952e-12
7.095822836e-12
1.659627953e-12
2.087704788e-12
2.794153371e-12
3.833327773e-12
5.244362552e-12
7.007367643e-12
8.984848081e-12
1.086324539e-11
1.212882201e-11
2.865108347e-12
3.601811957e-12
4.815294559e-12
6.595569031e-12
9.004612048e-12
1.200210336e-11
1.534847084e-11
1.85114483e-11
2.063242971e-11
4.935160537e-12
6.19855304e-12
8.274772442e-12
1.131085743e-11
1.540214303e-11
2.046742028e-11
2.609061077e-11
3.137459505e-11
3.489820015e-11
8.477635608e-12
1.063479389e-11
1.416987068e-11
1.931906263e-11
2.62234418e-11
3.472128983e-11
4.409366508e-11
5.284146447e-11
5.863805562e-11
1.451545825e-11
1.817910223e-11
2.416291661e-11
3.283866046e-11
4.440417927e-11
5.854240307e-11
7.40200193e-11
8.835724287e-11
9.77911081e-11
2.475874032e-11
3.094169986e-11
4.100080452e-11
5.550692058e-11
7.471622322e-11
9.801879252e-11
1.233188209e-10
1.46561423e-10
1.617396655e-10
4.204563932e-11
5.240380167e-11
6.917970811e-11
9.322415336e-11
1.248265543e-10
1.628389662e-10
2.037409178e-10
2.409861367e-10
2.651159631e-10
7.104894488e-11
8.825670388e-11
1.159843759e-10
1.554544103e-10
2.069053891e-10
2.682275306e-10
3.335862896e-10
3.925570119e-10
4.304521448e-10
1.193954482e-10
1.477152153e-10
1.930912208e-10
2.572012775e-10
3.400339608e-10
4.378075993e-10
5.409956618e-10
6.332320488e-10
6.920231511e-10
1.994172622e-10
2.455469024e-10
3.190077898e-10
4.219685643e-10
5.537624578e-10
7.077820538e-10
8.687175453e-10
1.011241926e-09
1.101365191e-09
3.308559767e-10
4.051657787e-10
5.227361213e-10
6.861405172e-10
8.933054083e-10
1.132975964e-09
1.380945658e-09
1.598570217e-09
1.735134373e-09
5.449812819e-10
6.632863344e-10
8.492046231e-10
1.105386639e-09
1.427048798e-09
1.795488014e-09
2.173045508e-09
2.50155098e-09
2.706218096e-09
8.907774448e-10
1.076834085e-09
1.367226862e-09
1.763928556e-09
2.257298533e-09
2.81697934e-09
3.385293849e-09
3.875786098e-09
4.179348666e-09
1.444109657e-09
1.733079597e-09
2.181035676e-09
2.787822547e-09
3.535547515e-09
4.376009578e-09
5.222168336e-09
5.947024743e-09
6.392924478e-09
2.321130001e-09
2.764328614e-09
3.446834264e-09
4.363840853e-09
5.484010393e-09
6.732346447e-09
7.979283734e-09
9.040241112e-09
9.689358896e-09
3.697651683e-09
4.368996057e-09
5.396339725e-09
6.766117451e-09
8.425813418e-09
1.026087228e-08
1.20808246e-08
1.361994818e-08
1.455710349e-08
5.836857402e-09
6.841566728e-09
8.370021945e-09
1.039351463e-08
1.282708823e-08
1.549864749e-08
1.813133414e-08
2.034585693e-08
2.168860805e-08
9.128579969e-09
1.061487456e-08
1.286373927e-08
1.582174147e-08
1.935537566e-08
2.320993981e-08
2.698706974e-08
3.014942326e-08
3.205997959e-08
1.414459043e-08
1.631943421e-08
1.959387272e-08
2.387573735e-08
2.896030238e-08
3.447566716e-08
3.985390808e-08
4.433876051e-08
4.704011768e-08
2.171472141e-08
2.486467629e-08
2.958626699e-08
3.572866039e-08
4.298434081e-08
5.081657104e-08
5.842203135e-08
6.474258067e-08
6.853999393e-08
3.303275969e-08
3.755213629e-08
4.430010128e-08
5.303906025e-08
6.331497237e-08
7.436100054e-08
8.504875782e-08
9.390544929e-08
9.921546644e-08
4.98031455e-08
5.623165352e-08
6.579785518e-08
7.813824954e-08
9.259213778e-08
1.080736008e-07
1.230074274e-07
1.353531898e-07
1.427425136e-07
7.44420548e-08
8.351511957e-08
9.69775799e-08
1.142859793e-07
1.344907623e-07
1.560660681e-07
1.768249881e-07
1.939524782e-07
2.041899447e-07
1.103525024e-07
1.230684589e-07
1.418895348e-07
1.660182005e-07
1.94104196e-07
2.24018093e-07
2.527386296e-07
2.763967904e-07
2.905229105e-07
1.622993371e-07
1.800090541e-07
2.061663539e-07
2.396185297e-07
2.784630065e-07
3.197459525e-07
3.593118846e-07
3.918615974e-07
4.112814767e-07
2.369184607e-07
2.614446835e-07
2.97605345e-07
3.437552533e-07
3.972347627e-07
4.539685089e-07
5.082638393e-07
5.528854656e-07
5.79492712e-07
3.434054363e-07
3.77201425e-07
4.269537841e-07
4.903391645e-07
5.636652927e-07
6.413364261e-07
7.155820807e-07
7.765516432e-07
8.128933178e-07
4.944426607e-07
5.408028646e-07
6.089642425e-07
6.956751875e-07
7.958408677e-07
9.018105947e-07
1.00301171e-06
1.086067833e-06
1.135563655e-06
7.07442784e-07
7.707824445e-07
8.638076513e-07
9.820025357e-07
1.118373971e-06
1.262501039e-06
1.400040137e-06
1.512870808e-06
1.580103981e-06
1.006208792e-06
1.092434075e-06
1.218955996e-06
1.379544031e-06
1.56464375e-06
1.760108733e-06
1.946530914e-06
2.099417918e-06
2.190520164e-06
1.423136193e-06
1.540132238e-06
1.711674633e-06
1.929215983e-06
2.179755944e-06
2.444149194e-06
2.696198781e-06
2.902868658e-06
3.026028614e-06
2.002111202e-06
2.160382789e-06
2.392296275e-06
2.686184591e-06
3.024423951e-06
3.381176034e-06
3.721160096e-06
3.999903653e-06
4.166035581e-06
2.802289619e-06
3.015797621e-06
3.328481958e-06
3.724489e-06
4.180008387e-06
4.660260233e-06
5.117832027e-06
5.492968932e-06
5.716587263e-06
3.902970351e-06
4.190214947e-06
4.61070212e-06
5.142978862e-06
5.754979791e-06
6.400007365e-06
7.014479444e-06
7.518257951e-06
7.818611119e-06
5.409797048e-06
5.795205068e-06
6.359186763e-06
7.07282616e-06
7.89307596e-06
8.757395889e-06
9.580702987e-06
1.025573303e-05
1.06582548e-05
7.46252543e-06
7.978200994e-06
8.732585733e-06
9.686853098e-06
1.07833947e-05
1.193867408e-05
1.303910097e-05
1.394141347e-05
1.44795451e-05
1.02445706e-05
1.0932461e-05
1.193853405e-05
1.321085268e-05
1.467257362e-05
1.621243684e-05
1.767919386e-05
1.888199135e-05
1.95994208e-05
1.399448411e-05
1.490899116e-05
1.624621547e-05
1.793694605e-05
1.987903786e-05
2.192478673e-05
2.38734386e-05
2.547154537e-05
2.642486103e-05
1.901938769e-05
2.023041189e-05
2.200084147e-05
2.423880211e-05
2.680902242e-05
2.951615765e-05
3.209477748e-05
3.420960123e-05
3.547112455e-05
2.571018836e-05
2.730652345e-05
2.963969334e-05
3.258822031e-05
3.597370859e-05
3.953895526e-05
4.293456832e-05
4.571913668e-05
4.737995186e-05
3.455808919e-05
3.665098392e-05
3.970899104e-05
4.35721542e-05
4.800631572e-05
5.26743688e-05
5.711897741e-05
6.076280475e-05
6.293552411e-05
4.617149437e-05
4.88980725e-05
5.288039577e-05
5.790872059e-05
6.367698891e-05
6.974613392e-05
7.55217642e-05
8.025457058e-05
8.307538784e-05
6.129191132e-05
6.481795491e-05
6.996499999e-05
7.645925647e-05
8.390316123e-05
9.172887117e-05
9.917019997e-05
0.0001052635471
0.0001088929862
8.080597606e-05
8.532714622e-05
9.192187609e-05
0.0001002347279
0.0001097527356
0.0001197474992
0.0001292407703
0.0001370065199
0.0001416282359
0.0001057511377
0.0001114925764
0.000119859311
0.0001303928433
0.000142436429
0.0001550644325
0.0001670413343
0.0001768258947
0.0001826429352
0.0001373125223
0.0001445255632
0.0001550246084
0.0001682226375
0.0001832863033
0.0001990517021
0.0002139771363
0.0002261507218
0.0002333788369
0.0001768068859
0.0001857623869
0.0001987797518
0.0002151139846
0.0002337183225
0.0002531463365
0.0002714995242
0.0002864400999
0.0002952979643
0.0002256513419
0.0002366293165
0.0002525611433
0.0002725108708
0.0002951784958
0.0003187893343
0.0003410384015
0.0003591105003
0.0003698069763
0.0002853157753
0.000298591489
0.0003178235513
0.0003418494837
0.000369074704
0.0003973513277
0.0004239222853
0.0004454512253
0.0004581696906
0.0003572599969
0.0003730873523
0.0003959709436
0.0004244850305
0.0004566995244
0.0004900516492
0.0005212937117
0.0005465358115
0.0005614136333
0.000442859119
0.0004614528855
0.0004882795213
0.0005216140752
0.0005591527614
0.0005978819489
0.0006340341081
0.0006631468531
0.0006802525157
0.0005433227519
0.0005648417836
0.0005958200073
0.0006342006786
0.000677273886
0.0007215480412
0.0007627181502
0.0007957444957
0.0008151070655
0.0006596148731
0.000684148645
0.0007193863245
0.0007629132523
0.0008115906106
0.0008614358639
0.0009076030961
0.0009445515872
0.0009661846726
0.0007923817101
0.0008199424902
0.0008594377481
0.000908078166
0.0009622853147
0.001017602573
0.001068723011
0.001109559289
0.001133439863
0.0009418954396
0.0009724190231
0.001016064556
0.001069664986
0.001129251206
0.001189925633
0.001245883834
0.001290510088
0.001316578532
0.001108023733
0.001141382093
0.001189012052
0.001247410181
0.001312198938
0.001378038015
0.001438646204
0.00148690687
0.001515070476
0.001290380324
0.001326454276
0.001377896666
0.001440869302
0.001510605875
0.001581341481
0.001646345558
0.001698034447
0.001728171993
0.001488448233
0.001527080357
0.001582107165
0.001649368197
0.001723729663
0.001799028734
0.001868118917
0.00192298822
0.001954955293
0.001701481644
0.001742480276
0.001800816423
0.001872026516
0.001950635156
0.002030113602
0.002102937122
0.002160707332
0.002194341965
0.001928528181
0.001971675206
0.002033010137
0.002107790272
0.002190228586
0.002273466094
0.002349640224
0.002410010035
0.002445138248
0.002168464695
0.002213524213
0.002277523985
0.002355469521
0.002441295091
0.002527849366
0.002606973728
0.00266962927
0.00270607019
0.002420038689
0.002466765273
0.002533083861
0.002613777606
0.00270253665
0.002791956224
0.00287362376
0.002938246765
0.002975817157
0.002681910552
0.002730056507
0.002798345676
0.00288136921
0.002972608237
0.003064443397
0.003148249657
0.003214524372
0.003253042467
0.002952693567
0.003002014937
0.003071932368
0.003156875337
0.003250150641
0.003343962287
0.003429512948
0.003497131691
0.00353642027
0.003230989768
0.003281251033
0.003352466658
0.003438933977
0.00353381898
0.003629185436
0.003716102056
0.003784769544
0.003824658383
0.00351542057
0.003566398092
0.003638598723
0.003726215808
0.003822306358
0.003918828324
0.004006752584
0.004076189099
0.004116516762
0.003804651656
0.003856135992
0.003929028421
0.004017444721
0.00411436269
0.004211666575
0.004300263111
0.004370206655
0.004410821734
0.004097412197
0.004149209497
0.004222522362
0.004311413435
0.00440880881
0.004506548681
0.004595506768
0.004665714366
0.004706476268
0.004392508811
0.004444441445
0.004517926045
0.004606994472
0.004704546264
0.004802404701
0.004891439017
0.004961687347
0.005002466695
0.004688834743
0.004740741339
0.004814171678
0.004903147083
0.005000563342
0.00509825146
0.005187102141
0.005257187633
0.005297866372
0.004985375003
0.00503711008
0.005110282344
0.005198920779
0.005295937957
0.005393194822
0.005481626999
0.005551365536
0.005591836814
0.005281208242
0.005332641552
0.005405373212
0.005493456119
0.005589837987
0.005686429613
0.005774232577
0.005843458912
0.005883626786
0.005575506068
0.005626521775
0.005698650455
0.005785983352
0.005881519651
0.005977237717
0.006064223846
0.006132790822
0.006172569846
0.00586753047
0.005918026237
0.005989408468
0.006075819498
0.006170324417
0.006264984844
0.006350988373
0.006418766013
0.00645808074
0.006156629911
0.006206515959
0.006277025883
0.006362364305
0.006455674908
0.006549116342
0.006633992055
0.006700866574
0.006739651012
0.006442234549
0.006491432727
0.006560960812
0.006645095494
0.006737070129
0.006829152413
0.006912774301
0.00697864708
0.007016844102
0.006723850943
0.006772293826
0.006840745622
0.006923563576
0.007014080318
0.007104682971
0.007186942886
0.007251729432
0.007289290181
0.007001056526
0.007048686556
0.007115981503
0.007197386472
0.007286341614
0.007375362354
0.007456168684
0.007519797592
0.00755668088
0.007273494013
0.007320262697
0.007386332997
0.007466244114
0.007553550718
0.007640904029
0.007720180407
0.007782592343
0.00781876405
0.007540865917
0.007586733059
0.007651522616
0.007729873123
0.00781545964
0.007901075395
0.007978759448
0.008039906154
0.008075338645
0.007802929222
0.007847862213
0.007911325622
0.007988061666
0.008071870619
0.008155692758
0.008231734901
0.008291578236
0.008326249793
0.008059490295
0.008103463441
0.008165565042
0.008240644528
0.008322631255
0.00840461653
0.00847897881
0.008537489822
0.008571384088
0.008310400058
0.008353393944
0.008414106928
0.008487498434
0.008567629899
0.008647746666
0.00872040166
0.008777559691
0.008810665156
0.008555549435
0.008597550328
0.008656855892
0.00872853764
0.008806791308
0.008885018371
0.008955948103
0.009011739983
0.009044049487
0.008794865083
0.008835864378
0.008893750917
0.008963709773
0.009040072481
0.009116398043
0.009185593076
0.009240012308
0.009271522551
0.009028305352
0.009068299002
0.009124761338
0.009192991933
0.009267458991
0.009341879639
0.009409338077
0.009462384069
0.009493095173
0.009255856561
0.009294844609
0.009349883319
0.009416387196
0.009488961389
0.009561481122
0.009627207729
0.009678885097
0.009708800187
0.009477529617
0.009515515723
0.009569136464
0.009633921253
0.009704611947
0.00977524127
0.009839246646
0.009889564556
0.009918689373
0.009693356828
0.009730347825
0.009782560704
0.009845639359
0.00991446166
0.009983216741
0.01004551656
0.01009448811
0.01012283065
0.009903388971
0.009939394454
0.009990213439
0.01005160353
0.01011857751
0.0101854794
0.01024609368
0.01029373535
0.01032130555
0.01010769261
0.01014272455
0.01019216693
0.01025188998
0.01031703995
0.01038211386
0.01044106633
0.01048739745
0.01051420685
0.01030634765
0.01034042004
0.01038850592
0.0104465868
0.01050994066
0.01057321533
0.01063053281
0.01067557508
0.01070163658
0.01049944513
0.01053257365
0.0105793255
0.01063579189
0.01069738052
0.01075888755
0.01081459941
0.0108583765
0.01088370409
0.01068708518
0.01071928692
0.01076472916
0.01081961101
0.01087946774
0.0109392411
0.01099337878
0.0110359159
0.01106052446
0.01086937529
0.01090066847
0.01094482707
0.01099815619
0.01105631625
0.01111439177
0.01116698833
0.01120831191
0.01123221698
0.01104642865
0.01107683237
0.01111973451
0.01117154413
0.01122804427
0.0112844592
0.0113355489
0.01137568629
0.01139890392
0.01121836274
0.01124789677
0.01128957057
0.01133989498
0.01139477304
0.01144956565
0.01149918363
0.0115381628
0.01156070936
0.01138529811
0.01141398269
0.01145445691
0.01150333112
0.01155662568
0.01160983494
0.01165801689
0.01169586621
0.0117177583
0.01154735722
0.01157521291
0.0116145167
0.0116619762
0.01171372628
0.01176539154
0.01181217345
0.01184892148
0.01187017576
0.01170466358
0.01173171108
0.0117698738
0.01181595425
0.01186619906
0.01191635977
0.0119617777
0.01199745299
0.01201808612
0.01185734083
0.01188360089
0.01192065191
0.01196538899
0.01201416766
0.01206286319
0.01210695304
0.01214158402
0.01216161255
0.01200551215
0.0120310054
0.01206697397
0.01211040314
0.01215775458
0.012205024
0.01224782138
0.01228143619
0.0123008765
0.01214929958
0.01217404651
0.0122089616
0.01225111799
0.01229708068
0.01234296261
0.01238450268
0.0124171291
0.01243599733
0.01228882363
0.01231284445
0.01234673467
0.01238765294
0.0124322648
0.01247679728
0.01251711464
0.01254877998
0.012567092
0.01242420282
0.01244751744
0.01248041092
0.01252012513
0.01256342345
0.01260664383
0.01264577245
0.01267650348
0.01269427483
0.0125555534
0.01257818135
0.0126101057
0.01264864927
0.01269067058
0.01273261545
0.01277058854
0.01280041146
0.01281765735
0.0126829891
0.0127049495
0.01273593173
0.01277333735
0.01281411736
0.01285482247
0.01289167252
0.01292061289
0.01293734813
0.01280662092
0.01282793246
0.01285799896
0.01289429854
0.01293387213
0.01297337235
0.013009131
0.01303721375
0.01305345279
0.01292655707
0.01294723795
0.01297641446
0.0130116391
0.01305004023
0.01308836956
0.01312306761
0.01315031699
0.01316607389
0.0130429028
0.01306297078
0.01309128235
0.01312546233
0.01316272407
0.01319991553
0.01323358297
0.01326002255
0.01327531096
0.01315576043
0.01317523277
0.01320270377
0.01323586854
0.01327202302
0.01330810874
0.01334077468
0.01336642735
0.01338126054
0.01326522933
0.01328412279
0.0133107769
0.01334295507
0.01337803351
0.01341304468
0.01344473738
0.01346962538
0.01348401621
0.01337140589
0.01338973677
0.01341559697
0.01344681632
0.01348084902
0.01351481591
0.01354556281
0.0135697077
0.01358366865
0.01347438361
0.01349216773
0.01351725634
0.01354754383
0.01358056019
0.01361351218
0.01364333989
0.01366676258
0.01368030575
0.01357425315
0.01359150585
0.01361584453
0.0136452263
0.01367725486
0.01370922043
0.01373815476
0.01376087554
0.01377401267
0.0136711024
0.01368783855
0.01371144831
0.01373994974
0.01377101816
0.01380202496
0.01383009094
0.01385212948
0.01386487195
0.01376501653
0.01378125059
0.0138041518
0.0138317975
0.01386193264
0.01389200747
0.01391922938
0.01394060476
0.01395296362
0.01385607814
0.01387182412
0.01389403656
0.01392085042
0.01395007831
0.01397924718
0.01400564858
0.0140263793
0.01403836525
0.01394436733
0.01395963881
0.01398118167
0.01400718685
0.01403553278
0.01406382093
0.01408942468
0.01410952871
0.01412115214
0.01402996175
0.01404477195
0.01406566385
0.01409088286
0.01411837135
0.01414580328
0.01417063157
0.01419012635
0.01420139735
0.0141129368
0.01412729853
0.01414755755
0.01417201222
0.01419866711
0.01422526661
0.01424934099
0.01426824346
0.01427917183
0.01419336563
0.01420729134
0.01422693505
0.01425064661
0.01427649103
0.01430228122
0.01432562263
0.01434394923
0.01435454449
0.0142713193
0.01428482107
0.01430386656
0.01432685561
0.01435191206
0.01437691541
0.01439954421
0.01441731093
0.01442758233
0.01434686684
0.01435995644
0.01437842028
0.01440070689
0.01442499724
0.01444923559
0.01447117156
0.01448839397
0.01449835051
0.01442007535
0.01443276422
0.01445066256
0.01447226623
0.01449581175
0.01451930635
0.01454056875
0.01455726198
0.01456691241
0.01449101009
0.01450330935
0.01452065791
0.01454159761
0.01456441901
0.01458719055
0.01460779813
0.0146239769
0.01463332975
0.01455973456
0.01457165506
0.01458846912
0.01460876333
0.01463088077
0.01465294939
0.01467292039
0.01468859905
0.01469766261
0.01462631059
0.01463786286
0.01465415733
0.01467382403
0.01469525715
0.01471664248
0.01473599467
0.0147511872
0.01475996958
0.01469079836
0.01470199269
0.01471778208
0.01473683882
0.01475760676
0.0147783279
0.01479707863
0.01481179864
0.01482030771
0.01475325654
0.01476410296
0.0147794014
0.01479786528
0.01481798669
0.0148380623
0.01485622845
0.01487048924
0.01487873269
0.01481374232
0.01482425059
0.01483907189
0.01485695957
0.01487645265
0.01489590091
0.01491349897
0.01492731349
0.01493529882
0.01487231145
0.01488249111
0.01489684873
0.01491417648
0.01493305898
0.01495189763
0.01496894369
0.01498232459
0.01499005912
0.01492901836
0.01493887871
0.01495278577
0.01496956948
0.01498785873
0.0150061051
0.01502261485
0.01503557448
0.01504306536
0.01498391615
0.01499346628
0.01500693562
0.01502319079
0.01504090371
0.01505857472
0.01507456351
0.01508711393
0.01509436813
0.01503705672
0.01504630549
0.01505934965
0.01507509142
0.01509224457
0.01510935675
0.01512483957
0.01513699257
0.01514401693
0.01508849076
0.01509744687
0.0151100781
0.01512532128
0.01514193083
0.01515850035
0.01517349187
0.01518525899
0.0151920602
0.01513826791
0.01514693984
0.01515917012
0.01517392923
0.015190011
0.01520605371
0.01522056829
0.01523196084
0.01523854543
0.01518643676
0.01519483282
0.01520667392
0.01522096315
0.01523653267
0.01525206409
0.01526611581
0.01527714487
0.01528351926
0.015233045
0.01524117335
0.01525263679
0.01526647009
0.0152815426
0.01529657797
0.01531018068
0.01532085713
0.01532702765
0.01527813951
0.01528600818
0.01529710529
0.01531049638
0.01532508687
0.0153396412
0.01535280852
0.01536314311
0.01536911597
0.01532176652
0.01532938342
0.01534012538
0.01535308779
0.01536721106
0.01538129918
0.01539404459
0.01540404794
0.0154098293
0.01536397182
0.01537134477
0.01538174264
0.01539428977
0.01540796049
0.01542159711
0.01543393398
0.01544361663
0.01544921262
0.01540480095
0.01541193772
0.01542200251
0.01543414771
0.01544738049
0.01546058028
0.01547252198
0.01548189449
0.01548731124
0.01544429952
0.0154512079
0.01546095064
0.01547270727
0.0154855168
0.01549829451
0.01550985448
0.01551892749
0.01552417118
0.0154825136
0.01548920145
0.01549863326
0.01551001486
0.01552241599
0.01553478658
0.01554597848
0.01555476281
0.01555983976
0.01551949019
0.01552596549
0.01553509773
0.01554611811
0.01555812605
0.01557010487
0.01558094276
0.01558944956
0.01559436627
0.01555527777
0.01556154878
0.01557039316
0.0155810666
0.01559269712
0.01560430011
0.01561479863
0.01562303955
0.01562780284
0.01558992704
0.01559600237
0.01560457115
0.01561491265
0.01562618232
0.0156374263
0.01564760093
0.01565558832
0.01566020543
0.01562349174
0.01562938052
0.01563768673
0.01564771224
0.01565863876
0.01566954174
0.01567940909
0.01568715627
0.01569163501
0.01565602966
0.01566174172
0.0156697994
0.01567952617
0.01569012873
0.01570071028
0.0157102885
0.01571781001
0.01572215897
0.01568760377
0.01569314985
0.01570097437
0.0157104213
0.015720721
0.01573100273
0.01574031189
0.01574762389
0.01575185259
0.01571828352
0.0157236755
0.0157312839
0.01574047201
0.01575049235
0.01576049839
0.01576956097
0.01577668159
0.01578080077
0.01574814623
0.01575339741
0.01576080878
0.01576976167
0.01577952911
0.01578928668
0.01579812808
0.01580507787
0.01580909971
0.0157772786
0.01578240397
0.01578963989
0.01579838427
0.01580792878
0.01581746878
0.01582611793
0.01583292031
0.01583685871
0.01580577822
0.01581079481
0.01581787974
0.01582644595
0.01583580164
0.01584515929
0.01585364915
0.01586033086
0.01586420172
0.01583375503
0.01583868217
0.01584564396
0.01585406649
0.0158632722
0.0158724876
0.01588085577
0.01588744732
0.01589126876
0.01586133268
0.0158661923
0.01587306251
0.01588138053
0.01589048031
0.01589959898
0.01590788815
0.01591442417
0.01591821683
0.01588864948
0.01589346635
0.01590028062
0.01590853832
0.0159175819
0.0159266552
0.01593491348
0.01594143304
0.01594522012
0.01591585903
0.01592066089
0.01592745916
0.01593570602
0.015944749
0.01595383431
0.01596211543
0.01596866209
0.01597246948
0.01594313013
0.01594794778
0.01595477432
0.01596306511
0.01597216898
0.01598132963
0.01598969281
0.01599631451
0.01600017069
0.01597064598
0.01597551314
0.01598241635
0.01599081087
0.01600004263
0.0160093475
0.01601785699
0.01602460564
0.01602854137
0.01599860229
0.01600355531
0.01601058726
0.01601914973
0.0160285811
0.01603810373
0.01604682791
0.01605375861
0.0160578065
0.01602720432
0.0160322816
0.01603949725
0.0160482952
0.01605800138
0.01606781853
0.01607682855
0.01608399842
0.01608819212
0.01605666254
0.01606190378
0.01606935971
0.01607846245
0.01608852026
0.01609871
0.01610807779
0.01611554428
0.01611991754
0.01608718701
0.01609263204
0.01610038489
0.01610986142
0.01612034688
0.01613098594
0.01614078172
0.01614860056
0.01615318588
0.01611898029
0.01612466773
0.01613277209
0.01614268851
0.01615367387
0.01616483449
0.01617512372
0.01618334631
0.01618817341
0.01615222921
0.01615819475
0.01616670077
0.01617711721
0.01618866741
0.01620041364
0.01621125346
0.016219924
0.01622501806
0.01618709559
0.01619337012
0.01620232071
0.01621328789
0.01622545666
0.01623784026
0.01624927568
0.01625842798
0.01626380774
0.01622370633
0.01623031386
0.01623974178
0.01625129733
0.01626412306
0.0162771793
0.01628923919
0.0162988935
0.01630456934
0.01626214347
0.01626909903
0.01627902386
0.01629118865
0.01630469037
0.01631843388
0.01633112721
0.01634128714
0.01634725933
0.01630243467
0.01630974237
0.0163201677
0.01633294246
0.01634711608
0.01636153718
0.01637484969
0.01638549969
0.01639175689
0.01634454515
0.01635219638
0.01636310744
0.01637646993
0.01639128528
0.01640634709
0.01642023883
0.01643134233
0.01643786063
0.01638837152
0.01639634372
0.01640770562
0.01642160866
0.01643700756
0.01645264435
0.0164670484
0.01647854702
0.01648528955
0.01643373853
0.01644199452
0.01645375145
0.01646812216
0.01648401788
0.01650013487
0.01651495752
0.01652677154
0.01653368896
0.01648039923
0.0164888873
0.01650096283
0.01651570332
0.01653198169
0.01654845659
0.01656357927
0.01657560949
0.01658264126
0.01652803908
0.01653669394
0.01654899261
0.01656398216
0.01658050446
0.01659719098
0.01661247387
0.0166246049
0.01663168145
0.01657628413
0.01658502878
0.01659743895
0.01661253788
0.01662914554
0.01664587856
0.01666116592
0.01667327081
0.01668031646
0.01662471319
0.01663346169
0.01664585958
0.01666091453
0.01667743539
0.01669403779
0.01670916466
0.01672111058
0.01672804702
0.01667287347
0.01668153437
0.01669378922
0.01670863961
0.01672489537
0.01674118599
0.01675598573
0.01676764024
0.01677439033
0.01672029881
0.01672877912
0.01674075892
0.0167552442
0.0167710586
0.01678686061
0.0168011728
0.01681241012
0.01681890156
0.01676652925
0.01677473872
0.01678631625
0.01680028323
0.01681549019
0.01683063926
0.01684431702
0.01685502366
0.01686119217
0.01681113066
0.01681898583
0.01683004443
0.01684335429
0.01685780534
0.01687215691
0.01688507321
0.01689515229
0.01690094365
0.01685371263
0.01686114052