/*--------------------------------*- C++ -*----------------------------------*\
| =========                 |                                                 |
| \\      /  F ield         | OpenFOAM: The Open Source CFD Toolbox           |
|  \\    /   O peration     | Version:  2212                                  |
|   \\  /    A nd           | Website:  www.openfoam.com                      |
|    \\/     M anipulation  |                                                 |
\*---------------------------------------------------------------------------*/
FoamFile
{
    version     2.0;
    format      ascii;
    arch        "LSB;label=32;scalar=64";
    class       volScalarField;
    location    "20.00000000";
    object      A2CH2-2;
}
// * * * * * * * * * * * * * * * * * * * * * * * * * * * * * * * * * * * * * //

dimensions      [0 0 0 0 0 0 0];

internalField   nonuniform List<scalar> 
3000
(
5.670774813e-22
6.369148291e-22
7.422483518e-22
8.825155196e-22
1.056210645e-21
1.258547344e-21
1.477315898e-21
1.685955041e-21
1.833428883e-21
2.129007493e-21
2.400807113e-21
2.810557485e-21
3.357363005e-21
4.040317812e-21
4.855332293e-21
5.78810492e-21
6.792178127e-21
7.681442165e-21
4.768905576e-21
5.419976199e-21
6.410840927e-21
7.755092163e-21
9.47581623e-21
1.15968114e-20
1.410862084e-20
1.687068873e-20
1.922951751e-20
9.083367954e-21
1.043175109e-20
1.251412984e-20
1.539954134e-20
1.91879587e-20
2.397261419e-20
2.972359026e-20
3.597860263e-20
4.101991136e-20
1.612976358e-20
1.875227584e-20
2.286691457e-20
2.868112015e-20
3.646578805e-20
4.643536245e-20
5.841689352e-20
7.112274492e-20
8.085385856e-20
2.773549057e-20
3.26591983e-20
4.049672128e-20
5.17481723e-20
6.701464666e-20
8.668444168e-20
1.101796043e-19
1.345555091e-19
1.526263749e-19
4.708181537e-20
5.612694563e-20
7.069357799e-20
9.18429676e-20
1.20755162e-19
1.580102768e-19
2.020744491e-19
2.468612841e-19
2.79186864e-19
7.96703101e-20
9.603789241e-20
1.226309589e-19
1.615388827e-19
2.149324802e-19
2.835824004e-19
3.640449108e-19
4.446062381e-19
5.017618624e-19
1.350364841e-19
1.643397535e-19
2.122564132e-19
2.827142653e-19
3.795694881e-19
5.03750796e-19
6.482402956e-19
7.913942679e-19
8.918380843e-19
2.296983675e-19
2.817493722e-19
3.672503702e-19
4.933749869e-19
6.668525719e-19
8.886836742e-19
1.145359934e-18
1.397805111e-18
1.573627343e-18
3.922995216e-19
4.84223743e-19
6.356977696e-19
8.595849566e-19
1.167528084e-18
1.560411077e-18
2.013135945e-18
2.456143921e-18
2.763177988e-18
6.725392247e-19
8.341982402e-19
1.101159277e-18
1.496223373e-18
2.039462175e-18
2.731257149e-18
3.526008387e-18
4.300994545e-18
4.836406032e-18
1.156710051e-18
1.440162052e-18
1.908951366e-18
2.60320781e-18
3.557492046e-18
4.770894923e-18
6.161716585e-18
7.514728151e-18
8.447934461e-18
1.994674365e-18
2.49066462e-18
3.311855408e-18
4.528630847e-18
6.200596471e-18
8.32403715e-18
1.075355343e-17
1.311250639e-17
1.474045243e-17
3.446600673e-18
4.313231996e-18
5.749352534e-18
7.878429983e-18
1.080403526e-17
1.451742161e-17
1.875988204e-17
2.286800716e-17
2.571548892e-17
5.963770425e-18
7.47605515e-18
9.983972445e-18
1.370424155e-17
1.881855019e-17
2.531280096e-17
3.27396492e-17
3.994557146e-17
4.487268592e-17
1.032847599e-17
1.296370435e-17
1.73357299e-17
2.38225297e-17
3.273870705e-17
4.405379358e-17
5.697722184e-17
6.948865395e-17
7.806239301e-17
1.789740838e-17
2.248388928e-17
3.009489414e-17
4.138755521e-17
5.690524466e-17
7.658704033e-17
9.90494961e-17
1.207795222e-16
1.356709538e-16
3.102456053e-17
3.900035935e-17
5.2237737e-17
7.187848517e-17
9.88628165e-17
1.330768629e-16
1.721088622e-16
2.098536882e-16
2.357127921e-16
5.37955456e-17
6.765787901e-17
9.0667903e-17
1.248095206e-16
1.717121083e-16
2.311691709e-16
2.989814256e-16
3.645393405e-16
4.094415849e-16
9.330257017e-17
1.173881144e-16
1.573716141e-16
2.166998992e-16
2.981985486e-16
4.014978798e-16
5.192906206e-16
6.331422353e-16
7.111059507e-16
1.618584999e-16
2.036983562e-16
2.731604422e-16
3.762320916e-16
5.178140739e-16
6.972484777e-16
9.01824756e-16
1.099518832e-15
1.234876262e-15
2.808424219e-16
3.535152655e-16
4.741720773e-16
6.532104787e-16
8.991298018e-16
1.210762457e-15
1.56600496e-15
1.909237739e-15
2.144218606e-15
4.873794334e-16
6.135985007e-16
8.231616735e-16
1.134120228e-15
1.561211106e-15
2.102364413e-15
2.719149818e-15
3.314995013e-15
3.722870713e-15
8.459438608e-16
1.065155474e-15
1.429112978e-15
1.969143255e-15
2.710787499e-15
3.650375302e-15
4.721106404e-15
5.755320313e-15
6.463209387e-15
1.468510063e-15
1.849219767e-15
2.481286438e-15
3.419049195e-15
4.70674078e-15
6.337826195e-15
8.196195751e-15
9.990834262e-15
1.121904674e-14
2.549544411e-15
3.210717995e-15
4.308327662e-15
5.936568034e-15
8.171957298e-15
1.100276978e-14
1.42271462e-14
1.734008457e-14
1.947002455e-14
4.426750455e-15
5.574965068e-15
7.480845869e-15
1.030752437e-14
1.418715054e-14
1.909847251e-14
2.469044688e-14
3.008705882e-14
3.377829892e-14
7.686417246e-15
9.680301185e-15
1.298919856e-14
1.789527264e-14
2.462621689e-14
3.314300426e-14
4.283488021e-14
5.218300441e-14
5.857390831e-14
1.334592437e-14
1.680781324e-14
2.255122286e-14
3.106336694e-14
4.273530287e-14
5.749417631e-14
7.427671472e-14
9.045139741e-14
1.015014649e-13
2.316939301e-14
2.917849025e-14
3.914381522e-14
5.390469283e-14
7.412981645e-14
9.968065957e-14
1.287047422e-13
1.566472351e-13
1.757174699e-13
4.021240137e-14
5.063815797e-14
6.791860811e-14
9.349516108e-14
1.28504547e-13
1.726783523e-13
2.227863905e-13
2.709556772e-13
3.037843632e-13
6.975931039e-14
8.783498297e-14
1.177735872e-13
1.620403187e-13
2.225525224e-13
2.987809244e-13
3.850884498e-13
4.678924894e-13
5.24219198e-13
1.209304287e-13
1.522356995e-13
2.040381745e-13
2.805313211e-13
3.849162626e-13
5.16134231e-13
6.643418364e-13
8.061663329e-13
9.024020858e-13
2.094258409e-13
2.635611806e-13
3.53034906e-13
4.849310195e-13
6.645233969e-13
8.896730898e-13
1.14318889e-12
1.384989015e-12
1.548544664e-12
3.6218602e-13
4.556066245e-13
6.097772037e-13
8.365596243e-13
1.144494349e-12
1.529240704e-12
1.960792713e-12
2.370721487e-12
2.646912398e-12
6.252618605e-13
7.860350783e-13
1.050857323e-12
1.4393724e-12
1.965105683e-12
2.619257955e-12
3.34954661e-12
4.039813467e-12
4.502682137e-12
1.077015871e-12
1.352730083e-12
1.805830131e-12
2.46840475e-12
3.361259221e-12
4.466671061e-12
5.693838135e-12
6.846979154e-12
7.615946922e-12
1.85010114e-12
2.320864663e-12
3.092335751e-12
4.216060381e-12
5.722825194e-12
7.577337909e-12
9.622701594e-12
1.153176213e-11
1.279677098e-11
3.167753281e-12
3.967281811e-12
5.273148475e-12
7.1664835e-12
9.690463436e-12
1.277589319e-11
1.615362309e-11
1.928248161e-11
2.134126453e-11
5.403174193e-12
6.752500479e-12
8.947730011e-12
1.21134449e-11
1.630555133e-11
2.139094483e-11
2.691225085e-11
3.19845587e-11
3.529695567e-11
9.175740972e-12
1.143623369e-11
1.50972903e-11
2.034458281e-11
2.724127225e-11
3.55368398e-11
4.44630025e-11
5.259114633e-11
5.785707667e-11
1.550520418e-11
1.926050262e-11
2.531159279e-11
3.392525458e-11
4.51535562e-11
5.853607547e-11
7.279952282e-11
8.566889282e-11
9.393887136e-11
2.605596627e-11
3.223626474e-11
4.213879404e-11
5.612971077e-11
7.420652581e-11
9.554395848e-11
1.180630083e-10
1.3819205e-10
1.510222256e-10
4.351926703e-11
5.358624933e-11
6.961780047e-11
9.208719463e-11
1.208489305e-10
1.544610638e-10
1.895824988e-10
2.206860449e-10
2.403539429e-10
7.220329888e-11
8.842007702e-11
1.140777004e-10
1.497378058e-10
1.949478957e-10
2.47251823e-10
3.013669502e-10
3.488598248e-10
3.786626688e-10
1.189319885e-10
1.44749874e-10
1.85323114e-10
2.412301558e-10
3.114271083e-10
3.918324058e-10
4.74227723e-10
5.459184044e-10
5.905835552e-10
1.943950281e-10
2.349982985e-10
2.983709459e-10
3.849435368e-10
4.926122571e-10
6.147522484e-10
7.387766105e-10
8.45817889e-10
9.120651984e-10
3.151481934e-10
3.782099964e-10
4.759673162e-10
6.083863137e-10
7.715623797e-10
9.549767544e-10
1.139634706e-09
1.297821137e-09
1.395130726e-09
5.065389155e-10
6.032573431e-10
7.521992948e-10
9.523159835e-10
1.196768704e-09
1.469191328e-09
1.741309248e-09
1.972841592e-09
2.114498811e-09
8.069345298e-10
9.534395113e-10
1.177632669e-09
1.476553569e-09
1.8387419e-09
2.239198963e-09
2.636359842e-09
2.972237411e-09
3.176750334e-09
1.273769989e-09
1.493021536e-09
1.82656605e-09
2.268137864e-09
2.799196907e-09
3.382188123e-09
3.956695744e-09
4.439951564e-09
4.732969367e-09
1.992122819e-09
2.316463486e-09
2.807210298e-09
3.452700443e-09
4.223797946e-09
5.064921073e-09
5.889141419e-09
6.579206705e-09
6.996114597e-09
3.08678551e-09
3.561375294e-09
4.275909431e-09
5.210267758e-09
6.319768548e-09
7.523253664e-09
8.696798221e-09
9.675390458e-09
1.026482177e-08
4.738893045e-09
5.42626067e-09
6.45656712e-09
7.796880961e-09
9.380080273e-09
1.108903204e-08
1.274845151e-08
1.412747973e-08
1.49559909e-08
7.209061739e-09
8.195251055e-09
9.667716006e-09
1.157457401e-08
1.381671035e-08
1.622677102e-08
1.855855025e-08
2.049075534e-08
2.164917235e-08
1.086945699e-08
1.227225368e-08
1.435968221e-08
1.705235577e-08
2.020603628e-08
2.358373337e-08
2.684177091e-08
2.953507129e-08
3.114706777e-08
1.624776454e-08
1.822770381e-08
2.116540985e-08
2.494219288e-08
2.935076348e-08
3.405815496e-08
3.85872924e-08
4.232414505e-08
4.455782547e-08
2.408737428e-08
2.686247272e-08
3.096982519e-08
3.623529675e-08
4.236421047e-08
4.889202053e-08
5.515970903e-08
6.032313469e-08
6.340656466e-08
3.542950405e-08
3.92949925e-08
4.500430006e-08
5.230591716e-08
6.07848906e-08
6.979705021e-08
7.843583752e-08
8.554425608e-08
8.978624833e-08
5.172505191e-08
5.707985642e-08
6.497516028e-08
7.505242838e-08
8.673204724e-08
9.912535741e-08
1.109896948e-07
1.207435639e-07
1.265615856e-07
7.498685425e-08
8.236917403e-08
9.323833674e-08
1.070887142e-07
1.231160934e-07
1.400998666e-07
1.56342075e-07
1.696864091e-07
1.776440498e-07
1.079966984e-07
1.181316336e-07
1.3303592e-07
1.520026609e-07
1.739222645e-07
1.971246748e-07
2.192965745e-07
2.375046214e-07
2.483617057e-07
1.545853467e-07
1.684482405e-07
1.88814822e-07
2.147038872e-07
2.445919827e-07
2.762020393e-07
3.063905598e-07
3.311753109e-07
3.459546225e-07
2.200088725e-07
2.389094821e-07
2.666545189e-07
3.018902908e-07
3.425340262e-07
3.854903987e-07
4.264975732e-07
4.601595059e-07
4.802349943e-07
3.114527868e-07
3.37147202e-07
3.7483946e-07
4.22671548e-07
4.778062303e-07
5.360468009e-07
5.916270167e-07
6.372481663e-07
6.644603524e-07
4.387047012e-07
4.735435963e-07
5.246208095e-07
5.893967685e-07
6.64017954e-07
7.428069713e-07
8.179766336e-07
8.796725356e-07
9.164773821e-07
6.150451983e-07
6.621685006e-07
7.312209474e-07
8.187428813e-07
9.195129541e-07
1.025865129e-06
1.127301549e-06
1.210543239e-06
1.260200646e-06
8.584139841e-07
9.220039657e-07
1.015142252e-06
1.133127573e-06
1.268898412e-06
1.412120453e-06
1.548666823e-06
1.6606841e-06
1.727490913e-06
1.192913821e-06
1.278519395e-06
1.403844163e-06
1.56251118e-06
1.744984005e-06
1.937352279e-06
2.120642442e-06
2.270915695e-06
2.360484828e-06
1.650711002e-06
1.765654963e-06
1.93384419e-06
2.146639652e-06
2.391177711e-06
2.648763344e-06
2.893971113e-06
3.094809499e-06
3.214388997e-06
2.274373108e-06
2.42824954e-06
2.653271763e-06
2.937746993e-06
3.26434307e-06
3.607979209e-06
3.9346784e-06
4.201862997e-06
4.360673718e-06
3.119644787e-06
3.324903803e-06
3.624850042e-06
4.003671186e-06
4.438045568e-06
4.894400732e-06
5.32748999e-06
5.680929927e-06
5.890483792e-06
4.258593195e-06
4.53119241e-06
4.929192523e-06
5.431234579e-06
6.005995004e-06
6.608671094e-06
7.179269977e-06
7.643624735e-06
7.918074844e-06
5.782951862e-06
6.143026479e-06
6.66817424e-06
7.329593472e-06
8.085326445e-06
8.875817655e-06
9.622048077e-06
1.022728508e-05
1.058356964e-05
7.807352855e-06
8.279818122e-06
8.967972457e-06
9.833085984e-06
1.081915065e-05
1.184758616e-05
1.281511476e-05
1.359661903e-05
1.40544097e-05
1.047197595e-05
1.108693083e-05
1.198118079e-05
1.310289344e-05
1.437793812e-05
1.570329514e-05
1.694511633e-05
1.794332656e-05
1.852465759e-05
1.394392432e-05
1.473669539e-05
1.588746729e-05
1.732734689e-05
1.895882459e-05
2.064807472e-05
2.222349243e-05
2.348283964e-05
2.421133171e-05
1.841706698e-05
1.942795354e-05
2.089230329e-05
2.271927095e-05
2.478180356e-05
2.690796642e-05
2.888050311e-05
3.04475225e-05
3.134715788e-05
2.410936998e-05
2.538240161e-05
2.722216994e-05
2.951009065e-05
3.208250197e-05
3.472133973e-05
3.715546342e-05
3.907605409e-05
4.016953006e-05
3.125651945e-05
3.283752001e-05
3.511642426e-05
3.794033172e-05
4.110123317e-05
4.432658392e-05
4.728332816e-05
4.959928669e-05
5.090606148e-05
4.010213566e-05
4.203596176e-05
4.481555994e-05
4.824659436e-05
5.206868966e-05
5.594669372e-05
5.947848105e-05
6.222361263e-05
6.375785158e-05
5.08845073e-05
5.321160698e-05
5.654638299e-05
6.064581101e-05
6.518940975e-05
6.977220979e-05
7.391748307e-05
7.711381679e-05
7.888256217e-05
6.382065842e-05
6.6573293e-05
7.050539506e-05
7.531843235e-05
8.062506102e-05
8.594498375e-05
9.072369147e-05
9.437874907e-05
9.638092611e-05
7.90893181e-05
8.228799897e-05
8.684246442e-05
9.239300111e-05
9.848045925e-05
0.0001045462627
0.0001099580384
0.0001140652471
0.0001162932821
9.68150297e-05
0.000100465897
0.0001056474426
0.000111935073
0.0001187956314
0.0001255928496
0.0001316206099
0.0001361677502
0.0001386244631
0.0001170560735
0.0001211500257
0.0001269425738
0.0001339433641
0.0001415465751
0.0001490428916
0.0001556609296
0.0001606399224
0.0001633092588
0.0001397991373
0.0001443134772
0.0001506835115
0.0001583558273
0.0001666572766
0.0001748133637
0.000182000633
0.00018736862
0.0001902184312
0.0001649640824
0.0001698671901
0.0001767716125
0.0001850678032
0.0001940257123
0.0002028057411
0.0002104907846
0.0002161921666
0.0002191942511
0.0001924232404
0.0001976819466
0.000205079458
0.0002139599105
0.0002235136846
0.0002328295649
0.0002409431276
0.0002469316126
0.0002500647532
0.0002220418703
0.0002276294491
0.0002354712994
0.0002448493714
0.0002549056571
0.0002646784214
0.0002731619811
0.0002794022889
0.0002826530211
0.0002536336258
0.0002594925453
0.0002677012279
0.000277496427
0.0002879777049
0.0002981431333
0.0003069517853
0.0003134202623
0.0003167827639
0.0002869273055
0.0002930092625
0.0003015217016
0.0003116672528
0.0003225116137
0.0003330205179
0.0003421227748
0.0003488066334
0.0003522819418
0.0003216665839
0.0003279325836
0.0003366984934
0.0003471415383
0.0003583014965
0.0003691183326
0.0003784945931
0.0003853903393
0.0003889851492
0.0003576169996
0.0003640362729
0.000373016433
0.000383716489
0.0003951570973
0.0004062579195
0.0004158983698
0.0004230098376
0.0004267350863
0.0003945681842
0.0004011169696
0.0004102815177
0.00042120855
0.0004329052357
0.0004442753893
0.000454177684
0.0004615139243
0.0004653833096
0.0004323341588
0.0004389945165
0.0004483212824
0.0004594537029
0.0004713900202
0.0004830217644
0.0004931886725
0.0005007618503
0.0005047903789
0.0004707525405
0.0004775111989
0.0004869840698
0.0004983067414
0.0005104721376
0.0005223623118
0.0005327994468
0.0005406228497
0.0005448254831
0.0005096828969
0.0005165301236
0.0005261374455
0.0005376397401
0.0005500274082
0.0005621752277
0.0005728889544
0.0005809752227
0.0005853657075
0.0005490043673
0.000555932878
0.0005656659259
0.0005773398865
0.0005899447721
0.0006023498475
0.0006133454518
0.0006217050159
0.0006262948478
0.0005886126963
0.000595616632
0.000605468194
0.0006173068816
0.0006301239277
0.0006427845185
0.0006540646055
0.0006627043967
0.0006675020086
0.0006284169281
0.0006354909467
0.0006454540744
0.0006574500886
0.0006704726826
0.00068338423
0.0006949474563
0.0007038699164
0.0007088800724
0.0006683359132
0.0006754743762
0.0006855412867
0.0006976855325
0.0007109042671
0.0007240582572
0.0007358983827
0.0007451007626
0.0007503241551
0.000708294805
0.0007154911223
0.000725652329
0.0007379330539
0.0007513347876
0.0007647179334
0.0007768231859
0.0007862971225
0.0007917301611
0.0007482218436
0.0007554679714
0.000765711633
0.0007781137314
0.0007916809478
0.0008052746782
0.0008176274166
0.0008273587678
0.0008329935434
0.000788045544
0.0007953316353
0.0008056431192
0.000818147696
0.0008318581472
0.0008456383864
0.0008582150352
0.0008681839486
0.000874008353
0.0008276924004
0.0008350066012
0.0008453682501
0.0008579524271
0.0008717790386
0.0008857162468
0.0008984874752
0.0009086686603
0.0009146666404
0.0008670851761
0.0008744135553
0.0008848046393
0.0008974415797
0.0009113525894
0.0009254120337
0.0009383431447
0.0009487063198
0.0009548582427
0.0009061418046
0.0009134684031
0.000923865235
0.0009365243598
0.0009504836577
0.0009646258794
0.0009776773759
0.0009881878563
0.0009944709642
0.0009447748943
0.0009520818756
0.0009624580655
0.0009751054304
0.0009890730672
0.00100325451
0.001016382801
0.001027002199
0.001033391131
0.0009828917959
0.0009901596806
0.001000486504
0.001013085307
0.001027018136
0.001041191897
0.001054350113
0.001065037117
0.001071504472
0.001020395169
0.001027603136
0.001037849991
0.001050361179
0.001064213595
0.00107833027
0.001091469145
0.001102180345
0.001108697277
0.001057183967
0.001064310201
0.001074445129
0.001086828073
0.001100552821
0.001114561398
0.001127630192
0.001138320929
0.001144857736
0.001093154751
0.001100176824
0.001110167067
0.001122380279
0.001135929291
0.001149778065
0.001162725495
0.001173350699
0.001179877403
0.001128203234
0.0011350985
0.001144911077
0.001156912934
0.001170238171
0.001183875654
0.001196650795
0.001207165789
0.001213652684
0.001162225961
0.001168971949
0.001178574226
0.001190323687
0.001203377956
0.001216753741
0.00122930688
0.001239668132
0.00124608629
0.001195122032
0.001201696828
0.001211057067
0.001222514351
0.001235252069
0.001248317635
0.001260601055
0.001270766856
0.001277088572
0.001226794794
0.0012331774
0.001242265265
0.00125339247
0.001265770362
0.001278479798
0.001290448471
0.001300379522
0.001306578706
0.001257153427
0.001263324078
0.00127211109
0.001282872749
0.001294850461
0.001307161088
0.001318773254
0.001328433173
0.001334485667
0.001286114358
0.001292054805
0.001300514736
0.001310878287
0.001322418889
0.00133429178
0.001345509449
0.001354865161
0.001360748985
0.00131360248
0.001319296218
0.00132740541
0.001337341583
0.001348411998
0.001359812388
0.001370601693
0.001379623723
0.001385319261
0.001339552135
0.001344984591
0.001352722215
0.001362205325
0.00137277663
0.001383674206
0.001394005661
0.001402668333
0.001408158446
0.001363907865
0.001369066531
0.001376414764
0.001385422917
0.001395470543
0.001405839626
0.001415688273
0.001423969816
0.001429239899
0.001386624913
0.001391499429
0.001398443562
0.001406958763
0.001416462599
0.001426282224
0.001435627686
0.001443510257
0.00144854824
0.001407669472
0.001412251664
0.001418780144
0.001426788334
0.001435732742
0.001444986645
0.001453813088
0.001461282712
0.001466079017
0.001427018724
0.001431302599
0.001437407009
0.001444898025
0.00145327177
0.001461948295
0.001470244308
0.001477290771
0.00148183822
0.001444660675
0.001448642374
0.001454317364
0.001461284832
0.001469080946
0.001477172875
0.001484931298
0.001491547969
0.001495841673
0.001460593804
0.001464271531
0.001469514697
0.001475955874
0.00148317146
0.001490675793
0.001497893477
0.001504077104
0.001508114317
0.001474826579
0.001478200494
0.001483012225
0.001488927797
0.001495563784
0.001502481469
0.001509159008
0.001514909469
0.001518689427
0.001487376843
0.001490448937
0.001494832229
0.001500226072
0.001506286936
0.001512622565
0.001518763991
0.001524084035
0.001527607783
0.001498271106
0.001501045062
0.00150500531
0.001509884226
0.001515377686
0.001521139168
0.001526751632
0.001531646599
0.001534916813
0.001507543777
0.001510024814
0.001513569591
0.00151794303
0.001522879725
0.001528077944
0.001533171384
0.001537648923
0.001540669725
0.001515236348
0.001517431063
0.001520569886
0.001524449654
0.001528842816
0.001533491289
0.001538078096
0.001542147882
0.001544924663
0.001521396555
0.001523312759
0.001526056856
0.001529456827
0.001533321949
0.001537436477
0.001541531169
0.001545204626
0.001547743867
0.001526077539
0.001527724094
0.001530086171
0.001533021994
0.001536376509
0.001539974847
0.001543593746
0.001546883779
0.001549192888
0.001529337016
0.001530723677
0.001532717688
0.00153520651
0.001538069476
0.001541171006
0.001544331935
0.001547252678
0.001549339826
0.001531236474
0.001532373731
0.001534014662
0.001536074859
0.00153846666
0.001541092085
0.001543814078
0.001546380655
0.001548254631
0.0015318404
0.001532739337
0.001534042994
0.001535693917
0.001537635981
0.001539807037
0.001542110074
0.001544338375
0.001546008449
0.001531215557
0.001531887712
0.001532870528
0.001534132263
0.001535646802
0.001537385991
0.001539290744
0.001541197227
0.001542673022
0.001529430304
0.001529887539
0.001530566393
0.001531459543
0.001532569308
0.001533899656
0.001535427267
0.001537028765
0.001538320148
0.001526553968
0.001526808355
0.001527200404
0.00152774589
0.001528473953
0.001529418785
0.001530590656
0.001531904217
0.001533021192
0.001522656274
0.001522719986
0.001522842517
0.001523061392
0.001523430945
0.001524013685
0.001524851299
0.001525894035
0.001526846656
0.001517806825
0.00151769204
0.001517562334
0.001517475623
0.001517509804
0.001517753799
0.001518278552
0.001519067508
0.001519865798
0.001512074643
0.001511793459
0.001511428669
0.001511057223
0.001510778958
0.00151070732
0.001510940382
0.00151149242
0.001512146303
0.00150552776
0.001505092117
0.001504509165
0.001503873536
0.001503305399
0.001502940869
0.00150290306
0.00150323476
0.001503754001
0.001498232857
0.001497654477
0.001496869958
0.001495990289
0.001495154387
0.001494519219
0.001494230902
0.001494358479
0.001494752631
0.001490254963
0.001489545286
0.001488575396
0.001487471326
0.0014863892
0.00148550506
0.001484986049
0.001484925281
0.001485203645
0.001481657189
0.001480827333
0.001479687796
0.001478378384
0.00147707092
0.001475958807
0.001475228297
0.001474994466
0.001475166053
0.001472500515
0.001471561232
0.001470267249
0.001468770908
0.001467258273
0.001465938446
0.001465014951
0.001464622796
0.001464696304
0.00146284361
0.001461805255
0.001460371461
0.001458705906
0.00145700749
0.001455499419
0.001454400723
0.001453864403
0.001453848189
0.001452742698
0.001451615204
0.001450055631
0.001448237838
0.001446372211
0.001444694537
0.00144343766
0.001442770724
0.001442672791
0.001442251447
0.001441044305
0.001439372356
0.001437418534
0.00143540342
0.001433573918
0.001432175091
0.001431390459
0.001431218445
0.001431420897
0.001430143147
0.001428371578
0.001426297146
0.001424149394
0.001422184964
0.001420659608
0.001419769562
0.001419530726
0.001420299417
0.001418959631
0.001417100542
0.001414920118
0.001412655698
0.001410572345
0.001408935067
0.001407951238
0.001407652465
0.001408932674
0.001407538962
0.001405603789
0.001403331185
0.001400965178
0.001398778014
0.001397042604
0.001395975977
0.001395623771
0.001397363643
0.001395923646
0.001393923163
0.001391571386
0.001389117989
0.001386841238
0.00138502067
0.001383881584
0.001383482074
0.001385632618
0.001384153513
0.001382097838
0.001379679098
0.001377151632
0.001374798636
0.001372905085
0.001371703244
0.001371262187
0.001373777253
0.001372265759
0.001370164361
0.001367690081
0.001365101008
0.001362684244
0.001360729095
0.001359473577
0.001358996366
0.001361832606
0.001360294994
0.001358156708
0.001355637542
0.001352998479
0.001350529579
0.001348523446
0.001347222721
0.001346714393
0.001349831208
0.00134827331
0.00134610635
0.001343552203
0.001340873947
0.001338363719
0.001336316467
0.001334978411
0.001334443655
0.001337803128
0.001336230351
0.00133404233
0.001331462377
0.00132875493
0.001326213386
0.001324134153
0.00132276607
0.001322209242
0.00132577606
0.001324193398
0.001321991347
0.001319394061
0.001316666654
0.001314103035
0.001312000262
0.001310608901
0.001310034034
0.001313775402
0.001312187453
0.001309977844
0.00130737102
0.001304632146
0.001302054955
0.001299936408
0.001298527987
0.001297938802
0.001301824358
0.001300235339
0.001298024104
0.001295414887
0.001292672331
0.001290089359
0.001287962162
0.001286542391
0.001285942313
0.001289944024
0.001288357786
0.001286150345
0.00128354526
0.001280806128
0.001278224491
0.001276095151
0.001274669253
0.001274061422
0.001278153494
0.001276573541
0.001274374821
0.0012717798
0.001269050553
0.001266476721
0.00126435116
0.001262923893
0.001262311179
0.001266469955
0.00126489946
0.001262713922
0.001260134334
0.001257420819
0.001254860647
0.001252744229
0.001251319914
0.001250704927
0.00125490879
0.001253350611
0.001251182273
0.001248622953
0.001245930432
0.001243389196
0.001241286756
0.001239869292
0.0012392544
0.001243483679
0.001241940377
0.001239792836
0.001237258111
0.001234591297
0.001232073717
0.001229989588
0.001228582478
0.001227969812
0.001232206698
0.001230680551
0.001228557009
0.001226050725
0.001223413805
0.00122092408
0.001218862117
0.001217468486
0.001216859956
0.00122108842
0.001219581439
0.001217484718
0.001215010271
0.001212406937
0.001209948766
0.001207912373
0.001206534983
0.001205932284
0.00121013801
0.001208651956
0.001206584525
0.001204144876
0.00120157835
0.001199154961
0.001197147107
0.001195788374
0.001195192996
0.001199363332
0.001197899724
0.001195863714
0.001193461418
0.001190934472
0.001188548641
0.001186571878
0.001185233882
0.001184647113
0.001188771041
0.001187331174
0.001185328396
0.001182965618
0.001180480596
0.001178134664
0.001176191143
0.001174875637
0.001174298564
0.001178366695
0.001176951648
0.001174983607
0.001172662141
0.001170220976
0.001167916864
0.001166008339
0.00116471675
0.001164150259
0.001168154858
0.001166765507
0.001164833418
0.001162554702
0.00116015893
0.001157898148
0.001156025987
0.001154759414
0.001154204186
0.001158139225
0.001156776252
0.001154881052
0.001152646183
0.001150296956
0.001148080613
0.001146245796
0.00114500501
0.001144461509
0.001148322755
0.001146986657
0.001145129023
0.001142938769
0.001140636867
0.001138465681
0.001136668802
0.001135454236
0.001134922702
0.001138707823
0.001137398929
0.001135579288
0.001133434109
0.001131179959
0.001129054265
0.001127295536
0.001126107279
0.001125587718
0.001129296406
0.001128014887
0.00112623344
0.001124133511
0.001121927205
0.001119846975
0.00111812624
0.00111696404
0.001116456218
0.001120090295
0.001118836185
0.001117092936
0.001115038179
0.001112879513
0.001110844389
0.001109161143
0.001108024425
0.001107527873
0.001111091351
0.001109864579
0.001108159371
0.001106149504
0.00110403803
0.00110204738
0.001100400826
0.001099288727
0.001098802759
0.001102301817
0.001101102239
0.001099434814
0.001097469424
0.001095404533
0.001093457535
0.001091846668
0.001090758113
0.001090281873
0.001093724672
0.001092552129
0.001090922205
0.001089000843
0.001086981885
0.001085077664
0.001083501404
0.001082435225
0.001081967771
0.001085364059
0.001084218445
0.001082625818
0.001080748141
0.00107877459
0.001076912402
0.001075369793
0.001074324918
0.00107386535
0.001077225763
0.001076107116
0.001074551803
0.001072717756
0.001070789431
0.00106896892
0.001067459406
0.001066435117
0.001065982768
0.001069317756
0.001068226377
0.001066708787
0.001064918835
0.00106303619
0.001061257727
0.001059781515
0.001058777803
0.001058332495
0.001061650792
0.001060587389
0.001059108543
0.001057363963
0.001055528449
0.001053793551
0.001052352075
0.001051370093
0.001050932475
0.001054239051
0.001053204908
0.001051766702
0.001050069932
0.001048284436
0.001046596282
0.001045192771
0.001044235394
0.00104380736
0.001047100805
0.001046097987
0.001044703497
0.001043058548
0.001041327902
0.001039691942
0.001038332088
0.001037404576
0.001036989764
0.001040259101
0.001039290679
0.001037944507
0.001036357431
0.001034688997
0.001033113639
0.001031806363
0.001030917122
0.001030521489
0.001033742422
0.001032812728
0.001031521386
0.001030000783
0.001028405097
0.001026902468
0.001025660763
0.001024822183
0.00102445464
0.001027585318
0.001026700211
0.001025472526
0.001024030099
0.001022521551
0.001021108304
0.00101995013
0.001019179472
0.001018852559
0.001021828958
0.001020996103
0.001019843642
0.001018494753
0.001017092292
0.001015790431
0.001014739628
0.001014059936
0.00101379051
0.001016521589
0.001015750735
0.001014688223
0.001013452456
0.001012180278
0.001011017968
0.001010105145
0.001009546121
0.001009356017
0.001011718861
0.001011022106
0.001010067825
0.00100896951
0.001007857705
0.001006870026
0.001006133375
0.00100573218
0.00100564881
0.001007483987
0.001006876021
0.001006052165
0.001005120843
0.001004205961
0.001003435543
0.00100292153
0.001002723442
0.00100278028
0.001003887713
0.001003386011
0.001002718979
0.001001989776
0.001001315259
0.001000812767
0.001000576621
0.001000635486
0.001000872385
0.001001008049
0.001000633014
0.001000153605
0.000999667465
0.0009992839051
0.0009991082922
0.0009992142311
0.0009995926361
0.001000055914
0.0009989297277
0.0009987047486
0.0009984482312
0.0009982519789
0.0009982171438
0.0009984356095
0.0009989567167
0.0009997257849
0.001000468018
0.0009977433359
0.0009976947446
0.0009977007687
0.0009978469397
0.0009982254915
0.0009989130634
0.0009999307177
0.001001169436
0.001002248868
0.0009975440515
0.0009977009498
0.000998013248
0.0009985596323
0.0009994224684
0.001000661105
0.00100226385
0.001004057807
0.001005537285
0.000998429904
0.0009988238244
0.0009994896561
0.001000498478
0.001001921594
0.001003798694
0.00100608041
0.001008519797
0.001010465133
0.001000499447
0.001001163807
0.001002233079
0.001003769724
0.001005832485
0.001008438659
0.001011495882
0.00101467262
0.001017150246
0.00100384871
0.001004818011
0.001006341996
0.001008473184
0.001011255872
0.001014681828
0.001018610045
0.001022613844
0.001025687667
0.001008567275
0.001009875987
0.00101190556
0.001014696842
0.001018277338
0.001022609708
0.001027498455
0.001032411689
0.001036139027
0.001014733309
0.001016414384
0.001018997679
0.001022510154
0.00102695962
0.001032275598
0.001038202242
0.001044093521
0.001048520107
0.001022407413
0.001024490371
0.001027669785
0.001031955936
0.001037333408
0.001043694124
0.001050716296
0.001057632797
0.001062786934
0.0010316252
0.001034133751
0.001037942262
0.001043040888
0.001049386787
0.001056829493
0.001064976347
0.001072935156
0.001078821287
0.001042388654
0.001045337876
0.001049794703
0.001055725042