/*--------------------------------*- C++ -*----------------------------------*\
| =========                 |                                                 |
| \\      /  F ield         | OpenFOAM: The Open Source CFD Toolbox           |
|  \\    /   O peration     | Version:  2212                                  |
|   \\  /    A nd           | Website:  www.openfoam.com                      |
|    \\/     M anipulation  |                                                 |
\*---------------------------------------------------------------------------*/
FoamFile
{
    version     2.0;
    format      ascii;
    arch        "LSB;label=32;scalar=64";
    class       volScalarField;
    location    "20.00000000";
    object      AC3H5_0;
}
// * * * * * * * * * * * * * * * * * * * * * * * * * * * * * * * * * * * * * //

dimensions      [0 0 0 0 0 0 0];

internalField   nonuniform List<scalar> 
3000
(
2.253843291e-34
2.526593361e-34
2.935075206e-34
3.472247898e-34
4.122737611e-34
4.849269169e-34
5.569207517e-34
6.123839052e-34
6.291984933e-34
8.370264159e-34
9.403099974e-34
1.093927428e-33
1.2943319e-33
1.535571806e-33
1.806697048e-33
2.087806722e-33
2.344384315e-33
2.514818839e-33
1.848984475e-33
2.0893783e-33
2.448754568e-33
2.922856308e-33
3.505277379e-33
4.182383057e-33
4.921537121e-33
5.648479954e-33
6.175339641e-33
3.468555893e-33
3.954439887e-33
4.690306849e-33
5.681066963e-33
6.932071226e-33
8.434140749e-33
1.01283005e-32
1.18288371e-32
1.304937723e-32
6.064545459e-33
6.991678789e-33
8.418248425e-33
1.037960113e-32
1.291478236e-32
1.602498812e-32
1.957620779e-32
2.311178536e-32
2.557936695e-32
1.027097319e-32
1.198583575e-32
1.466503716e-32
1.841476134e-32
2.334496549e-32
2.946689874e-32
3.647431393e-32
4.337920219e-32
4.81337439e-32
1.7183053e-32
2.029537282e-32
2.522017262e-32
3.220522688e-32
4.148852877e-32
5.307081013e-32
6.627965476e-32
7.91394973e-32
8.795036661e-32
2.867833882e-32
3.425282266e-32
4.31625125e-32
5.592174943e-32
7.29933948e-32
9.432826283e-32
1.185580887e-31
1.419539669e-31
1.579888735e-31
4.798455991e-32
5.787665591e-32
7.380880365e-32
9.678329399e-32
1.27657898e-31
1.662672764e-31
2.099821972e-31
2.519936686e-31
2.808798895e-31
8.065298728e-32
9.809035449e-32
1.263403126e-31
1.672883726e-31
2.22494747e-31
2.915767203e-31
3.696718983e-31
4.445696167e-31
4.96307197e-31
1.362562541e-31
1.668566174e-31
2.166618247e-31
2.891534346e-31
3.871637869e-31
5.099577599e-31
6.487758779e-31
7.819309568e-31
8.744301476e-31
2.313494755e-31
2.849118262e-31
3.724327834e-31
5.002988647e-31
6.737057526e-31
8.914468117e-31
1.138037184e-30
1.375099638e-30
1.540850091e-30
3.946857949e-31
4.883837534e-31
6.420618647e-31
8.674839615e-31
1.174396243e-30
1.561241263e-30
2.001054928e-30
2.425822689e-30
2.725120923e-30
6.765005585e-31
8.406724669e-31
1.11107572e-30
1.509739924e-30
2.055658533e-30
2.748134682e-30
3.540823835e-30
4.311991552e-30
4.861051787e-30
1.165348543e-30
1.454269729e-30
1.932777525e-30
2.643466539e-30
3.625581005e-30
4.884659898e-30
6.342153687e-30
7.774079765e-30
8.809653929e-30
2.019584615e-30
2.532270736e-30
3.38807647e-30
4.673269749e-30
6.47487065e-30
8.824765939e-30
1.159916031e-29
1.438428732e-29
1.638567806e-29
3.529138015e-30
4.451852251e-30
6.009808162e-30
8.387485537e-30
1.178940135e-29
1.633241515e-29
2.18284243e-29
2.747292945e-29
3.157310946e-29
6.244994637e-30
7.945253377e-30
1.086487866e-29
1.542624411e-29
2.214316962e-29
3.140347375e-29
4.296624515e-29
5.517604434e-29
6.415092019e-29
1.127093234e-29
1.452141432e-29
2.023827648e-29
2.946021541e-29
4.355634926e-29
6.375744044e-29
8.990160562e-29
1.183063311e-28
1.394724998e-28
2.097191428e-29
2.752196252e-29
3.94069716e-29
5.934773068e-29
9.115633575e-29
1.386463902e-28
2.022988833e-28
2.732323196e-28
3.267967949e-28
4.081300238e-29
5.49317961e-29
8.148869813e-29
1.279673868e-28
2.053045304e-28
3.25163554e-28
4.906527684e-28
6.787780857e-28
8.224193738e-28
8.438813672e-29
1.172043893e-28
1.811912794e-28
2.976487654e-28
4.985599169e-28
8.193381174e-28
1.272183816e-27
1.794285554e-27
2.196186741e-27
1.876839916e-28
2.697230704e-28
4.347421411e-28
7.447255584e-28
1.294300939e-27
2.190541559e-27
3.475038855e-27
4.970023377e-27
6.127053456e-27
4.505114773e-28
6.685272802e-28
1.117561016e-27
1.980463358e-27
3.53909606e-27
6.116309238e-27
9.845542342e-27
1.421321446e-26
1.760470553e-26
1.15862151e-27
1.764884725e-27
3.034025607e-27
5.509701336e-27
1.003439301e-26
1.757927205e-26
2.855844879e-26
4.146437685e-26
5.151617032e-26
3.146707085e-27
4.885078049e-27
8.561881732e-27
1.580017869e-26
2.912124415e-26
5.143890341e-26
8.401085079e-26
1.22362854e-25
1.522582427e-25
8.882457428e-27
1.396385545e-26
2.477725463e-26
4.617584494e-26
8.570167544e-26
1.520687531e-25
2.490344137e-25
3.632418371e-25
4.522516813e-25
2.571054864e-26
4.073326027e-26
7.280723651e-26
1.364399104e-25
2.541484669e-25
4.51878394e-25
7.406748906e-25
1.080534975e-24
1.345113996e-24
7.556148503e-26
1.20246285e-25
2.157826077e-25
4.054552566e-25
7.562562041e-25
1.344967831e-24
2.203439038e-24
3.211663865e-24
3.994789174e-24
2.239687907e-25
3.572276547e-25
6.421494929e-25
1.207434637e-24
2.251351144e-24
3.999233635e-24
6.54059195e-24
9.515234023e-24
1.181718592e-23
6.665485062e-25
1.06399054e-24
1.912897891e-24
3.593959382e-24
6.689669906e-24
1.185390797e-23
1.932935502e-23
2.80356181e-23
3.473546526e-23
1.985611375e-24
3.1687265e-24
5.690734199e-24
1.066961421e-23
1.97999024e-23
3.495101653e-23
5.67473107e-23
8.195525669e-23
1.011999112e-22
5.907018951e-24
9.415878003e-24
1.687320647e-23
3.15309925e-23
5.825602396e-23
1.022912374e-22
1.651175553e-22
2.37100131e-22
2.914603264e-22
1.751478085e-23
2.786360318e-23
4.976785375e-23
9.257150124e-23
1.700270821e-22
2.964856489e-22
4.74993962e-22
6.770609718e-22
8.274997775e-22
5.166613497e-23
8.195935538e-23
1.457363779e-22
2.694358754e-22
4.911472264e-22
8.489819682e-22
1.347429375e-21
1.903225053e-21
2.309625792e-21
1.513458056e-22
2.391664896e-22
4.228161426e-22
7.757115957e-22
1.400816871e-21
2.395656739e-21
3.759337209e-21
5.252566989e-21
6.320684853e-21
4.394093105e-22
6.909680339e-22
1.212685201e-21
2.203914278e-21
3.935116676e-21
6.644848609e-21
1.02899408e-20
1.419781719e-20
1.692174447e-20
1.26197223e-21
1.972230959e-21
3.430675161e-21
6.164667462e-21
1.086144598e-20
1.807349492e-20
2.756973287e-20
3.751123345e-20
4.424037638e-20
3.578149438e-21
5.549939123e-21
9.551735424e-21
1.693771522e-20
2.938972874e-20
4.810442784e-20
7.217335633e-20
9.672863768e-20
1.128262781e-19
9.997287914e-21
1.536697253e-20
2.611939741e-20
4.561872934e-20
7.78131173e-20
1.250841761e-19
1.843764589e-19
2.432587685e-19
2.80596309e-19
2.7479329e-20
4.179384039e-20
7.002795936e-20
1.202449829e-19
2.013049098e-19
3.174333868e-19
4.59398734e-19
5.966399098e-19
6.808669192e-19
7.421411116e-20
1.115087507e-19
1.838582644e-19
3.0987235e-19
5.085090159e-19
7.860179918e-19
1.116778855e-18
1.428515769e-18
1.614307974e-18
1.968047307e-19
2.916846826e-19
4.724945971e-19
7.805606229e-19
1.254514063e-18
1.900455628e-18
2.652321579e-18
3.3457541e-18
3.750478363e-18
5.125206894e-19
7.482517102e-19
1.189163675e-18
1.923654596e-18
3.026850201e-18
4.495995805e-18
6.17276792e-18
7.699725837e-18
8.591888733e-18
1.312196497e-18
1.885028749e-18
2.936310917e-18
4.649158996e-18
7.165275711e-18
1.045488539e-17
1.417800485e-17
1.761689714e-17
1.976522211e-17
3.31022204e-18
4.676327728e-18
7.138170057e-18
1.107039463e-17
1.675408895e-17
2.416039485e-17
3.278319655e-17
4.155586164e-17
4.839487636e-17
8.254810856e-18
1.147212362e-17
1.718458195e-17
2.620343888e-17
3.929208804e-17
5.713503421e-17
8.080401517e-17
1.118165682e-16
1.457301547e-16
2.043430802e-17
2.800080377e-17
4.137833913e-17
6.279082716e-17
9.586919577e-17
1.48712032e-16
2.407628269e-16
4.042148612e-16
6.282166855e-16
5.046693072e-17
6.861345782e-17
1.014780053e-16
1.582543925e-16
2.625338788e-16
4.806304115e-16
9.76529633e-16
2.021142299e-15
3.575447072e-15
1.252256163e-16
1.714171414e-16
2.622821426e-16
4.486127247e-16
8.872629215e-16
2.039566917e-15
5.034972347e-15
1.170311948e-14
2.180461636e-14
3.163831407e-16
4.495248428e-16
7.550460336e-16
1.53197557e-15
3.747188695e-15
1.022623781e-14
2.771352024e-14
6.67445989e-14
1.253243718e-13
8.38624979e-16
1.300594732e-15
2.55714708e-15
6.285479144e-15
1.786066322e-14
5.252782818e-14
1.452029572e-13
3.474267013e-13
6.447072904e-13
2.471287535e-15
4.389929261e-15
1.020317721e-14
2.852736619e-14
8.594790042e-14
2.54124663e-13
6.873982718e-13
1.596899896e-12
2.891315638e-12
8.667982455e-15
1.750312537e-14
4.503509222e-14
1.311043166e-13
3.911186928e-13
1.113659886e-12
2.869257306e-12
6.342783096e-12
1.103990497e-11
3.655124329e-14
7.801143233e-14
2.036330945e-13
5.767593772e-13
1.631205686e-12
4.345328843e-12
1.040320639e-11
2.136242478e-11
3.499240289e-11
1.716340291e-13
3.584483767e-13
8.909195624e-13
2.356619057e-12
6.147514661e-12
1.49585245e-11
3.244601687e-11
6.018671689e-11
9.040796206e-11
8.110681071e-13
1.587502834e-12
3.638188442e-12
8.78162011e-12
2.07110014e-11
4.509810847e-11
8.668488275e-11
1.421824267e-10
1.929360049e-10
3.597100822e-12
6.494992627e-12
1.35124576e-11
2.93116833e-11
6.152562688e-11
1.180674105e-10
1.990890876e-10
2.896899782e-10
3.610252272e-10
1.435396234e-11
2.378530025e-11
4.453417754e-11
8.58718448e-11
1.587110953e-10
2.67318757e-10
4.005507637e-10
5.344090348e-10
6.342501313e-10
4.989358888e-11
7.579213858e-11
1.271688753e-10
2.169294519e-10
3.535513997e-10
5.318821218e-10
7.341011824e-10
9.335627875e-10
1.082005425e-09
1.470084052e-10
2.052890041e-10
3.097202178e-10
4.717943073e-10
6.938927975e-10
9.67734303e-10
1.275856935e-09
1.581029854e-09
1.806695547e-09
3.620274331e-10
4.697752449e-10
6.488340205e-10
9.084688035e-10
1.252040399e-09
1.67422787e-09
2.150290974e-09
2.618882774e-09
2.96158352e-09
7.57816587e-10
9.33294264e-10
1.216496468e-09
1.620965881e-09
2.155407635e-09
2.811527232e-09
3.546589005e-09
4.263459886e-09
4.782014482e-09
1.416420144e-09
1.692988374e-09
2.137358315e-09
2.770679523e-09
3.604295756e-09
4.621282277e-09
5.752383505e-09
6.846900175e-09
7.631689113e-09
2.480915601e-09
2.916523705e-09
3.613846194e-09
4.602405604e-09
5.89663544e-09
7.46703732e-09
9.204997725e-09
1.087874313e-08
1.207187302e-08
4.174968433e-09
4.85569801e-09
5.941088622e-09
7.473721666e-09
9.472724382e-09
1.189163999e-08
1.456417598e-08
1.713471269e-08
1.896267775e-08
6.814142833e-09
7.867047138e-09
9.541473269e-09
1.190056937e-08
1.497386981e-08
1.869377004e-08
2.2810338e-08
2.677824363e-08
2.960242435e-08
1.083738568e-08
1.244838228e-08
1.500777047e-08
1.861300262e-08
2.331547071e-08
2.902388597e-08
3.5368495e-08
4.151360556e-08
4.590274598e-08
1.684145195e-08
1.927957076e-08
2.31543432e-08
2.862054134e-08
3.577223244e-08
4.449523098e-08
5.42494637e-08
6.375747514e-08
7.058224312e-08
2.562264352e-08
2.927048203e-08
3.507515879e-08
4.328474663e-08
5.406979554e-08
6.729825103e-08
8.218874196e-08
9.680022283e-08
1.073426754e-07
3.822723611e-08
4.361732326e-08
5.22088988e-08
6.439537202e-08
8.047287316e-08
1.00299597e-07
1.227529753e-07
1.449152674e-07
1.609779455e-07
5.601614368e-08
6.387102814e-08
7.64114443e-08
9.424504688e-08
1.178570037e-07
1.471024462e-07
1.803793836e-07
2.133731454e-07
2.373764868e-07
8.074967764e-08
9.202121824e-08
1.100353497e-07
1.356963678e-07
1.697501615e-07
2.120450645e-07
2.603177875e-07
3.083308425e-07
3.433567438e-07
1.146952174e-07
1.30596137e-07
1.560132166e-07
1.922342602e-07
2.403337344e-07
3.001326217e-07
3.684646926e-07
4.364943825e-07
4.861045464e-07
1.607522043e-07
1.827713222e-07
2.179363696e-07
2.679951114e-07
3.344051876e-07
4.168931891e-07
5.1102012e-07
6.045335414e-07
6.726240726e-07
2.225756087e-07
2.524685705e-07
3.001143183e-07
3.677705755e-07
4.572914309e-07
5.680631483e-07
6.939414372e-07
8.185576729e-07
9.090657858e-07
3.04684221e-07
3.444355565e-07
4.076160404e-07
4.96961801e-07
6.145061504e-07
7.591076732e-07
9.225159166e-07
1.083514593e-06
1.200050618e-06
4.125053386e-07
4.642426981e-07
5.460715158e-07
6.610756429e-07
8.113330044e-07
9.948603198e-07
1.200848312e-06
1.402621092e-06
1.548071477e-06
5.520355931e-07
6.177652419e-07
7.211557197e-07
8.654462302e-07
1.052475794e-06
1.279045522e-06
1.53136284e-06
1.776878113e-06
1.953033358e-06
7.293443136e-07
8.108514965e-07
9.382914758e-07
1.114777439e-06
1.341546154e-06
1.613780122e-06
1.914359522e-06
2.204712416e-06
2.411971458e-06
9.501827183e-07
1.048826891e-06
1.202078026e-06
1.412569663e-06
1.68052179e-06
1.999108694e-06
2.347670622e-06
2.681776911e-06
2.918967095e-06
1.219324436e-06
1.3358394e-06
1.515655604e-06
1.760530755e-06
2.069243192e-06
2.432630775e-06
2.826455448e-06
3.200923664e-06
3.465256336e-06
1.539871677e-06
1.674195392e-06
1.880095821e-06
2.1580539e-06
2.505016653e-06
2.909263627e-06
3.343143993e-06
3.752324993e-06
4.039483724e-06
1.912626399e-06
2.06378167e-06
2.293905353e-06
2.601834549e-06
2.982370421e-06
3.421148549e-06
3.887483238e-06
4.323638572e-06
4.627978257e-06
2.335612388e-06
2.501652312e-06
2.752709294e-06
3.085674317e-06
3.492983586e-06
3.957670094e-06
4.446554116e-06
4.899913539e-06
5.214846582e-06
2.803801772e-06
2.981824933e-06
3.249147281e-06
3.600495388e-06
4.025810707e-06
4.505610706e-06
5.004637679e-06
5.462014991e-06
5.774778958e-06
3.309052025e-06
3.495280411e-06
3.772962053e-06
4.134544727e-06
4.567459375e-06
5.049895796e-06
5.544970279e-06
5.991663225e-06
6.295511385e-06
3.84019596e-06
4.030086598e-06
4.311153576e-06
4.673550033e-06
5.102293309e-06
5.573623217e-06
6.04928661e-06
6.476965239e-06
6.767674122e-06
4.38314385e-06
4.571495058e-06
4.84802936e-06
5.200620064e-06
5.611876007e-06
6.058027811e-06
6.507394836e-06
6.910211567e-06
7.183499231e-06
4.920685996e-06
5.101727656e-06
5.36494323e-06
5.696103521e-06
6.080081908e-06
6.495459808e-06
6.912186486e-06
7.284321195e-06
7.536184849e-06
5.431278918e-06
5.598846949e-06
5.841802282e-06
6.147163037e-06
6.499441211e-06
6.878488718e-06
7.256739011e-06
7.593047588e-06
7.820116063e-06
5.89874937e-06
6.051187199e-06
6.271389619e-06
6.546877566e-06
6.862701079e-06
7.200277154e-06
7.535123522e-06
7.831544084e-06
8.031303096e-06
6.316402231e-06
6.451701157e-06
6.646202029e-06
6.888003377e-06
7.16317561e-06
7.455148173e-06
7.742977937e-06
7.99679113e-06
8.167699691e-06
6.676564324e-06
6.792829111e-06
6.959000807e-06
7.16404965e-06
7.395480195e-06
7.639127557e-06
7.877883656e-06
8.087821342e-06
8.229332568e-06
6.971979065e-06
7.067776295e-06
7.203757707e-06
7.370100161e-06
7.556101404e-06
7.750292537e-06
7.939534782e-06
8.105753352e-06
8.218257129e-06
7.196913997e-06
7.271460659e-06
7.37637137e-06
7.503330242e-06
7.643706347e-06
7.788898031e-06
7.929718232e-06
8.053667696e-06
8.138376313e-06
7.347837916e-06
7.401064317e-06
7.475054897e-06
7.563230236e-06
7.65920968e-06
7.757309257e-06
7.852142393e-06
7.936365165e-06
7.995163055e-06
7.42371863e-06
7.456243261e-06
7.500433066e-06
7.551586307e-06
7.605646831e-06
7.659786241e-06
7.71215724e-06
7.76004777e-06
7.79532418e-06
7.426026702e-06
7.439073081e-06
7.45541505e-06
7.472278608e-06
7.487906557e-06
7.502166934e-06
7.516406783e-06
7.531956667e-06
7.546435498e-06
7.358525069e-06
7.353803899e-06
7.344907254e-06
7.330953962e-06
7.31237261e-06
7.29149063e-06
7.272448442e-06
7.260000892e-06
7.256582932e-06
7.226913738e-06
7.206488767e-06
7.175424017e-06
7.134622779e-06
7.086516366e-06
7.035599742e-06
6.988374881e-06
6.95240159e-06
6.934024325e-06
7.038387064e-06
7.004538419e-06
6.954643548e-06
6.891225179e-06
6.81848266e-06
6.742752281e-06
6.672457775e-06
6.617368232e-06
6.586889516e-06
6.801157297e-06
6.756254942e-06
6.690958637e-06
6.609205093e-06
6.516694845e-06
6.421265008e-06
6.332832341e-06
6.262821256e-06
6.222928964e-06
6.523986677e-06
6.470379658e-06
6.39304903e-06
6.297116275e-06
6.189501718e-06
6.079205486e-06
5.977234514e-06
5.896168653e-06
5.849316136e-06
6.215756948e-06
6.155683495e-06
6.069502465e-06
5.963282076e-06
5.8448817e-06
5.724142941e-06
5.612796531e-06
5.524139204e-06
5.472504639e-06
5.885100428e-06
5.820620606e-06
5.728500516e-06
5.615520807e-06
5.490211969e-06
5.362961865e-06
5.245901792e-06
5.152671055e-06
5.098137616e-06
5.540105397e-06
5.473055808e-06
5.377577022e-06
5.260941292e-06
5.132104088e-06
5.001737285e-06
4.882095914e-06
4.786851219e-06
4.731004386e-06
5.188100158e-06
5.120068663e-06
5.023449878e-06
4.905807253e-06
4.776302822e-06
4.645666807e-06
4.52604799e-06
4.430899456e-06
4.375037568e-06
4.835513301e-06
4.767830744e-06
4.671921539e-06
4.555464675e-06
4.427641274e-06
4.299051903e-06
4.181554243e-06
4.088188714e-06
4.03334304e-06
4.487802709e-06
4.421548153e-06
4.32783978e-06
4.214323275e-06
4.090043272e-06
3.965319437e-06
3.851575373e-06
3.761293875e-06
3.70825485e-06
4.149442676e-06
4.085458645e-06
3.995108099e-06
3.885881642e-06
3.766562953e-06
3.64707396e-06
3.538298822e-06
3.452060743e-06
3.401407528e-06
3.823957057e-06
3.762871488e-06
3.676734308e-06
3.572785203e-06
3.459451482e-06
3.346171599e-06
3.24321772e-06
3.161687857e-06
3.113818958e-06
3.5139862e-06
3.456238268e-06
3.374906176e-06
3.276906707e-06
3.170241563e-06
3.063807232e-06
2.967219224e-06
2.890814738e-06
2.845977954e-06
3.221376262e-06
3.167243781e-06
3.09108401e-06
2.999440051e-06
2.899841601e-06
2.800607896e-06
2.71067617e-06
2.639611282e-06
2.597931799e-06
2.947281027e-06
2.896907633e-06
2.826101575e-06
2.740999755e-06
2.648632832e-06
2.556726704e-06
2.473537242e-06
2.407864239e-06
2.369370088e-06
2.692268107e-06
2.645688975e-06
2.58026847e-06
2.501720056e-06
2.416564251e-06
2.331932978e-06
2.255412105e-06
2.195057838e-06
2.159702319e-06
2.456423313e-06
2.413588583e-06
2.353468793e-06
2.281349132e-06
2.203241618e-06
2.125695585e-06
2.055649129e-06
2.000446619e-06
1.968127559e-06
2.239448748e-06
2.200244207e-06
2.145252495e-06
2.07933546e-06
2.008008105e-06
1.937257589e-06
1.873404265e-06
1.823119448e-06
1.793695342e-06
2.040751743e-06
2.005016588e-06
1.95491722e-06
1.89490451e-06
1.830015242e-06
1.765701283e-06
1.707700518e-06
1.662054293e-06
1.635357549e-06
1.859523041e-06
1.827064754e-06
1.781579515e-06
1.727124998e-06
1.66828373e-06
1.610003394e-06
1.557477867e-06
1.51616396e-06
1.492011534e-06
1.694803719e-06
1.665410243e-06
1.624235238e-06
1.574964633e-06
1.521754021e-06
1.469080632e-06
1.421634305e-06
1.384333343e-06
1.36253506e-06
1.545540897e-06
1.518990322e-06
1.481809279e-06
1.43733573e-06
1.389327602e-06
1.341826554e-06
1.299058579e-06
1.265448907e-06
1.24581381e-06
1.410632957e-06
1.386701047e-06
1.353195655e-06
1.313131744e-06
1.26989963e-06
1.22714037e-06
1.188655565e-06
1.158421312e-06
1.140762366e-06
1.288965328e-06
1.267431214e-06
1.237288877e-06
1.201255578e-06
1.162383989e-06
1.123948808e-06
1.08936526e-06
1.062202143e-06
1.046339581e-06
1.17943796e-06
1.160088278e-06
1.133007726e-06
1.100640833e-06
1.065731847e-06
1.031222045e-06
1.000176377e-06
9.757956597e-07
9.615592441e-07
1.080985678e-06
1.063617442e-06
1.039312593e-06
1.010267089e-06
9.789447647e-07
9.479847131e-07
9.201354736e-07
8.982664729e-07
8.854968976e-07
9.925925993e-07
9.770150524e-07
9.552174772e-07
9.291702655e-07
9.010833348e-07
8.733228687e-07
8.4835247e-07
8.287439217e-07
8.172935502e-07
9.133016923e-07
8.993373671e-07
8.797976498e-07
8.564490165e-07
8.3127224e-07
8.063877789e-07
7.840033063e-07
7.664238733e-07
7.561569773e-07
8.422204604e-07
8.297056222e-07
8.121938937e-07
7.912679933e-07
7.687025081e-07
7.463972119e-07
7.263304025e-07
7.105685431e-07
7.013611736e-07
7.785236003e-07
7.67308235e-07
7.516140779e-07
7.328587034e-07
7.126316276e-07
6.92634852e-07
6.746414695e-07
6.6050485e-07
6.522444484e-07
7.214533576e-07
7.114008266e-07
6.973327318e-07
6.805185701e-07
6.6238208e-07
6.444483399e-07
6.283071308e-07
6.15621726e-07
6.082065593e-07
6.703181818e-07
6.613046468e-07
6.486891597e-07
6.336086941e-07
6.173387466e-07
6.012463526e-07
5.867577296e-07
5.753667226e-07
5.68705208e-07
6.244901734e-07
6.164038697e-07
6.050845343e-07
5.915507234e-07
5.769455553e-07
5.624950503e-07
5.494796146e-07
5.392421838e-07
5.332521527e-07
5.834017144e-07
5.761421344e-07
5.659783213e-07
5.538231501e-07
5.40701657e-07
5.27714152e-07
5.160111392e-07
5.06801195e-07
5.014091338e-07
5.465415947e-07
5.400186282e-07
5.308843077e-07
5.19957286e-07
5.081573573e-07
4.964728368e-07
4.859385488e-07
4.776434694e-07
4.727837631e-07
5.134508692e-07
5.075839348e-07
4.993664439e-07
4.895331054e-07
4.789099708e-07
4.683856216e-07
4.588918887e-07
4.514112866e-07
4.470254851e-07
4.837186274e-07
4.784358208e-07
4.710346578e-07
4.621750975e-07
4.525997235e-07
4.431083213e-07
4.345410267e-07
4.27785571e-07
4.238216908e-07
4.569778072e-07
4.522150809e-07
4.45540748e-07
4.375482246e-07
4.289057888e-07
4.203341705e-07
4.125918569e-07
4.064821641e-07
4.028940324e-07
4.329011375e-07
4.286015268e-07
4.2257444e-07
4.153540619e-07
4.07542522e-07
3.997901563e-07
3.927827256e-07
3.872483282e-07
3.839949751e-07
4.11197288e-07
4.073101884e-07
4.01859661e-07
3.953271639e-07
3.882559289e-07
3.812335919e-07
3.748811049e-07
3.698595017e-07
3.669046017e-07
3.916072579e-07
3.880877563e-07
3.831510598e-07
3.772316791e-07
3.708203872e-07
3.64448948e-07
3.586805261e-07
3.541163147e-07
3.514276772e-07
3.739010209e-07
3.707092834e-07
3.662307884e-07
3.608582289e-07
3.550356328e-07
3.492449473e-07
3.439977731e-07
3.398418623e-07
3.373909702e-07
3.578744424e-07
3.549751567e-07
3.509055515e-07
3.460210522e-07
3.40724008e-07
3.354519171e-07
3.306703313e-07
3.268792302e-07
3.246408241e-07
3.433464651e-07
3.40708336e-07
3.370039203e-07
3.325554092e-07
3.277279641e-07
3.229193911e-07
3.1855408e-07
3.150892597e-07
3.130409643e-07
3.301565556e-07
3.277518509e-07
3.243739001e-07
3.203152348e-07
3.159078077e-07
3.115139488e-07
3.075212163e-07
3.043485379e-07
3.024705292e-07
3.181624007e-07
3.15966544e-07
3.128807396e-07
3.091710265e-07
3.051396753e-07
3.01117276e-07
2.974583933e-07
2.945475987e-07
2.928223059e-07
3.072378373e-07
3.05229044e-07
3.024049646e-07
2.990079521e-07
2.953137199e-07
2.916244299e-07
2.882650569e-07
2.855893152e-07
2.840011573e-07
2.972710001e-07
2.95429953e-07
2.928406213e-07
2.897241589e-07
2.863324927e-07
2.82942293e-07
2.798519645e-07
2.773874699e-07
2.759226217e-07
2.881626681e-07
2.864722296e-07
2.840937098e-07
2.812292687e-07
2.781095033e-07
2.749881981e-07
2.721398686e-07
2.698654843e-07
2.68511669e-07
2.798247948e-07
2.78269751e-07
2.760807922e-07
2.734430401e-07
2.705679416e-07
2.676887087e-07
2.650583494e-07
2.629552928e-07
2.617015993e-07
2.721792027e-07
2.707460375e-07
2.687277582e-07
2.662941832e-07
2.636395449e-07
2.609785385e-07
2.585447821e-07
2.565963474e-07
2.554330689e-07
2.65156427e-07
2.638331228e-07
2.619687317e-07
2.597193107e-07
2.572635972e-07
2.547995971e-07
2.525434241e-07
2.507347372e-07
2.496532293e-07
2.586946943e-07
2.574705551e-07
2.557451058e-07
2.536620115e-07
2.51386044e-07
2.491001471e-07
2.470046097e-07
2.453224127e-07
2.443149683e-07
2.527390195e-07
2.516045159e-07
2.500046899e-07
2.480720329e-07
2.459587129e-07
2.438340612e-07
2.418840401e-07
2.403165019e-07
2.393762411e-07
2.472404101e-07
2.461870427e-07
2.447009585e-07
2.429045606e-07
2.409386263e-07
2.389601674e-07
2.371421583e-07
2.356787075e-07
2.347994811e-07
2.421551654e-07
2.411753443e-07
2.397923898e-07
2.381195843e-07
2.362873962e-07
2.344416734e-07
2.327435986e-07
2.313747775e-07
2.30551082e-07
2.374442594e-07
2.365311985e-07
2.352418835e-07
2.336813392e-07
2.319706924e-07
2.302456594e-07
2.286567031e-07
2.273740386e-07
2.266009416e-07
2.33072798e-07
2.322204217e-07
2.310162481e-07
2.295578156e-07
2.27957774e-07
2.263426326e-07
2.248530957e-07
2.236489863e-07
2.229220611e-07
2.290095417e-07
2.282124037e-07
2.270857514e-07
2.257203272e-07
2.242210782e-07
2.227061359e-07
2.213073083e-07
2.201749248e-07
2.194901927e-07
2.25226486e-07
2.24479697e-07
2.23423724e-07
2.221431317e-07
2.207358586e-07
2.193124027e-07
2.179964518e-07
2.169296501e-07
2.1628353e-07
2.21698493e-07
2.209976579e-07
2.200062122e-07
2.188030975e-07
2.174798672e-07
2.161400551e-07
2.14899927e-07
2.138931714e-07
2.132824353e-07
2.184029671e-07
2.177441293e-07
2.168116716e-07
2.156794105e-07
2.144330749e-07
2.131698369e-07
2.1199917e-07
2.110474658e-07
2.104691998e-07
2.153195701e-07
2.14699163e-07
2.138206985e-07
2.127533166e-07
2.115774259e-07
2.103843802e-07
2.092774293e-07
2.083762634e-07
2.078278334e-07
2.124299708e-07
2.118447749e-07
2.110157937e-07
2.100078947e-07
2.088966211e-07
2.077679987e-07
2.06719568e-07
2.058648571e-07
2.053438785e-07
2.097176247e-07
2.091647295e-07
2.083811541e-07
2.074278572e-07
2.063759279e-07
2.05306507e-07
2.043118909e-07
2.034999351e-07
2.030042463e-07
2.071675796e-07
2.066443508e-07
2.059024895e-07
2.049993747e-07
2.040020124e-07
2.029870599e-07
2.020419917e-07
2.012694345e-07
2.007970733e-07
2.04766305e-07
2.04270355e-07
2.035668613e-07
2.027099202e-07
2.017627914e-07
2.00798012e-07
1.998986177e-07
1.9916241e-07
1.987115934e-07
2.02501541e-07
2.020307033e-07
2.013625395e-07
2.005481332e-07
1.996473019e-07
1.98728793e-07
1.978715511e-07
1.971689202e-07
1.967380256e-07
2.003621651e-07
1.999144714e-07
1.992788773e-07
1.98503698e-07
1.976455855e-07
1.967697973e-07
1.959515034e-07
1.952799248e-07
1.948674745e-07
1.983380741e-07
1.979117341e-07
1.973061989e-07
1.96567237e-07
1.957485861e-07
1.949122864e-07
1.941300218e-07
1.934871955e-07
1.930918422e-07
1.964200794e-07
1.960134633e-07
1.954357007e-07
1.94730215e-07
1.939480584e-07
1.931483019e-07
1.923994062e-07
1.917832348e-07
1.914037498e-07
1.945998128e-07
1.942114356e-07
1.93659362e-07
1.929848541e-07
1.922364866e-07
1.914705878e-07
1.907526346e-07
1.901612049e-07
1.897964671e-07
1.928696431e-07
1.924981505e-07
1.919698658e-07
1.913240569e-07
1.90607011e-07
1.8987252e-07
1.891832957e-07
1.886148623e-07
1.882638489e-07
1.912225992e-07
1.908667554e-07
1.903605256e-07
1.897413363e-07
1.890533603e-07
1.883480418e-07
1.876855273e-07
1.871384987e-07
1.868002774e-07
1.896522998e-07
1.893109764e-07
1.888252183e-07
1.882307503e-07
1.875697892e-07
1.86891604e-07
1.862539582e-07
1.857268842e-07
1.854006065e-07
1.881528872e-07
1.878250531e-07
1.873583207e-07
1.867868405e-07
1.861510186e-07
1.854981067e-07
1.848836522e-07
1.843752137e-07
1.84060109e-07
1.867189632e-07
1.864036758e-07
1.85954647e-07
1.854045706e-07
1.847921757e-07
1.841628413e-07
1.835700514e-07
1.830790504e-07
1.827744214e-07
1.85345526e-07
1.85041922e-07
1.846093865e-07
1.840792653e-07
1.834887331e-07
1.828814298e-07
1.823089158e-07
1.81834267e-07
1.815394848e-07
1.840279045e-07
1.837351909e-07
1.833180383e-07
1.828065442e-07
1.822364429e-07
1.816497588e-07
1.810962577e-07
1.806369786e-07
1.803514782e-07
1.827616883e-07
1.824791337e-07
1.8207634e-07
1.8158225e-07
1.810312637e-07
1.804639049e-07
1.799282644e-07
1.794834652e-07
1.792067401e-07
1.815426519e-07
1.812695758e-07
1.808801892e-07
1.804023674e-07
1.798692765e-07
1.793200478e-07
1.788012091e-07
1.78370079e-07
1.78101673e-07
1.80366669e-07
1.801024299e-07
1.79725553e-07
1.792629298e-07
1.787465873e-07
1.782143678e-07
1.777113429e-07
1.772931314e-07
1.770326287e-07
1.792296154e-07
1.789735963e-07
1.786083659e-07
1.781599115e-07
1.77659213e-07
1.771429247e-07
1.766547662e-07
1.762487586e-07
1.75995768e-07
1.781272589e-07
1.778788496e-07
1.775244103e-07
1.770891019e-07
1.76602948e-07
1.761015151e-07
1.756272765e-07
1.752327594e-07
1.749868927e-07
1.770551334e-07
1.768137087e-07
1.764691808e-07
1.760459618e-07
1.7557321e-07
1.750855068e-07
1.746241899e-07
1.742404054e-07
1.740012472e-07
1.760083982e-07
1.757732907e-07
1.75437731e-07
1.750254601e-07
1.745648645e-07
1.740896492e-07
1.736401375e-07
1.732662229e-07
1.73033291e-07
1.749816801e-07
1.747521485e-07
1.744245022e-07
1.740218914e-07
1.735720292e-07
1.731078619e-07
1.726688362e-07
1.723037487e-07
1.720764425e-07
1.739689027e-07
1.737440932e-07
1.73423137e-07
1.73028678e-07
1.725878609e-07
1.721330048e-07
1.717028411e-07
1.713452641e-07
1.711228013e-07
1.729631028e-07
1.727420047e-07
1.72426281e-07
1.720381587e-07
1.716043296e-07
1.711566349e-07
1.707332839e-07
1.703815162e-07
1.701628561e-07
1.719562405e-07
1.717376362e-07
1.714253778e-07
1.710413727e-07
1.70611988e-07
1.701687593e-07
1.697496079e-07
1.694014359e-07
1.691851907e-07
1.709390069e-07
1.707214162e-07
1.70410464e-07
1.700278448e-07
1.695997442e-07
1.691575938e-07
1.687393118e-07
1.683918673e-07
1.681762031e-07
1.699006378e-07
1.696822588e-07
1.693699736e-07
1.689853814e-07
1.685546495e-07
1.681093409e-07
1.676877167e-07
1.673373242e-07
1.671198542e-07
1.688287421e-07
1.686073899e-07
1.682905607e-07
1.678998907e-07
1.674617139e-07
1.670080006e-07
1.665777727e-07
1.662197925e-07
1.659974666e-07
1.677091534e-07
1.674821992e-07
1.671569533e-07
1.667552373e-07
1.663037632e-07
1.658352306e-07
1.653899227e-07
1.650185975e-07
1.647875944e-07
1.665258164e-07
1.662901302e-07
1.659518482e-07
1.655331451e-07
1.650613521e-07
1.645702723e-07
1.641020419e-07
1.637103563e-07
1.634659849e-07
1.65260718e-07
1.650126183e-07
1.646558607e-07
1.642131625e-07
1.63712749e-07
1.631899581e-07
1.626894709e-07
1.622690359e-07
1.620056532e-07
1.638938755e-07
1.636290904e-07
1.63247541e-07
1.627727023e-07
1.622340061e-07
1.616688181e-07
1.611251612e-07
1.606661355e-07
1.603770919e-07
1.624033917e-07
1.621170354e-07
1.617034696e-07
1.611871705e-07
1.605991301e-07
1.599792999e-07
1.593799495e-07
1.588710131e-07
1.585486339e-07
1.607655895e-07
1.604521604e-07
1.599984451e-07
1.594301974e-07
1.587803675e-07
1.580921185e-07
1.574229775e-07
1.56851372e-07
1.564869864e-07
1.589552371e-07
1.586086416e-07
1.581057755e-07
1.574739831e-07
1.567486191e-07
1.559767505e-07
1.552222731e-07
1.545739251e-07
1.54157954e-07
1.569458764e-07
1.56559484e-07
1.559976867e-07
1.552897722e-07
1.544739961e-07
1.53602087e-07
1.52745507e-07
1.520052505e-07
1.515273649e-07
1.547102657e-07
1.542770033e-07
1.536458616e-07
1.528484693e-07
1.519265322e-07
1.509372572e-07
1.499609371e-07
1.491128505e-07
1.485622097e-07
1.522209525e-07
1.517334407e-07
1.510221212e-07
1.501214093e-07
1.490770626e-07
1.479526335e-07
1.468385489e-07
1.458664185e-07
1.452319988e-07
1.494509872e-07
1.48901726e-07
1.48099261e-07
1.470812904e-07
1.458982766e-07
1.446210217e-07