/*--------------------------------*- C++ -*----------------------------------*\
| =========                 |                                                 |
| \\      /  F ield         | OpenFOAM: The Open Source CFD Toolbox           |
|  \\    /   O peration     | Version:  2212                                  |
|   \\  /    A nd           | Website:  www.openfoam.com                      |
|    \\/     M anipulation  |                                                 |
\*---------------------------------------------------------------------------*/
FoamFile
{
    version     2.0;
    format      ascii;
    arch        "LSB;label=32;scalar=64";
    class       volScalarField;
    location    "20.00000000";
    object      C2H4;
}
// * * * * * * * * * * * * * * * * * * * * * * * * * * * * * * * * * * * * * //

dimensions      [0 0 0 0 0 0 0];

internalField   nonuniform List<scalar> 
3000
(
6.252156563e-22
7.022128975e-22
8.183454912e-22
9.729932567e-22
1.16449615e-21
1.387577062e-21
1.628774456e-21
1.858803889e-21
2.021397127e-21
2.347278355e-21
2.646943483e-21
3.098702467e-21
3.701567948e-21
4.454541206e-21
5.35311326e-21
6.381516159e-21
7.488529217e-21
8.468962346e-21
5.257824067e-21
5.975643674e-21
7.068093856e-21
8.55016061e-21
1.044729702e-20
1.278574081e-20
1.555506487e-20
1.860030274e-20
2.12009598e-20
1.001461168e-20
1.150123281e-20
1.379709985e-20
1.697832765e-20
2.115513819e-20
2.64303207e-20
3.277088813e-20
3.966716005e-20
4.52252945e-20
1.778341025e-20
2.067478402e-20
2.521125783e-20
3.16215385e-20
4.020429268e-20
5.119594693e-20
6.440581603e-20
7.841424831e-20
8.91429578e-20
3.05789594e-20
3.600744496e-20
4.464846905e-20
5.705341503e-20
7.388500109e-20
9.557133182e-20
1.214752042e-19
1.483501196e-19
1.682736238e-19
5.190866139e-20
6.188109088e-20
7.794108058e-20
1.012586825e-19
1.331349191e-19
1.742093771e-19
2.227909441e-19
2.721692596e-19
3.078088121e-19
8.783809273e-20
1.058836553e-19
1.35203e-19
1.780996952e-19
2.369671008e-19
3.126548668e-19
4.013662136e-19
4.901864984e-19
5.532015767e-19
1.488803069e-19
1.811876851e-19
2.340166522e-19
3.116976717e-19
4.184822388e-19
5.55394268e-19
7.146964044e-19
8.725260785e-19
9.83267071e-19
2.532466869e-19
3.106338146e-19
4.049001225e-19
5.439546394e-19
7.352165683e-19
9.797890126e-19
1.26277877e-18
1.541103646e-18
1.734950466e-18
4.325171771e-19
5.338651459e-19
7.008677305e-19
9.477069595e-19
1.287219149e-18
1.720378803e-18
2.219514964e-18
2.70793802e-18
3.046447722e-18
7.414859184e-19
9.197175232e-19
1.214046211e-18
1.649610422e-18
2.248539381e-18
3.01125358e-18
3.887478382e-18
4.74191175e-18
5.332210567e-18
1.275291601e-18
1.587801667e-18
2.104648796e-18
2.870076596e-18
3.922188539e-18
5.259982067e-18
6.793381796e-18
8.285095182e-18
9.313967794e-18
2.199159345e-18
2.745995642e-18
3.651369983e-18
4.992881629e-18
6.836246136e-18
9.177366945e-18
1.185593895e-17
1.44567138e-17
1.625154538e-17
3.799927999e-18
4.755400733e-18
6.338742751e-18
8.686078458e-18
1.19115955e-17
1.600564951e-17
2.068301236e-17
2.521226626e-17
2.835165293e-17
6.575140385e-18
8.242453724e-18
1.100746438e-17
1.510910766e-17
2.074769625e-17
2.790768746e-17
3.609587853e-17
4.404049803e-17
4.947269767e-17
1.138728201e-17
1.429265341e-17
1.911286425e-17
2.626463813e-17
3.60948283e-17
4.856984273e-17
6.281807125e-17
7.6612067e-17
8.606470889e-17
1.973211798e-17
2.478876607e-17
3.317998561e-17
4.56302711e-17
6.273869507e-17
8.443808887e-17
1.092031871e-16
1.331607701e-16
1.495787279e-16
3.420494707e-17
4.299835193e-17
5.759270275e-17
7.924683487e-17
1.0899734e-16
1.467186746e-16
1.897518449e-16
2.313658879e-16
2.598758017e-16
5.93101926e-17
7.459355665e-17
9.996233966e-17
1.376038109e-16
1.893143691e-16
2.548663471e-16
3.296299926e-16
4.019081975e-16
4.514133299e-16
1.028670682e-16
1.294216107e-16
1.735037954e-16
2.389137779e-16
3.287667771e-16
4.426552067e-16
5.725227292e-16
6.980451091e-16
7.840007635e-16
1.784505974e-16
2.245794112e-16
3.011619696e-16
4.147993484e-16
5.708946745e-16
7.687225812e-16
9.942695771e-16
1.21222886e-15
1.361461482e-15
3.096313637e-16
3.897537735e-16
5.227788872e-16
7.201701466e-16
9.912981089e-16
1.334875474e-15
1.726532967e-15
2.1049496e-15
2.364017685e-15
5.373400064e-16
6.764974876e-16
9.075424495e-16
1.250376524e-15
1.721247255e-15
2.317872528e-15
2.99788261e-15
3.65480588e-15
4.10449149e-15
9.326598072e-16
1.174342135e-15
1.575607763e-15
2.170994731e-15
2.988662305e-15
4.024563763e-15
5.205051353e-15
6.345278362e-15
7.125730207e-15
1.619043006e-15
2.038777853e-15
2.735635252e-15
3.769524313e-15
5.189211774e-15
6.987492638e-15
9.036355239e-15
1.101495375e-14
1.236906439e-14
2.810889525e-15
3.539837132e-15
4.749957836e-15
6.545101544e-15
9.009629751e-15
1.213061463e-14
1.568550518e-14
1.911753427e-14
2.146580281e-14
4.880518577e-15
6.146430911e-15
8.247673736e-15
1.136410003e-14
1.564140538e-14
2.105615914e-14
2.72213342e-14
3.317112058e-14
3.72407272e-14
8.474315213e-15
1.067258086e-14
1.432065405e-14
1.972962047e-14
2.715051241e-14
3.654030182e-14
4.722562914e-14
5.753196758e-14
6.457795991e-14
1.471394195e-14
1.853068701e-14
2.486281626e-14
3.424748361e-14
4.711583012e-14
6.338753259e-14
8.189032912e-14
9.972296067e-14
1.119056887e-13
2.554434338e-14
3.216939071e-14
4.315618949e-14
5.943009634e-14
8.172834572e-14
1.0989821e-13
1.418973246e-13
1.727039802e-13
1.937289507e-13
4.433429293e-14
5.582871253e-14
7.488044486e-14
1.030786443e-13
1.416765552e-13
1.903782483e-13
2.456224355e-13
2.987291398e-13
3.349228068e-13
7.690978916e-14
9.683824391e-14
1.298455946e-13
1.78649719e-13
2.453644876e-13
3.294063711e-13
4.245604856e-13
5.158519933e-13
5.779522194e-13
1.33325942e-13
1.678400211e-13
2.249522751e-13
3.092859985e-13
4.243704244e-13
5.690382539e-13
7.324371425e-13
8.887986356e-13
9.948985312e-13
2.308920122e-13
2.905762039e-13
3.892209466e-13
5.346363428e-13
7.326368293e-13
9.808642069e-13
1.260365171e-12
1.526949585e-12
1.707269514e-12
3.993096615e-13
5.023057392e-13
6.722785683e-13
9.223058316e-13
1.261803367e-12
1.685985576e-12
2.161770904e-12
2.613716606e-12
2.918216526e-12
6.893494899e-13
8.666015087e-13
1.158567286e-12
1.586904061e-12
2.166523516e-12
2.887724526e-12
3.692865636e-12
4.453882753e-12
4.964193976e-12
1.187404946e-12
1.491378623e-12
1.990919408e-12
2.721405009e-12
3.70577317e-12
4.924484918e-12
6.277431229e-12
7.548763993e-12
8.396547312e-12
2.039723197e-12
2.558736841e-12
3.409278644e-12
4.648177785e-12
6.309376395e-12
8.353964935e-12
1.060896537e-11
1.271369214e-11
1.410835572e-11
3.492414855e-12
4.373887419e-12
5.813593128e-12
7.900977487e-12
1.068364237e-11
1.408530073e-11
1.780921705e-11
2.125875413e-11
2.352854195e-11
5.956919658e-12
7.444533702e-12
9.864745085e-12
1.335490429e-11
1.797664731e-11
2.358322776e-11
2.967039498e-11
3.526254527e-11
3.891441535e-11
1.011606565e-11
1.260821619e-11
1.664446269e-11
2.242950553e-11
3.003297836e-11
3.917868717e-11
4.901961123e-11
5.798072796e-11
6.378630512e-11
1.709404763e-11
2.123416503e-11
2.790533302e-11
3.740166934e-11
4.978057561e-11
6.453444309e-11
8.02594963e-11
9.444759934e-11
1.035649926e-10
2.872568762e-11
3.553923859e-11
4.645641125e-11
6.188087632e-11
8.180988051e-11
1.053335667e-10
1.301598983e-10
1.523512935e-10
1.664959674e-10
4.797766815e-11
5.907599636e-11
7.674994708e-11
1.015212653e-10
1.332295137e-10
1.702849819e-10
2.090042541e-10
2.43293917e-10
2.649764206e-10
7.959885346e-11
9.747667911e-11
1.257623266e-10
1.650749095e-10
2.149154975e-10
2.725762645e-10
3.322334294e-10
3.845898287e-10
4.174444309e-10
1.311105724e-10
1.595721769e-10
2.042999791e-10
2.659315166e-10
3.433157876e-10
4.319530425e-10
5.227833178e-10
6.018123616e-10
6.510490205e-10
2.14293646e-10
2.590529877e-10
3.289121016e-10
4.243452664e-10
5.430328072e-10
6.776712341e-10
8.143851359e-10
9.323766492e-10
1.00539994e-09
3.473906841e-10
4.169037532e-10
5.246611457e-10
6.706247246e-10
8.504892845e-10
1.052658889e-09
1.256195434e-09
1.430550475e-09
1.537804023e-09
5.583248187e-10
6.649297426e-10
8.29095171e-10
1.049663313e-09
1.319094029e-09
1.619346076e-09
1.919254385e-09
2.174424684e-09
2.330539437e-09
8.893467666e-10
1.050810329e-09
1.297891586e-09
1.627324238e-09
2.026473256e-09
2.467783497e-09
2.905445918e-09
3.27556069e-09
3.500910859e-09
1.403671323e-09
1.645272055e-09
2.012810757e-09
2.49937632e-09
3.084530671e-09
3.726884004e-09
4.359862392e-09
4.892275055e-09
5.215080841e-09
2.194866727e-09
2.552188354e-09
3.092826757e-09
3.803920863e-09
4.653358537e-09
5.579896849e-09
6.487770861e-09
7.247830172e-09
7.706994764e-09
3.400035668e-09
3.922710885e-09
4.709619569e-09
5.738579716e-09
6.960360402e-09
8.285569914e-09
9.577739686e-09
1.065518455e-08
1.130410863e-08
5.217901969e-09
5.974542345e-09
7.108632367e-09
8.58387174e-09
1.03263313e-08
1.220706008e-08
1.403314464e-08
1.55505584e-08
1.646212501e-08
7.933876783e-09
9.018677167e-09
1.063825151e-08
1.273540429e-08
1.52009995e-08
1.78509042e-08
2.041436853e-08
2.253821865e-08
2.381130297e-08
1.195463988e-08
1.349612435e-08
1.578960697e-08
1.874751691e-08
2.221102485e-08
2.591950601e-08
2.949540694e-08
3.245031771e-08
3.421815562e-08
1.785529012e-08
2.002785006e-08
2.325055349e-08
2.739227962e-08
3.222461954e-08
3.738150743e-08
4.233959207e-08
4.642703859e-08
4.886834342e-08
2.644333866e-08
2.948236342e-08
3.397842709e-08
3.973864422e-08
4.643787747e-08
5.356561101e-08
6.040076124e-08
6.602421968e-08
6.937841669e-08
3.884471626e-08
4.306625199e-08
4.929709106e-08
5.725759667e-08
6.648925767e-08
7.6285276e-08
8.565832569e-08
9.335723502e-08
9.794483949e-08
5.66177706e-08
6.244386198e-08
7.102492741e-08
8.196086396e-08
9.461121809e-08
1.080047693e-07
1.207972123e-07
1.312918099e-07
1.375410054e-07
8.190233632e-08
8.989394968e-08
1.016429705e-07
1.165843397e-07
1.338319452e-07
1.520599585e-07
1.694458097e-07
1.836954947e-07
1.921767347e-07
1.176146964e-07
1.285157174e-07
1.445176152e-07
1.648320325e-07
1.882427882e-07
2.129490008e-07
2.364881236e-07
2.557674104e-07
2.672385836e-07
1.677064297e-07
1.825028911e-07
2.041963265e-07
2.316976573e-07
2.633480353e-07
2.967112509e-07
3.284705436e-07
3.544679854e-07
3.699332233e-07
2.375070717e-07
2.575042216e-07
2.867932497e-07
3.238812077e-07
3.665169527e-07
4.114170407e-07
4.541277729e-07
4.890743785e-07
5.098603498e-07
3.341655612e-07
3.610859793e-07
4.004825285e-07
4.503215512e-07
5.075621824e-07
5.677945457e-07
6.250556643e-07
6.718908286e-07
6.997452327e-07
4.672077636e-07
5.03315961e-07
5.561215061e-07
6.228698634e-07
6.994708649e-07
7.80021515e-07
8.565605607e-07
9.191450133e-07
9.563628721e-07
6.492320848e-07
6.974924689e-07
7.680284702e-07
8.57128703e-07
9.593141163e-07
1.066708919e-06
1.168713524e-06
1.252099967e-06
1.301684022e-06
8.967665479e-07
9.610407192e-07
1.054936467e-06
1.173478401e-06
1.309356775e-06
1.452098569e-06
1.587631738e-06
1.698404084e-06
1.764265782e-06
1.231305128e-06
1.316593985e-06
1.441139757e-06
1.598305857e-06
1.778380654e-06
1.967485957e-06
2.146996393e-06
2.293687028e-06
2.380893859e-06
1.680535624e-06
1.793269824e-06
1.957840257e-06
2.165439115e-06
2.403219814e-06
2.652861363e-06
2.889794801e-06
3.083385104e-06
3.198457559e-06
2.2797612e-06
2.428140007e-06
2.644687153e-06
2.917773548e-06
3.230484595e-06
3.558735953e-06
3.870243735e-06
4.124745714e-06
4.276006063e-06
3.073502765e-06
3.267875753e-06
3.551482763e-06
3.909051254e-06
4.318421923e-06
4.748083975e-06
5.15580909e-06
5.488914764e-06
5.686876862e-06
4.117247838e-06
4.370526218e-06
4.740000855e-06
5.205724266e-06
5.73882264e-06
6.298290821e-06
6.82918884e-06
7.262924587e-06
7.520647573e-06
5.479281716e-06
5.807356234e-06
6.285828768e-06
6.888793182e-06
7.578847707e-06
8.302956577e-06
8.990046304e-06
9.551336099e-06
9.884792737e-06
7.242495937e-06
7.664626602e-06
8.280099724e-06
9.055467423e-06
9.942593076e-06
1.087327183e-05
1.175619714e-05
1.247735777e-05
1.290570885e-05
9.506021082e-06
1.004515127e-05
1.083093675e-05
1.182043789e-05
1.295202632e-05
1.413867953e-05
1.52640761e-05
1.618305233e-05
1.672877018e-05
1.238648347e-05
1.306940454e-05
1.406425566e-05
1.531624139e-05
1.674707536e-05
1.824662714e-05
1.966804078e-05
2.082827193e-05
2.151703424e-05
1.601838284e-05
1.687559552e-05
1.812354207e-05
1.969277695e-05
2.148462381e-05
2.336094169e-05
2.513815879e-05
2.658794256e-05
2.744821611e-05
2.055343996e-05
2.161883678e-05
2.316862245e-05
2.511543159e-05
2.733592626e-05
2.965849115e-05
3.185612953e-05
3.364736298e-05
3.470960746e-05
2.61587525e-05
2.746886872e-05
2.937278909e-05
3.176147915e-05
3.448216529e-05
3.732384693e-05
4.000908738e-05
4.219529824e-05
4.349074382e-05
3.301316892e-05
3.46059827e-05
3.691806654e-05
3.981452151e-05
4.310795264e-05
4.654180524e-05
4.97812008e-05
5.241483146e-05
5.397381514e-05
4.130173042e-05
4.321498036e-05
4.59884771e-05
4.94568962e-05
5.339277714e-05
5.748785107e-05
6.134322168e-05
6.447217644e-05
6.63220433e-05
5.120811972e-05
5.347716208e-05
5.676137905e-05
6.086022854e-05
6.550069492e-05
7.031697256e-05
7.484047004e-05
7.850394887e-05
8.066647125e-05
6.290528081e-05
6.55605857e-05
6.93972359e-05
7.417464034e-05
7.956895695e-05
8.515170933e-05
9.038028077e-05
9.460391445e-05
9.709177934e-05
7.654462726e-05
7.960910593e-05
8.402847242e-05
8.951747943e-05
9.569672953e-05
0.0001020709955
0.0001080210258
0.0001128121291
0.0001156257436
9.224447959e-05
9.573091855e-05
0.000100748272
0.0001069626207
0.0001139352785
0.0001211017415
0.0001277656239
0.0001331105505
0.0001362421252
0.000110078527
0.0001139874463
0.0001196001918
0.0001265312226
0.0001342804649
0.0001422140809
0.0001495607872
0.0001554379938
0.000158875956
0.0001300652425
0.000134383534
0.0001405695888
0.0001481848527
0.0001566678784
0.0001653203793
0.0001733115273
0.0001796896974
0.0001834148171
0.0001521594369
0.0001568602993
0.0001635785634
0.000171823588
0.0001809816242
0.0001902976667
0.0001988795993
0.0002057140699
0.0002096993415
0.0001762478454
0.0001812926558
0.0001884898653
0.0001973043486
0.0002070698658
0.0002169775538
0.0002260811693
0.0002333149739
0.0002375263464
0.0002021712001
0.0002075199415
0.000215138202
0.0002244485765
0.0002347378075
0.0002451494141
0.0002546917383
0.0002622574086
0.0002666549843
0.000229741775
0.0002353465394
0.000243316562
0.0002530362693
0.0002637515751
0.0002745663374
0.0002844534563
0.0002922755882
0.0002968151921
0.0002587304068
0.0002645364987
0.0002727797804
0.0002828119902
0.0002938454856
0.0003049535374
0.0003150843538
0.0003230826617
0.0003277176364
0.0002888721667
0.0002948201824
0.0003032521257
0.0003134935802
0.0003247315221
0.0003360183862
0.0003462887293
0.0003543812763
0.0003590643361
0.000319875595
0.0003259038981
0.0003344373351
0.0003447825954
0.0003561100075
0.000367461168
0.0003777678623
0.0003858741838
0.0003905591787
0.0003514338621
0.0003574811108
0.000366029825
0.0003763754373
0.0003876805316
0.0003989856989
0.0004092302731
0.0004172741686
0.0004219176373
0.0003832365774
0.0003892440636
0.0003977260061
0.00040797424
0.0004191523026
0.0004303090774
0.0004404008797
0.000448312712
0.0004528751423
0.0004149811972
0.0004208948314
0.0004292348124
0.0004392967349
0.0004502532492
0.0004611699953
0.0004710285728
0.0004787469772
0.0004831937231
0.0004463832002
0.0004521550382
0.0004602867631
0.0004700845107
0.0004807373999
0.0004913352324
0.0005008919141
0.0005083648995
0.000512666758
0.0004771844332
0.0004827736984
0.0004906410962
0.0005001092994
0.0005103902597
0.000520604155
0.0005298028693
0.0005369883321
0.0005411217885
0.0005071592654
0.0005125328714
0.0005200907332
0.0005291771377
0.000539032131
0.0005488112296
0.0005576086207
0.0005644743376
0.0005684215234
0.0005361184474
0.0005412510741
0.0005484650804
0.0005571304559
0.0005665194647
0.0005758266839
0.0005841916477
0.0005907148412
0.0005944632584
0.0005639107695
0.000568784562
0.0005756307996
0.000583848271
0.0005927444681
0.0006015555782
0.0006094683524
0.000615634935
0.0006191770064
0.0005904227566
0.0005950267387
0.0006014908374
0.0006092447896
0.0006176332858
0.0006259356076
0.0006333865559
0.0006391901568
0.0006425226611
0.0006155767622
0.0006199060571
0.0006259820731
0.0006332667802
0.0006411431073
0.000648933981
0.0006559221999
0.0006613630727
0.0006644865165
0.0006393278651
0.0006433828092
0.0006490719733
0.0006558900882
0.0006632585574
0.0006705437146
0.0006770755741
0.0006821594651
0.0006850774387
0.0006616599786
0.0006654452012
0.0006707546311
0.0006771156472
0.0006839876968
0.0006907796414
0.0006968673484
0.0007016043913
0.0007043229411
0.0006825815427
0.0006861050694
0.0006910465211
0.0006969652943
0.0007033579148
0.0007096743907
0.0007153346396
0.0007197383232
0.0007222653677
0.0007021211151
0.0007053935353
0.00070998225
0.000715477639
0.0007214119339
0.0007272745344
0.000732527288
0.000736613527
0.0007389583325
0.0007203231067
0.0007233568309
0.0007276105097
0.0007327041731
0.0007382040908
0.0007436370384
0.0007485044636
0.0007522907901
0.0007544635147
0.0007372438365
0.0007400524571
0.0007439903796
0.0007487057461
0.0007537969988
0.0007588261092
0.0007633316756
0.0007668365559
0.0007688478646
0.0007529480167
0.0007555457745
0.0007591880665
0.0007635494802
0.00076825865
0.0007729104778
0.0007770782173
0.0007803204919
0.0007821812419
0.0007675057239
0.0007699070769
0.0007732741192
0.0007773061529
0.0007816599747
0.0007859611309
0.0007898150477
0.0007928134862
0.0007945344766
0.0007809898697
0.0007832091562
0.000786321123
0.0007900480429
0.0007940728483
0.0007980494727
0.0008016130883
0.0008043860471
0.0008059778267
0.0007934741527
0.0007955253365
0.0007984018483
0.0008018472123
0.0008055685141
0.0008092458824
0.0008125418987
0.000815107068
0.0008165797936
0.0008050314525
0.0008069279394
0.0008095878125
0.0008127741831
0.0008162163784
0.000819618624
0.0008226686856
0.0008250429126
0.0008264062499
0.0008157326166
0.0008174871287
0.0008199482062
0.0008228969564
0.0008260831293
0.0008292330588
0.0008320575982
0.0008342567714
0.0008355198318
0.0008256455828
0.0008272700815
0.0008295491286
0.0008322803244
0.0008352321277
0.0008381511128
0.0008407692592
0.0008428082452
0.0008439795501
0.0008348347832
0.0008363404286
0.0008384530797
0.000840985421
0.0008437230181
0.0008464309484
0.0008488604936
0.0008507531103
0.0008518405768
0.0008433607737
0.000844757912
0.0008467186561
0.0008490694659
0.0008516115269
0.0008541268069
0.0008563842047
0.0008581432249
0.0008591541693
0.0008512800462
0.0008525782203
0.0008544004184
0.000856585665
0.000858949392
0.0008612889713
0.0008633893679
0.0008650265453
0.0008659676987
0.0008586449816
0.0008598529566
0.0008615488778
0.0008635832203
0.0008657843996
0.0008679638273
0.0008699211126
0.0008714472231
0.0008723247554
0.0008655039054
0.0008666297038
0.0008682105761
0.0008701074266
0.0008721604981
0.0008741939932
0.0008760208659
0.0008774457588
0.000878265309
0.0008719012173
0.0008729521616
0.0008744282317
0.0008761998284
0.0008781179655
0.0008800184975
0.000881726538
0.0008830591942
0.0008838259031
0.0008778775729
0.0008788603313
0.0008802409302
0.000881898416
0.0008836936115
0.0008854729861
0.0008870727343
0.0008883213264
0.0008890398723
0.0008834700981
0.0008843907328
0.0008856843424
0.0008872378459
0.0008889210003
0.0008905899464
0.0008920909803
0.000893262935
0.0008939375686
0.0008887126223
0.0008895766369
0.0008907909576
0.0008922496737
0.0008938306819
0.0008953989388
0.0008968099523
0.0008979120103
0.0008985465899
0.0008936359192
0.0008944483054
0.0008955903212
0.0008969625894
0.0008984504258
0.0008999268265
0.0009012557046
0.0009022939795
0.0009028920044
0.0008982679472
0.0008990332292
0.0009001092705
0.0009014026496
0.0009028054491
0.0009041980004
0.0009054518906
0.0009064319243
0.0009069965667
0.0009026340835
0.0009033563606
0.0009043721628
0.0009055935021
0.0009069186357
0.0009082345931
0.0009094199727
0.0009103467879
0.0009108809229
0.0009067573487
0.0009074403342
0.0009084010933
0.0009095565979
0.0009108107442
0.0009120566821
0.0009131794209
0.0009140575693
0.0009145638024
0.0009106586185
0.0009113056763
0.0009122160999
0.0009133113918
0.0009145006025
0.0009156824787
0.0009167478964
0.0009175815038
0.000918062197
0.0009143568216
0.0009149709999
0.0009158353537
0.0009168755282
0.0009180052883
0.0009191285034
0.000920141423
0.00092093423
0.0009213915252
0.0009178691227
0.0009184531848
0.0009192753359
0.0009202650125
0.0009213402955
0.0009224097474
0.000923374543
0.0009241299429
0.000924565783
0.0009212110915
0.0009217675433
0.0009225509993
0.0009234943685
0.0009245196865
0.0009255398191
0.0009264604606
0.0009271815333
0.0009275976821
0.0009243968566
0.0009249279721
0.0009256759164
0.0009265767816
0.0009275562312
0.0009285310796
0.0009294111719
0.0009301007147
0.0009304987744
0.0009274392453
0.0009279470899
0.0009286624138
0.0009295242302
0.0009304615328
0.0009313947636
0.0009322375831
0.0009328981386
0.0009332795656
0.0009303499124
0.0009308363632
0.0009315216947
0.0009323476033
0.0009332461426
0.00093414109
0.0009349496167
0.0009355834981
0.0009359496176
0.0009331394542
0.0009336062186
0.0009342639486
0.0009350568072
0.0009359196625
0.0009367793617
0.0009375563085
0.0009381656219
0.0009385176407
0.0009358175129
0.0009362661455
0.0009368984511
0.0009376608624
0.0009384908386
0.0009393180544
0.0009400658935
0.0009406525584
0.0009409915765
0.0009383928698
0.0009388247874
0.000939433653
0.0009401679896
0.0009409676442
0.0009417648981
0.0009424858843
0.0009430516521
0.0009433786732
0.0009408735302
0.0009412900254
0.0009418772613
0.0009425856883
0.0009433573553
0.0009441269492
0.0009448231413
0.0009453696111
0.000945685552
0.0009432667985
0.0009436690515
0.0009442363112
0.0009449208064
0.0009456666182
0.0009464106554
0.0009470839352
0.0009476125689
0.0009479182678
0.0009455793465
0.0009459684363
0.0009465172315
0.0009471796031
0.00094790151
0.0009486219145
0.0009492740036
0.0009497861391
0.000950082363
0.0009478172744
0.0009481941883
0.0009487259025
0.0009493678057
0.0009500675931
0.0009507661268
0.0009513986019
0.0009518954647
0.0009521829164
0.0009499861651
0.0009503518076
0.0009508677082
0.0009514906597
0.0009521699639
0.0009528482417
0.0009534625486
0.0009539452624
0.0009542245865
0.0009520911338
0.0009524463343
0.0009529475837
0.0009535529747
0.0009542132968
0.0009548728006
0.000955470266
0.0009559398624
0.0009562116507
0.0009541368719
0.0009544823916
0.0009549700571
0.0009555591649
0.0009562018836
0.0009568439745
0.0009574258174
0.0009578832442
0.0009581480406
0.0009561276864
0.000956464225
0.0009569392871
0.0009575132858
0.0009581396683
0.0009587655979
0.0009593329393
0.0009597790685
0.0009600373733
0.0009580675355
0.0009583957364
0.0009588590973
0.0009594190671
0.0009600302797
0.0009606411999
0.0009611950717
0.0009616307061
0.00096188298
0.0009599600605
0.0009602805162
0.0009607330067
0.0009612799424
0.0009618770593
0.0009624740313
0.0009630153844
0.0009634412639
0.0009636879316
0.0009618086145
0.000962121871
0.0009625642568
0.0009630990755
0.0009636830872
0.0009642670897
0.0009647968013
0.0009652136083
0.0009654550616
0.0009636162882
0.0009639228493
0.0009643558368
0.0009648793847
0.0009654512052
0.0009660231416
0.0009665420214
0.0009669503862
0.000967186987
0.0009653859331
0.0009656862639
0.0009661105056
0.0009666235642
0.000967184038
0.0009677447429
0.000968253539
0.0009686540442
0.0009688861268
0.0009671201826
0.0009674147129
0.0009678308118
0.0009683341037
0.0009688840114
0.0009694342565
0.0009699336611
0.0009703268454
0.0009705547194
0.0009688214706
0.0009691105982
0.0009695191121
0.0009700133058
0.0009705533698
0.0009710938695
0.0009715845232
0.0009719708854
0.0009721948373
0.000970492049
0.000970776142
0.0009711775874
0.000971663302
0.0009721941914
0.0009727256074
0.0009732081037
0.000973588106
0.0009738084013
0.0009721340028
0.0009724134024
0.000972808258
0.0009732860672
0.0009738084022
0.0009743313479
0.0009748062371
0.0009751803081
0.0009753971931
0.0009737492643
0.0009740242867
0.0009744129964
0.0009748834324
0.0009753977883
0.0009759128329
0.0009763806257
0.0009767491633
0.0009769628666
0.0009753396253
0.0009756105642
0.0009759935401
0.0009764570968
0.0009769640079
0.0009774716798
0.0009779328504
0.0009782962241
0.0009785069579
0.0009769067492
0.0009771738773
0.0009775515022
0.0009780086385
0.0009785086009
0.0009790093913
0.0009794643804
0.0009798229337
0.0009800308954
0.0009784521811
0.0009787157519
0.0009790883814
0.0009795395239
0.0009800329992
0.0009805273647
0.0009809765822
0.0009813306345
0.0009815360078
0.000979977357
0.0009802376063
0.0009806055714
0.0009810511171
0.0009815385345
0.0009820268999
0.0009824707274
0.000982820576
0.0009830235317
0.0009814836131
0.0009817407602
0.000982104369
0.0009825446873
0.0009830264465
0.0009835092076
0.0009839480002
0.000984293922
0.0009844946194
0.0009829721927
0.0009832264421
0.0009835859814
0.0009840214165
0.0009844978899
0.0009849754152
0.0009854095041
0.0009857517571
0.0009859503444
0.0009844442542
0.0009846957962
0.0009850515335
0.000985482406
0.0009859539407
0.000986426574
0.0009868562676
0.0009871950925
0.0009873917081
0.0009859008767
0.000986149889
0.0009865020735
0.0009869286827
0.0009873956022
0.0009878636639
0.0009882892501
0.0009886248713
0.0009888196443
0.0009873430666
0.0009875897147
0.0009879385791
0.0009883612039
0.0009888238103
0.0009892875994
0.0009897093469
0.0009900419737
0.0009902350245
0.0009887717623
0.0009890162009
0.0009893619621
0.000989780863
0.000990239438
0.0009906992336
0.0009911173929
0.0009914472209
0.0009916386619
0.0009901878394
0.0009904302126
0.0009907730733
0.0009911884931
0.0009916432998
0.0009920993623
0.0009925141674
0.000992841379
0.000993031315
0.0009915921145
0.000991832557
0.000992172706
0.0009925848717
0.0009930361554
0.0009934887279
0.000993900397
0.0009942251624
0.0009944136914
0.0009929853491
0.0009932239865
0.0009935616003
0.0009939707232
0.0009944187129
0.0009948680221
0.0009952767588
0.0009955992367
0.0009957864497
0.000994368253
0.0009946052023
0.0009949404452
0.0009953467227
0.0009957916316
0.0009962378885
0.0009966438824
0.0009969642205
0.0009971502026
0.0009957414865
0.0009959768567
0.0009963098817
0.0009967134972
0.0009971555239
0.0009975989249
0.0009980023522
0.0009983206877
0.0009985055178
0.0009971056628
0.0009973395552
0.0009976705044
0.0009980716282
0.0009985109567
0.0009989516839
0.0009993527078
0.000999669168
0.0009998529189
0.0009984613492
0.0009986938576
0.0009990228625
0.0009994216521
0.0009998584525
0.001000296674
0.001000695445
0.001001010147
0.001001192886
0.0009998090679
0.001000040279
0.00100036746
0.00100076406
0.001001198489
0.001001634359
0.001002031015
0.001002344066
0.001002525855
0.001001149296
0.001001379288
0.001001704757
0.0010020993
0.001002531499
0.001002965157
0.001003359823
0.00100367132
0.001003852213
0.001002482463
0.001002711308
0.001003035164
0.001003427768
0.001003857865
0.001004289437
0.001004682225
0.001004992253
0.001005172301
0.001003808953
0.001004036713
0.001004359044
0.001004749815
0.001005177922
0.001005607518
0.001005998525
0.001006307159
0.001006486402
0.001005129094
0.001005355825
0.001005676707
0.001006065735
0.001006491948
0.001006919659
0.001007308966
0.001007616268
0.001007794743
0.001006443161
0.001006668908
0.001006988404
0.001007375762
0.001007800158
0.001008226058
0.001008613728
0.001008919746
0.001009097478
0.001007751365
0.001007976163
0.00100829432
0.001008680062
0.001009102697
0.00100952684
0.001009912917
0.001010217682
0.001010394688
0.001009053847
0.001009277718
0.001009594567
0.001009978727
0.001010399634
0.001010822046
0.00101120655
0.001011510076
0.001011686361
0.001010350666
0.001010573621
0.001010889173
0.00101127176
0.001011690943
0.001012111624
0.00101249455
0.001012796827
0.001012972386
0.001011641795
0.001011863826
0.001012178068
0.001012559064
0.001012976497
0.001013395413
0.001013776725
0.00101407772
0.00101425253
0.001012927098
0.001013148181
0.001013461076
0.001013840428
0.001014256048
0.001014673129
0.001015052754
0.001015352405
0.001015526427
0.001014206325
0.001014426414
0.001014737894
0.001015115514
0.001015529215
0.001015944346
0.001016322171
0.001016620382
0.001016793557
0.001015479091
0.001015698117
0.001016008077
0.001016383834
0.001016795463
0.001017208479
0.001017584346
0.001017880983
0.00101805323
0.001016744861
0.001016962726
0.001017271026
0.001017644739
0.001018054087
0.001018464767
0.001018838462
0.001019133349
0.001019304562
0.001018002934
0.00101821951
0.001018525963
0.001018897396
0.001019304193
0.001019712253
0.001020083504
0.001020376417
0.00102054646
0.001019252423
0.001019467549
0.001019771918
0.001020140776
0.001020544684
0.001020949768
0.001021318239
0.0010216089
0.001021777606
0.001020492244
0.00102070572
0.001021007716
0.001021373634
0.00102177424
0.001022175919
0.0010225412
0.001022829276
0.001022996445
0.001021721098
0.001021932683
0.001022231958
0.001022594503
0.001022991314
0.001023389073
0.001023750681
0.001024035776
0.001024201171
0.001022937462
0.001023146871
0.001023443015
0.001023801676
0.001024194115
0.001024587357
0.001024944729
0.001025226383
0.001025389732
0.001024139578
0.001024346485
0.001024639023
0.001024993211
0.001025380616
0.001025768654
0.001026121145
0.001026398837
0.001026559827
0.00102532546
0.001025529488
0.001025817882
0.00102616693
0.00102654855
0.001026930611
0.001027277498
0.001027550642
0.001027708926
0.001026492888
0.001026693619
0.001026977268
0.001027320431
0.001027695432
0.001028070658
0.001028411142
0.001028679092
0.001028834289
0.001027639429
0.001027836402
0.001028114642
0.001028451105
0.001028818576
0.001029186034
0.001029519247
0.001029781305
0.001029933002
0.001028762455
0.001028955169
0.001029227287
0.00102955617
0.001029915131
0.001030273822
0.00103059884
0.001030854265
0.001031002024
0.001029859174
0.001030047098
0.001030312333
0.001030632707
0.001030982127
0.001031331001
0.001031646857
0.001031894876
0.001032038247
0.001030926671
0.00103110925
0.001031366814
0.001031677713
0.001032016526
0.001032354504
0.001032660208
0.001032900035
0.001033038558
0.001031961963
0.001032138629
0.001032387716
0.00103268816
0.001033015289
0.001033341289
0.001033635851
0.001033866706
0.001033999927
0.001032962055
0.001033132242
0.00103337205
0.00103366107
0.001033975453
0.001034288412
0.001034570872
0.001034792
0.001034919484
0.001033924016