/*--------------------------------*- C++ -*----------------------------------*\
| =========                 |                                                 |
| \\      /  F ield         | OpenFOAM: The Open Source CFD Toolbox           |
|  \\    /   O peration     | Version:  2212                                  |
|   \\  /    A nd           | Website:  www.openfoam.com                      |
|    \\/     M anipulation  |                                                 |
\*---------------------------------------------------------------------------*/
FoamFile
{
    version     2.0;
    format      ascii;
    arch        "LSB;label=32;scalar=64";
    class       volScalarField;
    location    "20.00000000";
    object      C2H5;
}
// * * * * * * * * * * * * * * * * * * * * * * * * * * * * * * * * * * * * * //

dimensions      [0 0 0 0 0 0 0];

internalField   nonuniform List<scalar> 
3000
(
1.15843849e-25
1.301103956e-25
1.516281961e-25
1.802823417e-25
2.157652491e-25
2.570991388e-25
3.01789765e-25
3.44411112e-25
3.745374374e-25
4.349183863e-25
4.904422832e-25
5.741471259e-25
6.858499767e-25
8.253657847e-25
9.918590823e-25
1.182408257e-24
1.387522789e-24
1.569183739e-24
9.74202616e-25
1.107204898e-24
1.309621189e-24
1.584228199e-24
1.935742031e-24
2.369024127e-24
2.882142411e-24
3.446383645e-24
3.928250002e-24
1.855570441e-24
2.131021297e-24
2.556414543e-24
3.145853242e-24
3.91976e-24
4.897180154e-24
6.07200146e-24
7.34978693e-24
8.379633536e-24
3.295023313e-24
3.830755981e-24
4.671303607e-24
5.859042516e-24
7.449311579e-24
9.485917317e-24
1.193352812e-23
1.452910156e-23
1.651698661e-23
5.665865792e-24
6.671691391e-24
8.272757423e-24
1.057122794e-23
1.368989589e-23
1.770808347e-23
2.250772572e-23
2.748728995e-23
3.117885064e-23
9.61797343e-24
1.146573156e-23
1.44414336e-23
1.876187486e-23
2.466811781e-23
3.227866983e-23
4.128019067e-23
5.042933956e-23
5.703287794e-23
1.627521854e-23
1.961882197e-23
2.505130821e-23
3.299949851e-23
4.390685153e-23
5.793079702e-23
7.436784243e-23
9.082507446e-23
1.025009417e-22
2.75855342e-23
3.357166595e-23
4.336017882e-23
5.775345195e-23
7.753923297e-23
1.029072414e-22
1.324238477e-22
1.616676294e-22
1.821864938e-22
4.692325661e-23
5.755634143e-23
7.502265815e-23
1.007876488e-22
1.362259976e-22
1.815420982e-22
2.339764354e-22
2.855464366e-22
3.214637493e-22
8.013974901e-23
9.891821358e-23
1.298616303e-22
1.755977492e-22
2.385049785e-22
3.187638863e-22
4.112474039e-22
5.017459309e-22
5.644674425e-22
1.373876774e-22
1.704117015e-22
2.249470273e-22
3.056514914e-22
4.166253649e-22
5.579465681e-22
7.202998578e-22
8.786154922e-22
9.879903691e-22
2.362950583e-22
2.941991887e-22
3.899643814e-22
5.317884265e-22
7.267314309e-22
9.746076462e-22
1.258727249e-21
1.535122942e-21
1.725760117e-21
4.074760756e-22
5.087979347e-22
6.765523847e-22
9.251176166e-22
1.266669924e-21
1.700450276e-21
2.196756149e-21
2.678647292e-21
3.0112073e-21
7.040784819e-22
8.811156362e-22
1.174489159e-21
1.609421252e-21
2.20706951e-21
2.965646973e-21
3.832304457e-21
4.671519606e-21
5.253209168e-21
1.218290979e-21
1.527223522e-21
2.039545878e-21
2.799529907e-21
3.844291211e-21
5.170950068e-21
6.6881221e-21
8.160163315e-21
9.166684269e-21
2.10992186e-21
2.648251641e-21
3.541377875e-21
4.866514524e-21
6.687929484e-21
8.999398793e-21
1.163942378e-20
1.419528525e-20
1.594674624e-20
3.656118778e-21
4.593054468e-21
6.147846121e-21
8.454734097e-21
1.162471965e-20
1.56453576e-20
2.023403473e-20
2.467308959e-20
2.771514201e-20
6.337760352e-21
7.967072966e-21
1.06712318e-20
1.468348448e-20
2.019589968e-20
2.718521624e-20
3.515875446e-20
4.286934633e-20
4.81518981e-20
1.098946434e-20
1.382129061e-20
1.852182622e-20
2.549634714e-20
3.507770589e-20
4.722371939e-20
6.107654941e-20
7.44688584e-20
8.364158363e-20
1.906004198e-20
2.398028745e-20
3.21482008e-20
4.426790789e-20
6.091662419e-20
8.201883042e-20
1.060817817e-19
1.293396319e-19
1.452662259e-19
3.306479226e-20
4.16119267e-20
5.580178906e-20
7.685748493e-20
1.057801544e-19
1.424353984e-19
1.842266795e-19
2.246120504e-19
2.522631577e-19
5.737108202e-20
7.221684598e-20
9.686487815e-20
1.334392276e-19
1.83676157e-19
2.473371494e-19
3.199068577e-19
3.900231952e-19
4.38025598e-19
9.956290849e-20
1.253472123e-19
1.681572309e-19
2.316805195e-19
3.189275737e-19
4.294755524e-19
5.554738246e-19
6.771943877e-19
7.605161317e-19
1.728112314e-19
2.175922581e-19
2.919422928e-19
4.022608614e-19
5.537655777e-19
7.457066446e-19
9.644379595e-19
1.175709467e-18
1.320318616e-18
2.99990426e-19
3.777626431e-19
5.06882618e-19
6.984508693e-19
9.615033634e-19
1.29470512e-18
1.674336997e-18
2.040949762e-18
2.291851755e-18
5.208265273e-19
6.558925376e-19
8.801146865e-19
1.212735267e-18
1.669385592e-18
2.247670322e-18
2.906353192e-18
3.54227126e-18
3.97738021e-18
9.043063967e-19
1.138866256e-18
1.528203873e-18
2.10564413e-18
2.898182932e-18
3.901478911e-18
5.043820129e-18
6.146252294e-18
6.900307232e-18
1.570198533e-18
1.977513664e-18
2.653462732e-18
3.655686709e-18
5.030699348e-18
6.770528137e-18
8.750406755e-18
1.066006302e-17
1.196561156e-17
2.726335653e-18
3.433538232e-18
4.606815113e-18
6.345695451e-18
8.730065378e-18
1.174504207e-17
1.517341779e-17
1.847761941e-17
2.07349528e-17
4.733096689e-18
5.960648956e-18
7.996388597e-18
1.101177488e-17
1.514341009e-17
2.036299575e-17
2.629210297e-17
3.200026065e-17
3.589597278e-17
8.214682694e-18
1.034448059e-17
1.387457131e-17
1.909940939e-17
2.625120877e-17
3.527513737e-17
4.551132514e-17
5.53514604e-17
6.205778173e-17
1.425059634e-17
1.794313738e-17
2.405906613e-17
3.310197864e-17
4.54635547e-17
6.10356731e-17
7.866677889e-17
9.558218455e-17
1.070887384e-16
2.470395834e-17
3.109907384e-17
4.168140715e-17
5.730760979e-17
7.863161489e-17
1.054371348e-16
1.357133385e-16
1.646855858e-16
1.843448557e-16
4.278202581e-17
5.384092415e-17
7.211883327e-17
9.906288998e-17
1.357504541e-16
1.817445759e-16
2.33533394e-16
2.829289058e-16
3.163404479e-16
7.39882797e-17
9.307247102e-17
1.245668158e-16
1.708944839e-16
2.338001406e-16
3.123970615e-16
4.005555525e-16
4.84296795e-16
5.407177435e-16
1.27730151e-16
1.60573309e-16
2.146718605e-16
2.940386869e-16
4.014367801e-16
5.350686107e-16
6.842537582e-16
8.25263149e-16
9.198190845e-16
2.200158367e-16
2.763394506e-16
3.688998916e-16
5.042523156e-16
6.866468625e-16
9.124631262e-16
1.163151818e-15
1.398718263e-15
1.55580486e-15
3.77944331e-16
4.741131725e-16
6.317113327e-16
8.612687219e-16
1.169074471e-15
1.547918943e-15
1.965750828e-15
2.355738304e-15
2.61415733e-15
6.471195359e-16
8.104494976e-16
1.07721556e-15
1.463991123e-15
1.979596283e-15
2.609895578e-15
3.299906387e-15
3.939076945e-15
4.35964987e-15
1.103782109e-15
1.37942661e-15
1.827874562e-15
2.474575669e-15
3.330950261e-15
4.369807103e-15
5.497712433e-15
6.533894763e-15
7.210558338e-15
1.874465305e-15
2.336246385e-15
3.084138711e-15
4.156071167e-15
5.564945569e-15
7.259584429e-15
9.083040617e-15
1.074347405e-14
1.181920806e-14
3.167500276e-15
3.934647039e-15
5.170785182e-15
6.930411406e-15
9.224160005e-15
1.195797251e-14
1.487173723e-14
1.750071246e-14
1.919011455e-14
5.322931489e-15
6.585470616e-15
8.608399277e-15
1.146651222e-14
1.515929498e-14
1.951815141e-14
2.411837594e-14
2.823035363e-14
3.085130654e-14
8.890625339e-15
1.094716285e-14
1.422216339e-14
1.88122967e-14
2.468782441e-14
3.155416858e-14
3.872879696e-14
4.508261608e-14
4.910034869e-14
1.475090898e-14
1.80637793e-14
2.330525971e-14
3.0590053e-14
3.982568546e-14
5.051037652e-14
6.156496583e-14
7.126668486e-14
7.735468524e-14
2.429840029e-14
2.957268427e-14
3.78612416e-14
4.928216604e-14
6.36221236e-14
8.004724858e-14
9.687866348e-14
1.115231703e-13
1.206469585e-13
3.971836301e-14
4.801317591e-14
6.09593629e-14
7.864470644e-14
1.00639241e-13
1.255894696e-13
1.509240899e-13
1.72789063e-13
1.863208899e-13
6.439676662e-14
7.727963481e-14
9.725003412e-14
1.243006404e-13
1.576333897e-13
1.950991868e-13
2.328177741e-13
2.651281039e-13
2.850033412e-13
1.035215233e-13
1.232798162e-13
1.53705701e-13
1.945839693e-13
2.445167143e-13
3.001601441e-13
3.557386e-13
4.03025112e-13
4.319544854e-13
1.649552456e-13
1.948827535e-13
2.406776557e-13
3.017329349e-13
3.757056903e-13
4.574886698e-13
5.385924312e-13
6.071758752e-13
6.489318651e-13
2.604930966e-13
3.05275165e-13
3.73395121e-13
4.635675591e-13
5.720015967e-13
6.910259144e-13
8.083047655e-13
9.069433066e-13
9.667432158e-13
4.076697718e-13
4.73897132e-13
5.74085724e-13
7.058390597e-13
8.631975494e-13
1.034811958e-12
1.202945996e-12
1.343686364e-12
1.428696354e-12
6.323600782e-13
7.2921076e-13
8.749788627e-13
1.06551554e-12
1.291672773e-12
1.536889285e-12
1.775917987e-12
1.97516959e-12
2.095137553e-12
9.724954165e-13
1.112617209e-12
1.322510936e-12
1.595336689e-12
1.917314692e-12
2.264554283e-12
2.601438903e-12
2.881169085e-12
3.049084615e-12
1.483528566e-12
1.684193808e-12
1.983423678e-12
2.370286738e-12
2.824289526e-12
3.311257543e-12
3.781344753e-12
4.169949247e-12
4.402343321e-12
2.246622208e-12
2.531214487e-12
2.953682992e-12
3.496852213e-12
4.130405806e-12
4.805633729e-12
5.453182345e-12
5.9849012e-12
6.300799809e-12
3.381072206e-12
3.780995692e-12
4.371779097e-12
5.126555964e-12
6.000313969e-12
6.923416434e-12
7.799708239e-12
8.510959655e-12
8.928417625e-12
5.063325796e-12
5.620438295e-12
6.438719646e-12
7.47587535e-12
8.664250012e-12
9.90347302e-12
1.106095331e-11
1.198271063e-11
1.251281684e-11
7.555633747e-12
8.32521422e-12
9.447443732e-12
1.085490264e-11
1.244438607e-11
1.407045983e-11
1.555300126e-11
1.670005942e-11
1.733872694e-11
1.124695348e-11
1.230094075e-11
1.38236883e-11
1.570687047e-11
1.779232114e-11
1.987083417e-11
2.17034596e-11
2.306289729e-11
2.378148898e-11
1.670583767e-11
1.813617855e-11
2.017912655e-11
2.266228954e-11
2.53464876e-11
2.793574101e-11
3.011997517e-11
3.16442527e-11
3.238305211e-11
2.474185283e-11
2.666629527e-11
2.93805552e-11
3.261779176e-11
3.602469093e-11
3.918930223e-11
4.171525295e-11
4.333114826e-11
4.400315761e-11
3.647664486e-11
3.905397871e-11
4.264621385e-11
4.685448193e-11
5.116995275e-11
5.502729603e-11
5.792194972e-11
5.957240032e-11
6.008665227e-11
5.34329435e-11
5.689627719e-11
6.168078168e-11
6.721182475e-11
7.277534268e-11
7.760395988e-11
8.104496899e-11
8.27859459e-11
8.310150774e-11
7.764581178e-11
8.23654926e-11
8.886400243e-11
9.634452952e-11
1.038310257e-10
1.10284613e-10
1.148204194e-10
1.17005431e-10
1.172342099e-10
1.118108326e-10
1.184068018e-10
1.275283243e-10
1.381142608e-10
1.488605706e-10
1.583473497e-10
1.652854934e-10
1.688938348e-10
1.694890464e-10
1.595172218e-10
1.690493005e-10
1.823924852e-10
1.981913378e-10
2.147352996e-10
2.300461526e-10
2.421065164e-10
2.493139384e-10
2.51415512e-10
2.256538601e-10
2.399160413e-10
2.602344406e-10
2.849546772e-10
3.118695301e-10
3.381683346e-10
3.605460417e-10
3.756943732e-10
3.817489518e-10
3.170828792e-10
3.390225567e-10
3.708892427e-10
4.10776661e-10
4.558969315e-10
5.022171334e-10
5.442466416e-10
5.754240066e-10
5.902426628e-10
4.436649998e-10
4.779419761e-10
5.286451202e-10
5.937664488e-10
6.699081659e-10
7.513115344e-10
8.289398992e-10
8.904059225e-10
9.228468619e-10
6.197046741e-10
6.73404954e-10
7.541054545e-10
8.600337691e-10
9.872929304e-10
1.127808184e-09
1.267039558e-09
1.382712361e-09
1.448313907e-09
8.65899721e-10
9.494230178e-10
1.076600391e-09
1.246528357e-09
1.455171331e-09
1.691501833e-09
1.932838344e-09
2.14103074e-09
2.265483987e-09
1.211931025e-09
1.340065835e-09
1.537253574e-09
1.804498251e-09
2.138350431e-09
2.524307805e-09
2.927952071e-09
3.286198925e-09
3.507957209e-09
1.699858541e-09
1.89303332e-09
2.192794737e-09
2.60356589e-09
3.123786655e-09
3.734869821e-09
4.385138447e-09
4.97336361e-09
5.347331859e-09
2.388433174e-09
2.674097218e-09
3.120174299e-09
3.73654924e-09
4.525338336e-09
5.461230415e-09
6.468113926e-09
7.392100285e-09
7.991736909e-09
3.358634097e-09
3.772728563e-09
4.42240461e-09
5.324896109e-09
6.484994079e-09
7.869407737e-09
9.369952971e-09
1.076123505e-08
1.167842516e-08
4.720170357e-09
5.308381261e-09
6.232002071e-09
7.516720571e-09
9.171318796e-09
1.115125112e-08
1.330620243e-08
1.53178803e-08
1.66597142e-08
6.61321708e-09
7.428698339e-09
8.708450467e-09
1.048730663e-08
1.277700689e-08
1.551683478e-08
1.850260053e-08
2.130045161e-08
2.318248877e-08
9.206645064e-09
1.031018838e-08
1.203848053e-08
1.443455462e-08
1.7510102e-08
2.11813233e-08
2.517719236e-08
2.892624318e-08
3.146247387e-08
1.269720043e-08
1.415423635e-08
1.642856709e-08
1.95682522e-08
2.357942959e-08
2.834624354e-08
3.351750286e-08
3.836503477e-08
4.165540689e-08
1.730005696e-08
1.917594211e-08
2.209125657e-08
2.609327773e-08
3.117438192e-08
3.717596287e-08
4.365423783e-08
4.971083613e-08
5.382770945e-08
2.32330051e-08
2.558668777e-08
2.922549415e-08
3.418735966e-08
4.044016379e-08
4.777088724e-08
5.563323848e-08
6.295353732e-08
6.792849915e-08
3.069483729e-08
3.357128934e-08
3.799219099e-08
4.397501064e-08
5.145032267e-08
6.013894709e-08
6.938623829e-08
7.79493961e-08
8.376122804e-08
3.983955157e-08
4.32616084e-08
4.848721663e-08
5.550005284e-08
6.41788288e-08
7.416637126e-08
8.469750209e-08
9.437960513e-08
1.009444209e-07
5.074869464e-08
5.470909879e-08
6.071449851e-08
6.869969188e-08
7.847501446e-08
8.959072438e-08
1.011622254e-07
1.116465295e-07
1.185732536e-07
6.340401274e-08
6.785831573e-08
7.45610489e-08
8.338212512e-08
9.404611969e-08
1.059952227e-07
1.18213142e-07
1.290049603e-07
1.361011531e-07
7.766080648e-08
8.252089397e-08
8.977135715e-08
9.920033524e-08
1.104285624e-07
1.227783783e-07
1.350688296e-07
1.459251495e-07
1.530942823e-07
9.321771025e-08
9.834459464e-08
1.059132804e-07
1.156087103e-07
1.269141e-07
1.391048983e-07
1.512802827e-07
1.62031126e-07
1.691344222e-07
1.095658107e-07
1.147602256e-07
1.223179829e-07
1.317987305e-07
1.427970082e-07
1.546717984e-07
1.6650889e-07
1.769309158e-07
1.838070424e-07
1.258580637e-07
1.308484888e-07
1.381009796e-07
1.472341317e-07
1.577882567e-07
1.691317321e-07
1.803792671e-07
1.902354783e-07
1.967218504e-07
1.414096968e-07
1.461533707e-07
1.530265242e-07
1.616508669e-07
1.715547585e-07
1.82123265e-07
1.92528481e-07
2.015947953e-07
2.075438153e-07
1.560075439e-07
1.604193471e-07
1.66780979e-07
1.747120518e-07
1.837469515e-07
1.933058023e-07
2.02642295e-07
2.107284507e-07
2.16019497e-07
1.693241572e-07
1.733062863e-07
1.790141231e-07
1.860740218e-07
1.940427689e-07
2.023942247e-07
2.104829859e-07
2.17446952e-07
2.219939969e-07
1.810023075e-07
1.844646436e-07
1.893932547e-07
1.954345238e-07
2.021838515e-07
2.091850682e-07
2.159071495e-07
2.216626895e-07
2.254175911e-07
1.907169393e-07
1.935896187e-07
1.976460823e-07
2.02566597e-07
2.07999733e-07
2.135716517e-07
2.188729059e-07
2.233908287e-07
2.263427543e-07
1.982168071e-07
2.00456999e-07
2.035888178e-07
2.073386667e-07
2.114197514e-07
2.15548244e-07
2.194373158e-07
2.227414926e-07
2.249132483e-07
2.033488539e-07
2.049431046e-07
2.071401943e-07
2.097219948e-07
2.124738342e-07
2.152046582e-07
2.17745754e-07
2.199052915e-07
2.213474959e-07
2.060679313e-07
2.070310707e-07
2.083231679e-07
2.097872884e-07
2.112840737e-07
2.127133666e-07
2.140154983e-07
2.151344339e-07
2.159184096e-07
2.064343057e-07
2.068058109e-07
2.072565607e-07
2.076927812e-07
2.080494813e-07
2.083115023e-07
2.085158404e-07
2.087220292e-07
2.089325488e-07
2.046016118e-07
2.044403165e-07
2.041392872e-07
2.036663317e-07
2.030263673e-07
2.022803422e-07
2.01547462e-07
2.009816969e-07
2.007100682e-07
2.007980323e-07
2.00175986e-07
1.992297854e-07
1.979843574e-07
1.96507294e-07
1.949247132e-07
1.934227022e-07
1.922290027e-07
1.915671032e-07
1.953039673e-07
1.943003476e-07
1.928240055e-07
1.909503356e-07
1.88800535e-07
1.865539341e-07
1.844483208e-07
1.827660006e-07
1.81801554e-07
1.884290664e-07
1.871246066e-07
1.852338619e-07
1.828746703e-07
1.802118173e-07
1.774657549e-07
1.749117248e-07
1.728695003e-07
1.716826908e-07
1.804907444e-07
1.789631359e-07
1.767682063e-07
1.740576059e-07
1.710295332e-07
1.679340444e-07
1.650710626e-07
1.627831948e-07
1.614445621e-07
1.717960136e-07
1.701164849e-07
1.677175424e-07
1.647760643e-07
1.61513955e-07
1.582004377e-07
1.551491283e-07
1.527133943e-07
1.51282843e-07
1.626275853e-07
1.608586836e-07
1.583430257e-07
1.552746789e-07
1.518904655e-07
1.48469725e-07
1.45330678e-07
1.428278507e-07
1.413545503e-07
1.532345171e-07
1.514289848e-07
1.488697155e-07
1.457608127e-07
1.423464183e-07
1.389084632e-07
1.357625471e-07
1.332570123e-07
1.317799487e-07
1.438271383e-07
1.420276936e-07
1.394836286e-07
1.364030051e-07
1.330309958e-07
1.296461238e-07
1.265558664e-07
1.240970125e-07
1.226459636e-07
1.34575617e-07
1.328154126e-07
1.30331884e-07
1.273321115e-07
1.240573181e-07
1.207780511e-07
1.177896826e-07
1.154137409e-07
1.140104839e-07
1.256113475e-07
1.239148809e-07
1.215251259e-07
1.186443468e-07
1.155060601e-07
1.123695414e-07
1.095153631e-07
1.072474369e-07
1.059070344e-07
1.170302928e-07
1.154145702e-07
1.131414302e-07
1.104054983e-07
1.074299103e-07
1.044604604e-07
1.017612782e-07
9.961736752e-08
9.834942368e-08
1.088974907e-07
1.073732828e-07
1.052309993e-07
1.026556822e-07
9.985833147e-08
9.706993991e-08
9.45373816e-08
9.25262731e-08
9.133608857e-08
1.012520635e-07
9.982513788e-08
9.782109002e-08
9.541416464e-08
9.280221962e-08
9.020082998e-08
8.783943394e-08
8.596437952e-08
8.485396558e-08
9.411223427e-08
9.27844873e-08
9.092077214e-08
8.868390833e-08
8.625819205e-08
8.384370012e-08
8.165271819e-08
7.991286773e-08
7.888180447e-08
8.748000784e-08
8.625045388e-08
8.452525807e-08
8.245563729e-08
8.02123494e-08
7.798028419e-08
7.595518275e-08
7.434676618e-08
7.339290587e-08
8.134531587e-08
8.021091727e-08
7.861966086e-08
7.671131631e-08
7.46434464e-08
7.258633757e-08
7.072000821e-08
6.923728207e-08
6.835730939e-08
7.568953262e-08
7.464587188e-08
7.318213017e-08
7.142701996e-08
6.952547106e-08
6.763392771e-08
6.591763541e-08
6.455361987e-08
6.374348618e-08
7.048834844e-08
6.953015522e-08
6.818637846e-08
6.657521859e-08
6.482967361e-08
6.309321101e-08
6.151731659e-08
6.026435263e-08
5.951960396e-08
6.57140397e-08
6.483559123e-08
6.360364938e-08
6.212654158e-08
6.052611288e-08
5.893376602e-08
5.748825757e-08
5.633841815e-08
5.565443668e-08
6.133720485e-08
6.053262121e-08
5.940420349e-08
5.805109143e-08
5.658478792e-08
5.512555352e-08
5.380042948e-08
5.274581243e-08
5.211798815e-08
5.732804541e-08
5.659149807e-08
5.555839409e-08
5.431938419e-08
5.297643992e-08
5.163958283e-08
5.042511442e-08
4.94580429e-08
4.888189139e-08
5.365727492e-08
5.298312883e-08
5.203741931e-08
5.090299622e-08
4.96730881e-08
4.844834282e-08
4.733524542e-08
4.644839834e-08
4.591963767e-08
5.02967355e-08
4.967964006e-08
4.881381787e-08
4.777497969e-08
4.664836226e-08
4.552605596e-08
4.450559247e-08
4.369208273e-08
4.320667988e-08
4.721978845e-08
4.665473039e-08
4.586176994e-08
4.491010419e-08
4.387768349e-08
4.284880161e-08
4.191283628e-08
4.116625103e-08
4.072044616e-08
4.44015356e-08
4.388386444e-08
4.315725384e-08
4.228497093e-08
4.133833484e-08
4.039454578e-08
3.953556281e-08
3.884997691e-08
3.844029197e-08
4.1818918e-08
4.13443521e-08
4.067809937e-08
3.98780364e-08
3.900945479e-08
3.814310643e-08
3.735420449e-08
3.672417546e-08
3.634741203e-08
3.945072806e-08
3.901534768e-08
3.840396933e-08
3.766957417e-08
3.687197891e-08
3.607607647e-08
3.535094721e-08
3.477149816e-08
3.442472807e-08
3.727756325e-08
3.687779518e-08
3.631629361e-08
3.564159622e-08
3.490854859e-08
3.41767208e-08
3.350961754e-08
3.297621244e-08
3.265676401e-08
3.528174234e-08
3.491433944e-08
3.439817366e-08
3.377775011e-08
3.310340077e-08
3.242985944e-08
3.181556025e-08
3.13240751e-08
3.102951674e-08
3.344719936e-08
3.310921748e-08
3.263427036e-08
3.206320308e-08
3.144224861e-08
3.082174505e-08
3.025551334e-08
2.980220534e-08
2.953032806e-08
3.175936632e-08
3.144814023e-08
3.101068457e-08
3.048452146e-08
2.991215986e-08
2.933994065e-08
2.881748535e-08
2.839896182e-08
2.814776135e-08
3.020505226e-08
2.991817169e-08
2.951483659e-08
2.902955063e-08
2.850143763e-08
2.797320138e-08
2.749063798e-08
2.710382592e-08
2.687148531e-08
2.877232372e-08
2.850761024e-08
2.813534868e-08
2.768729921e-08
2.719950644e-08
2.671136237e-08
2.626517582e-08
2.590729302e-08
2.569216584e-08
2.745038992e-08
2.720587509e-08
2.686193339e-08
2.644782956e-08
2.599680522e-08
2.554523442e-08
2.513224432e-08
2.480077208e-08
2.460136673e-08
2.622949457e-08
2.600339961e-08
2.568528902e-08
2.530215594e-08
2.488468834e-08
2.446650774e-08
2.408383606e-08
2.377649397e-08
2.359145905e-08
2.510081546e-08
2.489153256e-08
2.45970031e-08
2.424215066e-08
2.385533465e-08
2.346766402e-08
2.311270549e-08
2.282742826e-08
2.265553907e-08
2.40563722e-08
2.386244737e-08
2.358946397e-08
2.326045835e-08
2.290166478e-08
2.254189662e-08
2.221229171e-08
2.194720801e-08
2.178735422e-08
2.308894181e-08
2.290905941e-08
2.265578024e-08
2.235041817e-08
2.201726623e-08
2.168303844e-08
2.137664888e-08
2.113006209e-08
2.098123652e-08
2.219198252e-08
2.202495122e-08
2.178970817e-08
2.150599366e-08
2.119632578e-08
2.088549703e-08
2.060038362e-08
2.037075446e-08
2.023204289e-08
2.135956494e-08
2.12043051e-08
2.098558614e-08
2.072170946e-08
2.04335688e-08
2.014419627e-08
1.987859896e-08
1.96645298e-08
1.953510179e-08
2.058631002e-08
2.044184236e-08
2.023827573e-08
1.999259455e-08
1.972420473e-08
1.945452416e-08
1.920684408e-08
1.900706486e-08
1.888616548e-08
1.986733341e-08
1.973276884e-08
1.954310884e-08
1.93141314e-08
1.906387834e-08
1.881228612e-08
1.858106951e-08
1.839442501e-08
1.828136738e-08
1.919819561e-08
1.907272614e-08
1.889584045e-08
1.868221038e-08
1.844862605e-08
1.821366319e-08
1.799758694e-08
1.782302546e-08
1.771718405e-08
1.857485738e-08
1.845774796e-08
1.829260629e-08
1.809308909e-08
1.787483696e-08
1.765517472e-08
1.745303346e-08
1.72895966e-08
1.719040124e-08
1.799363982e-08
1.788422108e-08
1.7729885e-08
1.754335596e-08
1.733921798e-08
1.713364503e-08
1.694433957e-08
1.679115312e-08
1.669808358e-08
1.745118873e-08
1.734885049e-08
1.720446439e-08
1.702989775e-08
1.683876272e-08
1.664617363e-08
1.646870059e-08
1.632496634e-08
1.623754756e-08
1.694444279e-08
1.684862824e-08
1.671341118e-08
1.654987049e-08
1.637072363e-08
1.619010864e-08
1.602355119e-08
1.588853963e-08
1.580633732e-08
1.647060507e-08
1.638080559e-08
1.625404405e-08
1.610067352e-08
1.593258721e-08
1.576302297e-08
1.560654257e-08
1.547958629e-08
1.540220311e-08
1.602711757e-08
1.594286808e-08
1.582390955e-08
1.567992629e-08
1.552205173e-08
1.536269312e-08
1.521552203e-08
1.509600993e-08
1.502308197e-08
1.561163853e-08
1.553251335e-08
1.542076044e-08
1.528544762e-08
1.513700735e-08
1.49870801e-08
1.484851482e-08
1.473588674e-08
1.466708044e-08
1.522202203e-08
1.514763116e-08
1.50425365e-08
1.491523707e-08
1.477551836e-08
1.463431245e-08
1.450370768e-08
1.439744977e-08
1.433245909e-08
1.485629979e-08
1.47862856e-08
1.468734713e-08
1.456745835e-08
1.443580718e-08
1.430267094e-08
1.417943428e-08
1.407907472e-08
1.401761862e-08
1.451266486e-08
1.44466991e-08
1.435345592e-08
1.424042437e-08
1.411624007e-08
1.399057487e-08
1.387416202e-08
1.377926724e-08
1.372108746e-08
1.418945696e-08
1.412723809e-08
1.403926677e-08
1.393258384e-08
1.381531433e-08
1.369656978e-08
1.358648023e-08
1.349665149e-08
1.344151049e-08
1.388514936e-08
1.382640014e-08
1.374331131e-08
1.364250929e-08
1.353164669e-08
1.34193164e-08
1.331508957e-08
1.322995986e-08
1.3177639e-08
1.359833705e-08
1.354280243e-08
1.346423779e-08
1.336888617e-08
1.326396297e-08
1.315758069e-08
1.30587924e-08
1.297802372e-08
1.292832161e-08
1.332772616e-08
1.327517127e-08
1.32008009e-08
1.311050319e-08
1.30110887e-08
1.291022484e-08
1.281648422e-08
1.273976503e-08
1.269249605e-08
1.307212434e-08
1.302233282e-08
1.295185268e-08
1.286624347e-08
1.27719407e-08
1.26761992e-08
1.258714581e-08
1.251418882e-08
1.246918178e-08
1.283043219e-08
1.278320455e-08
1.271633432e-08
1.263507664e-08
1.254551943e-08
1.245453492e-08
1.236983622e-08
1.230037633e-08
1.225747326e-08
1.260163541e-08
1.255678764e-08
1.249326873e-08
1.241605165e-08
1.23309021e-08
1.224433736e-08
1.216368638e-08
1.209747885e-08
1.205653388e-08
1.238479779e-08
1.234216007e-08
1.228175377e-08
1.220829029e-08
1.212723643e-08
1.204478006e-08
1.196789329e-08
1.190471205e-08
1.186559045e-08
1.21790548e-08
1.213847032e-08
1.208095623e-08
1.201098127e-08
1.193373493e-08
1.185509927e-08
1.178171477e-08
1.172135093e-08
1.168392818e-08
1.198360782e-08
1.194493175e-08
1.189010623e-08
1.18233749e-08
1.174966982e-08
1.167458901e-08
1.160446467e-08
1.154672513e-08
1.151088612e-08
1.179771885e-08
1.176081734e-08
1.170849223e-08
1.164477819e-08
1.157436825e-08
1.150259652e-08
1.14355085e-08
1.13802147e-08
1.134585296e-08
1.162070572e-08
1.158545507e-08
1.153545644e-08
1.147455043e-08
1.140720808e-08
1.133851817e-08
1.127425945e-08
1.122124624e-08
1.118826329e-08
1.145193773e-08
1.141822357e-08
1.13703906e-08
1.131209915e-08
1.124761394e-08
1.118179568e-08
1.112017477e-08
1.106928935e-08
1.103759406e-08
1.129083167e-08
1.125854824e-08
1.12127322e-08
1.115687638e-08
1.109505368e-08
1.103191264e-08
1.097275239e-08
1.092385341e-08
1.089336146e-08
1.113684811e-08
1.110589761e-08
1.106196096e-08
1.100837527e-08
1.094903506e-08
1.088839139e-08
1.083152793e-08
1.078448459e-08
1.075511796e-08
1.098948807e-08
1.095978005e-08
1.091759559e-08
1.086612696e-08
1.080910272e-08
1.075079008e-08
1.069607182e-08
1.065076314e-08
1.062244964e-08
1.084828991e-08
1.081974071e-08
1.077919081e-08
1.072969769e-08
1.067483544e-08
1.061869999e-08
1.056598676e-08
1.052230085e-08
1.049497372e-08
1.071282642e-08
1.068535871e-08
1.064633459e-08
1.05986861e-08
1.054584348e-08
1.049174302e-08
1.044090524e-08
1.039873872e-08
1.037233628e-08
1.058270213e-08
1.055624439e-08
1.051864552e-08
1.04727207e-08
1.042176616e-08
1.036956931e-08
1.032048732e-08
1.027974474e-08
1.025421009e-08
1.04575507e-08
1.043203687e-08
1.039577035e-08
1.035145747e-08
1.030226952e-08
1.025185501e-08
1.020441843e-08
1.016501181e-08
1.014029253e-08
1.033703245e-08
1.03124015e-08
1.027738154e-08
1.023457744e-08
1.0187044e-08
1.013830003e-08
1.009240718e-08
1.005425559e-08
1.003030357e-08
1.022083191e-08
1.019702749e-08
1.016317489e-08
1.012178442e-08
1.007580216e-08
1.002862579e-08
9.984183225e-09
9.947212449e-09
9.923983701e-09
1.010865528e-08
1.008562535e-08
1.005286706e-08
1.001280247e-08
9.96827625e-09
9.922572852e-09
9.879494871e-09
9.843637094e-09
9.821091612e-09
1.000022782e-08
9.977924345e-09
9.94619293e-09
9.907373352e-09
9.864215609e-09
9.819898311e-09
9.778106523e-09
9.74330003e-09
9.72140168e-09
9.895291042e-09
9.873669598e-09
9.842902766e-09
9.805253592e-09
9.76338373e-09
9.720372826e-09
9.679795664e-09
9.645984525e-09
9.624700915e-09
9.793599569e-09
9.772618958e-09
9.742758998e-09
9.706211221e-09
9.66555489e-09
9.623777161e-09
9.584349296e-09
9.551482965e-09
9.530785271e-09
9.694917616e-09
9.674539405e-09
9.645532535e-09
9.610021962e-09
9.5705102e-09
9.529898056e-09
9.491559646e-09
9.459592395e-09
9.439455071e-09
9.599014962e-09
9.579202934e-09
9.550998512e-09
9.516464786e-09
9.478032932e-09
9.438523295e-09
9.401218953e-09
9.370109057e-09
9.35050937e-09
9.505662335e-09
9.486381805e-09
9.458931342e-09
9.425316716e-09
9.387903003e-09
9.349435832e-09
9.3131132e-09
9.282821742e-09
9.263739031e-09
9.414626117e-09
9.395843088e-09
9.369099017e-09
9.336346785e-09
9.299890526e-09
9.262406856e-09
9.227014663e-09
9.197503833e-09
9.178918402e-09
9.325662339e-09
9.307342457e-09
9.28125659e-09
9.249309116e-09
9.213748379e-09
9.177187768e-09
9.142673234e-09
9.11390399e-09
9.095795515e-09
9.238509957e-09
9.220617226e-09
9.195138858e-09
9.163935125e-09
9.129203811e-09
9.093501088e-09
9.05980655e-09
9.031735513e-09
9.014080872e-09
9.152883463e-09
9.135378701e-09
9.110452318e-09
9.079924944e-09
9.045949209e-09
9.011030429e-09
8.978089108e-09
8.950664582e-09
8.933435023e-09
9.068464954e-09
9.051303979e-09
9.026866548e-09
8.99693825e-09
8.963632225e-09
8.929409811e-09
8.897140646e-09
8.870297716e-09
8.853455296e-09
8.98489587e-09
8.968027415e-09
8.944005274e-09
8.914584791e-09
8.881845623e-09
8.848212695e-09
8.816514277e-09
8.79016898e-09
8.77366229e-09
8.901768692e-09
8.885132089e-09
8.861437477e-09
8.832415007e-09
8.800117311e-09
8.766941301e-09
8.735685e-09
8.709727669e-09
8.6934869e-09
8.818618998e-09
8.802141682e-09
8.778669005e-09
8.749911306e-09
8.717901166e-09
8.685016916e-09
8.654039412e-09
8.628327398e-09
8.612258889e-09
8.734918364e-09
8.718513296e-09
8.695135283e-09
8.666480607e-09
8.634569408e-09
8.601772041e-09
8.570867595e-09
8.545217689e-09
8.529198214e-09
8.650068709e-09
8.633631843e-09
8.610195767e-09
8.581448932e-09
8.549407357e-09
8.51644536e-09
8.485358289e-09
8.459539327e-09
8.443410474e-09
8.563398728e-09
8.546806717e-09
8.523130975e-09
8.494058896e-09
8.461611519e-09
8.428180566e-09
8.396598583e-09
8.370324846e-09
8.353887956e-09
8.474163126e-09
8.457271443e-09
8.433142812e-09
8.403470981e-09
8.370292066e-09
8.336030255e-09
8.303579328e-09
8.276505523e-09
8.259517784e-09
8.381545406e-09
8.364187148e-09
8.339359079e-09
8.308769462e-09
8.274480586e-09
8.238965876e-09
8.205207591e-09
8.176926234e-09
8.15909861e-09
8.284664963e-09
8.2666506e-09
8.240842965e-09
8.208973892e-09
8.173144092e-09
8.135894788e-09
8.100327097e-09
8.070369329e-09
8.051367042e-09
8.182589148e-09
8.163707494e-09
8.136608232e-09
8.103056856e-09
8.065206042e-09
8.025685172e-09
7.987747526e-09
7.9555883e-09
7.935034657e-09
8.074350883e-09
8.054371582e-09
8.025640641e-09
7.98996853e-09
7.949574853e-09
7.907199282e-09
7.866283043e-09
7.831351599e-09
7.80883584e-09
7.9589722e-09
7.937649965e-09
7.906925946e-09
7.868668298e-09
7.825180075e-09
7.779335026e-09
7.734799892e-09
7.696496246e-09
7.671585967e-09
7.835493859e-09
7.812574675e-09
7.779484438e-09
7.738163282e-09
7.691015893e-09
7.641075319e-09
7.59227222e-09
7.549990054e-09
7.522248497e-09
7.703010841e-09
7.678240231e-09
7.642411633e-09
7.597553175e-09
7.546191064e-09
7.49154396e-09
7.437844411e-09
7.39100032e-09
7.360008458e-09
7.560713141e-09
7.533846499e-09
7.494924196e-09
7.446080186e-09
7.38998373e-09
7.330065978e-09
7.27089735e-09
7.218965773e-09
7.18434862e-09
7.4079308e-09
7.378745612e-09
7.336409644e-09
7.283182281e-09
7.221898807e-09