/*--------------------------------*- C++ -*----------------------------------*\
| =========                 |                                                 |
| \\      /  F ield         | OpenFOAM: The Open Source CFD Toolbox           |
|  \\    /   O peration     | Version:  2212                                  |
|   \\  /    A nd           | Website:  www.openfoam.com                      |
|    \\/     M anipulation  |                                                 |
\*---------------------------------------------------------------------------*/
FoamFile
{
    version     2.0;
    format      ascii;
    arch        "LSB;label=32;scalar=64";
    class       volScalarField;
    location    "20.00000000";
    object      C3H3_0;
}
// * * * * * * * * * * * * * * * * * * * * * * * * * * * * * * * * * * * * * //

dimensions      [0 0 0 0 0 0 0];

internalField   nonuniform List<scalar> 
3000
(
1.436000442e-22
1.612851747e-22
1.879592451e-22
2.234798972e-22
2.674658243e-22
3.187047237e-22
3.741042678e-22
4.269379782e-22
4.642822282e-22
5.391248868e-22
6.079535015e-22
7.117162285e-22
8.501864685e-22
1.023134411e-21
1.229522941e-21
1.465728091e-21
1.719983876e-21
1.945164131e-21
1.207621381e-21
1.372493359e-21
1.623412775e-21
1.963821424e-21
2.399563025e-21
2.936657634e-21
3.572700378e-21
4.272090519e-21
4.869355577e-21
2.300163141e-21
2.641615063e-21
3.168937548e-21
3.899610903e-21
4.858943213e-21
6.070523775e-21
7.526740515e-21
9.110481162e-21
1.038677082e-20
4.084503026e-21
4.748599292e-21
5.790545047e-21
7.262866358e-21
9.234148564e-21
1.175866115e-20
1.479252467e-20
1.800944968e-20
2.047237014e-20
7.023385921e-21
8.27020576e-21
1.025488493e-20
1.310406573e-20
1.696996377e-20
2.195092126e-20
2.790065444e-20
3.407374947e-20
3.865100943e-20
1.192239319e-20
1.421286481e-20
1.790152981e-20
2.325712753e-20
3.057848382e-20
4.00125196e-20
5.117086285e-20
6.251233142e-20
7.069836894e-20
2.017467065e-20
2.431937931e-20
3.105345184e-20
4.090597237e-20
5.442665169e-20
7.181064816e-20
9.218593152e-20
1.125862638e-19
1.270596404e-19
3.419486298e-20
4.16152283e-20
5.374899379e-20
7.15907788e-20
9.611706644e-20
1.27563032e-19
1.641515622e-19
2.004018971e-19
2.258368918e-19
5.81657672e-20
7.134645187e-20
9.29975433e-20
1.24935578e-19
1.688645883e-19
2.250379246e-19
2.90034909e-19
3.539604389e-19
3.984830744e-19
9.934066615e-20
1.226182625e-19
1.609753783e-19
2.176693076e-19
2.956482499e-19
3.95135967e-19
5.097769567e-19
6.219573047e-19
6.997058192e-19
1.703046705e-19
2.112408379e-19
2.788420673e-19
3.788820535e-19
5.164432419e-19
6.916218424e-19
8.928705835e-19
1.089114329e-18
1.224693234e-18
2.929092481e-19
3.646863661e-19
4.833953448e-19
6.591977193e-19
9.008441226e-19
1.208102296e-18
1.560282931e-18
1.902889874e-18
2.139199792e-18
5.051034418e-19
6.307004834e-19
8.38645998e-19
1.146761819e-18
1.570137751e-18
2.107825825e-18
2.7230041e-18
3.3203007e-18
3.732554223e-18
8.727687914e-19
1.092221541e-18
1.455882588e-18
1.995014853e-18
2.735838456e-18
3.676125855e-18
4.750322505e-18
5.790134171e-18
6.511615873e-18
1.510181663e-18
1.893130827e-18
2.528199766e-18
3.470268316e-18
4.765347553e-18
6.409875745e-18
8.290622485e-18
1.011580323e-17
1.136308e-17
2.6154387e-18
3.282746703e-18
4.389857043e-18
6.032485145e-18
8.290302407e-18
1.115560298e-17
1.442819737e-17
1.759648165e-17
1.976754348e-17
4.532088864e-18
5.693505016e-18
7.620809412e-18
1.04804059e-17
1.440989332e-17
1.939384916e-17
2.50819472e-17
3.05845661e-17
3.435545595e-17
7.856223637e-18
9.875903102e-18
1.322795108e-17
1.820149907e-17
2.503463393e-17
3.369852235e-17
4.358244257e-17
5.314041294e-17
5.968860493e-17
1.362242594e-17
1.713272825e-17
2.295946308e-17
3.160500609e-17
4.348195743e-17
5.853802705e-17
7.570984729e-17
9.231080878e-17
1.036812184e-16
2.362662644e-17
2.972571011e-17
3.985056795e-17
5.487402659e-17
7.551159555e-17
1.016696614e-16
1.314978333e-16
1.603280097e-16
1.800704407e-16
4.098676214e-17
5.158169719e-17
6.917129612e-17
9.527170705e-17
1.311239317e-16
1.765613699e-16
2.283653819e-16
2.784266422e-16
3.127026494e-16
7.111657227e-17
8.951921846e-17
1.200726482e-16
1.654098089e-16
2.27682952e-16
3.065964138e-16
3.965530195e-16
4.834684528e-16
5.429716975e-16
1.234170943e-16
1.553790322e-16
2.084458569e-16
2.871886202e-16
3.953390979e-16
5.323731398e-16
6.885591907e-16
8.394426391e-16
9.427273398e-16
2.142149001e-16
2.697249622e-16
3.618884349e-16
4.986380985e-16
6.864416467e-16
9.243696376e-16
1.195506514e-15
1.457396294e-15
1.636652165e-15
3.718648035e-16
4.682703714e-16
6.283260398e-16
8.657918856e-16
1.191868788e-15
1.604901916e-15
2.075489288e-15
2.529938311e-15
2.840953572e-15
6.456107392e-16
8.130370396e-16
1.090980275e-15
1.503292971e-15
2.069351522e-15
2.786186684e-15
3.602682452e-15
4.390959221e-15
4.930315299e-15
1.120968019e-15
1.411725752e-15
1.894344219e-15
2.610132562e-15
3.592554585e-15
4.836228769e-15
6.252261815e-15
7.61882404e-15
8.553541856e-15
1.946400274e-15
2.451303441e-15
3.289202138e-15
4.531547446e-15
6.235997258e-15
8.392668926e-15
1.084690355e-14
1.321409133e-14
1.483243415e-14
3.379534484e-15
4.256174637e-15
5.710555084e-15
7.866051001e-15
1.082168828e-14
1.455901833e-14
1.880879293e-14
2.290464271e-14
2.570280683e-14
5.867092078e-15
7.388751599e-15
9.912230745e-15
1.365006841e-14
1.877159513e-14
2.52417324e-14
3.259138418e-14
3.966714943e-14
4.449622842e-14
1.018282515e-14
1.282289769e-14
1.719875677e-14
2.367540469e-14
3.254069108e-14
4.372664664e-14
5.641530423e-14
6.861301968e-14
7.692609632e-14
1.7664872e-14
2.224210237e-14
2.982333547e-14
4.103282295e-14
5.635608635e-14
7.565909977e-14
9.75144093e-14
1.184825453e-13
1.327459327e-13
3.062273376e-14
3.855004306e-14
5.166777778e-14
7.103783285e-14
9.747081587e-14
1.306986192e-13
1.682286404e-13
2.041422925e-13
2.285116891e-13
5.303208495e-14
6.674056329e-14
8.939764118e-14
1.227971721e-13
1.682746383e-13
2.252884021e-13
2.894852022e-13
3.507152886e-13
3.921318372e-13
9.171496615e-14
1.153715005e-13
1.544115124e-13
2.118387347e-13
2.89815834e-13
3.872436376e-13
4.965238511e-13
6.003284981e-13
6.702672348e-13
1.583326923e-13
1.990446743e-13
2.661045876e-13
3.644867539e-13
4.976161478e-13
6.632645763e-13
8.481927198e-13
1.0229863e-12
1.140196729e-12
2.727287655e-13
3.425468341e-13
4.572836416e-13
6.250648894e-13
8.511590116e-13
1.131078207e-12
1.441829004e-12
1.733834469e-12
1.928557229e-12
4.684945873e-13
5.87704312e-13
7.830610978e-13
1.067617726e-12
1.449170166e-12
1.918781478e-12
2.436721248e-12
2.920145492e-12
3.240478964e-12
8.021596842e-13
1.00462151e-12
1.335301542e-12
1.814744069e-12
2.453882499e-12
3.235194795e-12
4.090525177e-12
4.882834793e-12
5.404173064e-12
1.368229602e-12
1.709915153e-12
2.265805983e-12
3.067449544e-12
4.129002711e-12
5.416759874e-12
6.814901685e-12
8.099345315e-12
8.938132736e-12
2.323549401e-12
2.895967574e-12
3.823046429e-12
5.151803026e-12
6.898231357e-12
8.998893311e-12
1.125923909e-11
1.331750527e-11
1.465098189e-11
3.926352742e-12
4.877298501e-12
6.409602166e-12
8.590819606e-12
1.143413585e-11
1.482295949e-11
1.843485897e-11
2.169374054e-11
2.378792961e-11
6.598124267e-12
8.163152549e-12
1.067075575e-11
1.421365501e-11
1.879122018e-11
2.419446741e-11
2.989693574e-11
3.49941884e-11
3.824316055e-11
1.102038952e-11
1.356964971e-11
1.762931642e-11
2.331923711e-11
3.060256767e-11
3.911416708e-11
4.800797276e-11
5.588433527e-11
6.086485004e-11
1.8284171e-11
2.239077196e-11
2.888809431e-11
3.791836458e-11
4.93670004e-11
6.261203356e-11
7.631573731e-11
8.834249045e-11
9.58895607e-11
3.01176345e-11
3.665560586e-11
4.693014248e-11
6.108773559e-11
7.886404929e-11
9.922550582e-11
1.200909498e-10
1.382456414e-10
1.495565133e-10
4.92280633e-11
5.951034894e-11
7.55587203e-11
9.748223861e-11
1.247481733e-10
1.556788921e-10
1.870869203e-10
2.141942449e-10
2.309708965e-10
7.980862914e-11
9.577859566e-11
1.205350116e-10
1.540693741e-10
1.953929529e-10
2.418420165e-10
2.886062769e-10
3.286669203e-10
3.533106731e-10
1.282797304e-10
1.527737252e-10
1.904934811e-10
2.411735526e-10
3.03082225e-10
3.72074913e-10
4.409910205e-10
4.996290159e-10
5.355054859e-10
2.043607654e-10
2.414647913e-10
2.982445132e-10
3.739505268e-10
4.6568078e-10
5.671043362e-10
6.676942587e-10
7.527637829e-10
8.045624038e-10
3.226037966e-10
3.781350615e-10
4.626147181e-10
5.744565863e-10
7.089656882e-10
8.566306179e-10
1.002148967e-09
1.124555832e-09
1.198777261e-09
5.045694716e-10
5.867245362e-10
7.110315316e-10
8.745378731e-10
1.069864938e-09
1.28293444e-09
1.491726819e-09
1.666539085e-09
1.772155774e-09
7.818929237e-10
9.021211994e-10
1.083138e-09
1.319849552e-09
1.600939399e-09
1.905849566e-09
2.203184871e-09
2.451136025e-09
2.60048967e-09
1.200510775e-09
1.374674449e-09
1.635738144e-09
1.975365091e-09
2.376555764e-09
2.809636334e-09
3.230191241e-09
3.579710112e-09
3.789714416e-09
1.826549253e-09
2.076494456e-09
2.449700793e-09
2.933037263e-09
3.501403124e-09
4.112396329e-09
4.703611655e-09
5.193579122e-09
5.487368815e-09
2.754494839e-09
3.11016749e-09
3.639466525e-09
4.322309388e-09
5.12217345e-09
5.979003034e-09
6.80564574e-09
7.489153107e-09
7.898337155e-09
4.118425138e-09
4.620721928e-09
5.366095982e-09
6.324545659e-09
7.443597324e-09
8.638851724e-09
9.789232037e-09
1.073871085e-08
1.13064435e-08
6.107419496e-09
6.812044362e-09
7.855168721e-09
9.19282654e-09
1.075044884e-08
1.241022329e-08
1.400467515e-08
1.531887996e-08
1.610403325e-08
8.986672586e-09
9.969377149e-09
1.142132603e-08
1.327911223e-08
1.543775737e-08
1.773372911e-08
1.993617344e-08
2.174970389e-08
2.283257424e-08
1.312641331e-08
1.449015463e-08
1.650193815e-08
1.907152303e-08
2.205226163e-08
2.521817896e-08
2.825194066e-08
3.07483273e-08
3.223851021e-08
1.904152174e-08
2.092625925e-08
2.370323766e-08
2.724539622e-08
3.134916642e-08
3.570345598e-08
3.987307221e-08
4.33028955e-08
4.535021426e-08
2.744562621e-08
3.004168837e-08
3.386323819e-08
3.873294001e-08
4.436973861e-08
5.034675913e-08
5.606826862e-08
6.077440228e-08
6.358417675e-08
3.932435428e-08
4.289065813e-08
4.813707857e-08
5.481801443e-08
6.254731513e-08
7.07408377e-08
7.858409357e-08
8.503712893e-08
8.889168981e-08
5.603376113e-08
6.092279526e-08
6.81123668e-08
7.726472985e-08
8.785166309e-08
9.907561036e-08
1.098237475e-07
1.186720888e-07
1.239613804e-07
7.943187095e-08
8.612402698e-08
9.596408587e-08
1.084906752e-07
1.229841868e-07
1.383577312e-07
1.530911415e-07
1.652323386e-07
1.724978391e-07
1.120526553e-07
1.212031272e-07
1.346600793e-07
1.517974152e-07
1.716387514e-07
1.927054479e-07
2.12920508e-07
2.296031715e-07
2.396012742e-07
1.57332187e-07
1.698343875e-07
1.882287569e-07
2.116714818e-07
2.388434653e-07
2.677367741e-07
2.955126708e-07
3.184814166e-07
3.322746365e-07
2.198960349e-07
2.369658429e-07
2.620990093e-07
2.941666834e-07
3.313953434e-07
3.710642922e-07
4.092929745e-07
4.409906718e-07
4.600765104e-07
3.059137447e-07
3.291984667e-07
3.635169658e-07
4.073710503e-07
4.58389157e-07
5.128950413e-07
5.655857529e-07
6.094237025e-07
6.359086474e-07
4.235199487e-07
4.552339197e-07
5.020337951e-07
5.619472614e-07
6.318212169e-07
7.067045949e-07
7.793589542e-07
8.400480009e-07
8.768603218e-07
5.832914809e-07
6.263760493e-07
6.900426412e-07
7.717136052e-07
8.672187495e-07
9.699124473e-07
1.069933328e-06
1.153826365e-06
1.204909957e-06
7.987550009e-07
8.570535393e-07
9.433204338e-07
1.05420414e-06
1.184210437e-06
1.324445789e-06
1.461509671e-06
1.576864231e-06
1.647317006e-06
1.086877577e-06
1.165305238e-06
1.281498826e-06
1.431108757e-06
1.606910643e-06
1.797035772e-06
1.983370614e-06
2.140686479e-06
2.237241848e-06
1.468459181e-06
1.573131868e-06
1.728344533e-06
1.928443838e-06
2.163929043e-06
2.4190491e-06
2.669769218e-06
2.882410529e-06
3.013600673e-06
1.968299095e-06
2.106570463e-06
2.311682166e-06
2.57626753e-06
2.887842027e-06
3.226123028e-06
3.559759269e-06
3.843952555e-06
4.020153616e-06
2.614945574e-06
2.795301599e-06
3.062764302e-06
3.407854177e-06
3.814888673e-06
4.257804526e-06
4.695916942e-06
5.070444742e-06
5.303657712e-06
3.439929014e-06
3.671828284e-06
4.015868629e-06
4.460064334e-06
4.984524258e-06
5.556016142e-06
6.122382418e-06
6.607789781e-06
6.911102229e-06
4.478070647e-06
4.772288936e-06
5.208753527e-06
5.772260695e-06
6.437639177e-06
7.162898455e-06
7.882157868e-06
8.499475327e-06
8.886205195e-06
5.76776892e-06
6.135633569e-06
6.6809806e-06
7.384447267e-06
8.214291686e-06
9.118034761e-06
1.001385267e-05
1.078291604e-05
1.126549524e-05
7.349019289e-06
7.801660297e-06
8.471819056e-06
9.334816003e-06
1.035087007e-05
1.145524259e-05
1.254815909e-05
1.348569211e-05
1.407440667e-05
9.261050187e-06
9.808487561e-06
1.061749884e-05
1.165675978e-05
1.287688808e-05
1.419921454e-05
1.55044256e-05
1.662213085e-05
1.732389216e-05
1.153929234e-05
1.218943414e-05
1.314799212e-05
1.437558696e-05
1.581170871e-05
1.736236466e-05
1.888775287e-05
2.01907415e-05
2.100815345e-05
1.421191264e-05
1.496956753e-05
1.608362055e-05
1.750526953e-05
1.916155357e-05
2.094225456e-05
2.268702665e-05
2.417307307e-05
2.510443286e-05
1.729628405e-05
1.816230919e-05
1.943189331e-05
2.104563276e-05
2.291717485e-05
2.491988736e-05
2.687405391e-05
2.853433865e-05
2.957753469e-05
2.079586626e-05
2.176657835e-05
2.318506637e-05
2.49804818e-05
2.70526532e-05
2.925911658e-05
3.140314282e-05
3.322155501e-05
3.435643412e-05
2.469801091e-05
2.576499006e-05
2.731896588e-05
2.927732863e-05
3.152634165e-05
3.39090189e-05
3.621573514e-05
3.815217949e-05
3.935417193e-05
2.897320461e-05
3.012359399e-05
3.179352574e-05
3.388924639e-05
3.628503272e-05
3.880938423e-05
4.122418915e-05
4.324124303e-05
4.449037831e-05
3.35764527e-05
3.479383775e-05
3.655544217e-05
3.87587267e-05
4.125691952e-05
4.386298244e-05
4.634481591e-05
4.840965996e-05
4.968499669e-05
3.845259362e-05
3.971917677e-05
4.154174672e-05
4.380029838e-05
4.634700762e-05
4.899238811e-05
5.15007963e-05
5.357945576e-05
5.485944363e-05
4.35190342e-05
4.480305152e-05
4.66454239e-05
4.892191727e-05
5.147791147e-05
5.412109041e-05
5.6616033e-05
5.867477188e-05
5.993816847e-05
4.867205843e-05
4.99540841e-05
5.17888174e-05
5.404828745e-05
5.657448195e-05
5.917470229e-05
6.16173836e-05
6.362391562e-05
6.485063878e-05
5.383583511e-05
5.509689406e-05
5.689679495e-05
5.910542867e-05
6.156405086e-05
6.408252471e-05
6.643665827e-05
6.836128306e-05
6.953313315e-05
5.893564321e-05
6.015738614e-05
6.189633388e-05
6.402221191e-05
6.637810026e-05
6.877934512e-05
7.101235138e-05
7.282889224e-05
7.393010324e-05
6.389886052e-05
6.506421312e-05
6.671815141e-05
6.873232246e-05
7.095410995e-05
7.320706174e-05
7.529099292e-05
7.697746369e-05
7.799506554e-05
6.865715861e-05
6.975094529e-05
7.129872557e-05
7.317611935e-05
7.523713267e-05
7.731592914e-05
7.922806767e-05
8.076705866e-05
8.169105803e-05
7.314867166e-05
7.415807945e-05
7.558205963e-05
7.730211379e-05
7.918094354e-05
8.106536957e-05
8.278851312e-05
8.416732064e-05
8.499072189e-05
7.731972609e-05
7.823459038e-05
7.952098471e-05
8.106798139e-05
8.274874101e-05
8.442436804e-05
8.594684002e-05
8.715737852e-05
8.787607327e-05
8.112603794e-05
8.193896612e-05
8.307797258e-05
8.444111687e-05
8.591343117e-05
8.737149733e-05
8.868693089e-05
8.972546997e-05
9.033802447e-05
8.453339661e-05
8.52397538e-05
8.622549353e-05
8.739877565e-05
8.865754607e-05
8.989462575e-05
9.100156838e-05
9.186833828e-05
9.237570743e-05
8.751788732e-05
8.811566923e-05
8.894597328e-05
8.992785612e-05
9.097284908e-05
9.199036162e-05
9.289174755e-05
9.359044928e-05
9.399564103e-05
9.006571062e-05
9.055532747e-05
9.123140441e-05
9.202437886e-05
9.285968287e-05
9.366328455e-05
9.436581725e-05
9.490307646e-05
9.521079158e-05
9.217265841e-05
9.255665297e-05
9.308267011e-05
9.369271559e-05
9.432611035e-05
9.49250158e-05
9.543850306e-05
9.582330028e-05
9.603956741e-05
9.384330433e-05
9.412602666e-05
9.450863687e-05
9.494462755e-05
9.538690729e-05
9.579318089e-05
9.612985838e-05
9.637296379e-05
9.650478595e-05
9.508997809e-05
9.527723893e-05
9.552508314e-05
9.579817421e-05
9.606246197e-05
9.629031422e-05
9.646418774e-05
9.657762328e-05
9.663264891e-05
9.593159349e-05
9.603031507e-05
9.615352634e-05
9.62765504e-05
9.637763397e-05
9.644275188e-05
9.646898284e-05
9.646552923e-05
9.645175692e-05
9.639239725e-05
9.641027743e-05
9.642000807e-05
9.640690613e-05
9.636062073e-05
9.627955464e-05
9.617390669e-05
9.606666774e-05
9.599219047e-05
9.650070165e-05
9.644590394e-05
9.635389244e-05
9.621919823e-05
9.604187386e-05
9.583149646e-05
9.560985521e-05
9.541188645e-05
9.528467828e-05
9.628765672e-05
9.616853518e-05
9.598672459e-05
9.574511458e-05
9.545309966e-05
9.513014642e-05
9.48081181e-05
9.453212257e-05
9.43598679e-05
9.578610751e-05
9.561097196e-05
9.535118651e-05
9.501710241e-05
9.462636929e-05
9.420706363e-05
9.379965394e-05
9.345774406e-05
9.324770774e-05
9.50295706e-05
9.480649431e-05
9.448017678e-05
9.406752233e-05
9.359335493e-05
9.309311683e-05
9.261448674e-05
9.221800849e-05
9.197694335e-05
9.405135192e-05
9.378802161e-05
9.340603019e-05
9.29279399e-05
9.238469979e-05
9.181793272e-05
9.128122543e-05
9.084063869e-05
9.057472628e-05
9.288381695e-05
9.258742256e-05
9.215988355e-05
9.162855804e-05
9.102952223e-05
9.040947064e-05
8.982670153e-05
8.935150956e-05
8.906632919e-05
9.155781476e-05
9.123497515e-05
9.077118565e-05
9.01977862e-05
8.955504802e-05
8.889371609e-05
8.827571667e-05
8.77744368e-05
8.747495793e-05
9.010224909e-05
8.975896905e-05
8.926734285e-05
8.86619368e-05
8.798636016e-05
8.729448188e-05
8.665088818e-05
8.613105589e-05
8.582164897e-05
8.854378448e-05
8.818543789e-05
8.767348736e-05
8.704503526e-05
8.634625261e-05
8.563330313e-05
8.497257929e-05
8.444077828e-05
8.412523962e-05
8.690667122e-05
8.653800528e-05
8.601235202e-05
8.536872801e-05
8.465517238e-05
8.392941116e-05
8.325889972e-05
8.272081108e-05
8.240239769e-05
8.521267115e-05
8.483782684e-05
8.430423431e-05
8.365227156e-05
8.293123407e-05
8.219977134e-05
8.152576244e-05
8.098622711e-05
8.066769805e-05
8.348106559e-05
8.310361007e-05
8.256703212e-05
8.191258622e-05
8.11902913e-05
8.045917038e-05
7.978698367e-05
7.925007252e-05
7.893373392e-05
8.172872764e-05
8.135169459e-05
8.081633479e-05
8.016435903e-05
7.944605145e-05
7.872034014e-05
7.805441238e-05
7.752350087e-05
7.721125251e-05
7.997024266e-05
7.95961779e-05
7.906555524e-05
7.842018189e-05
7.771021801e-05
7.699410449e-05
7.633808112e-05
7.581592452e-05
7.550930595e-05
7.821806142e-05
7.784907032e-05
7.732608699e-05
7.669071124e-05
7.59926533e-05
7.528954265e-05
7.464636776e-05
7.413517455e-05
7.383540947e-05
7.648267333e-05
7.612046862e-05
7.560747831e-05
7.498484169e-05
7.430155011e-05
7.3614158e-05
7.298616101e-05
7.248766274e-05
7.21957008e-05
7.477279062e-05
7.441873909e-05
7.391761309e-05
7.330988378e-05
7.264360536e-05
7.197404699e-05
7.136302417e-05
7.08785406e-05
7.059509608e-05
7.309553488e-05
7.275070165e-05
7.226289145e-05
7.16717399e-05
7.102419035e-05
7.037406315e-05
6.978135287e-05
6.931185172e-05
6.903743859e-05
7.145661974e-05
7.112180955e-05
7.064840485e-05
7.007507362e-05
6.944751353e-05
6.88179727e-05
6.824452384e-05
6.779067473e-05
6.752563823e-05
6.986052525e-05
6.953632021e-05
6.90781019e-05
6.852346926e-05
6.791677284e-05
6.730859952e-05
6.675503286e-05
6.631725535e-05
6.606179988e-05
6.8310661e-05
6.799745461e-05
6.755494257e-05
6.70195795e-05
6.643429608e-05
6.584795802e-05
6.531462056e-05
6.489312659e-05
6.464734021e-05
6.680951604e-05
6.650754364e-05
6.60810391e-05
6.556525992e-05
6.500166831e-05
6.44373733e-05
6.392438595e-05
6.351921681e-05
6.328309248e-05
6.53587948e-05
6.506816031e-05
6.465778323e-05
6.416169002e-05
6.36198461e-05
6.307758855e-05
6.258488749e-05
6.219594582e-05
6.196939972e-05
6.395953881e-05
6.368023809e-05
6.328595974e-05
6.280948095e-05
6.228925887e-05
6.176886008e-05
6.129623244e-05
6.092330967e-05
6.070619678e-05
6.26122344e-05
6.234417554e-05
6.196584658e-05
6.150877033e-05
6.100989802e-05
6.051104063e-05
6.005815489e-05
5.970095453e-05
5.94930819e-05
6.131690732e-05
6.105992793e-05
6.069730254e-05
6.025930507e-05
5.978139443e-05
5.930365181e-05
5.887008357e-05
5.852824094e-05
5.832937875e-05
6.007320488e-05
5.982708691e-05
5.947984327e-05
5.906051312e-05
5.860308564e-05
5.814594658e-05
5.773120026e-05
5.740429892e-05
5.72141898e-05
5.888046697e-05
5.864494921e-05
5.831270676e-05
5.791156508e-05
5.747407331e-05
5.703696279e-05
5.664048971e-05
5.632807525e-05
5.61464419e-05
5.773778682e-05
5.751257535e-05
5.719490931e-05
5.68114269e-05
5.639327243e-05
5.597556883e-05
5.559678222e-05
5.52983735e-05
5.512492504e-05
5.664406279e-05
5.642883974e-05
5.612529319e-05
5.575890462e-05
5.535945287e-05
5.496050218e-05
5.459878948e-05
5.431388798e-05
5.414832509e-05
5.559804218e-05
5.539247294e-05
5.51025667e-05
5.47526819e-05
5.437127434e-05
5.399040188e-05
5.364513487e-05
5.337323218e-05
5.321525124e-05
5.459835782e-05
5.440209697e-05
5.41253378e-05
5.379135165e-05
5.342731582e-05
5.30638357e-05
5.27343786e-05
5.247496252e-05
5.232425897e-05
5.364355891e-05
5.345625509e-05
5.319214236e-05
5.287344242e-05
5.252609993e-05
5.217932268e-05
5.186503875e-05
5.161759813e-05
5.147386909e-05
5.273213668e-05
5.255343646e-05
5.230146748e-05
5.199744018e-05
5.166611321e-05
5.133535189e-05
5.103560858e-05
5.079963713e-05
5.066258351e-05
5.186254542e-05
5.169209644e-05
5.145177075e-05
5.116180635e-05
5.084582275e-05
5.053039774e-05
5.024457079e-05
5.00195701e-05
4.988889815e-05
5.103321983e-05
5.087067328e-05
5.064149601e-05
5.03649925e-05
5.00636898e-05
4.976293262e-05
4.94904092e-05
4.927589099e-05
4.915131355e-05
5.024258914e-05
5.00876017e-05
4.986908623e-05
4.960545237e-05
4.931818092e-05
4.903143704e-05
4.877161816e-05
4.856710604e-05
4.844834344e-05
4.948908863e-05
4.934132395e-05
4.913299392e-05
4.888165155e-05
4.860777685e-05
4.833440789e-05
4.808671022e-05
4.789174092e-05
4.777852161e-05
4.877116879e-05
4.863029865e-05
4.843168951e-05
4.819207529e-05
4.793097974e-05
4.767036508e-05
4.743422218e-05
4.724834645e-05
4.714040745e-05
4.808730273e-05
4.795300785e-05
4.776366798e-05
4.753523465e-05
4.728631883e-05
4.70378567e-05
4.681271994e-05
4.663550314e-05
4.653259035e-05
4.743599199e-05
4.730796263e-05
4.712745412e-05
4.690967138e-05
4.66723549e-05
4.643546312e-05
4.622080225e-05
4.605182473e-05
4.595369304e-05
4.681577105e-05
4.669370744e-05
4.652160662e-05
4.631396171e-05
4.608768374e-05
4.586180021e-05
4.565710366e-05
4.54959609e-05
4.540237426e-05
4.622521088e-05
4.610882344e-05
4.59447212e-05
4.574671922e-05
4.55309388e-05
4.531552167e-05
4.512029667e-05
4.496659931e-05
4.487733073e-05
4.56629215e-05
4.555193098e-05
4.539543293e-05
4.5206597e-05
4.500079311e-05
4.479532082e-05
4.460909336e-05
4.446246715e-05
4.437729858e-05
4.512755396e-05
4.502169146e-05
4.487241797e-05
4.469228919e-05
4.449596071e-05
4.429993187e-05
4.412224656e-05
4.398233213e-05
4.390105434e-05
4.461780167e-05
4.451680864e-05
4.43743947e-05
4.420253204e-05
4.401519755e-05
4.382813074e-05
4.36585505e-05
4.352500318e-05
4.344741562e-05
4.413240132e-05
4.403602938e-05
4.390012451e-05
4.37361046e-05
4.355730212e-05
4.337873555e-05
4.321684135e-05
4.308933082e-05
4.301524142e-05
4.367013334e-05
4.35781442e-05
4.344841218e-05
4.329182901e-05
4.312111567e-05
4.295060681e-05
4.279599727e-05
4.267420732e-05
4.260343226e-05
4.322982214e-05
4.31419874e-05
4.301810604e-05
4.286857062e-05
4.270552225e-05
4.254264742e-05
4.239493843e-05
4.227856653e-05
4.221093008e-05
4.281033606e-05
4.272643701e-05
4.260809783e-05
4.246523783e-05
4.230944855e-05
4.215380247e-05
4.201262671e-05
4.190138373e-05
4.183671797e-05
4.241058713e-05
4.233041452e-05
4.221732244e-05
4.208078177e-05
4.193186353e-05
4.178305884e-05
4.164806537e-05
4.154167514e-05
4.147981977e-05
4.202953065e-05
4.195288445e-05
4.184475744e-05
4.171419587e-05
4.157177795e-05
4.142944472e-05
4.130029851e-05
4.11984975e-05
4.113929959e-05
4.166616462e-05
4.15928538e-05
4.148942255e-05
4.136451523e-05
4.122824379e-05
4.109202905e-05
4.09684105e-05
4.087094738e-05
4.081426114e-05
4.131952914e-05
4.124937139e-05
4.115037895e-05
4.103081599e-05
4.090035357e-05
4.076992075e-05
4.065152523e-05
4.055816053e-05
4.050384712e-05
4.098870562e-05
4.092152711e-05
4.08267285e-05
4.071221453e-05
4.058723955e-05
4.046226801e-05
4.034880541e-05
4.025931112e-05
4.020723835e-05
4.067281598e-05
4.060845111e-05
4.051761297e-05
4.040786668e-05
4.028807294e-05
4.016825747e-05
4.005945168e-05
3.997361089e-05
3.992365305e-05
4.037102176e-05
4.030931289e-05
4.022221311e-05
4.01169668e-05
4.000206299e-05
3.98871133e-05
3.978270177e-05
3.970030828e-05
3.965234591e-05
4.008252316e-05
4.002332035e-05
3.993974772e-05
3.983874688e-05
3.972845609e-05
3.961809627e-05
3.951782958e-05
3.943868751e-05
3.939260717e-05
3.980655806e-05
3.974971883e-05
3.966947267e-05
3.957247549e-05
3.946653471e-05
3.93605028e-05
3.926414414e-05
3.918806762e-05
3.914376167e-05
3.9542401e-05
3.948779006e-05
3.941067984e-05
3.931745682e-05
3.921561645e-05
3.91136639e-05
3.902098868e-05
3.894780142e-05
3.890516782e-05
3.928936206e-05
3.923685108e-05
3.916269607e-05
3.907302955e-05
3.897505292e-05
3.887694413e-05
3.878773948e-05
3.871727448e-05
3.867621655e-05
3.904678571e-05
3.899625304e-05
3.892488197e-05
3.883856569e-05
3.874422862e-05
3.864974042e-05
3.856380479e-05
3.849590394e-05
3.84563302e-05
3.881404964e-05
3.876538006e-05
3.869663074e-05
3.861346944e-05
3.852255969e-05
3.843148091e-05
3.834862359e-05
3.828313734e-05
3.824496126e-05
3.85905634e-05
3.854364788e-05
3.847736683e-05
3.839717578e-05
3.830949263e-05
3.822162356e-05
3.814166428e-05
3.807845126e-05
3.804159109e-05
3.837576697e-05
3.833050241e-05
3.826654453e-05
3.818914907e-05
3.81045028e-05
3.801965472e-05
3.794242316e-05
3.788134986e-05
3.784572838e-05
3.816912916e-05
3.812541809e-05
3.806364623e-05
3.798888134e-05
3.79070927e-05
3.782508738e-05
3.775042268e-05
3.769136306e-05
3.765690739e-05
3.797014567e-05
3.792789601e-05
3.786818058e-05
3.779589033e-05
3.771678999e-05
3.763745908e-05
3.756520937e-05
3.750804441e-05
3.747468577e-05
3.777833693e-05
3.773746158e-05
3.767968006e-05
3.760971707e-05
3.753314498e-05
3.745632937e-05
3.738635114e-05
3.733096843e-05
3.729864184e-05
3.759324524e-05
3.755366178e-05
3.749769818e-05
3.742992289e-05
3.735572753e-05
3.728127661e-05
3.7213434e-05
3.715972711e-05
3.712837108e-05
3.741443144e-05
3.737606158e-05
3.732180575e-05
3.725608563e-05
3.718412307e-05
3.711189373e-05
3.704605763e-05
3.699392543e-05
3.696348154e-05
3.724147051e-05
3.720423954e-05
3.715158633e-05
3.708779479e-05
3.701792747e-05
3.694778285e-05
3.688382977e-05
3.683317549e-05
3.680358782e-05
3.707394612e-05
3.703778214e-05
3.698663024e-05
3.692464524e-05
3.685674041e-05
3.678854832e-05
3.672635879e-05
3.667708873e-05
3.664830314e-05
3.691144365e-05
3.687627654e-05
3.682652708e-05
3.67662293e-05
3.670015693e-05
3.66337876e-05
3.657324415e-05
3.652526603e-05
3.649722911e-05
3.675354147e-05
3.671930157e-05
3.667085617e-05
3.661212658e-05
3.65477566e-05
3.648307981e-05
3.642406419e-05
3.637728485e-05
3.63499426e-05
3.659979992e-05
3.656641636e-05
3.65191746e-05
3.646189135e-05
3.639909003e-05
3.63359713e-05
3.62783608e-05
3.623268319e-05
3.620597918e-05
3.644974798e-05
3.64171464e-05
3.637100264e-05
3.631503694e-05
3.62536622e-05
3.619195781e-05
3.613562055e-05
3.609093976e-05
3.606481273e-05
3.630286692e-05
3.62709667e-05
3.622580596e-05
3.617101691e-05
3.611091235e-05
3.605046305e-05
3.599525187e-05
3.595145009e-05
3.592583084e-05
3.615857099e-05
3.612728174e-05
3.608297459e-05
3.602920271e-05
3.597019018e-05
3.591081329e-05
3.585655814e-05
3.581349831e-05
3.578830586e-05
3.601618488e-05
3.598540219e-05
3.594179849e-05
3.588885787e-05
3.583072841e-05
3.577220817e-05
3.571870686e-05
3.567622488e-05
3.56513617e-05
3.587491809e-05
3.58445184e-05
3.580143991e-05
3.574910879e-05
3.569161179e-05
3.563368795e-05
3.558069505e-05
3.553859058e-05
3.551393691e-05
3.573383643e-05
3.570367113e-05
3.566090284e-05
3.560891271e-05
3.55517434e-05
3.549409793e-05
3.544131204e-05
3.539933774e-05
3.537474499e-05
3.559183134e-05
3.556172005e-05
3.551900039e-05
3.54670237e-05
3.540980903e-05
3.535205118e-05
3.529910054e-05
3.525695012e-05
3.523223352e-05
3.544758786e-05
3.541731102e-05
3.537432119e-05
3.532195784e-05
3.52642411e-05
3.520589123e-05
3.515231818e-05
3.510961341e-05
3.508454401e-05
3.529955262e-05
3.52688437e-05
3.522519626e-05
3.517195949e-05
3.511318415e-05
3.50536568e-05
3.499890161e-05
3.495517886e-05
3.492947528e-05
3.514590355e-05
3.511444105e-05
3.506966851e-05
3.50149706e-05
3.495446421e-05
3.489305129e-05
3.483643623e-05
3.47911333e-05
3.476445367e-05
3.498452339e-05
3.495192323e-05
3.490546708e-05
3.484860585e-05
3.478556495e-05
3.472142023e-05
3.466213493e-05
3.461457906e-05
3.458651373e-05
3.481297963e-05
3.477878838e-05
3.472998949e-05
3.467013665e-05
3.460361387e-05
3.453573998e-05
3.447282959e-05
3.442222789e-05
3.439229371e-05
3.462851344e-05
3.459220312e-05
3.454029453e-05
3.447648708e-05
3.440538213e-05
3.433262182e-05
3.426497932e-05
3.4210413e-05
3.417804997e-05
3.442804081e-05
3.438900599e-05
3.433310909e-05
3.426424537e-05
3.418730141e-05
3.410833486e-05
3.403469951e-05
3.397512331e-05
3.393969467e-05
3.420816873e-05
3.416572677e-05
3.410485227e-05
3.402969401e-05
3.394550129e-05
3.385885134e-05
3.377781505e-05
3.371206358e-05
3.367286013e-05
3.396522946e-05
3.391862474e-05
3.385167947e-05
3.376886152e-05
3.367586997e-05
3.35799171e-05
3.348994046e-05
3.341674286e-05
3.337299263e-05
3.369533506e-05
3.364374803e-05
3.356954885e-05
3.347759788e-05
3.337414026e-05
3.326714897e-05
3.316658851e-05
3.308459266e-05
3.303547662e-05
3.339445414e-05
3.333701576e-05
3.325431138e-05
3.315167474e-05
3.303600152e-05
3.291615923e-05
3.280330687e-05
3.271111402e-05
3.265578819e-05
3.305851123e-05
3.299432324e-05
3.290182459e-05
3.278690987e-05
3.265723642e-05
3.252270542e-05
3.239584042e-05
3.229205028e-05
3.22296744e-05
3.268350807e-05
3.261166929e-05
3.250808843e-05
3.237931368e-05
3.223387946e-05
3.208286127e-05
3.194031403e-05
3.182357956e-05
3.175335166e-05
3.226566455e-05
3.218530261e-05
3.20693996e-05
3.192525323e-05
3.176239168e-05
3.15932023e-05
3.143342805e-05
3.130251812e-05
3.122371373e-05
3.18015747e-05
3.171188254e-05