/*--------------------------------*- C++ -*----------------------------------*\
| =========                 |                                                 |
| \\      /  F ield         | OpenFOAM: The Open Source CFD Toolbox           |
|  \\    /   O peration     | Version:  2212                                  |
|   \\  /    A nd           | Website:  www.openfoam.com                      |
|    \\/     M anipulation  |                                                 |
\*---------------------------------------------------------------------------*/
FoamFile
{
    version     2.0;
    format      ascii;
    arch        "LSB;label=32;scalar=64";
    class       volScalarField;
    location    "20.00000000";
    object      C4H4;
}
// * * * * * * * * * * * * * * * * * * * * * * * * * * * * * * * * * * * * * //

dimensions      [0 0 0 0 0 0 0];

internalField   nonuniform List<scalar> 
3000
(
2.108714252e-19
2.368331103e-19
2.759901892e-19
3.281334392e-19
3.927030601e-19
4.67919725e-19
5.492445689e-19
6.268036622e-19
6.816249025e-19
7.916265411e-19
8.926648316e-19
1.044984087e-18
1.248250921e-18
1.502128384e-18
1.805096485e-18
2.15183974e-18
2.525089895e-18
2.855664666e-18
1.773112286e-18
2.015133085e-18
2.383462888e-18
2.883152799e-18
3.522783417e-18
4.311200749e-18
5.244890208e-18
6.271606484e-18
7.148433151e-18
3.377060548e-18
3.878271275e-18
4.652312077e-18
5.724839614e-18
7.133009304e-18
8.911471179e-18
1.104910143e-17
1.337406911e-17
1.524789951e-17
5.996428004e-18
6.971197873e-18
8.500567063e-18
1.066162417e-17
1.355504004e-17
1.72605019e-17
2.171371295e-17
2.64360861e-17
3.005280509e-17
1.03102857e-17
1.214028108e-17
1.505322139e-17
1.923494432e-17
2.490880928e-17
3.221908341e-17
4.095093466e-17
5.001000265e-17
5.672580697e-17
1.750070762e-17
2.086227674e-17
2.627580595e-17
3.413561488e-17
4.488014623e-17
5.872488013e-17
7.509971891e-17
9.174285909e-17
1.037551511e-16
2.961174268e-17
3.569418881e-17
4.557643072e-17
6.00347226e-17
7.987552993e-17
1.053849974e-16
1.352833024e-16
1.652178077e-16
1.864550577e-16
5.018587021e-17
6.107451813e-17
7.887931802e-17
1.050594032e-16
1.410471855e-16
1.87187295e-16
2.408718688e-16
2.940592264e-16
3.313775e-16
8.535901046e-17
1.046986893e-16
1.364662229e-16
1.833262622e-16
2.477781855e-16
3.301928792e-16
4.25551102e-16
5.19335547e-16
5.846531887e-16
1.457702921e-16
1.799218803e-16
2.361962816e-16
3.193711157e-16
4.337701707e-16
5.797202574e-16
7.478967413e-16
9.124601943e-16
1.02651173e-15
2.498777915e-16
3.09931601e-16
4.091015217e-16
5.558552936e-16
7.576460803e-16
1.014612749e-15
1.309815274e-15
1.597670078e-15
1.796535745e-15
4.297270077e-16
5.350150443e-16
7.091429697e-16
9.670124824e-16
1.321455469e-15
1.772129167e-15
2.28868568e-15
2.791188434e-15
3.137771383e-15
7.409651628e-16
9.251826947e-16
1.23017785e-15
1.682084217e-15
2.303030016e-15
3.091626389e-15
3.993869245e-15
4.869888066e-15
5.474430547e-15
1.280189094e-15
1.602036619e-15
2.135368594e-15
2.926023912e-15
4.01244863e-15
5.391378614e-15
6.966735036e-15
8.492174037e-15
9.54949225e-15
2.214936595e-15
2.776510785e-15
3.707785166e-15
5.089211608e-15
6.988227286e-15
9.39957032e-15
1.215712168e-14
1.483258691e-14
1.666192558e-14
3.835604133e-15
4.814078526e-15
6.437400712e-15
8.845871804e-15
1.215625139e-14
1.635717951e-14
2.115511221e-14
2.579998443e-14
2.898292974e-14
6.645761986e-15
8.34858019e-15
1.117425045e-14
1.536666898e-14
2.112747796e-14
2.843397683e-14
3.677253168e-14
4.483901236e-14
5.036681487e-14
1.151906772e-14
1.447994384e-14
1.939398467e-14
2.668492667e-14
3.670164147e-14
4.940171444e-14
6.388981602e-14
7.789982455e-14
8.749795532e-14
1.997169969e-14
2.511734253e-14
3.365838931e-14
4.633102384e-14
6.373977519e-14
8.580774447e-14
1.109761669e-13
1.353073498e-13
1.519720821e-13
3.463532746e-14
4.357490394e-14
5.841483907e-14
8.043405066e-14
1.106807764e-13
1.490173731e-13
1.927316654e-13
2.349824126e-13
2.639145095e-13
6.007837041e-14
7.560609432e-14
1.013845057e-13
1.396349356e-13
1.921752982e-13
2.587606772e-13
3.346738779e-13
4.080316182e-13
4.582573829e-13
1.042322807e-13
1.312001646e-13
1.759732761e-13
2.424088043e-13
3.336592177e-13
4.492899369e-13
5.81098628e-13
7.084483846e-13
7.95631829e-13
1.808687622e-13
2.277022762e-13
3.054589136e-13
4.208344673e-13
5.792944415e-13
7.80068542e-13
1.008897147e-12
1.229951905e-12
1.381268446e-12
3.139024134e-13
3.952327085e-13
5.302626931e-13
7.306113604e-13
1.005750264e-12
1.354313716e-12
1.751517847e-12
2.135166695e-12
2.397758286e-12
5.448621458e-13
6.860962777e-13
9.205728162e-13
1.268443904e-12
1.746110946e-12
2.351142838e-12
3.040465465e-12
3.706133391e-12
4.161694067e-12
9.458639214e-13
1.191118995e-12
1.598256646e-12
2.202206353e-12
3.031338099e-12
4.081290684e-12
5.277186243e-12
6.431724316e-12
7.221669904e-12
1.642128489e-12
2.068003479e-12
2.774883506e-12
3.823255449e-12
5.262110586e-12
7.083546441e-12
9.157359687e-12
1.115867685e-11
1.252753705e-11
2.851028336e-12
3.590489105e-12
4.817616268e-12
6.637021729e-12
9.13310879e-12
1.229136925e-11
1.588529481e-11
1.935167359e-11
2.172144199e-11
4.949723375e-12
6.233483913e-12
8.363249663e-12
1.151963706e-11
1.584759222e-11
2.132004014e-11
2.75426892e-11
3.353982423e-11
3.763681584e-11
8.592122446e-12
1.08202237e-11
1.451517308e-11
1.998808842e-11
2.748679757e-11
3.695983754e-11
4.772032801e-11
5.807960024e-11
6.514948367e-11
1.491068754e-11
1.877601961e-11
2.518259411e-11
3.46646539e-11
4.764344655e-11
6.401929334e-11
8.259460357e-11
1.004508274e-10
1.12620113e-10
2.586361996e-11
3.256440067e-11
4.366264932e-11
6.007197209e-11
8.250282504e-11
1.107587335e-10
1.427499881e-10
1.734419863e-10
1.943195735e-10
4.48300081e-11
5.643373455e-11
7.563469663e-11
1.039868425e-10
1.42676205e-10
1.913099115e-10
2.462393708e-10
2.988020603e-10
3.344681314e-10
7.762557934e-11
9.768905687e-11
1.308490184e-10
1.797302681e-10
2.462866187e-10
3.297246986e-10
4.236731591e-10
5.132783899e-10
5.738871272e-10
1.342273621e-10
1.688458462e-10
2.2597542e-10
3.100107474e-10
4.241155345e-10
5.666803974e-10
7.265861846e-10
8.784774273e-10
9.808131268e-10
2.31684526e-10
2.912523436e-10
3.893701575e-10
5.333149664e-10
7.280967128e-10
9.704542339e-10
1.241016515e-09
1.496748277e-09
1.668230806e-09
3.989977992e-10
5.011339358e-10
6.689801623e-10
9.144224245e-10
1.245166923e-09
1.65464805e-09
2.109229211e-09
2.536386292e-09
2.821231806e-09
6.852362253e-10
8.595898989e-10
1.145314446e-09
1.561501023e-09
2.119553249e-09
2.806402116e-09
3.563939476e-09
4.270996353e-09
4.739514907e-09
1.172924095e-09
1.468964306e-09
1.952488654e-09
2.653542754e-09
3.588122442e-09
4.730616248e-09
5.981368016e-09
7.139981465e-09
7.902351061e-09
1.999911795e-09
2.499365763e-09
3.311944223e-09
4.483781541e-09
6.035600517e-09
7.918160441e-09
9.962166053e-09
1.184001063e-08
1.306633184e-08
3.394736033e-09
4.231123007e-09
5.585759105e-09
7.52739934e-09
1.007949067e-08
1.314941151e-08
1.64528968e-08
1.946120592e-08
2.141024885e-08
5.733137075e-09
7.121892939e-09
9.359755532e-09
1.254551992e-08
1.66986245e-08
2.164896059e-08
2.692564196e-08
3.168698318e-08
3.4746839e-08
9.627263616e-09
1.191130514e-08
1.557118122e-08
2.074251713e-08
2.742479124e-08
3.531334133e-08
4.363979075e-08
5.108338273e-08
5.582828616e-08
1.606455479e-08
1.978181119e-08
2.570196029e-08
3.400039619e-08
4.462419771e-08
5.704156452e-08
7.001863317e-08
8.151282364e-08
8.878178716e-08
2.66207791e-08
3.260222778e-08
4.206679423e-08
5.522287747e-08
7.190509427e-08
9.120863053e-08
1.111845665e-07
1.28719067e-07
1.397237337e-07
4.378165804e-08
5.329073864e-08
6.823617134e-08
8.883328731e-08
1.147002666e-07
1.443355696e-07
1.747111037e-07
2.011453733e-07
2.176167398e-07
7.142023971e-08
8.634718541e-08
1.096479648e-07
1.414848103e-07
1.810886298e-07
2.26026341e-07
2.716678922e-07
3.110668995e-07
3.354534333e-07
1.154928066e-07
1.386204098e-07
1.744778088e-07
2.230590616e-07
2.82938763e-07
3.502619519e-07
4.180565141e-07
4.76141354e-07
5.118748355e-07
1.850342374e-07
2.203947367e-07
2.748571557e-07
3.480482889e-07
4.374775117e-07
5.371637593e-07
6.367581788e-07
7.21507212e-07
7.733579228e-07
2.93553321e-07
3.468990169e-07
4.285468484e-07
5.374349163e-07
6.694047144e-07
8.153558631e-07
9.601333569e-07
1.082579878e-06
1.157129892e-06
4.609477761e-07
5.40359668e-07
6.611897323e-07
8.211942311e-07
1.013682507e-06
1.225058874e-06
1.433411697e-06
1.608692647e-06
1.714964057e-06
7.160761409e-07
8.327340212e-07
1.009275099e-06
1.241545614e-06
1.51911301e-06
1.822014239e-06
2.118956787e-06
2.367655425e-06
2.517927595e-06
1.100140557e-06
1.269275564e-06
1.523954742e-06
1.857066949e-06
2.252777611e-06
2.682252513e-06
3.101344798e-06
3.451089515e-06
3.661877321e-06
1.670961555e-06
1.912977801e-06
2.275735279e-06
2.747692922e-06
3.305352613e-06
3.90766721e-06
4.493056583e-06
4.980088671e-06
5.273013624e-06
2.5084194e-06
2.850214859e-06
3.360379048e-06
4.02086394e-06
4.797403739e-06
5.632256227e-06
6.440396125e-06
7.110540312e-06
7.51261047e-06
3.721320843e-06
4.19778445e-06
4.906146445e-06
5.818920565e-06
6.886784152e-06
8.029253284e-06
9.130014732e-06
1.003885094e-05
1.058215214e-05
5.455828589e-06
6.111473527e-06
7.082494625e-06
8.327847659e-06
9.777264155e-06
1.131952728e-05
1.279729679e-05
1.401107713e-05
1.473375878e-05
7.905379109e-06
8.795965864e-06
1.010989047e-05
1.178687675e-05
1.372794691e-05
1.578137094e-05
1.773795457e-05
1.93378414e-05
2.028798141e-05
1.132116007e-05
1.251500288e-05
1.426951227e-05
1.649782097e-05
1.906299366e-05
2.176234111e-05
2.432367599e-05
2.641321173e-05
2.765361416e-05
1.602102426e-05
1.759982285e-05
1.991142225e-05
2.283400346e-05
2.618327984e-05
2.969525185e-05
3.302128937e-05
3.573405575e-05
3.734614494e-05
2.23951288e-05
2.445534218e-05
2.746259388e-05
3.125212594e-05
3.558321954e-05
4.011803555e-05
4.441224815e-05
4.791808576e-05
5.000506748e-05
3.091209822e-05
3.356933017e-05
3.744074483e-05
4.231087682e-05
4.787142344e-05
5.369302122e-05
5.920980692e-05
6.371989287e-05
6.640956238e-05
4.213504877e-05
4.553156704e-05
5.047598072e-05
5.66922794e-05
6.378915587e-05
7.122240586e-05
7.827269196e-05
8.404364104e-05
8.749053243e-05
5.674648985e-05
6.105761794e-05
6.733156888e-05
7.5218289e-05
8.422322691e-05
9.365867868e-05
0.0001026137604
0.0001099501229
0.0001143366126
7.556863681e-05
8.10058205e-05
8.89168979e-05
9.886000995e-05
0.0001102123873
0.0001221084758
0.0001334012193
0.0001426557041
0.0001481916869
9.957338484e-05
0.0001063846667
0.0001162919397
0.0001287394179
0.000142945846
0.0001578274914
0.0001719500233
0.0001835207937
0.0001904415993
0.0001298831256
0.0001383518926
0.0001506637653
0.0001661222013
0.000183751789
0.000202204423
0.0002197014891
0.0002340259684
0.000242588248
0.0001677637358
0.0001782050021
0.0001933734139
0.0002124000755
0.0002340744947
0.0002567327186
0.0002781900897
0.0002957348715
0.0003062102706
0.0002146078858
0.0002273617096
0.0002458721809
0.0002690619143
0.000295439729
0.0003229701867
0.000348997848
0.0003702446032
0.0003829112305
0.0002719081994
0.000287330044
0.0003096873798
0.0003376542444
0.0003694095181
0.0004024881563
0.0004336986129
0.0004591264587
0.0004742585986
0.0003412206381
0.0003596688444
0.0003863788073
0.0004197329509
0.0004575288577
0.0004968135163
0.0005337963487
0.0005638620009
0.0005817195507
0.0004241194388
0.0004459403575
0.0004774881794
0.0005168091484
0.0005612680937
0.0006073681594
0.000650662738
0.0006857806967
0.0007065989373
0.0005221456968
0.00054765742
0.0005844845781
0.000630292947
0.000681965372
0.0007354106928
0.0007854792894
0.000825996897
0.0008499621065
0.0006367522494
0.0006662282315
0.0007087094271
0.0007614392628
0.0008207743693
0.0008819881657
0.000939184141
0.0009853490975
0.001012592456
0.0007692479188
0.0008029020126
0.0008513246403
0.0009112995258
0.000978622241
0.001047885754
0.001112420663
0.001164372245
0.001194961252
0.0009207443927
0.0009587189043
0.001013268597
0.001080683892
0.001156156152
0.001233583449
0.001305520821
0.001363280078
0.00139721352
0.001092113245
0.001134469528
0.001195205855
0.001270093553
0.001353707774
0.001439244996
0.001518494488
0.001581961053
0.001619167808
0.001283918812
0.001330619339
0.00139746866
0.001479706325
0.001571285951
0.00166471072
0.001751030042
0.001819985274
0.00186032678
0.001496372823
0.001547290319
0.001620052609
0.001709366109
0.001808570922
0.001909500009
0.002002504108
0.002076619791
0.002119895623
0.00172933139
0.001784252446
0.001862607624
0.001958580522
0.002064919013
0.002172822844
0.002271998883
0.002350850176
0.002396805964
0.001982289733
0.002040922159
0.002124441372
0.002226529927
0.002339377263
0.002453599444
0.002558325756
0.002641406866
0.002689743619
0.002254391315
0.002316374417
0.002404535134
0.002512087382
0.002630707171
0.002750487051
0.002860054143
0.002946795076
0.002997178916
0.002544450556
0.002609367425
0.00270157106
0.002813848442
0.002937416584
0.003061913096
0.00317554494
0.00326532766
0.003317398566
0.002850987083
0.002918378102
0.003013969117
0.00313016953
0.003257799108
0.003386114995
0.00350298972
0.003595162263
0.00364853826
0.003172268867
0.003241645878
0.003339931755
0.003459213603
0.003589980963
0.003721188446
0.003840460839
0.00393435405
0.003988642095
0.003506361301
0.003577222064
0.0036774938
0.003799001054
0.003931973896
0.004065144302
0.004185974993
0.004280927766
0.004335768153
0.003851179421
0.003923022007
0.004024574625
0.004147462199
0.004281728941
0.004415966312
0.004537559041
0.004633001131
0.00468808338
0.004204541232
0.004276878177
0.004379030815
0.004502489174
0.004637185976
0.004771662559
0.004893341569
0.004988765357
0.005043803041
0.004564221734
0.004636594471
0.004738711211
0.004861993241
0.004996358794
0.005130374715
0.005251527067
0.005346465457
0.005401194703
0.004928009949
0.005000004132
0.005101528228
0.005224009626
0.00535739131
0.005490313387
0.005610381906
0.005704409325
0.005758589918
0.005293841065
0.005365117114
0.005465579167
0.005586703162
0.005718511147
0.005849767597
0.005968250235
0.006060984146
0.006114400699
0.005659829204
0.005730083324
0.005829062035
0.005948330873
0.006078037984
0.006207119574
0.0063235711
0.006414673561
0.006467136355
0.006024194957
0.006093157655
0.006190280094
0.006307255221
0.006434398907
0.006560861005
0.006674894539
0.006764073102
0.006815418421
0.006385275987
0.006452713209
0.006547656599
0.006661960277
0.006786144169
0.006909607772
0.00702089516
0.007107902741
0.007157992594
0.006741543841
0.006807257875
0.006899750581
0.007011066482
0.007131960443
0.007252111589
0.007360382315
0.007445015973
0.007493737226
0.007091619308
0.007155448694
0.007245269773
0.007353341917
0.00747068032
0.007587267835
0.007692306549
0.007774405274
0.007821668266
0.007434283554
0.007496101912
0.007583079194
0.007687709267
0.007801287656
0.00791411944
0.008015762321
0.008095204029
0.008140940787
0.007768484201
0.007828198116
0.007912205058
0.008013248374
0.008122918814
0.008231857008
0.008329987272
0.008406685247
0.008450847446
0.008093336387
0.008150882581
0.008231834193
0.00832919467
0.008434860191
0.008539815588
0.008634358455
0.008708257446
0.008750814192
0.008408119311
0.008463461337
0.008541309512
0.008634934046
0.00873654255
0.008837468604
0.008928385989
0.008999458175
0.009040393766
0.008712268976
0.008765393678
0.008840122234
0.008929994797
0.009027532765
0.009124419501
0.00921170472
0.009279945735
0.009319257472
0.009005367949
0.009056281855
0.009127901545
0.009214037322
0.009307523641
0.009400391757
0.009484064448
0.009549489611
0.009587185734
0.00928713294
0.009335858788
0.009404402517
0.009486842319
0.00957632246
0.009665217815
0.009745319236
0.009807960078
0.009844057876
0.00955740108
0.009603974593
0.009669492992
0.009748298139
0.009833838849
0.009918827466
0.009995416257
0.01005531741
0.01008984154
0.009816115618
0.009860582605
0.00992314008
0.009998387835
0.01008007244
0.01016123611
0.01023438458
0.01029160106
0.01032458207
0.01006331162
0.01010572546
0.01016539676
0.01023717639
0.01031510073
0.01039253324
0.0104623242
0.01051691909
0.01054839216
0.0102991022
0.01033952169
0.01039638902
0.01046479846
0.01053906753
0.01061287149
0.01067939556
0.01073143803
0.01076144189
0.01052366553
0.01056215316
0.01061630377
0.01068144693
0.01075217203
0.01082245628
0.0108858097
0.01093537341
0.01096394949
0.01073723299
0.01077385349
0.01082537781
0.01088736234
0.01095465886
0.01102153637
0.01108181922
0.01112898098
0.01115617264
0.01094007845
0.01097489773
0.01102388782
0.01108282341
0.01114680907
0.01121039523
0.01126771001
0.01131254873
0.01133840067
0.01113250882
0.01116559311
0.01121214152
0.01126813858
0.01132893201
0.01138934339
0.01144379388
0.01148638968
0.01151094748
0.01131485581
0.01134627099
0.01139046993
0.01144363859
0.01150135833
0.01155871163
0.01161040198
0.01165083554
0.01167414521
0.01148746881
0.01151728001
0.01155922069
0.01160967001
0.01166443371
0.01171884499
0.01176787907
0.01180623104
0.01182833873
0.01165070885
0.0116789801
0.01171875229
0.0117665898
0.0118185136
0.01187009772
0.01191657853
0.0119529291
0.01197388081
0.01180494358
0.01183173759
0.0118694293
0.01191476054
0.01196395867
0.01201282879
0.01205685806
0.01209128661
0.01211112799
0.011950543
0.01197592101
0.01201161826
0.01205454656
0.01210113102
0.0121473983
0.01218907612
0.01222166091
0.01224043705
0.01208787604
0.01211189771
0.01214568442
0.01218631066
0.01223039097
0.01227416426
0.01231358884
0.01234440678
0.01236216208
0.0122173077
0.01224003109
0.01227198894
0.01231041145
0.01235209447
0.01239348015
0.01243074756
0.01245987401
0.01247665202
0.01233919687
0.01236067836
0.01239088674
0.01242720118
0.01246659096
0.01250569274
0.01254089679
0.01256840541
0.01258424874
0.01245389445
0.01247418873
0.01250272472
0.012537024
0.01257422175
0.01261114056
0.01264437264
0.01267033523
0.01268528545
0.01256174204
0.01258090212
0.01260784043
0.01264021471
0.01267531868
0.01271015259
0.0127415015
0.01276598789
0.01278008545
0.01266307091
0.01268114809
0.0127065611
0.01273709772
0.01277020313
0.01280304723
0.01283259915
0.01285567712
0.01286896131
0.01275820124
0.01277524515
0.01279920286
0.01282798634
0.01285918535
0.0128901317
0.01291797007
0.01293970528
0.01295221415
0.01284744165
0.01286350022
0.01288607024
0.01291318224
0.01294256393
0.01297170153
0.01299790702
0.01301836292
0.01303013327
0.01293108883
0.0129462083
0.01296745589
0.01299297523
0.01302062556
0.01304804027
0.01307269073
0.01309192859
0.01310299592
0.01300942743
0.01302365237
0.01304364043
0.01306764304
0.01309364486
0.01311941946
0.01314258989
0.01316066872
0.01317106722
0.01308273
0.01309610333
0.01311489239
0.01313745139
0.01316188442
0.01318609853
0.01320786111
0.01322483766
0.01323460023
0.01315125711
0.01316382008
0.01318146834
0.01320265401
0.01322559489
0.01324832504
0.01326874909
0.01328467786
0.01329383606
0.01321525747
0.01322704971
0.01324361308
0.01326349289
0.01328501518
0.0133063348
0.01332548682
0.01334042009
0.01334900419
0.01327496822
0.01328602774
0.01330155984
0.01332019849
0.01334037271
0.01336035218
0.01337829589
0.01339228371
0.01340032268
0.01333061516
0.0133409784
0.01335553058
0.01337299007
0.01339188376
0.01341059044
0.0134273868
0.01344047704
0.01344799859
0.01338241312
0.01339211494
0.01340573638
0.01342207601
0.01343975376
0.01345725207
0.01347295933
0.01348519774
0.01349222832
0.01343056628
0.01343964003
0.01345237774
0.01346765419
0.0134841777
0.01350052916
0.01351520296
0.01352663317
0.01353319802
0.01347526857
0.0134837461
0.01349564496
0.01350991236
0.01352534055
0.01354060385
0.01355429723
0.01356496086
0.01357108401
0.01351670404
0.01352461575
0.01353571861
0.01354902858
0.01356341762
0.0135776487
0.01359041222
0.01360034889
0.01360605324
0.01355504727
0.01356242216
0.01357276983
0.01358517158
0.01359857498
0.01361182714
0.0136237089
0.01363295633
0.01363826365
0.01359046377
0.01359732944
0.01360696083
0.0136185012
0.01363096991
0.01364329385
0.01365433962
0.01366293367
0.01366786466
0.01362311036
0.0136294931
0.01363844522
0.0136491688
0.01366075127
0.01367219519
0.01368244849
0.01369042322
0.01369499754
0.01365313558
0.0136590604
0.01366736845
0.01367731761
0.01368805991
0.01369866963
0.01370817178
0.01371555954
0.01371979585
0.01368068008
0.01368617073
0.01369386818
0.0137030832
0.01371302906
0.01372284808
0.01373163831
0.01373846981
0.01374238582
0.01370587697
0.01371095604
0.01371807465
0.01372659377
0.01373578474
0.01374485435
0.01375296988
0.01375927424
0.01376288673
0.01372885222
0.01373354114
0.01374011109
0.0137479706
0.01375644609
0.01376480545
0.01377228158
0.01377808641
0.0137814113
0.01374972501
0.01375404413
0.01376009402
0.01376732836
0.01377512574
0.01378281198
0.01378968219
0.01379501364
0.013798066
0.01376860806
0.01377257667
0.01377813365
0.01378477546
0.01379193016
0.01379897849
0.01380527447
0.01381015734
0.01381295146
0.01378560799
0.01378924437
0.01379433417
0.01380041439
0.01380696
0.01381340376
0.01381915554
0.01382361331
0.01382616271
0.0138008256
0.01380414708
0.01380879408
0.01381434204
0.01382031036
0.01382618115
0.01383141718
0.01383547207
0.01383778955
0.0138143562
0.01381737922
0.01382160652
0.01382664998
0.01383207114
0.01383739886
0.01384214608
0.01384581914
0.01384791681
0.01382628993
0.01382903004
0.01383285951
0.01383742478
0.01384232731
0.01384714028
0.01385142417
0.01385473532
0.01385662465
0.01383671198
0.0138391839
0.01384263627
0.01384674824
0.01385115915
0.01385548419
0.01385932888
0.01386229696
0.01386398881
0.0138457029
0.01384792059
0.01385101546
0.01385469771
0.01385864257
0.01386250503
0.01386593338
0.01386857622
0.01387008085
0.01385333885
0.0138553155
0.01385807144
0.01386134629
0.01386484928
0.0138682732
0.0138713068
0.01387364129
0.01387496841
0.01385969182
0.01386143994
0.01386387452
0.01386676308
0.01386984712
0.01387285521
0.01387551451
0.01387755662
0.01387871543
0.01386482988
0.0138663613
0.01386849115
0.01387101341
0.01387370018
0.01387631394
0.0138786183
0.01388038314
0.01388138233
0.0138688174
0.01387014331
0.01387198418
0.01387415907
0.01387646906
0.01387870886
0.01388067659
0.01388217847
0.01388302627
0.01387171525
0.01387284626
0.01387441304
0.01387625845
0.0138782111
0.01388009619
0.01388174463
0.01388299707
0.01388370127
0.01387358099
0.01387452712
0.01387583393
0.01387736682
0.01387898049
0.01388052911
0.01388187465
0.01388289047
0.01388345844
0.01387446908
0.01387523982
0.0138763
0.01387753642
0.01387882851
0.01388005792
0.0138811161
0.01388190742
0.01388234614
0.01387443101
0.01387503537
0.01387586157
0.01387681669
0.01387780367
0.01387873021
0.01387951574
0.01388009404
0.01388041012
0.01387351554
0.01387396203
0.01387456621
0.01387525443
0.0138759519
0.01387659105
0.01387711784
0.01387749401
0.0138776937
0.0138717688
0.01387206548
0.01387245898
0.01387289393
0.01387331666
0.01387368307
0.01387396433
0.01387414866
0.0138742379
0.01386923447
0.01386938898
0.01386958254
0.01386977713
0.01386993912
0.01387004669
0.01387009492
0.01387009717
0.01387008158
0.01386595392
0.0138659735
0.01386597731
0.01386594377
0.0138658583
0.0138657202
0.01386554725
0.01386537669
0.0138652616
0.01386196635
0.01386185787
0.01386168158
0.01386143152
0.01386111119
0.01386073992
0.01386035703
0.01386002245
0.01385981291
0.01385730895
0.01385707893
0.01385673171
0.01385627615
0.01385573289
0.01385514032
0.01385455819
0.01385406793
0.01385376875
0.013852017
0.01385167163
0.01385116218
0.0138505116
0.01384975678
0.01384895418
0.01384818296
0.01384754496
0.01384716072
0.01384612405
0.01384566921
0.01384500583
0.01384417017
0.0138432146
0.01384221273
0.0138412621
0.01384048392
0.01384001898
0.01383966203
0.01383910334
0.0138382939
0.01383728268
0.01383613667
0.01383494576
0.01383382495
0.01383291383
0.01383237234
0.01383266142
0.01383200423
0.01383105629
0.01382987857
0.01382855199
0.01382718184
0.0138258997
0.01382486255
0.01382424851
0.01382515141
0.01382440086
0.01382332164
0.01382198613
0.01382048843
0.01381894847
0.01381751351
0.01381635699
0.01381567424
0.01381716009
0.01381632111
0.01381511757
0.01381363266
0.01381197299
0.01381027231
0.01380869274
0.01380742331
0.01380667558
0.01380871464
0.01380779203
0.01380647092
0.01380484476
0.01380303197
0.01380117944
0.01379946328
0.01379808724
0.01379727816
0.01379984165
0.01379884007
0.01379740799
0.01379564855
0.01379369136
0.01379169567
0.01378985082
0.01378837437
0.01378750756
0.0137905674
0.01378949147
0.01378795494
0.01378607011
0.01378397715
0.01378184697
0.01377988131
0.01377831068
0.01377738975
0.01378091825
0.01377977259
0.01377813815
0.01377613588
0.01377391587
0.01377165997
0.01376958149
0.01376792302
0.01376695165
0.01377092118
0.0137697105
0.01376798484
0.01376587326
0.01376353517
0.01376116259
0.0137589796
0.01375723986
0.01375622191
0.01376060441
0.01375933362
0.01375752372
0.01375531137
0.01375286462
0.01375038492
0.0137481062
0.01374629223
0.01374523182
0.01374999822
0.01374867255
0.01374678589
0.01374448192
0.01374193668
0.01373936023
0.01373699538
0.01373511485
0.01373401649
0.01373913597
0.01373776116
0.01373580594
0.01373342045
0.013730788
0.01372812633
0.01372568607
0.01372374763
0.01372261642
0.01372805537
0.01372663788
0.01372462337
0.01372216781
0.01371946096
0.01371672726
0.0137142239
0.01371223748
0.01371107931
0.01371680012
0.01371534739
0.01371328429
0.01371077193
0.01370800561
0.0137052153
0.01370266328
0.0137006406
0.01369946245
0.01370542181
0.0137039426
0.01370184356
0.01369929011
0.01369648207
0.01369365352
0.01369107012
0.01368902525
0.01368783548
0.01369398234
0.01369248716
0.01369036735
0.01368779173
0.01368496334
0.01368211879
0.01367952497
0.013677475
0.01367628381
0.01368255671
0.0136810583
0.01367893615
0.01367636135
0.01367353871
0.01367070531
0.01366812673
0.0136660926
0.01366491251
0.01367123632
0.01366975024
0.0136676483
0.01366510252
0.0136623176
0.01365952872
0.01365699691
0.01365500444
0.01365385088
0.01366013276
0.01365867813
0.01365662407
0.01365414189
0.01365143402
0.01364873066
0.01364628446
0.01364436541
0.01364325739
0.01364938208
0.01364798229
0.01364601004
0.01364363393
0.01364105133
0.01363848386
0.01363617094
0.01363436434
0.01363332524
0.01363914938
0.01363783305
0.01363598408
0.01363376589
0.01363136752
0.01362899745
0.01362687605
0.01362522959
0.01362428796
0.01362963375
0.01362843565
0.01362676032
0.01362476304
0.01362262043
0.0136205224
0.01361866317
0.01361723467
0.01361642512
0.01362107324
0.01362003528
0.01361859431
0.01361689378
0.01361509303
0.01361335681
0.01361184462
0.01361070353
0.01361006763
0.01361374972
0.01361292195
0.01361178777
0.01361047445
0.01360911812
0.0136078505
0.01360678627
0.01360601507
0.01360560219
0.01360799315
0.01360743471
0.0136066928
0.0136058733
0.01360508211
0.01360440867
0.01360391089
0.01360360634
0.01360347434
0.01360418507
0.0136039649
0.01360371485
0.01360351322
0.01360342745
0.01360349381
0.01360369971
0.01360397371
0.01360418943
0.01360276048
0.0136029579
0.01360331414
0.01360387264
0.01360465285
0.01360562542
0.01360669146
0.0136076714
0.01360831088
0.01360420796
0.01360491278
0.0136060047
0.01360748392
0.01360931093
0.01361137665
0.01361347821
0.01361530661
0.01361645476
0.01360906702
0.01361037922
0.01361235061
0.01361492858
0.01361800232
0.01362136731
0.01362469721
0.01362753034
0.0136292801
0.01361792237
0.01361995111
0.01362295861
0.01362682876
0.01363136579
0.01363625248
0.01364101811
0.01364502349
0.01364747425
0.01363139431
0.01363425618
0.01363846665
0.01364383437
0.01365006367
0.01365670628
0.013663125
0.01366847754
0.01367173272
0.01365012493
0.01365394124
0.01365952785
0.01366660533
0.01367476233
0.01368340032
0.01369169315
0.01369856972
0.01370273342
0.01367475959
0.0136796528
0.01368678959
0.01369578901
0.01370610757
0.01371697709
0.01372736031
0.01373593272
0.01374110546
0.0137059238
0.01371201282
0.01372086793
0.01373199277
0.01374469519
0.01375801842
0.01377069333
0.0137811198
0.01378739325
0.01374419566
0.01375159023
0.01376231767
0.01377575236
0.01379103748
0.01380701017
0.01382215114
0.01383456641
0.01384201743
0.01379007448
0.01379886871
0.01381159896
0.01382749715
0.01384552705
0.01386430457
0.01388204587
0.01389655035
0.01390523447
0.01384394694
0.01385421221
0.01386904205
0.01388751397
0.01390839975
0.0139300824
0.01395050446
0.01396715309
0.01397709783
0.01390605218
0.01391782985
0.01393481195
0.01395591159
0.01397969913
0.01400431774
0.01402743376
0.01404622538
0.01405742399
0.01397644824
0.01398974263
0.01400887555
0.01403258866
0.01405924553
0.01408674833
0.01411249258
0.01413336067
0.01414576683
0.01405498228
0.01406975451
0.01409097415
0.01411720807
0.01414661274
0.01417685506
0.01420507391
0.01422788
0.01424140418
0.01414126761
0.0141574309
0.01418060421
0.01420918075
0.01424111557
0.01427385367
0.01430430087
0.01432883154
0.01434333966
0.0142346702
0.01425208742
0.01427700935
0.01430766194
0.01434181111
0.01437670139
0.01440903872
0.01443500714
0.01445032208
0.01433430752
0.01435279148
0.01437918602
0.01441156201
0.01444751553
0.01448412024
0.01451792431
0.01454497698
0.01456088317
0.01443906163
0.01445837855
0.01448590442
0.01451957319
0.01455683744
0.01459463721
0.01462941278
0.01465714156
0.01467339288
0.01454760744
0.01456748381
0.01459574492
0.01463021199
0.01466822692
0.01470664
0.01474183945
0.01476979845
0.01478612881
0.01465845601
0.01467858863
0.01470714917
0.01474187563
0.01478003779
0.01481844502
0.01485349279
0.01488121903
0.01489735514
0.01477001092
0.0147900797
0.01481848281
0.01485290917
0.0148905991
0.01492837286
0.01496269316
0.01498972944
0.01500540462
0.01488063444
0.01490031698
0.01492810598
0.01496167844
0.01499829044
0.01503482534
0.01506787081
0.01509378884
0.01510875664
0.01498871888
0.01500770588
0.01503444609
0.01506664345
0.0151016151
0.01513635777
0.01516763655
0.01519205814
0.0152061046
0.01509275774
0.01511076777
0.01513606743
0.01516642594
0.01519926497
0.01523174028
0.01526083901
0.01528345355
0.01529640686
0.01519141095
0.01520820344
0.01523173158
0.01525986594
0.01529017197
0.01532000341
0.01534660425
0.01536718061
0.01537891729
0.01528355881
0.01529894415
0.01532044415
0.01534606269
0.01537354214
0.01540046459
0.01542435492
0.01544274789
0.01545319564
0.01536834083
0.01538218676
0.01540148442
0.01542439724
0.01544887034
0.01547273512