/*--------------------------------*- C++ -*----------------------------------*\
| =========                 |                                                 |
| \\      /  F ield         | OpenFOAM: The Open Source CFD Toolbox           |
|  \\    /   O peration     | Version:  2212                                  |
|   \\  /    A nd           | Website:  www.openfoam.com                      |
|    \\/     M anipulation  |                                                 |
\*---------------------------------------------------------------------------*/
FoamFile
{
    version     2.0;
    format      ascii;
    arch        "LSB;label=32;scalar=64";
    class       volScalarField;
    location    "20.00000000";
    object      C4H6_0;
}
// * * * * * * * * * * * * * * * * * * * * * * * * * * * * * * * * * * * * * //

dimensions      [0 0 0 0 0 0 0];

internalField   nonuniform List<scalar> 
3000
(
1.344500413e-22
1.510082922e-22
1.759827132e-22
2.092400141e-22
2.504231832e-22
2.983971665e-22
3.502666818e-22
3.997338625e-22
4.346985668e-22
5.047725724e-22
5.692154956e-22
6.663665523e-22
7.960135727e-22
9.579413877e-22
1.151178974e-21
1.372333307e-21
1.61038814e-21
1.821220142e-21
1.13067339e-21
1.285039902e-21
1.519970981e-21
1.838689101e-21
2.24666563e-21
2.749537072e-21
3.345051868e-21
3.999877784e-21
4.559086006e-21
2.153599963e-21
2.47329499e-21
2.967017112e-21
3.651132806e-21
4.549337597e-21
5.683717826e-21
7.047146663e-21
8.529974242e-21
9.724941443e-21
3.824244443e-21
4.446025441e-21
5.421579886e-21
6.800086974e-21
8.645761977e-21
1.100941662e-20
1.384996774e-20
1.68619169e-20
1.916790643e-20
6.575866491e-21
7.743240962e-21
9.60145956e-21
1.226909518e-20
1.588866455e-20
2.055224373e-20
2.612286982e-20
3.190262506e-20
3.618822809e-20
1.116271736e-20
1.330724407e-20
1.676087376e-20
2.177522222e-20
2.863007474e-20
3.746299072e-20
4.791034441e-20
5.852915482e-20
6.619359246e-20
1.888917428e-20
2.276978959e-20
2.907477928e-20
3.829951535e-20
5.095868215e-20
6.7235003e-20
8.631201176e-20
1.054124735e-19
1.18963634e-19
3.201602556e-20
3.8963579e-20
5.032420372e-20
6.702914398e-20
8.999266348e-20
1.194349527e-19
1.536921328e-19
1.876326672e-19
2.11446994e-19
5.445954887e-20
6.680038551e-20
8.707191117e-20
1.169749167e-19
1.581048571e-19
2.106989403e-19
2.715544478e-19
3.314067727e-19
3.73092517e-19
9.301086305e-20
1.148052569e-19
1.507183339e-19
2.03799841e-19
2.768101255e-19
3.699586928e-19
4.772950011e-19
5.823274574e-19
6.551220043e-19
1.594531825e-19
1.97780981e-19
2.610748006e-19
3.547404505e-19
4.83536536e-19
6.4755314e-19
8.359787608e-19
1.019718298e-18
1.146658419e-18
2.74245647e-19
3.414492786e-19
4.52594376e-19
6.171950073e-19
8.434442404e-19
1.131124627e-18
1.460865145e-18
1.781641987e-18
2.002894764e-18
4.729192676e-19
5.905135356e-19
7.852092149e-19
1.073692578e-18
1.47009196e-18
1.973519835e-18
2.549500504e-18
3.10873886e-18
3.49472447e-18
8.17157751e-19
1.022627444e-18
1.363116799e-18
1.867896743e-18
2.561516744e-18
3.44189127e-18
4.447642813e-18
5.421200392e-18
6.096710604e-18
1.413956015e-18
1.772504477e-18
2.367108183e-18
3.249150141e-18
4.461709675e-18
6.001451941e-18
7.762361268e-18
9.47124494e-18
1.063904798e-17
2.448788412e-18
3.073576966e-18
4.110144588e-18
5.648107914e-18
7.76206182e-18
1.044479139e-17
1.350886275e-17
1.647527046e-17
1.85079969e-17
4.243313707e-18
5.330726888e-18
7.13522754e-18
9.812616615e-18
1.349172543e-17
1.815811415e-17
2.348377859e-17
2.863578226e-17
3.21663991e-17
7.35564172e-18
9.246631512e-18
1.238509414e-17
1.704173825e-17
2.343948032e-17
3.155132425e-17
4.080546218e-17
4.975441912e-17
5.588537436e-17
1.275443396e-17
1.604106731e-17
2.149653506e-17
2.959120256e-17
4.071137997e-17
5.480810908e-17
7.088577772e-17
8.642896154e-17
9.707487306e-17
2.212118825e-17
2.783165138e-17
3.731137496e-17
5.137757101e-17
7.070015832e-17
9.519148829e-17
1.231190732e-16
1.501122526e-16
1.685967382e-16
3.837517332e-17
4.829502183e-17
6.476384925e-17
8.9201198e-17
1.227689958e-16
1.65311258e-16
2.138144296e-16
2.60685894e-16
2.927779076e-16
6.658517656e-17
8.381524565e-17
1.124218764e-16
1.548702507e-16
2.131754829e-16
2.870607485e-16
3.712855126e-16
4.526628814e-16
5.083747074e-16
1.155532215e-16
1.454786134e-16
1.951641341e-16
2.688895779e-16
3.701489397e-16
4.984514674e-16
6.446856793e-16
7.859551594e-16
8.826587814e-16
2.005655861e-16
2.525386664e-16
3.38829681e-16
4.668659505e-16
6.427030612e-16
8.654707932e-16
1.119331413e-15
1.364534141e-15
1.532368215e-15
3.481703762e-16
4.38433189e-16
5.882904551e-16
8.106254894e-16
1.115925475e-15
1.502641024e-15
1.943243585e-15
2.368736099e-15
2.659934141e-15
6.044738089e-16
7.612320666e-16
1.021465359e-15
1.407506381e-15
1.937496904e-15
2.608656882e-15
3.373127308e-15
4.11117679e-15
4.616166268e-15
1.049542343e-15
1.321773621e-15
1.773640684e-15
2.443820543e-15
3.363644763e-15
4.528074726e-15
5.853881221e-15
7.133369071e-15
8.008528701e-15
1.822379822e-15
2.295111652e-15
3.079621259e-15
4.242807017e-15
5.83865299e-15
7.85790623e-15
1.015576237e-14
1.23721181e-14
1.388734365e-14
3.164197777e-15
3.984980317e-15
5.346690795e-15
7.364843194e-15
1.01321537e-14
1.363134922e-14
1.761033747e-14
2.144520866e-14
2.406507988e-14
5.493253465e-15
6.917956133e-15
9.280644659e-15
1.278031543e-14
1.757550963e-14
2.363338389e-14
3.051473196e-14
3.713964496e-14
4.166102562e-14
9.533997038e-15
1.200584985e-14
1.610288866e-14
2.216685865e-14
3.046726831e-14
4.094047926e-14
5.282064342e-14
6.424114724e-14
7.202453291e-14
1.653930313e-14
2.082488219e-14
2.792305546e-14
3.841829867e-14
5.276519707e-14
7.083826468e-14
9.130100183e-14
1.109330943e-13
1.2428765e-13
2.867151543e-14
3.609371339e-14
4.837561404e-14
6.651145081e-14
9.126018134e-14
1.223707813e-13
1.575094717e-13
1.911347846e-13
2.139514165e-13
4.965298431e-14
6.248798688e-14
8.370140321e-14
1.149727867e-13
1.575525258e-13
2.109334954e-13
2.710398144e-13
3.283684525e-13
3.671460283e-13
8.587105741e-14
1.080202448e-13
1.445727062e-13
1.983407839e-13
2.713493447e-13
3.625692539e-13
4.648863638e-13
5.620767989e-13
6.275591869e-13
1.482439971e-13
1.863618882e-13
2.491488721e-13
3.412623186e-13
4.65908972e-13
6.210026163e-13
7.941475138e-13
9.578036013e-13
1.067545616e-12
2.553508724e-13
3.207202515e-13
4.281462281e-13
5.852367528e-13
7.969245692e-13
1.059007832e-12
1.349958167e-12
1.623357584e-12
1.805672959e-12
4.386425928e-13
5.50256439e-13
7.331653711e-13
9.995904757e-13
1.356830983e-12
1.796519401e-12
2.281456862e-12
2.734078051e-12
3.034000336e-12
7.510464465e-13
9.406075903e-13
1.250217015e-12
1.699109961e-12
2.297523185e-12
3.029051124e-12
3.829880767e-12
4.571705187e-12
5.059824213e-12
1.281045557e-12
1.600958974e-12
2.121428589e-12
2.871991682e-12
3.865903056e-12
5.071604758e-12
6.380657299e-12
7.583256248e-12
8.368595961e-12
2.175489384e-12
2.71143257e-12
3.579437199e-12
4.823524376e-12
6.458668882e-12
8.425474742e-12
1.054178875e-11
1.246889922e-11
1.371740421e-11
3.676153252e-12
4.566502382e-12
6.001163875e-12
8.04338869e-12
1.070552138e-11
1.387839946e-11
1.726013686e-11
2.031134997e-11
2.227208782e-11
6.177655656e-12
7.642952706e-12
9.990759059e-12
1.330788676e-11
1.759374479e-11
2.265266525e-11
2.799173449e-11
3.276415161e-11
3.580607116e-11
1.031807321e-11
1.270487317e-11
1.650582309e-11
2.183313107e-11
2.865229805e-11
3.662144896e-11
4.494843689e-11
5.232281315e-11
5.698589524e-11
1.711885593e-11
2.096372885e-11
2.704695133e-11
3.550168035e-11
4.622062824e-11
5.862145772e-11
7.145169553e-11
8.271184201e-11
8.977782967e-11
2.819792773e-11
3.431916293e-11
4.393878319e-11
5.7193929e-11
7.383709347e-11
9.29005587e-11
1.124358165e-10
1.29433068e-10
1.400227805e-10
4.60897781e-11
5.571655187e-11
7.074179316e-11
9.126757776e-11
1.167950907e-10
1.457536046e-10
1.751588393e-10
2.005374633e-10
2.162441333e-10
7.471973189e-11
8.967134193e-11
1.12849066e-10
1.442448695e-10
1.829329676e-10
2.264193883e-10
2.702005627e-10
3.07705417e-10
3.307767461e-10
1.200975747e-10
1.43029113e-10
1.783426404e-10
2.257894881e-10
2.837481968e-10
3.483383678e-10
4.128561489e-10
4.677511179e-10
5.01337084e-10
1.913199702e-10
2.260559297e-10
2.792116137e-10
3.500851425e-10
4.359592878e-10
5.309068258e-10
6.250726669e-10
7.04708108e-10
7.531971838e-10
3.02004072e-10
3.539884544e-10
4.330718093e-10
5.377687137e-10
6.636834032e-10
8.019114768e-10
9.381280394e-10
1.05270835e-09
1.122182675e-09
4.723198602e-10
5.492213412e-10
6.655784163e-10
8.186263398e-10
1.001457328e-09
1.200892849e-09
1.396321349e-09
1.559940784e-09
1.658792142e-09
7.31850681e-10
8.443767646e-10
1.01379536e-09
1.235337273e-09
1.498409586e-09
1.783769924e-09
2.062034156e-09
2.294074158e-09
2.433837758e-09
1.123531852e-09
1.286507033e-09
1.530795764e-09
1.848592835e-09
2.223986433e-09
2.629205672e-09
3.022688382e-09
3.349690322e-09
3.546152318e-09
1.709129927e-09
1.942950459e-09
2.292068836e-09
2.744188772e-09
3.2758155e-09
3.847272571e-09
4.400181842e-09
4.858352935e-09
5.133041526e-09
2.576834618e-09
2.909413275e-09
3.404311227e-09
4.042712261e-09
4.790423684e-09
5.591257293e-09
6.363721678e-09
7.002277885e-09
7.384450591e-09
3.851667354e-09
4.321031096e-09
5.017442208e-09
5.91275995e-09
6.957831696e-09
8.073698545e-09
9.14723264e-09
1.003287086e-08
1.056218255e-08
5.709722628e-09
6.367479126e-09
7.340981413e-09
8.588912991e-09
1.004135786e-08
1.158811716e-08
1.30729378e-08
1.429585324e-08
1.50259622e-08
8.397571728e-09
9.313527689e-09
1.066628415e-08
1.239609183e-08
1.440441231e-08
1.653840641e-08
1.858326264e-08
2.026524571e-08
2.126865381e-08
1.225857205e-08
1.352687653e-08
1.539660704e-08
1.778245797e-08
2.054669736e-08
2.347855832e-08
2.628393059e-08
2.858920203e-08
2.996372012e-08
1.776836813e-08
1.951569874e-08
2.208766553e-08
2.536383308e-08
2.915311139e-08
3.316628265e-08
3.700202884e-08
4.015171526e-08
4.202911725e-08
2.558271204e-08
2.797925772e-08
3.150237346e-08
3.598366499e-08
4.115967146e-08
4.66351451e-08
5.186407689e-08
5.615559802e-08
5.871323757e-08
3.660199373e-08
3.987621075e-08
4.468462799e-08
5.079366999e-08
5.78419886e-08
6.529134215e-08
7.240080643e-08
7.823391848e-08
8.171037196e-08
5.205802605e-08
5.651628552e-08
6.305810782e-08
7.136165543e-08
8.09335629e-08
9.10431917e-08
1.00687489e-07
1.085993718e-07
1.133155826e-07
7.36296247e-08
7.968226416e-08
8.855769322e-08
9.981501363e-08
1.127833629e-07
1.264738078e-07
1.39531282e-07
1.50243949e-07
1.566319186e-07
1.035953868e-07
1.117912804e-07
1.238033474e-07
1.390307362e-07
1.565646813e-07
1.750702311e-07
1.927201919e-07
2.072046741e-07
2.158465034e-07
1.450343834e-07
1.56106765e-07
1.72328681e-07
1.928852982e-07
2.165500193e-07
2.41525364e-07
2.653516301e-07
2.849148299e-07
2.965958436e-07
2.020876871e-07
2.170145884e-07
2.388787188e-07
2.665802581e-07
2.984694461e-07
3.321319285e-07
3.642615783e-07
3.906632559e-07
4.06443949e-07
2.802955605e-07
3.003789112e-07
3.29793395e-07
3.670613907e-07
4.099717585e-07
4.552893968e-07
4.98576887e-07
5.341855799e-07
5.554979692e-07
3.870264991e-07
4.139944392e-07
4.534941791e-07
5.0354959e-07
5.612075441e-07
6.221437746e-07
6.804111779e-07
7.284081872e-07
7.571821955e-07
5.320141001e-07
5.681510479e-07
6.210896746e-07
6.881990187e-07
7.65548881e-07
8.473737641e-07
9.25716214e-07
9.903549188e-07
1.029179265e-06
7.28014433e-07
7.763224024e-07
8.471100284e-07
9.368896247e-07
1.04044898e-06
1.150121577e-06
1.255281325e-06
1.342203814e-06
1.394521914e-06
9.915880272e-07
1.055979846e-06
1.150366831e-06
1.270144115e-06
1.408422943e-06
1.55503921e-06
1.695840138e-06
1.812442072e-06
1.882777022e-06
1.343993901e-06
1.42951347e-06
1.554911709e-06
1.714130268e-06
1.898095574e-06
2.093377492e-06
2.281192299e-06
2.437010195e-06
2.53119939e-06
1.812154944e-06
1.925210723e-06
2.091030105e-06
2.301666981e-06
2.54521044e-06
2.803986242e-06
3.053182985e-06
3.260250826e-06
3.385656417e-06
2.429613683e-06
2.578199193e-06
2.796158121e-06
3.073096051e-06
3.39343541e-06
3.734028769e-06
4.062305322e-06
4.335401835e-06
4.501045097e-06
3.237344949e-06
3.431204808e-06
3.715553307e-06
4.076827689e-06
4.494735675e-06
4.939142625e-06
5.367631329e-06
5.724313204e-06
5.940866485e-06
4.284237846e-06
4.534927198e-06
4.902498325e-06
5.369302185e-06
5.909032517e-06
6.482747686e-06
7.035751828e-06
7.496056989e-06
7.775622289e-06
5.627008542e-06
5.94777317e-06
6.417763222e-06
7.014093274e-06
7.702867499e-06
8.434217733e-06
9.138450046e-06
9.724169026e-06
1.007978469e-05
7.329266233e-06
7.734682392e-06
8.328070956e-06
9.079904946e-06
9.946846148e-06
1.086572696e-05
1.17489672e-05
1.248242903e-05
1.292728051e-05
9.459495572e-06
9.96481974e-06
1.070336632e-05
1.163730844e-05
1.271177216e-05
1.384776334e-05
1.493694244e-05
1.583934632e-05
1.638571337e-05
1.208779484e-05
1.270801075e-05
1.361282312e-05
1.475423508e-05
1.606359131e-05
1.744354915e-05
1.876239496e-05
1.98518338e-05
2.050988127e-05
1.528136805e-05
1.602997141e-05
1.711972134e-05
1.849046289e-05
2.005751072e-05
2.170287597e-05
2.326939984e-05
2.455885361e-05
2.533546863e-05
1.909898558e-05
1.998660815e-05
2.127555835e-05
2.289156927e-05
2.47318843e-05
2.665606354e-05
2.848028107e-05
2.997597848e-05
3.087404143e-05
2.358487407e-05
2.461790449e-05
2.611398391e-05
2.798301604e-05
3.010259109e-05
3.230879149e-05
3.439103203e-05
3.609143168e-05
3.710939625e-05
2.876272613e-05
2.994212001e-05
3.164532309e-05
3.376515241e-05
3.615866671e-05
3.863845129e-05
4.096839503e-05
4.286384017e-05
4.399435137e-05
3.463067823e-05
3.595115277e-05
3.785252933e-05
4.020994518e-05
4.285991861e-05
4.559254279e-05
4.814868523e-05
5.02177408e-05
5.144626074e-05
4.115812684e-05
4.260788361e-05
4.46892986e-05
4.726005275e-05
5.01370848e-05
5.308938382e-05
5.583513887e-05
5.804571106e-05
5.935219662e-05
4.828506956e-05
4.984604792e-05
5.208062857e-05
5.483002334e-05
5.789138793e-05
6.101460957e-05
6.390234731e-05
6.621452932e-05
6.757470574e-05
5.592411949e-05
5.757256338e-05
5.992435689e-05
6.28044358e-05
6.59942728e-05
6.922977932e-05
7.220396077e-05
7.457242826e-05
7.595926283e-05
6.39581028e-05
6.566286701e-05
6.808668789e-05
7.104147077e-05
7.429675743e-05
7.757984189e-05
8.058046917e-05
8.295718659e-05
8.434247631e-05
7.224081373e-05
7.396745112e-05
7.641410279e-05
7.938344705e-05
8.263776857e-05
8.590146937e-05
8.886753237e-05
9.120443613e-05
9.25603485e-05
8.061021544e-05
8.232311861e-05
8.474227818e-05
8.766541896e-05
9.085268026e-05
9.403140784e-05
9.690408579e-05
9.915552447e-05
0.0001004559678
8.889765207e-05
9.056201739e-05
9.290493663e-05
9.572368884e-05
9.878147089e-05
0.0001018142109
0.0001045396251
0.0001066644012
0.000107886141
9.693671356e-05
9.852026264e-05
0.0001007421207
0.0001034036028
0.0001062759612
0.0001091088711
0.0001116402444
0.0001136031606
0.0001147266354
0.000104571252
0.0001060456269
0.0001081074068
0.0001105661581
0.0001132057312
0.0001157940206
0.0001180931681
0.0001198660377
0.0001208758617
0.0001116621018
0.0001130038737
0.0001148736864
0.0001170931042
0.0001194624717
0.0001217715315
0.0001238096755
0.0001253718084
0.0001262569743
0.0001180921845
0.0001192834539
0.0001209372867
0.0001228903756
0.0001249626794
0.0001269684938
0.0001287264507
0.0001300646676
0.00013081849
0.0001237698413
0.0001247984443
0.0001262203651
0.0001278898478
0.0001296487451
0.0001313376722
0.0001328055035
0.0001339137532
0.0001345335942
0.0001286303956
0.0001294897624
0.0001306716499
0.0001320495348
0.0001334885968
0.0001348566348
0.0001360328707
0.0001369115459
0.0001373983848
0.000132636091
0.0001333248232
0.0001342657202
0.0001353524426
0.0001364741277
0.0001375258048
0.0001384163703
0.0001390714197
0.0001394293195
0.0001357746428
0.000136295885
0.0001370010798
0.0001378043492
0.0001386186975
0.0001393657242
0.0001399826874
0.000140424615
0.0001406601378
0.0001380567103
0.0001384173944
0.0001388973424
0.0001394308236
0.0001399540037
0.000140413814
0.0001407740643
0.000141016896
0.0001411385094
0.000139512627
0.0001397226616
0.0001399918433
0.0001402737832
0.0001405266076
0.0001407208955
0.0001408448421
0.0001409051239
0.0001409226332
0.0001401887117
0.0001402601762
0.0001403359726
0.0001403878652
0.000140394366
0.0001403477023
0.0001402580601
0.0001401539353
0.000140077967
0.0001401434504
0.0001400898405
0.0001399914882
0.0001398368452
0.0001396229784
0.0001393615669
0.0001390822772
0.0001388326751
0.0001386742255
0.0001394437898
0.0001392793459
0.0001390270137
0.000138690288
0.0001382828085
0.0001378334171
0.0001373887299
0.0001370126819
0.0001367827407
0.0001381617241
0.0001379008622
0.0001375148724
0.000137020557
0.0001364460871
0.0001358351705
0.0001352488988
0.0001347649879
0.0001344742371
0.0001363712979
0.0001360281501
0.0001355283535
0.0001349002644
0.0001341845571
0.0001334375721
0.0001327325156
0.0001321584552
0.000131817041
0.0001341460954
0.0001337341576
0.0001331394583
0.0001324001932
0.0001315675846
0.0001307084852
0.000129906011
0.0001292583427
0.0001288757128
0.0001315572354
0.0001310891158
0.0001304171334
0.0001295876923
0.0001286607219
0.0001277116167
0.0001268313798
0.0001261252749
0.0001257100748
0.0001286718614
0.0001281591158
0.0001274259685
0.0001265255144
0.0001255246919
0.0001245056392
0.0001235654216
0.0001228145717
0.0001223745883
0.0001255520844
0.0001250051261
0.0001242253147
0.0001232710508
0.0001222147434
0.0001211436604
0.0001201593069
0.0001193758855
0.0001189180308
0.0001222543242
0.0001216823931
0.0001208687661
0.0001198759064
0.000118780322
0.0001176729832
0.0001166584127
0.0001158530927
0.0001153834175
0.0001188289846
0.0001182401627
0.0001174039429
0.0001163857536
0.0001152649965
0.0001141350997
0.0001131023732
0.0001122843856
0.0001118081161
0.0001153203978
0.000114721657
0.0001138725141
0.0001128404061
0.0001117065847
0.0001105658643
0.000109525293
0.0001087025152
0.0001082241045
0.0001117669737
0.0001111642477
0.0001103104008
0.0001092740571
0.0001081374256
0.0001069957984
0.0001059560773
0.0001051351391
0.0001046583294
0.0001082015001
0.0001075997697
0.0001067481089
0.0001057156325
0.0001045847539
0.0001034504818
0.0001024188386
0.0001016052385
0.0001011331281
0.0001046515435
0.0001040549292
0.0001032111467
0.0001021892188
0.0001010711373
9.995099835e-05
9.893334563e-05
9.813157098e-05
9.766668352e-05
0.0001011399113
0.0001005517687
9.9720492e-05
9.871453128e-05
9.761494321e-05
9.651440181e-05
9.551549127e-05
9.472913724e-05
9.427348953e-05
9.768514257e-05
9.710815479e-05
9.6293076e-05
9.530739376e-05
9.423081595e-05
9.315418796e-05
9.217775724e-05
9.140964072e-05
9.096480782e-05
9.430200115e-05
9.373826698e-05
9.294226676e-05
9.198021437e-05
9.093014213e-05
8.988075022e-05
8.89296611e-05
8.818192745e-05
8.774910355e-05
9.10019562e-05
9.04530724e-05
8.967833443e-05
8.874243979e-05
8.772149322e-05
8.670181008e-05
8.577817572e-05
8.505239695e-05
8.463245134e-05
8.779363612e-05
8.726077235e-05
8.650888792e-05
8.560097965e-05
8.461103648e-05
8.362281483e-05
8.272811504e-05
8.202537866e-05
8.16189063e-05
8.468324814e-05
8.416721433e-05
8.343927613e-05
8.256059499e-05
8.160290962e-05
8.064729846e-05
7.978248276e-05
7.910347114e-05
7.87108378e-05
8.167495918e-05
8.117626529e-05
8.047295063e-05
7.962424812e-05
7.869955698e-05
7.777720438e-05
7.6942783e-05
7.628784333e-05
7.590922543e-05
7.877123634e-05
7.82901448e-05
7.761178854e-05
7.679341338e-05
7.590202706e-05
7.50131701e-05
7.420929341e-05
7.357849888e-05
7.321391822e-05
7.597314734e-05
7.550971859e-05
7.485637645e-05
7.406834953e-05
7.321023278e-05
7.235477532e-05
7.158130272e-05
7.097450535e-05
7.062385918e-05
7.32806225e-05
7.283475418e-05
7.220625724e-05
7.144833612e-05
7.062317646e-05
6.980075607e-05
6.905731495e-05
6.847419092e-05
6.813727766e-05
7.069268077e-05
7.026414122e-05
6.966014242e-05
6.893187635e-05
6.813914263e-05
6.734918747e-05
6.663522345e-05
6.607531161e-05
6.575185272e-05
6.820762301e-05
6.779607961e-05
6.721609314e-05
6.651686956e-05
6.575586145e-05
6.499763833e-05
6.431245763e-05
6.377519199e-05
6.346485038e-05
6.582319554e-05
6.542823861e-05
6.487167297e-05
6.420075662e-05
6.34706461e-05
6.274330082e-05
6.208610572e-05
6.157084259e-05
6.127323805e-05
6.353672751e-05
6.315789018e-05
6.262407583e-05
6.198064131e-05
6.128050723e-05
6.058309805e-05
5.995301634e-05
5.945905688e-05
5.91737788e-05
6.134524522e-05
6.09820199e-05
6.047023207e-05
5.985339076e-05
5.918224739e-05
5.851377264e-05
5.79098819e-05
5.743649062e-05
5.716310847e-05
5.924556628e-05
5.889741824e-05
5.840689568e-05
5.781571782e-05
5.717253823e-05
5.653195892e-05
5.595330625e-05
5.54997261e-05
5.523779798e-05
5.723437673e-05
5.690075511e-05
5.643071537e-05
5.5864248e-05
5.524798293e-05
5.463424096e-05
5.407985903e-05
5.364532358e-05
5.339440306e-05
5.530829332e-05
5.498864002e-05
5.453829165e-05
5.399557297e-05
5.340516606e-05
5.281719891e-05
5.22861187e-05
5.186986184e-05
5.162950343e-05
5.346391306e-05
5.315766979e-05
5.272622219e-05
5.220629306e-05
5.164069297e-05
5.107744529e-05
5.056870617e-05
5.016996973e-05
4.993973313e-05
5.169785254e-05
5.140446648e-05
5.099113762e-05
5.04930506e-05
4.995122038e-05
4.941165297e-05
4.892431049e-05
4.854235011e-05
4.832180354e-05
5.000677872e-05
4.972570681e-05
4.932972909e-05
4.885255529e-05
4.83334796e-05
4.781657626e-05
4.734970809e-05
4.698379768e-05
4.677252034e-05
4.8387432e-05
4.81181442e-05
4.773876899e-05
4.728160325e-05
4.678429375e-05
4.628906641e-05
4.584177673e-05
4.549121172e-05
4.528879562e-05
4.683664353e-05
4.657862522e-05
4.621512608e-05
4.577709082e-05
4.530059009e-05
4.482608248e-05
4.439750504e-05
4.406160473e-05
4.386765591e-05
4.535134748e-05
4.510410118e-05
4.475577623e-05
4.433602402e-05
4.387940827e-05
4.342469839e-05
4.301399866e-05
4.269210768e-05
4.250624708e-05
4.392858944e-05
4.369163594e-05
4.335780936e-05
4.29555247e-05
4.251790544e-05
4.208210716e-05
4.168848354e-05
4.137997274e-05
4.120183665e-05
4.256553154e-05
4.233841061e-05
4.201843352e-05
4.163283377e-05
4.121335879e-05
4.079562257e-05
4.041830701e-05
4.012257388e-05
3.995181409e-05
4.125945512e-05
4.104172575e-05
4.073497662e-05
4.036531239e-05
3.996316602e-05
3.956267915e-05
3.920093722e-05
3.891740582e-05
3.875368962e-05
4.000776127e-05
3.979900174e-05
3.950488633e-05
3.91504414e-05
3.876484435e-05
3.838083065e-05
3.803396116e-05
3.776208186e-05
3.76050918e-05
3.880796986e-05
3.860777754e-05
3.83257286e-05
3.798581942e-05
3.761602821e-05
3.72477474e-05
3.691508182e-05
3.665433069e-05
3.650376426e-05
3.765771745e-05
3.746570836e-05
3.719518507e-05
3.68691601e-05
3.651446617e-05
3.616121294e-05
3.58421145e-05
3.559199263e-05
3.54475618e-05
3.655475416e-05
3.637056253e-05
3.611104973e-05
3.579828845e-05
3.545801717e-05
3.51191201e-05
3.481298272e-05
3.457301535e-05
3.443444606e-05
3.549694002e-05
3.532021766e-05
3.507122501e-05
3.477113687e-05
3.444464628e-05
3.411946658e-05
3.382571374e-05
3.359544931e-05
3.346248097e-05
3.448224082e-05
3.431265644e-05
3.407371747e-05
3.378574072e-05
3.347242024e-05
3.316035042e-05
3.287843391e-05
3.265744311e-05
3.252982796e-05
3.35087237e-05
3.334596223e-05
3.31166333e-05
3.284023375e-05
3.253950281e-05
3.223996529e-05
3.196936397e-05
3.175723868e-05
3.163474123e-05
3.257455252e-05
3.241831436e-05
3.219817366e-05
3.193284344e-05
3.164415008e-05
3.13565958e-05
3.109681425e-05
3.089316656e-05
3.077556297e-05
3.167798323e-05
3.152798354e-05
3.131663004e-05
3.106188627e-05
3.078470576e-05
3.050861276e-05
3.025918005e-05
3.006364122e-05
2.995071873e-05
3.081735926e-05
3.06733272e-05
3.047037959e-05
3.022576319e-05
2.995959665e-05
2.969446867e-05
2.945493709e-05
2.926715654e-05
2.915871288e-05
2.999110692e-05
2.985278494e-05
2.965788064e-05
2.942295506e-05
2.916732809e-05
2.891269324e-05
2.868263704e-05
2.850228144e-05
2.839812428e-05
2.919773096e-05
2.906487413e-05
2.887766828e-05
2.86520183e-05
2.840647969e-05
2.816188915e-05
2.794090338e-05
2.776765565e-05
2.766760204e-05
2.843581031e-05
2.83081856e-05
2.812835011e-05
2.791158072e-05
2.767570118e-05
2.744072791e-05
2.722842729e-05
2.706198573e-05
2.69658616e-05
2.770399396e-05
2.758137959e-05
2.740860224e-05
2.720033749e-05
2.697370846e-05
2.674794603e-05
2.654396382e-05
2.638404128e-05
2.629168093e-05
2.700099698e-05
2.688318184e-05
2.671716538e-05
2.651704735e-05
2.629927985e-05
2.608234127e-05
2.58863283e-05
2.573265132e-05
2.564389698e-05
2.632559686e-05
2.62123799e-05
2.605284123e-05
2.586052903e-05
2.565125255e-05
2.544276921e-05
2.525439285e-05
2.510670096e-05
2.502140232e-05
2.567662994e-05
2.556781959e-05
2.541448899e-05
2.522965782e-05
2.502851932e-05
2.482813997e-05
2.464708323e-05
2.450512817e-05
2.442314196e-05
2.50529881e-05
2.494840179e-05
2.480102216e-05
2.462336241e-05
2.443002533e-05
2.42374151e-05
2.406337577e-05
2.392692086e-05
2.384811049e-05
2.445361565e-05
2.435307927e-05
2.421140545e-05
2.404062186e-05
2.385476526e-05
2.366960478e-05
2.35022946e-05
2.337111407e-05
2.329534925e-05
2.38775064e-05
2.378085387e-05
2.364465198e-05
2.348046288e-05
2.330178054e-05
2.312376509e-05
2.296290903e-05
2.283678743e-05
2.276394383e-05
2.332370093e-05
2.323077377e-05
2.309982062e-05
2.294195718e-05
2.277015685e-05
2.259899556e-05
2.244433109e-05
2.232306279e-05
2.225302172e-05
2.279128412e-05
2.270193102e-05
2.257601352e-05
2.242421909e-05
2.225902173e-05
2.209443692e-05
2.194571335e-05
2.182910197e-05
2.17617501e-05
2.227938275e-05
2.219345922e-05
2.20723739e-05
2.192640338e-05
2.176754251e-05
2.160926894e-05
2.146624686e-05
2.135410486e-05
2.128933392e-05
2.17871634e-05
2.170453145e-05
2.158808394e-05
2.14477032e-05
2.129492427e-05
2.114270859e-05
2.100515929e-05
2.08973075e-05
2.083501411e-05
2.131383052e-05
2.12343583e-05
2.112236292e-05
2.098734832e-05
2.084040814e-05
2.069400833e-05
2.056171333e-05
2.04579806e-05
2.039806596e-05
2.085862466e-05
2.078218622e-05
2.067446559e-05
2.054460346e-05
2.040326975e-05
2.02624546e-05
2.01352052e-05
2.003542805e-05
1.997779781e-05
2.042082096e-05
2.034729599e-05
2.024368069e-05
2.011876697e-05
1.998281785e-05
1.984736658e-05
1.97249635e-05
1.962898583e-05
1.957354991e-05
1.999972782e-05
1.992900145e-05
1.982932972e-05
1.970916959e-05
1.957839328e-05
1.944809515e-05
1.933034819e-05
1.923802106e-05
1.918469352e-05
1.959468587e-05
1.952664851e-05
1.9430766e-05
1.93151736e-05
1.918936811e-05
1.906402216e-05
1.895075e-05
1.886193142e-05
1.881063035e-05
1.920506715e-05
1.913961432e-05
1.904737396e-05
1.893617221e-05
1.881514511e-05
1.869455996e-05
1.858558996e-05
1.850014482e-05
1.845079228e-05
1.88302746e-05
1.876730688e-05
1.867856873e-05
1.857158921e-05
1.845515755e-05
1.833915131e-05
1.823431948e-05
1.815211945e-05
1.810464147e-05
1.84697419e-05
1.84091649e-05
1.832379615e-05
1.822087904e-05
1.810886934e-05
1.799726964e-05
1.789642066e-05
1.781734429e-05
1.777167087e-05
1.812293362e-05
1.806465802e-05
1.798253302e-05
1.788352727e-05
1.777577563e-05
1.766841974e-05
1.757140711e-05
1.749533995e-05
1.745140519e-05
1.778934583e-05
1.773328748e-05
1.765428793e-05
1.75590514e-05
1.745540377e-05
1.735213894e-05
1.725882529e-05
1.718566012e-05
1.714340236e-05
1.746850707e-05
1.741458717e-05
1.733860239e-05
1.724700225e-05
1.714731486e-05
1.704799872e-05
1.695825625e-05
1.68878935e-05
1.684725552e-05
1.715997985e-05
1.710812522e-05
1.703505253e-05
1.694696576e-05
1.685110568e-05
1.675560691e-05
1.666931798e-05
1.66016662e-05
1.656259559e-05
1.686336253e-05
1.681350597e-05
1.674325125e-05
1.665856526e-05
1.65664112e-05
1.647461031e-05
1.639166824e-05
1.632664476e-05
1.628909425e-05
1.657829172e-05
1.653037248e-05
1.646285078e-05
1.638146431e-05
1.629290756e-05
1.62046979e-05
1.61250079e-05
1.606253961e-05
1.602646758e-05
1.630444511e-05
1.62584094e-05
1.619354578e-05
1.611536985e-05
1.603031538e-05
1.594560433e-05
1.586908465e-05
1.580910891e-05
1.577447993e-05
1.604154462e-05
1.599734629e-05
1.593507669e-05
1.586003574e-05
1.577840353e-05
1.569711383e-05
1.562369699e-05
1.556616269e-05
1.553294813e-05
1.578935991e-05
1.574696109e-05
1.568723338e-05
1.561526654e-05
1.553699296e-05
1.545906417e-05
1.538869835e-05
1.5333567e-05
1.530174572e-05
1.554771188e-05
1.55070838e-05
1.544985881e-05
1.538092123e-05
1.530596054e-05
1.523135055e-05
1.516400103e-05
1.511124791e-05
1.508080692e-05
1.531647626e-05
1.527759994e-05
1.522285261e-05
1.515691675e-05
1.508524258e-05
1.501392917e-05
1.494957968e-05
1.489919499e-05
1.487013012e-05
1.509558674e-05
1.505845377e-05
1.500617413e-05
1.494323106e-05
1.487483781e-05
1.480681997e-05
1.474547398e-05
1.469746381e-05
1.46697803e-05
1.488503756e-05
1.484965073e-05
1.479984482e-05
1.47399053e-05
1.467480923e-05
1.461010833e-05
1.455179007e-05
1.450617717e-05
1.447989012e-05
1.468488515e-05
1.465125888e-05
1.460394939e-05
1.454704458e-05
1.448528466e-05
1.442394516e-05
1.436870015e-05
1.432552439e-05
1.430065896e-05
1.449524836e-05
1.446340899e-05
1.441863551e-05
1.436481724e-05
1.43064553e-05
1.424854484e-05
1.419643997e-05
1.415575821e-05
1.413234956e-05
1.431630693e-05
1.428629256e-05
1.424411138e-05
1.419345181e-05
1.413857197e-05
1.408418068e-05
1.403530338e-05
1.399718878e-05
1.397528156e-05
1.414829771e-05
1.412015764e-05
1.408064091e-05
1.403323128e-05
1.398193854e-05
1.39311773e-05
1.388563378e-05
1.385017423e-05
1.382982164e-05
1.39915082e-05
1.396530186e-05
1.392853589e-05
1.388448441e-05
1.383690193e-05
1.378989952e-05
1.374781181e-05
1.371510741e-05
1.369636956e-05
1.384626713e-05
1.382206235e-05
1.378814503e-05
1.374757348e-05
1.370383868e-05
1.366073738e-05
1.362223913e-05
1.359239854e-05
1.357534025e-05
1.371293164e-05
1.369080218e-05
1.365983939e-05
1.362287849e-05
1.358313759e-05
1.354408738e-05
1.350931808e-05
1.348245369e-05
1.346714145e-05
1.359187098e-05
1.357189334e-05
1.354399422e-05
1.35107776e-05
1.347517863e-05
1.344032967e-05
1.340942744e-05
1.33856493e-05
1.337214757e-05
1.348344675e-05
1.346569615e-05
1.344096721e-05
1.341162401e-05
1.338030824e-05
1.334980187e-05
1.332289471e-05
1.330230324e-05
1.329067002e-05
1.338798973e-05
1.337253536e-05
1.335107361e-05
1.332571974e-05
1.329881174e-05
1.327276992e-05
1.324996566e-05
1.323264336e-05
1.322292514e-05
1.330577407e-05
1.329267367e-05
1.32745587e-05
1.325328705e-05
1.323088349e-05
1.320939718e-05
1.319077247e-05
1.317677483e-05
1.316900109e-05
1.323698931e-05
1.322628325e-05
1.321156874e-05
1.319443855e-05