/*--------------------------------*- C++ -*----------------------------------*\
| =========                 |                                                 |
| \\      /  F ield         | OpenFOAM: The Open Source CFD Toolbox           |
|  \\    /   O peration     | Version:  2212                                  |
|   \\  /    A nd           | Website:  www.openfoam.com                      |
|    \\/     M anipulation  |                                                 |
\*---------------------------------------------------------------------------*/
FoamFile
{
    version     2.0;
    format      ascii;
    arch        "LSB;label=32;scalar=64";
    class       volScalarField;
    location    "20.00000000";
    object      CH2CO;
}
// * * * * * * * * * * * * * * * * * * * * * * * * * * * * * * * * * * * * * //

dimensions      [0 0 0 0 0 0 0];

internalField   nonuniform List<scalar> 
3000
(
3.296828331e-20
3.702843953e-20
4.315225284e-20
5.130702311e-20
6.140521534e-20
7.316855883e-20
8.588720457e-20
9.801694219e-20
1.065906788e-19
1.237744807e-19
1.395761797e-19
1.633979806e-19
1.951878274e-19
2.348930568e-19
2.822758905e-19
3.365048375e-19
3.948789453e-19
4.465783054e-19
2.772506704e-19
3.151021449e-19
3.727083532e-19
4.508595358e-19
5.508978513e-19
6.742067888e-19
8.202364194e-19
9.808151089e-19
1.117950435e-18
5.280811885e-19
6.064724395e-19
7.275361892e-19
8.952860631e-19
1.115534136e-18
1.393700439e-18
1.728045256e-18
2.091692354e-18
2.384777671e-18
9.377382926e-19
1.090203696e-18
1.329417104e-18
1.667438468e-18
2.120016714e-18
2.699618622e-18
3.396188716e-18
4.134866707e-18
4.700600242e-18
1.612461412e-18
1.89871148e-18
2.354362291e-18
3.008488901e-18
3.896037168e-18
5.039581558e-18
6.405521887e-18
7.822667309e-18
8.873258454e-18
2.73719981e-18
3.263057024e-18
4.109918021e-18
5.339480954e-18
7.020350209e-18
9.18625204e-18
1.174801249e-17
1.435178698e-17
1.623110139e-17
4.631798298e-18
5.583360838e-18
7.129402461e-18
9.391392927e-18
1.249553685e-17
1.648663739e-17
2.116448631e-17
2.584808006e-17
2.917093632e-17
7.850622439e-18
9.554226775e-18
1.233995763e-17
1.643616535e-17
2.206703622e-17
2.928656267e-17
3.768674543e-17
4.60092841e-17
5.184878306e-17
1.335397997e-17
1.638006854e-17
2.13508384e-17
2.868334181e-17
3.876880207e-17
5.16653874e-17
6.658776236e-17
8.126415334e-17
9.148591928e-17
2.280711915e-17
2.81513143e-17
3.695755298e-17
4.997366994e-17
6.787653904e-17
9.07175472e-17
1.170375728e-16
1.427926843e-16
1.60642692e-16
3.909940155e-17
4.849776153e-17
6.401805537e-17
8.698586176e-17
1.185680801e-16
1.587868823e-16
2.04991227e-16
2.500464854e-16
2.811736302e-16
6.724760835e-17
8.372663222e-17
1.10980589e-16
1.51342495e-16
2.068215881e-16
2.773649926e-16
3.582229217e-16
4.368826921e-16
4.911363725e-16
1.159642714e-16
1.447996051e-16
1.925410787e-16
2.632805914e-16
3.604833879e-16
4.839334122e-16
6.251775673e-16
7.623194302e-16
8.569631225e-16
2.003747815e-16
2.507580332e-16
3.342496056e-16
4.580275032e-16
6.281129553e-16
8.439973407e-16
1.090640212e-15
1.329473014e-15
1.495017149e-15
3.467152429e-16
4.346347834e-16
5.80437306e-16
7.967222002e-16
1.09405226e-15
1.471607982e-15
1.903382223e-15
2.322312945e-15
2.608759895e-15
6.00465701e-16
7.53669709e-16
1.007845719e-15
1.384968158e-15
1.903327138e-15
2.561151425e-15
3.312479903e-15
4.039856124e-15
4.538306692e-15
1.04049995e-15
1.307143733e-15
1.749623964e-15
2.406144279e-15
3.308294675e-15
4.452533369e-15
5.758431089e-15
7.021747531e-15
7.887489117e-15
1.803671827e-15
2.267360038e-15
3.036940128e-15
4.178792327e-15
5.747577685e-15
7.736676267e-15
1.00058757e-14
1.220024282e-14
1.370361088e-14
3.127506221e-15
3.933419287e-15
5.271150717e-15
7.256038486e-15
9.982809481e-15
1.343945873e-14
1.738185294e-14
2.119318681e-14
2.380366405e-14
5.42432207e-15
6.824580913e-15
9.1490976e-15
1.259826015e-14
1.733633897e-14
2.334184188e-14
3.018994674e-14
3.680892678e-14
4.13414956e-14
9.40995129e-15
1.184239084e-14
1.588070123e-14
2.187296751e-14
3.010410529e-14
4.053586566e-14
5.242929682e-14
6.392261814e-14
7.179187995e-14
1.632730789e-14
2.055228188e-14
2.756689518e-14
3.797563335e-14
5.227262133e-14
7.038997915e-14
9.104267866e-14
1.109971702e-13
1.246582306e-13
2.833473027e-14
3.567271607e-14
4.785607023e-14
6.593423819e-14
9.076398022e-14
1.222249592e-13
1.580829548e-13
1.927235515e-13
2.164361833e-13
4.918055661e-14
6.192484158e-14
8.308420496e-14
1.144798949e-13
1.575967977e-13
2.122215275e-13
2.744705237e-13
3.345965236e-13
3.757510065e-13
8.537463038e-14
1.075079154e-13
1.442543176e-13
1.987729456e-13
2.736353547e-13
3.684616206e-13
4.765014851e-13
5.808362242e-13
6.522407038e-13
1.482226264e-13
1.866612154e-13
2.504728502e-13
3.451337155e-13
4.750923429e-13
6.396670388e-13
8.271223279e-13
1.008098954e-12
1.131927089e-12
2.573575872e-13
3.241112388e-13
4.349132636e-13
5.992476247e-13
8.247971143e-13
1.110326216e-12
1.435426349e-12
1.749168716e-12
1.963766027e-12
4.468645504e-13
5.627828087e-13
7.551518906e-13
1.0403759e-12
1.431692233e-12
1.926831981e-12
2.490287758e-12
3.033758872e-12
3.405306319e-12
7.758908281e-13
9.771543683e-13
1.31105849e-12
1.805928298e-12
2.484498667e-12
3.342534072e-12
4.318219127e-12
5.25856533e-12
5.900982199e-12
1.346996984e-12
1.696347373e-12
2.275700651e-12
3.133852586e-12
4.309678955e-12
5.795126259e-12
7.482497018e-12
9.106987498e-12
1.021567222e-11
2.337824902e-12
2.943946271e-12
3.948578413e-12
5.435520435e-12
7.470858335e-12
1.003898739e-11
1.295211449e-11
1.575252857e-11
1.766108733e-11
4.05559098e-12
5.106454932e-12
6.846993225e-12
9.420524769e-12
1.293851811e-11
1.737020293e-11
2.238785701e-11
2.720182924e-11
3.047649088e-11
7.030521629e-12
8.85051376e-12
1.186215033e-11
1.630922668e-11
2.237784633e-11
3.00064558e-11
3.862279065e-11
4.686803121e-11
5.246288227e-11
1.217537065e-11
1.532263287e-11
2.052436033e-11
2.819239528e-11
3.863334478e-11
5.172285701e-11
6.64614879e-11
8.051900547e-11
9.002762922e-11
2.105637169e-11
2.648755869e-11
3.545056297e-11
4.863499739e-11
6.653737859e-11
8.890535329e-11
1.139944659e-10
1.3782647e-10
1.538833642e-10
3.635077429e-11
4.569763582e-11
6.10935895e-11
8.368066694e-11
1.142451929e-10
1.522756083e-10
1.94732362e-10
2.348623709e-10
2.617721429e-10
6.261431002e-11
7.864348906e-11
1.049853398e-10
1.435054061e-10
1.954132462e-10
2.596785302e-10
3.310222975e-10
3.98062416e-10
4.427678671e-10
1.075589508e-10
1.349277002e-10
1.797786753e-10
2.451086108e-10
3.327073566e-10
4.405231304e-10
5.594344159e-10
6.704214506e-10
7.439652557e-10
1.841627202e-10
2.306448615e-10
3.065639786e-10
4.16636763e-10
5.633733932e-10
7.427510868e-10
9.391222767e-10
1.121024836e-09
1.240716364e-09
3.141218214e-10
3.925675191e-10
5.201915203e-10
7.042367329e-10
9.479534485e-10
1.243603405e-09
1.564596159e-09
1.8594855e-09
2.05205868e-09
5.33443186e-10
6.64861288e-10
8.777041091e-10
1.182766303e-09
1.583720088e-09
2.066001136e-09
2.584943578e-09
3.057491541e-09
3.363638222e-09
9.014070154e-10
1.119728432e-09
1.471520764e-09
1.972294515e-09
2.625077447e-09
3.403102233e-09
4.232343001e-09
4.98053609e-09
5.46133192e-09
1.514762691e-09
1.874065718e-09
2.449769513e-09
3.263163434e-09
4.314104747e-09
5.554614803e-09
6.863824888e-09
8.034086491e-09
8.78000668e-09
2.529932555e-09
3.115193786e-09
4.047221207e-09
5.353535628e-09
7.025683772e-09
8.97983745e-09
1.102175019e-08
1.283007365e-08
1.397354212e-08
4.197279153e-09
5.14006495e-09
6.631724033e-09
8.704925386e-09
1.133337856e-08
1.437429724e-08
1.752055113e-08
2.02818055e-08
2.201455709e-08
6.91325446e-09
8.414200818e-09
1.077300704e-08
1.402334942e-08
1.810458556e-08
2.277944676e-08
2.757011108e-08
3.173844421e-08
3.43354395e-08
1.129862961e-08
1.365909627e-08
1.734337392e-08
2.237662082e-08
2.863665547e-08
3.573839583e-08
4.295000387e-08
4.91743106e-08
5.302657849e-08
1.831416743e-08
2.198013664e-08
2.76633544e-08
3.536218253e-08
4.484996326e-08
5.551537439e-08
6.625397845e-08
7.54538319e-08
8.111350235e-08
2.942926186e-08
3.505144666e-08
4.371008076e-08
5.53450187e-08
6.955957533e-08
8.54028786e-08
1.012309115e-07
1.147002858e-07
1.229422819e-07
4.686451225e-08
5.537982812e-08
6.841233586e-08
8.579192945e-08
1.068545807e-07
1.301485963e-07
1.532572914e-07
1.728058696e-07
1.847121069e-07
7.393631374e-08
8.667745593e-08
1.060642866e-07
1.317372005e-07
1.626236731e-07
1.965445473e-07
2.299873363e-07
2.581319858e-07
2.752052136e-07
1.155408422e-07
1.343828551e-07
1.629004111e-07
2.004258522e-07
2.452773946e-07
2.942333884e-07
3.422401004e-07
3.82462553e-07
4.067793829e-07
1.788269367e-07
2.063828011e-07
2.478879513e-07
3.021946938e-07
3.667312174e-07
4.368000109e-07
5.051964875e-07
5.622899419e-07
5.967102928e-07
2.741072906e-07
3.13983519e-07
3.737888622e-07
4.516528293e-07
5.437247184e-07
6.432362764e-07
7.399998159e-07
8.205297437e-07
8.689772322e-07
4.161010511e-07
4.732357832e-07
5.586048919e-07
6.692739192e-07
7.995760174e-07
9.398614591e-07
1.075835905e-06
1.188727647e-06
1.256537204e-06
6.256128868e-07
7.067143307e-07
8.274998255e-07
9.83495024e-07
1.1664804e-06
1.362827392e-06
1.552616433e-06
1.709853439e-06
1.804157915e-06
9.317599251e-07
1.045868405e-06
1.215328492e-06
1.433468525e-06
1.688512163e-06
1.961359987e-06
2.224407214e-06
2.44185651e-06
2.572049924e-06
1.374897978e-06
1.534102194e-06
1.769940445e-06
2.07263848e-06
2.425485466e-06
2.801880831e-06
3.163793692e-06
3.462281329e-06
3.640685174e-06
2.010428392e-06
2.230766136e-06
2.556425793e-06
2.973276186e-06
3.457790817e-06
3.973174475e-06
4.467441168e-06
4.874225137e-06
5.117000802e-06
2.913631779e-06
3.216176491e-06
3.662387156e-06
4.232062481e-06
4.892373977e-06
5.592882291e-06
6.263147453e-06
6.813814482e-06
7.14208434e-06
4.185535136e-06
4.597676344e-06
5.204305768e-06
5.976906029e-06
6.870176932e-06
7.815643742e-06
8.718576362e-06
9.459350679e-06
9.900548018e-06
5.959840608e-06
6.516861099e-06
7.335259821e-06
8.375351857e-06
9.575327423e-06
1.08429953e-05
1.205174935e-05
1.304227995e-05
1.363179961e-05
8.411244788e-06
9.158347958e-06
1.025434368e-05
1.164474383e-05
1.324602715e-05
1.493495278e-05
1.654329954e-05
1.786003042e-05
1.864322871e-05
1.176545084e-05
1.276022061e-05
1.421766828e-05
1.606384387e-05
1.81868476e-05
2.042305647e-05
2.255027755e-05
2.429044937e-05
2.532502417e-05
1.631043778e-05
1.762559884e-05
1.955035141e-05
2.198535617e-05
2.47819291e-05
2.77243244e-05
3.052083182e-05
3.280709198e-05
3.416582854e-05
2.240814184e-05
2.413451493e-05
2.665870684e-05
2.984856883e-05
3.350814557e-05
3.735496266e-05
4.100844576e-05
4.399389581e-05
4.576767328e-05
3.050559919e-05
3.27551434e-05
3.604159235e-05
4.019080605e-05
4.494664839e-05
4.994198013e-05
5.468359698e-05
5.855686003e-05
6.085765884e-05
4.114443425e-05
4.405306292e-05
4.829930514e-05
5.365581091e-05
5.979058447e-05
6.623012057e-05
7.23398592e-05
7.732940361e-05
8.029283546e-05
5.496706878e-05
5.86967833e-05
6.413804846e-05
7.09967633e-05
7.884630238e-05
8.708098806e-05
9.489087758e-05
0.0001012674498
0.0001050541009
7.271790739e-05
7.745763559e-05
8.436783012e-05
9.307149396e-05
0.0001030252527
0.0001134611903
0.0001233546834
0.0001314304357
0.0001362251869
9.523779769e-05
0.0001012022149
0.0001098918296
0.0001208277483
0.0001333242475
0.0001464170063
0.000158822771
0.0001689457334
0.0001749545293
0.0001234503541
0.0001308759551
0.000141685821
0.0001552771398
0.0001707928392
0.000187034528
0.0002024131496
0.0002149560611
0.0002223993165
0.0001583392139
0.0001674770483
0.000180767121
0.0001974576612
0.0002164882181
0.0002363862748
0.0002552089595
0.0002705492408
0.0002796455196
0.0002009158774
0.0002120206895
0.000228153592
0.0002483860895
0.0002714201655
0.0002954687565
0.0003181858221
0.0003366754475
0.0003476273863
0.0002521783707
0.0002654943754
0.0002848142067
0.0003090028028
0.0003364901578
0.0003651307459
0.0003921320488
0.0004140703394
0.0004270469333
0.0003130615513
0.0003288056317
0.0003516137941
0.0003801126997
0.0004124207241
0.0004460000855
0.0004775807307
0.0005031844262
0.0005183033619
0.0003843818289
0.0004027247881
0.0004292488483
0.0004623111461
0.0004996889511
0.0005384243872
0.0005747505952
0.0006041269735
0.0006214391775
0.0004667657523
0.0004878092459
0.0005181760917
0.0005559271716
0.0005984737818
0.0006424211428
0.000683502559
0.0007166287984
0.0007361070889
0.0005605809442
0.0005843444712
0.0006185604863
0.0006609730675
0.0007086121476
0.0007576430696
0.0008033147912
0.0008400259521
0.0008615590917
0.0006658834527
0.0006922924315
0.0007302279944
0.0007771056579
0.0008295706982
0.0008833615078
0.0009332776611
0.0009732643884
0.0009966570222
0.0007823718244
0.0008112512333
0.0008526334429
0.0009036046692
0.0009604362538
0.00101846947
0.001072108531
0.00111492413
0.001139902189
0.0009093592423
0.000940433722
0.0009848483535
0.001039371796
0.001099927071
0.001161504798
0.001218185158
0.001263260143
0.001289480235
0.001045768773
0.001078669417
0.001125572167
0.001182952782
0.001246426046
0.001310693306
0.001369596198
0.001416256712
0.001443316119
0.00119015441
0.001224431942
0.001273168398
0.001332583538
0.001398036726
0.001464013019
0.001524210208
0.001571695642
0.001599132889
0.001340747651
0.001375891358
0.001425724916
0.001486259805
0.001552663016
0.00161928388
0.001679774364
0.001727262544
0.001754569289
0.001495526121
0.001530987581
0.001581134216
0.001641826237
0.001708109655
0.001774283763
0.001834051713
0.001880708913
0.001907444599
0.001652297945
0.001687518051
0.001737185748
0.001797074862
0.001862189467
0.001926871732
0.001984971453
0.002030173025
0.002056019348
0.001808794552
0.001843232312
0.00189166268
0.00194984355
0.002012819765
0.002075095338
0.00213086567
0.002174140721
0.00219883857
0.0019627665
0.001995929865
0.002042443247
0.002098125055
0.002158212009
0.002217469404
0.002270397625
0.002311371529
0.00233471544
0.002112082369
0.002143562222
0.002187641997
0.002240312948
0.002297014034
0.002352792944
0.002402492604
0.002440883465
0.002462720097
0.002255026795
0.002284584824
0.00232591531
0.002375211946
0.002428164657
0.002480134379
0.002526333296
0.002561946766
0.002582172543
0.002390395805
0.00241786738
0.002456229851
0.002501906921
0.002550870782
0.002598819664
0.002641351548
0.002674074932
0.002692632673
0.002517282532
0.002542566218
0.002577829406
0.002619746921
0.002664593654
0.002708419677
0.00274721528
0.002777010271
0.002793884803
0.00263505261
0.002658104479
0.00269021726
0.002728330693
0.002769033672
0.002808733403
0.002843809858
0.002870703704
0.002885916571
0.002743328259
0.002764156172
0.002793139226
0.002827488641
0.002864110425
0.002899765904
0.002931214304
0.002955289716
0.002968893228
0.002841969518
0.002860626272
0.002886562089
0.002917259539
0.002949937613
0.002981701696
0.00300967352
0.003031057885
0.003043128867
0.002931049603
0.002947625107
0.002970646753
0.002997862457
0.003026793966
0.003054874957
0.003079568158
0.003098422678
0.00310905626
0.003010824949
0.003025437912
0.00304571728
0.003069665452
0.003095091823
0.003119738311
0.00314138381
0.003157893107
0.003167196848
0.003081701776
0.003094491465
0.003112227754
0.003133152899
0.00315534522
0.00317683186
0.00319568108
0.003210043754
0.003218132363
0.003144201393
0.003155319917
0.003170728951
0.003188893303
0.00320813909
0.003226753941
0.003243067866
0.003255488278
0.003262479057
0.003198926274
0.00320853174
0.003221836565
0.003237509162
0.003254100993
0.003270134763
0.00328417474
0.003294856195
0.003300865289
0.003246528657
0.003254779413
0.003266202447
0.003279650081
0.003293876286
0.003307613638
0.003319634037
0.003328773402
0.003333912868
0.003287682863
0.0032947329
0.003304489714
0.003315969841
0.003328107301
0.003339820209
0.003350062909
0.003357846624
0.003362222275
0.003323062053
0.00332905756
0.003337352256
0.003347107795
0.00335741673
0.003367359774
0.003376050314
0.003382651657
0.003386361614
0.003353319706
0.003358396692
0.003365418754
0.003373674597
0.003382395155
0.003390802509
0.003398147705
0.003403725151
0.003406858985
0.003379075744
0.003383358596
0.003389281007
0.003396242004
0.003403592373
0.003410676226
0.003416863006
0.003421559487
0.003424197866
0.00340090695
0.003404507749
0.00340948617
0.003415336316
0.003421512061
0.003427462194
0.003432657402
0.003436600268
0.003438814984
0.003419341112
0.003422359574
0.003426532328
0.003431434888
0.003436609246
0.003441593476
0.003445944401
0.003449245919
0.0034511002
0.003434854296
0.003437378151
0.003440866827
0.00344496514
0.00344929
0.003453455252
0.00345709067
0.003459848888
0.003461397914
0.003447870574
0.003449976262
0.003452886726
0.003456305477
0.003459912815
0.003463386606
0.003466418162
0.003468718005
0.003470009543
0.003458763586
0.003460517154
0.003462940822
0.003465787596
0.003468791187
0.003471683348
0.003474207118
0.003476121613
0.003477196719
0.003467859402
0.003469317498
0.003471332741
0.003473699716
0.003476196974
0.003478601471
0.003480699594
0.003482291142
0.003483184885
0.003475440198
0.003476651099
0.003478324686
0.003480290355
0.003482364186
0.003484360946
0.00348610325
0.003487424873
0.003488167042
0.003481748374
0.003482752999
0.003484141504
0.003485772352
0.003487492951
0.003489149613
0.003490595166
0.003491691697
0.003492307477
0.00348699083
0.003487823694
0.00348897483
0.003490326913
0.003491753442
0.003493126997
0.003494325549
0.003495234742
0.003495745334
0.003491343176
0.003492033277
0.003492987122
0.003494107516
0.003495289648
0.003496427931
0.00349742123
0.003498174756
0.003498597947
0.003494953745
0.003495525357
0.00349631546
0.003497243566
0.003498222869
0.003499165901
0.003499988868
0.003500613216
0.003500963878
0.003497947303
0.00349842069
0.003499075052
0.003499843753
0.003500654911
0.003501436084
0.00350211785
0.003502635112
0.00350292565
0.003500428416
0.003500820451
0.003501362386
0.003501999057
0.003502670946
0.003503318053
0.003503882864
0.003504311429
0.003504552166
0.003502484454
0.003502809155
0.003503258036
0.003503785424
0.003504342034
0.003504878166
0.003505346163
0.003505701303
0.003505900813
0.003504188227
0.003504457224
0.003504829119
0.003505266093
0.003505727324
0.003506171634
0.003506559522
0.003506853904
0.003507019298
0.00350560028
0.003505823207
0.003506131429
0.00350649362
0.003506875956
0.00350724431
0.003507565927
0.003507810044
0.003507947211
0.003506770873
0.003506955703
0.003507211268
0.00350751161
0.003507828694
0.00350813422
0.003508401018
0.003508603553
0.003508717369
0.003507741665
0.003507894989
0.003508107006
0.003508356195
0.003508619306
0.003508872863
0.003509094311
0.003509262443
0.003509356938
0.003508547146
0.003508674411
0.003508850408
0.003509057283
0.003509275745
0.003509486303
0.003509670227
0.003509809891
0.003509888397
0.003509215848
0.003509321554
0.003509467749
0.003509639612
0.003509821125
0.003509996099
0.003510148964
0.003510265063
0.003510330332
0.003509771358
0.003509859221
0.003509980749
0.00351012363
0.003510274556
0.003510420068
0.003510547216
0.0035106438
0.003510698106
0.003510233168
0.003510306256
0.003510407358
0.003510526238
0.00351065183
0.003510772937
0.003510878781
0.003510959195
0.003511004417
0.00351061738
0.003510678228
0.003510762406
0.003510861398
0.003510965996
0.003511066877
0.00351115506
0.003511222069
0.00351125976
0.003510937298
0.003510987999
0.003511058146
0.003511140649
0.003511227838
0.003511311944
0.003511385478
0.003511441367
0.003511472808
0.003511203911
0.003511246195
0.003511304702
0.003511373524
0.003511446267
0.003511516452
0.003511577826
0.003511624483
0.003511650735
0.003511426304
0.0035114616
0.003511510443
0.003511567906
0.003511628653
0.003511687274
0.003511738548
0.003511777535
0.003511799475
0.003511611983
0.003511641474
0.003511682288
0.003511730311
0.003511781088
0.003511830099
0.003511872975
0.003511905584
0.003511923938
0.003511767159
0.003511791823
0.00351182596
0.003511866133
0.003511908617
0.003511949631
0.003511985521
0.003512012821
0.003512028191
0.003511896968
0.003511917615
0.003511946195
0.003511979834
0.003512015414
0.003512049771
0.003512079841
0.00351210272
0.003512115604
0.003512005666
0.003512022967
0.003512046918
0.003512075113
0.00351210494
0.003512133748
0.003512158968
0.003512178161
0.00351218897
0.003512096775
0.003512111287
0.003512131379
0.003512155034
0.003512180063
0.003512204243
0.003512225415
0.003512241531
0.00351225061
0.00351217322
0.003512185403
0.003512202274
0.00351222214
0.003512243164
0.003512263479
0.003512281271
0.003512294817
0.00351230245
0.003512237424
0.003512247663
0.003512261843
0.003512278543
0.00351229622
0.003512313304
0.003512328271
0.003512339668
0.003512346092
0.003512291401
0.003512300015
0.003512311945
0.003512325997
0.003512340875
0.003512355256
0.003512367858
0.003512377457
0.003512382868
0.003512336826
0.003512344079
0.003512354126
0.003512365962
0.003512378495
0.003512390614
0.003512401234
0.003512409326
0.003512413889
0.003512375091
0.003512381204
0.003512389673
0.003512399652
0.003512410221
0.003512420442
0.003512429402
0.00351243623
0.00351244008
0.003512407356
0.003512412513
0.003512419659
0.00351242808
0.003512437001
0.003512445629
0.003512453195
0.003512458962
0.003512462215
0.003512434587
0.003512438943
0.003512444978
0.003512452091
0.003512459627
0.003512466918
0.003512473313
0.003512478188
0.003512480939
0.003512457593
0.003512461274
0.003512466375
0.003512472389
0.003512478762
0.003512484929
0.003512490338
0.003512494464
0.003512496791
0.003512477045
0.00351248016
0.003512484476
0.003512489565
0.003512494958
0.003512500179
0.003512504759
0.003512508253
0.003512510224
0.003512493509
0.003512496146
0.003512499801
0.003512504111
0.00351250868
0.003512513103
0.003512516984
0.003512519946
0.003512521617
0.003512507455
0.00351250969
0.003512512788
0.003512516441
0.003512520314
0.003512524065
0.003512527357
0.003512529869
0.003512531287
0.003512519278
0.003512521174
0.003512523802
0.003512526901
0.003512530187
0.00351253337
0.003512536165
0.003512538298
0.003512539502
0.003512529311
0.003512530919
0.00351253315
0.003512535782
0.003512538573
0.003512541276
0.00351254365
0.003512545462
0.003512546486
0.00351253783
0.003512539197
0.003512541092
0.003512543328
0.0035125457
0.003512547997
0.003512550016
0.003512551557
0.003512552427
0.00351254507
0.003512546232
0.003512547843
0.003512549744
0.003512551761
0.003512553716
0.003512555433
0.003512556744
0.003512557485
0.003512551227
0.003512552216
0.003512553587
0.003512555205
0.003512556921
0.003512558585
0.003512560047
0.003512561163
0.003512561794
0.003512556467
0.003512557309
0.003512558476
0.003512559854
0.003512561316
0.003512562733
0.003512563979
0.00351256493
0.003512565468
0.003512560931
0.003512561648
0.003512562642
0.003512563816
0.003512565062
0.00351256627
0.003512567332
0.003512568143
0.003512568601
0.003512564734
0.003512565345
0.003512566193
0.003512567194
0.003512568257
0.003512569287
0.003512570193
0.003512570885
0.003512571276
0.003512567978
0.003512568499
0.003512569222
0.003512570076
0.003512570983
0.003512571862
0.003512572635
0.003512573226
0.00351257356
0.003512570745
0.00351257119
0.003512571808
0.003512572537
0.003512573311
0.003512574062
0.003512574722
0.003512575226
0.003512575512
0.003512573108
0.003512573488
0.003512574016
0.003512574638
0.003512575299
0.003512575941
0.003512576505
0.003512576936
0.00351257718
0.003512575127
0.003512575451
0.003512575902
0.003512576434
0.003512576999
0.003512577547
0.00351257803
0.003512578398
0.003512578607
0.003512576852
0.003512577129
0.003512577514
0.003512577969
0.003512578453
0.003512578921
0.003512579334
0.003512579649
0.003512579827
0.003512578327
0.003512578564
0.003512578893
0.003512579283
0.003512579696
0.003512580097
0.00351258045
0.00351258072
0.003512580872
0.003512579588
0.003512579791
0.003512580073
0.003512580406
0.00351258076
0.003512581103
0.003512581405
0.003512581636
0.003512581767
0.003512580668
0.003512580842
0.003512581083
0.003512581368
0.003512581671
0.003512581965
0.003512582224
0.003512582422
0.003512582534
0.003512581593
0.003512581741
0.003512581948
0.003512582192
0.003512582452
0.003512582703
0.003512582925
0.003512583094
0.00351258319
0.003512582384
0.003512582512
0.003512582689
0.003512582898
0.00351258312
0.003512583336
0.003512583526
0.003512583671
0.003512583753
0.003512583063
0.003512583172
0.003512583323
0.003512583503
0.003512583693
0.003512583878
0.003512584041
0.003512584165
0.003512584236
0.003512583644
0.003512583737
0.003512583867
0.003512584021
0.003512584184
0.003512584343
0.003512584482
0.003512584589
0.003512584649
0.003512584142
0.003512584222
0.003512584334
0.003512584465
0.003512584605
0.003512584741
0.003512584861
0.003512584952
0.003512585004
0.003512584569
0.003512584638
0.003512584733
0.003512584846
0.003512584966
0.003512585083
0.003512585185
0.003512585264
0.003512585308
0.003512584935
0.003512584994
0.003512585076
0.003512585173
0.003512585276
0.003512585376
0.003512585464
0.003512585531
0.003512585569
0.003512585249
0.0035125853
0.00351258537
0.003512585453
0.003512585542
0.003512585627
0.003512585703
0.00351258576
0.003512585793
0.003512585519
0.003512585562
0.003512585622
0.003512585694
0.003512585769
0.003512585843
0.003512585908
0.003512585957
0.003512585985
0.00351258575
0.003512585787
0.003512585839
0.0035125859
0.003512585965
0.003512586028
0.003512586083
0.003512586126
0.00351258615
0.003512585948
0.00351258598
0.003512586024
0.003512586077
0.003512586132
0.003512586186
0.003512586234
0.00351258627
0.003512586291
0.003512586118
0.003512586145
0.003512586183
0.003512586228
0.003512586276
0.003512586322
0.003512586363
0.003512586394
0.003512586412
0.003512586264
0.003512586287
0.00351258632
0.003512586358
0.003512586399
0.003512586439
0.003512586474
0.003512586501
0.003512586516
0.003512586388
0.003512586409
0.003512586437
0.00351258647
0.003512586505
0.003512586539
0.003512586569
0.003512586592
0.003512586605
0.003512586496
0.003512586513
0.003512586537
0.003512586565
0.003512586595
0.003512586624
0.00351258665
0.00351258667
0.003512586681
0.003512586587
0.003512586602
0.003512586623
0.003512586647
0.003512586673
0.003512586698
0.00351258672
0.003512586737
0.003512586746
0.003512586666
0.003512586679
0.003512586696
0.003512586717
0.003512586739
0.00351258676
0.003512586779
0.003512586794
0.003512586802
0.003512586733
0.003512586744
0.003512586759
0.003512586777
0.003512586796
0.003512586814
0.00351258683
0.003512586843
0.00351258685
0.003512586791
0.0035125868
0.003512586813
0.003512586828
0.003512586844
0.00351258686
0.003512586874
0.003512586884
0.00351258689
0.00351258684
0.003512586848
0.003512586859
0.003512586872
0.003512586886
0.003512586899
0.003512586911
0.00351258692
0.003512586925
0.003512586882
0.003512586889
0.003512586898
0.003512586909
0.003512586921
0.003512586932
0.003512586942
0.00351258695
0.003512586954
0.003512586918
0.003512586923
0.003512586931
0.003512586941
0.003512586951
0.003512586961
0.003512586969
0.003512586976
0.003512586979
0.003512586948
0.003512586953
0.00351258696
0.003512586968
0.003512586976
0.003512586985
0.003512586992
0.003512586997
0.003512587001
0.003512586974
0.003512586978
0.003512586984
0.003512586991
0.003512586998
0.003512587005
0.003512587011
0.003512587016
0.003512587019
0.003512586996
0.003512587
0.003512587004
0.00351258701
0.003512587016
0.003512587022
0.003512587027
0.003512587031
0.003512587034
0.003512587015
0.003512587018
0.003512587022
0.003512587027
0.003512587032
0.003512587037
0.003512587041
0.003512587045
0.003512587046
0.00351258703
0.003512587033
0.003512587036
0.00351258704
0.003512587045
0.003512587049
0.003512587053
0.003512587055
0.003512587057
0.003512587043
0.003512587046
0.003512587049
0.003512587052
0.003512587056
0.003512587059
0.003512587062
0.003512587065
0.003512587066
0.003512587055
0.003512587056
0.003512587059
0.003512587062
0.003512587065
0.003512587068
0.00351258707
0.003512587072
0.003512587073
0.003512587064
0.003512587065
0.003512587067
0.00351258707
0.003512587072
0.003512587075
0.003512587077
0.003512587078
0.003512587079
0.003512587071
0.003512587073
0.003512587074
0.003512587076
0.003512587078
0.00351258708
0.003512587082
0.003512587083
0.003512587084
0.003512587078
0.003512587079
0.00351258708
0.003512587082
0.003512587083
0.003512587085
0.003512587086
0.003512587087
0.003512587088
0.003512587083
0.003512587084
0.003512587085
0.003512587086
0.003512587087
0.003512587089
0.00351258709
0.003512587091
0.003512587091
0.003512587087
0.003512587088
0.003512587088
0.003512587089
0.003512587091
0.003512587092
0.003512587093
0.003512587093
0.003512587094
0.00351258709
0.003512587091
0.003512587091
0.003512587092
0.003512587093
0.003512587094
0.003512587095
0.003512587095
0.003512587095
0.003512587093
0.003512587093
0.003512587094
0.003512587094
0.003512587095
0.003512587096
0.003512587096
0.003512587097
0.003512587097
0.003512587095
0.003512587095
0.003512587095
0.003512587096
0.003512587096
0.003512587097
0.003512587097
0.003512587098
0.003512587098
0.003512587096
0.003512587096
0.003512587097
0.003512587097
0.003512587097
0.003512587098
0.003512587098
0.003512587098
0.003512587098
0.003512587097
0.003512587097
0.003512587098
0.003512587098
0.003512587098
0.003512587098
0.003512587098
0.003512587099
0.003512587099
0.003512587098
0.003512587098
0.003512587098
0.003512587098
0.003512587098
0.003512587098
0.003512587099
0.003512587099
0.003512587099
0.003512587098
0.003512587098
0.003512587098
0.003512587098
0.003512587098
0.003512587099
0.003512587099
0.003512587099
0.003512587099
0.003512587098
0.003512587098
0.003512587098
0.003512587098
0.003512587098
0.003512587098
0.003512587098
0.003512587098
0.003512587098
0.003512587098
0.003512587098
0.003512587098
0.003512587098
0.003512587098
0.003512587098
0.003512587098
0.003512587098
0.003512587098
0.003512587098
0.003512587098
0.003512587098
0.003512587098
0.003512587098
0.003512587098
0.003512587097
0.003512587097
0.003512587097
0.003512587098
0.003512587098
0.003512587097
0.003512587097
0.003512587097
0.003512587097
0.003512587097
0.003512587097
0.003512587097
0.003512587097
0.003512587097
0.003512587097
0.003512587097
0.003512587097
0.003512587096
0.003512587096
0.003512587096
0.003512587096
0.003512587097
0.003512587096
0.003512587096
0.003512587096
0.003512587096