/*--------------------------------*- C++ -*----------------------------------*\
| =========                 |                                                 |
| \\      /  F ield         | OpenFOAM: The Open Source CFD Toolbox           |
|  \\    /   O peration     | Version:  2212                                  |
|   \\  /    A nd           | Website:  www.openfoam.com                      |
|    \\/     M anipulation  |                                                 |
\*---------------------------------------------------------------------------*/
FoamFile
{
    version     2.0;
    format      ascii;
    arch        "LSB;label=32;scalar=64";
    class       volScalarField;
    location    "20.00000000";
    object      CH3CO_0;
}
// * * * * * * * * * * * * * * * * * * * * * * * * * * * * * * * * * * * * * //

dimensions      [0 0 0 0 0 0 0];

internalField   nonuniform List<scalar> 
3000
(
6.499896546e-43
8.264557305e-43
1.133071029e-42
1.619080339e-42
2.350151833e-42
3.39937604e-42
4.81759168e-42
6.549031795e-42
8.194113345e-42
6.861671118e-42
8.794810968e-42
1.217806612e-41
1.76019985e-41
2.591089312e-41
3.821558643e-41
5.577507798e-41
7.922202347e-41
1.04369382e-40
3.294331395e-41
4.295505934e-41
6.085044693e-41
9.042566001e-41
1.375540214e-40
2.10633945e-40
3.195647924e-40
4.683363132e-40
6.21185902e-40
1.187393311e-40
1.583270274e-40
2.311140194e-40
3.559587012e-40
5.634256748e-40
8.980720207e-40
1.409919675e-39
2.104612613e-39
2.776602352e-39
3.760594806e-40
5.144708731e-40
7.768175091e-40
1.243483913e-39
2.047749879e-39
3.382648081e-39
5.445220068e-39
8.186324368e-39
1.069904869e-38
1.121372468e-39
1.574995476e-39
2.45992971e-39
4.085141678e-39
6.967851394e-39
1.184307075e-38
1.93912466e-38
2.923052003e-38
3.792818888e-38
3.263733327e-39
4.700161032e-39
7.572915483e-39
1.29855862e-38
2.278482857e-38
3.95221577e-38
6.53179183e-38
9.826275378e-38
1.263796797e-37
9.441654296e-39
1.390377432e-38
2.301066601e-38
4.050919323e-38
7.264057272e-38
1.277986628e-37
2.123225963e-37
3.185858865e-37
4.070944749e-37
2.739312989e-38
4.110957648e-38
6.955194853e-38
1.250024082e-37
2.277979597e-37
4.046654865e-37
6.742502992e-37
1.009259482e-36
1.283524845e-36
7.99897268e-38
1.219042726e-37
2.09870445e-37
3.831745872e-37
7.064791674e-37
1.263186423e-36
2.107875612e-36
3.148580414e-36
3.989841142e-36
2.352711565e-37
3.629252537e-37
6.332250082e-37
1.16970079e-36
2.174558124e-36
3.904755695e-36
6.520156259e-36
9.722043845e-36
1.22859115e-35
6.966412837e-37
1.084690012e-36
1.911676012e-36
3.561462753e-36
6.659338441e-36
1.199060128e-35
2.002474745e-35
2.981395987e-35
3.759696309e-35
2.074464795e-36
3.252920863e-36
5.776066075e-36
1.082732139e-35
2.032614806e-35
3.666020117e-35
6.121191866e-35
9.10194802e-35
1.146004923e-34
6.205147492e-36
9.782298342e-36
1.746721095e-35
3.289055678e-35
6.19206017e-35
1.118001852e-34
1.866048552e-34
2.771354259e-34
3.486080065e-34
1.862242216e-35
2.947687144e-35
5.285605637e-35
9.987044505e-35
1.884445493e-34
3.405899167e-34
5.683543925e-34
8.428976329e-34
1.060128451e-33
5.60098987e-35
8.89236756e-35
1.599537758e-34
3.03022407e-34
5.728556513e-34
1.036694298e-33
1.731766558e-33
2.570825222e-33
3.224374692e-33
1.686622465e-34
2.683423517e-34
4.837088695e-34
9.178123798e-34
1.736556171e-33
3.142736858e-33
5.245472776e-33
7.771075245e-33
9.747738001e-33
5.081998797e-34
8.097133285e-34
1.461576372e-33
2.775816428e-33
5.253710972e-33
9.505508698e-33
1.585389847e-32
2.345598686e-32
2.941638673e-32
1.531743672e-33
2.442911035e-33
4.413550683e-33
8.386846224e-33
1.587562532e-32
2.871635933e-32
4.786848878e-32
7.075049058e-32
8.871433608e-32
4.617584045e-33
7.369304079e-33
1.332184138e-32
2.53232793e-32
4.793617657e-32
8.668714232e-32
1.444363395e-31
2.133123377e-31
2.674408041e-31
1.392158786e-32
2.222777841e-32
4.019729647e-32
7.642337828e-32
1.446572829e-31
2.615249946e-31
4.355673208e-31
6.429202089e-31
8.059907054e-31
4.19738379e-32
6.703624611e-32
1.212546022e-31
2.305357136e-31
4.362924533e-31
7.885088547e-31
1.312727527e-30
1.937212893e-30
2.428425084e-30
1.265456187e-31
2.021348537e-31
3.656362259e-31
6.95080212e-31
1.315053066e-30
2.375660156e-30
3.953398182e-30
5.835494516e-30
7.315072922e-30
3.814524049e-31
6.093120082e-31
1.102036695e-30
2.094357678e-30
3.960499425e-30
7.150372961e-30
1.189296416e-29
1.756850032e-29
2.202612235e-29
1.14942036e-30
1.835780343e-30
3.319254041e-30
6.304669551e-30
1.191338505e-29
2.148912399e-29
3.570878939e-29
5.27240713e-29
6.619739812e-29
3.461329301e-30
5.526497098e-30
9.986691986e-30
1.895252623e-29
3.577170483e-29
6.443556132e-29
1.069158436e-28
1.576470719e-28
1.97750421e-28
1.041256655e-29
1.661606335e-29
2.999842579e-29
5.685422704e-29
1.071221089e-28
1.92559584e-28
3.18792414e-28
4.690595005e-28
5.874691368e-28
3.127342848e-29
4.986219051e-29
8.989332207e-29
1.700276127e-28
3.19528371e-28
5.726023133e-28
9.447764294e-28
1.385564414e-27
1.731009521e-27
9.370149847e-29
1.492036171e-28
2.684274745e-28
5.06221893e-28
9.477304957e-28
1.690679765e-27
2.775672089e-27
4.050640489e-27
5.040843668e-27
2.797633823e-28
4.446356336e-28
7.975224788e-28
1.49770494e-27
2.78879547e-27
4.942814221e-27
8.056595904e-27
1.167273384e-26
1.444122373e-26
8.31126056e-28
1.317400188e-27
2.352955579e-27
4.392717451e-27
8.117745854e-27
1.425782775e-26
2.300594333e-26
3.299289584e-26
4.047310399e-26
2.452109148e-27
3.872378891e-27
6.876012033e-27
1.27334519e-26
2.328969637e-26
4.040351114e-26
6.430209911e-26
9.093347193e-26
1.102429176e-25
7.16724386e-27
1.1261599e-26
1.983995054e-26
3.634575337e-26
6.556995733e-26
1.119068273e-25
1.748878314e-25
2.427787905e-25
2.897398405e-25
2.069188528e-26
3.229499308e-26
5.630794336e-26
1.017051542e-25
1.802409193e-25
3.011982281e-25
4.598639854e-25
6.234427779e-25
7.291939192e-25
5.879196765e-26
9.096187842e-26
1.564885263e-25
2.775972488e-25
4.809900189e-25
7.828341464e-25
1.161108935e-24
1.528810667e-24
1.744343616e-24
1.637109471e-25
2.504845529e-25
4.237145756e-25
7.349013275e-25
1.238475019e-24
1.951934558e-24
2.796061297e-24
3.555730356e-24
3.939937287e-24
4.446365997e-25
6.709172224e-25
1.111529097e-24
1.875762722e-24
3.057476737e-24
4.639246774e-24
6.381602161e-24
7.798121871e-24
8.358815297e-24
1.17171327e-24
1.738240815e-24
2.808460007e-24
4.587787612e-24
7.19274708e-24
1.044889683e-23
1.373256717e-23
1.605739888e-23
1.66033983e-23
2.979281251e-24
4.331084311e-24
6.794234664e-24
1.068920717e-23
1.603517236e-23
2.219460624e-23
2.775991628e-23
3.097464882e-23
3.085302016e-23
7.268225135e-24
1.031934088e-23
1.564935259e-23
2.36007365e-23
3.372539337e-23
4.431616722e-23
5.262606955e-23
5.597997945e-23
5.37316379e-23
1.69211809e-23
2.338775589e-23
3.415163276e-23
4.917533224e-23
6.672246787e-23
8.307068487e-23
9.361841987e-23
9.503255331e-23
8.807717626e-23
3.741591503e-23
5.019941666e-23
7.03529359e-23
9.644953735e-23
1.240486083e-22
1.463199146e-22
1.567396039e-22
1.52279157e-22
1.367688169e-22
7.82930319e-23
1.017332503e-22
1.365312278e-22
1.779669788e-22
2.169987705e-22
2.429556048e-22
2.482429203e-22
2.318842986e-22
2.027926439e-22
1.547174891e-22
1.944277189e-22
2.496302238e-22
3.094716252e-22
3.584489537e-22
3.823480348e-22
3.745067708e-22
3.382711374e-22
2.896405359e-22
2.887344787e-22
3.507808983e-22
4.310888497e-22
5.09297969e-22
5.624165091e-22
5.744597509e-22
5.426200191e-22
4.768702176e-22
4.020072314e-22
5.100515552e-22
5.995595823e-22
7.067199466e-22
7.985324027e-22
8.449470925e-22
8.313160932e-22
7.619259886e-22
6.553451591e-22
5.466603964e-22
8.569207083e-22
9.766992786e-22
1.108199511e-21
1.203583172e-21
1.227580576e-21
1.170566285e-21
1.046868089e-21
8.853637925e-22
7.333588666e-22
1.378563816e-21
1.528730948e-21
1.678133648e-21
1.762870668e-21
1.744772139e-21
1.622381836e-21
1.422324986e-21
1.185805756e-21
9.761902216e-22
2.140741826e-21
2.320332715e-21
2.480076249e-21
2.538874016e-21
2.456898583e-21
2.242266496e-21
1.935136642e-21
1.592057472e-21
1.300466849e-21
3.234968224e-21
3.446107549e-21
3.613260906e-21
3.635561108e-21
3.470146767e-21
3.133773327e-21
2.681326114e-21
2.19237044e-21
1.795642992e-21
4.790039897e-21
5.044746514e-21
5.229888991e-21
5.21918545e-21
4.962384524e-21
4.485404783e-21
3.873158978e-21
3.278653372e-21
2.821274624e-21
6.983338887e-21
7.31313222e-21
7.553130296e-21
7.542012467e-21
7.220054272e-21
6.653369417e-21
6.072915196e-21
5.488044027e-21
4.942417305e-21
1.004985233e-20
1.052113608e-20
1.09045272e-20
1.099929e-20
1.078256787e-20
1.063416099e-20
1.038792954e-20
9.926404353e-21
9.300292128e-21
1.429576852e-20
1.504750356e-20
1.580905395e-20
1.643864532e-20
1.730994137e-20
1.816627218e-20
1.873684274e-20
1.874788384e-20
1.816880425e-20
2.021303183e-20
2.160810218e-20
2.362896953e-20
2.625932238e-20
2.923899043e-20
3.219888045e-20
3.462373894e-20
3.58812347e-20
3.566692233e-20
2.947104479e-20
3.28871944e-20
3.780718786e-20
4.39645618e-20
5.092732768e-20
5.800401156e-20
6.409103885e-20
6.773034421e-20
6.809904416e-20
4.678103646e-20
5.357969794e-20
6.347955194e-20
7.597502367e-20
9.022706642e-20
1.047139355e-19
1.168869069e-19
1.23638997e-19
1.238874914e-19
7.884681855e-20
9.157286051e-20
1.102903296e-19
1.340511262e-19
1.609661672e-19
1.873992217e-19
2.078163292e-19
2.170540238e-19
2.153599118e-19
1.387334228e-19
1.61896951e-19
1.96009646e-19
2.388953454e-19
2.85934912e-19
3.29154197e-19
3.589984651e-19
3.695652316e-19
3.643929009e-19
2.50897369e-19
2.917888823e-19
3.512458741e-19
4.238365054e-19
4.994860322e-19
5.6436512e-19
6.060545514e-19
6.194062715e-19
6.112333167e-19
4.570448182e-19
5.256856978e-19
6.231161696e-19
7.377914568e-19
8.525294724e-19
9.485988571e-19
1.011674295e-18
1.035958554e-18
1.029803737e-18
8.190542995e-19
9.276562037e-19
1.078770546e-18
1.253487494e-18
1.42825095e-18
1.579645464e-18
1.688913189e-18
1.746538563e-18
1.759124474e-18
1.422110524e-18
1.588743473e-18
1.820588755e-18
2.092082672e-18
2.372994103e-18
2.632258861e-18
2.843158716e-18
2.98951267e-18
3.067238525e-18
2.396435538e-18
2.656181217e-18
3.023424761e-18
3.465986958e-18
3.944971569e-18
4.419148862e-18
4.852442336e-18
5.218218906e-18
5.477025281e-18
3.964839599e-18
4.384566105e-18
4.99033841e-18
5.743795278e-18
6.598070489e-18
7.503846948e-18
8.41863805e-18
9.297721561e-18
1.00036891e-17
6.506088633e-18
7.205787433e-18
8.237021814e-18
9.561083765e-18
1.113206949e-17
1.290533147e-17
1.484294892e-17
1.686186885e-17
1.858146185e-17
1.064851565e-17
1.184119218e-17
1.363597814e-17
1.601298393e-17
1.895532498e-17
2.245718264e-17
2.650759988e-17
3.093055692e-17
3.479068744e-17
1.742768074e-17
1.949115646e-17
2.265985674e-17
2.698021129e-17
3.252983658e-17
3.941329805e-17
4.76793695e-17
5.692282754e-17
6.503171116e-17
2.854666542e-17
3.214798714e-17
3.778289257e-17
4.566470721e-17
5.609705555e-17
6.942391201e-17
8.57833165e-17
1.042327857e-16
1.203207007e-16
4.68002747e-17
5.310267048e-17
6.312517723e-17
7.743916328e-17
9.681144737e-17
1.220320692e-16
1.533164705e-16
1.885501969e-16
2.188922312e-16
7.675329999e-17
8.77458944e-17
1.054547008e-16
1.311421029e-16
1.664297849e-16
2.128509423e-16
2.705677343e-16
3.350917662e-16
3.897735174e-16
1.257999099e-16
1.447983359e-16
1.756913969e-16
2.209697167e-16
2.837076667e-16
3.665636279e-16
4.692658907e-16
5.828428477e-16
6.774113366e-16
2.057698632e-16
2.381378161e-16
2.910788041e-16
3.691186007e-16
4.776308046e-16
6.208288127e-16
7.971822421e-16
9.897847867e-16
1.147307496e-15
3.352783915e-16
3.89411703e-16
4.781921774e-16
6.093105971e-16
7.915498776e-16
1.031066712e-15
1.323550997e-15
1.638728882e-15
1.891820447e-15
5.430241231e-16
6.316164811e-16
7.769240177e-16
9.912749966e-16
1.288201224e-15
1.676016918e-15
2.144830923e-15
2.642914332e-15
3.036022523e-15
8.722025328e-16
1.013774258e-15
1.245515768e-15
1.586158091e-15
2.055486372e-15
2.663287459e-15
3.389767063e-15
4.151072645e-15
4.742333633e-15
1.386103016e-15
1.606720088e-15
1.966603751e-15
2.492710268e-15
3.211793357e-15
4.133995277e-15
5.223619939e-15
6.350470603e-15
7.212721319e-15
2.174858015e-15
2.509850083e-15
3.053339613e-15
3.842046139e-15
4.910412846e-15
6.266338379e-15
7.849826926e-15
9.466700755e-15
1.068709524e-14
3.361503005e-15
3.856261804e-15
4.654008807e-15
5.802254128e-15
7.34254498e-15
9.27615622e-15
1.150789936e-14
1.375890259e-14
1.543660677e-14
5.1069306e-15
5.817767772e-15
6.956187606e-15
8.580367645e-15
1.073669799e-14
1.341324731e-14
1.646628592e-14
1.950932124e-14
2.175091123e-14
7.613651054e-15
8.607231782e-15
1.018708393e-14
1.242019543e-14
1.535330578e-14
1.895222994e-14
2.300927527e-14
2.700661809e-14
2.991907832e-14
1.112503412e-14
1.247631592e-14
1.460898798e-14
1.759470746e-14
2.147341271e-14
2.617715939e-14
3.141759968e-14
3.652306455e-14
4.020463916e-14
1.591900664e-14
1.770740163e-14
2.0508567e-14
2.439199161e-14
2.938082159e-14
3.535975541e-14
4.19430817e-14
4.828642997e-14
5.281595938e-14
2.22950439e-14
2.459871199e-14
2.817932339e-14
3.309448422e-14
3.933784222e-14
4.673177147e-14
5.477810225e-14
6.244748743e-14
6.787333899e-14
3.055398687e-14
3.344242008e-14
3.789737365e-14
4.395208785e-14
5.155568632e-14
6.045270216e-14
7.002046467e-14
7.90421316e-14
8.537441026e-14
4.097109081e-14
4.449643893e-14
4.989167942e-14
5.715089029e-14
6.616193838e-14
7.657580077e-14
8.763479325e-14
9.793349478e-14
1.050606499e-13
5.376355442e-14
5.795138951e-14
6.431061007e-14
7.278005075e-14
8.316948528e-14
9.502300992e-14
1.074434816e-13
1.18851212e-13
1.266815478e-13
6.905427808e-14
7.389453091e-14
8.118644283e-14
9.07975517e-14
1.024445193e-13
1.155572021e-13
1.291008405e-13
1.41440455e-13
1.498601068e-13
8.683347783e-14
9.227236422e-14
1.003995687e-13
1.109964288e-13
1.236739998e-13
1.377665299e-13
1.522078605e-13
1.652620878e-13
1.741115779e-13
1.06918343e-13
1.128527514e-13
1.21645024e-13
1.329812329e-13
1.464190484e-13
1.61231769e-13
1.76277448e-13
1.897656673e-13
1.988480814e-13
1.289089102e-13
1.351874034e-13
1.444375289e-13
1.562889077e-13
1.702132863e-13
1.854171036e-13
2.007140442e-13
2.143105421e-13
2.234044392e-13
1.523101494e-13
1.588040908e-13
1.683146888e-13
1.804055634e-13
1.944785895e-13
2.096910615e-13
2.248471513e-13
2.382026651e-13
2.470769762e-13
1.766157784e-13
1.831634522e-13
1.926917906e-13
2.047041256e-13
2.185494371e-13
2.333615526e-13
2.479725326e-13
2.607380392e-13
2.691675609e-13
2.011894238e-13
2.076084579e-13
2.168874517e-13
2.284834978e-13
2.4171442e-13
2.557200353e-13
2.693974406e-13
2.812474018e-13
2.890272706e-13
2.253069617e-13
2.314091646e-13
2.401688822e-13
2.510165152e-13
2.63264152e-13
2.760881555e-13
2.884848574e-13
2.99137456e-13
3.06095202e-13
2.482100632e-13
2.538160103e-13
2.618040143e-13
2.716005621e-13
2.825389647e-13
2.938613382e-13
3.046922272e-13
3.139248069e-13
3.199290072e-13
2.691622312e-13
2.741141341e-13
2.81112964e-13
2.896050894e-13
2.989712527e-13
3.085450228e-13
3.176012512e-13
3.252599275e-13
3.302249781e-13
2.875010612e-13
2.916728693e-13
2.975133113e-13
3.045113629e-13
3.121185972e-13
3.197805493e-13
3.269366406e-13
3.32939817e-13
3.368268249e-13
3.02681758e-13
3.059858034e-13
3.105551011e-13
3.15941107e-13
3.216851991e-13
3.273591341e-13
3.325731182e-13
3.369092969e-13
3.39723478e-13
3.143083066e-13
3.166982191e-13
3.199429903e-13
3.236722465e-13
3.27530666e-13
3.312237903e-13
3.345312283e-13
3.372521348e-13
3.390375037e-13
3.221503493e-13
3.236204068e-13
3.255446266e-13
3.276415071e-13
3.296666149e-13
3.314603529e-13
3.329637058e-13
3.341739854e-13
3.350061511e-13
3.261455651e-13
3.267269963e-13
3.273858944e-13
3.279351168e-13
3.282429052e-13
3.282797638e-13
3.281346789e-13
3.279795788e-13
3.279575768e-13
3.263890668e-13
3.261441298e-13
3.256352004e-13
3.247699894e-13
3.235259833e-13
3.219942113e-13
3.20394407e-13
3.190468059e-13
3.182847955e-13
3.231125219e-13
3.221272165e-13
3.205795712e-13
3.18468267e-13
3.158722877e-13
3.129900001e-13
3.10152223e-13
3.078001549e-13
3.064196538e-13
3.166563008e-13
3.15032599e-13
3.12595885e-13
3.094284105e-13
3.056996655e-13
3.016998067e-13
2.978500267e-13
2.946855584e-13
2.928086926e-13
3.074382171e-13
3.052865591e-13
3.02120448e-13
2.980957645e-13
2.93459389e-13
2.885765384e-13
2.839381777e-13
2.801481861e-13
2.778922336e-13
2.959220749e-13
2.933546906e-13
2.896196681e-13
2.849350103e-13
2.796107982e-13
2.740704244e-13
2.68855052e-13
2.646141521e-13
2.620874823e-13
2.825886109e-13
2.797140189e-13
2.755639156e-13
2.704062441e-13
2.645999353e-13
2.586103446e-13
2.530109493e-13
2.484765802e-13
2.457759449e-13
2.679106323e-13
2.648294744e-13
2.604059096e-13
2.549457145e-13
2.488428879e-13
2.425898183e-13
2.367765271e-13
2.320860207e-13
2.292950575e-13
2.523333519e-13
2.491355606e-13
2.445642596e-13
2.389516071e-13
2.327139938e-13
2.263575956e-13
2.204755375e-13
2.157448823e-13
2.129336277e-13
2.362602209e-13
2.330234005e-13
2.284121908e-13
2.227747437e-13
2.165386198e-13
2.102124402e-13
2.043813648e-13
1.997053203e-13
1.969305089e-13
2.200440005e-13
2.168328337e-13
2.122710401e-13
2.067136926e-13
2.00589939e-13
1.944014704e-13
1.887167016e-13
1.841699128e-13
1.814758415e-13
2.039824475e-13
2.008489033e-13
1.964078259e-13
1.910135645e-13
1.850889621e-13
1.791213207e-13
1.736556426e-13
1.692944267e-13
1.667141851e-13
1.883177717e-13
1.853018966e-13
1.810360583e-13
1.758676761e-13
1.702070363e-13
1.645213739e-13
1.593274938e-13
1.551920193e-13
1.527489165e-13
1.732389628e-13
1.703700487e-13
1.663189344e-13
1.614212703e-13
1.560700536e-13
1.507083689e-13
1.458216637e-13
1.419382937e-13
1.396473518e-13
1.588861108e-13
1.561840719e-13
1.523741238e-13
1.477765563e-13
1.427636992e-13
1.377517844e-13
1.331931036e-13
1.295767342e-13
1.274461488e-13
1.453559514e-13
1.428327724e-13
1.392794605e-13
1.34998448e-13
1.303391873e-13
1.256895155e-13
1.214678778e-13
1.181241495e-13
1.16156652e-13
1.327079958e-13
1.303691548e-13
1.270789885e-13
1.231205078e-13
1.188190541e-13
1.145334739e-13
1.10648549e-13
1.075758573e-13
1.057699381e-13
1.209707576e-13
1.188165529e-13
1.157889458e-13
1.121507312e-13
1.082026982e-13
1.042748557e-13
1.007191713e-13
9.791043126e-14
9.626140452e-14
1.10147719e-13
1.081744616e-13
1.054033969e-13
1.020769261e-13
9.847146767e-14
9.488891204e-14
9.164975076e-14
8.909390762e-14
8.759481369e-14
1.002228099e-13
9.84238618e-14
9.589933399e-14
9.287153241e-14
8.959315908e-14
8.633912696e-14
8.340012595e-14
8.108341185e-14
7.972576179e-14
9.116526002e-14
8.953190918e-14
8.724113516e-14
8.449580433e-14
8.152590029e-14
7.858078876e-14
7.592324621e-14
7.383020024e-14
7.260457559e-14
8.29337674e-14
8.145595008e-14
7.938436502e-14
7.690334878e-14
7.422140054e-14
7.156395251e-14
6.916787121e-14
6.72821476e-14
6.617867191e-14
7.547998922e-14
7.414687019e-14
7.227892426e-14
7.004303693e-14
6.762760445e-14
6.523583869e-14
6.308073829e-14
6.138573013e-14
6.03944298e-14
6.875138765e-14
6.755181446e-14
6.587159384e-14
6.386133949e-14
6.169080351e-14
5.95427244e-14
5.760825562e-14
5.608756209e-14
5.519863414e-14
6.269349032e-14
6.161633904e-14
6.01080363e-14
5.830414993e-14
5.635726959e-14
5.443139157e-14
5.269778517e-14
5.133554906e-14
5.05395523e-14
5.725163674e-14
5.628606651e-14
5.493432494e-14
5.331816534e-14
5.15744788e-14
4.985019834e-14
4.829857897e-14
4.707971904e-14
4.63677037e-14
5.237228541e-14
5.150791819e-14
5.029807297e-14
4.885189479e-14
4.729199254e-14
4.574983738e-14
4.436242946e-14
4.327278932e-14
4.263637807e-14
4.80039547e-14
4.723099484e-14
4.614923152e-14
4.4856361e-14
4.346205827e-14
4.208383989e-14
4.08440889e-14
3.987052091e-14
3.93019524e-14
4.409786494e-14
4.340717136e-14
4.244061963e-14
4.128555507e-14
4.003998582e-14
3.880887728e-14
3.77015063e-14
3.683190621e-14
3.632405039e-14
4.060834215e-14
3.999146416e-14
3.91282418e-14
3.809669667e-14
3.698434817e-14
3.588490572e-14
3.489592363e-14
3.411922871e-14
3.366558149e-14
3.749303567e-14
3.694222139e-14
3.617144109e-14
3.525034439e-14
3.425704795e-14
3.32751916e-14
3.239186628e-14
3.169802734e-14
3.129269055e-14
3.47129941e-14
3.422117888e-14
3.353292808e-14
3.271039398e-14
3.182328433e-14
3.094624937e-14
3.015705652e-14
2.9536992e-14
2.91746435e-14
3.223263597e-14
3.179341679e-14
3.117871868e-14
3.044399489e-14
2.965144823e-14
2.886771729e-14
2.816227325e-14
2.760781178e-14
2.728366937e-14
3.001964516e-14
2.96272457e-14
2.90780077e-14
2.842140999e-14
2.771296843e-14
2.701219153e-14
2.638117641e-14
2.588499276e-14
2.559477469e-14
2.804481469e-14
2.769404457e-14
2.72029994e-14
2.661583806e-14
2.598212637e-14
2.535503443e-14
2.479011054e-14
2.434565853e-14
2.408554261e-14
2.628185759e-14
2.596806864e-14
2.552871158e-14
2.500321396e-14
2.443585305e-14
2.387416911e-14
2.336789811e-14
2.296934327e-14
2.273592623e-14
2.470719909e-14
2.442624059e-14
2.403276558e-14
2.356199801e-14
2.305351835e-14
2.254986962e-14
2.209563109e-14
2.173778485e-14
2.152804284e-14
2.329976056e-14
2.304793494e-14
2.269517184e-14
2.227296311e-14
2.181672058e-14
2.136455329e-14
2.095646633e-14
2.063472314e-14
2.044597417e-14
2.204074377e-14
2.181476394e-14
2.149811798e-14
2.111898604e-14
2.070908144e-14
2.030257986e-14
1.993542906e-14
1.96457071e-14
1.947557584e-14
2.091342084e-14
2.071036953e-14
2.042576402e-14
2.00848467e-14
1.971605012e-14
1.935006083e-14
1.901922706e-14
1.875791323e-14
1.860429839e-14
1.990293333e-14
1.97202251e-14
1.946404791e-14
1.915703839e-14
1.882471896e-14
1.849468062e-14
1.819607726e-14
1.795997653e-14
1.782102093e-14
1.899610321e-14
1.883144935e-14
1.860050345e-14
1.832359081e-14
1.802365204e-14
1.772553103e-14
1.745554558e-14
1.724183469e-14
1.711589805e-14
1.818125733e-14
1.803263354e-14
1.782409171e-14
1.757390651e-14
1.730272734e-14
1.703295912e-14
1.678840009e-14
1.659458567e-14
1.648021991e-14
1.744806561e-14
1.731368267e-14
1.712504632e-14
1.68986112e-14
1.665299252e-14
1.640842854e-14
1.618647757e-14
1.601035832e-14
1.590628541e-14
1.67873934e-14
1.666567064e-14
1.649473252e-14
1.628941762e-14
1.606653404e-14
1.584439399e-14
1.564256273e-14
1.548219553e-14
1.538728762e-14
1.619116751e-14
1.608070882e-14
1.592551959e-14
1.573900244e-14
1.553635903e-14
1.533418799e-14
1.515027959e-14
1.500394918e-14
1.49172109e-14
1.565225526e-14
1.555182772e-14
1.541066587e-14
1.524089555e-14
1.505628917e-14
1.487191944e-14
1.470399418e-14
1.457018618e-14
1.449073886e-14
1.516435599e-14
1.507287068e-14
1.494421582e-14
1.478938098e-14
1.462086582e-14
1.445238288e-14
1.429872759e-14
1.417610458e-14
1.410317227e-14
1.472190391e-14
1.463839894e-14
1.452090795e-14
1.437940839e-14
1.422526539e-14
1.407097774e-14
1.393007874e-14
1.3817459e-14
1.375035613e-14
1.431998164e-14
1.424360699e-14
1.413609292e-14
1.400651439e-14
1.386522412e-14
1.372363654e-14
1.359415571e-14
1.349049449e-14
1.342861495e-14
1.395424331e-14
1.388424745e-14
1.378566082e-14
1.366675273e-14
1.353697144e-14
1.340676141e-14
1.328751501e-14
1.3191888e-14
1.313469555e-14
1.36208464e-14
1.355656448e-14
1.346597676e-14
1.335663252e-14
1.323717098e-14
1.311716786e-14
1.300710792e-14
1.291869672e-14
1.286571648e-14
1.331639149e-14
1.325723492e-14
1.317382397e-14
1.307306364e-14
1.296286852e-14
1.285203525e-14
1.275023315e-14
1.266831242e-14
1.261912346e-14
1.303786908e-14
1.298331632e-14
1.290635359e-14
1.281330859e-14
1.27114461e-14
1.260886305e-14
1.251449515e-14
1.24384214e-14
1.239265021e-14
1.27826127e-14
1.273220121e-14
1.266104044e-14
1.257494018e-14
1.248058163e-14
1.238543247e-14
1.229776743e-14
1.222696912e-14
1.21842839e-14
1.254825768e-14
1.250157681e-14
1.243564415e-14
1.235580419e-14
1.226821337e-14
1.217977266e-14
1.209816036e-14
1.203212925e-14
1.199223487e-14
1.233270488e-14
1.228938962e-14
1.222817494e-14
1.215398672e-14
1.20725088e-14
1.199013107e-14
1.191399284e-14
1.185227643e-14
1.181491005e-14
1.213408883e-14
1.209381439e-14
1.203686364e-14
1.196778535e-14
1.189183718e-14
1.181494738e-14
1.174376752e-14
1.168596239e-14
1.165088959e-14
1.195074983e-14
1.191322681e-14
1.186013536e-14
1.179568402e-14
1.172474557e-14
1.165283075e-14
1.158614902e-14
1.1531895e-14
1.149890643e-14
1.178120943e-14
1.174617965e-14
1.169658642e-14
1.163633091e-14
1.156993784e-14
1.150253974e-14
1.143994487e-14
1.138891994e-14
1.135782836e-14
1.162414894e-14
1.159138174e-14
1.154496408e-14
1.148851905e-14
1.142625614e-14
1.136296486e-14
1.130408875e-14
1.125600461e-14
1.12266423e-14
1.147839063e-14
1.144767967e-14
1.140414886e-14
1.135116936e-14
1.129266481e-14
1.123311313e-14
1.117762587e-14
1.113222402e-14
1.110444053e-14
1.134288123e-14
1.131404163e-14
1.127313895e-14
1.122331579e-14
1.116823618e-14
1.111209465e-14
1.105970016e-14
1.101674844e-14
1.099040862e-14
1.121667748e-14
1.118954337e-14
1.115103664e-14
1.110409226e-14
1.105213819e-14
1.099911082e-14
1.094954292e-14
1.090883258e-14
1.088381481e-14
1.109893344e-14
1.107335582e-14
1.10370364e-14
1.099272128e-14
1.094362346e-14
1.089344395e-14
1.084646306e-14
1.080780606e-14
1.078400078e-14
1.098888944e-14
1.096473423e-14
1.093041435e-14
1.088850386e-14
1.08420198e-14
1.079444819e-14
1.074983835e-14
1.071306513e-14
1.069037345e-14
1.088586226e-14
1.086300867e-14
1.083051912e-14
1.079081078e-14
1.074672177e-14
1.07015416e-14
1.065910785e-14
1.062406528e-14
1.060239786e-14
1.078923662e-14
1.076757568e-14
1.073676376e-14
1.069907479e-14
1.065718337e-14
1.061419907e-14
1.057376524e-14
1.054031483e-14
1.051959087e-14
1.069845761e-14
1.067789088e-14
1.064861864e-14
1.061278385e-14
1.057291149e-14
1.05319462e-14
1.049335286e-14
1.046136929e-14
1.044151559e-14
1.061302404e-14
1.059346248e-14
1.056560513e-14
1.053147508e-14
1.04934602e-14
1.045435377e-14
1.041745656e-14
1.038682627e-14
1.036777651e-14
1.05324825e-14
1.051384553e-14
1.048729007e-14
1.045472939e-14
1.041842561e-14
1.038103297e-14
1.034570103e-14
1.031632108e-14
1.029801512e-14
1.045642213e-14
1.04386367e-14
1.041328073e-14
1.038216671e-14
1.034744133e-14
1.031163093e-14
1.027774562e-14
1.024952268e-14
1.0231906e-14
1.038446982e-14
1.036746967e-14
1.034322027e-14
1.031344162e-14
1.028017428e-14
1.02458268e-14
1.021328055e-14
1.018613002e-14
1.016915323e-14
1.03162858e-14
1.030001078e-14
1.027678363e-14
1.024823933e-14
1.02163208e-14
1.018332802e-14
1.015202332e-14
1.012586859e-14
1.010948701e-14
1.02515596e-14
1.023595504e-14
1.021367351e-14
1.01862718e-14
1.015560294e-14
1.012386673e-14
1.009371525e-14
1.006848705e-14
1.005266037e-14
1.019000601e-14
1.017502218e-14
1.015361657e-14
1.012727404e-14
1.009776481e-14
1.006719615e-14
1.003811796e-14
1.001375378e-14
9.998445774e-15
1.013136117e-14
1.011695271e-14
1.009635949e-14
1.007100019e-14
1.00425687e-14
1.001308684e-14
9.985009626e-15
9.961453175e-15
9.946631401e-15
1.007537843e-14
1.006150381e-14
1.004166487e-14
1.001721939e-14
9.989790973e-15
9.961322453e-15
9.934180762e-15
9.911381388e-15
9.897016927e-15
1.002182395e-14
1.000844489e-14
9.989306719e-15
9.965711221e-15
9.939217359e-15
9.911695036e-15
9.885429343e-15
9.86334138e-15
9.849408473e-15
9.970471789e-15
9.957552628e-15
9.939065368e-15
9.916260486e-15
9.890637576e-15
9.863999361e-15
9.838554976e-15
9.817136885e-15
9.803612468e-15
9.921098382e-15
9.908605286e-15
9.890721662e-15
9.868651113e-15
9.843838957e-15
9.818026261e-15
9.793351872e-15
9.772565079e-15
9.759428104e-15
9.873476201e-15
9.861376233e-15
9.84405018e-15
9.822659077e-15
9.798598943e-15
9.773554645e-15
9.749600378e-15
9.729407661e-15
9.716638113e-15
9.827366464e-15
9.815626418e-15
9.798811387e-15
9.778044094e-15
9.754676243e-15
9.730342045e-15
9.707056872e-15
9.687420142e-15
9.674997647e-15
9.782510785e-15
9.771095751e-15
9.754742597e-15
9.734540034e-15
9.711800563e-15
9.688113564e-15
9.665441894e-15
9.646319222e-15
9.634221112e-15
9.738621736e-15
9.727493328e-15
9.7115477e-15
9.691843993e-15
9.66966088e-15
9.646549234e-15
9.624426521e-15
9.60576824e-15
9.593966988e-15
9.695372319e-15
9.684486539e-15
9.668885718e-15
9.649604102e-15
9.627892348e-15
9.605269885e-15
9.583617139e-15
9.565360911e-15
9.553820818e-15
9.652384491e-15
9.641689196e-15
9.626358333e-15
9.60740629e-15
9.586062101e-15
9.563821845e-15
9.542538964e-15
9.524603724e-15
9.51327682e-15
9.609216982e-15
9.598648961e-15
9.583496736e-15
9.564760339e-15
9.54365436e-15
9.521660955e-15
9.500618886e-15
9.482897679e-15
9.471718817e-15
9.565352788e-15
9.554834485e-15
9.539748222e-15
9.521085792e-15
9.500055483e-15
9.47813664e-15
9.457168491e-15
9.4395203e-15
9.428401516e-15
9.520186886e-15
9.509622839e-15
9.494463218e-15
9.475698435e-15
9.454539803e-15
9.432477007e-15
9.411368363e-15
9.393609164e-15
9.382433477e-15
9.473014861e-15
9.462287992e-15
9.446883546e-15
9.427798293e-15
9.406257312e-15
9.383776176e-15
9.362255047e-15
9.3441485e-15
9.332763419e-15
9.423023318e-15
9.411991267e-15
9.396132934e-15
9.376460264e-15
9.354224465e-15
9.33098531e-15
9.308712306e-15
9.289960653e-15
9.278171799e-15
9.369283105e-15
9.35777484e-15
9.341210984e-15
9.320628698e-15
9.297319544e-15
9.272908928e-15
9.249468499e-15
9.229704433e-15
9.217269833e-15
9.310746453e-15
9.298559488e-15
9.280991832e-15
9.259117325e-15
9.234284202e-15
9.208208322e-15
9.18310199e-15
9.16188247e-15
9.148508195e-15
9.246249291e-15
9.233147852e-15
9.214228894e-15
9.190616011e-15
9.163732722e-15
9.13541378e-15
9.108056601e-15
9.084859679e-15
9.070197631e-15
9.17451998e-15
9.160234554e-15
9.139567077e-15
9.113705793e-15
9.0841706e-15
9.052947304e-15
9.022668792e-15
8.996894711e-15
8.980543431e-15
9.094195664e-15
9.078424345e-15
9.055563684e-15
9.026883487e-15
8.994023749e-15
8.959157177e-15
8.925208016e-15
8.896185823e-15
8.877695222e-15
9.003847264e-15
8.986259342e-15
8.960719053e-15
8.928596861e-15
8.891679292e-15
8.852365275e-15
8.813931029e-15
8.780931841e-15
8.759812685e-15
8.90201389e-15
8.882256064e-15
8.853517545e-15
8.817290901e-15
8.775538308e-15
8.730927278e-15
8.687150081e-15
8.64940791e-15
8.62514669e-15
8.787246981e-15
8.764952479e-15
8.73247899e-15
8.691465024e-15
8.64408009e-15
8.593304969e-15
8.54331375e-15
8.500054359e-15
8.472133856e-15
8.65816393e-15
8.632964693e-15
8.596219916e-15
8.549740263e-15
8.495936485e-15
8.438148651e-15
8.381097783e-15
8.331575386e-15
8.299500768e-15
8.513510189e-15
8.485052035e-15
8.44352304e-15
8.390934392e-15
8.329973683e-15
8.264386264e-15
8.19950172e-15
8.143042514e-15
8.106372172e-15
8.352227966e-15
8.320188376e-15
8.273412381e-15