/*--------------------------------*- C++ -*----------------------------------*\
| =========                 |                                                 |
| \\      /  F ield         | OpenFOAM: The Open Source CFD Toolbox           |
|  \\    /   O peration     | Version:  2212                                  |
|   \\  /    A nd           | Website:  www.openfoam.com                      |
|    \\/     M anipulation  |                                                 |
\*---------------------------------------------------------------------------*/
FoamFile
{
    version     2.0;
    format      ascii;
    arch        "LSB;label=32;scalar=64";
    class       volScalarField;
    location    "20.00000000";
    object      CH3COCH3_0;
}
// * * * * * * * * * * * * * * * * * * * * * * * * * * * * * * * * * * * * * //

dimensions      [0 0 0 0 0 0 0];

internalField   nonuniform List<scalar> 
3000
(
0.01368422948
0.01368422948
0.01368422948
0.01368422948
0.01368422948
0.01368422948
0.01368422948
0.01368422948
0.01368422948
0.01368422948
0.01368422948
0.01368422948
0.01368422948
0.01368422948
0.01368422948
0.01368422948
0.01368422948
0.01368422948
0.01368422948
0.01368422948
0.01368422948
0.01368422948
0.01368422948
0.01368422948
0.01368422948
0.01368422948
0.01368422948
0.01368422948
0.01368422948
0.01368422948
0.01368422948
0.01368422948
0.01368422948
0.01368422948
0.01368422948
0.01368422948
0.01368422948
0.01368422948
0.01368422948
0.01368422948
0.01368422948
0.01368422948
0.01368422948
0.01368422948
0.01368422948
0.01368422948
0.01368422948
0.01368422948
0.01368422948
0.01368422948
0.01368422948
0.01368422948
0.01368422948
0.01368422948
0.01368422948
0.01368422948
0.01368422948
0.01368422948
0.01368422948
0.01368422948
0.01368422948
0.01368422948
0.01368422948
0.01368422948
0.01368422948
0.01368422948
0.01368422948
0.01368422948
0.01368422948
0.01368422948
0.01368422948
0.01368422948
0.01368422948
0.01368422948
0.01368422948
0.01368422948
0.01368422948
0.01368422948
0.01368422948
0.01368422948
0.01368422948
0.01368422948
0.01368422948
0.01368422948
0.01368422948
0.01368422948
0.01368422948
0.01368422948
0.01368422948
0.01368422948
0.01368422948
0.01368422948
0.01368422948
0.01368422948
0.01368422948
0.01368422948
0.01368422948
0.01368422948
0.01368422948
0.01368422948
0.01368422948
0.01368422948
0.01368422948
0.01368422948
0.01368422948
0.01368422948
0.01368422948
0.01368422948
0.01368422948
0.01368422948
0.01368422948
0.01368422948
0.01368422948
0.01368422948
0.01368422948
0.01368422948
0.01368422948
0.01368422948
0.01368422948
0.01368422948
0.01368422948
0.01368422948
0.01368422948
0.01368422948
0.01368422948
0.01368422948
0.01368422948
0.01368422948
0.01368422948
0.01368422948
0.01368422948
0.01368422948
0.01368422948
0.01368422948
0.01368422948
0.01368422948
0.01368422948
0.01368422948
0.01368422948
0.01368422948
0.01368422948
0.01368422948
0.01368422948
0.01368422948
0.01368422948
0.01368422948
0.01368422948
0.01368422948
0.01368422948
0.01368422948
0.01368422948
0.01368422948
0.01368422948
0.01368422948
0.01368422948
0.01368422948
0.01368422948
0.01368422948
0.01368422948
0.01368422948
0.01368422948
0.01368422948
0.01368422948
0.01368422948
0.01368422948
0.01368422948
0.01368422948
0.01368422948
0.01368422948
0.01368422948
0.01368422948
0.01368422948
0.01368422948
0.01368422948
0.01368422948
0.01368422948
0.01368422948
0.01368422948
0.01368422948
0.01368422948
0.01368422948
0.01368422948
0.01368422948
0.01368422948
0.01368422948
0.01368422948
0.01368422948
0.01368422948
0.01368422948
0.01368422948
0.01368422948
0.01368422948
0.01368422948
0.01368422948
0.01368422948
0.01368422948
0.01368422948
0.01368422948
0.01368422948
0.01368422948
0.01368422948
0.01368422948
0.01368422948
0.01368422948
0.01368422948
0.01368422948
0.01368422948
0.01368422948
0.01368422948
0.01368422948
0.01368422948
0.01368422948
0.01368422948
0.01368422948
0.01368422948
0.01368422948
0.01368422948
0.01368422948
0.01368422948
0.01368422948
0.01368422948
0.01368422948
0.01368422948
0.01368422948
0.01368422948
0.01368422948
0.01368422948
0.01368422948
0.01368422948
0.01368422948
0.01368422948
0.01368422948
0.01368422948
0.01368422948
0.01368422948
0.01368422948
0.01368422948
0.01368422948
0.01368422948
0.01368422948
0.01368422947
0.01368422947
0.01368422947
0.01368422948
0.01368422948
0.01368422948
0.01368422948
0.01368422947
0.01368422947
0.01368422947
0.01368422947
0.01368422947
0.01368422948
0.01368422948
0.01368422947
0.01368422947
0.01368422947
0.01368422947
0.01368422947
0.01368422947
0.01368422947
0.01368422947
0.01368422947
0.01368422947
0.01368422947
0.01368422947
0.01368422947
0.01368422947
0.01368422947
0.01368422947
0.01368422947
0.01368422947
0.01368422947
0.01368422947
0.01368422947
0.01368422947
0.01368422946
0.01368422946
0.01368422946
0.01368422947
0.01368422947
0.01368422947
0.01368422947
0.01368422946
0.01368422946
0.01368422945
0.01368422945
0.01368422945
0.01368422947
0.01368422947
0.01368422946
0.01368422946
0.01368422945
0.01368422945
0.01368422944
0.01368422943
0.01368422943
0.01368422946
0.01368422946
0.01368422946
0.01368422945
0.01368422944
0.01368422943
0.01368422941
0.0136842294
0.01368422939
0.01368422946
0.01368422945
0.01368422944
0.01368422943
0.01368422941
0.01368422939
0.01368422937
0.01368422934
0.01368422933
0.01368422944
0.01368422943
0.01368422942
0.0136842294
0.01368422937
0.01368422933
0.01368422929
0.01368422925
0.01368422922
0.01368422942
0.0136842294
0.01368422938
0.01368422934
0.01368422929
0.01368422923
0.01368422916
0.01368422909
0.01368422905
0.01368422937
0.01368422935
0.0136842293
0.01368422924
0.01368422916
0.01368422905
0.01368422893
0.01368422882
0.01368422875
0.0136842293
0.01368422926
0.01368422918
0.01368422907
0.01368422893
0.01368422875
0.01368422856
0.01368422838
0.01368422826
0.01368422917
0.0136842291
0.01368422897
0.01368422879
0.01368422855
0.01368422826
0.01368422794
0.01368422764
0.01368422744
0.01368422896
0.01368422883
0.01368422862
0.01368422832
0.01368422792
0.01368422744
0.01368422691
0.01368422643
0.01368422611
0.0136842286
0.01368422839
0.01368422804
0.01368422754
0.01368422688
0.01368422609
0.01368422524
0.01368422447
0.01368422397
0.013684228
0.01368422764
0.01368422707
0.01368422625
0.01368422518
0.0136842239
0.01368422254
0.01368422132
0.01368422053
0.01368422699
0.01368422641
0.01368422546
0.01368422413
0.01368422241
0.01368422038
0.01368421823
0.01368421632
0.01368421509
0.01368422533
0.01368422437
0.01368422285
0.01368422071
0.01368421797
0.01368421477
0.01368421142
0.01368420846
0.01368420659
0.0136842226
0.01368422106
0.01368421861
0.01368421522
0.01368421091
0.01368420593
0.01368420078
0.01368419625
0.01368419342
0.01368421815
0.01368421569
0.01368421183
0.01368420651
0.01368419982
0.01368419216
0.01368418432
0.01368417749
0.01368417323
0.01368421097
0.0136842071
0.01368420107
0.01368419282
0.01368418257
0.01368417094
0.01368415913
0.01368414893
0.01368414262
0.01368419948
0.01368419347
0.01368418416
0.01368417155
0.01368415601
0.01368413854
0.01368412096
0.01368410589
0.01368409662
0.01368418127
0.01368417206
0.01368415788
0.01368413882
0.01368411554
0.01368408959
0.01368406367
0.01368404161
0.01368402812
0.0136841527
0.01368413876
0.01368411741
0.01368408895
0.01368405445
0.0136840163
0.01368397846
0.01368394646
0.01368392697
0.01368410834
0.01368408748
0.01368405572
0.01368401368
0.0136839631
0.01368390755
0.0136838528
0.01368380674
0.0136837788
0.01368404016
0.0136840093
0.01368396259
0.01368390113
0.01368382769
0.01368374754
0.01368366897
0.01368360316
0.01368356338
0.01368393642
0.01368389128
0.0136838233
0.01368373436
0.0136836287
0.013683514
0.01368340208
0.01368330868
0.01368325239
0.01368378017
0.01368371485
0.01368361689
0.01368348938
0.01368333864
0.01368317577
0.01368301744
0.01368288572
0.01368280649
0.01368354722
0.01368345362
0.01368331377
0.01368313253
0.01368291919
0.01368268958
0.01368246709
0.01368228242
0.01368217154
0.01368320331
0.01368307041
0.0136828725
0.01368261697
0.01368231731
0.01368199586
0.01368168525
0.013681428
0.01368127376
0.01368270039
0.01368251332
0.01368223554
0.01368187805
0.01368146018
0.01368101326
0.01368058254
0.01368022658
0.01368001353
0.0136819717
0.01368171051
0.01368132364
0.01368082719
0.01368024861
0.01367963157
0.01367903841
0.0136785493
0.01367825702
0.01368092523
0.01368056337
0.01368002859
0.01367934416
0.01367854874
0.01367770276
0.01367689151
0.01367622389
0.01367582546
0.01367943551
0.01367893793
0.01367820412
0.01367726729
0.01367618143
0.01367502945
0.01367392714
0.01367302145
0.01367248151
0.01367733324
0.01367665413
0.01367565451
0.01367438127
0.01367290898
0.01367135039
0.01366986161
0.01366863996
0.01366791222
0.01367439286
0.01367347272
0.01367212061
0.01367040185
0.01366841832
0.01366632221
0.01366432282
0.01366268382
0.01366170806
0.01367031707
0.01366907902
0.01366726235
0.01366495686
0.01366230056
0.01365949751
0.0136568268
0.01365463919
0.01365333733
0.01366471794
0.01366306309
0.01366063766
0.01365756381
0.01365402693
0.01365029894
0.01364675006
0.0136438447
0.01364211607
0.01365709475
0.01365489675
0.0136516784
0.01364760419
0.01364292131
0.01363798978
0.01363329807
0.01362945827
0.01362717367
0.01364680936
0.01364390825
0.01363966379
0.01363429547
0.01362813029
0.01362164191
0.01361547129
0.0136104214
0.01360741612
0.01363306021
0.01362925549
0.01362369265
0.01361666191
0.01360859257
0.01360010362
0.01359203134
0.01358542388
0.01358148984
0.0136148561
0.01360989945
0.01360265625
0.01359350687
0.01358301048
0.01357197048
0.01356147127
0.01355287367
0.01354775125
0.01359099174
0.01358457993
0.01357521442
0.0135633894
0.01354982754
0.01353556399
0.01352199549
0.01351087802
0.01350424876
0.01356002758
0.01355179635
0.01353977797
0.01352460915
0.01350721634
0.01348892316
0.01347151542
0.01345724275
0.0134487243
0.01352027636
0.01350979651
0.01349450088
0.01347520309
0.01345308132
0.01342981431
0.01340766645
0.01338949558
0.01337864042
0.01346979915
0.0134565761
0.01343728515
0.01341295782
0.01338508016
0.01335576284
0.01332785054
0.0133049377
0.01329123736
0.01340641358
0.01338989172
0.01336580123
0.01333543973
0.013300666
0.01326410922
0.0132293059
0.01320072846
0.01318363333
0.0133277167
0.01330728973
0.01327752572
0.01324004441
0.01319715063
0.01315208659
0.01310920362
0.0130740006
0.01305293961
0.01323112517
0.01320615306
0.01316979792
0.01312406548
0.01307178679
0.01301692468
0.01296476956
0.01292198426
0.01289639367
0.01311393532
0.01308376784
0.0130398952
0.01298478148
0.01292187872
0.01285597246
0.01279340843
0.01274214216
0.01271149886
0.01297340292
0.01293740994
0.01288513529
0.01281957979
0.01274490496
0.01266682092
0.01259283581
0.01253230543
0.01249616178
0.0128068612
0.01276447388
0.01270300636
0.01262607535
0.01253864148
0.01244743279
0.01236120861
0.01229080271
0.01224882
0.0126118546
0.01256259784
0.01249128978
0.01240224035
0.01230129216
0.01219626975
0.01209724705
0.01201657639
0.01196855393
0.01238627007
0.01232979854
0.01224819596
0.0121465363
0.01203161473
0.01191240982
0.01180034196
0.01170928008
0.01165517781
0.01212847899
0.01206460957
0.01197249687
0.01185803806
0.01172903355
0.01159564691
0.01147064059
0.01136935232
0.01130930556
0.01183747113
0.01176620917
0.01166364418
0.01153653939
0.01139373017
0.01124656516
0.01110910519
0.01099806223
0.01093238873
0.0115129688
0.0114345257
0.01132186227
0.01118263007
0.01102670255
0.0108665801
0.01071753851
0.01059752389
0.01052672593
0.01115551022
0.01107031073
0.01094820619
0.01079773529
0.01062978397
0.01045793765
0.01029856676
0.01017067186
0.01009544602
0.01076649459
0.01067517215
0.01054457761
0.01038411007
0.01020561277
0.01002365781
0.009855558485
0.009721158955
0.009642383159
0.01034818465
0.01025156413
0.01011369627
0.009944786657
0.009757550135
0.009567416111
0.009392462687
0.009253148897
0.009171720588
0.009903667024
0.009802735262
0.009659030488
0.009483482526
0.009289559944
0.009093384898
0.008913597181
0.008770854003
0.008687604095
0.009436773196
0.009332638331
0.009184691385
0.009004477026
0.008806071631
0.008606064203
0.008423283319
0.008278543667
0.008194309237
0.008951962807
0.008845801734
0.008695286775
0.008512439324
0.008311679188
0.008109840225
0.007925881346
0.00778057437
0.007696186478
0.008454165869
0.00834715866
0.008195683639
0.008012030573
0.007810874098
0.007609161289
0.007425798277
0.00728131604
0.00719757895
0.007948308853
0.007841490229
0.007690506157
0.007507804468
0.007308154739
0.007108457134
0.006927387441
0.006785050665
0.006702720979
0.007439089479
0.0073334545
0.00718435774
0.007004283009
0.006807945851
0.006612039351
0.006434842054
0.006295866586
0.00621563422
0.006931160555
0.006827646876
0.006681746603
0.00650585586
0.006314493842
0.006123995682
0.005952092065
0.005817559745
0.005740032251
0.006429031815
0.006328495163
0.006186978348
0.006016670263
0.005831760807
0.005648090736
0.005482712537
0.005353549046
0.005279240319
0.005936951873
0.005840143772
0.005704045221
0.005540526966
0.0053633298
0.005187681734
0.005029849493
0.004906810433
0.004836134257
0.005458795963
0.005366347085
0.005236527919
0.005080792417
0.004912328806
0.00474565447
0.004596166734
0.00447983212
0.004413100475
0.004997972449
0.004910382796
0.004787518541
0.004640333174
0.004481377452
0.004324381989
0.004183814953
0.00407459153
0.004012017195
0.004557354711
0.004474990668
0.00435956883
0.004221475208
0.004072557854
0.003925706315
0.003794422666
0.003692552939
0.003634255699
0.004139241042
0.004062338687
0.003954664843
0.003825988319
0.003687408935
0.003550941862
0.003429107085
0.003334683576
0.003280699118
0.003745342286
0.003674015943
0.003574226838
0.003455093876
0.003326941945
0.003200897824
0.003088501913
0.003001485093
0.002951775741
0.003376794884
0.003311049633
0.003219131475
0.003109492676
0.002991673692
0.002875915979
0.00277279856
0.002693036919
0.002647503338
0.003034195291
0.002973942077
0.002889752156
0.00278940874
0.002681673446
0.002575919956
0.002481796923
0.002409047783
0.002367540895
0.002717650914
0.002662722987
0.002586012862
0.002494644587
0.002396619202
0.002300471917
0.002214961959
0.002148911869
0.002111244386
0.002426842379
0.002377011924
0.002307450647
0.002224643426
0.002135859119
0.002048832845
0.001971482591
0.001911766426
0.001877723528
0.002161092034
0.002116086081
0.002053282255
0.001978554119
0.001898474431
0.001820023142
0.001750330023
0.001696548163
0.001665897037
0.001919434175
0.001878949132
0.001822470925
0.001755295408
0.001683340711
0.001612880824
0.001550313087
0.001502046342
0.001474544396
0.00170068327
0.00166439765
0.001613790241
0.001553616616
0.001489185119
0.001426115328
0.001370128943
0.001326951058
0.001302352775
0.001503497351
0.001471082499
0.00142588271
0.001372152855
0.00131463799
0.001258355543
0.001208407984
0.001169895768
0.001147958226
0.0013264347
0.00129756348
0.001257311569
0.001209473496
0.001158277759
0.001108191329
0.001063752384
0.001029493609
0.001009980758
0.001168002726
0.001142356273
0.001106605064
0.001064123308
0.001018668823
0.0009742082518
0.0009347681474
0.0009043674291
0.0008870532695
0.00102669868
0.001003971393
0.0009722929929
0.0009346562169
0.0008943923879
0.0008550156775
0.0008200908456
0.0007931737931
0.0007778445934
0.0009010423484
0.0008809453685
0.0008529358047
0.0008196619901
0.0007840706721
0.0007492686395
0.0007184055039
0.000694621399
0.0006810771158
0.000789601289
0.0007718646951
0.0007471468195
0.0007177864663
0.0006863850795
0.0006556840923
0.0006284612302
0.0006074845153
0.0005955395633
0.0006910093733
0.0006753833545
0.0006536083481
0.0006277460701
0.0006000890741
0.0005730522574
0.0005490812722
0.0005306120938
0.0005200956011
0.0006039795556
0.000590234777
0.0005710825673
0.0005483374444
0.0005240165427
0.0005002438065
0.0004791692114
0.0004629332397
0.0004536889097
0.0005273118027
0.0005152391672
0.0004984180276
0.0004784430272
0.0004570864243
0.0004362136163
0.0004177119836
0.0004034596964
0.0003953453787
0.0004598970932
0.0004493070661
0.0004345526277
0.0004170333578
0.0003983043408
0.0003800017756
0.0003637803667
0.0003512859564
0.0003441730088
0.0004007183199
0.0003914399555
0.000378513818
0.0003631668282
0.0003467618912
0.0003307324653
0.0003165275193
0.0003055875376
0.000299360052
0.0003488488342
0.000340728613
0.0003294167045
0.0003159875112
0.00030163421
0.0002876112507
0.0002751860382
0.0002656179022
0.0002601718529
0.0003034492729
0.0002963498415
0.0002864606448
0.0002747215911
0.0002621762172
0.0002499212079
0.0002390640135
0.0002307044348
0.0002259467818
0.0002637631695
0.0002575620293
0.0002489247463
0.0002386728167
0.0002277180587
0.0002170183324
0.0002075403947
0.0002002437893
0.0001960915749
0.0002291117794
0.0002236999878
0.0002161627262
0.0002072173864
0.0001976600084
0.0001883264692
0.0001800599561
0.0001736968825
0.0001700763432
0.0001988884765
0.0001941693873
0.0001875974028
0.0001797985073
0.0001714671051
0.0001633320307
0.0001561280861
0.0001505837406
0.0001474294521
0.0001725529678
0.0001684410319
0.0001627150557
0.0001559208575
0.0001486637279
0.000141578682
0.0001353055741
0.0001304783631
0.0001277324291
0.0001496255189
0.0001460451591
0.0001410598281
0.0001351451131
0.000128828255
0.000122662132
0.0001172035176
0.0001130037204
0.0001106150112
0.0001296813324
0.0001265658986
0.0001222282994
0.000117082655
0.0001115879166
0.0001062251274
0.000101478442
9.782696982e-05
9.575041633e-05
0.0001123451762
0.0001096359853
0.0001058643145
0.0001013905377
9.661391166e-05
9.195271571e-05
8.782769234e-05
8.465494588e-05
8.285088944e-05
9.728632637e-05
9.493178501e-05
9.165412645e-05
8.776676963e-05
8.361683665e-05
7.956781766e-05
7.598513404e-05
7.322996006e-05
7.166355761e-05
8.421386053e-05
8.216866926e-05
7.932188417e-05
7.594593563e-05
7.234245102e-05
6.882713324e-05
6.571718263e-05
6.332592536e-05
6.196660896e-05
7.287232156e-05
7.109675597e-05
6.862548034e-05
6.569517211e-05
6.256778904e-05
5.95173868e-05
5.681916714e-05
5.47448109e-05
5.356579884e-05
6.303775251e-05
6.149701692e-05
5.935275993e-05
5.68104955e-05
5.409761637e-05
5.145190892e-05
4.911202319e-05
4.731342056e-05
4.629127717e-05
5.451409642e-05
5.317774469e-05
5.131808081e-05
4.91134742e-05
4.67612211e-05
4.446754405e-05
4.2439304e-05
4.088048374e-05
3.999472459e-05
4.71299457e-05
4.597136391e-05
4.435921125e-05
4.244822854e-05
4.040952345e-05
3.842186762e-05
3.66644929e-05
3.531404144e-05
3.454678044e-05
4.073562174e-05
3.97315674e-05
3.833454478e-05
3.667873935e-05
3.491248475e-05
3.31906933e-05
3.166859796e-05
3.049910834e-05
2.98347433e-05
3.520056218e-05
3.433075473e-05
3.312061048e-05
3.168644351e-05
3.015679426e-05
2.866584933e-05
2.734800768e-05
2.633558987e-05
2.576052311e-05
3.041099228e-05
2.965775015e-05
2.860985567e-05
2.736809361e-05
2.604381129e-05
2.475320138e-05
2.361258606e-05
2.273643298e-05
2.223882363e-05
2.626785621e-05
2.56157754e-05
2.470867685e-05
2.36338582e-05
2.248774001e-05
2.13709007e-05
2.038398556e-05
1.962598918e-05
1.91955342e-05
2.268498353e-05
2.212065396e-05
2.133567651e-05
2.040564123e-05
1.941401584e-05
1.844783578e-05
1.7594157e-05
1.69385695e-05
1.656631033e-05
1.958747005e-05
1.909922543e-05
1.84201244e-05
1.761559888e-05
1.675788173e-05
1.592226725e-05
1.518403662e-05
1.461717186e-05
1.429532417e-05
1.691025042e-05
1.64879479e-05
1.59006014e-05
1.520483298e-05
1.446313504e-05
1.374062708e-05
1.310239174e-05
1.261236276e-05
1.233416669e-05
1.459684161e-05
1.423166809e-05
1.37238069e-05
1.31222428e-05
1.248102675e-05
1.185646423e-05
1.130480793e-05
1.08812963e-05
1.064088498e-05
1.259823959e-05
1.228254168e-05
1.184351218e-05
1.132351761e-05
1.076929609e-05
1.022952064e-05
9.752801546e-06
9.38685521e-06
9.179139499e-06
1.08719519e-05
1.059908682e-05
1.021964306e-05
9.770254136e-06
9.291325288e-06
8.824922545e-06
8.413043638e-06
8.096899817e-06
7.917467372e-06
9.38115068e-06
9.145355643e-06
8.817477282e-06
8.429184681e-06
8.015400673e-06
7.612473767e-06
7.256681958e-06
6.983612254e-06
6.828639257e-06
8.093932059e-06
7.890210007e-06
7.606943055e-06
7.271502772e-06
6.914067352e-06
6.566038972e-06
6.258749506e-06
6.022924569e-06
5.889098622e-06
6.982669422e-06
6.806689155e-06
6.562006769e-06
6.27227479e-06
5.963566453e-06
5.663005961e-06
5.397649128e-06
5.194020522e-06
5.078473372e-06
6.023449212e-06
5.871458183e-06
5.66013915e-06
5.409927124e-06
5.143344799e-06
4.883817392e-06
4.654704818e-06
4.478902019e-06
4.379150898e-06
5.195579272e-06
5.064327503e-06
4.881850239e-06
4.665799617e-06
4.435628111e-06
4.211563347e-06
4.013771476e-06
3.862012129e-06
3.775908666e-06
4.481160762e-06
4.367834529e-06
4.210284696e-06
4.023757058e-06
3.82504984e-06
3.631627118e-06
3.460895756e-06
3.329907555e-06
3.255593313e-06
3.86471576e-06
3.766879836e-06
3.630869893e-06
3.46985145e-06
3.298328611e-06
3.13137752e-06
2.984021565e-06
2.8709743e-06
2.806842105e-06
3.332863554e-06
3.248410939e-06
3.131010128e-06
2.992028643e-06
2.843988141e-06
2.699901787e-06
2.572734477e-06
2.475180971e-06
2.419841312e-06
2.874039444e-06
2.801147645e-06
2.699821113e-06
2.579873664e-06
2.452114163e-06
2.327773852e-06
2.218040085e-06
2.133864883e-06
2.086116725e-06
2.478250641e-06
2.415343673e-06
2.327899565e-06
2.224389777e-06
2.114143626e-06
2.006853442e-06
1.912171872e-06
1.8395467e-06
1.798352154e-06
2.13686449e-06
2.082579871e-06
2.007123378e-06
1.917806919e-06
1.822681955e-06
1.730111976e-06
1.648424765e-06
1.58576988e-06
1.550232229e-06
1.842424838e-06
1.795584935e-06
1.730478406e-06
1.653415683e-06
1.571344733e-06
1.491481769e-06
1.421010997e-06
1.366961676e-06
1.336306321e-06
1.588492885e-06
1.548080048e-06
1.491908389e-06
1.425423512e-06
1.354620602e-06
1.285725472e-06
1.224935354e-06
1.178312839e-06
1.151870788e-06
1.369509316e-06
1.334644322e-06
1.286184982e-06
1.228830187e-06
1.167752573e-06
1.108323085e-06
1.055887221e-06
1.015673555e-06
9.928671182e-07
1.180674925e-06
1.150598282e-06
1.108795249e-06
1.059320066e-06
1.006635337e-06
9.553742064e-07
9.101472235e-07
8.754634449e-07
8.557938525e-07
1.017847282e-06
9.919030401e-07
9.558443034e-07
9.131688428e-07
8.677264277e-07
8.235134993e-07
7.845064883e-07
7.545937663e-07
7.376304437e-07
8.774513276e-07
8.550730478e-07
8.239710846e-07
7.871629104e-07
7.479694051e-07
7.098376058e-07
6.761968653e-07
6.504001655e-07
6.357714581e-07
7.564020379e-07
7.371006498e-07
7.102755283e-07
6.785296347e-07
6.447274497e-07
6.118419765e-07
5.828306198e-07
5.605845756e-07
5.479697242e-07
6.520375536e-07
6.353908436e-07
6.122556012e-07
5.848770866e-07
5.557259711e-07
5.27366287e-07
5.023483316e-07
4.831650245e-07
4.722872251e-07
5.620613708e-07
5.477048878e-07
5.277528806e-07
5.041419591e-07
4.790030194e-07
4.545472817e-07
4.329738915e-07
4.16432285e-07
4.070526895e-07
4.844923812e-07
4.721115701e-07
4.549055308e-07
4.345445698e-07
4.128664496e-07
3.917780468e-07
3.731756367e-07
3.589124432e-07
3.508249737e-07
4.176217046e-07
4.069451033e-07
3.921076807e-07
3.745499929e-07
3.558569261e-07
3.376728388e-07
3.216327948e-07
3.093345819e-07
3.023614498e-07
3.599753983e-07
3.507687571e-07
3.379743367e-07
3.228344924e-07
3.067159763e-07
2.910367201e-07
2.772065149e-07
2.666028855e-07
2.605907199e-07
3.102822508e-07
3.023434493e-07
2.913110846e-07
2.782565394e-07
2.643584117e-07
2.508393459e-07
2.38914864e-07
2.297725649e-07
2.245890683e-07
2.674459708e-07
2.606006253e-07
2.510879298e-07
2.398317906e-07
2.278485202e-07
2.161923406e-07
2.059112485e-07
1.980290813e-07
1.935601419e-07
2.305211758e-07
2.246188446e-07
2.164167152e-07
2.067114912e-07
1.963795187e-07
1.863297733e-07
1.77465794e-07
1.706702212e-07
1.668174186e-07
1.986926656e-07
1.936035709e-07
1.865316296e-07
1.781638351e-07
1.692558221e-07
1.605913114e-07
1.529492801e-07
1.470906305e-07
1.437690833e-07
1.712575324e-07
1.668697292e-07
1.607723872e-07
1.535578807e-07
1.458777431e-07
1.384076853e-07
1.318192811e-07
1.267684748e-07
1.239049813e-07
1.476097221e-07
1.438266536e-07
1.385697123e-07
1.323496719e-07
1.257282932e-07
1.192881499e-07
1.136082109e-07
1.092539317e-07
1.067853662e-07
1.27226713e-07
1.239650999e-07
1.194328164e-07
1.14070266e-07
1.083617953e-07
1.02809669e-07
9.791301183e-08
9.415926715e-08
9.203119522e-08
1.096580215e-07
1.068460401e-07
1.029385944e-07
9.831540431e-08
9.339406207e-08
8.86075861e-08
8.438626152e-08
8.115027646e-08
7.931576041e-08
9.451528713e-08
9.209099637e-08
8.872230501e-08
8.473660399e-08
8.049392481e-08
7.636758001e-08
7.272850391e-08
6.993890438e-08
6.835747241e-08
8.146371884e-08
7.937370323e-08
7.646953215e-08
7.303347374e-08
6.937592716e-08
6.581872626e-08
6.268163628e-08
6.027688123e-08
5.891363813e-08
7.021471744e-08
6.841291562e-08
6.590925227e-08
6.29470873e-08
5.979402497e-08
5.672751466e-08
5.402320701e-08
5.1950236e-08
5.077509604e-08
6.051951249e-08
5.89662066e-08
5.680785498e-08
5.425426868e-08
5.153615318e-08
4.889269055e-08
4.656149897e-08
4.477456555e-08
4.376159072e-08
5.216367446e-08
5.082461815e-08
4.896398673e-08
4.676266403e-08
4.441954098e-08
4.214080662e-08
4.013129038e-08
3.859095572e-08
3.771778501e-08
4.49623819e-08
4.380804804e-08
4.220410416e-08
4.030649205e-08
3.828667199e-08
3.632238744e-08
3.459019963e-08
3.326246461e-08
3.250982168e-08
3.875633994e-08
3.776127164e-08
3.637863937e-08
3.474287927e-08
3.300180073e-08
3.130862215e-08
2.981553352e-08
2.867109012e-08
2.80223588e-08
3.340826024e-08
3.255051098e-08
3.135869309e-08
2.994869982e-08
2.844794855e-08
2.698851248e-08
2.570156951e-08
2.471515508e-08
2.415601318e-08
2.879982527e-08
2.806047598e-08
2.70331826e-08
2.581784996e-08
2.452431295e-08
2.326641312e-08
2.215721178e-08
2.130705211e-08
2.082515556e-08
2.482907008e-08
2.419181247e-08
2.330638202e-08
2.225889744e-08
2.114403308e-08
2.005991037e-08
1.910396958e-08
1.837129849e-08
1.795600889e-08
2.140812399e-08
2.085890108e-08
2.009580071e-08
1.919305395e-08
1.823226241e-08
1.729799219e-08
1.647421335e-08
1.584285816e-08
1.548500773e-08
1.846126273e-08
1.798795873e-08
1.733035322e-08
1.655242617e-08
1.572450613e-08
1.491946969e-08
1.42096703e-08
1.366569417e-08
1.335738287e-08
1.592322814e-08
1.551540082e-08
1.494878062e-08
1.427850712e-08
1.356518696e-08
1.287161535e-08
1.226012653e-08
1.179151976e-08
1.152594028e-08
1.373777891e-08
1.338642864e-08
1.289828889e-08
1.232087475e-08
1.170640799e-08
1.110898834e-08
1.058230745e-08
1.01787211e-08
9.950007686e-09
1.185644046e-08
1.155381091e-08
1.113337438e-08
1.063606958e-08
1.010688567e-08
9.59242143e-09
9.138912248e-09
8.791428141e-09
8.594526184e-09
1.0237427e-08
9.976833123e-09
9.614811204e-09
9.186626853e-09
8.731029858e-09
8.288147576e-09
7.897781561e-09
7.598713801e-09
7.429267224e-09
8.844712146e-09
8.620391773e-09
8.308778178e-09
7.940242454e-09
7.548151065e-09
7.167047358e-09
6.83118037e-09
6.573904081e-09
6.428158183e-09
7.647228299e-09
7.454214024e-09
7.186106739e-09
6.869054267e-09
6.531777675e-09
6.204001067e-09
5.915180771e-09
5.69398438e-09
5.568702031e-09
6.618177153e-09
6.452186e-09
6.221633886e-09
5.949023995e-09
5.659068229e-09
5.377331051e-09
5.129131189e-09
4.93908913e-09
4.831478546e-09
5.734436105e-09
5.59177438e-09
5.393644976e-09
5.15940536e-09
4.910306876e-09
4.668323128e-09
4.455200302e-09
4.292063543e-09
4.199716155e-09
4.976048016e-09
4.853529386e-09
4.683395089e-09
4.482287141e-09
4.268469483e-09
4.060815471e-09
3.877986289e-09
3.738087917e-09
3.658924926e-09
4.32578289e-09
4.220657915e-09
4.074698072e-09
3.902201077e-09
3.718851637e-09
3.540846156e-09
3.384181583e-09
3.264355857e-09
3.19658228e-09
3.768761628e-09
3.67865719e-09
3.553573966e-09
3.405785597e-09
3.24874975e-09
3.096351187e-09
2.962285839e-09
2.859798696e-09
2.801863985e-09
3.292133245e-09
3.215000537e-09
3.107946664e-09
2.981497548e-09
2.847187774e-09
2.716905781e-09
2.602360107e-09
2.514849555e-09
2.465413827e-09
2.884798003e-09
2.818867865e-09
2.727384617e-09
2.619364995e-09
2.504682874e-09
2.393502581e-09
2.295816081e-09
2.221241063e-09
2.179146141e-09
2.537169799e-09
2.48091437e-09
2.402878292e-09
2.310775037e-09
2.213044254e-09
2.118361164e-09
2.035235034e-09
1.971831508e-09
1.936076056e-09
2.240971969e-09
2.193071713e-09
2.126648823e-09
2.048291262e-09
1.965199967e-09
1.884763927e-09
1.814211686e-09
1.760454816e-09
1.730172929e-09
1.989061398e-09
1.948376695e-09
1.891982997e-09
1.825496196e-09
1.755047265e-09
1.686914094e-09
1.627218925e-09
1.5817904e-09
1.556233106e-09
1.775276478e-09
1.740823052e-09
1.69309038e-09
1.636854695e-09
1.577322637e-09
1.519812169e-09
1.469489895e-09
1.431249544e-09
1.409768726e-09
1.59430509e-09
1.565232676e-09
1.524979004e-09
1.477594893e-09
1.427488318e-09
1.37914783e-09
1.336914603e-09
1.304875603e-09
1.286909957e-09
1.441569405e-09
1.417143113e-09
1.383346615e-09
1.343603873e-09
1.301632646e-09
1.261204809e-09
1.225948777e-09
1.199255908e-09
1.184318616e-09
1.313124827e-09
1.292708804e-09
1.264485097e-09
1.231335838e-09
1.196382214e-09
1.162776932e-09
1.133533326e-09
1.111443843e-09
1.099111744e-09
1.205571015e-09
1.188614075e-09
1.165196196e-09
1.137731091e-09
1.108824341e-09
1.08109399e-09
1.057023255e-09
1.038890122e-09
1.028794224e-09
1.1159734e-09
1.101996393e-09
1.082717218e-09
1.060144654e-09
1.036438837e-09
1.013756635e-09
9.941253667e-10
9.793826885e-10
9.711999585e-10
1.041794108e-09
1.030378892e-09
1.014655809e-09
9.962837638e-10
9.770384728e-10
9.58679827e-10
9.428444212e-10
9.30995016e-10
9.244414069e-10
9.808315914e-10
9.71611531e-10
9.589332832e-10
9.441538362e-10
9.287178418e-10
9.140446117e-10
9.014375854e-10
8.92042679e-10
8.868673955e-10
9.311685872e-10
9.238205512e-10
9.137362003e-10
9.020126385e-10
8.898103906e-10
8.782580448e-10
8.683770012e-10
8.61048006e-10
8.570289755e-10
8.911281421e-10
8.853659777e-10
8.774759734e-10
8.683324484e-10
8.588533784e-10
8.499209522e-10
8.423200811e-10
8.367123627e-10
8.336528473e-10
8.592374843e-10
8.548069254e-10
8.487561914e-10
8.417698099e-10
8.345602718e-10
8.278029329e-10
8.220868322e-10
8.178952523e-10
8.156214556e-10
8.341993281e-10
8.308742346e-10
8.263471153e-10
8.211422378e-10
8.157997934e-10
8.108236619e-10
8.066431023e-10
8.035990001e-10
8.019584537e-10
8.14869961e-10
8.124497138e-10
8.091665085e-10
8.05410885e-10