/*--------------------------------*- C++ -*----------------------------------*\
| =========                 |                                                 |
| \\      /  F ield         | OpenFOAM: The Open Source CFD Toolbox           |
|  \\    /   O peration     | Version:  2212                                  |
|   \\  /    A nd           | Website:  www.openfoam.com                      |
|    \\/     M anipulation  |                                                 |
\*---------------------------------------------------------------------------*/
FoamFile
{
    version     2.0;
    format      ascii;
    arch        "LSB;label=32;scalar=64";
    class       volScalarField;
    location    "20.00000000";
    object      CH3COCH2_0;
}
// * * * * * * * * * * * * * * * * * * * * * * * * * * * * * * * * * * * * * //

dimensions      [0 0 0 0 0 0 0];

internalField   nonuniform List<scalar> 
3000
(
2.694904458e-23
3.026731596e-23
3.527218551e-23
4.19369405e-23
5.019002676e-23
5.980395235e-23
7.019846042e-23
8.011144024e-23
8.711809874e-23
1.011738214e-22
1.140877733e-22
1.335561865e-22
1.595364936e-22
1.91985488e-22
2.307084327e-22
2.750252281e-22
3.227283599e-22
3.649764219e-22
2.266164485e-22
2.575488968e-22
3.046248835e-22
3.684898266e-22
4.50239589e-22
5.510028249e-22
6.703274184e-22
8.015340839e-22
9.135807649e-22
4.316118934e-22
4.956687639e-22
5.945942487e-22
7.316664328e-22
9.116311793e-22
1.138910876e-21
1.412073999e-21
1.709149502e-21
1.948546902e-21
7.663738783e-22
8.909481914e-22
1.086398439e-21
1.362574125e-21
1.732335599e-21
2.205856012e-21
2.77489727e-21
3.378251821e-21
3.840163579e-21
1.317673802e-21
1.551534331e-21
1.923785001e-21
2.458171274e-21
3.183233064e-21
4.117405739e-21
5.233249183e-21
6.390970837e-21
7.249411539e-21
2.236550642e-21
2.666116475e-21
3.357890939e-21
4.36225626e-21
5.735232391e-21
7.504351164e-21
9.596768975e-21
1.172348223e-20
1.325847487e-20
3.784169963e-21
4.561395612e-21
5.82415403e-21
7.671622005e-21
1.020683379e-20
1.346633876e-20
1.728659814e-20
2.111145354e-20
2.382500602e-20
6.413127256e-21
7.804436779e-21
1.007944272e-20
1.342455909e-20
1.802277859e-20
2.391810449e-20
3.077730822e-20
3.757291361e-20
4.23409276e-20
1.090732095e-20
1.337835706e-20
1.74372592e-20
2.342443477e-20
3.165916024e-20
4.218875997e-20
5.437191254e-20
6.635385725e-20
7.469879196e-20
1.862588709e-20
2.298923151e-20
3.017898866e-20
4.080545731e-20
5.542092528e-20
7.40670194e-20
9.555236241e-20
1.165758597e-19
1.311461808e-19
3.192669889e-20
3.959902186e-20
5.226855383e-20
7.101690247e-20
9.679599143e-20
1.296232725e-19
1.673344556e-19
2.041065458e-19
2.295106712e-19
5.490311694e-20
6.835375822e-20
9.059845249e-20
1.235405008e-19
1.688185622e-19
2.263880099e-19
2.923716071e-19
3.565594127e-19
4.008315881e-19
9.466297863e-20
1.181957769e-19
1.571567241e-19
2.148834144e-19
2.942010214e-19
3.949297193e-19
5.101699286e-19
6.220570277e-19
6.992808797e-19
1.635440861e-19
2.046564793e-19
2.727827106e-19
3.737767122e-19
5.125467377e-19
6.886716643e-19
8.898701838e-19
1.084620581e-18
1.219752689e-18
2.829441198e-19
3.546757445e-19
4.736290705e-19
6.500791133e-19
8.926387183e-19
1.20063618e-18
1.552862188e-18
1.894673529e-18
2.128247048e-18
4.899501736e-19
6.149281259e-19
8.222686634e-19
1.12988974e-18
1.552702775e-18
2.089256417e-18
2.702057739e-18
3.295306666e-18
3.701816856e-18
8.48871007e-19
1.066357359e-18
1.42725222e-18
1.962701743e-18
2.698454689e-18
3.631607788e-18
4.696558613e-18
5.726748673e-18
6.432708003e-18
1.471272386e-18
1.849421719e-18
2.477013633e-18
3.408157448e-18
4.687399206e-18
6.309313294e-18
8.159552053e-18
9.948714683e-18
1.117444231e-17
2.550760811e-18
3.207907076e-18
4.298666536e-18
5.917042179e-18
8.140219995e-18
1.095836392e-17
1.417240498e-17
1.727949608e-17
1.940756341e-17
4.423368102e-18
5.564980705e-18
7.460068387e-18
1.027192798e-17
1.413439176e-17
1.902985574e-17
2.461196612e-17
3.000713146e-17
3.370155418e-17
7.672396947e-18
9.655243533e-18
1.294704005e-17
1.783140087e-17
2.454041497e-17
3.304276143e-17
4.27360672e-17
5.210296887e-17
5.851614085e-17
1.331049722e-17
1.675405784e-17
2.247113015e-17
3.095416838e-17
4.26056224e-17
5.736992102e-17
7.419969706e-17
9.04599686e-17
1.015916304e-16
2.309588533e-17
2.907582987e-17
3.900409738e-17
5.373551256e-17
7.396777968e-17
9.960240648e-17
1.288186468e-16
1.570420399e-16
1.763613698e-16
4.008154731e-17
5.046572865e-17
6.770606703e-17
9.328584503e-17
1.284141087e-16
1.72916252e-16
2.236278824e-16
2.726083642e-16
3.061331623e-16
6.956884849e-17
8.760064409e-17
1.175366914e-16
1.619495019e-16
2.229326275e-16
3.001752774e-16
3.881780261e-16
4.731599788e-16
5.313182512e-16
1.207631628e-16
1.52074131e-16
2.040516644e-16
2.811544753e-16
3.870036891e-16
5.210418399e-16
6.737094524e-16
8.210958319e-16
9.219380659e-16
2.096473697e-16
2.640148799e-16
3.542548952e-16
4.880881847e-16
6.717677181e-16
9.042835181e-16
1.169013625e-15
1.424486704e-15
1.599223554e-15
3.639639587e-16
4.583593133e-16
6.150061297e-16
8.472569468e-16
1.165884157e-15
1.569033873e-15
2.027791076e-15
2.470262814e-15
2.77275323e-15
6.318431817e-16
7.957121171e-16
1.067569776e-15
1.470469058e-15
2.022908954e-15
2.72143056e-15
3.515702859e-15
4.281183e-15
4.80412245e-15
1.096719467e-15
1.381115116e-15
1.852737722e-15
2.551295695e-15
3.508418106e-15
4.717532328e-15
6.090963068e-15
7.413173103e-15
8.315533002e-15
1.903057499e-15
2.396398796e-15
3.214084135e-15
4.424299014e-15
6.080805969e-15
8.170879087e-15
1.054166286e-14
1.282065542e-14
1.437381091e-14
3.30058432e-15
4.155757735e-15
5.572156263e-15
7.666385409e-15
1.052912389e-14
1.413529944e-14
1.821820616e-14
2.213528562e-14
2.479977884e-14
5.720040775e-15
7.200808886e-15
9.651107202e-15
1.326928128e-14
1.820673144e-14
2.441335241e-14
3.142351332e-14
3.813165446e-14
4.26834013e-14
9.902281555e-15
1.246230871e-14
1.669352829e-14
2.293101539e-14
3.142425337e-14
4.207213685e-14
5.406162926e-14
6.549703884e-14
7.323192887e-14
1.711699004e-14
2.153346245e-14
2.882220527e-14
3.954438041e-14
5.410419938e-14
7.229677764e-14
9.270338829e-14
1.120879633e-13
1.251483496e-13
2.95305643e-14
3.712815518e-14
4.964381908e-14
6.800723517e-14
9.28592273e-14
1.237852197e-13
1.583140397e-13
1.909527925e-13
2.128396653e-13
5.081960597e-14
6.384188827e-14
8.524560016e-14
1.165506182e-13
1.587448361e-13
2.109952756e-13
2.690120997e-13
3.235372069e-13
3.598996057e-13
8.718346269e-14
1.094009438e-13
1.458196808e-13
1.988848189e-13
2.700647265e-13
3.577061262e-13
4.544017023e-13
5.446796029e-13
6.045106006e-13
1.489948006e-13
1.866849538e-13
2.482701096e-13
3.376092796e-13
4.567810929e-13
6.025592345e-13
7.62250476e-13
9.102560007e-13
1.007676805e-12
2.534505311e-13
3.169479573e-13
4.203206054e-13
5.695229078e-13
7.673026805e-13
1.007495242e-12
1.268568563e-12
1.508648509e-12
1.665536636e-12
4.287546972e-13
5.348474396e-13
7.0684486e-13
9.536956128e-13
1.27866843e-12
1.670272148e-12
2.092444421e-12
2.477550209e-12
2.727375334e-12
7.205841624e-13
8.961144698e-13
1.179364644e-12
1.58337628e-12
2.111342229e-12
2.742432736e-12
3.417176761e-12
4.02782843e-12
4.421203134e-12
1.201858188e-12
1.488944209e-12
1.949856545e-12
2.602921041e-12
3.449818342e-12
4.453924551e-12
5.518933984e-12
6.475760471e-12
7.08832357e-12
1.987172212e-12
2.450447091e-12
3.190118246e-12
4.230779513e-12
5.569698974e-12
7.144496928e-12
8.802437237e-12
1.02825675e-11
1.122549735e-11
3.253768438e-12
3.989861726e-12
5.158000074e-12
6.789067815e-12
8.87042589e-12
1.129897423e-11
1.383794202e-11
1.609237393e-11
1.752347254e-11
5.271941689e-12
6.421064538e-12
8.232189964e-12
1.073965405e-11
1.391023929e-11
1.757716405e-11
2.138134302e-11
2.473908239e-11
2.686264587e-11
8.450070181e-12
1.020913258e-11
1.295908544e-11
1.672728165e-11
2.143724615e-11
2.681910805e-11
3.23352502e-11
3.714752754e-11
4.016002761e-11
1.340397912e-11
1.604055476e-11
2.012031666e-11
2.563456383e-11
3.241123804e-11
3.999695589e-11
4.757701239e-11
5.39840123e-11
5.784755919e-11
2.106651934e-11
2.493331389e-11
3.083669952e-11
3.866128037e-11
4.801783029e-11
5.808853616e-11
6.757662215e-11
7.489794265e-11
7.873449079e-11
3.285362961e-11
3.840104926e-11
4.671856065e-11
5.743047273e-11
6.966824564e-11
8.186693966e-11
9.184741362e-11
9.755395791e-11
9.869104259e-11
5.087307703e-11
5.864091462e-11
7.000301959e-11
8.402128612e-11
9.885439528e-11
1.115430871e-10
1.185462246e-10
1.177350122e-10
1.117816914e-10
7.804820979e-11
8.856089729e-11
1.033973474e-10
1.205154658e-10
1.363416976e-10
1.45876761e-10
1.445507165e-10
1.322147753e-10
1.167684286e-10
1.17756593e-10
1.311366392e-10
1.489567218e-10
1.672322744e-10
1.799137066e-10
1.803917098e-10
1.659530015e-10
1.420767568e-10
1.207573507e-10
1.721478411e-10
1.872075607e-10
2.05177539e-10
2.193407724e-10
2.216438401e-10
2.072860875e-10
1.8024318e-10
1.510940004e-10
1.295647884e-10
2.382620717e-10
2.513074754e-10
2.630735153e-10
2.648709216e-10
2.504253066e-10
2.22020419e-10
1.894644234e-10
1.608324679e-10
1.407400553e-10
3.034391357e-10
3.086463629e-10
3.069131022e-10
2.916464844e-10
2.632379634e-10
2.294016169e-10
1.971703689e-10
1.689938626e-10
1.481583245e-10
3.48411421e-10
3.427481184e-10
3.274526894e-10
3.015249387e-10
2.694354308e-10
2.36245588e-10
2.036420188e-10
1.727188373e-10
1.492931497e-10
3.664567721e-10
3.546646418e-10
3.347314899e-10
3.080808755e-10
2.772102534e-10
2.431766055e-10
2.067748402e-10
1.718879045e-10
1.466080547e-10
3.742214191e-10
3.625203575e-10
3.437732678e-10
3.180508165e-10
2.85437011e-10
2.4680842e-10
2.059005397e-10
1.689168339e-10
1.434922756e-10
3.872832051e-10
3.758566151e-10
3.562201502e-10
3.271634839e-10
2.89188736e-10
2.458976869e-10
2.03098874e-10
1.664652877e-10
1.420298028e-10
4.027629872e-10
3.885113667e-10
3.642182092e-10
3.296087261e-10
2.874415796e-10
2.428679186e-10
2.010969297e-10
1.66268799e-10
1.432247904e-10
4.097238168e-10
3.91633105e-10
3.631305515e-10
3.25802732e-10
2.835130383e-10
2.409009474e-10
2.018118706e-10
1.692944196e-10
1.476536323e-10
4.046928581e-10
3.85137367e-10
3.561917504e-10
3.203073075e-10
2.811060424e-10
2.421693039e-10
2.063542721e-10
1.761960574e-10
1.558299489e-10
3.933226902e-10
3.751329358e-10
3.489440664e-10
3.171131633e-10
2.825044576e-10
2.478616871e-10
2.154606822e-10
1.875927984e-10
1.683778224e-10
3.82155966e-10
3.669369101e-10
3.450540841e-10
3.182970048e-10
2.888096592e-10
2.586798601e-10
2.297691227e-10
2.04202598e-10
1.861043253e-10
3.748263865e-10
3.631178132e-10
3.460240053e-10
3.246811755e-10
3.005470102e-10
2.751390189e-10
2.499411285e-10
2.268775968e-10
2.100038522e-10
3.724916496e-10
3.64426811e-10
3.522649949e-10
3.365126983e-10
3.179949865e-10
2.976903526e-10
2.766727667e-10
2.56562518e-10
2.411968788e-10
3.752492926e-10
3.708596917e-10
3.637288673e-10
3.537988237e-10
3.413162758e-10
3.26726687e-10
3.106267185e-10
2.941839297e-10
2.80798589e-10
3.82822861e-10
3.821539488e-10
3.802091251e-10
3.764431102e-10
3.705771007e-10
3.625202653e-10
3.523093067e-10
3.404818137e-10
3.297241395e-10
3.948813153e-10
3.980127105e-10
4.014652991e-10
4.042835773e-10
4.057149607e-10
4.051294591e-10
4.019218463e-10
3.958154884e-10
3.88469959e-10
4.111764246e-10
4.181985226e-10
4.272684505e-10
4.370917647e-10
4.464932929e-10
4.54310141e-10
4.592343816e-10
4.600224963e-10
4.570104055e-10
4.315945928e-10
4.425663661e-10
4.57412388e-10
4.745620916e-10
4.924706515e-10
5.094710575e-10
5.235448332e-10
5.324382826e-10
5.34793922e-10
4.561581707e-10
4.71060229e-10
4.917072264e-10
5.163080379e-10
5.430110225e-10
5.69712735e-10
5.93798429e-10
6.117382558e-10
6.199130423e-10
4.849858958e-10
5.036812786e-10
5.299656449e-10
5.618855714e-10
5.973775701e-10
6.34088291e-10
6.684799485e-10
6.954809982e-10
7.096733011e-10
5.182272649e-10
5.404472931e-10
5.720141824e-10
6.108828581e-10
6.550255437e-10
7.012520307e-10
7.451889659e-10
7.807878678e-10
8.008527665e-10
5.560162423e-10
5.814037397e-10
6.178795146e-10
6.632376901e-10
7.148193304e-10
7.691564718e-10
8.213789968e-10
8.645905148e-10
8.900057533e-10
5.987331168e-10
6.269020955e-10
6.673490517e-10
7.176786977e-10
7.750415093e-10
8.357274739e-10
8.945084399e-10
9.438706285e-10
9.737614613e-10
6.45912242e-10
6.759219548e-10
7.190293258e-10
7.727054871e-10
8.339574967e-10
8.989185323e-10
9.621693875e-10
1.015857363e-09
1.049070839e-09
6.960572955e-10
7.269798309e-10
7.713939103e-10
8.266850268e-10
8.897785997e-10
9.567553836e-10
1.022184648e-09
1.078166804e-09
1.113378058e-09
7.47457655e-10
7.783560535e-10
8.226994448e-10
8.778390228e-10
9.406902443e-10
1.007392901e-09
1.072680979e-09
1.128886738e-09
1.164716413e-09
7.981310302e-10
8.28091268e-10
8.710254867e-10
9.24308817e-10
9.849248496e-10
1.049182852e-09
1.112142403e-09
1.166613893e-09
1.201737025e-09
8.459193168e-10
8.740957889e-10
9.143915272e-10
9.642684896e-10
1.020857575e-09
1.080739445e-09
1.139436035e-09
1.190438976e-09
1.223666503e-09
8.886530345e-10
9.143100593e-10
9.509062143e-10
9.960520453e-10
1.047097886e-09
1.100979329e-09
1.153783866e-09
1.199840381e-09
1.230140115e-09
9.243268602e-10
9.46867978e-10
9.789098701e-10
1.01826386e-09
1.062551847e-09
1.109109404e-09
1.154629762e-09
1.194361908e-09
1.22068631e-09
9.512461967e-10
9.702278358e-10
9.970810515e-10
1.029850766e-09
1.066444725e-09
1.104565257e-09
1.141382012e-09
1.172768961e-09
1.191878258e-09
9.681174049e-10
9.832443767e-10
1.004481203e-09
1.030112725e-09
1.058302992e-09
1.087011537e-09
1.113592279e-09
1.133940957e-09
1.146397551e-09
9.740564721e-10
9.851515554e-10
1.000491644e-09
1.018565136e-09
1.037702131e-09
1.055974532e-09
1.07029365e-09
1.081845015e-09
1.089664813e-09
9.684695008e-10
9.754034938e-10
9.845720681e-10
9.945321753e-10
1.003406819e-09
1.010204162e-09
1.015931794e-09
1.021301985e-09
1.025654176e-09
9.506550152e-10
9.532248391e-10
9.556713538e-10
9.5645567e-10
9.56172279e-10
9.553301403e-10
9.548886654e-10
9.556076357e-10
9.572206347e-10
9.185078314e-10
9.162803475e-10
9.125695718e-10
9.073175505e-10
9.011442301e-10
8.94976882e-10
8.899583092e-10
8.8706669e-10
8.86469801e-10
8.737067568e-10
8.686034306e-10
8.611467374e-10
8.518549898e-10
8.416100019e-10
8.315839772e-10
8.231121607e-10
8.174064063e-10
8.15035531e-10
8.21822169e-10
8.148654882e-10
8.049400884e-10
7.928625116e-10
7.797308855e-10
7.668953457e-10
7.558481015e-10
7.479946961e-10
7.442356917e-10
7.659531301e-10
7.577656834e-10
7.461798358e-10
7.321939118e-10
7.170586623e-10
7.022481001e-10
6.893632068e-10
6.799463603e-10
6.751493226e-10
7.080575804e-10
6.990815794e-10
6.864312038e-10
6.712209678e-10
6.548004912e-10
6.387184877e-10
6.246353003e-10
6.141720493e-10
6.08652844e-10
6.495543095e-10
6.401392956e-10
6.26905431e-10
6.110370354e-10
5.939376607e-10
5.771867442e-10
5.624586254e-10
5.514005345e-10
5.454380401e-10
5.915721488e-10
5.82007143e-10
5.685906086e-10
5.525394613e-10
5.352729714e-10
5.18363192e-10
5.034595078e-10
4.921908379e-10
4.860240258e-10
5.350425826e-10
5.255668514e-10
5.122995682e-10
4.964590678e-10
4.794480409e-10
4.627993428e-10
4.481057639e-10
4.369425536e-10
4.307690956e-10
4.807292373e-10
4.715360009e-10
4.586850831e-10
4.433702469e-10
4.269510425e-10
4.108957659e-10
3.967163209e-10
3.859076558e-10
3.79884333e-10
4.292361421e-10
4.204748772e-10
4.082457559e-10
3.936969969e-10
3.78124067e-10
3.629115342e-10
3.494732144e-10
3.392054313e-10
3.334506708e-10
3.810124107e-10
3.727917277e-10
3.613323788e-10
3.477208582e-10
3.331731835e-10
3.189770421e-10
3.064372012e-10
2.968400167e-10
2.914375765e-10
3.363595714e-10
3.287510276e-10
3.181576574e-10
3.055927976e-10
2.921826553e-10
2.791101175e-10
2.675653552e-10
2.587193251e-10
2.537228604e-10
2.954437768e-10
2.884867453e-10
2.788108278e-10
2.673489869e-10
2.551317932e-10
2.432339388e-10
2.327299057e-10
2.24674542e-10
2.201125702e-10
2.583122156e-10
2.520191518e-10
2.432749704e-10
2.329287451e-10
2.219134372e-10
2.111958635e-10
2.017372237e-10
1.944791477e-10
1.903600178e-10
2.249119795e-10
2.192738238e-10
2.114461237e-10
2.021936418e-10
1.923528851e-10
1.827860146e-10
1.743459562e-10
1.678666067e-10
1.641831813e-10
1.951101434e-10
1.901015153e-10
1.831527941e-10
1.74946463e-10
1.662261381e-10
1.57754675e-10
1.502835378e-10
1.445461063e-10
1.412799609e-10
1.687136248e-10
1.64297555e-10
1.581746541e-10
1.509489922e-10
1.432765943e-10
1.358278061e-10
1.29260564e-10
1.242159694e-10
1.213410008e-10
1.454876932e-10
1.416197326e-10
1.362595219e-10
1.299378559e-10
1.232296091e-10
1.167202739e-10
1.109827604e-10
1.065745908e-10
1.040599976e-10
1.251723459e-10
1.218039757e-10
1.171380437e-10
1.116379901e-10
1.058046193e-10
1.001466134e-10
9.516049108e-11
9.132893127e-11
8.914158078e-11
1.074961067e-10
1.045774434e-10
1.005357958e-10
9.577355171e-11
9.072476187e-11
8.582935955e-11
8.151591821e-11
7.820073931e-11
7.630697194e-11
9.218709886e-11
8.966893829e-11
8.618277555e-11
8.207631499e-11
7.772409901e-11
7.350511985e-11
6.978803735e-11
6.693076456e-11
6.529770618e-11
7.898147048e-11
7.681674655e-11
7.382043192e-11
7.029174927e-11
6.655268446e-11
6.292865668e-11
5.973588288e-11
5.728127189e-11
5.587773369e-11
6.762941037e-11
6.577415931e-11
6.320650743e-11
6.018306781e-11
5.697977887e-11
5.387529766e-11
5.114022573e-11
4.903718062e-11
4.783422633e-11
5.789908275e-11
5.6313009e-11
5.41180294e-11
5.153358643e-11
4.879554837e-11
4.61420019e-11
4.380408355e-11
4.200614051e-11
4.097739501e-11
4.957885046e-11
4.822558436e-11
4.635280574e-11
4.414773606e-11
4.181157645e-11
3.954739563e-11
3.755233999e-11
3.601782692e-11
3.513959164e-11
4.247815381e-11
4.132528194e-11
3.972976857e-11
3.785105383e-11
3.58604926e-11
3.393105853e-11
3.223073341e-11
3.092269847e-11
3.017392851e-11
3.642738406e-11
3.544632047e-11
3.408847441e-11
3.248944e-11
3.07949813e-11
2.915230053e-11
2.770443312e-11
2.659041764e-11
2.595260539e-11
3.127704669e-11
3.044280027e-11
2.928802492e-11
2.792792282e-11
2.648638998e-11
2.508862469e-11
2.385637796e-11
2.290809321e-11
2.236509316e-11
2.689645906e-11
2.618733991e-11
2.52056234e-11
2.404912655e-11
2.282310984e-11
2.163402939e-11
2.058551236e-11
1.977846384e-11
1.931628521e-11
2.317217642e-11
2.256947339e-11
2.173493519e-11
2.075159366e-11
1.970886315e-11
1.869726428e-11
1.780501595e-11
1.711810956e-11
1.672469631e-11
2.000629458e-11
1.949394735e-11
1.878437928e-11
1.794807188e-11
1.706098794e-11
1.620011921e-11
1.544059968e-11
1.485575103e-11
1.452076194e-11
1.731473444e-11
1.687901433e-11
1.627543579e-11
1.55638426e-11
1.480879329e-11
1.407580542e-11
1.342890981e-11
1.293067152e-11
1.264526963e-11
1.502558238e-11
1.465479315e-11
1.414103531e-11
1.353514553e-11
1.289202218e-11
1.22674578e-11
1.171606589e-11
1.129128216e-11
1.1047939e-11
1.30775353e-11
1.276173903e-11
1.232406456e-11
1.180772725e-11
1.125944711e-11
1.072677703e-11
1.025634456e-11
9.893837715e-12
9.686155133e-12
1.141847618e-11
1.114924682e-11
1.07760083e-11
1.03355296e-11
9.867608506e-12
9.412817408e-12
9.011011161e-12
8.701301593e-12
8.523852416e-12
1.000419256e-11
9.774397441e-12
9.455734945e-12
9.079521886e-12
8.679696928e-12
8.290917728e-12
7.947293807e-12
7.682353146e-12
7.530540401e-12
8.797239668e-12
8.600848114e-12
8.328424434e-12
8.00667343e-12
7.664573198e-12
7.331767932e-12
7.037491024e-12
6.810526633e-12
6.680460563e-12
7.765943409e-12
7.597860605e-12
7.364631567e-12
7.089058316e-12
6.795917261e-12
6.510600759e-12
6.258201146e-12
6.063469599e-12
5.951861097e-12
6.883533986e-12
6.739457813e-12
6.539474449e-12
6.303081457e-12
6.051494133e-12
5.806496392e-12
5.589661037e-12
5.42230771e-12
5.326376608e-12
6.127398558e-12
6.003696996e-12
5.831936173e-12
5.628813778e-12
5.412524579e-12
5.201787526e-12
5.015181405e-12
4.871103284e-12
4.788499864e-12
5.478440526e-12
5.372047162e-12
5.224267254e-12
5.049424114e-12
4.863148197e-12
4.681552608e-12
4.520666578e-12
4.396395412e-12
4.325133531e-12
4.920532906e-12
4.828858217e-12
4.701476578e-12
4.550695792e-12
4.389967092e-12
4.233185725e-12
4.094207424e-12
3.986810556e-12
3.925210863e-12
4.440053799e-12
4.360910056e-12
4.250899325e-12
4.120616663e-12
3.981659274e-12
3.846032579e-12
3.725737161e-12
3.632733596e-12
3.57937546e-12
4.025492867e-12
3.95703073e-12
3.861831263e-12
3.749032344e-12
3.628651912e-12
3.51108307e-12
3.406740943e-12
3.326030448e-12
3.279711344e-12
3.667118792e-12
3.607773865e-12
3.525219927e-12
3.427353548e-12
3.322845708e-12
3.220712146e-12
3.130011164e-12
3.059814486e-12
3.01951574e-12
3.356698801e-12
3.305146639e-12
3.233404272e-12
3.148309434e-12
3.057382729e-12
2.968461599e-12
2.889441533e-12
2.828250036e-12
2.793107977e-12
3.087262422e-12
3.042380713e-12
2.979895484e-12
2.905740017e-12
2.826451024e-12
2.748856493e-12
2.679853892e-12
2.626387178e-12
2.595668845e-12
2.852902741e-12
2.813739491e-12
2.759192561e-12
2.694421511e-12
2.62512031e-12
2.557250835e-12
2.496852641e-12
2.450022892e-12
2.423105607e-12
2.648609212e-12
2.614356046e-12
2.566627258e-12
2.509919527e-12
2.449203863e-12
2.389697849e-12
2.336702381e-12
2.295584368e-12
2.271938554e-12
2.470127205e-12
2.440096918e-12
2.398233796e-12
2.34846569e-12
2.295142424e-12
2.242840934e-12
2.196225081e-12
2.160030944e-12
2.139205668e-12
2.313839957e-12
2.287447657e-12
2.250639328e-12
2.206853913e-12
2.15990661e-12
2.113822007e-12
2.072713632e-12
2.040771655e-12
2.022382477e-12
2.176669321e-12
2.153416576e-12
2.120971861e-12
2.082353193e-12
2.040914869e-12
2.000204431e-12
1.963859144e-12
1.935595902e-12
1.919314643e-12
2.055992341e-12
2.035453849e-12
2.00678283e-12
1.972634278e-12
1.935964457e-12
1.899908173e-12
1.86768978e-12
1.842615102e-12
1.828161234e-12
1.949571077e-12
1.931383451e-12
1.90598196e-12
1.875707965e-12
1.843173366e-12
1.811155229e-12
1.782519261e-12
1.760213562e-12
1.747346952e-12
1.855493559e-12
1.839345884e-12
1.816782446e-12
1.789873142e-12
1.760931405e-12
1.73242365e-12
1.706903478e-12
1.687007083e-12
1.675521882e-12
1.772124062e-12
1.757749944e-12
1.737654763e-12
1.713673027e-12
1.687858991e-12
1.662408799e-12
1.639603922e-12
1.621808056e-12
1.611527538e-12
1.698061216e-12
1.685232065e-12
1.667287748e-12
1.645858265e-12
1.622772389e-12
1.599990663e-12
1.57955682e-12
1.563596001e-12
1.55436821e-12
1.632102671e-12
1.620622046e-12
1.604555758e-12
1.585355796e-12
1.564654373e-12
1.544206259e-12
1.525847072e-12
1.511492682e-12
1.503186752e-12
1.57321528e-12
1.562914103e-12
1.548490951e-12
1.531242556e-12
1.512629451e-12
1.494226318e-12
1.477686222e-12
1.464741075e-12
1.45724412e-12
1.520509911e-12
1.511242424e-12
1.498259855e-12
1.482723257e-12
1.465942907e-12
1.449335562e-12
1.434393825e-12
1.42268756e-12
1.41590204e-12
1.473220154e-12
1.464860495e-12
1.453143559e-12
1.439111581e-12
1.423943072e-12
1.40891601e-12
1.395381666e-12
1.384766844e-12
1.378608332e-12
1.430684296e-12
1.423123603e-12
1.412520932e-12
1.39981426e-12
1.386066303e-12
1.372432834e-12
1.360140377e-12
1.350489178e-12
1.344884471e-12
1.392330061e-12
1.385474011e-12
1.375854416e-12
1.364317579e-12
1.351824245e-12
1.339422356e-12
1.328228096e-12
1.319429508e-12
1.314315013e-12
1.357661662e-12
1.351428386e-12
1.342677964e-12
1.332175923e-12
1.320793027e-12
1.309481865e-12
1.299260821e-12
1.291218252e-12
1.286538629e-12
1.32624882e-12
1.320567129e-12
1.312586806e-12
1.303002056e-12
1.292604073e-12
1.282260957e-12
1.272904221e-12
1.265533468e-12
1.261240463e-12
1.29771743e-12
1.292525306e-12
1.285228747e-12
1.276458849e-12
1.266936297e-12
1.25745417e-12
1.248866659e-12
1.242094177e-12
1.238145635e-12
1.271741625e-12
1.26698494e-12
1.260296766e-12
1.252252245e-12
1.243509452e-12
1.234794713e-12
1.226893252e-12
1.220654683e-12
1.217013702e-12
1.248037019e-12
1.243668438e-12
1.237522712e-12
1.230125265e-12
1.222078464e-12
1.214049114e-12
1.206760804e-12
1.200999715e-12
1.19763393e-12
1.226354952e-12
1.222333e-12
1.216671929e-12
1.209852897e-12
1.202428598e-12
1.195012664e-12
1.188273483e-12
1.182940291e-12
1.179821258e-12
1.206477575e-12
1.202765841e-12
1.197538669e-12
1.191237727e-12
1.184371332e-12
1.177505512e-12
1.171259122e-12
1.166310174e-12
1.163412842e-12
1.188213659e-12
1.184780111e-12
1.179942176e-12
1.174106217e-12
1.167740825e-12
1.16136933e-12
1.155566055e-12
1.150962843e-12
1.148265106e-12
1.171395004e-12
1.168211409e-12
1.163723328e-12
1.158305505e-12
1.152390898e-12
1.146464463e-12
1.14106041e-12
1.136768893e-12
1.134251203e-12
1.155873374e-12
1.152914795e-12
1.148741774e-12
1.143700677e-12
1.138192442e-12
1.132667476e-12
1.127623785e-12
1.123613811e-12
1.121258846e-12
1.141517864e-12
1.138762231e-12
1.134873466e-12
1.13017242e-12
1.125031201e-12
1.119869053e-12
1.115151251e-12
1.111396056e-12
1.109188438e-12
1.128212643e-12
1.125640385e-12
1.12200855e-12
1.117615007e-12
1.11280586e-12
1.107972193e-12
1.103549637e-12
1.100025421e-12
1.097951466e-12
1.115855015e-12
1.113448743e-12
1.110049551e-12
1.105934569e-12
1.101426406e-12
1.096890654e-12
1.092736052e-12
1.089421607e-12
1.087469119e-12
1.104353753e-12
1.102097985e-12
1.098909808e-12
1.095047601e-12
1.090812711e-12
1.086547616e-12
1.082636615e-12
1.079513008e-12
1.077671092e-12
1.09362766e-12
1.091508588e-12
1.088512127e-12
1.084879681e-12
1.080893318e-12
1.076874523e-12
1.073185352e-12
1.070235647e-12
1.068494559e-12
1.083604329e-12
1.081609614e-12
1.07878762e-12
1.075364355e-12
1.071604379e-12
1.067810084e-12
1.064323248e-12
1.061532273e-12
1.059883275e-12
1.074219072e-12
1.072337669e-12
1.069674697e-12
1.066442177e-12
1.06288875e-12
1.05929941e-12
1.055997419e-12
1.053351559e-12
1.051786811e-12
1.065413991e-12
1.063635997e-12
1.061118195e-12
1.058059881e-12
1.054695196e-12
1.05129326e-12
1.048160405e-12
1.045647423e-12
1.044159874e-12
1.057137172e-12
1.055453693e-12
1.053068619e-12
1.050169651e-12
1.046977702e-12
1.043747391e-12
1.04076954e-12
1.038378426e-12
1.03696173e-12
1.049341981e-12
1.047745019e-12
1.045481481e-12
1.042728489e-12
1.039694873e-12
1.036621979e-12
1.033786409e-12
1.031507246e-12
1.030155688e-12
1.041986444e-12
1.040468799e-12
1.038316718e-12
1.03569766e-12
1.0328094e-12
1.029881124e-12
1.027176368e-12
1.02500022e-12
1.023708647e-12
1.035032706e-12
1.033587886e-12
1.031538177e-12
1.029042195e-12
1.026287593e-12
1.023492394e-12
1.020908113e-12
1.018826924e-12
1.017590694e-12
1.028446542e-12
1.027068689e-12
1.025113153e-12
1.022730451e-12
1.020098952e-12
1.01742642e-12
1.014953294e-12
1.012959802e-12
1.011774732e-12
1.022196914e-12
1.020880737e-12
1.01901197e-12
1.016733702e-12
1.014215778e-12
1.011656521e-12
1.009286145e-12
1.007373812e-12
1.006236139e-12
1.016255566e-12
1.01499628e-12
1.013207587e-12
1.011025758e-12
1.008612801e-12
1.006158344e-12
1.003883143e-12
1.002046082e-12
1.000952421e-12
1.010596634e-12
1.009389904e-12
1.00767522e-12
1.005582594e-12
1.003266822e-12
1.000909509e-12
9.987226516e-13
9.969555637e-13
9.959028786e-13
1.005196266e-12
1.004038154e-12
1.002391974e-12
1.000381982e-12
9.981563383e-13
9.958892384e-13
9.93784555e-13
9.920826684e-13
9.9106823e-13
1.000032249e-12
9.989191574e-13
9.973364541e-13
9.954031053e-13
9.932611617e-13
9.910779722e-13
9.890498635e-13
9.874088611e-13
9.864302093e-13
9.950836062e-13
9.940122241e-13
9.924883707e-13
9.906261532e-13
9.885619984e-13
9.86456932e-13
9.845002683e-13
9.829162061e-13
9.819711011e-13
9.903301849e-13
9.892974228e-13
9.878281016e-13
9.860318697e-13
9.840399855e-13
9.820076405e-13
9.801176378e-13
9.785868434e-13
9.776732042e-13
9.857522029e-13
9.847551216e-13
9.833362189e-13
9.816010626e-13
9.796761732e-13
9.777113751e-13
9.758834422e-13
9.744023867e-13
9.735182119e-13
9.813297585e-13
9.803654836e-13
9.789929669e-13
9.773140549e-13
9.754509457e-13
9.735485525e-13
9.717781002e-13
9.703432343e-13
9.694864991e-13
9.770422956e-13
9.76107918e-13
9.747776882e-13
9.731500807e-13
9.713433781e-13
9.694980414e-13
9.677802444e-13
9.663877928e-13
9.655563191e-13
9.728680261e-13
9.719604839e-13
9.706682018e-13
9.690866261e-13
9.673305337e-13
9.655364094e-13
9.638659162e-13
9.625116233e-13
9.617029167e-13
9.687833132e-13
9.678992548e-13
9.666401378e-13
9.650987261e-13
9.633867132e-13
9.616371177e-13
9.600077032e-13
9.586865282e-13
9.57897581e-13
9.647620288e-13
9.638976556e-13
9.626662453e-13
9.611582334e-13
9.594826755e-13
9.577696884e-13
9.561738508e-13
9.548796103e-13
9.541066716e-13
9.607749005e-13
9.599257927e-13
9.587156946e-13
9.572330844e-13
9.555848615e-13
9.538988794e-13
9.523273859e-13
9.510523524e-13
9.502906675e-13
9.567888754e-13
9.559498024e-13
9.547534048e-13
9.532865999e-13
9.516546602e-13
9.499839134e-13
9.484253087e-13
9.471597748e-13
9.464033034e-13
9.527665322e-13
9.51931255e-13
9.507394362e-13
9.492768612e-13
9.476477693e-13
9.459778206e-13
9.444179182e-13
9.431497469e-13
9.423908732e-13
9.486655837e-13
9.478266574e-13
9.466284935e-13
9.451562186e-13
9.4351371e-13
9.41826964e-13
9.402483502e-13
9.3896254e-13
9.381917946e-13
9.444385146e-13
9.435871052e-13
9.423695994e-13
9.40870993e-13
9.391955652e-13
9.374708241e-13
9.358524168e-13
9.345307184e-13
9.337365385e-13
9.400324097e-13
9.391581378e-13
9.379059938e-13
9.363614365e-13
9.346300204e-13
9.328421328e-13
9.311588397e-13
9.297794739e-13
9.289480359e-13
9.353890282e-13
9.344798604e-13
9.331753283e-13
9.315620258e-13
9.297477809e-13
9.278674396e-13
9.260899818e-13
9.246275116e-13
9.23742675e-13
9.304451875e-13
9.29487395e-13
9.28110221e-13
9.264021589e-13
9.244744482e-13
9.22468199e-13
9.205631636e-13
9.189885887e-13
9.180319978e-13
9.251335135e-13
9.241117225e-13
9.226392391e-13
9.208073271e-13
9.18731929e-13
9.165624586e-13
9.144926542e-13
9.127737948e-13
9.117251882e-13
9.193836173e-13
9.182809749e-13
9.166883678e-13
9.147008219e-13
9.124404394e-13
9.100672107e-13
9.077924002e-13
9.058946417e-13
9.047324195e-13
9.13123747e-13
9.119222269e-13
9.101830149e-13
9.080060254e-13
9.055211513e-13
9.029014532e-13
9.003795322e-13
8.982669953e-13
8.969690912e-13
9.062829544e-13
9.04963825e-13
9.030505859e-13
9.006493138e-13
8.978995005e-13
8.949899663e-13
8.921786464e-13
8.898158367e-13
8.88360932e-13
8.987937987e-13
8.973382711e-13
8.952236393e-13
8.925635726e-13
8.895091435e-13
8.862677772e-13
8.83126808e-13
8.804807759e-13
8.788498785e-13
8.905955849e-13
8.889856517e-13
8.866436017e-13
8.836922868e-13
8.802965027e-13
8.766852207e-13
8.731791568e-13
8.702221674e-13
8.684005531e-13
8.816381042e-13
8.798575688e-13