/*--------------------------------*- C++ -*----------------------------------*\
| =========                 |                                                 |
| \\      /  F ield         | OpenFOAM: The Open Source CFD Toolbox           |
|  \\    /   O peration     | Version:  2212                                  |
|   \\  /    A nd           | Website:  www.openfoam.com                      |
|    \\/     M anipulation  |                                                 |
\*---------------------------------------------------------------------------*/
FoamFile
{
    version     2.0;
    format      ascii;
    arch        "LSB;label=32;scalar=64";
    class       volScalarField;
    location    "20.00000000";
    object      H_0;
}
// * * * * * * * * * * * * * * * * * * * * * * * * * * * * * * * * * * * * * //

dimensions      [0 0 0 0 0 0 0];

internalField   nonuniform List<scalar> 
3000
(
6.599596037e-28
7.408695844e-28
8.626552001e-28
1.024236909e-27
1.222993925e-27
1.451543151e-27
1.6918656e-27
1.905648244e-27
2.025554772e-27
2.467859439e-27
2.779604364e-27
3.247491507e-27
3.867219658e-27
4.631821138e-27
5.526111965e-27
6.51597691e-27
7.5229013e-27
8.32900054e-27
5.50051582e-27
6.23962692e-27
7.357666213e-27
8.860064773e-27
1.075635513e-26
1.304716992e-26
1.568438061e-26
1.847142615e-26
2.070875063e-26
1.042077461e-26
1.193831893e-26
1.426620114e-26
1.745987762e-26
2.159646871e-26
2.672906555e-26
3.276050872e-26
3.913148267e-26
4.403974714e-26
1.840469059e-26
2.13363414e-26
2.59048575e-26
3.229882967e-26
4.075420985e-26
5.141867075e-26
6.400107843e-26
7.703656364e-26
8.665899628e-26
3.148108662e-26
3.69562688e-26
4.561457369e-26
5.793327081e-26
7.446182925e-26
9.547737507e-26
1.201945265e-25
1.453513742e-25
1.634590682e-25
5.31726088e-26
6.31880033e-26
7.921691898e-26
1.022962882e-25
1.335289709e-25
1.73306321e-25
2.197283445e-25
2.661495105e-25
2.989525615e-25
8.955292922e-26
1.076110101e-25
1.367790384e-25
1.791265515e-25
2.367085164e-25
3.099761146e-25
3.948481753e-25
4.78641849e-25
5.372432408e-25
1.511185701e-25
1.83346589e-25
2.357573373e-25
3.12276772e-25
4.165888385e-25
5.490875061e-25
7.016594776e-25
8.509950138e-25
9.548621e-25
2.56002367e-25
3.130875441e-25
4.06380042e-25
5.430988286e-25
7.297228755e-25
9.663679041e-25
1.237659756e-24
1.501667528e-24
1.684792332e-24
4.355684749e-25
5.361271168e-25
7.010463499e-25
9.433422599e-25
1.274305805e-24
1.693370618e-24
2.172278636e-24
2.63658735e-24
2.958344867e-24
7.44110335e-25
9.205463744e-25
1.210638913e-24
1.637569262e-24
2.22093806e-24
2.95876491e-24
3.800114104e-24
4.613915994e-24
5.178000241e-24
1.275697719e-24
1.584412618e-24
2.092932717e-24
2.842229327e-24
3.866275693e-24
5.160326593e-24
6.633681383e-24
8.056852998e-24
9.044637105e-24
2.193384011e-24
2.732555604e-24
3.621948102e-24
4.933698549e-24
6.726772524e-24
8.991229252e-24
1.156645379e-23
1.405135741e-23
1.578170598e-23
3.779739132e-24
4.720202846e-24
6.273408624e-24
8.566366692e-24
1.170222183e-23
1.566219593e-23
2.016158229e-23
2.44934655e-23
2.753262288e-23
6.524114848e-24
8.162688972e-24
1.08716515e-23
1.487473998e-23
2.035420054e-23
2.728022814e-23
3.516286712e-23
4.278181069e-23
4.804765677e-23
1.127356976e-23
1.412484836e-23
1.884197957e-23
2.581635021e-23
3.536525289e-23
4.743300064e-23
6.115778309e-23
7.441999275e-23
8.359003932e-23
1.949523197e-23
2.445144789e-23
3.265485739e-23
4.478773511e-23
6.140077675e-23
8.239265277e-23
1.062617635e-22
1.293530829e-22
1.452860577e-22
3.373187009e-23
4.234087435e-23
5.659573631e-23
7.768495342e-23
1.06565911e-22
1.430602915e-22
1.845598457e-22
2.247566355e-22
2.524330958e-22
5.839259405e-23
7.334059797e-23
9.810004898e-23
1.347411234e-22
1.849305877e-22
2.483594152e-22
3.204992316e-22
3.904415432e-22
4.385123679e-22
1.011256029e-22
1.270755717e-22
1.700717258e-22
2.337198418e-22
3.209236539e-22
4.311508611e-22
5.565366251e-22
6.78160279e-22
7.616429004e-22
1.752030431e-22
2.202516729e-22
2.949136543e-22
4.054696482e-22
5.569808471e-22
7.48533373e-22
9.664547351e-22
1.177765147e-21
1.32272132e-21
3.036680442e-22
3.818802938e-22
5.115424753e-22
7.035977038e-22
9.66874856e-22
1.299811301e-21
1.678598606e-21
2.045276706e-21
2.296912524e-21
5.265544485e-22
6.623787479e-22
8.876165236e-22
1.221349495e-21
1.679004141e-21
2.257932809e-21
2.916595998e-21
3.551940197e-21
3.988502577e-21
9.134762168e-22
1.149451141e-21
1.540897734e-21
2.121138872e-21
2.917209034e-21
3.92473864e-21
5.071529932e-21
6.177039949e-21
6.93031131e-21
1.585624687e-21
1.995865643e-21
2.676674881e-21
3.686392827e-21
5.072621767e-21
6.828447932e-21
8.828693175e-21
1.075862314e-20
1.207466856e-20
2.75432161e-21
3.468213514e-21
4.653607083e-21
6.413052797e-21
8.830983941e-21
1.18972899e-20
1.539533975e-20
1.877571986e-20
2.108505672e-20
4.788856639e-21
6.032894248e-21
8.100212998e-21
1.117214593e-20
1.540004973e-20
2.077161885e-20
2.691312675e-20
3.286354674e-20
3.694215328e-20
8.33641579e-21
1.050856168e-20
1.412228404e-20
1.950091746e-20
2.69197599e-20
3.63716296e-20
4.721504697e-20
5.776463903e-20
6.503635059e-20
1.453543623e-20
1.833835019e-20
2.46753346e-20
3.412946851e-20
4.721098426e-20
6.394470195e-20
8.323822258e-20
1.021263679e-19
1.152610123e-19
2.539809449e-20
3.208022228e-20
4.32401827e-20
5.994476968e-20
8.316136264e-20
1.130287443e-19
1.477090804e-19
1.819652346e-19
2.060961942e-19
4.450241892e-20
5.629938913e-20
7.60629433e-20
1.057795359e-19
1.473309189e-19
2.011985076e-19
2.643478005e-19
3.274864267e-19
3.727559243e-19
7.825864097e-20
9.921235711e-20
1.344622242e-19
1.877832229e-19
2.62936021e-19
3.613504621e-19
4.781633131e-19
5.968005532e-19
6.838094901e-19
1.382563618e-19
1.757581081e-19
2.391881688e-19
3.35882307e-19
4.735592309e-19
6.561496395e-19
8.762416746e-19
1.104103753e-18
1.275825208e-18
2.456796125e-19
3.134255493e-19
4.287974129e-19
6.063858806e-19
8.624306191e-19
1.207253291e-18
1.630578715e-18
2.078749694e-18
2.427025293e-18
4.397493886e-19
5.635017893e-19
7.760353835e-19
1.107048077e-18
1.591461537e-18
2.255584675e-18
3.088033832e-18
3.991376805e-18
4.716646225e-18
7.941599561e-19
1.023185747e-18
1.420489268e-18
2.04785521e-18
2.981776896e-18
4.287950294e-18
5.962539128e-18
7.827520554e-18
9.374731437e-18
1.449696439e-18
1.879905432e-18
2.63492952e-18
3.845893711e-18
5.682874931e-18
8.307473027e-18
1.175190046e-17
1.568869363e-17
1.905802836e-17
2.680269585e-18
3.501893434e-18
4.962682096e-18
7.345803945e-18
1.103378748e-17
1.641938239e-17
2.365199933e-17
3.212419702e-17
3.958126705e-17
5.029352073e-18
6.626960729e-18
9.507333591e-18
1.42909006e-17
2.184499129e-17
3.311376069e-17
4.857687094e-17
6.70934502e-17
8.378326271e-17
9.597631763e-18
1.276345783e-17
1.85541662e-17
2.834450386e-17
4.410987529e-17
6.809425369e-17
1.016350788e-16
1.425469487e-16
1.801205009e-16
1.866144889e-17
2.505720198e-17
3.69234959e-17
5.73299897e-17
9.077880604e-17
1.425332414e-16
2.160293251e-16
3.069522313e-16
3.915792387e-16
3.702689846e-17
5.019616241e-17
7.49557192e-17
1.181859476e-16
1.901120037e-16
3.02882291e-16
4.648031807e-16
6.669944883e-16
8.566803436e-16
7.504348163e-17
1.026529181e-16
1.551611516e-16
2.479848633e-16
4.041651897e-16
6.511949087e-16
1.008099789e-15
1.455699656e-15
1.876728711e-15
1.554033294e-16
2.142371242e-16
3.271356254e-16
5.284841659e-16
8.695661235e-16
1.411136035e-15
2.194481716e-15
3.176243412e-15
4.097631106e-15
3.286374859e-16
4.557631887e-16
7.011349723e-16
1.140779756e-15
1.886965619e-15
3.070254099e-15
4.775146577e-15
6.900329496e-15
8.881440004e-15
7.086333997e-16
9.863561426e-16
1.523651958e-15
2.486563121e-15
4.115999495e-15
6.683880376e-15
1.035195979e-14
1.487985457e-14
1.905599873e-14
1.554033838e-15
2.165435426e-15
3.346868722e-15
5.455655597e-15
8.997626788e-15
1.452087323e-14
2.231167418e-14
3.180068921e-14
4.043118183e-14
3.453438824e-15
4.804952513e-15
7.405222104e-15
1.201149259e-14
1.966432703e-14
3.143661786e-14
4.779175782e-14
6.740185389e-14
8.494992392e-14
7.740143631e-15
1.072843825e-14
1.643952307e-14
2.645706914e-14
4.28915e-14
6.781013046e-14
1.019077834e-13
1.421691249e-13
1.776079974e-13
1.739755315e-14
2.397929836e-14
3.645927344e-14
5.812316942e-14
9.324565737e-14
1.458667974e-13
2.170832183e-13
3.003223392e-13
3.727035957e-13
3.896920259e-14
5.334619943e-14
8.039594607e-14
1.269324605e-13
2.017596692e-13
3.132439554e-13
4.638848388e-13
6.402158325e-13
7.934128598e-13
8.643546621e-14
1.174475824e-13
1.7541625e-13
2.745632203e-13
4.335978792e-13
6.714184395e-13
9.963912265e-13
1.383363165e-12
1.724917896e-12
1.888354113e-13
2.54673244e-13
3.771746818e-13
5.862562531e-13
9.228546761e-13
1.432243017e-12
2.143044086e-12
3.012605399e-12
3.79998871e-12
4.051209765e-13
5.425278898e-13
7.975268391e-13
1.233105143e-12
1.939061116e-12
3.022000531e-12
4.561043343e-12
6.47769639e-12
8.235185826e-12
8.542368055e-13
1.13691534e-12
1.66069151e-12
2.556213129e-12
4.012927127e-12
6.255456302e-12
9.433228057e-12
1.332799921e-11
1.680242821e-11
1.780349948e-12
2.356853989e-12
3.422228502e-12
5.237193935e-12
8.166225094e-12
1.258819653e-11
1.860639997e-11
2.551577487e-11
3.121669744e-11
3.699962097e-12
4.870308985e-12
7.015993822e-12
1.061686169e-11
1.626269495e-11
2.435404687e-11
3.45033501e-11
4.500604212e-11
5.284555569e-11
7.718860738e-12
1.006767831e-11
1.429120858e-11
2.113990922e-11
3.128725928e-11
4.466086802e-11
5.978149218e-11
7.394979455e-11
8.377594283e-11
1.609328392e-11
2.06354198e-11
2.851328894e-11
4.057675458e-11
5.707347569e-11
7.685953318e-11
9.741604413e-11
1.156381697e-10
1.278339598e-10
3.280921416e-11
4.093543495e-11
5.432969121e-11
7.344629794e-11
9.760001185e-11
1.247023405e-10
1.518014901e-10
1.753985781e-10
1.909209169e-10
6.329177606e-11
7.631785726e-11
9.672718541e-11
1.242400251e-10
1.574339321e-10
1.937997201e-10
2.299050127e-10
2.612117162e-10
2.815287152e-10
1.128731089e-10
1.318065907e-10
1.605911006e-10
1.984409508e-10
2.435692773e-10
2.929616746e-10
3.42093257e-10
3.846005848e-10
4.119033923e-10
1.865979651e-10
2.129268692e-10
2.5262091e-10
3.046386551e-10
3.667950066e-10
4.350932968e-10
5.032247174e-10
5.621781089e-10
5.998236401e-10
2.917106342e-10
3.282215882e-10
3.832919583e-10
4.556750808e-10
5.424947995e-10
6.383401072e-10
7.344143594e-10
8.178494867e-10
8.711187152e-10
4.393491231e-10
4.903849283e-10
5.674999794e-10
6.691562013e-10
7.916819545e-10
9.278219265e-10
1.065335631e-09
1.1856983e-09
1.262991955e-09
6.44695502e-10
7.162933524e-10
8.247416639e-10
9.68307946e-10
1.142459958e-09
1.337644986e-09
1.536907579e-09
1.713378579e-09
1.82795341e-09
9.267074111e-10
1.027159156e-09
1.179812941e-09
1.38300557e-09
1.631462176e-09
1.912893295e-09
2.203945223e-09
2.465457732e-09
2.637694817e-09
1.308514727e-09
1.449013199e-09
1.663391489e-09
1.95058439e-09
2.304953064e-09
2.711082182e-09
3.137013566e-09
3.525672304e-09
3.785650448e-09
1.817704757e-09
2.013030837e-09
2.312405174e-09
2.716221544e-09
3.219174602e-09
3.802390899e-09
4.422454581e-09
4.996697641e-09
5.386574193e-09
2.486676771e-09
2.755802621e-09
3.170125877e-09
3.732696246e-09
4.439541992e-09
5.268005239e-09
6.159618888e-09
6.996234743e-09
7.571904222e-09
3.353203759e-09
3.719647363e-09
4.286015084e-09
5.05944404e-09
6.038474579e-09
7.196257798e-09
8.45503173e-09
9.649596601e-09
1.048228061e-08
4.461334995e-09
4.953072443e-09
5.715397179e-09
6.760981885e-09
8.092035514e-09
9.677065838e-09
1.141466218e-08
1.308142071e-08
1.425870936e-08
5.862606488e-09
6.511371812e-09
7.519036573e-09
8.905003452e-09
1.06761487e-08
1.279589418e-08
1.513701021e-08
1.740025607e-08
1.900533724e-08
7.617256633e-09
8.457189667e-09
9.762747773e-09
1.156090884e-08
1.386419269e-08
1.663317185e-08
1.970113601e-08
2.266963193e-08
2.478246082e-08
9.795093273e-09
1.086103166e-08
1.251770693e-08
1.480009044e-08
1.773111177e-08
2.125026271e-08
2.514193522e-08
2.890836571e-08
3.15962274e-08
1.247584513e-08
1.380224268e-08
1.58650167e-08
1.870400077e-08
2.233154729e-08
2.66709794e-08
3.145768953e-08
3.608658393e-08
3.939534237e-08
1.575692487e-08
1.737762568e-08
1.98864421e-08
2.332181911e-08
2.7689755e-08
3.289140972e-08
3.860882971e-08
4.412735774e-08
4.807481167e-08
1.972590307e-08
2.165578009e-08
2.463075812e-08
2.86835638e-08
3.380803755e-08
3.987793802e-08
4.65197134e-08
5.291254439e-08
5.748486073e-08
2.444032278e-08
2.668479552e-08
3.012965511e-08
3.479661857e-08
4.066152172e-08
4.75663747e-08
5.508225098e-08
6.229092544e-08
6.744246655e-08
2.9937259e-08
3.248919687e-08
3.63880481e-08
4.163911834e-08
4.81948678e-08
5.586253429e-08
6.416062911e-08
7.20869736e-08
7.77431695e-08
3.622210965e-08
3.906079497e-08
4.337737609e-08
4.915590846e-08
5.632114009e-08
6.464419344e-08
7.359633812e-08
8.210870895e-08
8.817106647e-08
4.326230833e-08
4.635381576e-08
5.103257171e-08
5.725753924e-08
6.492278209e-08
7.376373749e-08
8.321196798e-08
9.2152148e-08
9.850372268e-08
5.098577584e-08
5.428432195e-08
5.925266768e-08
6.582193392e-08
7.385375775e-08
8.304957088e-08
9.281007138e-08
1.019958688e-07
1.085028771e-07
5.928336485e-08
6.273313882e-08
6.790412587e-08
7.469756305e-08
8.294114264e-08
9.230304755e-08
1.021594507e-07
1.113675063e-07
1.178592692e-07
6.801371468e-08
7.15506437e-08
7.682519514e-08
8.370648443e-08
9.198482909e-08
1.012896856e-07
1.109625056e-07
1.198378408e-07
1.258438869e-07
7.700798793e-08
8.056066189e-08
8.582819643e-08
9.264406002e-08
1.007542895e-07
1.09735998e-07
1.188650911e-07
1.268928343e-07
1.323139085e-07
8.60701328e-08
8.955822316e-08
9.469231378e-08
1.012627629e-07
1.089575816e-07
1.172826141e-07
1.253704415e-07
1.325750877e-07
1.375169693e-07
9.496339847e-08
9.829058819e-08
1.031329041e-07
1.092176989e-07
1.161248048e-07
1.233876366e-07
1.306162163e-07
1.371286024e-07
1.416305724e-07
1.033570271e-07
1.063946209e-07
1.107164063e-07
1.159581515e-07
1.219427786e-07
1.283680273e-07
1.348376206e-07
1.407008232e-07
1.447700228e-07
1.106380925e-07
1.131963516e-07
1.168711027e-07
1.214427527e-07
1.267056863e-07
1.323969341e-07
1.38150612e-07
1.433762626e-07
1.470100769e-07
1.165628681e-07
1.187716102e-07
1.219601858e-07
1.259563983e-07
1.305702365e-07
1.355663628e-07
1.40619153e-07
1.452097433e-07
1.484059293e-07
1.214929598e-07
1.234017869e-07
1.261598063e-07
1.296189013e-07
1.3360966e-07
1.379253395e-07
1.422848945e-07
1.462449449e-07
1.490061546e-07
1.255695794e-07
1.271959756e-07
1.295425926e-07
1.324797146e-07
1.358594773e-07
1.395054091e-07
1.43182839e-07
1.465240103e-07
1.488594393e-07
1.288412477e-07
1.301923909e-07
1.321366772e-07
1.345620498e-07
1.373431704e-07
1.40334982e-07
1.433493765e-07
1.460920916e-07
1.480175661e-07
1.313238641e-07
1.324057835e-07
1.339571292e-07
1.358841272e-07
1.380849212e-07
1.404463426e-07
1.428258618e-07
1.449990472e-07
1.465362971e-07
1.330278099e-07
1.33848897e-07
1.350208045e-07
1.364688248e-07
1.381152013e-07
1.398784391e-07
1.416596821e-07
1.43299579e-07
1.444751342e-07
1.33969447e-07
1.345415021e-07
1.353525432e-07
1.36347428e-07
1.374726146e-07
1.386774048e-07
1.399039779e-07
1.410525615e-07
1.418965169e-07
1.341753295e-07
1.345135378e-07
1.349870735e-07
1.355604234e-07
1.362038258e-07
1.368959121e-07
1.376166677e-07
1.383198535e-07
1.388645668e-07
1.336830059e-07
1.338054497e-07
1.339688176e-07
1.341568301e-07
1.343625315e-07
1.345918644e-07
1.348590091e-07
1.351650388e-07
1.354440453e-07
1.325402087e-07
1.324671904e-07
1.323506678e-07
1.32192723e-07
1.320078177e-07
1.318268396e-07
1.316942723e-07
1.316521922e-07
1.316991734e-07
1.308031194e-07
1.305563813e-07
1.301920685e-07
1.297294212e-07
1.292025335e-07
1.286645669e-07
1.281862939e-07
1.278446098e-07
1.276925231e-07
1.285343469e-07
1.281363793e-07
1.275572006e-07
1.268316973e-07
1.260115435e-07
1.251693282e-07
1.243980996e-07
1.238036534e-07
1.234840281e-07
1.258008488e-07
1.252742083e-07
1.245129497e-07
1.235658776e-07
1.225000185e-07
1.214044734e-07
1.203906638e-07
1.195877423e-07
1.191301403e-07
1.226717598e-07
1.220384724e-07
1.21126954e-07
1.199980653e-07
1.187318742e-07
1.174311042e-07
1.162218457e-07
1.152515171e-07
1.146831492e-07
1.192163602e-07
1.18497427e-07
1.174658255e-07
1.161925556e-07
1.147684149e-07
1.133069645e-07
1.11945524e-07
1.108451895e-07
1.10190674e-07
1.155022667e-07
1.147172775e-07
1.135936071e-07
1.122104914e-07
1.10667215e-07
1.09085559e-07
1.076109442e-07
1.064140826e-07
1.056953279e-07
1.115939037e-07
1.107607593e-07
1.095705088e-07
1.081087899e-07
1.064812578e-07
1.048155087e-07
1.032622768e-07
1.019983561e-07
1.012345472e-07
1.075512888e-07
1.06686027e-07
1.05451941e-07
1.039393513e-07
1.022583337e-07
1.005401392e-07
9.893837693e-08
9.763290368e-08
9.684057311e-08
1.034291443e-07
1.025458573e-07
1.012878461e-07
9.974854208e-08
9.804068608e-08
9.629728311e-08
9.467272688e-08
9.334740452e-08
9.254056616e-08
9.92763229e-08
9.838715313e-08
9.712231076e-08
9.557693277e-08
9.386487984e-08
9.211927337e-08
9.049353641e-08
8.916650319e-08
8.835683201e-08
9.513552126e-08
9.42507211e-08
9.299342889e-08
9.145925955e-08
8.976186306e-08
8.803309721e-08
8.642397239e-08
8.511009416e-08
8.430713491e-08
9.10432442e-08
9.017128291e-08
8.893337733e-08
8.74245717e-08
8.575718541e-08
8.406067684e-08
8.248248849e-08
8.119368349e-08
8.040507466e-08
8.702997327e-08
8.617767788e-08
8.496866236e-08
8.349652556e-08
8.187133671e-08
8.021924453e-08
7.868322541e-08
7.742880258e-08
7.666050455e-08
8.312049422e-08
8.229321099e-08
8.112049383e-08
7.969378523e-08
7.812017e-08
7.652178058e-08
7.503645501e-08
7.382345096e-08
7.307996952e-08
7.93343377e-08
7.853610351e-08
7.740524703e-08
7.603049362e-08
7.451537681e-08
7.297748626e-08
7.15490445e-08
7.038254789e-08
6.966714682e-08
7.568629214e-08
7.492000708e-08
7.383497615e-08
7.251678152e-08
7.106498656e-08
6.959226796e-08
6.822492102e-08
6.71083764e-08
6.642327469e-08
7.218695341e-08
7.145454787e-08
7.041794902e-08
6.915928784e-08
6.777386708e-08
6.636921332e-08
6.506552085e-08
6.400100693e-08
6.334755781e-08
6.88432823e-08
6.814587399e-08
6.715917863e-08
6.59616698e-08
6.464420826e-08
6.3309045e-08
6.207021229e-08
6.105869093e-08
6.043754152e-08
6.565914737e-08
6.499718494e-08
6.406093303e-08
6.292508773e-08
6.16759776e-08
6.041054215e-08
5.92366817e-08
5.827821834e-08
5.768945014e-08
6.263583774e-08
6.200923011e-08
6.112321225e-08
6.004865325e-08
5.886733352e-08
5.767091999e-08
5.656128216e-08
5.565523696e-08
5.509848693e-08
5.977253329e-08
5.918076249e-08
5.834417846e-08
5.732983179e-08
5.621499878e-08
5.50861702e-08
5.403934026e-08
5.318453131e-08
5.265909504e-08
5.706672586e-08
5.650894493e-08
5.572054114e-08
5.476480099e-08
5.371458765e-08
5.265135603e-08
5.166542104e-08
5.086026197e-08
5.036518042e-08
5.451459101e-08
5.398970724e-08
5.32478932e-08
5.234876125e-08
5.136088801e-08
5.036086537e-08
4.943355336e-08
4.867616773e-08
4.821029923e-08
5.211130916e-08
5.161805392e-08
5.092099955e-08
5.007620091e-08
4.914810078e-08
4.820862379e-08
4.733741833e-08
4.662573345e-08
4.618781256e-08
4.985133865e-08
4.938832491e-08
4.873404059e-08
4.794111894e-08
4.707003976e-08
4.618827118e-08
4.537050423e-08
4.470232698e-08
4.429101204e-08
4.772864392e-08
4.729441304e-08
4.668081454e-08
4.593720893e-08
4.512029565e-08
4.429330563e-08
4.352623167e-08
4.289930889e-08
4.251321979e-08
4.573688336e-08
4.532994246e-08
4.475490265e-08
4.405800857e-08
4.329236834e-08
4.251719856e-08
4.179805281e-08
4.121011852e-08
4.08478663e-08
4.386956128e-08
4.348841262e-08
4.294980204e-08
4.229701907e-08
4.157977189e-08
4.085348505e-08
4.017952831e-08
3.962834001e-08
3.92885495e-08
4.212014882e-08
4.176331242e-08
4.125903038e-08
4.064779861e-08
3.997611574e-08
3.929583312e-08
3.866438545e-08
3.814775135e-08
3.782907817e-08
4.048217826e-08
4.014820889e-08
3.967620675e-08
3.910403391e-08
3.847516637e-08
3.78380953e-08
3.724656069e-08
3.676235944e-08
3.646350235e-08
3.894931492e-08
3.863681447e-08
3.819511253e-08
3.765959344e-08
3.707089229e-08
3.647434566e-08
3.592022927e-08
3.54664238e-08
3.518613329e-08
3.751541041e-08
3.722303653e-08
3.680973568e-08
3.630856567e-08
3.575749575e-08
3.519890499e-08
3.467982453e-08
3.425447102e-08
3.399155497e-08
3.617454064e-08
3.590101236e-08
3.551430164e-08
3.504528498e-08
3.452943345e-08
3.400635638e-08
3.352004882e-08
3.312130196e-08
3.28746289e-08
3.492103146e-08
3.466513243e-08
3.430329324e-08
3.38643478e-08
3.338142855e-08
3.289155328e-08
3.243587801e-08
3.206199332e-08
3.18304939e-08
3.374947436e-08
3.351005429e-08
3.317146216e-08
3.276062104e-08
3.230847603e-08
3.184962175e-08
3.142256088e-08
3.107189481e-08
3.085456187e-08
3.265473451e-08
3.243070919e-08
3.211383356e-08
3.17292445e-08
3.130584264e-08
3.087595807e-08
3.047561473e-08
3.014662313e-08
2.994251074e-08
3.163195277e-08
3.142230299e-08
3.112570551e-08
3.076562857e-08
3.036906287e-08
2.996622313e-08
2.959081826e-08
2.928205356e-08
2.909027533e-08
3.067654287e-08
3.04803126e-08
3.020264444e-08
2.986544856e-08
2.94939321e-08
2.911633429e-08
2.876420234e-08
2.847430999e-08
2.829403679e-08
2.978418544e-08
2.960047951e-08
2.934047798e-08
2.902463666e-08
2.867649761e-08
2.832245556e-08
2.799203951e-08
2.771975374e-08
2.755021118e-08
2.895081966e-08
2.877880105e-08
2.853528563e-08
2.823937202e-08
2.791304812e-08
2.758098673e-08
2.727083261e-08
2.701497196e-08
2.685543753e-08
2.817263305e-08
2.801151992e-08
2.778338807e-08
2.750606981e-08
2.720010255e-08
2.688855171e-08
2.659730297e-08
2.635676559e-08
2.620656579e-08
2.744605017e-08
2.729511283e-08
2.708133564e-08
2.682136949e-08
2.653439822e-08
2.624198675e-08
2.596837849e-08
2.574213739e-08
2.56006448e-08
2.676772075e-08
2.662627857e-08
2.64258964e-08
2.618212295e-08
2.591287887e-08
2.563832845e-08
2.53811818e-08
2.516828018e-08
2.503491053e-08
2.613450749e-08
2.600192592e-08
2.581404407e-08
2.558538243e-08
2.533268285e-08
2.50748021e-08
2.483301861e-08
2.463256529e-08
2.450677471e-08
2.554347397e-08
2.541916151e-08
2.524294605e-08
2.502838877e-08
2.479113145e-08
2.454881019e-08
2.432136653e-08
2.413253159e-08
2.401381383e-08
2.499187264e-08
2.487527802e-08
2.470995172e-08
2.450855992e-08
2.428571768e-08
2.405792145e-08
2.384386432e-08
2.36658749e-08
2.355375875e-08
2.44771332e-08
2.436774267e-08
2.421258121e-08
2.402347987e-08
2.381409545e-08
2.359986033e-08
2.33983016e-08
2.323043793e-08
2.312448481e-08
2.399685149e-08
2.389418623e-08
2.374851449e-08
2.357088809e-08
2.337406932e-08
2.317249703e-08
2.298260921e-08
2.282420089e-08
2.27240025e-08
2.354877879e-08
2.34523925e-08
2.331558119e-08
2.314866951e-08
2.296358478e-08
2.277383804e-08
2.259485e-08
2.244527249e-08
2.235044869e-08
2.313081177e-08
2.304028835e-08
2.291175079e-08
2.275484507e-08
2.258071903e-08
2.240201731e-08
2.223321028e-08
2.209188167e-08
2.200207842e-08
2.274098294e-08
2.265593439e-08
2.253512349e-08
2.238756279e-08
2.222367243e-08
2.205528789e-08
2.189599178e-08
2.176236969e-08
2.167725721e-08
2.237745171e-08
2.229751617e-08
2.218392164e-08
2.204508946e-08
2.189076038e-08
2.173201417e-08
2.158160407e-08
2.145518292e-08
2.137445392e-08
2.2038496e-08
2.196333587e-08
2.185648165e-08
2.172580282e-08
2.15804058e-08
2.143066464e-08
2.128855765e-08
2.116886594e-08
2.109223402e-08
2.172250444e-08
2.165180471e-08
2.155124654e-08
2.142818429e-08
2.129113216e-08
2.114980504e-08
2.101545731e-08
2.090205527e-08
2.082925342e-08
2.142796907e-08
2.13614357e-08
2.12667589e-08
2.11508122e-08
2.102155684e-08
2.088809214e-08
2.076099611e-08
2.065347345e-08
2.058425268e-08
2.11534785e-08
2.109083699e-08
2.100165442e-08
2.089235546e-08
2.077038513e-08
2.064426784e-08
2.052394971e-08
2.042192353e-08
2.035605159e-08
2.089771166e-08
2.083870566e-08
2.075465579e-08
2.065156771e-08
2.053640451e-08
2.041715371e-08
2.030317112e-08
2.020628401e-08
2.014354419e-08
2.065943186e-08
2.060382197e-08
2.052456711e-08
2.042728188e-08
2.031847941e-08
2.020564594e-08
2.009758576e-08
2.000550403e-08
1.994569411e-08
2.043748138e-08
2.038504395e-08
2.031026866e-08
2.021840508e-08
2.011554635e-08
2.00087106e-08
1.990618697e-08
1.981859903e-08
1.976153024e-08
2.023077636e-08
2.018130246e-08
2.0110712e-08
2.002391392e-08
1.992660931e-08
1.982537926e-08
1.972803174e-08
1.964464658e-08
1.959014269e-08
2.003830212e-08
1.99915965e-08
1.99249155e-08
1.984285012e-08
1.975073556e-08
1.965474494e-08
1.956223676e-08
1.948278257e-08
1.943067904e-08
1.985910876e-08
1.981498899e-08
1.975196008e-08
1.967431641e-08
1.95870517e-08
1.949595824e-08
1.940797476e-08
1.933219764e-08
1.928234081e-08
1.969230706e-08
1.965060265e-08
1.959098536e-08
1.951747276e-08
1.943473998e-08
1.934822384e-08
1.92644711e-08
1.919213384e-08
1.914438021e-08
1.953706472e-08
1.949761635e-08
1.944118593e-08
1.937153281e-08
1.929303486e-08
1.921079719e-08
1.91310005e-08
1.906188153e-08
1.901609709e-08
1.939260276e-08
1.935526155e-08
1.930180799e-08
1.923576056e-08
1.916121984e-08
1.908298138e-08
1.900688412e-08
1.894077645e-08
1.889683604e-08
1.925819221e-08
1.922281906e-08
1.917214613e-08
1.910946726e-08
1.903862438e-08
1.896412425e-08
1.889148669e-08
1.882819701e-08
1.878598375e-08
1.913315099e-08
1.909961593e-08
1.905154031e-08
1.899200847e-08
1.892462113e-08
1.885361564e-08
1.87842139e-08
1.872356168e-08
1.868296648e-08
1.901684093e-08
1.898502258e-08
1.893937304e-08
1.888278133e-08
1.881862325e-08
1.875088484e-08
1.868450987e-08
1.862632661e-08
1.858724766e-08
1.890866496e-08
1.887844996e-08
1.883506662e-08
1.878122186e-08
1.872008178e-08
1.865539805e-08
1.859185478e-08
1.853598329e-08
1.849832565e-08
1.880806436e-08
1.87793469e-08
1.873808051e-08
1.86868024e-08
1.86284832e-08
1.856665601e-08
1.850576255e-08
1.84520563e-08
1.841573153e-08
1.871451607e-08
1.86871974e-08
1.864790872e-08
1.859902908e-08
1.854334695e-08
1.848419161e-08
1.84257785e-08
1.837410111e-08
1.833902696e-08
1.862752997e-08
1.860151798e-08
1.856407717e-08
1.851743921e-08
1.846422287e-08
1.840756742e-08
1.835147703e-08
1.830170178e-08
1.826780195e-08
1.854664601e-08
1.852185483e-08
1.848614083e-08
1.844159851e-08
1.839068852e-08
1.833637306e-08
1.828245902e-08
1.82344685e-08
1.820167247e-08
1.847143112e-08
1.844778069e-08
1.841368075e-08
1.837109806e-08
1.832234616e-08
1.827022222e-08
1.821834897e-08
1.817203476e-08
1.814027773e-08
1.840147575e-08
1.837889141e-08
1.834630043e-08
1.830555082e-08
1.825881923e-08
1.820874919e-08
1.815879151e-08
1.811405399e-08
1.808327679e-08
1.833638973e-08
1.83148018e-08
1.828362176e-08
1.824458734e-08
1.819974805e-08
1.815160451e-08
1.810344708e-08
1.806019517e-08
1.803034433e-08
1.827579742e-08
1.825514062e-08
1.822527985e-08
1.818785059e-08
1.814478448e-08
1.809844948e-08
1.80519863e-08
1.801013727e-08
1.798116499e-08
1.821933165e-08
1.819954448e-08
1.817091672e-08
1.813498935e-08
1.80935851e-08
1.804894907e-08
1.800408269e-08
1.796356165e-08
1.793542577e-08
1.81666262e-08
1.814765011e-08
1.812017333e-08
1.808564992e-08
1.804580243e-08
1.800276273e-08
1.795940303e-08
1.792014218e-08
1.789280588e-08
1.811730656e-08
1.809908477e-08
1.807267958e-08
1.803946555e-08
1.800107379e-08
1.795953254e-08
1.791759482e-08
1.787953209e-08
1.785296324e-08
1.807097835e-08
1.805345438e-08
1.802804181e-08
1.799604324e-08
1.795900717e-08
1.791886814e-08
1.78782702e-08
1.784134694e-08
1.781551685e-08
1.802721323e-08
1.801032885e-08
1.798582742e-08
1.795494733e-08
1.791916369e-08
1.788032779e-08
1.784098565e-08
1.780514306e-08
1.77800243e-08
1.79855318e-08
1.796922439e-08
1.794554622e-08
1.791567959e-08
1.788103613e-08
1.784339519e-08
1.780521695e-08
1.77703908e-08
1.774595379e-08
1.794538335e-08
1.792958244e-08
1.790662815e-08
1.787765548e-08
1.784402328e-08
1.780745168e-08
1.77703291e-08
1.773644218e-08
1.771265022e-08
1.79061222e-08
1.789074512e-08
1.786839743e-08
1.784017636e-08
1.780740001e-08
1.777174382e-08
1.773554109e-08
1.770249307e-08
1.767929533e-08
1.786698083e-08
1.785192734e-08
1.78300431e-08
1.780239816e-08
1.77702834e-08
1.773534652e-08
1.769988595e-08
1.766754015e-08
1.764486243e-08
1.782704003e-08
1.78121859e-08
1.779058648e-08
1.77632966e-08
1.773159538e-08
1.769712269e-08
1.766216704e-08
1.763033384e-08
1.760806676e-08
1.77851968e-08
1.777038629e-08
1.774884645e-08
1.772163037e-08
1.769002321e-08
1.765568063e-08
1.762091203e-08
1.758932893e-08
1.756731353e-08
1.774013106e-08
1.772516842e-08
1.770340364e-08
1.76759034e-08
1.764397947e-08
1.760933126e-08
1.7574327e-08
1.754263556e-08
1.752064645e-08
1.769027267e-08
1.767491292e-08
1.765256564e-08
1.762432861e-08
1.759156391e-08
1.755604779e-08
1.75202538e-08
1.74879741e-08
1.746570069e-08
1.76337708e-08
1.761771012e-08
1.759433539e-08
1.756479554e-08
1.753053027e-08
1.749343158e-08
1.745613471e-08
1.742263851e-08
1.739966497e-08
1.756846822e-08
1.755133439e-08
1.75263858e-08
1.749484537e-08
1.745826181e-08
1.741868825e-08
1.737898912e-08
1.734347347e-08
1.73192589e-08
1.749188354e-08
1.747322733e-08
1.744604418e-08
1.741165716e-08
1.737175982e-08
1.732861895e-08
1.728540782e-08
1.724687145e-08
1.722073192e-08
1.740120478e-08
1.738049299e-08
1.735029026e-08
1.731204952e-08
1.726764999e-08
1.721963223e-08
1.717157086e-08
1.712879629e-08
1.709989094e-08
1.729329824e-08
1.72699096e-08
1.723577205e-08
1.719250235e-08
1.714221149e-08
1.708778181e-08
1.703329479e-08
1.698483974e-08
1.695216368e-08
1.716473642e-08
1.713796137e-08
1.709884391e-08
1.704920306e-08
1.699143352e-08
1.692883536e-08
1.686611495e-08
1.681031681e-08
1.677270361e-08
1.701184865e-08
1.698089446e-08
1.693563037e-08
1.687812126e-08
1.681110345e-08
1.673837842e-08
1.666540671e-08
1.660040405e-08
1.655654092e-08
1.683079778e-08
1.679480005e-08
1.674211907e-08
1.667511473e-08
1.659692915e-08
1.651195594e-08
1.642654796e-08
1.635032257e-08
1.629878081e-08
1.661768482e-08
1.657572652e-08
1.651428425e-08
1.643606806e-08
1.634469624e-08
1.624525125e-08
1.614512177e-08
1.605556375e-08
1.599484643e-08
1.636868224e-08
1.631982093e-08
1.624824061e-08
1.615706277e-08
1.605045823e-08
1.59342991e-08
1.581715419e-08
1.571215114e-08
1.564075867e-08
1.60801944e-08
1.60234979e-08
1.594042472e-08
1.583457508e-08
1.571075388e-08
1.557572544e-08
1.543937773e-08
1.531692661e-08
1.523343909e-08
1.574904103e-08
1.568363101e-08
1.558779801e-08
1.546569376e-08
1.532284257e-08
1.516700193e-08
1.500950565e-08
1.486784313e-08
1.477101609e-08
1.537265669e-08
1.529775885e-08
1.518806224e-08
1.504834706e-08