/*--------------------------------*- C++ -*----------------------------------*\
| =========                 |                                                 |
| \\      /  F ield         | OpenFOAM: The Open Source CFD Toolbox           |
|  \\    /   O peration     | Version:  2212                                  |
|   \\  /    A nd           | Website:  www.openfoam.com                      |
|    \\/     M anipulation  |                                                 |
\*---------------------------------------------------------------------------*/
FoamFile
{
    version     2.0;
    format      ascii;
    arch        "LSB;label=32;scalar=64";
    class       volScalarField;
    location    "20.00000000";
    object      I-C4H51;
}
// * * * * * * * * * * * * * * * * * * * * * * * * * * * * * * * * * * * * * //

dimensions      [0 0 0 0 0 0 0];

internalField   nonuniform List<scalar> 
3000
(
4.7105836e-24
5.290708116e-24
6.165692783e-24
7.330865348e-24
8.773718563e-24
1.045449233e-23
1.227176159e-23
1.400488595e-23
1.52299206e-23
1.768518018e-23
1.994296338e-23
2.33466774e-23
2.788888431e-23
3.356205911e-23
4.033222671e-23
4.808058078e-23
5.64212028e-23
6.380812122e-23
3.9614207e-23
4.502251245e-23
5.325341964e-23
6.441983954e-23
7.871354132e-23
9.633219807e-23
1.17197231e-22
1.401410579e-22
1.597352437e-22
7.545343846e-23
8.665415844e-23
1.039520217e-22
1.279205026e-22
1.593900394e-22
1.991350502e-22
2.469069511e-22
2.988656047e-22
3.407422347e-22
1.339861655e-22
1.557707652e-22
1.899501139e-22
2.382473623e-22
3.029127458e-22
3.857275353e-22
4.852549706e-22
5.907988465e-22
6.716320204e-22
2.303921102e-22
2.712921581e-22
3.363965607e-22
4.298596258e-22
5.566744943e-22
7.200666577e-22
9.152352561e-22
1.117720177e-21
1.267831046e-21
3.910972276e-22
4.662328702e-22
5.872342425e-22
7.629169115e-22
1.003083225e-21
1.312552069e-21
1.678582081e-21
2.050615171e-21
2.319135798e-21
6.618016425e-22
7.977629936e-22
1.018664822e-21
1.341862991e-21
1.785389892e-21
2.355647099e-21
3.024028423e-21
3.693230579e-21
4.168007568e-21
1.121714315e-21
1.365129039e-21
1.763160368e-21
2.34843549e-21
3.152986629e-21
4.184528332e-21
5.38476477e-21
6.573907232e-21
7.408267553e-21
1.908046098e-21
2.340420246e-21
3.050654689e-21
4.098338747e-21
5.539371235e-21
7.382063335e-21
9.514204603e-21
1.161119909e-20
1.307170709e-20
3.258731269e-21
4.022321495e-21
5.280575987e-21
7.140346947e-21
9.698347519e-21
1.296191992e-20
1.672258169e-20
2.040252719e-20
2.295297448e-20
5.586608038e-21
6.92946604e-21
9.147039087e-21
1.242872861e-20
1.694126356e-20
2.268781176e-20
2.928958666e-20
3.57271775e-20
4.017469005e-20
9.608484927e-21
1.196304333e-20
1.585714715e-20
2.162414251e-20
2.95511133e-20
3.963050403e-20
5.118365477e-20
6.242272804e-20
7.017460914e-20
1.656922739e-20
2.068928184e-20
2.751068589e-20
3.761809843e-20
5.150664016e-20
6.914543888e-20
8.932669758e-20
1.089218132e-19
1.224447068e-19
2.86299842e-20
3.582885171e-20
4.775830702e-20
6.54439583e-20
8.974613029e-20
1.205921477e-19
1.558329983e-19
1.899579214e-19
2.136112384e-19
4.953942701e-20
6.210156104e-20
8.293414059e-20
1.138373939e-19
1.563205571e-19
2.102665398e-19
2.719593878e-19
3.318171406e-19
3.727452949e-19
8.579584324e-20
1.07685964e-19
1.440031833e-19
1.978872556e-19
2.719515133e-19
3.659428813e-19
4.732943364e-19
5.772234397e-19
6.484431387e-19
1.48668891e-19
1.867675332e-19
2.499900687e-19
3.437951161e-19
4.726963234e-19
6.36187634e-19
8.227771387e-19
1.003282536e-18
1.12698157e-18
2.577125425e-19
3.239653195e-19
4.339245917e-19
5.970749102e-19
8.21226364e-19
1.105433082e-18
1.429661217e-18
1.743197147e-18
1.958001631e-18
4.468648681e-19
5.620154734e-19
7.531534388e-19
1.036758504e-18
1.426365452e-18
1.920258984e-18
2.483556807e-18
3.028128444e-18
3.401119083e-18
7.750388905e-19
9.751109067e-19
1.307242885e-18
1.800066701e-18
2.477053663e-18
3.335132922e-18
4.313604971e-18
5.259339168e-18
5.906962412e-18
1.344514223e-18
1.692066452e-18
2.269068985e-18
3.125256965e-18
4.30133975e-18
5.791852254e-18
7.491211443e-18
9.133402071e-18
1.025777923e-17
2.33288111e-18
2.93655454e-18
3.938817673e-18
5.426040714e-18
7.468825301e-18
1.00574726e-17
1.3008375e-17
1.585951593e-17
1.781143781e-17
4.048527612e-18
5.096994906e-18
6.837778917e-18
9.42082668e-18
1.296855395e-17
1.746376672e-17
2.258723471e-17
2.753675813e-17
3.092487026e-17
7.027024398e-18
8.847955414e-18
1.187125104e-17
1.635713515e-17
2.251777152e-17
3.032267109e-17
3.921694234e-17
4.780787529e-17
5.368811684e-17
1.219851199e-17
1.536096364e-17
2.061136909e-17
2.84011086e-17
3.909761156e-17
5.264659356e-17
6.808356309e-17
8.29911363e-17
9.319356278e-17
2.117836967e-17
2.667055843e-17
3.578810283e-17
4.931345201e-17
6.788222177e-17
9.139701025e-17
1.181810273e-16
1.44039359e-16
1.617321908e-16
3.677180909e-17
4.630971521e-17
6.214134813e-17
8.562179701e-17
1.178487958e-16
1.586458112e-16
2.050968211e-16
2.499250088e-16
2.805871366e-16
6.384897431e-17
8.04116257e-17
1.078977361e-16
1.486511592e-16
2.045632828e-16
2.753099201e-16
3.558176995e-16
4.334700268e-16
4.86557529e-16
1.108609618e-16
1.396179315e-16
1.873268742e-16
2.580349419e-16
3.549905425e-16
4.775884951e-16
6.169964838e-16
7.513551809e-16
8.431450911e-16
1.924618486e-16
2.423777872e-16
3.251570353e-16
4.477716377e-16
6.15776249e-16
8.280201677e-16
1.069115345e-15
1.301226053e-15
1.459637319e-15
3.340334972e-16
4.206374277e-16
5.641814379e-16
7.766389242e-16
1.067452396e-15
1.434392217e-15
1.850626102e-15
2.250755307e-15
2.523454302e-15
5.794716691e-16
7.296213797e-16
9.783132473e-16
1.346024985e-15
1.848683459e-15
2.481892136e-15
3.198825363e-15
3.886656086e-15
4.354546796e-15
1.004536317e-15
1.26458072e-15
1.694889846e-15
2.330297693e-15
3.197395128e-15
4.287387255e-15
5.518507699e-15
6.696605391e-15
7.496009735e-15
1.73964385e-15
2.189331462e-15
2.932565477e-15
4.028190786e-15
5.520016049e-15
7.390273603e-15
9.496160738e-15
1.150472893e-14
1.286334144e-14
3.008581636e-15
3.784601328e-15
5.065254623e-15
6.94907483e-15
9.507005256e-15
1.27029891e-14
1.628777484e-14
1.96929422e-14
2.198718534e-14
5.193882428e-15
6.529382095e-15
8.72918888e-15
1.195647852e-14
1.632360261e-14
2.175746841e-14
2.782377846e-14
3.355763821e-14
3.740256279e-14
8.946483605e-15
1.12367671e-14
1.50005467e-14
2.050437475e-14
2.792107492e-14
3.710343124e-14
4.729717495e-14
5.687600404e-14
6.326361021e-14
1.536830195e-14
1.927880747e-14
2.568720917e-14
3.502168508e-14
4.753797099e-14
6.294290305e-14
7.993318094e-14
9.579122483e-14
1.062993069e-13
2.631370514e-14
3.295517298e-14
4.380265378e-14
5.953007288e-14
8.049608446e-14
1.061259023e-13
1.34183773e-13
1.601743347e-13
1.772760728e-13
4.488280815e-14
5.609129788e-14
7.432647369e-14
1.006232006e-13
1.354458707e-13
1.77688817e-13
2.235527539e-13
2.656869787e-13
2.932021173e-13
7.622068671e-14
9.499799102e-14
1.254093899e-13
1.689971957e-13
2.262860532e-13
2.951949579e-13
3.693419956e-13
4.368600904e-13
4.806026062e-13
1.287983485e-13
1.599926039e-13
2.102573475e-13
2.818086044e-13
3.750788417e-13
4.862434222e-13
6.047254889e-13
7.116272897e-13
7.803233513e-13
2.164421252e-13
2.677802127e-13
3.500377721e-13
4.662562437e-13
6.164148123e-13
7.936580006e-13
9.807161626e-13
1.147921066e-12
1.254496722e-12
3.615090105e-13
4.451327704e-13
5.783023368e-13
7.64948731e-13
1.003862938e-12
1.283066872e-12
1.574807103e-12
1.833171564e-12
1.996544444e-12
5.997902166e-13
7.344987951e-13
9.476292535e-13
1.243846055e-12
1.619389446e-12
2.053856269e-12
2.503365529e-12
2.89786496e-12
3.145421395e-12
9.879812468e-13
1.20244401e-12
1.539473809e-12
2.00387333e-12
2.586968788e-12
3.254854281e-12
3.939263676e-12
4.534751379e-12
4.905753701e-12
1.61490653e-12
1.952188575e-12
2.478605477e-12
3.197728051e-12
4.092074504e-12
5.106610665e-12
6.136784051e-12
7.025881333e-12
7.576134722e-12
2.61816055e-12
3.142002538e-12
3.954040765e-12
5.05398018e-12
6.40937222e-12
7.932833335e-12
9.466588598e-12
1.078044842e-11
1.158866952e-11
4.208469364e-12
5.011895784e-12
6.249105708e-12
7.911354486e-12
9.941802975e-12
1.220448757e-11
1.446456182e-11
1.638749773e-11
1.756397697e-11
6.70495237e-12
7.92196301e-12
9.784256681e-12
1.226716765e-11
1.527542798e-11
1.860135113e-11
2.189972423e-11
2.468902974e-11
2.63873723e-11
1.058567597e-11
1.240702647e-11
1.517766739e-11
1.884538746e-11
2.325602857e-11
2.809757478e-11
3.286829704e-11
3.688102107e-11
3.931402076e-11
1.655959272e-11
1.925402922e-11
2.333053207e-11
2.869186747e-11
3.509569401e-11
4.208020193e-11
4.892358436e-11
5.465261161e-11
5.811369815e-11
2.566838039e-11
2.961125612e-11
3.55468554e-11
4.330729781e-11
5.252076873e-11
6.251290216e-11
7.225488753e-11
8.037755296e-11
8.526978189e-11
3.942791521e-11
4.513921508e-11
5.369846364e-11
6.483055444e-11
7.797657676e-11
9.216311824e-11
1.059353435e-10
1.173786163e-10
1.242531964e-10
6.002755945e-11
6.82235205e-11
8.045771114e-11
9.629596282e-11
1.149121836e-10
1.349152866e-10
1.542623998e-10
1.702905069e-10
1.798989935e-10
9.061118147e-11
1.022740641e-10
1.196228343e-10
1.41991521e-10
1.68176209e-10
1.962060594e-10
2.232302485e-10
2.455626209e-10
2.589271466e-10
1.356720157e-10
1.521451224e-10
1.765747748e-10
2.079617379e-10
2.44571898e-10
2.836336025e-10
3.211898995e-10
3.521599244e-10
3.706670367e-10
2.016109342e-10
2.2472973e-10
2.589240516e-10
3.027202593e-10
3.536441684e-10
4.078212314e-10
4.597830129e-10
5.025508564e-10
5.280749725e-10
2.975302793e-10
3.29807129e-10
3.77436407e-10
4.38273656e-10
5.088141772e-10
5.836644271e-10
6.552889549e-10
7.141283144e-10
7.49193655e-10
4.36369438e-10
4.812616244e-10
5.473738376e-10
6.316164953e-10
7.290481786e-10
8.321749632e-10
9.306238966e-10
1.011322478e-09
1.059322228e-09
6.365358772e-10
6.988480136e-10
7.904588354e-10
9.069488223e-10
1.041364956e-09
1.183288514e-09
1.318423578e-09
1.42889203e-09
1.494414831e-09
9.242425201e-10
1.010750305e-09
1.137765766e-09
1.299002756e-09
1.484681802e-09
1.680277612e-09
1.866007497e-09
2.017336579e-09
2.106745685e-09
1.33681439e-09
1.457257078e-09
1.633966317e-09
1.858065252e-09
2.115813021e-09
2.38687877e-09
2.643682411e-09
2.852240943e-09
2.974901925e-09
1.927268253e-09
2.095958276e-09
2.343510167e-09
2.657554829e-09
3.018886522e-09
3.398965206e-09
3.758929991e-09
4.050855747e-09
4.221972285e-09
2.770508799e-09
3.008950243e-09
3.359482975e-09
3.805315091e-09
4.319999191e-09
4.863549009e-09
5.380531613e-09
5.80137223e-09
6.048474984e-09
3.971541458e-09
4.312619602e-09
4.81602699e-09
5.460047969e-09
6.209408906e-09
7.00873505e-09
7.778061246e-09
8.412412552e-09
8.789241923e-09
5.676318699e-09
6.170776758e-09
6.90536908e-09
7.854382133e-09
8.973459332e-09
1.01878699e-08
1.138146196e-08
1.238928353e-08
1.300248359e-08
8.086543329e-09
8.812512598e-09
9.900819567e-09
1.132572377e-08
1.303673479e-08
1.493702466e-08
1.685766247e-08
1.853140398e-08
1.958381392e-08
1.148135779e-08
1.255749903e-08
1.41877425e-08
1.635495642e-08
1.901010419e-08
2.20327196e-08
2.517619627e-08
2.800227076e-08
2.983804732e-08
1.625116906e-08
1.785331818e-08
2.030514977e-08
2.36107033e-08
2.77308833e-08
3.251152655e-08
3.757745305e-08
4.220440322e-08
4.524160065e-08
2.294975561e-08
2.532934917e-08
2.89985912e-08
3.399098422e-08
4.026681568e-08
4.757697476e-08
5.526079677e-08
6.202441805e-08
6.590907348e-08
3.236408598e-08
3.586216294e-08
4.127072075e-08
4.863329471e-08
5.782762994e-08
6.828745896e-08
7.857563451e-08
8.590044095e-08
8.801265067e-08
4.557524313e-08
5.061267423e-08
5.8365399e-08
6.878761722e-08
8.141102124e-08
9.476739696e-08
1.054537732e-07
1.103294839e-07
1.109967344e-07
6.391903888e-08
7.091041455e-08
8.149581346e-08
9.524828703e-08
1.10623241e-07
1.238307814e-07
1.319681552e-07
1.352422561e-07
1.34949349e-07
8.860200535e-08
9.766751955e-08
1.108398951e-07
1.267070514e-07
1.405798591e-07
1.51418497e-07
1.582743881e-07
1.608631346e-07
1.601319406e-07
1.193056968e-07
1.295170175e-07
1.422871244e-07
1.556040743e-07
1.679409056e-07
1.780191476e-07
1.847297252e-07
1.874195623e-07
1.867060225e-07
1.497110805e-07
1.582752332e-07
1.695155425e-07
1.818947867e-07
1.93967154e-07
2.043341104e-07
2.11667974e-07
2.149998819e-07
2.146396416e-07
1.75587285e-07
1.836644173e-07
1.945893845e-07
2.070522989e-07
2.196485216e-07
2.30884947e-07
2.392484233e-07
2.435161999e-07
2.437178011e-07
1.997454858e-07
2.079011071e-07
2.191136664e-07
2.321553462e-07
2.456174337e-07
2.579282885e-07
2.674380061e-07
2.727326633e-07
2.735923039e-07
2.239198415e-07
2.323635639e-07
2.440621746e-07
2.578009522e-07
2.72148109e-07
2.85475208e-07
2.960436363e-07
3.023061787e-07
3.038285475e-07
2.489716078e-07
2.57705702e-07
2.698462066e-07
2.841682989e-07
2.992193399e-07
3.133402402e-07
3.247478116e-07
3.318147824e-07
3.339337842e-07
2.751352463e-07
2.840520629e-07
2.964603702e-07
3.111257275e-07
3.265881479e-07
3.411853484e-07
3.531302062e-07
3.607664484e-07
3.633627522e-07
3.02237893e-07
3.111783933e-07
3.236187605e-07
3.383252355e-07
3.538475402e-07
3.685460282e-07
3.806670277e-07
3.885777874e-07
3.914879625e-07
3.298588926e-07
3.386437029e-07
3.508544216e-07
3.652696694e-07
3.804629192e-07
3.948350067e-07
4.066923181e-07
4.144789002e-07
4.174852713e-07
3.574320894e-07
3.658755112e-07
3.775840418e-07
3.913562266e-07
4.057928543e-07
4.19329259e-07
4.303039565e-07
4.371628586e-07
4.390597926e-07
3.843047451e-07
3.922183121e-07
4.031432779e-07
4.158985681e-07
4.291032458e-07
4.411983776e-07
4.504788767e-07
4.552227611e-07
4.559986456e-07
4.097594547e-07
4.169453111e-07
4.267812994e-07
4.380940442e-07
4.49493097e-07
4.593847355e-07
4.65788069e-07
4.687676025e-07
4.689075593e-07
4.329847281e-07
4.392135994e-07
4.475832442e-07
4.568803301e-07
4.655611189e-07
4.723095945e-07
4.76684094e-07
4.785234178e-07
4.782782653e-07
4.529270954e-07
4.578954402e-07
4.642423044e-07
4.706297008e-07
4.764677061e-07
4.810614846e-07
4.839569105e-07
4.849541322e-07
4.844334199e-07
4.677229234e-07
4.709665648e-07
4.751103325e-07
4.794166961e-07
4.833175908e-07
4.863115548e-07
4.880330133e-07
4.883329326e-07
4.875792592e-07
4.76880996e-07
4.789800682e-07
4.816445551e-07
4.8439102e-07
4.867858967e-07
4.884648315e-07
4.891732449e-07
4.888475881e-07
4.878752908e-07
4.819276973e-07
4.831629383e-07
4.846794758e-07
4.861464544e-07
4.872604889e-07
4.877822925e-07
4.875730103e-07
4.866652313e-07
4.854803308e-07
4.836161926e-07
4.841314133e-07
4.846725423e-07
4.850236033e-07
4.849973342e-07
4.844709194e-07
4.834177876e-07
4.819660205e-07
4.80575694e-07
4.823503185e-07
4.822346511e-07
4.819132415e-07
4.812669391e-07
4.802125306e-07
4.787342511e-07
4.769099042e-07
4.749567345e-07
4.733729148e-07
4.784044292e-07
4.777285299e-07
4.766388058e-07
4.751013077e-07
4.73126138e-07
4.707941469e-07
4.682771382e-07
4.658722533e-07
4.641121716e-07
4.72023138e-07
4.708532753e-07
4.690861223e-07
4.667632455e-07
4.639776098e-07
4.608954696e-07
4.577709518e-07
4.5497038e-07
4.53055709e-07
4.634594426e-07
4.618618076e-07
4.595089629e-07
4.565087369e-07
4.530263931e-07
4.493019314e-07
4.456595757e-07
4.425235817e-07
4.404790781e-07
4.529837546e-07
4.510247465e-07
4.481784755e-07
4.446098222e-07
4.405457045e-07
4.362881322e-07
4.322191364e-07
4.288095403e-07
4.266614356e-07
4.408803286e-07
4.386253871e-07
4.353765896e-07
4.313467579e-07
4.268138959e-07
4.221304203e-07
4.177243553e-07
4.141023632e-07
4.118772583e-07
4.274391177e-07
4.249512223e-07
4.213872271e-07
4.169989295e-07
4.121053293e-07
4.070983304e-07
4.024407918e-07
3.986651022e-07
3.963888928e-07
4.129464457e-07
4.102846268e-07
4.064871664e-07
4.018364308e-07
3.966828557e-07
3.914476381e-07
3.866182301e-07
3.827435455e-07
3.804406184e-07
3.976767801e-07
3.948951433e-07
3.909389965e-07
3.861134552e-07
3.807916228e-07
3.754147355e-07
3.704856563e-07
3.665616474e-07
3.64254317e-07
3.818863155e-07
3.790332941e-07
3.749852747e-07
3.700630356e-07
3.646544811e-07
3.59212681e-07
3.542478633e-07
3.503185376e-07
3.480266896e-07
3.658080446e-07
3.629259975e-07
3.588444291e-07
3.538935077e-07
3.484690409e-07
3.430288206e-07
3.380835507e-07
3.341869651e-07
3.319278741e-07
3.496486027e-07
3.467737123e-07
3.427083161e-07
3.377865473e-07
3.324062081e-07
3.270237931e-07
3.221447242e-07
3.183129776e-07
3.161012624e-07
3.33586698e-07
3.307491131e-07
3.267412294e-07
3.218965652e-07
3.166099765e-07
3.113316925e-07
3.065571657e-07
3.028166076e-07
3.006642937e-07
3.17772887e-07
3.149970518e-07
3.110801165e-07
3.063512144e-07
3.011982321e-07
2.960611458e-07
2.914217366e-07
2.877933338e-07
2.857099931e-07
3.023304278e-07
2.996355445e-07
2.958357437e-07
2.912527573e-07
2.862643237e-07
2.812970687e-07
2.768162845e-07
2.733160937e-07
2.713090383e-07
2.87356949e-07
2.847575227e-07
2.810945578e-07
2.766800503e-07
2.71879168e-07
2.671028787e-07
2.627979434e-07
2.594376452e-07
2.575121531e-07
2.729266834e-07
2.704331081e-07
2.669210128e-07
2.626909255e-07
2.580936835e-07
2.535229725e-07
2.494056453e-07
2.46193103e-07
2.443526601e-07
2.590930448e-07
2.56712195e-07
2.533601581e-07
2.49324781e-07
2.449413769e-07
2.405853046e-07
2.36662691e-07
2.336025068e-07
2.318490511e-07
2.458913588e-07
2.436271611e-07
2.404403184e-07
2.366052212e-07
2.324409389e-07
2.283039392e-07
2.245792639e-07
2.216733099e-07
2.200074697e-07
2.333415961e-07
2.311955621e-07
2.281757331e-07
2.245426285e-07
2.205987428e-07
2.166814771e-07
2.131547984e-07
2.104027098e-07
2.088240266e-07
2.214509934e-07
2.194227016e-07
2.165690544e-07
2.131365772e-07
2.094111676e-07
2.057112932e-07
2.023801448e-07
1.997797658e-07
1.982868996e-07
2.102164819e-07
2.083040023e-07
2.056136401e-07
2.023780316e-07
1.988666975e-07
1.953795418e-07
1.922394981e-07
1.897872754e-07
1.883781894e-07
1.996268726e-07
1.978271336e-07
1.952955988e-07
1.922512957e-07
1.889477712e-07
1.85666912e-07
1.827120747e-07
1.804033992e-07
1.790755216e-07
1.896647744e-07
1.879738716e-07
1.85595572e-07
1.827357035e-07
1.79632375e-07
1.765501296e-07
1.737735392e-07
1.716030371e-07
1.70353401e-07
1.803082386e-07
1.787216911e-07
1.764902518e-07
1.738070502e-07
1.708953856e-07
1.68003216e-07
1.653971944e-07
1.633589683e-07
1.621843313e-07
1.715321395e-07
1.700450978e-07
1.67953648e-07
1.654387832e-07
1.627096814e-07
1.599985223e-07
1.57554948e-07
1.556427776e-07
1.545397216e-07
1.633093119e-07
1.61916725e-07
1.599581263e-07
1.576029704e-07
1.550470341e-07
1.525075552e-07
1.502180888e-07
1.484255922e-07
1.473906058e-07
1.556114654e-07
1.543082092e-07
1.524752322e-07
1.502710663e-07
1.478788209e-07
1.455016328e-07
1.433578917e-07
1.416786526e-07
1.407081971e-07
1.484099035e-07
1.471908797e-07
1.45476341e-07
1.434145139e-07
1.411765726e-07
1.389523835e-07
1.369460764e-07
1.353737434e-07
1.34464305e-07
1.416760788e-07
1.405362893e-07
1.389331519e-07
1.370051987e-07
1.349123853e-07
1.328321185e-07
1.309551457e-07
1.294835069e-07
1.286316376e-07
1.353820093e-07
1.34316609e-07
1.328180565e-07
1.310157825e-07
1.290592203e-07
1.27114098e-07
1.253586243e-07
1.239816621e-07
1.231840102e-07
1.295005802e-07
1.285049141e-07
1.271044e-07
1.254199398e-07
1.235911118e-07
1.217727128e-07
1.20131218e-07
1.188431474e-07
1.180964798e-07
1.240057521e-07
1.230753789e-07
1.217666595e-07
1.201925139e-07
1.184833015e-07
1.167835983e-07
1.15248909e-07
1.140442034e-07
1.133454207e-07
1.188726964e-07
1.180034022e-07
1.167805551e-07
1.15309612e-07
1.137123168e-07
1.121236959e-07
1.106890041e-07
1.095624098e-07
1.08908556e-07
1.140778724e-07
1.132656768e-07
1.121231083e-07
1.107486516e-07
1.092560037e-07
1.077712736e-07
1.064301442e-07
1.053766874e-07
1.047649554e-07
1.095990608e-07
1.08840217e-07
1.077726621e-07
1.06488371e-07
1.050935279e-07
1.03705918e-07
1.024522877e-07
1.014672749e-07
1.00895008e-07
1.054153638e-07
1.047063545e-07
1.037088713e-07
1.025088123e-07
1.012053506e-07
9.990850279e-08
9.873667377e-08
9.781568788e-08
9.728037881e-08
1.015071811e-07
1.008447117e-07
9.991267108e-08
9.879128647e-08
9.757318832e-08
9.636114386e-08
9.52657722e-08
9.44046649e-08
9.390395307e-08
9.78561693e-08
9.72371588e-08
9.636623164e-08
9.53183236e-08
9.417996002e-08
9.304714324e-08
9.202322507e-08
9.121810695e-08
9.074977387e-08
9.444518929e-08
9.386675987e-08
9.30529027e-08
9.207361583e-08
9.100972775e-08
8.995092746e-08
8.899378292e-08
8.824101202e-08
8.780297588e-08
9.125824658e-08
9.071771279e-08
8.995715209e-08
8.904195481e-08
8.804763288e-08
8.705798274e-08
8.616323888e-08
8.545940829e-08
8.504971774e-08
8.828042782e-08
8.777528516e-08
8.706450154e-08
8.620916695e-08
8.527983103e-08
8.43547894e-08
8.351836254e-08
8.286028745e-08
8.24771151e-08
8.549783569e-08
8.50257494e-08
8.436146172e-08
8.356204855e-08
8.269342706e-08
8.182875681e-08
8.104683501e-08
8.04315397e-08
8.007317536e-08
8.289752416e-08
8.245631801e-08
8.183546773e-08
8.108830161e-08
8.027641145e-08
7.946816036e-08
7.873718613e-08
7.816189112e-08
7.7826735e-08
8.046743457e-08
8.005508024e-08
7.94748164e-08
7.877647196e-08
7.801759923e-08
7.7262081e-08
7.657873455e-08
7.604084403e-08
7.572740005e-08
7.819633474e-08
7.781094163e-08
7.726860665e-08
7.661589035e-08
7.590657174e-08
7.520034779e-08
7.456153102e-08
7.405862074e-08
7.376549005e-08
7.607376104e-08
7.571356656e-08
7.520668252e-08
7.459661635e-08
7.393362164e-08
7.327348387e-08
7.267630511e-08
7.220611092e-08
7.193198563e-08
7.408996328e-08
7.375332369e-08
7.327957961e-08
7.270938573e-08
7.208970129e-08
7.147265588e-08
7.091441557e-08
7.047482246e-08
7.021847968e-08
7.223585308e-08
7.1921235e-08
7.147847483e-08
7.094556132e-08
7.03663746e-08
6.978962684e-08
6.926780405e-08
6.885683592e-08
6.861713209e-08
7.05029557e-08
7.020892818e-08
6.979513966e-08
6.92970871e-08
6.875577235e-08
6.821671244e-08
6.772895227e-08
6.734476228e-08
6.712062787e-08
6.88833653e-08
6.860859238e-08
6.82218967e-08
6.775644584e-08
6.725055063e-08
6.674674054e-08
6.629084243e-08
6.593170406e-08
6.57221385e-08
6.736970339e-08
6.711293731e-08
6.675157951e-08
6.631661972e-08
6.584385262e-08
6.537301388e-08
6.494692071e-08
6.461121934e-08
6.441528642e-08
6.595508048e-08
6.571515533e-08
6.537749541e-08
6.497105411e-08
6.45292732e-08
6.408927557e-08
6.369106359e-08
6.33772888e-08
6.319411223e-08
6.463306065e-08
6.440888653e-08
6.409339129e-08
6.371362411e-08
6.330082637e-08
6.288967744e-08
6.251754695e-08
6.222428528e-08
6.205304467e-08
6.339762895e-08
6.318818658e-08
6.289342202e-08
6.253860376e-08
6.215291535e-08
6.176875086e-08
6.14210176e-08
6.11469459e-08
6.098687298e-08
6.224316129e-08
6.204749704e-08
6.177212146e-08
6.144063774e-08
6.108030498e-08
6.072137994e-08
6.039646712e-08
6.01403464e-08
5.999072152e-08
6.116439684e-08
6.098161819e-08
6.072437572e-08
6.041471531e-08
6.007809636e-08
5.974277687e-08
5.943920785e-08
5.919987756e-08
5.906002646e-08
6.015641261e-08
5.99856839e-08
5.974539861e-08
5.945614637e-08
5.914170359e-08
5.882845929e-08
5.854485079e-08
5.83212236e-08
5.819051437e-08
5.921460003e-08
5.90551386e-08
5.883070909e-08
5.856053942e-08
5.826683236e-08
5.797422942e-08
5.77092853e-08
5.750034221e-08
5.737818255e-08
5.833464347e-08
5.818571609e-08
5.797611045e-08
5.772378129e-08
5.744946019e-08
5.717615493e-08
5.692866041e-08
5.673344628e-08
5.66192809e-08
5.751250045e-08
5.737342002e-08
5.717767121e-08
5.694201855e-08
5.668581831e-08
5.643055128e-08
5.619936762e-08
5.601698703e-08
5.59102953e-08
5.674438339e-08
5.661450592e-08
5.643170753e-08
5.621164027e-08
5.597237497e-08
5.573396546e-08
5.551802507e-08
5.534763846e-08
5.524793216e-08
5.602674286e-08
5.590546467e-08
5.573476699e-08
5.55292622e-08
5.530582003e-08
5.508316103e-08
5.488146291e-08
5.472228305e-08
5.462910437e-08
5.535625209e-08
5.524300719e-08
5.508361358e-08
5.489171222e-08
5.468305071e-08
5.447510424e-08
5.428670978e-08
5.413799848e-08
5.405091809e-08
5.472979267e-08
5.462405043e-08
5.447521395e-08
5.429601678e-08
5.410115848e-08
5.390695128e-08
5.373098037e-08
5.359204544e-08
5.351066074e-08
5.414444137e-08
5.404570426e-08
5.390672458e-08
5.373938848e-08
5.35574169e-08
5.337603642e-08
5.321166384e-08
5.308185627e-08
5.300578976e-08
5.359745792e-08
5.350525947e-08
5.337548e-08
5.321921448e-08
5.304927037e-08
5.287986104e-08
5.272631314e-08
5.260502444e-08
5.25339222e-08
5.30862737e-08
5.300017662e-08
5.287898183e-08
5.273304585e-08
5.25743237e-08
5.241608349e-08
5.227263504e-08
5.215929484e-08
5.209282511e-08
5.260848123e-08
5.252807565e-08
5.241488857e-08
5.227858755e-08
5.213033239e-08
5.198250961e-08
5.184848091e-08
5.174255469e-08
5.168040656e-08
5.21618245e-08
5.208672629e-08
5.198100625e-08
5.185368929e-08
5.171519366e-08
5.157708397e-08
5.145183819e-08
5.135282512e-08
5.129470729e-08
5.174418986e-08
5.167403914e-08
5.157527958e-08
5.145633691e-08
5.132693808e-08
5.11978817e-08
5.108082232e-08
5.098825333e-08
5.093389298e-08
5.135359763e-08
5.128805732e-08
5.119578384e-08
5.10846444e-08
5.096372175e-08
5.084310089e-08
5.073366941e-08
5.064710535e-08
5.059624706e-08
5.098819429e-08
5.092694883e-08
5.084071729e-08
5.07368465e-08
5.062381911e-08
5.051105555e-08
5.040872929e-08
5.03277592e-08
5.028016396e-08
5.064624523e-08
5.058899931e-08
5.050839412e-08
5.041129181e-08
5.030561621e-08
5.020016905e-08
5.010445914e-08
5.002869868e-08
4.998414299e-08
5.032612798e-08
5.027260543e-08
5.019723795e-08
5.010643642e-08
5.00076045e-08
4.990896811e-08
4.98194176e-08
4.974850758e-08
4.970678257e-08
5.002632601e-08
4.997626872e-08
4.990577578e-08
4.982083804e-08
4.972837511e-08
4.963607723e-08
4.955225939e-08
4.948586443e-08
4.944677509e-08
4.9745423e-08
4.969858996e-08
4.96326325e-08
4.955315064e-08
4.946661369e-08
4.938021363e-08
4.930173038e-08
4.923953767e-08
4.920290214e-08
4.948209762e-08
4.943826406e-08
4.937652588e-08
4.930211958e-08
4.922109567e-08
4.91401828e-08
4.90666633e-08
4.900838152e-08
4.897403047e-08
4.923511887e-08
4.919407545e-08
4.913626212e-08
4.906657734e-08
4.899068221e-08
4.891487453e-08
4.884597394e-08
4.879133229e-08
4.875910836e-08
4.900334196e-08
4.896489408e-08
4.8910732e-08
4.884543985e-08
4.877431665e-08
4.870325964e-08
4.863865808e-08
4.858740549e-08
4.855716285e-08
4.878570485e-08
4.874967209e-08
4.869890765e-08
4.863770343e-08
4.85710218e-08
4.850438742e-08
4.844378915e-08
4.839569364e-08
4.836729764e-08
4.858122552e-08
4.854744114e-08
4.849984013e-08
4.844244263e-08
4.837989789e-08
4.831738393e-08
4.826051674e-08
4.821536504e-08
4.818869198e-08
4.838899998e-08
4.835731068e-08
4.831265785e-08
4.825880886e-08
4.820012161e-08
4.814145128e-08
4.808806622e-08
4.804566355e-08
4.802060064e-08
4.82082014e-08
4.817846711e-08
4.813656601e-08
4.808603019e-08
4.803094617e-08
4.797586807e-08
4.792573949e-08
4.788590968e-08
4.786235509e-08
4.803808017e-08
4.801017415e-08
4.797084725e-08
4.792341233e-08
4.787170272e-08
4.781999122e-08
4.777291721e-08
4.773550311e-08
4.771336627e-08
4.787796545e-08
4.785177457e-08
4.78148637e-08
4.777034105e-08
4.772180326e-08
4.767325939e-08
4.762906268e-08
4.759392693e-08
4.757312905e-08
4.772726812e-08
4.77026934e-08
4.76680606e-08
4.76262864e-08
4.758074535e-08
4.75351982e-08
4.749372759e-08
4.746075385e-08
4.744122864e-08
4.758548558e-08
4.756244305e-08
4.752997185e-08
4.749080868e-08
4.744811876e-08
4.740542763e-08
4.736655997e-08
4.733565465e-08
4.731734937e-08
4.745220839e-08
4.743063037e-08
4.740022759e-08
4.736356675e-08
4.732361447e-08
4.728367161e-08
4.724731458e-08
4.7218409e-08
4.720128582e-08
4.732712927e-08
4.730696595e-08
4.727856408e-08
4.72443286e-08
4.720703601e-08
4.71697703e-08
4.713586577e-08
4.710891903e-08
4.709295667e-08
4.721005437e-08
4.719127587e-08
4.716483607e-08
4.713298445e-08
4.709831345e-08
4.706369484e-08
4.703222316e-08
4.700722556e-08
4.699242132e-08
4.710091698e-08
4.708351591e-08
4.705903165e-08
4.702956247e-08
4.699752001e-08
4.696556494e-08
4.693654996e-08
4.691352707e-08
4.689989919e-08
4.699979387e-08
4.698378831e-08
4.696128976e-08
4.693424704e-08
4.69048912e-08
4.687566888e-08
4.684918387e-08
4.682820122e-08
4.681579161e-08
4.690692392e-08
4.689236087e-08
4.687191985e-08
4.684739933e-08
4.68208463e-08
4.679448591e-08
4.677066018e-08
4.675182858e-08
4.674070586e-08
4.682272885e-08
4.680968818e-08
4.679142382e-08
4.676957982e-08
4.67460117e-08
4.672271034e-08
4.670173664e-08
4.668521802e-08
4.667548081e-08
4.674783569e-08
4.67364344e-08
4.672051921e-08
4.670157224e-08
4.668124545e-08
4.666127676e-08
4.664341917e-08
4.662943286e-08
4.66212134e-08
4.668310018e-08
4.667349689e-08
4.66601633e-08
4.6644408e-08
4.662766213e-08
4.661138533e-08
4.659698767e-08
4.658581702e-08
4.657928496e-08
4.66296303e-08
4.662202992e-08
4.661157686e-08
4.659939016e-08
4.658665706e-08
4.657452622e-08
4.656402061e-08
4.65560199e-08
4.655138633e-08
4.658880884e-08
4.658346715e-08
4.657626662e-08
4.656811575e-08
4.655992853e-08
4.655250179e-08
4.654641735e-08
4.654201892e-08
4.653954073e-08
4.656231383e-08
4.65595418e-08
4.655604504e-08
4.655249521e-08
4.654949677e-08
4.654744539e-08
4.654641696e-08
4.654613874e-08
4.654612339e-08
4.655213544e-08
4.655230312e-08
4.65530462e-08
4.655476753e-08
4.655771868e-08
4.65618357e-08
4.656661271e-08
4.657106632e-08
4.657387755e-08
4.656058823e-08
4.6564128e-08
4.65697366e-08
4.657751028e-08
4.658729703e-08
4.659850581e-08
4.660996167e-08
4.661986176e-08
4.662592673e-08
4.659031758e-08
4.65977267e-08
4.660891994e-08
4.662364349e-08
4.6641284e-08
4.666064697e-08
4.667978961e-08
4.669596553e-08
4.670578438e-08
4.664429979e-08
4.66561422e-08
4.667373574e-08
4.669642768e-08
4.672307918e-08
4.675180769e-08
4.67797928e-08
4.680320398e-08
4.681736319e-08
4.672583571e-08
4.674274338e-08
4.676765202e-08
4.679945666e-08
4.683642347e-08
4.687589033e-08
4.691403899e-08
4.694579651e-08
4.696498801e-08
4.683853899e-08
4.686121321e-08
4.689445388e-08
4.693664741e-08
4.698539182e-08
4.703714878e-08
4.708697258e-08
4.712836987e-08
4.715341837e-08
4.698632108e-08
4.70155345e-08
4.705823097e-08
4.711223066e-08
4.717438923e-08
4.724019277e-08
4.730343016e-08
4.735598703e-08
4.73878888e-08
4.717337676e-08
4.72099774e-08
4.726336858e-08
4.733074803e-08
4.740815686e-08
4.749000659e-08
4.756867558e-08
4.76342006e-08
4.767417773e-08
4.740417569e-08
4.744909471e-08
4.751454927e-08
4.759706316e-08
4.769179684e-08
4.77919921e-08
4.788846541e-08
4.796914273e-08
4.801871721e-08
4.76834675e-08
4.773773292e-08
4.781677356e-08
4.791639663e-08
4.80308264e-08