/*--------------------------------*- C++ -*----------------------------------*\
| =========                 |                                                 |
| \\      /  F ield         | OpenFOAM: The Open Source CFD Toolbox           |
|  \\    /   O peration     | Version:  2212                                  |
|   \\  /    A nd           | Website:  www.openfoam.com                      |
|    \\/     M anipulation  |                                                 |
\*---------------------------------------------------------------------------*/
FoamFile
{
    version     2.0;
    format      ascii;
    arch        "LSB;label=32;scalar=64";
    class       volScalarField;
    location    "20.00000000";
    object      I-C4H3_0;
}
// * * * * * * * * * * * * * * * * * * * * * * * * * * * * * * * * * * * * * //

dimensions      [0 0 0 0 0 0 0];

internalField   nonuniform List<scalar> 
3000
(
6.282202407e-23
7.055890307e-23
8.222825904e-23
9.77678145e-23
1.170107562e-22
1.394267254e-22
1.636628899e-22
1.86776551e-22
2.031138885e-22
2.358558914e-22
2.659669866e-22
3.113610389e-22
3.719389195e-22
4.476000915e-22
5.378908305e-22
6.412257128e-22
7.524573506e-22
8.509690281e-22
5.283091518e-22
6.004372242e-22
7.102092771e-22
8.591310287e-22
1.049758978e-21
1.284726744e-21
1.562982196e-21
1.868950715e-21
2.130241579e-21
1.006273329e-21
1.15565144e-21
1.386344066e-21
1.705998474e-21
2.125686393e-21
2.655727561e-21
3.292791708e-21
3.985644543e-21
4.543993806e-21
1.786884644e-21
2.077412882e-21
2.533242379e-21
3.177352175e-21
4.039746859e-21
5.144168051e-21
6.471419171e-21
7.878755083e-21
8.956229013e-21
3.072584211e-21
3.618041731e-21
4.486297222e-21
5.73275402e-21
7.424003229e-21
9.603067505e-21
1.220595091e-20
1.490655096e-20
1.690900768e-20
5.215796857e-21
6.217829998e-21
7.8315433e-21
1.017450454e-20
1.337744371e-20
1.750463564e-20
2.238617586e-20
2.73478298e-20
3.092904924e-20
8.825994429e-21
1.063921711e-20
1.358523185e-20
1.789550175e-20
2.381051363e-20
3.141564514e-20
4.032940147e-20
4.925411614e-20
5.558591278e-20
1.495953287e-20
1.82057861e-20
2.351405234e-20
3.131945645e-20
4.204918909e-20
5.580613436e-20
7.181284276e-20
8.76715977e-20
9.87988698e-20
2.544629721e-20
3.121256825e-20
4.068446307e-20
5.465667781e-20
7.387469027e-20
9.844933569e-20
1.268841398e-19
1.548502046e-19
1.743279138e-19
4.345944466e-20
5.364290046e-20
7.042332644e-20
9.522571923e-20
1.29339853e-19
1.728636182e-19
2.230166169e-19
2.720931356e-19
3.061064581e-19
7.450469338e-20
9.241339872e-20
1.219875023e-19
1.657528718e-19
2.259329677e-19
3.025698778e-19
3.906119148e-19
4.764643705e-19
5.357772529e-19
1.281415952e-19
1.595425599e-19
2.114752146e-19
2.883850127e-19
3.941001657e-19
5.28519058e-19
6.825905525e-19
8.324737608e-19
9.358543119e-19
2.209720486e-19
2.759180834e-19
3.668898205e-19
5.016839275e-19
6.869018604e-19
9.221288756e-19
1.191256146e-18
1.45256058e-18
1.632912715e-18
3.81817825e-19
4.77823734e-19
6.369177003e-19
8.727765775e-19
1.196871087e-18
1.608226682e-18
2.078164635e-18
2.533059797e-18
2.848692835e-18
6.606724021e-19
8.282045141e-19
1.106033661e-18
1.518168604e-18
2.084738223e-18
2.804184362e-18
3.626971158e-18
4.425449172e-18
4.971106134e-18
1.144198842e-18
1.436131896e-18
1.920469113e-18
2.639083957e-18
3.626830989e-18
4.880339096e-18
6.312029654e-18
7.698086719e-18
8.647880041e-18
1.982692495e-18
2.490787347e-18
3.333942006e-18
4.584954614e-18
6.304021737e-18
8.484396375e-18
1.097281825e-17
1.338009692e-17
1.502978093e-17
3.436930689e-18
4.320497464e-18
5.786947104e-18
7.962768477e-18
1.095211952e-17
1.474238625e-17
1.906639093e-17
2.324779946e-17
2.611249401e-17
5.959521416e-18
7.495203943e-18
1.004427637e-17
1.382651737e-17
1.90224307e-17
2.560914057e-17
3.312144627e-17
4.038401341e-17
4.535832548e-17
1.033614611e-17
1.300436535e-17
1.743377506e-17
2.400621831e-17
3.303471527e-17
4.447831204e-17
5.752750209e-17
7.014009031e-17
7.877698341e-17
1.79308358e-17
2.256589427e-17
3.026096923e-17
4.167934321e-17
5.736392802e-17
7.72418396e-17
9.990499165e-17
1.21805727e-16
1.368007502e-16
3.111198609e-17
3.916275191e-17
5.252922675e-17
7.236326909e-17
9.960644303e-17
1.34129402e-16
1.734835012e-16
2.115071523e-16
2.375385547e-16
5.399235063e-17
6.797501781e-17
9.119062347e-17
1.256389055e-16
1.729524362e-16
2.329019112e-16
3.012299821e-16
3.672382774e-16
4.124231343e-16
9.371445685e-17
1.179989268e-16
1.583184833e-16
2.181435487e-16
3.003036013e-16
4.043920301e-16
5.230086391e-16
6.3757984e-16
7.160004658e-16
1.626829316e-16
2.048583143e-16
2.748792604e-16
3.787655103e-16
5.214172101e-16
7.021104068e-16
9.079823593e-16
1.106794128e-15
1.24285668e-15
2.82440947e-16
3.556863874e-16
4.772806328e-16
6.576586557e-16
9.05297215e-16
1.218897331e-15
1.576096839e-15
1.920951136e-15
2.156907932e-15
4.903996291e-16
6.175999439e-16
8.287352435e-16
1.141877397e-15
1.571666107e-15
2.115747072e-15
2.735231368e-15
3.333073234e-15
3.741992369e-15
8.515086497e-16
1.07239303e-15
1.438955861e-15
1.982455469e-15
2.728115956e-15
3.671613872e-15
4.745289243e-15
5.780883474e-15
6.488873989e-15
1.478474315e-15
1.861985705e-15
2.498246167e-15
3.441229711e-15
4.73425806e-15
6.369260342e-15
8.228446204e-15
1.002029324e-14
1.124443044e-14
2.566727706e-15
3.232421322e-15
4.33638968e-15
5.971614021e-15
8.21217285e-15
1.104272007e-14
1.425803616e-14
1.735353273e-14
1.946615192e-14
4.454768808e-15
5.609744273e-15
7.524089361e-15
1.035748481e-14
1.423585871e-14
1.912947595e-14
2.468049333e-14
3.001673399e-14
3.365352792e-14
7.728004416e-15
9.730445104e-15
1.304707296e-14
1.79509848e-14
2.465458597e-14
3.309924302e-14
4.266047528e-14
5.183358803e-14
5.807351612e-14
1.339679155e-14
1.686482024e-14
2.260354937e-14
3.10775354e-14
4.264140194e-14
5.717785764e-14
7.35964421e-14
8.930789959e-14
9.996899121e-14
2.320040173e-14
2.919756826e-14
3.910955614e-14
5.372113815e-14
7.361655949e-14
9.855886531e-14
1.266435966e-13
1.53430454e-13
1.715493109e-13
4.012332872e-14
5.047255655e-14
6.755172719e-14
9.267490999e-14
1.267882258e-13
1.694108104e-13
2.172185719e-13
2.6263089e-13
2.932275946e-13
6.926713989e-14
8.707775923e-14
1.164150347e-13
1.594551264e-13
2.176963885e-13
2.901640349e-13
3.710661457e-13
4.475346014e-13
4.988116577e-13
1.1931292e-13
1.498568228e-13
2.000517097e-13
2.734524029e-13
3.723637314e-13
4.948223797e-13
6.307691948e-13
7.585153273e-13
8.437023572e-13
2.049561283e-13
2.571078033e-13
3.425721754e-13
4.670595599e-13
6.339805303e-13
8.394253683e-13
1.066012869e-12
1.277500562e-12
1.417639545e-12
3.509270655e-13
4.394996952e-13
5.841650048e-13
7.939106844e-13
1.073519872e-12
1.415327056e-12
1.789515545e-12
2.136133792e-12
2.364207929e-12
5.985694794e-13
7.480493521e-13
9.912393273e-13
1.341940745e-12
1.806346941e-12
2.369712442e-12
2.981368779e-12
3.543284581e-12
3.910235523e-12
1.016498687e-12
1.266918731e-12
1.672494892e-12
2.253796132e-12
3.017819485e-12
3.93681215e-12
4.925662819e-12
5.826107971e-12
6.409473775e-12
1.71768374e-12
2.133700446e-12
2.804047896e-12
3.758280332e-12
5.002165923e-12
6.48469846e-12
8.064821235e-12
9.490506231e-12
1.040666477e-11
2.886508451e-12
3.571170487e-12
4.668186597e-12
6.218120285e-12
8.220695881e-12
1.058448754e-11
1.307918044e-11
1.530910458e-11
1.673044964e-11
4.821108821e-12
5.936344831e-12
7.712345786e-12
1.020154243e-11
1.338781636e-11
1.711142664e-11
2.100224052e-11
2.444794559e-11
2.662678924e-11
7.998741787e-12
9.795265697e-12
1.263766583e-11
1.658816373e-11
2.159663277e-11
2.739097664e-11
3.338597242e-11
3.86473413e-11
4.194896784e-11
1.317533864e-11
1.603549906e-11
2.05302965e-11
2.672382019e-11
3.450043202e-11
4.340796861e-11
5.253597842e-11
6.047810218e-11
6.542625173e-11
2.153502183e-11
2.603315664e-11
3.305376318e-11
4.264456315e-11
5.457251035e-11
6.810369133e-11
8.184367562e-11
9.370222414e-11
1.010414276e-10
3.491159252e-11
4.189777737e-11
5.272770035e-11
6.739767547e-11
8.547519493e-11
1.057949769e-10
1.262526707e-10
1.437777594e-10
1.545584835e-10
5.611234864e-11
6.682718864e-11
8.332770964e-11
1.054978908e-10
1.32580271e-10
1.627618092e-10
1.929099995e-10
2.185619673e-10
2.342565887e-10
8.938581294e-11
1.056163194e-10
1.304538852e-10
1.6357097e-10
2.036983584e-10
2.480667573e-10
2.920710886e-10
3.292862321e-10
3.519465602e-10
1.410901128e-10
1.653800098e-10
2.023328868e-10
2.512556567e-10
3.100953823e-10
3.746920045e-10
4.383516072e-10
4.919021455e-10
5.243730753e-10
2.206393563e-10
2.565718255e-10
3.109420725e-10
3.824605138e-10
4.679017823e-10
5.61109507e-10
6.524517303e-10
7.289326337e-10
7.751421075e-10
3.418333392e-10
3.944113895e-10
4.735770735e-10
5.771069866e-10
7.000567695e-10
8.334385731e-10
9.635203827e-10
1.072008115e-09
1.137361254e-09
5.24683606e-10
6.008337654e-10
7.149873501e-10
8.635081936e-10
1.038972883e-09
1.228412739e-09
1.412403738e-09
1.56534262e-09
1.657248033e-09
7.979448196e-10
9.0719677e-10
1.070341582e-09
1.281656578e-09
1.530187954e-09
1.797412838e-09
2.056046663e-09
2.270440043e-09
2.399021396e-09
1.202605183e-09
1.35800056e-09
1.589280202e-09
1.887698836e-09
2.237329434e-09
2.611951117e-09
2.973472273e-09
3.272477727e-09
3.451523008e-09
1.796640384e-09
2.015947518e-09
2.341424493e-09
2.760015793e-09
3.248853345e-09
3.771107537e-09
4.273883632e-09
4.688953917e-09
4.937189574e-09
2.661462779e-09
2.96880084e-09
3.423837014e-09
4.007449162e-09
4.687158622e-09
5.411587129e-09
6.10762815e-09
6.68140828e-09
7.024237677e-09
3.910617544e-09
4.338629067e-09
4.971074061e-09
5.780386017e-09
6.720871754e-09
7.721287903e-09
8.681014411e-09
9.471294792e-09
9.943186199e-09
5.701434957e-09
6.294193444e-09
7.168658606e-09
8.285622903e-09
9.581336686e-09
1.095754443e-08
1.227628005e-08
1.336141027e-08
1.400918064e-08
8.250538398e-09
9.06743803e-09
1.027102358e-08
1.180617815e-08
1.35846277e-08
1.547153804e-08
1.727837195e-08
1.876468961e-08
1.965203594e-08
1.185430978e-08
1.297525345e-08
1.46252034e-08
1.672748142e-08
1.916070967e-08
2.174071549e-08
2.421060237e-08
2.624263758e-08
2.745640067e-08
1.691557918e-08
1.844786547e-08
2.070176433e-08
2.357162669e-08
2.689166403e-08
3.04113893e-08
3.378162221e-08
3.65560751e-08
3.82148651e-08
2.39779434e-08
2.606536318e-08
2.913465115e-08
3.304156391e-08
3.756108559e-08
4.235389047e-08
4.694635807e-08
5.073108303e-08
5.299704289e-08
3.376921766e-08
3.660395139e-08
4.077164186e-08
4.607706003e-08
5.221665695e-08
5.873248801e-08
6.498334197e-08
7.014276578e-08
7.323737229e-08
4.725533745e-08
5.109324589e-08
5.673673215e-08
6.392375563e-08
7.224724439e-08
8.10914427e-08
8.958983597e-08
9.661828534e-08
1.008431321e-07
6.570536109e-08
7.088513036e-08
7.850477236e-08
8.821538527e-08
9.947425353e-08
1.114565563e-07
1.229937448e-07
1.325578684e-07
1.38321221e-07
9.076687853e-08
9.773315226e-08
1.079868091e-07
1.210668655e-07
1.362540001e-07
1.524478776e-07
1.680768532e-07
1.81067357e-07
1.889166912e-07
1.245489987e-07
1.338789593e-07
1.476215778e-07
1.651722392e-07
1.855832221e-07
2.073934974e-07
2.284969974e-07
2.460878256e-07
2.567472396e-07
1.697070344e-07
1.821388365e-07
2.004645426e-07
2.238965527e-07
2.511938233e-07
2.804269618e-07
3.087878569e-07
3.324974434e-07
3.46906532e-07
2.295194269e-07
2.459794659e-07
2.702613788e-07
3.013454701e-07
3.376166663e-07
3.765433539e-07
4.144062957e-07
4.461509659e-07
4.654999166e-07
3.079441214e-07
3.295685392e-07
3.614890818e-07
4.02392453e-07
4.501899811e-07
5.015844962e-07
5.516923242e-07
5.938175262e-07
6.195675162e-07
4.096396401e-07
4.377841283e-07
4.793466169e-07
5.326428706e-07
5.949887198e-07
6.621268179e-07
7.277116989e-07
7.829778011e-07
8.168446239e-07
5.399365157e-07
5.761679058e-07
6.296795761e-07
6.983190486e-07
7.78659553e-07
8.652568578e-07
9.499642824e-07
1.021466182e-06
1.065372947e-06
7.04747867e-07
7.50811725e-07
8.188299739e-07
9.060607745e-07
1.008160166e-06
1.118234839e-06
1.225966939e-06
1.316996596e-06
1.372981879e-06
9.104141394e-07
9.681749616e-07
1.053413042e-06
1.1626483e-06
1.290408776e-06
1.428070097e-06
1.562768973e-06
1.676616534e-06
1.746705911e-06
1.163483493e-06
1.234837041e-06
1.340024117e-06
1.474647596e-06
1.631878567e-06
1.801068135e-06
1.96644733e-06
2.106164715e-06
2.192220289e-06
1.470422545e-06
1.557177343e-06
1.684885342e-06
1.848031988e-06
2.038186024e-06
2.242387875e-06
2.441645981e-06
2.609802529e-06
2.713370168e-06
1.837272106e-06
1.94102372e-06
2.093481488e-06
2.287799943e-06
2.51370075e-06
2.755656533e-06
2.991207457e-06
3.189668029e-06
3.311841633e-06
2.269286487e-06
2.391287108e-06
2.570194177e-06
2.797619435e-06
3.061212476e-06
3.342672745e-06
3.615921694e-06
3.845670492e-06
3.986987194e-06
2.770565576e-06
2.911605145e-06
3.11796669e-06
3.379526304e-06
3.681676306e-06
4.003209633e-06
4.314391245e-06
4.575411465e-06
4.735782589e-06
3.343715254e-06
3.504026355e-06
3.738025266e-06
4.033695543e-06
4.374044022e-06
4.734910294e-06
5.082986911e-06
5.374187881e-06
5.552857465e-06
3.989567594e-06
4.168762255e-06
4.429677319e-06
4.75829563e-06
5.135177547e-06
5.533253663e-06
5.915848744e-06
6.235004518e-06
6.430500964e-06
4.70698549e-06
4.904026712e-06
5.19019833e-06
5.549428651e-06
5.9598374e-06
6.391571655e-06
6.804893608e-06
7.148515206e-06
7.35847283e-06
5.492760856e-06
5.705966896e-06
6.014806743e-06
6.401153593e-06
6.840749998e-06
7.301142607e-06
7.739891855e-06
8.102995806e-06
8.323712997e-06
6.341591332e-06
6.568666548e-06
6.896704085e-06
7.305573184e-06
7.768757662e-06
8.251439987e-06
8.708877523e-06
9.084982471e-06
9.312841077e-06
7.246089703e-06
7.484170861e-06
7.827121329e-06
8.252911541e-06
8.732957835e-06
9.230432869e-06
9.698723087e-06
1.008258767e-05
1.031483243e-05
8.196752522e-06
8.442462571e-06
8.795303713e-06
9.231506458e-06
9.720653157e-06
1.02247991e-05
1.069823229e-05
1.108548629e-05
1.131946075e-05
9.181803086e-06
9.431339222e-06
9.788453892e-06
1.02278927e-05
1.071912722e-05
1.122431292e-05
1.169767167e-05
1.208407953e-05
1.231719317e-05
1.018681733e-05
1.043612493e-05
1.079236838e-05
1.123017096e-05
1.171848982e-05
1.221952078e-05
1.268788792e-05
1.30693896e-05
1.329914888e-05
1.119848529e-05
1.144516134e-05
1.179717485e-05
1.222905172e-05
1.270969875e-05
1.320164639e-05
1.36603573e-05
1.403310138e-05
1.425714579e-05
1.220755833e-05
1.244935987e-05
1.279392763e-05
1.321586023e-05
1.368432982e-05
1.416254418e-05
1.46072254e-05
1.496762254e-05
1.518376429e-05
1.320538228e-05
1.344017581e-05
1.377424102e-05
1.418245618e-05
1.463454121e-05
1.509471554e-05
1.552135221e-05
1.586613522e-05
1.60723979e-05
1.418371594e-05
1.440950446e-05
1.473022328e-05
1.512124566e-05
1.555310701e-05
1.599135055e-05
1.639635314e-05
1.672263059e-05
1.691728143e-05
1.513476063e-05
1.534972478e-05
1.565452405e-05
1.602523835e-05
1.643346994e-05
1.684636954e-05
1.722662647e-05
1.753192193e-05
1.771349393e-05
1.605125472e-05
1.625378807e-05
1.654041178e-05
1.688811259e-05
1.726978996e-05
1.765445245e-05
1.800736227e-05
1.828963315e-05
1.845693189e-05
1.692657213e-05
1.711530552e-05
1.738184586e-05
1.770426974e-05
1.805697864e-05
1.841105167e-05
1.873453339e-05
1.899215873e-05
1.914424873e-05
1.77548015e-05
1.792861656e-05
1.81735298e-05
1.846886917e-05
1.879071569e-05
1.911238707e-05
1.940489158e-05
1.963677888e-05
1.977308995e-05
1.853079671e-05
1.868882963e-05
1.891093925e-05
1.91778347e-05
1.94674478e-05
1.975552084e-05
2.00161284e-05
2.022165174e-05
2.034187413e-05
1.925018757e-05
1.939182361e-05
1.959032871e-05
1.98279512e-05
2.008457327e-05
2.033843065e-05
2.056671845e-05
2.074566122e-05
2.084973604e-05
1.990954899e-05
2.003447677e-05
2.020899716e-05
2.041697392e-05
2.064032789e-05
2.085984621e-05
2.105585759e-05
2.120838471e-05
2.129648443e-05
2.050646196e-05
2.061460074e-05
2.076508272e-05
2.094344796e-05
2.113370889e-05
2.131922555e-05
2.148343163e-05
2.161005361e-05
2.168255743e-05
2.103934668e-05
2.113083297e-05
2.125753102e-05
2.140669534e-05
2.156445251e-05
2.171672235e-05
2.184997628e-05
2.195150766e-05
2.200897383e-05
2.150745293e-05
2.158262254e-05
2.168607236e-05
2.18067859e-05
2.193299801e-05
2.205314324e-05
2.215662923e-05
2.223414357e-05
2.227728018e-05
2.191083061e-05
2.197019719e-05
2.205118359e-05
2.214449414e-05
2.224043966e-05
2.232989565e-05
2.240507512e-05
2.245985849e-05
2.248949383e-05
2.225028326e-05
2.22945143e-05
2.235403596e-05
2.242124386e-05
2.248846852e-05
2.254892762e-05
2.259748442e-05
2.263098901e-05
2.264804258e-05
2.252730686e-05
2.25571983e-05
2.259643071e-05
2.26390422e-05
2.267930559e-05
2.271266085e-05
2.273644737e-05
2.275024662e-05
2.275570159e-05
2.274401668e-05
2.276046703e-05
2.278072503e-05
2.280040562e-05
2.281562849e-05
2.282391899e-05
2.282490468e-05
2.282065112e-05
2.281552887e-05
2.290306518e-05
2.290704984e-05
2.290975093e-05
2.29082801e-05
2.290049386e-05
2.288585309e-05
2.286607653e-05
2.284546327e-05
2.28308005e-05
2.300755389e-05
2.300010057e-05
2.298672984e-05
2.296595836e-05
2.293725798e-05
2.290186639e-05
2.286339198e-05
2.282811836e-05
2.280494711e-05
2.306094261e-05
2.304310833e-05
2.3015186e-05
2.297699666e-05
2.292949801e-05
2.287554054e-05
2.282042031e-05
2.277216228e-05
2.27414929e-05
2.306695897e-05
2.303980917e-05
2.299886127e-05
2.294513384e-05
2.288093596e-05
2.281056514e-05
2.274080625e-05
2.268119143e-05
2.264399864e-05
2.302951103e-05
2.299410111e-05
2.294163379e-05
2.287421461e-05
2.279536751e-05
2.271067246e-05
2.262821022e-05
2.255879789e-05
2.251600976e-05
2.295260541e-05
2.290996492e-05
2.284744262e-05
2.276811911e-05
2.267659711e-05
2.257957837e-05
2.248625497e-05
2.240852054e-05
2.236101024e-05
2.284027282e-05
2.279139237e-05
2.272021997e-05
2.263070001e-05
2.252838065e-05
2.242093066e-05
2.231847916e-05
2.223380291e-05
2.218238303e-05
2.269650224e-05
2.264232319e-05
2.256383199e-05
2.246572809e-05
2.235437625e-05
2.223826524e-05
2.212829838e-05
2.203795817e-05
2.198337723e-05
2.252518473e-05
2.246659135e-05
2.238202879e-05
2.227684665e-05
2.215810361e-05
2.203497026e-05
2.191897372e-05
2.182414095e-05
2.176708188e-05
2.233006698e-05
2.226788114e-05
2.21784038e-05
2.206753501e-05
2.194291176e-05
2.181425819e-05
2.169358759e-05
2.159532608e-05
2.15364063e-05
2.211471466e-05
2.204969256e-05
2.195636222e-05
2.184108048e-05
2.171195496e-05
2.157914529e-05
2.145502625e-05
2.135429354e-05
2.129406638e-05
2.188248502e-05
2.181531589e-05
2.171909825e-05
2.160055851e-05
2.146817577e-05
2.13324377e-05
2.120596864e-05
2.110361917e-05
2.104257632e-05
2.163650794e-05
2.156781424e-05
2.146957957e-05
2.134881978e-05
2.121429492e-05
2.107672381e-05
2.094888068e-05
2.084567044e-05
2.078424511e-05
2.137967438e-05
2.131001328e-05
2.121053898e-05
2.108848379e-05
2.095280691e-05
2.081437165e-05
2.068601422e-05
2.058260637e-05
2.052117702e-05
2.111463142e-05
2.10444973e-05
2.09444718e-05
2.082193781e-05
2.068598042e-05
2.054753065e-05
2.041940978e-05
2.031638102e-05
2.025527535e-05
2.084378277e-05
2.077361044e-05
2.067363806e-05
2.055134013e-05
2.041586263e-05
2.027813682e-05
2.015090238e-05
2.004874969e-05
1.998824886e-05
2.056929361e-05
2.049946213e-05
2.040006857e-05
2.027862685e-05
2.014428662e-05
2.000792067e-05
1.988212984e-05
1.978127732e-05
1.972162015e-05
2.029309893e-05
2.022393564e-05
2.012557392e-05
2.000552127e-05
1.987288111e-05
1.973841711e-05
1.961454265e-05
1.951534835e-05
1.945673545e-05
2.001691439e-05
1.994869914e-05
1.985175568e-05
1.973354519e-05
1.960308177e-05
1.947097675e-05
1.934941515e-05
1.925217769e-05
1.919477542e-05
1.974224888e-05
1.96752183e-05
1.958001902e-05
1.946403149e-05
1.933614366e-05
1.920677802e-05
1.908785736e-05
1.899282225e-05
1.893676645e-05
1.947041836e-05
1.940476999e-05
1.931158621e-05
1.919813738e-05
1.907315415e-05
1.894683977e-05
1.883082714e-05
1.873819269e-05
1.868359219e-05
1.920256009e-05
1.913845643e-05
1.904751057e-05
1.8936858e-05
1.881504612e-05
1.869203395e-05
1.857914236e-05
1.848906518e-05
1.843600503e-05
1.893964717e-05
1.887721945e-05
1.878869036e-05
1.868103995e-05
1.856261095e-05
1.844309807e-05
1.833349287e-05
1.824609292e-05
1.819463734e-05
1.868250283e-05
1.862185455e-05
1.853588253e-05
1.843139448e-05
1.831651122e-05
1.820064732e-05
1.809445207e-05
1.800981728e-05
1.79600123e-05
1.843181421e-05
1.837302446e-05
1.828971583e-05
1.818851019e-05
1.807729284e-05
1.796518615e-05
1.786248792e-05
1.778067834e-05
1.773255422e-05
1.81881457e-05
1.813127208e-05
1.805070344e-05
1.795286513e-05
1.784539656e-05
1.773711922e-05
1.763797342e-05
1.755902491e-05
1.751259831e-05
1.795195132e-05
1.789703274e-05
1.781925473e-05
1.772483811e-05
1.762116883e-05
1.751676169e-05
1.742119632e-05
1.734512395e-05
1.730039983e-05
1.772358647e-05
1.767064559e-05
1.759568636e-05
1.750471931e-05
1.740487185e-05
1.730434876e-05
1.721236827e-05
1.713916925e-05
1.709614255e-05
1.750331875e-05
1.745236418e-05
1.738023246e-05
1.729272003e-05
1.719669285e-05
1.710004454e-05
1.701163323e-05
1.694128954e-05
1.689994669e-05
1.729133792e-05
1.724236618e-05
1.717305402e-05
1.708898172e-05
1.69967527e-05
1.690395015e-05
1.681907519e-05
1.675155589e-05
1.671187615e-05
1.708776501e-05
1.704076232e-05
1.697424754e-05
1.689358423e-05
1.680511377e-05
1.67161112e-05
1.663472528e-05
1.656998856e-05
1.653194514e-05
1.689266071e-05
1.684760452e-05
1.678385288e-05
1.670655332e-05
1.662178702e-05
1.653652461e-05
1.645856825e-05
1.639656322e-05
1.636012433e-05
1.670603293e-05
1.666289331e-05
1.660186039e-05
1.652786748e-05
1.644673861e-05
1.636514475e-05
1.629054838e-05
1.623121662e-05
1.619634634e-05
1.652784363e-05
1.648658445e-05
1.642821737e-05
1.635746415e-05
1.62798957e-05
1.620188907e-05
1.613057483e-05
1.607385181e-05
1.604051084e-05
1.635801503e-05
1.631859505e-05
1.626283391e-05
1.61952453e-05
1.612115184e-05
1.604664321e-05
1.597852652e-05
1.592434272e-05
1.589248912e-05
1.619643514e-05
1.615880893e-05
1.610558812e-05
1.604108246e-05
1.597037177e-05
1.589926555e-05
1.583425646e-05
1.57825385e-05
1.575212821e-05
1.604296279e-05
1.600708157e-05
1.595633089e-05
1.589482126e-05
1.582739576e-05
1.575959137e-05
1.569759578e-05
1.564826728e-05
1.561925469e-05
1.589743213e-05
1.586324444e-05
1.581489012e-05
1.575628552e-05
1.569204346e-05
1.562743655e-05
1.556835725e-05
1.552133965e-05
1.549367799e-05
1.575965659e-05
1.572710897e-05
1.568107452e-05
1.562528088e-05
1.556411747e-05
1.550260092e-05
1.544633851e-05
1.540155174e-05
1.537519352e-05
1.562943253e-05
1.559847005e-05
1.555467701e-05
1.550159807e-05
1.54434064e-05
1.538487126e-05
1.533132495e-05
1.528868802e-05
1.526358534e-05
1.550654243e-05
1.547710913e-05
1.543547774e-05
1.538501587e-05
1.532968771e-05
1.527402399e-05
1.522309224e-05
1.518252382e-05
1.515862864e-05
1.539075772e-05
1.536279707e-05
1.532324683e-05
1.527530366e-05
1.522273022e-05
1.516982755e-05
1.512140871e-05
1.508282751e-05
1.506009194e-05
1.528184134e-05
1.525529659e-05
1.521774678e-05
1.517222379e-05
1.512229629e-05
1.507204453e-05
1.502603735e-05
1.498936255e-05
1.496773906e-05
1.517955004e-05
1.515436451e-05
1.51187346e-05
1.507553365e-05
1.502814386e-05
1.498043362e-05
1.493673768e-05
1.490188925e-05
1.488133082e-05
1.508363631e-05
1.505975368e-05
1.502596372e-05
1.498498745e-05
1.494002818e-05
1.489475123e-05
1.485326734e-05
1.482016634e-05
1.480062665e-05
1.499385019e-05
1.497121473e-05
1.493918565e-05
1.490033791e-05
1.485770337e-05
1.481475304e-05
1.477538357e-05
1.474395238e-05
1.472538595e-05
1.490994084e-05
1.48884976e-05
1.485815151e-05
1.482133763e-05
1.47809238e-05
1.474019532e-05
1.470284444e-05
1.467300697e-05
1.465536927e-05
1.483165791e-05
1.481135291e-05
1.47826133e-05
1.474774039e-05
1.470944529e-05
1.467083602e-05
1.463540999e-05
1.460709188e-05
1.45903394e-05
1.475875273e-05
1.473953309e-05
1.471232508e-05
1.467930224e-05
1.464302616e-05
1.460643588e-05
1.457284321e-05
1.454597194e-05
1.453006231e-05
1.469097939e-05
1.467279345e-05
1.46470439e-05
1.461578247e-05
1.458142819e-05
1.454675923e-05
1.451491086e-05
1.448941589e-05
1.447430793e-05
1.462809562e-05
1.461089304e-05
1.458653075e-05
1.45569444e-05
1.452441736e-05
1.44915748e-05
1.446138422e-05
1.443719711e-05
1.442285086e-05
1.456986361e-05
1.455359547e-05
1.453055124e-05
1.450255614e-05
1.447176458e-05
1.444065635e-05
1.441203973e-05
1.438909417e-05
1.437547098e-05
1.451605065e-05
1.450066951e-05
1.447887626e-05
1.44523912e-05
1.442324623e-05
1.439378323e-05
1.436665949e-05
1.43448914e-05
1.433195391e-05
1.446642974e-05
1.445188968e-05
1.443128252e-05
1.440622895e-05
1.437864469e-05
1.435074087e-05
1.432503173e-05
1.430437927e-05
1.429209146e-05
1.442078004e-05
1.440703671e-05
1.438755298e-05
1.436385511e-05
1.433774871e-05
1.431132109e-05
1.428695114e-05
1.426735478e-05
1.425568199e-05
1.437888726e-05
1.436589791e-05
1.434747725e-05
1.432506207e-05
1.430035376e-05
1.427532251e-05
1.425221922e-05
1.423362171e-05
1.422253064e-05
1.434054398e-05
1.43282675e-05
1.431085183e-05
1.428964914e-05
1.426626228e-05
1.424255072e-05
1.422064443e-05
1.420299087e-05
1.419244956e-05
1.43055499e-05
1.42939468e-05
1.427748037e-05
1.425742281e-05
1.423528386e-05
1.421281845e-05
1.419204246e-05
1.417528023e-05
1.416525808e-05
1.4273712e-05
1.426274441e-05
1.42471738e-05
1.422819684e-05
1.420723539e-05
1.418594577e-05
1.416623621e-05
1.415031501e-05
1.414078278e-05
1.424484464e-05
1.423447634e-05
1.421975044e-05
1.420179237e-05
1.418194111e-05
1.416176004e-05
1.414305596e-05
1.412792776e-05
1.411885756e-05
1.421876958e-05
1.420896597e-05
1.419503598e-05
1.417803789e-05
1.415923261e-05
1.414009598e-05
1.412233926e-05
1.410795832e-05
1.409932357e-05
1.419531596e-05
1.418604405e-05
1.417286344e-05
1.41567692e-05
1.413894875e-05
1.412079552e-05
1.410393087e-05
1.409025368e-05
1.408202913e-05
1.41743201e-05
1.416554848e-05
1.4153073e-05
1.413782922e-05
1.412093545e-05
1.410370763e-05
1.408768256e-05
1.407466784e-05
1.406682952e-05
1.415562527e-05
1.41473241e-05
1.413551167e-05
1.412106767e-05
1.41050454e-05
1.408868797e-05
1.407345272e-05
1.406106135e-05
1.40535866e-05
1.413908123e-05
1.413122217e-05
1.412003289e-05
1.410634057e-05
1.40911375e-05
1.407559837e-05
1.406110584e-05
1.404930085e-05
1.404216822e-05
1.412454356e-05
1.411709973e-05
1.410649576e-05
1.409350954e-05
1.407907612e-05
1.406430599e-05
1.405051164e-05
1.403925809e-05
1.403244738e-05
1.411187275e-05
1.410481863e-05
1.409476404e-05
1.408244069e-05
1.406872995e-05
1.405468212e-05
1.404154382e-05
1.403080872e-05
1.402430085e-05
1.410093281e-05
1.40942441e-05
1.40847047e-05
1.407300308e-05
1.405997037e-05
1.404660046e-05
1.403407825e-05
1.402383031e-05
1.401760723e-05
1.40915894e-05
1.408524281e-05
1.407618584e-05
1.406506655e-05
1.405266911e-05
1.403993468e-05
1.402799031e-05
1.401819968e-05
1.40122442e-05
1.408370729e-05
1.407768026e-05
1.406907395e-05
1.405849877e-05
1.404669512e-05
1.403455495e-05
1.402315135e-05
1.401378909e-05
1.400808458e-05
1.40771469e-05
1.407141714e-05
1.40632301e-05
1.405316119e-05
1.404191019e-05
1.40303234e-05
1.401942373e-05
1.401046109e-05
1.400499105e-05
1.407175985e-05
1.406630472e-05
1.4058505e-05
1.404890378e-05
1.403816335e-05
1.402708796e-05
1.40166543e-05
1.400806161e-05
1.400280903e-05
1.406738304e-05
1.406217873e-05
1.405473258e-05
1.404555812e-05
1.40352834e-05
1.40246744e-05
1.401466587e-05
1.400641103e-05
1.400135742e-05
1.406383139e-05
1.405885171e-05
1.40517219e-05
1.404292875e-05
1.40330696e-05
1.40228763e-05
1.40132465e-05
1.400529279e-05
1.400041689e-05
1.406088863e-05
1.40561035e-05
1.404924704e-05
1.404078241e-05
1.403128008e-05
1.402144258e-05
1.401213612e-05
1.400443932e-05
1.399971532e-05
1.405829625e-05
1.405366973e-05
1.404703499e-05
1.403883501e-05
1.402961786e-05
1.402006241e-05
1.40110105e-05
1.40035151e-05
1.399891031e-05
1.40557403e-05
1.405122809e-05
1.404475112e-05
1.403673622e-05
1.402771432e-05
1.401834757e-05
1.40094623e-05
1.400209677e-05
1.399756864e-05
1.405283616e-05
1.404838253e-05
1.40419826e-05
1.403405176e-05
1.402511026e-05
1.401581213e-05
1.400697958e-05
1.399965043e-05
1.399514292e-05
1.404911118e-05
1.404464533e-05
1.403821954e-05
1.403024354e-05
1.402123471e-05
1.401184994e-05
1.400292189e-05
1.399550668e-05
1.399094582e-05
1.404398565e-05
1.403941745e-05
1.403283454e-05
1.402464796e-05
1.40153821e-05
1.40057104e-05
1.399649473e-05
1.398883392e-05
1.39841228e-05
1.403675244e-05
1.403196762e-05
1.402506088e-05
1.401645326e-05
1.400668831e-05
1.399647339e-05
1.398672337e-05
1.397861124e-05
1.397362425e-05
1.402655596e-05
1.402141084e-05
1.401397047e-05
1.400467655e-05
1.399410695e-05
1.398302454e-05
1.397242728e-05
1.39636021e-05
1.395817884e-05
1.401237145e-05
1.400668738e-05
1.399845237e-05
1.398814192e-05
1.39763869e-05
1.396403247e-05
1.395219691e-05
1.394233087e-05
1.393626982e-05
1.399298569e-05
1.398654341e-05
1.397719342e-05
1.39654611e-05
1.39520531e-05
1.393792963e-05
1.392437489e-05
1.39130643e-05
1.390611679e-05
1.396698052e-05
1.395951486e-05
1.394866254e-05
1.393501834e-05
1.39193923e-05
1.390289916e-05
1.388704403e-05
1.387380059e-05
1.386566534e-05
1.393272098e-05
1.392391614e-05
1.391110049e-05
1.389496166e-05
1.387644612e-05
1.385687008e-05
1.38380246e-05
1.382226865e-05
1.381258772e-05
1.388834965e-05
1.387783576e-05
1.386251731e-05
1.384320269e-05
1.382101378e-05
1.379752327e-05
1.37748839e-05
1.375594071e-05
1.374429743e-05
1.38317895e-05
1.381914082e-05
1.380069939e-05
1.37774272e-05
1.375066692e-05
1.372231107e-05
1.369496058e-05
1.367206102e-05
1.365798069e-05
1.376075704e-05
1.374549258e-05
1.372322864e-05
1.369511888e-05
1.366277889e-05
1.362849282e-05
1.359540655e-05
1.35676932e-05
1.355064738e-05
1.367278792e-05
1.365437506e-05
1.362751552e-05
1.359359829e-05
1.355457074e-05
1.351318842e-05
1.347324827e-05
1.343978845e-05
1.341920365e-05
1.356527685e-05
1.354313857e-05
1.351084803e-05
1.347007875e-05
1.342317531e-05
1.337345164e-05
1.332546908e-05
1.32852756e-05
1.326054698e-05
1.343553323e-05
1.340905956e-05
1.337045767e-05
1.332174033e-05
1.32657206e-05
1.32063634e-05
1.314911248e-05
1.310117307e-05
1.30716836e-05
1.328085348e-05
1.324941756e-05
1.320360323e-05
1.314582212e-05
1.307943192e-05
1.300914465e-05
1.294140536e-05
1.288472082e-05
1.284986597e-05
1.309861019e-05
1.306158903e-05
1.30076715e-05
1.293973173e-05
1.286175131e-05
1.277928622e-05
1.269989772e-05
1.263352838e-05
1.259274578e-05
1.288635694e-05
1.28431569e-05