/*--------------------------------*- C++ -*----------------------------------*\
| =========                 |                                                 |
| \\      /  F ield         | OpenFOAM: The Open Source CFD Toolbox           |
|  \\    /   O peration     | Version:  2212                                  |
|   \\  /    A nd           | Website:  www.openfoam.com                      |
|    \\/     M anipulation  |                                                 |
\*---------------------------------------------------------------------------*/
FoamFile
{
    version     2.0;
    format      ascii;
    arch        "LSB;label=32;scalar=64";
    class       volScalarField;
    location    "20.00000000";
    object      I-C4H51_0;
}
// * * * * * * * * * * * * * * * * * * * * * * * * * * * * * * * * * * * * * //

dimensions      [0 0 0 0 0 0 0];

internalField   nonuniform List<scalar> 
3000
(
4.710616925e-24
5.290755849e-24
6.165766208e-24
7.330978368e-24
8.773884076e-24
1.045471489e-23
1.227203007e-23
1.400517513e-23
1.523020659e-23
1.768530615e-23
1.994314382e-23
2.3346953e-23
2.788930107e-23
3.356264905e-23
4.033297351e-23
4.808139127e-23
5.64219313e-23
6.38086811e-23
3.961448006e-23
4.502289972e-23
5.325400015e-23
6.442068554e-23
7.871464896e-23
9.633336241e-23
1.171979243e-22
1.4014049e-22
1.597329618e-22
7.545390804e-23
8.66548062e-23
1.039529545e-22
1.279217704e-22
1.593914432e-22
1.991357656e-22
2.469049971e-22
2.988573992e-22
3.407242431e-22
1.33986864e-22
1.55771687e-22
1.899513758e-22
2.38248975e-22
3.029143203e-22
3.857276146e-22
4.852493958e-22
5.907761175e-22
6.715685953e-22
2.303930722e-22
2.712933676e-22
3.363981719e-22
4.298618163e-22
5.566775286e-22
7.200712984e-22
9.152445096e-22
1.11774492e-21
1.267896225e-21
3.910985464e-22
4.662344407e-22
5.872362146e-22
7.629194998e-22
1.003086878e-21
1.312557905e-21
1.678592582e-21
2.0506345e-21
2.3191667e-21
6.618035575e-22
7.977652062e-22
1.018667476e-21
1.341866252e-21
1.785394049e-21
2.355652773e-21
3.024036647e-21
3.693242208e-21
4.168021908e-21
1.121717255e-21
1.365132404e-21
1.763164311e-21
2.348440103e-21
3.152991966e-21
4.184534487e-21
5.384771847e-21
6.573915109e-21
7.408275691e-21
1.908050599e-21
2.340425217e-21
3.050660073e-21
4.098344136e-21
5.539375807e-21
7.382065838e-21
9.514203489e-21
1.161119336e-20
1.307169761e-20
3.258737589e-21
4.0223276e-21
5.280580681e-21
7.140347777e-21
9.698340375e-21
1.296189849e-20
1.672253846e-20
2.040246005e-20
2.295289266e-20
5.58661543e-21
6.929470522e-21
9.147036253e-21
1.242871041e-20
1.694121519e-20
2.268770613e-20
2.928939058e-20
3.572689249e-20
4.017436944e-20
9.608491346e-21
1.196304105e-20
1.585712532e-20
2.162407857e-20
2.955095214e-20
3.963012524e-20
5.118291275e-20
6.242164885e-20
7.017346571e-20
1.656923145e-20
2.068926912e-20
2.751063386e-20
3.761794486e-20
5.150619908e-20
6.91442934e-20
8.932433299e-20
1.089177942e-19
1.224411977e-19
2.862998925e-20
3.582883393e-20
4.775823161e-20
6.544371708e-20
8.974539965e-20
1.205901982e-19
1.558276871e-19
1.899372172e-19
2.136044496e-19
4.953944397e-20
6.210156404e-20
8.293412564e-20
1.138373868e-19
1.563206808e-19
2.102671771e-19
2.719625133e-19
3.318351105e-19
3.72750308e-19
8.579588282e-20
1.076860043e-19
1.440032366e-19
1.978873937e-19
2.719519913e-19
3.659442588e-19
4.732972577e-19
5.772284976e-19
6.484471948e-19
1.486689547e-19
1.867676147e-19
2.499901853e-19
3.437953165e-19
4.726967505e-19
6.361885768e-19
8.227788246e-19
1.003284676e-18
1.126983521e-18
2.57712618e-19
3.239654235e-19
4.339247445e-19
5.970751415e-19
8.212267253e-19
1.105433658e-18
1.429662053e-18
1.743198105e-18
1.958002518e-18
4.468649387e-19
5.620155714e-19
7.53153582e-19
1.036758712e-18
1.426365738e-18
1.920259357e-18
2.483557254e-18
3.028128913e-18
3.401119524e-18
7.750389475e-19
9.751109827e-19
1.307242991e-18
1.800066847e-18
2.477053852e-18
3.335133144e-18
4.313605205e-18
5.259339394e-18
5.906962621e-18
1.344514269e-18
1.692066508e-18
2.269069054e-18
3.125257054e-18
4.301339858e-18
5.791852372e-18
7.49121156e-18
9.13340218e-18
1.025777933e-17
2.332881151e-18
2.936554588e-18
3.938817724e-18
5.426040773e-18
7.468825368e-18
1.005747267e-17
1.300837507e-17
1.585951601e-17
1.78114379e-17
4.048527658e-18
5.09699496e-18
6.837778968e-18
9.420826733e-18
1.296855401e-17
1.746376678e-17
2.258723478e-17
2.753675821e-17
3.092487037e-17
7.027024454e-18
8.847955485e-18
1.18712511e-17
1.635713522e-17
2.251777159e-17
3.032267117e-17
3.921694243e-17
4.780787541e-17
5.368811699e-17
1.219851206e-17
1.536096374e-17
2.061136917e-17
2.840110868e-17
3.909761165e-17
5.264659365e-17
6.808356321e-17
8.299113647e-17
9.319356302e-17
2.117836975e-17
2.667055856e-17
3.578810294e-17
4.931345212e-17
6.788222189e-17
9.139701038e-17
1.181810275e-16
1.440393593e-16
1.617321912e-16
3.677180918e-17
4.630971539e-17
6.214134827e-17
8.562179715e-17
1.17848796e-16
1.586458114e-16
2.050968214e-16
2.499250093e-16
2.805871373e-16
6.384897441e-17
8.041162595e-17
1.078977363e-16
1.486511594e-16
2.04563283e-16
2.753099205e-16
3.558177e-16
4.334700278e-16
4.865575304e-16
1.108609619e-16
1.396179318e-16
1.873268745e-16
2.580349423e-16
3.54990543e-16
4.775884958e-16
6.169964849e-16
7.513551827e-16
8.431450936e-16
1.924618489e-16
2.423777877e-16
3.251570359e-16
4.477716385e-16
6.157762501e-16
8.280201691e-16
1.069115348e-15
1.301226056e-15
1.459637324e-15
3.340334978e-16
4.206374288e-16
5.641814391e-16
7.766389258e-16
1.067452399e-15
1.43439222e-15
1.850626106e-15
2.250755314e-15
2.523454311e-15
5.794716705e-16
7.296213817e-16
9.783132497e-16
1.346024989e-15
1.848683464e-15
2.481892142e-15
3.198825372e-15
3.8866561e-15
4.354546814e-15
1.00453632e-15
1.264580724e-15
1.69488985e-15
2.330297699e-15
3.197395137e-15
4.287387267e-15
5.518507716e-15
6.696605417e-15
7.496009769e-15
1.739643855e-15
2.189331468e-15
2.932565485e-15
4.028190798e-15
5.520016066e-15
7.390273626e-15
9.496160769e-15
1.150472898e-14
1.28633415e-14
3.008581647e-15
3.78460134e-15
5.065254638e-15
6.949074851e-15
9.507005287e-15
1.270298914e-14
1.62877749e-14
1.969294229e-14
2.198718545e-14
5.193882446e-15
6.529382116e-15
8.729188908e-15
1.195647856e-14
1.632360266e-14
2.175746848e-14
2.782377856e-14
3.355763837e-14
3.740256299e-14
8.946483637e-15
1.123676713e-14
1.500054675e-14
2.050437482e-14
2.792107502e-14
3.710343137e-14
4.729717513e-14
5.687600432e-14
6.326361056e-14
1.536830201e-14
1.927880754e-14
2.568720926e-14
3.50216852e-14
4.753797115e-14
6.294290328e-14
7.993318127e-14
9.579122532e-14
1.062993075e-13
2.631370524e-14
3.29551731e-14
4.380265393e-14
5.953007309e-14
8.049608475e-14
1.061259027e-13
1.341837736e-13
1.601743356e-13
1.772760739e-13
4.488280832e-14
5.60912981e-14
7.432647396e-14
1.00623201e-13
1.354458712e-13
1.776888177e-13
2.235527549e-13
2.656869803e-13
2.932021191e-13
7.622068701e-14
9.499799145e-14
1.254093904e-13
1.689971964e-13
2.262860541e-13
2.951949592e-13
3.693419975e-13
4.368600931e-13
4.806026094e-13
1.287983491e-13
1.599926047e-13
2.102573484e-13
2.818086057e-13
3.750788435e-13
4.862434247e-13
6.047254923e-13
7.116272946e-13
7.803233567e-13
2.164421262e-13
2.677802143e-13
3.50037774e-13
4.662562461e-13
6.164148156e-13
7.93658005e-13
9.807161686e-13
1.147921074e-12
1.254496732e-12
3.615090124e-13
4.451327733e-13
5.783023403e-13
7.649487354e-13
1.003862944e-12
1.283066879e-12
1.574807113e-12
1.833171579e-12
1.99654446e-12
5.9979022e-13
7.344988004e-13
9.476292598e-13
1.243846063e-12
1.619389456e-12
2.053856283e-12
2.503365548e-12
2.897864985e-12
3.145421422e-12
9.879812533e-13
1.202444019e-12
1.53947382e-12
2.003873344e-12
2.586968806e-12
3.254854304e-12
3.939263707e-12
4.534751421e-12
4.905753743e-12
1.614906541e-12
1.952188591e-12
2.478605496e-12
3.197728075e-12
4.092074534e-12
5.106610703e-12
6.136784102e-12
7.025881401e-12
7.576134789e-12
2.61816057e-12
3.142002564e-12
3.954040796e-12
5.05398022e-12
6.40937227e-12
7.932833398e-12
9.466588681e-12
1.078044852e-11
1.158866962e-11
4.208469397e-12
5.011895827e-12
6.24910576e-12
7.91135455e-12
9.941803056e-12
1.220448767e-11
1.446456195e-11
1.63874979e-11
1.756397714e-11
6.704952425e-12
7.921963079e-12
9.784256764e-12
1.226716775e-11
1.52754281e-11
1.860135129e-11
2.189972443e-11
2.468903e-11
2.638737255e-11
1.058567606e-11
1.240702658e-11
1.517766752e-11
1.884538762e-11
2.325602877e-11
2.809757502e-11
3.286829736e-11
3.688102147e-11
3.931402112e-11
1.655959286e-11
1.92540294e-11
2.333053227e-11
2.869186772e-11
3.509569431e-11
4.20802023e-11
4.892358485e-11
5.465261221e-11
5.811369869e-11
2.566838061e-11
2.961125638e-11
3.554685571e-11
4.330729819e-11
5.252076918e-11
6.251290273e-11
7.225488828e-11
8.037755385e-11
8.526978267e-11
3.942791555e-11
4.513921549e-11
5.369846412e-11
6.483055502e-11
7.797657745e-11
9.21631191e-11
1.059353446e-10
1.173786177e-10
1.242531976e-10
6.002755997e-11
6.822352114e-11
8.045771189e-11
9.62959637e-11
1.149121846e-10
1.349152879e-10
1.542624015e-10
1.702905088e-10
1.798989951e-10
9.061118226e-11
1.022740651e-10
1.196228354e-10
1.419915224e-10
1.681762106e-10
1.962060614e-10
2.23230251e-10
2.455626238e-10
2.58927149e-10
1.356720169e-10
1.521451239e-10
1.765747765e-10
2.079617399e-10
2.445719004e-10
2.836336054e-10
3.211899031e-10
3.521599286e-10
3.706670401e-10
2.01610936e-10
2.247297323e-10
2.589240542e-10
3.027202623e-10
3.536441719e-10
4.078212357e-10
4.597830182e-10
5.025508624e-10
5.280749775e-10
2.975302821e-10
3.298071324e-10
3.774364109e-10
4.382736605e-10
5.088141824e-10
5.836644334e-10
6.552889627e-10
7.141283231e-10
7.491936622e-10
4.363694421e-10
4.812616295e-10
5.473738434e-10
6.316165018e-10
7.290481863e-10
8.321749725e-10
9.306239079e-10
1.011322491e-09
1.059322238e-09
6.365358833e-10
6.988480212e-10
7.90458844e-10
9.069488321e-10
1.041364967e-09
1.183288527e-09
1.318423595e-09
1.428892048e-09
1.494414846e-09
9.242425291e-10
1.010750316e-09
1.137765779e-09
1.29900277e-09
1.484681818e-09
1.680277632e-09
1.866007521e-09
2.017336605e-09
2.106745706e-09
1.336814402e-09
1.457257095e-09
1.633966336e-09
1.858065273e-09
2.115813045e-09
2.386878799e-09
2.643682446e-09
2.85224098e-09
2.974901956e-09
1.927268272e-09
2.095958299e-09
2.343510194e-09
2.657554859e-09
3.018886556e-09
3.398965247e-09
3.758930042e-09
4.050855801e-09
4.221972329e-09
2.770508826e-09
3.008950277e-09
3.359483013e-09
3.805315134e-09
4.319999241e-09
4.86354907e-09
5.380531687e-09
5.801372309e-09
6.048475048e-09
3.971541496e-09
4.31261965e-09
4.816027045e-09
5.460048031e-09
6.209408979e-09
7.008735139e-09
7.778061357e-09
8.41241267e-09
8.789242021e-09
5.676318752e-09
6.170776826e-09
6.905369158e-09
7.854382223e-09
8.973459439e-09
1.018787003e-08
1.138146213e-08
1.238928372e-08
1.300248374e-08
8.086543403e-09
8.812512695e-09
9.900819681e-09
1.13257239e-08
1.303673495e-08
1.493702486e-08
1.685766273e-08
1.853140426e-08
1.958381416e-08
1.148135789e-08
1.255749917e-08
1.418774267e-08
1.635495661e-08
1.901010443e-08
2.203271991e-08
2.517619668e-08
2.800227121e-08
2.98380477e-08
1.62511692e-08
1.785331838e-08
2.030515001e-08
2.361070359e-08
2.773088365e-08
3.251152702e-08
3.757745367e-08
4.22044039e-08
4.524160123e-08
2.294975582e-08
2.532934945e-08
2.899859154e-08
3.399098464e-08
4.026681621e-08
4.757697545e-08
5.526079765e-08
6.202441899e-08
6.590907426e-08
3.236408628e-08
3.586216335e-08
4.127072126e-08
4.863329532e-08
5.78276307e-08
6.828745991e-08
7.857563565e-08
8.590044207e-08
8.801265151e-08
4.557524356e-08
5.061267482e-08
5.836539972e-08
6.878761807e-08
8.141102225e-08
9.476739813e-08
1.054537745e-07
1.103294851e-07
1.109967352e-07
6.391903949e-08
7.091041538e-08
8.149581444e-08
9.524828812e-08
1.106232421e-07
1.238307826e-07
1.319681564e-07
1.352422572e-07
1.349493499e-07
8.860200616e-08
9.766752063e-08
1.108398963e-07
1.267070526e-07
1.405798602e-07
1.514184981e-07
1.582743892e-07
1.608631358e-07
1.601319415e-07
1.193056978e-07
1.295170187e-07
1.422871255e-07
1.556040753e-07
1.679409065e-07
1.780191486e-07
1.847297263e-07
1.874195635e-07
1.867060236e-07
1.497110812e-07
1.582752341e-07
1.695155433e-07
1.818947874e-07
1.939671547e-07
2.043341113e-07
2.116679752e-07
2.149998832e-07
2.146396427e-07
1.755872854e-07
1.836644179e-07
1.94589385e-07
2.070522994e-07
2.196485223e-07
2.308849479e-07
2.392484245e-07
2.435162012e-07
2.437178023e-07
1.99745486e-07
2.079011075e-07
2.191136668e-07
2.321553467e-07
2.456174343e-07
2.579282894e-07
2.674380073e-07
2.727326647e-07
2.735923051e-07
2.239198417e-07
2.323635643e-07
2.440621751e-07
2.578009528e-07
2.721481097e-07
2.85475209e-07
2.960436376e-07
3.023061802e-07
3.038285487e-07
2.48971608e-07
2.577057024e-07
2.698462072e-07
2.841682995e-07
2.992193407e-07
3.133402412e-07
3.247478129e-07
3.318147839e-07
3.339337855e-07
2.751352466e-07
2.840520634e-07
2.964603708e-07
3.111257282e-07
3.265881487e-07
3.411853495e-07
3.531302076e-07
3.607664499e-07
3.633627535e-07
3.022378934e-07
3.11178394e-07
3.236187612e-07
3.383252363e-07
3.538475411e-07
3.685460293e-07
3.80667029e-07
3.885777888e-07
3.914879638e-07
3.29858893e-07
3.386437036e-07
3.508544224e-07
3.652696702e-07
3.804629201e-07
3.948350078e-07
4.066923194e-07
4.144789016e-07
4.174852724e-07
3.574320899e-07
3.65875512e-07
3.775840426e-07
3.913562274e-07
4.057928552e-07
4.193292601e-07
4.303039576e-07
4.371628598e-07
4.390597935e-07
3.843047456e-07
3.922183129e-07
4.031432787e-07
4.158985689e-07
4.291032467e-07
4.411983785e-07
4.504788776e-07
4.55222762e-07
4.559986464e-07
4.097594552e-07
4.169453119e-07
4.267813002e-07
4.380940449e-07
4.494930977e-07
4.593847362e-07
4.657880697e-07
4.687676032e-07
4.689075598e-07
4.329847286e-07
4.392136e-07
4.475832449e-07
4.568803306e-07
4.655611194e-07
4.723095949e-07
4.766840944e-07
4.785234182e-07
4.782782657e-07
4.529270958e-07
4.578954407e-07
4.642423049e-07
4.706297012e-07
4.764677063e-07
4.810614849e-07
4.839569107e-07
4.849541325e-07
4.844334201e-07
4.677229235e-07
4.709665651e-07
4.751103327e-07
4.794166962e-07
4.833175909e-07
4.863115549e-07
4.880330133e-07
4.883329327e-07
4.875792593e-07
4.76880996e-07
4.789800683e-07
4.816445551e-07
4.8439102e-07
4.867858966e-07
4.884648314e-07
4.891732448e-07
4.88847588e-07
4.878752908e-07
4.819276972e-07
4.831629382e-07
4.846794757e-07
4.861464542e-07
4.872604887e-07
4.877822923e-07
4.875730101e-07
4.866652311e-07
4.854803307e-07
4.836161924e-07
4.841314131e-07
4.846725421e-07
4.85023603e-07
4.849973339e-07
4.844709191e-07
4.834177873e-07
4.819660202e-07
4.805756937e-07
4.823503182e-07
4.822346509e-07
4.819132412e-07
4.812669387e-07
4.802125302e-07
4.787342506e-07
4.769099038e-07
4.749567341e-07
4.733729145e-07
4.784044289e-07
4.777285295e-07
4.766388055e-07
4.751013073e-07
4.731261375e-07
4.707941464e-07
4.682771377e-07
4.658722528e-07
4.641121712e-07
4.720231376e-07
4.708532749e-07
4.690861218e-07
4.667632451e-07
4.639776093e-07
4.608954691e-07
4.577709512e-07
4.549703794e-07
4.530557085e-07
4.634594422e-07
4.618618071e-07
4.595089624e-07
4.565087364e-07
4.530263925e-07
4.493019307e-07
4.456595749e-07
4.42523581e-07
4.404790776e-07
4.529837542e-07
4.51024746e-07
4.48178475e-07
4.446098216e-07
4.405457039e-07
4.362881315e-07
4.322191357e-07
4.288095395e-07
4.26661435e-07
4.408803282e-07
4.386253866e-07
4.35376589e-07
4.313467573e-07
4.268138953e-07
4.221304196e-07
4.177243545e-07
4.141023624e-07
4.118772577e-07
4.274391172e-07
4.249512218e-07
4.213872265e-07
4.169989289e-07
4.121053286e-07
4.070983296e-07
4.02440791e-07
3.986651014e-07
3.963888921e-07
4.129464452e-07
4.102846262e-07
4.064871658e-07
4.018364301e-07
3.96682855e-07
3.914476374e-07
3.866182293e-07
3.827435446e-07
3.804406178e-07
3.976767796e-07
3.948951428e-07
3.909389959e-07
3.861134545e-07
3.807916221e-07
3.754147347e-07
3.704856555e-07
3.665616465e-07
3.642543163e-07
3.818863151e-07
3.790332935e-07
3.749852741e-07
3.700630349e-07
3.646544804e-07
3.592126802e-07
3.542478625e-07
3.503185367e-07
3.480266889e-07
3.658080442e-07
3.629259969e-07
3.588444285e-07
3.53893507e-07
3.484690402e-07
3.430288198e-07
3.380835499e-07
3.341869643e-07
3.319278735e-07
3.496486022e-07
3.467737117e-07
3.427083155e-07
3.377865467e-07
3.324062074e-07
3.270237924e-07
3.221447234e-07
3.183129768e-07
3.161012618e-07
3.335866976e-07
3.307491125e-07
3.267412288e-07
3.218965646e-07
3.166099759e-07
3.113316918e-07
3.06557165e-07
3.028166068e-07
3.006642931e-07
3.177728866e-07
3.149970513e-07
3.110801159e-07
3.063512138e-07
3.011982316e-07
2.960611452e-07
2.914217359e-07
2.87793333e-07
2.857099925e-07
3.023304274e-07
2.99635544e-07
2.958357431e-07
2.912527568e-07
2.862643232e-07
2.812970681e-07
2.768162838e-07
2.73316093e-07
2.713090377e-07
2.873569486e-07
2.847575222e-07
2.810945572e-07
2.766800498e-07
2.718791675e-07
2.671028781e-07
2.627979428e-07
2.594376445e-07
2.575121526e-07
2.72926683e-07
2.704331076e-07
2.669210123e-07
2.626909251e-07
2.58093683e-07
2.535229719e-07
2.494056446e-07
2.461931024e-07
2.443526596e-07
2.590930445e-07
2.567121945e-07
2.533601576e-07
2.493247806e-07
2.449413764e-07
2.405853041e-07
2.366626904e-07
2.336025062e-07
2.318490507e-07
2.458913585e-07
2.436271607e-07
2.40440318e-07
2.366052208e-07
2.324409384e-07
2.283039386e-07
2.245792634e-07
2.216733093e-07
2.200074692e-07
2.333415958e-07
2.311955618e-07
2.281757326e-07
2.245426281e-07
2.205987423e-07
2.166814766e-07
2.131547978e-07
2.104027093e-07
2.088240262e-07
2.214509932e-07
2.194227012e-07
2.16569054e-07
2.131365769e-07
2.094111672e-07
2.057112927e-07
2.023801443e-07
1.997797653e-07
1.982868992e-07
2.102164817e-07
2.08304002e-07
2.056136397e-07
2.023780312e-07
1.988666971e-07
1.953795414e-07
1.922394976e-07
1.897872749e-07
1.88378189e-07
1.996268724e-07
1.978271333e-07
1.952955985e-07
1.922512954e-07
1.889477708e-07
1.856669116e-07
1.827120743e-07
1.804033988e-07
1.790755213e-07
1.896647742e-07
1.879738713e-07
1.855955717e-07
1.827357031e-07
1.796323747e-07
1.765501293e-07
1.737735388e-07
1.716030367e-07
1.703534007e-07
1.803082384e-07
1.787216908e-07
1.764902515e-07
1.738070499e-07
1.708953853e-07
1.680032157e-07
1.65397194e-07
1.633589679e-07
1.62184331e-07
1.715321393e-07
1.700450976e-07
1.679536478e-07
1.65438783e-07
1.627096811e-07
1.59998522e-07
1.575549476e-07
1.556427772e-07
1.545397213e-07
1.633093117e-07
1.619167248e-07
1.59958126e-07
1.576029701e-07
1.550470338e-07
1.525075549e-07
1.502180885e-07
1.484255918e-07
1.473906055e-07
1.556114652e-07
1.543082089e-07
1.52475232e-07
1.502710661e-07
1.478788207e-07
1.455016325e-07
1.433578914e-07
1.416786523e-07
1.407081968e-07
1.484099033e-07
1.471908795e-07
1.454763407e-07
1.434145137e-07
1.411765723e-07
1.389523832e-07
1.369460761e-07
1.353737431e-07
1.344643047e-07
1.416760786e-07
1.405362891e-07
1.389331517e-07
1.370051985e-07
1.349123851e-07
1.328321182e-07
1.309551454e-07
1.294835066e-07
1.286316374e-07
1.353820092e-07
1.343166088e-07
1.328180563e-07
1.310157823e-07
1.290592201e-07
1.271140977e-07
1.253586241e-07
1.239816618e-07
1.2318401e-07
1.295005801e-07
1.285049139e-07
1.271043998e-07
1.254199396e-07
1.235911116e-07
1.217727125e-07
1.201312177e-07
1.188431471e-07
1.180964796e-07
1.24005752e-07
1.230753787e-07
1.217666593e-07
1.201925138e-07
1.184833014e-07
1.167835981e-07
1.152489088e-07
1.140442031e-07
1.133454205e-07
1.188726963e-07
1.18003402e-07
1.167805549e-07
1.153096119e-07
1.137123166e-07
1.121236956e-07
1.106890039e-07
1.095624095e-07
1.089085558e-07
1.140778723e-07
1.132656767e-07
1.121231081e-07
1.107486515e-07
1.092560036e-07
1.077712734e-07
1.06430144e-07
1.053766871e-07
1.047649552e-07
1.095990607e-07
1.088402169e-07
1.07772662e-07
1.064883708e-07
1.050935277e-07
1.037059178e-07
1.024522875e-07
1.014672747e-07
1.008950078e-07
1.054153637e-07
1.047063544e-07
1.037088712e-07
1.025088122e-07
1.012053505e-07
9.990850261e-08
9.873667358e-08
9.781568769e-08
9.728037865e-08
1.01507181e-07
1.008447116e-07
9.991267094e-08
9.879128633e-08
9.757318818e-08
9.63611437e-08
9.526577202e-08
9.440466472e-08
9.390395292e-08
9.785616921e-08
9.723715868e-08
9.636623151e-08
9.531832347e-08
9.417995988e-08
9.304714308e-08
9.20232249e-08
9.121810678e-08
9.074977374e-08
9.44451892e-08
9.386675976e-08
9.305290257e-08
9.207361571e-08
9.100972762e-08
8.995092731e-08
8.899378275e-08
8.824101186e-08
8.780297574e-08
9.125824649e-08
9.071771267e-08
8.995715197e-08
8.904195469e-08
8.804763275e-08
8.70579826e-08
8.616323872e-08
8.545940813e-08
8.504971761e-08
8.828042774e-08
8.777528505e-08
8.706450143e-08
8.620916684e-08
8.527983091e-08
8.435478927e-08
8.351836239e-08
8.28602873e-08
8.247711498e-08
8.549783562e-08
8.50257493e-08
8.436146162e-08
8.356204844e-08
8.269342695e-08
8.182875668e-08
8.104683487e-08
8.043153956e-08
8.007317525e-08
8.289752409e-08
8.245631792e-08
8.183546763e-08
8.108830151e-08
8.027641135e-08
7.946816024e-08
7.873718599e-08
7.816189099e-08
7.782673489e-08
8.04674345e-08
8.005508016e-08
7.947481631e-08
7.877647187e-08
7.801759913e-08
7.726208089e-08
7.657873443e-08
7.604084391e-08
7.572739995e-08
7.819633467e-08
7.781094155e-08
7.726860656e-08
7.661589026e-08
7.590657165e-08
7.520034769e-08
7.45615309e-08
7.405862063e-08
7.376548995e-08
7.607376098e-08
7.571356648e-08
7.520668244e-08
7.459661626e-08
7.393362155e-08
7.327348377e-08
7.2676305e-08
7.220611081e-08
7.193198554e-08
7.408996323e-08
7.375332361e-08
7.327957953e-08
7.270938565e-08
7.20897012e-08
7.147265579e-08
7.091441547e-08
7.047482236e-08
7.02184796e-08
7.223585302e-08
7.192123493e-08
7.147847476e-08
7.094556124e-08
7.036637452e-08
6.978962675e-08
6.926780395e-08
6.885683582e-08
6.861713201e-08
7.050295565e-08
7.020892811e-08
6.979513959e-08
6.929708703e-08
6.875577227e-08
6.821671235e-08
6.772895217e-08
6.734476219e-08
6.712062779e-08
6.888336525e-08
6.860859232e-08
6.822189664e-08
6.775644577e-08
6.725055056e-08
6.674674046e-08
6.629084234e-08
6.593170397e-08
6.572213843e-08
6.736970334e-08
6.711293725e-08
6.675157944e-08
6.631661966e-08
6.584385255e-08
6.53730138e-08
6.494692062e-08
6.461121926e-08
6.441528635e-08
6.595508043e-08
6.571515527e-08
6.537749534e-08
6.497105405e-08
6.452927313e-08
6.408927549e-08
6.369106351e-08
6.337728872e-08
6.319411216e-08
6.463306061e-08
6.440888648e-08
6.409339122e-08
6.371362405e-08
6.330082631e-08
6.288967737e-08
6.251754687e-08
6.22242852e-08
6.205304461e-08
6.339762891e-08
6.318818652e-08
6.289342196e-08
6.25386037e-08
6.215291529e-08
6.176875079e-08
6.142101753e-08
6.114694583e-08
6.098687292e-08
6.224316124e-08
6.204749699e-08
6.17721214e-08
6.144063768e-08
6.108030492e-08
6.072137988e-08
6.039646705e-08
6.014034633e-08
5.999072146e-08
6.11643968e-08
6.098161814e-08
6.072437566e-08
6.041471526e-08
6.00780963e-08
5.974277681e-08
5.943920779e-08
5.91998775e-08
5.90600264e-08
6.015641257e-08
5.998568385e-08
5.974539856e-08
5.945614632e-08
5.914170354e-08
5.882845923e-08
5.854485073e-08
5.832122354e-08
5.819051432e-08
5.921459999e-08
5.905513856e-08
5.883070904e-08
5.856053937e-08
5.826683231e-08
5.797422937e-08
5.770928524e-08
5.750034215e-08
5.73781825e-08
5.833464343e-08
5.818571605e-08
5.79761104e-08
5.772378125e-08
5.744946014e-08
5.717615488e-08
5.692866035e-08
5.673344623e-08
5.661928086e-08
5.751250041e-08
5.737341998e-08
5.717767117e-08
5.694201851e-08
5.668581826e-08
5.643055123e-08
5.619936757e-08
5.601698698e-08
5.591029525e-08
5.674438336e-08
5.661450588e-08
5.643170749e-08
5.621164022e-08
5.597237493e-08
5.573396542e-08
5.551802502e-08
5.534763841e-08
5.524793212e-08
5.602674283e-08
5.590546463e-08
5.573476695e-08
5.552926216e-08
5.530581999e-08
5.508316099e-08
5.488146286e-08
5.4722283e-08
5.462910433e-08
5.535625206e-08
5.524300716e-08
5.508361354e-08
5.489171218e-08
5.468305067e-08
5.44751042e-08
5.428670973e-08
5.413799844e-08
5.405091805e-08
5.472979265e-08
5.462405039e-08
5.447521391e-08
5.429601674e-08
5.410115844e-08
5.390695124e-08
5.373098032e-08
5.35920454e-08
5.35106607e-08
5.414444135e-08
5.404570422e-08
5.390672454e-08
5.373938844e-08
5.355741686e-08
5.337603638e-08
5.32116638e-08
5.308185623e-08
5.300578972e-08
5.35974579e-08
5.350525944e-08
5.337547997e-08
5.321921445e-08
5.304927034e-08
5.2879861e-08
5.27263131e-08
5.26050244e-08
5.253392217e-08
5.308627367e-08
5.300017659e-08
5.28789818e-08
5.273304582e-08
5.257432366e-08
5.241608346e-08
5.2272635e-08
5.215929481e-08
5.209282508e-08
5.260848121e-08
5.252807563e-08
5.241488854e-08
5.227858752e-08
5.213033236e-08
5.198250958e-08
5.184848088e-08
5.174255465e-08
5.168040653e-08
5.216182448e-08
5.208672627e-08
5.198100622e-08
5.185368927e-08
5.171519363e-08
5.157708394e-08
5.145183815e-08
5.135282508e-08
5.129470726e-08
5.174418984e-08
5.167403911e-08
5.157527955e-08
5.145633689e-08
5.132693805e-08
5.119788167e-08
5.108082229e-08
5.09882533e-08
5.093389296e-08
5.135359761e-08
5.12880573e-08
5.119578382e-08
5.108464438e-08
5.096372172e-08
5.084310086e-08
5.073366938e-08
5.064710532e-08
5.059624704e-08
5.098819427e-08
5.092694881e-08
5.084071727e-08
5.073684648e-08
5.062381909e-08
5.051105552e-08
5.040872926e-08
5.032775917e-08
5.028016394e-08
5.064624521e-08
5.058899929e-08
5.05083941e-08
5.041129179e-08
5.030561619e-08
5.020016903e-08
5.010445911e-08
5.002869865e-08
4.998414297e-08
5.032612796e-08
5.027260541e-08
5.019723793e-08
5.01064364e-08
5.000760448e-08
4.990896809e-08
4.981941758e-08
4.974850756e-08
4.970678255e-08
5.002632599e-08
4.99762687e-08
4.990577576e-08
4.982083802e-08
4.972837509e-08
4.96360772e-08
4.955225936e-08
4.94858644e-08
4.944677506e-08
4.974542298e-08
4.969858994e-08
4.963263248e-08
4.955315062e-08
4.946661367e-08
4.938021361e-08
4.930173036e-08
4.923953765e-08
4.920290212e-08
4.94820976e-08
4.943826404e-08
4.937652586e-08
4.930211956e-08
4.922109565e-08
4.914018278e-08
4.906666328e-08
4.90083815e-08
4.897403045e-08
4.923511885e-08
4.919407543e-08
4.913626211e-08
4.906657733e-08
4.899068219e-08
4.891487451e-08
4.884597392e-08
4.879133227e-08
4.875910834e-08
4.900334194e-08
4.896489406e-08
4.891073198e-08
4.884543983e-08
4.877431663e-08
4.870325962e-08
4.863865806e-08
4.858740547e-08
4.855716283e-08
4.878570484e-08
4.874967207e-08
4.869890763e-08
4.863770342e-08
4.857102178e-08
4.85043874e-08
4.844378913e-08
4.839569362e-08
4.836729762e-08
4.85812255e-08
4.854744113e-08
4.849984011e-08
4.844244261e-08
4.837989787e-08
4.831738392e-08
4.826051672e-08
4.821536502e-08
4.818869197e-08
4.838899997e-08
4.835731067e-08
4.831265783e-08
4.825880884e-08
4.820012159e-08
4.814145126e-08
4.80880662e-08
4.804566353e-08
4.802060063e-08
4.820820138e-08
4.817846709e-08
4.813656599e-08
4.808603018e-08
4.803094615e-08
4.797586805e-08
4.792573947e-08
4.788590966e-08
4.786235508e-08
4.803808015e-08
4.801017414e-08
4.797084724e-08
4.792341231e-08
4.787170271e-08
4.781999121e-08
4.77729172e-08
4.773550309e-08
4.771336626e-08
4.787796543e-08
4.785177455e-08
4.781486368e-08
4.777034104e-08
4.772180325e-08
4.767325937e-08
4.762906267e-08
4.759392691e-08
4.757312903e-08
4.772726811e-08
4.770269338e-08
4.766806059e-08
4.762628638e-08
4.758074533e-08
4.753519819e-08
4.749372757e-08
4.746075384e-08
4.744122863e-08
4.758548557e-08
4.756244304e-08
4.752997184e-08
4.749080866e-08
4.744811875e-08
4.740542761e-08
4.736655996e-08
4.733565463e-08
4.731734936e-08
4.745220838e-08
4.743063036e-08
4.740022758e-08
4.736356674e-08
4.732361445e-08
4.72836716e-08
4.724731456e-08
4.721840898e-08
4.720128581e-08
4.732712926e-08
4.730696594e-08
4.727856407e-08
4.724432859e-08
4.7207036e-08
4.716977029e-08
4.713586575e-08
4.710891902e-08
4.709295666e-08
4.721005436e-08
4.719127586e-08
4.716483605e-08
4.713298444e-08
4.709831344e-08
4.706369483e-08
4.703222314e-08
4.700722555e-08
4.699242131e-08
4.710091697e-08
4.70835159e-08
4.705903164e-08
4.702956246e-08
4.699752e-08
4.696556493e-08
4.693654995e-08
4.691352706e-08
4.689989918e-08
4.699979387e-08
4.69837883e-08
4.696128975e-08
4.693424703e-08
4.690489119e-08
4.687566887e-08
4.684918385e-08
4.68282012e-08
4.68157916e-08
4.690692391e-08
4.689236086e-08
4.687191984e-08
4.684739932e-08
4.682084629e-08
4.67944859e-08
4.677066017e-08
4.675182857e-08
4.674070585e-08
4.682272884e-08
4.680968817e-08
4.679142381e-08
4.676957981e-08
4.674601169e-08
4.672271033e-08
4.670173662e-08
4.668521801e-08
4.66754808e-08
4.674783568e-08
4.673643439e-08
4.672051921e-08
4.670157223e-08
4.668124544e-08
4.666127675e-08
4.664341916e-08
4.662943285e-08
4.662121339e-08
4.668310017e-08
4.667349688e-08
4.666016329e-08
4.664440799e-08
4.662766212e-08
4.661138532e-08
4.659698767e-08
4.658581702e-08
4.657928495e-08
4.662963029e-08
4.662202991e-08
4.661157686e-08
4.659939015e-08
4.658665706e-08
4.657452621e-08
4.656402061e-08
4.655601989e-08
4.655138632e-08
4.658880883e-08
4.658346714e-08
4.657626661e-08
4.656811575e-08
4.655992852e-08
4.655250178e-08
4.654641734e-08
4.654201892e-08
4.653954072e-08
4.656231382e-08
4.65595418e-08
4.655604503e-08
4.65524952e-08
4.654949677e-08
4.654744538e-08
4.654641695e-08
4.654613874e-08
4.654612338e-08
4.655213543e-08
4.655230312e-08
4.65530462e-08
4.655476753e-08
4.655771868e-08
4.656183569e-08
4.656661271e-08
4.657106632e-08
4.657387755e-08
4.656058822e-08
4.6564128e-08
4.656973659e-08
4.657751027e-08
4.658729703e-08
4.659850581e-08
4.660996166e-08
4.661986176e-08
4.662592673e-08
4.659031758e-08
4.65977267e-08
4.660891994e-08
4.662364348e-08
4.6641284e-08
4.666064697e-08
4.667978961e-08
4.669596553e-08
4.670578438e-08
4.664429979e-08
4.66561422e-08
4.667373574e-08
4.669642768e-08
4.672307918e-08
4.675180769e-08
4.67797928e-08
4.680320398e-08
4.681736319e-08
4.672583571e-08
4.674274338e-08
4.676765202e-08
4.679945666e-08
4.683642347e-08
4.687589033e-08
4.6914039e-08
4.694579652e-08
4.696498801e-08
4.683853899e-08
4.686121321e-08
4.689445388e-08
4.693664741e-08
4.698539182e-08
4.703714879e-08
4.708697259e-08
4.712836988e-08
4.715341837e-08
4.698632108e-08
4.70155345e-08
4.705823097e-08
4.711223066e-08
4.717438923e-08
4.724019278e-08
4.730343017e-08
4.735598704e-08
4.738788881e-08
4.717337677e-08
4.72099774e-08
4.726336859e-08
4.733074804e-08
4.740815687e-08
4.74900066e-08
4.75686756e-08
4.763420062e-08
4.767417774e-08
4.740417569e-08
4.744909471e-08
4.751454927e-08
4.759706318e-08
4.769179686e-08
4.779199211e-08
4.788846543e-08
4.796914275e-08
4.801871723e-08
4.768346751e-08
4.773773293e-08
4.781677358e-08