/*--------------------------------*- C++ -*----------------------------------*\
| =========                 |                                                 |
| \\      /  F ield         | OpenFOAM: The Open Source CFD Toolbox           |
|  \\    /   O peration     | Version:  2212                                  |
|   \\  /    A nd           | Website:  www.openfoam.com                      |
|    \\/     M anipulation  |                                                 |
\*---------------------------------------------------------------------------*/
FoamFile
{
    version     2.0;
    format      ascii;
    arch        "LSB;label=32;scalar=64";
    class       surfaceScalarField;
    location    "20.00000000";
    object      phi;
}
// * * * * * * * * * * * * * * * * * * * * * * * * * * * * * * * * * * * * * //

dimensions      [1 0 -1 0 0 0 0];

oriented        oriented;

internalField   nonuniform List<scalar> 
5690
(
-5.466990368e-11
8.583406563e-10
1.32785974e-11
-1.342053799e-10
1.421216791e-09
-2.676185038e-10
1.98397625e-09
-4.779386636e-10
2.554279021e-09
-7.888100823e-10
3.133108504e-09
-1.197731954e-09
3.694669877e-09
-1.610266453e-09
4.147370033e-09
-1.62638681e-09
4.185966569e-09
2.964717555e-09
-1.154709067e-10
9.453638739e-10
2.844767511e-11
-2.661821081e-10
1.571928007e-09
-4.844080636e-10
2.202202109e-09
-7.643653643e-10
2.834234932e-09
-1.07337185e-09
3.44211581e-09
-1.323021647e-09
3.944320142e-09
-1.352623273e-09
4.176971651e-09
-9.099069855e-10
3.74325121e-09
2.054810356e-09
-1.516903368e-10
1.058822269e-09
3.823170123e-11
-3.351973231e-10
1.755435024e-09
-5.768355147e-10
2.44384094e-09
-8.454154612e-10
3.102815395e-09
-1.078406533e-09
3.675107237e-09
-1.179433201e-09
4.045346271e-09
-1.025033813e-09
4.022573078e-09
-5.520824292e-10
3.270299759e-09
1.50272856e-09
-1.482344497e-10
1.169017029e-09
3.804013589e-11
-3.173173921e-10
1.924517318e-09
-5.211956074e-10
2.647719118e-09
-7.177208464e-10
3.299340973e-09
-8.455635156e-10
3.802949758e-09
-8.309492578e-10
4.030732357e-09
-6.194714794e-10
3.811095653e-09
-2.730055126e-10
2.92383307e-09
1.229723038e-09
-1.315851165e-10
1.266343007e-09
3.425927798e-11
-2.74387703e-10
2.06731975e-09
-4.336750932e-10
2.807007055e-09
-5.676244398e-10
3.43329021e-09
-6.266325005e-10
3.861957494e-09
-5.684062079e-10
3.972506422e-09
-3.84446918e-10
3.62713698e-09
-1.474996723e-10
2.68688632e-09
1.082223057e-09
-1.070064176e-10
1.345074362e-09
2.827491445e-11
-2.180551531e-10
2.178369008e-09
-3.334787037e-10
2.922431291e-09
-4.18216257e-10
3.518027613e-09
-4.377935129e-10
3.881535334e-09
-3.729316113e-10
3.907644429e-09
-2.348313049e-10
3.489037104e-09
-8.202826502e-11
2.534084426e-09
1.000194677e-09
-8.369386171e-11
1.406414328e-09
2.235412058e-11
-1.674360592e-10
2.262111008e-09
-2.493845652e-10
3.004379796e-09
-3.024292043e-10
3.571072157e-09
-3.041651624e-10
3.883272227e-09
-2.474415148e-10
3.850921057e-09
-1.479819535e-10
3.389577047e-09
-4.784738016e-11
2.43395015e-09
9.523475954e-10
-6.33090421e-11
1.452633306e-09
1.709034709e-11
-1.246599894e-10
2.323461895e-09
-1.816414246e-10
3.061361242e-09
-2.144001811e-10
3.603830736e-09
-2.090552691e-10
3.877927574e-09
-1.644938339e-10
3.806360194e-09
-9.525688006e-11
3.320339698e-09
-2.984338596e-11
2.368536141e-09
9.225046355e-10
-4.712428464e-11
1.486940531e-09
1.281710995e-11
-9.16466836e-11
2.367984531e-09
-1.312586848e-10
3.100973582e-09
-1.517541599e-10
3.624325829e-09
-1.446124428e-10
3.870785747e-09
-1.110846111e-10
3.77283272e-09
-6.280028782e-11
3.272055485e-09
-1.900347994e-11
2.324739077e-09
9.035014477e-10
-3.46699063e-11
1.512113988e-09
9.496583092e-12
-6.673716789e-11
2.400051904e-09
-9.42870142e-11
3.128523391e-09
-1.072990364e-10
3.637337929e-09
-1.005642842e-10
3.864050478e-09
-7.603960362e-11
3.748307776e-09
-4.24732664e-11
3.238489478e-09
-1.280388311e-11
2.295069923e-09
8.906979365e-10
-2.538667516e-11
1.530513964e-09
6.986831967e-12
-4.849312095e-11
2.423158318e-09
-6.781314831e-11
3.147843393e-09
-7.628383018e-11
3.64580868e-09
-7.065968784e-11
3.858425636e-09
-5.28469954e-11
3.730494751e-09
-2.924303269e-11
3.214885763e-09
-8.706280028e-12
2.274533433e-09
8.81992089e-10
-1.855686493e-11
1.543942211e-09
5.128725617e-12
-3.523461749e-11
2.439836106e-09
-4.889854357e-11
3.161507319e-09
-5.455800492e-11
3.651468112e-09
-5.014668778e-11
3.854014123e-09
-3.727777813e-11
3.717626028e-09
-2.057374246e-11
3.198181742e-09
-6.157975708e-12
2.260117819e-09
8.758342851e-10
-1.357913813e-11
1.553758564e-09
3.762829685e-12
-2.567498867e-11
2.45193187e-09
-3.544293568e-11
3.1712753e-09
-3.932785299e-11
3.655353146e-09
-3.597008321e-11
3.850656534e-09
-2.664088853e-11
3.708297077e-09
-1.467267695e-11
3.186213649e-09
-4.381021915e-12
2.249826065e-09
8.714532555e-10
-9.964246345e-12
1.560955762e-09
2.767078708e-12
-1.878358689e-11
2.460750932e-09
-2.583767576e-11
3.178329661e-09
-2.857291153e-11
3.658088403e-09
-2.606646739e-11
3.84815026e-09
-1.928589815e-11
3.701516448e-09
-1.063774744e-11
3.177565679e-09
-3.197181687e-12
2.242385249e-09
8.682562434e-10
-7.339645925e-12
1.566254856e-09
2.040520438e-12
-1.381054749e-11
2.467221556e-09
-1.895714019e-11
3.183476628e-09
-2.092664774e-11
3.660057982e-09
-1.907222791e-11
3.84629594e-09
-1.411495555e-11
3.69655886e-09
-7.80100349e-12
3.171251697e-09
-2.341949334e-12
2.236925925e-09
8.659146861e-10
-5.431623231e-12
1.570175154e-09
1.511189461e-12
-1.020960233e-11
2.471999264e-09
-1.400047548e-11
3.18726796e-09
-1.54478894e-11
3.661505617e-09
-1.40866149e-11
3.844934611e-09
-1.044891559e-11
3.692920844e-09
-5.806471319e-12
3.166609147e-09
-1.738313724e-12
2.232857568e-09
8.641767157e-10
-4.039279882e-12
1.573090393e-09
1.12393932e-12
-7.589853036e-12
2.475549564e-09
-1.040638799e-11
3.190084949e-09
-1.148706642e-11
3.662586235e-09
-1.048876125e-11
3.843936072e-09
-7.801910202e-12
3.690233892e-09
-4.358397702e-12
3.163165732e-09
-1.295921156e-12
2.229795127e-09
8.628809121e-10
-3.019313174e-12
1.575269561e-09
8.401242299e-13
-5.673446973e-12
2.478203571e-09
-7.781516118e-12
3.192193241e-09
-8.596989935e-12
3.663401373e-09
-7.862011165e-12
3.843200807e-09
-5.862556661e-12
3.688234476e-09
-3.287998659e-12
3.160591226e-09
-9.781626904e-13
2.227485205e-09
8.619028337e-10
-2.268585665e-12
1.57690707e-09
6.31078089e-13
-4.263900612e-12
2.480198902e-09
-5.851456984e-12
3.193780947e-09
-6.470305889e-12
3.66401997e-09
-5.924258621e-12
3.842654643e-09
-4.424123089e-12
3.686734472e-09
-2.485194334e-12
3.158652037e-09
-7.384869232e-13
2.225737885e-09
8.611645479e-10
-1.713756713e-12
1.57814421e-09
4.766485295e-13
-3.221988313e-12
2.481707013e-09
-4.423125905e-12
3.194982328e-09
-4.892707803e-12
3.664489428e-09
-4.480282756e-12
3.842242313e-09
-3.343535106e-12
3.685597957e-09
-1.872938207e-12
3.157181229e-09
-5.575542022e-13
2.224421863e-09
8.606072431e-10
-1.302853217e-12
1.579084762e-09
3.622921869e-13
-2.449547057e-12
2.482853388e-09
-3.361491503e-12
3.19589459e-09
-3.714490325e-12
3.664842381e-09
-3.392712066e-12
3.841920511e-09
-2.516824994e-12
3.684722183e-09
-1.389896742e-12
3.156054422e-09
-4.147777117e-13
2.223446695e-09
8.601927385e-10
-9.994113439e-13
1.579806156e-09
2.779202757e-13
-1.877880273e-12
2.483731573e-09
-2.573067794e-12
3.196590141e-09
-2.83389065e-12
3.665103217e-09
-2.570581547e-12
3.841657096e-09
-1.877302746e-12
3.684028846e-09
-9.985726585e-13
3.155175826e-09
-2.976045579e-13
2.222746131e-09
8.598953898e-10
-7.800418476e-13
1.580369107e-09
2.169975415e-13
-1.463844021e-12
2.484415232e-09
-1.999804728e-12
3.197126377e-09
-2.18752469e-12
3.665290878e-09
-1.95503546e-12
3.841424779e-09
-1.377641021e-12
3.683451505e-09
-6.666719183e-13
3.154464833e-09
-1.953441795e-13
2.222275105e-09
8.5970024e-10
-6.279950475e-13
1.580822227e-09
1.748472297e-13
-1.176682223e-12
2.484963971e-09
-1.602200563e-12
3.197551976e-09
-1.742048358e-12
3.665430528e-09
-1.539896483e-12
3.841222989e-09
-1.05499109e-12
3.682966888e-09
-4.688829639e-13
3.153878642e-09
-9.663645557e-14
2.221902821e-09
8.596037535e-10
-5.41978492e-13
1.581213621e-09
1.506322892e-13
-1.019275311e-12
2.485441438e-09
-1.39409847e-12
3.197926871e-09
-1.519531595e-12
3.665555821e-09
-1.341015917e-12
3.841044757e-09
-9.1810371e-13
3.682544363e-09
-4.146784916e-13
3.153375144e-09
-5.469366144e-14
2.221542753e-09
8.595491601e-10
-5.178732374e-13
1.581588334e-09
1.432685714e-13
-9.826053766e-13
2.485906263e-09
-1.360153586e-12
3.198304581e-09
-1.501839882e-12
3.665697506e-09
-1.334406634e-12
3.84087757e-09
-9.17373485e-13
3.68212767e-09
-4.228491034e-13
3.15288068e-09
-6.49882783e-14
2.22118501e-09
8.594842368e-10
-5.492197084e-13
1.581986389e-09
1.512706192e-13
-1.050757694e-12
2.486407886e-09
-1.471305344e-12
3.198725256e-09
-1.651666602e-12
3.665877889e-09
-1.506877421e-12
3.840732985e-09
-1.073643535e-12
3.681694661e-09
-5.227243268e-13
3.152329849e-09
-8.698400907e-14
2.220749578e-09
8.593973705e-10
-6.494228335e-13
1.582458086e-09
1.778008431e-13
-1.255574028e-12
2.487014286e-09
-1.784766396e-12
3.199254573e-09
-2.043932593e-12
3.666137136e-09
-1.9210114e-12
3.840610163e-09
-1.42581161e-12
3.681199511e-09
-7.363903138e-13
3.151640516e-09
-1.420526695e-13
2.220155427e-09
8.592555584e-10
-8.299735389e-13
1.583062303e-09
2.258314118e-13
-1.621466757e-12
2.487806039e-09
-2.339868577e-12
3.199973169e-09
-2.732912563e-12
3.66653032e-09
-2.62987206e-12
3.840507271e-09
-2.013040592e-12
3.680582664e-09
-1.089606432e-12
3.150717212e-09
-2.42620287e-13
2.21930854e-09
8.590131666e-10
-1.104308444e-12
1.583867778e-09
2.989584205e-13
-2.175123739e-12
2.488876913e-09
-3.175456528e-12
3.200973646e-09
-3.765446326e-12
3.667120437e-09
-3.694745944e-12
3.84043672e-09
-2.905078386e-12
3.679793051e-09
-1.639567416e-12
3.14945182e-09
-4.126482022e-13
2.218081884e-09
8.586006707e-10
-1.487617612e-12
1.584954297e-09
4.01256802e-13
-2.947092126e-12
2.490336303e-09
-4.338471509e-12
3.202365153e-09
-5.201712659e-12
3.667983797e-09
-5.178624776e-12
3.840413682e-09
-4.155798075e-12
3.67877026e-09
-2.421107398e-12
3.147717162e-09
-6.656406696e-13
2.216326805e-09
8.579351752e-10
-1.99369515e-12
1.58641175e-09
5.363568318e-13
-3.964698537e-12
2.492307183e-09
-5.869286984e-12
3.204270099e-09
-7.090759246e-12
3.669205426e-09
-7.131703418e-12
3.8404546e-09
-5.807907426e-12
3.677446464e-09
-3.461918362e-12
3.14537124e-09
-1.012635814e-12
2.213877763e-09
8.569227156e-10
-2.63309973e-12
1.588337817e-09
7.070864754e-13
-5.248133545e-12
2.494922078e-09
-7.796146953e-12
3.206818581e-09
-9.463642893e-12
3.670873068e-09
-9.581287805e-12
3.840572201e-09
-7.880262184e-12
3.675745472e-09
-4.771630022e-12
3.142262857e-09
-1.457148852e-12
2.210563312e-09
8.554658117e-10
-3.410376933e-12
1.590833376e-09
9.148378971e-13
-6.804367709e-12
2.498315977e-09
-1.012516012e-11
3.210139737e-09
-1.232081897e-11
3.673068847e-09
-1.251931119e-11
3.840770603e-09
-1.035819331e-11
3.67358436e-09
-6.336170964e-12
3.138241151e-09
-1.993408719e-12
2.206220486e-09
8.53472719e-10
-4.321370968e-12
1.593995989e-09
1.158769368e-12
-8.621888336e-12
2.502616438e-09
-1.283216977e-11
3.2143503e-09
-1.562223315e-11
3.675859046e-09
-1.589194003e-11
3.841040224e-09
-1.318458059e-11
3.670876957e-09
-8.111933114e-12
3.133168671e-09
-2.604352176e-12
2.200712769e-09
8.508686952e-10
-5.350599724e-12
1.597911578e-09
1.435030672e-12
-1.066552483e-11
2.507931198e-09
-1.585568535e-11
3.219540743e-09
-1.927930124e-11
3.679282756e-09
-1.959256322e-11
3.841353461e-09
-1.625538653e-11
3.667539802e-09
-1.002410237e-11
3.126937443e-09
-3.261302803e-12
2.193949826e-09
8.476076338e-10
-6.469470708e-12
1.60264475e-09
1.736333761e-12
-1.287296413e-11
2.514334435e-09
-1.909270018e-11
3.225760774e-09
-2.315126566e-11
3.683341306e-09
-2.346040318e-11
3.841662517e-09
-1.942108543e-11
3.663500589e-09
-1.196970444e-11
3.119486136e-09
-3.925774929e-12
2.185905944e-09
8.436820571e-10
-7.635379298e-12
1.608228476e-09
2.051679834e-12
-1.515383617e-11
2.52185276e-09
-2.239868073e-11
3.233005937e-09
-2.704789235e-11
3.687990476e-09
-2.728662086e-11
3.84190105e-09
-2.249531363e-11
3.658709303e-09
-1.382550059e-11
3.110816489e-09
-4.553175013e-12
2.17663389e-09
8.391291648e-10
-8.792167997e-12
1.614654256e-09
2.36639344e-12
-1.739195467e-11
2.530452614e-09
-2.559301836e-11
3.241207259e-09
-3.073974658e-11
3.693137229e-09
-3.082908682e-11
3.841990303e-09
-2.527097203e-11
3.653151139e-09
-1.546055023e-11
3.101006312e-09
-5.097881646e-12
2.166271493e-09
8.340316504e-10
-9.872588924e-12
1.621864168e-09
2.662691411e-12
-1.945127615e-11
2.540031418e-09
-2.847043211e-11
3.250226491e-09
-3.397582157e-11
3.698642692e-09
-3.383470546e-11
3.841849371e-09
-2.754221989e-11
3.646858763e-09
-1.675162569e-11
3.090215915e-09
-5.518973953e-12
2.155038908e-09
8.285130369e-10
-1.08028195e-11
1.629746257e-09
2.920774555e-12
-2.118591565e-11
2.550414571e-09
-3.081829035e-11
3.25985885e-09
-3.650765581e-11
3.704332075e-09
-3.606654762e-11
3.841408554e-09
-2.912868836e-11
3.639921247e-09
-1.759829599e-11
3.078685551e-09
-5.785328174e-12
2.143225886e-09
8.227280086e-10
-1.150872554e-11
1.638134593e-09
3.120422093e-12
-2.245373161e-11
2.561359581e-09
-3.24385763e-11
3.269843764e-09
-3.811721054e-11
3.710010622e-09
-3.733191246e-11
3.840623445e-09
-2.989736601e-11
3.632487112e-09
-1.79347565e-11
3.066722872e-09
-5.879064669e-12
2.131170309e-09
8.168492023e-10
-1.192352035e-11
1.646815056e-09
3.243031106e-12
-2.313203628e-11
2.572568129e-09
-3.317125361e-11
3.279883135e-09
-3.864383193e-11
3.715483087e-09
-3.750647471e-11
3.839486181e-09
-2.97782664e-11
3.624759228e-09
-1.773645718e-11
3.05468112e-09
-5.796793325e-12
2.119231042e-09
8.110526426e-10
-1.199593151e-11
1.655537109e-09
3.273825558e-12
-2.313322519e-11
2.583705578e-09
-3.291507183e-11
3.289665106e-09
-3.800525257e-11
3.720573217e-09
-3.654963356e-11
3.838030699e-09
-2.87711684e-11
3.616981005e-09
-1.702072622e-11
3.042930937e-09
-5.54865594e-12
2.107759406e-09
8.05504217e-10
-1.16974954e-11
1.66403072e-09
3.203873334e-12
-2.241742583e-11
2.594425855e-09
-3.16420177e-11
3.298889736e-09
-3.620842243e-11
3.725139669e-09
-3.450791301e-11
3.836330431e-09
-2.694237861e-11
3.609415716e-09
-1.584150637e-11
3.031830359e-09
-5.15551562e-12
2.097073647e-09
8.003489258e-10
-1.102746027e-11
1.672026618e-09
3.0316119e-12
-2.099947125e-11
2.60439833e-09
-2.940226849e-11
3.307292505e-09
-3.334798653e-11
3.729085494e-09
-3.15060808e-11
3.834488833e-09
-2.441263617e-11
3.602322544e-09
-1.427975948e-11
3.021697656e-09
-4.645511865e-12
2.087439467e-09
7.957036309e-10
-1.001406216e-11
1.679277287e-09
2.763491345e-12
-1.894829374e-11
2.613332919e-09
-2.631802538e-11
3.314662204e-09
-2.959250041e-11
3.732360079e-09
-2.772825539e-11
3.832624891e-09
-2.133900501e-11
3.59593358e-09
-1.243183635e-11
3.012790549e-09
-4.050538133e-12
2.079058302e-09
7.916532545e-10
-8.711722148e-12
1.685575698e-09
2.41341263e-12
-1.637862374e-11
2.620999962e-09
-2.256748252e-11
3.320851138e-09
-2.516164388e-11
3.734954378e-09
-2.339347794e-11
3.830856975e-09
-1.789518907e-11
3.590435532e-09
-1.039876033e-11
3.005294121e-09
-3.404859021e-12
2.072064663e-09
7.882484829e-10
-7.194320988e-12
1.690769018e-09
2.001068334e-12
-1.34364961e-11
2.627242216e-09
-1.836217858e-11
3.325777064e-09
-2.02991867e-11
3.736891588e-09
-1.873059932e-11
3.829288552e-09
-1.425360205e-11
3.585958647e-09
-8.277167387e-12
2.999317632e-09
-2.743233868e-12
2.066530995e-09
7.855053396e-10
-5.546149642e-12
1.694765627e-09
1.549589792e-12
-1.028183239e-11
2.631978053e-09
-1.392261351e-11
3.329418146e-09
-1.524689961e-11
3.738216076e-09
-1.395625669e-11
3.827997981e-09
-1.057003995e-11
3.582572418e-09
-6.15133356e-12
2.994898852e-09
-2.077803035e-12
2.062457603e-09
7.834277234e-10
-3.852120576e-12
1.697535043e-09
1.082759031e-12
-7.070636203e-12
2.635196735e-09
-9.455388581e-12
3.331803101e-09
-1.02221227e-11
3.738982891e-09
-9.257289855e-12
3.82703316e-09
-6.973079431e-12
3.580288167e-09
-4.087676615e-12
2.992013544e-09
-1.4169858e-12
2.059786925e-09
7.82011007e-10
-2.189582556e-12
1.699102094e-09
6.22576682e-13
-3.941128999e-12
2.636948389e-09
-5.13769243e-12
3.332999741e-09
-5.40532438e-12
3.739250485e-09
-4.784700457e-12
3.826412521e-09
-3.568057711e-12
3.579071562e-09
-2.124234469e-12
2.99057002e-09
-7.974105189e-13
2.058460134e-09
7.812138259e-10
-6.225590838e-13
1.699537131e-09
1.875554051e-13
-1.004651647e-12
2.637330581e-09
-1.107902027e-12
3.333102976e-09
-9.333346538e-13
3.73907587e-09
-6.484310723e-13
3.826127572e-09
-4.457632928e-13
3.578869037e-09
-2.934119673e-13
2.990417973e-09
-2.282641205e-13
2.058395178e-09
7.809857387e-10
8.017364244e-13
1.698943958e-09
-2.085173434e-13
1.65739162e-12
2.636475041e-09
2.534569114e-12
3.332225736e-09
3.09985259e-12
3.738510584e-09
3.073431029e-12
3.826153972e-09
2.393488967e-12
3.579549112e-09
1.307623922e-12
2.991503991e-09
2.883009154e-13
2.059414767e-09
7.81274144e-10
2.051534797e-12
1.697448927e-09
-5.564667649e-13
3.990203018e-12
2.634536468e-09
5.723183313e-12
3.330492739e-09
6.629145792e-12
3.737604629e-09
6.33299651e-12
3.826450154e-09
4.869486844e-12
3.581012633e-09
2.706644651e-12
2.99366685e-09
7.448173113e-13
2.061376847e-09
7.820190542e-10
3.112371179e-12
1.695188408e-09
-8.518511563e-13
5.971756681e-12
2.631677199e-09
8.43617377e-12
3.328028412e-09
9.64046846e-12
3.736400399e-09
9.126340777e-12
3.826964309e-09
7.002653167e-12
3.583136296e-09
3.945203285e-12
2.996724279e-09
1.144848538e-12
2.064177415e-09
7.831640326e-10
3.983465166e-12
1.692299097e-09
-1.094140422e-12
7.603112367e-12
2.628057754e-09
1.0678071e-11
3.32495358e-09
1.214124234e-11
3.7349373e-09
1.146052944e-11
3.827645082e-09
8.798698079e-12
3.585798114e-09
4.998724154e-12
3.000524266e-09
1.486936329e-12
2.067689348e-09
7.846511146e-10
4.673848594e-12
1.688911013e-09
-1.285683536e-12
8.901803449e-12
2.623830011e-09
1.247353893e-11
3.321381969e-09
1.415861454e-11
3.733252205e-09
1.33590823e-11
3.828444651e-09
1.027287362e-11
3.588884336e-09
5.871012176e-12
3.004926222e-09
1.772187772e-12
2.071788232e-09
7.864234004e-10
5.198677409e-12
1.685143165e-09
-1.430736714e-12
9.895658731e-12
2.61913317e-09
1.385946693e-11
3.317418207e-09
1.573172484e-11
3.731379897e-09
1.485611889e-11
3.829320242e-09
1.144942826e-11
3.592291046e-09
6.575903921e-12
3.009799884e-09
2.010349325e-12
2.076353773e-09
7.884337628e-10
5.576451607e-12
1.681101322e-09
-1.53460051e-12
1.061808458e-11
2.614091644e-09
1.487944689e-11
3.313156886e-09
1.69060026e-11
3.729353324e-09
1.599081199e-11
3.830235401e-09
1.235571023e-11
3.595926167e-09
7.128109538e-12
3.015027562e-09
2.204550926e-12
2.081277323e-09
7.906383208e-10
5.826947917e-12
1.676877231e-09
-1.602882512e-12
1.110452194e-11
2.608814222e-09
1.557945555e-11
3.308682023e-09
1.772925843e-11
3.727203531e-09
1.680433476e-11
3.831160328e-09
1.302040221e-11
3.599710121e-09
7.542517605e-12
3.020505432e-09
2.35171556e-12
2.086468216e-09
7.929901245e-10
5.969665542e-12
1.672548673e-09
-1.641079483e-12
1.138994227e-11
2.603394086e-09
1.600504547e-11
3.304066991e-09
1.82491715e-11
3.724959401e-09
1.733811819e-11
3.832071423e-09
1.347307473e-11
3.603575218e-09
7.835338305e-12
3.026143166e-09
2.459386613e-12
2.091844341e-09
7.95449679e-10
6.022858082e-12
1.668180271e-09
-1.654366264e-12
1.150731166e-11
2.597909627e-09
1.619939659e-11
3.299374951e-09
1.851121604e-11
3.722647577e-09
1.763187295e-11
3.832950833e-09
1.374215087e-11
3.607465025e-09
8.022049514e-12
3.031863381e-09
2.533056157e-12
2.097333511e-09
7.979828855e-10
6.003101957e-12
1.66382472e-09
-1.647489322e-12
1.148685647e-11
2.592425732e-09
1.620232389e-11
3.294659501e-09
1.855761663e-11
3.720292331e-09
1.772276728e-11
3.833785754e-09
1.385441637e-11
3.611333456e-09
8.117102021e-12
3.037600879e-09
2.577127582e-12
2.102873603e-09
8.005600794e-10
5.925148363e-12
1.659524196e-09
-1.624642175e-12
1.135559843e-11
2.586995189e-09
1.604967927e-11
3.289965415e-09
1.84266782e-11
3.717915417e-09
1.764486715e-11
3.834567628e-09
1.383467451e-11
3.61514368e-09
8.134025105e-12
3.043301646e-09
2.595638959e-12
2.10841204e-09
8.03155718e-10
5.801854882e-12
1.655311698e-09
-1.58940605e-12
1.11370931e-11
2.581660027e-09
1.577306768e-11
3.28532942e-09
1.815253411e-11
3.715536003e-09
1.742884628e-11
3.835291364e-09
1.370551939e-11
3.618867008e-09
8.085365925e-12
3.048921787e-09
2.592359667e-12
2.113905041e-09
8.057480899e-10
5.644176088e-12
1.651212314e-09
-1.544804794e-12
1.085150227e-11
2.576452839e-09
1.539988872e-11
3.280781024e-09
1.776518003e-11
3.713170691e-09
1.71019722e-11
3.835954609e-09
1.348725381e-11
3.622481754e-09
7.982583032e-12
3.054426385e-09
2.570816291e-12
2.119316768e-09
8.083189695e-10
5.461266288e-12
1.647244465e-09
-1.493398833e-12
1.051594309e-11
2.571398189e-09
1.495359706e-11
3.276343403e-09
1.729062117e-11
3.710833609e-09
1.668817099e-11
3.836557079e-09
1.319788785e-11
3.625972099e-09
7.835943522e-12
3.059788307e-09
2.534238364e-12
2.124618453e-09
8.108533097e-10
5.260702423e-12
1.643421081e-09
-1.437316432e-12
1.01448462e-11
2.566513955e-09
1.445405633e-11
3.272034263e-09
1.675109494e-11
3.70853654e-09
1.620817026e-11
3.837099984e-09
1.285324843e-11
3.629327038e-09
7.654575941e-12
3.064987045e-09
2.485570915e-12
2.129787511e-09
8.133389746e-10
5.048687865e-12
1.639750631e-09
-1.378263397e-12
9.750099231e-12
2.561812495e-09
1.391774246e-11
3.267866674e-09
1.61651249e-11
3.706289162e-09
1.567933982e-11
3.837585695e-09
1.246666189e-11
3.632539634e-09
7.445982601e-12
3.070007812e-09
2.426909567e-12
2.134806702e-09
8.157659351e-10
4.830303341e-12
1.636237909e-09
-1.317604698e-12
9.341388163e-12
2.557301509e-09
1.335834142e-11
3.263849721e-09
1.554831288e-11
3.70409918e-09
1.511653607e-11
3.838017375e-09
1.204967371e-11
3.635606371e-09
7.216705422e-12
3.074840807e-09
2.361217645e-12
2.139662318e-09
8.181271636e-10
4.609588449e-12
1.632884758e-09
-1.256428497e-12
8.926401027e-12
2.552984886e-09
1.278688641e-11
3.259989193e-09
1.491332712e-11
3.701972678e-09
1.453166214e-11
3.838398981e-09
1.161340809e-11
3.638524563e-09
6.975706113e-12
3.07947847e-09
2.290783936e-12
2.144347323e-09
8.204179512e-10
4.389915178e-12
1.629690538e-09
-1.195650278e-12
8.511717603e-12
2.548863228e-09
1.221300391e-11
3.256287863e-09
1.427172497e-11
3.699913869e-09
1.393944374e-11
3.838731279e-09
1.116708404e-11
3.641296976e-09
6.726254045e-12
3.083919275e-09
2.216034528e-12
2.148857566e-09
8.226340133e-10
4.173750847e-12
1.626652788e-09
-1.135944135e-12
8.102308348e-12
2.544934702e-09
1.164404076e-11
3.252746116e-09
1.363575753e-11
3.697922114e-09
1.334738617e-11
3.839019729e-09
1.071675307e-11
3.643927735e-09
6.470776384e-12
3.088165311e-09
2.138731586e-12
2.153189596e-09
8.247727977e-10
3.963445152e-12
1.623766965e-09
-1.077586712e-12
7.703884922e-12
2.541194223e-09
1.109016235e-11
3.249359866e-09
1.301070025e-11
3.696001631e-09
1.275956849e-11
3.839270949e-09
1.026795903e-11
3.646419472e-09
6.215020787e-12
3.092218367e-09
2.060540915e-12
2.157344053e-09
8.268334117e-10
3.760659248e-12
1.621028446e-09
-1.022150502e-12
7.317904601e-12
2.537636961e-09
1.055089993e-11
3.246126932e-09
1.239766609e-11
3.69415497e-09
1.218278624e-11
3.839485887e-09
9.824928732e-12
3.648777398e-09
5.960859834e-12
3.096082538e-09
1.982141437e-12
2.161322775e-09
8.288156595e-10
3.565658843e-12
1.618431707e-09
-9.689606186e-13
6.945327462e-12
2.534257345e-09
1.002700323e-11
3.243045323e-09
1.180316664e-11
3.69237887e-09
1.162108e-11
3.839667987e-09
9.391518995e-12
3.65100697e-09
5.710980692e-12
3.099763142e-09
1.9045827e-12
2.165129256e-09
8.307204023e-10
3.379343005e-12
1.615969813e-09
-9.174736538e-13
6.589475956e-12
2.531047292e-09
9.526167492e-12
3.240108658e-09
1.123186362e-11
3.690673157e-09
1.107899199e-11
3.83982085e-09
8.971619312e-12
3.653114348e-09
5.467982074e-12
3.103266863e-09
1.828844008e-12
2.168768589e-09
8.325494358e-10
3.202468383e-12
1.61363631e-09
-8.689481904e-13
6.250661049e-12
2.527999137e-09
9.048179245e-12
3.237311118e-09
1.068521724e-11
3.689036073e-09
1.055888788e-11
3.83994719e-09
8.567657805e-12
3.655105633e-09
5.233588101e-12
3.106601075e-09
1.755580964e-12
2.172246892e-09
8.343051469e-10
3.035086737e-12
1.611424305e-09
-8.230466731e-13
5.929598432e-12
2.525104607e-09
8.594454398e-12
3.234646232e-09
1.016525587e-11
3.687465274e-09
1.006307093e-11
3.840049429e-09
8.181714209e-12
3.656987085e-09
5.00918745e-12
3.109773763e-09
1.685275818e-12
2.175571099e-09
8.359904221e-10
2.877313911e-12
1.60932683e-09
-7.798289762e-13
5.626633076e-12
2.522355262e-09
8.16563954e-12
3.232107238e-09
9.672917738e-12
3.685958049e-09
9.592672208e-12
3.840129761e-09
7.814826004e-12
3.658765008e-09
4.795447989e-12
3.11279324e-09
1.618114495e-12
2.178748595e-09
8.376084339e-10
2.729084979e-12
1.607336992e-09
-7.392726162e-13
5.341683271e-12
2.519742675e-09
7.761684679e-12
3.229687295e-09
9.208225036e-12
3.684511551e-09
9.147773844e-12
3.840190281e-09
7.467080064e-12
3.660445716e-09
4.592399905e-12
3.11566792e-09
1.554080915e-12
2.18178689e-09
8.391624348e-10
2.590111771e-12
1.605448133e-09
-7.012849313e-13
5.074151079e-12
2.517258676e-09
7.381731311e-12
3.227379771e-09
8.770189618e-12
3.683123062e-09
8.727347918e-12
3.840233133e-09
7.137559746e-12
3.662035483e-09
4.39939155e-12
3.118406045e-09
1.492952481e-12
2.184693189e-09
8.40655434e-10
2.459839047e-12
1.603653984e-09
-6.656973409e-13
4.822936106e-12
2.514895598e-09
7.024171102e-12
3.225178532e-09
8.356902877e-12
3.681790245e-09
8.329371535e-12
3.840260613e-09
6.824428129e-12
3.663540435e-09
4.215113961e-12
3.121015369e-09
1.434244118e-12
2.187473935e-09
8.420898369e-10
2.337468222e-12
1.60194882e-09
-6.322898039e-13
4.58651077e-12
2.512646523e-09
6.686778872e-12
3.223078183e-09
7.965648208e-12
3.680511306e-09
7.950989996e-12
3.840275193e-09
6.525080875e-12
3.664966396e-09
4.037681964e-12
3.123502851e-09
1.37716165e-12
2.190134443e-09
8.4346717e-10
2.222021074e-12
1.600327612e-09
-6.008035925e-13
4.362999338e-12
2.510505479e-09
6.366821765e-12
3.221074253e-09
7.593034497e-12
3.679285079e-09
7.588665723e-12
3.840279494e-09
6.236359722e-12
3.666318741e-09
3.864822135e-12
3.125874478e-09
1.320583214e-12
2.19267879e-09
8.44787866e-10
2.112377953e-12
1.598786176e-09
-5.709514776e-13
4.150193673e-12
2.50846762e-09
6.061023806e-12
3.219163361e-09
7.234966587e-12
3.678111142e-09
7.238053274e-12
3.840276353e-09
5.954312284e-12
3.667602444e-09
3.693480419e-12
3.128135342e-09
1.263489764e-12
2.195108959e-09
8.460514274e-10
2.007261446e-12
1.597321294e-09
-5.423931664e-13
3.945513842e-12
2.506529383e-09
5.765509474e-12
3.217343382e-09
6.8865861e-12
3.676990039e-09
6.893724445e-12
3.840269156e-09
5.673760466e-12
3.668822319e-09
3.52111989e-12
3.130287974e-09
1.205516971e-12
2.197424765e-09
8.472570138e-10
1.905252457e-12
1.595930792e-09
-5.147455009e-13
3.746057367e-12
2.504688631e-09
5.475771502e-12
3.215613728e-09
6.5420474e-12
3.675923703e-09
6.550010228e-12
3.840261141e-09
5.391888167e-12
3.669980394e-09
3.347475603e-12
3.132332414e-09
1.146831511e-12
2.199625582e-09
8.48403901e-10
1.804703319e-12
1.594613682e-09
-4.875688491e-13
3.548408127e-12
2.502944986e-09
5.186840558e-12
3.213975348e-09
6.197024604e-12
3.674913474e-09
6.205162107e-12
3.840253005e-09
5.10930569e-12
3.671076305e-09
3.173125195e-12
3.13426868e-09
1.087629665e-12
2.201711166e-09
8.494915169e-10
1.704269758e-12
1.593369866e-09
-4.604281255e-13
3.350896296e-12
2.501298416e-09
4.898134631e-12
3.212428141e-09
5.852756863e-12
3.673958874e-09
5.861503889e-12
3.840244341e-09
4.827281956e-12
3.672110641e-09
2.998561728e-12
3.136097462e-09
1.028033406e-12
2.203681648e-09
8.505194563e-10
1.604581171e-12
1.592198775e-09
-4.334744703e-13
3.155185721e-12
2.499747877e-09
4.612585204e-12
3.210970785e-09
5.512077255e-12
3.673059451e-09
5.520703915e-12
3.840235844e-09
4.546716532e-12
3.673084696e-09
2.824192796e-12
3.137819934e-09
9.681749177e-13
2.205537515e-09
8.51487522e-10
1.50665352e-12
1.591099155e-09
-4.070188021e-13
2.962658402e-12
2.498291939e-09
4.331129435e-12
3.209602381e-09
5.175490941e-12
3.672215155e-09
5.183042302e-12
3.840228392e-09
4.267820728e-12
3.673999888e-09
2.650205565e-12
3.139437408e-09
9.081500329e-13
2.207279404e-09
8.523956376e-10
1.410426433e-12
1.590069789e-09
-3.810359951e-13
2.773218285e-12
2.496929193e-09
4.053683295e-12
3.208321983e-09
4.842972151e-12
3.671425896e-09
4.84858536e-12
3.840222803e-09
3.990798227e-12
3.674857597e-09
2.476866915e-12
3.140951224e-09
8.481273887e-13
2.208908059e-09
8.532438253e-10
1.315830211e-12
1.589109494e-09
-3.555102389e-13
2.586771268e-12
2.495658273e-09
3.780162463e-12
3.207128622e-09
4.514567415e-12
3.670691514e-09
4.517573035e-12
3.840219768e-09
3.71603497e-12
3.675659092e-09
2.304546281e-12
3.142362709e-09
7.882990219e-13
2.210424341e-09
8.54032225e-10
1.222821759e-12
1.588217111e-09
-3.304227762e-13
2.403315425e-12
2.494477796e-09
3.510694432e-12
3.206021234e-09
4.190587793e-12
3.670011669e-09
4.190556583e-12
3.840219784e-09
3.444162387e-12
3.676405505e-09
2.133739201e-12
3.143673223e-09
7.288725471e-13
2.211829326e-09
8.54761171e-10
1.131487087e-12
1.587391427e-09
-3.057965009e-13
2.223060566e-12
2.493386253e-09
3.245726069e-12
3.204998549e-09
3.871704537e-12
3.669385753e-09
3.868403415e-12
3.840223127e-09
3.176062106e-12
3.677097909e-09
1.965095804e-12
3.144884303e-09
6.700949378e-13
2.213124467e-09
8.55431296e-10
1.042028266e-12
1.586631094e-09
-2.816863364e-13
2.046420084e-12
2.492381899e-09
2.9859807e-12
3.204058993e-09
3.558925142e-12
3.668812853e-09
3.552266848e-12
3.840229874e-09
2.912844357e-12
3.677737418e-09
1.799429109e-12
3.145997814e-09
6.122793055e-13
2.214311722e-09
8.560435915e-10
9.547275385e-13
1.585934552e-09
-2.581669647e-13
1.873983549e-12
2.491462663e-09
2.73239626e-12
3.203200615e-09
3.253529052e-12
3.668291739e-09
3.243551485e-12
3.840239953e-09
2.655806448e-12
3.678325273e-09
1.637662763e-12
3.147016047e-09
5.557992972e-13
2.215393636e-09
8.56599425e-10
8.699182047e-13
1.585299979e-09
-2.353193343e-13
1.706469183e-12
2.490626099e-09
2.486072752e-12
3.202421056e-09
2.956972735e-12
3.667820862e-09
2.943841007e-12
3.840253168e-09
2.406358334e-12
3.678862876e-09
1.480754855e-12
3.147941743e-09
5.010448067e-13
2.216373347e-09