/*--------------------------------*- C++ -*----------------------------------*\
| =========                 |                                                 |
| \\      /  F ield         | OpenFOAM: The Open Source CFD Toolbox           |
|  \\    /   O peration     | Version:  2212                                  |
|   \\  /    A nd           | Website:  www.openfoam.com                      |
|    \\/     M anipulation  |                                                 |
\*---------------------------------------------------------------------------*/
FoamFile
{
    version     2.0;
    format      ascii;
    arch        "LSB;label=32;scalar=64";
    class       surfaceScalarField;
    location    "20.00000000";
    object      phi_0;
}
// * * * * * * * * * * * * * * * * * * * * * * * * * * * * * * * * * * * * * //

dimensions      [1 0 -1 0 0 0 0];

oriented        oriented;

internalField   nonuniform List<scalar> 
5690
(
-5.467051138e-11
8.583406244e-10
1.327889585e-11
-1.342052399e-10
1.421217192e-09
-2.676190292e-10
1.983976658e-09
-4.779380969e-10
2.554279418e-09
-7.888098215e-10
3.133108762e-09
-1.19773242e-09
3.694669754e-09
-1.610265321e-09
4.147369709e-09
-1.626387298e-09
4.185965776e-09
2.964716943e-09
-1.154709715e-10
9.453637135e-10
2.844767111e-11
-2.661822592e-10
1.571927635e-09
-4.844086836e-10
2.202201917e-09
-7.643649563e-10
2.834235135e-09
-1.073372153e-09
3.442115876e-09
-1.323022234e-09
3.944320228e-09
-1.352622992e-09
4.176972027e-09
-9.099068396e-10
3.74325115e-09
2.054810277e-09
-1.516904645e-10
1.058822276e-09
3.823206688e-11
-3.351969672e-10
1.755434796e-09
-5.768355474e-10
2.44384044e-09
-8.454155563e-10
3.102814721e-09
-1.07840697e-09
3.675106432e-09
-1.179433257e-09
4.045345597e-09
-1.02503453e-09
4.022572386e-09
-5.520822749e-10
3.270299152e-09
1.502727949e-09
-1.482349162e-10
1.169016892e-09
3.804028332e-11
-3.17317261e-10
1.924517298e-09
-5.211956626e-10
2.647719112e-09
-7.177209195e-10
3.299340698e-09
-8.455635014e-10
3.802949301e-09
-8.309493049e-10
4.030731839e-09
-6.194719844e-10
3.811095101e-09
-2.730055315e-10
2.923832552e-09
1.22972231e-09
-1.315853165e-10
1.266342736e-09
3.425935661e-11
-2.743875661e-10
2.067319499e-09
-4.336755923e-10
2.807006697e-09
-5.676246851e-10
3.433289754e-09
-6.26632353e-10
3.861957101e-09
-5.684061006e-10
3.972505728e-09
-3.844471054e-10
3.627136143e-09
-1.475001686e-10
2.686885484e-09
1.082222184e-09
-1.070062461e-10
1.345074228e-09
2.827493012e-11
-2.18055021e-10
2.178368536e-09
-3.334792823e-10
2.92243068e-09
-4.182162862e-10
3.518026963e-09
-4.377938363e-10
3.881534588e-09
-3.729315942e-10
3.907643531e-09
-2.34831282e-10
3.489035864e-09
-8.202884194e-11
2.534083031e-09
1.000193477e-09
-8.3694108e-11
1.406414152e-09
2.235428702e-11
-1.674358324e-10
2.262110608e-09
-2.493849006e-10
3.004379109e-09
-3.024291094e-10
3.571071324e-09
-3.041655604e-10
3.883271182e-09
-2.474419866e-10
3.850919997e-09
-1.479819606e-10
3.389575815e-09
-4.784748033e-11
2.433948648e-09
9.523462209e-10
-6.330947045e-11
1.452632964e-09
1.709048923e-11
-1.246599546e-10
2.323461449e-09
-1.81641688e-10
3.061360596e-09
-2.144001662e-10
3.603829853e-09
-2.090553711e-10
3.877926476e-09
-1.644943566e-10
3.806358974e-09
-9.525716637e-11
3.320338498e-09
-2.984316649e-11
2.368534828e-09
9.225032762e-10
-4.712450411e-11
1.486940224e-09
1.281719556e-11
-9.164672288e-11
2.367984005e-09
-1.312590896e-10
3.100972872e-09
-1.517542196e-10
3.624324962e-09
-1.446124013e-10
3.870784537e-09
-1.110847405e-10
3.772831347e-09
-6.280054131e-11
3.272054161e-09
-1.90033548e-11
2.324737733e-09
9.03500065e-10
-3.467013535e-11
1.512113721e-09
9.496746175e-12
-6.673717171e-11
2.400051387e-09
-9.428735171e-11
3.12852266e-09
-1.072994154e-10
3.63733699e-09
-1.005641779e-10
3.864049324e-09
-7.603927178e-11
3.748306458e-09
-4.247323092e-11
3.238488001e-09
-1.280385589e-11
2.295068315e-09
8.906963325e-10
-2.538701223e-11
1.530513669e-09
6.987099977e-12
-4.849315967e-11
2.423157818e-09
-6.781350275e-11
3.147842674e-09
-7.628425306e-11
3.645807787e-09
-7.065953523e-11
3.858424674e-09
-5.284662243e-11
3.730493588e-09
-2.924292031e-11
3.214884255e-09
-8.706273666e-12
2.274531659e-09
8.819902722e-10
-1.855719142e-11
1.543941868e-09
5.128986979e-12
-3.523473204e-11
2.439835554e-09
-4.889885055e-11
3.161506594e-09
-5.455820348e-11
3.651467234e-09
-5.014661184e-11
3.854013133e-09
-3.727778672e-11
3.717624798e-09
-2.057384509e-11
3.198180222e-09
-6.15808168e-12
2.260115987e-09
8.758324311e-10
-1.357941476e-11
1.553758183e-09
3.763051805e-12
-2.567506381e-11
2.451931277e-09
-3.544314163e-11
3.17127457e-09
-3.932792523e-11
3.655352207e-09
-3.597015879e-11
3.850655391e-09
-2.664114913e-11
3.708295654e-09
-1.467304562e-11
3.186212024e-09
-4.381166767e-12
2.249824234e-09
8.714514966e-10
-9.96445858e-12
1.56095536e-09
2.767221305e-12
-1.878353294e-11
2.460750335e-09
-2.583790706e-11
3.178328895e-09
-2.857301325e-11
3.658087419e-09
-2.606671217e-11
3.848148965e-09
-1.928614711e-11
3.701514895e-09
-1.063812052e-11
3.177563961e-09
-3.197171272e-12
2.242383424e-09
8.682545314e-10
-7.339745013e-12
1.56625448e-09
2.040596927e-12
-1.38103995e-11
2.467220948e-09
-1.895739029e-11
3.183475812e-09
-2.092695229e-11
3.660056918e-09
-1.907257138e-11
3.846294591e-09
-1.411511125e-11
3.696557354e-09
-7.801186308e-12
3.171250038e-09
-2.341760101e-12
2.236924125e-09
8.659129094e-10
-5.431692496e-12
1.570174834e-09
1.511311431e-12
-1.020939707e-11
2.471998669e-09
-1.400077924e-11
3.187267095e-09
-1.544831887e-11
3.661504482e-09
-1.408686826e-11
3.84493332e-09
-1.044898104e-11
3.69291946e-09
-5.806548125e-12
3.16660762e-09
-1.738164603e-12
2.232855833e-09
8.641749299e-10
-4.039436781e-12
1.573090106e-09
1.124168322e-12
-7.589705366e-12
2.475549031e-09
-1.040678049e-11
3.190084117e-09
-1.148735077e-11
3.662585188e-09
-1.048879562e-11
3.843934889e-09
-7.80187643e-12
3.690232563e-09
-4.358518075e-12
3.163164194e-09
-1.295935587e-12
2.229793393e-09
8.628792514e-10
-3.019546028e-12
1.575269264e-09
8.403889113e-13
-5.673436132e-12
2.47820307e-09
-7.781900824e-12
3.19219255e-09
-8.597119257e-12
3.663400533e-09
-7.861940337e-12
3.84319982e-09
-5.862570926e-12
3.688233267e-09
-3.288152072e-12
3.160589745e-09
-9.780694691e-13
2.227483549e-09
8.619013485e-10
-2.268840985e-12
1.576906751e-09
6.312941947e-13
-4.26385346e-12
2.48019837e-09
-5.85179023e-12
3.193780327e-09
-6.470399903e-12
3.664019243e-09
-5.924287464e-12
3.842653797e-09
-4.424347881e-12
3.686733454e-09
-2.485352307e-12
3.15865085e-09
-7.381175172e-13
2.225736563e-09
8.611633208e-10
-1.714022249e-12
1.578143908e-09
4.768405095e-13
-3.221726093e-12
2.481706512e-09
-4.423378528e-12
3.194981732e-09
-4.892775719e-12
3.664488709e-09
-4.480375379e-12
3.84224144e-09
-3.343803775e-12
3.685596994e-09
-1.873078815e-12
3.157180249e-09
-5.571518729e-13
2.224420843e-09
8.606062511e-10
-1.30310847e-12
1.579084521e-09
3.625331481e-13
-2.449105937e-12
2.482852999e-09
-3.361671491e-12
3.195894058e-09
-3.714582249e-12
3.664841704e-09
-3.392709028e-12
3.841919684e-09
-2.516854409e-12
3.684721243e-09
-1.389885611e-12
3.156053423e-09
-4.145659009e-13
2.223445662e-09
8.601917322e-10
-9.996423327e-13
1.57980597e-09
2.782239667e-13
-1.877413701e-12
2.483731249e-09
-2.573235202e-12
3.196589635e-09
-2.833995621e-12
3.665102585e-09
-2.57054037e-12
3.841656395e-09
-1.877179268e-12
3.684027997e-09
-9.983830247e-13
3.155174778e-09
-2.975866816e-13
2.22274491e-09
8.598942284e-10
-7.802910997e-13
1.58036895e-09
2.173373096e-13
-1.46346777e-12
2.484414932e-09
-1.999962368e-12
3.197125877e-09
-2.187517666e-12
3.665290251e-09
-1.955065359e-12
3.841424068e-09
-1.377669999e-12
3.683450648e-09
-6.665629731e-13
3.154463732e-09
-1.954013212e-13
2.222273766e-09
8.596990186e-10
-6.283022762e-13
1.580822066e-09
1.752144102e-13
-1.17643116e-12
2.48496366e-09
-1.602360442e-12
3.197551508e-09
-1.741956997e-12
3.665429913e-09
-1.53997944e-12
3.841222201e-09
-1.055278007e-12
3.682965942e-09
-4.69010519e-13
3.153877507e-09
-9.665060115e-14
2.22190151e-09
8.596025584e-10
-5.423594343e-13
1.581213417e-09
1.51034823e-13
-1.019061301e-12
2.485441045e-09
-1.394304573e-12
3.197926345e-09
-1.519521237e-12
3.66555515e-09
-1.341135521e-12
3.841043908e-09
-9.185081781e-13
3.682543345e-09
-4.14920395e-13
3.153374002e-09
-5.468539158e-14
2.221541464e-09
8.595479494e-10
-5.183359105e-13
1.581588073e-09
1.437007364e-13
-9.8233961e-13
2.485905811e-09
-1.360382797e-12
3.198303944e-09
-1.501930749e-12
3.665696703e-09
-1.334584518e-12
3.840876587e-09
-9.177184626e-13
3.682126514e-09
-4.231031446e-13
3.152879401e-09
-6.510880804e-14
2.221183605e-09
8.594829565e-10
-5.497035273e-13
1.581986099e-09
1.516961744e-13
-1.05050446e-12
2.486407437e-09
-1.471536121e-12
3.198724581e-09
-1.651823333e-12
3.665877007e-09
-1.507093853e-12
3.84073187e-09
-1.07389617e-12
3.681693352e-09
-5.22908947e-13
3.152328401e-09
-8.719964747e-14
2.220747993e-09
8.593959809e-10
-6.498480091e-13
1.582457784e-09
1.781914004e-13
-1.255424199e-12
2.487013789e-09
-1.785024327e-12
3.19925385e-09
-2.044183827e-12
3.666136203e-09
-1.921253307e-12
3.840609023e-09
-1.425977428e-12
3.681198181e-09
-7.365366481e-13
3.151639025e-09
-1.421724128e-13
2.220153771e-09
8.592540657e-10
-8.303784692e-13
1.58306198e-09
2.262129943e-13
-1.621404428e-12
2.487805468e-09
-2.3401324e-12
3.19997237e-09
-2.733173331e-12
3.666529337e-09
-2.630115959e-12
3.840506113e-09
-2.013161258e-12
3.680581357e-09
-1.089765933e-12
3.150715723e-09
-2.42671382e-13
2.219306891e-09
8.590116416e-10
-1.104746322e-12
1.583867429e-09
2.993171586e-13
-2.175114781e-12
2.488876351e-09
-3.175660535e-12
3.20097288e-09
-3.765657575e-12
3.667119482e-09
-3.694910421e-12
3.840435568e-09
-2.905200612e-12
3.679791722e-09
-1.63969884e-12
3.149450299e-09
-4.127265405e-13
2.218080208e-09
8.585991684e-10
-1.488006984e-12
1.584953943e-09
4.015072916e-13
-2.947102957e-12
2.490335791e-09
-4.338643729e-12
3.202364502e-09
-5.201932449e-12
3.667982921e-09
-5.178765025e-12
3.840412585e-09
-4.155931088e-12
3.678768953e-09
-2.421173584e-12
3.147715673e-09
-6.657196357e-13
2.216325123e-09
8.579337357e-10
-1.993946991e-12
1.586411427e-09
5.364879886e-13
-3.964644025e-12
2.492306698e-09
-5.869543568e-12
3.204269454e-09
-7.091051703e-12
3.669204557e-09
-7.131896135e-12
3.840453531e-09
-5.808027797e-12
3.677445221e-09
-3.462013774e-12
3.145369853e-09
-1.012652819e-12
2.213876174e-09
8.569214009e-10
-2.633252245e-12
1.588337536e-09
7.071859369e-13
-5.248058782e-12
2.494921621e-09
-7.796489161e-12
3.2068179e-09
-9.463976364e-12
3.67087219e-09
-9.581479628e-12
3.840571136e-09
-7.880316213e-12
3.675744264e-09
-4.771814011e-12
3.142261518e-09
-1.457085615e-12
2.210561821e-09
8.554645952e-10
-3.410490686e-12
1.59083312e-09
9.149574671e-13
-6.804395827e-12
2.498315536e-09
-1.012552591e-11
3.210139079e-09
-1.232117297e-11
3.673068021e-09
-1.251944551e-11
3.840769607e-09
-1.035818039e-11
3.673583204e-09
-6.336368998e-12
3.13823981e-09
-1.993268314e-12
2.206219018e-09
8.534715275e-10
-4.321488838e-12
1.593995738e-09
1.158904564e-12
-8.622008636e-12
2.50261598e-09
-1.283252199e-11
3.214349675e-09
-1.562259436e-11
3.675858266e-09
-1.589206394e-11
3.841039306e-09
-1.318462375e-11
3.670875871e-09
-8.112085751e-12
3.133167375e-09
-2.604136469e-12
2.200711341e-09
8.508675363e-10
-5.350762722e-12
1.597911323e-09
1.435181924e-12
-1.066563226e-11
2.507930747e-09
-1.585601754e-11
3.219540135e-09
-1.927962321e-11
3.679281975e-09
-1.959271125e-11
3.841352534e-09
-1.625554074e-11
3.667538728e-09
-1.002421773e-11
3.126936217e-09
-3.261088809e-12
2.193948497e-09
8.47606581e-10
-6.469663063e-12
1.602644484e-09
1.736481068e-12
-1.287304156e-11
2.514334023e-09
-1.909305114e-11
3.225760186e-09
-2.315156593e-11
3.683340527e-09
-2.346053954e-11
3.841661559e-09
-1.942122756e-11
3.663499486e-09
-1.196974882e-11
3.119484944e-09
-3.925644548e-12
2.185904663e-09
8.436810915e-10
-7.635521519e-12
1.608228195e-09
2.051785113e-12
-1.515394367e-11
2.521852341e-09
-2.23990921e-11
3.233005319e-09
-2.704823527e-11
3.687989696e-09
-2.728674433e-11
3.841900123e-09
-2.249531604e-11
3.658708216e-09
-1.382546714e-11
3.110815273e-09
-4.553106577e-12
2.176632542e-09
8.391281815e-10
-8.792229441e-12
1.614653956e-09
2.366459034e-12
-1.739212531e-11
2.530452118e-09
-2.55934246e-11
3.241206557e-09
-3.074006933e-11
3.693136409e-09
-3.082923887e-11
3.841989388e-09
-2.527092086e-11
3.653150072e-09
-1.546053291e-11
3.10100503e-09
-5.097786122e-12
2.166270046e-09
8.340306101e-10
-9.872634107e-12
1.621863848e-09
2.662745355e-12
-1.945145772e-11
2.540030854e-09
-2.847072333e-11
3.250225747e-09
-3.397600971e-11
3.698641818e-09
-3.383486981e-11
3.841848394e-09
-2.754230411e-11
3.646857658e-09
-1.675168276e-11
3.090214583e-09
-5.518787983e-12
2.155037453e-09
8.285120057e-10
-1.080291534e-11
1.629745933e-09
2.920834859e-12
-2.11860043e-11
2.550414005e-09
-3.081848172e-11
3.259858141e-09
-3.650771295e-11
3.704331197e-09
-3.606665151e-11
3.841407532e-09
-2.912892511e-11
3.639920107e-09
-1.759834032e-11
3.078684263e-09
-5.785095757e-12
2.143224539e-09
8.227270821e-10
-1.150887126e-11
1.638134296e-09
3.120514902e-12
-2.245365963e-11
2.561359077e-09
-3.24387543e-11
3.269843114e-09
-3.811721646e-11
3.710009804e-09
-3.733191846e-11
3.840622476e-09
-2.989757665e-11
3.632486019e-09
-1.793468984e-11
3.066721703e-09
-5.878899901e-12
2.131169087e-09
8.168484227e-10
-1.192368144e-11
1.646814805e-09
3.243176132e-12
-2.313184881e-11
2.572567707e-09
-3.317142608e-11
3.279882538e-09
-3.864381886e-11
3.715482357e-09
-3.75064148e-11
3.839485326e-09
-2.977831159e-11
3.624758235e-09
-1.773632126e-11
3.054680038e-09
-5.796739009e-12
2.119229872e-09
8.110519987e-10
-1.199609125e-11
1.655536898e-09
3.274000345e-12
-2.31330404e-11
2.583705225e-09
-3.291519263e-11
3.28966456e-09
-3.800520575e-11
3.720572565e-09
-3.654957592e-11
3.838029929e-09
-2.877110402e-11
3.616980089e-09
-1.702064333e-11
3.04292987e-09
-5.548612357e-12
2.107758243e-09
8.055036699e-10
-1.169765252e-11
1.664030532e-09
3.204046995e-12
-2.241734066e-11
2.594425527e-09
-3.164206875e-11
3.29888923e-09
-3.620835988e-11
3.725139053e-09
-3.450790346e-11
3.836329686e-09
-2.694235527e-11
3.609414828e-09
-1.584152089e-11
3.031829286e-09
-5.1553922e-12
2.097072512e-09
8.003484533e-10
-1.102762762e-11
1.67202643e-09
3.031784174e-12
-2.099949374e-11
2.604397979e-09
-2.940227462e-11
3.307292016e-09
-3.334793632e-11
3.729084875e-09
-3.150611592e-11
3.834488074e-09
-2.441272569e-11
3.60232165e-09
-1.4279819e-11
3.021696595e-09
-4.645342195e-12
2.087438391e-09
7.957032201e-10
-1.001426437e-11
1.679277083e-09
2.763659742e-12
-1.8948334e-11
2.61333255e-09
-2.631802604e-11
3.314661735e-09
-2.959247504e-11
3.732359456e-09
-2.772830935e-11
3.832624108e-09
-2.133916758e-11
3.595932654e-09
-1.243187176e-11
3.01278949e-09
-4.050439042e-12
2.079057257e-09
7.916528999e-10
-8.711940931e-12
1.685575483e-09
2.413567963e-12
-1.637860332e-11
2.62099961e-09
-2.256752683e-11
3.320850674e-09
-2.516167712e-11
3.734953741e-09
-2.339356042e-11
3.830856161e-09
-1.789535624e-11
3.590434561e-09
-1.039874745e-11
3.005293038e-09
-3.404867598e-12
2.072063609e-09
7.882481801e-10
-7.194505827e-12
1.690768791e-09
2.001216161e-12
-1.343644805e-11
2.627241849e-09
-1.836230836e-11
3.325776536e-09
-2.029931393e-11
3.736890889e-09
-1.873073282e-11
3.829287691e-09
-1.425372946e-11
3.58595764e-09
-8.277115335e-12
2.99931652e-09
-2.743280718e-12
2.066529921e-09
7.855050765e-10
-5.54629509e-12
1.694765366e-09
1.549729919e-12
-1.028183578e-11
2.631977606e-09
-1.392280227e-11
3.329417502e-09
-1.524707518e-11
3.738215273e-09
-1.395640509e-11
3.827997053e-09
-1.057010525e-11
3.58257138e-09
-6.151271119e-12
2.994897723e-09
-2.077743939e-12
2.062456506e-09
7.834274792e-10
-3.852260262e-12
1.697534741e-09
1.082882446e-12
-7.070692563e-12
2.635196211e-09
-9.455566725e-12
3.331802365e-09
-1.022224446e-11
3.738981996e-09
-9.257358237e-12
3.827032148e-09
-6.973045757e-12
3.580287067e-09
-4.087657897e-12
2.992012352e-09
-1.416832532e-12
2.059785786e-09
7.82010708e-10
-2.189727688e-12
1.699101773e-09
6.226935812e-13
-3.941199793e-12
2.636947835e-09
-5.137818679e-12
3.332998961e-09
-5.405347367e-12
3.739249537e-09
-4.784626925e-12
3.826411426e-09
-3.56792235e-12
3.579070358e-09
-2.124245048e-12
2.990568688e-09
-7.972698093e-13
2.058458909e-09
7.812134461e-10
-6.227006811e-13
1.699536802e-09
1.876772901e-13
-1.004740723e-12
2.637330017e-09
-1.107973914e-12
3.333102186e-09
-9.33301496e-13
3.739074899e-09
-6.482409452e-13
3.826126427e-09
-4.455704904e-13
3.57886772e-09
-2.933537466e-13
2.990416502e-09
-2.282073279e-13
2.058393826e-09
7.809852571e-10
8.016049961e-13
1.69894362e-09
-2.084229517e-13
1.657285465e-12
2.636474473e-09
2.534532814e-12
3.332224968e-09
3.099899613e-12
3.738509617e-09
3.073617768e-12
3.826152809e-09
2.393669048e-12
3.579547729e-09
1.307760721e-12
2.991502437e-09
2.882937828e-13
2.059413333e-09
7.812736184e-10
2.051435351e-12
1.697448595e-09
-5.564258105e-13
3.99012261e-12
2.63453592e-09
5.723141924e-12
3.330491996e-09
6.62917339e-12
3.737603679e-09
6.33309722e-12
3.826448989e-09
4.869632601e-12
3.581011252e-09
2.70683494e-12
2.993665302e-09
7.448216616e-13
2.061375411e-09
7.820185463e-10
3.112321029e-12
1.69518809e-09
-8.518364234e-13
5.971699906e-12
2.631676661e-09
8.436103469e-12
3.328027651e-09
9.640434349e-12
3.736399431e-09
9.12636905e-12
3.826963154e-09
7.002760266e-12
3.583134942e-09
3.945388489e-12
2.996722766e-09
1.144915079e-12
2.064176015e-09
7.831635681e-10
3.983438935e-12
1.692298775e-09
-1.094120643e-12
7.603033497e-12
2.628057186e-09
1.067796968e-11
3.324952786e-09
1.214119616e-11
3.734936297e-09
1.146051776e-11
3.827643908e-09
8.798776202e-12
3.585796772e-09
4.998864527e-12
3.00052279e-09
1.487047904e-12
2.067688e-09
7.846507059e-10
4.673814245e-12
1.688910673e-09
-1.285675573e-12
8.901718264e-12
2.62382942e-09
1.247341526e-11
3.321381155e-09
1.415859154e-11
3.733251206e-09
1.335909848e-11
3.828443479e-09
1.027296657e-11
3.588883008e-09
5.871098984e-12
3.004924779e-09
1.772293676e-12
2.071786958e-09
7.864230771e-10
5.198653947e-12
1.685142838e-09
-1.430761602e-12
9.895593069e-12
2.619132614e-09
1.385938196e-11
3.317417444e-09
1.573172483e-11
3.731378952e-09
1.485618813e-11
3.829319123e-09
1.14495644e-11
3.592289771e-09
6.575970497e-12
3.009798498e-09
2.010434001e-12
2.07635261e-09
7.884335666e-10
5.576468145e-12
1.681101046e-09
-1.534622252e-12
1.06180459e-11
2.614091151e-09
1.487939436e-11
3.313156186e-09
1.69060202e-11
3.729352446e-09
1.599092212e-11
3.830234369e-09
1.235587017e-11
3.595924981e-09
7.128215385e-12
3.015026262e-09
2.20463326e-12
2.081276278e-09
7.906382408e-10
5.826969282e-12
1.676876981e-09
-1.60287157e-12
1.110446872e-11
2.608813746e-09
1.557941329e-11
3.308681354e-09
1.772931235e-11
3.727202704e-09
1.680446616e-11
3.831159366e-09
1.302055057e-11
3.599709007e-09
7.542681931e-12
3.020504203e-09
2.351823133e-12
2.086467229e-09
7.929900958e-10
5.96964574e-12
1.672548407e-09
-1.641047951e-12
1.138988883e-11
2.603393584e-09
1.600503056e-11
3.304066327e-09
1.824927779e-11
3.7249586e-09
1.733825846e-11
3.832070476e-09
1.347319019e-11
3.603574104e-09
7.835498707e-12
3.026141938e-09
2.459504708e-12
2.091843332e-09
7.954496297e-10
6.022803291e-12
1.668179986e-09
-1.654352673e-12
1.150733045e-11
2.597909125e-09
1.619944518e-11
3.29937429e-09
1.851134439e-11
3.722646769e-09
1.763198878e-11
3.832949843e-09
1.374223443e-11
3.607463841e-09
8.022134943e-12
3.031862078e-09
2.53312987e-12
2.097332435e-09
7.9798279e-10
6.003067914e-12
1.663824452e-09
-1.647502092e-12
1.14869568e-11
2.59242528e-09
1.62024222e-11
3.294658845e-09
1.85576996e-11
3.720291486e-09
1.772282121e-11
3.833784699e-09
1.38544668e-11
3.61133219e-09
8.117107947e-12
3.037599483e-09
2.577129064e-12
2.102872465e-09
8.005599561e-10
5.925170627e-12
1.659523962e-09
-1.624655596e-12
1.13556749e-11
2.586994776e-09
1.604974901e-11
3.289964754e-09
1.842667938e-11
3.717914527e-09
1.76448434e-11
3.834566529e-09
1.383467982e-11
3.615142375e-09
8.1339991e-12
3.043300203e-09
2.595600772e-12
2.108410879e-09
8.031556057e-10
5.801906903e-12
1.655311469e-09
-1.58940354e-12
1.113704781e-11
2.581659583e-09
1.577304038e-11
3.285328737e-09
1.815247604e-11
3.715535088e-09
1.74287711e-11
3.835290256e-09
1.370546479e-11
3.618865711e-09
8.085338591e-12
3.048920361e-09
2.592349962e-12
2.113903905e-09
8.05748017e-10
5.644199798e-12
1.651212058e-09
-1.544796479e-12
1.085137209e-11
2.576452334e-09
1.5399773e-11
3.280780317e-09
1.776510857e-11
3.713169779e-09
1.710188715e-11
3.835953509e-09
1.348715167e-11
3.622480477e-09
7.982550373e-12
3.054425008e-09
2.570864085e-12
2.119315695e-09
8.08318954e-10
5.461234704e-12
1.647244193e-09
-1.493390386e-12
1.05158401e-11
2.571397672e-09
1.495345336e-11
3.276342699e-09
1.729054909e-11
3.710832719e-09
1.668810099e-11
3.836555991e-09
1.319779217e-11
3.625970833e-09
7.835908121e-12
3.059786976e-09
2.534318022e-12
2.124617456e-09
8.108533629e-10
5.260636176e-12
1.643420833e-09
-1.437296512e-12
1.014480354e-11
2.566513498e-09
1.445392351e-11
3.272033593e-09
1.675099718e-11
3.708535684e-09
1.620811181e-11
3.837098928e-09
1.285322385e-11
3.629325805e-09
7.654571822e-12
3.064985761e-09
2.485641508e-12
2.129786594e-09
8.133391151e-10
5.04862123e-12
1.639750424e-09
-1.378226045e-12
9.750037959e-12
2.561812111e-09
1.391761049e-11
3.267866062e-09
1.616498913e-11
3.706288364e-09
1.567928689e-11
3.837584725e-09
1.246672133e-11
3.632538504e-09
7.446040727e-12
3.070006618e-09
2.426960485e-12
2.13480589e-09
8.157661913e-10
4.830247181e-12
1.636237729e-09
-1.317562985e-12
9.341235133e-12
2.557301162e-09
1.335819068e-11
3.263849174e-09
1.554817482e-11
3.704098472e-09
1.511649625e-11
3.838016541e-09
1.204975983e-11
3.6356054e-09
7.216811553e-12
3.074839755e-09
2.361263295e-12
2.139661642e-09
8.181275581e-10
4.609530342e-12
1.632884585e-09
-1.256395151e-12
8.926184257e-12
2.552984545e-09
1.278673097e-11
3.259988709e-09
1.491324228e-11
3.701972073e-09
1.453164389e-11
3.838398279e-09
1.161344751e-11
3.638523738e-09
6.975800364e-12
3.079477568e-09
2.290835515e-12
2.144346791e-09
8.204184831e-10
4.38984563e-12
1.629690363e-09
-1.195627708e-12
8.51153294e-12
2.548862894e-09
1.221288601e-11
3.256287427e-09
1.427171228e-11
3.69991334e-09
1.393944046e-11
3.838730646e-09
1.116705182e-11
3.641296217e-09
6.726278845e-12
3.083918464e-09
2.216088671e-12
2.148857142e-09
8.226346519e-10
4.173686981e-12
1.626652613e-09
-1.135933427e-12
8.102221289e-12
2.544934387e-09
1.164398935e-11
3.252745699e-09
1.363577702e-11
3.697921597e-09
1.334737682e-11
3.83901908e-09
1.071668474e-11
3.643926952e-09
6.470726245e-12
3.088164501e-09
2.138781473e-12
2.153189211e-09
8.247734915e-10
3.963416618e-12
1.623766796e-09
-1.077590798e-12
7.703883663e-12
2.541193922e-09
1.109015744e-11
3.249359427e-09
1.301069542e-11
3.696001058e-09
1.275954235e-11
3.839270224e-09
1.026790452e-11
3.646418609e-09
6.214951333e-12
3.092217489e-09
2.060593442e-12
2.157343635e-09
8.268340945e-10
3.760674941e-12
1.621028278e-09
-1.022155913e-12
7.317919343e-12
2.537636642e-09
1.05508903e-11
3.246126431e-09
1.239761955e-11
3.6941543e-09
1.218275267e-11
3.839485062e-09
9.824922854e-12
3.648776437e-09
5.960839904e-12
3.096081555e-09
1.982210526e-12
2.161322258e-09
8.288162548e-10
3.565685453e-12
1.618431523e-09
-9.689431291e-13
6.945296162e-12
2.534256966e-09
1.00269557e-11
3.243044733e-09
1.180311024e-11
3.692378098e-09
1.162106972e-11
3.83966706e-09
9.391568033e-12
3.651005898e-09
5.711036229e-12
3.099762025e-09
1.904660481e-12
2.165128573e-09
8.307208304e-10
3.379335318e-12
1.615969585e-09
-9.174271974e-13
6.589391703e-12
2.531046832e-09
9.526100039e-12
3.24010798e-09
1.123183842e-11
3.690672295e-09
1.107902195e-11
3.839819816e-09
8.971701746e-12
3.65311314e-09
5.46807425e-12
3.10326557e-09
1.828885722e-12
2.168767684e-09
8.325496403e-10
3.202417549e-12
1.613636028e-09
-8.688977427e-13
6.250569691e-12
2.527998608e-09
9.048131093e-12
3.23731037e-09
1.068522563e-11
3.689035129e-09
1.05589355e-11
3.839946038e-09
8.567725771e-12
3.655104262e-09
5.233652087e-12
3.106599578e-09
1.755527793e-12
2.172245743e-09
8.343051338e-10
3.035031672e-12
1.611423984e-09
-8.230226769e-13
5.92954374e-12
2.525104037e-09
8.594435739e-12
3.234645429e-09
1.016526042e-11
3.687464241e-09
1.006308198e-11
3.840048156e-09
8.181720976e-12
3.656985558e-09
5.009175909e-12
3.109772087e-09
1.685122702e-12
2.175569755e-09
8.359902698e-10
2.877296746e-12
1.609326496e-09
-7.79835887e-13
5.626617651e-12
2.522354667e-09
8.165617596e-12
3.232106381e-09
9.672887123e-12
3.685956928e-09
9.592612815e-12
3.840128386e-09
7.814759551e-12
3.658763379e-09
4.795363034e-12
3.112791467e-09
1.617936069e-12
2.178747168e-09
8.376082529e-10
2.729106771e-12
1.607336656e-09
-7.392892623e-13
5.341673732e-12
2.519742053e-09
7.761626525e-12
3.229686383e-09
9.208166418e-12
3.684510366e-09
9.147672581e-12
3.84018885e-09
7.466977406e-12
3.660444059e-09
4.592286258e-12
3.115666145e-09
1.553983406e-12
2.181785488e-09
8.391622969e-10
2.590135495e-12
1.605447795e-09
-7.012875166e-13
5.07411853e-12
2.517258029e-09
7.381645388e-12
3.227378824e-09
8.770142793e-12
3.683121859e-09
8.727277211e-12
3.840231696e-09
7.137481947e-12
3.662033846e-09
4.399302476e-12
3.118404316e-09
1.492984216e-12
2.184691852e-09
8.406553378e-10
2.459830069e-12
1.603653644e-09
-6.656809212e-13
4.82288118e-12
2.514894947e-09
7.024106166e-12
3.225177589e-09
8.356896139e-12
3.681789065e-09
8.329387122e-12
3.840259197e-09
6.82441905e-12
3.663538815e-09
4.215078559e-12
3.121013661e-09
1.434361131e-12
2.187472631e-09
8.420897402e-10
2.337427351e-12
1.601948485e-09
-6.322669023e-13
4.586453638e-12
2.512645897e-09
6.686769986e-12
3.22307728e-09
7.965672585e-12
3.680510162e-09
7.951079733e-12
3.840273798e-09
6.52514435e-12
3.664964767e-09
4.037710108e-12
3.12350112e-09
1.377280779e-12
2.190133118e-09
8.434670403e-10
2.221975902e-12
1.600327291e-09
-6.007907627e-13
4.362952601e-12
2.51050489e-09
6.366843993e-12
3.221073396e-09
7.593053396e-12
3.679283954e-09
7.588767586e-12
3.840278104e-09
6.236469912e-12
3.66631709e-09
3.864915976e-12
3.125872707e-09
1.320656946e-12
2.192677414e-09
8.447876963e-10
2.112349926e-12
1.598785868e-09
-5.709483908e-13
4.150146546e-12
2.508467051e-09
6.061010491e-12
3.219162521e-09
7.234947754e-12
3.678110017e-09
7.238112705e-12
3.84027496e-09
5.954434572e-12
3.667600783e-09
3.693621587e-12
3.128133539e-09
1.263525891e-12
2.195107524e-09
8.460512095e-10
2.007242257e-12
1.597320985e-09
-5.423834629e-13
3.945447729e-12
2.506528798e-09
5.76541778e-12
3.217342518e-09
6.886524445e-12
3.676988896e-09
6.893731868e-12
3.84026775e-09
5.673855527e-12
3.668820646e-09
3.521253515e-12
3.130286135e-09
1.205526792e-12
2.19742325e-09
8.472567208e-10
1.905219831e-12
1.595930463e-09
-5.147155215e-13
3.745966557e-12
2.504688008e-09
5.475623614e-12
3.215612814e-09
6.541958652e-12
3.675922523e-09
6.549973506e-12
3.840259696e-09
5.391909749e-12
3.669978669e-09
3.347519594e-12
3.132330497e-09
1.146803421e-12
2.19962396e-09
8.484035099e-10
1.804652573e-12
1.594613323e-09
-4.875233761e-13
3.548300729e-12
2.50294432e-09
5.186688453e-12
3.213974377e-09
6.196920335e-12
3.674912234e-09
6.205068863e-12
3.84025148e-09
5.109212128e-12
3.671074475e-09
3.173032063e-12
3.134266643e-09
1.08755028e-12
2.201709429e-09
8.494910401e-10
1.704218277e-12
1.593369478e-09
-4.603833208e-13
3.350780762e-12
2.501297707e-09
4.898001623e-12
3.212427111e-09
5.852626791e-12
3.673957547e-09
5.861327289e-12
3.840242708e-09
4.827067333e-12
3.672108689e-09
2.998364627e-12
3.136095315e-09
1.02793e-12
2.203679838e-09
8.505189363e-10
1.604542344e-12
1.592198361e-09
-4.334383552e-13
3.155065746e-12
2.499747117e-09
4.612450938e-12
3.210969688e-09
5.511912248e-12
3.673058033e-09
5.520449392e-12
3.84023411e-09
4.546436724e-12
3.673082659e-09
2.82398673e-12
3.137817735e-09
9.680989894e-13
2.205535681e-09
8.514869911e-10
1.506619136e-12
1.591098716e-09
-4.069874862e-13
2.962538853e-12
2.498291125e-09
4.330979465e-12
3.209601216e-09
5.175306753e-12
3.672213663e-09
5.18277403e-12
3.840226591e-09
4.26756667e-12
3.673997814e-09
2.650065334e-12
3.139435198e-09
9.081333946e-13
2.207277563e-09
8.52395087e-10
1.410382543e-12
1.590069324e-09
-3.81004951e-13
2.773111812e-12
2.496928338e-09
4.053541254e-12
3.208320766e-09
4.84280869e-12
3.671424362e-09
4.848385207e-12
3.840220967e-09
3.990636937e-12
3.6748555e-09
2.47680415e-12
3.140948992e-09
8.481501527e-13
2.208906178e-09
8.532432202e-10
1.315780316e-12
1.58910901e-09
-3.554846787e-13
2.586690167e-12
2.495657396e-09
3.780071636e-12
3.207127376e-09
4.514457813e-12
3.670689952e-09
4.517478439e-12
3.840217905e-09
3.715974501e-12
3.675656951e-09
2.304529877e-12
3.142360412e-09
7.88316172e-13
2.210422374e-09
8.540315347e-10
1.2227859e-12
1.588216616e-09
-3.304132221e-13
2.403263923e-12
2.494476907e-09
3.5106717e-12
3.20601997e-09
4.190545107e-12
3.670010074e-09
4.190544089e-12
3.840217881e-09
3.44416711e-12
3.676403299e-09
2.133737684e-12
3.14367083e-09
7.288556525e-13
2.211827247e-09
8.547603879e-10
1.131478504e-12
1.587390925e-09
-3.058050002e-13
2.223036404e-12
2.493385347e-09
3.245752762e-12
3.204997263e-09
3.871727171e-12
3.669384116e-09
3.868432115e-12
3.840221168e-09
3.176087731e-12
3.677095629e-09
1.96509467e-12
3.144881813e-09
6.700515941e-13
2.213122275e-09
8.554304265e-10
1.042039319e-12
1.586630583e-09
-2.817026852e-13
2.046424833e-12
2.492380965e-09
2.986030191e-12
3.204057672e-09
3.559003578e-12
3.668811168e-09
3.552317275e-12
3.840227849e-09
2.912865475e-12
3.67773506e-09
1.799420133e-12
3.145995235e-09
6.122380008e-13
2.214309429e-09
8.560426422e-10
9.547400101e-13
1.585934028e-09
-2.581772103e-13
1.874022138e-12
2.491461699e-09
2.732462562e-12
3.20319925e-09
3.253646012e-12
3.668290002e-09
3.243625908e-12
3.840237852e-09
2.655823098e-12
3.678322826e-09
1.637643304e-12
3.147013376e-09
5.557816713e-13
2.215391248e-09
8.565983948e-10
8.699231103e-13
1.585299438e-09
-2.353202566e-13
1.706541781e-12
2.490625109e-09
2.486167091e-12
3.202419647e-09
2.957101893e-12
3.667819071e-09
2.943938455e-12
3.840250989e-09
2.40638663e-12
3.678860331e-09
1.480737236e-12
3.14793897e-09
5.010568987e-13
2.216370862e-09
8.5709941e-10