/*--------------------------------*- C++ -*----------------------------------*\
| =========                 |                                                 |
| \\      /  F ield         | OpenFOAM: The Open Source CFD Toolbox           |
|  \\    /   O peration     | Version:  2212                                  |
|   \\  /    A nd           | Website:  www.openfoam.com                      |
|    \\/     M anipulation  |                                                 |
\*---------------------------------------------------------------------------*/
FoamFile
{
    version     2.0;
    format      ascii;
    arch        "LSB;label=32;scalar=64";
    class       volVectorField;
    location    "20.00000000";
    object      U;
}
// * * * * * * * * * * * * * * * * * * * * * * * * * * * * * * * * * * * * * //

dimensions      [0 1 -1 0 0 0 0];

internalField   nonuniform List<vector> 
3000
(
(0.1355054494 -0.003722998458 6.829625291e-12)
(0.1358368922 -0.006358234153 1.372214547e-11)
(0.136541825 -0.009894516138 2.751734866e-11)
(0.1377380014 -0.01452092016 5.808602109e-11)
(0.1394985916 -0.02033603633 1.378545875e-10)
(0.1416186502 -0.02807154564 4.460814607e-11)
(0.1422334001 -0.03442768105 1.671086541e-11)
(0.1343674236 -0.04168134781 7.439613219e-12)
(0.091966736 -0.02031478658 1.818619248e-12)
(0.1464911297 -0.008031579814 3.046840588e-11)
(0.1484000594 -0.01315566616 5.854204646e-11)
(0.1510186856 -0.01898539829 1.013296999e-10)
(0.1543601329 -0.02499249959 1.682184759e-10)
(0.1577452 -0.030556483 2.679451628e-10)
(0.1588932381 -0.03485961205 1.310861347e-10)
(0.1536094642 -0.03390766857 6.26588361e-11)
(0.1315150882 -0.02854769438 2.613213492e-11)
(0.07484141284 -0.00788937734 7.147058486e-12)
(0.1640504346 -0.01075961614 5.631108102e-11)
(0.1659992155 -0.01700321426 1.034528429e-10)
(0.1682951924 -0.02339409402 1.679089213e-10)
(0.170049129 -0.02885875779 2.529877715e-10)
(0.1694191534 -0.03248713256 3.570706699e-10)
(0.1631215613 -0.03294798614 1.911963726e-10)
(0.1463755873 -0.02835011474 9.604348691e-11)
(0.1095966243 -0.01870881319 4.548319283e-11)
(0.04721682082 -0.003456237652 1.285979978e-11)
(0.1832764659 -0.01066392291 6.234850446e-11)
(0.1845116841 -0.0164263104 1.157320769e-10)
(0.1853093311 -0.02174414034 2.022039142e-10)
(0.1841474178 -0.02538910053 3.026926714e-10)
(0.1786791761 -0.02657108587 4.162149664e-10)
(0.165516671 -0.02465441543 2.333212609e-10)
(0.1406085792 -0.01847969461 1.275363542e-10)
(0.09882197286 -0.009794709171 6.314821473e-11)
(0.03918310078 -0.001317800083 1.800538015e-11)
(0.2002229347 -0.009573848006 -7.271556414e-11)
(0.199825357 -0.01444142854 -2.222806462e-10)
(0.1979100745 -0.01851439034 9.522876005e-11)
(0.1926753421 -0.02064162226 2.302141991e-10)
(0.1818132972 -0.02040053967 2.78028759e-10)
(0.1624312096 -0.01748584066 2.068094719e-10)
(0.1319754988 -0.01198986524 1.309091353e-10)
(0.08838145705 -0.005517690195 6.996287416e-11)
(0.03254259404 -0.0005036331496 2.049357996e-11)
(0.2147879718 -0.007868869906 -3.036619032e-11)
(0.2125726665 -0.011639171 -2.243601546e-11)
(0.2078590652 -0.0145139628 1.192783525e-10)
(0.1988884488 -0.01555724807 2.471534027e-10)
(0.1836806423 -0.0146446101 3.672398446e-10)
(0.1601428372 -0.01178765131 2.291144176e-10)
(0.1268099556 -0.00754001158 1.411334083e-10)
(0.08305863837 -0.003130825805 7.610901679e-11)
(0.03001137044 -0.000232444313 2.248213432e-11)
(0.225908708 -0.006204377659 -1.182132077e-10)
(0.2218722993 -0.00903841248 -2.389042058e-10)
(0.2145061262 -0.01101930752 3.351963227e-11)
(0.2022801484 -0.01144454566 1.780893206e-10)
(0.1836527448 -0.01037303981 2.434804305e-10)
(0.1572225348 -0.007970920966 1.985184203e-10)
(0.1222638004 -0.004844163055 1.38499101e-10)
(0.0788422207 -0.001872545234 8.051995871e-11)
(0.02803533341 -9.328488651e-05 2.468744286e-11)
(0.2345631514 -0.00472802524 -6.887432986e-11)
(0.2289459102 -0.006792448378 -7.401712252e-11)
(0.2193741651 -0.008124868282 5.163422358e-11)
(0.2046163063 -0.00822220903 1.893141979e-10)
(0.1835447446 -0.00723133498 3.437090207e-10)
(0.1552701876 -0.005366176055 2.320737604e-10)
(0.11948677 -0.003149165542 1.696396534e-10)
(0.07648434338 -0.001170571293 1.087073216e-10)
(0.02709915542 -5.662884018e-05 3.421959201e-11)
(0.2408515704 -0.003538456378 -8.467139844e-11)
(0.2339206654 -0.005030187888 -1.502361176e-10)
(0.2225752749 -0.005926457927 -2.822815519e-10)
(0.205881878 -0.005877328777 -1.200522875e-10)
(0.1830568073 -0.00505264844 1.442384957e-10)
(0.153564972 -0.003655832348 2.233858983e-10)
(0.1173334985 -0.002092010836 3.026938855e-10)
(0.07471397574 -0.0007545052205 2.406908748e-10)
(0.02637058371 -2.754547403e-05 6.247011623e-11)
(0.2455329822 -0.002615634034 -6.539951241e-11)
(0.2375666496 -0.003684241369 -9.878353003e-11)
(0.2248614489 -0.004287919724 -1.119307655e-10)
(0.2067456912 -0.00418566271 -2.172006041e-11)
(0.1826989906 -0.003537717251 1.08035733e-10)
(0.1524192078 -0.002515170899 1.683119755e-10)
(0.1159513234 -0.001418087031 1.813949246e-10)
(0.07362910591 -0.0005063817682 1.303054465e-10)
(0.0259617802 -2.044572531e-05 4.061749962e-11)
(0.2488851593 -0.001921578456 9.840913769e-11)
(0.2401197381 -0.002688640638 2.849202659e-10)
(0.2263872063 -0.003100168426 9.709344591e-11)
(0.2072306488 -0.002990874271 1.293316002e-10)
(0.1823244072 -0.002497183959 2.809577869e-10)
(0.1515188277 -0.001754042591 1.931638636e-10)
(0.114918577 -0.0009787093313 1.49863149e-10)
(0.07282495979 -0.0003460462112 9.6490176e-11)
(0.02564655847 -1.225030645e-05 3.04567875e-11)
(0.2513355038 -0.001408385176 9.263150372e-11)
(0.241966771 -0.001959784117 1.496358085e-10)
(0.2274721264 -0.002243823451 1.160623837e-10)
(0.2075632447 -0.002146279963 1.319411027e-10)
(0.1820549418 -0.001777091657 1.790492492e-10)
(0.1508966525 -0.001239020355 1.68836979e-10)
(0.1142211294 -0.0006882334612 1.487655796e-10)
(0.07229402707 -0.0002436471536 1.035392712e-10)
(0.02544729118 -9.698208472e-06 3.331597619e-11)
(0.2530892121 -0.001032337379 1.353159618e-11)
(0.2432693584 -0.001431187356 -3.510269629e-11)
(0.2282123479 -0.001630407763 -2.331170044e-10)
(0.2077587859 -0.001550404202 -1.59962686e-10)
(0.1818242213 -0.001276730294 6.762660621e-11)
(0.1504236241 -0.0008861549126 1.702154288e-10)
(0.1137031165 -0.0004909040557 2.707682588e-10)
(0.07189964636 -0.0001736317886 2.179515318e-10)
(0.02529484119 -6.617171872e-06 5.763778955e-11)
(0.2543635115 -0.0007584493043 -1.718947957e-11)
(0.2442092382 -0.001048532076 -5.069761694e-11)
(0.2287397176 -0.001190356627 -9.618159289e-11)
(0.2078924569 -0.001127669979 -4.762732584e-11)
(0.1816549804 -0.0009257356156 5.678720354e-11)
(0.1500861076 -0.0006413119225 1.173961408e-10)
(0.1133378925 -0.000355438207 1.368754551e-10)
(0.07162432245 -0.0001263014732 9.246267019e-11)
(0.02519057266 -5.222502724e-06 2.774404772e-11)
(0.2552790916 -0.0005590020244 -1.495414723e-11)
(0.2448777824 -0.0007715316829 -2.324077274e-11)
(0.2291058875 -0.0008740255686 -1.124624197e-11)
(0.2079730138 -0.0008262281997 6.264139364e-11)
(0.1815183426 -0.0006773183418 2.079854478e-10)
(0.1498307058 -0.0004690347376 1.20920432e-10)
(0.1130649199 -0.0002604214824 5.73841683e-11)
(0.07141804387 -9.275104455e-05 -4.196368487e-11)
(0.02511105564 -3.66296724e-06 -6.275028884e-12)
(0.2559434333 -0.0004137971645 -4.096374256e-12)
(0.2453601334 -0.0005705353615 7.207975768e-13)
(0.229366795 -0.0006456043515 2.241542417e-11)
(0.2080263715 -0.0006097800624 6.68925962e-11)
(0.1814152355 -0.0004999254533 1.113294199e-10)
(0.1496431273 -0.0003466046029 8.513086561e-11)
(0.1128659881 -0.0001934530215 4.655128384e-11)
(0.07126871992 -6.919951461e-05 9.359805459e-12)
(0.02505405092 -2.546009611e-06 1.939236191e-12)
(0.256422354 -0.0003076949154 4.941043691e-12)
(0.2457050632 -0.0004241072188 1.431097881e-11)
(0.2295493902 -0.0004797517197 3.27197824e-11)
(0.2080576409 -0.0004531646571 5.684284848e-11)
(0.1813331389 -0.0003718905157 7.185054469e-11)
(0.1495004753 -0.0002583160568 6.062329294e-11)
(0.1127159587 -0.0001449862641 3.888272672e-11)
(0.07115653913 -5.199599622e-05 1.798251973e-11)
(0.02501077185 -1.643391921e-06 4.857748821e-12)
(0.2567693141 -0.0002299461581 1.000110789e-11)
(0.2459533776 -0.0003169322273 1.997187407e-11)
(0.2296785748 -0.0003585687377 3.349736218e-11)
(0.208076232 -0.0003389024545 4.659087512e-11)
(0.1812692912 -0.000278490656 5.179880689e-11)
(0.1493930184 -0.0001938244691 4.466112027e-11)
(0.1126038174 -0.0001092389149 3.090967425e-11)
(0.0710730343 -3.931574699e-05 1.659664677e-11)
(0.02497872012 -1.210917807e-06 4.77000397e-12)
(0.2570194003 -0.0001727075892 1.181219422e-11)
(0.2461307882 -0.0002381010823 2.081496223e-11)
(0.2297684204 -0.0002694863428 3.029081745e-11)
(0.2080850423 -0.0002549011761 3.729422512e-11)
(0.181217962 -0.0002097045672 3.829484896e-11)
(0.14931021 -0.0001461606387 3.235922807e-11)
(0.1125182306 -8.253868997e-05 2.252448087e-11)
(0.07100936166 -2.972840585e-05 1.228326952e-11)
(0.0249542269 -8.825655825e-07 3.514223065e-12)
(0.2571998514 -0.0001304243225 1.137005068e-11)
(0.2462576442 -0.0001798563835 1.857020739e-11)
(0.229830836 -0.0002036284898 2.431152113e-11)
(0.2080880035 -0.0001926988926 2.635508612e-11)
(0.181177039 -0.0001585764918 2.353084763e-11)
(0.1492466751 -0.0001105331546 1.710465398e-11)
(0.1124533486 -6.227209551e-05 1.011294351e-11)
(0.07096147545 -2.237469519e-05 4.498522879e-12)
(0.02493585777 -7.096306818e-07 1.026307887e-12)
(0.2573297313 -9.912672006e-05 8.965627438e-12)
(0.246347947 -0.0001367197881 1.303021016e-11)
(0.2298736496 -0.0001547678965 1.199482935e-11)
(0.2080871494 -0.0001463918866 -3.971395146e-12)
(0.1811441807 -0.0001202455042 -2.040550363e-11)
(0.1491976855 -8.353802999e-05 -2.741292201e-11)
(0.1124040805 -4.645593594e-05 -2.166445861e-11)
(0.07092546836 -1.647490721e-05 -1.348719672e-11)
(0.02492198678 -6.209709243e-07 -4.385195068e-12)
(0.2574237467 -7.603598051e-05 2.777514795e-11)
(0.2464126488 -0.0001048446727 5.964080149e-11)
(0.229903246 -0.0001185677144 1.485269761e-10)
(0.2080846044 -0.0001119229329 -2.182055851e-10)
(0.1811183305 -9.145383107e-05 -3.177380434e-10)
(0.1491604989 -6.295768331e-05 -2.511794573e-10)
(0.112367498 -3.386893802e-05 -1.136450459e-10)
(0.07089924191 -1.154333324e-05 -5.089369332e-11)
(0.02491180735 -5.90755494e-07 -1.394217384e-11)
(0.2574934078 -5.935443554e-05 1.53272793e-11)
(0.24646055 -8.179243683e-05 1.682733596e-11)
(0.2299251566 -9.232445723e-05 -1.207012812e-11)
(0.2080828797 -8.678132111e-05 -1.436102626e-10)
(0.1810997291 -7.01462475e-05 -1.966667329e-10)
(0.1491338952 -4.730374965e-05 -1.717649447e-10)
(0.1123419893 -2.35369048e-05 -1.083749551e-10)
(0.07088069913 -7.150030026e-06 -5.625277524e-11)
(0.02490483415 -5.61484673e-07 -1.610702958e-11)
(0.2575484953 -4.779876177e-05 -1.738867723e-12)
(0.2464992645 -6.581042702e-05 -1.468845522e-11)
(0.2299443115 -7.412227894e-05 -4.95113935e-11)
(0.2080842755 -6.933515069e-05 -1.083637793e-10)
(0.181088605 -5.562950989e-05 -1.352230814e-10)
(0.1491170565 -3.682720245e-05 -1.222280768e-10)
(0.1123265533 -1.744045205e-05 -8.628776045e-11)
(0.07086925987 -4.046178859e-06 -4.788206454e-11)
(0.024900382 5.946201975e-08 -1.412399674e-11)
(0.257598231 -4.117654251e-05 -1.314422458e-11)
(0.2465366769 -5.686504879e-05 -2.972230991e-11)
(0.2299671803 -6.43601934e-05 -5.630708271e-11)
(0.2080946179 -6.042841151e-05 -8.561073167e-11)
(0.1810907646 -4.858760588e-05 -9.679203869e-11)
(0.1491153061 -3.183448194e-05 -8.732070195e-11)
(0.1123252212 -1.566382276e-05 -6.46976637e-11)
(0.07087004904 -2.764635892e-06 -3.802612202e-11)
(0.02490079769 -1.240885733e-07 -1.142326946e-11)
(0.2576538805 -3.918210837e-05 -1.879841924e-11)
(0.2465829878 -5.451338737e-05 -3.501430967e-11)
(0.2300022642 -6.237393191e-05 -5.451086523e-11)
(0.2081191849 -5.938508022e-05 -7.164119644e-11)
(0.1811078653 -4.837012159e-05 -7.782613422e-11)
(0.1491293527 -3.158584984e-05 -6.994249258e-11)
(0.1123389563 -1.609081637e-05 -5.219043139e-11)
(0.07088323374 -2.33293747e-06 -3.063842807e-11)
(0.02490834183 -1.437762674e-06 -9.213134912e-12)
(0.257726359 -4.138611472e-05 -2.058145334e-11)
(0.2466481096 -5.799312362e-05 -3.517568076e-11)
(0.2300585654 -6.703439006e-05 -4.955030221e-11)
(0.2081675377 -6.468500425e-05 -5.993099964e-11)
(0.1811496983 -5.395340427e-05 -6.233227223e-11)
(0.1491673585 -3.624401497e-05 -5.519429087e-11)
(0.1123742606 -1.977046135e-05 -4.112483134e-11)
(0.07091219712 -2.676948235e-06 -2.416141364e-11)
(0.02492288321 -2.655665277e-06 -7.286993841e-12)
(0.2578291795 -4.869795414e-05 -2.013960308e-11)
(0.2467447235 -6.883946709e-05 -3.285645596e-11)
(0.2301476023 -8.065809561e-05 -4.374282698e-11)
(0.2082496304 -7.914538304e-05 -5.048721026e-11)
(0.1812265554 -6.78284478e-05 -5.072802173e-11)
(0.149238994 -4.71732641e-05 -4.421858759e-11)
(0.1124383239 -2.740358804e-05 -3.288257598e-11)
(0.07096129146 -4.065334961e-06 -1.939274717e-11)
(0.02494578475 -4.512197702e-06 -5.871183508e-12)
(0.2579809106 -6.194728577e-05 -1.786407011e-11)
(0.2468910505 -8.834040177e-05 -2.796486069e-11)
(0.2302870938 -0.0001048658772 -3.60097337e-11)
(0.2083823781 -0.0001047900858 -4.762979287e-11)
(0.1813525817 -9.190600789e-05 -4.669817141e-11)
(0.1493564914 -6.565755914e-05 -3.940720495e-11)
(0.1125421222 -3.982187189e-05 -2.874373155e-11)
(0.07103934871 -6.794399741e-06 -1.681862071e-11)
(0.02498105855 -7.34886131e-06 -5.087635741e-12)
(0.2582044516 -8.213939866e-05 1.375026573e-11)
(0.2471095211 -0.0001179590781 4.890096827e-11)
(0.2304987856 -0.0001414509075 1.41796087e-10)
(0.2085865558 -0.0001433438689 -1.49585932e-10)
(0.1815477002 -0.0001280099354 -8.024323907e-11)
(0.1495379453 -9.366733587e-05 -4.909737272e-11)
(0.1127005494 -5.879564049e-05 -3.067510809e-11)
(0.07115651684 -1.166370449e-05 -1.674841097e-11)
(0.02503251429 -1.149750587e-05 -4.941697991e-12)
(0.2585291358 -0.0001104195773 1.426895201e-11)
(0.2474290843 -0.0001593732927 2.588139154e-11)
(0.2308109754 -0.0001925065383 2.596237917e-11)
(0.2088894376 -0.0001971014941 -5.965299992e-11)
(0.1818374605 -0.0001783648491 -5.797004958e-11)
(0.1498062823 -0.0001329799483 -4.296695903e-11)
(0.1129325141 -8.556553337e-05 -2.829348052e-11)
(0.07132584615 -1.907697947e-05 -1.558651033e-11)
(0.02510514293 -1.72498583e-05 -4.596315149e-12)
(0.2589912341 -0.0001478566982 7.131007064e-12)
(0.2478856836 -0.0002141452559 7.28764657e-12)
(0.2312589785 -0.0002599427687 -4.422350354e-12)
(0.2093251965 -0.0002680724666 -3.440516324e-11)
(0.1822540373 -0.0002448566059 -3.994372082e-11)
(0.1501902834 -0.000185108516 -3.354271583e-11)
(0.1132614656 -0.0001211963872 -2.366230911e-11)
(0.07156321604 -2.938766779e-05 -1.352993394e-11)
(0.02520483204 -2.489527504e-05 -4.057142792e-12)
(0.2596350057 -0.0001953303769 1.233498877e-12)
(0.2485232391 -0.0002835398149 -2.064006333e-12)
(0.2318859938 -0.0003452643473 -1.16060411e-11)
(0.209935599 -0.0003577716848 -2.483142695e-11)
(0.1828365817 -0.0003288004349 -2.92831153e-11)
(0.1507247503 -0.0002510055469 -2.658387229e-11)
(0.1137155334 -0.000166285673 -2.033672833e-11)
(0.0718874992 -4.273758736e-05 -1.247370533e-11)
(0.02533847741 -3.467597541e-05 -3.878488885e-12)
(0.2605131834 -0.0002533526746 -2.362323701e-12)
(0.249394103 -0.0003682387805 -6.521456162e-12)
(0.2327435093 -0.0004491866093 -1.366436037e-11)
(0.2107703442 -0.0004667903453 -2.149664141e-11)
(0.1836314976 -0.0004305484404 -2.579414962e-11)
(0.1514506575 -0.0003307829296 -2.638561723e-11)
(0.1143275254 -0.0002207960552 -2.378229946e-11)
(0.07232045592 -5.90081153e-05 -1.662314874e-11)
(0.02551389493 -4.676040535e-05 -5.175874384e-12)
(0.2616873106 -0.0003218849934 -7.650438382e-12)
(0.2505593543 -0.0004680845332 -1.288823798e-11)
(0.2338915164 -0.0005713195315 -1.931017704e-11)
(0.2118871513 -0.0005944623519 -2.70126681e-11)
(0.1846923793 -0.0005491732185 -3.55325134e-11)
(0.1524149528 -0.000423454736 -4.509487255e-11)
(0.1151346501 -0.000283875922 -5.288841397e-11)
(0.07288647381 -7.775342376e-05 -4.018788737e-11)
(0.0257397092 -6.121594342e-05 -8.811510062e-12)
(0.2632277124 -0.0004001546517 -4.367323949e-10)
(0.2520887192 -0.00058182168 -1.551187402e-10)
(0.2353983483 -0.0007098675669 -7.417721714e-11)
(0.2133514832 -0.0007385688442 -5.998682064e-11)
(0.1860796035 -0.0006822133917 -7.437435038e-11)
(0.1536700322 -0.0005267622827 -1.146578598e-10)
(0.1161779548 -0.0003537655022 -2.004183743e-10)
(0.07361209974 -9.818240435e-05 -1.418543885e-10)
(0.02602516265 -7.799188993e-05 8.219975121e-12)
(0.2652131699 -0.0004865321103 -1.880056695e-10)
(0.254060173 -0.0007069094042 -1.323411627e-10)
(0.2373401658 -0.00086141769 -9.087388332e-11)
(0.2152358892 -0.0008951495919 -7.83532568e-11)
(0.1878595218 -0.0008255424871 -8.51095882e-11)
(0.1552728318 -0.0006371162924 -1.007689046e-10)
(0.1175014527 -0.000427800838 -1.101568711e-10)
(0.07452537415 -0.0001191886578 -7.506110927e-11)
(0.02637986621 -9.691588002e-05 -1.744803727e-11)
(0.2677302447 -0.0005784477851 -9.853139528e-11)
(0.2565591839 -0.0008394231188 -9.97373071e-11)
(0.2398000579 -0.001020853042 -8.689784428e-11)
(0.2176189316 -0.001058465938 -8.024440312e-11)
(0.1901032286 -0.0009734048358 -8.029295773e-11)
(0.1572835236 -0.0007496878965 -8.031562676e-11)
(0.1191509308 -0.0005025313109 -7.124441077e-11)
(0.07565496414 -0.0001394248886 -4.610683286e-11)
(0.02681348468 -0.0001176998927 -1.365127e-11)
(0.2708722648 -0.0006723723258 -6.170225547e-11)
(0.2596775781 -0.0009740669394 -7.568901575e-11)
(0.2428667269 -0.001181427655 -7.59350506e-11)
(0.2205836691 -0.001221151347 -7.325364415e-11)
(0.1928848913 -0.001118649253 -6.994108407e-11)
(0.159763826 -0.0008586697758 -6.345985143e-11)
(0.1211724741 -0.0005739569614 -5.069019498e-11)
(0.07702913798 -0.0001574177614 -3.132600668e-11)
(0.02733537271 -0.000139955423 -9.530617911e-12)
(0.2747379565 -0.0007639049612 -4.353176521e-11)
(0.2635119979 -0.00110433019 -5.897802134e-11)
(0.2466327228 -0.001335018668 -6.400914018e-11)
(0.2242156644 -0.001374555824 -6.338877554e-11)
(0.1962796282 -0.001253152102 -5.912811656e-11)
(0.162774958 -0.0009576897274 -5.103585135e-11)
(0.1236107614 -0.0006378620589 -3.874153935e-11)
(0.07867464349 -0.000171709243 -2.330478627e-11)
(0.02795419197 -0.0001632175042 -7.082125952e-12)
(0.2794296898 -0.0008479722741 -3.316212807e-11)
(0.2681619389 -0.001222803168 -4.738369938e-11)
(0.2511922124 -0.001472570883 -5.399825401e-11)
(0.2286005206 -0.001509293343 -5.486571884e-11)
(0.2003609729 -0.001368406672 -5.117275628e-11)
(0.1663753098 -0.001040327627 -4.414111258e-11)
(0.1265072287 -0.0006901918223 -3.324128282e-11)
(0.08061556982 -0.0001809948113 -1.993544038e-11)
(0.02867754208 -0.0001869723848 -6.083000873e-12)
(0.2850512757 -0.000919123564 -2.805904808e-11)
(0.2737273114 -0.001321641803 -4.243086574e-11)
(0.2566382567 -0.001584727765 -5.250475265e-11)
(0.23382098 -0.001615964634 -5.816742287e-11)
(0.2051980275 -0.001456230348 -5.114151546e-11)
(0.1706179638 -0.001100674133 -5.149645663e-11)
(0.1298982285 -0.0007274142957 -3.828495615e-11)
(0.08287227468 -0.0001842364595 -2.238876623e-11)
(0.02951162925 -0.0002106851827 -6.759449167e-12)
(0.2917052499 -0.0009719211242 -3.598445838e-11)
(0.2803054733 -0.001393160728 -6.437462898e-11)
(0.2630596034 -0.001662593755 -1.089197268e-10)
(0.2399536667 -0.001685969443 -1.979143812e-10)
(0.2108524509 -0.001509504749 -2.488332022e-11)
(0.1755482448 -0.001133863373 -1.381649169e-10)
(0.1338133287 -0.000746824314 -6.871214865e-11)
(0.08546045839 -0.0001807392445 -3.271517353e-11)
(0.03046099443 -0.0002338240096 -9.095074855e-12)
(0.2994895773 -0.001001400855 -3.893105413e-11)
(0.287987719 -0.001430511213 -6.581479005e-11)
(0.270537068 -0.001698545259 -9.304772782e-11)
(0.247065615 -0.001712308471 -1.107173355e-10)
(0.2173754709 -0.001522843361 -7.297825061e-11)
(0.1812014791 -0.001136507843 -7.877956532e-11)
(0.1382738826 -0.0007467576756 -5.348573806e-11)
(0.08839045207 -0.0001701879315 -2.887144851e-11)
(0.03152831916 -0.0002558794232 -8.326929175e-12)
(0.3084937497 -0.001003552249 -3.633301251e-11)
(0.2968553009 -0.001428361306 -5.814056105e-11)
(0.279139666 -0.001686990025 -7.455800729e-11)
(0.2552108179 -0.001690271709 -7.92554344e-11)
(0.224805159 -0.001493091307 -6.689132863e-11)
(0.1876011506 -0.001106973489 -5.717548931e-11)
(0.143291984 -0.0007266873761 -4.055936132e-11)
(0.091666768 -0.0001526390723 -2.288058835e-11)
(0.03271431994 -0.000276376769 -6.723352633e-12)
(0.3187943297 -0.0009757565713 -3.124663994e-11)
(0.306975121 -0.001383477066 -4.829415709e-11)
(0.2889207151 -0.001624969308 -5.910299933e-11)
(0.2644270555 -0.001617914523 -6.097671574e-11)
(0.2331641978 -0.001419589517 -5.418036578e-11)
(0.1947575963 -0.001045459623 -4.417738944e-11)
(0.1488698689 -0.0006871966022 -3.136093538e-11)
(0.09528792046 -0.0001284819226 -1.791593814e-11)
(0.03401772871 -0.0002948856356 -5.305818164e-12)
(0.3304501869 -0.0009171109338 -2.579727366e-11)
(0.3183953831 -0.001295106938 -3.910830762e-11)
(0.2999142379 -0.001512490562 -4.682615185e-11)
(0.2747333057 -0.001496232628 -4.78835963e-11)
(0.2424583513 -0.001304163003 -4.317213387e-11)
(0.2026673433 -0.0009538804753 -3.510284312e-11)
(0.1549997824 -0.0006298429735 -2.512250102e-11)
(0.09924650979 -9.837305134e-05 -1.455626043e-11)
(0.03543532898 -0.0003110239913 -4.354948968e-12)
(0.3434977487 -0.0008285764263 -2.10209145e-11)
(0.3311415607 -0.001165108881 -3.162838833e-11)
(0.3121319847 -0.001352534521 -3.768024144e-11)
(0.2861279511 -0.00132901636 -3.87864787e-11)
(0.252675722 -0.001150855193 -3.576972422e-11)
(0.2113130695 -0.0008355974659 -2.999699086e-11)
(0.1616642508 -0.0005569567878 -2.241029641e-11)
(0.1035295154 -6.321852807e-05 -1.355800129e-11)
(0.03696207526 -0.0003244893458 -4.147225912e-12)
(0.3579468667 -0.0007129057043 -1.821123437e-11)
(0.3452132193 -0.0009977743157 -2.727444895e-11)
(0.325561478 -0.001150728212 -3.279166812e-11)
(0.2985880175 -0.001122413254 -3.48872353e-11)
(0.2637868853 -0.000965465202 -3.432058435e-11)
(0.2206642038 -0.0006950552113 -3.172809403e-11)
(0.1688367601 -0.0004714098098 -2.670232329e-11)
(0.1081190565 -2.411677519e-05 -1.762519994e-11)
(0.03859089711 -0.000335106514 -5.351102366e-12)
(0.3737777064 -0.0005743830967 -3.294425718e-11)
(0.3605819662 -0.0007994020205 -3.667508668e-11)
(0.3401651933 -0.0009147689619 -3.860364504e-11)
(0.3120694041 -0.0008842937984 -4.098057919e-11)
(0.2757457677 -0.0007549660059 -4.429059639e-11)
(0.2306779691 -0.0005373790294 -4.839141973e-11)
(0.1764827478 -0.0003760425185 -5.000130666e-11)
(0.1129925865 1.67669869e-05 -3.561193379e-11)
(0.04031332732 -0.0003439149091 -8.085292495e-12)
(0.3909394904 -0.0004183838606 -4.352045788e-10)
(0.3771911491 -0.0005776473706 -1.569617055e-10)
(0.355881251 -0.0006536305288 -8.149261071e-11)
(0.3265082646 -0.0006234467884 -6.481725761e-11)
(0.2884912662 -0.0005268542084 -6.993535263e-11)
(0.2413008208 -0.0003677582391 -9.096367691e-11)
(0.1845606128 -0.0002738286594 -1.355160903e-10)
(0.1181224625 5.726181387e-05 -1.01890504e-10)
(0.04212081512 -0.0003518064282 1.002034445e-11)
(0.4093508834 -0.0002508919556 -1.583181059e-10)
(0.3949569305 -0.0003408438866 -1.153215764e-10)
(0.3726251085 -0.000376808516 -8.33248928e-11)
(0.3418229989 -0.0003489224476 -7.115882346e-11)
(0.3019491744 -0.0002887000984 -7.063843875e-11)
(0.2524699441 -0.0001912164422 -7.475373816e-11)
(0.1930231163 -0.0001687313178 -7.447191414e-11)
(0.1234789446 9.719979396e-05 -4.993302023e-11)
(0.04400338704 -0.0003572082072 -1.163256582e-11)
(0.4289032675 -7.803665744e-05 -7.418818623e-11)
(0.4137718918 -9.73555607e-05 -7.799284e-11)
(0.3902932351 -9.360833737e-05 -7.04565787e-11)
(0.3579177124 -6.938969866e-05 -6.431620215e-11)
(0.3160349803 -4.786062947e-05 -6.045247478e-11)
(0.2641170312 -1.177050578e-05 -5.591169817e-11)
(0.2018149824 -6.251205965e-05 -4.660856173e-11)
(0.1290322233 0.0001357089336 -2.939798287e-11)
(0.04594964881 -0.0003602503081 -8.645145872e-12)
(0.4494647964 9.444218683e-05 -4.284837616e-11)
(0.4335088489 0.0001449590933 -5.410914363e-11)
(0.40876648 0.000187288763 -5.53028534e-11)
(0.3746848687 0.0002068430158 -5.254963271e-11)
(0.3306562681 0.000190700291 -4.789922422e-11)
(0.2761665552 0.0001609415448 -4.10573279e-11)
(0.2108834306 4.426559881e-05 -3.129225051e-11)
(0.1347474813 0.0001768508734 -1.883601106e-11)
(0.04794818594 -0.0003624510975 -5.660728777e-12)
(0.4708841621 0.0002612927799 -2.789829865e-11)
(0.4540243493 0.000378875632 -3.829138375e-11)
(0.4279133295 0.0004577787042 -4.160359759e-11)
(0.3920083949 0.0004724025507 -4.026413303e-11)
(0.345715437 0.000419500004 -3.591038969e-11)
(0.2885400769 0.0003269472787 -2.932429522e-11)
(0.2201759051 0.0001494568732 -2.111247197e-11)
(0.1405872305 0.0002168389209 -1.218210178e-11)
(0.04998715795 -0.0003630331788 -3.604720398e-12)
(0.4929970191 0.0004182972672 -1.890249792e-11)
(0.4751645124 0.0005987630114 -2.679087585e-11)
(0.4475948545 0.0007118372859 -2.968090732e-11)
(0.4097676003 0.0007219736094 -2.847944905e-11)
(0.3611119894 0.0006345658463 -2.442244409e-11)
(0.3011596506 0.0004840295896 -1.867205896e-11)
(0.2296328878 0.0002478524834 -1.224203274e-11)
(0.1465181024 0.0002530696112 -6.365508149e-12)
(0.05205493513 -0.0003611772894 -1.749335713e-12)
(0.515633339 0.0005623342145 -1.212564728e-11)
(0.4967713407 0.0008004937413 -1.698698038e-11)
(0.4676696133 0.000945001695 -1.798516493e-11)
(0.42784052 0.0009514111373 -1.549510885e-11)
(0.3767450014 0.0008325650485 -1.082677778e-11)
(0.3139461414 0.0006294409622 -5.855116636e-12)
(0.2391969016 0.0003387147369 -5.171580372e-13)
(0.1525075348 0.0002856980944 2.059543756e-12)
(0.05414021523 -0.0003573162331 1.039712023e-12)
(0.5386232732 0.0006913303039 -5.418027822e-12)
(0.5186877249 0.0009813262609 -6.112114603e-12)
(0.4879977536 0.001154305003 -2.755966485e-12)
(0.4461073023 0.001157928579 4.684433446e-12)
(0.3925160042 0.0010112405 1.343555719e-11)
(0.3268229374 0.000761288619 1.331253733e-11)
(0.2488133885 0.0004212436902 2.326456485e-11)
(0.158522456 0.000314559002 2.137110301e-11)
(0.05623169917 -0.000351799961 7.193419837e-12)
(0.5618018701 0.0008041228578 2.296479233e-12)
(0.540761459 0.001139704939 7.744628194e-12)
(0.5084441978 0.001338040242 2.038519379e-11)
(0.4644525507 0.001339879026 4.503828937e-11)
(0.4083304603 0.001169238538 9.21905336e-11)
(0.3397166411 0.0008784624334 1.92418501e-11)
(0.2584301331 0.0004951256378 9.063485599e-11)
(0.1645313286 0.0003391179051 8.000763454e-11)
(0.05831895356 -0.0003454271069 2.032897296e-11)
(0.5850130949 0.0009003082814 6.728437256e-12)
(0.5628487159 0.00127506788 1.367665391e-11)
(0.5288814707 0.001495564798 2.424513194e-11)
(0.4827675316 0.001496578849 3.77014301e-11)
(0.4240994276 0.001305946495 4.821261487e-11)
(0.3525582954 0.0009804151772 3.765863269e-11)
(0.2679980536 0.0005600419902 4.432917999e-11)
(0.1705042808 0.0003594520759 3.414125984e-11)
(0.06039258179 -0.0003382774736 1.072650815e-11)
(0.6081127568 0.0009800762894 8.090726889e-12)
(0.5848165696 0.001387648251 1.433260157e-11)
(0.5491917486 0.001627088386 2.145765588e-11)
(0.5009517559 0.001628130633 2.811030376e-11)
(0.4397407436 0.001421376829 3.143806812e-11)
(0.365284259 0.001067060353 2.87059704e-11)
(0.2774718944 0.0006157097067 2.550737652e-11)
(0.1764141875 0.0003763146021 1.741618958e-11)
(0.06244346323 -0.0003297512947 5.530402537e-12)
(0.6309704808 0.001044054312 7.746117422e-12)
(0.6065447167 0.001478276385 1.280328068e-11)
(0.5692682875 0.001733484485 1.746857061e-11)
(0.5189141053 0.001735274891 2.083433312e-11)
(0.4551798663 0.001516075193 2.177994429e-11)
(0.3778367896 0.001138711862 1.981856054e-11)
(0.2868106005 0.0006622985297 1.597028078e-11)
(0.1822366562 0.0003897954502 1.011800794e-11)
(0.06446310919 -0.0003200611815 3.149105561e-12)
(0.6534708036 0.001093184175 6.677437095e-12)
(0.6279264654 0.00154821285 1.062224909e-11)
(0.5890162696 0.00181611906 1.374410529e-11)
(0.5365735139 0.00181923033 1.551607759e-11)
(0.4703503858 0.001590986435 1.55214829e-11)
(0.3901643877 0.001195963644 1.373052606e-11)
(0.2959775101 0.0007001518072 1.056357067e-11)
(0.1879497248 0.0004000106739 6.438051751e-12)
(0.06644417492 -0.000309447813 1.972845619e-12)
(0.6755136059 0.001128633929 5.432943611e-12)
(0.6488691552 0.001599029529 8.457969153e-12)
(0.60835318 0.001876721444 1.061490772e-11)
(0.5538592922 0.001881572549 1.160062504e-11)
(0.4851942888 0.001647361201 1.127799637e-11)
(0.4022220036 0.001239638506 9.748665287e-12)
(0.3049405243 0.0007297371326 7.321627202e-12)
(0.19353413 0.0004071020613 4.380005505e-12)
(0.06838021609 -0.0002981334768 1.332058774e-12)
(0.6970139954 0.001151711916 4.306990598e-12)
(0.6692940757 0.001632500009 6.630387288e-12)
(0.627208753 0.001917256601 8.191523133e-12)
(0.5707110973 0.001924116218 8.807362593e-12)
(0.4996619464 0.001686662377 8.444822907e-12)
(0.4139710305 0.001270728152 7.225328919e-12)
(0.313672097 0.00075162205 5.38531308e-12)
(0.1989733226 0.000411259394 3.209261144e-12)
(0.07026569861 -0.0002863131472 9.762341697e-13)
(0.7179017459 0.001163784663 3.479554829e-12)
(0.6891359795 0.001650490886 5.348761605e-12)
(0.645524584 0.001939804323 6.603618974e-12)
(0.5870786395 0.001948812914 7.116191307e-12)
(0.5137119051 0.00171048508 6.868233653e-12)
(0.4253791631 0.001290336378 5.939532043e-12)
(0.3221491465 0.0007664461156 4.48576132e-12)
(0.2042534214 0.0004127129822 2.709743748e-12)
(0.07209597648 -0.0002741548427 8.32959642e-13)
(0.7381203992 0.001166216573 3.140563807e-12)
(0.7083422906 0.001654875322 4.892078593e-12)
(0.6632534909 0.001946469889 6.177749058e-12)
(0.6029211842 0.001957670442 6.869563517e-12)
(0.5273105114 0.001720493529 6.88425562e-12)
(0.4364201289 0.001299632445 6.188446639e-12)
(0.330352877 0.0007748932168 4.840065202e-12)
(0.2093631111 0.0004117220988 3.007481746e-12)
(0.07386725675 -0.0002618019919 9.413706391e-13)
(0.7576261798 0.001160333788 3.643694585e-12)
(0.7268721516 0.001647481558 5.861060412e-12)
(0.680358721 0.001939328651 7.783383772e-12)
(0.6182069216 0.001952687994 9.204292058e-12)
(0.5404314273 0.001718363969 9.805596877e-12)