/*--------------------------------*- C++ -*----------------------------------*\
| =========                 |                                                 |
| \\      /  F ield         | OpenFOAM: The Open Source CFD Toolbox           |
|  \\    /   O peration     | Version:  2106                                  |
|   \\  /    A nd           | Website:  www.openfoam.com                      |
|    \\/     M anipulation  |                                                 |
\*---------------------------------------------------------------------------*/
FoamFile
{
    version     2.0;
    format      ascii;
    arch        "LSB;label=32;scalar=64";
    class       volScalarField;
    location    "79.99952";
    object      AC3H4;
}
// * * * * * * * * * * * * * * * * * * * * * * * * * * * * * * * * * * * * * //

dimensions      [0 0 0 0 0 0 0];

internalField   nonuniform List<scalar> 
3360
(
2.01654e-18
2.08143e-18
2.17174e-18
2.2822e-18
2.40821e-18
2.54564e-18
2.69075e-18
2.84018e-18
2.99092e-18
3.14033e-18
3.2861e-18
3.42629e-18
3.55928e-18
3.68381e-18
3.79888e-18
3.90383e-18
3.99822e-18
4.08188e-18
4.15485e-18
4.21734e-18
4.26972e-18
4.3125e-18
4.3463e-18
4.37179e-18
4.38972e-18
4.40088e-18
4.40606e-18
8.84614e-18
9.1713e-18
9.63013e-18
1.02015e-17
1.0868e-17
1.16143e-17
1.24267e-17
1.32928e-17
1.4201e-17
1.51402e-17
1.61e-17
1.70701e-17
1.80404e-17
1.90009e-17
1.99418e-17
2.08535e-17
2.17264e-17
2.25515e-17
2.332e-17
2.40236e-17
2.46547e-17
2.52068e-17
2.5674e-17
2.60519e-17
2.63371e-17
2.65275e-17
2.66225e-17
2.77565e-17
2.89747e-17
3.07057e-17
3.28809e-17
3.54433e-17
3.83415e-17
4.1527e-17
4.49518e-17
4.85672e-17
5.23237e-17
5.61706e-17
6.00577e-17
6.3935e-17
6.77533e-17
7.14652e-17
7.50253e-17
7.83919e-17
8.15275e-17
8.43995e-17
8.6981e-17
8.9251e-17
9.11949e-17
9.28041e-17
9.40761e-17
9.50138e-17
9.56253e-17
9.5923e-17
8.08362e-17
8.48514e-17
9.05952e-17
9.78622e-17
1.06481e-16
1.1629e-16
1.27128e-16
1.3883e-16
1.5122e-16
1.64113e-16
1.77322e-16
1.90651e-16
2.0391e-16
2.1691e-16
2.29476e-16
2.41444e-16
2.5267e-16
2.63031e-16
2.72428e-16
2.80788e-16
2.88062e-16
2.94224e-16
2.99271e-16
3.03218e-16
3.06099e-16
3.07959e-16
3.08856e-16
2.36176e-16
2.48843e-16
2.66998e-16
2.9002e-16
3.17384e-16
3.48583e-16
3.83098e-16
4.20377e-16
4.59834e-16
5.00848e-16
5.42781e-16
5.84986e-16
6.2683e-16
6.67708e-16
7.0706e-16
7.44385e-16
7.79249e-16
8.11296e-16
8.40249e-16
8.65909e-16
8.88156e-16
9.06941e-16
9.22279e-16
9.34242e-16
9.4295e-16
9.48559e-16
9.51259e-16
6.96376e-16
7.35276e-16
7.91099e-16
8.61951e-16
9.4621e-16
1.04231e-15
1.14862e-15
1.26341e-15
1.38484e-15
1.51095e-15
1.63976e-15
1.76923e-15
1.8974e-15
2.02242e-15
2.14255e-15
2.2563e-15
2.36235e-15
2.45965e-15
2.5474e-15
2.62503e-15
2.69223e-15
2.74887e-15
2.79506e-15
2.83103e-15
2.85717e-15
2.874e-15
2.88209e-15
2.06861e-15
2.18682e-15
2.35644e-15
2.57173e-15
2.82775e-15
3.11967e-15
3.44248e-15
3.79085e-15
4.15909e-15
4.54123e-15
4.93114e-15
5.32271e-15
5.70998e-15
6.08732e-15
6.44961e-15
6.79232e-15
7.11158e-15
7.4043e-15
7.6681e-15
7.90136e-15
8.10316e-15
8.27321e-15
8.4118e-15
8.51972e-15
8.59814e-15
8.6486e-15
8.67285e-15
6.16524e-15
6.52092e-15
7.03157e-15
7.67995e-15
8.45117e-15
9.33068e-15
1.03033e-14
1.13529e-14
1.24621e-14
1.3613e-14
1.47869e-14
1.59654e-14
1.71305e-14
1.82652e-14
1.93543e-14
2.0384e-14
2.13428e-14
2.22215e-14
2.30131e-14
2.37127e-14
2.43176e-14
2.48272e-14
2.52424e-14
2.55655e-14
2.58002e-14
2.59512e-14
2.60237e-14
1.84231e-14
1.94921e-14
2.10265e-14
2.29744e-14
2.52912e-14
2.79327e-14
3.08532e-14
3.40038e-14
3.73325e-14
4.07848e-14
4.43051e-14
4.78378e-14
5.13292e-14
5.47286e-14
5.79899e-14
6.10728e-14
6.39429e-14
6.65726e-14
6.8941e-14
7.10341e-14
7.28439e-14
7.43682e-14
7.561e-14
7.65765e-14
7.72786e-14
7.77302e-14
7.79472e-14
5.50537e-14
5.82551e-14
6.28512e-14
6.86868e-14
7.5627e-14
8.35402e-14
9.22885e-14
1.01725e-13
1.11694e-13
1.22032e-13
1.32572e-13
1.43147e-13
1.53596e-13
1.63768e-13
1.73524e-13
1.82745e-13
1.91327e-13
1.99188e-13
2.06266e-13
2.1252e-13
2.17926e-13
2.22479e-13
2.26186e-13
2.29071e-13
2.31167e-13
2.32514e-13
2.33161e-13
1.64589e-13
1.74172e-13
1.87927e-13
2.05387e-13
2.26149e-13
2.49814e-13
2.7597e-13
3.04176e-13
3.33963e-13
3.64842e-13
3.96313e-13
4.27879e-13
4.59059e-13
4.89401e-13
5.18497e-13
5.45986e-13
5.71565e-13
5.9499e-13
6.16079e-13
6.34708e-13
6.50809e-13
6.64366e-13
6.75406e-13
6.83995e-13
6.90234e-13
6.94245e-13
6.96172e-13
4.91557e-13
5.20163e-13
5.61221e-13
6.13331e-13
6.7528e-13
7.45876e-13
8.23879e-13
9.07967e-13
9.96739e-13
1.08873e-12
1.18245e-12
1.27642e-12
1.3692e-12
1.45945e-12
1.54596e-12
1.62766e-12
1.70365e-12
1.77322e-12
1.83583e-12
1.89112e-12
1.93889e-12
1.97909e-12
2.01182e-12
2.03728e-12
2.05577e-12
2.06765e-12
2.07336e-12
1.46632e-12
1.55156e-12
1.67385e-12
1.82899e-12
2.01333e-12
2.22328e-12
2.45511e-12
2.70487e-12
2.96836e-12
3.24123e-12
3.51902e-12
3.79736e-12
4.07199e-12
4.33898e-12
4.59473e-12
4.83612e-12
5.06053e-12
5.26586e-12
5.45056e-12
5.61358e-12
5.75438e-12
5.87285e-12
5.96926e-12
6.04424e-12
6.09866e-12
6.13364e-12
6.15043e-12
4.3607e-12
4.61346e-12
4.97597e-12
5.43562e-12
5.98144e-12
6.60265e-12
7.28808e-12
8.02588e-12
8.80355e-12
9.60814e-12
1.04265e-11
1.12457e-11
1.20532e-11
1.28374e-11
1.3588e-11
1.42958e-11
1.49533e-11
1.55543e-11
1.60946e-11
1.6571e-11
1.69823e-11
1.73281e-11
1.76093e-11
1.78279e-11
1.79865e-11
1.80884e-11
1.81373e-11
1.29192e-11
1.36644e-11
1.47324e-11
1.60855e-11
1.76906e-11
1.95153e-11
2.15261e-11
2.36876e-11
2.59628e-11
2.83133e-11
3.07005e-11
3.30867e-11
3.54355e-11
3.77135e-11
3.98908e-11
4.19413e-11
4.38436e-11
4.55807e-11
4.71404e-11
4.85146e-11
4.96996e-11
5.06952e-11
5.15044e-11
5.21328e-11
5.25885e-11
5.28811e-11
5.30215e-11
3.80434e-11
4.02189e-11
4.33342e-11
4.72762e-11
5.19459e-11
5.72462e-11
6.30771e-11
6.93336e-11
7.59067e-11
8.26844e-11
8.95547e-11
9.64084e-11
1.03142e-10
1.09661e-10
1.15879e-10
1.21726e-10
1.27141e-10
1.32077e-10
1.36503e-10
1.40397e-10
1.43751e-10
1.46565e-10
1.48849e-10
1.50622e-10
1.51906e-10
1.5273e-10
1.53125e-10
1.11139e-10
1.17406e-10
1.26369e-10
1.37692e-10
1.51078e-10
1.66238e-10
1.82876e-10
2.00683e-10
2.19342e-10
2.38532e-10
2.57931e-10
2.77232e-10
2.96147e-10
3.1441e-10
3.31792e-10
3.48096e-10
3.63163e-10
3.76871e-10
3.89137e-10
3.9991e-10
4.09172e-10
4.16932e-10
4.23224e-10
4.28099e-10
4.31627e-10
4.33888e-10
4.34971e-10
3.21187e-10
3.38908e-10
3.64206e-10
3.96095e-10
4.33696e-10
4.76156e-10
5.22606e-10
5.72156e-10
6.23899e-10
6.76928e-10
7.30353e-10
7.83329e-10
8.35071e-10
8.84874e-10
9.32128e-10
9.76323e-10
1.01705e-09
1.05402e-09
1.08701e-09
1.11593e-09
1.14074e-09
1.16149e-09
1.17828e-09
1.19128e-09
1.20067e-09
1.20668e-09
1.20955e-09
9.15219e-10
9.64103e-10
1.03373e-09
1.12125e-09
1.22409e-09
1.33978e-09
1.46583e-09
1.59973e-09
1.73897e-09
1.88105e-09
2.02358e-09
2.16434e-09
2.30127e-09
2.43257e-09
2.55669e-09
2.67239e-09
2.77868e-09
2.87485e-09
2.96046e-09
3.0353e-09
3.09937e-09
3.15283e-09
3.19603e-09
3.22939e-09
3.25347e-09
3.26886e-09
3.27621e-09
2.56056e-09
2.69117e-09
2.87672e-09
3.1091e-09
3.38105e-09
3.68559e-09
4.01581e-09
4.36486e-09
4.72597e-09
5.09264e-09
5.4587e-09
5.81848e-09
6.16691e-09
6.49957e-09
6.81279e-09
7.10364e-09
7.36989e-09
7.61003e-09
7.82316e-09
8.00896e-09
8.16762e-09
8.29974e-09
8.40625e-09
8.48838e-09
8.54754e-09
8.58531e-09
8.60334e-09
6.99994e-09
7.3356e-09
7.81091e-09
8.40378e-09
9.09434e-09
9.86368e-09
1.06934e-08
1.15655e-08
1.24629e-08
1.33691e-08
1.4269e-08
1.5149e-08
1.59972e-08
1.68034e-08
1.75592e-08
1.82583e-08
1.8896e-08
1.94692e-08
1.99764e-08
2.04173e-08
2.07929e-08
2.1105e-08
2.13561e-08
2.15493e-08
2.16883e-08
2.17769e-08
2.18192e-08
1.85965e-08
1.94207e-08
2.05838e-08
2.20284e-08
2.37026e-08
2.55578e-08
2.75474e-08
2.96268e-08
3.17542e-08
3.38908e-08
3.60015e-08
3.80551e-08
4.00249e-08
4.18889e-08
4.36294e-08
4.52331e-08
4.66908e-08
4.7997e-08
4.91494e-08
5.01486e-08
5.09977e-08
5.17017e-08
5.2267e-08
5.27014e-08
5.30134e-08
5.3212e-08
5.33066e-08
4.7757e-08
4.96823e-08
5.23903e-08
5.57392e-08
5.96019e-08
6.38598e-08
6.84014e-08
7.31224e-08
7.79267e-08
8.27268e-08
8.74453e-08
9.20148e-08
9.63789e-08
1.00492e-07
1.04318e-07
1.07831e-07
1.11014e-07
1.13858e-07
1.16361e-07
1.18526e-07
1.20362e-07
1.21881e-07
1.23099e-07
1.24033e-07
1.24704e-07
1.2513e-07
1.25333e-07
1.18023e-07
1.22296e-07
1.28289e-07
1.35673e-07
1.44152e-07
1.53456e-07
1.63332e-07
1.7355e-07
1.83899e-07
1.94193e-07
2.04269e-07
2.13988e-07
2.23236e-07
2.3192e-07
2.39973e-07
2.47346e-07
2.54009e-07
2.59948e-07
2.65162e-07
2.69664e-07
2.73475e-07
2.76623e-07
2.79144e-07
2.81075e-07
2.82458e-07
2.83337e-07
2.83755e-07
2.79923e-07
2.8896e-07
3.01602e-07
3.17128e-07
3.34897e-07
3.54319e-07
3.74857e-07
3.96023e-07
4.17383e-07
4.38552e-07
4.59202e-07
4.79057e-07
4.97892e-07
5.15533e-07
5.3185e-07
5.46755e-07
5.60196e-07
5.72153e-07
5.82634e-07
5.91669e-07
5.99306e-07
6.05607e-07
6.10646e-07
6.14503e-07
6.17264e-07
6.19016e-07
6.19849e-07
6.36721e-07
6.55031e-07
6.80597e-07
7.11926e-07
7.47684e-07
7.86663e-07
8.27766e-07
8.70008e-07
9.12519e-07
9.54543e-07
9.95437e-07
1.03467e-06
1.0718e-06
1.10652e-06
1.13857e-06
1.1678e-06
1.19412e-06
1.2175e-06
1.23797e-06
1.2556e-06
1.27048e-06
1.28275e-06
1.29255e-06
1.30005e-06
1.30542e-06
1.30882e-06
1.31044e-06
1.3903e-06
1.42612e-06
1.47609e-06
1.53722e-06
1.60688e-06
1.68269e-06
1.76248e-06
1.84435e-06
1.9266e-06
2.00778e-06
2.08666e-06
2.16223e-06
2.23368e-06
2.30039e-06
2.36192e-06
2.41797e-06
2.4684e-06
2.51317e-06
2.55233e-06
2.58603e-06
2.61447e-06
2.6379e-06
2.65661e-06
2.67092e-06
2.68115e-06
2.68764e-06
2.69071e-06
2.91858e-06
2.98681e-06
3.08192e-06
3.19823e-06
3.33067e-06
3.47469e-06
3.6262e-06
3.78154e-06
3.93753e-06
4.09142e-06
4.24088e-06
4.38402e-06
4.51931e-06
4.6456e-06
4.76205e-06
4.86813e-06
4.96355e-06
5.04823e-06
5.12231e-06
5.18605e-06
5.23983e-06
5.28413e-06
5.31951e-06
5.34656e-06
5.3659e-06
5.37816e-06
5.38397e-06
5.89338e-06
6.02061e-06
6.198e-06
6.41498e-06
6.66215e-06
6.93107e-06
7.21413e-06
7.50458e-06
7.79648e-06
8.08471e-06
8.36494e-06
8.63358e-06
8.88777e-06
9.12531e-06
9.34459e-06
9.54455e-06
9.72461e-06
9.8846e-06
1.00247e-05
1.01453e-05
1.02472e-05
1.03312e-05
1.03984e-05
1.04497e-05
1.04865e-05
1.05098e-05
1.05209e-05
1.14231e-05
1.1655e-05
1.19787e-05
1.23751e-05
1.28273e-05
1.33201e-05
1.384e-05
1.43746e-05
1.49132e-05
1.54465e-05
1.59664e-05
1.64663e-05
1.69407e-05
1.73854e-05
1.77972e-05
1.81739e-05
1.85142e-05
1.88175e-05
1.90838e-05
1.93139e-05
1.95087e-05
1.96698e-05
1.97989e-05
1.98979e-05
1.99689e-05
2.00141e-05
2.00356e-05
2.11402e-05
2.15478e-05
2.21173e-05
2.28159e-05
2.36144e-05
2.44867e-05
2.54092e-05
2.63607e-05
2.73223e-05
2.82776e-05
2.92123e-05
3.01144e-05
3.09738e-05
3.17825e-05
3.25344e-05
3.32249e-05
3.38511e-05
3.44114e-05
3.49054e-05
3.53336e-05
3.56977e-05
3.59997e-05
3.62425e-05
3.64293e-05
3.65637e-05
3.66494e-05
3.66903e-05
3.70823e-05
3.77548e-05
3.86948e-05
3.98484e-05
4.11683e-05
4.26114e-05
4.41392e-05
4.57167e-05
4.7313e-05
4.89009e-05
5.04567e-05
5.19601e-05
5.33945e-05
5.47462e-05
5.60046e-05
5.71619e-05
5.82129e-05
5.91544e-05
5.99855e-05
6.0707e-05
6.1321e-05
6.1831e-05
6.22415e-05
6.25577e-05
6.27853e-05
6.29307e-05
6.30001e-05
6.12315e-05
6.22431e-05
6.36555e-05
6.53866e-05
6.73637e-05
6.95213e-05
7.18005e-05
7.41486e-05
7.65189e-05
7.88707e-05
8.11689e-05
8.33841e-05
8.54919e-05
8.74728e-05
8.93123e-05
9.09995e-05
9.25278e-05
9.38937e-05
9.50966e-05
9.61384e-05
9.70232e-05
9.77568e-05
9.83462e-05
9.87994e-05
9.91253e-05
9.9333e-05
9.94321e-05
9.47388e-05
9.61013e-05
9.7999e-05
0.000100317
0.000102955
0.000105821
0.000108834
0.000111923
0.000115025
0.000118086
0.000121062
0.000123914
0.000126613
0.000129136
0.000131468
0.000133595
0.000135513
0.000137219
0.000138716
0.000140006
0.000141098
0.000142
0.000142722
0.000143276
0.000143673
0.000143926
0.000144046
0.000137228
0.000138871
0.000141152
0.000143927
0.00014707
0.000150467
0.000154019
0.000157639
0.000161251
0.000164795
0.000168218
0.00017148
0.000174549
0.000177401
0.000180022
0.000182402
0.000184536
0.000186426
0.000188077
0.000189494
0.000190689
0.000191673
0.000192458
0.000193059
0.000193488
0.00019376
0.00019389
0.000186761
0.000188558
0.000191047
0.000194065
0.000197468
0.00020113
0.000204938
0.0002088
0.000212633
0.000216374
0.000219969
0.000223377
0.000226568
0.000229521
0.000232222
0.000234665
0.000236848
0.000238774
0.00024045
0.000241886
0.000243093
0.000244084
0.000244873
0.000245476
0.000245906
0.000246178
0.000246307
0.000240534
0.000242359
0.00024488
0.00024793
0.000251357
0.000255032
0.000258841
0.000262688
0.000266494
0.000270193
0.000273736
0.000277084
0.000280209
0.000283091
0.000285721
0.000288093
0.000290208
0.00029207
0.000293688
0.000295071
0.000296233
0.000297185
0.000297943
0.000298521
0.000298933
0.000299193
0.000299317
0.000295767
0.000297525
0.000299951
0.000302879
0.000306165
0.00030968
0.000313315
0.000316979
0.000320595
0.000324104
0.000327457
0.00033062
0.000333568
0.000336283
0.000338756
0.000340985
0.00034297
0.000344716
0.000346232
0.000347528
0.000348615
0.000349506
0.000350215
0.000350755
0.00035114
0.000351384
0.0003515
0.000350263
0.000351901
0.000354159
0.000356884
0.000359937
0.000363201
0.000366573
0.000369968
0.000373316
0.000376562
0.000379662
0.000382584
0.000385305
0.000387811
0.000390094
0.000392149
0.00039398
0.00039559
0.000396988
0.000398182
0.000399185
0.000400007
0.000400661
0.000401159
0.000401515
0.00040174
0.000401847
0.000402549
0.000404046
0.00040611
0.0004086
0.000411389
0.00041437
0.000417449
0.000420548
0.000423605
0.000426567
0.000429397
0.000432065
0.000434549
0.000436837
0.000438921
0.000440799
0.000442472
0.000443944
0.000445222
0.000446315
0.000447232
0.000447984
0.000448583
0.000449039
0.000449365
0.000449572
0.00044967
0.000451777
0.000453133
0.000455002
0.000457256
0.000459783
0.000462483
0.000465273
0.000468083
0.000470854
0.000473541
0.000476109
0.00047853
0.000480786
0.000482864
0.000484758
0.000486465
0.000487987
0.000489326
0.00049049
0.000491485
0.000492321
0.000493006
0.000493553
0.000493969
0.000494266
0.000494455
0.000494544
0.000497547
0.00049877
0.000500457
0.000502491
0.000504772
0.000507211
0.000509731
0.00051227
0.000514776
0.000517207
0.000519531
0.000521723
0.000523767
0.00052565
0.000527368
0.000528917
0.000530298
0.000531514
0.000532571
0.000533475
0.000534235
0.000534859
0.000535356
0.000535735
0.000536005
0.000536177
0.000536258
0.000539747
0.000540849
0.00054237
0.000544204
0.000546262
0.000548463
0.000550738
0.000553032
0.000555296
0.000557493
0.000559595
0.000561579
0.000563429
0.000565135
0.000566691
0.000568095
0.000569347
0.00057045
0.000571409
0.00057223
0.00057292
0.000573486
0.000573938
0.000574282
0.000574528
0.000574684
0.000574758
0.000578436
0.000579429
0.000580801
0.000582456
0.000584313
0.0005863
0.000588355
0.000590427
0.000592473
0.00059446
0.00059636
0.000598155
0.00059983
0.000601374
0.000602784
0.000604056
0.00060519
0.00060619
0.00060706
0.000607805
0.00060843
0.000608945
0.000609354
0.000609667
0.00060989
0.000610032
0.000610099
0.000613766
0.000614663
0.000615901
0.000617396
0.000619073
0.000620867
0.000622724
0.000624597
0.000626447
0.000628244
0.000629963
0.000631587
0.000633103
0.000634501
0.000635777
0.000636929
0.000637957
0.000638863
0.000639652
0.000640327
0.000640894
0.00064136
0.000641732
0.000642015
0.000642218
0.000642347
0.000642408
0.00064594
0.00064675
0.000647868
0.000649218
0.000650734
0.000652355
0.000654034
0.000655727
0.0006574
0.000659025
0.000660581
0.00066205
0.000663422
0.000664688
0.000665843
0.000666886
0.000667817
0.000668638
0.000669352
0.000669963
0.000670477
0.0006709
0.000671236
0.000671493
0.000671677
0.000671794
0.000671849
0.000675175
0.000675907
0.000676918
0.000678138
0.000679507
0.000680973
0.000682491
0.000684022
0.000685535
0.000687004
0.000688411
0.000689741
0.000690982
0.000692127
0.000693172
0.000694116
0.000694959
0.000695702
0.000696348
0.000696901
0.000697367
0.000697749
0.000698054
0.000698287
0.000698453
0.000698559
0.000698609
0.000701694
0.000702355
0.000703268
0.000704371
0.000705609
0.000706934
0.000708305
0.000709689
0.000711057
0.000712385
0.000713657
0.000714859
0.000715981
0.000717017
0.000717962
0.000718816
0.000719578
0.00072025
0.000720834
0.000721335
0.000721756
0.000722102
0.000722377
0.000722588
0.000722738
0.000722834
0.000722879
0.00072571
0.000726308
0.000727132
0.000728128
0.000729246
0.000730443
0.000731682
0.000732932
0.000734168
0.000735368
0.000736517
0.000737603
0.000738617
0.000739553
0.000740407
0.000741178
0.000741866
0.000742474
0.000743002
0.000743454
0.000743834
0.000744147
0.000744396
0.000744586
0.000744722
0.000744808
0.000744849
0.000747427
0.000747966
0.000748711
0.00074961
0.000750619
0.000751699
0.000752817
0.000753946
0.000755061
0.000756144
0.000757181
0.000758161
0.000759076
0.000759921
0.000760692
0.000761387
0.000762009
0.000762556
0.000763033
0.000763441
0.000763784
0.000764066
0.000764291
0.000764463
0.000764585
0.000764663
0.0007647
0.000767034
0.00076752
0.000768192
0.000769002
0.000769912
0.000770886
0.000771894
0.000772911
0.000773916
0.000774893
0.000775828
0.000776711
0.000777535
0.000778296
0.000778991
0.000779618
0.000780178
0.000780671
0.000781101
0.000781468
0.000781778
0.000782032
0.000782234
0.000782389
0.000782499
0.000782569
0.000782602
0.000784707
0.000785145
0.000785749
0.000786479
0.000787297
0.000788174
0.000789082
0.000789997
0.000790902
0.000791781
0.000792622
0.000793417
0.000794158
0.000794843
0.000795468
0.000796032
0.000796536
0.000796979
0.000797365
0.000797696
0.000797974
0.000798203
0.000798385
0.000798524
0.000798623
0.000798686
0.000798716
0.000800606
0.000801
0.000801543
0.000802198
0.000802934
0.000803722
0.000804537
0.000805359
0.000806172
0.000806961
0.000807717
0.00080843
0.000809097
0.000809711
0.000810272
0.000810779
0.00081123
0.000811629
0.000811975
0.000812272
0.000812522
0.000812726
0.00081289
0.000813014
0.000813104
0.00081316
0.000813187
0.000814879
0.000815232
0.000815719
0.000816307
0.000816967
0.000817673
0.000818404
0.000819141
0.000819869
0.000820576
0.000821253
0.000821892
0.000822489
0.000823039
0.000823542
0.000823995
0.0008244
0.000824756
0.000825067
0.000825332
0.000825555
0.000825739
0.000825885
0.000825997
0.000826076
0.000826127
0.000826151
0.000827662
0.000827977
0.000828413
0.000828938
0.000829528
0.000830159
0.000830813
0.000831471
0.000832122
0.000832754
0.000833359
0.00083393
0.000834463
0.000834954
0.000835403
0.000835808
0.000836169
0.000836487
0.000836764
0.000837001
0.0008372
0.000837364
0.000837494
0.000837594
0.000837665
0.00083771
0.000837731
0.000839076
0.000839357
0.000839745
0.000840214
0.000840739
0.000841302
0.000841884
0.000842471
0.00084305
0.000843613
0.000844151
0.00084466
0.000845134
0.000845572
0.000845971
0.000846331
0.000846652
0.000846935
0.000847182
0.000847392
0.000847569
0.000847715
0.000847831
0.000847919
0.000847982
0.000848023
0.000848042
0.000849234
0.000849483
0.000849828
0.000850244
0.000850711
0.00085121
0.000851727
0.000852248
0.000852762
0.000853261
0.000853738
0.000854189
0.00085461
0.000854997
0.000855351
0.00085567
0.000855955
0.000856205
0.000856424
0.00085661
0.000856767
0.000856896
0.000856998
0.000857077
0.000857133
0.000857168
0.000857185
0.000858238
0.000858459
0.000858763
0.000859131
0.000859544
0.000859985
0.000860441
0.000860901
0.000861355
0.000861796
0.000862217
0.000862615
0.000862986
0.000863328
0.00086364
0.000863921
0.000864172
0.000864393
0.000864585
0.000864749
0.000864887
0.000865001
0.000865091
0.00086516
0.000865209
0.000865241
0.000865255
0.000866181
0.000866375
0.000866643
0.000866967
0.000867329
0.000867717
0.000868118
0.000868522
0.00086892
0.000869307
0.000869677
0.000870026
0.000870351
0.000870651
0.000870924
0.000871171
0.000871391
0.000871584
0.000871752
0.000871896
0.000872017
0.000872117
0.000872196
0.000872256
0.000872299
0.000872326
0.000872339
0.000873149
0.000873319
0.000873553
0.000873835
0.000874152
0.00087449
0.00087484
0.000875192
0.000875539
0.000875877
0.000876199
0.000876503
0.000876786
0.000877047
0.000877285
0.000877499
0.000877691
0.000877859
0.000878005
0.00087813
0.000878235
0.000878322
0.00087839
0.000878443
0.00087848
0.000878504
0.000878515
0.000879219
0.000879366
0.000879569
0.000879813
0.000880087
0.00088038
0.000880683
0.000880987
0.000881288
0.000881579
0.000881857
0.00088212
0.000882364
0.00088259
0.000882795
0.00088298
0.000883144
0.000883289
0.000883415
0.000883523
0.000883614
0.000883688
0.000883747
0.000883792
0.000883824
0.000883845
0.000883854
0.000884461
0.000884587
0.000884761
0.000884971
0.000885206
0.000885457
0.000885716
0.000885976
0.000886233
0.000886483
0.00088672
0.000886945
0.000887153
0.000887345
0.00088752
0.000887678
0.000887818
0.000887942
0.000888049
0.000888141
0.000888218
0.000888281
0.000888331
0.00088837
0.000888397
0.000888414
0.000888423
0.000888941
0.000889048
0.000889195
0.000889372
0.000889571
0.000889783
0.000890002
0.000890222
0.000890439
0.000890649
0.00089085
0.000891039
0.000891214
0.000891376
0.000891523
0.000891655
0.000891773
0.000891877
0.000891967
0.000892044
0.000892108
0.000892161
0.000892203
0.000892235
0.000892258
0.000892273
0.00089228
0.000892717
0.000892806
0.000892928
0.000893076
0.000893241
0.000893418
0.0008936
0.000893782
0.000893962
0.000894136
0.000894302
0.000894458
0.000894603
0.000894737
0.000894858
0.000894968
0.000895065
0.00089515
0.000895224
0.000895287
0.00089534
0.000895384
0.000895418
0.000895445
0.000895463
0.000895475
0.000895481
0.000895844
0.000895916
0.000896016
0.000896136
0.000896271
0.000896414
0.000896561
0.000896709
0.000896855
0.000896996
0.00089713
0.000897256
0.000897373
0.00089748
0.000897578
0.000897665
0.000897743
0.000897812
0.000897871
0.000897921
0.000897964
0.000897999
0.000898026
0.000898047
0.000898062
0.000898072
0.000898076
0.000898371
0.000898428
0.000898507
0.000898602
0.000898708
0.00089882
0.000898936
0.000899052
0.000899166
0.000899276
0.00089938
0.000899478
0.000899569
0.000899652
0.000899728
0.000899796
0.000899856
0.000899909
0.000899954
0.000899993
0.000900026
0.000900052
0.000900073
0.000900089
0.000900101
0.000900108
0.000900112
0.000900345
0.000900388
0.000900447
0.000900518
0.000900598
0.000900682
0.000900768
0.000900855
0.000900939
0.000901021
0.000901098
0.00090117
0.000901237
0.000901298
0.000901353
0.000901402
0.000901446
0.000901484
0.000901517
0.000901545
0.000901569
0.000901588
0.000901603
0.000901614
0.000901623
0.000901628
0.00090163
0.000901806
0.000901837
0.000901878
0.000901927
0.000901982
0.00090204
0.0009021
0.000902159
0.000902216
0.000902271
0.000902323
0.000902371
0.000902416
0.000902456
0.000902492
0.000902525
0.000902553
0.000902578
0.000902599
0.000902617
0.000902632
0.000902644
0.000902654
0.000902661
0.000902667
0.00090267
0.000902671
0.000902796
0.000902814
0.000902839
0.000902868
0.0009029
0.000902934
0.000902968
0.000903002
0.000903034
0.000903065
0.000903093
0.000903119
0.000903143
0.000903164
0.000903183
0.0009032
0.000903214
0.000903227
0.000903237
0.000903246
0.000903253
0.000903259
0.000903264
0.000903267
0.000903269
0.000903271
0.000903272
0.000903349
0.000903356
0.000903365
0.000903376
0.000903387
0.000903399
0.00090341
0.00090342
0.000903429
0.000903437
0.000903444
0.00090345
0.000903454
0.000903458
0.000903461
0.000903463
0.000903464
0.000903465
0.000903466
0.000903466
0.000903466
0.000903466
0.000903466
0.000903466
0.000903465
0.000903465
0.000903465
0.0009035
0.000903497
0.000903492
0.000903485
0.000903477
0.000903468
0.000903458
0.000903446
0.000903434
0.000903421
0.000903408
0.000903395
0.000903382
0.00090337
0.000903358
0.000903346
0.000903336
0.000903326
0.000903317
0.00090331
0.000903303
0.000903298
0.000903293
0.00090329
0.000903287
0.000903285
0.000903285
0.000903281
0.000903268
0.00090325
0.000903228
0.000903202
0.000903174
0.000903144
0.000903112
0.000903081
0.000903049
0.000903017
0.000902987
0.000902958
0.00090293
0.000902904
0.000902881
0.000902859
0.00090284
0.000902823
0.000902808
0.000902795
0.000902785
0.000902776
0.000902769
0.000902765
0.000902762
0.00090276
0.000902723
0.000902701
0.000902671
0.000902635
0.000902592
0.000902547
0.000902498
0.000902449
0.000902399
0.000902349
0.000902301
0.000902255
0.000902211
0.00090217
0.000902131
0.000902096
0.000902065
0.000902036
0.000902011
0.00090199
0.000901972
0.000901956
0.000901944
0.000901935
0.000901928
0.000901924
0.000901922
0.000901855
0.000901826
0.000901784
0.000901734
0.000901677
0.000901616
0.000901551
0.000901485
0.000901418
0.000901353
0.000901289
0.000901228
0.000901171
0.000901117
0.000901067
0.000901022
0.000900981
0.000900945
0.000900913
0.000900885
0.000900862
0.000900842
0.000900827
0.000900815
0.000900806
0.000900801
0.000900798
0.000900706
0.00090067
0.000900618
0.000900556
0.000900486
0.00090041
0.00090033
0.000900249
0.000900167
0.000900087
0.00090001
0.000899936
0.000899866
0.000899801
0.000899741
0.000899686
0.000899637
0.000899593
0.000899555
0.000899522
0.000899494
0.000899471
0.000899452
0.000899438
0.000899428
0.000899421
0.000899418
0.000899306
0.000899262
0.000899202
0.000899129
0.000899047
0.000898958
0.000898865
0.00089877
0.000898675
0.000898582
0.000898492
0.000898407
0.000898326
0.000898251
0.000898181
0.000898118
0.000898062
0.000898011
0.000897967
0.000897929
0.000897897
0.000897871
0.000897849
0.000897833
0.000897821
0.000897814
0.00089781
0.000897682
0.000897633
0.000897565
0.000897483
0.00089739
0.000897289
0.000897184
0.000897078
0.000896971
0.000896867
0.000896766
0.00089667
0.000896579
0.000896495
0.000896418
0.000896348
0.000896284
0.000896228
0.000896179
0.000896137
0.000896101
0.000896072
0.000896048
0.00089603
0.000896017
0.000896009
0.000896005
0.000895866
0.000895812
0.000895737
0.000895647
0.000895544
0.000895434
0.000895319
0.000895202
0.000895085
0.000894971
0.000894861
0.000894756
0.000894658
0.000894566
0.000894482
0.000894405
0.000894336
0.000894275
0.000894222
0.000894176
0.000894137
0.000894105
0.000894079
0.00089406
0.000894046
0.000894037
0.000894032
0.000893888
0.00089383
0.00089375
0.000893653
0.000893543
0.000893424
0.000893301
0.000893175
0.00089305
0.000892928
0.00089281
0.000892698
0.000892592
0.000892494
0.000892404
0.000892322
0.000892249
0.000892184
0.000892127
0.000892078
0.000892037
0.000892003
0.000891975
0.000891954
0.000891939
0.00089193
0.000891925
0.000891782
0.00089172
0.000891636
0.000891533
0.000891417
0.000891292
0.000891162
0.00089103
0.000890898
0.00089077
0.000890646
0.000890528
0.000890417
0.000890314
0.00089022
0.000890134
0.000890057
0.000889989
0.000889929
0.000889878
0.000889835
0.000889799
0.000889771
0.000889749
0.000889733
0.000889723
0.000889718
0.000889581
0.000889517
0.000889429
0.000889323
0.000889202
0.000889073
0.000888938
0.000888801
0.000888665
0.000888532
0.000888404
0.000888282
0.000888168
0.000888062
0.000887964
0.000887876
0.000887796
0.000887726
0.000887665
0.000887612
0.000887567
0.000887531
0.000887501
0.000887479
0.000887462
0.000887452
0.000887447
0.000887322
0.000887257
0.000887167
0.000887058
0.000886935
0.000886803
0.000886666
0.000886526
0.000886387
0.000886252
0.000886122
0.000885998
0.000885881
0.000885773
0.000885674
0.000885584
0.000885504
0.000885432
0.00088537
0.000885316
0.000885271
0.000885234
0.000885204
0.000885181
0.000885165
0.000885154
0.000885149
0.000885041
0.000884975
0.000884885
0.000884776
0.000884652
0.000884519
0.000884381
0.000884241
0.000884102
0.000883966
0.000883836
0.000883712
0.000883595
0.000883487
0.000883388
0.000883298
0.000883217
0.000883146
0.000883083
0.00088303
0.000882984
0.000882947
0.000882917
0.000882894
0.000882878
0.000882868
0.000882863
0.000882776
0.000882711
0.000882621
0.000882513
0.000882391
0.000882259
0.000882123
0.000881984
0.000881847
0.000881713
0.000881584
0.000881461
0.000881346
0.000881239
0.000881142
0.000881053
0.000880973
0.000880903
0.000880841
0.000880789
0.000880744
0.000880707
0.000880678
0.000880655
0.000880639
0.000880629
0.000880624
0.000880562
0.000880499
0.000880411
0.000880305
0.000880186
0.000880058
0.000879925
0.00087979
0.000879656
0.000879526
0.0008794
0.000879281
0.000879169
0.000879066
0.000878971
0.000878884
0.000878807
0.000878739
0.000878679
0.000878628
0.000878585
0.000878549
0.00087852
0.000878499
0.000878483
0.000878473
0.000878468
0.000878432
0.000878371
0.000878287
0.000878186
0.000878071
0.000877948
0.00087782
0.000877691
0.000877563
0.000877437
0.000877317
0.000877203
0.000877096
0.000876997
0.000876906
0.000876823
0.000876749
0.000876684
0.000876627
0.000876578
0.000876537
0.000876502
0.000876475
0.000876454
0.000876439
0.00087643
0.000876425
0.000876415
0.000876357
0.000876278
0.000876181
0.000876073
0.000875957
0.000875836
0.000875714
0.000875592
0.000875474
0.00087536
0.000875253
0.000875152
0.000875058
0.000874972
0.000874895
0.000874825
0.000874764
0.00087471
0.000874664
0.000874625
0.000874593
0.000874567
0.000874548
0.000874533
0.000874524
0.00087452
0.000874534
0.00087448
0.000874406
0.000874316
0.000874215
0.000874106
0.000873994
0.00087388
0.000873767
0.000873657
0.000873551
0.000873451
0.000873357
0.000873271
0.000873191
0.000873119
0.000873055
0.000872998
0.000872948
0.000872905
0.000872869
0.000872839
0.000872815
0.000872797
0.000872784
0.000872776
0.000872772
0.000872806
0.000872756
0.000872688
0.000872606
0.000872513
0.000872414
0.00087231
0.000872206
0.000872103
0.000872002
0.000871905
0.000871814
0.000871728
0.000871649
0.000871577
0.000871511
0.000871452
0.0008714
0.000871355
0.000871316
0.000871283
0.000871256
0.000871234
0.000871218
0.000871206
0.000871198
0.000871195
0.000871245
0.000871201
0.000871139
0.000871065
0.000870981
0.000870891
0.000870799
0.000870705
0.000870612
0.000870521
0.000870435
0.000870353
0.000870276
0.000870205
0.00087014
0.000870081
0.000870029
0.000869982
0.000869942
0.000869907
0.000869878
0.000869854
0.000869835
0.00086982
0.000869809
0.000869803
0.000869799
0.000869862
0.000869822
0.000869768
0.000869702
0.000869628
0.000869549
0.000869468
0.000869385
0.000869303
0.000869224
0.000869148
0.000869076
0.000869009
0.000868947
0.00086889
0.000868839