/*--------------------------------*- C++ -*----------------------------------*\
| =========                 |                                                 |
| \\      /  F ield         | OpenFOAM: The Open Source CFD Toolbox           |
|  \\    /   O peration     | Version:  2106                                  |
|   \\  /    A nd           | Website:  www.openfoam.com                      |
|    \\/     M anipulation  |                                                 |
\*---------------------------------------------------------------------------*/
FoamFile
{
    version     2.0;
    format      ascii;
    arch        "LSB;label=32;scalar=64";
    class       volScalarField;
    location    "79.99952";
    object      C2H5;
}
// * * * * * * * * * * * * * * * * * * * * * * * * * * * * * * * * * * * * * //

dimensions      [0 0 0 0 0 0 0];

internalField   nonuniform List<scalar> 
3360
(
2.40601e-22
2.48344e-22
2.59119e-22
2.72298e-22
2.87333e-22
3.03731e-22
3.21045e-22
3.38874e-22
3.56859e-22
3.74685e-22
3.92078e-22
4.08804e-22
4.24673e-22
4.3953e-22
4.5326e-22
4.65782e-22
4.77044e-22
4.87026e-22
4.95732e-22
5.03188e-22
5.09438e-22
5.14543e-22
5.18575e-22
5.21616e-22
5.23756e-22
5.25087e-22
5.25705e-22
1.05547e-21
1.09427e-21
1.14901e-21
1.21719e-21
1.29671e-21
1.38575e-21
1.48268e-21
1.58602e-21
1.69438e-21
1.80644e-21
1.92096e-21
2.03671e-21
2.15248e-21
2.26708e-21
2.37934e-21
2.48811e-21
2.59227e-21
2.69072e-21
2.7824e-21
2.86635e-21
2.94166e-21
3.00752e-21
3.06327e-21
3.10836e-21
3.14239e-21
3.16511e-21
3.17644e-21
3.31174e-21
3.45709e-21
3.66363e-21
3.92316e-21
4.22888e-21
4.57469e-21
4.95476e-21
5.36338e-21
5.79475e-21
6.24296e-21
6.70195e-21
7.16573e-21
7.62835e-21
8.08393e-21
8.52681e-21
8.95158e-21
9.35327e-21
9.72739e-21
1.00701e-20
1.03781e-20
1.06489e-20
1.08808e-20
1.10728e-20
1.12246e-20
1.13365e-20
1.14095e-20
1.1445e-20
9.64491e-21
1.0124e-20
1.08093e-20
1.16764e-20
1.27046e-20
1.3875e-20
1.51682e-20
1.65644e-20
1.80426e-20
1.95811e-20
2.1157e-20
2.27474e-20
2.43293e-20
2.58805e-20
2.73798e-20
2.88077e-20
3.01471e-20
3.13833e-20
3.25045e-20
3.3502e-20
3.43699e-20
3.51051e-20
3.57073e-20
3.61783e-20
3.65219e-20
3.67439e-20
3.68509e-20
2.81792e-20
2.96905e-20
3.18566e-20
3.46035e-20
3.78684e-20
4.15909e-20
4.5709e-20
5.01569e-20
5.48647e-20
5.97583e-20
6.47615e-20
6.97971e-20
7.47897e-20
7.9667e-20
8.43623e-20
8.88157e-20
9.29755e-20
9.67992e-20
1.00254e-19
1.03315e-19
1.0597e-19
1.08211e-19
1.10041e-19
1.11468e-19
1.12507e-19
1.13177e-19
1.13499e-19
8.30875e-20
8.77288e-20
9.43893e-20
1.02843e-19
1.12896e-19
1.24362e-19
1.37046e-19
1.50743e-19
1.65231e-19
1.80278e-19
1.95646e-19
2.11094e-19
2.26387e-19
2.41303e-19
2.55637e-19
2.69208e-19
2.81862e-19
2.93471e-19
3.03941e-19
3.13203e-19
3.21221e-19
3.2798e-19
3.3349e-19
3.37782e-19
3.40901e-19
3.42909e-19
3.43874e-19
2.46815e-19
2.60918e-19
2.81157e-19
3.06844e-19
3.37391e-19
3.72221e-19
4.10737e-19
4.52302e-19
4.96238e-19
5.41833e-19
5.88355e-19
6.35075e-19
6.81281e-19
7.26304e-19
7.69531e-19
8.1042e-19
8.48513e-19
8.83438e-19
9.14913e-19
9.42745e-19
9.66822e-19
9.87112e-19
1.00365e-18
1.01652e-18
1.02588e-18
1.0319e-18
1.03479e-18
7.35601e-19
7.78038e-19
8.38966e-19
9.16327e-19
1.00835e-18
1.11328e-18
1.22933e-18
1.35456e-18
1.48691e-18
1.62422e-18
1.76429e-18
1.9049e-18
2.04391e-18
2.1793e-18
2.30924e-18
2.4321e-18
2.5465e-18
2.65134e-18
2.74579e-18
2.82926e-18
2.90144e-18
2.96224e-18
3.01177e-18
3.05033e-18
3.07833e-18
3.09635e-18
3.105e-18
2.19814e-18
2.32568e-18
2.50876e-18
2.74118e-18
3.0176e-18
3.33277e-18
3.68122e-18
4.05713e-18
4.45429e-18
4.86621e-18
5.28623e-18
5.70773e-18
6.1243e-18
6.5299e-18
6.91903e-18
7.28686e-18
7.6293e-18
7.94306e-18
8.22565e-18
8.47538e-18
8.69132e-18
8.87319e-18
9.02135e-18
9.13667e-18
9.22045e-18
9.27433e-18
9.30022e-18
6.56869e-18
6.95066e-18
7.49905e-18
8.19531e-18
9.02339e-18
9.96754e-18
1.10113e-17
1.21373e-17
1.33267e-17
1.45602e-17
1.58178e-17
1.70795e-17
1.83262e-17
1.95399e-17
2.0704e-17
2.18041e-17
2.2828e-17
2.37659e-17
2.46105e-17
2.53567e-17
2.60017e-17
2.65449e-17
2.69872e-17
2.73315e-17
2.75815e-17
2.77422e-17
2.78195e-17
1.96379e-17
2.07812e-17
2.24224e-17
2.45057e-17
2.69828e-17
2.98064e-17
3.29272e-17
3.62925e-17
3.98466e-17
4.35309e-17
4.72859e-17
5.10521e-17
5.47723e-17
5.83926e-17
6.18641e-17
6.5144e-17
6.81959e-17
7.09909e-17
7.35071e-17
7.57298e-17
7.76509e-17
7.92684e-17
8.05856e-17
8.16105e-17
8.23548e-17
8.28334e-17
8.30633e-17
5.86498e-17
6.20629e-17
6.69617e-17
7.31792e-17
8.05706e-17
8.89937e-17
9.83006e-17
1.08333e-16
1.18925e-16
1.29901e-16
1.41083e-16
1.52295e-16
1.63365e-16
1.74133e-16
1.84455e-16
1.94203e-16
2.03271e-16
2.11571e-16
2.19041e-16
2.25638e-16
2.31337e-16
2.36134e-16
2.4004e-16
2.43077e-16
2.45283e-16
2.46701e-16
2.47382e-16
1.74953e-16
1.85123e-16
1.99714e-16
2.18225e-16
2.40219e-16
2.65269e-16
2.9293e-16
3.2273e-16
3.54168e-16
3.86725e-16
4.1987e-16
4.53079e-16
4.85847e-16
5.17703e-16
5.48217e-16
5.77019e-16
6.03794e-16
6.28293e-16
6.5033e-16
6.69781e-16
6.86581e-16
7.00715e-16
7.12219e-16
7.21164e-16
7.27658e-16
7.31831e-16
7.33835e-16
5.20295e-16
5.50453e-16
5.93705e-16
6.48549e-16
7.13673e-16
7.87792e-16
8.69574e-16
9.57603e-16
1.05039e-15
1.14639e-15
1.24403e-15
1.34177e-15
1.43812e-15
1.53169e-15
1.62125e-15
1.7057e-15
1.78414e-15
1.85586e-15
1.92031e-15
1.97716e-15
2.02623e-15
2.06749e-15
2.10105e-15
2.12713e-15
2.14605e-15
2.15821e-15
2.16404e-15
1.54145e-15
1.63036e-15
1.7578e-15
1.91924e-15
2.11075e-15
2.32846e-15
2.56838e-15
2.82628e-15
3.09774e-15
3.37818e-15
3.66302e-15
3.94772e-15
4.22797e-15
4.49977e-15
4.75955e-15
5.00421e-15
5.23118e-15
5.43844e-15
5.62453e-15
5.7885e-15
5.92989e-15
6.04867e-15
6.14522e-15
6.2202e-15
6.27457e-15
6.30948e-15
6.32623e-15
4.53917e-15
4.79874e-15
5.17043e-15
5.64077e-15
6.19793e-15
6.83033e-15
7.52604e-15
8.27253e-15
9.0568e-15
9.86547e-15
1.06852e-14
1.15029e-14
1.23064e-14
1.30841e-14
1.38261e-14
1.45237e-14
1.51697e-14
1.57587e-14
1.62868e-14
1.67514e-14
1.71515e-14
1.74873e-14
1.77599e-14
1.79714e-14
1.81246e-14
1.82229e-14
1.827e-14
1.32608e-14
1.40085e-14
1.50779e-14
1.64288e-14
1.8026e-14
1.98348e-14
2.18199e-14
2.39446e-14
2.61709e-14
2.84604e-14
3.0775e-14
3.3078e-14
3.53347e-14
3.75138e-14
3.95877e-14
4.15329e-14
4.33306e-14
4.49662e-14
4.64296e-14
4.7715e-14
4.88201e-14
4.9746e-14
5.04967e-14
5.10784e-14
5.14993e-14
5.17691e-14
5.18983e-14
3.8324e-14
4.04383e-14
4.34567e-14
4.72614e-14
5.17477e-14
5.68137e-14
6.23557e-14
6.82677e-14
7.44413e-14
8.07682e-14
8.71425e-14
9.34632e-14
9.96366e-14
1.05579e-13
1.11217e-13
1.1649e-13
1.21349e-13
1.2576e-13
1.29696e-13
1.33146e-13
1.36107e-13
1.38582e-13
1.40586e-13
1.42136e-13
1.43257e-13
1.43974e-13
1.44317e-13
1.0921e-13
1.15043e-13
1.2335e-13
1.33791e-13
1.46061e-13
1.59864e-13
1.74903e-13
1.90879e-13
2.0749e-13
2.24442e-13
2.41448e-13
2.58241e-13
2.74578e-13
2.90243e-13
3.05052e-13
3.18856e-13
3.31537e-13
3.43011e-13
3.53226e-13
3.62155e-13
3.69799e-13
3.76178e-13
3.81331e-13
3.85312e-13
3.88184e-13
3.9002e-13
3.90898e-13
3.05587e-13
3.2117e-13
3.43305e-13
3.71027e-13
4.0347e-13
4.39801e-13
4.79195e-13
5.20835e-13
5.63916e-13
6.07659e-13
6.51329e-13
6.94251e-13
7.35817e-13
7.75504e-13
8.12872e-13
8.4757e-13
8.79334e-13
9.07983e-13
9.3341e-13
9.55577e-13
9.74506e-13
9.90267e-13
1.00297e-12
1.01277e-12
1.01983e-12
1.02434e-12
1.02649e-12
8.35687e-13
8.7572e-13
9.32407e-13
1.00311e-12
1.08547e-12
1.17723e-12
1.27618e-12
1.3802e-12
1.48722e-12
1.5953e-12
1.70264e-12
1.8076e-12
1.90876e-12
2.00491e-12
2.09507e-12
2.17845e-12
2.25451e-12
2.32288e-12
2.38338e-12
2.43598e-12
2.48078e-12
2.518e-12
2.54795e-12
2.57101e-12
2.58758e-12
2.59815e-12
2.60319e-12
2.222e-12
2.32022e-12
2.45882e-12
2.63095e-12
2.83046e-12
3.05153e-12
3.28861e-12
3.5364e-12
3.78992e-12
4.04454e-12
4.29608e-12
4.54082e-12
4.77559e-12
4.99775e-12
5.2052e-12
5.39635e-12
5.5701e-12
5.72579e-12
5.86316e-12
5.98228e-12
6.08351e-12
6.16743e-12
6.23482e-12
6.28661e-12
6.3238e-12
6.34748e-12
6.35876e-12
5.71793e-12
5.94678e-12
6.26865e-12
6.66669e-12
7.12577e-12
7.6318e-12
8.17153e-12
8.73259e-12
9.30355e-12
9.87404e-12
1.04348e-11
1.0978e-11
1.14967e-11
1.19856e-11
1.24405e-11
1.28582e-11
1.32367e-11
1.35749e-11
1.38725e-11
1.413e-11
1.43483e-11
1.4529e-11
1.46739e-11
1.47851e-11
1.48648e-11
1.49155e-11
1.49396e-11
1.42009e-11
1.47052e-11
1.54122e-11
1.6283e-11
1.72828e-11
1.83793e-11
1.95429e-11
2.07465e-11
2.19653e-11
2.31773e-11
2.43635e-11
2.55075e-11
2.6596e-11
2.76183e-11
2.85663e-11
2.94343e-11
3.02188e-11
3.0918e-11
3.15321e-11
3.20624e-11
3.25113e-11
3.28823e-11
3.31793e-11
3.34069e-11
3.357e-11
3.36736e-11
3.37229e-11
3.40693e-11
3.5115e-11
3.65759e-11
3.83671e-11
4.04129e-11
4.26444e-11
4.49987e-11
4.74195e-11
4.98569e-11
5.22672e-11
5.46134e-11
5.68647e-11
5.89965e-11
6.09896e-11
6.28303e-11
6.45093e-11
6.60214e-11
6.73651e-11
6.85418e-11
6.95552e-11
7.04112e-11
7.11171e-11
7.16814e-11
7.21132e-11
7.24222e-11
7.26184e-11
7.27116e-11
7.93953e-11
8.14158e-11
8.42214e-11
8.76336e-11
9.14927e-11
9.56541e-11
9.99887e-11
1.04383e-10
1.08738e-10
1.12973e-10
1.17021e-10
1.20831e-10
1.24365e-10
1.27599e-10
1.3052e-10
1.33126e-10
1.3542e-10
1.37413e-10
1.39121e-10
1.4056e-10
1.4175e-10
1.42713e-10
1.43468e-10
1.44036e-10
1.44436e-10
1.44687e-10
1.44804e-10
1.80583e-10
1.84139e-10
1.89002e-10
1.94792e-10
2.01164e-10
2.07811e-10
2.14466e-10
2.20908e-10
2.26965e-10
2.32509e-10
2.37457e-10
2.41766e-10
2.45426e-10
2.48455e-10
2.50892e-10
2.52791e-10
2.54216e-10
2.55235e-10
2.55917e-10
2.5633e-10
2.56537e-10
2.56596e-10
2.56559e-10
2.56468e-10
2.56361e-10
2.56268e-10
2.56213e-10
3.9044e-10
3.96046e-10
4.03557e-10
4.12245e-10
4.21455e-10
4.3062e-10
4.39269e-10
4.4704e-10
4.5368e-10
4.59038e-10
4.63055e-10
4.6575e-10
4.67203e-10
4.67541e-10
4.6692e-10
4.65514e-10
4.63506e-10
4.61073e-10
4.58385e-10
4.55598e-10
4.52853e-10
4.50273e-10
4.4796e-10
4.46002e-10
4.44469e-10
4.43412e-10
4.42871e-10
7.71429e-10
7.82018e-10
7.96338e-10
8.13146e-10
8.31342e-10
8.49984e-10
8.683e-10
8.85693e-10
9.01729e-10
9.16121e-10
9.28707e-10
9.39428e-10
9.48301e-10
9.55408e-10
9.60871e-10
9.64841e-10
9.67493e-10
9.69009e-10
9.69582e-10
9.69404e-10
9.68665e-10
9.67552e-10
9.66243e-10
9.64908e-10
9.63704e-10
9.62776e-10
9.62255e-10
1.406e-09
1.43613e-09
1.47842e-09
1.53066e-09
1.59094e-09
1.6576e-09
1.72914e-09
1.80422e-09
1.88161e-09
1.96019e-09
2.03891e-09
2.11678e-09
2.19288e-09
2.26636e-09
2.33642e-09
2.40239e-09
2.46365e-09
2.51971e-09
2.57018e-09
2.6148e-09
2.6534e-09
2.68593e-09
2.71241e-09
2.73298e-09
2.74788e-09
2.75741e-09
2.76196e-09
2.54561e-09
2.63478e-09
2.76256e-09
2.9246e-09
3.11747e-09
3.33807e-09
3.5835e-09
3.8508e-09
4.13688e-09
4.43849e-09
4.75211e-09
5.074e-09
5.40019e-09
5.72627e-09
6.04781e-09
6.36045e-09
6.66e-09
6.94254e-09
7.20452e-09
7.44283e-09
7.65486e-09
7.83855e-09
7.9924e-09
8.11547e-09
8.20737e-09
8.26798e-09
8.29782e-09
4.84709e-09
5.06601e-09
5.3822e-09
5.78732e-09
6.27523e-09
6.84003e-09
7.47572e-09
8.17581e-09
8.93291e-09
9.73863e-09
1.05834e-08
1.14567e-08
1.23471e-08
1.32424e-08
1.41304e-08
1.49986e-08
1.5835e-08
1.66281e-08
1.73673e-08
1.80435e-08
1.86486e-08
1.9176e-08
1.96208e-08
1.99783e-08
2.02462e-08
2.0424e-08
2.05121e-08
9.50849e-09
9.94419e-09
1.0572e-08
1.13735e-08
1.23339e-08
1.34396e-08
1.46771e-08
1.60313e-08
1.74854e-08
1.9021e-08
2.06181e-08
2.22549e-08
2.39092e-08
2.55585e-08
2.71804e-08
2.87532e-08
3.02566e-08
3.16718e-08
3.29823e-08
3.41736e-08
3.5234e-08
3.6152e-08
3.69208e-08
3.75358e-08
3.79949e-08
3.82983e-08
3.84481e-08
1.77523e-08
1.84413e-08
1.94262e-08
2.06704e-08
2.21427e-08
2.38139e-08
2.5655e-08
2.76365e-08
2.97282e-08
3.18989e-08
3.41176e-08
3.63529e-08
3.85747e-08
4.0754e-08
4.28636e-08
4.48789e-08
4.67779e-08
4.85417e-08
5.01543e-08
5.16033e-08
5.2879e-08
5.39721e-08
5.48786e-08
5.55974e-08
5.61297e-08
5.64789e-08
5.66501e-08
2.96154e-08
3.04819e-08
3.17079e-08
3.32362e-08
3.50166e-08
3.70024e-08
3.91495e-08
4.14156e-08
4.37603e-08
4.61453e-08
4.85346e-08
5.08953e-08
5.31972e-08
5.54139e-08
5.75221e-08
5.95025e-08
6.1339e-08
6.30191e-08
6.45337e-08
6.58766e-08
6.70443e-08
6.8036e-08
6.88497e-08
6.94887e-08
6.99577e-08
7.02628e-08
7.04113e-08
4.33452e-08
4.42279e-08
4.54641e-08
4.69854e-08
4.87307e-08
5.06448e-08
5.26773e-08
5.47825e-08
5.69193e-08
5.90515e-08
6.11472e-08
6.31794e-08
6.51254e-08
6.69668e-08
6.8689e-08
7.02809e-08
7.1735e-08
7.30462e-08
7.42122e-08
7.52328e-08
7.61096e-08
7.68456e-08
7.74452e-08
7.79137e-08
7.82547e-08
7.84747e-08
7.85811e-08
5.63383e-08
5.70851e-08
5.81218e-08
5.93827e-08
6.081e-08
6.23518e-08
6.39627e-08
6.56033e-08
6.72402e-08
6.88455e-08
7.03964e-08
7.18751e-08
7.32679e-08
7.45648e-08
7.57592e-08
7.68471e-08
7.78267e-08
7.86983e-08
7.94634e-08
8.01248e-08
8.06862e-08
8.1152e-08
8.15269e-08
8.1816e-08
8.20248e-08
8.21585e-08
8.22227e-08
6.65885e-08
6.7122e-08
6.78567e-08
6.8741e-08
6.97295e-08
7.07825e-08
7.18664e-08
7.29529e-08
7.40194e-08
7.5048e-08
7.60255e-08
7.69421e-08
7.77914e-08
7.85698e-08
7.92756e-08
7.99088e-08
8.04709e-08
8.09642e-08
8.13916e-08
8.17565e-08
8.20627e-08
8.23139e-08
8.25141e-08
8.26671e-08
8.27766e-08
8.28462e-08
8.28793e-08
7.3321e-08
7.36383e-08
7.40714e-08
7.45865e-08
7.51542e-08
7.57492e-08
7.63508e-08
7.69424e-08
7.75112e-08
7.80482e-08
7.85472e-08
7.90045e-08
7.94185e-08
7.97889e-08
8.01169e-08
8.04042e-08
8.06532e-08
8.08666e-08
8.10472e-08
8.11979e-08
8.13216e-08
8.1421e-08
8.14985e-08
8.15566e-08
8.15974e-08
8.16228e-08
8.16348e-08
7.6755e-08
7.68947e-08
7.70822e-08
7.73001e-08
7.75333e-08
7.77694e-08
7.79986e-08
7.82134e-08
7.84092e-08
7.85829e-08
7.87334e-08
7.88607e-08
7.89658e-08
7.90504e-08
7.91165e-08
7.91667e-08
7.92031e-08
7.92282e-08
7.92442e-08
7.92532e-08
7.92569e-08
7.92571e-08
7.9255e-08
7.92517e-08
7.92484e-08
7.92456e-08
7.9244e-08
7.75855e-08
7.75975e-08
7.76093e-08
7.76162e-08
7.7614e-08
7.75998e-08
7.75717e-08
7.75292e-08
7.74726e-08
7.74031e-08
7.73225e-08
7.72331e-08
7.71372e-08
7.70374e-08
7.69362e-08
7.68357e-08
7.67383e-08
7.66456e-08
7.65592e-08
7.64805e-08
7.64104e-08
7.63498e-08
7.62991e-08
7.62587e-08
7.62286e-08
7.62088e-08
7.61991e-08
7.65876e-08
7.65163e-08
7.64141e-08
7.62847e-08
7.61315e-08
7.59579e-08
7.57673e-08
7.55635e-08
7.53499e-08
7.51304e-08
7.49085e-08
7.46876e-08
7.44708e-08
7.42608e-08
7.40602e-08
7.38711e-08
7.36953e-08
7.3534e-08
7.33884e-08
7.32593e-08
7.3147e-08
7.30517e-08
7.29735e-08
7.2912e-08
7.28668e-08
7.28375e-08
7.28232e-08
7.44222e-08
7.43014e-08
7.41316e-08
7.3922e-08
7.36804e-08
7.34141e-08
7.31297e-08
7.28335e-08
7.25309e-08
7.22271e-08
7.19264e-08
7.16328e-08
7.13497e-08
7.108e-08
7.0826e-08
7.05896e-08
7.03723e-08
7.01751e-08
6.99987e-08
6.98435e-08
6.97095e-08
6.95966e-08
6.95044e-08
6.94323e-08
6.93796e-08
6.93455e-08
6.93289e-08
7.1584e-08
7.1437e-08
7.12317e-08
7.09801e-08
7.06927e-08
7.03789e-08
7.0047e-08
6.97046e-08
6.93581e-08
6.90133e-08
6.86749e-08
6.83471e-08
6.80333e-08
6.77364e-08
6.74585e-08
6.72014e-08
6.69662e-08
6.67537e-08
6.65645e-08
6.63986e-08
6.62559e-08
6.6136e-08
6.60384e-08
6.59622e-08
6.59067e-08
6.58707e-08
6.58533e-08
6.84144e-08
6.82562e-08
6.80361e-08
6.77674e-08
6.74616e-08
6.71293e-08
6.67794e-08
6.64202e-08
6.60583e-08
6.56997e-08
6.53494e-08
6.50114e-08
6.46891e-08
6.43852e-08
6.41016e-08
6.384e-08
6.36014e-08
6.33864e-08
6.31953e-08
6.30282e-08
6.28846e-08
6.27642e-08
6.26663e-08
6.259e-08
6.25345e-08
6.24985e-08
6.24812e-08
6.51354e-08
6.49756e-08
6.47534e-08
6.44827e-08
6.41754e-08
6.38423e-08
6.34925e-08
6.31341e-08
6.27742e-08
6.24183e-08
6.20715e-08
6.17377e-08
6.142e-08
6.11211e-08
6.08427e-08
6.05863e-08
6.03527e-08
6.01426e-08
5.99561e-08
5.97932e-08
5.96534e-08
5.95362e-08
5.9441e-08
5.93669e-08
5.9313e-08
5.92781e-08
5.92613e-08
6.18845e-08
6.17285e-08
6.15118e-08
6.12481e-08
6.09491e-08
6.06254e-08
6.02861e-08
5.9939e-08
5.95908e-08
5.92471e-08
5.89127e-08
5.85911e-08
5.82856e-08
5.79983e-08
5.77311e-08
5.74853e-08
5.72615e-08
5.70604e-08
5.68821e-08
5.67263e-08
5.65928e-08
5.64809e-08
5.63901e-08
5.63194e-08
5.62679e-08
5.62347e-08
5.62186e-08
5.87421e-08
5.85929e-08
5.83859e-08
5.8134e-08
5.78487e-08
5.754e-08
5.72168e-08
5.68864e-08
5.65553e-08
5.62288e-08
5.59113e-08
5.56063e-08
5.53166e-08
5.50445e-08
5.47916e-08
5.4559e-08
5.43475e-08
5.41574e-08
5.39889e-08
5.38418e-08
5.37157e-08
5.36102e-08
5.35245e-08
5.34578e-08
5.34092e-08
5.33779e-08
5.33628e-08
5.57516e-08
5.56108e-08
5.54154e-08
5.51777e-08
5.49087e-08
5.46177e-08
5.43132e-08
5.40021e-08
5.36904e-08
5.33833e-08
5.30847e-08
5.27981e-08
5.2526e-08
5.22705e-08
5.20331e-08
5.18149e-08
5.16164e-08
5.14382e-08
5.12802e-08
5.11423e-08
5.10241e-08
5.09252e-08
5.08449e-08
5.07824e-08
5.0737e-08
5.07076e-08
5.06934e-08
5.29333e-08
5.28014e-08
5.26183e-08
5.23957e-08
5.21438e-08
5.18714e-08
5.15864e-08
5.12953e-08
5.10039e-08
5.07167e-08
5.04376e-08
5.01697e-08
4.99155e-08
4.96769e-08
4.94551e-08
4.92513e-08
4.90661e-08
4.88997e-08
4.87522e-08
4.86235e-08
4.85132e-08
4.84209e-08
4.8346e-08
4.82877e-08
4.82453e-08
4.82179e-08
4.82046e-08
5.0293e-08
5.01699e-08
4.99991e-08
4.97916e-08
4.95566e-08
4.93027e-08
4.9037e-08
4.87658e-08
4.84942e-08
4.82266e-08
4.79666e-08
4.77171e-08
4.74803e-08
4.7258e-08
4.70515e-08
4.68617e-08
4.66892e-08
4.65343e-08
4.6397e-08
4.62771e-08
4.61745e-08
4.60885e-08
4.60187e-08
4.59644e-08
4.59249e-08
4.58994e-08
4.58871e-08
4.7828e-08
4.77135e-08
4.75546e-08
4.73615e-08
4.7143e-08
4.69067e-08
4.66596e-08
4.64073e-08
4.61547e-08
4.59058e-08
4.5664e-08
4.54319e-08
4.52117e-08
4.5005e-08
4.48129e-08
4.46364e-08
4.4476e-08
4.43319e-08
4.42042e-08
4.40928e-08
4.39973e-08
4.39173e-08
4.38524e-08
4.38019e-08
4.37652e-08
4.37414e-08
4.37299e-08
4.55311e-08
4.54247e-08
4.5277e-08
4.50975e-08
4.48944e-08
4.46749e-08
4.44452e-08
4.42107e-08
4.39759e-08
4.37446e-08
4.35198e-08
4.33041e-08
4.30994e-08
4.29073e-08
4.27288e-08
4.25647e-08
4.24155e-08
4.22816e-08
4.21628e-08
4.20592e-08
4.19704e-08
4.18961e-08
4.18357e-08
4.17887e-08
4.17545e-08
4.17325e-08
4.17218e-08
4.33924e-08
4.32935e-08
4.31563e-08
4.29895e-08
4.28008e-08
4.25968e-08
4.23833e-08
4.21654e-08
4.19471e-08
4.17321e-08
4.15232e-08
4.13227e-08
4.11324e-08
4.09538e-08
4.07878e-08
4.06352e-08
4.04965e-08
4.0372e-08
4.02615e-08
4.01651e-08
4.00825e-08
4.00134e-08
3.99572e-08
3.99135e-08
3.98817e-08
3.98611e-08
3.98512e-08
4.1401e-08
4.13091e-08
4.11816e-08
4.10265e-08
4.08511e-08
4.06614e-08
4.04629e-08
4.02603e-08
4.00574e-08
3.98574e-08
3.96631e-08
3.94766e-08
3.92996e-08
3.91334e-08
3.8979e-08
3.88371e-08
3.8708e-08
3.85921e-08
3.84893e-08
3.83995e-08
3.83227e-08
3.82583e-08
3.8206e-08
3.81653e-08
3.81356e-08
3.81165e-08
3.81072e-08
3.95459e-08
3.94604e-08
3.93418e-08
3.91976e-08
3.90343e-08
3.88579e-08
3.86732e-08
3.84846e-08
3.82957e-08
3.81096e-08
3.79287e-08
3.77551e-08
3.75903e-08
3.74356e-08
3.72918e-08
3.71596e-08
3.70394e-08
3.69314e-08
3.68356e-08
3.6752e-08
3.66804e-08
3.66203e-08
3.65716e-08
3.65337e-08
3.6506e-08
3.64882e-08
3.64796e-08
3.78163e-08
3.77367e-08
3.76262e-08
3.74919e-08
3.73399e-08
3.71755e-08
3.70035e-08
3.68278e-08
3.66518e-08
3.64784e-08
3.63099e-08
3.61481e-08
3.59944e-08
3.58502e-08
3.57161e-08
3.55929e-08
3.54808e-08
3.538e-08
3.52907e-08
3.52128e-08
3.51459e-08
3.50899e-08
3.50444e-08
3.5009e-08
3.49832e-08
3.49666e-08
3.49585e-08
3.6202e-08
3.61277e-08
3.60247e-08
3.58995e-08
3.57577e-08
3.56045e-08
3.5444e-08
3.52801e-08
3.5116e-08
3.49542e-08
3.47969e-08
3.46459e-08
3.45026e-08
3.43679e-08
3.42428e-08
3.41277e-08
3.4023e-08
3.3929e-08
3.38456e-08
3.37728e-08
3.37103e-08
3.3658e-08
3.36155e-08
3.35824e-08
3.35583e-08
3.35428e-08
3.35352e-08
3.46932e-08
3.46239e-08
3.45277e-08
3.44108e-08
3.42785e-08
3.41353e-08
3.39855e-08
3.38324e-08
3.36791e-08
3.3528e-08
3.3381e-08
3.32399e-08
3.3106e-08
3.29801e-08
3.28632e-08
3.27556e-08
3.26577e-08
3.25698e-08
3.24918e-08
3.24237e-08
3.23653e-08
3.23163e-08
3.22766e-08
3.22456e-08
3.22231e-08
3.22085e-08
3.22015e-08
3.32811e-08
3.32164e-08
3.31265e-08
3.30172e-08
3.28934e-08
3.27596e-08
3.26194e-08
3.24763e-08
3.23329e-08
3.21915e-08
3.2054e-08
3.1922e-08
3.17966e-08
3.16788e-08
3.15693e-08
3.14686e-08
3.1377e-08
3.12946e-08
3.12216e-08
3.11578e-08
3.11031e-08
3.10573e-08
3.102e-08
3.0991e-08
3.09699e-08
3.09562e-08
3.09496e-08
3.19576e-08
3.18969e-08
3.18128e-08
3.17104e-08
3.15946e-08
3.14692e-08
3.1338e-08
3.12039e-08
3.10695e-08
3.09371e-08
3.08082e-08
3.06845e-08
3.0567e-08
3.04566e-08
3.0354e-08
3.02596e-08
3.01737e-08
3.00964e-08
3.00279e-08
2.99681e-08
2.99168e-08
2.98738e-08
2.98388e-08
2.98116e-08
2.97918e-08
2.9779e-08
2.97728e-08
3.07149e-08
3.06581e-08
3.05792e-08
3.04832e-08
3.03745e-08
3.0257e-08
3.01339e-08
3.00081e-08
2.9882e-08
2.97577e-08
2.96368e-08
2.95207e-08
2.94104e-08
2.93068e-08
2.92104e-08
2.91218e-08
2.90411e-08
2.89686e-08
2.89043e-08
2.8848e-08
2.87998e-08
2.87594e-08
2.87266e-08
2.8701e-08
2.86824e-08
2.86703e-08
2.86645e-08
2.95462e-08
2.94928e-08
2.94187e-08
2.93286e-08
2.92265e-08
2.9116e-08
2.90004e-08
2.88822e-08
2.87637e-08
2.86469e-08
2.85333e-08
2.84242e-08
2.83205e-08
2.8223e-08
2.81324e-08
2.8049e-08
2.79732e-08
2.7905e-08
2.78444e-08
2.77916e-08
2.77462e-08
2.77082e-08
2.76773e-08
2.76532e-08
2.76357e-08
2.76243e-08
2.76188e-08
2.84449e-08
2.83947e-08
2.83249e-08
2.82401e-08
2.81441e-08
2.80402e-08
2.79313e-08
2.78201e-08
2.77086e-08
2.75986e-08
2.74917e-08
2.73889e-08
2.72913e-08
2.71995e-08
2.71141e-08
2.70356e-08
2.69641e-08
2.68999e-08
2.68428e-08
2.6793e-08
2.67502e-08
2.67144e-08
2.66853e-08
2.66626e-08
2.6646e-08
2.66353e-08
2.66301e-08
2.7405e-08
2.73576e-08
2.72919e-08
2.7212e-08
2.71215e-08
2.70235e-08
2.69209e-08
2.6816e-08
2.67109e-08
2.66072e-08
2.65063e-08
2.64094e-08
2.63173e-08
2.62307e-08
2.61501e-08
2.6076e-08
2.60086e-08
2.59479e-08
2.58941e-08
2.5847e-08
2.58066e-08
2.57728e-08
2.57453e-08
2.57239e-08
2.57082e-08
2.56981e-08
2.56932e-08
2.64207e-08
2.63761e-08
2.6314e-08
2.62386e-08
2.61531e-08
2.60606e-08
2.59636e-08
2.58646e-08
2.57653e-08
2.56673e-08
2.55719e-08
2.54803e-08
2.53933e-08
2.53114e-08
2.52353e-08
2.51652e-08
2.51014e-08
2.5044e-08
2.49931e-08
2.49486e-08
2.49104e-08
2.48784e-08
2.48524e-08
2.48321e-08
2.48173e-08
2.48077e-08
2.48031e-08
2.54869e-08
2.54446e-08
2.53859e-08
2.53145e-08
2.52336e-08
2.51461e-08
2.50543e-08
2.49605e-08
2.48665e-08
2.47737e-08
2.46835e-08
2.45967e-08
2.45142e-08
2.44367e-08
2.43646e-08
2.42982e-08
2.42377e-08
2.41833e-08
2.41351e-08
2.40929e-08
2.40567e-08
2.40263e-08
2.40016e-08
2.39824e-08
2.39684e-08
2.39593e-08
2.39549e-08
2.45982e-08
2.45581e-08
2.45025e-08
2.44347e-08
2.4358e-08
2.4275e-08
2.41879e-08
2.4099e-08
2.40097e-08
2.39217e-08
2.3836e-08
2.37536e-08
2.36753e-08
2.36017e-08
2.35332e-08
2.34702e-08
2.34127e-08
2.33611e-08
2.33152e-08
2.32751e-08
2.32407e-08
2.32119e-08
2.31884e-08
2.31701e-08
2.31568e-08
2.31482e-08
2.3144e-08
2.37497e-08
2.37116e-08
2.36587e-08
2.35943e-08
2.35213e-08
2.34424e-08
2.33596e-08
2.3275e-08
2.31901e-08
2.31063e-08
2.30248e-08
2.29464e-08
2.28718e-08
2.28018e-08
2.27365e-08
2.26765e-08
2.26218e-08
2.25726e-08
2.25289e-08
2.24907e-08
2.24579e-08
2.24304e-08
2.2408e-08
2.23906e-08
2.23779e-08
2.23697e-08
2.23657e-08
2.29365e-08
2.29002e-08
2.28497e-08
2.27883e-08
2.27188e-08
2.26434e-08
2.25645e-08
2.24837e-08
2.24027e-08
2.23228e-08
2.22449e-08
2.21701e-08
2.20989e-08
2.2032e-08
2.19697e-08
2.19124e-08
2.18601e-08
2.18131e-08
2.17713e-08
2.17348e-08
2.17035e-08
2.16772e-08
2.16558e-08
2.16391e-08
2.1627e-08
2.16191e-08
2.16153e-08
2.21537e-08
2.21189e-08
2.20707e-08
2.20119e-08
2.19454e-08
2.18733e-08
2.17977e-08
2.17204e-08
2.16429e-08
2.15663e-08
2.14917e-08
2.142e-08
2.13519e-08
2.12877e-08
2.1228e-08
2.1173e-08
2.11229e-08
2.10778e-08
2.10378e-08
2.10028e-08
2.09727e-08
2.09475e-08
2.09269e-08
2.09109e-08
2.08993e-08
2.08917e-08
2.08881e-08
2.13963e-08
2.13629e-08
2.13165e-08
2.12601e-08
2.11962e-08
2.11269e-08
2.10543e-08
2.098e-08
2.09055e-08
2.08319e-08
2.07602e-08
2.06912e-08
2.06256e-08
2.05639e-08
2.05064e-08
2.04535e-08
2.04052e-08
2.03618e-08
2.03233e-08
2.02895e-08
2.02605e-08
2.02362e-08
2.02165e-08
2.0201e-08
2.01898e-08
2.01825e-08
2.0179e-08
2.06591e-08
2.06269e-08
2.05822e-08
2.05278e-08
2.04661e-08
2.03993e-08
2.03292e-08
2.02574e-08
2.01855e-08
2.01143e-08
2.00451e-08
1.99784e-08
1.9915e-08
1.98553e-08
1.97998e-08
1.97486e-08
1.97019e-08
1.96599e-08
1.96225e-08
1.95899e-08
1.95618e-08
1.95383e-08
1.95191e-08
1.95042e-08
1.94933e-08
1.94862e-08
1.94828e-08
1.99368e-08
1.99056e-08
1.98623e-08
1.98095e-08
1.97497e-08
1.96848e-08
1.96168e-08
1.95472e-08
1.94773e-08
1.94083e-08
1.9341e-08
1.92762e-08
1.92146e-08
1.91566e-08
1.91025e-08
1.90527e-08
1.90073e-08
1.89664e-08
1.89301e-08
1.88983e-08
1.8871e-08
1.8848e-08
1.88294e-08
1.88148e-08
1.88042e-08
1.87973e-08
1.8794e-08
1.92238e-08
1.91934e-08
1.91511e-08
1.90996e-08
1.90412e-08
1.8978e-08
1.89116e-08
1.88436e-08
1.87753e-08
1.87078e-08
1.8642e-08
1.85787e-08
1.85184e-08
1.84617e-08
1.84088e-08
1.836e-08
1.83156e-08
1.82755e-08
1.82399e-08
1.82088e-08
1.8182e-08
1.81595e-08
1.81412e-08
1.8127e-08
1.81166e-08
1.81098e-08
1.81065e-08
1.85139e-08
1.84841e-08
1.84425e-08
1.8392e-08
1.83346e-08
1.82724e-08
1.82072e-08
1.81403e-08
1.80731e-08
1.80067e-08
1.7942e-08
1.78796e-08
1.78203e-08
1.77643e-08
1.77122e-08
1.76641e-08
1.76203e-08
1.75808e-08
1.75457e-08
1.75149e-08
1.74885e-08
1.74663e-08
1.74483e-08
1.74342e-08
1.74239e-08
1.74172e-08
1.7414e-08
1.78007e-08
1.77711e-08
1.77301e-08
1.768e-08
1.76232e-08
1.75617e-08
1.7497e-08
1.74308e-08
1.73642e-08
1.72983e-08
1.72341e-08
1.71722e-08
1.71133e-08
1.70578e-08
1.7006e-08
1.69582e-08
1.69147e-08
1.68754e-08
1.68405e-08
1.68099e-08
1.67836e-08
1.67615e-08
1.67435e-08
1.67295e-08
1.67193e-08
1.67126e-08
1.67094e-08
1.70771e-08
1.70476e-08
1.70067e-08
1.69568e-08
1.69001e-08
1.68386e-08
1.6774e-08
1.67078e-08
1.66413e-08
1.65754e-08
1.65112e-08
1.64493e-08
1.63903e-08
1.63347e-08
1.62828e-08
1.6235e-08
1.61913e-08
1.61519e-08
1.61169e-08
1.60863e-08
1.60599e-08
1.60377e-08
1.60197e-08
1.60056e-08
1.59953e-08
1.59887e-08
1.59854e-08
1.63358e-08
1.63062e-08
1.62649e-08
1.62147e-08
1.61576e-08
1.60957e-08
1.60307e-08
1.5964e-08
1.58969e-08
1.58305e-08
1.57657e-08
1.57032e-08
1.56436e-08
1.55875e-08
1.55351e-08
1.54867e-08
1.54426e-08
1.54027e-08
1.53673e-08
1.53363e-08
1.53096e-08
1.52872e-08
1.5269e-08
1.52547e-08
1.52443e-08
1.52376e-08
1.52343e-08
1.5569e-08
1.55389e-08
1.54971e-08
1.54461e-08
1.53881e-08
1.53252e-08
1.52591e-08
1.51913e-08
1.51231e-08
1.50556e-08
1.49896e-08
1.4926e-08
1.48654e-08
1.48082e-08
1.47548e-08
1.47055e-08
1.46605e-08
1.46199e-08
1.45838e-08
1.45522e-08
1.4525e-08
1.45021e-08
1.44835e-08
1.4469e-08
1.44584e-08
1.44515e-08
1.44482e-08
1.47689e-08
1.47381e-08
1.46953e-08
1.4643e-08
1.45837e-08
1.45193e-08
1.44516e-08
1.43821e-08
1.43122e-08
1.42429e-08
1.41753e-08
1.41101e-08
1.40478e-08
1.39892e-08
1.39344e-08
1.38838e-08
1.38376e-08
1.37959e-08
1.37589e-08
1.37264e-08
1.36984e-08
1.3675e-08
1.36558e-08
1.36409e-08
1.363e-08
1.36229e-08
1.36195e-08
1.39279e-08
1.38962e-08
1.3852e-08
1.37982e-08
1.3737e-08
1.36706e-08
1.36007e-08
1.35291e-08
1.34569e-08
1.33855e-08
1.33157e-08
1.32483e-08
1.31841e-08
1.31235e-08
1.3067e-08
1.30147e-08
1.2967e-08
1.2924e-08
1.28858e-08
1.28522e-08
1.28234e-08
1.27992e-08
1.27794e-08
1.2764e-08
1.27528e-08
1.27455e-08
1.2742e-08
1.30396e-08
1.30068e-08
1.2961e-08
1.29052e-08
1.28418e-08
1.2773e-08
1.27006e-08
1.26264e-08
1.25516e-08
1.24775e-08
1.24052e-08
1.23354e-08
1.22689e-08
1.22061e-08
1.21475e-08
1.20935e-08
1.20441e-08
1.19996e-08
1.19599e-08
1.19252e-08
1.18954e-08
1.18703e-08
1.18499e-08
1.1834e-08
1.18224e-08
1.18149e-08
1.18112e-08
1.20997e-08
1.20656e-08
1.20181e-08
1.19602e-08
1.18944e-08
1.18229e-08
1.17478e-08
1.16707e-08
1.15932e-08
1.15164e-08
1.14414e-08
1.1369e-08
1.13001e-08
1.12351e-08
1.11744e-08
1.11184e-08
1.10673e-08
1.10213e-08
1.09803e-08
1.09445e-08
1.09137e-08
1.08878e-08
1.08667e-08
1.08503e-08
1.08383e-08
1.08306e-08
1.08268e-08
1.11075e-08
1.10721e-08
1.10229e-08
1.09628e-08
1.08947e-08
1.08207e-08
1.07429e-08
1.06632e-08
1.0583e-08
1.05036e-08
1.04262e-08
1.03515e-08
1.02804e-08
1.02133e-08
1.01508e-08
1.00932e-08
1.00407e-08
9.99331e-09
9.95124e-09
9.91444e-09
9.88284e-09
9.85633e-09
9.83477e-09
9.81796e-09
9.80572e-09
9.7978e-09
9.79397e-09
1.00676e-08
1.00312e-08
9.98053e-09
9.91878e-09
9.8487e-09
9.77268e-09
9.69286e-09
9.61106e-09
9.52887e-09
9.4476e-09
9.36836e-09
9.29207e-09
9.21946e-09
9.1511e-09
9.08743e-09
9.02878e-09
8.97536e-09
8.92729e-09
8.88463e-09
8.84735e-09
8.81537e-09
8.78858e-09
8.7668e-09
8.74986e-09
8.73752e-09
8.72956e-09
8.7257e-09
8.99238e-09
8.95536e-09
8.90392e-09
8.84128e-09
8.77024e-09
8.69327e-09
8.61253e-09
8.52991e-09
8.44699e-09
8.36512e-09
8.28541e-09
8.20878e-09
8.13595e-09
8.06749e-09
8.00384e-09
7.9453e-09
7.89206e-09
7.84423e-09
7.80185e-09
7.76488e-09
7.73322e-09
7.70673e-09
7.68525e-09
7.66855e-09
7.65642e-09
7.6486e-09
7.64482e-09
7.90302e-09
7.86619e-09
7.81507e-09
7.75287e-09
7.68242e-09
7.60621e-09
7.5264e-09
7.44488e-09
7.36321e-09
7.28274e-09
7.20456e-09
7.12955e-09
7.05842e-09
6.99171e-09
6.92982e-09
6.87303e-09
6.8215e-09
6.77532e-09
6.7345e-09
6.69897e-09
6.66861e-09
6.64328e-09
6.62278e-09
6.6069e-09
6.59537e-09
6.58796e-09
6.5844e-09
6.83029e-09
6.79473e-09
6.74542e-09
6.68553e-09
6.61781e-09
6.54471e-09
6.46834e-09
6.39051e-09
6.31276e-09
6.23636e-09
6.16235e-09
6.09156e-09
6.02463e-09
5.96207e-09
5.90421e-09
5.85129e-09
5.80344e-09
5.7607e-09
5.72305e-09
5.69039e-09
5.6626e-09
5.63949e-09
5.62085e-09
5.60646e-09
5.59606e-09
5.5894e-09
5.5862e-09
5.81271e-09
5.77973e-09
5.73409e-09
5.67875e-09
5.61635e-09
5.54919e-09
5.47925e-09
5.40822e-09
5.33753e-09
5.26834e-09
5.2016e-09
5.13804e-09
5.07822e-09
5.02256e-09
4.97133e-09
4.92472e-09
4.88278e-09
4.84553e-09
4.81288e-09
4.78473e-09
4.7609e-09
4.7412e-09
4.72541e-09
4.7133e-09
4.7046e-09
4.69906e-09
4.69642e-09
4.89252e-09
4.86356e-09
4.82356e-09
4.77521e-09
4.72089e-09
4.66268e-09
4.60234e-09
4.54139e-09
4.48107e-09
4.4224e-09
4.36616e-09
4.31296e-09
4.26327e-09
4.21737e-09
4.17547e-09
4.13766e-09
4.10394e-09
4.07425e-09
4.04848e-09