/*--------------------------------*- C++ -*----------------------------------*\
| =========                 |                                                 |
| \\      /  F ield         | OpenFOAM: The Open Source CFD Toolbox           |
|  \\    /   O peration     | Version:  2106                                  |
|   \\  /    A nd           | Website:  www.openfoam.com                      |
|    \\/     M anipulation  |                                                 |
\*---------------------------------------------------------------------------*/
FoamFile
{
    version     2.0;
    format      ascii;
    arch        "LSB;label=32;scalar=64";
    class       volScalarField;
    location    "79.99952";
    object      C4H6;
}
// * * * * * * * * * * * * * * * * * * * * * * * * * * * * * * * * * * * * * //

dimensions      [0 0 0 0 0 0 0];

internalField   nonuniform List<scalar> 
3360
(
1.79333e-19
1.85104e-19
1.93135e-19
2.02958e-19
2.14164e-19
2.26386e-19
2.39291e-19
2.5258e-19
2.65986e-19
2.79272e-19
2.92236e-19
3.04703e-19
3.16531e-19
3.27605e-19
3.37838e-19
3.47171e-19
3.55565e-19
3.63006e-19
3.69495e-19
3.75052e-19
3.7971e-19
3.83515e-19
3.86521e-19
3.88788e-19
3.90383e-19
3.91375e-19
3.91835e-19
7.86696e-19
8.15612e-19
8.56417e-19
9.07233e-19
9.66502e-19
1.03287e-18
1.10512e-18
1.18214e-18
1.26291e-18
1.34643e-18
1.43179e-18
1.51806e-18
1.60435e-18
1.68977e-18
1.77345e-18
1.85452e-18
1.93215e-18
2.00553e-18
2.07387e-18
2.13644e-18
2.19257e-18
2.24166e-18
2.28322e-18
2.31682e-18
2.34218e-18
2.35912e-18
2.36757e-18
2.46841e-18
2.57675e-18
2.73069e-18
2.92413e-18
3.15201e-18
3.40975e-18
3.69304e-18
3.99761e-18
4.31913e-18
4.6532e-18
4.99531e-18
5.34099e-18
5.6858e-18
6.02537e-18
6.35547e-18
6.67207e-18
6.97147e-18
7.25032e-18
7.50573e-18
7.7353e-18
7.93718e-18
8.11005e-18
8.25316e-18
8.36628e-18
8.44967e-18
8.50405e-18
8.53053e-18
7.18885e-18
7.54592e-18
8.05672e-18
8.70299e-18
9.46943e-18
1.03418e-17
1.13056e-17
1.23463e-17
1.34481e-17
1.45948e-17
1.57694e-17
1.69548e-17
1.81339e-17
1.929e-17
2.04075e-17
2.14719e-17
2.24702e-17
2.33916e-17
2.42273e-17
2.49708e-17
2.56176e-17
2.61656e-17
2.66145e-17
2.69655e-17
2.72217e-17
2.73871e-17
2.74669e-17
2.10034e-17
2.21299e-17
2.37444e-17
2.57918e-17
2.82252e-17
3.09998e-17
3.40692e-17
3.73845e-17
4.08935e-17
4.45409e-17
4.827e-17
5.20234e-17
5.57446e-17
5.93799e-17
6.28795e-17
6.61989e-17
6.92994e-17
7.21494e-17
7.47241e-17
7.70061e-17
7.89846e-17
8.06552e-17
8.20192e-17
8.30831e-17
8.38574e-17
8.43563e-17
8.45964e-17
6.19294e-17
6.53888e-17
7.03532e-17
7.66541e-17
8.41474e-17
9.26934e-17
1.02148e-16
1.12356e-16
1.23155e-16
1.34371e-16
1.45825e-16
1.57339e-16
1.68738e-16
1.79855e-16
1.90539e-16
2.00655e-16
2.10086e-16
2.18739e-16
2.26542e-16
2.33447e-16
2.39422e-16
2.4446e-16
2.48567e-16
2.51766e-16
2.54091e-16
2.55588e-16
2.56307e-16
1.83964e-16
1.94476e-16
2.0956e-16
2.28707e-16
2.51475e-16
2.77436e-16
3.06143e-16
3.37124e-16
3.69872e-16
4.03856e-16
4.38531e-16
4.73354e-16
5.07794e-16
5.41352e-16
5.73571e-16
6.04047e-16
6.3244e-16
6.58472e-16
6.81932e-16
7.02676e-16
7.20622e-16
7.35745e-16
7.4807e-16
7.57667e-16
7.64641e-16
7.69128e-16
7.71285e-16
5.48281e-16
5.79912e-16
6.25324e-16
6.82985e-16
7.51571e-16
8.29787e-16
9.16283e-16
1.00962e-15
1.10827e-15
1.21061e-15
1.31501e-15
1.41982e-15
1.52343e-15
1.62434e-15
1.72119e-15
1.81277e-15
1.89804e-15
1.97618e-15
2.04657e-15
2.10879e-15
2.16259e-15
2.20791e-15
2.24483e-15
2.27356e-15
2.29444e-15
2.30786e-15
2.31432e-15
1.63839e-15
1.73345e-15
1.8699e-15
2.04314e-15
2.24917e-15
2.48408e-15
2.7438e-15
3.02399e-15
3.32001e-15
3.62703e-15
3.9401e-15
4.25426e-15
4.56475e-15
4.86706e-15
5.1571e-15
5.43127e-15
5.6865e-15
5.92036e-15
6.13099e-15
6.31713e-15
6.47808e-15
6.61364e-15
6.72407e-15
6.81002e-15
6.87247e-15
6.91263e-15
6.93192e-15
4.89598e-15
5.18068e-15
5.58942e-15
6.10838e-15
6.72559e-15
7.42931e-15
8.20731e-15
9.04653e-15
9.93309e-15
1.08525e-14
1.17898e-14
1.27302e-14
1.36595e-14
1.4564e-14
1.54317e-14
1.62517e-14
1.70149e-14
1.7714e-14
1.83435e-14
1.88996e-14
1.93804e-14
1.97852e-14
2.01149e-14
2.03715e-14
2.05579e-14
2.06777e-14
2.07353e-14
1.46371e-14
1.54893e-14
1.67125e-14
1.82653e-14
2.01116e-14
2.22162e-14
2.45423e-14
2.70507e-14
2.96997e-14
3.24458e-14
3.52445e-14
3.80517e-14
4.08245e-14
4.35229e-14
4.61105e-14
4.85551e-14
5.08298e-14
5.29131e-14
5.47885e-14
5.64452e-14
5.78771e-14
5.90827e-14
6.00645e-14
6.08284e-14
6.13832e-14
6.17399e-14
6.19113e-14
4.37146e-14
4.62586e-14
4.99099e-14
5.45441e-14
6.00533e-14
6.63315e-14
7.32683e-14
8.07464e-14
8.8641e-14
9.6822e-14
1.05157e-13
1.13513e-13
1.21764e-13
1.2979e-13
1.37484e-13
1.44749e-13
1.51508e-13
1.57695e-13
1.63262e-13
1.68179e-13
1.72427e-13
1.76003e-13
1.78914e-13
1.81178e-13
1.82822e-13
1.83879e-13
1.84386e-13
1.30401e-13
1.37982e-13
1.48857e-13
1.62654e-13
1.79047e-13
1.97718e-13
2.18335e-13
2.40547e-13
2.63979e-13
2.88245e-13
3.1295e-13
3.37703e-13
3.62126e-13
3.8587e-13
4.08614e-13
4.30081e-13
4.50038e-13
4.68298e-13
4.84724e-13
4.99222e-13
5.11743e-13
5.22278e-13
5.30852e-13
5.3752e-13
5.4236e-13
5.4547e-13
5.46964e-13
3.87801e-13
4.10279e-13
4.42518e-13
4.83395e-13
5.31935e-13
5.8718e-13
6.48136e-13
7.13749e-13
7.82908e-13
8.54461e-13
9.27239e-13
1.00009e-12
1.0719e-12
1.14165e-12
1.2084e-12
1.27134e-12
1.32981e-12
1.38326e-12
1.43131e-12
1.47368e-12
1.51025e-12
1.541e-12
1.56601e-12
1.58545e-12
1.59956e-12
1.60862e-12
1.61297e-12
1.14891e-12
1.21519e-12
1.31017e-12
1.4305e-12
1.57324e-12
1.73552e-12
1.91434e-12
2.10656e-12
2.30889e-12
2.51793e-12
2.73023e-12
2.94243e-12
3.15131e-12
3.3539e-12
3.54753e-12
3.72988e-12
3.89905e-12
4.05354e-12
4.19224e-12
4.31445e-12
4.41984e-12
4.50838e-12
4.58033e-12
4.63622e-12
4.67675e-12
4.70277e-12
4.71526e-12
3.38324e-12
3.57671e-12
3.85375e-12
4.20432e-12
4.6196e-12
5.09096e-12
5.60951e-12
6.16591e-12
6.75046e-12
7.35321e-12
7.96419e-12
8.5737e-12
9.17253e-12
9.75222e-12
1.03053e-11
1.08252e-11
1.13067e-11
1.17458e-11
1.21394e-11
1.24857e-11
1.27839e-11
1.30342e-11
1.32373e-11
1.3395e-11
1.35092e-11
1.35824e-11
1.36175e-11
9.88372e-12
1.04411e-11
1.12381e-11
1.22451e-11
1.34355e-11
1.47837e-11
1.62633e-11
1.7847e-11
1.95063e-11
2.12129e-11
2.29381e-11
2.46546e-11
2.63366e-11
2.79608e-11
2.95066e-11
3.09565e-11
3.22964e-11
3.35155e-11
3.46063e-11
3.55644e-11
3.6388e-11
3.70782e-11
3.76377e-11
3.80713e-11
3.8385e-11
3.85861e-11
3.86824e-11
2.85635e-11
3.01394e-11
3.23893e-11
3.52252e-11
3.85691e-11
4.23451e-11
4.64759e-11
5.08824e-11
5.5484e-11
6.01999e-11
6.49511e-11
6.96622e-11
7.42637e-11
7.86927e-11
8.28951e-11
8.68253e-11
9.04475e-11
9.37347e-11
9.6669e-11
9.92406e-11
1.01447e-10
1.03292e-10
1.04786e-10
1.05941e-10
1.06776e-10
1.07311e-10
1.07567e-10
8.13918e-11
8.57391e-11
9.19314e-11
9.97141e-11
1.0886e-10
1.19148e-10
1.30358e-10
1.42266e-10
1.54648e-10
1.67283e-10
1.79959e-10
1.92477e-10
2.04654e-10
2.16331e-10
2.27369e-10
2.37658e-10
2.4711e-10
2.55663e-10
2.63276e-10
2.69932e-10
2.7563e-10
2.80384e-10
2.84226e-10
2.87193e-10
2.89334e-10
2.90702e-10
2.91357e-10
2.27716e-10
2.39332e-10
2.55832e-10
2.76498e-10
3.00683e-10
3.27766e-10
3.57132e-10
3.88173e-10
4.20287e-10
4.52895e-10
4.85449e-10
5.17444e-10
5.4843e-10
5.78013e-10
6.05869e-10
6.31734e-10
6.55411e-10
6.76767e-10
6.9572e-10
7.12244e-10
7.26354e-10
7.38103e-10
7.47575e-10
7.54879e-10
7.6014e-10
7.63499e-10
7.65102e-10
6.22531e-10
6.52382e-10
6.94651e-10
7.47373e-10
8.08784e-10
8.77201e-10
9.50986e-10
1.02855e-09
1.10834e-09
1.18893e-09
1.26896e-09
1.34722e-09
1.42265e-09
1.49434e-09
1.56156e-09
1.62373e-09
1.68043e-09
1.73141e-09
1.77651e-09
1.81573e-09
1.84913e-09
1.87688e-09
1.89921e-09
1.91639e-09
1.92875e-09
1.93663e-09
1.94039e-09
1.65393e-09
1.72722e-09
1.83065e-09
1.95911e-09
2.108e-09
2.27297e-09
2.44989e-09
2.63481e-09
2.82399e-09
3.01399e-09
3.20168e-09
3.3843e-09
3.55947e-09
3.72523e-09
3.88e-09
4.02261e-09
4.15224e-09
4.26839e-09
4.37086e-09
4.45972e-09
4.53523e-09
4.59783e-09
4.64811e-09
4.68673e-09
4.71447e-09
4.73214e-09
4.74055e-09
4.24781e-09
4.419e-09
4.65979e-09
4.95758e-09
5.30104e-09
5.67964e-09
6.08346e-09
6.50324e-09
6.93041e-09
7.35722e-09
7.77676e-09
8.18307e-09
8.57111e-09
8.9368e-09
9.27698e-09
9.58935e-09
9.87239e-09
1.01253e-08
1.03478e-08
1.05403e-08
1.07036e-08
1.08386e-08
1.09469e-08
1.103e-08
1.10896e-08
1.11275e-08
1.11455e-08
1.05001e-08
1.088e-08
1.14127e-08
1.20691e-08
1.28229e-08
1.36499e-08
1.45278e-08
1.54361e-08
1.6356e-08
1.72711e-08
1.81667e-08
1.90306e-08
1.98525e-08
2.06244e-08
2.13402e-08
2.19956e-08
2.25878e-08
2.31156e-08
2.35791e-08
2.39793e-08
2.4318e-08
2.45978e-08
2.48218e-08
2.49935e-08
2.51165e-08
2.51946e-08
2.52317e-08
2.49164e-08
2.57193e-08
2.68425e-08
2.82219e-08
2.98004e-08
3.15256e-08
3.33499e-08
3.52299e-08
3.7127e-08
3.9007e-08
4.08408e-08
4.26039e-08
4.42764e-08
4.58428e-08
4.72916e-08
4.86149e-08
4.98082e-08
5.08697e-08
5.18002e-08
5.26023e-08
5.32803e-08
5.38397e-08
5.4287e-08
5.46294e-08
5.48745e-08
5.50301e-08
5.5104e-08
5.67381e-08
5.83628e-08
6.06313e-08
6.34106e-08
6.65823e-08
7.0039e-08
7.36832e-08
7.74276e-08
8.1195e-08
8.49182e-08
8.85405e-08
9.20145e-08
9.53024e-08
9.83751e-08
1.01212e-07
1.03798e-07
1.06126e-07
1.08194e-07
1.10004e-07
1.11563e-07
1.12879e-07
1.13964e-07
1.1483e-07
1.15493e-07
1.15967e-07
1.16268e-07
1.16411e-07
1.24173e-07
1.27344e-07
1.31766e-07
1.37174e-07
1.43334e-07
1.50034e-07
1.57082e-07
1.6431e-07
1.71568e-07
1.78727e-07
1.8568e-07
1.92338e-07
1.9863e-07
2.04503e-07
2.09917e-07
2.14848e-07
2.19282e-07
2.23218e-07
2.2666e-07
2.29621e-07
2.3212e-07
2.34179e-07
2.35822e-07
2.37079e-07
2.37977e-07
2.38547e-07
2.38817e-07
2.61819e-07
2.67845e-07
2.7624e-07
2.86499e-07
2.98174e-07
3.10859e-07
3.24192e-07
3.37852e-07
3.51556e-07
3.65065e-07
3.78175e-07
3.9072e-07
4.02569e-07
4.13621e-07
4.23807e-07
4.33079e-07
4.41415e-07
4.48811e-07
4.55277e-07
4.60839e-07
4.65531e-07
4.69395e-07
4.7248e-07
4.74838e-07
4.76524e-07
4.77593e-07
4.781e-07
5.33443e-07
5.44702e-07
5.60389e-07
5.79559e-07
6.01375e-07
6.25083e-07
6.50007e-07
6.75549e-07
7.01186e-07
7.26468e-07
7.51017e-07
7.74523e-07
7.9674e-07
8.17479e-07
8.36606e-07
8.54032e-07
8.69712e-07
8.83634e-07
8.95817e-07
9.06304e-07
9.15158e-07
9.22456e-07
9.28287e-07
9.32748e-07
9.35939e-07
9.37963e-07
9.38925e-07
1.05211e-06
1.07292e-06
1.10195e-06
1.13745e-06
1.17791e-06
1.22195e-06
1.26833e-06
1.31595e-06
1.36385e-06
1.41121e-06
1.45731e-06
1.50156e-06
1.54351e-06
1.58279e-06
1.61911e-06
1.65231e-06
1.68227e-06
1.70895e-06
1.73237e-06
1.75259e-06
1.76971e-06
1.78386e-06
1.7952e-06
1.8039e-06
1.81014e-06
1.81411e-06
1.816e-06
2.00669e-06
2.04467e-06
2.0977e-06
2.1627e-06
2.23694e-06
2.31797e-06
2.40358e-06
2.49179e-06
2.58085e-06
2.66924e-06
2.75565e-06
2.83896e-06
2.91828e-06
2.99288e-06
3.06219e-06
3.12582e-06
3.18351e-06
3.23512e-06
3.28062e-06
3.32007e-06
3.35362e-06
3.38146e-06
3.40387e-06
3.42111e-06
3.43353e-06
3.44146e-06
3.44525e-06
3.68476e-06
3.75191e-06
3.84579e-06
3.96106e-06
4.09298e-06
4.2373e-06
4.39017e-06
4.54812e-06
4.70807e-06
4.86729e-06
5.02343e-06
5.17445e-06
5.31867e-06
5.45471e-06
5.5815e-06
5.69824e-06
5.80437e-06
5.89957e-06
5.98372e-06
6.05687e-06
6.11923e-06
6.17111e-06
6.21293e-06
6.24521e-06
6.26849e-06
6.28338e-06
6.2905e-06
6.46061e-06
6.57184e-06
6.72734e-06
6.91824e-06
7.1367e-06
7.37564e-06
7.62868e-06
7.89004e-06
8.1546e-06
8.41783e-06
8.67578e-06
8.92511e-06
9.16301e-06
9.38722e-06
9.59598e-06
9.788e-06
9.96239e-06
1.01187e-05
1.02567e-05
1.03765e-05
1.04785e-05
1.05634e-05
1.06317e-05
1.06844e-05
1.07223e-05
1.07466e-05
1.07582e-05
1.07016e-05
1.08684e-05
1.11012e-05
1.13863e-05
1.17116e-05
1.20664e-05
1.24407e-05
1.28259e-05
1.32142e-05
1.35989e-05
1.39743e-05
1.43356e-05
1.46788e-05
1.50009e-05
1.52996e-05
1.55731e-05
1.58206e-05
1.60415e-05
1.62358e-05
1.6404e-05
1.65467e-05
1.6665e-05
1.676e-05
1.6833e-05
1.68856e-05
1.69191e-05
1.6935e-05
1.65983e-05
1.68209e-05
1.71306e-05
1.75086e-05
1.7938e-05
1.84039e-05
1.88928e-05
1.93931e-05
1.98946e-05
2.03884e-05
2.08675e-05
2.13258e-05
2.17587e-05
2.21627e-05
2.25353e-05
2.28748e-05
2.31804e-05
2.34519e-05
2.36898e-05
2.38948e-05
2.40681e-05
2.42112e-05
2.43258e-05
2.44136e-05
2.44766e-05
2.45166e-05
2.45357e-05
2.40335e-05
2.42987e-05
2.46668e-05
2.51141e-05
2.56201e-05
2.61662e-05
2.67363e-05
2.73163e-05
2.78943e-05
2.84604e-05
2.90063e-05
2.95258e-05
3.00139e-05
3.04671e-05
3.08829e-05
3.12602e-05
3.15983e-05
3.18975e-05
3.21587e-05
3.23829e-05
3.2572e-05
3.27276e-05
3.28519e-05
3.29469e-05
3.30149e-05
3.3058e-05
3.30785e-05
3.26028e-05
3.28901e-05
3.32877e-05
3.37695e-05
3.43123e-05
3.48957e-05
3.55021e-05
3.61163e-05
3.67256e-05
3.73197e-05
3.78901e-05
3.84307e-05
3.89365e-05
3.94044e-05
3.98323e-05
4.02192e-05
4.05649e-05
4.08699e-05
4.11355e-05
4.1363e-05
4.15544e-05
4.17116e-05
4.18369e-05
4.19326e-05
4.2001e-05
4.20443e-05
4.20649e-05
4.1763e-05
4.20521e-05
4.24514e-05
4.29342e-05
4.34767e-05
4.40582e-05
4.46607e-05
4.5269e-05
4.58707e-05
4.64555e-05
4.70156e-05
4.75449e-05
4.80389e-05
4.84947e-05
4.89107e-05
4.92861e-05
4.96209e-05
4.99159e-05
5.01723e-05
5.03916e-05
5.05759e-05
5.07272e-05
5.08476e-05
5.09395e-05
5.10051e-05
5.10466e-05
5.10664e-05
5.09916e-05
5.12675e-05
5.16482e-05
5.21077e-05
5.26233e-05
5.31748e-05
5.37453e-05
5.43203e-05
5.4888e-05
5.54389e-05
5.59656e-05
5.64625e-05
5.69257e-05
5.73525e-05
5.77416e-05
5.80924e-05
5.84049e-05
5.868e-05
5.8919e-05
5.91233e-05
5.92949e-05
5.94356e-05
5.95477e-05
5.96331e-05
5.9694e-05
5.97327e-05
5.9751e-05
5.98814e-05
6.01352e-05
6.04853e-05
6.09075e-05
6.13808e-05
6.18867e-05
6.24094e-05
6.29358e-05
6.3455e-05
6.39584e-05
6.44393e-05
6.48927e-05
6.53151e-05
6.57041e-05
6.60585e-05
6.63778e-05
6.66623e-05
6.69126e-05
6.71299e-05
6.73157e-05
6.74717e-05
6.75996e-05
6.77015e-05
6.77791e-05
6.78345e-05
6.78696e-05
6.78862e-05
6.81637e-05
6.83916e-05
6.87058e-05
6.90846e-05
6.9509e-05
6.99625e-05
7.0431e-05
7.09024e-05
7.13673e-05
7.18179e-05
7.22482e-05
7.26538e-05
7.30316e-05
7.33794e-05
7.36963e-05
7.39817e-05
7.42359e-05
7.44597e-05
7.46539e-05
7.48199e-05
7.49593e-05
7.50737e-05
7.51646e-05
7.5234e-05
7.52835e-05
7.53149e-05
7.53298e-05
7.5691e-05
7.58922e-05
7.61695e-05
7.65039e-05
7.68785e-05
7.72788e-05
7.76921e-05
7.81081e-05
7.85182e-05
7.89157e-05
7.92952e-05
7.9653e-05
7.99861e-05
8.02929e-05
8.05723e-05
8.0824e-05
8.10483e-05
8.12456e-05
8.14169e-05
8.15633e-05
8.16862e-05
8.17871e-05
8.18673e-05
8.19285e-05
8.19722e-05
8.19999e-05
8.2013e-05
8.24053e-05
8.25809e-05
8.28229e-05
8.31147e-05
8.34416e-05
8.37909e-05
8.41515e-05
8.45145e-05
8.48724e-05
8.52192e-05
8.55504e-05
8.58625e-05
8.61532e-05
8.64209e-05
8.66648e-05
8.68844e-05
8.70801e-05
8.72523e-05
8.74018e-05
8.75296e-05
8.76369e-05
8.77249e-05
8.77949e-05
8.78484e-05
8.78865e-05
8.79106e-05
8.79221e-05
8.83081e-05
8.846e-05
8.86693e-05
8.89217e-05
8.92045e-05
8.95066e-05
8.98185e-05
9.01325e-05
9.04421e-05
9.07421e-05
9.10286e-05
9.12986e-05
9.155e-05
9.17816e-05
9.19925e-05
9.21826e-05
9.23518e-05
9.25008e-05
9.26301e-05
9.27406e-05
9.28334e-05
9.29096e-05
9.29702e-05
9.30164e-05
9.30493e-05
9.30702e-05
9.30801e-05
9.34364e-05
9.35668e-05
9.37465e-05
9.39632e-05
9.4206e-05
9.44653e-05
9.47332e-05
9.50027e-05
9.52685e-05
9.5526e-05
9.57719e-05
9.60037e-05
9.62196e-05
9.64183e-05
9.65993e-05
9.67624e-05
9.69077e-05
9.70355e-05
9.71464e-05
9.72413e-05
9.73209e-05
9.73862e-05
9.74382e-05
9.74779e-05
9.75061e-05
9.7524e-05
9.75325e-05
9.78463e-05
9.79575e-05
9.81108e-05
9.82955e-05
9.85025e-05
9.87236e-05
9.89519e-05
9.91817e-05
9.94082e-05
9.96277e-05
9.98372e-05
0.000100035
0.000100219
0.000100388
0.000100542
0.000100681
0.000100805
0.000100914
0.000101008
0.000101089
0.000101157
0.000101212
0.000101256
0.00010129
0.000101314
0.000101329
0.000101337
0.000101603
0.000101697
0.000101827
0.000101983
0.000102158
0.000102345
0.000102539
0.000102733
0.000102925
0.00010311
0.000103287
0.000103454
0.00010361
0.000103753
0.000103883
0.000104001
0.000104105
0.000104197
0.000104277
0.000104345
0.000104402
0.000104449
0.000104486
0.000104515
0.000104535
0.000104548
0.000104554
0.000104772
0.000104851
0.00010496
0.000105092
0.000105239
0.000105396
0.000105558
0.000105721
0.000105882
0.000106038
0.000106186
0.000106326
0.000106456
0.000106576
0.000106685
0.000106784
0.000106871
0.000106948
0.000107015
0.000107072
0.00010712
0.000107159
0.00010719
0.000107214
0.000107231
0.000107242
0.000107247
0.000107419
0.000107485
0.000107576
0.000107685
0.000107807
0.000107938
0.000108073
0.000108208
0.000108342
0.000108471
0.000108594
0.000108711
0.000108819
0.000108918
0.000109009
0.00010909
0.000109162
0.000109226
0.000109281
0.000109329
0.000109368
0.000109401
0.000109426
0.000109446
0.00010946
0.000109469
0.000109473
0.000109603
0.000109658
0.000109732
0.000109822
0.000109923
0.00011003
0.000110141
0.000110252
0.000110362
0.000110468
0.000110569
0.000110664
0.000110753
0.000110834
0.000110908
0.000110975
0.000111034
0.000111086
0.000111131
0.00011117
0.000111202
0.000111229
0.00011125
0.000111266
0.000111277
0.000111284
0.000111288
0.000111381
0.000111425
0.000111485
0.000111558
0.00011164
0.000111727
0.000111816
0.000111906
0.000111995
0.000112081
0.000112162
0.000112239
0.00011231
0.000112376
0.000112435
0.000112489
0.000112537
0.000112579
0.000112615
0.000112646
0.000112672
0.000112693
0.00011271
0.000112722
0.000112732
0.000112737
0.00011274
0.0001128
0.000112835
0.000112883
0.000112941
0.000113006
0.000113075
0.000113146
0.000113217
0.000113287
0.000113355
0.00011342
0.00011348
0.000113537
0.000113588
0.000113635
0.000113677
0.000113715
0.000113748
0.000113776
0.0001138
0.000113821
0.000113837
0.00011385
0.000113861
0.000113868
0.000113872
0.000113874
0.000113905
0.000113932
0.000113969
0.000114014
0.000114064
0.000114118
0.000114173
0.000114228
0.000114282
0.000114334
0.000114383
0.00011443
0.000114473
0.000114512
0.000114548
0.00011458
0.000114609
0.000114634
0.000114655
0.000114674
0.000114689
0.000114702
0.000114712
0.000114719
0.000114725
0.000114728
0.00011473
0.000114735
0.000114755
0.000114783
0.000114817
0.000114854
0.000114893
0.000114934
0.000114975
0.000115014
0.000115053
0.000115089
0.000115123
0.000115155
0.000115184
0.00011521
0.000115233
0.000115254
0.000115272
0.000115287
0.000115301
0.000115312
0.000115321
0.000115328
0.000115333
0.000115337
0.00011534
0.000115341
0.000115324
0.000115339
0.000115358
0.000115381
0.000115407
0.000115435
0.000115463
0.000115491
0.000115519
0.000115545
0.00011557
0.000115593
0.000115614
0.000115634
0.000115651
0.000115667
0.000115681
0.000115693
0.000115703
0.000115712
0.000115719
0.000115725
0.00011573
0.000115733
0.000115736
0.000115737
0.000115738
0.000115703
0.000115712
0.000115724
0.000115739
0.000115755
0.000115772
0.000115789
0.000115806
0.000115823
0.000115838
0.000115853
0.000115867
0.000115879
0.00011589
0.0001159
0.000115909
0.000115917
0.000115924
0.00011593
0.000115934
0.000115938
0.000115942
0.000115944
0.000115946
0.000115947
0.000115948
0.000115949
0.000115898
0.000115902
0.000115908
0.000115915
0.000115922
0.00011593
0.000115937
0.000115945
0.000115952
0.000115958
0.000115964
0.000115969
0.000115974
0.000115978
0.000115982
0.000115985
0.000115987
0.000115989
0.000115991
0.000115992
0.000115993
0.000115994
0.000115995
0.000115995
0.000115996
0.000115996
0.000115996
0.000115931
0.000115932
0.000115932
0.000115932
0.000115932
0.000115931
0.00011593
0.000115929
0.000115928
0.000115926
0.000115924
0.000115922
0.00011592
0.000115918
0.000115916
0.000115914
0.000115911
0.000115909
0.000115908
0.000115906
0.000115905
0.000115903
0.000115902
0.000115901
0.000115901
0.0001159
0.0001159
0.000115824
0.000115821
0.000115816
0.00011581
0.000115803
0.000115796
0.000115788
0.000115779
0.000115771
0.000115762
0.000115753
0.000115745
0.000115737
0.000115729
0.000115722
0.000115715
0.000115709
0.000115703
0.000115698
0.000115694
0.00011569
0.000115687
0.000115685
0.000115683
0.000115682
0.000115681
0.00011568
0.000115595
0.000115588
0.000115579
0.000115568
0.000115555
0.000115542
0.000115527
0.000115512
0.000115497
0.000115482
0.000115467
0.000115453
0.00011544
0.000115427
0.000115416
0.000115405
0.000115396
0.000115387
0.000115379
0.000115373
0.000115367
0.000115362
0.000115359
0.000115356
0.000115354
0.000115352
0.000115352
0.000115258
0.000115249
0.000115236
0.00011522
0.000115203
0.000115183
0.000115163
0.000115143
0.000115122
0.000115101
0.000115082
0.000115063
0.000115045
0.000115028
0.000115013
0.000114999
0.000114986
0.000114974
0.000114965
0.000114956
0.000114949
0.000114943
0.000114938
0.000114934
0.000114931
0.00011493
0.000114929
0.000114828
0.000114817
0.000114801
0.000114781
0.000114759
0.000114735
0.00011471
0.000114684
0.000114659
0.000114634
0.000114609
0.000114586
0.000114564
0.000114544
0.000114525
0.000114508
0.000114493
0.000114479
0.000114467
0.000114456
0.000114448
0.00011444
0.000114435
0.00011443
0.000114427
0.000114425
0.000114424
0.000114318
0.000114304
0.000114285
0.000114262
0.000114236
0.000114208
0.000114179
0.000114149
0.000114119
0.00011409
0.000114062
0.000114035
0.00011401
0.000113986
0.000113964
0.000113945
0.000113927
0.000113911
0.000113897
0.000113885
0.000113875
0.000113867
0.00011386
0.000113855
0.000113852
0.000113849
0.000113848
0.000113738
0.000113722
0.000113701
0.000113675
0.000113645
0.000113614
0.000113581
0.000113547
0.000113514
0.000113481
0.000113449
0.000113419
0.000113391
0.000113365
0.000113341
0.000113319
0.000113299
0.000113281
0.000113266
0.000113253
0.000113242
0.000113233
0.000113225
0.00011322
0.000113216
0.000113213
0.000113212
0.000113098
0.000113081
0.000113057
0.000113029
0.000112996
0.000112962
0.000112925
0.000112889
0.000112852
0.000112816
0.000112782
0.000112749
0.000112718
0.000112689
0.000112663
0.000112639
0.000112618
0.000112599
0.000112582
0.000112568
0.000112556
0.000112546
0.000112538
0.000112532
0.000112527
0.000112524
0.000112523
0.000112406
0.000112388
0.000112363
0.000112332
0.000112297
0.00011226
0.000112221
0.000112182
0.000112142
0.000112104
0.000112067
0.000112032
0.000111999
0.000111968
0.00011194
0.000111914
0.000111891
0.000111871
0.000111853
0.000111838
0.000111825
0.000111815
0.000111806
0.0001118
0.000111795
0.000111792
0.00011179
0.000111672
0.000111652
0.000111626
0.000111593
0.000111556
0.000111517
0.000111476
0.000111434
0.000111392
0.000111352
0.000111313
0.000111275
0.00011124
0.000111208
0.000111178
0.000111152
0.000111127
0.000111106
0.000111087
0.000111071
0.000111058
0.000111046
0.000111038
0.000111031
0.000111026
0.000111023
0.000111021
0.000110901
0.000110881
0.000110853
0.000110819
0.00011078
0.000110739
0.000110696
0.000110652
0.000110609
0.000110566
0.000110526
0.000110487
0.00011045
0.000110417
0.000110386
0.000110358
0.000110332
0.00011031
0.000110291
0.000110274
0.00011026
0.000110248
0.000110239
0.000110232
0.000110227
0.000110224
0.000110222
0.000110102
0.000110081
0.000110052
0.000110016
0.000109976
0.000109934
0.000109889
0.000109844
0.000109799
0.000109755
0.000109713
0.000109673
0.000109635
0.0001096
0.000109568
0.000109539
0.000109513
0.00010949
0.00010947
0.000109453
0.000109438
0.000109426
0.000109417
0.000109409
0.000109404
0.000109401
0.000109399
0.00010928
0.000109258
0.000109228
0.000109192
0.000109151
0.000109106
0.000109061
0.000109014
0.000108968
0.000108923
0.00010888
0.000108839
0.0001088
0.000108764
0.000108732
0.000108702
0.000108675
0.000108652
0.000108631
0.000108614
0.000108599
0.000108587
0.000108577
0.000108569
0.000108564
0.00010856
0.000108559
0.00010844
0.000108418
0.000108388
0.00010835
0.000108309
0.000108264
0.000108217
0.00010817
0.000108123
0.000108077
0.000108033
0.000107991
0.000107952
0.000107916
0.000107882
0.000107852
0.000107825
0.000107801
0.00010778
0.000107762
0.000107747
0.000107735
0.000107725
0.000107717
0.000107712
0.000107708
0.000107707
0.00010759
0.000107567
0.000107536
0.000107499
0.000107457
0.000107411
0.000107364
0.000107316
0.000107269
0.000107222
0.000107178
0.000107136
0.000107096
0.000107059
0.000107026
0.000106995
0.000106968
0.000106944
0.000106923
0.000106905
0.000106889
0.000106877
0.000106867
0.000106859
0.000106854
0.00010685
0.000106848
0.000106734
0.000106712
0.00010668
0.000106643
0.0001066
0.000106555
0.000106507
0.000106459
0.000106411
0.000106365
0.00010632
0.000106278
0.000106238
0.000106201
0.000106167
0.000106137
0.000106109
0.000106085
0.000106064
0.000106046
0.000106031
0.000106018
0.000106008
0.000106
0.000105995
0.000105991
0.00010599
0.000105879
0.000105856
0.000105825
0.000105787
0.000105745
0.000105699
0.000105652
0.000105604
0.000105557
0.00010551
0.000105466
0.000105423
0.000105384
0.000105347
0.000105313
0.000105283
0.000105256
0.000105232
0.000105211
0.000105193
0.000105177
0.000105165
0.000105155
0.000105147
0.000105142
0.000105138
0.000105137
0.00010503
0.000105007
0.000104976
0.000104939
0.000104897
0.000104852
0.000104805
0.000104757
0.00010471
0.000104664
0.00010462
0.000104578
0.000104539
0.000104503
0.00010447
0.000104439
0.000104413
0.000104389
0.000104368
0.00010435
0.000104335
0.000104323
0.000104313
0.000104305
0.0001043
0.000104296
0.000104295
0.000104193
0.000104171
0.000104141
0.000104104
0.000104062
0.000104018
0.000103972
0.000103925
0.000103879
0.000103833
0.00010379
0.000103749
0.000103711
0.000103675
0.000103642
0.000103613
0.000103586
0.000103563
0.000103543
0.000103525
0.00010351
0.000103498
0.000103489
0.000103481
0.000103476
0.000103472
0.000103471
0.000103375
0.000103353
0.000103324
0.000103288
0.000103247
0.000103204
0.000103159
0.000103113
0.000103068
0.000103024
0.000102982
0.000102942
0.000102904
0.00010287
0.000102838
0.000102809
0.000102783
0.000102761
0.000102741
0.000102724
0.00010271
0.000102698
0.000102688
0.000102681
0.000102676
0.000102673
0.000102671
0.000102582
0.000102561
0.000102532
0.000102498
0.000102459
0.000102417
0.000102373
0.000102329
0.000102286
0.000102243
0.000102202
0.000102164
0.000102128
0.000102094
0.000102063
0.000102036
0.000102011
0.000101989
0.00010197
0.000101954
0.00010194
0.000101929
0.000101919
0.000101913
0.000101908
0.000101904
0.000101903
0.000101821
0.000101801
0.000101774
0.000101741
0.000101703
0.000101663
0.000101622
0.00010158
0.000101538
0.000101497
0.000101458
0.000101422
0.000101387
0.000101355
0.000101326
0.0001013
0.000101276
0.000101255
0.000101237
0.000101221
0.000101208
0.000101197
0.000101189
0.000101182
0.000101177
0.000101174
0.000101173
0.0001011
0.000101081
0.000101055
0.000101024
0.000100988
0.000100951
0.000100911
0.000100872
0.000100832
0.000100794
0.000100757
0.000100723
0.00010069
0.00010066
0.000100633
0.000100608
0.000100586
0.000100566
0.000100549
0.000100534
0.000100522
0.000100512
0.000100504
0.000100498
0.000100493
0.00010049
0.000100489
0.000100425
0.000100408
0.000100383
0.000100354
0.000100321
0.000100286
0.000100249
0.000100213
0.000100176
0.00010014
0.000100106
0.000100074
0.000100044
0.000100016
9.99907e-05
9.99677e-05
9.99471e-05
9.9929e-05
9.99132e-05
9.98996e-05
9.98882e-05
9.98788e-05
9.98713e-05
9.98656e-05
9.98615e-05
9.98589e-05
9.98576e-05
9.98039e-05
9.97878e-05
9.97656e-05
9.97388e-05
9.97086e-05
9.96764e-05
9.96429e-05
9.96092e-05
9.95758e-05
9.95433e-05
9.95122e-05
9.94828e-05
9.94554e-05
9.943e-05
9.94068e-05
9.93858e-05
9.93671e-05
9.93506e-05
9.93362e-05
9.93239e-05
9.93135e-05
9.9305e-05
9.92982e-05
9.9293e-05
9.92892e-05
9.92869e-05
9.92857e-05
9.92423e-05
9.92279e-05
9.92079e-05
9.91838e-05
9.91567e-05
9.91278e-05
9.90978e-05
9.90675e-05
9.90376e-05
9.90086e-05
9.89808e-05
9.89545e-05
9.893e-05
9.89073e-05
9.88866e-05
9.88679e-05
9.88513e-05
9.88365e-05
9.88237e-05
9.88127e-05
9.88035e-05
9.87959e-05
9.87898e-05
9.87852e-05
9.87819e-05
9.87798e-05
9.87788e-05
9.87457e-05
9.87329e-05
9.87154e-05
9.86942e-05
9.86705e-05
9.86451e-05
9.86188e-05
9.85923e-05
9.85662e-05
9.85408e-05
9.85165e-05
9.84935e-05
9.84721e-05
9.84524e-05
9.84344e-05
9.84181e-05
9.84036e-05
9.83908e-05
9.83796e-05
9.83701e-05
9.83621e-05
9.83555e-05
9.83502e-05
9.83462e-05
9.83433e-05
9.83415e-05
9.83406e-05
9.83172e-05
9.83063e-05
9.82913e-05
9.82732e-05
9.82529e-05
9.82312e-05
9.82088e-05
9.81862e-05
9.81639e-05
9.81423e-05
9.81216e-05
9.81021e-05
9.80839e-05
9.80672e-05
9.80519e-05
9.80381e-05
9.80258e-05
9.8015e-05
9.80056e-05
9.79975e-05
9.79907e-05
9.79851e-05
9.79807e-05
9.79773e-05
9.79748e-05
9.79733e-05
9.79725e-05
9.79579e-05
9.79488e-05
9.79363e-05
9.79213e-05
9.79044e-05
9.78864e-05
9.78678e-05
9.7849e-05
9.78306e-05
9.78127e-05
9.77956e-05
9.77796e-05
9.77646e-05
9.77508e-05
9.77382e-05
9.77268e-05
9.77167e-05
9.77078e-05
9.77e-05
9.76934e-05
9.76878e-05
9.76832e-05
9.76796e-05
9.76768e-05
9.76748e-05
9.76735e-05
9.76729e-05
9.76654e-05
9.76581e-05
9.7648e-05
9.76359e-05
9.76222e-05
9.76077e-05
9.75927e-05
9.75777e-05
9.75628e-05
9.75485e-05
9.75348e-05
9.75219e-05
9.75099e-05
9.74988e-05
9.74887e-05
9.74796e-05
9.74716e-05
9.74644e-05
9.74582e-05
9.74529e-05
9.74485e-05
9.74448e-05
9.74419e-05
9.74397e-05
9.74381e-05
9.7437e-05
9.74366e-05
9.74344e-05
9.74287e-05
9.74207e-05
9.74112e-05
9.74005e-05
9.73891e-05
9.73773e-05
9.73655e-05
9.73539e-05
9.73426e-05
9.73319e-05
9.73218e-05
9.73124e-05
9.73038e-05
9.72959e-05
9.72888e-05
9.72825e-05
9.72769e-05
9.72721e-05
9.7268e-05
9.72645e-05
9.72616e-05
9.72593e-05
9.72576e-05
9.72563e-05
9.72555e-05
9.72552e-05
9.72565e-05
9.72521e-05
9.72459e-05
9.72386e-05
9.72303e-05
9.72215e-05
9.72124e-05
9.72033e-05
9.71944e-05
9.71857e-05
9.71774e-05
9.71697e-05
9.71624e-05
9.71558e-05
9.71497e-05
9.71442e-05
9.71393e-05
9.71351e-05
9.71313e-05
9.71281e-05
9.71254e-05
9.71232e-05
9.71215e-05
9.71201e-05
9.71192e-05
9.71185e-05
9.71183e-05
9.71215e-05
9.7118e-05
9.71133e-05
9.71077e-05
9.71013e-05
9.70946e-05
9.70876e-05
9.70806e-05
9.70737e-05
9.7067e-05
9.70607e-05
9.70547e-05
9.70491e-05
9.70439e-05
9.70392e-05
9.7035e-05
9.70312e-05
9.70279e-05
9.7025e-05
9.70226e-05
9.70205e-05
9.70188e-05
9.70174e-05
9.70164e-05
9.70156e-05
9.70151e-05
9.70149e-05
9.70189e-05
9.70163e-05
9.70126e-05
9.70082e-05
9.70033e-05
9.6998e-05
9.69926e-05
9.69871e-05
9.69818e-05
9.69766e-05
9.69716e-05
9.69669e-05
9.69625e-05
9.69585e-05
9.69548e-05
9.69515e-05