/*--------------------------------*- C++ -*----------------------------------*\
| =========                 |                                                 |
| \\      /  F ield         | OpenFOAM: The Open Source CFD Toolbox           |
|  \\    /   O peration     | Version:  2106                                  |
|   \\  /    A nd           | Website:  www.openfoam.com                      |
|    \\/     M anipulation  |                                                 |
\*---------------------------------------------------------------------------*/
FoamFile
{
    version     2.0;
    format      ascii;
    arch        "LSB;label=32;scalar=64";
    class       volScalarField;
    location    "79.99952";
    object      C6H6_0;
}
// * * * * * * * * * * * * * * * * * * * * * * * * * * * * * * * * * * * * * //

dimensions      [0 0 0 0 0 0 0];

internalField   nonuniform List<scalar> 
3360
(
4.6758e-19
4.82626e-19
5.03566e-19
5.29179e-19
5.58398e-19
5.90264e-19
6.23912e-19
6.5856e-19
6.93513e-19
7.28156e-19
7.61956e-19
7.94462e-19
8.25301e-19
8.54174e-19
8.80857e-19
9.0519e-19
9.27077e-19
9.46476e-19
9.63395e-19
9.77884e-19
9.90031e-19
9.99952e-19
1.00779e-18
1.0137e-18
1.01786e-18
1.02044e-18
1.02164e-18
2.05118e-18
2.12657e-18
2.23296e-18
2.36546e-18
2.51999e-18
2.69303e-18
2.88141e-18
3.08224e-18
3.29282e-18
3.5106e-18
3.73315e-18
3.95809e-18
4.18308e-18
4.40579e-18
4.62396e-18
4.83535e-18
5.03777e-18
5.22908e-18
5.40727e-18
5.57041e-18
5.71675e-18
5.84476e-18
5.9531e-18
6.04072e-18
6.10685e-18
6.15101e-18
6.17303e-18
6.43597e-18
6.71844e-18
7.11982e-18
7.62419e-18
8.21833e-18
8.89036e-18
9.62899e-18
1.04231e-17
1.12614e-17
1.21324e-17
1.30244e-17
1.39257e-17
1.48248e-17
1.57101e-17
1.65708e-17
1.73963e-17
1.81769e-17
1.8904e-17
1.95699e-17
2.01685e-17
2.06949e-17
2.11456e-17
2.15187e-17
2.18137e-17
2.20311e-17
2.21729e-17
2.22419e-17
1.87437e-17
1.96747e-17
2.10066e-17
2.26916e-17
2.469e-17
2.69644e-17
2.94776e-17
3.21909e-17
3.50637e-17
3.80534e-17
4.11161e-17
4.42068e-17
4.72811e-17
5.02956e-17
5.32093e-17
5.59843e-17
5.85872e-17
6.09896e-17
6.31686e-17
6.51071e-17
6.67937e-17
6.82226e-17
6.93928e-17
7.03081e-17
7.0976e-17
7.14073e-17
7.16153e-17
5.47629e-17
5.77e-17
6.19095e-17
6.72478e-17
7.35926e-17
8.08269e-17
8.88299e-17
9.7474e-17
1.06623e-16
1.16133e-16
1.25856e-16
1.35642e-16
1.45345e-16
1.54823e-16
1.63948e-16
1.72603e-16
1.80687e-16
1.88118e-16
1.94831e-16
2.00781e-16
2.05939e-16
2.10295e-16
2.13851e-16
2.16625e-16
2.18644e-16
2.19945e-16
2.20571e-16
1.61471e-16
1.7049e-16
1.83434e-16
1.99863e-16
2.194e-16
2.41683e-16
2.66333e-16
2.9295e-16
3.21106e-16
3.50349e-16
3.80215e-16
4.10236e-16
4.39956e-16
4.68943e-16
4.968e-16
5.23174e-16
5.47764e-16
5.70326e-16
5.90672e-16
6.08673e-16
6.24254e-16
6.37389e-16
6.48098e-16
6.56438e-16
6.62501e-16
6.66403e-16
6.68278e-16
4.79655e-16
5.07064e-16
5.46394e-16
5.96315e-16
6.5568e-16
7.23368e-16
7.98219e-16
8.78995e-16
9.64379e-16
1.05299e-15
1.1434e-15
1.23419e-15
1.32399e-15
1.41149e-15
1.49549e-15
1.57495e-15
1.64898e-15
1.71686e-15
1.77802e-15
1.83211e-15
1.8789e-15
1.91833e-15
1.95047e-15
1.97549e-15
1.99368e-15
2.00538e-15
2.011e-15
1.42955e-15
1.51202e-15
1.63043e-15
1.78077e-15
1.9596e-15
2.16353e-15
2.38906e-15
2.63242e-15
2.88963e-15
3.15648e-15
3.42868e-15
3.70194e-15
3.97209e-15
4.23521e-15
4.48773e-15
4.72649e-15
4.94882e-15
5.15257e-15
5.33611e-15
5.49833e-15
5.6386e-15
5.75676e-15
5.85302e-15
5.92794e-15
5.98237e-15
6.01738e-15
6.0342e-15
4.27183e-15
4.51969e-15
4.87547e-15
5.32715e-15
5.86434e-15
6.47684e-15
7.15402e-15
7.88455e-15
8.65639e-15
9.4569e-15
1.02732e-14
1.10923e-14
1.19018e-14
1.26901e-14
1.34463e-14
1.41611e-14
1.48266e-14
1.54364e-14
1.59856e-14
1.64709e-14
1.68905e-14
1.7244e-14
1.75319e-14
1.7756e-14
1.79188e-14
1.80235e-14
1.80739e-14
1.27655e-14
1.35078e-14
1.45735e-14
1.59266e-14
1.75359e-14
1.93707e-14
2.13992e-14
2.35874e-14
2.58989e-14
2.8296e-14
3.07399e-14
3.3192e-14
3.56148e-14
3.79734e-14
4.02357e-14
4.23736e-14
4.43635e-14
4.61863e-14
4.78276e-14
4.92777e-14
5.05312e-14
5.15868e-14
5.24465e-14
5.31154e-14
5.36013e-14
5.39137e-14
5.40638e-14
3.81638e-14
4.03859e-14
4.35752e-14
4.76238e-14
5.24378e-14
5.79252e-14
6.399e-14
7.05302e-14
7.7437e-14
8.45971e-14
9.18944e-14
9.92136e-14
1.06443e-13
1.13479e-13
1.20226e-13
1.26599e-13
1.32531e-13
1.37962e-13
1.42852e-13
1.47172e-13
1.50905e-13
1.54049e-13
1.56608e-13
1.586e-13
1.60047e-13
1.60977e-13
1.61424e-13
1.13979e-13
1.20612e-13
1.30132e-13
1.42215e-13
1.56579e-13
1.72949e-13
1.91035e-13
2.10533e-13
2.31117e-13
2.52448e-13
2.74179e-13
2.95967e-13
3.1748e-13
3.38407e-13
3.58467e-13
3.77411e-13
3.95032e-13
4.11163e-13
4.2568e-13
4.385e-13
4.49576e-13
4.58898e-13
4.66488e-13
4.72392e-13
4.76678e-13
4.79434e-13
4.80757e-13
3.4e-13
3.59765e-13
3.8812e-13
4.24093e-13
4.66836e-13
5.15518e-13
5.69274e-13
6.27186e-13
6.88283e-13
7.51553e-13
8.15967e-13
8.80505e-13
9.44186e-13
1.00609e-12
1.06539e-12
1.12137e-12
1.1734e-12
1.22101e-12
1.26384e-12
1.30164e-12
1.33429e-12
1.36176e-12
1.38411e-12
1.4015e-12
1.41412e-12
1.42223e-12
1.42612e-12
1.01113e-12
1.06974e-12
1.15379e-12
1.26037e-12
1.38694e-12
1.53098e-12
1.68991e-12
1.86099e-12
2.04131e-12
2.22787e-12
2.41763e-12
2.60757e-12
2.79481e-12
2.97666e-12
3.1507e-12
3.31482e-12
3.46727e-12
3.60663e-12
3.7319e-12
3.84238e-12
3.93774e-12
4.01791e-12
4.08313e-12
4.13381e-12
4.17059e-12
4.19421e-12
4.20555e-12
2.99561e-12
3.1684e-12
3.41606e-12
3.7298e-12
4.10198e-12
4.52508e-12
4.99133e-12
5.49252e-12
6.02007e-12
6.56509e-12
7.11863e-12
7.67191e-12
8.21654e-12
8.74476e-12
9.24961e-12
9.72507e-12
1.01662e-11
1.05689e-11
1.09306e-11
1.12492e-11
1.1524e-11
1.17549e-11
1.19425e-11
1.20882e-11
1.21939e-11
1.22617e-11
1.22943e-11
8.82125e-12
9.3257e-12
1.0048e-11
1.09621e-11
1.20449e-11
1.32739e-11
1.46259e-11
1.60766e-11
1.76007e-11
1.91723e-11
2.07653e-11
2.23545e-11
2.39159e-11
2.54273e-11
2.68693e-11
2.8225e-11
2.94805e-11
3.06252e-11
3.16514e-11
3.25544e-11
3.3332e-11
3.39845e-11
3.45142e-11
3.49252e-11
3.52229e-11
3.5414e-11
3.55056e-11
2.57702e-11
2.72234e-11
2.93016e-11
3.1927e-11
3.50309e-11
3.85461e-11
4.2404e-11
4.6533e-11
5.08596e-11
5.53091e-11
5.98073e-11
6.42828e-11
6.86685e-11
7.29034e-11
7.69338e-11
8.07141e-11
8.42077e-11
8.73863e-11
9.02304e-11
9.27284e-11
9.4876e-11
9.66754e-11
9.81342e-11
9.92647e-11
1.00083e-10
1.00607e-10
1.00858e-10
7.44746e-11
7.85835e-11
8.44496e-11
9.18437e-11
1.00562e-10
1.10408e-10
1.21178e-10
1.32668e-10
1.44666e-10
1.56961e-10
1.69349e-10
1.81633e-10
1.93631e-10
2.05179e-10
2.16136e-10
2.26383e-10
2.35827e-10
2.44398e-10
2.52049e-10
2.58754e-10
2.64507e-10
2.69318e-10
2.73212e-10
2.76225e-10
2.78402e-10
2.79796e-10
2.80463e-10
2.12214e-10
2.23549e-10
2.39695e-10
2.59987e-10
2.83833e-10
3.10659e-10
3.39887e-10
3.70935e-10
4.03219e-10
4.36164e-10
4.69215e-10
5.01852e-10
5.33602e-10
5.64047e-10
5.92829e-10
6.19656e-10
6.44301e-10
6.666e-10
6.86451e-10
7.03805e-10
7.1866e-10
7.31058e-10
7.41073e-10
7.4881e-10
7.54392e-10
7.5796e-10
7.59666e-10
5.93721e-10
6.24008e-10
6.67031e-10
7.20914e-10
7.83973e-10
8.54588e-10
9.31158e-10
1.01209e-09
1.09583e-09
1.18085e-09
1.26573e-09
1.34915e-09
1.42994e-09
1.50708e-09
1.5797e-09
1.64714e-09
1.70888e-09
1.76456e-09
1.81398e-09
1.85706e-09
1.89385e-09
1.92449e-09
1.94919e-09
1.96823e-09
1.98195e-09
1.9907e-09
1.99489e-09
1.62308e-09
1.70091e-09
1.81112e-09
1.94859e-09
2.10872e-09
2.28711e-09
2.47949e-09
2.68172e-09
2.8898e-09
3.09992e-09
3.30859e-09
3.51265e-09
3.70932e-09
3.89625e-09
4.07151e-09
4.23361e-09
4.38147e-09
4.51438e-09
4.63199e-09
4.73424e-09
4.82133e-09
4.89369e-09
4.95191e-09
4.99672e-09
5.02895e-09
5.04949e-09
5.05929e-09
4.31191e-09
4.50302e-09
4.77272e-09
5.10768e-09
5.4959e-09
5.92608e-09
6.38741e-09
6.86958e-09
7.36288e-09
7.85832e-09
8.34773e-09
8.82392e-09
9.28069e-09
9.71291e-09
1.01165e-08
1.04884e-08
1.08264e-08
1.11292e-08
1.13965e-08
1.16282e-08
1.1825e-08
1.19883e-08
1.21194e-08
1.22201e-08
1.22924e-08
1.23385e-08
1.23604e-08
1.10728e-08
1.15192e-08
1.21472e-08
1.29237e-08
1.38195e-08
1.48068e-08
1.58599e-08
1.69547e-08
1.80687e-08
1.91818e-08
2.02759e-08
2.13356e-08
2.23476e-08
2.33013e-08
2.41885e-08
2.50031e-08
2.57413e-08
2.64008e-08
2.69811e-08
2.74832e-08
2.79089e-08
2.82612e-08
2.85436e-08
2.87603e-08
2.89157e-08
2.90145e-08
2.90615e-08
2.7362e-08
2.8353e-08
2.97428e-08
3.1455e-08
3.34214e-08
3.55789e-08
3.78693e-08
4.02389e-08
4.2639e-08
4.50263e-08
4.7363e-08
4.9617e-08
5.17615e-08
5.37756e-08
5.56433e-08
5.73532e-08
5.88984e-08
6.02757e-08
6.1485e-08
6.2529e-08
6.34128e-08
6.41429e-08
6.47274e-08
6.51753e-08
6.54961e-08
6.57e-08
6.57969e-08
6.48841e-08
6.69799e-08
6.99119e-08
7.3513e-08
7.76342e-08
8.2139e-08
8.69027e-08
9.18124e-08
9.67669e-08
1.01677e-07
1.06468e-07
1.11074e-07
1.15443e-07
1.19535e-07
1.23321e-07
1.26779e-07
1.29897e-07
1.32671e-07
1.35102e-07
1.37198e-07
1.3897e-07
1.40432e-07
1.41601e-07
1.42496e-07
1.43136e-07
1.43543e-07
1.43736e-07
1.47528e-07
1.51775e-07
1.57706e-07
1.64973e-07
1.73269e-07
1.82312e-07
1.9185e-07
2.01652e-07
2.11518e-07
2.21272e-07
2.30764e-07
2.39871e-07
2.48492e-07
2.56553e-07
2.63995e-07
2.70783e-07
2.76895e-07
2.82326e-07
2.8708e-07
2.91175e-07
2.94632e-07
2.97482e-07
2.9976e-07
3.01502e-07
3.02749e-07
3.03539e-07
3.03915e-07
3.21883e-07
3.30191e-07
3.41779e-07
3.5596e-07
3.72122e-07
3.89713e-07
4.08234e-07
4.27242e-07
4.46344e-07
4.65204e-07
4.83536e-07
5.01103e-07
5.17719e-07
5.33238e-07
5.47556e-07
5.60606e-07
5.7235e-07
5.82778e-07
5.91905e-07
5.9976e-07
6.06391e-07
6.11857e-07
6.16223e-07
6.19561e-07
6.21949e-07
6.23464e-07
6.24183e-07
6.74853e-07
6.90646e-07
7.12666e-07
7.39599e-07
7.70279e-07
8.03655e-07
8.3878e-07
8.74815e-07
9.1102e-07
9.46759e-07
9.81494e-07
1.01478e-06
1.04627e-06
1.07568e-06
1.10283e-06
1.12757e-06
1.14984e-06
1.16963e-06
1.18695e-06
1.20186e-06
1.21446e-06
1.22484e-06
1.23314e-06
1.23948e-06
1.24403e-06
1.24691e-06
1.24827e-06
1.36059e-06
1.38984e-06
1.43062e-06
1.48052e-06
1.53736e-06
1.59922e-06
1.66434e-06
1.73119e-06
1.79839e-06
1.86478e-06
1.92934e-06
1.99127e-06
2.0499e-06
2.10471e-06
2.15534e-06
2.20154e-06
2.24317e-06
2.28017e-06
2.3126e-06
2.34054e-06
2.36416e-06
2.38364e-06
2.39923e-06
2.41116e-06
2.4197e-06
2.42512e-06
2.42769e-06
2.63467e-06
2.68715e-06
2.76035e-06
2.84991e-06
2.952e-06
3.06315e-06
3.18024e-06
3.3005e-06
3.42149e-06
3.5411e-06
3.65754e-06
3.76932e-06
3.87523e-06
3.97435e-06
4.06598e-06
4.14967e-06
4.22514e-06
4.2923e-06
4.35119e-06
4.40198e-06
4.44494e-06
4.48041e-06
4.5088e-06
4.53055e-06
4.54613e-06
4.55603e-06
4.56074e-06
4.8818e-06
4.97182e-06
5.09736e-06
5.25098e-06
5.42609e-06
5.61673e-06
5.81759e-06
6.02391e-06
6.23151e-06
6.43679e-06
6.63665e-06
6.82856e-06
7.01044e-06
7.1807e-06
7.33815e-06
7.48198e-06
7.61174e-06
7.72723e-06
7.82854e-06
7.91594e-06
7.98989e-06
8.05096e-06
8.09985e-06
8.13732e-06
8.16416e-06
8.18122e-06
8.18934e-06
8.60925e-06
8.75454e-06
8.95707e-06
9.20475e-06
9.48685e-06
9.79376e-06
1.01168e-05
1.04484e-05
1.07818e-05
1.11112e-05
1.14317e-05
1.17391e-05
1.20304e-05
1.23028e-05
1.25546e-05
1.27845e-05
1.29917e-05
1.31761e-05
1.33378e-05
1.34773e-05
1.35952e-05
1.36926e-05
1.37705e-05
1.38302e-05
1.38729e-05
1.39001e-05
1.3913e-05
1.4382e-05
1.46001e-05
1.49037e-05
1.52745e-05
1.56962e-05
1.61542e-05
1.66355e-05
1.71287e-05
1.76235e-05
1.81116e-05
1.85855e-05
1.90395e-05
1.94687e-05
1.98697e-05
2.02396e-05
2.05769e-05
2.08807e-05
2.11505e-05
2.13869e-05
2.15905e-05
2.17625e-05
2.19044e-05
2.20179e-05
2.21048e-05
2.2167e-05
2.22065e-05
2.22252e-05
2.27083e-05
2.30109e-05
2.34317e-05
2.39447e-05
2.45269e-05
2.51578e-05
2.58191e-05
2.64949e-05
2.71713e-05
2.78365e-05
2.8481e-05
2.90966e-05
2.96774e-05
3.02185e-05
3.07167e-05
3.11701e-05
3.15775e-05
3.19388e-05
3.22547e-05
3.25265e-05
3.27558e-05
3.29447e-05
3.30956e-05
3.3211e-05
3.32936e-05
3.33459e-05
3.33708e-05
3.3921e-05
3.43106e-05
3.48515e-05
3.55096e-05
3.62547e-05
3.706e-05
3.79018e-05
3.87595e-05
3.96154e-05
4.0455e-05
4.12659e-05
4.20385e-05
4.27654e-05
4.34411e-05
4.40618e-05
4.46253e-05
4.51308e-05
4.55783e-05
4.5969e-05
4.63045e-05
4.65873e-05
4.682e-05
4.70057e-05
4.71476e-05
4.72491e-05
4.73134e-05
4.73439e-05
4.81138e-05
4.85834e-05
4.92346e-05
5.00253e-05
5.09188e-05
5.18821e-05
5.28866e-05
5.39075e-05
5.49238e-05
5.59182e-05
5.68763e-05
5.77873e-05
5.86424e-05
5.94358e-05
6.01633e-05
6.08228e-05
6.14134e-05
6.19357e-05
6.23911e-05
6.27819e-05
6.3111e-05
6.33816e-05
6.35975e-05
6.37623e-05
6.38801e-05
6.39548e-05
6.39903e-05
6.51606e-05
6.56982e-05
6.64427e-05
6.73456e-05
6.83641e-05
6.94605e-05
7.06017e-05
7.17595e-05
7.29101e-05
7.40339e-05
7.51152e-05
7.61417e-05
7.71041e-05
7.79958e-05
7.88127e-05
7.95525e-05
8.02146e-05
8.07997e-05
8.13096e-05
8.17469e-05
8.21151e-05
8.24179e-05
8.26593e-05
8.28437e-05
8.29755e-05
8.30591e-05
8.30988e-05
8.47985e-05
8.53913e-05
8.62118e-05
8.72061e-05
8.83267e-05
8.95316e-05
9.07846e-05
9.20546e-05
9.33155e-05
9.4546e-05
9.5729e-05
9.68511e-05
9.79026e-05
9.88764e-05
9.97681e-05
0.000100575
0.000101298
0.000101936
0.000102492
0.000102969
0.000103371
0.000103701
0.000103964
0.000104166
0.000104309
0.000104401
0.000104444
0.000106718
0.000107356
0.000108239
0.000109308
0.000110512
0.000111807
0.000113153
0.000114516
0.000115869
0.000117189
0.000118458
0.000119661
0.000120789
0.000121833
0.000122789
0.000123654
0.000124428
0.000125113
0.000125709
0.000126221
0.000126652
0.000127006
0.000127289
0.000127505
0.00012766
0.000127758
0.000127804
0.000130627
0.000131303
0.000132238
0.000133371
0.000134647
0.000136019
0.000137444
0.000138888
0.000140321
0.000141719
0.000143063
0.000144338
0.000145532
0.000146638
0.000147651
0.000148568
0.000149389
0.000150115
0.000150748
0.00015129
0.000151748
0.000152124
0.000152424
0.000152654
0.000152818
0.000152922
0.000152971
0.000156276
0.000156985
0.000157967
0.000159157
0.000160497
0.000161937
0.000163434
0.00016495
0.000166456
0.000167925
0.000169337
0.000170676
0.000171931
0.000173094
0.000174159
0.000175124
0.000175987
0.000176751
0.000177417
0.000177988
0.000178469
0.000178866
0.000179182
0.000179424
0.000179597
0.000179706
0.000179759
0.000183464
0.000184204
0.00018523
0.000186471
0.00018787
0.000189374
0.000190937
0.000192521
0.000194094
0.000195628
0.000197104
0.000198504
0.000199816
0.000201031
0.000202145
0.000203154
0.000204057
0.000204856
0.000205553
0.000206151
0.000206654
0.000207069
0.0002074
0.000207653
0.000207835
0.00020795
0.000208004
0.000212033
0.000212803
0.000213869
0.00021516
0.000216615
0.000218179
0.000219805
0.000221453
0.000223089
0.000224686
0.000226221
0.000227678
0.000229044
0.00023031
0.000231469
0.00023252
0.000233461
0.000234292
0.000235018
0.000235641
0.000236166
0.000236598
0.000236943
0.000237207
0.000237396
0.000237516
0.000237573
0.000241858
0.000242657
0.000243762
0.000245101
0.000246609
0.000248231
0.000249917
0.000251626
0.000253323
0.000254979
0.000256572
0.000258083
0.0002595
0.000260813
0.000262016
0.000263107
0.000264083
0.000264946
0.000265699
0.000266346
0.000266891
0.00026734
0.000267698
0.000267972
0.000268168
0.000268293
0.000268352
0.000272839
0.000273665
0.000274808
0.000276193
0.000277753
0.000279431
0.000281175
0.000282942
0.000284698
0.000286411
0.000288058
0.000289622
0.000291088
0.000292447
0.000293691
0.000294819
0.00029583
0.000296723
0.000297502
0.000298171
0.000298735
0.0002992
0.000299571
0.000299854
0.000300057
0.000300186
0.000300247
0.000304896
0.000305748
0.000306928
0.000308357
0.000309967
0.000311698
0.000313498
0.000315322
0.000317134
0.000318902
0.000320602
0.000322216
0.000323729
0.000325131
0.000326416
0.00032758
0.000328622
0.000329544
0.000330349
0.000331039
0.000331621
0.000332101
0.000332483
0.000332776
0.000332986
0.000333119
0.000333182
0.00033796
0.000338838
0.000340052
0.000341524
0.000343183
0.000344966
0.000346819
0.000348698
0.000350564
0.000352385
0.000354136
0.000355798
0.000357356
0.0003588
0.000360123
0.000361322
0.000362396
0.000363345
0.000364173
0.000364885
0.000365484
0.000365977
0.000366372
0.000366673
0.000366889
0.000367026
0.000367091
0.000371974
0.000372877
0.000374126
0.000375639
0.000377344
0.000379177
0.000381083
0.000383014
0.000384932
0.000386804
0.000388604
0.000390313
0.000391914
0.000393398
0.000394758
0.00039599
0.000397094
0.000398069
0.000398921
0.000399651
0.000400267
0.000400775
0.000401179
0.000401489
0.000401711
0.000401852
0.000401919
0.00040689
0.000407816
0.000409099
0.000410652
0.000412402
0.000414283
0.000416239
0.000418222
0.00042019
0.000422111
0.000423958
0.000425711
0.000427354
0.000428877
0.000430272
0.000431536
0.000432668
0.000433669
0.000434542
0.000435292
0.000435924
0.000436444
0.00043686
0.000437177
0.000437405
0.000437549
0.000437618
0.000442664
0.000443614
0.000444928
0.00044652
0.000448313
0.000450241
0.000452246
0.000454277
0.000456294
0.000458262
0.000460154
0.00046195
0.000463634
0.000465194
0.000466623
0.000467918
0.000469077
0.000470103
0.000470997
0.000471765
0.000472412
0.000472945
0.00047337
0.000473696
0.000473929
0.000474076
0.000474147
0.000479259
0.00048023
0.000481575
0.000483204
0.00048504
0.000487013
0.000489064
0.000491142
0.000493206
0.00049522
0.000497156
0.000498993
0.000500715
0.000502311
0.000503773
0.000505098
0.000506284
0.000507332
0.000508247
0.000509033
0.000509694
0.000510239
0.000510674
0.000511007
0.000511245
0.000511397
0.000511468
0.000516638
0.000517632
0.000519006
0.000520671
0.000522547
0.000524564
0.00052666
0.000528784
0.000530892
0.00053295
0.000534929
0.000536806
0.000538565
0.000540195
0.000541689
0.000543042
0.000544254
0.000545325
0.000546259
0.000547062
0.000547738
0.000548294
0.000548738
0.000549078
0.000549321
0.000549476
0.000549549
0.000554771
0.000555786
0.000557189
0.000558889
0.000560804
0.000562862
0.000565002
0.00056717
0.000569322
0.000571422
0.000573441
0.000575357
0.000577152
0.000578816
0.00058034
0.00058172
0.000582956
0.000584049
0.000585003
0.000585821
0.000586511
0.000587078
0.000587532
0.000587878
0.000588126
0.000588284
0.000588359
0.000593629
0.000594663
0.000596094
0.000597827
0.00059978
0.000601879
0.00060406
0.000606271
0.000608465
0.000610606
0.000612664
0.000614617
0.000616447
0.000618143
0.000619696
0.000621103
0.000622363
0.000623477
0.000624449
0.000625283
0.000625985
0.000626564
0.000627026
0.000627379
0.000627632
0.000627792
0.000627869
0.000633183
0.000634236
0.000635694
0.00063746
0.000639449
0.000641587
0.000643809
0.00064606
0.000648295
0.000650475
0.000652571
0.00065456
0.000656424
0.00065815
0.000659732
0.000661165
0.000662447
0.000663582
0.000664571
0.00066542
0.000666135
0.000666724
0.000667194
0.000667554
0.000667811
0.000667975
0.000668053
0.000673407
0.00067448
0.000675963
0.00067776
0.000679784
0.00068196
0.000684221
0.000686512
0.000688786
0.000691004
0.000693137
0.00069516
0.000697056
0.000698813
0.000700422
0.000701879
0.000703184
0.000704338
0.000705344
0.000706207
0.000706935
0.000707534
0.000708012
0.000708378
0.00070864
0.000708806
0.000708885
0.000714278
0.000715368
0.000716877
0.000718704
0.000720762
0.000722974
0.000725273
0.000727602
0.000729914
0.000732169
0.000734337
0.000736394
0.000738321
0.000740106
0.000741742
0.000743223
0.000744549
0.000745721
0.000746744
0.000747622
0.000748361
0.00074897
0.000749456
0.000749827
0.000750093
0.000750262
0.000750343
0.000755771
0.000756879
0.000758411
0.000760268
0.000762359
0.000764606
0.000766941
0.000769307
0.000771655
0.000773946
0.000776148
0.000778236
0.000780194
0.000782007
0.000783668
0.000785172
0.000786519
0.000787709
0.000788748
0.000789639
0.00079039
0.000791008
0.000791501
0.000791879
0.000792149
0.00079232
0.000792402
0.000797863
0.000798988
0.000800544
0.000802428
0.000804551
0.000806832
0.000809202
0.000811603
0.000813987
0.000816312
0.000818546
0.000820666
0.000822653
0.000824493
0.000826178
0.000827705
0.000829071
0.000830279
0.000831333
0.000832237
0.000832999
0.000833626
0.000834127
0.00083451
0.000834784
0.000834957
0.00083504
0.000840532
0.000841673
0.000843251
0.000845163
0.000847316
0.000849629
0.000852034
0.000854469
0.000856886
0.000859244
0.000861511
0.000863661
0.000865675
0.000867541
0.00086925
0.000870798
0.000872184
0.000873408
0.000874477
0.000875393
0.000876166
0.000876802
0.000877309
0.000877698
0.000877975
0.000878152
0.000878235
0.000883756
0.000884912
0.000886512
0.00088845
0.000890632
0.000892977
0.000895414
0.000897882
0.000900332
0.000902722
0.000905019
0.000907197
0.000909239
0.00091113
0.000912861
0.00091443
0.000915834
0.000917075
0.000918157
0.000919086
0.000919869
0.000920513
0.000921027
0.00092142
0.000921702
0.00092188
0.000921965
0.000927511
0.000928683
0.000930303
0.000932266
0.000934476
0.000936852
0.00093932
0.00094182
0.000944301
0.000946721
0.000949047
0.000951254
0.000953321
0.000955235
0.000956989
0.000958577
0.000959999
0.000961255
0.000962351
0.000963292
0.000964084
0.000964736
0.000965257
0.000965655
0.00096594
0.000966121
0.000966207
0.000971776
0.000972962
0.000974602
0.000976589
0.000978826
0.00098123
0.000983729
0.000986259
0.00098877
0.000991219
0.000993574
0.000995806
0.000997898
0.000999836
0.00100161
0.00100322
0.00100466
0.00100593
0.00100704
0.00100799
0.00100879
0.00100945
0.00100998
0.00101038
0.00101067
0.00101085
0.00101094
0.00101653
0.00101773
0.00101938
0.00102139
0.00102366
0.00102609
0.00102862
0.00103118
0.00103372
0.00103619
0.00103857
0.00104083
0.00104295
0.00104491
0.0010467
0.00104833
0.00104978
0.00105107
0.00105219
0.00105315
0.00105396
0.00105463
0.00105516
0.00105557
0.00105586
0.00105604
0.00105613
0.00106174
0.00106295
0.00106463
0.00106666
0.00106895
0.0010714
0.00107396
0.00107654
0.00107911
0.00108161
0.00108402
0.0010863
0.00108844
0.00109042
0.00109223
0.00109388
0.00109534
0.00109664
0.00109778
0.00109875
0.00109957
0.00110024
0.00110078
0.00110119
0.00110149
0.00110167
0.00110176
0.00110738
0.0011086
0.0011103
0.00111235
0.00111466
0.00111714
0.00111972
0.00112234
0.00112493
0.00112746
0.00112989
0.00113219
0.00113435
0.00113635
0.00113818
0.00113984
0.00114132
0.00114263
0.00114378
0.00114476
0.00114559
0.00114627
0.00114681
0.00114723
0.00114752
0.00114771
0.0011478
0.00115343
0.00115466
0.00115637
0.00115845
0.00116078
0.00116328
0.00116589
0.00116852
0.00117114
0.00117369
0.00117614
0.00117847
0.00118065
0.00118266
0.00118451
0.00118618
0.00118768
0.001189
0.00119016
0.00119115
0.00119198
0.00119267
0.00119322
0.00119364
0.00119394
0.00119413
0.00119422
0.00119985
0.00120109
0.00120282
0.00120491
0.00120726
0.00120979
0.00121241
0.00121507
0.00121771
0.00122028
0.00122275
0.0012251
0.00122729
0.00122933
0.00123119
0.00123288
0.00123439
0.00123572
0.00123688
0.00123788
0.00123872
0.00123941
0.00123997
0.00124039
0.00124069
0.00124088
0.00124097
0.0012466
0.00124786
0.00124959
0.0012517
0.00125407
0.00125661
0.00125926
0.00126194
0.0012646
0.00126719
0.00126968
0.00127204
0.00127425
0.0012763
0.00127818
0.00127987
0.00128139
0.00128274
0.00128391
0.00128492
0.00128576
0.00128646
0.00128702
0.00128744
0.00128775
0.00128794
0.00128803
0.00129364
0.00129491
0.00129666
0.00129878
0.00130116
0.00130372
0.00130639
0.00130908
0.00131176
0.00131437
0.00131687
0.00131925
0.00132147
0.00132354
0.00132542
0.00132713
0.00132866
0.00133001
0.00133119
0.0013322
0.00133306
0.00133376
0.00133432
0.00133475
0.00133505
0.00133525
0.00133534
0.00134093
0.0013422
0.00134396
0.00134609
0.00134849
0.00135107
0.00135374
0.00135645
0.00135914
0.00136176
0.00136428
0.00136667
0.00136891
0.00137098
0.00137288
0.0013746
0.00137613
0.00137749
0.00137868
0.00137969
0.00138055
0.00138125
0.00138182
0.00138225
0.00138255
0.00138275
0.00138284
0.0013884
0.00138968
0.00139145
0.00139358
0.00139599
0.00139858
0.00140127
0.00140399
0.00140669
0.00140932
0.00141185
0.00141425
0.00141649
0.00141857
0.00142047
0.0014222
0.00142374
0.0014251
0.00142629
0.00142731
0.00142817
0.00142888
0.00142944
0.00142988
0.00143018
0.00143038
0.00143047
0.00143599
0.00143727
0.00143904
0.00144118
0.0014436
0.00144619
0.00144889
0.00145161
0.00145432
0.00145696
0.00145949
0.0014619
0.00146415
0.00146623
0.00146814
0.00146987
0.00147141
0.00147278
0.00147397
0.00147499
0.00147585
0.00147656
0.00147712
0.00147756
0.00147787
0.00147806
0.00147816
0.00148361
0.00148489
0.00148666
0.00148881
0.00149123
0.00149382
0.00149652
0.00149925
0.00150196
0.0015046
0.00150713
0.00150954
0.00151179
0.00151387
0.00151578
0.00151751
0.00151905
0.00152042
0.00152161
0.00152263
0.00152349
0.0015242
0.00152477
0.0015252
0.00152551
0.0015257
0.0015258
0.00153117
0.00153245
0.00153422
0.00153637
0.00153878
0.00154137
0.00154406
0.00154679
0.00154949
0.00155213
0.00155466
0.00155706
0.00155931
0.00156139
0.00156329
0.00156501
0.00156656
0.00156792
0.00156911
0.00157013
0.00157099
0.00157169
0.00157226
0.00157269
0.001573
0.00157319
0.00157328
0.00157856
0.00157983
0.0015816
0.00158373
0.00158614
0.00158872
0.0015914
0.00159412
0.00159681
0.00159943
0.00160195
0.00160434
0.00160658
0.00160865
0.00161054
0.00161226
0.0016138
0.00161515
0.00161633
0.00161735
0.0016182
0.00161891
0.00161947
0.0016199
0.0016202
0.0016204
0.00162049
0.00162563
0.0016269
0.00162865
0.00163078
0.00163316
0.00163573
0.00163839
0.00164109
0.00164376
0.00164636
0.00164886
0.00165124
0.00165346
0.00165551
0.00165739
0.00165909
0.00166062
0.00166196
0.00166314
0.00166414
0.00166499
0.00166569
0.00166624
0.00166667
0.00166697
0.00166717
0.00166726
0.00167224
0.0016735
0.00167523
0.00167733
0.0016797
0.00168223
0.00168487
0.00168753
0.00169018
0.00169275
0.00169523
0.00169757
0.00169977
0.0017018
0.00170366
0.00170534
0.00170684
0.00170817
0.00170933
0.00171033
0.00171116
0.00171185
0.0017124
0.00171282
0.00171312
0.00171331
0.0017134
0.0017182
0.00171944
0.00172115
0.00172321
0.00172554
0.00172804
0.00173064
0.00173326
0.00173587
0.0017384
0.00174084
0.00174315
0.00174531
0.00174731
0.00174914
0.00175079
0.00175227
0.00175358
0.00175472
0.0017557
0.00175652
0.0017572
0.00175774
0.00175815
0.00175845
0.00175863
0.00175872
0.00176329
0.0017645
0.00176618
0.0017682
0.00177049
0.00177294
0.00177548
0.00177805
0.0017806
0.00178309
0.00178547
0.00178773
0.00178985
0.0017918
0.00179359
0.00179521
0.00179666
0.00179794
0.00179905
0.00180001
0.00180081
0.00180148
0.001802
0.00180241
0.0018027
0.00180288
0.00180297
0.00180726
0.00180844
0.00181008
0.00181205
0.00181428
0.00181666
0.00181914
0.00182164
0.00182412
0.00182654
0.00182886
0.00183106
0.00183312
0.00183502
0.00183676
0.00183833
0.00183974
0.00184098
0.00184207
0.00184299
0.00184378
0.00184442
0.00184493
0.00184532
0.0018456
0.00184578
0.00184587
0.00184984
0.00185099
0.00185257
0.00185448
0.00185663
0.00185893
0.00186133
0.00186375
0.00186615
0.00186848
0.00187072
0.00187284
0.00187482
0.00187666
0.00187834
0.00187985
0.00188121
0.00188241
0.00188345
0.00188435
0.0018851
0.00188572
0.00188621
0.00188659
0.00188686
0.00188703
0.00188711
0.00189073
0.00189183
0.00189334
0.00189517
0.00189723
0.00189944
0.00190174
0.00190405
0.00190635
0.00190858
0.00191072
0.00191275
0.00191465
0.0019164
0.001918
0.00191945
0.00192075
0.00192189
0.00192289
0.00192374
0.00192446
0.00192505
0.00192552
0.00192588
0.00192614
0.0019263
0.00192638
0.00192959
0.00193063
0.00193207
0.00193381
0.00193576
0.00193786
0.00194003
0.00194222
0.00194439
0.00194651
0.00194853
0.00195045
0.00195224
0.0019539
0.00195541
0.00195678
0.001958
0.00195908
0.00196002
0.00196082
0.0019615
0.00196206
0.0019625
0.00196284
0.00196308
0.00196324
0.00196331
0.00196609
0.00196707
0.00196841
0.00197004
0.00197187
0.00197383
0.00197586
0.00197791
0.00197994
0.00198191
0.0019838
0.00198559
0.00198726
0.0019888
0.00199021
0.00199148
0.00199262
0.00199363
0.0019945
0.00199525
0.00199588
0.0019964
0.00199681
0.00199712
0.00199735
0.00199749
0.00199756
0.00199988
0.00200078
0.00200203
0.00200353
0.00200521
0.00200701
0.00200888
0.00201077
0.00201263
0.00201445
0.00201618
0.00201783
0.00201936
0.00202077
0.00202207
0.00202323
0.00202427
0.00202519
0.00202599
0.00202668
0.00202725
0.00202773
0.0020281
0.00202839
0.0020286
0.00202873
0.00202879
0.00203065
0.00203146
0.00203259
0.00203395
0.00203547
0.0020371
0.00203879
0.00204049
0.00204218
0.00204381
0.00204538
0.00204686
0.00204824
0.00204951
0.00205067
0.00205172
0.00205265
0.00205348
0.00205419
0.00205481
0.00205532
0.00205575
0.00205609
0.00205634
0.00205653
0.00205664
0.0020567
0.0020581
0.00205883
0.00205982
0.00206103
0.00206238
0.00206382
0.00206532
0.00206682
0.00206831
0.00206975
0.00207113
0.00207243
0.00207364
0.00207476
0.00207578
0.0020767
0.00207752
0.00207824
0.00207887
0.00207941
0.00207986
0.00208023
0.00208053
0.00208075
0.00208091
0.00208101
0.00208106
0.00208205
0.00208267
0.00208354
0.00208458
0.00208574
0.00208699
0.00208827
0.00208957
0.00209084
0.00209208
0.00209327
0.00209438
0.00209542
0.00209637
0.00209725
0.00209803
0.00209873
0.00209935
0.00209988
0.00210034
0.00210072
0.00210104
0.00210129
0.00210148
0.00210162
0.0021017
0.00210174
0.00210237
0.00210289
0.00210362
0.00210449
0.00210546
0.0021065
0.00210758
0.00210866
0.00210972
0.00211075
0.00211173
0.00211266
0.00211352
0.00211431
0.00211503
0.00211568
0.00211626
0.00211676
0.0021172
0.00211758
0.00211789
0.00211815
0.00211836
0.00211852
0.00211863
0.0021187
0.00211873
0.00211908
0.0021195
0.00212009
0.00212079
0.00212158
0.00212242
0.00212328
0.00212415
0.002125
0.00212583
0.00212661
0.00212735
0.00212803
0.00212866
0.00212923
0.00212975
0.00213021
0.00213061
0.00213095
0.00213125
0.0021315
0.0021317
0.00213186
0.00213199
0.00213208
0.00213213
0.00213216
0.00213232
0.00213265
0.0021331
0.00213364
0.00213425
0.0021349
0.00213556
0.00213623
0.00213688
0.00213751
0.00213811
0.00213867
0.00213919
0.00213967
0.0021401
0.00214049
0.00214083
0.00214113
0.00214139
0.00214162
0.0021418
0.00214195
0.00214207
0.00214217
0.00214223
0.00214227
0.00214229
0.00214236
0.0021426
0.00214293
0.00214333
0.00214378
0.00214425
0.00214473
0.00214521
0.00214569
0.00214614
0.00214657
0.00214697
0.00214735
0.00214769
0.00214799
0.00214827
0.00214851
0.00214873
0.00214891
0.00214907
0.0021492
0.0021493
0.00214939
0.00214945
0.0021495
0.00214953
0.00214954
0.0021496
0.00214976
0.00214999
0.00215026
0.00215056