/*--------------------------------*- C++ -*----------------------------------*\
| =========                 |                                                 |
| \\      /  F ield         | OpenFOAM: The Open Source CFD Toolbox           |
|  \\    /   O peration     | Version:  2106                                  |
|   \\  /    A nd           | Website:  www.openfoam.com                      |
|    \\/     M anipulation  |                                                 |
\*---------------------------------------------------------------------------*/
FoamFile
{
    version     2.0;
    format      ascii;
    arch        "LSB;label=32;scalar=64";
    class       volScalarField;
    location    "79.99952";
    object      C9H7;
}
// * * * * * * * * * * * * * * * * * * * * * * * * * * * * * * * * * * * * * //

dimensions      [0 0 0 0 0 0 0];

internalField   nonuniform List<scalar> 
3360
(
6.47634e-22
6.6848e-22
6.97491e-22
7.32976e-22
7.73457e-22
8.17607e-22
8.64224e-22
9.12229e-22
9.60655e-22
1.00865e-21
1.05548e-21
1.10052e-21
1.14325e-21
1.18325e-21
1.22022e-21
1.25393e-21
1.28426e-21
1.31114e-21
1.33458e-21
1.35465e-21
1.37148e-21
1.38523e-21
1.39609e-21
1.40428e-21
1.41004e-21
1.41362e-21
1.41528e-21
2.84152e-21
2.94599e-21
3.09341e-21
3.27701e-21
3.49114e-21
3.73092e-21
3.99196e-21
4.27024e-21
4.56204e-21
4.86382e-21
5.17221e-21
5.4839e-21
5.79566e-21
6.10428e-21
6.40659e-21
6.69951e-21
6.97999e-21
7.24509e-21
7.492e-21
7.71806e-21
7.92085e-21
8.09822e-21
8.24834e-21
8.36976e-21
8.46139e-21
8.52257e-21
8.55308e-21
8.91826e-21
9.30978e-21
9.86612e-21
1.05652e-20
1.13887e-20
1.23202e-20
1.33441e-20
1.44448e-20
1.56068e-20
1.68141e-20
1.80505e-20
1.92999e-20
2.05461e-20
2.17733e-20
2.29663e-20
2.41106e-20
2.51927e-20
2.62005e-20
2.71236e-20
2.79533e-20
2.86829e-20
2.93077e-20
2.9825e-20
3.02338e-20
3.05352e-20
3.07317e-20
3.08274e-20
2.59824e-20
2.72733e-20
2.912e-20
3.14564e-20
3.42274e-20
3.73812e-20
4.0866e-20
4.46284e-20
4.8612e-20
5.27578e-20
5.70047e-20
6.12906e-20
6.55537e-20
6.9734e-20
7.37745e-20
7.76227e-20
8.12323e-20
8.45638e-20
8.75855e-20
9.02737e-20
9.26127e-20
9.45941e-20
9.6217e-20
9.74863e-20
9.84125e-20
9.90106e-20
9.92991e-20
7.5944e-20
8.00182e-20
8.58576e-20
9.32627e-20
1.02064e-19
1.121e-19
1.23202e-19
1.35193e-19
1.47885e-19
1.61079e-19
1.74567e-19
1.88144e-19
2.01604e-19
2.14754e-19
2.27413e-19
2.39421e-19
2.50636e-19
2.60946e-19
2.7026e-19
2.78514e-19
2.85671e-19
2.91715e-19
2.96649e-19
3.00497e-19
3.03299e-19
3.05103e-19
3.05972e-19
2.24026e-19
2.36544e-19
2.54508e-19
2.77308e-19
3.04422e-19
3.35347e-19
3.69559e-19
4.06501e-19
4.45578e-19
4.86166e-19
5.27617e-19
5.69285e-19
6.10537e-19
6.5077e-19
6.89436e-19
7.26043e-19
7.60175e-19
7.91491e-19
8.19733e-19
8.44719e-19
8.66346e-19
8.84579e-19
8.99443e-19
9.1102e-19
9.19436e-19
9.24852e-19
9.27456e-19
6.65796e-19
7.03851e-19
7.5846e-19
8.27774e-19
9.10201e-19
1.00419e-18
1.10812e-18
1.22028e-18
1.33884e-18
1.46188e-18
1.58743e-18
1.71351e-18
1.8382e-18
1.9597e-18
2.07636e-18
2.18671e-18
2.28951e-18
2.38377e-18
2.46871e-18
2.54383e-18
2.60881e-18
2.66356e-18
2.70819e-18
2.74294e-18
2.7682e-18
2.78444e-18
2.79225e-18
1.98529e-18
2.09985e-18
2.26433e-18
2.47318e-18
2.72159e-18
3.0049e-18
3.31819e-18
3.65628e-18
4.0136e-18
4.38432e-18
4.76248e-18
5.14212e-18
5.51744e-18
5.88301e-18
6.23384e-18
6.56556e-18
6.87446e-18
7.15754e-18
7.41255e-18
7.63793e-18
7.83283e-18
7.997e-18
8.13074e-18
8.23484e-18
8.31047e-18
8.3591e-18
8.38248e-18
5.93545e-18
6.27991e-18
6.77438e-18
7.40213e-18
8.14873e-18
9.00001e-18
9.9412e-18
1.09566e-17
1.20293e-17
1.3142e-17
1.42766e-17
1.54151e-17
1.65404e-17
1.7636e-17
1.86872e-17
1.96808e-17
2.06059e-17
2.14535e-17
2.22169e-17
2.28915e-17
2.34748e-17
2.39661e-17
2.43664e-17
2.46779e-17
2.49042e-17
2.50498e-17
2.51198e-17
1.77459e-17
1.87781e-17
2.026e-17
2.21414e-17
2.43791e-17
2.69305e-17
2.97513e-17
3.2794e-17
3.60084e-17
3.93419e-17
4.27404e-17
4.61503e-17
4.95197e-17
5.27996e-17
5.59457e-17
5.8919e-17
6.16864e-17
6.42213e-17
6.65039e-17
6.85207e-17
7.0264e-17
7.1732e-17
7.29276e-17
7.3858e-17
7.45337e-17
7.49683e-17
7.5177e-17
5.30822e-17
5.61734e-17
6.06103e-17
6.62426e-17
7.29398e-17
8.05739e-17
8.90116e-17
9.81106e-17
1.0772e-16
1.17682e-16
1.27834e-16
1.38018e-16
1.48077e-16
1.57866e-16
1.67253e-16
1.76121e-16
1.84374e-16
1.91931e-16
1.98735e-16
2.04745e-16
2.0994e-16
2.14314e-16
2.17876e-16
2.20647e-16
2.2266e-16
2.23954e-16
2.24576e-16
1.58628e-16
1.6786e-16
1.81111e-16
1.97929e-16
2.17922e-16
2.40707e-16
2.65883e-16
2.93023e-16
3.21675e-16
3.51366e-16
3.81616e-16
4.11945e-16
4.41892e-16
4.71023e-16
4.98947e-16
5.25318e-16
5.49848e-16
5.72304e-16
5.92514e-16
6.10359e-16
6.25779e-16
6.38757e-16
6.49322e-16
6.57541e-16
6.63508e-16
6.67344e-16
6.69187e-16
4.73517e-16
5.01041e-16
5.40529e-16
5.90626e-16
6.50151e-16
7.17946e-16
7.92809e-16
8.73461e-16
9.58549e-16
1.04666e-15
1.13637e-15
1.22625e-15
1.31494e-15
1.40116e-15
1.48375e-15
1.56171e-15
1.63418e-15
1.70049e-15
1.76014e-15
1.81279e-15
1.85826e-15
1.89652e-15
1.92765e-15
1.95187e-15
1.96944e-15
1.98074e-15
1.98616e-15
1.40945e-15
1.49111e-15
1.60823e-15
1.75674e-15
1.93309e-15
2.13379e-15
2.35525e-15
2.59362e-15
2.84487e-15
3.10483e-15
3.36923e-15
3.63389e-15
3.89479e-15
4.14818e-15
4.39069e-15
4.61938e-15
4.8318e-15
5.026e-15
5.20054e-15
5.3545e-15
5.48737e-15
5.5991e-15
5.68997e-15
5.7606e-15
5.81185e-15
5.84477e-15
5.86057e-15
4.18098e-15
4.4219e-15
4.76718e-15
5.2046e-15
5.72348e-15
6.31334e-15
6.96334e-15
7.66205e-15
8.39748e-15
9.15727e-15
9.92893e-15
1.07002e-14
1.14594e-14
1.21958e-14
1.28996e-14
1.35624e-14
1.41772e-14
1.47387e-14
1.52429e-14
1.56871e-14
1.60701e-14
1.6392e-14
1.66535e-14
1.68567e-14
1.7004e-14
1.70986e-14
1.7144e-14
1.23366e-14
1.30404e-14
1.40482e-14
1.53234e-14
1.68338e-14
1.85482e-14
2.0434e-14
2.24575e-14
2.45831e-14
2.67749e-14
2.89965e-14
3.12127e-14
3.33899e-14
3.54976e-14
3.75083e-14
3.93987e-14
4.11494e-14
4.27456e-14
4.41765e-14
4.54356e-14
4.65199e-14
4.74298e-14
4.81685e-14
4.87416e-14
4.91569e-14
4.94232e-14
4.9551e-14
3.61651e-14
3.81944e-14
4.10961e-14
4.47614e-14
4.90941e-14
5.40003e-14
5.93838e-14
6.51451e-14
7.11811e-14
7.73878e-14
8.36618e-14
8.99035e-14
9.60195e-14
1.01925e-13
1.07545e-13
1.12815e-13
1.17686e-13
1.22118e-13
1.26083e-13
1.29566e-13
1.3256e-13
1.35069e-13
1.37103e-13
1.38679e-13
1.3982e-13
1.40551e-13
1.40901e-13
1.05176e-13
1.10921e-13
1.19121e-13
1.29453e-13
1.41633e-13
1.55382e-13
1.70417e-13
1.8645e-13
2.03188e-13
2.20336e-13
2.37608e-13
2.5473e-13
2.71449e-13
2.87539e-13
3.02803e-13
3.17077e-13
3.3023e-13
3.42166e-13
3.5282e-13
3.62157e-13
3.70167e-13
3.76867e-13
3.82289e-13
3.86485e-13
3.89517e-13
3.91458e-13
3.92387e-13
3.03231e-13
3.19113e-13
3.41725e-13
3.70126e-13
4.03477e-13
4.40964e-13
4.81777e-13
5.25096e-13
5.70105e-13
6.16001e-13
6.62014e-13
7.07423e-13
7.51573e-13
7.93886e-13
8.3387e-13
8.71125e-13
9.05338e-13
9.36288e-13
9.63834e-13
9.87911e-13
1.00852e-12
1.02572e-12
1.03961e-12
1.05034e-12
1.05809e-12
1.06304e-12
1.0654e-12
8.66991e-13
9.09632e-13
9.70138e-13
1.04581e-12
1.13423e-12
1.23307e-12
1.34006e-12
1.45294e-12
1.56952e-12
1.6877e-12
1.80549e-12
1.92108e-12
2.03288e-12
2.13949e-12
2.23975e-12
2.33276e-12
2.41784e-12
2.49451e-12
2.56252e-12
2.62179e-12
2.67237e-12
2.71449e-12
2.74843e-12
2.7746e-12
2.79346e-12
2.8055e-12
2.81124e-12
2.46508e-12
2.57591e-12
2.73251e-12
2.92729e-12
3.15343e-12
3.40448e-12
3.67422e-12
3.95669e-12
4.24622e-12
4.53755e-12
4.82585e-12
5.10683e-12
5.3768e-12
5.63265e-12
5.87191e-12
6.09269e-12
6.29364e-12
6.47396e-12
6.63326e-12
6.77158e-12
6.88927e-12
6.98696e-12
7.06552e-12
7.12596e-12
7.16942e-12
7.19712e-12
7.21033e-12
7.00893e-12
7.28891e-12
7.68246e-12
8.16871e-12
8.72891e-12
9.34557e-12
1.00023e-11
1.06837e-11
1.13758e-11
1.20659e-11
1.27429e-11
1.33972e-11
1.40208e-11
1.46073e-11
1.5152e-11
1.56513e-11
1.61031e-11
1.65062e-11
1.68606e-11
1.7167e-11
1.74267e-11
1.76415e-11
1.78137e-11
1.79458e-11
1.80406e-11
1.81009e-11
1.81296e-11
2.00983e-11
2.07996e-11
2.178e-11
2.29829e-11
2.43575e-11
2.58573e-11
2.74395e-11
2.90656e-11
3.07011e-11
3.23164e-11
3.3886e-11
3.53893e-11
3.68098e-11
3.81349e-11
3.93559e-11
4.04671e-11
4.14658e-11
4.23515e-11
4.31256e-11
4.37912e-11
4.43526e-11
4.48151e-11
4.51843e-11
4.54666e-11
4.56685e-11
4.57966e-11
4.58575e-11
5.87001e-11
6.05266e-11
6.30712e-11
6.61794e-11
6.97135e-11
7.35484e-11
7.75716e-11
8.16836e-11
8.57976e-11
8.98399e-11
9.37494e-11
9.7477e-11
1.00985e-10
1.04245e-10
1.07238e-10
1.09953e-10
1.12386e-10
1.14537e-10
1.16412e-10
1.18019e-10
1.19371e-10
1.20482e-10
1.21366e-10
1.2204e-10
1.2252e-10
1.22824e-10
1.22968e-10
1.76568e-10
1.8188e-10
1.89292e-10
1.98364e-10
2.08707e-10
2.19971e-10
2.31839e-10
2.44033e-10
2.56305e-10
2.68443e-10
2.80269e-10
2.91633e-10
3.02414e-10
3.12518e-10
3.21875e-10
3.30436e-10
3.3817e-10
3.45064e-10
3.51118e-10
3.56347e-10
3.60775e-10
3.64433e-10
3.67361e-10
3.69605e-10
3.71212e-10
3.72232e-10
3.72716e-10
5.55185e-10
5.73253e-10
5.98601e-10
6.29857e-10
6.65805e-10
7.05328e-10
7.47396e-10
7.9105e-10
8.35408e-10
8.79659e-10
9.23077e-10
9.65022e-10
1.00495e-09
1.04243e-09
1.07712e-09
1.10878e-09
1.13729e-09
1.16257e-09
1.18466e-09
1.20361e-09
1.21956e-09
1.23265e-09
1.24306e-09
1.25099e-09
1.25663e-09
1.2602e-09
1.26188e-09
1.84888e-09
1.9178e-09
2.01481e-09
2.13487e-09
2.27342e-09
2.42617e-09
2.58905e-09
2.75819e-09
2.93004e-09
3.10133e-09
3.26919e-09
3.43115e-09
3.58515e-09
3.72955e-09
3.86312e-09
3.98499e-09
4.09464e-09
4.19186e-09
4.27672e-09
4.34948e-09
4.41062e-09
4.46072e-09
4.50048e-09
4.53068e-09
4.55211e-09
4.56558e-09
4.57193e-09
6.32676e-09
6.59224e-09
6.96777e-09
7.4356e-09
7.97993e-09
8.58583e-09
9.23884e-09
9.92498e-09
1.06308e-08
1.13436e-08
1.20515e-08
1.27439e-08
1.34112e-08
1.40453e-08
1.46395e-08
1.51887e-08
1.56891e-08
1.61382e-08
1.65347e-08
1.68786e-08
1.71705e-08
1.74122e-08
1.76059e-08
1.77543e-08
1.78604e-08
1.79277e-08
1.79596e-08
2.13888e-08
2.24239e-08
2.39012e-08
2.57632e-08
2.79599e-08
3.04437e-08
3.3167e-08
3.60817e-08
3.91387e-08
4.22887e-08
4.54826e-08
4.8673e-08
5.18144e-08
5.4865e-08
5.77867e-08
6.05461e-08
6.31151e-08
6.54707e-08
6.75954e-08
6.94767e-08
7.11075e-08
7.24849e-08
7.36106e-08
7.44898e-08
7.51307e-08
7.55444e-08
7.57439e-08
7.03822e-08
7.42722e-08
7.9875e-08
8.70223e-08
9.55758e-08
1.05404e-07
1.16371e-07
1.28331e-07
1.41121e-07
1.54569e-07
1.68487e-07
1.8268e-07
1.96948e-07
2.11092e-07
2.24918e-07
2.3824e-07
2.5089e-07
2.62715e-07
2.73584e-07
2.83386e-07
2.92036e-07
2.99472e-07
3.05652e-07
3.10556e-07
3.14189e-07
3.16569e-07
3.17733e-07
2.22012e-07
2.35275e-07
2.54493e-07
2.79197e-07
3.09028e-07
3.43645e-07
3.82682e-07
4.25714e-07
4.72248e-07
5.21714e-07
5.73473e-07
6.26826e-07
6.8103e-07
7.353e-07
7.88848e-07
8.40907e-07
8.9075e-07
9.37707e-07
9.81182e-07
1.02066e-06
1.05572e-06
1.08604e-06
1.11137e-06
1.13159e-06
1.14663e-06
1.15655e-06
1.16143e-06
6.61685e-07
7.00581e-07
7.56947e-07
8.29414e-07
9.16928e-07
1.01845e-06
1.13284e-06
1.25879e-06
1.39475e-06
1.53897e-06
1.68948e-06
1.84416e-06
2.00078e-06
2.15707e-06
2.31078e-06
2.45973e-06
2.6019e-06
2.73545e-06
2.85876e-06
2.97046e-06
3.06945e-06
3.15488e-06
3.22617e-06
3.28302e-06
3.32532e-06
3.35317e-06
3.36687e-06
1.81195e-06
1.90599e-06
2.04145e-06
2.21421e-06
2.42083e-06
2.658e-06
2.92266e-06
3.21097e-06
3.51879e-06
3.84164e-06
4.17482e-06
4.51311e-06
4.85169e-06
5.18581e-06
5.51094e-06
5.82286e-06
6.11779e-06
6.39239e-06
6.64386e-06
6.86995e-06
7.06893e-06
7.2396e-06
7.38123e-06
7.49356e-06
7.57673e-06
7.63126e-06
7.65798e-06
4.36768e-06
4.55089e-06
4.81255e-06
5.14264e-06
5.53244e-06
5.97365e-06
6.45798e-06
6.97697e-06
7.52198e-06
8.08434e-06
8.65539e-06
9.22676e-06
9.79048e-06
1.03391e-05
1.0866e-05
1.13652e-05
1.18318e-05
1.22614e-05
1.26509e-05
1.29978e-05
1.33005e-05
1.3558e-05
1.37701e-05
1.39372e-05
1.40602e-05
1.41404e-05
1.41795e-05
9.04504e-06
9.33443e-06
9.74403e-06
1.02548e-05
1.08499e-05
1.15136e-05
1.22308e-05
1.29871e-05
1.37685e-05
1.45619e-05
1.53549e-05
1.61364e-05
1.68961e-05
1.76252e-05
1.83161e-05
1.89625e-05
1.95594e-05
2.01032e-05
2.0591e-05
2.10214e-05
2.13936e-05
2.17078e-05
2.19647e-05
2.21657e-05
2.23126e-05
2.24079e-05
2.24541e-05
1.61777e-05
1.65596e-05
1.70958e-05
1.77576e-05
1.85195e-05
1.93582e-05
2.0252e-05
2.11811e-05
2.21273e-05
2.30744e-05
2.40078e-05
2.4915e-05
2.57855e-05
2.66104e-05
2.73827e-05
2.80971e-05
2.87498e-05
2.93382e-05
2.98611e-05
3.03184e-05
3.07105e-05
3.1039e-05
3.13058e-05
3.15133e-05
3.16641e-05
3.17613e-05
3.18082e-05
2.55347e-05
2.59713e-05
2.65804e-05
2.73258e-05
2.81756e-05
2.9101e-05
3.00759e-05
3.10774e-05
3.20852e-05
3.30818e-05
3.40527e-05
3.49855e-05
3.58705e-05
3.67002e-05
3.74691e-05
3.81732e-05
3.88105e-05
3.93799e-05
3.98817e-05
4.03168e-05
4.06871e-05
4.0995e-05
4.12432e-05
4.14349e-05
4.15734e-05
4.16622e-05
4.17048e-05
3.64816e-05
3.69293e-05
3.75505e-05
3.83059e-05
3.91603e-05
4.00828e-05
4.10459e-05
4.20258e-05
4.30025e-05
4.39591e-05
4.4882e-05
4.57603e-05
4.65859e-05
4.7353e-05
4.80576e-05
4.86975e-05
4.92719e-05
4.97811e-05
5.02264e-05
5.06098e-05
5.09338e-05
5.12014e-05
5.14158e-05
5.15803e-05
5.16985e-05
5.17739e-05
5.18099e-05
4.82744e-05
4.8698e-05
4.92836e-05
4.99919e-05
5.07882e-05
5.16422e-05
5.25272e-05
5.34209e-05
5.43047e-05
5.51634e-05
5.59851e-05
5.67609e-05
5.74844e-05
5.81511e-05
5.87588e-05
5.93063e-05
5.97941e-05
6.02232e-05
6.05957e-05
6.09141e-05
6.11813e-05
6.14004e-05
6.15747e-05
6.17076e-05
6.18024e-05
6.18625e-05
6.1891e-05
6.02761e-05
6.06544e-05
6.11758e-05
6.18037e-05
6.25063e-05
6.32554e-05
6.40271e-05
6.48013e-05
6.55617e-05
6.62953e-05
6.69922e-05
6.76452e-05
6.82495e-05
6.88021e-05
6.93018e-05
6.97484e-05
7.01429e-05
7.04872e-05
7.07836e-05
7.10348e-05
7.12437e-05
7.14136e-05
7.15475e-05
7.16488e-05
7.17204e-05
7.17654e-05
7.17866e-05
7.20398e-05
7.23639e-05
7.28093e-05
7.33438e-05
7.39392e-05
7.45708e-05
7.52178e-05
7.5863e-05
7.64924e-05
7.70954e-05
7.76639e-05
7.81925e-05
7.86775e-05
7.91172e-05
7.9511e-05
7.98597e-05
8.01646e-05
8.04279e-05
8.0652e-05
8.08397e-05
8.09941e-05
8.1118e-05
8.12144e-05
8.12864e-05
8.13365e-05
8.13676e-05
8.1382e-05
8.33001e-05
8.35693e-05
8.39383e-05
8.43795e-05
8.48688e-05
8.53852e-05
8.5911e-05
8.64319e-05
8.69364e-05
8.74158e-05
8.78639e-05
8.82765e-05
8.86512e-05
8.8987e-05
8.92841e-05
8.95437e-05
8.97675e-05
8.99577e-05
9.01169e-05
9.02479e-05
9.03534e-05
9.04364e-05
9.04995e-05
9.05454e-05
9.05766e-05
9.05954e-05
9.06038e-05
9.3928e-05
9.41462e-05
9.44444e-05
9.47995e-05
9.51914e-05
9.56026e-05
9.60184e-05
9.6427e-05
9.68191e-05
9.71879e-05
9.75286e-05
9.78383e-05
9.81155e-05
9.83598e-05
9.8572e-05
9.87536e-05
9.89065e-05
9.90331e-05
9.91358e-05
9.92175e-05
9.92808e-05
9.93283e-05
9.93626e-05
9.93861e-05
9.94009e-05
9.94091e-05
9.94123e-05
0.000103883
0.000104056
0.000104292
0.000104571
0.000104877
0.000105196
0.000105516
0.000105827
0.000106121
0.000106394
0.000106642
0.000106863
0.000107056
0.000107222
0.000107361
0.000107476
0.000107568
0.00010764
0.000107695
0.000107735
0.000107762
0.00010778
0.000107789
0.000107794
0.000107795
0.000107794
0.000107793
0.000113177
0.000113311
0.000113493
0.000113707
0.00011394
0.00011418
0.000114417
0.000114644
0.000114855
0.000115046
0.000115215
0.000115361
0.000115483
0.000115582
0.00011566
0.000115718
0.000115759
0.000115786
0.0001158
0.000115804
0.000115801
0.000115793
0.000115782
0.000115771
0.00011576
0.000115752
0.000115747
0.000121846
0.000121947
0.000122083
0.000122242
0.000122412
0.000122585
0.000122752
0.000122909
0.000123049
0.000123172
0.000123274
0.000123356
0.000123418
0.000123461
0.000123487
0.000123498
0.000123496
0.000123484
0.000123464
0.000123439
0.000123411
0.000123382
0.000123354
0.000123329
0.000123308
0.000123293
0.000123286
0.000129938
0.000130011
0.000130108
0.00013022
0.000130338
0.000130454
0.000130562
0.000130659
0.00013074
0.000130804
0.00013085
0.000130879
0.00013089
0.000130886
0.000130869
0.00013084
0.000130802
0.000130758
0.000130709
0.000130659
0.000130609
0.000130563
0.00013052
0.000130484
0.000130455
0.000130435
0.000130425
0.0001375
0.000137549
0.000137613
0.000137685
0.000137758
0.000137827
0.000137885
0.000137931
0.000137962
0.000137977
0.000137976
0.000137959
0.000137928
0.000137885
0.00013783
0.000137768
0.0001377
0.000137628
0.000137556
0.000137485
0.000137417
0.000137355
0.000137301
0.000137255
0.00013722
0.000137195
0.000137183
0.000144576
0.000144605
0.000144642
0.00014468
0.000144715
0.000144743
0.000144759
0.000144762
0.000144751
0.000144724
0.000144682
0.000144627
0.00014456
0.000144483
0.000144397
0.000144307
0.000144213
0.000144118
0.000144025
0.000143937
0.000143854
0.00014378
0.000143715
0.000143661
0.00014362
0.000143592
0.000143577
0.000151208
0.00015122
0.000151233
0.000151242
0.000151245
0.000151237
0.000151217
0.000151184
0.000151135
0.000151073
0.000150997
0.000150909
0.000150811
0.000150705
0.000150593
0.000150478
0.000150362
0.000150248
0.000150138
0.000150034
0.000149939
0.000149854
0.00014978
0.00014972
0.000149674
0.000149643
0.000149627
0.00015743
0.000157427
0.000157419
0.000157404
0.000157378
0.00015734
0.000157289
0.000157224
0.000157144
0.000157051
0.000156945
0.000156829
0.000156705
0.000156574
0.000156439
0.000156303
0.000156168
0.000156037
0.000155913
0.000155796
0.00015569
0.000155596
0.000155515
0.000155449
0.000155398
0.000155364
0.000155347
0.000163273
0.000163257
0.000163231
0.000163193
0.000163143
0.000163079
0.000163001
0.000162908
0.0001628
0.000162681
0.000162549
0.000162409
0.000162261
0.000162109
0.000161954
0.0001618
0.000161649
0.000161504
0.000161366
0.000161239
0.000161123
0.000161021
0.000160934
0.000160863
0.000160809
0.000160772
0.000160754
0.000168761
0.000168734
0.000168692
0.000168635
0.000168564
0.000168476
0.000168374
0.000168256
0.000168125
0.000167982
0.000167828
0.000167666
0.000167498
0.000167327
0.000167155
0.000166985
0.00016682
0.000166662
0.000166514
0.000166377
0.000166253
0.000166144
0.000166051
0.000165976
0.000165919
0.000165881
0.000165862
0.000173918
0.00017388
0.000173824
0.00017375
0.00017366
0.000173552
0.000173428
0.000173289
0.000173137
0.000172972
0.000172799
0.000172618
0.000172432
0.000172244
0.000172057
0.000171874
0.000171696
0.000171527
0.000171369
0.000171224
0.000171093
0.000170978
0.000170881
0.000170802
0.000170742
0.000170702
0.000170682
0.000178761
0.000178714
0.000178646
0.000178557
0.000178449
0.000178323
0.00017818
0.000178022
0.00017785
0.000177668
0.000177476
0.000177278
0.000177077
0.000176874
0.000176674
0.000176479
0.00017629
0.000176111
0.000175945
0.000175792
0.000175655
0.000175535
0.000175433
0.000175351
0.00017529
0.000175248
0.000175227
0.000183307
0.000183252
0.000183172
0.00018307
0.000182947
0.000182804
0.000182644
0.000182469
0.00018228
0.000182081
0.000181873
0.00018166
0.000181445
0.000181229
0.000181017
0.000180811
0.000180613
0.000180425
0.000180251
0.000180092
0.000179949
0.000179825
0.00017972
0.000179635
0.000179571
0.000179529
0.000179507
0.000187571
0.000187508
0.000187418
0.000187303
0.000187166
0.000187008
0.000186833
0.000186642
0.000186438
0.000186223
0.000186001
0.000185775
0.000185547
0.00018532
0.000185097
0.00018488
0.000184674
0.000184479
0.000184298
0.000184133
0.000183986
0.000183857
0.000183749
0.000183662
0.000183596
0.000183553
0.000183531
0.000191563
0.000191493
0.000191394
0.000191267
0.000191117
0.000190946
0.000190756
0.000190551
0.000190333
0.000190105
0.00018987
0.000189631
0.000189391
0.000189154
0.000188921
0.000188696
0.000188482
0.00018828
0.000188093
0.000187923
0.000187772
0.00018764
0.000187529
0.000187439
0.000187372
0.000187328
0.000187305
0.000195293
0.000195218
0.000195109
0.000194972
0.00019481
0.000194626
0.000194424
0.000194205
0.000193974
0.000193734
0.000193487
0.000193237
0.000192986
0.000192739
0.000192498
0.000192265
0.000192043
0.000191836
0.000191643
0.000191469
0.000191313
0.000191178
0.000191065
0.000190974
0.000190905
0.00019086
0.000190837
0.00019877
0.000198689
0.000198572
0.000198425
0.000198252
0.000198057
0.000197842
0.000197611
0.000197368
0.000197116
0.000196858
0.000196597
0.000196337
0.000196081
0.000195832
0.000195592
0.000195364
0.000195151
0.000194953
0.000194775
0.000194616
0.000194478
0.000194362
0.000194269
0.0001942
0.000194153
0.00019413
0.000201999
0.000201912
0.000201788
0.000201632
0.000201448
0.000201242
0.000201015
0.000200773
0.000200519
0.000200256
0.000199988
0.000199717
0.000199448
0.000199184
0.000198927
0.000198681
0.000198447
0.000198228
0.000198026
0.000197844
0.000197682
0.000197542
0.000197424
0.000197329
0.000197259
0.000197212
0.000197188
0.000204985
0.000204892
0.00020476
0.000204595
0.000204402
0.000204185
0.000203948
0.000203695
0.00020343
0.000203156
0.000202878
0.000202599
0.000202321
0.000202049
0.000201785
0.000201532
0.000201293
0.000201069
0.000200863
0.000200677
0.000200512
0.00020037
0.00020025
0.000200154
0.000200082
0.000200035
0.000200011
0.000207727
0.000207629
0.00020749
0.000207317
0.000207114
0.000206887
0.000206639
0.000206376
0.0002061
0.000205817
0.000205529
0.000205241
0.000204955
0.000204675
0.000204404
0.000204145
0.0002039
0.000203672
0.000203463
0.000203273
0.000203105
0.00020296
0.000202839
0.000202742
0.000202669
0.000202621
0.000202597
0.000210225
0.000210122
0.000209977
0.000209795
0.000209583
0.000209345
0.000209087
0.000208813
0.000208527
0.000208234
0.000207937
0.00020764
0.000207346
0.000207059
0.000206781
0.000206516
0.000206266
0.000206033
0.000205819
0.000205627
0.000205456
0.000205309
0.000205186
0.000205087
0.000205013
0.000204965
0.00020494
0.000212475
0.000212367
0.000212214
0.000212024
0.000211802
0.000211554
0.000211286
0.000211001
0.000210705
0.000210402
0.000210095
0.000209789
0.000209487
0.000209192
0.000208908
0.000208637
0.000208381
0.000208144
0.000207926
0.00020773
0.000207556
0.000207407
0.000207282
0.000207182
0.000207107
0.000207058
0.000207033
0.000214467
0.000214354
0.000214194
0.000213995
0.000213763
0.000213505
0.000213226
0.00021293
0.000212623
0.00021231
0.000211993
0.000211678
0.000211367
0.000211064
0.000210773
0.000210495
0.000210234
0.000209991
0.000209769
0.00020957
0.000209393
0.000209241
0.000209114
0.000209013
0.000208937
0.000208887
0.000208863
0.00021619
0.000216071
0.000215903
0.000215695
0.000215453
0.000215183
0.000214892
0.000214585
0.000214267
0.000213942
0.000213615
0.000213289
0.000212969
0.000212658
0.000212359
0.000212074
0.000211807
0.000211559
0.000211332
0.000211128
0.000210949
0.000210794
0.000210665
0.000210562
0.000210485
0.000210435
0.00021041
0.000217623
0.000217498
0.000217322
0.000217104
0.00021685
0.000216569
0.000216265
0.000215945
0.000215614
0.000215277
0.000214938
0.000214602
0.000214271
0.00021395
0.000213642
0.00021335
0.000213076
0.000212822
0.00021259
0.000212382
0.000212198
0.00021204
0.000211909
0.000211804
0.000211726
0.000211675
0.000211649
0.000218743
0.000218611
0.000218426
0.000218196
0.00021793
0.000217635
0.000217317
0.000216983
0.000216638
0.000216287
0.000215935
0.000215585
0.000215243
0.000214912
0.000214594
0.000214292
0.00021401
0.000213749
0.000213511
0.000213297
0.00021311
0.000212948
0.000212814
0.000212707
0.000212628
0.000212575
0.000212549
0.000219516
0.000219377
0.000219181
0.000218938
0.000218658
0.000218347
0.000218013
0.000217662
0.000217301
0.000216934
0.000216566
0.000216203
0.000215847
0.000215503
0.000215173
0.000214861
0.000214569
0.0002143
0.000214055
0.000213835
0.000213642
0.000213476
0.000213339
0.000213229
0.000213148
0.000213094
0.000213068
0.0002199
0.000219752
0.000219544
0.000219287
0.000218989
0.00021866
0.000218308
0.000217938
0.000217558
0.000217172
0.000216786
0.000216405
0.000216034
0.000215674
0.000215331
0.000215007
0.000214704
0.000214424
0.00021417
0.000213943
0.000213744
0.000213573
0.000213431
0.000213318
0.000213234
0.000213179
0.000213152
0.000219843
0.000219685
0.000219462
0.000219187
0.00021887
0.00021852
0.000218146
0.000217753
0.00021735
0.000216943
0.000216536
0.000216134
0.000215743
0.000215366
0.000215006
0.000214666
0.00021435
0.000214058
0.000213794
0.000213557
0.00021335
0.000213173
0.000213026
0.000212909
0.000212823
0.000212766
0.000212738
0.000219279
0.000219109
0.000218869
0.000218574
0.000218234
0.000217859
0.000217458
0.000217038
0.000216609
0.000216174
0.000215742
0.000215316
0.000214902
0.000214503
0.000214123
0.000213765
0.000213432
0.000213126
0.000212849
0.000212601
0.000212385
0.000212199
0.000212046
0.000211924
0.000211834
0.000211775
0.000211746
0.00021813
0.000217945
0.000217686
0.000217366
0.000216998
0.000216593
0.000216161
0.00021571
0.000215248
0.000214782
0.000214319
0.000213864
0.000213421
0.000212996
0.000212593
0.000212213
0.00021186
0.000211536
0.000211243
0.000210982
0.000210753
0.000210558
0.000210397
0.00021027
0.000210175
0.000210113
0.000210083
0.000216302
0.0002161
0.000215817
0.000215468
0.000215067
0.000214626
0.000214157
0.000213667
0.000213167
0.000212663
0.000212163
0.000211673
0.000211198
0.000210741
0.000210309
0.000209902
0.000209525
0.00020918
0.000208867
0.00020859
0.000208347
0.000208141
0.00020797
0.000207835
0.000207736
0.00020767
0.000207638
0.000213685
0.000213463
0.000213151
0.000212768
0.000212328
0.000211845
0.000211331
0.000210796
0.00021025
0.000209702
0.000209158
0.000208626
0.00020811
0.000207617
0.000207149
0.000206711
0.000206305
0.000205934
0.000205598
0.000205301
0.000205042
0.000204821
0.000204639
0.000204495
0.000204389
0.000204319
0.000204285
0.000210155
0.000209908
0.000209563
0.000209139
0.000208654
0.000208121
0.000207554
0.000206965
0.000206366
0.000205764
0.000205168
0.000204586
0.000204024
0.000203486
0.000202977
0.000202501
0.000202061
0.000201659
0.000201296
0.000200975
0.000200696
0.000200458
0.000200262
0.000200108
0.000199994
0.00019992
0.000199883
0.000205571
0.000205296
0.000204913
0.000204441
0.000203902
0.00020331
0.000202682
0.000202031
0.000201369
0.000200705
0.000200049
0.000199409
0.000198791
0.000198201
0.000197644
0.000197124
0.000196643
0.000196205
0.000195811
0.000195462
0.000195159
0.000194901
0.00019469
0.000194523
0.0001944
0.000194319
0.00019428
0.000199785
0.000199479
0.00019905
0.000198524
0.000197923
0.000197264
0.000196566
0.000195842
0.000195107
0.000194372
0.000193647
0.000192939
0.000192258
0.000191609
0.000190996
0.000190425
0.000189898
0.000189419
0.000188988
0.000188606
0.000188276
0.000187995
0.000187765
0.000187584
0.00018745
0.000187363
0.000187321
0.000192647
0.000192304
0.000191825
0.000191238
0.000190566
0.000189831
0.000189053
0.000188248
0.000187432
0.000186616
0.000185811
0.000185029
0.000184276
0.000183559
0.000182884
0.000182256
0.000181677
0.00018115
0.000180678
0.000180261
0.000179899
0.000179593
0.000179342
0.000179144
0.000178999
0.000178905
0.000178858
0.000184016
0.000183632
0.000183097
0.000182441
0.000181692
0.000180874
0.000180008
0.000179113
0.000178206
0.000177302
0.000176411
0.000175546
0.000174714
0.000173924
0.00017318
0.000172489
0.000171853
0.000171275
0.000170758
0.000170301
0.000169906
0.000169571
0.000169297
0.000169082
0.000168924
0.000168821
0.000168771
0.000173775
0.000173348
0.000172753
0.000172024
0.000171192
0.000170285
0.000169325
0.000168335
0.000167332
0.000166333
0.000165351
0.000164398
0.000163483
0.000162615
0.000161799
0.000161042
0.000160346
0.000159714
0.000159149
0.000158651
0.00015822
0.000157856
0.000157559
0.000157325
0.000157153
0.000157042
0.000156987
0.000161861
0.00016139
0.000160733
0.000159929
0.000159012
0.000158013
0.000156958
0.000155871
0.000154771
0.000153676
0.000152602
0.00015156
0.000150562
0.000149615
0.000148728
0.000147904
0.000147148
0.000146463
0.00014585
0.000145311
0.000144845
0.000144452
0.000144131
0.000143879
0.000143694
0.000143574
0.000143516
0.000148288
0.000147773
0.000147056
0.00014618
0.000145182
0.000144095
0.000142949
0.000141768
0.000140576
0.000139392
0.00013823
0.000137106
0.00013603
0.00013501
0.000134056
0.000133171
0.00013236
0.000131626
0.00013097
0.000130393
0.000129896
0.000129477
0.000129134
0.000128865
0.000128668
0.000128541
0.000128479
0.000133179
0.000132626
0.000131857
0.000130917
0.000129847
0.000128684
0.000127459
0.0001262
0.000124929
0.000123669
0.000122435
0.000121241
0.000120101
0.000119022
0.000118013
0.000117079
0.000116224
0.000115451
0.000114761
0.000114155
0.000113633
0.000113193
0.000112834
0.000112553
0.000112347
0.000112213
0.000112148
0.000116801
0.000116219
0.000115411
0.000114424
0.000113303
0.000112085
0.000110804
0.000109489
0.000108165
0.000106853
0.000105571
0.000104333
0.000103151
0.000102036
0.000100993
0.00010003
9.91493e-05
9.8354e-05
9.76454e-05
9.70237e-05
9.64882e-05
9.60377e-05
9.56701e-05
9.53827e-05
9.51725e-05
9.50362e-05
9.497e-05
9.95816e-05
9.89864e-05
9.8159e-05
9.71509e-05
9.60068e-05
9.47661e-05
9.34633e-05
9.21283e-05
9.07866e-05
8.94595e-05
8.81649e-05
8.69174e-05
8.57289e-05
8.46086e-05
8.35636e-05
8.25993e-05
8.17191e-05
8.09254e-05
8.02191e-05
7.96002e-05
7.90678e-05
7.86204e-05
7.82556e-05
7.79707e-05
7.77626e-05
7.76276e-05
7.75622e-05
8.21099e-05
8.15202e-05
8.07015e-05
7.97052e-05
7.85765e-05
7.73548e-05
7.60747e-05
7.47656e-05
7.34528e-05
7.21573e-05
7.08962e-05
6.96837e-05
6.85309e-05
6.74464e-05
6.6437e-05
6.55071e-05
6.46599e-05
6.38971e-05
6.32195e-05
6.26266e-05
6.21172e-05
6.16897e-05
6.13415e-05
6.10699e-05
6.08717e-05
6.07433e-05
6.06811e-05
6.50996e-05
6.45383e-05
6.37601e-05
6.28147e-05
6.17459e-05
6.05917e-05
5.93852e-05
5.81547e-05
5.69239e-05
5.57125e-05
5.45365e-05
5.34087e-05
5.23392e-05
5.13357e-05
5.04037e-05
4.95471e-05
4.87684e-05
4.80687e-05
4.74483e-05
4.69064e-05
4.64416e-05
4.60521e-05
4.57354e-05
4.54886e-05
4.53087e-05
4.51923e-05
4.5136e-05
4.93138e-05
4.88045e-05
4.80995e-05
4.7245e-05
4.62812e-05
4.52433e-05
4.41616e-05
4.30619e-05
4.19654e-05
4.08897e-05
3.98488e-05
3.88539e-05
3.79132e-05
3.70333e-05
3.62185e-05
3.54716e-05
3.47945e-05
3.41876e-05
3.36507e-05
3.31828e-05
3.27823e-05
3.24473e-05
3.21753e-05
3.19638e-05
3.18098e-05
3.17103e-05
3.16622e-05
3.54532e-05
3.50164e-05
3.4413e-05
3.36834e-05
3.2863e-05
3.19824e-05
3.10681e-05
3.01419e-05
2.92222e-05
2.83234e-05
2.74572e-05
2.66324e-05
2.58556e-05
2.51317e-05
2.44637e-05