/*--------------------------------*- C++ -*----------------------------------*\
| =========                 |                                                 |
| \\      /  F ield         | OpenFOAM: The Open Source CFD Toolbox           |
|  \\    /   O peration     | Version:  2106                                  |
|   \\  /    A nd           | Website:  www.openfoam.com                      |
|    \\/     M anipulation  |                                                 |
\*---------------------------------------------------------------------------*/
FoamFile
{
    version     2.0;
    format      ascii;
    arch        "LSB;label=32;scalar=64";
    class       volScalarField;
    location    "79.99952";
    object      H2;
}
// * * * * * * * * * * * * * * * * * * * * * * * * * * * * * * * * * * * * * //

dimensions      [0 0 0 0 0 0 0];

internalField   nonuniform List<scalar> 
3360
(
2.17231e-18
2.24221e-18
2.33949e-18
2.45849e-18
2.59423e-18
2.74228e-18
2.8986e-18
3.05957e-18
3.22196e-18
3.3829e-18
3.53994e-18
3.69095e-18
3.83423e-18
3.96837e-18
4.09233e-18
4.20538e-18
4.30707e-18
4.39719e-18
4.47579e-18
4.54311e-18
4.59954e-18
4.64563e-18
4.68203e-18
4.7095e-18
4.72881e-18
4.74083e-18
4.74641e-18
9.52947e-18
9.87974e-18
1.0374e-17
1.09896e-17
1.17075e-17
1.25114e-17
1.33866e-17
1.43196e-17
1.52979e-17
1.63097e-17
1.73437e-17
1.83887e-17
1.9434e-17
2.04687e-17
2.14822e-17
2.24643e-17
2.34047e-17
2.42935e-17
2.51214e-17
2.58793e-17
2.65592e-17
2.71539e-17
2.76572e-17
2.80643e-17
2.83715e-17
2.85767e-17
2.8679e-17
2.99006e-17
3.12129e-17
3.30776e-17
3.54208e-17
3.81811e-17
4.13033e-17
4.47348e-17
4.84241e-17
5.23188e-17
5.63655e-17
6.05096e-17
6.46969e-17
6.88737e-17
7.2987e-17
7.69856e-17
8.08207e-17
8.44474e-17
8.78252e-17
9.0919e-17
9.36999e-17
9.61453e-17
9.82394e-17
9.99729e-17
1.01343e-16
1.02353e-16
1.03012e-16
1.03333e-16
8.70805e-17
9.14059e-17
9.75933e-17
1.05422e-16
1.14706e-16
1.25273e-16
1.36948e-16
1.49554e-16
1.62901e-16
1.76791e-16
1.91019e-16
2.05378e-16
2.19661e-16
2.33666e-16
2.47202e-16
2.60095e-16
2.72187e-16
2.83349e-16
2.93472e-16
3.02478e-16
3.10314e-16
3.16952e-16
3.22389e-16
3.26641e-16
3.29744e-16
3.31748e-16
3.32714e-16
2.5442e-16
2.68065e-16
2.87622e-16
3.12423e-16
3.419e-16
3.75509e-16
4.1269e-16
4.52849e-16
4.95354e-16
5.39537e-16
5.84709e-16
6.30174e-16
6.7525e-16
7.19285e-16
7.61677e-16
8.01885e-16
8.39443e-16
8.73966e-16
9.05155e-16
9.32797e-16
9.56763e-16
9.76999e-16
9.93522e-16
1.00641e-15
1.01579e-15
1.02183e-15
1.02474e-15
7.50168e-16
7.92073e-16
8.52208e-16
9.28533e-16
1.0193e-15
1.12282e-15
1.23734e-15
1.361e-15
1.49181e-15
1.62767e-15
1.76642e-15
1.90589e-15
2.04397e-15
2.17864e-15
2.30806e-15
2.43059e-15
2.54483e-15
2.64965e-15
2.74417e-15
2.8278e-15
2.90019e-15
2.96121e-15
3.01096e-15
3.04971e-15
3.07788e-15
3.096e-15
3.10472e-15
2.2284e-15
2.35574e-15
2.53846e-15
2.77039e-15
3.04619e-15
3.36065e-15
3.7084e-15
4.08368e-15
4.48036e-15
4.89202e-15
5.31205e-15
5.73387e-15
6.15105e-15
6.55754e-15
6.94782e-15
7.317e-15
7.66092e-15
7.97625e-15
8.26043e-15
8.51171e-15
8.72909e-15
8.91228e-15
9.06158e-15
9.17783e-15
9.26231e-15
9.31666e-15
9.34279e-15
6.64148e-15
7.02463e-15
7.57472e-15
8.27319e-15
9.10399e-15
1.00514e-14
1.10992e-14
1.22298e-14
1.34247e-14
1.46645e-14
1.59291e-14
1.71986e-14
1.84537e-14
1.96761e-14
2.08493e-14
2.19585e-14
2.29914e-14
2.3938e-14
2.47907e-14
2.55444e-14
2.61961e-14
2.6745e-14
2.71922e-14
2.75403e-14
2.77932e-14
2.79558e-14
2.80339e-14
1.98463e-14
2.09978e-14
2.26507e-14
2.47491e-14
2.72448e-14
3.00904e-14
3.32364e-14
3.66304e-14
4.02162e-14
4.39352e-14
4.77275e-14
5.15331e-14
5.52941e-14
5.89561e-14
6.24694e-14
6.57904e-14
6.88822e-14
7.1715e-14
7.42664e-14
7.65212e-14
7.84708e-14
8.01128e-14
8.14505e-14
8.24917e-14
8.32481e-14
8.37345e-14
8.39683e-14
5.93063e-14
6.2755e-14
6.77062e-14
7.39925e-14
8.14689e-14
8.99933e-14
9.94174e-14
1.09583e-13
1.20322e-13
1.31459e-13
1.42813e-13
1.54205e-13
1.65461e-13
1.76418e-13
1.86928e-13
1.96861e-13
2.06106e-13
2.14574e-13
2.22199e-13
2.28936e-13
2.3476e-13
2.39664e-13
2.43658e-13
2.46766e-13
2.49023e-13
2.50475e-13
2.51172e-13
1.77303e-13
1.87626e-13
2.02444e-13
2.21253e-13
2.43618e-13
2.69111e-13
2.97287e-13
3.27672e-13
3.5976e-13
3.93025e-13
4.26927e-13
4.60931e-13
4.94519e-13
5.27205e-13
5.58549e-13
5.88161e-13
6.15716e-13
6.4095e-13
6.63668e-13
6.83736e-13
7.01081e-13
7.15685e-13
7.27577e-13
7.36831e-13
7.43551e-13
7.47872e-13
7.49948e-13
5.29527e-13
5.60343e-13
6.04572e-13
6.60708e-13
7.27442e-13
8.03491e-13
8.87519e-13
9.78103e-13
1.07373e-12
1.17283e-12
1.27379e-12
1.37501e-12
1.47496e-12
1.57219e-12
1.66538e-12
1.75339e-12
1.83525e-12
1.9102e-12
1.97764e-12
2.0372e-12
2.08866e-12
2.13197e-12
2.16723e-12
2.19466e-12
2.21457e-12
2.22737e-12
2.23352e-12
1.57959e-12
1.67141e-12
1.80314e-12
1.97027e-12
2.16885e-12
2.39501e-12
2.64475e-12
2.91381e-12
3.19765e-12
3.49159e-12
3.79085e-12
4.09068e-12
4.38653e-12
4.67414e-12
4.94965e-12
5.20969e-12
5.45143e-12
5.67263e-12
5.87159e-12
6.04721e-12
6.19888e-12
6.3265e-12
6.43036e-12
6.51112e-12
6.56975e-12
6.60743e-12
6.62552e-12
4.69754e-12
4.96982e-12
5.36033e-12
5.85549e-12
6.44347e-12
7.11267e-12
7.85105e-12
8.64583e-12
9.48358e-12
1.03503e-11
1.12319e-11
1.21143e-11
1.29842e-11
1.38291e-11
1.46376e-11
1.54001e-11
1.61083e-11
1.67558e-11
1.73378e-11
1.78511e-11
1.82941e-11
1.86666e-11
1.89696e-11
1.9205e-11
1.93759e-11
1.94856e-11
1.95383e-11
1.39171e-11
1.47199e-11
1.58704e-11
1.7328e-11
1.90571e-11
2.10228e-11
2.31889e-11
2.55173e-11
2.79682e-11
3.05003e-11
3.3072e-11
3.56424e-11
3.81727e-11
4.06267e-11
4.29722e-11
4.51811e-11
4.72303e-11
4.91016e-11
5.07817e-11
5.22621e-11
5.35387e-11
5.46112e-11
5.54828e-11
5.61598e-11
5.66507e-11
5.69659e-11
5.71172e-11
4.09819e-11
4.33255e-11
4.66813e-11
5.09279e-11
5.59583e-11
6.16681e-11
6.79493e-11
7.46892e-11
8.177e-11
8.90713e-11
9.64723e-11
1.03855e-10
1.11109e-10
1.18131e-10
1.2483e-10
1.31128e-10
1.36961e-10
1.4228e-10
1.47047e-10
1.51242e-10
1.54855e-10
1.57886e-10
1.60347e-10
1.62257e-10
1.6364e-10
1.64527e-10
1.64953e-10
1.19723e-10
1.26474e-10
1.36129e-10
1.48326e-10
1.62747e-10
1.79078e-10
1.97001e-10
2.16184e-10
2.36285e-10
2.56956e-10
2.77854e-10
2.98647e-10
3.19022e-10
3.38697e-10
3.57421e-10
3.74984e-10
3.91215e-10
4.05982e-10
4.19195e-10
4.30801e-10
4.40778e-10
4.49138e-10
4.55915e-10
4.61168e-10
4.64968e-10
4.67404e-10
4.68571e-10
3.4599e-10
3.65079e-10
3.92332e-10
4.26684e-10
4.6719e-10
5.1293e-10
5.62969e-10
6.16347e-10
6.72088e-10
7.29213e-10
7.86766e-10
8.43834e-10
8.99573e-10
9.53224e-10
1.00413e-09
1.05174e-09
1.09561e-09
1.13543e-09
1.17098e-09
1.20213e-09
1.22886e-09
1.25121e-09
1.2693e-09
1.2833e-09
1.29341e-09
1.29989e-09
1.30299e-09
9.85868e-10
1.03853e-09
1.11354e-09
1.20782e-09
1.3186e-09
1.44323e-09
1.57902e-09
1.72327e-09
1.87326e-09
2.02632e-09
2.17987e-09
2.3315e-09
2.47901e-09
2.62046e-09
2.75418e-09
2.87881e-09
2.99331e-09
3.09691e-09
3.18914e-09
3.26977e-09
3.33878e-09
3.39638e-09
3.44291e-09
3.47885e-09
3.50479e-09
3.52137e-09
3.52929e-09
2.75805e-09
2.89877e-09
3.09865e-09
3.34899e-09
3.64196e-09
3.97004e-09
4.32579e-09
4.70181e-09
5.09085e-09
5.48586e-09
5.88022e-09
6.26781e-09
6.64317e-09
7.00156e-09
7.339e-09
7.65233e-09
7.93916e-09
8.19786e-09
8.42747e-09
8.62764e-09
8.79857e-09
8.94089e-09
9.05564e-09
9.14412e-09
9.20786e-09
9.24854e-09
9.26797e-09
7.53888e-09
7.90051e-09
8.41258e-09
9.05129e-09
9.79527e-09
1.06241e-08
1.1518e-08
1.24577e-08
1.34244e-08
1.44008e-08
1.53703e-08
1.63185e-08
1.72323e-08
1.81009e-08
1.89152e-08
1.96685e-08
2.03555e-08
2.09731e-08
2.15195e-08
2.19946e-08
2.23993e-08
2.27355e-08
2.3006e-08
2.32142e-08
2.3364e-08
2.34594e-08
2.3505e-08
2.00228e-08
2.09108e-08
2.2164e-08
2.37204e-08
2.55244e-08
2.75234e-08
2.96672e-08
3.19079e-08
3.42003e-08
3.65028e-08
3.87772e-08
4.09902e-08
4.31131e-08
4.51218e-08
4.69975e-08
4.87258e-08
5.02967e-08
5.17043e-08
5.29462e-08
5.40231e-08
5.49382e-08
5.56968e-08
5.63061e-08
5.67742e-08
5.71104e-08
5.73244e-08
5.74263e-08
5.13895e-08
5.34642e-08
5.63825e-08
5.99917e-08
6.41548e-08
6.8744e-08
7.36393e-08
7.87283e-08
8.39073e-08
8.90822e-08
9.41693e-08
9.90961e-08
1.03802e-07
1.08236e-07
1.12362e-07
1.1615e-07
1.19583e-07
1.2265e-07
1.25349e-07
1.27683e-07
1.29663e-07
1.31302e-07
1.32615e-07
1.33623e-07
1.34345e-07
1.34805e-07
1.35024e-07
1.26847e-07
1.31453e-07
1.37913e-07
1.45873e-07
1.55015e-07
1.65048e-07
1.757e-07
1.86722e-07
1.97887e-07
2.08995e-07
2.19869e-07
2.30359e-07
2.40342e-07
2.49718e-07
2.58413e-07
2.66375e-07
2.73571e-07
2.79985e-07
2.85618e-07
2.90481e-07
2.94597e-07
2.97999e-07
3.00722e-07
3.02808e-07
3.04303e-07
3.05252e-07
3.05704e-07
3.00138e-07
3.09878e-07
3.23505e-07
3.40246e-07
3.5941e-07
3.80363e-07
4.02529e-07
4.2538e-07
4.48449e-07
4.7132e-07
4.9364e-07
5.15107e-07
5.35481e-07
5.54569e-07
5.72232e-07
5.8837e-07
6.02929e-07
6.15884e-07
6.27243e-07
6.37037e-07
6.45317e-07
6.52151e-07
6.57617e-07
6.61802e-07
6.64798e-07
6.667e-07
6.67603e-07
6.7968e-07
6.99383e-07
7.26902e-07
7.60637e-07
7.9916e-07
8.41172e-07
8.85496e-07
9.31075e-07
9.76969e-07
1.02236e-06
1.06656e-06
1.10897e-06
1.14914e-06
1.18671e-06
1.22141e-06
1.25306e-06
1.28157e-06
1.30691e-06
1.32909e-06
1.3482e-06
1.36433e-06
1.37764e-06
1.38827e-06
1.3964e-06
1.40222e-06
1.40591e-06
1.40767e-06
1.47244e-06
1.51075e-06
1.5642e-06
1.62962e-06
1.70419e-06
1.78537e-06
1.87085e-06
1.95858e-06
2.04676e-06
2.13383e-06
2.21846e-06
2.29956e-06
2.37626e-06
2.4479e-06
2.51399e-06
2.57422e-06
2.62842e-06
2.67654e-06
2.71866e-06
2.7549e-06
2.7855e-06
2.81071e-06
2.83085e-06
2.84625e-06
2.85727e-06
2.86425e-06
2.86757e-06
3.048e-06
3.11979e-06
3.21987e-06
3.34228e-06
3.4817e-06
3.63335e-06
3.79292e-06
3.95659e-06
4.12098e-06
4.28322e-06
4.44085e-06
4.59186e-06
4.73465e-06
4.86799e-06
4.99099e-06
5.10307e-06
5.20394e-06
5.2935e-06
5.37187e-06
5.43933e-06
5.49628e-06
5.54322e-06
5.58072e-06
5.6094e-06
5.62991e-06
5.64292e-06
5.6491e-06
6.01456e-06
6.14446e-06
6.32557e-06
6.54709e-06
6.79944e-06
7.07399e-06
7.36298e-06
7.65952e-06
7.95755e-06
8.25185e-06
8.53801e-06
8.81236e-06
9.07199e-06
9.31464e-06
9.53867e-06
9.74301e-06
9.92705e-06
1.00906e-05
1.02339e-05
1.03573e-05
1.04615e-05
1.05475e-05
1.06162e-05
1.06688e-05
1.07065e-05
1.07303e-05
1.07417e-05
1.12709e-05
1.14964e-05
1.1811e-05
1.2196e-05
1.2635e-05
1.31129e-05
1.36166e-05
1.4134e-05
1.46547e-05
1.51697e-05
1.56712e-05
1.61528e-05
1.66094e-05
1.70368e-05
1.74321e-05
1.77933e-05
1.81192e-05
1.84093e-05
1.86637e-05
1.88833e-05
1.9069e-05
1.92225e-05
1.93453e-05
1.94394e-05
1.95068e-05
1.95496e-05
1.957e-05
1.99462e-05
2.03156e-05
2.08309e-05
2.14619e-05
2.21815e-05
2.29657e-05
2.37927e-05
2.46431e-05
2.55e-05
2.63483e-05
2.71756e-05
2.79712e-05
2.87266e-05
2.94349e-05
3.00911e-05
3.06915e-05
3.12341e-05
3.17179e-05
3.21429e-05
3.25101e-05
3.28211e-05
3.30784e-05
3.32845e-05
3.34426e-05
3.3556e-05
3.36281e-05
3.36624e-05
3.31613e-05
3.37192e-05
3.44972e-05
3.54491e-05
3.65341e-05
3.77155e-05
3.89604e-05
4.02395e-05
4.15271e-05
4.2801e-05
4.40422e-05
4.52349e-05
4.63665e-05
4.74267e-05
4.84083e-05
4.9306e-05
5.01168e-05
5.08392e-05
5.14736e-05
5.20215e-05
5.24855e-05
5.2869e-05
5.31762e-05
5.34118e-05
5.35807e-05
5.36881e-05
5.37392e-05
5.16648e-05
5.24292e-05
5.34935e-05
5.47929e-05
5.62701e-05
5.78741e-05
5.95589e-05
6.12843e-05
6.30154e-05
6.47222e-05
6.63795e-05
6.79667e-05
6.94674e-05
7.08691e-05
7.21627e-05
7.33421e-05
7.44042e-05
7.5348e-05
7.61747e-05
7.68869e-05
7.74887e-05
7.79851e-05
7.83821e-05
7.86861e-05
7.89037e-05
7.90418e-05
7.91075e-05
7.54856e-05
7.64312e-05
7.77446e-05
7.93431e-05
8.11538e-05
8.31116e-05
8.51592e-05
8.72464e-05
8.93306e-05
9.13757e-05
9.33519e-05
9.52355e-05
9.70083e-05
9.86565e-05
0.000100171
0.000101546
0.00010278
0.000103872
0.000104825
0.000105644
0.000106334
0.000106901
0.000107354
0.0001077
0.000107947
0.000108104
0.000108178
0.000103837
0.000104902
0.000106379
0.00010817
0.000110192
0.000112368
0.000114634
0.000116934
0.000119219
0.00012145
0.000123597
0.000125633
0.000127541
0.000129308
0.000130925
0.000132387
0.000133695
0.000134849
0.000135853
0.000136713
0.000137436
0.000138029
0.000138501
0.000138862
0.000139119
0.000139281
0.000139358
0.000135372
0.000136486
0.000138026
0.000139889
0.000141986
0.000144236
0.00014657
0.000148929
0.000151265
0.000153538
0.000155717
0.000157777
0.0001597
0.000161476
0.000163097
0.000164559
0.000165863
0.000167012
0.00016801
0.000168863
0.000169578
0.000170165
0.000170632
0.000170988
0.000171241
0.000171402
0.000171478
0.000168624
0.000169727
0.000171249
0.000173088
0.000175153
0.000177364
0.000179652
0.00018196
0.00018424
0.000186453
0.00018857
0.000190567
0.00019243
0.000194146
0.00019571
0.00019712
0.000198375
0.00019948
0.000200439
0.000201258
0.000201946
0.000202509
0.000202957
0.000203298
0.000203541
0.000203695
0.000203768
0.000202352
0.000203407
0.000204862
0.000206618
0.000208587
0.000210694
0.000212871
0.000215065
0.000217231
0.000219331
0.000221338
0.00022323
0.000224994
0.000226618
0.000228098
0.000229431
0.000230618
0.000231663
0.00023257
0.000233345
0.000233995
0.000234528
0.000234952
0.000235275
0.000235506
0.000235651
0.000235721
0.000235676
0.000236666
0.000238032
0.000239679
0.000241527
0.000243502
0.000245544
0.000247601
0.00024963
0.000251599
0.00025348
0.000255255
0.000256908
0.000258432
0.00025982
0.000261071
0.000262186
0.000263168
0.00026402
0.000264749
0.00026536
0.000265862
0.000266262
0.000266566
0.000266783
0.000266921
0.000266986
0.000268058
0.00026898
0.000270252
0.000271788
0.00027351
0.000275351
0.000277256
0.000279175
0.000281069
0.000282908
0.000284665
0.000286324
0.000287871
0.000289297
0.000290597
0.00029177
0.000292816
0.000293737
0.000294537
0.000295222
0.000295797
0.000296269
0.000296645
0.000296932
0.000297137
0.000297267
0.000297329
0.000299212
0.00030007
0.000301255
0.000302685
0.00030429
0.000306007
0.000307784
0.000309575
0.000311345
0.000313064
0.000314708
0.000316261
0.00031771
0.000319047
0.000320267
0.000321368
0.00032235
0.000323215
0.000323968
0.000324613
0.000325155
0.0003256
0.000325954
0.000326225
0.000326418
0.000326541
0.000326599
0.00032902
0.000329821
0.000330928
0.000332264
0.000333764
0.00033537
0.000337033
0.000338711
0.000340369
0.00034198
0.000343523
0.000344982
0.000346343
0.0003476
0.000348748
0.000349784
0.00035071
0.000351526
0.000352236
0.000352844
0.000353355
0.000353776
0.000354111
0.000354367
0.00035455
0.000354666
0.000354721
0.000357463
0.000358214
0.000359252
0.000360506
0.000361914
0.000363422
0.000364985
0.000366562
0.000368123
0.00036964
0.000371093
0.000372467
0.000373751
0.000374937
0.000376021
0.000377
0.000377874
0.000378646
0.000379317
0.000379893
0.000380377
0.000380775
0.000381092
0.000381335
0.000381508
0.000381618
0.00038167
0.000384577
0.000385284
0.000386262
0.000387444
0.000388771
0.000390194
0.000391668
0.000393158
0.000394631
0.000396065
0.000397439
0.000398739
0.000399954
0.000401077
0.000402103
0.000403031
0.000403859
0.000404591
0.000405228
0.000405774
0.000406233
0.000406611
0.000406912
0.000407143
0.000407307
0.000407412
0.000407462
0.000410424
0.000411094
0.000412019
0.000413137
0.000414393
0.000415741
0.000417137
0.000418549
0.000419946
0.000421305
0.000422609
0.000423842
0.000424996
0.000426062
0.000427037
0.000427918
0.000428706
0.000429401
0.000430007
0.000430526
0.000430963
0.000431323
0.00043161
0.000431829
0.000431986
0.000432085
0.000432133
0.000435081
0.000435717
0.000436595
0.000437657
0.000438851
0.000440131
0.000441458
0.0004428
0.000444128
0.000445422
0.000446662
0.000447836
0.000448934
0.000449949
0.000450878
0.000451717
0.000452468
0.000453131
0.000453708
0.000454203
0.00045462
0.000454963
0.000455236
0.000455445
0.000455595
0.00045569
0.000455735
0.000458626
0.000459231
0.000460068
0.000461079
0.000462217
0.000463437
0.000464702
0.000465981
0.000467248
0.000468481
0.000469664
0.000470785
0.000471833
0.000472802
0.000473688
0.00047449
0.000475206
0.000475839
0.000476391
0.000476864
0.000477262
0.000477589
0.000477851
0.00047805
0.000478193
0.000478284
0.000478327
0.000481135
0.000481713
0.000482512
0.000483478
0.000484565
0.00048573
0.000486939
0.000488162
0.000489372
0.000490552
0.000491683
0.000492754
0.000493756
0.000494683
0.000495531
0.000496298
0.000496983
0.000497589
0.000498117
0.000498569
0.00049895
0.000499264
0.000499514
0.000499705
0.000499842
0.000499929
0.00049997
0.000502682
0.000503235
0.000504
0.000504925
0.000505965
0.000507081
0.000508238
0.000509409
0.000510569
0.000511698
0.000512782
0.000513808
0.000514768
0.000515656
0.000516469
0.000517204
0.000517861
0.000518441
0.000518947
0.000519381
0.000519746
0.000520047
0.000520287
0.00052047
0.000520601
0.000520685
0.000520724
0.000523334
0.000523864
0.000524598
0.000525485
0.000526482
0.000527553
0.000528663
0.000529786
0.000530899
0.000531983
0.000533023
0.000534007
0.000534929
0.000535782
0.000536561
0.000537267
0.000537898
0.000538455
0.000538941
0.000539357
0.000539708
0.000539997
0.000540227
0.000540403
0.000540529
0.000540609
0.000540647
0.000543153
0.000543663
0.000544367
0.00054522
0.000546178
0.000547207
0.000548274
0.000549353
0.000550422
0.000551464
0.000552463
0.00055341
0.000554296
0.000555115
0.000555865
0.000556543
0.00055715
0.000557685
0.000558152
0.000558553
0.00055889
0.000559168
0.000559389
0.000559558
0.000559679
0.000559756
0.000559793
0.000562198
0.000562688
0.000563366
0.000564186
0.000565108
0.000566098
0.000567125
0.000568163
0.000569192
0.000570195
0.000571157
0.000572068
0.00057292
0.000573709
0.000574431
0.000575084
0.000575668
0.000576183
0.000576633
0.000577018
0.000577343
0.00057761
0.000577823
0.000577986
0.000578103
0.000578177
0.000578212
0.00058052
0.000580992
0.000581645
0.000582435
0.000583324
0.000584277
0.000585267
0.000586267
0.000587259
0.000588225
0.000589152
0.00059003
0.000590852
0.000591612
0.000592308
0.000592937
0.0005935
0.000593997
0.00059443
0.000594802
0.000595115
0.000595372
0.000595578
0.000595735
0.000595847
0.000595918
0.000595952
0.000598167
0.000598622
0.000599252
0.000600014
0.000600871
0.000601791
0.000602746
0.000603711
0.000604668
0.0006056
0.000606494
0.000607342
0.000608134
0.000608868
0.000609539
0.000610146
0.000610689
0.000611169
0.000611587
0.000611946
0.000612248
0.000612496
0.000612695
0.000612846
0.000612955
0.000613023
0.000613056
0.000615182
0.000615622
0.00061623
0.000616966
0.000617794
0.000618682
0.000619604
0.000620537
0.000621461
0.000622361
0.000623225
0.000624043
0.000624809
0.000625518
0.000626166
0.000626752
0.000627277
0.00062774
0.000628144
0.000628491
0.000628782
0.000629022
0.000629214
0.00062936
0.000629465
0.000629532
0.000629563
0.000631606
0.000632031
0.000632619
0.00063333
0.000634131
0.000634989
0.000635881
0.000636782
0.000637675
0.000638546
0.000639381
0.000640172
0.000640913
0.000641598
0.000642225
0.000642792
0.000643299
0.000643747
0.000644138
0.000644473
0.000644755
0.000644987
0.000645172
0.000645313
0.000645415
0.000645479
0.00064551
0.000647473
0.000647885
0.000648454
0.000649142
0.000649917
0.000650748
0.00065161
0.000652482
0.000653347
0.000654189
0.000654997
0.000655763
0.00065648
0.000657143
0.00065775
0.000658298
0.000658789
0.000659223
0.000659601
0.000659925
0.000660198
0.000660423
0.000660602
0.000660739
0.000660837
0.000660899
0.000660929
0.000662818
0.000663217
0.000663768
0.000664434
0.000665184
0.000665989
0.000666825
0.000667669
0.000668507
0.000669323
0.000670106
0.000670847
0.000671541
0.000672184
0.000672771
0.000673303
0.000673778
0.000674198
0.000674564
0.000674878
0.000675143
0.00067536
0.000675534
0.000675667
0.000675762
0.000675822
0.000675851
0.00067767
0.000678056
0.00067859
0.000679237
0.000679964
0.000680744
0.000681553
0.000682372
0.000683184
0.000683975
0.000684734
0.000685453
0.000686126
0.000686748
0.000687318
0.000687833
0.000688294
0.000688701
0.000689056
0.000689361
0.000689617
0.000689828
0.000689996
0.000690125
0.000690217
0.000690275
0.000690303
0.000692056
0.000692431
0.000692949
0.000693576
0.000694281
0.000695038
0.000695823
0.000696617
0.000697405
0.000698172
0.000698908
0.000699606
0.000700258
0.000700862
0.000701415
0.000701915
0.000702362
0.000702757
0.000703101
0.000703397
0.000703645
0.00070385
0.000704013
0.000704138
0.000704227
0.000704284
0.000704311
0.000706001
0.000706365
0.000706868
0.000707476
0.000708161
0.000708895
0.000709658
0.000710429
0.000711193
0.000711938
0.000712652
0.000713329
0.000713963
0.000714549
0.000715086
0.000715571
0.000716005
0.000716388
0.000716723
0.000717009
0.000717251
0.000717449
0.000717608
0.000717729
0.000717816
0.000717871
0.000717897
0.000719528
0.000719881
0.000720369
0.00072096
0.000721625
0.000722338
0.000723079
0.000723828
0.00072457
0.000725293
0.000725988
0.000726645
0.000727261
0.00072783
0.000728351
0.000728822
0.000729244
0.000729617
0.000729941
0.00073022
0.000730454
0.000730647
0.000730801
0.000730918
0.000731003
0.000731056
0.000731081
0.000732656
0.000732999
0.000733474
0.000734048
0.000734694
0.000735387
0.000736107
0.000736834
0.000737556
0.000738259
0.000738933
0.000739572
0.00074017
0.000740724
0.00074123
0.000741688
0.000742098
0.00074246
0.000742775
0.000743046
0.000743273
0.000743461
0.00074361
0.000743725
0.000743807
0.000743859
0.000743883
0.000745403
0.000745737
0.000746199
0.000746757
0.000747385
0.000748059
0.000748758
0.000749466
0.000750167
0.00075085
0.000751506
0.000752127
0.000752709
0.000753247
0.000753739
0.000754184
0.000754583
0.000754934
0.000755241
0.000755504
0.000755726
0.000755908
0.000756053
0.000756164
0.000756244
0.000756294
0.000756318
0.000757787
0.000758111
0.00075856
0.000759103
0.000759713
0.000760369
0.000761049
0.000761737
0.000762419
0.000763083
0.000763721
0.000764325
0.000764891
0.000765414
0.000765893
0.000766326
0.000766713
0.000767055
0.000767353
0.000767609
0.000767824
0.000768002
0.000768143
0.000768251
0.000768328
0.000768378
0.000768401
0.000769819
0.000770135
0.000770571
0.000771099
0.000771693
0.00077233
0.000772992
0.000773661
0.000774325
0.000774971
0.000775591
0.000776179
0.000776729
0.000777238
0.000777703
0.000778125
0.000778501
0.000778834
0.000779124
0.000779373
0.000779582
0.000779755
0.000779892
0.000779997
0.000780072
0.00078012
0.000780143
0.000781512
0.000781819
0.000782244
0.000782757
0.000783335
0.000783955
0.000784599
0.00078525
0.000785895
0.000786524
0.000787127
0.000787699
0.000788233
0.000788728
0.000789181
0.000789591
0.000789957
0.000790281
0.000790563
0.000790805
0.000791009
0.000791176
0.00079131
0.000791412
0.000791485
0.000791532
0.000791554
0.000792875
0.000793174
0.000793587
0.000794086
0.000794648
0.000795251
0.000795877
0.000796511
0.000797138
0.00079775
0.000798336
0.000798892
0.000799413
0.000799894
0.000800334
0.000800733
0.000801089
0.000801404
0.000801678
0.000801913
0.000802111
0.000802274
0.000802404
0.000802504
0.000802575
0.00080262
0.000802642
0.000803915
0.000804206
0.000804607
0.000805093
0.00080564
0.000806226
0.000806835
0.00080745
0.000808061
0.000808655
0.000809225
0.000809766
0.000810272
0.00081074
0.000811168
0.000811555
0.000811901
0.000812207
0.000812474
0.000812703
0.000812895
0.000813054
0.00081318
0.000813277
0.000813346
0.00081339
0.000813411
0.000814637
0.000814919
0.00081531
0.000815782
0.000816313
0.000816883
0.000817474
0.000818073
0.000818665
0.000819243
0.000819797
0.000820322
0.000820814
0.000821268
0.000821684
0.000822061
0.000822397
0.000822694
0.000822953
0.000823175
0.000823363
0.000823516
0.000823639
0.000823733
0.0008238
0.000823843
0.000823863
0.000825042
0.000825316
0.000825695
0.000826154
0.000826669
0.000827223
0.000827797
0.000828378
0.000828953
0.000829514
0.000830052
0.000830562
0.000831039
0.00083148
0.000831884
0.000832249
0.000832576
0.000832864
0.000833115
0.000833331
0.000833513
0.000833662
0.000833781
0.000833872
0.000833937
0.000833979
0.000833998
0.000835129
0.000835395
0.000835762
0.000836207
0.000836707
0.000837243
0.0008378
0.000838364
0.000838922
0.000839465
0.000839987
0.000840481
0.000840944
0.000841371
0.000841763
0.000842117
0.000842433
0.000842713
0.000842956
0.000843165
0.000843341
0.000843486
0.000843601
0.00084369
0.000843753
0.000843793
0.000843812
0.000844892
0.00084515
0.000845506
0.000845936
0.000846421
0.00084694
0.000847479
0.000848025
0.000848565
0.000849091
0.000849596
0.000850074
0.000850522
0.000850936
0.000851314
0.000851657
0.000851963
0.000852233
0.000852469
0.000852671
0.000852841
0.000852981
0.000853093
0.000853178
0.000853239
0.000853278
0.000853297
0.000854325
0.000854574
0.000854918
0.000855334
0.000855801
0.000856303
0.000856824
0.000857351
0.000857873
0.000858381
0.000858868
0.00085933
0.000859762
0.000860162
0.000860527
0.000860858
0.000861154
0.000861415
0.000861642
0.000861837
0.000862001
0.000862136
0.000862244
0.000862327
0.000862385
0.000862423
0.000862441
0.000863414
0.000863654
0.000863985
0.000864386
0.000864837
0.00086532
0.000865822
0.000866329
0.000866832
0.000867321
0.000867791
0.000868235
0.000868651
0.000869036
0.000869387
0.000869706
0.00086999
0.000870241
0.00087046
0.000870648
0.000870806
0.000870936
0.000871039
0.000871118
0.000871175
0.000871211
0.000871228
0.000872144
0.000872374
0.000872692
0.000873077
0.00087351
0.000873974
0.000874455
0.000874942
0.000875424
0.000875894
0.000876344
0.00087677
0.000877169
0.000877538
0.000877875
0.00087818
0.000878453
0.000878694
0.000878903
0.000879083
0.000879234
0.000879359
0.000879458
0.000879534
0.000879588
0.000879623
0.000879639
0.000880493
0.000880713
0.000881017
0.000881385
0.000881799
0.000882242
0.000882702
0.000883167
0.000883628
0.000884076
0.000884506
0.000884913
0.000885293
0.000885645
0.000885967
0.000886258
0.000886518
0.000886748
0.000886948
0.000887119
0.000887263
0.000887382
0.000887477
0.000887549
0.000887601
0.000887634
0.000887649
0.000888437
0.000888646
0.000888935
0.000889285
0.000889678
0.000890099
0.000890536
0.000890978
0.000891415
0.000891841
0.000892249
0.000892635
0.000892996
0.00089333
0.000893635
0.000893911
0.000894158
0.000894375
0.000894565
0.000894727
0.000894864
0.000894976
0.000895066
0.000895135
0.000895184
0.000895215
0.000895229
0.000895947
0.000896144
0.000896417
0.000896747
0.000897118
0.000897516
0.000897928
0.000898345
0.000898757
0.000899158
0.000899542
0.000899906
0.000900246
0.000900561
0.000900848
0.000901108
0.00090134
0.000901544
0.000901722
0.000901875
0.000902004
0.00090211
0.000902194
0.000902258
0.000902304
0.000902334
0.000902347
0.00090299
0.000903175
0.000903431
0.00090374
0.000904087
0.000904459
0.000904844
0.000905234
0.000905619
0.000905993
0.000906353
0.000906692
0.00090701
0.000907303
0.000907571
0.000907813
0.000908029
0.00090822
0.000908386
0.000908528
0.000908648
0.000908747
0.000908825
0.000908885
0.000908928
0.000908955
0.000908968
0.000909532
0.000909704
0.000909941
0.000910227
0.000910548
0.000910892
0.000911249
0.000911609
0.000911965
0.000912312
0.000912643
0.000912957
0.00091325
0.00091352
0.000913768
0.000913991
0.00091419
0.000914366
0.000914519
0.00091465
0.00091476
0.000914851
0.000914923
0.000914978
0.000915018
0.000915043
0.000915055
0.000915538
0.000915695
0.000915911
0.000916173
0.000916467
0.000916782
0.000917107
0.000917436
0.000917761
0.000918077
0.000918379
0.000918665
0.000918932
0.000919178
0.000919403
0.000919606
0.000919787
0.000919947
0.000920086
0.000920205
0.000920305
0.000920388
0.000920453
0.000920503
0.000920539
0.000920562
0.000920573
0.000920973
0.000921115
0.00092131
0.000921546
0.00092181
0.000922093
0.000922386
0.000922682
0.000922974
0.000923257
0.000923529
0.000923785
0.000924024
0.000924245
0.000924446
0.000924627
0.00092479
0.000924932
0.000925057
0.000925163
0.000925252
0.000925326
0.000925384
0.000925429
0.000925461
0.000925481
0.000925491
0.00092581
0.000925935
0.000926108
0.000926316
0.00092655
0.0009268
0.000927059
0.00092732
0.000927577
0.000927827
0.000928065
0.000928291
0.000928501
0.000928695
0.000928871
0.000929031
0.000929173
0.000929298
0.000929407
0.0009295
0.000929578
0.000929642
0.000929693
0.000929733
0.00092976
0.000929778
0.000929787
0.000930027
0.000930136
0.000930286
0.000930466
0.000930668
0.000930884
0.000931108
0.000931333
0.000931554
0.000931769
0.000931975
0.000932168
0.000932349
0.000932515
0.000932667
0.000932803
0.000932925
0.000933032
0.000933125
0.000933204
0.000933271
0.000933326
0.00093337
0.000933403
0.000933427
0.000933442
0.000933449
0.000933619
0.000933711
0.000933837
0.000933989
0.00093416
0.000934341
0.000934529
0.000934718
0.000934904
0.000935084
0.000935256
0.000935418
0.000935569
0.000935708
0.000935834
0.000935948
0.000936049
0.000936138
0.000936215
0.000936281
0.000936337
0.000936382
0.000936419
0.000936446
0.000936466
0.000936478
0.000936484
0.000936593
0.000936668
0.000936772
0.000936896
0.000937035
0.000937184
0.000937337
0.000937491
0.000937642
0.000937788
0.000937928
0.000938059
0.000938181
0.000938293
0.000938394
0.000938486
0.000938568
0.000938639
0.000938701
0.000938754
0.000938799
0.000938835
0.000938864
0.000938886
0.000938902
0.000938912
0.000938917
0.000938977
0.000939037
0.000939118
0.000939217
0.000939326
0.000939443
0.000939563
0.000939684
0.000939803
0.000939917
0.000940026
0.000940128
0.000940223
0.00094031
0.000940389
0.00094046
0.000940523
0.000940578
0.000940626
0.000940667
0.000940702
0.00094073
0.000940752
0.000940769
0.000940781
0.000940789
0.000940793
0.000940818
0.000940863
0.000940925
0.000940999
0.000941082
0.00094117
0.000941261
0.000941352
0.00094144
0.000941526
0.000941607
0.000941684
0.000941754
0.000941819
0.000941877
0.00094193
0.000941977
0.000942017
0.000942053
0.000942083
0.000942108
0.000942129
0.000942145
0.000942158
0.000942166
0.000942172
0.000942175
0.000942179
0.000942212
0.000942256
0.00094231
0.00094237
0.000942433
0.000942497
0.000942562
0.000942625
0.000942686
0.000942744
0.000942798
0.000942848
0.000942893
0.000942934
0.000942971
0.000943004
0.000943032
0.000943057
0.000943078
0.000943095
0.00094311
0.000943121
0.00094313
0.000943136
0.00094314
0.000943142
0.000943137
0.000943159
0.000943189
0.000943226
0.000943266
0.000943309
0.000943352
0.000943396
0.000943438
0.000943479
0.000943517
0.000943553
0.000943586
0.000943616
0.000943643