/*--------------------------------*- C++ -*----------------------------------*\
| =========                 |                                                 |
| \\      /  F ield         | OpenFOAM: The Open Source CFD Toolbox           |
|  \\    /   O peration     | Version:  2106                                  |
|   \\  /    A nd           | Website:  www.openfoam.com                      |
|    \\/     M anipulation  |                                                 |
\*---------------------------------------------------------------------------*/
FoamFile
{
    version     2.0;
    format      ascii;
    arch        "LSB;label=32;scalar=64";
    class       volScalarField;
    location    "79.99952";
    object      I-C4H3_0;
}
// * * * * * * * * * * * * * * * * * * * * * * * * * * * * * * * * * * * * * //

dimensions      [0 0 0 0 0 0 0];

internalField   nonuniform List<scalar> 
3360
(
6.70828e-20
6.92416e-20
7.22457e-20
7.59203e-20
8.01123e-20
8.46841e-20
8.95115e-20
9.44824e-20
9.94971e-20
1.04467e-19
1.09316e-19
1.1398e-19
1.18404e-19
1.22547e-19
1.26375e-19
1.29866e-19
1.33006e-19
1.35789e-19
1.38217e-19
1.40295e-19
1.42038e-19
1.43461e-19
1.44586e-19
1.45434e-19
1.4603e-19
1.46401e-19
1.46574e-19
2.94279e-19
3.05096e-19
3.20359e-19
3.39368e-19
3.61539e-19
3.86364e-19
4.13391e-19
4.42203e-19
4.72414e-19
5.0366e-19
5.35589e-19
5.6786e-19
6.00138e-19
6.32091e-19
6.63392e-19
6.93719e-19
7.22759e-19
7.50207e-19
7.75771e-19
7.99176e-19
8.20173e-19
8.38537e-19
8.54081e-19
8.66652e-19
8.76139e-19
8.82474e-19
8.85634e-19
9.23357e-19
9.63883e-19
1.02147e-18
1.09383e-18
1.17907e-18
1.27548e-18
1.38145e-18
1.49538e-18
1.61565e-18
1.74062e-18
1.86859e-18
1.9979e-18
2.12688e-18
2.25391e-18
2.37739e-18
2.49582e-18
2.60781e-18
2.71212e-18
2.80766e-18
2.89354e-18
2.96906e-18
3.03372e-18
3.08725e-18
3.12957e-18
3.16076e-18
3.18111e-18
3.19101e-18
2.68913e-18
2.8227e-18
3.01377e-18
3.25552e-18
3.54222e-18
3.86853e-18
4.2291e-18
4.61837e-18
5.03052e-18
5.45946e-18
5.89885e-18
6.34227e-18
6.78333e-18
7.21582e-18
7.63383e-18
8.03196e-18
8.4054e-18
8.75007e-18
9.06269e-18
9.3408e-18
9.58277e-18
9.78777e-18
9.95566e-18
1.0087e-17
1.01828e-17
1.02447e-17
1.02745e-17
7.85673e-18
8.27811e-18
8.88204e-18
9.64791e-18
1.05582e-17
1.15961e-17
1.27443e-17
1.39844e-17
1.5297e-17
1.66614e-17
1.80563e-17
1.94603e-17
2.08523e-17
2.22122e-17
2.35213e-17
2.4763e-17
2.59228e-17
2.69889e-17
2.7952e-17
2.88056e-17
2.95457e-17
3.01706e-17
3.06809e-17
3.10788e-17
3.13685e-17
3.15551e-17
3.16449e-17
2.31659e-17
2.44599e-17
2.6317e-17
2.8674e-17
3.1477e-17
3.46738e-17
3.82103e-17
4.2029e-17
4.60685e-17
5.0264e-17
5.45487e-17
5.88558e-17
6.31197e-17
6.72784e-17
7.1275e-17
7.50588e-17
7.85866e-17
8.18235e-17
8.47426e-17
8.73252e-17
8.95605e-17
9.1445e-17
9.29813e-17
9.41779e-17
9.50478e-17
9.56075e-17
9.58766e-17
6.88152e-17
7.27474e-17
7.83901e-17
8.55522e-17
9.4069e-17
1.0378e-16
1.14519e-16
1.26108e-16
1.38358e-16
1.5107e-16
1.64041e-16
1.77067e-16
1.8995e-16
2.02503e-16
2.14555e-16
2.25956e-16
2.36576e-16
2.46314e-16
2.5509e-16
2.62849e-16
2.69563e-16
2.7522e-16
2.7983e-16
2.8342e-16
2.86029e-16
2.87707e-16
2.88514e-16
2.05095e-16
2.16927e-16
2.33915e-16
2.55484e-16
2.8114e-16
3.10398e-16
3.42753e-16
3.77668e-16
4.14569e-16
4.52853e-16
4.91906e-16
5.31109e-16
5.69868e-16
6.07618e-16
6.43846e-16
6.781e-16
7.09997e-16
7.39229e-16
7.65561e-16
7.88834e-16
8.08959e-16
8.25911e-16
8.39721e-16
8.5047e-16
8.58279e-16
8.63301e-16
8.65714e-16
6.12871e-16
6.48431e-16
6.99474e-16
7.64276e-16
8.41345e-16
9.29218e-16
1.02637e-15
1.13118e-15
1.24191e-15
1.35676e-15
1.47387e-15
1.59139e-15
1.70753e-15
1.82062e-15
1.92911e-15
2.03167e-15
2.12715e-15
2.21463e-15
2.29342e-15
2.36305e-15
2.42325e-15
2.47396e-15
2.51527e-15
2.54742e-15
2.57078e-15
2.5858e-15
2.59302e-15
1.83144e-15
1.93793e-15
2.09083e-15
2.28496e-15
2.51584e-15
2.77908e-15
3.0701e-15
3.38403e-15
3.71567e-15
4.05957e-15
4.41019e-15
4.76198e-15
5.10958e-15
5.44796e-15
5.77253e-15
6.07925e-15
6.36474e-15
6.62625e-15
6.86173e-15
7.06977e-15
7.24961e-15
7.40105e-15
7.52439e-15
7.62036e-15
7.69007e-15
7.73489e-15
7.75643e-15
5.47529e-15
5.79407e-15
6.25165e-15
6.83249e-15
7.52314e-15
8.3104e-15
9.18052e-15
1.01188e-14
1.11097e-14
1.2137e-14
1.31839e-14
1.4234e-14
1.52712e-14
1.62806e-14
1.72485e-14
1.8163e-14
1.90139e-14
1.97932e-14
2.04947e-14
2.11144e-14
2.16501e-14
2.2101e-14
2.24683e-14
2.2754e-14
2.29616e-14
2.3095e-14
2.31591e-14
1.63523e-14
1.73039e-14
1.86698e-14
2.04033e-14
2.24641e-14
2.48126e-14
2.74074e-14
3.02047e-14
3.31579e-14
3.62181e-14
3.93359e-14
4.24618e-14
4.55482e-14
4.85506e-14
5.14284e-14
5.41463e-14
5.66744e-14
5.89887e-14
6.10715e-14
6.29106e-14
6.44997e-14
6.58372e-14
6.69261e-14
6.7773e-14
6.8388e-14
6.87833e-14
6.89732e-14
4.87791e-14
5.16147e-14
5.56828e-14
6.08438e-14
6.6976e-14
7.39603e-14
8.16726e-14
8.99811e-14
9.87466e-14
1.07824e-13
1.17065e-13
1.26324e-13
1.3546e-13
1.44342e-13
1.5285e-13
1.6088e-13
1.68345e-13
1.75176e-13
1.8132e-13
1.86743e-13
1.91427e-13
1.95368e-13
1.98576e-13
2.0107e-13
2.0288e-13
2.04044e-13
2.04603e-13
1.45065e-13
1.53473e-13
1.65532e-13
1.80823e-13
1.98981e-13
2.19646e-13
2.42448e-13
2.66992e-13
2.92862e-13
3.19628e-13
3.46852e-13
3.74102e-13
4.00965e-13
4.27055e-13
4.52024e-13
4.75571e-13
4.97441e-13
5.17436e-13
5.35407e-13
5.51258e-13
5.64939e-13
5.76442e-13
5.85798e-13
5.9307e-13
5.98346e-13
6.01735e-13
6.03362e-13
4.29774e-13
4.54565e-13
4.90095e-13
5.35107e-13
5.88503e-13
6.49204e-13
7.16095e-13
7.88001e-13
8.63687e-13
9.41879e-13
1.02129e-12
1.10067e-12
1.17881e-12
1.25459e-12
1.32702e-12
1.39524e-12
1.45852e-12
1.5163e-12
1.56819e-12
1.61391e-12
1.65333e-12
1.68645e-12
1.71336e-12
1.73427e-12
1.74943e-12
1.75916e-12
1.76383e-12
1.26557e-12
1.33794e-12
1.44157e-12
1.57271e-12
1.72805e-12
1.90437e-12
2.09835e-12
2.30648e-12
2.52514e-12
2.75061e-12
2.97916e-12
3.20716e-12
3.43116e-12
3.64801e-12
3.85488e-12
4.04937e-12
4.2295e-12
4.39373e-12
4.54096e-12
4.67051e-12
4.78207e-12
4.87568e-12
4.95168e-12
5.01064e-12
5.05336e-12
5.08077e-12
5.09391e-12
3.6972e-12
3.90569e-12
4.20385e-12
4.58051e-12
5.02582e-12
5.53014e-12
6.08362e-12
6.67601e-12
7.29674e-12
7.93509e-12
8.58043e-12
9.22252e-12
9.85173e-12
1.04593e-11
1.10375e-11
1.15799e-11
1.20811e-11
1.25371e-11
1.29452e-11
1.33035e-11
1.36117e-11
1.38698e-11
1.40791e-11
1.42413e-11
1.43587e-11
1.44339e-11
1.44699e-11
1.06848e-11
1.12743e-11
1.21159e-11
1.31767e-11
1.44276e-11
1.584e-11
1.73853e-11
1.90336e-11
2.07549e-11
2.2519e-11
2.42963e-11
2.60586e-11
2.77798e-11
2.94366e-11
3.10086e-11
3.24788e-11
3.38337e-11
3.50634e-11
3.6161e-11
3.71229e-11
3.79483e-11
3.86385e-11
3.91972e-11
3.96295e-11
3.99419e-11
4.01418e-11
4.02375e-11
3.04464e-11
3.20726e-11
3.4389e-11
3.73003e-11
4.07215e-11
4.45701e-11
4.87634e-11
5.32178e-11
5.78495e-11
6.2576e-11
6.73177e-11
7.20001e-11
7.65553e-11
8.09231e-11
8.50524e-11
8.89012e-11
9.24369e-11
9.56362e-11
9.84842e-11
1.00974e-10
1.03105e-10
1.04884e-10
1.06321e-10
1.07431e-10
1.08231e-10
1.08743e-10
1.08988e-10
8.5183e-11
8.95282e-11
9.57007e-11
1.03431e-10
1.12478e-10
1.22609e-10
1.33594e-10
1.45206e-10
1.57219e-10
1.69417e-10
1.81594e-10
1.93563e-10
2.05154e-10
2.1622e-10
2.2664e-10
2.36316e-10
2.45173e-10
2.53161e-10
2.60251e-10
2.66433e-10
2.71711e-10
2.76106e-10
2.79649e-10
2.82381e-10
2.84349e-10
2.85606e-10
2.86205e-10
2.32877e-10
2.44044e-10
2.59856e-10
2.79579e-10
3.02552e-10
3.28145e-10
3.55747e-10
3.84761e-10
4.14613e-10
4.44759e-10
4.74697e-10
5.03973e-10
5.32188e-10
5.59007e-10
5.84151e-10
6.07408e-10
6.28621e-10
6.4769e-10
6.64563e-10
6.79233e-10
6.91728e-10
7.02109e-10
7.10461e-10
7.1689e-10
7.21514e-10
7.24461e-10
7.25867e-10
6.1872e-10
6.4614e-10
6.84835e-10
7.32893e-10
7.88592e-10
8.5031e-10
9.16498e-10
9.85676e-10
1.05645e-09
1.12753e-09
1.19775e-09
1.26607e-09
1.3316e-09
1.39361e-09
1.45151e-09
1.50486e-09
1.55336e-09
1.59681e-09
1.63515e-09
1.66839e-09
1.69664e-09
1.72006e-09
1.73887e-09
1.75332e-09
1.7637e-09
1.7703e-09
1.77345e-09
1.58913e-09
1.65318e-09
1.74328e-09
1.85471e-09
1.98323e-09
2.12489e-09
2.276e-09
2.43307e-09
2.59291e-09
2.75261e-09
2.9096e-09
3.06162e-09
3.20682e-09
3.34365e-09
3.47094e-09
3.58782e-09
3.69373e-09
3.78835e-09
3.87162e-09
3.94365e-09
4.00473e-09
4.05527e-09
4.09579e-09
4.12688e-09
4.14918e-09
4.16336e-09
4.17011e-09
3.92826e-09
4.07049e-09
4.26997e-09
4.51571e-09
4.79793e-09
5.10757e-09
5.43627e-09
5.77632e-09
6.12075e-09
6.46333e-09
6.79864e-09
7.12206e-09
7.42979e-09
7.71879e-09
7.98676e-09
8.23211e-09
8.45382e-09
8.65143e-09
8.82494e-09
8.97475e-09
9.10155e-09
9.20631e-09
9.29018e-09
9.35444e-09
9.40048e-09
9.42973e-09
9.44363e-09
9.32125e-09
9.62238e-09
1.00436e-08
1.0561e-08
1.11531e-08
1.18002e-08
1.24845e-08
1.31898e-08
1.39014e-08
1.46067e-08
1.52946e-08
1.59561e-08
1.65836e-08
1.71712e-08
1.77148e-08
1.82113e-08
1.8659e-08
1.90573e-08
1.94064e-08
1.97073e-08
1.99617e-08
2.01716e-08
2.03394e-08
2.04679e-08
2.05599e-08
2.06183e-08
2.0646e-08
2.12182e-08
2.18305e-08
2.26854e-08
2.37332e-08
2.49293e-08
2.62332e-08
2.76084e-08
2.9022e-08
3.04449e-08
3.18518e-08
3.32211e-08
3.45351e-08
3.57793e-08
3.69427e-08
3.80171e-08
3.89972e-08
3.98799e-08
4.06644e-08
4.13513e-08
4.19428e-08
4.24425e-08
4.28544e-08
4.31836e-08
4.34355e-08
4.36156e-08
4.373e-08
4.37842e-08
4.63877e-08
4.75975e-08
4.92857e-08
5.13526e-08
5.37097e-08
5.62769e-08
5.89819e-08
6.17599e-08
6.4554e-08
6.73147e-08
7e-08
7.25752e-08
7.50123e-08
7.729e-08
7.93926e-08
8.13098e-08
8.30359e-08
8.45691e-08
8.59112e-08
8.70668e-08
8.80424e-08
8.88465e-08
8.9489e-08
8.99803e-08
9.03317e-08
9.05546e-08
9.06604e-08
9.76861e-08
1.00044e-07
1.03335e-07
1.07366e-07
1.11964e-07
1.16976e-07
1.2226e-07
1.27691e-07
1.33159e-07
1.38566e-07
1.43832e-07
1.48887e-07
1.53677e-07
1.58159e-07
1.62301e-07
1.66081e-07
1.69489e-07
1.72519e-07
1.75173e-07
1.77461e-07
1.79394e-07
1.80988e-07
1.82263e-07
1.83239e-07
1.83937e-07
1.8438e-07
1.8459e-07
1.98523e-07
2.03088e-07
2.09468e-07
2.17298e-07
2.26251e-07
2.36035e-07
2.46382e-07
2.57053e-07
2.67834e-07
2.78537e-07
2.88999e-07
2.99084e-07
3.08677e-07
3.17689e-07
3.2605e-07
3.33712e-07
3.40643e-07
3.46829e-07
3.52268e-07
3.5697e-07
3.60956e-07
3.64253e-07
3.66896e-07
3.68924e-07
3.70378e-07
3.71303e-07
3.71743e-07
3.88382e-07
3.97125e-07
4.09375e-07
4.24458e-07
4.41777e-07
4.60793e-07
4.8101e-07
5.01982e-07
5.233e-07
5.44602e-07
5.65566e-07
5.85912e-07
6.05404e-07
6.23843e-07
6.41073e-07
6.56971e-07
6.71453e-07
6.84463e-07
6.95976e-07
7.05993e-07
7.14534e-07
7.21641e-07
7.27368e-07
7.31785e-07
7.34968e-07
7.37001e-07
7.37973e-07
7.25543e-07
7.41673e-07
7.64332e-07
7.92324e-07
8.246e-07
8.60205e-07
8.98264e-07
9.37969e-07
9.78581e-07
1.01943e-06
1.05989e-06
1.09944e-06
1.1376e-06
1.17395e-06
1.20816e-06
1.23995e-06
1.26911e-06
1.29548e-06
1.31898e-06
1.33956e-06
1.35721e-06
1.37199e-06
1.38397e-06
1.39326e-06
1.39998e-06
1.4043e-06
1.40637e-06
1.27806e-06
1.30547e-06
1.34402e-06
1.39169e-06
1.44672e-06
1.50753e-06
1.57264e-06
1.64068e-06
1.7104e-06
1.78066e-06
1.8504e-06
1.91868e-06
1.98468e-06
2.04769e-06
2.10708e-06
2.16238e-06
2.2132e-06
2.25925e-06
2.30035e-06
2.3364e-06
2.3674e-06
2.39338e-06
2.41449e-06
2.43088e-06
2.44278e-06
2.45043e-06
2.45411e-06
2.09929e-06
2.14057e-06
2.19851e-06
2.27e-06
2.35231e-06
2.44295e-06
2.53965e-06
2.64032e-06
2.74304e-06
2.84611e-06
2.94796e-06
3.04724e-06
3.14277e-06
3.23355e-06
3.31877e-06
3.39778e-06
3.4701e-06
3.53538e-06
3.59345e-06
3.64421e-06
3.68772e-06
3.72412e-06
3.7536e-06
3.77646e-06
3.79303e-06
3.80367e-06
3.80878e-06
3.19786e-06
3.25192e-06
3.32752e-06
3.42034e-06
3.52658e-06
3.64281e-06
3.7659e-06
3.89306e-06
4.0218e-06
4.14991e-06
4.27548e-06
4.39689e-06
4.51278e-06
4.62205e-06
4.72385e-06
4.81755e-06
4.90272e-06
4.97911e-06
5.04663e-06
5.10533e-06
5.15538e-06
5.19703e-06
5.23062e-06
5.25656e-06
5.27529e-06
5.28727e-06
5.29301e-06
4.51747e-06
4.57918e-06
4.66509e-06
4.76996e-06
4.88917e-06
5.01858e-06
5.15452e-06
5.29375e-06
5.43345e-06
5.57123e-06
5.70507e-06
5.83333e-06
5.95471e-06
6.06819e-06
6.17307e-06
6.26886e-06
6.35529e-06
6.43228e-06
6.49988e-06
6.5583e-06
6.60782e-06
6.64881e-06
6.68171e-06
6.707e-06
6.72518e-06
6.73677e-06
6.7423e-06
5.94768e-06
6.01009e-06
6.09661e-06
6.20166e-06
6.32032e-06
6.44823e-06
6.58157e-06
6.71705e-06
6.8519e-06
6.98381e-06
7.11092e-06
7.23177e-06
7.34523e-06
7.45053e-06
7.54715e-06
7.63478e-06
7.71333e-06
7.78286e-06
7.84357e-06
7.89573e-06
7.93973e-06
7.97598e-06
8.00494e-06
8.02711e-06
8.04299e-06
8.05308e-06
8.05788e-06
7.3644e-06
7.42155e-06
7.5005e-06
7.59593e-06
7.70314e-06
7.81802e-06
7.93702e-06
8.05713e-06
8.17588e-06
8.29124e-06
8.40165e-06
8.50592e-06
8.60319e-06
8.69289e-06
8.7747e-06
8.84848e-06
8.91425e-06
8.97217e-06
9.02249e-06
9.06553e-06
9.10168e-06
9.13134e-06
9.15496e-06
9.17297e-06
9.18584e-06
9.19398e-06
9.19785e-06
8.66858e-06
8.71689e-06
8.78343e-06
8.86356e-06
8.95318e-06
9.04875e-06
9.14721e-06
9.24605e-06
9.3432e-06
9.43706e-06
9.52638e-06
9.61026e-06
9.68808e-06
9.75948e-06
9.82426e-06
9.88239e-06
9.93398e-06
9.97922e-06
1.00184e-05
1.00517e-05
1.00796e-05
1.01024e-05
1.01205e-05
1.01343e-05
1.01441e-05
1.01503e-05
1.01533e-05
9.80172e-06
9.83989e-06
9.89235e-06
9.9553e-06
1.00254e-05
1.00999e-05
1.01763e-05
1.02525e-05
1.03271e-05
1.03988e-05
1.04667e-05
1.05301e-05
1.05886e-05
1.06421e-05
1.06903e-05
1.07334e-05
1.07715e-05
1.08048e-05
1.08335e-05
1.08578e-05
1.08781e-05
1.08946e-05
1.09077e-05
1.09177e-05
1.09247e-05
1.09292e-05
1.09313e-05
1.0742e-05
1.07703e-05
1.08091e-05
1.08555e-05
1.0907e-05
1.09614e-05
1.1017e-05
1.10722e-05
1.11259e-05
1.11772e-05
1.12255e-05
1.12703e-05
1.13115e-05
1.13489e-05
1.13825e-05
1.14124e-05
1.14386e-05
1.14615e-05
1.1481e-05
1.14976e-05
1.15113e-05
1.15225e-05
1.15313e-05
1.15379e-05
1.15426e-05
1.15456e-05
1.1547e-05
1.14929e-05
1.15124e-05
1.15391e-05
1.15709e-05
1.1606e-05
1.16429e-05
1.16803e-05
1.17172e-05
1.17528e-05
1.17866e-05
1.18181e-05
1.18472e-05
1.18737e-05
1.18976e-05
1.19188e-05
1.19376e-05
1.19539e-05
1.1968e-05
1.198e-05
1.19901e-05
1.19984e-05
1.20051e-05
1.20103e-05
1.20143e-05
1.20171e-05
1.20188e-05
1.20196e-05
1.20722e-05
1.20843e-05
1.21008e-05
1.21204e-05
1.21418e-05
1.2164e-05
1.21864e-05
1.22081e-05
1.22288e-05
1.22482e-05
1.2266e-05
1.22822e-05
1.22967e-05
1.23095e-05
1.23207e-05
1.23305e-05
1.23388e-05
1.23459e-05
1.23518e-05
1.23567e-05
1.23606e-05
1.23637e-05
1.23662e-05
1.2368e-05
1.23692e-05
1.237e-05
1.23703e-05
1.2504e-05
1.25102e-05
1.25185e-05
1.25282e-05
1.25385e-05
1.2549e-05
1.25592e-05
1.25688e-05
1.25776e-05
1.25855e-05
1.25924e-05
1.25983e-05
1.26033e-05
1.26074e-05
1.26107e-05
1.26133e-05
1.26153e-05
1.26168e-05
1.2618e-05
1.26187e-05
1.26193e-05
1.26196e-05
1.26198e-05
1.26199e-05
1.262e-05
1.262e-05
1.262e-05
1.28138e-05
1.28153e-05
1.28171e-05
1.2819e-05
1.28207e-05
1.2822e-05
1.28227e-05
1.28228e-05
1.28224e-05
1.28213e-05
1.28197e-05
1.28176e-05
1.28152e-05
1.28125e-05
1.28097e-05
1.28068e-05
1.2804e-05
1.28013e-05
1.27987e-05
1.27963e-05
1.27943e-05
1.27925e-05
1.27909e-05
1.27898e-05
1.27889e-05
1.27883e-05
1.2788e-05
1.30253e-05
1.30231e-05
1.302e-05
1.30159e-05
1.3011e-05
1.30052e-05
1.29987e-05
1.29916e-05
1.2984e-05
1.29761e-05
1.2968e-05
1.29599e-05
1.29519e-05
1.29441e-05
1.29367e-05
1.29297e-05
1.29231e-05
1.29172e-05
1.29119e-05
1.29071e-05
1.29031e-05
1.28997e-05
1.28969e-05
1.28947e-05
1.28931e-05
1.28921e-05
1.28916e-05
1.31593e-05
1.31544e-05
1.31476e-05
1.3139e-05
1.31291e-05
1.3118e-05
1.31061e-05
1.30935e-05
1.30807e-05
1.30677e-05
1.30548e-05
1.30422e-05
1.30301e-05
1.30185e-05
1.30076e-05
1.29975e-05
1.29883e-05
1.298e-05
1.29726e-05
1.29662e-05
1.29606e-05
1.2956e-05
1.29523e-05
1.29494e-05
1.29473e-05
1.2946e-05
1.29454e-05
1.32336e-05
1.32267e-05
1.32171e-05
1.32052e-05
1.31916e-05
1.31766e-05
1.31607e-05
1.31443e-05
1.31275e-05
1.31109e-05
1.30945e-05
1.30786e-05
1.30634e-05
1.30491e-05
1.30358e-05
1.30235e-05
1.30123e-05
1.30023e-05
1.29934e-05
1.29857e-05
1.29792e-05
1.29737e-05
1.29693e-05
1.29659e-05
1.29635e-05
1.29619e-05
1.29612e-05
1.32624e-05
1.32541e-05
1.32425e-05
1.32283e-05
1.3212e-05
1.31943e-05
1.31756e-05
1.31563e-05
1.31368e-05
1.31175e-05
1.30987e-05
1.30805e-05
1.30632e-05
1.30469e-05
1.30318e-05
1.3018e-05
1.30055e-05
1.29943e-05
1.29844e-05
1.29758e-05
1.29685e-05
1.29625e-05
1.29576e-05
1.29539e-05
1.29512e-05
1.29494e-05
1.29486e-05
1.32574e-05
1.32481e-05
1.32351e-05
1.32192e-05
1.32011e-05
1.31815e-05
1.31608e-05
1.31396e-05
1.31182e-05
1.30971e-05
1.30766e-05
1.30568e-05
1.30381e-05
1.30205e-05
1.30043e-05
1.29894e-05
1.29759e-05
1.29639e-05
1.29533e-05
1.29442e-05
1.29364e-05
1.293e-05
1.29248e-05
1.29208e-05
1.2918e-05
1.29161e-05
1.29153e-05
1.32275e-05
1.32175e-05
1.32036e-05
1.31866e-05
1.31673e-05
1.31464e-05
1.31244e-05
1.31019e-05
1.30793e-05
1.3057e-05
1.30354e-05
1.30146e-05
1.2995e-05
1.29766e-05
1.29596e-05
1.2944e-05
1.293e-05
1.29175e-05
1.29065e-05
1.2897e-05
1.28889e-05
1.28822e-05
1.28768e-05
1.28727e-05
1.28698e-05
1.28679e-05
1.2867e-05
1.31796e-05
1.31692e-05
1.31547e-05
1.3137e-05
1.3117e-05
1.30953e-05
1.30725e-05
1.30492e-05
1.30259e-05
1.30029e-05
1.29806e-05
1.29593e-05
1.29391e-05
1.29202e-05
1.29028e-05
1.28869e-05
1.28725e-05
1.28597e-05
1.28485e-05
1.28388e-05
1.28305e-05
1.28237e-05
1.28183e-05
1.28141e-05
1.2811e-05
1.28091e-05
1.28082e-05
1.31191e-05
1.31084e-05
1.30936e-05
1.30756e-05
1.30552e-05
1.3033e-05
1.30098e-05
1.29862e-05
1.29625e-05
1.29391e-05
1.29165e-05
1.28949e-05
1.28744e-05
1.28554e-05
1.28377e-05
1.28217e-05
1.28072e-05
1.27943e-05
1.27829e-05
1.27731e-05
1.27649e-05
1.2758e-05
1.27525e-05
1.27483e-05
1.27452e-05
1.27433e-05
1.27424e-05
1.305e-05
1.30392e-05
1.30243e-05
1.30061e-05
1.29855e-05
1.29632e-05
1.29399e-05
1.29161e-05
1.28923e-05
1.28689e-05
1.28462e-05
1.28245e-05
1.2804e-05
1.27849e-05
1.27673e-05
1.27512e-05
1.27367e-05
1.27238e-05
1.27125e-05
1.27027e-05
1.26944e-05
1.26876e-05
1.26821e-05
1.26779e-05
1.26748e-05
1.26729e-05
1.2672e-05
1.29752e-05
1.29644e-05
1.29495e-05
1.29314e-05
1.29108e-05
1.28886e-05
1.28653e-05
1.28416e-05
1.28178e-05
1.27945e-05
1.2772e-05
1.27504e-05
1.273e-05
1.2711e-05
1.26935e-05
1.26775e-05
1.26631e-05
1.26503e-05
1.26391e-05
1.26294e-05
1.26212e-05
1.26144e-05
1.2609e-05
1.26048e-05
1.26018e-05
1.25999e-05
1.2599e-05
1.2897e-05
1.28863e-05
1.28715e-05
1.28535e-05
1.28331e-05
1.2811e-05
1.2788e-05
1.27645e-05
1.2741e-05
1.27179e-05
1.26956e-05
1.26742e-05
1.26541e-05
1.26353e-05
1.2618e-05
1.26022e-05
1.2588e-05
1.25753e-05
1.25643e-05
1.25547e-05
1.25466e-05
1.25399e-05
1.25345e-05
1.25304e-05
1.25274e-05
1.25255e-05
1.25246e-05
1.28169e-05
1.28064e-05
1.27917e-05
1.2774e-05
1.27538e-05
1.27321e-05
1.27093e-05
1.26861e-05
1.2663e-05
1.26402e-05
1.26182e-05
1.25972e-05
1.25774e-05
1.25589e-05
1.25418e-05
1.25263e-05
1.25123e-05
1.24999e-05
1.24889e-05
1.24795e-05
1.24716e-05
1.2465e-05
1.24597e-05
1.24556e-05
1.24527e-05
1.24508e-05
1.24499e-05
1.27362e-05
1.27258e-05
1.27114e-05
1.26939e-05
1.26741e-05
1.26527e-05
1.26303e-05
1.26075e-05
1.25848e-05
1.25624e-05
1.25408e-05
1.25202e-05
1.25007e-05
1.24825e-05
1.24658e-05
1.24505e-05
1.24368e-05
1.24246e-05
1.24139e-05
1.24046e-05
1.23968e-05
1.23903e-05
1.23851e-05
1.23812e-05
1.23783e-05
1.23765e-05
1.23756e-05
1.26555e-05
1.26454e-05
1.26312e-05
1.26141e-05
1.25946e-05
1.25736e-05
1.25517e-05
1.25293e-05
1.2507e-05
1.24851e-05
1.24639e-05
1.24437e-05
1.24246e-05
1.24068e-05
1.23904e-05
1.23754e-05
1.2362e-05
1.235e-05
1.23395e-05
1.23305e-05
1.23228e-05
1.23165e-05
1.23114e-05
1.23075e-05
1.23047e-05
1.23029e-05
1.2302e-05
1.25755e-05
1.25656e-05
1.25517e-05
1.25349e-05
1.25159e-05
1.24953e-05
1.24738e-05
1.24519e-05
1.24301e-05
1.24086e-05
1.23879e-05
1.2368e-05
1.23494e-05
1.23319e-05
1.23159e-05
1.23013e-05
1.22881e-05
1.22764e-05
1.22661e-05
1.22573e-05
1.22498e-05
1.22436e-05
1.22386e-05
1.22348e-05
1.2232e-05
1.22303e-05
1.22294e-05
1.24965e-05
1.24867e-05
1.24732e-05
1.24567e-05
1.24381e-05
1.24179e-05
1.23969e-05
1.23755e-05
1.23541e-05
1.23331e-05
1.23128e-05
1.22935e-05
1.22752e-05
1.22582e-05
1.22425e-05
1.22282e-05
1.22153e-05
1.22038e-05
1.21938e-05
1.21851e-05
1.21778e-05
1.21717e-05
1.21668e-05
1.21631e-05
1.21604e-05
1.21587e-05
1.21579e-05
1.24184e-05
1.24089e-05
1.23956e-05
1.23795e-05
1.23613e-05
1.23416e-05
1.23211e-05
1.23001e-05
1.22792e-05
1.22587e-05
1.22389e-05
1.22199e-05
1.2202e-05
1.21854e-05
1.217e-05
1.21561e-05
1.21435e-05
1.21323e-05
1.21225e-05
1.2114e-05
1.21068e-05
1.21009e-05
1.20961e-05
1.20925e-05
1.20898e-05
1.20882e-05
1.20874e-05
1.23414e-05
1.23321e-05
1.23191e-05
1.23034e-05
1.22855e-05
1.22663e-05
1.22462e-05
1.22257e-05
1.22053e-05
1.21852e-05
1.21658e-05
1.21473e-05
1.21298e-05
1.21135e-05
1.20985e-05
1.20848e-05
1.20725e-05
1.20615e-05
1.20519e-05
1.20437e-05
1.20366e-05
1.20308e-05
1.20262e-05
1.20226e-05
1.202e-05
1.20184e-05
1.20176e-05
1.22652e-05
1.22561e-05
1.22434e-05
1.2228e-05
1.22105e-05
1.21917e-05
1.2172e-05
1.2152e-05
1.2132e-05
1.21124e-05
1.20934e-05
1.20752e-05
1.20581e-05
1.20422e-05
1.20275e-05
1.20141e-05
1.20021e-05
1.19914e-05
1.1982e-05
1.19738e-05
1.1967e-05
1.19613e-05
1.19567e-05
1.19532e-05
1.19507e-05
1.19491e-05
1.19484e-05
1.21895e-05
1.21806e-05
1.21681e-05
1.2153e-05
1.2136e-05
1.21175e-05
1.20983e-05
1.20786e-05
1.2059e-05
1.20398e-05
1.20212e-05
1.20034e-05
1.19867e-05
1.19711e-05
1.19567e-05
1.19436e-05
1.19317e-05
1.19212e-05
1.1912e-05
1.19041e-05
1.18974e-05
1.18918e-05
1.18873e-05
1.18839e-05
1.18814e-05
1.18799e-05
1.18791e-05
1.21139e-05
1.21051e-05
1.20929e-05
1.20781e-05
1.20613e-05
1.20432e-05
1.20243e-05
1.20051e-05
1.19859e-05
1.1967e-05
1.19487e-05
1.19313e-05
1.19149e-05
1.18995e-05
1.18854e-05
1.18725e-05
1.18609e-05
1.18506e-05
1.18416e-05
1.18338e-05
1.18272e-05
1.18217e-05
1.18173e-05
1.1814e-05
1.18115e-05
1.181e-05
1.18093e-05
1.20377e-05
1.2029e-05
1.2017e-05
1.20025e-05
1.1986e-05
1.19682e-05
1.19496e-05
1.19307e-05
1.19118e-05
1.18932e-05
1.18753e-05
1.18581e-05
1.1842e-05
1.18269e-05
1.1813e-05
1.18003e-05
1.17889e-05
1.17788e-05
1.17699e-05
1.17622e-05
1.17557e-05
1.17503e-05
1.1746e-05
1.17427e-05
1.17403e-05
1.17388e-05
1.17381e-05
1.19601e-05
1.19516e-05
1.19397e-05
1.19254e-05
1.19091e-05
1.18916e-05
1.18733e-05
1.18546e-05
1.1836e-05
1.18177e-05
1.17999e-05
1.1783e-05
1.17671e-05
1.17522e-05
1.17385e-05
1.1726e-05
1.17147e-05
1.17047e-05
1.16959e-05
1.16883e-05
1.16819e-05
1.16766e-05
1.16723e-05
1.16691e-05
1.16667e-05
1.16652e-05
1.16645e-05
1.18801e-05
1.18717e-05
1.186e-05
1.18458e-05
1.18297e-05
1.18124e-05
1.17942e-05
1.17758e-05
1.17573e-05
1.17392e-05
1.17216e-05
1.17049e-05
1.16891e-05
1.16743e-05
1.16607e-05
1.16483e-05
1.16372e-05
1.16273e-05
1.16185e-05
1.1611e-05
1.16047e-05
1.15994e-05
1.15952e-05
1.15919e-05
1.15896e-05
1.15881e-05
1.15874e-05
1.17966e-05
1.17882e-05
1.17766e-05
1.17625e-05
1.17465e-05
1.17292e-05
1.17112e-05
1.16928e-05
1.16744e-05
1.16564e-05
1.16389e-05
1.16222e-05
1.16065e-05
1.15918e-05
1.15783e-05
1.1566e-05
1.15548e-05
1.1545e-05
1.15363e-05
1.15288e-05
1.15225e-05
1.15172e-05
1.1513e-05
1.15098e-05
1.15074e-05
1.15059e-05
1.15052e-05
1.1708e-05
1.16996e-05
1.1688e-05
1.16739e-05
1.16579e-05
1.16406e-05
1.16225e-05
1.16041e-05
1.15857e-05
1.15677e-05
1.15502e-05
1.15335e-05
1.15177e-05
1.1503e-05
1.14895e-05
1.14771e-05
1.14659e-05
1.1456e-05
1.14473e-05
1.14398e-05
1.14335e-05
1.14282e-05
1.1424e-05
1.14207e-05
1.14184e-05
1.14169e-05
1.14162e-05
1.16124e-05
1.1604e-05
1.15923e-05
1.1578e-05
1.15619e-05
1.15445e-05
1.15263e-05
1.15077e-05
1.14892e-05
1.1471e-05
1.14533e-05
1.14365e-05
1.14206e-05
1.14057e-05
1.1392e-05
1.13796e-05
1.13683e-05
1.13583e-05
1.13495e-05
1.13419e-05
1.13355e-05
1.13302e-05
1.13259e-05
1.13227e-05
1.13203e-05
1.13188e-05
1.13181e-05
1.15075e-05
1.1499e-05
1.14871e-05
1.14726e-05
1.14563e-05
1.14386e-05
1.14201e-05
1.14012e-05
1.13823e-05
1.13638e-05
1.13458e-05
1.13287e-05
1.13125e-05
1.12974e-05
1.12835e-05
1.12708e-05
1.12593e-05
1.12491e-05
1.12402e-05
1.12325e-05
1.12259e-05
1.12205e-05
1.12162e-05
1.12128e-05
1.12104e-05
1.12089e-05
1.12082e-05
1.13907e-05
1.13819e-05
1.13697e-05
1.13549e-05
1.13381e-05
1.13199e-05
1.1301e-05
1.12816e-05
1.12622e-05
1.12432e-05
1.12248e-05
1.12071e-05
1.11905e-05
1.1175e-05
1.11607e-05
1.11476e-05
1.11358e-05
1.11254e-05
1.11162e-05
1.11082e-05
1.11015e-05
1.10959e-05
1.10914e-05
1.1088e-05
1.10855e-05
1.1084e-05
1.10832e-05
1.12586e-05
1.12495e-05
1.12368e-05
1.12215e-05
1.1204e-05
1.11852e-05
1.11655e-05
1.11454e-05
1.11253e-05
1.11056e-05
1.10864e-05
1.10682e-05
1.10509e-05
1.10348e-05
1.10199e-05
1.10063e-05
1.09941e-05
1.09832e-05
1.09736e-05
1.09654e-05
1.09584e-05
1.09526e-05
1.09479e-05
1.09444e-05
1.09418e-05
1.09402e-05
1.09394e-05
1.11072e-05
1.10977e-05
1.10845e-05
1.10683e-05
1.10501e-05
1.10303e-05
1.10097e-05
1.09886e-05
1.09675e-05
1.09468e-05
1.09267e-05
1.09075e-05
1.08893e-05
1.08724e-05
1.08568e-05
1.08425e-05
1.08296e-05
1.08182e-05
1.08082e-05
1.07995e-05
1.07921e-05
1.0786e-05
1.07811e-05
1.07774e-05
1.07747e-05
1.07729e-05
1.07721e-05
1.09321e-05
1.0922e-05
1.0908e-05
1.08909e-05
1.08715e-05
1.08506e-05
1.08286e-05
1.08062e-05
1.07838e-05
1.07618e-05
1.07405e-05
1.07201e-05
1.07008e-05
1.06828e-05
1.06662e-05
1.06511e-05
1.06374e-05
1.06252e-05
1.06145e-05
1.06053e-05
1.05975e-05
1.0591e-05
1.05858e-05
1.05818e-05
1.05789e-05
1.05771e-05
1.05762e-05
1.0728e-05
1.07171e-05
1.0702e-05
1.06837e-05
1.06629e-05
1.06404e-05
1.06169e-05
1.05928e-05
1.05688e-05
1.05451e-05
1.05222e-05
1.05003e-05
1.04796e-05
1.04602e-05
1.04424e-05
1.04261e-05
1.04114e-05
1.03983e-05
1.03868e-05
1.03769e-05
1.03685e-05
1.03615e-05
1.03559e-05
1.03516e-05
1.03485e-05
1.03465e-05
1.03456e-05
1.04887e-05
1.04769e-05
1.04606e-05
1.04407e-05
1.04182e-05
1.03938e-05
1.03682e-05
1.03421e-05
1.0316e-05
1.02904e-05
1.02655e-05
1.02417e-05
1.02192e-05
1.01982e-05
1.01788e-05
1.01611e-05
1.01451e-05
1.01309e-05
1.01184e-05
1.01077e-05
1.00985e-05
1.0091e-05
1.00849e-05
1.00802e-05
1.00768e-05
1.00747e-05
1.00737e-05
1.02077e-05
1.01949e-05
1.0177e-05
1.01552e-05
1.01305e-05
1.01038e-05
1.00758e-05
1.00473e-05
1.00187e-05
9.99058e-06
9.96333e-06
9.93726e-06
9.91263e-06
9.88963e-06
9.86839e-06
9.84901e-06
9.83153e-06
9.81596e-06
9.80229e-06
9.79048e-06
9.78046e-06
9.77217e-06
9.76552e-06
9.7604e-06
9.75672e-06
9.75437e-06
9.75325e-06
9.87795e-06
9.86375e-06
9.84403e-06
9.82002e-06
9.79281e-06
9.76337e-06
9.73254e-06
9.70106e-06
9.66956e-06
9.63857e-06
9.60854e-06
9.57981e-06
9.55266e-06
9.52731e-06
9.5039e-06
9.48254e-06
9.46328e-06
9.44612e-06
9.43106e-06
9.41805e-06
9.40702e-06
9.39788e-06
9.39055e-06
9.38491e-06
9.38086e-06
9.37827e-06
9.37704e-06
9.49222e-06
9.4765e-06
9.45466e-06
9.42808e-06
9.39797e-06
9.36538e-06
9.33126e-06
9.29642e-06
9.26157e-06
9.22729e-06
9.19407e-06
9.16229e-06
9.13227e-06
9.10424e-06
9.07836e-06
9.05475e-06
9.03345e-06
9.0145e-06
8.99785e-06
8.98348e-06
8.97129e-06
8.9612e-06
8.9531e-06
8.94688e-06
8.9424e-06
8.93955e-06
8.93818e-06
9.04394e-06
9.02652e-06
9.00233e-06
8.97288e-06
8.93952e-06
8.90343e-06
8.86565e-06
8.82709e-06
8.78852e-06
8.75059e-06
8.71384e-06
8.6787e-06
8.64551e-06
8.61452e-06
8.58593e-06
8.55984e-06
8.53632e-06
8.51539e-06
8.49701e-06
8.48114e-06
8.46769e-06
8.45656e-06
8.44762e-06
8.44076e-06
8.43582e-06
8.43267e-06
8.43117e-06
8.528e-06
8.50875e-06
8.48202e-06
8.4495e-06
8.41267e-06
8.37283e-06
8.33115e-06
8.28862e-06
8.2461e-06
8.2043e-06
8.16382e-06
8.12513e-06
8.08859e-06
8.0545e-06
8.02305e-06
7.99437e-06
7.96852e-06
7.94551e-06
7.92533e-06
7.9079e-06
7.89313e-06
7.88091e-06
7.8711e-06
7.86357e-06
7.85815e-06
7.8547e-06
7.85305e-06
7.94192e-06
7.92081e-06
7.89151e-06
7.85587e-06
7.81552e-06
7.77191e-06
7.72629e-06
7.67978e-06
7.6333e-06
7.58763e-06
7.54343e-06
7.5012e-06
7.46136e-06
7.42419e-06
7.38993e-06
7.35869e-06
7.33055e-06
7.30552e-06
7.28356e-06
7.26461e-06
7.24856e-06
7.23528e-06
7.22462e-06
7.21644e-06
7.21056e-06
7.20681e-06
7.20502e-06
7.28748e-06
7.26462e-06
7.2329e-06
7.19433e-06
7.15069e-06
7.10356e-06
7.05429e-06
7.0041e-06
6.95397e-06
6.90477e-06
6.85717e-06
6.81174e-06
6.76889e-06
6.72896e-06
6.69217e-06
6.65865e-06
6.62847e-06
6.60164e-06
6.57812e-06
6.55782e-06
6.54064e-06
6.52643e-06
6.51504e-06
6.50629e-06
6.5e-06
6.49599e-06
6.49408e-06
6.57219e-06
6.54787e-06
6.51414e-06
6.47315e-06
6.42682e-06
6.37681e-06
6.32459e-06
6.27143e-06
6.2184e-06
6.16639e-06
6.11614e-06
6.06821e-06
6.02306e-06
5.98101e-06
5.94229e-06
5.90705e-06
5.87534e-06
5.84718e-06
5.8225e-06
5.80122e-06
5.78321e-06
5.76832e-06
5.75639e-06
5.74724e-06
5.74066e-06
5.73647e-06
5.73447e-06
5.81059e-06
5.78531e-06
5.75028e-06
5.70775e-06
5.65971e-06
5.60792e-06
5.55391e-06
5.49899e-06
5.44426e-06
5.39066e-06
5.33892e-06
5.28964e-06
5.24326e-06
5.20012e-06
5.16044e-06
5.12435e-06
5.09191e-06
5.06312e-06
5.03791e-06
5.01618e-06
4.99782e-06
4.98264e-06
4.97048e-06
4.96115e-06
4.95446e-06
4.95019e-06
4.94816e-06
5.02447e-06
4.99895e-06
4.96362e-06
4.92077e-06
4.87243e-06
4.82038e-06
4.76617e-06
4.71112e-06
4.65635e-06
4.60278e-06
4.55115e-06
4.50204e-06
4.45588e-06
4.413e-06
4.37361e-06
4.33782e-06
4.30569e-06
4.27719e-06
4.25227e-06
4.2308e-06
4.21267e-06
4.1977e-06
4.18571e-06
4.17652e-06
4.16992e-06
4.16572e-06
4.16372e-06
4.24161e-06
4.21673e-06
4.18231e-06
4.14062e-06
4.09364e-06
4.04313e-06
3.99061e-06
3.93736e-06
3.88448e-06
3.83284e-06
3.78314e-06
3.73595e-06
3.69167e-06
3.65058e-06
3.6129e-06
3.5787e-06
3.54804e-06
3.52087e-06
3.49714e-06
3.47672e-06
3.45948e-06
3.44526e-06
3.43388e-06
3.42515e-06
3.4189e-06
3.41492e-06
3.41302e-06
3.49253e-06
3.46919e-06
3.43694e-06
3.39791e-06
3.354e-06
3.30688e-06
3.25796e-06
3.20845e-06
3.15937e-06
3.11154e-06
3.06559e-06
3.02202e-06
2.98121e-06
2.94342e-06
2.90879e-06
2.87742e-06
2.84933e-06
2.82447e-06
2.80277e-06
2.78413e-06
2.7684e-06
2.75543e-06
2.74506e-06
2.73712e-06
2.73143e-06
2.72781e-06
2.72608e-06
2.8057e-06
2.78469e-06
2.75568e-06
2.72063e-06
2.68125e-06
2.63906e-06
2.59534e-06
2.55118e-06
2.50749e-06
2.46497e-06
2.42421e-06
2.38564e-06
2.34957e-06
2.31621e-06
2.2857e-06
2.2581e-06
2.23341e-06
2.21159e-06
2.19257e-06