/*--------------------------------*- C++ -*----------------------------------*\
| =========                 |                                                 |
| \\      /  F ield         | OpenFOAM: The Open Source CFD Toolbox           |
|  \\    /   O peration     | Version:  2106                                  |
|   \\  /    A nd           | Website:  www.openfoam.com                      |
|    \\/     M anipulation  |                                                 |
\*---------------------------------------------------------------------------*/
FoamFile
{
    version     2.0;
    format      ascii;
    arch        "LSB;label=32;scalar=64";
    class       volScalarField;
    location    "79.99952";
    object      PC3H4;
}
// * * * * * * * * * * * * * * * * * * * * * * * * * * * * * * * * * * * * * //

dimensions      [0 0 0 0 0 0 0];

internalField   nonuniform List<scalar> 
3360
(
1.52595e-17
1.57505e-17
1.64339e-17
1.72697e-17
1.82233e-17
1.92633e-17
2.03614e-17
2.14921e-17
2.26328e-17
2.37634e-17
2.48664e-17
2.59273e-17
2.69337e-17
2.7876e-17
2.87468e-17
2.95409e-17
3.02552e-17
3.08883e-17
3.14404e-17
3.19133e-17
3.23097e-17
3.26334e-17
3.28892e-17
3.30821e-17
3.32178e-17
3.33022e-17
3.33414e-17
6.69402e-17
6.94007e-17
7.28728e-17
7.71967e-17
8.224e-17
8.78871e-17
9.40349e-17
1.00589e-16
1.07461e-16
1.14569e-16
1.21831e-16
1.29172e-16
1.36515e-16
1.43783e-16
1.50903e-16
1.57802e-16
1.64408e-16
1.70651e-16
1.76466e-16
1.8179e-16
1.86566e-16
1.90744e-16
1.9428e-16
1.97139e-16
1.99297e-16
2.00738e-16
2.01457e-16
2.10038e-16
2.19256e-16
2.32355e-16
2.48815e-16
2.68205e-16
2.90137e-16
3.14242e-16
3.40157e-16
3.67516e-16
3.95942e-16
4.25052e-16
4.54467e-16
4.83807e-16
5.12701e-16
5.40789e-16
5.67729e-16
5.93205e-16
6.16932e-16
6.38665e-16
6.58199e-16
6.75377e-16
6.90087e-16
7.02264e-16
7.11889e-16
7.18985e-16
7.23613e-16
7.25865e-16
6.11701e-16
6.42085e-16
6.85549e-16
7.4054e-16
8.05757e-16
8.79983e-16
9.62001e-16
1.05055e-15
1.1443e-15
1.24187e-15
1.34182e-15
1.44269e-15
1.54302e-15
1.6414e-15
1.73648e-15
1.82705e-15
1.91199e-15
1.9904e-15
2.06151e-15
2.12477e-15
2.17981e-15
2.22644e-15
2.26463e-15
2.2945e-15
2.3163e-15
2.33038e-15
2.33717e-15
1.78719e-15
1.88304e-15
2.02042e-15
2.19463e-15
2.40169e-15
2.63778e-15
2.89896e-15
3.18106e-15
3.47964e-15
3.79e-15
4.10731e-15
4.42668e-15
4.74332e-15
5.05265e-15
5.35044e-15
5.63288e-15
5.89671e-15
6.13921e-15
6.3583e-15
6.55248e-15
6.72082e-15
6.86297e-15
6.97904e-15
7.06957e-15
7.13546e-15
7.17791e-15
7.19833e-15
5.26959e-15
5.56395e-15
5.98637e-15
6.52252e-15
7.16013e-15
7.88731e-15
8.69178e-15
9.56043e-15
1.04793e-14
1.14336e-14
1.24083e-14
1.3388e-14
1.4358e-14
1.5304e-14
1.62131e-14
1.70738e-14
1.78763e-14
1.86126e-14
1.92766e-14
1.9864e-14
2.03725e-14
2.08012e-14
2.11507e-14
2.14228e-14
2.16207e-14
2.1748e-14
2.18092e-14
1.56535e-14
1.6548e-14
1.78316e-14
1.94607e-14
2.13981e-14
2.36071e-14
2.60498e-14
2.8686e-14
3.14725e-14
3.43642e-14
3.73148e-14
4.02778e-14
4.32083e-14
4.60638e-14
4.88053e-14
5.13986e-14
5.38145e-14
5.60295e-14
5.80258e-14
5.97909e-14
6.13179e-14
6.26047e-14
6.36535e-14
6.44701e-14
6.50635e-14
6.54454e-14
6.56289e-14
4.66534e-14
4.93449e-14
5.3209e-14
5.81154e-14
6.39514e-14
7.06068e-14
7.79668e-14
8.5909e-14
9.43028e-14
1.03012e-13
1.11895e-13
1.20813e-13
1.29629e-13
1.38216e-13
1.46457e-13
1.54249e-13
1.61505e-13
1.68154e-13
1.74144e-13
1.79438e-13
1.84016e-13
1.87872e-13
1.91013e-13
1.93458e-13
1.95234e-13
1.96377e-13
1.96926e-13
1.39411e-13
1.475e-13
1.59111e-13
1.73851e-13
1.91382e-13
2.11371e-13
2.33471e-13
2.57312e-13
2.82501e-13
3.08625e-13
3.35264e-13
3.61997e-13
3.88416e-13
4.1414e-13
4.38819e-13
4.62148e-13
4.83866e-13
5.03765e-13
5.21688e-13
5.37527e-13
5.51222e-13
5.62757e-13
5.72153e-13
5.79467e-13
5.8478e-13
5.88197e-13
5.8984e-13
4.166e-13
4.40826e-13
4.75606e-13
5.19764e-13
5.72282e-13
6.32162e-13
6.98362e-13
7.69772e-13
8.4521e-13
9.23439e-13
1.0032e-12
1.08322e-12
1.16229e-12
1.23926e-12
1.31309e-12
1.38286e-12
1.4478e-12
1.50729e-12
1.56085e-12
1.60817e-12
1.64908e-12
1.68353e-12
1.71159e-12
1.73342e-12
1.74928e-12
1.75947e-12
1.76437e-12
1.24547e-12
1.31799e-12
1.42208e-12
1.5542e-12
1.7113e-12
1.89038e-12
2.08831e-12
2.30175e-12
2.52715e-12
2.76082e-12
2.99897e-12
3.23783e-12
3.47377e-12
3.70338e-12
3.92355e-12
4.13157e-12
4.32513e-12
4.50239e-12
4.66197e-12
4.80294e-12
4.92478e-12
5.02737e-12
5.1109e-12
5.17591e-12
5.22311e-12
5.25347e-12
5.26805e-12
3.71969e-12
3.93616e-12
4.24685e-12
4.64118e-12
5.10995e-12
5.64417e-12
6.23442e-12
6.87073e-12
7.54249e-12
8.23861e-12
8.94781e-12
9.65886e-12
1.03609e-11
1.10439e-11
1.16985e-11
1.23168e-11
1.28918e-11
1.34183e-11
1.38921e-11
1.43104e-11
1.46719e-11
1.49761e-11
1.52238e-11
1.54165e-11
1.55564e-11
1.56463e-11
1.56895e-11
1.10959e-11
1.17409e-11
1.26663e-11
1.38403e-11
1.52352e-11
1.68239e-11
1.85782e-11
2.04682e-11
2.24621e-11
2.45269e-11
2.6629e-11
2.87352e-11
3.08134e-11
3.28338e-11
3.47691e-11
3.65957e-11
3.82939e-11
3.98477e-11
4.12453e-11
4.24789e-11
4.35444e-11
4.44408e-11
4.51704e-11
4.57377e-11
4.61496e-11
4.64142e-11
4.65413e-11
3.29981e-11
3.49108e-11
3.76539e-11
4.11322e-11
4.52625e-11
4.99633e-11
5.51501e-11
6.07331e-11
6.66179e-11
7.27064e-11
7.8899e-11
8.50978e-11
9.12084e-11
9.71431e-11
1.02823e-10
1.08179e-10
1.13154e-10
1.17702e-10
1.2179e-10
1.25396e-10
1.28508e-10
1.31124e-10
1.33253e-10
1.34907e-10
1.36107e-10
1.36878e-10
1.37248e-10
9.77613e-11
1.034e-10
1.11483e-10
1.21722e-10
1.33868e-10
1.47675e-10
1.62891e-10
1.79248e-10
1.96464e-10
2.14251e-10
2.32316e-10
2.50372e-10
2.68146e-10
2.85385e-10
3.0186e-10
3.17377e-10
3.31772e-10
3.44917e-10
3.56719e-10
3.67118e-10
3.76085e-10
3.83619e-10
3.89742e-10
3.94498e-10
3.97946e-10
4.0016e-10
4.01223e-10
2.8788e-10
3.04342e-10
3.27915e-10
3.57745e-10
3.93082e-10
4.3319e-10
4.77313e-10
5.24658e-10
5.74398e-10
6.25686e-10
6.77675e-10
7.29538e-10
7.80493e-10
8.29819e-10
8.76878e-10
9.21119e-10
9.62093e-10
9.99451e-10
1.03294e-09
1.06241e-09
1.08779e-09
1.10908e-09
1.12637e-09
1.13978e-09
1.1495e-09
1.15573e-09
1.15872e-09
8.40998e-10
8.88424e-10
9.56246e-10
1.04193e-09
1.14322e-09
1.25794e-09
1.38384e-09
1.5186e-09
1.6598e-09
1.805e-09
1.9518e-09
2.09786e-09
2.24099e-09
2.37919e-09
2.51073e-09
2.6341e-09
2.74811e-09
2.85184e-09
2.94466e-09
3.02618e-09
3.09627e-09
3.155e-09
3.2026e-09
3.2395e-09
3.26619e-09
3.2833e-09
3.2915e-09
2.43041e-09
2.56451e-09
2.75595e-09
2.99726e-09
3.2818e-09
3.6031e-09
3.9546e-09
4.32956e-09
4.72111e-09
5.12239e-09
5.52668e-09
5.92756e-09
6.3191e-09
6.69598e-09
7.05356e-09
7.38799e-09
7.69621e-09
7.97592e-09
8.2256e-09
8.44442e-09
8.63217e-09
8.78918e-09
8.91627e-09
9.0146e-09
9.08566e-09
9.13114e-09
9.15291e-09
6.9252e-09
7.29513e-09
7.82205e-09
8.4843e-09
9.26254e-09
1.0138e-08
1.10919e-08
1.21052e-08
1.31588e-08
1.4234e-08
1.53126e-08
1.63778e-08
1.7414e-08
1.84076e-08
1.93469e-08
2.02224e-08
2.10267e-08
2.17545e-08
2.24023e-08
2.29687e-08
2.34535e-08
2.38581e-08
2.4185e-08
2.44375e-08
2.46196e-08
2.47361e-08
2.47918e-08
1.93735e-08
2.0362e-08
2.17662e-08
2.35247e-08
2.55827e-08
2.78874e-08
3.03864e-08
3.30279e-08
3.57607e-08
3.85356e-08
4.13059e-08
4.40286e-08
4.66654e-08
4.91829e-08
5.15533e-08
5.37544e-08
5.57693e-08
5.75866e-08
5.91995e-08
6.06056e-08
6.18063e-08
6.28062e-08
6.36122e-08
6.42337e-08
6.46815e-08
6.49673e-08
6.51037e-08
5.29535e-08
5.54939e-08
5.90912e-08
6.35781e-08
6.88045e-08
7.46272e-08
8.09068e-08
8.75077e-08
9.42993e-08
1.01158e-07
1.07969e-07
1.1463e-07
1.2105e-07
1.27151e-07
1.32872e-07
1.38163e-07
1.4299e-07
1.47328e-07
1.51167e-07
1.54505e-07
1.57347e-07
1.59709e-07
1.6161e-07
1.63072e-07
1.64124e-07
1.64795e-07
1.65114e-07
1.40627e-07
1.46866e-07
1.5567e-07
1.66605e-07
1.79279e-07
1.93322e-07
2.08384e-07
2.24126e-07
2.40232e-07
2.56409e-07
2.72388e-07
2.87937e-07
3.02851e-07
3.16964e-07
3.30143e-07
3.42285e-07
3.53322e-07
3.63212e-07
3.71937e-07
3.79503e-07
3.85932e-07
3.91262e-07
3.95542e-07
3.98831e-07
4.01193e-07
4.02697e-07
4.03413e-07
3.60846e-07
3.75423e-07
3.95927e-07
4.21287e-07
4.5054e-07
4.82787e-07
5.17187e-07
5.52949e-07
5.89345e-07
6.25713e-07
6.61465e-07
6.96091e-07
7.29163e-07
7.60332e-07
7.89329e-07
8.15956e-07
8.40084e-07
8.61642e-07
8.80613e-07
8.97025e-07
9.10942e-07
9.22457e-07
9.3169e-07
9.38773e-07
9.43853e-07
9.47083e-07
9.4862e-07
8.90266e-07
9.22634e-07
9.68031e-07
1.02397e-06
1.08823e-06
1.15875e-06
1.23363e-06
1.31112e-06
1.38963e-06
1.46775e-06
1.54423e-06
1.61802e-06
1.68825e-06
1.75423e-06
1.81543e-06
1.87147e-06
1.92212e-06
1.96729e-06
2.00695e-06
2.0412e-06
2.0702e-06
2.09416e-06
2.11334e-06
2.12805e-06
2.13858e-06
2.14528e-06
2.14846e-06
2.1046e-06
2.17304e-06
2.2688e-06
2.38646e-06
2.52117e-06
2.6685e-06
2.82438e-06
2.98515e-06
3.14748e-06
3.30849e-06
3.46567e-06
3.61691e-06
3.7605e-06
3.89509e-06
4.01967e-06
4.13355e-06
4.23632e-06
4.32781e-06
4.40806e-06
4.47728e-06
4.53582e-06
4.58415e-06
4.62282e-06
4.65243e-06
4.67364e-06
4.68711e-06
4.69351e-06
4.75913e-06
4.89744e-06
5.09065e-06
5.32753e-06
5.59809e-06
5.89322e-06
6.20466e-06
6.52496e-06
6.84752e-06
7.16657e-06
7.47718e-06
7.77527e-06
8.05755e-06
8.32145e-06
8.56515e-06
8.7874e-06
8.98752e-06
9.1653e-06
9.32094e-06
9.45495e-06
9.56811e-06
9.66139e-06
9.73591e-06
9.79291e-06
9.83369e-06
9.85955e-06
9.87183e-06
1.02864e-05
1.05541e-05
1.09273e-05
1.1384e-05
1.19044e-05
1.24707e-05
1.30666e-05
1.36779e-05
1.42919e-05
1.48978e-05
1.54863e-05
1.60499e-05
1.65826e-05
1.70799e-05
1.75384e-05
1.7956e-05
1.83315e-05
1.86648e-05
1.89563e-05
1.9207e-05
1.94185e-05
1.95928e-05
1.97319e-05
1.98382e-05
1.99142e-05
1.99624e-05
1.99853e-05
2.11837e-05
2.16794e-05
2.23703e-05
2.32148e-05
2.41761e-05
2.5221e-05
2.63194e-05
2.74451e-05
2.85747e-05
2.96882e-05
3.0769e-05
3.18033e-05
3.27802e-05
3.36913e-05
3.45309e-05
3.5295e-05
3.59819e-05
3.65911e-05
3.71236e-05
3.75815e-05
3.79676e-05
3.82854e-05
3.85391e-05
3.87329e-05
3.88714e-05
3.89592e-05
3.90008e-05
4.14451e-05
4.23308e-05
4.35651e-05
4.50736e-05
4.67907e-05
4.86569e-05
5.06191e-05
5.26301e-05
5.46485e-05
5.6639e-05
5.85716e-05
6.04218e-05
6.21699e-05
6.38012e-05
6.5305e-05
6.66744e-05
6.79058e-05
6.89984e-05
6.99537e-05
7.07754e-05
7.14685e-05
7.20393e-05
7.24948e-05
7.2843e-05
7.30917e-05
7.32494e-05
7.33242e-05
7.67302e-05
7.82469e-05
8.03613e-05
8.29473e-05
8.58931e-05
8.90981e-05
9.24719e-05
9.59344e-05
9.94152e-05
0.000102853
0.000106198
0.000109405
0.000112442
0.000115282
0.000117905
0.000120299
0.000122456
0.000124373
0.000126053
0.000127501
0.000128724
0.000129733
0.00013054
0.000131158
0.000131599
0.00013188
0.000132013
0.000133567
0.000136009
0.000139415
0.000143583
0.000148335
0.000153511
0.000158966
0.000164572
0.000170217
0.000175803
0.000181247
0.00018648
0.000191445
0.000196099
0.000200408
0.000204349
0.000207909
0.000211081
0.000213867
0.000216273
0.00021831
0.000219994
0.000221342
0.000222376
0.000223117
0.000223588
0.000223812
0.000217274
0.00022087
0.000225885
0.000232017
0.000239005
0.000246609
0.000254618
0.000262844
0.000271121
0.000279306
0.000287278
0.000294937
0.0003022
0.000309004
0.000315302
0.00032106
0.00032626
0.000330893
0.00033496
0.000338473
0.000341447
0.000343905
0.000345873
0.000347383
0.000348465
0.000349153
0.00034948
0.000329293
0.000334033
0.000340628
0.000348673
0.000357813
0.000367727
0.000378131
0.000388775
0.000399444
0.000409952
0.000420145
0.0004299
0.000439115
0.000447715
0.000455646
0.000462873
0.000469376
0.000475152
0.000480208
0.000484562
0.000488238
0.00049127
0.000493694
0.000495549
0.000496876
0.000497718
0.000498118
0.000465299
0.000470843
0.000478535
0.000487885
0.000498459
0.000509872
0.000521785
0.000533907
0.000545986
0.000557815
0.000569224
0.000580077
0.000590273
0.000599736
0.000608416
0.000616286
0.000623334
0.000629566
0.000634997
0.000639656
0.000643576
0.000646797
0.000649365
0.000651324
0.000652723
0.000653608
0.000654028
0.000615839
0.000621651
0.000629691
0.000639425
0.000650382
0.00066215
0.000674366
0.000686724
0.000698967
0.000710887
0.000722316
0.000733128
0.000743228
0.000752553
0.000761063
0.000768742
0.000775589
0.000781617
0.000786851
0.000791324
0.000795076
0.00079815
0.000800593
0.000802453
0.000803778
0.000804615
0.000805011
0.000769592
0.000775163
0.000782849
0.000792124
0.000802526
0.000813649
0.000825144
0.000836719
0.000848132
0.000859193
0.00086975
0.000879692
0.000888941
0.000897447
0.000905181
0.000912134
0.000918315
0.00092374
0.000928439
0.000932446
0.000935799
0.000938542
0.000940718
0.000942372
0.000943549
0.000944292
0.000944644
0.000916966
0.000921965
0.000928851
0.000937141
0.000946413
0.0009563
0.000966486
0.000976712
0.000986764
0.000996476
0.00100572
0.0010144
0.00102246
0.00102985
0.00103656
0.00104258
0.00104792
0.0010526
0.00105665
0.0010601
0.00106298
0.00106534
0.00106721
0.00106863
0.00106964
0.00107028
0.00107058
0.00105191
0.00105621
0.00106212
0.00106923
0.00107717
0.00108562
0.00109432
0.00110303
0.00111159
0.00111984
0.00112769
0.00113505
0.00114187
0.00114813
0.0011538
0.00115888
0.0011634
0.00116735
0.00117077
0.00117368
0.00117612
0.00117811
0.00117969
0.00118089
0.00118175
0.00118229
0.00118254
0.00117179
0.00117539
0.00118035
0.00118631
0.00119296
0.00120004
0.00120731
0.00121461
0.00122176
0.00122866
0.00123522
0.00124138
0.00124708
0.00125231
0.00125706
0.00126132
0.00126509
0.0012684
0.00127127
0.00127371
0.00127576
0.00127743
0.00127876
0.00127977
0.00128049
0.00128094
0.00128116
0.00127635
0.00127934
0.00128346
0.0012884
0.00129392
0.0012998
0.00130585
0.00131191
0.00131785
0.0013236
0.00132906
0.00133418
0.00133894
0.0013433
0.00134726
0.00135082
0.00135398
0.00135675
0.00135915
0.0013612
0.00136291
0.00136432
0.00136543
0.00136628
0.00136689
0.00136727
0.00136745
0.00136665
0.00136913
0.00137254
0.00137664
0.00138122
0.0013861
0.00139112
0.00139615
0.0014011
0.00140589
0.00141044
0.00141472
0.00141869
0.00142234
0.00142565
0.00142863
0.00143128
0.00143361
0.00143562
0.00143735
0.00143879
0.00143997
0.00144092
0.00144163
0.00144214
0.00144247
0.00144262
0.00144426
0.00144632
0.00144916
0.00145257
0.00145638
0.00146045
0.00146464
0.00146885
0.00147298
0.00147698
0.00148079
0.00148438
0.00148771
0.00149078
0.00149357
0.00149607
0.00149831
0.00150027
0.00150197
0.00150343
0.00150465
0.00150565
0.00150645
0.00150705
0.00150749
0.00150776
0.00150789
0.00151087
0.00151259
0.00151497
0.00151782
0.00152102
0.00152442
0.00152794
0.00153147
0.00153495
0.00153831
0.00154152
0.00154455
0.00154736
0.00154995
0.0015523
0.00155443
0.00155632
0.00155798
0.00155942
0.00156066
0.0015617
0.00156255
0.00156322
0.00156374
0.00156411
0.00156435
0.00156446
0.00156804
0.00156949
0.00157149
0.00157389
0.00157658
0.00157946
0.00158243
0.00158541
0.00158835
0.0015912
0.00159392
0.00159648
0.00159886
0.00160106
0.00160306
0.00160486
0.00160647
0.00160789
0.00160912
0.00161017
0.00161105
0.00161178
0.00161236
0.0016128
0.00161311
0.00161332
0.00161341
0.00161715
0.00161838
0.00162007
0.0016221
0.00162438
0.00162682
0.00162934
0.00163187
0.00163437
0.00163679
0.0016391
0.00164128
0.00164331
0.00164519
0.00164689
0.00164843
0.0016498
0.00165101
0.00165206
0.00165296
0.00165372
0.00165434
0.00165484
0.00165521
0.00165548
0.00165566
0.00165574
0.00165937
0.00166041
0.00166185
0.00166358
0.00166552
0.0016676
0.00166974
0.0016719
0.00167403
0.00167609
0.00167807
0.00167993
0.00168167
0.00168327
0.00168473
0.00168604
0.00168722
0.00168825
0.00168915
0.00168992
0.00169057
0.0016911
0.00169153
0.00169185
0.00169208
0.00169223
0.0016923
0.00169568
0.00169657
0.00169779
0.00169927
0.00170093
0.0017027
0.00170453
0.00170638
0.0017082
0.00170996
0.00171165
0.00171325
0.00171473
0.0017161
0.00171735
0.00171848
0.00171949
0.00172037
0.00172115
0.00172181
0.00172236
0.00172282
0.00172318
0.00172346
0.00172366
0.00172379
0.00172385
0.00172691
0.00172767
0.00172871
0.00172998
0.00173139
0.00173291
0.00173448
0.00173605
0.00173761
0.00173912
0.00174057
0.00174193
0.0017432
0.00174438
0.00174545
0.00174642
0.00174728
0.00174804
0.0017487
0.00174927
0.00174974
0.00175014
0.00175045
0.00175069
0.00175086
0.00175097
0.00175102
0.00175373
0.00175438
0.00175528
0.00175636
0.00175757
0.00175886
0.0017602
0.00176155
0.00176288
0.00176418
0.00176541
0.00176658
0.00176767
0.00176867
0.00176959
0.00177042
0.00177116
0.00177181
0.00177237
0.00177286
0.00177327
0.0017736
0.00177387
0.00177408
0.00177422
0.00177432
0.00177436
0.00177673
0.00177729
0.00177805
0.00177897
0.00178
0.00178111
0.00178225
0.0017834
0.00178454
0.00178564
0.0017867
0.00178769
0.00178862
0.00178948
0.00179026
0.00179097
0.0017916
0.00179216
0.00179264
0.00179306
0.00179341
0.00179369
0.00179392
0.0017941
0.00179422
0.0017943
0.00179434
0.00179638
0.00179685
0.0017975
0.00179829
0.00179917
0.00180011
0.00180108
0.00180206
0.00180302
0.00180396
0.00180486
0.00180571
0.0018065
0.00180722
0.00180789
0.00180849
0.00180903
0.0018095
0.00180991
0.00181026
0.00181056
0.0018108
0.001811
0.00181115
0.00181126
0.00181132
0.00181136
0.00181309
0.00181349
0.00181404
0.0018147
0.00181545
0.00181624
0.00181706
0.00181789
0.00181871
0.0018195
0.00182026
0.00182097
0.00182164
0.00182226
0.00182282
0.00182333
0.00182378
0.00182418
0.00182453
0.00182483
0.00182508
0.00182528
0.00182545
0.00182557
0.00182566
0.00182572
0.00182575
0.00182721
0.00182754
0.001828
0.00182856
0.00182918
0.00182985
0.00183054
0.00183123
0.00183191
0.00183258
0.00183321
0.00183381
0.00183437
0.00183489
0.00183536
0.00183578
0.00183616
0.0018365
0.00183679
0.00183704
0.00183725
0.00183742
0.00183756
0.00183766
0.00183774
0.00183779
0.00183781
0.00183901
0.00183929
0.00183967
0.00184014
0.00184065
0.00184121
0.00184178
0.00184235
0.00184292
0.00184347
0.001844
0.00184449
0.00184495
0.00184538
0.00184577
0.00184612
0.00184644
0.00184671
0.00184695
0.00184716
0.00184733
0.00184748
0.00184759
0.00184768
0.00184774
0.00184778
0.0018478
0.00184877
0.001849
0.00184931
0.00184969
0.00185011
0.00185056
0.00185103
0.0018515
0.00185196
0.00185241
0.00185283
0.00185324
0.00185362
0.00185396
0.00185428
0.00185457
0.00185482
0.00185504
0.00185524
0.00185541
0.00185555
0.00185567
0.00185576
0.00185583
0.00185588
0.00185591
0.00185593
0.00185669
0.00185687
0.00185712
0.00185742
0.00185776
0.00185812
0.00185849
0.00185887
0.00185924
0.00185959
0.00185993
0.00186026
0.00186056
0.00186083
0.00186108
0.00186131
0.00186151
0.00186169
0.00186185
0.00186198
0.00186209
0.00186218
0.00186226
0.00186231
0.00186235
0.00186238
0.00186239
0.00186296
0.00186311
0.0018633
0.00186353
0.00186379
0.00186407
0.00186436
0.00186465
0.00186493
0.00186521
0.00186547
0.00186572
0.00186595
0.00186616
0.00186635
0.00186653
0.00186668
0.00186682
0.00186694
0.00186704
0.00186712
0.0018672
0.00186725
0.00186729
0.00186733
0.00186735
0.00186735
0.00186776
0.00186786
0.00186801
0.00186818
0.00186837
0.00186858
0.00186879
0.001869
0.00186921
0.00186941
0.0018696
0.00186978
0.00186995
0.0018701
0.00187024
0.00187037
0.00187048
0.00187058
0.00187066
0.00187074
0.0018708
0.00187085
0.00187089
0.00187092
0.00187094
0.00187096
0.00187097
0.00187121
0.00187129
0.00187138
0.0018715
0.00187163
0.00187177
0.00187191
0.00187205
0.00187219
0.00187233
0.00187245
0.00187257
0.00187268
0.00187279
0.00187288
0.00187296
0.00187303
0.0018731
0.00187315
0.0018732
0.00187324
0.00187328
0.0018733
0.00187332
0.00187334
0.00187335
0.00187335
0.00187346
0.0018735
0.00187356
0.00187363
0.0018737
0.00187378
0.00187386
0.00187394
0.00187401
0.00187409
0.00187416
0.00187422
0.00187428
0.00187433
0.00187438
0.00187443
0.00187446
0.0018745
0.00187453
0.00187455
0.00187457
0.00187459
0.00187461
0.00187462
0.00187462
0.00187463
0.00187463
0.00187462
0.00187463
0.00187465
0.00187467
0.00187469
0.00187472
0.00187474
0.00187476
0.00187478
0.0018748
0.00187481
0.00187483
0.00187484
0.00187485
0.00187486
0.00187487
0.00187488
0.00187488
0.00187489
0.00187489
0.00187489
0.0018749
0.0018749
0.0018749
0.0018749
0.0018749
0.0018749
0.00187477
0.00187476
0.00187475
0.00187473
0.0018747
0.00187468
0.00187465
0.00187462
0.00187459
0.00187455
0.00187452
0.00187449
0.00187446
0.00187443
0.00187441
0.00187438
0.00187436
0.00187434
0.00187432
0.00187431
0.00187429
0.00187428
0.00187427
0.00187427
0.00187426
0.00187426
0.00187426
0.00187403
0.001874
0.00187395
0.00187389
0.00187383
0.00187375
0.00187368
0.0018736
0.00187352
0.00187344
0.00187337
0.00187329
0.00187323
0.00187316
0.0018731
0.00187305
0.001873
0.00187296
0.00187292
0.00187289
0.00187286
0.00187284
0.00187282
0.0018728
0.00187279
0.00187279
0.00187278
0.00187246
0.00187241
0.00187233
0.00187224
0.00187214
0.00187202
0.0018719
0.00187178
0.00187166
0.00187154
0.00187143
0.00187132
0.00187121
0.00187111
0.00187103
0.00187094
0.00187087
0.00187081
0.00187075
0.0018707
0.00187066
0.00187063
0.0018706
0.00187058
0.00187057
0.00187056
0.00187055
0.00187015
0.00187007
0.00186997
0.00186985
0.00186971
0.00186956
0.0018694
0.00186924
0.00186908
0.00186892
0.00186877
0.00186863
0.00186849
0.00186836
0.00186825
0.00186814
0.00186804
0.00186796
0.00186789
0.00186782
0.00186777
0.00186773
0.00186769
0.00186767
0.00186765
0.00186764
0.00186763
0.00186715
0.00186706
0.00186694
0.00186678
0.00186661
0.00186643
0.00186623
0.00186604
0.00186584
0.00186565
0.00186546
0.00186529
0.00186512
0.00186497
0.00186483
0.0018647
0.00186458
0.00186448
0.00186439
0.00186432
0.00186425
0.0018642
0.00186416
0.00186412
0.0018641
0.00186409
0.00186408
0.00186354
0.00186343
0.00186328
0.00186311
0.0018629
0.00186269
0.00186246
0.00186223
0.001862
0.00186178
0.00186156
0.00186136
0.00186117
0.00186099
0.00186082
0.00186068
0.00186054
0.00186042
0.00186032
0.00186023
0.00186016
0.0018601
0.00186005
0.00186001
0.00185999
0.00185997
0.00185996
0.00185936
0.00185924
0.00185907
0.00185887
0.00185864
0.0018584
0.00185814
0.00185788
0.00185762
0.00185737
0.00185713
0.0018569
0.00185668
0.00185648
0.00185629
0.00185613
0.00185598
0.00185585
0.00185573
0.00185563
0.00185555
0.00185548
0.00185542
0.00185538
0.00185535
0.00185533
0.00185532
0.00185467
0.00185454
0.00185435
0.00185413
0.00185388
0.00185361
0.00185333
0.00185304
0.00185275
0.00185248
0.00185221
0.00185195
0.00185171
0.00185149
0.00185129
0.00185111
0.00185094
0.0018508
0.00185067
0.00185056
0.00185047
0.00185039
0.00185033
0.00185029
0.00185025
0.00185023
0.00185022
0.00184952
0.00184938
0.00184918
0.00184894
0.00184866
0.00184837
0.00184806
0.00184775
0.00184744
0.00184714
0.00184685
0.00184658
0.00184632
0.00184608
0.00184586
0.00184566
0.00184548
0.00184532
0.00184519
0.00184507
0.00184497
0.00184489
0.00184482
0.00184477
0.00184474
0.00184471
0.0018447
0.00184397
0.00184381
0.0018436
0.00184334
0.00184305
0.00184273
0.0018424
0.00184207
0.00184174
0.00184142
0.00184111
0.00184081
0.00184054
0.00184028
0.00184005
0.00183983
0.00183964
0.00183947
0.00183933
0.0018392
0.0018391
0.00183901
0.00183894
0.00183889
0.00183885
0.00183882
0.00183881
0.00183805
0.00183788
0.00183765
0.00183738
0.00183707
0.00183674
0.00183639
0.00183604
0.00183569
0.00183535
0.00183502
0.00183471
0.00183442
0.00183415
0.0018339
0.00183367
0.00183347
0.0018333
0.00183314
0.00183301
0.0018329
0.00183281
0.00183273
0.00183268
0.00183264
0.00183261
0.0018326
0.00183181
0.00183164
0.0018314
0.00183111
0.00183078
0.00183043
0.00183007
0.0018297
0.00182934
0.00182898
0.00182864
0.00182831
0.00182801
0.00182772
0.00182746
0.00182723
0.00182702
0.00182684
0.00182667
0.00182653
0.00182642
0.00182632
0.00182625
0.00182619
0.00182614
0.00182612
0.00182611
0.0018253
0.00182512
0.00182487
0.00182457
0.00182423
0.00182387
0.00182349
0.00182311
0.00182273
0.00182236
0.00182201
0.00182167
0.00182135
0.00182106
0.00182079
0.00182055
0.00182033
0.00182014
0.00181997
0.00181983
0.00181971
0.00181961
0.00181953
0.00181947
0.00181942
0.0018194
0.00181938
0.00181856
0.00181838
0.00181813
0.00181782
0.00181747
0.00181709
0.00181671
0.00181631
0.00181592
0.00181554
0.00181517
0.00181483
0.0018145
0.0018142
0.00181393
0.00181368
0.00181345
0.00181325
0.00181308
0.00181293
0.00181281
0.00181271
0.00181263
0.00181256
0.00181252
0.00181249
0.00181248
0.00181166
0.00181147
0.00181121
0.00181089
0.00181054
0.00181016
0.00180976
0.00180936
0.00180896
0.00180857
0.0018082
0.00180784
0.00180751
0.0018072
0.00180692
0.00180667
0.00180644
0.00180624
0.00180606
0.00180591
0.00180579
0.00180568
0.0018056
0.00180553
0.00180549
0.00180546
0.00180545
0.00180463
0.00180444
0.00180418
0.00180386
0.0018035
0.00180311
0.00180271
0.0018023
0.0018019
0.0018015
0.00180112
0.00180077
0.00180043
0.00180012
0.00179983
0.00179958
0.00179935
0.00179914
0.00179897
0.00179881
0.00179869
0.00179858
0.0017985
0.00179843
0.00179839
0.00179836
0.00179834
0.00179755
0.00179736
0.00179709
0.00179677
0.00179641
0.00179602
0.00179561
0.0017952
0.0017948
0.0017944
0.00179402
0.00179366
0.00179332
0.00179301
0.00179273
0.00179247
0.00179224
0.00179203
0.00179186
0.0017917
0.00179157
0.00179147
0.00179138
0.00179132
0.00179127
0.00179125
0.00179123
0.00179046
0.00179027
0.00179001
0.00178969
0.00178932
0.00178894
0.00178853
0.00178813
0.00178772
0.00178733
0.00178695
0.00178659
0.00178626
0.00178595
0.00178566
0.00178541
0.00178518
0.00178497
0.0017848
0.00178465
0.00178452
0.00178441
0.00178433
0.00178427
0.00178422
0.00178419
0.00178418
0.00178345
0.00178326
0.001783
0.00178268
0.00178232
0.00178194
0.00178154
0.00178114
0.00178074
0.00178035
0.00177998
0.00177963
0.0017793
0.00177899
0.00177871
0.00177846
0.00177824
0.00177804
0.00177786
0.00177772
0.00177759
0.00177749
0.00177741
0.00177734
0.0017773
0.00177727
0.00177726
0.00177657
0.00177639
0.00177613
0.00177582
0.00177547
0.0017751
0.00177471
0.00177432
0.00177393
0.00177356
0.00177319
0.00177285
0.00177253
0.00177223
0.00177196
0.00177172
0.0017715
0.0017713
0.00177113
0.00177099
0.00177087
0.00177077
0.00177069
0.00177063
0.00177058
0.00177056
0.00177054
0.00176992
0.00176974
0.0017695
0.0017692
0.00176886
0.0017685
0.00176813
0.00176775
0.00176738
0.00176701
0.00176667
0.00176634
0.00176603
0.00176574
0.00176548
0.00176525
0.00176504
0.00176485
0.00176469
0.00176455
0.00176443
0.00176434
0.00176426
0.00176421
0.00176416
0.00176414
0.00176412
0.00176357
0.0017634
0.00176317
0.00176288
0.00176256
0.00176222
0.00176187
0.00176151
0.00176116
0.00176081
0.00176048
0.00176017
0.00175988
0.00175961
0.00175936
0.00175914
0.00175894
0.00175877
0.00175862
0.00175849
0.00175838
0.00175829
0.00175821
0.00175816
0.00175812
0.0017581
0.00175808
0.00175761
0.00175745
0.00175723
0.00175696
0.00175667
0.00175635
0.00175602
0.00175569
0.00175536
0.00175504
0.00175473
0.00175444
0.00175417
0.00175392
0.00175369
0.00175348
0.0017533
0.00175314
0.001753
0.00175288
0.00175278
0.00175269
0.00175263
0.00175258
0.00175254
0.00175252
0.00175251
0.00175211
0.00175197
0.00175177
0.00175152
0.00175125
0.00175096
0.00175066
0.00175035
0.00175005
0.00174976
0.00174948
0.00174922
0.00174897
0.00174875
0.00174854
0.00174835
0.00174819
0.00174804
0.00174791
0.0017478
0.00174771
0.00174763
0.00174757
0.00174753
0.0017475
0.00174748
0.00174747
0.00174716
0.00174703
0.00174685
0.00174663
0.00174639
0.00174613
0.00174586
0.00174559
0.00174532
0.00174506
0.00174481
0.00174458
0.00174436
0.00174416
0.00174397
0.00174381
0.00174366
0.00174353
0.00174342
0.00174332
0.00174324
0.00174318
0.00174312
0.00174308
0.00174305
0.00174303
0.00174303
0.0017428
0.00174269
0.00174253
0.00174234
0.00174213
0.0017419
0.00174167
0.00174143
0.0017412
0.00174098
0.00174076
0.00174056
0.00174037
0.0017402
0.00174004
0.0017399
0.00173977
0.00173966
0.00173956
0.00173948
0.00173941
0.00173936
0.00173931
0.00173928
0.00173925
0.00173924
0.00173923
0.00173907
0.00173898
0.00173885
0.00173869
0.00173851
0.00173832
0.00173812
0.00173792
0.00173773
0.00173754
0.00173736
0.00173719
0.00173704
0.00173689
0.00173676
0.00173664
0.00173654
0.00173644
0.00173636
0.00173629
0.00173624
0.00173619
0.00173615
0.00173612
0.0017361
0.00173609
0.00173608
0.00173599
0.00173591
0.00173581
0.00173568
0.00173553
0.00173538
0.00173522
0.00173506
0.0017349
0.00173475
0.0017346
0.00173446
0.00173434
0.00173422
0.00173411
0.00173402
0.00173393
0.00173386
0.0017338
0.00173374
0.0017337
0.00173366
0.00173363
0.0017336
0.00173359
0.00173358
0.00173357
0.00173353
0.00173347
0.00173338
0.00173328
0.00173317
0.00173304
0.00173292
0.00173279
0.00173267
0.00173255
0.00173244
0.00173233
0.00173223
0.00173214
0.00173206
0.00173199
0.00173192
0.00173187
0.00173182
0.00173177
0.00173174
0.00173171
0.00173169
0.00173167
0.00173166
0.00173165
0.00173165
0.00173164
0.00173159
0.00173153
0.00173145
0.00173136
0.00173127
0.00173118
0.00173108
0.00173099
0.0017309
0.00173082
0.00173074
0.00173067
0.0017306
0.00173054
0.00173048
0.00173044
0.00173039
0.00173036
0.00173033
0.0017303
0.00173028
0.00173026
0.00173025
0.00173024
0.00173023
0.00173023
0.00173025
0.00173021
0.00173017
0.00173011
0.00173005
0.00172999
0.00172992
0.00172986
0.00172979
0.00172973
0.00172967
0.00172961
0.00172956
0.00172952
0.00172948
0.00172944
0.0017294
0.00172938
0.00172935
0.00172933
0.00172931
0.0017293
0.00172928
0.00172928
0.00172927
0.00172927
0.00172926
0.00172929
0.00172927
0.00172924
0.00172921
0.00172917
0.00172913
0.00172908
0.00172904
0.001729
0.00172897
0.00172893
0.0017289
0.00172887
0.00172884
0.00172882
0.0017288
0.00172878
0.00172876
0.00172875
0.00172874
0.00172873
0.00172872
0.00172871
0.00172871
0.00172871
0.0017287
0.0017287
0.00172871
0.0017287
0.00172868
0.00172866
0.00172864
0.00172862
0.0017286
0.00172857
0.00172855
0.00172853
0.00172851
0.0017285
0.00172848
0.00172847
0.00172845
0.00172844
0.00172843
0.00172842
0.00172842
0.00172841
0.0017284
0.0017284
0.0017284
0.00172839
0.00172839
0.00172839
0.00172839
0.00172838
0.00172838
0.00172837
0.00172836
0.00172835
0.00172834
0.00172832
0.00172831
0.0017283
0.00172829
0.00172828
0.00172827
0.00172826
0.00172825
0.00172825
0.00172824
0.00172823
0.00172823
0.00172823
0.00172822
0.00172822
0.00172822
0.00172822
0.00172821
0.00172821
0.00172821
0.00172821
0.0017282
0.0017282
0.00172819
0.00172819
0.00172818
0.00172817
0.00172817
0.00172816
0.00172815
0.00172815
0.00172814
0.00172814
0.00172813
0.00172813
0.00172812
0.00172812
0.00172812