/*--------------------------------*- C++ -*----------------------------------*\
| =========                 |                                                 |
| \\      /  F ield         | OpenFOAM: The Open Source CFD Toolbox           |
|  \\    /   O peration     | Version:  2106                                  |
|   \\  /    A nd           | Website:  www.openfoam.com                      |
|    \\/     M anipulation  |                                                 |
\*---------------------------------------------------------------------------*/
FoamFile
{
    version     2.0;
    format      ascii;
    arch        "LSB;label=32;scalar=64";
    class       surfaceScalarField;
    location    "79.99952";
    object      phi;
}
// * * * * * * * * * * * * * * * * * * * * * * * * * * * * * * * * * * * * * //

dimensions      [1 0 -1 0 0 0 0];

oriented        oriented;

internalField   nonuniform List<scalar> 
6572
(
-1.49019e-10
4.14337e-10
3.90113e-11
-3.19783e-10
6.4143e-10
-5.42033e-10
8.33234e-10
-8.07036e-10
9.93314e-10
-1.10618e-09
1.1245e-09
-1.43075e-09
1.2291e-09
-1.77179e-09
1.30905e-09
-2.12012e-09
1.36604e-09
-2.46639e-09
1.40163e-09
-2.80125e-09
1.41736e-09
-3.11542e-09
1.41466e-09
-3.39966e-09
1.39479e-09
-3.6454e-09
1.35951e-09
-3.84471e-09
1.31039e-09
-3.99025e-09
1.24892e-09
-4.07539e-09
1.17652e-09
-4.09426e-09
1.09466e-09
-4.04188e-09
1.00478e-09
-3.91417e-09
9.08338e-10
-3.70806e-09
8.06778e-10
-3.42145e-09
7.01483e-10
-3.05315e-09
5.93729e-10
-2.60285e-09
4.84678e-10
-2.07099e-09
3.75379e-10
-1.45874e-09
2.66764e-10
-7.67817e-10
1.59632e-10
5.41761e-11
-1.01055e-10
4.88281e-10
2.71102e-11
-2.1163e-10
7.52005e-10
-3.48448e-10
9.70052e-10
-5.01163e-10
1.14603e-09
-6.59869e-10
1.28321e-09
-8.15389e-10
1.38462e-09
-9.5953e-10
1.45319e-09
-1.0853e-09
1.49181e-09
-1.18705e-09
1.50339e-09
-1.26071e-09
1.49102e-09
-1.30486e-09
1.45881e-09
-1.31926e-09
1.40919e-09
-1.30436e-09
1.34461e-09
-1.26157e-09
1.2676e-09
-1.19324e-09
1.1806e-09
-1.10269e-09
1.08597e-09
-9.93954e-10
9.85918e-10
-8.71667e-10
8.82493e-10
-7.40867e-10
7.77538e-10
-6.06779e-10
6.7269e-10
-4.74668e-10
5.69371e-10
-3.49724e-10
4.68785e-10
-2.36971e-10
3.71925e-10
-1.41264e-10
2.79672e-10
-6.70804e-11
1.9258e-10
-1.84932e-11
1.11045e-10
3.56829e-11
-8.01344e-11
5.47234e-10
2.11821e-11
-1.66959e-10
8.3883e-10
-2.71302e-10
1.07439e-09
-3.83374e-10
1.2581e-09
-4.94468e-10
1.3943e-09
-5.97259e-10
1.48741e-09
-6.86218e-10
1.54215e-09
-7.57502e-10
1.56309e-09
-8.08878e-10
1.55476e-09
-8.39413e-10
1.52155e-09
-8.48306e-10
1.46771e-09
-8.36301e-10
1.39719e-09
-8.05036e-10
1.31335e-09
-7.56862e-10
1.21942e-09
-6.94736e-10
1.11847e-09
-6.2203e-10
1.01326e-09
-5.42328e-10
9.06217e-10
-4.59227e-10
7.99392e-10
-3.76175e-10
6.94485e-10
-2.96301e-10
5.92816e-10
-2.22337e-10
4.95408e-10
-1.56586e-10
4.03034e-10
-1.00909e-10
3.16248e-10
-5.66473e-11
2.3541e-10
-2.47851e-11
1.60718e-10
-5.97598e-12
9.22361e-11
2.97069e-11
-3.77204e-11
5.7453e-10
1.04238e-11
-7.68462e-11
8.77956e-10
-1.22569e-10
1.12012e-09
-1.69927e-10
1.30546e-09
-2.14655e-10
1.43903e-09
-2.53502e-10
1.52626e-09
-2.8409e-10
1.57274e-09
-3.05055e-10
1.58406e-09
-3.1589e-10
1.5656e-09
-3.16822e-10
1.52248e-09
-3.08689e-10
1.45957e-09
-2.9272e-10
1.38122e-09
-2.70625e-10
1.29125e-09
-2.4427e-10
1.19307e-09
-2.15417e-10
1.08962e-09
-1.85609e-10
9.83451e-10
-1.56117e-10
8.76724e-10
-1.27937e-10
7.71213e-10
-1.01803e-10
6.68351e-10
-7.82504e-11
5.69263e-10
-5.76446e-11
4.74802e-10
-4.01976e-11
3.85587e-10
-2.59857e-11
3.02036e-10
-1.49746e-11
2.24399e-10
-7.04299e-12
1.52787e-10
-2.0025e-12
8.71956e-11
2.77044e-11
-1.9113e-11
5.88665e-10
4.97796e-12
-3.92979e-11
8.98141e-10
-6.22685e-11
1.14309e-09
-8.52393e-11
1.32843e-09
-1.06134e-10
1.45992e-09
-1.236e-10
1.54372e-09
-1.368e-10
1.58594e-09
-1.45348e-10
1.59261e-09
-1.49266e-10
1.56952e-09
-1.48861e-10
1.52208e-09
-1.44544e-10
1.45526e-09
-1.36857e-10
1.37353e-09
-1.26462e-10
1.28086e-09
-1.14092e-10
1.1807e-09
-1.00481e-10
1.07601e-09
-8.63102e-11
9.6928e-10
-7.21769e-11
8.62591e-10
-5.85825e-11
7.57619e-10
-4.59299e-11
6.55699e-10
-3.4528e-11
5.57861e-10
-2.45995e-11
4.64874e-10
-1.62919e-11
3.77279e-10
-9.68804e-12
2.95432e-10
-4.81717e-12
2.19528e-10
-1.66545e-12
1.49635e-10
-1.85062e-13
8.57152e-11
2.75194e-11
-9.33375e-12
5.95285e-10
2.71412e-12
-1.83694e-11
9.07176e-10
-2.83277e-11
1.15305e-09
-3.78824e-11
1.33798e-09
-4.60455e-11
1.46809e-09
-5.22178e-11
1.5499e-09
-5.61362e-11
1.58986e-09
-5.77951e-11
1.59427e-09
-5.73805e-11
1.5691e-09
-5.52058e-11
1.5199e-09
-5.16508e-11
1.4517e-09
-4.71134e-11
1.36899e-09
-4.19746e-11
1.27572e-09
-3.65742e-11
1.1753e-09
-3.11957e-11
1.07063e-09
-2.60598e-11
9.64145e-10
-2.13238e-11
8.57855e-10
-1.70863e-11
7.53381e-10
-1.33957e-11
6.52008e-10
-1.02589e-11
5.54724e-10
-7.65099e-12
4.62266e-10
-5.52465e-12
3.75153e-10
-3.81763e-12
2.93725e-10
-2.45982e-12
2.18171e-10
-1.37859e-12
1.48554e-10
-5.03056e-13
8.48397e-11
2.70163e-11
-4.79589e-12
5.98912e-10
1.16843e-12
-1.01456e-11
9.12526e-10
-1.64112e-11
1.15931e-09
-2.28674e-11
1.34444e-09
-2.88738e-11
1.47409e-09
-3.38839e-11
1.55491e-09
-3.75956e-11
1.59357e-09
-3.98966e-11
1.59657e-09
-4.0814e-11
1.57002e-09
-4.04696e-11
1.51956e-09
-3.90413e-11
1.45027e-09
-3.67335e-11
1.36668e-09
-3.37572e-11
1.27274e-09
-3.0315e-11
1.17185e-09
-2.65933e-11
1.06691e-09
-2.27578e-11
9.60309e-10
-1.89515e-11
8.54049e-10
-1.52954e-11
7.49725e-10
-1.18895e-11
6.48602e-10
-8.81465e-12
5.51649e-10
-6.13456e-12
4.59586e-10
-3.89758e-12
3.72916e-10
-2.1384e-12
2.91966e-10
-8.79669e-13
2.16912e-10
-1.33325e-13
1.47807e-10
9.80246e-14
8.46083e-11
2.71144e-11
-1.83952e-12
6.00155e-10
5.97052e-13
-3.47571e-12
9.14163e-10
-5.26151e-12
1.1611e-09
-6.94962e-12
1.34613e-09
-8.33975e-12
1.47548e-09
-9.30009e-12
1.55587e-09
-9.77727e-12
1.59405e-09
-9.7856e-12
1.59658e-09
-9.38828e-12
1.56962e-09
-8.67714e-12
1.51885e-09
-7.75491e-12
1.44935e-09
-6.7216e-12
1.36565e-09
-5.66527e-12
1.27169e-09
-4.65661e-12
1.17085e-09
-3.74676e-12
1.066e-09
-2.96738e-12
9.5953e-10
-2.3323e-12
8.53414e-10
-1.84013e-12
7.49233e-10
-1.47731e-12
6.48239e-10
-1.22126e-12
5.51393e-10
-1.04341e-12
4.59408e-10
-9.1193e-13
3.72785e-10
-7.93985e-13
2.91848e-10
-6.57684e-13
2.16775e-10
-4.73521e-13
1.47623e-10
-2.1539e-13
8.43502e-11
2.6899e-11
-1.84371e-12
6.01573e-10
4.25869e-13
-3.93992e-12
9.16259e-10
-6.37196e-12
1.16353e-09
-8.85151e-12
1.34861e-09
-1.11507e-11
1.47778e-09
-1.31059e-11
1.55782e-09
-1.4616e-11
1.59556e-09
-1.56334e-11
1.59759e-09
-1.61532e-11
1.57014e-09
-1.62017e-11
1.5189e-09
-1.58261e-11
1.44898e-09
-1.50865e-11
1.36491e-09
-1.40494e-11
1.27065e-09
-1.27836e-11
1.16958e-09
-1.13567e-11
1.06457e-09
-9.83361e-12
9.58007e-10
-8.27507e-12
8.51855e-10
-6.73675e-12
7.47695e-10
-5.26881e-12
6.46771e-10
-3.91556e-12
5.5004e-10
-2.71528e-12
4.58207e-10
-1.7001e-12
3.71769e-10
-8.96033e-13
2.91044e-10
-3.23119e-13
2.16203e-10
4.4159e-15
1.47296e-10
7.7795e-14
8.42768e-11
2.69767e-11
-6.92997e-13
6.02021e-10
2.45088e-13
-1.25807e-12
9.16824e-10
-1.86415e-12
1.16414e-09
-2.42967e-12
1.34917e-09
-2.8902e-12
1.47824e-09
-3.20592e-12
1.55814e-09
-3.36171e-12
1.59571e-09
-3.36328e-12
1.59759e-09
-3.23145e-12
1.57001e-09
-2.99615e-12
1.51866e-09
-2.69111e-12
1.44867e-09
-2.34959e-12
1.36457e-09
-2.0013e-12
1.2703e-09
-1.6705e-12
1.16925e-09
-1.37492e-12
1.06427e-09
-1.12552e-12
9.57757e-10
-9.26869e-13
8.51657e-10
-7.77756e-13
7.47546e-10
-6.72186e-13
6.46666e-10
-6.00414e-13
5.49968e-10
-5.50075e-13
4.58157e-10
-5.0724e-13
3.71727e-10
-4.57376e-13
2.90994e-10
-3.86173e-13
2.16131e-10
-2.80248e-13
1.4719e-10
-1.27617e-13
8.41242e-11
2.68491e-11
-1.04349e-12
6.02826e-10
2.38466e-13
-2.24341e-12
9.18024e-10
-3.6507e-12
1.16554e-09
-5.10779e-12
1.35063e-09
-6.48857e-12
1.47962e-09
-7.69928e-12
1.55935e-09
-8.6769e-12
1.59669e-09
-9.38543e-12
1.5983e-09
-9.81132e-12
1.57044e-09
-9.95872e-12
1.51881e-09
-9.84511e-12
1.44856e-09
-9.4975e-12
1.36422e-09
-8.94934e-12
1.26975e-09
-8.23797e-12
1.16854e-09
-7.40275e-12
1.06344e-09
-6.48341e-12
9.56838e-10
-5.51889e-12
8.50692e-10
-4.54619e-12
7.46573e-10
-3.60075e-12
6.4572e-10
-2.71492e-12
5.49082e-10
-1.91746e-12
4.5736e-10
-1.23304e-12
3.71042e-10
-6.81914e-13
2.90443e-10
-2.79904e-13
2.15729e-10
-3.84312e-14
1.46948e-10
3.52229e-14
8.40505e-11
2.68844e-11
-6.67971e-13
6.03279e-10
2.14538e-13
-1.28161e-12
9.18638e-10
-1.98175e-12
1.16624e-09
-2.69122e-12
1.35134e-09
-3.34446e-12
1.48028e-09
-3.89297e-12
1.5599e-09
-4.30639e-12
1.5971e-09
-4.57113e-12
1.59857e-09
-4.68751e-12
1.57055e-09
-4.6664e-12
1.51879e-09
-4.52589e-12
1.44842e-09
-4.2882e-12
1.36398e-09
-3.97712e-12
1.26944e-09
-3.61603e-12
1.16818e-09
-3.22636e-12
1.06305e-09
-2.8267e-12
9.56438e-10
-2.43219e-12
8.50298e-10
-2.05488e-12
7.46196e-10
-1.70253e-12
6.45368e-10
-1.38083e-12
5.48761e-10
-1.09257e-12
4.57071e-10
-8.37964e-13
3.70788e-10
-6.15047e-13
2.9022e-10
-4.2019e-13
2.15534e-10
-2.48596e-13
1.46777e-10
-9.47548e-14
8.38967e-11
2.67896e-11
-1.69841e-12
6.04546e-10
4.31391e-13
-3.5578e-12
9.20497e-10
-5.74945e-12
1.16844e-09
-8.03967e-12
1.35363e-09
-1.02312e-11
1.48247e-09
-1.21696e-11
1.56184e-09
-1.37447e-11
1.59868e-09
-1.48885e-11
1.59971e-09
-1.55712e-11
1.57124e-09
-1.57948e-11
1.51901e-09
-1.55874e-11
1.44821e-09
-1.49963e-11
1.36339e-09
-1.40821e-11
1.26853e-09
-1.2913e-11
1.16701e-09
-1.15604e-11
1.0617e-09
-1.00946e-11
9.54972e-10
-8.58206e-12
8.48785e-10
-7.08288e-12
7.44697e-10
-5.64922e-12
6.43934e-10
-4.32337e-12
5.47435e-10
-3.13922e-12
4.55887e-10
-2.12304e-12
3.69771e-10
-1.29415e-12
2.89391e-10
-6.65662e-13
2.14906e-10
-2.45146e-13
1.46356e-10
-3.53403e-14
8.36869e-11
2.67543e-11
-1.86381e-12
6.05888e-10
5.21862e-13
-3.77732e-12
9.22411e-10
-6.00775e-12
1.17067e-09
-8.31288e-12
1.35594e-09
-1.04863e-11
1.48464e-09
-1.23684e-11
1.56372e-09
-1.38498e-11
1.60016e-09
-1.4869e-11
1.60073e-09
-1.54071e-11
1.57177e-09
-1.54802e-11
1.51908e-09
-1.51311e-11
1.44786e-09
-1.44208e-11
1.36268e-09
-1.34217e-11
1.26753e-09
-1.221e-11
1.1658e-09
-1.08599e-11
1.06035e-09
-9.43975e-12
9.53552e-10
-8.01017e-12
8.47355e-10
-6.62257e-12
7.43309e-10
-5.31773e-12
6.42629e-10
-4.12669e-12
5.46244e-10
-3.07149e-12
4.54832e-10
-2.16625e-12
3.68866e-10
-1.41835e-12
2.88643e-10
-8.29576e-13
2.14317e-10
-3.97223e-13
1.45924e-10
-1.15117e-13
8.34048e-11
2.66391e-11
-2.95991e-12
6.08067e-10
7.81423e-13
-6.13298e-12
9.25584e-10
-9.87873e-12
1.17441e-09
-1.38087e-11
1.35987e-09
-1.7592e-11
1.48843e-09
-2.09676e-11
1.56709e-09
-2.37476e-11
1.60294e-09
-2.58144e-11
1.6028e-09
-2.7113e-11
1.57307e-09
-2.76413e-11
1.51961e-09
-2.7439e-11
1.44766e-09
-2.65774e-11
1.36182e-09
-2.51495e-11
1.2661e-09
-2.32615e-11
1.16391e-09
-2.10265e-11
1.05811e-09
-1.85584e-11
9.51084e-10
-1.59668e-11
8.44764e-10
-1.33533e-11
7.40695e-10
-1.081e-11
6.40086e-10
-8.41787e-12
5.43851e-10
-6.24487e-12
4.52659e-10
-4.34586e-12
3.66967e-10
-2.76267e-12
2.8706e-10
-1.52486e-12
2.13079e-10
-6.50774e-13
1.4505e-10
-1.48796e-13
8.29028e-11
2.64903e-11
-3.72372e-12
6.10775e-10
1.01513e-12
-7.62426e-12
9.29485e-10
-1.21985e-11
1.17899e-09
-1.69613e-11
1.36463e-09
-2.14994e-11
1.49296e-09
-2.54907e-11
1.57108e-09
-2.87097e-11
1.60616e-09
-3.10225e-11
1.60511e-09
-3.23766e-11
1.57443e-09
-3.27869e-11
1.52002e-09
-3.23206e-11
1.44719e-09
-3.10822e-11
1.36058e-09
-2.91999e-11
1.26422e-09
-2.68142e-11
1.16152e-09
-2.40693e-11
1.05537e-09
-2.11052e-11
9.4812e-10
-1.80517e-11
8.4171e-10
-1.50245e-11
7.37668e-10
-1.21231e-11
6.37185e-10
-9.42956e-12
5.41158e-10
-7.00889e-12
4.50238e-10
-4.9097e-12
3.64868e-10
-3.16559e-12
2.85316e-10
-1.79687e-12
2.11711e-10
-8.1239e-13
1.44065e-10
-2.11355e-13
8.23017e-11
2.6279e-11
-4.73871e-12
6.14246e-10
1.26741e-12
-9.74523e-12
9.34491e-10
-1.55891e-11
1.18483e-09
-2.16296e-11
1.37067e-09
-2.73307e-11
1.49866e-09
-3.22831e-11
1.57604e-09
-3.6209e-11
1.61008e-09
-3.89529e-11
1.60785e-09
-4.04662e-11
1.57594e-09
-4.07857e-11
1.52034e-09
-4.00136e-11
1.44642e-09
-3.8296e-11
1.35887e-09
-3.58058e-11
1.26173e-09
-3.27273e-11
1.15844e-09
-2.92428e-11
1.05188e-09
-2.55248e-11
9.44402e-10
-2.17303e-11
8.37916e-10
-1.79969e-11
7.33935e-10
-1.44416e-11
6.33629e-10
-1.11602e-11
5.37877e-10
-8.22801e-12
4.47306e-10
-5.7011e-12
3.62341e-10
-3.61833e-12
2.83233e-10
-2.00317e-12
2.10096e-10
-8.65851e-13
1.42928e-10
-2.05417e-13
8.16413e-11
2.60736e-11
-5.50233e-12
6.18254e-10
1.49453e-12
-1.124e-11
9.40229e-10
-1.78969e-11
1.19149e-09
-2.47283e-11
1.3775e-09
-3.11172e-11
1.50505e-09
-3.66018e-11
1.58152e-09
-4.08787e-11
1.61436e-09
-4.37899e-11
1.61077e-09
-4.53005e-11
1.57745e-09
-4.54723e-11
1.52051e-09
-4.44374e-11
1.44538e-09
-4.23731e-11
1.3568e-09
-3.94817e-11
1.25884e-09
-3.59729e-11
1.15494e-09
-3.20514e-11
1.04796e-09
-2.79077e-11
9.40258e-10
-2.3712e-11
8.3372e-10
-1.96113e-11
7.29834e-10
-1.57281e-11
6.29746e-10
-1.21605e-11
5.34309e-10
-8.98366e-12
4.44129e-10
-6.25161e-12
3.59609e-10
-3.99984e-12
2.80982e-10
-2.24764e-12
2.08343e-10
-1.00064e-12
1.41681e-10
-2.53213e-13
8.08939e-11
2.58204e-11
-6.12969e-12
6.22734e-10
1.64996e-12
-1.25333e-11
9.46633e-10
-1.99194e-11
1.19887e-09
-2.74372e-11
1.38502e-09
-3.43945e-11
1.51201e-09
-4.02865e-11
1.58741e-09
-4.47943e-11
1.61887e-09
-4.77664e-11
1.61374e-09
-4.91888e-11
1.57887e-09
-4.91522e-11
1.52048e-09
-4.78203e-11
1.44405e-09
-4.54012e-11
1.35438e-09
-4.21245e-11
1.25556e-09
-3.82228e-11
1.15103e-09
-3.39186e-11
1.04366e-09
-2.94153e-11
9.35755e-10
-2.48925e-11
8.29197e-10
-2.05026e-11
7.25444e-10
-1.63708e-11
6.25614e-10
-1.2596e-11
5.30534e-10
-9.25282e-12
4.40786e-10
-6.39376e-12
3.5675e-10
-4.05215e-12
2.7864e-10
-2.24489e-12
2.06536e-10
-9.75157e-13
1.40411e-10
-2.34933e-13
8.01537e-11
2.55854e-11
-6.20673e-12
6.27253e-10
1.68732e-12
-1.26225e-11
9.53048e-10
-1.99696e-11
1.20622e-09
-2.73809e-11
1.39243e-09
-3.41623e-11
1.51879e-09
-3.98208e-11
1.59307e-09
-4.40601e-11
1.62311e-09
-4.67554e-11
1.61643e-09
-4.79193e-11
1.58004e-09
-4.76651e-11
1.52022e-09
-4.61726e-11
1.44256e-09
-4.36593e-11
1.35187e-09
-4.03573e-11
1.25226e-09
-3.64957e-11
1.14717e-09
-3.22893e-11
1.03945e-09
-2.79307e-11
9.31397e-10
-2.35869e-11
8.24853e-10
-1.9397e-11
7.21254e-10
-1.54738e-11
6.21691e-10
-1.19041e-11
5.26965e-10
-8.75222e-12
4.37634e-10
-6.06192e-12
3.5406e-10
-3.85956e-12
2.76438e-10
-2.15677e-12
2.04833e-10
-9.53103e-13
1.39207e-10
-2.3834e-13
7.94389e-11
2.53471e-11
-5.83359e-12
6.3151e-10
1.5771e-12
-1.1861e-11
9.59076e-10
-1.87214e-11
1.21308e-09
-2.55852e-11
1.39929e-09
-3.18012e-11
1.52501e-09
-3.69201e-11
1.59819e-09
-4.06846e-11
1.62687e-09
-4.30008e-11
1.61875e-09
-4.39015e-11
1.58094e-09
-4.35094e-11
1.51983e-09
-4.20034e-11
1.44105e-09
-3.95919e-11
1.34946e-09
-3.64913e-11
1.24916e-09
-3.29119e-11
1.14359e-09
-2.90472e-11
1.03558e-09
-2.50691e-11
9.27419e-10
-2.11247e-11
8.20909e-10
-1.73356e-11
7.17465e-10
-1.37993e-11
6.18155e-10
-1.05907e-11
5.23756e-10
-7.7648e-12
4.34808e-10
-5.35865e-12
3.51653e-10
-3.39443e-12
2.74473e-10
-1.88169e-12
2.03321e-10
-8.19602e-13
1.38145e-10
-1.99038e-13
7.88183e-11
2.5148e-11
-4.88024e-12
6.35061e-10
1.32947e-12
-9.88098e-12
9.64076e-10
-1.5542e-11
1.21874e-09
-2.1169e-11
1.40492e-09
-2.62255e-11
1.53006e-09
-3.03501e-11
1.60232e-09
-3.33445e-11
1.62987e-09
-3.51465e-11
1.62055e-09
-3.57961e-11
1.58159e-09
-3.54036e-11
1.51944e-09
-3.41214e-11
1.43977e-09
-3.21221e-11
1.34746e-09
-2.95818e-11
1.24662e-09
-2.6669e-11
1.14068e-09
-2.35376e-11
1.03245e-09
-2.03229e-11
9.24204e-10
-1.71402e-11
8.17726e-10
-1.40846e-11
7.1441e-10
-1.12323e-11
6.15302e-10
-8.64184e-12
5.21166e-10
-6.35643e-12
4.32523e-10
-4.40564e-12
3.49703e-10
-2.80747e-12
2.72875e-10
-1.5703e-12
2.02083e-10
-6.94475e-13
1.37269e-10
-1.7386e-13
7.82977e-11
2.49742e-11
-3.61723e-12
6.37699e-10
9.79225e-13
-7.33333e-12
9.67793e-10
-1.15322e-11
1.22294e-09
-1.56967e-11
1.40908e-09
-1.94321e-11
1.5338e-09
-2.24763e-11
1.60536e-09
-2.46887e-11
1.63208e-09
-2.60278e-11
1.62189e-09
-2.65254e-11
1.58208e-09
-2.62625e-11
1.51917e-09
-2.53494e-11
1.43886e-09
-2.39095e-11
1.34602e-09
-2.20686e-11
1.24478e-09
-1.99469e-11
1.13856e-09
-1.76548e-11
1.03016e-09
-1.52897e-11
9.21839e-10
-1.29358e-11
8.15372e-10
-1.06636e-11
7.12138e-10
-8.53063e-12
6.13169e-10
-6.58247e-12
5.19217e-10
-4.85403e-12
4.30794e-10
-3.37065e-12
3.48219e-10
-2.14947e-12
2.71654e-10
-1.2005e-12
2.01134e-10
-5.27725e-13
1.36597e-10
-1.30107e-13
7.79001e-11
2.48441e-11
-2.14122e-12
6.39256e-10
5.83608e-13
-4.33427e-12
9.69986e-10
-6.81888e-12
1.22542e-09
-9.29591e-12
1.41156e-09
-1.1537e-11
1.53604e-09
-1.33897e-11
1.60721e-09
-1.47706e-11
1.63346e-09
-1.56516e-11
1.62277e-09
-1.60457e-11
1.58248e-09
-1.59934e-11
1.51912e-09
-1.55518e-11
1.43842e-09
-1.47863e-11
1.34525e-09
-1.3765e-11
1.24376e-09
-1.25543e-11
1.13735e-09
-1.12166e-11
1.02882e-09
-9.80906e-12
9.20431e-10
-8.38255e-12
8.13946e-10
-6.98161e-12
7.10737e-10
-5.64442e-12
6.11832e-10
-4.40311e-12
5.17976e-10
-3.28402e-12
4.29675e-10
-2.30821e-12
3.47244e-10
-1.49184e-12
2.70838e-10
-8.46651e-13
2.00489e-10
-3.8041e-13
1.3613e-10
-9.73484e-14
7.7617e-11
2.47467e-11
-6.82701e-13
6.39757e-10
1.81806e-13
-1.40211e-12
9.70705e-10
-2.23705e-12
1.22626e-09
-3.09857e-12
1.41242e-09
-3.91717e-12
1.53686e-09
-4.64324e-12
1.60794e-09
-5.24455e-12
1.63406e-09
-5.70278e-12
1.62323e-09
-6.01016e-12
1.58279e-09
-6.16676e-12
1.51928e-09
-6.17845e-12
1.43843e-09
-6.05552e-12
1.34513e-09
-5.81158e-12
1.24351e-09
-5.46289e-12
1.137e-09
-5.02763e-12
1.02839e-09
-4.52535e-12
9.19929e-10
-3.97638e-12
8.13397e-10
-3.40134e-12
7.10162e-10
-2.82053e-12
6.11251e-10
-2.25353e-12
5.17409e-10
-1.71876e-12
4.29141e-10
-1.23314e-12
3.46758e-10
-8.11815e-13
2.70416e-10
-4.67949e-13
2.00145e-10
-2.12635e-13
1.35875e-10
-5.48165e-14
7.74592e-11
2.46919e-11
7.17779e-13
6.39235e-10
-1.95519e-13
1.43842e-12
9.69984e-10
2.2245e-12
1.22547e-09
2.9613e-12
1.41169e-09
3.56402e-12
1.53626e-09
3.98113e-12
1.60752e-09
4.19216e-12
1.63385e-09
4.20206e-12
1.62322e-09
4.03427e-12
1.58295e-09
3.72372e-12
1.51959e-09
3.3107e-12
1.43884e-09
2.83595e-12
1.3456e-09
2.33709e-12
1.24401e-09
1.84631e-12
1.13749e-09
1.38913e-12
1.02885e-09
9.83963e-13
9.20334e-10
6.4236e-13
8.13738e-10
3.69623e-13
7.10434e-10
1.65693e-13
6.11455e-10
2.61418e-14
5.17549e-10
-5.68066e-14
4.29223e-10
-9.33005e-14
3.46794e-10
-9.49819e-14
2.70418e-10
-7.42202e-14
2.00125e-10
-4.34691e-14
1.35844e-10
-1.47498e-14
7.74305e-11
2.46772e-11
1.98687e-12
6.3779e-10
-5.42309e-13
4.00851e-12
9.67963e-10
6.27399e-12
1.22321e-09
8.49137e-12
1.40947e-09
1.04376e-11
1.53431e-09
1.19661e-11
1.60599e-09
1.30022e-11
1.63281e-09
1.35306e-11
1.62269e-09
1.35807e-11
1.5829e-09
1.32118e-11
1.51996e-09
1.25003e-11
1.43955e-09
1.15295e-11
1.34658e-09
1.03815e-11
1.24516e-09
9.13214e-12
1.13874e-09
7.84793e-12
1.03013e-09
6.58405e-12
9.21598e-10
5.38413e-12
8.14938e-10
4.28057e-12
7.11538e-10
3.29552e-12
6.1244e-10
2.44212e-12
5.18402e-10
1.7259e-12
4.2994e-10
1.1462e-12
3.47374e-10
6.97524e-13
2.70867e-10
3.70789e-13
2.00451e-10
1.54406e-13
1.36061e-10
3.52331e-14
7.75497e-11
2.47124e-11
3.13899e-12
6.35503e-10
-8.51723e-13
6.36572e-12
9.64736e-10
1.00213e-11
1.21955e-09
1.36556e-11
1.40583e-09
1.69179e-11
1.53105e-09
1.95699e-11
1.60334e-09
2.14785e-11
1.63091e-09
2.26002e-11
1.62157e-09
2.29601e-11
1.58254e-09
2.26318e-11
1.52029e-09
2.17184e-11
1.44047e-09
2.0338e-11
1.34796e-09
1.86121e-11
1.24688e-09
1.66571e-11
1.14069e-09
1.4579e-11
1.03221e-09
1.24703e-11
9.23707e-10
1.04084e-11
8.17e-10
8.45562e-12
7.13491e-10
6.65954e-12
6.14237e-10
5.05454e-12
5.20007e-10
3.66322e-12
4.31331e-10
2.49808e-12
3.48539e-10
1.56321e-12
2.71802e-10
8.55907e-13
2.01159e-10
3.68153e-13
1.36549e-10
8.79504e-14
7.78299e-11
2.48003e-11
4.1345e-12
6.3249e-10
-1.12121e-12
8.40684e-12
9.60464e-10
1.32866e-11
1.21467e-09
1.81933e-11
1.40093e-09
2.26671e-11
1.52657e-09
2.63854e-11
1.59962e-09
2.91572e-11
1.62813e-09
3.09051e-11
1.61982e-09
3.16412e-11
1.58181e-09
3.14427e-11
1.52049e-09
3.04296e-11
1.44148e-09
2.87459e-11
1.34964e-09
2.65449e-11
1.24909e-09
2.39778e-11
1.14326e-09
2.11868e-11
1.035e-09
1.83005e-11
9.26593e-10
1.54281e-11
8.19873e-10
1.26622e-11
7.16257e-10
1.00773e-11
6.16821e-10
7.73089e-12
5.22354e-10
5.66491e-12
4.33397e-10
3.90748e-12
3.50297e-10
2.47481e-12
2.73234e-10
1.37302e-12
2.0226e-10
5.99965e-13
1.37322e-10
1.4684e-13
7.8283e-11
2.49472e-11
4.93808e-12
6.28887e-10
-1.33568e-12
1.00701e-11
9.55331e-10
1.59708e-11
1.20877e-09
2.19574e-11
1.39494e-09
2.7481e-11
1.52105e-09
3.21473e-11
1.59496e-09
3.57122e-11
1.62457e-09
3.80633e-11
1.61747e-09
3.91973e-11
1.58067e-09
3.9185e-11
1.5205e-09
3.81547e-11
1.44251e-09
3.62678e-11
1.35153e-09
3.37016e-11
1.25165e-09
3.06356e-11
1.14633e-09
2.72421e-11
1.03839e-09
2.36798e-11
9.30155e-10
2.00893e-11
8.23463e-10
1.65916e-11
7.19754e-10
1.32872e-11
6.20126e-10
1.02567e-11
5.25384e-10
7.56194e-12
4.36092e-10
5.24771e-12
3.52611e-10
3.34361e-12
2.75138e-10
1.86606e-12
2.03738e-10
8.20286e-13
1.38367e-10
2.02246e-13
7.8901e-11
2.51494e-11
5.47097e-12
6.24895e-10
-1.47873e-12
1.11778e-11
9.49625e-10
1.77739e-11
1.20218e-09
2.45133e-11
1.3882e-09
3.0789e-11
1.51478e-09
3.61564e-11
1.58959e-09
4.03307e-11
1.62039e-09
4.31698e-11
1.61463e-09
4.46487e-11
1.57919e-09
4.48321e-11
1.52031e-09
4.38487e-11
1.44349e-09
4.18678e-11
1.35351e-09
3.90804e-11
1.25444e-09
3.56844e-11
1.14972e-09
3.18732e-11
1.0422e-09
2.78267e-11
9.34202e-10
2.37099e-11
8.2758e-10
1.96659e-11
7.23798e-10
1.58161e-11
6.23976e-10
1.22602e-11
5.2894e-10
9.07689e-12
4.39275e-10
6.32541e-12
3.55362e-10
4.04741e-12
2.77416e-10
2.26893e-12
2.05516e-10
1.00244e-12
1.39634e-10
2.48949e-13
7.96545e-11
2.53984e-11
5.67392e-12
6.20753e-10
-1.53153e-12
1.16117e-11
9.43687e-10
1.85008e-11
1.19529e-09
2.55749e-11
1.38113e-09
3.22048e-11
1.50815e-09
3.79231e-11
1.58387e-09
4.24235e-11
1.61589e-09
4.55452e-11
1.61151e-09
4.72455e-11
1.57749e-09
4.7582e-11
1.51998e-09
4.6678e-11
1.4444e-09
4.47022e-11
1.35548e-09
4.18491e-11
1.25729e-09
3.83233e-11
1.15325e-09
3.43276e-11
1.0462e-09
3.00541e-11
9.38475e-10
2.56783e-11
8.31956e-10
2.13559e-11
7.28121e-10
1.72203e-11
6.28111e-10
1.33828e-11
5.32777e-10
9.93261e-12
4.42725e-10
6.93844e-12
3.58357e-10
4.45008e-12
2.79905e-10
2.50034e-12
2.07466e-10
1.10716e-12
1.41027e-10
2.75687e-13
8.0486e-11
2.56741e-11
5.50852e-12
6.16731e-10
-1.4865e-12
1.12826e-11
9.37913e-10
1.79978e-11
1.18857e-09
2.49146e-11
1.37421e-09
3.14224e-11
1.50164e-09
3.70636e-11
1.57823e-09
4.15339e-11
1.61142e-09
4.46689e-11
1.60838e-09
4.64215e-11
1.57574e-09
4.68373e-11
1.51956e-09
4.60302e-11
1.4452e-09
4.416e-11
1.35735e-09
4.14136e-11
1.26004e-09
3.79892e-11
1.15667e-09
3.40852e-11
1.0501e-09
2.98906e-11
9.4267e-10
2.55795e-11
8.36267e-10
2.1307e-11
7.32393e-10
1.72073e-11
6.32211e-10
1.33929e-11
5.36592e-10
9.95494e-12
4.46163e-10
6.96444e-12
3.61347e-10
4.47356e-12
2.82396e-10
2.5176e-12
2.09422e-10
1.1169e-12
1.42428e-10
2.78883e-13
8.1324e-11
2.5953e-11
5.01233e-12
6.1307e-10
-1.35191e-12
1.02718e-11
9.32653e-10
1.63954e-11
1.18245e-09
2.27118e-11
1.36789e-09
2.86651e-11
1.49568e-09
3.38368e-11
1.57306e-09
3.7947e-11
1.60731e-09
4.08422e-11
1.60548e-09
4.24763e-11
1.57411e-09
4.28878e-11
1.51915e-09
4.21781e-11
1.44591e-09
4.04915e-11
1.35904e-09
3.79974e-11
1.26253e-09
3.48767e-11
1.15979e-09
3.13106e-11
1.05367e-09
2.74726e-11
9.46508e-10
2.35226e-11
8.40217e-10
1.96035e-11
7.36312e-10
1.58391e-11
6.35975e-10
1.23336e-11
5.40097e-10
9.17157e-12
4.49325e-10
6.41904e-12
3.641e-10
4.12482e-12
2.8469e-10
2.32216e-12
2.11225e-10
1.03052e-12
1.43719e-10
2.57416e-13
8.20971e-11
2.62104e-11
4.27898e-12
6.09946e-10
-1.15439e-12
8.76856e-12
9.28164e-10
1.39961e-11
1.17722e-09
1.93883e-11
1.3625e-09
2.44703e-11
1.4906e-09
2.88841e-11
1.56864e-09
3.23903e-11
1.60381e-09
3.48576e-11
1.60301e-09
3.62466e-11
1.57272e-09
3.65907e-11
1.51881e-09
3.5977e-11
1.44653e-09
3.45293e-11
1.36049e-09
3.23931e-11
1.26467e-09
2.97235e-11
1.16246e-09
2.66756e-11
1.05672e-09
2.33978e-11
9.49786e-10
2.00268e-11
8.43588e-10
1.66844e-11
7.39655e-10
1.3476e-11
6.39184e-10
1.049e-11
5.43083e-10
7.79826e-12
4.52017e-10
5.45636e-12
3.66441e-10
3.50541e-12
2.86641e-10
1.97316e-12
2.12757e-10
8.75663e-13
1.44817e-10
2.18833e-13
8.2754e-11
2.64292e-11
3.44249e-12
6.07432e-10
-9.28747e-13
7.0527e-12
9.24553e-10
1.1253e-11
1.17302e-09
1.55809e-11
1.35817e-09
1.96533e-11
1.48653e-09
2.31826e-11
1.56511e-09
2.59772e-11
1.60101e-09
2.79331e-11
1.60106e-09
2.90206e-11
1.57163e-09
2.92688e-11
1.51856e-09
2.87499e-11
1.44705e-09
2.75652e-11
1.36167e-09
2.58331e-11
1.2664e-09
2.36792e-11
1.16462e-09
2.12286e-11
1.05917e-09
1.86003e-11
9.52414e-10
1.59035e-11
8.46285e-10
1.32352e-11
7.42323e-10
1.06789e-11
6.4174e-10
8.30417e-12
5.45458e-10
6.16699e-12
4.54154e-10
4.31064e-12
3.68298e-10
2.76657e-12
2.88185e-10
1.5557e-12
2.13968e-10
6.89665e-13
1.45683e-10
1.72142e-13
8.32715e-11
2.66014e-11
2.62489e-12
6.05516e-10
-7.08561e-13
5.37449e-12
9.21804e-10
8.56926e-12
1.16983e-09
1.18549e-11
1.35489e-09
1.49391e-11
1.48345e-09
1.76029e-11
1.56245e-09
1.97018e-11
1.59891e-09
2.11587e-11
1.5996e-09
2.19536e-11
1.57084e-09
2.21109e-11
1.5184e-09
2.16883e-11
1.44747e-09
2.07646e-11
1.3626e-09
1.94314e-11
1.26773e-09
1.77852e-11
1.16626e-09
1.59211e-11
1.06103e-09
1.39296e-11
9.54406e-10
1.18929e-11
8.48321e-10
9.88355e-12
7.44332e-10
7.96356e-12
6.4366e-10
6.18429e-12
5.47237e-10
4.5867e-12
4.55752e-10
3.20202e-12
3.69683e-10
2.05261e-12
2.89334e-10
1.15295e-12
2.14868e-10
5.10622e-13
1.46325e-10
1.27357e-13
8.36548e-11
2.67287e-11
1.91381e-12
6.04119e-10
-5.16762e-13
3.91631e-12
9.19801e-10
6.23941e-12
1.1675e-09
8.62349e-12
1.3525e-09
1.0855e-11
1.48121e-09
1.27749e-11
1.56053e-09
1.42792e-11
1.59741e-09
1.53136e-11
1.59857e-09
1.58656e-11
1.57028e-09
1.59551e-11
1.51831e-09
1.56259e-11
1.4478e-09
1.4937e-11
1.36328e-09
1.39559e-11
1.26872e-09
1.27533e-11
1.16747e-09
1.13987e-11
1.06239e-09
9.95736e-12
9.55847e-10
8.48836e-12
8.4979e-10
7.04352e-12
7.45777e-10
5.66679e-12
6.45037e-10
4.39425e-12
5.4851e-10
3.25442e-12
4.56892e-10
2.26874e-12
3.70668e-10
1.45232e-12
2.90151e-10
8.14619e-13
2.15505e-10
3.60247e-13
1.4678e-10
8.96937e-14
8.39253e-11
2.68184e-11
1.34589e-12
6.03136e-10
-3.63622e-13
2.75237e-12
9.18394e-10
4.38155e-12
1.16587e-09
6.05007e-12
1.35084e-09
7.60757e-12
1.47966e-09
8.94272e-12
1.5592e-09
9.98334e-12
1.59637e-09
1.06925e-11
1.59786e-09
1.10629e-11
1.56991e-09
1.11099e-11
1.51826e-09
1.08653e-11
1.44804e-09
1.03714e-11
1.36378e-09
9.67646e-12
1.26941e-09
8.83015e-12
1.16831e-09
7.88123e-12
1.06333e-09
6.8752e-12
9.56853e-10
5.85302e-12
8.50813e-10
4.85038e-12
7.4678e-10
3.89735e-12
6.4599e-10
3.01844e-12
5.49389e-10
2.23283e-12
4.57677e-10
1.5548e-12
3.71346e-10
9.94222e-13
2.90711e-10
5.57109e-13
2.15942e-10
2.46147e-13
1.47091e-10
6.1238e-14
8.41102e-11
2.68796e-11
9.21365e-13
6.02464e-10
-2.48982e-13
1.88335e-12
9.17432e-10
2.99621e-12
1.16476e-09
4.13394e-12
1.3497e-09
5.1935e-12
1.4786e-09
6.09898e-12
1.55829e-09
6.80155e-12
1.59567e-09
7.27673e-12
1.59738e-09
7.52026e-12
1.56967e-09
7.54347e-12
1.51824e-09
7.36878e-12
1.44822e-09
7.02566e-12
1.36412e-09
6.54726e-12
1.26989e-09
5.96776e-12
1.16889e-09
5.3204e-12
1.06398e-09
4.6361e-12
9.57537e-10
3.94253e-12
8.51506e-10
3.2637e-12
7.47459e-10
2.61972e-12
6.46634e-10
2.02689e-12
5.49982e-10
1.49788e-12
4.58206e-10
1.04203e-12
3.71802e-10
6.65698e-13
2.91088e-10
3.72666e-13
2.16235e-10
1.64488e-13
1.47299e-10
4.08713e-14
8.42339e-11
2.69205e-11
6.17904e-13
6.02013e-10
-1.67033e-13
1.26245e-12
9.16788e-10
2.00727e-12
1.16402e-09
2.76758e-12
1.34894e-09
3.47428e-12
1.47789e-09
4.07661e-12
1.55769e-09
4.54219e-12
1.5952e-09
4.85504e-12
1.59707e-09
5.01277e-12
1.56951e-09
5.0234e-12
1.51823e-09
4.90232e-12
1.44834e-09
4.66952e-12
1.36435e-09
4.34738e-12
1.27021e-09
3.95884e-12
1.16928e-09
3.52613e-12
1.06442e-09
3.0698e-12
9.57994e-10
2.60824e-12
8.51968e-10
2.15729e-12
7.4791e-10
1.73018e-12
6.47061e-10
1.33757e-12
5.50374e-10
9.87697e-13
4.58556e-10
6.86591e-13
3.72103e-10
4.38308e-13
2.91336e-10
2.45196e-13
2.16429e-10
1.08149e-13
1.47436e-10
2.68522e-14
8.43152e-11
2.69474e-11
4.09386e-13
6.01714e-10
-1.10677e-13
8.36109e-13
9.16361e-10
1.32879e-12
1.16352e-09
1.83104e-12
1.34844e-09
2.29705e-12
1.47742e-09
2.69336e-12
1.55729e-09
2.99875e-12
1.5949e-09
3.20293e-12
1.59686e-09
3.30459e-12
1.56941e-09
3.30928e-12
1.51823e-09
3.22734e-12
1.44842e-09
3.07213e-12
1.36451e-09
2.85845e-12
1.27042e-09
2.60147e-12
1.16954e-09
2.31584e-12
1.0647e-09
2.01507e-12
9.58294e-10
1.71122e-12
8.52271e-10
1.41467e-12
7.48206e-10
1.13407e-12
6.47341e-10
8.76345e-13
5.50632e-10
6.46856e-13
4.58786e-10
4.49491e-13
3.72301e-10
2.86854e-13
2.91499e-10
1.60428e-13
2.16555e-10
7.07501e-14
1.47525e-10
1.75683e-14
8.43683e-11
2.69649e-11
2.56277e-13
6.01527e-10
-6.93113e-14
5.22984e-13
9.16094e-10
8.30446e-13
1.16322e-09
1.14324e-12
1.34812e-09
1.43267e-12
1.47714e-09
1.67779e-12
1.55705e-09
1.86547e-12
1.59471e-09
1.98945e-12
1.59674e-09
2.04918e-12
1.56935e-09
2.04843e-12
1.51823e-09
1.99392e-12
1.44847e-09
1.89424e-12
1.36461e-09
1.75885e-12
1.27056e-09
1.59737e-12
1.1697e-09
1.41896e-12
1.06488e-09
1.23205e-12
9.58481e-10
1.04406e-12
8.52459e-10
8.61318e-13
7.48389e-10
6.89038e-13
6.47514e-10
5.31359e-13
5.5079e-10
3.91417e-13
4.58926e-10
2.71444e-13
3.72421e-10
1.72881e-13
2.91597e-10
9.6488e-14
2.16631e-10
4.24563e-14
1.4758e-10
1.05107e-14
8.44003e-11
2.69755e-11
1.58629e-13
6.01411e-10
-4.28056e-14
3.23707e-13
9.15929e-10
5.13785e-13
1.16303e-09
7.06785e-13
1.34793e-09
8.84903e-13
1.47696e-09
1.03521e-12
1.5569e-09
1.1496e-12
1.59459e-09
1.2243e-12
1.59667e-09
1.2591e-12
1.56932e-09
1.25649e-12
1.51823e-09
1.22081e-12
1.44851e-09
1.15752e-12
1.36467e-09
1.0726e-12
1.27064e-09
9.7208e-13
1.1698e-09
8.61667e-13
1.06499e-09
7.4655e-13
9.58597e-10
6.31263e-13
8.52575e-10
5.19636e-13
7.48501e-10
4.1479e-13
6.47619e-10
3.19166e-13
5.50885e-10
2.34586e-13
4.5901e-10
1.62312e-13
3.72493e-10
1.03128e-13
2.91656e-10
5.74052e-14
2.16677e-10
2.51775e-14
1.47612e-10
6.20308e-15
8.44193e-11
2.69817e-11
1.00705e-13
6.01338e-10
-2.72724e-14
2.05124e-13
9.15825e-10
3.25224e-13
1.16291e-09
4.46899e-13
1.34781e-09
5.58853e-13