/*--------------------------------*- C++ -*----------------------------------*\
| =========                 |                                                 |
| \\      /  F ield         | OpenFOAM: The Open Source CFD Toolbox           |
|  \\    /   O peration     | Version:  2106                                  |
|   \\  /    A nd           | Website:  www.openfoam.com                      |
|    \\/     M anipulation  |                                                 |
\*---------------------------------------------------------------------------*/
FoamFile
{
    version     2.0;
    format      ascii;
    arch        "LSB;label=32;scalar=64";
    class       surfaceScalarField;
    location    "79.99952";
    object      phi_0;
}
// * * * * * * * * * * * * * * * * * * * * * * * * * * * * * * * * * * * * * //

dimensions      [1 0 -1 0 0 0 0];

oriented        oriented;

internalField   nonuniform List<scalar> 
6572
(
-1.49019e-10
4.14337e-10
3.90117e-11
-3.19783e-10
6.4143e-10
-5.42033e-10
8.33234e-10
-8.07036e-10
9.93314e-10
-1.10618e-09
1.1245e-09
-1.43075e-09
1.2291e-09
-1.77179e-09
1.30905e-09
-2.12012e-09
1.36604e-09
-2.46639e-09
1.40163e-09
-2.80125e-09
1.41736e-09
-3.11542e-09
1.41466e-09
-3.39966e-09
1.39479e-09
-3.6454e-09
1.35951e-09
-3.84471e-09
1.31039e-09
-3.99025e-09
1.24892e-09
-4.07539e-09
1.17652e-09
-4.09426e-09
1.09466e-09
-4.04188e-09
1.00478e-09
-3.91417e-09
9.08338e-10
-3.70806e-09
8.06778e-10
-3.42145e-09
7.01483e-10
-3.05315e-09
5.93729e-10
-2.60285e-09
4.84678e-10
-2.07099e-09
3.75379e-10
-1.45874e-09
2.66764e-10
-7.67817e-10
1.59632e-10
5.41761e-11
-1.01055e-10
4.88281e-10
2.711e-11
-2.1163e-10
7.52005e-10
-3.48448e-10
9.70052e-10
-5.01163e-10
1.14603e-09
-6.59869e-10
1.28321e-09
-8.1539e-10
1.38462e-09
-9.5953e-10
1.45319e-09
-1.0853e-09
1.49181e-09
-1.18705e-09
1.50339e-09
-1.26071e-09
1.49102e-09
-1.30486e-09
1.45881e-09
-1.31926e-09
1.40919e-09
-1.30436e-09
1.34461e-09
-1.26157e-09
1.2676e-09
-1.19324e-09
1.18059e-09
-1.10269e-09
1.08597e-09
-9.93954e-10
9.85918e-10
-8.71667e-10
8.82493e-10
-7.40867e-10
7.77538e-10
-6.06779e-10
6.7269e-10
-4.74668e-10
5.69371e-10
-3.49724e-10
4.68785e-10
-2.36971e-10
3.71925e-10
-1.41264e-10
2.79672e-10
-6.70804e-11
1.9258e-10
-1.84932e-11
1.11045e-10
3.56829e-11
-8.01346e-11
5.47234e-10
2.11824e-11
-1.6696e-10
8.3883e-10
-2.71302e-10
1.07439e-09
-3.83375e-10
1.2581e-09
-4.94469e-10
1.3943e-09
-5.97259e-10
1.48741e-09
-6.86218e-10
1.54215e-09
-7.57502e-10
1.56309e-09
-8.08878e-10
1.55476e-09
-8.39413e-10
1.52155e-09
-8.48306e-10
1.46771e-09
-8.36302e-10
1.39719e-09
-8.05036e-10
1.31335e-09
-7.56862e-10
1.21942e-09
-6.94736e-10
1.11847e-09
-6.2203e-10
1.01326e-09
-5.42328e-10
9.06217e-10
-4.59227e-10
7.99392e-10
-3.76175e-10
6.94485e-10
-2.96301e-10
5.92816e-10
-2.22337e-10
4.95408e-10
-1.56586e-10
4.03034e-10
-1.00909e-10
3.16248e-10
-5.66473e-11
2.3541e-10
-2.47851e-11
1.60718e-10
-5.97597e-12
9.22361e-11
2.9707e-11
-3.77204e-11
5.7453e-10
1.04236e-11
-7.68461e-11
8.77956e-10
-1.22569e-10
1.12012e-09
-1.69927e-10
1.30546e-09
-2.14655e-10
1.43903e-09
-2.53502e-10
1.52626e-09
-2.84091e-10
1.57274e-09
-3.05056e-10
1.58406e-09
-3.15891e-10
1.5656e-09
-3.16822e-10
1.52248e-09
-3.08689e-10
1.45957e-09
-2.9272e-10
1.38122e-09
-2.70625e-10
1.29125e-09
-2.4427e-10
1.19307e-09
-2.15417e-10
1.08962e-09
-1.85609e-10
9.83451e-10
-1.56117e-10
8.76724e-10
-1.27937e-10
7.71213e-10
-1.01803e-10
6.68351e-10
-7.82504e-11
5.69263e-10
-5.76447e-11
4.74802e-10
-4.01976e-11
3.85587e-10
-2.59857e-11
3.02036e-10
-1.49746e-11
2.24399e-10
-7.04299e-12
1.52787e-10
-2.00251e-12
8.71956e-11
2.77044e-11
-1.91131e-11
5.88665e-10
4.97816e-12
-3.92981e-11
8.98141e-10
-6.22687e-11
1.14309e-09
-8.52395e-11
1.32843e-09
-1.06134e-10
1.45992e-09
-1.236e-10
1.54372e-09
-1.368e-10
1.58594e-09
-1.45348e-10
1.59261e-09
-1.49266e-10
1.56952e-09
-1.48861e-10
1.52208e-09
-1.44544e-10
1.45526e-09
-1.36857e-10
1.37353e-09
-1.26462e-10
1.28086e-09
-1.14092e-10
1.1807e-09
-1.00481e-10
1.07601e-09
-8.63103e-11
9.6928e-10
-7.2177e-11
8.62591e-10
-5.85826e-11
7.57619e-10
-4.593e-11
6.55699e-10
-3.4528e-11
5.57861e-10
-2.45996e-11
4.64874e-10
-1.6292e-11
3.77279e-10
-9.68806e-12
2.95432e-10
-4.81718e-12
2.19528e-10
-1.66546e-12
1.49635e-10
-1.85062e-13
8.57152e-11
2.75194e-11
-9.33366e-12
5.95285e-10
2.71399e-12
-1.83693e-11
9.07176e-10
-2.83277e-11
1.15305e-09
-3.78824e-11
1.33798e-09
-4.60456e-11
1.46809e-09
-5.22179e-11
1.5499e-09
-5.61363e-11
1.58986e-09
-5.77952e-11
1.59427e-09
-5.73806e-11
1.5691e-09
-5.52059e-11
1.5199e-09
-5.16509e-11
1.4517e-09
-4.71134e-11
1.36899e-09
-4.19746e-11
1.27572e-09
-3.65742e-11
1.1753e-09
-3.11958e-11
1.07063e-09
-2.60599e-11
9.64145e-10
-2.13238e-11
8.57855e-10
-1.70864e-11
7.53381e-10
-1.33958e-11
6.52008e-10
-1.02589e-11
5.54724e-10
-7.65101e-12
4.62266e-10
-5.52466e-12
3.75153e-10
-3.81765e-12
2.93725e-10
-2.45983e-12
2.18171e-10
-1.3786e-12
1.48554e-10
-5.03062e-13
8.48397e-11
2.70163e-11
-4.79602e-12
5.98912e-10
1.16862e-12
-1.01459e-11
9.12526e-10
-1.64114e-11
1.15931e-09
-2.28676e-11
1.34444e-09
-2.8874e-11
1.47409e-09
-3.38841e-11
1.55491e-09
-3.75958e-11
1.59357e-09
-3.98967e-11
1.59657e-09
-4.08142e-11
1.57002e-09
-4.04698e-11
1.51956e-09
-3.90414e-11
1.45027e-09
-3.67337e-11
1.36668e-09
-3.37573e-11
1.27274e-09
-3.03151e-11
1.17185e-09
-2.65934e-11
1.06691e-09
-2.27579e-11
9.60309e-10
-1.89516e-11
8.54049e-10
-1.52955e-11
7.49725e-10
-1.18896e-11
6.48602e-10
-8.8147e-12
5.51649e-10
-6.13461e-12
4.59586e-10
-3.89761e-12
3.72916e-10
-2.13843e-12
2.91966e-10
-8.79684e-13
2.16912e-10
-1.33332e-13
1.47807e-10
9.80246e-14
8.46083e-11
2.71144e-11
-1.8396e-12
6.00155e-10
5.97137e-13
-3.47592e-12
9.14163e-10
-5.26173e-12
1.1611e-09
-6.94984e-12
1.34613e-09
-8.33999e-12
1.47548e-09
-9.30034e-12
1.55587e-09
-9.77751e-12
1.59405e-09
-9.78583e-12
1.59658e-09
-9.3885e-12
1.56962e-09
-8.67734e-12
1.51885e-09
-7.7551e-12
1.44935e-09
-6.72178e-12
1.36565e-09
-5.66544e-12
1.27169e-09
-4.65676e-12
1.17085e-09
-3.74689e-12
1.066e-09
-2.9675e-12
9.5953e-10
-2.3324e-12
8.53414e-10
-1.84022e-12
7.49233e-10
-1.47738e-12
6.48239e-10
-1.22132e-12
5.51393e-10
-1.04346e-12
4.59408e-10
-9.11968e-13
3.72785e-10
-7.94014e-13
2.91848e-10
-6.57704e-13
2.16775e-10
-4.73533e-13
1.47623e-10
-2.15396e-13
8.43502e-11
2.6899e-11
-1.84384e-12
6.01573e-10
4.26034e-13
-3.94027e-12
9.16259e-10
-6.37228e-12
1.16353e-09
-8.85182e-12
1.34861e-09
-1.11509e-11
1.47778e-09
-1.31062e-11
1.55782e-09
-1.46163e-11
1.59556e-09
-1.56337e-11
1.59759e-09
-1.61534e-11
1.57014e-09
-1.62019e-11
1.5189e-09
-1.58263e-11
1.44898e-09
-1.50867e-11
1.36491e-09
-1.40496e-11
1.27065e-09
-1.27837e-11
1.16958e-09
-1.13568e-11
1.06457e-09
-9.83372e-12
9.58007e-10
-8.27517e-12
8.51855e-10
-6.73683e-12
7.47695e-10
-5.26887e-12
6.46771e-10
-3.91562e-12
5.5004e-10
-2.71533e-12
4.58207e-10
-1.70013e-12
3.71769e-10
-8.96056e-13
2.91044e-10
-3.23134e-13
2.16203e-10
4.40643e-15
1.47296e-10
7.77933e-14
8.42768e-11
2.69767e-11
-6.93029e-13
6.02021e-10
2.45096e-13
-1.25827e-12
9.16824e-10
-1.86437e-12
1.16414e-09
-2.42989e-12
1.34917e-09
-2.89042e-12
1.47824e-09
-3.20612e-12
1.55814e-09
-3.3619e-12
1.59571e-09
-3.36347e-12
1.59759e-09
-3.23162e-12
1.57001e-09
-2.99631e-12
1.51866e-09
-2.69125e-12
1.44867e-09
-2.34972e-12
1.36457e-09
-2.00142e-12
1.2703e-09
-1.6706e-12
1.16925e-09
-1.375e-12
1.06427e-09
-1.1256e-12
9.57757e-10
-9.26933e-13
8.51657e-10
-7.77809e-13
7.47546e-10
-6.72232e-13
6.46666e-10
-6.00449e-13
5.49968e-10
-5.50103e-13
4.58157e-10
-5.07261e-13
3.71727e-10
-4.57392e-13
2.90994e-10
-3.86184e-13
2.16131e-10
-2.80254e-13
1.4719e-10
-1.27619e-13
8.41241e-11
2.68491e-11
-1.04357e-12
6.02826e-10
2.38551e-13
-2.24356e-12
9.18024e-10
-3.65084e-12
1.16554e-09
-5.10793e-12
1.35063e-09
-6.4887e-12
1.47962e-09
-7.6994e-12
1.55935e-09
-8.677e-12
1.59669e-09
-9.38552e-12
1.5983e-09
-9.8114e-12
1.57044e-09
-9.95879e-12
1.51881e-09
-9.84517e-12
1.44856e-09
-9.49755e-12
1.36422e-09
-8.94938e-12
1.26975e-09
-8.23801e-12
1.16854e-09
-7.40278e-12
1.06344e-09
-6.48343e-12
9.56838e-10
-5.51891e-12
8.50692e-10
-4.5462e-12
7.46573e-10
-3.60075e-12
6.4572e-10
-2.71492e-12
5.49082e-10
-1.91747e-12
4.5736e-10
-1.23304e-12
3.71042e-10
-6.81915e-13
2.90443e-10
-2.79904e-13
2.15729e-10
-3.84292e-14
1.46948e-10
3.52258e-14
8.40505e-11
2.68844e-11
-6.67992e-13
6.03279e-10
2.14536e-13
-1.28164e-12
9.18638e-10
-1.98179e-12
1.16624e-09
-2.69126e-12
1.35134e-09
-3.34452e-12
1.48028e-09
-3.89303e-12
1.5599e-09
-4.30645e-12
1.5971e-09
-4.5712e-12
1.59857e-09
-4.68757e-12
1.57055e-09
-4.66646e-12
1.51879e-09
-4.52594e-12
1.44842e-09
-4.28825e-12
1.36398e-09
-3.97716e-12
1.26944e-09
-3.61606e-12
1.16818e-09
-3.22639e-12
1.06305e-09
-2.82673e-12
9.56438e-10
-2.43221e-12
8.50298e-10
-2.0549e-12
7.46196e-10
-1.70255e-12
6.45368e-10
-1.38084e-12
5.48761e-10
-1.09258e-12
4.57071e-10
-8.37972e-13
3.70788e-10
-6.15056e-13
2.9022e-10
-4.20196e-13
2.15534e-10
-2.48601e-13
1.46777e-10
-9.47572e-14
8.38967e-11
2.67896e-11
-1.69836e-12
6.04546e-10
4.31329e-13
-3.55782e-12
9.20497e-10
-5.74948e-12
1.16844e-09
-8.0397e-12
1.35363e-09
-1.02312e-11
1.48247e-09
-1.21696e-11
1.56184e-09
-1.37447e-11
1.59868e-09
-1.48885e-11
1.59971e-09
-1.55712e-11
1.57124e-09
-1.57948e-11
1.51901e-09
-1.55874e-11
1.44821e-09
-1.49963e-11
1.36339e-09
-1.40821e-11
1.26853e-09
-1.2913e-11
1.16701e-09
-1.15604e-11
1.0617e-09
-1.00946e-11
9.54972e-10
-8.58205e-12
8.48785e-10
-7.08286e-12
7.44697e-10
-5.64921e-12
6.43934e-10
-4.32336e-12
5.47435e-10
-3.13921e-12
4.55887e-10
-2.12303e-12
3.69771e-10
-1.29415e-12
2.89391e-10
-6.65661e-13
2.14906e-10
-2.45145e-13
1.46356e-10
-3.53393e-14
8.36869e-11
2.67543e-11
-1.86382e-12
6.05888e-10
5.2187e-13
-3.77736e-12
9.22411e-10
-6.0078e-12
1.17067e-09
-8.31294e-12
1.35594e-09
-1.04864e-11
1.48464e-09
-1.23685e-11
1.56372e-09
-1.38498e-11
1.60016e-09
-1.48691e-11
1.60073e-09
-1.54072e-11
1.57177e-09
-1.54803e-11
1.51908e-09
-1.51311e-11
1.44786e-09
-1.44209e-11
1.36268e-09
-1.34218e-11
1.26753e-09
-1.22101e-11
1.1658e-09
-1.08599e-11
1.06035e-09
-9.43978e-12
9.53552e-10
-8.0102e-12
8.47355e-10
-6.6226e-12
7.43309e-10
-5.31775e-12
6.42629e-10
-4.1267e-12
5.46244e-10
-3.0715e-12
4.54832e-10
-2.16626e-12
3.68866e-10
-1.41836e-12
2.88643e-10
-8.2958e-13
2.14317e-10
-3.97224e-13
1.45924e-10
-1.15116e-13
8.34047e-11
2.66391e-11
-2.95999e-12
6.08067e-10
7.81526e-13
-6.13311e-12
9.25584e-10
-9.87885e-12
1.17441e-09
-1.38089e-11
1.35987e-09
-1.75922e-11
1.48843e-09
-2.09677e-11
1.56709e-09
-2.37477e-11
1.60294e-09
-2.58146e-11
1.6028e-09
-2.71132e-11
1.57307e-09
-2.76414e-11
1.51961e-09
-2.74391e-11
1.44766e-09
-2.65775e-11
1.36182e-09
-2.51496e-11
1.2661e-09
-2.32616e-11
1.16391e-09
-2.10266e-11
1.05811e-09
-1.85585e-11
9.51084e-10
-1.59669e-11
8.44764e-10
-1.33534e-11
7.40695e-10
-1.08101e-11
6.40086e-10
-8.41793e-12
5.43851e-10
-6.24491e-12
4.52659e-10
-4.34589e-12
3.66967e-10
-2.7627e-12
2.8706e-10
-1.52488e-12
2.13079e-10
-6.50785e-13
1.4505e-10
-1.488e-13
8.29028e-11
2.64903e-11
-3.72375e-12
6.10775e-10
1.01518e-12
-7.62442e-12
9.29485e-10
-1.21987e-11
1.17899e-09
-1.69615e-11
1.36463e-09
-2.14995e-11
1.49296e-09
-2.54909e-11
1.57108e-09
-2.87099e-11
1.60616e-09
-3.10226e-11
1.60511e-09
-3.23767e-11
1.57443e-09
-3.2787e-11
1.52002e-09
-3.23207e-11
1.44719e-09
-3.10823e-11
1.36058e-09
-2.92e-11
1.26422e-09
-2.68143e-11
1.16152e-09
-2.40694e-11
1.05537e-09
-2.11053e-11
9.4812e-10
-1.80518e-11
8.4171e-10
-1.50246e-11
7.37668e-10
-1.21231e-11
6.37185e-10
-9.4296e-12
5.41158e-10
-7.00893e-12
4.50238e-10
-4.90972e-12
3.64868e-10
-3.16561e-12
2.85316e-10
-1.79689e-12
2.11711e-10
-8.12398e-13
1.44065e-10
-2.11357e-13
8.23017e-11
2.6279e-11
-4.7388e-12
6.14246e-10
1.26753e-12
-9.74542e-12
9.34491e-10
-1.55893e-11
1.18483e-09
-2.16298e-11
1.37067e-09
-2.73309e-11
1.49866e-09
-3.22833e-11
1.57604e-09
-3.62092e-11
1.61008e-09
-3.89531e-11
1.60785e-09
-4.04664e-11
1.57594e-09
-4.07859e-11
1.52034e-09
-4.00138e-11
1.44642e-09
-3.82961e-11
1.35887e-09
-3.5806e-11
1.26173e-09
-3.27274e-11
1.15844e-09
-2.92429e-11
1.05188e-09
-2.55249e-11
9.44402e-10
-2.17303e-11
8.37916e-10
-1.7997e-11
7.33935e-10
-1.44417e-11
6.33629e-10
-1.11603e-11
5.37877e-10
-8.22805e-12
4.47306e-10
-5.70113e-12
3.62341e-10
-3.61835e-12
2.83233e-10
-2.00318e-12
2.10096e-10
-8.65858e-13
1.42928e-10
-2.05418e-13
8.16413e-11
2.60736e-11
-5.50241e-12
6.18254e-10
1.49463e-12
-1.12401e-11
9.40229e-10
-1.7897e-11
1.19149e-09
-2.47284e-11
1.3775e-09
-3.11173e-11
1.50505e-09
-3.6602e-11
1.58152e-09
-4.08789e-11
1.61436e-09
-4.37901e-11
1.61077e-09
-4.53007e-11
1.57745e-09
-4.54725e-11
1.52051e-09
-4.44375e-11
1.44538e-09
-4.23732e-11
1.3568e-09
-3.94818e-11
1.25884e-09
-3.5973e-11
1.15494e-09
-3.20515e-11
1.04796e-09
-2.79078e-11
9.40258e-10
-2.37121e-11
8.3372e-10
-1.96114e-11
7.29834e-10
-1.57282e-11
6.29746e-10
-1.21606e-11
5.34309e-10
-8.98369e-12
4.44129e-10
-6.25164e-12
3.59609e-10
-3.99986e-12
2.80982e-10
-2.24765e-12
2.08343e-10
-1.00064e-12
1.41681e-10
-2.53216e-13
8.08939e-11
2.58203e-11
-6.12968e-12
6.22734e-10
1.64994e-12
-1.25333e-11
9.46633e-10
-1.99194e-11
1.19887e-09
-2.74372e-11
1.38502e-09
-3.43946e-11
1.51201e-09
-4.02865e-11
1.58741e-09
-4.47943e-11
1.61887e-09
-4.77664e-11
1.61374e-09
-4.91888e-11
1.57887e-09
-4.91522e-11
1.52048e-09
-4.78203e-11
1.44405e-09
-4.54012e-11
1.35438e-09
-4.21245e-11
1.25556e-09
-3.82228e-11
1.15103e-09
-3.39186e-11
1.04366e-09
-2.94153e-11
9.35755e-10
-2.48925e-11
8.29197e-10
-2.05026e-11
7.25444e-10
-1.63708e-11
6.25614e-10
-1.2596e-11
5.30534e-10
-9.25282e-12
4.40786e-10
-6.39375e-12
3.5675e-10
-4.05214e-12
2.7864e-10
-2.24489e-12
2.06536e-10
-9.75157e-13
1.40411e-10
-2.34932e-13
8.01536e-11
2.55854e-11
-6.20672e-12
6.27253e-10
1.6873e-12
-1.26224e-11
9.53048e-10
-1.99696e-11
1.20622e-09
-2.73809e-11
1.39243e-09
-3.41623e-11
1.51879e-09
-3.98208e-11
1.59307e-09
-4.40601e-11
1.62311e-09
-4.67554e-11
1.61643e-09
-4.79193e-11
1.58004e-09
-4.7665e-11
1.52022e-09
-4.61726e-11
1.44256e-09
-4.36593e-11
1.35187e-09
-4.03573e-11
1.25226e-09
-3.64957e-11
1.14717e-09
-3.22892e-11
1.03945e-09
-2.79307e-11
9.31397e-10
-2.35868e-11
8.24853e-10
-1.9397e-11
7.21254e-10
-1.54738e-11
6.21691e-10
-1.19041e-11
5.26965e-10
-8.75222e-12
4.37634e-10
-6.06192e-12
3.5406e-10
-3.85955e-12
2.76438e-10
-2.15677e-12
2.04833e-10
-9.531e-13
1.39207e-10
-2.38338e-13
7.94389e-11
2.53471e-11
-5.83358e-12
6.3151e-10
1.57707e-12
-1.18609e-11
9.59076e-10
-1.87214e-11
1.21308e-09
-2.55851e-11
1.39929e-09
-3.18011e-11
1.52501e-09
-3.692e-11
1.59819e-09
-4.06845e-11
1.62687e-09
-4.30007e-11
1.61875e-09
-4.39015e-11
1.58094e-09
-4.35093e-11
1.51983e-09
-4.20034e-11
1.44105e-09
-3.95918e-11
1.34946e-09
-3.64913e-11
1.24916e-09
-3.29118e-11
1.14359e-09
-2.90472e-11
1.03558e-09
-2.50691e-11
9.27419e-10
-2.11246e-11
8.20909e-10
-1.73355e-11
7.17465e-10
-1.37992e-11
6.18155e-10
-1.05907e-11
5.23756e-10
-7.76479e-12
4.34808e-10
-5.35864e-12
3.51653e-10
-3.39443e-12
2.74473e-10
-1.88169e-12
2.03321e-10
-8.19602e-13
1.38145e-10
-1.99037e-13
7.88183e-11
2.5148e-11
-4.88022e-12
6.35061e-10
1.32945e-12
-9.88101e-12
9.64076e-10
-1.5542e-11
1.21874e-09
-2.1169e-11
1.40492e-09
-2.62255e-11
1.53006e-09
-3.03501e-11
1.60232e-09
-3.33445e-11
1.62987e-09
-3.51464e-11
1.62055e-09
-3.5796e-11
1.58159e-09
-3.54035e-11
1.51944e-09
-3.41214e-11
1.43977e-09
-3.21221e-11
1.34746e-09
-2.95818e-11
1.24662e-09
-2.6669e-11
1.14068e-09
-2.35376e-11
1.03245e-09
-2.03229e-11
9.24204e-10
-1.71402e-11
8.17726e-10
-1.40846e-11
7.1441e-10
-1.12323e-11
6.15302e-10
-8.64183e-12
5.21166e-10
-6.35642e-12
4.32523e-10
-4.40563e-12
3.49703e-10
-2.80747e-12
2.72875e-10
-1.5703e-12
2.02083e-10
-6.94473e-13
1.37269e-10
-1.73859e-13
7.82977e-11
2.49742e-11
-3.61727e-12
6.37699e-10
9.79255e-13
-7.33339e-12
9.67793e-10
-1.15323e-11
1.22294e-09
-1.56968e-11
1.40908e-09
-1.94322e-11
1.5338e-09
-2.24763e-11
1.60536e-09
-2.46888e-11
1.63208e-09
-2.60279e-11
1.62189e-09
-2.65254e-11
1.58208e-09
-2.62626e-11
1.51917e-09
-2.53494e-11
1.43886e-09
-2.39095e-11
1.34602e-09
-2.20686e-11
1.24478e-09
-1.99469e-11
1.13856e-09
-1.76548e-11
1.03016e-09
-1.52897e-11
9.21839e-10
-1.29358e-11
8.15372e-10
-1.06636e-11
7.12138e-10
-8.53063e-12
6.13169e-10
-6.58247e-12
5.19217e-10
-4.85403e-12
4.30794e-10
-3.37065e-12
3.48219e-10
-2.14947e-12
2.71654e-10
-1.2005e-12
2.01134e-10
-5.27726e-13
1.36597e-10
-1.30107e-13
7.79001e-11
2.48441e-11
-2.14126e-12
6.39256e-10
5.83667e-13
-4.33436e-12
9.69986e-10
-6.81895e-12
1.22542e-09
-9.29597e-12
1.41156e-09
-1.1537e-11
1.53604e-09
-1.33897e-11
1.60721e-09
-1.47706e-11
1.63346e-09
-1.56517e-11
1.62277e-09
-1.60458e-11
1.58248e-09
-1.59934e-11
1.51912e-09
-1.55518e-11
1.43842e-09
-1.47864e-11
1.34525e-09
-1.37651e-11
1.24376e-09
-1.25543e-11
1.13735e-09
-1.12166e-11
1.02882e-09
-9.80908e-12
9.20431e-10
-8.38257e-12
8.13946e-10
-6.98162e-12
7.10737e-10
-5.64443e-12
6.11832e-10
-4.40311e-12
5.17976e-10
-3.28403e-12
4.29675e-10
-2.30822e-12
3.47243e-10
-1.49184e-12
2.70838e-10
-8.46654e-13
2.00489e-10
-3.80411e-13
1.3613e-10
-9.7349e-14
7.7617e-11
2.47467e-11
-6.82721e-13
6.39757e-10
1.81831e-13
-1.40214e-12
9.70705e-10
-2.23708e-12
1.22626e-09
-3.09859e-12
1.41242e-09
-3.91719e-12
1.53686e-09
-4.64327e-12
1.60794e-09
-5.24458e-12
1.63406e-09
-5.70281e-12
1.62323e-09
-6.01018e-12
1.58279e-09
-6.16678e-12
1.51928e-09
-6.17847e-12
1.43843e-09
-6.05553e-12
1.34513e-09
-5.8116e-12
1.24351e-09
-5.4629e-12
1.137e-09
-5.02764e-12
1.02839e-09
-4.52535e-12
9.19929e-10
-3.97639e-12
8.13397e-10
-3.40134e-12
7.10162e-10
-2.82053e-12
6.11251e-10
-2.25353e-12
5.17409e-10
-1.71876e-12
4.29141e-10
-1.23314e-12
3.46758e-10
-8.11815e-13
2.70416e-10
-4.67948e-13
2.00145e-10
-2.12635e-13
1.35875e-10
-5.48164e-14
7.74592e-11
2.46919e-11
7.17791e-13
6.39235e-10
-1.95529e-13
1.43848e-12
9.69984e-10
2.22455e-12
1.22547e-09
2.96135e-12
1.41169e-09
3.56406e-12
1.53626e-09
3.98116e-12
1.60752e-09
4.19219e-12
1.63385e-09
4.20208e-12
1.62322e-09
4.03429e-12
1.58295e-09
3.72373e-12
1.51959e-09
3.31071e-12
1.43884e-09
2.83596e-12
1.3456e-09
2.33711e-12
1.24401e-09
1.84633e-12
1.13749e-09
1.38914e-12
1.02884e-09
9.83973e-13
9.20334e-10
6.42369e-13
8.13738e-10
3.69631e-13
7.10434e-10
1.657e-13
6.11455e-10
2.61474e-14
5.17549e-10
-5.68022e-14
4.29223e-10
-9.32971e-14
3.46794e-10
-9.49793e-14
2.70418e-10
-7.42186e-14
2.00125e-10
-4.34683e-14
1.35844e-10
-1.47493e-14
7.74305e-11
2.46772e-11
1.98691e-12
6.3779e-10
-5.42352e-13
4.00865e-12
9.67963e-10
6.27411e-12
1.22321e-09
8.49149e-12
1.40947e-09
1.04377e-11
1.53431e-09
1.19662e-11
1.60599e-09
1.30023e-11
1.63281e-09
1.35307e-11
1.62269e-09
1.35808e-11
1.5829e-09
1.32118e-11
1.51996e-09
1.25004e-11
1.43955e-09
1.15296e-11
1.34658e-09
1.03815e-11
1.24516e-09
9.13219e-12
1.13874e-09
7.84797e-12
1.03013e-09
6.58409e-12
9.21598e-10
5.38416e-12
8.14938e-10
4.2806e-12
7.11538e-10
3.29555e-12
6.1244e-10
2.44215e-12
5.18402e-10
1.72592e-12
4.2994e-10
1.14621e-12
3.47374e-10
6.97533e-13
2.70867e-10
3.70795e-13
2.00451e-10
1.54409e-13
1.36061e-10
3.52346e-14
7.75497e-11
2.47124e-11
3.13904e-12
6.35503e-10
-8.51784e-13
6.36587e-12
9.64736e-10
1.00215e-11
1.21955e-09
1.36557e-11
1.40583e-09
1.69181e-11
1.53105e-09
1.957e-11
1.60334e-09
2.14786e-11
1.63091e-09
2.26003e-11
1.62157e-09
2.29602e-11
1.58254e-09
2.26319e-11
1.52029e-09
2.17185e-11
1.44047e-09
2.03381e-11
1.34796e-09
1.86122e-11
1.24688e-09
1.66572e-11
1.14069e-09
1.45791e-11
1.03221e-09
1.24704e-11
9.23707e-10
1.04085e-11
8.17e-10
8.45566e-12
7.13491e-10
6.65957e-12
6.14237e-10
5.05456e-12
5.20007e-10
3.66324e-12
4.31331e-10
2.4981e-12
3.48539e-10
1.56322e-12
2.71802e-10
8.55916e-13
2.01159e-10
3.68158e-13
1.36549e-10
8.79525e-14
7.78299e-11
2.48003e-11
4.13455e-12
6.3249e-10
-1.12127e-12
8.40697e-12
9.60464e-10
1.32867e-11
1.21467e-09
1.81934e-11
1.40093e-09
2.26672e-11
1.52657e-09
2.63855e-11
1.59962e-09
2.91573e-11
1.62813e-09
3.09052e-11
1.61982e-09
3.16413e-11
1.58181e-09
3.14428e-11
1.52049e-09
3.04297e-11
1.44148e-09
2.8746e-11
1.34964e-09
2.65449e-11
1.24909e-09
2.39779e-11
1.14326e-09
2.11869e-11
1.035e-09
1.83006e-11
9.26593e-10
1.54282e-11
8.19873e-10
1.26623e-11
7.16257e-10
1.00774e-11
6.16821e-10
7.73092e-12
5.22354e-10
5.66493e-12
4.33397e-10
3.9075e-12
3.50297e-10
2.47482e-12
2.73234e-10
1.37303e-12
2.0226e-10
5.9997e-13
1.37322e-10
1.46842e-13
7.8283e-11
2.49472e-11
4.93812e-12
6.28887e-10
-1.33572e-12
1.00702e-11
9.55331e-10
1.59709e-11
1.20877e-09
2.19574e-11
1.39494e-09
2.74811e-11
1.52105e-09
3.21474e-11
1.59496e-09
3.57123e-11
1.62457e-09
3.80634e-11
1.61747e-09
3.91974e-11
1.58067e-09
3.91851e-11
1.5205e-09
3.81548e-11
1.44251e-09
3.62679e-11
1.35153e-09
3.37017e-11
1.25165e-09
3.06357e-11
1.14633e-09
2.72422e-11
1.03839e-09
2.36798e-11
9.30155e-10
2.00893e-11
8.23463e-10
1.65916e-11
7.19754e-10
1.32872e-11
6.20126e-10
1.02567e-11
5.25384e-10
7.56196e-12
4.36092e-10
5.24773e-12
3.52611e-10
3.34362e-12
2.75138e-10
1.86606e-12
2.03738e-10
8.20291e-13
1.38367e-10
2.02247e-13
7.8901e-11
2.51494e-11
5.47097e-12
6.24895e-10
-1.47873e-12
1.11779e-11
9.49625e-10
1.7774e-11
1.20218e-09
2.45133e-11
1.3882e-09
3.0789e-11
1.51478e-09
3.61564e-11
1.58959e-09
4.03308e-11
1.62039e-09
4.31699e-11
1.61463e-09
4.46487e-11
1.57919e-09
4.48322e-11
1.52031e-09
4.38488e-11
1.44349e-09
4.18678e-11
1.35351e-09
3.90805e-11
1.25444e-09
3.56845e-11
1.14972e-09
3.18732e-11
1.0422e-09
2.78268e-11
9.34202e-10
2.371e-11
8.2758e-10
1.9666e-11
7.23798e-10
1.58162e-11
6.23976e-10
1.22603e-11
5.2894e-10
9.07691e-12
4.39275e-10
6.32543e-12
3.55362e-10
4.04743e-12
2.77416e-10
2.26894e-12
2.05516e-10
1.00245e-12
1.39634e-10
2.48952e-13
7.96545e-11
2.53984e-11
5.67392e-12
6.20753e-10
-1.53152e-12
1.16116e-11
9.43687e-10
1.85008e-11
1.19529e-09
2.55749e-11
1.38113e-09
3.22048e-11
1.50815e-09
3.79231e-11
1.58387e-09
4.24236e-11
1.61589e-09
4.55452e-11
1.61151e-09
4.72456e-11
1.57749e-09
4.75821e-11
1.51998e-09
4.66781e-11
1.4444e-09
4.47023e-11
1.35548e-09
4.18492e-11
1.25729e-09
3.83234e-11
1.15325e-09
3.43277e-11
1.0462e-09
3.00541e-11
9.38475e-10
2.56784e-11
8.31956e-10
2.13559e-11
7.28121e-10
1.72204e-11
6.28111e-10
1.33828e-11
5.32777e-10
9.93264e-12
4.42725e-10
6.93846e-12
3.58357e-10
4.45009e-12
2.79905e-10
2.50035e-12
2.07466e-10
1.10717e-12
1.41027e-10
2.75689e-13
8.0486e-11
2.56741e-11
5.50851e-12
6.16731e-10
-1.48648e-12
1.12826e-11
9.37913e-10
1.79978e-11
1.18857e-09
2.49146e-11
1.37421e-09
3.14224e-11
1.50164e-09
3.70636e-11
1.57823e-09
4.1534e-11
1.61142e-09
4.4669e-11
1.60838e-09
4.64215e-11
1.57574e-09
4.68374e-11
1.51956e-09
4.60303e-11
1.4452e-09
4.41601e-11
1.35735e-09
4.14136e-11
1.26004e-09
3.79893e-11
1.15667e-09
3.40853e-11
1.0501e-09
2.98907e-11
9.4267e-10
2.55796e-11
8.36267e-10
2.13071e-11
7.32393e-10
1.72073e-11
6.32211e-10
1.33929e-11
5.36592e-10
9.95497e-12
4.46163e-10
6.96446e-12
3.61347e-10
4.47358e-12
2.82396e-10
2.51761e-12
2.09422e-10
1.11691e-12
1.42428e-10
2.78885e-13
8.1324e-11
2.5953e-11
5.01234e-12
6.1307e-10
-1.35193e-12
1.02719e-11
9.32653e-10
1.63954e-11
1.18245e-09
2.27119e-11
1.36789e-09
2.86652e-11
1.49568e-09
3.38369e-11
1.57306e-09
3.7947e-11
1.60731e-09
4.08423e-11
1.60548e-09
4.24764e-11
1.57411e-09
4.28879e-11
1.51915e-09
4.21782e-11
1.44591e-09
4.04916e-11
1.35904e-09
3.79975e-11
1.26253e-09
3.48768e-11
1.15979e-09
3.13107e-11
1.05367e-09
2.74727e-11
9.46508e-10
2.35227e-11
8.40217e-10
1.96035e-11
7.36312e-10
1.58392e-11
6.35975e-10
1.23336e-11
5.40097e-10
9.1716e-12
4.49325e-10
6.41906e-12
3.641e-10
4.12484e-12
2.8469e-10
2.32218e-12
2.11225e-10
1.03053e-12
1.43719e-10
2.57418e-13
8.20971e-11
2.62104e-11
4.27902e-12
6.09946e-10
-1.15443e-12
8.76863e-12
9.28164e-10
1.39962e-11
1.17722e-09
1.93884e-11
1.3625e-09
2.44704e-11
1.4906e-09
2.88842e-11
1.56864e-09
3.23904e-11
1.60381e-09
3.48577e-11
1.60301e-09
3.62468e-11
1.57272e-09
3.65908e-11
1.51881e-09
3.59771e-11
1.44653e-09
3.45294e-11
1.36049e-09
3.23932e-11
1.26467e-09
2.97236e-11
1.16246e-09
2.66757e-11
1.05672e-09
2.33979e-11
9.49786e-10
2.00269e-11
8.43588e-10
1.66844e-11
7.39655e-10
1.3476e-11
6.39184e-10
1.04901e-11
5.43083e-10
7.7983e-12
4.52017e-10
5.45639e-12
3.66441e-10
3.50543e-12
2.86641e-10
1.97317e-12
2.12757e-10
8.75671e-13
1.44817e-10
2.18836e-13
8.2754e-11
2.64292e-11
3.44255e-12
6.07432e-10
-9.28812e-13
7.05283e-12
9.24553e-10
1.12532e-11
1.17302e-09
1.5581e-11
1.35817e-09
1.96535e-11
1.48653e-09
2.31828e-11
1.56511e-09
2.59774e-11
1.60101e-09
2.79333e-11
1.60106e-09
2.90208e-11
1.57163e-09
2.9269e-11
1.51856e-09
2.875e-11
1.44705e-09
2.75653e-11
1.36167e-09
2.58333e-11
1.2664e-09
2.36793e-11
1.16462e-09
2.12287e-11
1.05917e-09
1.86004e-11
9.52414e-10
1.59036e-11
8.46285e-10
1.32353e-11
7.42323e-10
1.0679e-11
6.4174e-10
8.30423e-12
5.45458e-10
6.16704e-12
4.54154e-10
4.31068e-12
3.68298e-10
2.7666e-12
2.88185e-10
1.55572e-12
2.13968e-10
6.89675e-13
1.45683e-10
1.72145e-13
8.32715e-11
2.66014e-11
2.62495e-12
6.05516e-10
-7.08634e-13
5.37466e-12
9.21804e-10
8.56943e-12
1.16983e-09
1.18551e-11
1.35489e-09
1.49393e-11
1.48345e-09
1.76031e-11
1.56245e-09
1.9702e-11
1.59891e-09
2.11589e-11
1.5996e-09
2.19537e-11
1.57084e-09
2.21111e-11
1.5184e-09
2.16884e-11
1.44747e-09
2.07647e-11
1.3626e-09
1.94316e-11
1.26773e-09
1.77853e-11
1.16626e-09
1.59213e-11
1.06103e-09
1.39298e-11
9.54406e-10
1.1893e-11
8.48321e-10
9.88363e-12
7.44332e-10
7.96363e-12
6.4366e-10
6.18435e-12
5.47237e-10
4.58674e-12
4.55752e-10
3.20205e-12
3.69683e-10
2.05264e-12
2.89334e-10
1.15297e-12
2.14868e-10
5.10632e-13
1.46325e-10
1.2736e-13
8.36548e-11
2.67287e-11
1.91388e-12
6.04119e-10
-5.16827e-13
3.91649e-12
9.19801e-10
6.2396e-12
1.1675e-09
8.62368e-12
1.3525e-09
1.08552e-11
1.48121e-09
1.27751e-11
1.56053e-09
1.42794e-11
1.59741e-09
1.53138e-11
1.59857e-09
1.58658e-11
1.57028e-09
1.59553e-11
1.51831e-09
1.56261e-11
1.4478e-09
1.49371e-11
1.36328e-09
1.3956e-11
1.26872e-09
1.27535e-11
1.16747e-09
1.13988e-11
1.06239e-09
9.95747e-12
9.55847e-10
8.48845e-12
8.4979e-10
7.0436e-12
7.45777e-10
5.66685e-12
6.45037e-10
4.39431e-12
5.4851e-10
3.25446e-12
4.56892e-10
2.26878e-12
3.70668e-10
1.45234e-12
2.90151e-10
8.14636e-13
2.15505e-10
3.60257e-13
1.4678e-10
8.96966e-14
8.39253e-11
2.68184e-11
1.34593e-12
6.03136e-10
-3.63664e-13
2.75253e-12
9.18394e-10
4.38172e-12
1.16587e-09
6.05024e-12
1.35084e-09
7.60774e-12
1.47966e-09
8.9429e-12
1.5592e-09
9.98351e-12
1.59637e-09
1.06927e-11
1.59786e-09
1.10631e-11
1.56991e-09
1.111e-11
1.51826e-09
1.08654e-11
1.44804e-09
1.03716e-11
1.36378e-09
9.67659e-12
1.26941e-09
8.83028e-12
1.16831e-09
7.88134e-12
1.06333e-09
6.8753e-12
9.56853e-10
5.85311e-12
8.50812e-10
4.85046e-12
7.4678e-10
3.89742e-12
6.4599e-10
3.0185e-12
5.49389e-10
2.23287e-12
4.57677e-10
1.55483e-12
3.71346e-10
9.94247e-13
2.90711e-10
5.57126e-13
2.15942e-10
2.46157e-13
1.47091e-10
6.1241e-14
8.41102e-11
2.68796e-11
9.21401e-13
6.02464e-10
-2.49015e-13
1.8835e-12
9.17432e-10
2.99637e-12
1.16476e-09
4.13409e-12
1.3497e-09
5.19365e-12
1.4786e-09
6.09913e-12
1.55829e-09
6.8017e-12
1.59567e-09
7.27688e-12
1.59738e-09
7.52041e-12
1.56967e-09
7.54361e-12
1.51824e-09
7.36892e-12
1.44822e-09
7.02579e-12
1.36412e-09
6.54738e-12
1.26989e-09
5.96787e-12
1.16889e-09
5.32051e-12
1.06398e-09
4.63619e-12
9.57537e-10
3.94261e-12
8.51506e-10
3.26377e-12
7.47459e-10
2.61978e-12
6.46634e-10
2.02694e-12
5.49982e-10
1.49792e-12
4.58206e-10
1.04206e-12
3.71802e-10
6.65721e-13
2.91088e-10
3.72681e-13
2.16235e-10
1.64496e-13
1.47299e-10
4.08739e-14
8.42339e-11
2.69205e-11
6.17939e-13
6.02013e-10
-1.67062e-13
1.26258e-12
9.16788e-10
2.00741e-12
1.16402e-09
2.76773e-12
1.34894e-09
3.47443e-12
1.47789e-09
4.07677e-12
1.55769e-09
4.54235e-12
1.5952e-09
4.8552e-12
1.59707e-09
5.01293e-12
1.56951e-09
5.02356e-12
1.51823e-09
4.90247e-12
1.44834e-09
4.66967e-12
1.36435e-09
4.34752e-12
1.27021e-09
3.95897e-12
1.16928e-09
3.52624e-12
1.06442e-09
3.06991e-12
9.57994e-10
2.60833e-12
8.51968e-10
2.15737e-12
7.4791e-10
1.73025e-12
6.47061e-10
1.33762e-12
5.50374e-10
9.87741e-13
4.58556e-10
6.86625e-13
3.72103e-10
4.38333e-13
2.91336e-10
2.45212e-13
2.16429e-10
1.08158e-13
1.47436e-10
2.6855e-14
8.43152e-11
2.69474e-11
4.09431e-13
6.01714e-10
-1.10723e-13
8.36243e-13
9.16361e-10
1.32892e-12
1.16352e-09
1.83118e-12
1.34844e-09
2.2972e-12
1.47742e-09
2.69352e-12
1.55729e-09
2.99892e-12
1.5949e-09
3.2031e-12
1.59686e-09
3.30476e-12
1.56941e-09
3.30945e-12
1.51823e-09
3.22752e-12
1.44842e-09
3.07229e-12
1.36451e-09
2.85861e-12
1.27042e-09
2.60162e-12
1.16954e-09
2.31597e-12
1.0647e-09
2.01519e-12
9.58294e-10
1.71133e-12
8.52271e-10
1.41477e-12
7.48206e-10
1.13415e-12
6.47341e-10
8.7641e-13
5.50632e-10
6.46908e-13
4.58786e-10
4.49531e-13
3.72301e-10
2.86884e-13
2.91499e-10
1.60448e-13
2.16555e-10
7.07614e-14
1.47525e-10
1.75722e-14
8.43683e-11
2.69649e-11
2.56331e-13
6.01527e-10
-6.93709e-14
5.2312e-13
9.16094e-10
8.30585e-13
1.16322e-09
1.14339e-12
1.34812e-09
1.43283e-12
1.47713e-09
1.67796e-12
1.55705e-09
1.86564e-12
1.59471e-09
1.98963e-12
1.59674e-09
2.04937e-12
1.56935e-09
2.04861e-12
1.51823e-09
1.9941e-12
1.44847e-09
1.89441e-12
1.36461e-09
1.75902e-12
1.27056e-09
1.59752e-12
1.1697e-09
1.4191e-12
1.06488e-09
1.23218e-12
9.58481e-10
1.04417e-12
8.52459e-10
8.61415e-13
7.48389e-10
6.8912e-13
6.47514e-10
5.31428e-13
5.5079e-10
3.91472e-13
4.58926e-10
2.71487e-13
3.72421e-10
1.72912e-13
2.91597e-10
9.6509e-14
2.16631e-10
4.2468e-14
1.4758e-10
1.05145e-14
8.44003e-11
2.69755e-11
1.5869e-13
6.01411e-10
-4.28736e-14
3.23843e-13
9.15929e-10
5.13927e-13
1.16303e-09
7.06942e-13
1.34793e-09
8.85075e-13
1.47696e-09
1.03539e-12
1.5569e-09
1.1498e-12
1.59459e-09
1.22451e-12
1.59667e-09
1.25931e-12
1.56932e-09
1.2567e-12
1.51823e-09
1.22101e-12
1.44851e-09
1.15771e-12
1.36467e-09
1.07279e-12
1.27064e-09
9.72253e-13
1.1698e-09
8.61825e-13
1.06499e-09
7.46692e-13
9.58597e-10
6.31388e-13
8.52575e-10
5.19744e-13
7.48501e-10
4.14882e-13
6.47619e-10
3.19242e-13
5.50885e-10
2.34646e-13
4.5901e-10
1.62359e-13
3.72493e-10
1.03162e-13
2.91656e-10
5.7428e-14
2.16677e-10
2.51902e-14
1.47612e-10
6.20707e-15
8.44193e-11
2.69817e-11
1.00766e-13
6.01338e-10
-2.73397e-14
2.05246e-13
9.15825e-10
3.25353e-13
1.16291e-09
4.47045e-13
1.34781e-09
5.59013e-13
1.47684e-09