/*--------------------------------*- C++ -*----------------------------------*\
| =========                 |                                                 |
| \\      /  F ield         | OpenFOAM: The Open Source CFD Toolbox           |
|  \\    /   O peration     | Version:  2106                                  |
|   \\  /    A nd           | Website:  www.openfoam.com                      |
|    \\/     M anipulation  |                                                 |
\*---------------------------------------------------------------------------*/
FoamFile
{
    version     2.0;
    format      ascii;
    arch        "LSB;label=32;scalar=64";
    class       volVectorField;
    location    "79.99952";
    object      U_0;
}
// * * * * * * * * * * * * * * * * * * * * * * * * * * * * * * * * * * * * * //

dimensions      [0 1 -1 0 0 0 0];

internalField   nonuniform List<vector> 
3360
(
(0.161374 -0.00691894 -7.95121e-12)
(0.161811 -0.0107922 -1.12715e-11)
(0.162391 -0.0147437 -1.18294e-11)
(0.163062 -0.0184839 -8.72071e-12)
(0.163753 -0.0220347 -1.02387e-12)
(0.164392 -0.0253698 9.71366e-12)
(0.164901 -0.0284612 2.2829e-11)
(0.165199 -0.0312806 3.74748e-11)
(0.165204 -0.0338125 5.31512e-11)
(0.164776 -0.0359487 6.76424e-11)
(0.163496 -0.0377681 3.33644e-11)
(0.161399 -0.0391652 3.46305e-12)
(0.158482 -0.0401315 -2.01516e-11)
(0.154721 -0.0406445 -8.79278e-12)
(0.15008 -0.0406856 1.62154e-12)
(0.144515 -0.0402399 9.39997e-12)
(0.137983 -0.0392963 1.56284e-11)
(0.130439 -0.0378479 2.08289e-11)
(0.121838 -0.0358922 2.52162e-11)
(0.112139 -0.0334315 2.83059e-11)
(0.101301 -0.0304723 2.9374e-11)
(0.0892851 -0.0270225 2.51174e-11)
(0.0760541 -0.0231087 1.98368e-11)
(0.0615465 -0.0187293 1.45762e-11)
(0.0457403 -0.0139233 9.83939e-12)
(0.028611 -0.00869209 5.6149e-12)
(0.0101272 -0.0029215 1.78969e-12)
(0.203158 -0.00476644 1.51816e-10)
(0.203024 -0.00724644 2.52363e-10)
(0.202706 -0.00964455 3.594e-10)
(0.202084 -0.0117117 4.85584e-10)
(0.201039 -0.0134477 4.03754e-10)
(0.199454 -0.0148308 3.72326e-10)
(0.197223 -0.0158524 2.96202e-10)
(0.194255 -0.0165096 2.45099e-10)
(0.190477 -0.0167934 2.07817e-10)
(0.185891 -0.0167903 1.81652e-10)
(0.180775 -0.0164284 1.64732e-10)
(0.174958 -0.015812 1.56112e-10)
(0.168414 -0.0149764 1.54554e-10)
(0.161114 -0.0139471 1.59587e-10)
(0.153029 -0.012762 1.70696e-10)
(0.144143 -0.0114604 1.47536e-10)
(0.134464 -0.0100822 1.31474e-10)
(0.12402 -0.00866759 1.19844e-10)
(0.112856 -0.00725573 1.11247e-10)
(0.101043 -0.00588453 1.05017e-10)
(0.0886637 -0.00458936 9.84109e-11)
(0.075801 -0.00340537 8.57201e-11)
(0.0625384 -0.00234901 7.26903e-11)
(0.0489851 -0.0014666 6.10369e-11)
(0.0352092 -0.000767152 5.0312e-11)
(0.0212747 -0.000279143 3.37699e-11)
(0.0072393 -2.39704e-05 1.05374e-11)
(0.228882 -0.00376305 8.27616e-11)
(0.227275 -0.00575063 1.20903e-10)
(0.224872 -0.00757412 1.3518e-10)
(0.221658 -0.00905223 1.11399e-10)
(0.217611 -0.0101934 1.94896e-10)
(0.212714 -0.010997 2.3427e-10)
(0.206966 -0.0114788 2.51819e-10)
(0.200391 -0.011667 2.57743e-10)
(0.193025 -0.0115954 2.55344e-10)
(0.184911 -0.0112985 1.98134e-10)
(0.176093 -0.0108051 2.03291e-10)
(0.166654 -0.0101566 2.08687e-10)
(0.156614 -0.00936912 2.16398e-10)
(0.146048 -0.00848633 2.26543e-10)
(0.135068 -0.00754101 2.41532e-10)
(0.123794 -0.0065651 2.21867e-10)
(0.11234 -0.00559015 1.78064e-10)
(0.100814 -0.00464309 1.38512e-10)
(0.0893092 -0.00374855 1.02273e-10)
(0.0778975 -0.00292603 8.1977e-11)
(0.0666385 -0.0021909 6.01742e-11)
(0.0555844 -0.00155439 5.54664e-11)
(0.04478 -0.001024 4.87312e-11)
(0.0342616 -0.000603337 4.2e-11)
(0.024058 -0.000293223 2.92637e-11)
(0.0141915 -9.52732e-05 1.68868e-11)
(0.00467894 -2.7132e-06 5.4416e-12)
(0.252732 -0.00181249 -2.89476e-10)
(0.250005 -0.00267397 -4.78773e-10)
(0.246059 -0.00345654 -6.75064e-10)
(0.240985 -0.0040539 -5.38429e-10)
(0.23486 -0.00448101 -4.86296e-10)
(0.227755 -0.0047197 -3.49531e-10)
(0.219792 -0.00481663 -2.89095e-10)
(0.21106 -0.00476739 -2.78709e-10)
(0.201651 -0.00459956 -2.12707e-10)
(0.191665 -0.0043403 -1.21231e-10)
(0.181224 -0.00400755 -5.6593e-11)
(0.170418 -0.00362435 -1.13809e-11)
(0.159319 -0.00321235 2.00087e-11)
(0.147993 -0.00279255 4.17366e-11)
(0.136508 -0.00238214 5.6539e-11)
(0.12493 -0.00199372 6.56403e-11)
(0.113321 -0.001635 6.93455e-11)
(0.101737 -0.00131189 4.50308e-11)
(0.0902292 -0.0010267 2.20701e-11)
(0.0788393 -0.000780073 5.5118e-12)
(0.0676047 -0.000571514 5.60229e-12)
(0.0565565 -0.000399616 1.10963e-11)
(0.0457209 -0.000262252 9.58795e-12)
(0.0351191 -0.000156772 7.44655e-12)
(0.0247685 -8.00977e-05 5.1776e-12)
(0.0146828 -2.9245e-05 2.98684e-12)
(0.00487273 -3.66319e-06 9.51731e-13)
(0.255275 -0.000895768 1.64833e-10)
(0.252004 -0.00136948 2.88598e-11)
(0.247317 -0.00176624 -2.99816e-11)
(0.241377 -0.00205033 -3.18876e-11)
(0.234319 -0.00222358 -3.08575e-12)
(0.226275 -0.00232422 4.51329e-11)
(0.217367 -0.00233218 1.20891e-10)
(0.207726 -0.00228246 1.41619e-10)
(0.197474 -0.00218187 1.27632e-10)
(0.186728 -0.00204362 1.32338e-10)
(0.175598 -0.00187837 1.46304e-10)
(0.164188 -0.00169485 1.21616e-10)
(0.152592 -0.00150113 1.02377e-10)
(0.140897 -0.00130475 8.90917e-11)
(0.129181 -0.00111223 7.9217e-11)
(0.117514 -0.000928849 7.15684e-11)
(0.105956 -0.000758532 6.55011e-11)
(0.094559 -0.000604017 6.0491e-11)
(0.0833675 -0.000467003 5.66392e-11)
(0.0724179 -0.00034835 5.40421e-11)
(0.0617396 -0.000248252 5.24734e-11)
(0.0513557 -0.000166393 5.1361e-11)
(0.0412838 -0.000102075 3.35312e-11)
(0.031536 -5.43205e-05 2.46683e-11)
(0.0221204 -2.20724e-05 1.68352e-11)
(0.0130413 -4.53311e-06 9.72924e-12)
(0.00429955 1.4983e-06 3.13055e-12)
(0.263298 -0.000461161 2.76285e-11)
(0.259535 -0.000650384 2.81793e-11)
(0.25422 -0.000813683 3.03465e-11)
(0.247601 -0.000921574 3.85725e-11)
(0.239894 -0.000980317 5.22264e-11)
(0.231284 -0.000993816 6.87498e-11)
(0.221894 -0.000971832 8.43301e-11)
(0.211851 -0.000922386 9.60079e-11)
(0.201276 -0.00085323 1.04564e-10)
(0.190283 -0.000771546 1.12784e-10)
(0.178974 -0.000683446 1.20104e-10)
(0.167443 -0.000593905 8.47447e-11)
(0.155774 -0.00050679 5.22583e-11)
(0.144038 -0.000424924 2.21342e-11)
(0.132301 -0.000350203 -6.65701e-12)
(0.120616 -0.000283724 -3.56743e-11)
(0.10903 -0.000225924 -2.76988e-11)
(0.0975818 -0.000176731 -2.33546e-11)
(0.0863042 -0.000135693 -1.84071e-11)
(0.0752241 -0.000102106 -5.75989e-12)
(0.0643638 -7.51087e-05 6.90498e-12)
(0.0537412 -5.37718e-05 9.83023e-12)
(0.0433706 -3.71577e-05 1.16616e-11)
(0.0332633 -2.43648e-05 1.32342e-11)
(0.023428 -1.4485e-05 1.5587e-11)
(0.0138711 -6.61877e-06 8.64648e-12)
(0.00459723 -1.66173e-06 2.83578e-12)
(0.262632 -0.000217886 3.35042e-11)
(0.258735 -0.00034935 5.06982e-11)
(0.25323 -0.000460838 6.33756e-11)
(0.246372 -0.000545148 7.75808e-11)
(0.238378 -0.000603102 9.2355e-11)
(0.229436 -0.000634348 1.12546e-10)
(0.21971 -0.000641023 3.70778e-11)
(0.209348 -0.000627435 -2.52748e-11)
(0.198483 -0.000598123 -9.06946e-11)
(0.187234 -0.000557395 -8.79391e-11)
(0.17571 -0.000509055 -9.66816e-11)
(0.164005 -0.000456308 -1.11827e-10)
(0.152205 -0.000401757 -1.31583e-10)
(0.140384 -0.000347449 -1.53749e-10)
(0.128607 -0.000294948 -1.46398e-10)
(0.116929 -0.000245409 -1.4237e-10)
(0.1054 -0.000199653 -1.41462e-10)
(0.094059 -0.000158235 -1.444e-10)
(0.0829399 -0.000121505 -1.31601e-10)
(0.0720707 -8.96498e-05 -1.08165e-10)
(0.0614733 -6.27361e-05 -9.10821e-11)
(0.0511654 -4.0737e-05 -6.51707e-11)
(0.04116 -2.35514e-05 -5.13253e-11)
(0.0314665 -1.10183e-05 -3.84743e-11)
(0.0220907 -2.98816e-06 -2.6508e-11)
(0.013036 5.69204e-07 -1.53485e-11)
(0.00430299 1.0225e-06 -4.9361e-12)
(0.265423 -9.59169e-05 2.33239e-10)
(0.261468 -0.000124652 3.87665e-10)
(0.255887 -0.000152364 1.68887e-10)
(0.248945 -0.00017021 1.54736e-11)
(0.240866 -0.000178843 -1.16514e-10)
(0.231845 -0.000178804 -2.55845e-10)
(0.222054 -0.000171471 -3.05008e-10)
(0.211645 -0.000158643 -3.26579e-10)
(0.200752 -0.000142192 -3.68608e-10)
(0.189493 -0.00012384 -3.42413e-10)
(0.177973 -0.000105039 -2.88208e-10)
(0.166282 -8.69166e-05 -2.48488e-10)
(0.1545 -7.02733e-05 -2.17981e-10)
(0.142695 -5.56133e-05 -1.92964e-10)
(0.130925 -4.31864e-05 -1.70413e-10)
(0.11924 -3.3038e-05 -1.48795e-10)
(0.107683 -2.50576e-05 -1.61197e-10)
(0.0962893 -1.90239e-05 -1.73122e-10)
(0.0850873 -1.46437e-05 -1.70709e-10)
(0.0741019 -1.15848e-05 -1.53388e-10)
(0.0633528 -9.50134e-06 -1.38511e-10)
(0.052856 -8.05462e-06 -1.1372e-10)
(0.042624 -6.93011e-06 -9.03416e-11)
(0.0326666 -5.84664e-06 -6.1057e-11)
(0.0229911 -4.51541e-06 -4.19997e-11)
(0.0136026 -2.61398e-06 -2.44561e-11)
(0.00450434 -9.82022e-07 -7.87069e-12)
(0.264717 -8.19837e-05 6.27178e-11)
(0.260696 -0.000135547 7.92038e-11)
(0.255025 -0.000179199 6.0496e-11)
(0.247975 -0.000211466 4.37582e-11)
(0.239777 -0.00023313 5.39229e-11)
(0.230633 -0.000245072 -8.31389e-11)
(0.220718 -0.000248539 -1.68372e-10)
(0.210189 -0.000244927 -2.24656e-10)
(0.199184 -0.000235646 -2.65118e-10)
(0.187822 -0.000222024 -2.94483e-10)
(0.17621 -0.000205262 -3.18218e-10)
(0.164442 -0.0001864 -3.40204e-10)
(0.152598 -0.000166329 -3.22245e-10)
(0.140749 -0.000145787 -3.08766e-10)
(0.128955 -0.000125387 -2.99711e-10)
(0.117269 -0.000105626 -2.94775e-10)
(0.105734 -8.69086e-05 -2.93117e-10)
(0.0943885 -6.95547e-05 -2.93169e-10)
(0.083263 -5.38167e-05 -2.867e-10)
(0.0723831 -3.9887e-05 -2.54856e-10)
(0.0617694 -2.7906e-05 -2.26582e-10)
(0.0514381 -1.79683e-05 -1.835e-10)
(0.0414016 -1.01264e-05 -1.43697e-10)
(0.0316688 -4.39303e-06 -1.07072e-10)
(0.0222456 -7.7287e-07 -7.34523e-11)
(0.0131353 6.71368e-07 -4.24264e-11)
(0.00433899 5.12358e-07 -1.3627e-11)
(0.266259 -3.78158e-05 -5.19125e-12)
(0.262227 -4.57823e-05 -2.11003e-11)
(0.256543 -5.4515e-05 -5.49724e-11)
(0.249481 -5.99092e-05 -9.88678e-11)
(0.241275 -6.22738e-05 -1.50027e-10)
(0.232127 -6.18343e-05 -2.10031e-10)
(0.222215 -5.90783e-05 -2.68859e-10)
(0.211694 -5.45902e-05 -3.26108e-10)
(0.200702 -4.89658e-05 -3.82245e-10)
(0.189357 -4.27525e-05 -3.74501e-10)
(0.177764 -3.64148e-05 -3.7161e-10)
(0.166014 -3.03195e-05 -3.72481e-10)
(0.154185 -2.47327e-05 -3.74674e-10)
(0.142344 -1.98265e-05 -3.77791e-10)
(0.130548 -1.56894e-05 -3.51155e-10)
(0.118848 -1.23401e-05 -3.27438e-10)
(0.107285 -9.74105e-06 -3.05517e-10)
(0.0958927 -7.81262e-06 -2.85203e-10)
(0.0847013 -6.44559e-06 -2.54291e-10)
(0.0737346 -5.51225e-06 -2.21972e-10)
(0.063012 -4.87616e-06 -1.90986e-10)
(0.0525493 -4.40049e-06 -1.46162e-10)
(0.0423586 -3.9565e-06 -1.15221e-10)
(0.0324494 -3.42673e-06 -8.63888e-11)
(0.0228285 -2.67228e-06 -5.95527e-11)
(0.0135005 -1.51875e-06 -3.44914e-11)
(0.00446817 -7.6597e-07 -1.10914e-11)
(0.266076 -4.62219e-05 2.05347e-10)
(0.262014 -7.7067e-05 3.7355e-10)
(0.256288 -0.000102483 7.17118e-11)
(0.249176 -0.000121763 -1.27136e-10)
(0.240914 -0.00013531 -2.89865e-10)
(0.231707 -0.000143555 -4.27343e-10)
(0.221733 -0.000147092 -5.03133e-10)
(0.21115 -0.00014658 -5.15889e-10)
(0.200095 -0.000142692 -5.45471e-10)
(0.188691 -0.00013608 -5.26483e-10)
(0.177041 -0.000127356 -4.59253e-10)
(0.165238 -0.000117076 -4.07166e-10)
(0.153362 -0.000105742 -3.64408e-10)
(0.141482 -9.37958e-05 -3.26938e-10)
(0.129657 -8.16254e-05 -2.92205e-10)
(0.117938 -6.95675e-05 -2.6007e-10)
(0.106368 -5.79111e-05 -2.56356e-10)
(0.0949841 -4.68992e-05 -2.51024e-10)
(0.0838162 -3.67386e-05 -2.36638e-10)
(0.0728894 -2.76036e-05 -2.08304e-10)
(0.062224 -1.96316e-05 -1.84895e-10)
(0.051836 -1.29251e-05 -1.50095e-10)
(0.0417376 -7.55367e-06 -1.19372e-10)
(0.031938 -3.5526e-06 -8.2655e-11)
(0.0224434 -9.3033e-07 -5.71877e-11)
(0.0132573 2.94503e-07 -3.32009e-11)
(0.00438144 -1.51796e-08 -1.07011e-11)
(0.267384 -3.47025e-05 4.57198e-11)
(0.263327 -4.56995e-05 5.27181e-11)
(0.257608 -5.68683e-05 1.85512e-11)
(0.250506 -6.51308e-05 -2.18525e-11)
(0.242256 -7.06359e-05 -5.16731e-11)
(0.233064 -7.34652e-05 -1.59329e-10)
(0.223106 -7.38919e-05 -2.32296e-10)
(0.212539 -7.22829e-05 -2.81677e-10)
(0.201501 -6.90452e-05 -3.13133e-10)
(0.19011 -6.45871e-05 -3.30463e-10)
(0.178471 -5.92917e-05 -3.38203e-10)
(0.166673 -5.35006e-05 -3.41617e-10)
(0.154795 -4.75049e-05 -3.43682e-10)
(0.142905 -4.15417e-05 -3.46077e-10)
(0.13106 -3.57954e-05 -3.50101e-10)
(0.119309 -3.03985e-05 -3.57588e-10)
(0.107695 -2.54216e-05 -3.31804e-10)
(0.0962521 -2.099e-05 -3.12241e-10)
(0.0850114 -1.70089e-05 -2.7875e-10)
(0.0739971 -1.35519e-05 -2.29236e-10)
(0.0632291 -1.05774e-05 -1.82171e-10)
(0.0527237 -8.04734e-06 -1.384e-10)
(0.0424935 -5.91619e-06 -9.69426e-11)
(0.032548 -4.12849e-06 -6.89673e-11)
(0.0228944 -2.58122e-06 -4.25974e-11)
(0.0135373 -1.12533e-06 -2.44503e-11)
(0.00447944 -9.40353e-07 -7.85668e-12)
(0.268141 -7.90135e-05 -3.98074e-11)
(0.264068 -0.00012364 -7.10161e-11)
(0.258326 -0.000162521 -1.09351e-10)
(0.251196 -0.000192665 -1.53755e-10)
(0.242912 -0.000214422 -2.03493e-10)
(0.23368 -0.000228126 -2.57883e-10)
(0.223679 -0.000234431 -3.12901e-10)
(0.213064 -0.000234176 -3.67054e-10)
(0.201973 -0.000228308 -4.20983e-10)
(0.190527 -0.000217823 -4.11652e-10)
(0.178829 -0.000203717 -4.08147e-10)
(0.166972 -0.000186946 -4.07897e-10)
(0.155033 -0.000168403 -4.09932e-10)
(0.143083 -0.000148895 -4.14294e-10)
(0.131179 -0.000129131 -3.84203e-10)
(0.119373 -0.000109721 -3.5813e-10)
(0.107709 -9.11846e-05 -3.33951e-10)
(0.0962224 -7.38518e-05 -3.10296e-10)
(0.0849447 -5.81371e-05 -2.79656e-10)
(0.0739017 -4.41675e-05 -2.36802e-10)
(0.0631141 -3.20867e-05 -2.00475e-10)
(0.0525988 -2.19576e-05 -1.51592e-10)
(0.0423687 -1.3796e-05 -1.20488e-10)
(0.0324336 -7.57493e-06 -9.02185e-11)
(0.0228003 -3.20224e-06 -6.21158e-11)
(0.0134733 -5.59443e-07 -3.59604e-11)
(0.00445487 -7.85791e-07 -1.15651e-11)
(0.270507 -9.12233e-05 -8.29057e-11)
(0.266421 -0.000133381 -1.28481e-10)
(0.260662 -0.00017189 -1.82252e-10)
(0.25351 -0.00020135 -2.38539e-10)
(0.245199 -0.00022209 -2.94354e-10)
(0.235936 -0.000234379 -3.47824e-10)
(0.2259 -0.000238922 -3.99786e-10)
(0.215246 -0.000236679 -4.50857e-10)
(0.204113 -0.00022875 -5.00919e-10)
(0.192619 -0.000216289 -4.81937e-10)
(0.180868 -0.000200435 -4.69456e-10)
(0.168953 -0.000182263 -4.61818e-10)
(0.15695 -0.000162747 -4.57347e-10)
(0.144929 -0.000142738 -4.5607e-10)
(0.132947 -0.000122942 -4.16073e-10)
(0.121056 -0.00010392 -3.81602e-10)
(0.109296 -8.60963e-05 -3.51096e-10)
(0.0977058 -6.97778e-05 -3.2106e-10)
(0.0863141 -5.51616e-05 -2.91382e-10)
(0.0751464 -4.23496e-05 -2.46535e-10)
(0.0642234 -3.13709e-05 -2.09854e-10)
(0.053562 -2.21976e-05 -1.60832e-10)
(0.0431758 -1.47643e-05 -1.25069e-10)
(0.0330752 -8.97026e-06 -9.30408e-11)
(0.023268 -4.61875e-06 -6.3752e-11)
(0.0137596 -1.4443e-06 -3.68067e-11)
(0.00455349 -1.6428e-06 -1.18179e-11)
(0.27304 -0.000141968 2.40725e-10)
(0.268937 -0.000216636 -2.79879e-10)
(0.263152 -0.000283405 -1.76983e-10)
(0.255965 -0.000335745 -1.15962e-10)
(0.247613 -0.000374168 -5.05875e-11)
(0.238299 -0.000399105 -1.26097e-10)
(0.228203 -0.000411557 -1.70515e-10)
(0.217481 -0.000412857 -2.01186e-10)
(0.20627 -0.000404536 -2.20294e-10)
(0.194688 -0.000388206 -2.29701e-10)
(0.182842 -0.000365483 -2.32274e-10)
(0.170822 -0.000337923 -2.29762e-10)
(0.158708 -0.000306977 -2.2328e-10)
(0.146568 -0.000273963 -2.13569e-10)
(0.134462 -0.000240058 -2.0112e-10)
(0.122441 -0.000206297 -1.86794e-10)
(0.110549 -0.000173556 -1.71584e-10)
(0.0988239 -0.000142561 -1.52776e-10)
(0.0872974 -0.000113895 -1.2527e-10)
(0.0759963 -8.80131e-05 -1.06458e-10)
(0.0649428 -6.52471e-05 -8.2344e-11)
(0.0541549 -4.58153e-05 -7.29153e-11)
(0.0436471 -2.98399e-05 -5.04097e-11)
(0.0334306 -1.73455e-05 -3.85234e-11)
(0.0235137 -8.19062e-06 -2.68236e-11)
(0.0139022 -2.14895e-06 -1.56235e-11)
(0.00459945 -2.07429e-06 -5.03657e-12)
(0.2778 -0.000183544 1.558e-10)
(0.273672 -0.000273816 2.30047e-10)
(0.267851 -0.000355558 -1.7042e-10)
(0.260615 -0.000419083 -1.78648e-10)
(0.252199 -0.000465002 -1.91039e-10)
(0.242808 -0.00049384 -2.18292e-10)
(0.23262 -0.000506918 -2.54315e-10)
(0.221789 -0.00050602 -2.94451e-10)
(0.210453 -0.000493202 -3.35272e-10)
(0.19873 -0.000470625 -3.25043e-10)
(0.186727 -0.000440445 -3.19404e-10)
(0.174534 -0.000404713 -3.18305e-10)
(0.162232 -0.000365319 -3.20859e-10)
(0.14989 -0.00032395 -3.25392e-10)
(0.137571 -0.000282077 -2.99928e-10)
(0.125326 -0.000240951 -2.77868e-10)
(0.113202 -0.000201597 -2.5901e-10)
(0.101237 -0.000164822 -2.40771e-10)
(0.0894657 -0.000131229 -2.16026e-10)
(0.0779147 -0.000101243 -1.84724e-10)
(0.0666079 -7.51243e-05 -1.55476e-10)
(0.0555644 -5.30013e-05 -1.17804e-10)
(0.0447995 -3.48976e-05 -9.23671e-11)
(0.0343256 -2.07347e-05 -6.90058e-11)
(0.0241516 -1.02209e-05 -4.74464e-11)
(0.0142842 -2.94227e-06 -2.74385e-11)
(0.00472782 -3.1291e-06 -8.81363e-12)
(0.28388 -0.00023573 -4.19617e-10)
(0.279714 -0.000356205 -7.18087e-10)
(0.273836 -0.000463336 -5.52934e-10)
(0.266524 -0.000545789 -4.89356e-10)
(0.258013 -0.00060448 -4.83661e-10)
(0.248506 -0.000640366 -5.07627e-10)
(0.238181 -0.000655411 -5.49661e-10)
(0.227193 -0.000652168 -6.05185e-10)
(0.215678 -0.000633504 -6.03519e-10)
(0.203758 -0.000602388 -5.48797e-10)
(0.191537 -0.000561731 -5.10324e-10)
(0.17911 -0.000514277 -4.84226e-10)
(0.166556 -0.000462519 -4.66631e-10)
(0.153949 -0.000408658 -4.51727e-10)
(0.141351 -0.00035457 -4.10662e-10)
(0.128817 -0.000301801 -3.73054e-10)
(0.116395 -0.000251593 -3.40696e-10)
(0.104126 -0.000204903 -3.15241e-10)
(0.0920444 -0.000162434 -2.77287e-10)
(0.0801811 -0.000124671 -2.32446e-10)
(0.068561 -9.19054e-05 -1.92513e-10)
(0.0572052 -6.42717e-05 -1.47781e-10)
(0.0461307 -4.17848e-05 -1.16374e-10)
(0.0353509 -2.43378e-05 -8.67677e-11)
(0.0248763 -1.15582e-05 -5.95406e-11)
(0.0147145 -2.92413e-06 -3.43854e-11)
(0.00487078 -4.00297e-06 -1.1038e-11)
(0.293208 -0.000282879 -3.46567e-10)
(0.288987 -0.000422817 -5.63276e-10)
(0.283025 -0.000547617 -7.56192e-10)
(0.275602 -0.000642984 -6.27346e-10)
(0.26695 -0.000710027 -5.47865e-10)
(0.257273 -0.000750014 -5.00273e-10)
(0.246745 -0.000765436 -4.6886e-10)
(0.235522 -0.00075948 -4.44579e-10)
(0.223741 -0.000735681 -4.22159e-10)
(0.211523 -0.000697652 -4.00326e-10)
(0.198975 -0.00064889 -3.79672e-10)
(0.186192 -0.000592641 -3.60242e-10)
(0.173258 -0.000531814 -3.41713e-10)
(0.160247 -0.00046894 -3.23389e-10)
(0.147226 -0.000406151 -2.74579e-10)
(0.134251 -0.000345194 -2.29676e-10)
(0.121374 -0.000287445 -2.10749e-10)
(0.108638 -0.000233951 -1.94083e-10)
(0.096082 -0.00018546 -1.66391e-10)
(0.0837385 -0.000142465 -1.40907e-10)
(0.0716354 -0.000105242 -1.16461e-10)
(0.0597959 -7.38883e-05 -9.34936e-11)
(0.0482391 -4.83719e-05 -7.20339e-11)
(0.0369805 -2.85265e-05 -5.19972e-11)
(0.0260323 -1.38476e-05 -3.33047e-11)
(0.0154036 -3.63788e-06 -1.60878e-11)
(0.00510093 -5.42466e-06 -5.09817e-12)
(0.305682 -0.000325242 -4.73375e-10)
(0.30138 -0.000489111 -8.0033e-10)
(0.295298 -0.000633447 -6.39731e-10)
(0.287713 -0.000742745 -5.65802e-10)
(0.278858 -0.000818438 -5.28118e-10)
(0.268932 -0.000862342 -5.09919e-10)
(0.258112 -0.00087765 -5.04021e-10)
(0.246553 -0.000868323 -5.0686e-10)
(0.234393 -0.000838663 -5.15524e-10)
(0.221755 -0.000792994 -4.78979e-10)
(0.208748 -0.000735441 -4.51178e-10)
(0.19547 -0.000669782 -4.30419e-10)
(0.18201 -0.00059936 -4.14581e-10)
(0.168445 -0.000527045 -4.01715e-10)
(0.154846 -0.000455227 -3.65055e-10)
(0.141276 -0.000385838 -3.32783e-10)
(0.127788 -0.000320382 -3.04674e-10)
(0.114431 -0.000259983 -2.77232e-10)
(0.101248 -0.00020543 -2.47168e-10)
(0.0882749 -0.000157227 -2.09132e-10)
(0.0755423 -0.000115639 -1.76146e-10)
(0.0630768 -8.07379e-05 -1.3425e-10)
(0.0509002 -5.24613e-05 -1.0537e-10)
(0.0390305 -3.05961e-05 -7.86035e-11)
(0.0274816 -1.4523e-05 -5.3915e-11)
(0.0162646 -3.40306e-06 -3.11037e-11)
(0.00538725 -6.78217e-06 -9.972e-12)
(0.323215 -0.000347237 -5.1565e-10)
(0.318793 -0.000518554 -8.29394e-10)
(0.312531 -0.000669125 -6.99438e-10)
(0.304707 -0.000782162 -6.3414e-10)
(0.29555 -0.000859214 -5.9884e-10)
(0.28526 -0.000902484 -5.80608e-10)
(0.274013 -0.000915618 -5.73613e-10)
(0.261965 -0.000903054 -5.74058e-10)
(0.249256 -0.000869535 -5.80316e-10)
(0.236012 -0.000819757 -5.37792e-10)
(0.222347 -0.000758131 -5.04507e-10)
(0.208365 -0.000688641 -4.7809e-10)
(0.194159 -0.000614762 -4.57867e-10)
(0.179813 -0.000539431 -4.40871e-10)
(0.165405 -0.000465061 -3.98645e-10)
(0.151 -0.000393566 -3.60848e-10)
(0.136662 -0.000326415 -3.2793e-10)
(0.122442 -0.000264677 -2.97056e-10)
(0.108389 -0.000209084 -2.62925e-10)
(0.0945432 -0.000160082 -2.22159e-10)
(0.0809402 -0.000117879 -1.85412e-10)
(0.06761 -8.24959e-05 -1.43963e-10)
(0.0545778 -5.38322e-05 -1.12799e-10)
(0.0418642 -3.16363e-05 -8.40884e-11)
(0.029486 -1.51723e-05 -5.77094e-11)
(0.0174559 -3.44756e-06 -3.33321e-11)
(0.00578377 -8.5257e-06 -1.06972e-11)
(0.346371 -0.000346622 -1.52285e-10)
(0.341769 -0.000519659 -2.26813e-10)
(0.335238 -0.000670149 -2.68475e-10)
(0.327059 -0.000782203 -2.90331e-10)
(0.31746 -0.000857506 -2.98845e-10)
(0.306642 -0.000898638 -2.97063e-10)
(0.294781 -0.00090956 -3.00173e-10)
(0.282039 -0.000894971 -3.35033e-10)
(0.268559 -0.000859795 -3.70094e-10)
(0.254474 -0.000808834 -3.4867e-10)
(0.239905 -0.000746538 -3.26525e-10)
(0.224963 -0.000676869 -3.03782e-10)
(0.209751 -0.000603246 -2.81018e-10)
(0.19436 -0.000528526 -2.58478e-10)
(0.178875 -0.000455032 -2.36212e-10)
(0.163373 -0.00038459 -2.14634e-10)
(0.14792 -0.000318583 -1.94071e-10)
(0.132579 -0.000258014 -1.72368e-10)
(0.117402 -0.000203558 -1.44965e-10)
(0.102436 -0.000155619 -1.25302e-10)
(0.0877207 -0.000114378 -1.02367e-10)
(0.0732914 -7.98414e-05 -8.13561e-11)
(0.0591767 -5.19105e-05 -5.91594e-11)
(0.0454004 -3.03344e-05 -4.40125e-11)
(0.031982 -1.43029e-05 -3.02059e-11)
(0.0189365 -2.72165e-06 -1.74512e-11)
(0.00627538 -1.01986e-05 -5.59996e-12)
(0.376967 -0.000314663 -3.27407e-10)
(0.37209 -0.000469428 -5.28836e-10)
(0.365156 -0.000603699 -4.23502e-10)
(0.356449 -0.000703173 -3.67786e-10)
(0.346202 -0.000769352 -3.36e-10)
(0.334621 -0.000804783 -3.1759e-10)
(0.321887 -0.000813212 -3.07297e-10)
(0.308167 -0.000799004 -3.02458e-10)
(0.293616 -0.000766672 -2.99489e-10)
(0.278376 -0.00072056 -2.96644e-10)
(0.262578 -0.000664644 -2.94202e-10)
(0.246345 -0.000602432 -2.92439e-10)
(0.229789 -0.000536917 -2.91365e-10)
(0.213014 -0.000470581 -2.90513e-10)
(0.196116 -0.000405428 -2.67428e-10)
(0.179178 -0.000343024 -2.46926e-10)
(0.162279 -0.000284553 -2.29602e-10)
(0.145487 -0.000230869 -2.13362e-10)
(0.128863 -0.00018255 -1.9356e-10)
(0.11246 -0.000139941 -1.66913e-10)
(0.0963238 -0.000103204 -1.42839e-10)
(0.0804933 -7.23493e-05 -1.15539e-10)
(0.0650018 -4.73135e-05 -9.51606e-11)
(0.0498765 -2.78864e-05 -7.08915e-11)
(0.0351397 -1.32197e-05 -4.85599e-11)
(0.0208087 -2.1449e-06 -2.79989e-11)
(0.00689672 -1.20204e-05 -8.97402e-12)
(0.415576 -0.000255066 -3.555e-10)
(0.410291 -0.000382529 -5.48156e-10)
(0.402766 -0.000492358 -4.48207e-10)
(0.393298 -0.000573697 -3.79526e-10)
(0.382131 -0.000627821 -3.39645e-10)
(0.369482 -0.000656957 -3.13939e-10)
(0.355546 -0.00066424 -2.96618e-10)
(0.340503 -0.00065325 -2.8425e-10)
(0.32452 -0.000627643 -2.74851e-10)
(0.307755 -0.000590898 -2.6732e-10)
(0.290355 -0.000546179 -2.61169e-10)
(0.272456 -0.000496263 -2.56197e-10)
(0.254185 -0.000443515 -2.52041e-10)
(0.235659 -0.000389903 -2.5146e-10)
(0.216986 -0.00033702 -2.22068e-10)
(0.198261 -0.00028613 -1.98164e-10)
(0.179572 -0.000238203 -1.76657e-10)
(0.160997 -0.00019396 -1.58317e-10)
(0.142604 -0.000153912 -1.30368e-10)
(0.124453 -0.00011839 -1.01714e-10)
(0.106596 -8.75801e-05 -7.62603e-11)
(0.0890767 -6.15539e-05 -5.51273e-11)
(0.0719322 -4.03306e-05 -4.41166e-11)
(0.0551931 -2.37902e-05 -3.30284e-11)
(0.0388844 -1.11033e-05 -2.27594e-11)
(0.0230255 -1.0882e-06 -1.31744e-11)
(0.00763113 -1.35993e-05 -4.232e-12)
(0.463025 -0.000167888 -2.35083e-10)
(0.457164 -0.000251236 -3.76776e-10)
(0.448811 -0.000323346 -5.03108e-10)
(0.438291 -0.00037734 -3.78694e-10)
(0.425871 -0.000413973 -2.93968e-10)
(0.411791 -0.000434662 -2.31107e-10)
(0.396265 -0.000441362 -1.80374e-10)
(0.379495 -0.000436284 -1.36928e-10)
(0.36167 -0.000421669 -9.89057e-11)
(0.342967 -0.00039964 -9.62324e-11)
(0.323551 -0.000372126 -9.23675e-11)
(0.303577 -0.00034083 -8.65626e-11)
(0.283188 -0.000307216 -7.87605e-11)
(0.262517 -0.000272526 -6.91467e-11)
(0.241685 -0.000237794 -5.82447e-11)
(0.2208 -0.00020387 -4.71559e-11)
(0.199959 -0.000171439 -5.18927e-11)
(0.179251 -0.000141048 -5.72781e-11)
(0.158752 -0.000113118 -5.05397e-11)
(0.138527 -8.79665e-05 -4.52624e-11)
(0.118636 -6.58148e-05 -3.9961e-11)
(0.0991252 -4.68121e-05 -3.49455e-11)
(0.0800371 -3.10884e-05 -3.01518e-11)
(0.0614051 -1.86447e-05 -2.125e-11)
(0.0432562 -8.71365e-06 -1.29025e-11)
(0.0256116 -1.38894e-07 -4.66502e-12)
(0.00848717 -1.49694e-05 -1.64151e-12)
(0.518533 -5.86484e-05 -2.94759e-10)
(0.511908 -9.02926e-05 -4.6267e-10)
(0.502468 -0.000117836 -3.65765e-10)
(0.490582 -0.000139531 -2.9509e-10)
(0.476558 -0.000155697 -2.43417e-10)
(0.460665 -0.000166724 -2.05701e-10)
(0.443154 -0.000173111 -1.77712e-10)
(0.424254 -0.000175396 -1.56674e-10)
(0.404181 -0.000174107 -1.40923e-10)
(0.383137 -0.000169745 -1.29428e-10)
(0.361311 -0.000162778 -1.20744e-10)
(0.338878 -0.000153646 -1.13969e-10)
(0.316 -0.000142765 -1.08577e-10)
(0.292827 -0.00013054 -1.04252e-10)
(0.269492 -0.000117359 -1.00801e-10)
(0.246119 -0.000103599 -9.80981e-11)
(0.222814 -8.96214e-05 -9.63386e-11)
(0.199675 -7.57715e-05 -9.54654e-11)
(0.176786 -6.23714e-05 -8.6872e-11)
(0.154219 -4.97169e-05 -7.26451e-11)
(0.132037 -3.80713e-05 -6.02785e-11)
(0.110294 -2.76699e-05 -4.89108e-11)
(0.0890334 -1.87638e-05 -3.84082e-11)
(0.0682912 -1.14917e-05 -2.86885e-11)
(0.0480963 -5.19471e-06 -1.96968e-11)
(0.0284713 1.20835e-06 -1.13703e-11)
(0.00943247 -1.57751e-05 -3.64607e-12)
(0.580782 7.16541e-05 -2.75607e-10)
(0.573215 0.000105035 -4.26712e-10)
(0.562444 0.000133126 -3.57938e-10)
(0.548901 0.000152186 -3.10309e-10)
(0.532946 0.000162406 -2.86176e-10)
(0.514898 0.000164652 -2.73726e-10)
(0.495046 0.000160145 -2.69412e-10)
(0.473657 0.000150307 -2.71002e-10)
(0.450982 0.000136609 -2.77005e-10)
(0.427252 0.000120454 -2.86091e-10)
(0.402681 0.000103102 -2.73358e-10)
(0.377468 8.56139e-05 -2.42064e-10)
(0.351794 6.884e-05 -2.16135e-10)
(0.325826 5.34115e-05 -1.94761e-10)
(0.299713 3.97555e-05 -1.77116e-10)
(0.273589 2.8116e-05 -1.62319e-10)
(0.247572 1.85812e-05 -1.4954e-10)
(0.221768 1.11121e-05 -1.40123e-10)
(0.196268 5.57073e-06 -1.24621e-10)
(0.171151 1.74797e-06 -1.03633e-10)
(0.146483 -6.10407e-07 -8.57282e-11)
(0.122321 -1.79123e-06 -6.93153e-11)
(0.0987119 -2.14287e-06 -5.4307e-11)
(0.0756934 -1.93443e-06 -4.05174e-11)
(0.0532954 -6.48203e-07 -2.78071e-11)
(0.0315409 2.69318e-06 -1.6054e-11)
(0.0104464 -1.59697e-05 -5.14928e-12)
(0.646925 0.000219556 -2.72641e-10)
(0.63828 0.000325049 -4.45647e-10)
(0.625993 0.0004158 -3.40914e-10)
(0.610574 0.000481784 -2.83547e-10)
(0.592448 0.000523442 -2.51477e-10)
(0.571993 0.000542817 -2.30932e-10)
(0.549547 0.000542817 -2.15893e-10)
(0.525423 0.00052684 -2.0369e-10)
(0.499907 0.000498416 -1.92946e-10)
(0.473264 0.00046095 -1.82812e-10)
(0.445736 0.000417546 -1.72718e-10)
(0.417545 0.000370911 -1.62726e-10)
(0.388894 0.000323311 -1.53192e-10)
(0.359965 0.000276568 -1.44273e-10)
(0.330922 0.000232075 -1.35988e-10)
(0.30191 0.000190843 -1.28356e-10)
(0.273057 0.000153545 -1.21581e-10)
(0.244477 0.000120568 -1.14736e-10)
(0.216266 9.20623e-05 -1.04464e-10)
(0.188508 6.79969e-05 -8.76558e-11)
(0.161274 4.82e-05 -7.26829e-11)
(0.134622 3.23922e-05 -5.90897e-11)
(0.1086 2.01739e-05 -4.64861e-11)
(0.0832486 1.11759e-05 -3.4793e-11)
(0.058597 5.76502e-06 -2.39311e-11)
(0.0346682 4.7472e-06 -1.38352e-11)
(0.0114783 -1.53211e-05 -4.44102e-12)
(0.713784 0.000381886 -2.79319e-10)
(0.703987 0.000569329 -4.44844e-10)
(0.690086 0.000731656 -3.35813e-10)
(0.672679 0.000852292 -2.69309e-10)
(0.652265 0.000931818 -2.27199e-10)
(0.629286 0.000973396 -1.99211e-10)
(0.604136 0.000981572 -1.78997e-10)
(0.577175 0.000961704 -1.63375e-10)
(0.548729 0.000919422 -1.50671e-10)
(0.519097 0.000860207 -1.3998e-10)
(0.48855 0.000789128 -1.30777e-10)
(0.457334 0.000710687 -1.22755e-10)
(0.42567 0.000628739 -1.15736e-10)
(0.393757 0.000546477 -1.09626e-10)
(0.361772 0.000466452 -1.04373e-10)
(0.329871 0.000390626 -9.98593e-11)
(0.298189 0.000320429 -9.60423e-11)
(0.266847 0.000256837 -9.27427e-11)
(0.235947 0.000200439 -8.50461e-11)
(0.205575 0.000151503 -7.08278e-11)
(0.175805 0.00011005 -5.86414e-11)
(0.146698 7.58946e-05 -4.73924e-11)
(0.118302 4.86577e-05 -3.71424e-11)
(0.0906567 2.79185e-05 -2.77453e-11)
(0.0637926 1.38854e-05 -1.90697e-11)
(0.0377315 7.18122e-06 -1.10233e-11)
(0.0124885 -1.38887e-05 -3.53901e-12)
(0.77763 0.000549435 1.98507e-10)
(0.766682 0.000820728 7.25483e-11)
(0.751174 0.00105734 4.76649e-12)
(0.731794 0.00123588 -2.86906e-11)
(0.709118 0.00135679 -5.91161e-12)
(0.683653 0.00142408 -1.98507e-11)
(0.655852 0.00144369 -2.87389e-11)
(0.626121 0.00142273 -3.33984e-11)
(0.594827 0.00136877 -3.46079e-11)
(0.562302 0.00128926 -3.30246e-11)
(0.528846 0.00119119 -2.93773e-11)
(0.494725 0.00108086 -2.41063e-11)
(0.46018 0.000963767 -1.77151e-11)
(0.425423 0.000844553 -1.03972e-11)
(0.390644 0.000727024 -1.80916e-11)
(0.356006 0.000614232 -2.45044e-11)
(0.321654 0.000508481 -4.18023e-11)
(0.287712 0.00041143 -4.41775e-11)
(0.254285 0.000324222 -4.11408e-11)
(0.221464 0.00024754 -3.46377e-11)
(0.189322 0.00018169 -3.10848e-11)
(0.157922 0.000126666 -2.87255e-11)
(0.127312 8.2184e-05 -2.28015e-11)
(0.0975327 4.78283e-05 -1.70931e-11)
(0.0686121 2.36543e-05 -1.1764e-11)
(0.0405714 1.00998e-05 -6.80576e-12)
(0.0134244 -1.17104e-05 -2.18634e-12)
(0.835392 0.000707166 -1.41474e-10)
(0.823368 0.00105925 -2.39335e-10)
(0.806358 0.00136776 -1.67639e-10)
(0.785138 0.00160306 -1.27069e-10)
(0.760359 0.00176537 -1.01573e-10)
(0.732591 0.00185939 -8.60786e-11)
(0.702342 0.00189218 -7.61988e-11)
(0.670062 0.00187235 -6.95573e-11)
(0.636157 0.00180923 -6.47997e-11)
(0.60099 0.00171204 -6.12411e-11)
(0.564883 0.00158943 -5.85814e-11)
(0.528126 0.00144941 -5.66765e-11)
(0.490973 0.00129902 -5.54672e-11)
(0.453651 0.00114431 -5.4893e-11)
(0.416357 0.000990346 -5.49178e-11)
(0.379263 0.000841232 -5.54094e-11)