/*--------------------------------*- C++ -*----------------------------------*\
| =========                 |                                                 |
| \\      /  F ield         | OpenFOAM: The Open Source CFD Toolbox           |
|  \\    /   O peration     | Version:  2106                                  |
|   \\  /    A nd           | Website:  www.openfoam.com                      |
|    \\/     M anipulation  |                                                 |
\*---------------------------------------------------------------------------*/
FoamFile
{
    version     2.0;
    format      ascii;
    arch        "LSB;label=32;scalar=64";
    class       volScalarField;
    location    "110.00057";
    object      A2CH2-2;
}
// * * * * * * * * * * * * * * * * * * * * * * * * * * * * * * * * * * * * * //

dimensions      [0 0 0 0 0 0 0];

internalField   nonuniform List<scalar> 
3360
(
2.99912e-26
3.18676e-26
3.45099e-26
3.77932e-26
4.16088e-26
4.58548e-26
5.04335e-26
5.52498e-26
6.0212e-26
6.52325e-26
7.0229e-26
7.51264e-26
7.98573e-26
8.43632e-26
8.85953e-26
9.25142e-26
9.609e-26
9.93022e-26
1.02139e-25
1.04597e-25
1.0668e-25
1.08398e-25
1.09767e-25
1.10807e-25
1.11544e-25
1.12005e-25
1.1222e-25
1.51641e-25
1.62135e-25
1.77136e-25
1.96148e-25
2.18795e-25
2.44757e-25
2.73748e-25
3.05489e-25
3.39698e-25
3.76081e-25
4.14321e-25
4.54073e-25
4.94956e-25
5.36556e-25
5.78422e-25
6.20077e-25
6.61008e-25
7.0068e-25
7.38539e-25
7.74022e-25
8.06571e-25
8.35648e-25
8.60751e-25
8.81429e-25
8.97301e-25
9.08063e-25
9.13503e-25
5.79492e-25
6.27146e-25
6.96113e-25
7.84927e-25
8.92656e-25
1.01856e-24
1.16191e-24
1.32181e-24
1.49712e-24
1.68634e-24
1.88759e-24
2.09861e-24
2.31683e-24
2.53941e-24
2.76322e-24
2.98494e-24
3.20118e-24
3.40854e-24
3.60373e-24
3.78368e-24
3.94568e-24
4.08739e-24
4.207e-24
4.30318e-24
4.37518e-24
4.42275e-24
4.44617e-24
2.09333e-24
2.28989e-24
2.57796e-24
2.95417e-24
3.41726e-24
3.96642e-24
4.60022e-24
5.31584e-24
6.10854e-24
6.97136e-24
7.895e-24
8.86782e-24
9.87617e-24
1.09046e-23
1.19364e-23
1.29542e-23
1.39403e-23
1.48782e-23
1.57525e-23
1.65499e-23
1.72593e-23
1.78723e-23
1.83833e-23
1.87892e-23
1.90893e-23
1.92854e-23
1.93809e-23
7.77851e-24
8.5809e-24
9.76433e-24
1.13215e-23
1.32532e-23
1.55605e-23
1.82406e-23
2.12824e-23
2.46649e-23
2.8355e-23
3.23082e-23
3.64692e-23
4.07734e-23
4.51497e-23
4.95228e-23
5.38166e-23
5.79571e-23
6.18757e-23
6.55108e-23
6.88105e-23
7.17332e-23
7.42486e-23
7.63374e-23
7.79908e-23
7.92096e-23
8.00035e-23
8.03891e-23
2.9657e-23
3.29009e-23
3.77047e-23
4.40517e-23
5.1955e-23
6.14263e-23
7.24557e-23
8.49972e-23
9.89592e-23
1.14199e-22
1.30525e-22
1.47697e-22
1.6544e-22
1.8345e-22
2.01411e-22
2.19006e-22
2.35933e-22
2.51912e-22
2.66699e-22
2.80088e-22
2.9192e-22
3.0208e-22
3.10499e-22
3.1715e-22
3.22045e-22
3.25227e-22
3.26771e-22
1.14991e-22
1.28045e-22
1.47416e-22
1.7307e-22
2.05081e-22
2.43509e-22
2.88312e-22
3.39289e-22
3.96046e-22
4.57979e-22
5.24277e-22
5.93945e-22
6.65842e-22
7.38727e-22
8.11314e-22
8.82327e-22
9.5055e-22
1.01487e-21
1.07432e-21
1.1281e-21
1.17558e-21
1.21631e-21
1.25003e-21
1.27666e-21
1.29624e-21
1.30896e-21
1.31513e-21
4.50145e-22
5.02297e-22
5.79803e-22
6.82585e-22
8.11008e-22
9.65349e-22
1.14546e-21
1.35052e-21
1.57893e-21
1.82819e-21
2.09498e-21
2.37526e-21
2.66436e-21
2.95727e-21
3.24879e-21
3.53378e-21
3.80736e-21
4.0651e-21
4.30313e-21
4.51826e-21
4.70803e-21
4.87071e-21
5.00531e-21
5.1115e-21
5.18954e-21
5.24023e-21
5.2648e-21
1.77324e-21
1.98154e-21
2.29129e-21
2.70235e-21
3.21627e-21
3.8342e-21
4.55548e-21
5.37678e-21
6.29145e-21
7.28938e-21
8.35709e-21
9.47819e-21
1.0634e-20
1.18043e-20
1.29685e-20
1.41059e-20
1.51972e-20
1.62248e-20
1.71734e-20
1.80304e-20
1.87862e-20
1.94339e-20
1.99697e-20
2.03922e-20
2.07028e-20
2.09045e-20
2.10022e-20
6.99873e-21
7.8272e-21
9.05992e-21
1.06968e-20
1.27444e-20
1.52075e-20
1.80837e-20
2.13594e-20
2.50081e-20
2.89888e-20
3.32476e-20
3.77186e-20
4.2327e-20
4.6992e-20
5.16307e-20
5.61614e-20
6.05068e-20
6.45969e-20
6.8371e-20
7.17794e-20
7.47837e-20
7.73575e-20
7.94856e-20
8.11635e-20
8.23961e-20
8.31963e-20
8.35839e-20
2.76765e-20
3.09722e-20
3.58768e-20
4.23904e-20
5.05399e-20
6.03441e-20
7.17924e-20
8.483e-20
9.93488e-20
1.15185e-19
1.32122e-19
1.49897e-19
1.6821e-19
1.86741e-19
2.0516e-19
2.23144e-19
2.40385e-19
2.56607e-19
2.71572e-19
2.85083e-19
2.96989e-19
3.07186e-19
3.15616e-19
3.22262e-19
3.27143e-19
3.30312e-19
3.31847e-19
1.09382e-19
1.22455e-19
1.41915e-19
1.67764e-19
2.00107e-19
2.3902e-19
2.84458e-19
3.362e-19
3.93812e-19
4.5664e-19
5.23818e-19
5.94297e-19
6.66889e-19
7.40318e-19
8.13275e-19
8.84476e-19
9.52711e-19
1.01689e-18
1.07606e-18
1.12947e-18
1.17651e-18
1.21678e-18
1.25006e-18
1.27629e-18
1.29555e-18
1.30804e-18
1.31409e-18
4.32075e-19
4.83904e-19
5.61043e-19
6.63491e-19
7.91654e-19
9.45805e-19
1.12574e-18
1.33055e-18
1.5585e-18
1.80695e-18
2.07246e-18
2.35085e-18
2.63742e-18
2.92712e-18
3.21478e-18
3.49536e-18
3.7641e-18
4.01672e-18
4.24953e-18
4.45952e-18
4.64442e-18
4.80266e-18
4.93337e-18
5.03634e-18
5.11192e-18
5.16096e-18
5.1847e-18
1.70163e-18
1.90632e-18
2.21095e-18
2.61546e-18
3.1214e-18
3.72974e-18
4.43954e-18
5.24706e-18
6.14523e-18
7.12356e-18
8.16827e-18
9.26283e-18
1.03886e-17
1.15257e-17
1.26539e-17
1.37534e-17
1.48056e-17
1.57939e-17
1.6704e-17
1.75243e-17
1.8246e-17
1.88632e-17
1.93728e-17
1.97739e-17
2.00682e-17
2.02591e-17
2.03514e-17
6.67821e-18
7.48393e-18
8.68264e-18
1.02738e-17
1.22628e-17
1.46528e-17
1.74391e-17
2.0606e-17
2.41247e-17
2.79531e-17
3.20362e-17
3.63088e-17
4.06975e-17
4.51247e-17
4.95116e-17
5.37813e-17
5.78626e-17
6.16915e-17
6.52135e-17
6.83847e-17
7.11721e-17
7.35539e-17
7.55186e-17
7.70642e-17
7.81973e-17
7.89317e-17
7.92868e-17
2.60506e-17
2.92004e-17
3.38844e-17
4.00978e-17
4.78585e-17
5.71744e-17
6.80229e-17
8.03373e-17
9.40004e-17
1.08843e-16
1.24648e-16
1.41159e-16
1.5809e-16
1.7514e-16
1.92005e-16
2.08392e-16
2.24029e-16
2.38675e-16
2.52125e-16
2.64218e-16
2.74832e-16
2.8389e-16
2.91352e-16
2.97215e-16
3.01509e-16
3.04289e-16
3.05632e-16
1.00837e-16
1.13046e-16
1.31186e-16
1.55226e-16
1.85213e-16
2.21156e-16
2.62938e-16
3.10274e-16
3.62684e-16
4.19492e-16
4.79841e-16
5.42732e-16
6.07064e-16
6.71689e-16
7.35457e-16
7.97269e-16
8.56115e-16
9.11108e-16
9.61507e-16
1.00673e-15
1.04634e-15
1.08009e-15
1.10785e-15
1.12962e-15
1.14555e-15
1.15585e-15
1.16082e-15
3.86373e-16
4.33117e-16
5.02496e-16
5.94294e-16
7.0859e-16
8.45279e-16
1.00378e-15
1.18285e-15
1.38054e-15
1.59413e-15
1.82031e-15
2.05524e-15
2.29476e-15
2.53457e-15
2.77044e-15
2.99835e-15
3.21466e-15
3.41622e-15
3.60044e-15
3.76529e-15
3.90937e-15
4.03182e-15
4.13234e-15
4.21105e-15
4.26853e-15
4.30564e-15
4.32352e-15
1.46187e-15
1.63801e-15
1.89898e-15
2.24351e-15
2.67131e-15
3.18132e-15
3.77062e-15
4.43387e-15
5.16306e-15
5.94764e-15
6.77484e-15
7.6303e-15
8.49868e-15
9.36442e-15
1.02124e-14
1.10285e-14
1.18001e-14
1.25165e-14
1.3169e-14
1.37511e-14
1.42583e-14
1.46882e-14
1.50403e-14
1.53154e-14
1.55158e-14
1.5645e-14
1.57072e-14
5.44601e-15
6.09581e-15
7.05634e-15
8.32047e-15
9.88427e-15
1.17406e-14
1.38754e-14
1.6266e-14
1.88803e-14
2.16779e-14
2.46114e-14
2.76285e-14
3.06747e-14
3.36957e-14
3.66398e-14
3.94596e-14
4.21136e-14
4.45673e-14
4.67932e-14
4.87716e-14
5.04898e-14
5.19417e-14
5.31272e-14
5.40512e-14
5.4723e-14
5.51551e-14
5.53627e-14
1.99207e-14
2.22554e-14
2.56955e-14
3.02042e-14
3.57539e-14
4.2305e-14
4.97934e-14
5.81253e-14
6.71772e-14
7.67991e-14
8.68213e-14
9.7062e-14
1.07336e-13
1.17464e-13
1.27277e-13
1.36625e-13
1.45378e-13
1.53432e-13
1.60707e-13
1.67147e-13
1.72719e-13
1.77412e-13
1.81233e-13
1.84203e-13
1.86357e-13
1.8774e-13
1.88403e-13
7.13233e-14
7.94422e-14
9.13567e-14
1.0689e-13
1.25891e-13
1.48167e-13
1.73443e-13
2.01353e-13
2.31441e-13
2.63177e-13
2.95986e-13
3.29266e-13
3.62422e-13
3.9489e-13
4.26153e-13
4.55762e-13
4.83339e-13
5.08589e-13
5.31292e-13
5.51308e-13
5.68562e-13
5.83046e-13
5.94801e-13
6.03914e-13
6.10509e-13
6.14733e-13
6.16754e-13
2.49144e-13
2.76308e-13
3.15975e-13
3.67364e-13
4.2977e-13
5.02348e-13
5.84013e-13
6.7342e-13
7.68987e-13
8.68957e-13
9.71476e-13
1.07468e-12
1.17675e-12
1.27604e-12
1.37104e-12
1.4605e-12
1.54338e-12
1.6189e-12
1.68651e-12
1.74587e-12
1.79687e-12
1.83953e-12
1.87407e-12
1.90077e-12
1.92005e-12
1.93237e-12
1.93826e-12
8.46003e-13
9.32952e-13
1.05923e-12
1.22168e-12
1.41738e-12
1.64304e-12
1.89471e-12
2.1678e-12
2.45718e-12
2.75738e-12
3.06279e-12
3.36795e-12
3.66769e-12
3.95737e-12
4.23293e-12
4.49101e-12
4.72894e-12
4.94477e-12
5.13722e-12
5.30561e-12
5.44978e-12
5.57007e-12
5.66717e-12
5.74209e-12
5.79607e-12
5.83053e-12
5.84696e-12
2.78212e-12
3.04738e-12
3.43043e-12
3.91969e-12
4.50437e-12
5.17279e-12
5.91184e-12
6.70698e-12
7.54265e-12
8.4028e-12
9.27152e-12
1.01336e-11
1.09752e-11
1.17839e-11
1.25492e-11
1.32625e-11
1.39174e-11
1.45092e-11
1.5035e-11
1.54937e-11
1.58854e-11
1.62114e-11
1.6474e-11
1.66762e-11
1.68216e-11
1.69143e-11
1.69585e-11
8.82985e-12
9.60015e-12
1.07065e-11
1.21102e-11
1.37752e-11
1.56639e-11
1.77359e-11
1.99484e-11
2.22569e-11
2.46172e-11
2.69862e-11
2.93237e-11
3.15937e-11
3.37646e-11
3.58102e-11
3.77098e-11
3.94476e-11
4.10131e-11
4.24005e-11
4.36076e-11
4.46361e-11
4.54905e-11
4.61775e-11
4.67058e-11
4.70853e-11
4.73269e-11
4.74419e-11
2.69791e-11
2.91128e-11
3.21631e-11
3.60108e-11
4.0546e-11
4.5657e-11
5.12282e-11
5.71407e-11
6.32745e-11
6.95122e-11
7.57425e-11
8.1863e-11
8.77829e-11
9.34243e-11
9.87231e-11
1.03629e-10
1.08107e-10
1.12131e-10
1.1569e-10
1.18781e-10
1.21411e-10
1.23593e-10
1.25345e-10
1.26691e-10
1.27656e-10
1.28271e-10
1.28563e-10
7.92455e-11
8.49101e-11
9.29779e-11
1.03109e-10
1.14993e-10
1.2832e-10
1.42779e-10
1.58055e-10
1.73839e-10
1.8983e-10
2.05749e-10
2.21342e-10
2.36384e-10
2.50685e-10
2.64091e-10
2.76482e-10
2.87772e-10
2.97905e-10
3.06856e-10
3.14623e-10
3.21223e-10
3.26694e-10
3.31085e-10
3.34455e-10
3.36873e-10
3.3841e-10
3.39141e-10
2.23524e-10
2.38026e-10
2.58628e-10
2.84423e-10
3.14586e-10
3.48309e-10
3.84792e-10
4.23239e-10
4.62872e-10
5.0295e-10
5.42781e-10
5.8174e-10
6.1928e-10
6.54935e-10
6.8833e-10
7.19174e-10
7.47261e-10
7.72458e-10
7.94705e-10
8.14001e-10
8.30394e-10
8.43978e-10
8.54877e-10
8.63241e-10
8.6924e-10
8.73052e-10
8.74864e-10
6.04433e-10
6.40411e-10
6.91462e-10
7.55295e-10
8.29837e-10
9.13088e-10
1.00307e-09
1.09784e-09
1.1955e-09
1.29424e-09
1.39238e-09
1.48839e-09
1.58093e-09
1.66887e-09
1.75128e-09
1.82743e-09
1.89681e-09
1.95909e-09
2.0141e-09
2.06183e-09
2.1024e-09
2.13603e-09
2.16302e-09
2.18373e-09
2.19859e-09
2.20803e-09
2.21252e-09
1.56074e-09
1.64719e-09
1.76984e-09
1.9232e-09
2.10233e-09
2.30249e-09
2.51901e-09
2.74731e-09
2.98289e-09
3.22147e-09
3.45903e-09
3.69189e-09
3.91681e-09
4.13097e-09
4.33208e-09
4.5183e-09
4.68829e-09
4.84115e-09
4.97642e-09
5.09396e-09
5.19401e-09
5.27704e-09
5.34373e-09
5.39497e-09
5.43174e-09
5.45513e-09
5.46624e-09
3.81878e-09
4.01765e-09
4.29992e-09
4.65309e-09
5.06601e-09
5.52802e-09
6.02864e-09
6.55753e-09
7.10458e-09
7.66001e-09
8.21461e-09
8.75984e-09
9.28804e-09
9.79254e-09
1.02677e-08
1.0709e-08
1.1113e-08
1.14773e-08
1.18004e-08
1.20819e-08
1.2322e-08
1.25216e-08
1.26822e-08
1.28057e-08
1.28945e-08
1.29509e-08
1.29778e-08
8.76071e-09
9.18968e-09
9.79856e-09
1.05605e-08
1.14518e-08
1.24495e-08
1.35316e-08
1.46761e-08
1.58614e-08
1.70668e-08
1.82724e-08
1.94598e-08
2.06122e-08
2.17151e-08
2.27558e-08
2.37242e-08
2.46122e-08
2.54143e-08
2.61268e-08
2.67484e-08
2.72791e-08
2.77208e-08
2.80765e-08
2.83502e-08
2.8547e-08
2.86722e-08
2.87318e-08
1.86738e-08
1.95241e-08
2.07299e-08
2.2237e-08
2.39973e-08
2.59654e-08
2.80968e-08
3.03481e-08
3.26769e-08
3.50422e-08
3.74052e-08
3.97301e-08
4.19842e-08
4.41391e-08
4.61706e-08
4.80589e-08
4.97889e-08
5.13499e-08
5.27354e-08
5.39427e-08
5.49727e-08
5.5829e-08
5.65179e-08
5.70478e-08
5.74282e-08
5.76702e-08
5.77852e-08
3.68615e-08
3.83967e-08
4.0569e-08
4.32766e-08
4.6429e-08
4.99409e-08
5.37301e-08
5.77169e-08
6.18247e-08
6.59803e-08
7.01155e-08
7.41679e-08
7.8082e-08
8.18097e-08
8.53111e-08
8.85544e-08
9.15159e-08
9.41797e-08
9.6537e-08
9.85855e-08
1.00329e-07
1.01775e-07
1.02936e-07
1.03827e-07
1.04466e-07
1.04872e-07
1.05064e-07
6.75921e-08
7.0124e-08
7.36958e-08
7.81306e-08
8.32708e-08
8.89687e-08
9.50838e-08
1.01483e-07
1.08038e-07
1.14633e-07
1.21159e-07
1.27519e-07
1.33629e-07
1.39419e-07
1.4483e-07
1.4982e-07
1.54357e-07
1.58422e-07
1.62006e-07
1.6511e-07
1.67744e-07
1.69924e-07
1.7167e-07
1.73007e-07
1.73965e-07
1.74573e-07
1.74861e-07
1.15923e-07
1.19771e-07
1.25183e-07
1.31873e-07
1.39588e-07
1.48093e-07
1.57167e-07
1.66605e-07
1.76215e-07
1.85823e-07
1.95274e-07
2.04433e-07
2.13183e-07
2.21432e-07
2.29105e-07
2.36149e-07
2.42527e-07
2.4822e-07
2.53223e-07
2.57544e-07
2.61201e-07
2.64221e-07
2.66636e-07
2.68483e-07
2.69804e-07
2.70642e-07
2.71039e-07
1.87368e-07
1.92818e-07
2.00455e-07
2.09857e-07
2.20646e-07
2.32475e-07
2.45025e-07
2.58003e-07
2.71141e-07
2.84203e-07
2.96982e-07
3.09301e-07
3.21014e-07
3.32006e-07
3.42188e-07
3.515e-07
3.59904e-07
3.67383e-07
3.73939e-07
3.79589e-07
3.84362e-07
3.88296e-07
3.91439e-07
3.93841e-07
3.95558e-07
3.96646e-07
3.97161e-07
2.87372e-07
2.94632e-07
3.04777e-07
3.17218e-07
3.31434e-07
3.46946e-07
3.63321e-07
3.8017e-07
3.97144e-07
4.1394e-07
4.30297e-07
4.45999e-07
4.6087e-07
4.74775e-07
4.87615e-07
4.99324e-07
5.09864e-07
5.19225e-07
5.27415e-07
5.34462e-07
5.40408e-07
5.45304e-07
5.49213e-07
5.52199e-07
5.54333e-07
5.55684e-07
5.56325e-07
4.20679e-07
4.29867e-07
4.42673e-07
4.5833e-07
4.76155e-07
4.9553e-07
5.15903e-07
5.3678e-07
5.57731e-07
5.78384e-07
5.98427e-07
6.17605e-07
6.35715e-07
6.52603e-07
6.68162e-07
6.8232e-07
6.95043e-07
7.06325e-07
7.16184e-07
7.24659e-07
7.31805e-07
7.37687e-07
7.4238e-07
7.45965e-07
7.48527e-07
7.50149e-07
7.50919e-07
5.90834e-07
6.01977e-07
6.1748e-07
6.36388e-07
6.57853e-07
6.81116e-07
7.05502e-07
7.30416e-07
7.55345e-07
7.79851e-07
8.03572e-07
8.26216e-07
8.47554e-07
8.67416e-07
8.85684e-07
9.02284e-07
9.17185e-07
9.30385e-07
9.41912e-07
9.51816e-07
9.60162e-07
9.67031e-07
9.72512e-07
9.76698e-07
9.7969e-07
9.81586e-07
9.82486e-07
7.99966e-07
8.13027e-07
8.31171e-07
8.53259e-07
8.78283e-07
9.05345e-07
9.3365e-07
9.62505e-07
9.91316e-07
1.01958e-06
1.0469e-06
1.07293e-06
1.09742e-06
1.12019e-06
1.14111e-06
1.1601e-06
1.17714e-06
1.19222e-06
1.20539e-06
1.2167e-06
1.22623e-06
1.23407e-06
1.24033e-06
1.24511e-06
1.24853e-06
1.25069e-06
1.25172e-06
1.04888e-06
1.06377e-06
1.08445e-06
1.10959e-06
1.13802e-06
1.16873e-06
1.20079e-06
1.23343e-06
1.26597e-06
1.29786e-06
1.32863e-06
1.35792e-06
1.38546e-06
1.41104e-06
1.43453e-06
1.45584e-06
1.47495e-06
1.49186e-06
1.50662e-06
1.5193e-06
1.52998e-06
1.53878e-06
1.54579e-06
1.55116e-06
1.55499e-06
1.55742e-06
1.55858e-06
1.3373e-06
1.35393e-06
1.37701e-06
1.40503e-06
1.43671e-06
1.47087e-06
1.50651e-06
1.54276e-06
1.57885e-06
1.61419e-06
1.64827e-06
1.68069e-06
1.71115e-06
1.73942e-06
1.76538e-06
1.78892e-06
1.81003e-06
1.8287e-06
1.845e-06
1.859e-06
1.8708e-06
1.88051e-06
1.88827e-06
1.89419e-06
1.89843e-06
1.90112e-06
1.90239e-06
1.6642e-06
1.68248e-06
1.70781e-06
1.73857e-06
1.7733e-06
1.81074e-06
1.84977e-06
1.88944e-06
1.92892e-06
1.96754e-06
2.00477e-06
2.04017e-06
2.07342e-06
2.10428e-06
2.1326e-06
2.15828e-06
2.1813e-06
2.20167e-06
2.21945e-06
2.23472e-06
2.24759e-06
2.25819e-06
2.26665e-06
2.27312e-06
2.27775e-06
2.28068e-06
2.28208e-06
2.02811e-06
2.04793e-06
2.0754e-06
2.10873e-06
2.14636e-06
2.1869e-06
2.22914e-06
2.27205e-06
2.31475e-06
2.3565e-06
2.39673e-06
2.43498e-06
2.47089e-06
2.50422e-06
2.53479e-06
2.56253e-06
2.58738e-06
2.60938e-06
2.62858e-06
2.64507e-06
2.65897e-06
2.67041e-06
2.67955e-06
2.68654e-06
2.69154e-06
2.69472e-06
2.69623e-06
2.42728e-06
2.44857e-06
2.47805e-06
2.51382e-06
2.5542e-06
2.59768e-06
2.64298e-06
2.68897e-06
2.73472e-06
2.77946e-06
2.82256e-06
2.86352e-06
2.90197e-06
2.93766e-06
2.97039e-06
3.00008e-06
3.02669e-06
3.05024e-06
3.0708e-06
3.08846e-06
3.10334e-06
3.1156e-06
3.12539e-06
3.13288e-06
3.13824e-06
3.14164e-06
3.14326e-06
2.85989e-06
2.88256e-06
2.91396e-06
2.95206e-06
2.99504e-06
3.04132e-06
3.08952e-06
3.13846e-06
3.18713e-06
3.23471e-06
3.28054e-06
3.32409e-06
3.36498e-06
3.40291e-06
3.43771e-06
3.46928e-06
3.49756e-06
3.5226e-06
3.54445e-06
3.56323e-06
3.57906e-06
3.59209e-06
3.6025e-06
3.61047e-06
3.61617e-06
3.61979e-06
3.62151e-06
3.32411e-06
3.3481e-06
3.38133e-06
3.42163e-06
3.4671e-06
3.51605e-06
3.56703e-06
3.61877e-06
3.67023e-06
3.72052e-06
3.76896e-06
3.81499e-06
3.8582e-06
3.89828e-06
3.93506e-06
3.96841e-06
3.9983e-06
4.02475e-06
4.04784e-06
4.06768e-06
4.08441e-06
4.09819e-06
4.10919e-06
4.11761e-06
4.12364e-06
4.12747e-06
4.12929e-06
3.81816e-06
3.84341e-06
3.87838e-06
3.9208e-06
3.96864e-06
4.02014e-06
4.07377e-06
4.12819e-06
4.1823e-06
4.2352e-06
4.28613e-06
4.33452e-06
4.37994e-06
4.42209e-06
4.46074e-06
4.4958e-06
4.52722e-06
4.55502e-06
4.5793e-06
4.60015e-06
4.61774e-06
4.63222e-06
4.64379e-06
4.65265e-06
4.65898e-06
4.66301e-06
4.66492e-06
4.34034e-06
4.3668e-06
4.40344e-06
4.44787e-06
4.49798e-06
4.55192e-06
4.60807e-06
4.66506e-06
4.72171e-06
4.77708e-06
4.83039e-06
4.88105e-06
4.92859e-06
4.97269e-06
5.01314e-06
5.04982e-06
5.0827e-06
5.1118e-06
5.13719e-06
5.15902e-06
5.17742e-06
5.19258e-06
5.20468e-06
5.21395e-06
5.22058e-06
5.22479e-06
5.2268e-06
4.88905e-06
4.91666e-06
4.95489e-06
5.00124e-06
5.05352e-06
5.10979e-06
5.16836e-06
5.22779e-06
5.28687e-06
5.3446e-06
5.40018e-06
5.45299e-06
5.50254e-06
5.54851e-06
5.59067e-06
5.62891e-06
5.66317e-06
5.69349e-06
5.71996e-06
5.74271e-06
5.76188e-06
5.77768e-06
5.7903e-06
5.79995e-06
5.80687e-06
5.81126e-06
5.81334e-06
5.46274e-06
5.49145e-06
5.5312e-06
5.57939e-06
5.63374e-06
5.69223e-06
5.7531e-06
5.81486e-06
5.87625e-06
5.93624e-06
5.99398e-06
6.04883e-06
6.10031e-06
6.14805e-06
6.19184e-06
6.23154e-06
6.26712e-06
6.29861e-06
6.3261e-06
6.34971e-06
6.36963e-06
6.38603e-06
6.39913e-06
6.40916e-06
6.41633e-06
6.42089e-06
6.42306e-06
6.05996e-06
6.08972e-06
6.13091e-06
6.18086e-06
6.23717e-06
6.29777e-06
6.36084e-06
6.42482e-06
6.48841e-06
6.55053e-06
6.61033e-06
6.66712e-06
6.72042e-06
6.76984e-06
6.81517e-06
6.85627e-06
6.8931e-06
6.92569e-06
6.95414e-06
6.97858e-06
6.99919e-06
7.01616e-06
7.02972e-06
7.0401e-06
7.04753e-06
7.05225e-06
7.05449e-06
6.6793e-06
6.71005e-06
6.75262e-06
6.80423e-06
6.86242e-06
6.92502e-06
6.99017e-06
7.05624e-06
7.12191e-06
7.18606e-06
7.2478e-06
7.30644e-06
7.36145e-06
7.41248e-06
7.45926e-06
7.50168e-06
7.53968e-06
7.57332e-06
7.60267e-06
7.62789e-06
7.64915e-06
7.66667e-06
7.68066e-06
7.69137e-06
7.69903e-06
7.7039e-06
7.70622e-06
7.31939e-06
7.35108e-06
7.39496e-06
7.44814e-06
7.50809e-06
7.57259e-06
7.6397e-06
7.70776e-06
7.77539e-06
7.84145e-06
7.90503e-06
7.9654e-06
8.02203e-06
8.07455e-06
8.12271e-06
8.16636e-06
8.20548e-06
8.24009e-06
8.27029e-06
8.29624e-06
8.31812e-06
8.33615e-06
8.35054e-06
8.36156e-06
8.36944e-06
8.37445e-06
8.37684e-06
7.97889e-06
8.01147e-06
8.05657e-06
8.11123e-06
8.17284e-06
8.23912e-06
8.30808e-06
8.378e-06
8.44748e-06
8.51533e-06
8.58062e-06
8.64261e-06
8.70077e-06
8.75469e-06
8.80412e-06
8.84893e-06
8.88908e-06
8.92461e-06
8.95561e-06
8.98224e-06
9.0047e-06
9.02319e-06
9.03796e-06
9.04927e-06
9.05736e-06
9.0625e-06
9.06495e-06
8.65646e-06
8.68987e-06
8.73611e-06
8.79215e-06
8.85532e-06
8.92326e-06
8.99393e-06
9.06559e-06
9.13678e-06
9.2063e-06
9.27319e-06
9.33669e-06
9.39625e-06
9.45148e-06
9.5021e-06
9.54799e-06
9.58909e-06
9.62547e-06
9.6572e-06
9.68447e-06
9.70745e-06
9.72638e-06
9.74151e-06
9.75308e-06
9.76136e-06
9.76662e-06
9.76912e-06
9.35073e-06
9.3849e-06
9.43221e-06
9.48953e-06
9.55413e-06
9.6236e-06
9.69587e-06
9.76913e-06
9.8419e-06
9.91296e-06
9.98131e-06
1.00462e-05
1.01071e-05
1.01635e-05
1.02152e-05
1.02621e-05
1.0304e-05
1.03412e-05
1.03736e-05
1.04014e-05
1.04249e-05
1.04442e-05
1.04597e-05
1.04715e-05
1.048e-05
1.04853e-05
1.04879e-05
1.00603e-05
1.00952e-05
1.01434e-05
1.02019e-05
1.02678e-05
1.03387e-05
1.04124e-05
1.04871e-05
1.05614e-05
1.06338e-05
1.07035e-05
1.07696e-05
1.08317e-05
1.08892e-05
1.09419e-05
1.09896e-05
1.10324e-05
1.10703e-05
1.11033e-05
1.11316e-05
1.11555e-05
1.11752e-05
1.1191e-05
1.1203e-05
1.12116e-05
1.12171e-05
1.12197e-05
1.07836e-05
1.08192e-05
1.08683e-05
1.09278e-05
1.09949e-05
1.10671e-05
1.11421e-05
1.12181e-05
1.12936e-05
1.13673e-05
1.14381e-05
1.15054e-05
1.15685e-05
1.16269e-05
1.16805e-05
1.17291e-05
1.17725e-05
1.1811e-05
1.18446e-05
1.18734e-05
1.18977e-05
1.19177e-05
1.19337e-05
1.19459e-05
1.19546e-05
1.19602e-05
1.19628e-05
1.15192e-05
1.15553e-05
1.16052e-05
1.16657e-05
1.17338e-05
1.1807e-05
1.18831e-05
1.19603e-05
1.20369e-05
1.21117e-05
1.21836e-05
1.22518e-05
1.23157e-05
1.2375e-05
1.24293e-05
1.24786e-05
1.25226e-05
1.25616e-05
1.25956e-05
1.26249e-05
1.26495e-05
1.26697e-05
1.26859e-05
1.26983e-05
1.27072e-05
1.27128e-05
1.27155e-05
1.22653e-05
1.23018e-05
1.23524e-05
1.24136e-05
1.24826e-05
1.25567e-05
1.26338e-05
1.27119e-05
1.27894e-05
1.28651e-05
1.29378e-05
1.30069e-05
1.30716e-05
1.31315e-05
1.31864e-05
1.32362e-05
1.32808e-05
1.33202e-05
1.33546e-05
1.33841e-05
1.3409e-05
1.34295e-05
1.34458e-05
1.34584e-05
1.34673e-05
1.3473e-05
1.34757e-05
1.302e-05
1.30569e-05
1.3108e-05
1.31698e-05
1.32395e-05
1.33143e-05
1.33921e-05
1.3471e-05
1.35492e-05
1.36255e-05
1.36989e-05
1.37686e-05
1.38338e-05
1.38943e-05
1.39496e-05
1.39998e-05
1.40447e-05
1.40845e-05
1.41191e-05
1.41489e-05
1.41739e-05
1.41946e-05
1.42111e-05
1.42237e-05
1.42327e-05
1.42385e-05
1.42412e-05
1.37812e-05
1.38184e-05
1.38698e-05
1.39321e-05
1.40022e-05
1.40776e-05
1.41559e-05
1.42352e-05
1.43139e-05
1.43907e-05
1.44645e-05
1.45345e-05
1.46001e-05
1.46609e-05
1.47165e-05
1.4767e-05
1.48121e-05
1.4852e-05
1.48868e-05
1.49167e-05
1.49419e-05
1.49626e-05
1.49792e-05
1.49919e-05
1.50009e-05
1.50067e-05
1.50094e-05
1.45466e-05
1.45839e-05
1.46355e-05
1.4698e-05
1.47684e-05
1.4844e-05
1.49225e-05
1.50021e-05
1.5081e-05
1.5158e-05
1.52319e-05
1.53021e-05
1.53678e-05
1.54287e-05
1.54844e-05
1.55349e-05
1.55801e-05
1.56201e-05
1.56549e-05
1.56848e-05
1.571e-05
1.57308e-05
1.57474e-05
1.576e-05
1.57691e-05
1.57749e-05
1.57776e-05
1.53134e-05
1.53508e-05
1.54024e-05
1.54649e-05
1.55352e-05
1.56108e-05
1.56893e-05
1.57687e-05
1.58476e-05
1.59244e-05
1.59983e-05
1.60683e-05
1.61339e-05
1.61946e-05
1.62502e-05
1.63006e-05
1.63457e-05
1.63855e-05
1.64202e-05
1.64501e-05
1.64752e-05
1.64959e-05
1.65124e-05
1.6525e-05
1.65341e-05
1.65398e-05
1.65426e-05
1.60789e-05
1.6116e-05
1.61674e-05
1.62297e-05
1.62997e-05
1.63749e-05
1.6453e-05
1.6532e-05
1.66104e-05
1.66869e-05
1.67603e-05
1.68298e-05
1.6895e-05
1.69553e-05
1.70105e-05
1.70605e-05
1.71053e-05
1.71448e-05
1.71793e-05
1.72089e-05
1.72338e-05
1.72543e-05
1.72707e-05
1.72833e-05
1.72922e-05
1.72979e-05
1.73007e-05
1.68395e-05
1.68763e-05
1.69273e-05
1.69889e-05
1.70583e-05
1.71328e-05
1.72101e-05
1.72884e-05
1.73659e-05
1.74415e-05
1.75141e-05
1.75829e-05
1.76473e-05
1.77069e-05
1.77615e-05
1.78109e-05
1.7855e-05
1.78941e-05
1.79281e-05
1.79573e-05
1.79819e-05
1.80022e-05
1.80184e-05
1.80307e-05
1.80396e-05
1.80452e-05
1.80479e-05
1.75915e-05
1.76279e-05
1.76781e-05
1.77389e-05
1.78072e-05
1.78806e-05
1.79567e-05
1.80337e-05
1.81101e-05
1.81844e-05
1.82558e-05
1.83234e-05
1.83867e-05
1.84452e-05
1.84988e-05
1.85473e-05
1.85906e-05
1.8629e-05
1.86623e-05
1.8691e-05
1.87151e-05
1.8735e-05
1.87509e-05
1.8763e-05
1.87717e-05
1.87772e-05
1.87798e-05
1.83309e-05
1.83665e-05
1.84157e-05
1.84752e-05
1.85421e-05
1.86139e-05
1.86884e-05
1.87637e-05
1.88383e-05
1.89109e-05
1.89806e-05
1.90466e-05
1.91084e-05
1.91655e-05
1.92178e-05
1.9265e-05
1.93073e-05
1.93446e-05
1.93772e-05
1.94051e-05
1.94286e-05
1.94479e-05
1.94634e-05
1.94752e-05
1.94836e-05
1.9489e-05
1.94916e-05
1.90529e-05
1.90875e-05
1.91354e-05
1.91932e-05
1.92582e-05
1.9328e-05
1.94003e-05
1.94734e-05
1.95457e-05
1.96162e-05
1.96837e-05
1.97476e-05
1.98074e-05
1.98627e-05
1.99133e-05
1.9959e-05
1.99998e-05
2.00359e-05
2.00674e-05
2.00943e-05
2.01171e-05
2.01357e-05
2.01507e-05
2.01621e-05
2.01702e-05
2.01754e-05
2.01779e-05
1.97526e-05
1.9786e-05
1.98321e-05
1.98879e-05
1.99505e-05
2.00177e-05
2.00873e-05
2.01576e-05
2.02272e-05
2.02948e-05
2.03597e-05
2.0421e-05
2.04784e-05
2.05314e-05
2.05799e-05
2.06237e-05
2.06628e-05
2.06974e-05
2.07275e-05
2.07533e-05
2.0775e-05
2.07929e-05
2.08072e-05
2.08181e-05
2.08259e-05
2.08308e-05
2.08332e-05
2.04247e-05
2.04566e-05
2.05006e-05
2.05539e-05
2.06136e-05
2.06776e-05
2.07439e-05
2.08109e-05
2.0877e-05
2.09414e-05
2.1003e-05
2.10613e-05
2.11157e-05
2.1166e-05
2.1212e-05
2.12535e-05
2.12905e-05
2.13233e-05
2.13518e-05
2.13762e-05
2.13968e-05
2.14137e-05
2.14272e-05
2.14375e-05
2.14449e-05
2.14496e-05
2.14518e-05
2.10636e-05
2.10937e-05
2.11353e-05
2.11855e-05
2.12418e-05
2.13022e-05
2.13646e-05
2.14275e-05
2.14897e-05
2.15502e-05
2.1608e-05
2.16627e-05
2.17137e-05
2.17608e-05
2.18038e-05
2.18427e-05
2.18773e-05
2.19079e-05
2.19346e-05
2.19574e-05
2.19766e-05
2.19924e-05
2.2005e-05
2.20146e-05
2.20215e-05
2.20259e-05
2.2028e-05
2.16638e-05
2.16918e-05
2.17305e-05
2.17773e-05
2.18297e-05
2.18857e-05
2.19437e-05
2.20021e-05
2.20597e-05
2.21157e-05
2.21692e-05
2.22197e-05
2.22669e-05
2.23104e-05
2.235e-05
2.23858e-05
2.24178e-05
2.2446e-05
2.24705e-05
2.24915e-05
2.25091e-05
2.25237e-05
2.25353e-05
2.25441e-05
2.25505e-05
2.25545e-05
2.25564e-05
2.22197e-05
2.22454e-05
2.22809e-05
2.23237e-05
2.23717e-05
2.2423e-05
2.24759e-05
2.25292e-05
2.25818e-05
2.26327e-05
2.26814e-05
2.27274e-05
2.27702e-05
2.28096e-05
2.28456e-05
2.2878e-05
2.2907e-05
2.29324e-05
2.29546e-05
2.29736e-05
2.29896e-05
2.30027e-05
2.30132e-05
2.30212e-05
2.30269e-05
2.30305e-05
2.30323e-05
2.27264e-05
2.27496e-05
2.27815e-05
2.282e-05
2.28631e-05
2.29091e-05
2.29566e-05
2.30043e-05
2.30513e-05
2.30969e-05
2.31403e-05
2.31812e-05
2.32193e-05
2.32544e-05
2.32864e-05
2.33152e-05
2.33408e-05
2.33634e-05
2.33831e-05
2.33999e-05
2.3414e-05
2.34256e-05
2.34349e-05
2.3442e-05
2.34471e-05
2.34503e-05
2.34518e-05
2.31796e-05
2.32001e-05
2.32282e-05
2.32621e-05
2.33e-05
2.33403e-05
2.3382e-05
2.34237e-05
2.34648e-05
2.35046e-05
2.35425e-05
2.35781e-05
2.36112e-05
2.36417e-05
2.36694e-05
2.36944e-05
2.37166e-05
2.37361e-05
2.37531e-05
2.37677e-05
2.37799e-05
2.37899e-05
2.37979e-05
2.3804e-05
2.38084e-05
2.38112e-05
2.38125e-05
2.35762e-05
2.35937e-05
2.36179e-05
2.3647e-05
2.36794e-05
2.3714e-05
2.37495e-05
2.37851e-05
2.38201e-05
2.38539e-05
2.3886e-05
2.39162e-05
2.39443e-05
2.397e-05
2.39934e-05
2.40144e-05
2.40331e-05
2.40496e-05
2.40639e-05
2.40761e-05
2.40863e-05
2.40947e-05
2.41015e-05
2.41066e-05
2.41103e-05
2.41126e-05
2.41137e-05
2.39143e-05
2.3929e-05
2.39491e-05
2.39733e-05
2.40003e-05
2.4029e-05
2.40584e-05
2.40879e-05
2.41167e-05
2.41445e-05
2.41709e-05
2.41957e-05
2.42186e-05
2.42397e-05
2.42588e-05
2.42759e-05
2.42911e-05
2.43045e-05
2.43161e-05
2.4326e-05
2.43343e-05
2.43412e-05
2.43466e-05
2.43508e-05
2.43538e-05
2.43557e-05
2.43566e-05
2.41942e-05
2.4206e-05
2.42222e-05
2.42416e-05
2.42632e-05
2.42862e-05
2.43096e-05
2.43331e-05
2.4356e-05
2.4378e-05
2.43989e-05
2.44184e-05
2.44365e-05
2.4453e-05
2.4468e-05
2.44814e-05
2.44933e-05
2.45037e-05
2.45128e-05
2.45205e-05
2.4527e-05
2.45323e-05
2.45366e-05
2.45398e-05
2.45421e-05
2.45436e-05
2.45443e-05
2.44176e-05
2.44267e-05
2.44392e-05
2.44541e-05
2.44707e-05
2.44882e-05
2.45061e-05
2.45239e-05
2.45413e-05
2.45579e-05
2.45736e-05
2.45883e-05
2.46018e-05
2.46142e-05
2.46254e-05
2.46353e-05
2.46442e-05
2.46519e-05
2.46586e-05
2.46643e-05
2.46691e-05
2.46731e-05
2.46762e-05
2.46786e-05
2.46803e-05
2.46814e-05
2.46819e-05
2.45883e-05
2.4595e-05
2.46041e-05
2.46149e-05
2.46269e-05
2.46395e-05
2.46524e-05
2.46652e-05
2.46775e-05
2.46894e-05
2.47005e-05
2.47108e-05
2.47203e-05
2.4729e-05
2.47368e-05
2.47437e-05
2.47499e-05
2.47552e-05
2.47599e-05
2.47638e-05
2.47671e-05
2.47698e-05
2.4772e-05
2.47736e-05
2.47748e-05
2.47756e-05
2.47759e-05
2.47118e-05
2.47163e-05
2.47224e-05
2.47297e-05
2.47377e-05
2.47461e-05
2.47546e-05
2.4763e-05
2.47711e-05
2.47788e-05
2.4786e-05
2.47927e-05
2.47988e-05
2.48043e-05
2.48092e-05
2.48136e-05
2.48174e-05
2.48208e-05
2.48237e-05
2.48261e-05
2.48282e-05
2.48299e-05
2.48312e-05
2.48322e-05
2.4833e-05
2.48334e-05
2.48337e-05
2.47946e-05
2.47973e-05
2.48009e-05
2.48052e-05
2.481e-05
2.48149e-05
2.48198e-05
2.48246e-05
2.48292e-05
2.48335e-05
2.48375e-05
2.48411e-05
2.48444e-05
2.48473e-05
2.485e-05
2.48523e-05
2.48543e-05
2.4856e-05
2.48575e-05
2.48587e-05
2.48598e-05
2.48606e-05
2.48613e-05
2.48618e-05
2.48622e-05
2.48625e-05
2.48626e-05
2.48438e-05
2.4845e-05
2.48467e-05
2.48487e-05
2.48508e-05
2.48529e-05
2.4855e-05
2.4857e-05
2.48588e-05
2.48605e-05
2.48619e-05
2.48632e-05
2.48643e-05
2.48653e-05
2.48661e-05
2.48668e-05
2.48674e-05
2.48678e-05
2.48682e-05
2.48685e-05
2.48688e-05
2.4869e-05
2.48692e-05
2.48693e-05
2.48694e-05
2.48694e-05
2.48695e-05
2.48665e-05
2.48666e-05
2.48668e-05
2.4867e-05
2.48671e-05
2.48672e-05
2.48671e-05
2.48669e-05
2.48667e-05
2.48663e-05
2.48659e-05
2.48654e-05
2.48649e-05
2.48643e-05
2.48638e-05
2.48632e-05
2.48627e-05
2.48622e-05
2.48618e-05
2.48614e-05
2.48611e-05
2.48608e-05
2.48606e-05
2.48604e-05
2.48603e-05
2.48602e-05
2.48602e-05
2.48691e-05
2.48685e-05
2.48675e-05
2.48664e-05
2.48651e-05
2.48635e-05
2.48619e-05
2.48602e-05
2.48583e-05
2.48565e-05
2.48547e-05
2.48529e-05
2.48511e-05
2.48495e-05
2.48479e-05
2.48465e-05
2.48452e-05
2.4844e-05
2.48429e-05
2.4842e-05
2.48412e-05
2.48406e-05
2.48401e-05
2.48397e-05
2.48394e-05
2.48392e-05
2.48391e-05
2.4857e-05
2.48557e-05
2.4854e-05
2.48519e-05
2.48495e-05
2.48469e-05
2.48441e-05
2.48412e-05
2.48383e-05
2.48353e-05
2.48325e-05
2.48297e-05
2.48271e-05
2.48246e-05
2.48223e-05
2.48202e-05
2.48183e-05
2.48165e-05
2.4815e-05
2.48137e-05
2.48126e-05
2.48117e-05
2.4811e-05
2.48104e-05
2.481e-05
2.48097e-05
2.48096e-05
2.48342e-05
2.48326e-05
2.48303e-05
2.48275e-05
2.48243e-05
2.48209e-05
2.48172e-05
2.48135e-05
2.48097e-05
2.4806e-05
2.48024e-05
2.47989e-05
2.47956e-05
2.47925e-05
2.47896e-05
2.4787e-05
2.47847e-05