/*--------------------------------*- C++ -*----------------------------------*\
| =========                 |                                                 |
| \\      /  F ield         | OpenFOAM: The Open Source CFD Toolbox           |
|  \\    /   O peration     | Version:  2106                                  |
|   \\  /    A nd           | Website:  www.openfoam.com                      |
|    \\/     M anipulation  |                                                 |
\*---------------------------------------------------------------------------*/
FoamFile
{
    version     2.0;
    format      ascii;
    arch        "LSB;label=32;scalar=64";
    class       volScalarField;
    location    "110.00057";
    object      C2H3_0;
}
// * * * * * * * * * * * * * * * * * * * * * * * * * * * * * * * * * * * * * //

dimensions      [0 0 0 0 0 0 0];

internalField   nonuniform List<scalar> 
3360
(
8.36761e-26
8.89125e-26
9.6286e-26
1.05449e-25
1.16096e-25
1.27946e-25
1.40723e-25
1.54165e-25
1.68013e-25
1.82024e-25
1.95968e-25
2.09636e-25
2.22839e-25
2.35414e-25
2.47226e-25
2.58163e-25
2.68142e-25
2.77107e-25
2.85025e-25
2.91885e-25
2.97698e-25
3.02492e-25
3.06313e-25
3.09217e-25
3.11274e-25
3.12561e-25
3.1316e-25
4.23151e-25
4.5244e-25
4.94308e-25
5.47374e-25
6.10583e-25
6.83048e-25
7.63965e-25
8.52558e-25
9.48043e-25
1.04959e-24
1.15633e-24
1.26729e-24
1.3814e-24
1.49751e-24
1.61437e-24
1.73064e-24
1.84488e-24
1.95562e-24
2.06129e-24
2.16033e-24
2.25118e-24
2.33234e-24
2.40241e-24
2.46012e-24
2.50442e-24
2.53446e-24
2.54965e-24
1.61747e-24
1.75051e-24
1.94305e-24
2.191e-24
2.49176e-24
2.84328e-24
3.24349e-24
3.68992e-24
4.17936e-24
4.70765e-24
5.26952e-24
5.85868e-24
6.46797e-24
7.0894e-24
7.71427e-24
8.33333e-24
8.93708e-24
9.51603e-24
1.0061e-23
1.05634e-23
1.10157e-23
1.14114e-23
1.17454e-23
1.20139e-23
1.22149e-23
1.23477e-23
1.24131e-23
5.84476e-24
6.3937e-24
7.19817e-24
8.24881e-24
9.5421e-24
1.10758e-23
1.28458e-23
1.48444e-23
1.70583e-23
1.94681e-23
2.20477e-23
2.47647e-23
2.75809e-23
3.04534e-23
3.33352e-23
3.61777e-23
3.8932e-23
4.15516e-23
4.39935e-23
4.62206e-23
4.82019e-23
4.99141e-23
5.13413e-23
5.2475e-23
5.33133e-23
5.3861e-23
5.41277e-23
2.17264e-23
2.3968e-23
2.72741e-23
3.16244e-23
3.70208e-23
4.3467e-23
5.09545e-23
5.9453e-23
6.8903e-23
7.92129e-23
9.02578e-23
1.01883e-22
1.13909e-22
1.26136e-22
1.38355e-22
1.50352e-22
1.61921e-22
1.7287e-22
1.83026e-22
1.92246e-22
2.00412e-22
2.07441e-22
2.13277e-22
2.17897e-22
2.21302e-22
2.23521e-22
2.24598e-22
8.28681e-23
9.19337e-23
1.05359e-22
1.23097e-22
1.45185e-22
1.71656e-22
2.02482e-22
2.37534e-22
2.76556e-22
3.19152e-22
3.64782e-22
4.1278e-22
4.62371e-22
5.12711e-22
5.62914e-22
6.12095e-22
6.59407e-22
7.04071e-22
7.45402e-22
7.82827e-22
8.159e-22
8.443e-22
8.67834e-22
8.86425e-22
9.00105e-22
9.09002e-22
9.13318e-22
3.21439e-22
3.57935e-22
4.12093e-22
4.83815e-22
5.73315e-22
6.80757e-22
8.06025e-22
9.48556e-22
1.10725e-21
1.28042e-21
1.46579e-21
1.66059e-21
1.86163e-21
2.06543e-21
2.2684e-21
2.46697e-21
2.65774e-21
2.8376e-21
3.00384e-21
3.15422e-21
3.28697e-21
3.40087e-21
3.49517e-21
3.56963e-21
3.62438e-21
3.65997e-21
3.67722e-21
1.25882e-21
1.40468e-21
1.62146e-21
1.90894e-21
2.26814e-21
2.69983e-21
3.20361e-21
3.7772e-21
4.41608e-21
5.11331e-21
5.85959e-21
6.64358e-21
7.45229e-21
8.27164e-21
9.08711e-21
9.88433e-21
1.06496e-20
1.13706e-20
1.20365e-20
1.26383e-20
1.31692e-20
1.36243e-20
1.40008e-20
1.42979e-20
1.45162e-20
1.4658e-20
1.47267e-20
4.96088e-21
5.54371e-21
6.41042e-21
7.56059e-21
8.9986e-21
1.07277e-20
1.2746e-20
1.50441e-20
1.76036e-20
2.03961e-20
2.3384e-20
2.65212e-20
2.97556e-20
3.30307e-20
3.62884e-20
3.94714e-20
4.25254e-20
4.54012e-20
4.80559e-20
5.04543e-20
5.25693e-20
5.43819e-20
5.58813e-20
5.7064e-20
5.79331e-20
5.84975e-20
5.8771e-20
1.95883e-20
2.19073e-20
2.5358e-20
2.99399e-20
3.56716e-20
4.25667e-20
5.06181e-20
5.97882e-20
7.00021e-20
8.1146e-20
9.30684e-20
1.05585e-19
1.18486e-19
1.31546e-19
1.44532e-19
1.57216e-19
1.69382e-19
1.80832e-19
1.91398e-19
2.00941e-19
2.09352e-19
2.16557e-19
2.22515e-19
2.27213e-19
2.30664e-19
2.32904e-19
2.33989e-19
7.7497e-20
8.67262e-20
1.00461e-19
1.18702e-19
1.41524e-19
1.6898e-19
2.01041e-19
2.37553e-19
2.78214e-19
3.22565e-19
3.69999e-19
4.19779e-19
4.71068e-19
5.22967e-19
5.74553e-19
6.24918e-19
6.73205e-19
7.1864e-19
7.60552e-19
7.98391e-19
8.31737e-19
8.60298e-19
8.83908e-19
9.02521e-19
9.16192e-19
9.25067e-19
9.29365e-19
3.06434e-19
3.43061e-19
3.9758e-19
4.69998e-19
5.60612e-19
6.69633e-19
7.96935e-19
9.41898e-19
1.10331e-18
1.27934e-18
1.46755e-18
1.66502e-18
1.8684e-18
2.07413e-18
2.27854e-18
2.47803e-18
2.66921e-18
2.84903e-18
3.01482e-18
3.16445e-18
3.29624e-18
3.40908e-18
3.50233e-18
3.57581e-18
3.62976e-18
3.66478e-18
3.68173e-18
1.21118e-18
1.35645e-18
1.57267e-18
1.85982e-18
2.21905e-18
2.65112e-18
3.15546e-18
3.72953e-18
4.36843e-18
5.06481e-18
5.809e-18
6.58931e-18
7.39253e-18
8.20451e-18
9.0108e-18
9.79722e-18
1.05505e-17
1.12585e-17
1.1911e-17
1.24996e-17
1.30178e-17
1.34613e-17
1.38277e-17
1.41163e-17
1.43281e-17
1.44655e-17
1.45321e-17
4.77372e-18
5.34775e-18
6.20203e-18
7.33643e-18
8.75523e-18
1.04612e-17
1.24516e-17
1.4716e-17
1.72346e-17
1.99779e-17
2.29073e-17
2.59765e-17
2.91332e-17
3.23216e-17
3.54849e-17
3.85677e-17
4.15179e-17
4.42889e-17
4.68406e-17
4.91404e-17
5.11639e-17
5.28944e-17
5.4323e-17
5.54476e-17
5.62727e-17
5.68077e-17
5.70665e-17
1.87568e-17
2.10178e-17
2.43816e-17
2.88464e-17
3.44274e-17
4.11332e-17
4.89507e-17
5.78356e-17
6.77072e-17
7.84469e-17
8.9901e-17
1.01886e-16
1.14196e-16
1.26614e-16
1.38919e-16
1.50894e-16
1.62341e-16
1.73079e-16
1.82957e-16
1.9185e-16
1.99667e-16
2.06346e-16
2.11855e-16
2.16189e-16
2.19366e-16
2.21425e-16
2.22421e-16
7.33096e-17
8.2157e-17
9.53126e-17
1.12762e-16
1.34555e-16
1.60712e-16
1.91168e-16
2.25736e-16
2.64087e-16
3.05744e-16
3.50099e-16
3.9643e-16
4.43937e-16
4.91773e-16
5.39087e-16
5.85057e-16
6.2892e-16
6.70001e-16
7.07727e-16
7.41642e-16
7.71409e-16
7.96808e-16
8.17731e-16
8.34171e-16
8.46209e-16
8.54003e-16
8.57768e-16
2.84775e-16
3.1912e-16
3.70144e-16
4.37744e-16
5.22049e-16
6.23069e-16
7.40473e-16
8.73451e-16
1.02065e-15
1.18016e-15
1.34958e-15
1.5261e-15
1.70664e-15
1.88797e-15
2.06686e-15
2.24024e-15
2.40528e-15
2.5595e-15
2.70081e-15
2.82758e-15
2.93863e-15
3.03322e-15
3.111e-15
3.17203e-15
3.21665e-15
3.2455e-15
3.25942e-15
1.09854e-15
1.23043e-15
1.4261e-15
1.68486e-15
2.00686e-15
2.39173e-15
2.83775e-15
3.34139e-15
3.89705e-15
4.49715e-15
5.1323e-15
5.79172e-15
6.46374e-15
7.13632e-15
7.79759e-15
8.43634e-15
9.04241e-15
9.60698e-15
1.01228e-14
1.05843e-14
1.09875e-14
1.13302e-14
1.16113e-14
1.18314e-14
1.19921e-14
1.20958e-14
1.21457e-14
4.21082e-15
4.71083e-15
5.45101e-15
6.42711e-15
7.63763e-15
9.07889e-15
1.07421e-14
1.26116e-14
1.46644e-14
1.68705e-14
1.91939e-14
2.1594e-14
2.4028e-14
2.64524e-14
2.88249e-14
3.11063e-14
3.32618e-14
3.52617e-14
3.7082e-14
3.87048e-14
4.01181e-14
4.13153e-14
4.2295e-14
4.30601e-14
4.36172e-14
4.3976e-14
4.41485e-14
1.60777e-14
1.79472e-14
2.07055e-14
2.43272e-14
2.87959e-14
3.40857e-14
4.01518e-14
4.69252e-14
5.43119e-14
6.21946e-14
7.04381e-14
7.88951e-14
8.7413e-14
9.58412e-14
1.04037e-13
1.11871e-13
1.1923e-13
1.26021e-13
1.32172e-13
1.3763e-13
1.42362e-13
1.46356e-13
1.49612e-13
1.52146e-13
1.53986e-13
1.55168e-13
1.55735e-13
6.1472e-14
6.83847e-14
7.85348e-14
9.17783e-14
1.07997e-13
1.27035e-13
1.48669e-13
1.72595e-13
1.98429e-13
2.25722e-13
2.53978e-13
2.82677e-13
3.11302e-13
3.3936e-13
3.66397e-13
3.92018e-13
4.15889e-13
4.3775e-13
4.57406e-13
4.74732e-13
4.89663e-13
5.02189e-13
5.12348e-13
5.20217e-13
5.25904e-13
5.29541e-13
5.31279e-13
2.36743e-13
2.6222e-13
2.99393e-13
3.47498e-13
4.05828e-13
4.73538e-13
5.49545e-13
6.32515e-13
7.20891e-13
8.12955e-13
9.06918e-13
1.001e-12
1.09351e-12
1.18291e-12
1.26787e-12
1.3473e-12
1.42034e-12
1.4864e-12
1.54507e-12
1.5962e-12
1.63978e-12
1.67596e-12
1.70501e-12
1.72731e-12
1.74328e-12
1.75341e-12
1.75821e-12
9.18827e-13
1.01342e-12
1.15055e-12
1.32649e-12
1.53765e-12
1.77987e-12
2.04823e-12
2.33703e-12
2.64001e-12
2.95063e-12
3.26241e-12
3.56923e-12
3.86559e-12
4.14684e-12
4.40921e-12
4.64991e-12
4.86708e-12
5.0597e-12
5.22753e-12
5.37092e-12
5.49074e-12
5.58827e-12
5.66504e-12
5.72276e-12
5.76328e-12
5.78845e-12
5.80013e-12
3.54096e-12
3.89459e-12
4.40532e-12
5.05739e-12
5.83549e-12
6.72247e-12
7.69873e-12
8.74245e-12
9.83048e-12
1.09394e-11
1.20467e-11
1.31319e-11
1.41772e-11
1.51676e-11
1.60919e-11
1.69418e-11
1.77118e-11
1.83993e-11
1.90034e-11
1.9525e-11
1.99663e-11
2.03301e-11
2.06205e-11
2.0842e-11
2.09995e-11
2.10986e-11
2.11451e-11
1.31011e-11
1.43952e-11
1.62663e-11
1.86601e-11
2.15271e-11
2.48151e-11
2.84673e-11
3.24238e-11
3.66238e-11
4.10093e-11
4.55275e-11
5.01324e-11
5.4785e-11
5.94507e-11
6.40978e-11
6.86947e-11
7.3207e-11
7.7595e-11
8.18125e-11
8.5806e-11
8.9516e-11
9.28782e-11
9.58262e-11
9.82944e-11
1.00221e-10
1.01549e-10
1.02232e-10
4.47734e-11
4.92229e-11
5.56946e-11
6.4054e-11
7.42095e-11
8.60932e-11
9.96597e-11
1.14891e-10
1.31797e-10
1.50415e-10
1.708e-10
1.93004e-10
2.17045e-10
2.42868e-10
2.7031e-10
2.99068e-10
3.28693e-10
3.58594e-10
3.88079e-10
4.16396e-10
4.42802e-10
4.66609e-10
4.87229e-10
5.042e-10
5.1718e-10
5.25944e-10
5.30359e-10
1.40804e-10
1.55538e-10
1.77285e-10
2.05977e-10
2.41832e-10
2.85289e-10
3.36963e-10
3.97572e-10
4.67779e-10
5.47943e-10
6.3779e-10
7.36078e-10
8.40385e-10
9.47165e-10
1.05214e-09
1.15097e-09
1.24e-09
1.31676e-09
1.3802e-09
1.43047e-09
1.46867e-09
1.49639e-09
1.51545e-09
1.52768e-09
1.53477e-09
1.53825e-09
1.53943e-09
4.45309e-10
4.98946e-10
5.79836e-10
6.89424e-10
8.30076e-10
1.00408e-09
1.21232e-09
1.45249e-09
1.71762e-09
1.99544e-09
2.26998e-09
2.52488e-09
2.74734e-09
2.93032e-09
3.07259e-09
3.17703e-09
3.24873e-09
3.2935e-09
3.31704e-09
3.32456e-09
3.32065e-09
3.3093e-09
3.29389e-09
3.27735e-09
3.26213e-09
3.25032e-09
3.24369e-09
1.62668e-09
1.83214e-09
2.13627e-09
2.53319e-09
3.01107e-09
3.54756e-09
4.10973e-09
4.65961e-09
5.16339e-09
5.59876e-09
5.95655e-09
6.23771e-09
6.44897e-09
6.59958e-09
6.69933e-09
6.75755e-09
6.78275e-09
6.78249e-09
6.76344e-09
6.73144e-09
6.69157e-09
6.64824e-09
6.60529e-09
6.56603e-09
6.53332e-09
6.50957e-09
6.49685e-09
5.59995e-09
6.05947e-09
6.6854e-09
7.41894e-09
8.20129e-09
8.98021e-09
9.71607e-09
1.03839e-08
1.09713e-08
1.14754e-08
1.18991e-08
1.22484e-08
1.25308e-08
1.27547e-08
1.29283e-08
1.30593e-08
1.31549e-08
1.32215e-08
1.32649e-08
1.32903e-08
1.33021e-08
1.33042e-08
1.33e-08
1.32923e-08
1.32837e-08
1.32763e-08
1.32718e-08
1.20233e-08
1.25865e-08
1.33417e-08
1.42196e-08
1.51623e-08
1.61245e-08
1.70733e-08
1.79867e-08
1.88515e-08
1.96613e-08
2.04138e-08
2.11097e-08
2.1751e-08
2.23407e-08
2.28816e-08
2.33764e-08
2.38273e-08
2.42359e-08
2.46031e-08
2.49295e-08
2.52152e-08
2.54601e-08
2.56639e-08
2.58263e-08
2.59475e-08
2.60275e-08
2.6067e-08
1.85506e-08
1.92332e-08
2.01663e-08
2.12815e-08
2.25225e-08
2.38447e-08
2.52143e-08
2.66066e-08
2.8004e-08
2.93939e-08
3.07674e-08
3.21169e-08
3.34358e-08
3.47176e-08
3.59549e-08
3.714e-08
3.82644e-08
3.93191e-08
4.02951e-08
4.11836e-08
4.19762e-08
4.26658e-08
4.32462e-08
4.3713e-08
4.40632e-08
4.42956e-08
4.44108e-08
2.42444e-08
2.50756e-08
2.62299e-08
2.76385e-08
2.92457e-08
3.10063e-08
3.28846e-08
3.48522e-08
3.68857e-08
3.89647e-08
4.10707e-08
4.31851e-08
4.52889e-08
4.73624e-08
4.93851e-08
5.13358e-08
5.31938e-08
5.49387e-08
5.65516e-08
5.80155e-08
5.93159e-08
6.0441e-08
6.13821e-08
6.21339e-08
6.26938e-08
6.30628e-08
6.32442e-08
2.88741e-08
2.9846e-08
3.12089e-08
3.28928e-08
3.48403e-08
3.70036e-08
3.93422e-08
4.18205e-08
4.44062e-08
4.70682e-08
4.97758e-08
5.24983e-08
5.52043e-08
5.78624e-08
6.04419e-08
6.2913e-08
6.5248e-08
6.74218e-08
6.94124e-08
7.12017e-08
7.27756e-08
7.4124e-08
7.52411e-08
7.61249e-08
7.67772e-08
7.72031e-08
7.74108e-08
3.29373e-08
3.40249e-08
3.55559e-08
3.74551e-08
3.96594e-08
4.21138e-08
4.47687e-08
4.75788e-08
5.05008e-08
5.34932e-08
5.65153e-08
5.95278e-08
6.24929e-08
6.53747e-08
6.81398e-08
7.07584e-08
7.32041e-08
7.54547e-08
7.74927e-08
7.93046e-08
8.08817e-08
8.22194e-08
8.3317e-08
8.41775e-08
8.48072e-08
8.52151e-08
8.54124e-08
3.72776e-08
3.84338e-08
4.0059e-08
4.20697e-08
4.4394e-08
4.69675e-08
4.97314e-08
5.26313e-08
5.56167e-08
5.86402e-08
6.16578e-08
6.46288e-08
6.75163e-08
7.02876e-08
7.29139e-08
7.53712e-08
7.76399e-08
7.97048e-08
8.15551e-08
8.3184e-08
8.45889e-08
8.57704e-08
8.67322e-08
8.74808e-08
8.80249e-08
8.83751e-08
8.85436e-08
4.23921e-08
4.35425e-08
4.51523e-08
4.71318e-08
4.94023e-08
5.18933e-08
5.45412e-08
5.72884e-08
6.0083e-08
6.28788e-08
6.56346e-08
6.83147e-08
7.08883e-08
7.33296e-08
7.56177e-08
7.77363e-08
7.9673e-08
8.14196e-08
8.29715e-08
8.43273e-08
8.54884e-08
8.64585e-08
8.72437e-08
8.78517e-08
8.82915e-08
8.85734e-08
8.87085e-08
4.81097e-08
4.91718e-08
5.06504e-08
5.2456e-08
5.45099e-08
5.67422e-08
5.90911e-08
6.15021e-08
6.39279e-08
6.63282e-08
6.86686e-08
7.09208e-08
7.3062e-08
7.50736e-08
7.69421e-08
7.86577e-08
8.02142e-08
8.16082e-08
8.2839e-08
8.39082e-08
8.48193e-08
8.55772e-08
8.61882e-08
8.66597e-08
8.69997e-08
8.72172e-08
8.73212e-08
5.38164e-08
5.47276e-08
5.59903e-08
5.75226e-08
5.92531e-08
6.11187e-08
6.30648e-08
6.50445e-08
6.70186e-08
6.89545e-08
7.08255e-08
7.26109e-08
7.42946e-08
7.58649e-08
7.73136e-08
7.86355e-08
7.98279e-08
8.08905e-08
8.18246e-08
8.26327e-08
8.3319e-08
8.38882e-08
8.4346e-08
8.46985e-08
8.49523e-08
8.51144e-08
8.51919e-08
5.88732e-08
5.96049e-08
6.0615e-08
6.18346e-08
6.32039e-08
6.46705e-08
6.61899e-08
6.77244e-08
6.92432e-08
7.0722e-08
7.21416e-08
7.34874e-08
7.47489e-08
7.59187e-08
7.69924e-08
7.79674e-08
7.88433e-08
7.9621e-08
8.03023e-08
8.08902e-08
8.13882e-08
8.18005e-08
8.21316e-08
8.23862e-08
8.25694e-08
8.26863e-08
8.27422e-08
6.28839e-08
6.34381e-08
6.42005e-08
6.51174e-08
6.61417e-08
6.7233e-08
6.83571e-08
6.94858e-08
7.05967e-08
7.16722e-08
7.26988e-08
7.3667e-08
7.45701e-08
7.54037e-08
7.61655e-08
7.68548e-08
7.74719e-08
7.80182e-08
7.84956e-08
7.89067e-08
7.92544e-08
7.95418e-08
7.97724e-08
7.99496e-08
8.0077e-08
8.01584e-08
8.01972e-08
6.57322e-08
6.61296e-08
6.66748e-08
6.73281e-08
6.80549e-08
6.88256e-08
6.96155e-08
7.04047e-08
7.11773e-08
7.19215e-08
7.26283e-08
7.32916e-08
7.39075e-08
7.44737e-08
7.4989e-08
7.54537e-08
7.58684e-08
7.62346e-08
7.65538e-08
7.68282e-08
7.70598e-08
7.72511e-08
7.74045e-08
7.75222e-08
7.76069e-08
7.7661e-08
7.76868e-08
6.75096e-08
6.77787e-08
6.81469e-08
6.85865e-08
6.90735e-08
6.95875e-08
7.01115e-08
7.06321e-08
7.1139e-08
7.16244e-08
7.2083e-08
7.2511e-08
7.29063e-08
7.32679e-08
7.35956e-08
7.38898e-08
7.41514e-08
7.43816e-08
7.45817e-08
7.47533e-08
7.48979e-08
7.50171e-08
7.51125e-08
7.51858e-08
7.52384e-08
7.5272e-08
7.52881e-08
6.84063e-08
6.85759e-08
6.88071e-08
6.90819e-08
6.93846e-08
6.9702e-08
7.00234e-08
7.03403e-08
7.06464e-08
7.09372e-08
7.12096e-08
7.14618e-08
7.1693e-08
7.19028e-08
7.20915e-08
7.22598e-08
7.24085e-08
7.25386e-08
7.26511e-08
7.27472e-08
7.28279e-08
7.28941e-08
7.29471e-08
7.29876e-08
7.30167e-08
7.30353e-08
7.30441e-08
6.86346e-08
6.87299e-08
6.8859e-08
6.90111e-08
6.91771e-08
6.9349e-08
6.95208e-08
6.96879e-08
6.98467e-08
6.99951e-08
7.01318e-08
7.02561e-08
7.0368e-08
7.04677e-08
7.05559e-08
7.06332e-08
7.07004e-08
7.07583e-08
7.08077e-08
7.08493e-08
7.08838e-08
7.09119e-08
7.09341e-08
7.0951e-08
7.09631e-08
7.09708e-08
7.09744e-08
6.83869e-08
6.84282e-08
6.84833e-08
6.85467e-08
6.86138e-08
6.8681e-08
6.87453e-08
6.88048e-08
6.88581e-08
6.89048e-08
6.89446e-08
6.89778e-08
6.90049e-08
6.90265e-08
6.90433e-08
6.90561e-08
6.90654e-08
6.90721e-08
6.90767e-08
6.90797e-08
6.90815e-08
6.90824e-08
6.90828e-08
6.90829e-08
6.90829e-08
6.90828e-08
6.90827e-08
6.78192e-08
6.78224e-08
6.78251e-08
6.78258e-08
6.78234e-08
6.78167e-08
6.78054e-08
6.77894e-08
6.77688e-08
6.77443e-08
6.77165e-08
6.76861e-08
6.7654e-08
6.76212e-08
6.75882e-08
6.7556e-08
6.75252e-08
6.74962e-08
6.74695e-08
6.74455e-08
6.74245e-08
6.74064e-08
6.73916e-08
6.73799e-08
6.73713e-08
6.73657e-08
6.7363e-08
6.70504e-08
6.70271e-08
6.69937e-08
6.69512e-08
6.69007e-08
6.68433e-08
6.67801e-08
6.67122e-08
6.6641e-08
6.65678e-08
6.64936e-08
6.64198e-08
6.63474e-08
6.62773e-08
6.62105e-08
6.61476e-08
6.60892e-08
6.60359e-08
6.59878e-08
6.59454e-08
6.59086e-08
6.58776e-08
6.58522e-08
6.58323e-08
6.58178e-08
6.58084e-08
6.58039e-08
6.61665e-08
6.61254e-08
6.60677e-08
6.59961e-08
6.59134e-08
6.58219e-08
6.57239e-08
6.56215e-08
6.55165e-08
6.54107e-08
6.53058e-08
6.5203e-08
6.51037e-08
6.50089e-08
6.49195e-08
6.48362e-08
6.47595e-08
6.46898e-08
6.46275e-08
6.45727e-08
6.45254e-08
6.44856e-08
6.44531e-08
6.44277e-08
6.44092e-08
6.43973e-08
6.43915e-08
6.52276e-08
6.5175e-08
6.51014e-08
6.5011e-08
6.49074e-08
6.47939e-08
6.46734e-08
6.45486e-08
6.44218e-08
6.42952e-08
6.41704e-08
6.40491e-08
6.39325e-08
6.38218e-08
6.37179e-08
6.36214e-08
6.35329e-08
6.34527e-08
6.33812e-08
6.33183e-08
6.32642e-08
6.32186e-08
6.31815e-08
6.31525e-08
6.31313e-08
6.31177e-08
6.3111e-08
6.42746e-08
6.42149e-08
6.41315e-08
6.40294e-08
6.39129e-08
6.37858e-08
6.36515e-08
6.3513e-08
6.33729e-08
6.32335e-08
6.30967e-08
6.2964e-08
6.2837e-08
6.27166e-08
6.26038e-08
6.24993e-08
6.24035e-08
6.23169e-08
6.22397e-08
6.21718e-08
6.21134e-08
6.20643e-08
6.20242e-08
6.19929e-08
6.19701e-08
6.19553e-08
6.19481e-08
6.3334e-08
6.32701e-08
6.31811e-08
6.30724e-08
6.29486e-08
6.28138e-08
6.26718e-08
6.25256e-08
6.23781e-08
6.22316e-08
6.2088e-08
6.19491e-08
6.18162e-08
6.16904e-08
6.15727e-08
6.14637e-08
6.13639e-08
6.12736e-08
6.11931e-08
6.11224e-08
6.10615e-08
6.10103e-08
6.09685e-08
6.09358e-08
6.0912e-08
6.08965e-08
6.0889e-08
6.24222e-08
6.23563e-08
6.22646e-08
6.21526e-08
6.20253e-08
6.18869e-08
6.17412e-08
6.15915e-08
6.14406e-08
6.12908e-08
6.11441e-08
6.10023e-08
6.08668e-08
6.07385e-08
6.06185e-08
6.05074e-08
6.04057e-08
6.03137e-08
6.02316e-08
6.01595e-08
6.00973e-08
6.0045e-08
6.00023e-08
5.99689e-08
5.99445e-08
5.99287e-08
5.9921e-08
6.15484e-08
6.14819e-08
6.13894e-08
6.12765e-08
6.11483e-08
6.10089e-08
6.08623e-08
6.07118e-08
6.056e-08
6.04095e-08
6.02622e-08
6.01198e-08
5.99836e-08
5.98548e-08
5.97343e-08
5.96227e-08
5.95204e-08
5.94279e-08
5.93453e-08
5.92728e-08
5.92102e-08
5.91574e-08
5.91144e-08
5.90807e-08
5.9056e-08
5.904e-08
5.90322e-08
6.07169e-08
6.06507e-08
6.05587e-08
6.04464e-08
6.03188e-08
6.01802e-08
6.00345e-08
5.98847e-08
5.97339e-08
5.95842e-08
5.94378e-08
5.92961e-08
5.91607e-08
5.90326e-08
5.89126e-08
5.88014e-08
5.86996e-08
5.86073e-08
5.85249e-08
5.84525e-08
5.839e-08
5.83372e-08
5.82941e-08
5.82604e-08
5.82357e-08
5.82196e-08
5.82118e-08
5.99286e-08
5.98633e-08
5.97724e-08
5.96616e-08
5.95356e-08
5.93988e-08
5.92549e-08
5.91071e-08
5.8958e-08
5.88102e-08
5.86654e-08
5.85254e-08
5.83915e-08
5.82646e-08
5.81458e-08
5.80356e-08
5.79346e-08
5.78431e-08
5.77613e-08
5.76893e-08
5.76271e-08
5.75746e-08
5.75317e-08
5.7498e-08
5.74734e-08
5.74573e-08
5.74495e-08
5.91819e-08
5.91177e-08
5.90284e-08
5.89195e-08
5.87956e-08
5.86611e-08
5.85195e-08
5.8374e-08
5.82273e-08
5.80817e-08
5.7939e-08
5.7801e-08
5.76688e-08
5.75436e-08
5.74262e-08
5.73172e-08
5.72173e-08
5.71267e-08
5.70456e-08
5.69742e-08
5.69124e-08
5.68603e-08
5.68176e-08
5.67841e-08
5.67595e-08
5.67435e-08
5.67358e-08
5.84736e-08
5.84106e-08
5.83229e-08
5.8216e-08
5.80944e-08
5.79623e-08
5.78232e-08
5.76801e-08
5.75358e-08
5.73924e-08
5.72519e-08
5.71158e-08
5.69855e-08
5.68619e-08
5.67459e-08
5.66382e-08
5.65393e-08
5.64495e-08
5.63692e-08
5.62983e-08
5.6237e-08
5.61852e-08
5.61427e-08
5.61094e-08
5.60849e-08
5.6069e-08
5.60612e-08
5.77989e-08
5.77371e-08
5.76511e-08
5.75461e-08
5.74266e-08
5.72967e-08
5.71599e-08
5.70191e-08
5.68769e-08
5.67356e-08
5.65971e-08
5.64627e-08
5.63339e-08
5.62117e-08
5.6097e-08
5.59903e-08
5.58923e-08
5.58032e-08
5.57234e-08
5.5653e-08
5.55921e-08
5.55405e-08
5.54982e-08
5.54649e-08
5.54405e-08
5.54246e-08
5.54168e-08
5.71526e-08
5.70918e-08
5.70071e-08
5.69038e-08
5.67861e-08
5.66581e-08
5.65231e-08
5.63842e-08
5.62438e-08
5.61041e-08
5.5967e-08
5.5834e-08
5.57064e-08
5.55852e-08
5.54713e-08
5.53653e-08
5.52678e-08
5.51792e-08
5.50997e-08
5.50295e-08
5.49687e-08
5.49172e-08
5.48749e-08
5.48417e-08
5.48172e-08
5.48013e-08
5.47935e-08
5.65283e-08
5.64683e-08
5.63846e-08
5.62825e-08
5.61661e-08
5.60394e-08
5.59057e-08
5.5768e-08
5.56288e-08
5.54901e-08
5.53539e-08
5.52216e-08
5.50946e-08
5.49739e-08
5.48603e-08
5.47545e-08
5.46572e-08
5.45686e-08
5.44891e-08
5.44188e-08
5.43579e-08
5.43062e-08
5.42638e-08
5.42304e-08
5.42058e-08
5.41898e-08
5.4182e-08
5.59191e-08
5.58594e-08
5.57764e-08
5.56748e-08
5.55592e-08
5.54331e-08
5.53e-08
5.51628e-08
5.50239e-08
5.48855e-08
5.47494e-08
5.46171e-08
5.449e-08
5.4369e-08
5.42551e-08
5.4149e-08
5.40512e-08
5.39622e-08
5.38822e-08
5.38115e-08
5.37501e-08
5.3698e-08
5.36552e-08
5.36215e-08
5.35967e-08
5.35805e-08
5.35726e-08
5.53171e-08
5.52575e-08
5.51745e-08
5.5073e-08
5.49572e-08
5.48309e-08
5.46975e-08
5.45598e-08
5.44204e-08
5.42813e-08
5.41444e-08
5.40112e-08
5.38831e-08
5.37612e-08
5.36462e-08
5.35391e-08
5.34402e-08
5.33502e-08
5.32692e-08
5.31975e-08
5.31353e-08
5.30825e-08
5.3039e-08
5.30048e-08
5.29795e-08
5.29631e-08
5.2955e-08
5.4714e-08
5.4654e-08
5.45704e-08
5.4468e-08
5.43512e-08
5.42238e-08
5.40891e-08
5.39499e-08
5.38088e-08
5.36679e-08
5.35292e-08
5.33941e-08
5.32641e-08
5.31402e-08
5.30233e-08
5.29143e-08
5.28136e-08
5.27219e-08
5.26393e-08
5.25662e-08
5.25026e-08
5.24487e-08
5.24043e-08
5.23692e-08
5.23434e-08
5.23266e-08
5.23183e-08
5.41003e-08
5.40394e-08
5.39544e-08
5.38504e-08
5.37316e-08
5.36019e-08
5.34646e-08
5.33227e-08
5.31788e-08
5.30349e-08
5.28932e-08
5.2755e-08
5.26219e-08
5.2495e-08
5.23752e-08
5.22633e-08
5.216e-08
5.20658e-08
5.1981e-08
5.19058e-08
5.18404e-08
5.17848e-08
5.17391e-08
5.1703e-08
5.16764e-08
5.1659e-08
5.16505e-08
5.34658e-08
5.34034e-08
5.33162e-08
5.32095e-08
5.30875e-08
5.29543e-08
5.28132e-08
5.26672e-08
5.25189e-08
5.23708e-08
5.22246e-08
5.2082e-08
5.19446e-08
5.18134e-08
5.16896e-08
5.15739e-08
5.14669e-08
5.13693e-08
5.12814e-08
5.12035e-08
5.11357e-08
5.10781e-08
5.10306e-08
5.09931e-08
5.09655e-08
5.09474e-08
5.09385e-08
5.2799e-08
5.27344e-08
5.26442e-08
5.25336e-08
5.24072e-08
5.2269e-08
5.21225e-08
5.19709e-08
5.18168e-08
5.16627e-08
5.15106e-08
5.13621e-08
5.12189e-08
5.10822e-08
5.0953e-08
5.08323e-08
5.07207e-08
5.06187e-08
5.05268e-08
5.04454e-08
5.03745e-08
5.03142e-08
5.02645e-08
5.02253e-08
5.01964e-08
5.01774e-08
5.01682e-08
5.20874e-08
5.20198e-08
5.19255e-08
5.18098e-08
5.16775e-08
5.15327e-08
5.13792e-08
5.12203e-08
5.10586e-08
5.08969e-08
5.07371e-08
5.05811e-08
5.04306e-08
5.02868e-08
5.01508e-08
5.00237e-08
4.99062e-08
4.97988e-08
4.9702e-08
4.96162e-08
4.95414e-08
4.94779e-08
4.94255e-08
4.93841e-08
4.93536e-08
4.93336e-08
4.93238e-08
5.13169e-08
5.12456e-08
5.1146e-08
5.10238e-08
5.0884e-08
5.0731e-08
5.05687e-08
5.04004e-08
5.02293e-08
5.0058e-08
4.98887e-08
4.97234e-08
4.95637e-08
4.94112e-08
4.9267e-08
4.91321e-08
4.90073e-08
4.88933e-08
4.87906e-08
4.86994e-08
4.862e-08
4.85525e-08
4.84968e-08
4.84529e-08
4.84204e-08
4.83992e-08
4.83888e-08
5.04726e-08
5.03966e-08
5.02905e-08
5.01602e-08
5.00112e-08
4.9848e-08
4.96748e-08
4.94952e-08
4.93126e-08
4.91296e-08
4.89487e-08
4.87721e-08
4.86015e-08
4.84385e-08
4.82843e-08
4.81401e-08
4.80067e-08
4.78847e-08
4.77748e-08
4.76773e-08
4.75924e-08
4.75202e-08
4.74606e-08
4.74136e-08
4.73789e-08
4.73562e-08
4.73451e-08
4.95377e-08
4.94561e-08
4.93421e-08
4.92022e-08
4.9042e-08
4.88666e-08
4.86804e-08
4.84873e-08
4.82909e-08
4.8094e-08
4.78994e-08
4.77094e-08
4.75258e-08
4.73504e-08
4.71845e-08
4.70293e-08
4.68858e-08
4.67546e-08
4.66363e-08
4.65314e-08
4.64401e-08
4.63624e-08
4.62983e-08
4.62478e-08
4.62105e-08
4.6186e-08
4.61741e-08
4.84948e-08
4.84066e-08
4.82833e-08
4.81319e-08
4.79586e-08
4.77688e-08
4.75673e-08
4.73584e-08
4.71458e-08
4.69328e-08
4.67223e-08
4.65167e-08
4.63181e-08
4.61283e-08
4.59489e-08
4.5781e-08
4.56258e-08
4.5484e-08
4.53562e-08
4.52428e-08
4.51441e-08
4.50601e-08
4.49909e-08
4.49363e-08
4.4896e-08
4.48697e-08
4.48567e-08
4.73254e-08
4.72294e-08
4.70953e-08
4.69307e-08
4.67423e-08
4.65359e-08
4.63168e-08
4.60897e-08
4.58587e-08
4.56272e-08
4.53984e-08
4.51751e-08
4.49594e-08
4.47533e-08
4.45586e-08
4.43765e-08
4.42081e-08
4.40543e-08
4.39157e-08
4.37928e-08
4.36858e-08
4.35949e-08
4.352e-08
4.34608e-08
4.34172e-08
4.33887e-08
4.33747e-08
4.60107e-08
4.5906e-08
4.57596e-08
4.558e-08
4.53744e-08
4.51493e-08
4.49104e-08
4.46628e-08
4.4411e-08
4.41588e-08
4.39097e-08
4.36665e-08
4.34318e-08
4.32077e-08
4.2996e-08
4.2798e-08
4.26151e-08
4.24481e-08
4.22977e-08
4.21643e-08
4.20483e-08
4.19497e-08
4.18685e-08
4.18044e-08
4.17572e-08
4.17263e-08
4.17111e-08
4.45325e-08
4.4418e-08
4.4258e-08
4.40617e-08
4.38371e-08
4.35913e-08
4.33305e-08
4.30604e-08
4.27857e-08
4.25109e-08
4.22395e-08
4.19748e-08
4.17194e-08
4.14757e-08
4.12456e-08
4.10306e-08
4.0832e-08
4.06508e-08
4.04877e-08
4.03432e-08
4.02175e-08
4.01107e-08
4.00228e-08
3.99535e-08
3.99024e-08
3.9869e-08
3.98526e-08
4.28741e-08
4.2749e-08
4.25742e-08
4.23598e-08
4.21147e-08
4.18465e-08
4.15622e-08
4.12678e-08
4.09688e-08
4.06698e-08
4.03748e-08
4.00872e-08
3.981e-08
3.95456e-08
3.92962e-08
3.90633e-08
3.88484e-08
3.86524e-08
3.84761e-08
3.832e-08
3.81843e-08
3.80691e-08
3.79743e-08
3.78996e-08
3.78446e-08
3.78086e-08
3.7791e-08
4.10221e-08
4.08857e-08
4.06953e-08
4.04619e-08
4.01952e-08
3.99036e-08
3.95947e-08
3.92752e-08
3.89509e-08
3.8627e-08
3.83076e-08
3.79966e-08
3.76971e-08
3.74118e-08
3.71428e-08
3.6892e-08
3.66606e-08
3.64498e-08
3.62603e-08
3.60927e-08
3.59471e-08
3.58235e-08
3.57219e-08
3.56419e-08
3.55829e-08
3.55444e-08
3.55256e-08
3.89679e-08
3.882e-08
3.86137e-08
3.8361e-08
3.80723e-08
3.77571e-08
3.74236e-08
3.7079e-08
3.67297e-08
3.6381e-08
3.60378e-08
3.57039e-08
3.53828e-08
3.50772e-08
3.47894e-08
3.45213e-08
3.42743e-08
3.40494e-08
3.38474e-08
3.36688e-08
3.35137e-08
3.33822e-08
3.32739e-08
3.31886e-08
3.31258e-08
3.30849e-08
3.30649e-08
3.67096e-08
3.65505e-08
3.63286e-08
3.6057e-08
3.57471e-08
3.54091e-08
3.50519e-08
3.46833e-08
3.431e-08
3.3938e-08
3.35721e-08
3.32167e-08
3.2875e-08
3.25501e-08
3.22448e-08
3.1961e-08
3.16999e-08
3.14626e-08
3.12499e-08
3.1062e-08
3.08992e-08
3.07613e-08
3.06481e-08
3.05591e-08
3.04936e-08
3.04509e-08
3.04301e-08
3.42547e-08
3.40852e-08
3.38489e-08
3.35599e-08
3.32306e-08
3.28718e-08
3.24928e-08
3.21021e-08
3.17078e-08
3.13158e-08
3.09313e-08
3.05586e-08
3.02013e-08
2.98624e-08
2.95443e-08
2.92488e-08
2.89773e-08
2.87309e-08
2.85103e-08
2.83156e-08
2.81471e-08
2.80046e-08
2.78878e-08
2.77959e-08
2.77285e-08
2.76845e-08
2.76631e-08
3.16187e-08
3.14406e-08
3.11926e-08
3.08899e-08
3.05454e-08
3.01709e-08
2.97764e-08
2.93709e-08
2.8962e-08
2.8556e-08
2.81585e-08
2.7774e-08
2.7406e-08
2.70577e-08
2.67314e-08
2.64288e-08
2.61513e-08
2.58999e-08
2.56751e-08
2.54771e-08
2.5306e-08
2.51614e-08
2.5043e-08
2.49501e-08
2.48819e-08
2.48375e-08
2.48159e-08
2.88456e-08
2.86616e-08
2.84056e-08
2.80936e-08
2.77393e-08
2.73549e-08
2.69509e-08
2.65366e-08
2.61198e-08
2.5707e-08
2.53038e-08
2.49146e-08
2.45432e-08
2.41925e-08
2.38646e-08
2.35613e-08
2.32837e-08
2.30328e-08
2.28088e-08
2.26119e-08
2.2442e-08
2.22988e-08
2.21816e-08
2.20899e-08
2.20226e-08
2.19789e-08
2.19576e-08
2.59822e-08
2.57957e-08
2.55368e-08
2.52217e-08
2.48647e-08
2.44783e-08
2.40733e-08
2.3659e-08
2.32435e-08
2.28332e-08
2.24336e-08
2.20491e-08
2.16832e-08
2.13387e-08
2.10175e-08
2.07211e-08
2.04507e-08
2.02067e-08
1.99895e-08
1.9799e-08
1.96351e-08
1.94971e-08
1.93844e-08
1.92963e-08
1.92319e-08
1.919e-08
1.91697e-08
2.30919e-08
2.29075e-08
2.26517e-08
2.23412e-08
2.19903e-08
2.16114e-08
2.12157e-08
2.08122e-08
2.04088e-08
2.0012e-08
1.96268e-08
1.92575e-08
1.89073e-08
1.85786e-08
1.82733e-08
1.79925e-08
1.7737e-08
1.75073e-08
1.73034e-08
1.7125e-08
1.69719e-08
1.68433e-08
1.67386e-08
1.6657e-08
1.65973e-08
1.65587e-08
1.654e-08
2.02513e-08
2.00738e-08
1.98283e-08
1.95308e-08
1.91957e-08
1.88351e-08
1.84598e-08
1.80787e-08
1.76992e-08
1.73273e-08
1.6968e-08
1.66249e-08
1.63008e-08
1.5998e-08
1.57177e-08
1.54611e-08
1.52284e-08
1.502e-08
1.48356e-08
1.46749e-08
1.45374e-08
1.44223e-08
1.43289e-08
1.42562e-08
1.42033e-08
1.41692e-08
1.41526e-08
1.75434e-08
1.73781e-08
1.71499e-08
1.68743e-08
1.65648e-08
1.62331e-08
1.58894e-08
1.55419e-08
1.51975e-08
1.48617e-08
1.45388e-08
1.4232e-08
1.39437e-08
1.36756e-08
1.34287e-08
1.32036e-08
1.30005e-08
1.28194e-08
1.26599e-08
1.25216e-08
1.24036e-08
1.23053e-08
1.22258e-08
1.21642e-08
1.21195e-08
1.20908e-08
1.20769e-08
1.50498e-08
1.49015e-08
1.46972e-08
1.44513e-08
1.41763e-08
1.38829e-08
1.35803e-08
1.3276e-08
1.29761e-08
1.26853e-08
1.24073e-08
1.21448e-08
1.18995e-08
1.16727e-08
1.1465e-08
1.12769e-08
1.11081e-08
1.09583e-08
1.08272e-08
1.07141e-08
1.06181e-08
1.05386e-08
1.04746e-08
1.04253e-08
1.03897e-08
1.0367e-08
1.0356e-08
1.2841e-08
1.27133e-08
1.2538e-08
1.23278e-08
1.20937e-08
1.18453e-08
1.15905e-08
1.13359e-08
1.10865e-08
1.08463e-08
1.06181e-08
1.04041e-08
1.02056e-08
1.00232e-08
9.8575e-09
9.70832e-09
9.57544e-09
9.4584e-09
9.35662e-09
9.26941e-09
9.19599e-09
9.13557e-09
9.08733e-09
9.0504e-09
9.02396e-09
9.00715e-09
8.99916e-09
1.09659e-08
1.0861e-08
1.07174e-08
1.0546e-08
1.0356e-08
1.01556e-08
9.95126e-09
9.74842e-09
9.55115e-09
9.36253e-09
9.18474e-09
9.01923e-09
8.86689e-09
8.72813e-09
8.60301e-09
8.49132e-09
8.39269e-09
8.30658e-09
8.23236e-09
8.16934e-09
8.11681e-09
8.07401e-09
8.04018e-09
8.01458e-09
7.99646e-09
7.98508e-09
7.97973e-09
9.44489e-09
9.36283e-09
9.25091e-09
9.11786e-09
8.97124e-09
8.81745e-09
8.66174e-09
8.50821e-09
8.35999e-09
8.21936e-09
8.08784e-09
7.96642e-09
7.85558e-09
7.75551e-09
7.66608e-09
7.587e-09
7.51785e-09
7.45811e-09
7.40718e-09
7.36446e-09
7.32931e-09
7.30106e-09
7.27908e-09
7.26272e-09
7.25136e-09
7.24437e-09
7.24116e-09
8.26629e-09
8.20521e-09
8.12218e-09
8.02387e-09
7.91608e-09
7.80365e-09
7.69047e-09
7.57959e-09
7.47323e-09
7.37299e-09
7.27989e-09
7.19453e-09
7.11718e-09
7.04787e-09
6.98642e-09
6.93256e-09
6.88589e-09
6.84599e-09