/*--------------------------------*- C++ -*----------------------------------*\
| =========                 |                                                 |
| \\      /  F ield         | OpenFOAM: The Open Source CFD Toolbox           |
|  \\    /   O peration     | Version:  2106                                  |
|   \\  /    A nd           | Website:  www.openfoam.com                      |
|    \\/     M anipulation  |                                                 |
\*---------------------------------------------------------------------------*/
FoamFile
{
    version     2.0;
    format      ascii;
    arch        "LSB;label=32;scalar=64";
    class       volScalarField;
    location    "110.00057";
    object      C2H4;
}
// * * * * * * * * * * * * * * * * * * * * * * * * * * * * * * * * * * * * * //

dimensions      [0 0 0 0 0 0 0];

internalField   nonuniform List<scalar> 
3360
(
8.60034e-25
9.13843e-25
9.89613e-25
1.08377e-24
1.19318e-24
1.31494e-24
1.44624e-24
1.58435e-24
1.72665e-24
1.87062e-24
2.0139e-24
2.15434e-24
2.29e-24
2.41921e-24
2.54057e-24
2.65295e-24
2.75549e-24
2.8476e-24
2.92895e-24
2.99944e-24
3.05916e-24
3.10843e-24
3.14768e-24
3.17752e-24
3.19866e-24
3.21188e-24
3.21804e-24
4.34849e-24
4.6494e-24
5.07957e-24
5.62477e-24
6.27418e-24
7.01868e-24
7.85002e-24
8.76021e-24
9.7412e-24
1.07845e-23
1.18811e-23
1.3021e-23
1.41934e-23
1.53863e-23
1.65869e-23
1.77813e-23
1.89551e-23
2.00927e-23
2.11784e-23
2.21959e-23
2.31292e-23
2.39631e-23
2.46829e-23
2.52759e-23
2.5731e-23
2.60396e-23
2.61956e-23
1.66175e-23
1.7984e-23
1.99617e-23
2.25085e-23
2.55977e-23
2.92083e-23
3.33189e-23
3.79042e-23
4.29312e-23
4.83573e-23
5.41283e-23
6.01794e-23
6.64372e-23
7.28198e-23
7.92376e-23
8.55958e-23
9.17967e-23
9.77428e-23
1.0334e-22
1.085e-22
1.13146e-22
1.17209e-22
1.20639e-22
1.23397e-22
1.25462e-22
1.26826e-22
1.27498e-22
6.00278e-23
6.56644e-23
7.39249e-23
8.47129e-23
9.79925e-23
1.1374e-22
1.31915e-22
1.52435e-22
1.75167e-22
1.99909e-22
2.26394e-22
2.54291e-22
2.83206e-22
3.12697e-22
3.42285e-22
3.71469e-22
3.99748e-22
4.26643e-22
4.51714e-22
4.74579e-22
4.9492e-22
5.125e-22
5.27153e-22
5.38791e-22
5.47399e-22
5.53021e-22
5.55759e-22
2.23053e-22
2.46062e-22
2.79998e-22
3.24651e-22
3.80041e-22
4.46206e-22
5.23057e-22
6.10284e-22
7.07277e-22
8.13093e-22
9.26453e-22
1.04577e-21
1.16919e-21
1.29469e-21
1.42009e-21
1.54321e-21
1.66195e-21
1.77431e-21
1.87855e-21
1.97317e-21
2.05698e-21
2.12911e-21
2.18901e-21
2.23642e-21
2.27137e-21
2.29413e-21
2.30519e-21
8.50424e-22
9.43443e-22
1.08119e-21
1.26319e-21
1.48982e-21
1.76142e-21
2.07768e-21
2.43732e-21
2.83768e-21
3.27469e-21
3.74283e-21
4.23525e-21
4.74403e-21
5.26047e-21
5.7755e-21
6.28005e-21
6.76542e-21
7.22362e-21
7.64763e-21
8.03157e-21
8.37086e-21
8.6622e-21
8.90362e-21
9.09434e-21
9.23469e-21
9.32595e-21
9.37022e-21
3.29738e-21
3.6717e-21
4.22718e-21
4.96278e-21
5.8807e-21
6.98263e-21
8.26736e-21
9.72912e-21
1.13566e-20
1.31325e-20
1.50336e-20
1.70314e-20
1.9093e-20
2.1183e-20
2.32644e-20
2.53007e-20
2.7257e-20
2.91014e-20
3.08062e-20
3.23482e-20
3.37095e-20
3.48775e-20
3.58446e-20
3.6608e-20
3.71695e-20
3.75344e-20
3.77114e-20
1.29078e-20
1.44033e-20
1.66257e-20
1.9573e-20
2.32555e-20
2.76812e-20
3.28458e-20
3.8726e-20
4.52754e-20
5.24228e-20
6.00731e-20
6.81098e-20
7.63998e-20
8.47989e-20
9.31581e-20
1.0133e-19
1.09175e-19
1.16565e-19
1.23391e-19
1.2956e-19
1.35001e-19
1.39666e-19
1.43526e-19
1.46571e-19
1.48808e-19
1.50262e-19
1.50966e-19
5.0847e-20
5.68199e-20
6.57019e-20
7.74888e-20
9.22252e-20
1.09944e-19
1.30626e-19
1.54177e-19
1.80404e-19
2.09019e-19
2.39635e-19
2.71782e-19
3.04924e-19
3.38483e-19
3.71864e-19
4.04478e-19
4.35771e-19
4.65237e-19
4.92437e-19
5.17012e-19
5.38683e-19
5.57255e-19
5.72619e-19
5.84736e-19
5.93641e-19
5.99424e-19
6.02226e-19
2.00684e-19
2.2444e-19
2.59787e-19
3.06723e-19
3.65436e-19
4.36064e-19
5.18537e-19
6.12466e-19
7.17088e-19
8.31233e-19
9.53351e-19
1.08155e-18
1.21369e-18
1.34746e-18
1.48047e-18
1.61038e-18
1.73498e-18
1.85226e-18
1.96048e-18
2.05822e-18
2.14436e-18
2.21816e-18
2.27919e-18
2.3273e-18
2.36264e-18
2.38559e-18
2.3967e-18
7.93598e-19
8.88099e-19
1.02873e-18
1.21551e-18
1.44918e-18
1.73031e-18
2.05858e-18
2.43242e-18
2.84873e-18
3.30282e-18
3.78848e-18
4.29814e-18
4.82326e-18
5.35462e-18
5.88277e-18
6.39841e-18
6.89278e-18
7.35795e-18
7.78705e-18
8.17445e-18
8.51584e-18
8.80824e-18
9.04997e-18
9.24053e-18
9.38049e-18
9.47135e-18
9.51535e-18
3.1364e-18
3.51127e-18
4.06926e-18
4.81043e-18
5.73784e-18
6.85362e-18
8.15649e-18
9.64011e-18
1.12921e-17
1.30936e-17
1.50198e-17
1.70407e-17
1.91222e-17
2.12277e-17
2.33196e-17
2.53612e-17
2.73178e-17
2.91579e-17
3.08547e-17
3.2386e-17
3.37348e-17
3.48896e-17
3.58439e-17
3.65959e-17
3.71481e-17
3.75064e-17
3.76799e-17
1.23891e-17
1.38752e-17
1.60871e-17
1.90246e-17
2.26995e-17
2.71195e-17
3.22789e-17
3.81516e-17
4.46875e-17
5.18115e-17
5.94245e-17
6.7407e-17
7.56239e-17
8.39305e-17
9.21789e-17
1.00224e-16
1.0793e-16
1.15173e-16
1.21849e-16
1.2787e-16
1.33172e-16
1.37709e-16
1.41457e-16
1.44409e-16
1.46576e-16
1.47982e-16
1.48663e-16
4.87913e-17
5.46604e-17
6.33949e-17
7.49937e-17
8.95007e-17
1.06944e-16
1.27296e-16
1.5045e-16
1.76204e-16
2.04255e-16
2.3421e-16
2.65595e-16
2.97874e-16
3.30479e-16
3.62828e-16
3.94354e-16
4.24524e-16
4.52861e-16
4.78956e-16
5.02476e-16
5.2317e-16
5.40868e-16
5.55479e-16
5.66981e-16
5.7542e-16
5.80892e-16
5.83539e-16
1.91483e-16
2.14585e-16
2.48956e-16
2.94579e-16
3.5161e-16
4.20137e-16
5.00028e-16
5.90833e-16
6.91725e-16
8.01495e-16
9.1857e-16
1.04108e-15
1.16692e-15
1.29386e-15
1.41964e-15
1.54207e-15
1.65909e-15
1.76887e-15
1.86986e-15
1.96078e-15
2.04071e-15
2.109e-15
2.16533e-15
2.20965e-15
2.24214e-15
2.2632e-15
2.27338e-15
7.46932e-16
8.37245e-16
9.71546e-16
1.1497e-15
1.37222e-15
1.63933e-15
1.95038e-15
2.30347e-15
2.69523e-15
3.1208e-15
3.57398e-15
4.04739e-15
4.53285e-15
5.02171e-15
5.50527e-15
5.97512e-15
6.42347e-15
6.84341e-15
7.22908e-15
7.57581e-15
7.88014e-15
8.13984e-15
8.35379e-15
8.52191e-15
8.64503e-15
8.72474e-15
8.76326e-15
2.89117e-15
3.24122e-15
3.76135e-15
4.45061e-15
5.31042e-15
6.34096e-15
7.53894e-15
8.89618e-15
1.03989e-14
1.20277e-14
1.3758e-14
1.55612e-14
1.74058e-14
1.92587e-14
2.10871e-14
2.28594e-14
2.45466e-14
2.61234e-14
2.75685e-14
2.8865e-14
3.00009e-14
3.09685e-14
3.17643e-14
3.23888e-14
3.28455e-14
3.31408e-14
3.32833e-14
1.10776e-14
1.24178e-14
1.4407e-14
1.7039e-14
2.0316e-14
2.42351e-14
2.87795e-14
3.39139e-14
3.95818e-14
4.5706e-14
5.2191e-14
5.89269e-14
6.57943e-14
7.26701e-14
7.94328e-14
8.59674e-14
9.21695e-14
9.79487e-14
1.0323e-13
1.07957e-13
1.12088e-13
1.15599e-13
1.18481e-13
1.20738e-13
1.22386e-13
1.2345e-13
1.23963e-13
4.19103e-14
4.69602e-14
5.44424e-14
6.43203e-14
7.65857e-14
9.12079e-14
1.08104e-13
1.2712e-13
1.48026e-13
1.70521e-13
1.94238e-13
2.18765e-13
2.43663e-13
2.68485e-13
2.92797e-13
3.16195e-13
3.38318e-13
3.58858e-13
3.77567e-13
3.94256e-13
4.088e-13
4.21127e-13
4.31221e-13
4.39108e-13
4.44855e-13
4.48559e-13
4.50342e-13
1.56115e-13
1.74744e-13
2.02281e-13
2.38523e-13
2.83356e-13
3.36575e-13
3.9778e-13
4.66317e-13
5.41271e-13
6.2148e-13
7.05583e-13
7.92085e-13
8.79421e-13
9.66036e-13
1.05045e-12
1.13129e-12
1.20739e-12
1.27774e-12
1.34156e-12
1.39828e-12
1.44754e-12
1.48917e-12
1.52316e-12
1.54965e-12
1.56891e-12
1.5813e-12
1.58726e-12
5.70928e-13
6.37855e-13
7.3647e-13
8.65717e-13
1.02481e-12
1.21262e-12
1.42729e-12
1.66615e-12
1.92566e-12
2.20151e-12
2.48884e-12
2.78244e-12
3.07701e-12
3.36737e-12
3.64871e-12
3.91671e-12
4.16767e-12
4.39859e-12
4.60716e-12
4.7918e-12
4.95157e-12
5.08613e-12
5.19567e-12
5.28082e-12
5.34258e-12
5.38222e-12
5.40123e-12
2.0433e-12
2.276e-12
2.61749e-12
3.0627e-12
3.60734e-12
4.24586e-12
4.97039e-12
5.77044e-12
6.63294e-12
7.54274e-12
8.48329e-12
9.43737e-12
1.03879e-11
1.13187e-11
1.22151e-11
1.30639e-11
1.38546e-11
1.45785e-11
1.52294e-11
1.58033e-11
1.6298e-11
1.67133e-11
1.70503e-11
1.73116e-11
1.75006e-11
1.76217e-11
1.76797e-11
7.13193e-12
7.91017e-12
9.04669e-12
1.05191e-11
1.23074e-11
1.43872e-11
1.67276e-11
1.92901e-11
2.20292e-11
2.48948e-11
2.78335e-11
3.07918e-11
3.37182e-11
3.65645e-11
3.92882e-11
4.1853e-11
4.42293e-11
4.63945e-11
4.83328e-11
5.00349e-11
5.1497e-11
5.27204e-11
5.37105e-11
5.44762e-11
5.5029e-11
5.53823e-11
5.55512e-11
2.41791e-11
2.66682e-11
3.02834e-11
3.49348e-11
4.05391e-11
4.70021e-11
5.42112e-11
6.20351e-11
7.03268e-11
7.89294e-11
8.76826e-11
9.64294e-11
1.05022e-10
1.13327e-10
1.21227e-10
1.28627e-10
1.3545e-10
1.41639e-10
1.47158e-10
1.51987e-10
1.56121e-10
1.59571e-10
1.62356e-10
1.64504e-10
1.66052e-10
1.6704e-10
1.67512e-10
7.92689e-11
8.68481e-11
9.77949e-11
1.1178e-10
1.28498e-10
1.47615e-10
1.68759e-10
1.91514e-10
2.15437e-10
2.40068e-10
2.64952e-10
2.89655e-10
3.13775e-10
3.36958e-10
3.58902e-10
3.79362e-10
3.98149e-10
4.15129e-10
4.3022e-10
4.43385e-10
4.54629e-10
4.63987e-10
4.71527e-10
4.77333e-10
4.8151e-10
4.84172e-10
4.8544e-10
2.50144e-10
2.72057e-10
3.0354e-10
3.43499e-10
3.90916e-10
4.44729e-10
5.03797e-10
5.66904e-10
6.3279e-10
7.0019e-10
7.6788e-10
8.34713e-10
8.99653e-10
9.61798e-10
1.02039e-09
1.07483e-09
1.12467e-09
1.16959e-09
1.20942e-09
1.24409e-09
1.27365e-09
1.29821e-09
1.31797e-09
1.33317e-09
1.34409e-09
1.35104e-09
1.35435e-09
7.56806e-10
8.16945e-10
9.02943e-10
1.01146e-09
1.13943e-09
1.2837e-09
1.44105e-09
1.60811e-09
1.78151e-09
1.95794e-09
2.13424e-09
2.30749e-09
2.47512e-09
2.63489e-09
2.78496e-09
2.9239e-09
3.05066e-09
3.16454e-09
3.2652e-09
3.35257e-09
3.42685e-09
3.48842e-09
3.53784e-09
3.57578e-09
3.60299e-09
3.62029e-09
3.62851e-09
2.18907e-09
2.34604e-09
2.56959e-09
2.8503e-09
3.1795e-09
3.54857e-09
3.94876e-09
4.37126e-09
4.8073e-09
5.24843e-09
5.68672e-09
6.11501e-09
6.52704e-09
6.9176e-09
7.28256e-09
7.61881e-09
7.92424e-09
8.1976e-09
8.43842e-09
8.64685e-09
8.82362e-09
8.96984e-09
9.08699e-09
9.17679e-09
9.24112e-09
9.28197e-09
9.30138e-09
6.03606e-09
6.42606e-09
6.97945e-09
7.67104e-09
8.47765e-09
9.37647e-09
1.03447e-08
1.13599e-08
1.24003e-08
1.34458e-08
1.44779e-08
1.54808e-08
1.64409e-08
1.73472e-08
1.81912e-08
1.89666e-08
1.96692e-08
2.02967e-08
2.08486e-08
2.13256e-08
2.17295e-08
2.20634e-08
2.23306e-08
2.25352e-08
2.26817e-08
2.27747e-08
2.28188e-08
1.57342e-08
1.66437e-08
1.79287e-08
1.95263e-08
2.13787e-08
2.34307e-08
2.56288e-08
2.7922e-08
3.02626e-08
3.26065e-08
3.49146e-08
3.71526e-08
3.92915e-08
4.1308e-08
4.31836e-08
4.49051e-08
4.64638e-08
4.7855e-08
4.90776e-08
5.01337e-08
5.10276e-08
5.17658e-08
5.23564e-08
5.28085e-08
5.31319e-08
5.33371e-08
5.34344e-08
3.79369e-08
3.98874e-08
4.26371e-08
4.60471e-08
4.9992e-08
5.43534e-08
5.90187e-08
6.38811e-08
6.88409e-08
7.38068e-08
7.86968e-08
8.34393e-08
8.79736e-08
9.22501e-08
9.62299e-08
9.98845e-08
1.03195e-07
1.06151e-07
1.0875e-07
1.10995e-07
1.12895e-07
1.14465e-07
1.15721e-07
1.16682e-07
1.17369e-07
1.17805e-07
1.18012e-07
8.31446e-08
8.69718e-08
9.23625e-08
9.90413e-08
1.06761e-07
1.15291e-07
1.24413e-07
1.33919e-07
1.43618e-07
1.53333e-07
1.62907e-07
1.72198e-07
1.8109e-07
1.89485e-07
1.97304e-07
2.04492e-07
2.11008e-07
2.16831e-07
2.21953e-07
2.2638e-07
2.3013e-07
2.33227e-07
2.35705e-07
2.376e-07
2.38956e-07
2.39814e-07
2.40221e-07
1.64996e-07
1.7179e-07
1.81349e-07
1.93176e-07
2.06827e-07
2.2189e-07
2.37977e-07
2.54724e-07
2.71795e-07
2.88882e-07
3.05707e-07
3.2203e-07
3.37643e-07
3.52377e-07
3.66098e-07
3.78705e-07
3.90131e-07
4.00337e-07
4.09312e-07
4.17066e-07
4.23628e-07
4.29046e-07
4.33377e-07
4.36688e-07
4.39053e-07
4.4055e-07
4.41259e-07
2.97942e-07
3.08818e-07
3.24091e-07
3.42945e-07
3.64649e-07
3.8853e-07
4.1396e-07
4.40358e-07
4.67188e-07
4.93968e-07
5.20267e-07
5.45712e-07
5.6999e-07
5.92845e-07
6.14077e-07
6.33543e-07
6.51147e-07
6.66841e-07
6.80614e-07
6.92492e-07
7.0253e-07
7.10803e-07
7.17407e-07
7.2245e-07
7.26048e-07
7.28324e-07
7.29401e-07
4.94979e-07
5.10812e-07
5.32992e-07
5.60284e-07
5.91589e-07
6.25896e-07
6.62275e-07
6.99874e-07
7.37922e-07
7.75733e-07
8.12707e-07
8.48331e-07
8.82185e-07
9.13932e-07
9.43319e-07
9.70168e-07
9.94373e-07
1.01589e-06
1.03472e-06
1.05092e-06
1.06459e-06
1.07583e-06
1.08479e-06
1.09162e-06
1.09649e-06
1.09956e-06
1.10102e-06
7.66607e-07
7.87862e-07
8.17557e-07
8.53968e-07
8.95559e-07
9.40932e-07
9.88817e-07
1.03806e-06
1.08765e-06
1.13669e-06
1.18441e-06
1.23018e-06
1.27349e-06
1.31393e-06
1.35122e-06
1.38517e-06
1.41568e-06
1.44272e-06
1.46633e-06
1.4866e-06
1.50366e-06
1.51768e-06
1.52883e-06
1.53733e-06
1.54338e-06
1.5472e-06
1.54901e-06
1.12045e-06
1.14714e-06
1.18433e-06
1.22977e-06
1.28147e-06
1.33763e-06
1.39662e-06
1.457e-06
1.51751e-06
1.57708e-06
1.63479e-06
1.68992e-06
1.74186e-06
1.79021e-06
1.83464e-06
1.87497e-06
1.91112e-06
1.94308e-06
1.97094e-06
1.99482e-06
2.01489e-06
2.03135e-06
2.04445e-06
2.05443e-06
2.06153e-06
2.06602e-06
2.06814e-06
1.56076e-06
1.59252e-06
1.63665e-06
1.69042e-06
1.75138e-06
1.81735e-06
1.88636e-06
1.95673e-06
2.02698e-06
2.09587e-06
2.16238e-06
2.22569e-06
2.28518e-06
2.34039e-06
2.391e-06
2.43685e-06
2.47787e-06
2.51409e-06
2.54562e-06
2.57261e-06
2.59529e-06
2.61389e-06
2.62868e-06
2.63994e-06
2.64796e-06
2.65303e-06
2.65542e-06
2.08798e-06
2.12417e-06
2.17438e-06
2.2354e-06
2.30439e-06
2.37881e-06
2.45645e-06
2.53537e-06
2.61393e-06
2.69076e-06
2.76474e-06
2.835e-06
2.90088e-06
2.96191e-06
3.01777e-06
3.06831e-06
3.11348e-06
3.15332e-06
3.18799e-06
3.21765e-06
3.24257e-06
3.26301e-06
3.27926e-06
3.29164e-06
3.30046e-06
3.30603e-06
3.30867e-06
2.69895e-06
2.73885e-06
2.79413e-06
2.86119e-06
2.93687e-06
3.01835e-06
3.10316e-06
3.18919e-06
3.27465e-06
3.35808e-06
3.43829e-06
3.51435e-06
3.58558e-06
3.65149e-06
3.71178e-06
3.76628e-06
3.81496e-06
3.8579e-06
3.89524e-06
3.92721e-06
3.95405e-06
3.97608e-06
3.9936e-06
4.00696e-06
4.01648e-06
4.0225e-06
4.02535e-06
3.38782e-06
3.43073e-06
3.49014e-06
3.56213e-06
3.64326e-06
3.73049e-06
3.82117e-06
3.91304e-06
4.00419e-06
4.09308e-06
4.17845e-06
4.25935e-06
4.33506e-06
4.40508e-06
4.4691e-06
4.52697e-06
4.57866e-06
4.62424e-06
4.6639e-06
4.69785e-06
4.72638e-06
4.74979e-06
4.76842e-06
4.78263e-06
4.79277e-06
4.79918e-06
4.80222e-06
4.14732e-06
4.19267e-06
4.25541e-06
4.33139e-06
4.41696e-06
4.50889e-06
4.60438e-06
4.70106e-06
4.79693e-06
4.89036e-06
4.98007e-06
5.06505e-06
5.14456e-06
5.21809e-06
5.28531e-06
5.34608e-06
5.40037e-06
5.44827e-06
5.48995e-06
5.52564e-06
5.55564e-06
5.58028e-06
5.5999e-06
5.61487e-06
5.62555e-06
5.63232e-06
5.63552e-06
4.96991e-06
5.01725e-06
5.08272e-06
5.16199e-06
5.25122e-06
5.34705e-06
5.44657e-06
5.54729e-06
5.64715e-06
5.74447e-06
5.83789e-06
5.92638e-06
6.00919e-06
6.08578e-06
6.15582e-06
6.21915e-06
6.27574e-06
6.32568e-06
6.36916e-06
6.4064e-06
6.43773e-06
6.46346e-06
6.48397e-06
6.49962e-06
6.5108e-06
6.51788e-06
6.52124e-06
5.84855e-06
5.89756e-06
5.96534e-06
6.04738e-06
6.13974e-06
6.23891e-06
6.3419e-06
6.44613e-06
6.54948e-06
6.6502e-06
6.7469e-06
6.83852e-06
6.92426e-06
7.00359e-06
7.07616e-06
7.14179e-06
7.20046e-06
7.25226e-06
7.29737e-06
7.33603e-06
7.36856e-06
7.39529e-06
7.41661e-06
7.43288e-06
7.44451e-06
7.45188e-06
7.45538e-06
6.77706e-06
6.82754e-06
6.89734e-06
6.98183e-06
7.07695e-06
7.1791e-06
7.28519e-06
7.39258e-06
7.49907e-06
7.60287e-06
7.70255e-06
7.79702e-06
7.88546e-06
7.9673e-06
8.04219e-06
8.10995e-06
8.17055e-06
8.22406e-06
8.27068e-06
8.31065e-06
8.3443e-06
8.37196e-06
8.39402e-06
8.41087e-06
8.42292e-06
8.43056e-06
8.43418e-06
7.75029e-06
7.80209e-06
7.87374e-06
7.96048e-06
8.05813e-06
8.16303e-06
8.27198e-06
8.38229e-06
8.4917e-06
8.59838e-06
8.70085e-06
8.79799e-06
8.88895e-06
8.97316e-06
9.05023e-06
9.11998e-06
9.18238e-06
9.23751e-06
9.28555e-06
9.32675e-06
9.36144e-06
9.38998e-06
9.41274e-06
9.43013e-06
9.44257e-06
9.45046e-06
9.45421e-06
8.76399e-06
8.81704e-06
8.89043e-06
8.97929e-06
9.07935e-06
9.18684e-06
9.29851e-06
9.4116e-06
9.5238e-06
9.63321e-06
9.73834e-06
9.83803e-06
9.9314e-06
1.00179e-05
1.0097e-05
1.01687e-05
1.02328e-05
1.02894e-05
1.03388e-05
1.03812e-05
1.04169e-05
1.04463e-05
1.04697e-05
1.04876e-05
1.05004e-05
1.05085e-05
1.05124e-05
9.81472e-06
9.86898e-06
9.94405e-06
1.0035e-05
1.01373e-05
1.02473e-05
1.03617e-05
1.04774e-05
1.05923e-05
1.07044e-05
1.08121e-05
1.09142e-05
1.10099e-05
1.10986e-05
1.11797e-05
1.12532e-05
1.1319e-05
1.13771e-05
1.14278e-05
1.14713e-05
1.15079e-05
1.15381e-05
1.15622e-05
1.15806e-05
1.15937e-05
1.16021e-05
1.1606e-05
1.08997e-05
1.09552e-05
1.10319e-05
1.11248e-05
1.12294e-05
1.13419e-05
1.14588e-05
1.15772e-05
1.16947e-05
1.18094e-05
1.19196e-05
1.20241e-05
1.21221e-05
1.22128e-05
1.22959e-05
1.23712e-05
1.24386e-05
1.24981e-05
1.25501e-05
1.25946e-05
1.26322e-05
1.26631e-05
1.26878e-05
1.27067e-05
1.27202e-05
1.27287e-05
1.27328e-05
1.20167e-05
1.20733e-05
1.21516e-05
1.22465e-05
1.23534e-05
1.24683e-05
1.25877e-05
1.27087e-05
1.28288e-05
1.2946e-05
1.30587e-05
1.31656e-05
1.32657e-05
1.33585e-05
1.34435e-05
1.35205e-05
1.35895e-05
1.36504e-05
1.37036e-05
1.37492e-05
1.37876e-05
1.38193e-05
1.38445e-05
1.38639e-05
1.38777e-05
1.38865e-05
1.38906e-05
1.31637e-05
1.32215e-05
1.33015e-05
1.33983e-05
1.35075e-05
1.36248e-05
1.37467e-05
1.38702e-05
1.39929e-05
1.41125e-05
1.42276e-05
1.43368e-05
1.44391e-05
1.45339e-05
1.46208e-05
1.46995e-05
1.47699e-05
1.48322e-05
1.48865e-05
1.49332e-05
1.49725e-05
1.50048e-05
1.50307e-05
1.50504e-05
1.50646e-05
1.50735e-05
1.50778e-05
1.43393e-05
1.43983e-05
1.44798e-05
1.45786e-05
1.469e-05
1.48096e-05
1.4934e-05
1.506e-05
1.51852e-05
1.53073e-05
1.54247e-05
1.55362e-05
1.56406e-05
1.57374e-05
1.58261e-05
1.59064e-05
1.59783e-05
1.60419e-05
1.60974e-05
1.6145e-05
1.61852e-05
1.62182e-05
1.62446e-05
1.62648e-05
1.62792e-05
1.62884e-05
1.62927e-05
1.55421e-05
1.56022e-05
1.56853e-05
1.57861e-05
1.58995e-05
1.60215e-05
1.61483e-05
1.62769e-05
1.64044e-05
1.6529e-05
1.66487e-05
1.67623e-05
1.68689e-05
1.69676e-05
1.7058e-05
1.71399e-05
1.72133e-05
1.72782e-05
1.73347e-05
1.73833e-05
1.74243e-05
1.7458e-05
1.74849e-05
1.75055e-05
1.75202e-05
1.75296e-05
1.7534e-05
1.67709e-05
1.68321e-05
1.69168e-05
1.70194e-05
1.7135e-05
1.72593e-05
1.73885e-05
1.75194e-05
1.76494e-05
1.77763e-05
1.78983e-05
1.80141e-05
1.81226e-05
1.82232e-05
1.83153e-05
1.83988e-05
1.84736e-05
1.85397e-05
1.85974e-05
1.86469e-05
1.86886e-05
1.8723e-05
1.87504e-05
1.87714e-05
1.87864e-05
1.87959e-05
1.88005e-05
1.80245e-05
1.80868e-05
1.81731e-05
1.82775e-05
1.83952e-05
1.85217e-05
1.86533e-05
1.87866e-05
1.89189e-05
1.90481e-05
1.91723e-05
1.92902e-05
1.94007e-05
1.95031e-05
1.95969e-05
1.96819e-05
1.9758e-05
1.98253e-05
1.9884e-05
1.99344e-05
1.99769e-05
2.00119e-05
2.00398e-05
2.00612e-05
2.00765e-05
2.00862e-05
2.00908e-05
1.9302e-05
1.93654e-05
1.94532e-05
1.95594e-05
1.96791e-05
1.98078e-05
1.99417e-05
2.00773e-05
2.02119e-05
2.03433e-05
2.04697e-05
2.05896e-05
2.0702e-05
2.08061e-05
2.09015e-05
2.0988e-05
2.10654e-05
2.11339e-05
2.11936e-05
2.12449e-05
2.12881e-05
2.13237e-05
2.13521e-05
2.13739e-05
2.13894e-05
2.13993e-05
2.1404e-05
2.06024e-05
2.06669e-05
2.0756e-05
2.0864e-05
2.09857e-05
2.11166e-05
2.12526e-05
2.13904e-05
2.15273e-05
2.16608e-05
2.17893e-05
2.19111e-05
2.20254e-05
2.21312e-05
2.22282e-05
2.23161e-05
2.23948e-05
2.24644e-05
2.2525e-05
2.25772e-05
2.26211e-05
2.26573e-05
2.26861e-05
2.27082e-05
2.2724e-05
2.27341e-05
2.27388e-05
2.19247e-05
2.19901e-05
2.20807e-05
2.21904e-05
2.2314e-05
2.24469e-05
2.2585e-05
2.2725e-05
2.2864e-05
2.29996e-05
2.313e-05
2.32538e-05
2.33698e-05
2.34772e-05
2.35757e-05
2.36649e-05
2.37448e-05
2.38155e-05
2.38771e-05
2.393e-05
2.39746e-05
2.40113e-05
2.40407e-05
2.40631e-05
2.40791e-05
2.40893e-05
2.40942e-05
2.32677e-05
2.33341e-05
2.3426e-05
2.35374e-05
2.36628e-05
2.37976e-05
2.39378e-05
2.40798e-05
2.42208e-05
2.43584e-05
2.44907e-05
2.46163e-05
2.4734e-05
2.4843e-05
2.49429e-05
2.50334e-05
2.51144e-05
2.51861e-05
2.52486e-05
2.53023e-05
2.53475e-05
2.53848e-05
2.54145e-05
2.54372e-05
2.54535e-05
2.54638e-05
2.54688e-05
2.46304e-05
2.46977e-05
2.47909e-05
2.49038e-05
2.5031e-05
2.51676e-05
2.53097e-05
2.54537e-05
2.55966e-05
2.57361e-05
2.58702e-05
2.59974e-05
2.61167e-05
2.62272e-05
2.63284e-05
2.64201e-05
2.65022e-05
2.65749e-05
2.66382e-05
2.66926e-05
2.67384e-05
2.67761e-05
2.68062e-05
2.68293e-05
2.68458e-05
2.68562e-05
2.68612e-05
2.60115e-05
2.60797e-05
2.61741e-05
2.62884e-05
2.64172e-05
2.65556e-05
2.66995e-05
2.68453e-05
2.699e-05
2.71312e-05
2.7267e-05
2.73958e-05
2.75165e-05
2.76284e-05
2.77308e-05
2.78237e-05
2.79068e-05
2.79803e-05
2.80444e-05
2.80994e-05
2.81458e-05
2.81839e-05
2.82144e-05
2.82377e-05
2.82544e-05
2.8265e-05
2.82701e-05
2.74097e-05
2.74787e-05
2.75742e-05
2.76898e-05
2.78201e-05
2.79601e-05
2.81057e-05
2.82531e-05
2.83995e-05
2.85423e-05
2.86795e-05
2.88098e-05
2.89318e-05
2.90449e-05
2.91485e-05
2.92423e-05
2.93263e-05
2.94006e-05
2.94654e-05
2.9521e-05
2.95679e-05
2.96065e-05
2.96373e-05
2.96609e-05
2.96777e-05
2.96884e-05
2.96935e-05
2.88233e-05
2.88931e-05
2.89895e-05
2.91064e-05
2.9238e-05
2.93794e-05
2.95265e-05
2.96754e-05
2.98232e-05
2.99674e-05
3.0106e-05
3.02375e-05
3.03608e-05
3.04749e-05
3.05795e-05
3.06742e-05
3.0759e-05
3.0834e-05
3.08994e-05
3.09556e-05
3.10029e-05
3.10418e-05
3.10729e-05
3.10967e-05
3.11137e-05
3.11245e-05
3.11296e-05
3.02506e-05
3.0321e-05
3.04183e-05
3.05362e-05
3.0669e-05
3.08117e-05
3.09599e-05
3.11101e-05
3.12592e-05
3.14046e-05
3.15444e-05
3.1677e-05
3.18012e-05
3.19163e-05
3.20217e-05
3.21172e-05
3.22027e-05
3.22782e-05
3.23441e-05
3.24007e-05
3.24484e-05
3.24876e-05
3.25189e-05
3.25429e-05
3.25601e-05
3.25709e-05
3.25761e-05
3.16894e-05
3.17603e-05
3.18584e-05
3.19771e-05
3.21109e-05
3.22546e-05
3.24039e-05
3.25551e-05
3.27052e-05
3.28516e-05
3.29923e-05
3.31257e-05
3.32507e-05
3.33666e-05
3.34726e-05
3.35687e-05
3.36547e-05
3.37307e-05
3.3797e-05
3.38539e-05
3.39018e-05
3.39413e-05
3.39728e-05
3.39969e-05
3.40141e-05
3.40251e-05
3.40303e-05
3.31374e-05
3.32087e-05
3.33073e-05
3.34267e-05
3.35611e-05
3.37055e-05
3.38556e-05
3.40076e-05
3.41584e-05
3.43055e-05
3.44468e-05
3.45809e-05
3.47064e-05
3.48227e-05
3.49293e-05
3.50257e-05
3.5112e-05
3.51883e-05
3.52549e-05
3.5312e-05
3.53601e-05
3.53998e-05
3.54314e-05
3.54556e-05
3.54729e-05
3.54839e-05
3.54891e-05
3.45916e-05
3.46631e-05
3.47621e-05
3.48818e-05
3.50167e-05
3.51616e-05
3.53121e-05
3.54645e-05
3.56157e-05
3.57631e-05
3.59048e-05
3.60392e-05
3.6165e-05
3.62815e-05
3.63882e-05
3.64849e-05
3.65713e-05
3.66478e-05
3.67144e-05
3.67716e-05
3.68198e-05
3.68595e-05
3.68911e-05
3.69154e-05
3.69327e-05
3.69437e-05
3.69489e-05
3.60489e-05
3.61204e-05
3.62195e-05
3.63393e-05
3.64743e-05
3.66192e-05
3.67698e-05
3.69222e-05
3.70734e-05
3.72209e-05
3.73625e-05
3.74968e-05
3.76226e-05
3.7739e-05
3.78456e-05
3.79422e-05
3.80286e-05
3.81049e-05
3.81715e-05
3.82286e-05
3.82767e-05
3.83163e-05
3.8348e-05
3.83721e-05
3.83894e-05
3.84004e-05
3.84057e-05
3.75053e-05
3.75767e-05
3.76756e-05
3.77952e-05
3.79299e-05
3.80745e-05
3.82247e-05
3.83767e-05
3.85275e-05
3.86744e-05
3.88156e-05
3.89494e-05
3.90748e-05
3.91908e-05
3.9297e-05
3.93931e-05
3.94792e-05
3.95552e-05
3.96215e-05
3.96783e-05
3.97262e-05
3.97657e-05
3.97971e-05
3.98212e-05
3.98384e-05
3.98494e-05
3.98546e-05
3.89565e-05
3.90276e-05
3.9126e-05
3.92449e-05
3.93789e-05
3.95227e-05
3.9672e-05
3.98231e-05
3.99729e-05
4.01189e-05
4.02592e-05
4.03921e-05
4.05165e-05
4.06317e-05
4.07371e-05
4.08325e-05
4.09179e-05
4.09933e-05
4.10591e-05
4.11155e-05
4.1163e-05
4.12021e-05
4.12333e-05
4.12572e-05
4.12743e-05
4.12851e-05
4.12903e-05
4.03976e-05
4.04681e-05
4.05655e-05
4.06835e-05
4.08161e-05
4.09586e-05
4.11064e-05
4.12561e-05
4.14044e-05
4.15489e-05
4.16876e-05
4.18191e-05
4.19421e-05
4.2056e-05
4.21602e-05
4.22545e-05
4.23388e-05
4.24134e-05
4.24783e-05
4.2534e-05
4.2581e-05
4.26196e-05
4.26504e-05
4.2674e-05
4.26909e-05
4.27016e-05
4.27066e-05
4.18229e-05
4.18924e-05
4.19886e-05
4.21049e-05
4.22358e-05
4.23763e-05
4.25221e-05
4.26695e-05
4.28157e-05
4.2958e-05
4.30946e-05
4.32241e-05
4.33452e-05
4.34572e-05
4.35598e-05
4.36525e-05
4.37355e-05
4.38087e-05
4.38726e-05
4.39274e-05
4.39735e-05
4.40115e-05
4.40417e-05
4.40649e-05
4.40815e-05
4.4092e-05
4.4097e-05
4.3226e-05
4.32943e-05
4.33888e-05
4.3503e-05
4.36314e-05
4.37692e-05
4.39122e-05
4.40568e-05
4.42e-05
4.43395e-05
4.44734e-05
4.46001e-05
4.47187e-05
4.48283e-05
4.49287e-05
4.50194e-05
4.51005e-05
4.51722e-05
4.52346e-05
4.52881e-05
4.53332e-05
4.53703e-05
4.53999e-05
4.54225e-05
4.54387e-05
4.5449e-05
4.54539e-05
4.46001e-05
4.46668e-05
4.47589e-05
4.48704e-05
4.49958e-05
4.51302e-05
4.52696e-05
4.54105e-05
4.55501e-05
4.56859e-05
4.58162e-05
4.59396e-05
4.6055e-05
4.61616e-05
4.62591e-05
4.63473e-05
4.64262e-05
4.64958e-05
4.65564e-05
4.66084e-05
4.66522e-05
4.66882e-05
4.67169e-05
4.67389e-05
4.67546e-05
4.67646e-05
4.67693e-05
4.59375e-05
4.60022e-05
4.60916e-05
4.61997e-05
4.63212e-05
4.64514e-05
4.65864e-05
4.67228e-05
4.68579e-05
4.69893e-05
4.71153e-05
4.72345e-05
4.73459e-05
4.74489e-05
4.75431e-05
4.76282e-05
4.77042e-05
4.77714e-05
4.78299e-05
4.788e-05
4.79222e-05
4.79569e-05
4.79846e-05
4.80058e-05
4.80209e-05
4.80305e-05
4.80351e-05
4.72302e-05
4.72926e-05
4.73786e-05
4.74826e-05
4.75995e-05
4.77247e-05
4.78545e-05
4.79855e-05
4.81152e-05
4.82413e-05
4.83621e-05
4.84764e-05
4.85832e-05
4.86819e-05
4.8772e-05
4.88535e-05
4.89263e-05
4.89905e-05
4.90464e-05
4.90944e-05
4.91347e-05
4.91679e-05
4.91943e-05
4.92146e-05
4.9229e-05
4.92382e-05
4.92426e-05
4.84701e-05
4.85296e-05
4.86118e-05
4.8711e-05
4.88224e-05
4.89418e-05
4.90654e-05
4.91902e-05
4.93136e-05
4.94335e-05
4.95484e-05
4.9657e-05
4.97584e-05
4.98521e-05
4.99376e-05
5.00149e-05
5.00839e-05
5.01448e-05
5.01978e-05
5.02432e-05
5.02814e-05
5.03128e-05
5.03379e-05
5.0357e-05
5.03707e-05
5.03794e-05
5.03835e-05
4.96488e-05
4.97051e-05
4.97828e-05
4.98766e-05
4.99818e-05
5.00945e-05
5.02111e-05
5.03288e-05
5.04451e-05
5.0558e-05
5.06662e-05
5.07683e-05
5.08637e-05
5.09517e-05
5.1032e-05
5.11046e-05
5.11693e-05
5.12264e-05
5.12761e-05
5.13187e-05
5.13545e-05
5.13839e-05
5.14074e-05
5.14254e-05
5.14382e-05
5.14463e-05
5.14502e-05
5.07585e-05
5.08111e-05
5.08838e-05
5.09715e-05
5.10698e-05
5.11751e-05
5.1284e-05
5.13937e-05
5.15021e-05
5.16073e-05
5.1708e-05
5.1803e-05
5.18916e-05
5.19734e-05
5.20481e-05
5.21154e-05
5.21755e-05
5.22285e-05
5.22745e-05
5.2314e-05
5.23472e-05
5.23745e-05
5.23962e-05
5.24129e-05
5.24247e-05
5.24323e-05
5.24359e-05
5.17918e-05
5.18406e-05
5.19077e-05
5.19888e-05
5.20797e-05
5.21769e-05
5.22773e-05
5.23785e-05
5.24783e-05
5.25752e-05
5.26678e-05
5.27552e-05
5.28366e-05
5.29117e-05
5.29802e-05
5.3042e-05
5.30971e-05
5.31457e-05
5.31879e-05
5.3224e-05
5.32544e-05
5.32794e-05
5.32993e-05
5.33145e-05
5.33254e-05
5.33323e-05
5.33356e-05
5.27431e-05
5.27876e-05
5.2849e-05
5.2923e-05
5.3006e-05
5.30946e-05
5.31861e-05
5.32783e-05
5.33692e-05
5.34572e-05
5.35414e-05
5.36208e-05
5.36947e-05
5.37628e-05
5.38249e-05
5.38809e-05
5.39308e-05
5.39748e-05
5.4013e-05
5.40457e-05
5.40732e-05
5.40958e-05
5.41138e-05
5.41275e-05
5.41374e-05
5.41436e-05
5.41466e-05
5.36083e-05
5.36484e-05
5.37038e-05
5.37706e-05
5.38453e-05
5.39252e-05
5.40076e-05
5.40904e-05
5.41721e-05
5.42513e-05
5.43268e-05
5.4398e-05
5.44643e-05
5.45253e-05
5.45809e-05
5.4631e-05
5.46757e-05
5.4715e-05
5.47492e-05
5.47784e-05
5.4803e-05
5.48232e-05
5.48393e-05
5.48516e-05
5.48604e-05
5.4866e-05
5.48686e-05
5.43855e-05
5.44214e-05
5.44707e-05
5.45302e-05
5.45968e-05
5.46678e-05
5.47411e-05
5.48148e-05
5.48873e-05
5.49576e-05
5.50246e-05
5.50878e-05
5.51465e-05
5.52006e-05
5.52499e-05
5.52942e-05
5.53338e-05
5.53686e-05
5.53988e-05
5.54247e-05
5.54464e-05
5.54643e-05
5.54785e-05
5.54894e-05
5.54972e-05
5.55021e-05
5.55044e-05
5.50758e-05
5.51074e-05
5.51509e-05
5.52033e-05
5.5262e-05
5.53246e-05
5.53891e-05
5.54539e-05
5.55177e-05
5.55795e-05
5.56384e-05
5.56939e-05
5.57455e-05
5.5793e-05
5.58363e-05
5.58753e-05
5.591e-05
5.59405e-05
5.59671e-05
5.59898e-05
5.60089e-05
5.60245e-05
5.6037e-05
5.60466e-05
5.60534e-05
5.60577e-05
5.60598e-05
5.56827e-05
5.57103e-05
5.57484e-05
5.57942e-05
5.58455e-05
5.59002e-05
5.59566e-05
5.60133e-05
5.60691e-05
5.61231e-05
5.61746e-05
5.62231e-05
5.62682e-05
5.63098e-05
5.63476e-05
5.63816e-05
5.6412e-05
5.64387e-05
5.6462e-05
5.64818e-05
5.64985e-05
5.65123e-05
5.65232e-05
5.65316e-05
5.65376e-05
5.65414e-05
5.65432e-05
5.62126e-05
5.62367e-05
5.62699e-05
5.63099e-05
5.63546e-05
5.64023e-05
5.64515e-05
5.6501e-05
5.65497e-05
5.65969e-05
5.6642e-05
5.66844e-05
5.67239e-05
5.67603e-05
5.67934e-05
5.68233e-05
5.68499e-05
5.68734e-05
5.68938e-05
5.69113e-05
5.69259e-05
5.6938e-05
5.69476e-05
5.6955e-05
5.69603e-05
5.69636e-05
5.69652e-05
5.66744e-05
5.66954e-05
5.67245e-05
5.67595e-05
5.67986e-05
5.68405e-05
5.68837e-05
5.69271e-05
5.697e-05
5.70115e-05
5.70512e-05
5.70887e-05
5.71236e-05
5.71557e-05
5.71851e-05
5.72116e-05
5.72352e-05
5.7256e-05
5.72741e-05
5.72897e-05
5.73028e-05
5.73135e-05
5.73221e-05
5.73287e-05
5.73334e-05
5.73364e-05
5.73378e-05
5.70786e-05
5.70972e-05
5.71229e-05
5.71539e-05
5.71887e-05
5.72258e-05
5.72643e-05
5.7303e-05
5.73413e-05
5.73784e-05
5.7414e-05
5.74476e-05
5.7479e-05
5.75079e-05
5.75344e-05
5.75583e-05
5.75797e-05
5.75986e-05
5.7615e-05
5.76291e-05
5.7641e-05
5.76508e-05
5.76586e-05
5.76646e-05
5.76689e-05
5.76716e-05
5.76729e-05
5.74366e-05
5.74534e-05
5.74766e-05
5.75047e-05
5.75361e-05
5.75699e-05
5.76048e-05
5.76401e-05
5.76751e-05
5.77091e-05
5.77417e-05
5.77726e-05
5.78015e-05
5.78283e-05
5.78527e-05
5.78749e-05
5.78947e-05
5.79123e-05
5.79276e-05
5.79408e-05
5.79518e-05
5.7961e-05
5.79683e-05
5.79739e-05
5.79779e-05
5.79805e-05
5.79817e-05
5.77599e-05
5.77754e-05
5.77969e-05
5.78229e-05
5.78522e-05
5.78836e-05
5.79163e-05
5.79493e-05
5.79821e-05
5.80141e-05
5.80448e-05
5.8074e-05
5.81014e-05
5.81268e-05
5.815e-05
5.81712e-05
5.81901e-05
5.82068e-05
5.82215e-05
5.82341e-05
5.82447e-05
5.82535e-05
5.82605e-05
5.82659e-05
5.82698e-05
5.82723e-05
5.82734e-05
5.80586e-05
5.80734e-05
5.80938e-05
5.81186e-05
5.81466e-05
5.81767e-05
5.8208e-05
5.82397e-05
5.82713e-05
5.83022e-05
5.83319e-05
5.83602e-05
5.83868e-05
5.84115e-05
5.84342e-05
5.84548e-05