/*--------------------------------*- C++ -*----------------------------------*\
| =========                 |                                                 |
| \\      /  F ield         | OpenFOAM: The Open Source CFD Toolbox           |
|  \\    /   O peration     | Version:  2106                                  |
|   \\  /    A nd           | Website:  www.openfoam.com                      |
|    \\/     M anipulation  |                                                 |
\*---------------------------------------------------------------------------*/
FoamFile
{
    version     2.0;
    format      ascii;
    arch        "LSB;label=32;scalar=64";
    class       volScalarField;
    location    "110.00057";
    object      C2H5_0;
}
// * * * * * * * * * * * * * * * * * * * * * * * * * * * * * * * * * * * * * //

dimensions      [0 0 0 0 0 0 0];

internalField   nonuniform List<scalar> 
3360
(
2.13246e-28
2.26588e-28
2.45375e-28
2.68721e-28
2.9585e-28
3.26041e-28
3.58597e-28
3.92842e-28
4.28125e-28
4.63822e-28
4.99349e-28
5.3417e-28
5.67808e-28
5.99847e-28
6.29939e-28
6.57803e-28
6.83228e-28
7.06068e-28
7.26239e-28
7.43716e-28
7.58525e-28
7.70739e-28
7.80472e-28
7.87872e-28
7.93112e-28
7.9639e-28
7.97918e-28
1.07821e-27
1.15283e-27
1.25949e-27
1.39467e-27
1.55569e-27
1.7403e-27
1.94643e-27
2.17211e-27
2.41535e-27
2.67405e-27
2.94594e-27
3.22859e-27
3.51928e-27
3.81507e-27
4.11275e-27
4.40893e-27
4.69996e-27
4.98204e-27
5.25123e-27
5.50352e-27
5.73496e-27
5.9417e-27
6.12019e-27
6.26722e-27
6.38007e-27
6.45659e-27
6.49527e-27
4.12036e-27
4.45919e-27
4.94956e-27
5.58106e-27
6.34704e-27
7.24229e-27
8.26154e-27
9.39849e-27
1.0645e-26
1.19904e-26
1.34213e-26
1.49217e-26
1.64734e-26
1.8056e-26
1.96473e-26
2.12238e-26
2.27614e-26
2.42357e-26
2.56235e-26
2.69031e-26
2.80549e-26
2.90626e-26
2.9913e-26
3.05969e-26
3.11088e-26
3.1447e-26
3.16136e-26
1.48842e-26
1.62818e-26
1.833e-26
2.1005e-26
2.42977e-26
2.82024e-26
3.27089e-26
3.77972e-26
4.34335e-26
4.95685e-26
5.61358e-26
6.30528e-26
7.02225e-26
7.75352e-26
8.48717e-26
9.2108e-26
9.912e-26
1.05789e-25
1.12005e-25
1.17675e-25
1.22719e-25
1.27077e-25
1.30711e-25
1.33597e-25
1.35731e-25
1.37125e-25
1.37804e-25
5.53075e-26
6.10128e-26
6.94273e-26
8.04994e-26
9.42339e-26
1.1064e-25
1.29696e-25
1.51325e-25
1.75375e-25
2.01613e-25
2.29721e-25
2.59307e-25
2.89911e-25
3.21028e-25
3.52122e-25
3.82652e-25
4.12093e-25
4.39955e-25
4.65801e-25
4.89263e-25
5.10045e-25
5.2793e-25
5.42782e-25
5.54538e-25
5.63204e-25
5.68849e-25
5.71591e-25
2.1087e-25
2.33935e-25
2.68092e-25
3.13221e-25
3.69416e-25
4.3676e-25
5.15182e-25
6.04356e-25
7.0363e-25
8.11992e-25
9.28073e-25
1.05017e-24
1.17633e-24
1.30439e-24
1.43209e-24
1.5572e-24
1.67756e-24
1.79117e-24
1.89631e-24
1.99151e-24
2.07564e-24
2.14788e-24
2.20775e-24
2.25504e-24
2.28984e-24
2.31247e-24
2.32344e-24
8.17623e-25
9.10439e-25
1.04818e-24
1.23058e-24
1.45819e-24
1.73142e-24
2.04999e-24
2.41245e-24
2.81601e-24
3.25637e-24
3.72777e-24
4.22313e-24
4.73434e-24
5.25258e-24
5.76869e-24
6.27362e-24
6.75871e-24
7.21606e-24
7.63878e-24
8.02115e-24
8.35871e-24
8.64832e-24
8.88811e-24
9.07742e-24
9.21665e-24
9.30714e-24
9.35101e-24
3.20067e-24
3.57149e-24
4.12258e-24
4.8534e-24
5.76652e-24
6.86393e-24
8.14457e-24
9.60265e-24
1.12267e-23
1.2999e-23
1.4896e-23
1.68888e-23
1.89444e-23
2.10271e-23
2.30999e-23
2.51263e-23
2.70715e-23
2.89041e-23
3.05966e-23
3.21262e-23
3.34755e-23
3.46323e-23
3.55893e-23
3.63444e-23
3.68993e-23
3.72597e-23
3.74344e-23
1.26083e-23
1.40894e-23
1.62918e-23
1.92146e-23
2.28687e-23
2.72623e-23
3.23909e-23
3.82306e-23
4.47342e-23
5.18298e-23
5.94216e-23
6.7393e-23
7.56111e-23
8.39326e-23
9.22099e-23
1.00297e-22
1.08057e-22
1.15363e-22
1.22108e-22
1.28202e-22
1.33576e-22
1.38181e-22
1.41991e-22
1.44995e-22
1.47203e-22
1.48637e-22
1.49332e-22
4.97632e-23
5.56539e-23
6.4419e-23
7.60575e-23
9.06165e-23
1.0813e-22
1.28581e-22
1.51872e-22
1.77815e-22
2.0612e-22
2.36401e-22
2.68192e-22
3.00959e-22
3.34128e-22
3.67111e-22
3.99326e-22
4.30223e-22
4.59305e-22
4.8614e-22
5.10374e-22
5.31736e-22
5.50036e-22
5.65168e-22
5.77099e-22
5.85863e-22
5.91552e-22
5.94309e-22
1.96789e-22
2.20222e-22
2.55095e-22
3.0141e-22
3.59355e-22
4.29066e-22
5.10468e-22
6.03169e-22
7.06403e-22
8.19005e-22
9.39433e-22
1.06582e-21
1.19603e-21
1.32779e-21
1.45876e-21
1.58662e-21
1.70921e-21
1.82456e-21
1.93097e-21
2.02703e-21
2.11169e-21
2.18419e-21
2.24414e-21
2.29139e-21
2.3261e-21
2.34863e-21
2.35954e-21
7.77741e-22
8.70699e-22
1.00907e-21
1.19286e-21
1.42283e-21
1.69951e-21
2.02259e-21
2.39049e-21
2.80013e-21
3.24686e-21
3.72452e-21
4.22565e-21
4.7418e-21
5.2639e-21
5.78265e-21
6.28891e-21
6.77409e-21
7.23041e-21
7.65117e-21
8.03088e-21
8.36535e-21
8.65172e-21
8.88836e-21
9.07484e-21
9.21176e-21
9.30062e-21
9.34364e-21
3.0722e-21
3.44072e-21
3.9892e-21
4.71765e-21
5.62893e-21
6.72499e-21
8.0044e-21
9.46069e-21
1.10814e-20
1.2848e-20
1.47359e-20
1.67153e-20
1.87529e-20
2.08128e-20
2.28582e-20
2.48532e-20
2.6764e-20
2.85602e-20
3.02156e-20
3.17087e-20
3.30234e-20
3.41485e-20
3.50779e-20
3.58101e-20
3.63475e-20
3.66962e-20
3.68649e-20
1.20992e-20
1.35546e-20
1.57206e-20
1.85968e-20
2.21943e-20
2.65198e-20
3.15667e-20
3.73084e-20
4.36947e-20
5.06509e-20
5.80792e-20
6.58619e-20
7.38665e-20
8.19519e-20
8.99737e-20
9.77913e-20
1.05273e-19
1.123e-19
1.18771e-19
1.24603e-19
1.29735e-19
1.34124e-19
1.37747e-19
1.40599e-19
1.42692e-19
1.44049e-19
1.44705e-19
4.74845e-20
5.32134e-20
6.17367e-20
7.30503e-20
8.71929e-20
1.04186e-19
1.23998e-19
1.46516e-19
1.71535e-19
1.98756e-19
2.27789e-19
2.58168e-19
2.89374e-19
3.20853e-19
3.52044e-19
3.82404e-19
4.11423e-19
4.38648e-19
4.6369e-19
4.86239e-19
5.06058e-19
5.22994e-19
5.36963e-19
5.47953e-19
5.5601e-19
5.61231e-19
5.63756e-19
1.8523e-19
2.07626e-19
2.40931e-19
2.8511e-19
3.40292e-19
4.06532e-19
4.83668e-19
5.71228e-19
6.68377e-19
7.73914e-19
8.86295e-19
1.00369e-18
1.12408e-18
1.24531e-18
1.36522e-18
1.48174e-18
1.59292e-18
1.69706e-18
1.7927e-18
1.87868e-18
1.95416e-18
2.01856e-18
2.07161e-18
2.1133e-18
2.14383e-18
2.1636e-18
2.17315e-18
7.16999e-19
8.03806e-19
9.32794e-19
1.10372e-18
1.31695e-18
1.57251e-18
1.8696e-18
2.20617e-18
2.57883e-18
2.98275e-18
3.41185e-18
3.85903e-18
4.31646e-18
4.77596e-18
5.22937e-18
5.66887e-18
6.08729e-18
6.47831e-18
6.83666e-18
7.15819e-18
7.43987e-18
7.67982e-18
7.87718e-18
8.03203e-18
8.14529e-18
8.21853e-18
8.25388e-18
2.74734e-18
3.07971e-18
3.57303e-18
4.22574e-18
5.03843e-18
6.01035e-18
7.13734e-18
8.41063e-18
9.81622e-18
1.1335e-17
1.29432e-17
1.46136e-17
1.63167e-17
1.80218e-17
1.96989e-17
2.13194e-17
2.28575e-17
2.42906e-17
2.56005e-17
2.67726e-17
2.77971e-17
2.86678e-17
2.93824e-17
2.99421e-17
3.03508e-17
3.06147e-17
3.07418e-17
1.03952e-17
1.16476e-17
1.35032e-17
1.5953e-17
1.89949e-17
2.26212e-17
2.68114e-17
3.15274e-17
3.67122e-17
4.22908e-17
4.81725e-17
5.42551e-17
6.04296e-17
6.65853e-17
7.26145e-17
7.8417e-17
8.39034e-17
8.89971e-17
9.36367e-17
9.77755e-17
1.01382e-16
1.04439e-16
1.06942e-16
1.08898e-16
1.10323e-16
1.11242e-16
1.11684e-16
3.87289e-17
4.33494e-17
5.01795e-17
5.91684e-17
7.02879e-17
8.34874e-17
9.8667e-17
1.15665e-16
1.34254e-16
1.54146e-16
1.75004e-16
1.96456e-16
2.18116e-16
2.39596e-16
2.60529e-16
2.80578e-16
2.99449e-16
3.16894e-16
3.32721e-16
3.46788e-16
3.59004e-16
3.69327e-16
3.77756e-16
3.84326e-16
3.89102e-16
3.92175e-16
3.93651e-16
1.41687e-16
1.5829e-16
1.82753e-16
2.14814e-16
2.54279e-16
3.00863e-16
3.54111e-16
4.13357e-16
4.77721e-16
5.46137e-16
6.17398e-16
6.90212e-16
7.63263e-16
8.35272e-16
9.05041e-16
9.71501e-16
1.03373e-15
1.091e-15
1.14272e-15
1.1885e-15
1.22812e-15
1.26149e-15
1.28865e-15
1.30977e-15
1.32508e-15
1.33491e-15
1.33962e-15
5.0744e-16
5.65186e-16
6.49927e-16
7.60401e-16
8.9554e-16
1.05396e-15
1.23371e-15
1.43219e-15
1.64614e-15
1.87181e-15
2.10509e-15
2.34172e-15
2.57746e-15
2.8083e-15
3.03056e-15
3.24106e-15
3.43711e-15
3.6166e-15
3.778e-15
3.92028e-15
4.04293e-15
4.14588e-15
4.22944e-15
4.29422e-15
4.34109e-15
4.37112e-15
4.38549e-15
1.77352e-15
1.9668e-15
2.24902e-15
2.61463e-15
3.0586e-15
3.5749e-15
4.15581e-15
4.79175e-15
5.47145e-15
6.18241e-15
6.91145e-15
7.64528e-15
8.37107e-15
9.07694e-15
9.75234e-15
1.03883e-14
1.09774e-14
1.15141e-14
1.19946e-14
1.24165e-14
1.27789e-14
1.30821e-14
1.33274e-14
1.35172e-14
1.36541e-14
1.37417e-14
1.37836e-14
6.0277e-15
6.64674e-15
7.54573e-15
8.70219e-15
1.00953e-14
1.17015e-14
1.34927e-14
1.54362e-14
1.74955e-14
1.96315e-14
2.18043e-14
2.39751e-14
2.61071e-14
2.81672e-14
3.01266e-14
3.19615e-14
3.36529e-14
3.5187e-14
3.65546e-14
3.77511e-14
3.87754e-14
3.96299e-14
4.03196e-14
4.08517e-14
4.1235e-14
4.14796e-14
4.15963e-14
1.98513e-14
2.17414e-14
2.44708e-14
2.79567e-14
3.21224e-14
3.68846e-14
4.21497e-14
4.78143e-14
5.37675e-14
5.9895e-14
6.60835e-14
7.22248e-14
7.82196e-14
8.398e-14
8.9431e-14
9.4512e-14
9.91764e-14
1.03391e-13
1.07136e-13
1.10402e-13
1.13191e-13
1.15512e-13
1.17381e-13
1.1882e-13
1.19855e-13
1.20515e-13
1.20829e-13
6.3161e-14
6.86525e-14
7.65393e-14
8.6545e-14
9.84126e-14
1.11875e-13
1.26644e-13
1.42418e-13
1.5888e-13
1.75717e-13
1.92623e-13
2.09315e-13
2.25535e-13
2.41059e-13
2.55702e-13
2.69312e-13
2.81778e-13
2.93021e-13
3.02998e-13
3.1169e-13
3.19106e-13
3.25274e-13
3.30241e-13
3.34065e-13
3.36815e-13
3.38567e-13
3.39401e-13
1.93975e-13
2.09182e-13
2.30912e-13
2.58307e-13
2.90574e-13
3.26916e-13
3.66507e-13
4.08502e-13
4.52054e-13
4.96334e-13
5.40558e-13
5.84008e-13
6.2604e-13
6.66102e-13
7.03735e-13
7.38573e-13
7.70346e-13
7.98872e-13
8.24053e-13
8.45869e-13
8.64368e-13
8.79651e-13
8.9187e-13
9.01208e-13
9.07873e-13
9.12087e-13
9.14079e-13
5.76398e-13
6.16903e-13
6.74492e-13
7.46642e-13
8.3102e-13
9.25306e-13
1.02715e-12
1.13419e-12
1.24407e-12
1.35451e-12
1.46335e-12
1.5686e-12
1.66854e-12
1.76171e-12
1.84702e-12
1.92371e-12
1.99139e-12
2.04998e-12
2.09968e-12
2.14092e-12
2.1743e-12
2.20054e-12
2.22043e-12
2.2348e-12
2.24446e-12
2.25019e-12
2.25272e-12
1.66103e-12
1.76655e-12
1.9159e-12
2.10183e-12
2.31749e-12
2.55592e-12
2.80996e-12
3.07226e-12
3.33557e-12
3.59302e-12
3.83845e-12
4.06673e-12
4.27397e-12
4.45757e-12
4.61621e-12
4.74978e-12
4.85915e-12
4.946e-12
5.01259e-12
5.06155e-12
5.09567e-12
5.11778e-12
5.13061e-12
5.13673e-12
5.13846e-12
5.13789e-12
5.13683e-12
4.57462e-12
4.83705e-12
5.20564e-12
5.65951e-12
6.17835e-12
6.74171e-12
7.32924e-12
7.92143e-12
8.50053e-12
9.05134e-12
9.56194e-12
1.00239e-11
1.04324e-11
1.07858e-11
1.1085e-11
1.13332e-11
1.15346e-11
1.16945e-11
1.18184e-11
1.19117e-11
1.19796e-11
1.20269e-11
1.2058e-11
1.20768e-11
1.20866e-11
1.20905e-11
1.20913e-11
1.12826e-11
1.18373e-11
1.26094e-11
1.35495e-11
1.46116e-11
1.57525e-11
1.69326e-11
1.81179e-11
1.92806e-11
2.03999e-11
2.14617e-11
2.24576e-11
2.33841e-11
2.42405e-11
2.50282e-11
2.57492e-11
2.64057e-11
2.69992e-11
2.7531e-11
2.80017e-11
2.84115e-11
2.87605e-11
2.90488e-11
2.92768e-11
2.94451e-11
2.95552e-11
2.9609e-11
2.2853e-11
2.37984e-11
2.51149e-11
2.67232e-11
2.85551e-11
3.05521e-11
3.26661e-11
3.48593e-11
3.71032e-11
3.93767e-11
4.16634e-11
4.39498e-11
4.62226e-11
4.84674e-11
5.0668e-11
5.28059e-11
5.48604e-11
5.68098e-11
5.86315e-11
6.03036e-11
6.18055e-11
6.31191e-11
6.4229e-11
6.51238e-11
6.57959e-11
6.62419e-11
6.64626e-11
3.72276e-11
3.86443e-11
4.06444e-11
4.31364e-11
4.60485e-11
4.9323e-11
5.29141e-11
5.6784e-11
6.08993e-11
6.52276e-11
6.97341e-11
7.43792e-11
7.91171e-11
8.38955e-11
8.86564e-11
9.3337e-11
9.78721e-11
1.02196e-10
1.06247e-10
1.09965e-10
1.13298e-10
1.16205e-10
1.1865e-10
1.20612e-10
1.22076e-10
1.23042e-10
1.23517e-10
5.18842e-11
5.39456e-11
5.68926e-11
6.06237e-11
6.50616e-11
7.01427e-11
7.58105e-11
8.201e-11
8.86823e-11
9.57614e-11
1.03171e-10
1.10824e-10
1.18624e-10
1.26463e-10
1.34229e-10
1.4181e-10
1.49091e-10
1.55966e-10
1.62339e-10
1.68124e-10
1.73252e-10
1.77672e-10
1.81347e-10
1.84261e-10
1.86413e-10
1.87816e-10
1.88498e-10
6.76153e-11
7.05043e-11
7.46489e-11
7.99147e-11
8.6195e-11
9.33943e-11
1.01419e-10
1.10171e-10
1.19541e-10
1.29409e-10
1.39642e-10
1.50096e-10
1.60621e-10
1.71059e-10
1.81258e-10
1.91069e-10
2.00356e-10
2.08997e-10
2.16891e-10
2.23954e-10
2.30129e-10
2.35379e-10
2.39689e-10
2.43062e-10
2.45522e-10
2.47108e-10
2.4787e-10
8.75598e-11
9.13485e-11
9.67681e-11
1.03623e-10
1.11747e-10
1.20987e-10
1.31185e-10
1.42181e-10
1.53803e-10
1.65871e-10
1.78198e-10
1.90597e-10
2.0288e-10
2.14868e-10
2.26393e-10
2.37306e-10
2.47478e-10
2.56802e-10
2.652e-10
2.72613e-10
2.79009e-10
2.8438e-10
2.88737e-10
2.92109e-10
2.94542e-10
2.96094e-10
2.96832e-10
1.14766e-10
1.19372e-10
1.25921e-10
1.34134e-10
1.43771e-10
1.54599e-10
1.66393e-10
1.78927e-10
1.91974e-10
2.05309e-10
2.18715e-10
2.31984e-10
2.44922e-10
2.57355e-10
2.69131e-10
2.80123e-10
2.90231e-10
2.9938e-10
3.07519e-10
3.14622e-10
3.20687e-10
3.25728e-10
3.29779e-10
3.32887e-10
3.35111e-10
3.36519e-10
3.37184e-10
1.5062e-10
1.55808e-10
1.6313e-10
1.72228e-10
1.82783e-10
1.94496e-10
2.07081e-10
2.20265e-10
2.33789e-10
2.47411e-10
2.60907e-10
2.74074e-10
2.86738e-10
2.98751e-10
3.09989e-10
3.20359e-10
3.2979e-10
3.38239e-10
3.45685e-10
3.52126e-10
3.57581e-10
3.62082e-10
3.65675e-10
3.68414e-10
3.70363e-10
3.7159e-10
3.72167e-10
1.94313e-10
1.9975e-10
2.07372e-10
2.16761e-10
2.27541e-10
2.39368e-10
2.51923e-10
2.64912e-10
2.78071e-10
2.91159e-10
3.03973e-10
3.16333e-10
3.28091e-10
3.39128e-10
3.49353e-10
3.58701e-10
3.67133e-10
3.74628e-10
3.81187e-10
3.86826e-10
3.91574e-10
3.95471e-10
3.98567e-10
4.00918e-10
4.02584e-10
4.0363e-10
4.0412e-10
2.43375e-10
2.48728e-10
2.5619e-10
2.65314e-10
2.757e-10
2.86987e-10
2.9885e-10
3.11004e-10
3.23196e-10
3.35207e-10
3.46854e-10
3.57986e-10
3.68486e-10
3.78263e-10
3.87255e-10
3.9542e-10
4.02738e-10
4.09208e-10
4.14841e-10
4.19662e-10
4.23704e-10
4.27011e-10
4.2963e-10
4.31614e-10
4.33017e-10
4.33895e-10
4.34307e-10
2.94766e-10
2.9978e-10
3.06737e-10
3.15195e-10
3.2476e-10
3.3508e-10
3.45845e-10
3.56789e-10
3.6768e-10
3.7833e-10
3.88582e-10
3.98315e-10
4.07436e-10
4.15879e-10
4.23601e-10
4.30579e-10
4.36805e-10
4.42288e-10
4.47044e-10
4.51102e-10
4.54496e-10
4.57266e-10
4.59456e-10
4.61111e-10
4.62281e-10
4.63013e-10
4.63355e-10
3.45907e-10
3.5043e-10
3.56687e-10
3.64258e-10
3.72778e-10
3.81921e-10
3.91404e-10
4.00988e-10
4.10472e-10
4.19694e-10
4.28525e-10
4.36866e-10
4.44646e-10
4.51817e-10
4.58349e-10
4.64231e-10
4.69463e-10
4.74056e-10
4.78032e-10
4.81417e-10
4.84243e-10
4.86546e-10
4.88365e-10
4.8974e-10
4.9071e-10
4.91318e-10
4.91602e-10
3.95023e-10
3.99001e-10
4.04489e-10
4.11111e-10
4.18533e-10
4.26466e-10
4.34661e-10
4.42908e-10
4.51035e-10
4.58905e-10
4.66413e-10
4.73478e-10
4.80045e-10
4.86079e-10
4.91561e-10
4.96483e-10
5.00852e-10
5.04681e-10
5.07989e-10
5.10802e-10
5.13148e-10
5.15059e-10
5.16567e-10
5.17707e-10
5.18512e-10
5.19016e-10
5.19252e-10
4.41206e-10
4.44651e-10
4.49394e-10
4.55104e-10
4.61488e-10
4.68292e-10
4.75299e-10
4.82329e-10
4.89236e-10
4.95906e-10
5.0225e-10
5.08204e-10
5.13726e-10
5.18788e-10
5.23376e-10
5.27489e-10
5.31134e-10
5.34324e-10
5.37077e-10
5.39417e-10
5.41367e-10
5.42955e-10
5.44209e-10
5.45157e-10
5.45826e-10
5.46246e-10
5.46443e-10
4.84188e-10
4.87149e-10
4.91221e-10
4.96115e-10
5.01576e-10
5.07385e-10
5.13355e-10
5.19332e-10
5.25192e-10
5.30838e-10
5.36198e-10
5.41219e-10
5.45867e-10
5.5012e-10
5.5397e-10
5.57417e-10
5.60467e-10
5.63135e-10
5.65436e-10
5.6739e-10
5.69019e-10
5.70346e-10
5.71394e-10
5.72186e-10
5.72747e-10
5.73099e-10
5.73265e-10
5.2409e-10
5.26633e-10
5.30127e-10
5.34322e-10
5.38997e-10
5.43963e-10
5.49059e-10
5.54153e-10
5.5914e-10
5.63938e-10
5.68485e-10
5.72739e-10
5.76672e-10
5.80266e-10
5.83516e-10
5.86422e-10
5.88993e-10
5.91239e-10
5.93176e-10
5.9482e-10
5.96191e-10
5.97308e-10
5.98191e-10
5.9886e-10
5.99333e-10
5.99631e-10
5.99772e-10
5.61227e-10
5.63419e-10
5.66431e-10
5.70043e-10
5.74066e-10
5.78335e-10
5.82711e-10
5.87081e-10
5.91354e-10
5.95461e-10
5.99349e-10
6.02982e-10
6.06337e-10
6.094e-10
6.12167e-10
6.1464e-10
6.16826e-10
6.18735e-10
6.2038e-10
6.21777e-10
6.22942e-10
6.23892e-10
6.24643e-10
6.25213e-10
6.25617e-10
6.25872e-10
6.25992e-10
5.95976e-10
5.97881e-10
6.00497e-10
6.03633e-10
6.07123e-10
6.10825e-10
6.14617e-10
6.18401e-10
6.22098e-10
6.25647e-10
6.29005e-10
6.3214e-10
6.35032e-10
6.3767e-10
6.40052e-10
6.42178e-10
6.44057e-10
6.45697e-10
6.4711e-10
6.4831e-10
6.49311e-10
6.50128e-10
6.50774e-10
6.51265e-10
6.51613e-10
6.51834e-10
6.51938e-10
6.28711e-10
6.30383e-10
6.32678e-10
6.35428e-10
6.38489e-10
6.41733e-10
6.45055e-10
6.48367e-10
6.51602e-10
6.54705e-10
6.57638e-10
6.60374e-10
6.62897e-10
6.65196e-10
6.6727e-10
6.6912e-10
6.70754e-10
6.72179e-10
6.73408e-10
6.7445e-10
6.7532e-10
6.7603e-10
6.76593e-10
6.77021e-10
6.77325e-10
6.77518e-10
6.77609e-10
6.59763e-10
6.61247e-10
6.63284e-10
6.65724e-10
6.68439e-10
6.71316e-10
6.7426e-10
6.77195e-10
6.80059e-10
6.82805e-10
6.85398e-10
6.87816e-10
6.90042e-10
6.92071e-10
6.93898e-10
6.95528e-10
6.96966e-10
6.9822e-10
6.993e-10
7.00217e-10
7.00982e-10
7.01607e-10
7.02102e-10
7.02479e-10
7.02748e-10
7.02919e-10
7.03e-10
6.89414e-10
6.90746e-10
6.92575e-10
6.94767e-10
6.97204e-10
6.99785e-10
7.02426e-10
7.05058e-10
7.07624e-10
7.10083e-10
7.12403e-10
7.14565e-10
7.16554e-10
7.18364e-10
7.19994e-10
7.21447e-10
7.22727e-10
7.23843e-10
7.24803e-10
7.25618e-10
7.26299e-10
7.26855e-10
7.27296e-10
7.27632e-10
7.27872e-10
7.28024e-10
7.28097e-10
7.17892e-10
7.19102e-10
7.20763e-10
7.22753e-10
7.24966e-10
7.27309e-10
7.29705e-10
7.32091e-10
7.34416e-10
7.36643e-10
7.38744e-10
7.40698e-10
7.42495e-10
7.44128e-10
7.45598e-10
7.46905e-10
7.48057e-10
7.49061e-10
7.49924e-10
7.50656e-10
7.51267e-10
7.51767e-10
7.52163e-10
7.52466e-10
7.52682e-10
7.5282e-10
7.52886e-10
7.45377e-10
7.46488e-10
7.48012e-10
7.49838e-10
7.51868e-10
7.54016e-10
7.56212e-10
7.58398e-10
7.60527e-10
7.62564e-10
7.64483e-10
7.66268e-10
7.67907e-10
7.69395e-10
7.70732e-10
7.71921e-10
7.72967e-10
7.73877e-10
7.7466e-10
7.75324e-10
7.75877e-10
7.76329e-10
7.76689e-10
7.76963e-10
7.7716e-10
7.77285e-10
7.77345e-10
7.72007e-10
7.73036e-10
7.74447e-10
7.76138e-10
7.78016e-10
7.80004e-10
7.82034e-10
7.84054e-10
7.86019e-10
7.87898e-10
7.89667e-10
7.91309e-10
7.92816e-10
7.94182e-10
7.95409e-10
7.96497e-10
7.97454e-10
7.98286e-10
7.99e-10
7.99606e-10
8.0011e-10
8.00523e-10
8.00851e-10
8.01101e-10
8.01281e-10
8.01396e-10
8.01451e-10
7.97883e-10
7.98843e-10
8.00159e-10
8.01736e-10
8.03486e-10
8.05338e-10
8.07228e-10
8.09107e-10
8.10933e-10
8.12678e-10
8.14318e-10
8.15839e-10
8.17232e-10
8.18494e-10
8.19624e-10
8.20627e-10
8.21506e-10
8.2227e-10
8.22925e-10
8.2348e-10
8.23942e-10
8.2432e-10
8.2462e-10
8.24849e-10
8.25014e-10
8.2512e-10
8.2517e-10
8.23074e-10
8.23974e-10
8.25209e-10
8.26686e-10
8.28326e-10
8.3006e-10
8.31828e-10
8.33584e-10
8.35289e-10
8.36915e-10
8.38442e-10
8.39856e-10
8.41149e-10
8.42318e-10
8.43364e-10
8.44289e-10
8.451e-10
8.45802e-10
8.46404e-10
8.46914e-10
8.47337e-10
8.47684e-10
8.47959e-10
8.48169e-10
8.4832e-10
8.48417e-10
8.48464e-10
8.47621e-10
8.48469e-10
8.4963e-10
8.51019e-10
8.52561e-10
8.54188e-10
8.55846e-10
8.57491e-10
8.59086e-10
8.60605e-10
8.62029e-10
8.63345e-10
8.64546e-10
8.6563e-10
8.66597e-10
8.67452e-10
8.68199e-10
8.68845e-10
8.69397e-10
8.69864e-10
8.70252e-10
8.70568e-10
8.7082e-10
8.71013e-10
8.71151e-10
8.7124e-10
8.71283e-10
8.71541e-10
8.72339e-10
8.73433e-10
8.74741e-10
8.7619e-10
8.77719e-10
8.79274e-10
8.80815e-10
8.82307e-10
8.83724e-10
8.85051e-10
8.86274e-10
8.87387e-10
8.8839e-10
8.89282e-10
8.90068e-10
8.90753e-10
8.91345e-10
8.91849e-10
8.92274e-10
8.92628e-10
8.92916e-10
8.93144e-10
8.93319e-10
8.93446e-10
8.93527e-10
8.93566e-10
8.94825e-10
8.95577e-10
8.96606e-10
8.97835e-10
8.99195e-10
9.00628e-10
9.02083e-10
9.03522e-10
9.04913e-10
9.06231e-10
9.07461e-10
9.08592e-10
9.09619e-10
9.1054e-10
9.11358e-10
9.12075e-10
9.12699e-10
9.13235e-10
9.13692e-10
9.14076e-10
9.14394e-10
9.14652e-10
9.14858e-10
9.15015e-10
9.15129e-10
9.15202e-10
9.15238e-10
9.17445e-10
9.1815e-10
9.19114e-10
9.20263e-10
9.21534e-10
9.2287e-10
9.24225e-10
9.25561e-10
9.26848e-10
9.28065e-10
9.29196e-10
9.30233e-10
9.3117e-10
9.32008e-10
9.32748e-10
9.33394e-10
9.33954e-10
9.34433e-10
9.34839e-10
9.3518e-10
9.35461e-10
9.35689e-10
9.35871e-10
9.3601e-10
9.3611e-10
9.36175e-10
9.36206e-10
9.39348e-10
9.40004e-10
9.409e-10
9.41967e-10
9.43145e-10
9.4438e-10
9.45629e-10
9.46856e-10
9.48034e-10
9.49144e-10
9.50171e-10
9.51107e-10
9.51949e-10
9.52698e-10
9.53355e-10
9.53926e-10
9.54416e-10
9.54834e-10
9.55187e-10
9.5548e-10
9.55722e-10
9.55917e-10
9.56073e-10
9.56191e-10
9.56277e-10
9.56333e-10
9.5636e-10
9.60458e-10
9.61062e-10
9.61885e-10
9.62864e-10
9.63941e-10
9.65067e-10
9.66202e-10
9.67312e-10
9.68372e-10
9.69365e-10
9.70278e-10
9.71105e-10
9.71843e-10
9.72493e-10
9.7306e-10
9.73547e-10
9.73962e-10
9.74313e-10
9.74605e-10
9.74847e-10
9.75045e-10
9.75205e-10
9.75331e-10
9.75428e-10
9.75498e-10
9.75543e-10
9.75566e-10
9.80675e-10
9.81222e-10
9.81966e-10
9.82847e-10
9.83814e-10
9.84819e-10
9.85827e-10
9.86807e-10
9.87736e-10
9.88599e-10
9.89385e-10
9.9009e-10
9.90712e-10
9.91253e-10
9.91717e-10
9.92111e-10
9.92442e-10
9.92717e-10
9.92942e-10
9.93127e-10
9.93275e-10
9.93394e-10
9.93488e-10
9.93559e-10
9.93612e-10
9.93646e-10
9.93663e-10
9.99872e-10
1.00035e-09
1.00101e-09
1.00178e-09
1.00262e-09
1.00349e-09
1.00436e-09
1.00519e-09
1.00597e-09
1.00669e-09
1.00733e-09
1.0079e-09
1.00839e-09
1.00881e-09
1.00915e-09
1.00944e-09
1.00968e-09
1.00987e-09
1.01001e-09
1.01013e-09
1.01023e-09
1.0103e-09
1.01036e-09
1.0104e-09
1.01043e-09
1.01045e-09
1.01046e-09
1.01789e-09
1.0183e-09
1.01886e-09
1.01951e-09
1.02021e-09
1.02092e-09
1.02162e-09
1.02229e-09
1.0229e-09
1.02345e-09
1.02393e-09
1.02434e-09
1.02467e-09
1.02495e-09
1.02517e-09
1.02533e-09
1.02546e-09
1.02555e-09
1.02561e-09
1.02565e-09
1.02568e-09
1.0257e-09
1.02571e-09
1.02572e-09
1.02573e-09
1.02574e-09
1.02574e-09
1.03455e-09
1.03488e-09
1.03532e-09
1.03582e-09
1.03636e-09
1.0369e-09
1.03741e-09
1.03788e-09
1.0383e-09
1.03866e-09
1.03895e-09
1.03917e-09
1.03934e-09
1.03945e-09
1.03951e-09
1.03954e-09
1.03953e-09
1.03951e-09
1.03947e-09
1.03943e-09
1.03938e-09
1.03934e-09
1.03931e-09
1.03928e-09
1.03926e-09
1.03925e-09
1.03925e-09
1.04963e-09
1.04986e-09
1.05016e-09
1.0505e-09
1.05085e-09
1.05118e-09
1.05148e-09
1.05173e-09
1.05192e-09
1.05206e-09
1.05213e-09
1.05214e-09
1.05211e-09
1.05203e-09
1.05192e-09
1.05178e-09
1.05163e-09
1.05147e-09
1.05132e-09
1.05117e-09
1.05104e-09
1.05093e-09
1.05084e-09
1.05077e-09
1.05072e-09
1.05069e-09
1.05068e-09
1.06285e-09
1.06297e-09
1.06312e-09
1.06327e-09
1.0634e-09
1.0635e-09
1.06355e-09
1.06354e-09
1.06348e-09
1.06335e-09
1.06317e-09
1.06294e-09
1.06267e-09
1.06238e-09
1.06206e-09
1.06174e-09
1.06142e-09
1.06111e-09
1.06082e-09
1.06056e-09
1.06033e-09
1.06014e-09
1.05998e-09
1.05986e-09
1.05978e-09
1.05973e-09
1.05971e-09
1.07394e-09
1.07393e-09
1.0739e-09
1.07383e-09
1.07371e-09
1.07354e-09
1.0733e-09
1.073e-09
1.07263e-09
1.07221e-09
1.07173e-09
1.07123e-09
1.07069e-09
1.07014e-09
1.06959e-09
1.06905e-09
1.06854e-09
1.06806e-09
1.06762e-09
1.06722e-09
1.06688e-09
1.0666e-09
1.06637e-09
1.06619e-09
1.06606e-09
1.06599e-09
1.06595e-09
1.08254e-09
1.08239e-09
1.08215e-09
1.08183e-09
1.08142e-09
1.08094e-09
1.08037e-09
1.07972e-09
1.07901e-09
1.07825e-09
1.07745e-09
1.07661e-09
1.07577e-09
1.07494e-09
1.07412e-09
1.07333e-09
1.0726e-09
1.07192e-09
1.0713e-09
1.07075e-09
1.07029e-09
1.06989e-09
1.06958e-09
1.06934e-09
1.06917e-09
1.06906e-09
1.06901e-09
1.0883e-09
1.08797e-09
1.0875e-09
1.08689e-09
1.08615e-09
1.08531e-09
1.08436e-09
1.08333e-09
1.08223e-09
1.08108e-09
1.07989e-09
1.07869e-09
1.0775e-09
1.07634e-09
1.07522e-09
1.07416e-09
1.07317e-09
1.07226e-09
1.07144e-09
1.07073e-09
1.07012e-09
1.0696e-09
1.06919e-09
1.06888e-09
1.06866e-09
1.06852e-09
1.06846e-09
1.09079e-09
1.09027e-09
1.08953e-09
1.08859e-09
1.08749e-09
1.08623e-09
1.08486e-09
1.08339e-09
1.08184e-09
1.08025e-09
1.07864e-09
1.07703e-09
1.07545e-09
1.07392e-09
1.07245e-09
1.07108e-09
1.0698e-09
1.06864e-09
1.06761e-09
1.0667e-09
1.06592e-09
1.06528e-09
1.06477e-09
1.06437e-09
1.06409e-09
1.06392e-09
1.06384e-09
1.08959e-09
1.08885e-09
1.08781e-09
1.08651e-09
1.08498e-09
1.08328e-09
1.08142e-09
1.07946e-09
1.07742e-09
1.07534e-09
1.07325e-09
1.07118e-09
1.06916e-09
1.06721e-09
1.06537e-09
1.06365e-09
1.06206e-09
1.06062e-09
1.05934e-09
1.05822e-09
1.05727e-09
1.05648e-09
1.05585e-09
1.05537e-09
1.05503e-09
1.05482e-09
1.05472e-09
1.08425e-09
1.08328e-09
1.0819e-09
1.08019e-09
1.0782e-09
1.07599e-09
1.07361e-09
1.0711e-09
1.06851e-09
1.06589e-09
1.06327e-09
1.0607e-09
1.0582e-09
1.05581e-09
1.05355e-09
1.05145e-09
1.04952e-09
1.04778e-09
1.04623e-09
1.04489e-09
1.04375e-09
1.0428e-09
1.04204e-09
1.04147e-09
1.04106e-09
1.04081e-09
1.04069e-09
1.07435e-09
1.07311e-09
1.07137e-09
1.06921e-09
1.06672e-09
1.06396e-09
1.061e-09
1.0579e-09
1.05472e-09
1.05151e-09
1.04833e-09
1.04521e-09
1.04219e-09
1.03932e-09
1.03662e-09
1.03411e-09
1.03182e-09
1.02976e-09
1.02793e-09
1.02634e-09
1.025e-09
1.02389e-09
1.023e-09
1.02233e-09
1.02186e-09
1.02156e-09
1.02142e-09
1.05948e-09
1.05796e-09
1.05583e-09
1.05319e-09
1.05015e-09
1.04681e-09
1.04323e-09
1.0395e-09
1.03569e-09
1.03187e-09
1.02808e-09
1.02439e-09
1.02083e-09
1.01745e-09
1.01429e-09
1.01136e-09
1.00869e-09
1.00629e-09
1.00417e-09
1.00234e-09
1.00079e-09
9.99512e-10
9.98496e-10
9.97727e-10
9.97185e-10
9.96847e-10
9.96691e-10
1.03932e-09
1.03751e-09
1.03496e-09
1.03182e-09
1.02822e-09
1.02426e-09
1.02004e-09
1.01566e-09
1.0112e-09
1.00674e-09
1.00233e-09
9.9805e-10
9.93941e-10
9.9005e-10
9.86413e-10
9.83058e-10
9.80008e-10
9.77277e-10
9.74873e-10
9.72797e-10
9.71045e-10
9.69605e-10
9.68464e-10
9.67602e-10
9.66995e-10
9.66619e-10
9.66446e-10
1.01366e-09
1.01154e-09
1.00857e-09
1.00492e-09
1.00075e-09
9.96165e-10
9.91303e-10
9.86268e-10
9.81156e-10
9.76054e-10
9.71039e-10
9.66177e-10
9.61527e-10
9.57135e-10
9.53043e-10
9.49279e-10
9.45867e-10
9.42821e-10
9.40148e-10
9.37846e-10
9.3591e-10
9.34325e-10
9.33073e-10
9.32132e-10
9.31472e-10
9.31065e-10
9.30878e-10
9.82422e-10
9.80004e-10
9.76624e-10
9.72478e-10
9.67736e-10
9.62553e-10
9.57065e-10
9.51398e-10
9.45662e-10
9.39953e-10
9.34359e-10
9.28954e-10
9.23799e-10
9.1895e-10
9.14442e-10
9.10309e-10
9.06574e-10
9.0325e-10
9.00343e-10
8.97848e-10
8.95757e-10
8.94052e-10
8.9271e-10
8.91704e-10
8.91004e-10
8.90574e-10
8.90377e-10
9.45766e-10
9.43067e-10
9.39301e-10
9.3469e-10
9.29428e-10
9.23691e-10
9.17637e-10
9.11404e-10
9.05112e-10
8.9887e-10
8.92771e-10
8.86897e-10
8.81314e-10
8.76076e-10
8.71227e-10
8.66798e-10
8.6281e-10
8.59276e-10
8.56198e-10
8.53568e-10
8.51374e-10
8.49595e-10
8.48203e-10
8.47167e-10
8.4645e-10
8.46014e-10
8.45817e-10
9.04109e-10
9.01168e-10
8.97072e-10
8.92066e-10
8.86368e-10
8.8017e-10
8.73647e-10
8.66951e-10
8.60216e-10
8.53559e-10
8.47078e-10
8.40859e-10
8.3497e-10
8.29468e-10
8.24395e-10
8.19782e-10
8.15649e-10
8.12004e-10
8.08846e-10
8.06165e-10
8.03943e-10
8.02153e-10
8.00766e-10
7.99742e-10
7.99042e-10
7.98622e-10
7.98435e-10
8.58208e-10
8.55086e-10
8.50743e-10
8.45448e-10
8.39436e-10
8.32918e-10
8.2608e-10
8.19085e-10
8.12077e-10
8.05177e-10
7.9849e-10
7.921e-10
7.8608e-10
7.80483e-10
7.75351e-10
7.70712e-10
7.66581e-10
7.62963e-10
7.59852e-10
7.57234e-10
7.55085e-10
7.53373e-10
7.52063e-10
7.51111e-10
7.50472e-10
7.50097e-10
7.49935e-10
8.09189e-10
8.05968e-10
8.01498e-10
7.96062e-10
7.89909e-10
7.83263e-10
7.76318e-10
7.69247e-10
7.62196e-10
7.5529e-10
7.48634e-10
7.42314e-10
7.36397e-10
7.30934e-10
7.25964e-10
7.21508e-10
7.17578e-10
7.14171e-10
7.11277e-10
7.08873e-10
7.06931e-10
7.05412e-10
7.04275e-10
7.03472e-10
7.02951e-10
7.02658e-10
7.02539e-10
7.58561e-10
7.55355e-10
7.50915e-10
7.45534e-10
7.39469e-10
7.32949e-10
7.26174e-10
7.19317e-10
7.12526e-10
7.05923e-10
6.99611e-10
6.9367e-10
6.88162e-10
6.83132e-10
6.7861e-10
6.74611e-10
6.71137e-10
6.6818e-10
6.65718e-10
6.63724e-10
6.6216e-10
6.60983e-10
6.60142e-10
6.59584e-10
6.59253e-10
6.5909e-10
6.59038e-10
7.08269e-10
7.05218e-10
7.0101e-10
6.95935e-10
6.90249e-10
6.84179e-10
6.77923e-10
6.7165e-10
6.65502e-10
6.59596e-10
6.54023e-10
6.48855e-10
6.44144e-10
6.39924e-10
6.36213e-10
6.33016e-10
6.30324e-10
6.28116e-10
6.26363e-10
6.25025e-10
6.24057e-10
6.23406e-10
6.23015e-10
6.22826e-10
6.22775e-10
6.22802e-10
6.22845e-10
6.60706e-10
6.57989e-10
6.54262e-10
6.49802e-10
6.44854e-10
6.39635e-10
6.34333e-10
6.29103e-10
6.24076e-10
6.19353e-10
6.15012e-10
6.11109e-10
6.0768e-10
6.04743e-10
6.02301e-10
6.0034e-10
5.98838e-10
5.9776e-10
5.9706e-10
5.9669e-10
5.96589e-10
5.96699e-10
5.96952e-10
5.97284e-10
5.97627e-10
5.97918e-10
5.98093e-10
6.18743e-10
6.16573e-10
6.1363e-10
6.10163e-10
6.06394e-10
6.02519e-10
5.98703e-10
5.95083e-10
5.91766e-10
5.88833e-10
5.86339e-10
5.84316e-10
5.82778e-10
5.8172e-10
5.81121e-10
5.80946e-10
5.81152e-10
5.81682e-10
5.82476e-10
5.83466e-10
5.8458e-10
5.85745e-10
5.86887e-10
5.87933e-10
5.88813e-10
5.89459e-10
5.89811e-10
5.85758e-10
5.84398e-10
5.8261e-10
5.80599e-10
5.7855e-10
5.76625e-10
5.74959e-10
5.73654e-10
5.72789e-10
5.7241e-10
5.72542e-10
5.73184e-10
5.74317e-10
5.75902e-10
5.77887e-10
5.80208e-10
5.82789e-10
5.8555e-10
5.88405e-10
5.91264e-10
5.94038e-10
5.96639e-10
5.98984e-10
6.00992e-10
6.02589e-10
6.03709e-10
6.04295e-10
5.65746e-10
5.65521e-10
5.6535e-10
5.65376e-10
5.65731e-10
5.6653e-10
5.67861e-10
5.69784e-10
5.72333e-10
5.7551e-10
5.79293e-10
5.83636e-10
5.88473e-10
5.9372e-10
5.99278e-10
6.0504e-10
6.1089e-10
6.16709e-10
6.22378e-10
6.27781e-10
6.32803e-10
6.37341e-10
6.41299e-10
6.44589e-10
6.47138e-10
6.48883e-10
6.49774e-10
5.63549e-10
5.64882e-10
5.66935e-10
5.69764e-10
5.73431e-10
5.77987e-10
5.8346e-10
5.89851e-10
5.97129e-10
6.05237e-10
6.14087e-10
6.23566e-10
6.3354e-10
6.43857e-10
6.54355e-10
6.64861e-10
6.75203e-10
6.8521e-10
6.94716e-10
7.03569e-10
7.11627e-10
7.18764e-10
7.24872e-10
7.29863e-10
7.33666e-10
7.36228e-10
7.37517e-10
5.85355e-10
5.88835e-10
5.93957e-10
6.00664e-10
6.08927e-10
6.18711e-10
6.29962e-10
6.42596e-10
6.56497e-10
6.71513e-10
6.87461e-10
7.04128e-10
7.21279e-10
7.38662e-10
7.56016e-10
7.73081e-10
7.896e-10