/*--------------------------------*- C++ -*----------------------------------*\
| =========                 |                                                 |
| \\      /  F ield         | OpenFOAM: The Open Source CFD Toolbox           |
|  \\    /   O peration     | Version:  2106                                  |
|   \\  /    A nd           | Website:  www.openfoam.com                      |
|    \\/     M anipulation  |                                                 |
\*---------------------------------------------------------------------------*/
FoamFile
{
    version     2.0;
    format      ascii;
    arch        "LSB;label=32;scalar=64";
    class       volScalarField;
    location    "110.00057";
    object      C4H4;
}
// * * * * * * * * * * * * * * * * * * * * * * * * * * * * * * * * * * * * * //

dimensions      [0 0 0 0 0 0 0];

internalField   nonuniform List<scalar> 
3360
(
3.8692e-21
4.09488e-21
4.41269e-21
4.80763e-21
5.26662e-21
5.77744e-21
6.32833e-21
6.90786e-21
7.505e-21
8.1092e-21
8.71057e-21
9.30005e-21
9.86954e-21
1.0412e-20
1.09215e-20
1.13934e-20
1.18239e-20
1.22107e-20
1.25524e-20
1.28484e-20
1.30992e-20
1.33061e-20
1.3471e-20
1.35964e-20
1.36851e-20
1.37407e-20
1.37666e-20
1.87341e-20
1.99954e-20
2.17986e-20
2.40842e-20
2.6807e-20
2.99288e-20
3.34152e-20
3.72327e-20
4.13477e-20
4.57248e-20
5.03258e-20
5.51093e-20
6.00296e-20
6.50367e-20
7.00765e-20
7.50913e-20
8.00196e-20
8.47969e-20
8.93563e-20
9.363e-20
9.75507e-20
1.01054e-19
1.04078e-19
1.06569e-19
1.08482e-19
1.09779e-19
1.10435e-19
7.03331e-20
7.60577e-20
8.43426e-20
9.50119e-20
1.07954e-19
1.2308e-19
1.40301e-19
1.59512e-19
1.80573e-19
2.03306e-19
2.27485e-19
2.52837e-19
2.79055e-19
3.05796e-19
3.32685e-19
3.59324e-19
3.85303e-19
4.10216e-19
4.33666e-19
4.55286e-19
4.74749e-19
4.91775e-19
5.06145e-19
5.177e-19
5.26349e-19
5.32065e-19
5.34878e-19
2.52258e-19
2.75858e-19
3.10443e-19
3.55611e-19
4.1121e-19
4.77141e-19
5.53233e-19
6.39146e-19
7.34313e-19
8.37898e-19
9.48781e-19
1.06557e-18
1.18662e-18
1.31008e-18
1.43395e-18
1.55612e-18
1.67451e-18
1.7871e-18
1.89205e-18
1.98777e-18
2.07292e-18
2.14651e-18
2.20785e-18
2.25657e-18
2.2926e-18
2.31614e-18
2.3276e-18
9.34751e-19
1.03105e-18
1.17309e-18
1.35998e-18
1.59181e-18
1.86873e-18
2.19038e-18
2.55545e-18
2.96139e-18
3.40425e-18
3.87868e-18
4.37804e-18
4.89459e-18
5.41978e-18
5.94459e-18
6.45988e-18
6.95678e-18
7.42703e-18
7.86326e-18
8.25924e-18
8.60999e-18
8.91186e-18
9.16252e-18
9.36093e-18
9.5072e-18
9.60247e-18
9.64874e-18
3.56024e-18
3.94949e-18
4.52594e-18
5.28754e-18
6.23589e-18
7.37239e-18
8.69584e-18
1.02007e-17
1.1876e-17
1.37047e-17
1.56636e-17
1.77242e-17
1.98531e-17
2.20141e-17
2.41692e-17
2.62804e-17
2.83114e-17
3.02287e-17
3.20029e-17
3.36094e-17
3.50291e-17
3.62482e-17
3.72584e-17
3.80564e-17
3.86437e-17
3.90256e-17
3.92108e-17
1.37988e-17
1.5365e-17
1.76891e-17
2.0767e-17
2.46076e-17
2.92182e-17
3.45935e-17
4.07095e-17
4.7519e-17
5.49494e-17
6.29035e-17
7.12619e-17
7.98877e-17
8.8632e-17
9.73406e-17
1.0586e-16
1.14045e-16
1.21762e-16
1.28895e-16
1.35346e-16
1.41042e-16
1.45929e-16
1.49975e-16
1.53169e-16
1.55518e-16
1.57045e-16
1.57785e-16
5.40059e-17
6.02624e-17
6.95604e-17
8.18907e-17
9.72969e-17
1.15812e-16
1.37419e-16
1.62019e-16
1.89419e-16
2.1932e-16
2.51326e-16
2.84947e-16
3.19629e-16
3.54766e-16
3.89737e-16
4.23924e-16
4.56743e-16
4.87661e-16
5.16215e-16
5.42021e-16
5.64786e-16
5.84301e-16
6.00448e-16
6.13186e-16
6.22548e-16
6.28629e-16
6.31575e-16
2.12714e-16
2.37701e-16
2.74856e-16
3.24163e-16
3.85808e-16
4.59928e-16
5.46447e-16
6.44961e-16
7.54674e-16
8.74374e-16
1.00244e-15
1.13692e-15
1.27555e-15
1.41593e-15
1.55557e-15
1.69199e-15
1.82289e-15
1.94615e-15
2.05993e-15
2.16273e-15
2.25338e-15
2.33107e-15
2.39533e-15
2.44602e-15
2.48327e-15
2.50746e-15
2.51918e-15
8.39453e-16
9.38818e-16
1.08667e-15
1.28299e-15
1.52857e-15
1.82399e-15
2.16895e-15
2.56184e-15
2.99944e-15
3.47687e-15
3.98765e-15
4.52388e-15
5.07658e-15
5.63608e-15
6.19241e-15
6.73579e-15
7.25695e-15
7.74748e-15
8.20013e-15
8.6089e-15
8.96921e-15
9.27789e-15
9.53313e-15
9.73436e-15
9.88219e-15
9.97816e-15
1.00246e-14
3.31923e-15
3.71446e-15
4.30265e-15
5.0838e-15
6.06111e-15
7.23687e-15
8.60979e-15
1.01733e-14
1.19144e-14
1.38136e-14
1.58447e-14
1.79762e-14
2.01724e-14
2.23947e-14
2.46035e-14
2.676e-14
2.88276e-14
3.0773e-14
3.25676e-14
3.41877e-14
3.56155e-14
3.68384e-14
3.78493e-14
3.86463e-14
3.92316e-14
3.96116e-14
3.97956e-14
1.31165e-14
1.46842e-14
1.70177e-14
2.01172e-14
2.39955e-14
2.86615e-14
3.411e-14
4.03142e-14
4.72224e-14
5.47561e-14
6.28113e-14
7.12623e-14
7.99666e-14
8.87712e-14
9.75193e-14
1.06057e-13
1.14239e-13
1.21934e-13
1.29029e-13
1.35433e-13
1.41073e-13
1.45902e-13
1.49893e-13
1.53038e-13
1.55347e-13
1.56845e-13
1.57571e-13
5.18056e-14
5.80198e-14
6.72685e-14
7.95517e-14
9.49179e-14
1.134e-13
1.34973e-13
1.59529e-13
1.86859e-13
2.16647e-13
2.48479e-13
2.81857e-13
3.16215e-13
3.50948e-13
3.85437e-13
4.19076e-13
4.51296e-13
4.81583e-13
5.09495e-13
5.34672e-13
5.5684e-13
5.75811e-13
5.91483e-13
6.03828e-13
6.1289e-13
6.18769e-13
6.21614e-13
2.03996e-13
2.28535e-13
2.65053e-13
3.13547e-13
3.742e-13
4.47128e-13
5.32219e-13
6.29024e-13
7.36697e-13
8.53978e-13
9.79218e-13
1.11043e-12
1.24539e-12
1.38171e-12
1.51695e-12
1.64876e-12
1.77489e-12
1.89337e-12
2.00247e-12
2.1008e-12
2.18732e-12
2.26131e-12
2.3224e-12
2.37049e-12
2.40577e-12
2.42865e-12
2.43971e-12
8.0047e-13
8.97046e-13
1.04073e-12
1.23145e-12
1.46986e-12
1.75633e-12
2.09031e-12
2.46991e-12
2.89168e-12
3.35056e-12
3.83998e-12
4.3521e-12
4.87815e-12
5.40882e-12
5.93463e-12
6.44642e-12
6.93562e-12
7.39456e-12
7.81672e-12
8.19683e-12
8.53094e-12
8.81643e-12
9.05192e-12
9.23718e-12
9.373e-12
9.46102e-12
9.50359e-12
3.12186e-12
3.49934e-12
4.06068e-12
4.80532e-12
5.7354e-12
6.85187e-12
8.152e-12
9.62782e-12
1.12653e-11
1.30441e-11
1.49383e-11
1.69171e-11
1.89462e-11
2.09896e-11
2.30108e-11
2.49747e-11
2.68487e-11
2.8604e-11
3.0216e-11
3.16653e-11
3.29374e-11
3.40229e-11
3.49172e-11
3.56199e-11
3.61345e-11
3.64677e-11
3.66287e-11
1.20808e-11
1.35436e-11
1.57172e-11
1.85976e-11
2.21907e-11
2.64974e-11
3.15038e-11
3.71758e-11
4.34558e-11
5.02627e-11
5.7494e-11
6.503e-11
7.27388e-11
8.04826e-11
8.81238e-11
9.55306e-11
1.02582e-10
1.09172e-10
1.15211e-10
1.2063e-10
1.25377e-10
1.29421e-10
1.32747e-10
1.35356e-10
1.37265e-10
1.38499e-10
1.39095e-10
4.62708e-11
5.187e-11
6.01805e-11
7.11766e-11
8.4868e-11
1.01242e-10
1.20229e-10
1.41681e-10
1.65363e-10
1.90952e-10
2.18048e-10
2.46193e-10
2.74888e-10
3.03618e-10
3.31876e-10
3.59181e-10
3.85097e-10
4.09246e-10
4.31316e-10
4.51067e-10
4.68329e-10
4.83e-10
4.95043e-10
5.04474e-10
5.1136e-10
5.15806e-10
5.17949e-10
1.74959e-10
1.96048e-10
2.27296e-10
2.6855e-10
3.19777e-10
3.80848e-10
4.51418e-10
5.30846e-10
6.18173e-10
7.12136e-10
8.11207e-10
9.13665e-10
1.01767e-09
1.12137e-09
1.22293e-09
1.32068e-09
1.41311e-09
1.49892e-09
1.57708e-09
1.6468e-09
1.70756e-09
1.75907e-09
1.80124e-09
1.83419e-09
1.8582e-09
1.87368e-09
1.88112e-09
6.51112e-10
7.28865e-10
8.43802e-10
9.95078e-10
1.18223e-09
1.40439e-09
1.65991e-09
1.94605e-09
2.25901e-09
2.59391e-09
2.9451e-09
3.30632e-09
3.67104e-09
4.03276e-09
4.38529e-09
4.72294e-09
5.04075e-09
5.33458e-09
5.60114e-09
5.83807e-09
6.04383e-09
6.21771e-09
6.35968e-09
6.47035e-09
6.5508e-09
6.60255e-09
6.62741e-09
2.37741e-09
2.65647e-09
3.06769e-09
3.6067e-09
4.27026e-09
5.05364e-09
5.9492e-09
6.94577e-09
8.02858e-09
9.1797e-09
1.03788e-08
1.16042e-08
1.28337e-08
1.40458e-08
1.52203e-08
1.63391e-08
1.73869e-08
1.8351e-08
1.92219e-08
1.99929e-08
2.066e-08
2.12219e-08
2.16793e-08
2.20349e-08
2.22928e-08
2.24583e-08
2.25377e-08
8.48454e-09
9.45322e-09
1.0875e-08
1.27289e-08
1.49974e-08
1.76574e-08
2.06763e-08
2.40106e-08
2.76058e-08
3.13989e-08
3.53208e-08
3.92998e-08
4.32646e-08
4.71476e-08
5.08871e-08
5.44291e-08
5.77283e-08
6.07494e-08
6.34659e-08
6.5861e-08
6.79258e-08
6.96591e-08
7.10658e-08
7.21565e-08
7.29457e-08
7.34512e-08
7.36932e-08
2.94623e-08
3.26926e-08
3.74113e-08
4.35269e-08
5.0957e-08
5.96023e-08
6.93346e-08
7.99946e-08
9.1394e-08
1.03324e-07
1.15562e-07
1.27886e-07
1.4008e-07
1.51944e-07
1.63299e-07
1.73994e-07
1.83903e-07
1.92934e-07
2.0102e-07
2.08121e-07
2.14221e-07
2.19325e-07
2.23456e-07
2.26651e-07
2.28957e-07
2.30432e-07
2.31136e-07
9.89409e-08
1.09215e-07
1.24146e-07
1.4337e-07
1.66552e-07
1.93306e-07
2.23175e-07
2.5562e-07
2.90032e-07
3.25763e-07
3.62147e-07
3.9853e-07
4.34294e-07
4.6888e-07
5.018e-07
5.32647e-07
5.611e-07
5.8692e-07
6.09951e-07
6.30107e-07
6.47369e-07
6.61774e-07
6.73404e-07
6.82378e-07
6.88844e-07
6.92971e-07
6.9494e-07
3.18776e-07
3.49715e-07
3.94447e-07
4.51672e-07
5.2018e-07
5.98653e-07
6.85596e-07
7.79335e-07
8.7806e-07
9.7989e-07
1.08295e-06
1.18543e-06
1.28566e-06
1.38215e-06
1.47362e-06
1.55903e-06
1.63756e-06
1.70864e-06
1.77188e-06
1.82712e-06
1.87434e-06
1.91368e-06
1.9454e-06
1.96985e-06
1.98745e-06
1.99868e-06
2.00403e-06
9.75502e-07
1.06295e-06
1.1888e-06
1.34889e-06
1.53935e-06
1.75614e-06
1.99484e-06
2.25072e-06
2.5188e-06
2.79402e-06
3.07144e-06
3.34638e-06
3.61454e-06
3.87214e-06
4.11595e-06
4.34335e-06
4.5523e-06
4.74134e-06
4.90956e-06
5.05653e-06
5.18224e-06
5.28704e-06
5.37161e-06
5.43686e-06
5.48387e-06
5.51388e-06
5.5282e-06
2.80503e-06
3.03487e-06
3.36431e-06
3.7813e-06
4.2748e-06
4.83356e-06
5.44574e-06
6.09897e-06
6.78058e-06
7.47789e-06
8.17867e-06
8.87139e-06
9.54555e-06
1.01919e-05
1.08025e-05
1.13711e-05
1.18927e-05
1.23638e-05
1.27825e-05
1.31478e-05
1.34599e-05
1.372e-05
1.39298e-05
1.40916e-05
1.42083e-05
1.42828e-05
1.43184e-05
7.51003e-06
8.06736e-06
8.86322e-06
9.86614e-06
1.10474e-05
1.23783e-05
1.38296e-05
1.5371e-05
1.69721e-05
1.86027e-05
2.02342e-05
2.18399e-05
2.33961e-05
2.48827e-05
2.62829e-05
2.75838e-05
2.87759e-05
2.98525e-05
3.081e-05
3.16467e-05
3.23633e-05
3.29621e-05
3.34467e-05
3.38219e-05
3.40935e-05
3.42676e-05
3.43511e-05
1.85849e-05
1.98198e-05
2.15761e-05
2.37779e-05
2.63561e-05
2.92427e-05
3.23694e-05
3.56685e-05
3.90741e-05
4.25241e-05
4.59614e-05
4.93352e-05
5.26009e-05
5.57206e-05
5.86627e-05
6.14021e-05
6.3919e-05
6.61996e-05
6.82348e-05
7.00199e-05
7.15546e-05
7.28417e-05
7.38873e-05
7.46999e-05
7.529e-05
7.56698e-05
7.58527e-05
4.20801e-05
4.45238e-05
4.79816e-05
5.22903e-05
5.73029e-05
6.28804e-05
6.889e-05
7.52047e-05
8.1705e-05
8.82795e-05
9.4826e-05
0.000101252
0.000107477
0.000113428
0.000119048
0.000124286
0.000129105
0.000133477
0.000137382
0.000140811
0.000143762
0.000146238
0.000148252
0.000149818
0.000150956
0.000151688
0.000152041
8.57811e-05
9.00619e-05
9.6101e-05
0.0001036
0.000112295
0.00012194
0.000132304
0.000143168
0.000154328
0.000165593
0.000176789
0.000187759
0.000198364
0.000208485
0.000218021
0.000226892
0.000235036
0.000242406
0.000248976
0.000254731
0.000259672
0.000263809
0.000267165
0.000269769
0.000271657
0.000272871
0.000273454
0.000157366
0.00016411
0.0001736
0.000185347
0.000198917
0.000213911
0.000229956
0.000246702
0.000263827
0.000281033
0.000298054
0.000314652
0.000330619
0.000345784
0.000360003
0.000373165
0.000385189
0.000396021
0.00040563
0.00041401
0.000421172
0.000427145
0.000431969
0.000435697
0.00043839
0.000440114
0.00044094
0.000262919
0.000272531
0.000286012
0.000302628
0.000321729
0.000342715
0.000365038
0.000388189
0.00041171
0.000435185
0.00045825
0.000480588
0.000501935
0.000522073
0.000540833
0.000558087
0.000573753
0.00058778
0.000600153
0.000610883
0.000620005
0.000627574
0.000633658
0.000638339
0.000641705
0.000643852
0.000644876
0.000405494
0.000417981
0.00043543
0.000456832
0.000481291
0.000507994
0.000536202
0.000565247
0.000594537
0.000623553
0.000651849
0.000679052
0.000704859
0.000729033
0.000751398
0.000771835
0.000790272
0.000806683
0.000821075
0.00083349
0.000843991
0.000852661
0.000859601
0.000864917
0.000868725
0.000871145
0.000872295
0.00058468
0.000599653
0.000620497
0.00064594
0.000674854
0.000706223
0.000739138
0.000772796
0.000806498
0.00083965
0.000871755
0.00090241
0.0009313
0.000958191
0.000982919
0.00100539
0.00102554
0.00104339
0.00105898
0.00107236
0.00108363
0.0010929
0.00110029
0.00110594
0.00110997
0.00111253
0.00111374
0.000797126
0.00081394
0.000837269
0.000865627
0.000897694
0.000932296
0.000968397
0.0010051
0.00104163
0.00107735
0.00111176
0.00114442
0.00117505
0.00120342
0.00122938
0.00125286
0.00127385
0.00129237
0.00130848
0.00132227
0.00133385
0.00134335
0.00135091
0.00135668
0.00136079
0.00136338
0.00136461
0.00103754
0.00105548
0.0010803
0.00111038
0.00114427
0.00118068
0.00121851
0.00125679
0.00129473
0.00133167
0.0013671
0.00140062
0.00143192
0.00146082
0.00148719
0.00151097
0.00153217
0.00155083
0.00156703
0.00158087
0.00159248
0.00160199
0.00160955
0.0016153
0.0016194
0.00162199
0.00162321
0.00129975
0.00131818
0.00134365
0.00137443
0.00140901
0.00144606
0.00148444
0.00152317
0.00156144
0.0015986
0.00163415
0.0016677
0.00169897
0.00172777
0.00175401
0.00177764
0.00179867
0.00181717
0.0018332
0.0018469
0.00185837
0.00186777
0.00187524
0.00188092
0.00188496
0.00188752
0.00188873
0.0015777
0.00159615
0.00162161
0.00165233
0.0016868
0.00172367
0.00176179
0.00180019
0.00183808
0.00187482
0.00190992
0.00194299
0.00197379
0.00200214
0.00202795
0.00205117
0.00207184
0.00209
0.00210575
0.00211919
0.00213046
0.00213969
0.00214702
0.0021526
0.00215657
0.00215908
0.00216027
0.00186605
0.00188421
0.00190924
0.00193944
0.00197329
0.00200946
0.00204684
0.00208446
0.00212157
0.00215752
0.00219185
0.0022242
0.00225431
0.00228202
0.00230724
0.00232994
0.00235015
0.00236791
0.00238331
0.00239646
0.00240749
0.00241652
0.0024237
0.00242917
0.00243307
0.00243553
0.0024367
0.00216053
0.00217822
0.00220261
0.00223203
0.00226499
0.00230022
0.00233661
0.00237325
0.00240937
0.00244438
0.00247781
0.00250932
0.00253865
0.00256566
0.00259025
0.0026124
0.00263211
0.00264945
0.0026645
0.00267735
0.00268813
0.00269697
0.002704
0.00270935
0.00271317
0.00271559
0.00271673
0.00245792
0.00247508
0.00249875
0.00252729
0.00255928
0.00259348
0.00262881
0.00266439
0.00269949
0.00273352
0.00276603
0.00279669
0.00282525
0.00285156
0.00287553
0.00289713
0.00291637
0.0029333
0.002948
0.00296056
0.00297111
0.00297976
0.00298664
0.00299189
0.00299563
0.002998
0.00299912
0.00275599
0.00277262
0.00279556
0.00282323
0.00285426
0.00288744
0.00292174
0.0029563
0.00299041
0.00302351
0.00305515
0.003085
0.00311283
0.00313848
0.00316187
0.00318295
0.00320175
0.0032183
0.00323267
0.00324497
0.0032553
0.00326378
0.00327052
0.00327567
0.00327934
0.00328167
0.00328277
0.00305325
0.00306937
0.00309163
0.00311849
0.00314862
0.00318086
0.00321421
0.00324783
0.00328103
0.00331327
0.00334411
0.00337322
0.00340038
0.00342544
0.00344829
0.00346891
0.0034873
0.0035035
0.00351759
0.00352964
0.00353977
0.00354809
0.00355471
0.00355976
0.00356337
0.00356566
0.00356674
0.00334873
0.0033644
0.00338604
0.00341217
0.0034415
0.00347289
0.00350538
0.00353816
0.00357055
0.00360202
0.00363214
0.0036606
0.00368717
0.00371168
0.00373406
0.00375426
0.00377229
0.00378818
0.003802
0.00381384
0.00382378
0.00383195
0.00383846
0.00384343
0.00384698
0.00384923
0.0038503
0.00364187
0.00365715
0.00367825
0.00370373
0.00373234
0.00376299
0.00379473
0.00382676
0.00385844
0.00388923
0.00391872
0.00394659
0.00397263
0.00399667
0.00401862
0.00403845
0.00405615
0.00407177
0.00408535
0.00409699
0.00410677
0.00411481
0.00412122
0.00412611
0.0041296
0.00413182
0.00413287
0.00393238
0.00394731
0.00396793
0.00399284
0.00402083
0.00405083
0.0040819
0.00411328
0.00414433
0.00417452
0.00420345
0.00423082
0.00425638
0.00428
0.00430158
0.00432108
0.00433849
0.00435385
0.00436722
0.00437868
0.00438832
0.00439624
0.00440255
0.00440737
0.00441082
0.004413
0.00441404
0.00422008
0.00423471
0.00425492
0.00427934
0.00430679
0.00433621
0.00436671
0.00439751
0.00442801
0.00445767
0.00448611
0.00451302
0.00453817
0.00456141
0.00458265
0.00460185
0.00461901
0.00463414
0.00464732
0.00465862
0.00466812
0.00467593
0.00468216
0.00468692
0.00469032
0.00469248
0.0046935
0.00450495
0.00451931
0.00453916
0.00456315
0.00459012
0.00461904
0.00464903
0.00467933
0.00470934
0.00473854
0.00476654
0.00479304
0.00481782
0.00484072
0.00486166
0.0048806
0.00489751
0.00491245
0.00492545
0.0049366
0.00494598
0.00495369
0.00495984
0.00496454
0.0049679
0.00497004
0.00497105
0.00478699
0.00480112
0.00482065
0.00484426
0.00487082
0.00489929
0.00492883
0.00495868
0.00498825
0.00501703
0.00504464
0.00507078
0.00509522
0.00511782
0.00513849
0.00515718
0.00517388
0.00518863
0.00520148
0.00521249
0.00522176
0.00522938
0.00523546
0.0052401
0.00524342
0.00524553
0.00524653
0.00506625
0.00508018
0.00509943
0.0051227
0.00514888
0.00517696
0.00520609
0.00523554
0.00526472
0.00529312
0.00532038
0.00534619
0.00537033
0.00539265
0.00541307
0.00543153
0.00544804
0.00546262
0.00547531
0.0054862
0.00549536
0.0055029
0.00550891
0.0055135
0.00551679
0.00551887
0.00551987
0.00534281
0.00535655
0.00537554
0.00539852
0.00542435
0.00545208
0.00548084
0.00550993
0.00553874
0.00556681
0.00559374
0.00561924
0.0056431
0.00566517
0.00568536
0.00570362
0.00571994
0.00573436
0.00574691
0.00575768
0.00576675
0.00577421
0.00578015
0.0057847
0.00578795
0.00579001
0.00579099
0.00561672
0.00563029
0.00564905
0.00567175
0.00569728
0.00572468
0.00575311
0.00578186
0.00581035
0.00583809
0.00586472
0.00588995
0.00591355
0.00593538
0.00595535
0.00597341
0.00598956
0.00600383
0.00601626
0.00602691
0.00603589
0.00604327
0.00604916
0.00605366
0.00605688
0.00605892
0.00605989
0.00588805
0.00590147
0.00592002
0.00594247
0.00596771
0.00599481
0.00602292
0.00605136
0.00607954
0.006107
0.00613335
0.0061583
0.00618166
0.00620326
0.00622303
0.00624091
0.0062569
0.00627102
0.00628333
0.00629388
0.00630277
0.00631007
0.0063159
0.00632036
0.00632355
0.00632557
0.00632653
0.00615688
0.00617015
0.00618851
0.00621071
0.00623569
0.0062625
0.00629033
0.00631847
0.00634636
0.00637354
0.00639962
0.00642433
0.00644745
0.00646884
0.00648841
0.00650612
0.00652195
0.00653594
0.00654812
0.00655858
0.00656738
0.00657461
0.00658039
0.0065848
0.00658796
0.00658997
0.00659092
0.00642325
0.00643639
0.00645455
0.00647653
0.00650126
0.0065278
0.00655534
0.00658321
0.00661083
0.00663773
0.00666356
0.00668803
0.00671093
0.00673211
0.0067515
0.00676903
0.00678472
0.00679857
0.00681064
0.00682099
0.00682971
0.00683688
0.0068426
0.00684698
0.00685011
0.00685209
0.00685303
0.0066872
0.00670021
0.00671819
0.00673996
0.00676444
0.00679072
0.006818
0.0068456
0.00687295
0.0068996
0.00692518
0.00694941
0.00697209
0.00699308
0.00701228
0.00702965
0.00704519
0.00705891
0.00707087
0.00708113
0.00708976
0.00709687
0.00710254
0.00710687
0.00710997
0.00711194
0.00711287
0.00694876
0.00696164
0.00697946
0.00700101
0.00702526
0.00705129
0.00707831
0.00710564
0.00713273
0.00715913
0.00718447
0.00720847
0.00723094
0.00725173
0.00727075
0.00728796
0.00730335
0.00731695
0.0073288
0.00733896
0.00734751
0.00735455
0.00736017
0.00736446
0.00736753
0.00736948
0.00737041
0.00720794
0.0072207
0.00723835
0.0072597
0.00728371
0.0073095
0.00733626
0.00736333
0.00739017
0.00741631
0.00744141
0.00746519
0.00748745
0.00750804
0.00752689
0.00754394
0.00755918
0.00757265
0.00758439
0.00759446
0.00760293
0.00760991
0.00761547
0.00761972
0.00762277
0.0076247
0.00762561
0.00746475
0.00747739
0.00749486
0.007516
0.00753979
0.00756533
0.00759184
0.00761865
0.00764523
0.00767113
0.00769599
0.00771954
0.00774159
0.00776199
0.00778065
0.00779754
0.00781264
0.00782598
0.00783761
0.00784758
0.00785597
0.00786288
0.00786839
0.0078726
0.00787562
0.00787753
0.00787844
0.00771915
0.00773166
0.00774897
0.00776991
0.00779347
0.00781876
0.007845
0.00787156
0.00789788
0.00792353
0.00794815
0.00797147
0.0079933
0.0080135
0.00803198
0.00804871
0.00806366
0.00807687
0.00808838
0.00809826
0.00810657
0.00811341
0.00811887
0.00812304
0.00812602
0.00812792
0.00812882
0.0079711
0.00798349
0.00800063
0.00802136
0.00804468
0.00806972
0.00809571
0.008122
0.00814806
0.00817344
0.00819782
0.00822091
0.00824252
0.00826251
0.00828081
0.00829736
0.00831217
0.00832524
0.00833664
0.00834641
0.00835464
0.00836141
0.00836681
0.00837094
0.0083739
0.00837577
0.00837666
0.00822054
0.0082328
0.00824976
0.00827028
0.00829336
0.00831814
0.00834386
0.00836987
0.00839566
0.00842079
0.0084449
0.00846775
0.00848913
0.00850892
0.00852702
0.0085434
0.00855805
0.00857099
0.00858226
0.00859193
0.00860007
0.00860677
0.00861211
0.0086162
0.00861912
0.00862097
0.00862185
0.00846737
0.0084795
0.00849628
0.00851657
0.0085394
0.00856391
0.00858935
0.00861508
0.00864059
0.00866543
0.00868928
0.00871188
0.00873302
0.00875259
0.00877049
0.00878668
0.00880117
0.00881396
0.0088251
0.00883466
0.00884271
0.00884934
0.00885462
0.00885866
0.00886155
0.00886338
0.00886425
0.00871147
0.00872346
0.00874005
0.00876011
0.00878268
0.0088069
0.00883204
0.00885747
0.00888268
0.00890723
0.0089308
0.00895313
0.00897402
0.00899336
0.00901104
0.00902704
0.00904135
0.00905399
0.009065
0.00907444
0.00908239
0.00908894
0.00909415
0.00909814
0.009101
0.00910281
0.00910367
0.00895268
0.00896453
0.00898091
0.00900072
0.00902301
0.00904693
0.00907176
0.00909687
0.00912176
0.009146
0.00916927
0.00919131
0.00921194
0.00923102
0.00924848
0.00926427
0.00927839
0.00929086
0.00930173
0.00931105
0.00931889
0.00932535
0.0093305
0.00933443
0.00933725
0.00933904
0.00933989
0.00919081
0.0092025
0.00921866
0.00923821
0.0092602
0.00928379
0.00930828
0.00933305
0.0093576
0.00938151
0.00940445
0.00942618
0.00944652
0.00946533
0.00948254
0.00949811
0.00951203
0.00952432
0.00953503
0.00954422
0.00955195
0.00955831
0.00956339
0.00956727
0.00957004
0.0095718
0.00957264
0.00942562
0.00943714
0.00945306
0.00947232
0.00949398
0.00951723
0.00954135
0.00956575
0.00958992
0.00961347
0.00963606
0.00965746
0.00967748
0.009696
0.00971294
0.00972826
0.00974196
0.00975406
0.0097646
0.00977364
0.00978125
0.00978751
0.0097925
0.00979632
0.00979905
0.00980078
0.0098016
0.00965682
0.00966816
0.00968382
0.00970276
0.00972407
0.00974694
0.00977066
0.00979465
0.00981842
0.00984156
0.00986377
0.0098848
0.00990448
0.00992268
0.00993932
0.00995438
0.00996784
0.00997972
0.00999007
0.00999895
0.0100064
0.0100126
0.0100175
0.0100212
0.0100239
0.0100256
0.0100264
0.00988408
0.00989521
0.00991059
0.00992919
0.00995011
0.00997255
0.00999584
0.0100194
0.0100427
0.0100654
0.0100872
0.0101078
0.0101271
0.010145
0.0101613
0.010176
0.0101892
0.0102009
0.010211
0.0102197
0.010227
0.0102331
0.0102379
0.0102415
0.0102442
0.0102458
0.0102466
0.010107
0.0101179
0.010133
0.0101512
0.0101717
0.0101937
0.0102165
0.0102395
0.0102623
0.0102845
0.0103059
0.010326
0.0103449
0.0103624
0.0103783
0.0103928
0.0104057
0.010417
0.010427
0.0104355
0.0104426
0.0104485
0.0104532
0.0104568
0.0104593
0.010461
0.0104617
0.0103251
0.0103358
0.0103505
0.0103683
0.0103883
0.0104098
0.010432
0.0104545
0.0104768
0.0104985
0.0105193
0.0105389
0.0105574
0.0105744
0.0105899
0.010604
0.0106166
0.0106277
0.0106373
0.0106456
0.0106526
0.0106583
0.0106629
0.0106664
0.0106689
0.0106705
0.0106712
0.0105379
0.0105483
0.0105626
0.0105799
0.0105994
0.0106203
0.010642
0.0106638
0.0106855
0.0107066
0.0107268
0.0107459
0.0107638
0.0107803
0.0107955
0.0108091
0.0108213
0.0108321
0.0108415
0.0108495
0.0108563
0.0108618
0.0108663
0.0108697
0.0108721
0.0108736
0.0108743
0.0107448
0.0107549
0.0107688
0.0107856
0.0108044
0.0108247
0.0108457
0.0108669
0.0108878
0.0109083
0.0109278
0.0109463
0.0109636
0.0109796
0.0109942
0.0110074
0.0110192
0.0110296
0.0110387
0.0110465
0.011053
0.0110584
0.0110627
0.0110659
0.0110683
0.0110698
0.0110705
0.0109451
0.0109548
0.0109682
0.0109844
0.0110027
0.0110222
0.0110424
0.0110629
0.0110831
0.0111027
0.0111216
0.0111394
0.0111561
0.0111715
0.0111855
0.0111982
0.0112096
0.0112196
0.0112283
0.0112357
0.011242
0.0112472
0.0112513
0.0112544
0.0112567
0.0112581
0.0112588
0.0111381
0.0111474
0.0111603
0.0111758
0.0111933
0.0112121
0.0112315
0.0112511
0.0112704
0.0112893
0.0113073
0.0113244
0.0113403
0.011355
0.0113685
0.0113806
0.0113915
0.011401
0.0114093
0.0114165
0.0114225
0.0114274
0.0114313
0.0114343
0.0114365
0.0114378
0.0114385
0.0113229
0.0113318
0.0113441
0.011359
0.0113756
0.0113935
0.011412
0.0114306
0.0114491
0.011467
0.0114842
0.0115004
0.0115155
0.0115295
0.0115423
0.0115538
0.0115641
0.0115731
0.011581
0.0115878
0.0115935
0.0115981
0.0116019
0.0116047
0.0116067
0.011608
0.0116086
0.0114988
0.0115073
0.0115189
0.011533
0.0115487
0.0115656
0.0115831
0.0116007
0.0116182
0.0116351
0.0116513
0.0116666
0.0116808
0.011694
0.011706
0.0117168
0.0117265
0.011735
0.0117425
0.0117488
0.0117541
0.0117585
0.011762
0.0117647
0.0117666
0.0117678
0.0117684
0.0116649
0.0116729
0.0116838
0.011697
0.0117118
0.0117276
0.011744
0.0117605
0.0117768
0.0117926
0.0118077
0.011822
0.0118353
0.0118476
0.0118588
0.0118689
0.0118779
0.0118859
0.0118928
0.0118987
0.0119036
0.0119077
0.0119109
0.0119134
0.0119152
0.0119163
0.0119168
0.0118204
0.0118277
0.0118379
0.0118501
0.0118639
0.0118786
0.0118937
0.011909
0.0119241
0.0119387
0.0119527
0.0119659
0.0119782
0.0119895
0.0119998
0.0120091
0.0120174
0.0120247
0.0120311
0.0120365
0.0120411
0.0120448
0.0120478
0.0120501
0.0120517
0.0120527
0.0120532
0.0119643
0.0119711
0.0119804
0.0119916
0.0120042
0.0120177
0.0120316
0.0120455
0.0120593
0.0120727
0.0120854
0.0120975
0.0121087
0.012119
0.0121284
0.0121368
0.0121444
0.012151
0.0121568
0.0121617
0.0121658
0.0121692
0.0121719
0.012174
0.0121754
0.0121764
0.0121768
0.012096
0.0121021
0.0121105
0.0121207
0.0121321
0.0121442
0.0121568
0.0121694
0.0121818
0.0121938
0.0122053
0.0122161
0.0122262
0.0122354
0.0122438
0.0122514
0.0122581
0.0122641
0.0122692
0.0122736
0.0122773
0.0122803
0.0122827
0.0122846
0.0122859
0.0122867
0.0122871
0.0122148
0.0122202
0.0122278
0.0122368
0.012247
0.0122578
0.0122689
0.0122801
0.0122911
0.0123017
0.0123119
0.0123214
0.0123303
0.0123384
0.0123458
0.0123525
0.0123584
0.0123636
0.0123681
0.012372
0.0123752
0.0123778
0.0123799
0.0123816
0.0123827
0.0123834
0.0123838
0.0123203
0.0123251
0.0123317
0.0123396
0.0123484
0.0123579
0.0123676
0.0123773
0.0123869
0.0123961
0.0124049
0.0124131
0.0124208
0.0124278
0.0124342
0.01244
0.0124451
0.0124495
0.0124534
0.0124567
0.0124595
0.0124618
0.0124636
0.0124649
0.0124659
0.0124665
0.0124668
0.0124124
0.0124165
0.0124221
0.0124289
0.0124364
0.0124445
0.0124528
0.0124611
0.0124692
0.012477
0.0124845
0.0124915
0.0124979
0.0125039
0.0125093
0.0125141
0.0125184
0.0125221
0.0125254
0.0125282
0.0125305
0.0125324
0.0125339
0.012535
0.0125359
0.0125364
0.0125366
0.0124911
0.0124945
0.0124992
0.0125049
0.0125112
0.0125179
0.0125248
0.0125317
0.0125384
0.0125449
0.012551
0.0125568
0.0125621
0.012567
0.0125714
0.0125754
0.0125789
0.012582
0.0125846
0.0125869
0.0125888
0.0125904
0.0125916
0.0125925
0.0125932
0.0125936
0.0125938
0.0125568
0.0125596
0.0125635
0.0125681
0.0125732
0.0125786
0.0125842
0.0125898
0.0125952
0.0126004
0.0126054
0.01261
0.0126142
0.0126181
0.0126217
0.0126248
0.0126276
0.0126301
0.0126322
0.012634
0.0126355
0.0126367
0.0126377
0.0126384
0.0126389
0.0126393
0.0126394
0.0126105
0.0126127
0.0126157
0.0126193
0.0126234
0.0126276
0.012632
0.0126363
0.0126406
0.0126446
0.0126485
0.0126521
0.0126554
0.0126584
0.0126611
0.0126636
0.0126657
0.0126676
0.0126692
0.0126706
0.0126717
0.0126727
0.0126734
0.012674
0.0126744
0.0126746
0.0126748
0.012653
0.0126547
0.012657
0.0126597
0.0126628
0.012666
0.0126693
0.0126726
0.0126758
0.0126789
0.0126818
0.0126845
0.0126869
0.0126892
0.0126912
0.012693
0.0126946
0.012696
0.0126972
0.0126983
0.0126991
0.0126998
0.0127004
0.0127008
0.0127011
0.0127013
0.0127014
0.0126858
0.012687
0.0126887
0.0126907
0.0126929
0.0126953
0.0126977
0.0127001
0.0127024
0.0127047
0.0127068
0.0127087
0.0127105
0.0127121
0.0127136
0.0127149
0.012716
0.012717
0.0127179
0.0127186
0.0127193
0.0127198
0.0127202
0.0127205
0.0127207
0.0127208
0.0127209
0.0127102
0.0127111
0.0127123
0.0127137
0.0127153
0.012717
0.0127187
0.0127203
0.012722
0.0127235
0.012725
0.0127264
0.0127276
0.0127287
0.0127298
0.0127307
0.0127315
0.0127322
0.0127328
0.0127333
0.0127337
0.0127341
0.0127344
0.0127346
0.0127347
0.0127348
0.0127349
0.012728
0.0127286
0.0127294
0.0127304
0.0127315
0.0127326
0.0127337
0.0127349
0.012736
0.012737
0.012738
0.012739
0.0127398
0.0127406
0.0127413
0.0127419
0.0127425
0.012743
0.0127434
0.0127437
0.012744
0.0127443
0.0127445
0.0127446
0.0127447
0.0127448
0.0127448
0.0127406
0.012741
0.0127415
0.0127422
0.0127429
0.0127436
0.0127444
0.0127451
0.0127459
0.0127466
0.0127473
0.0127479
0.0127485
0.012749
0.0127495
0.0127499
0.0127503
0.0127506
0.0127509
0.0127512
0.0127514
0.0127516
0.0127517
0.0127518
0.0127519
0.0127519
0.0127519
0.0127494
0.0127497
0.01275
0.0127504
0.0127509
0.0127514
0.0127519
0.0127524
0.0127529
0.0127534
0.0127538
0.0127543
0.0127547
0.0127551
0.0127554
0.0127557
0.012756
0.0127562
0.0127564
0.0127566
0.0127568
0.0127569
0.012757
0.0127571
0.0127571
0.0127572
0.0127572
0.0127556
0.0127557
0.012756
0.0127562
0.0127565
0.0127569
0.0127572
0.0127576
0.0127579
0.0127583
0.0127586
0.0127589
0.0127592
0.0127595
0.0127598
0.01276
0.0127602
0.0127604
0.0127606
0.0127607
0.0127608
0.0127609
0.012761
0.0127611
0.0127611
0.0127611
0.0127611
0.0127599
0.0127601
0.0127602
0.0127604
0.0127607
0.0127609
0.0127612
0.0127614
0.0127617
0.012762
0.0127622
0.0127625
0.0127627
0.0127629
0.0127631
0.0127633
0.0127635
0.0127636
0.0127638
0.0127639
0.012764
0.012764
0.0127641
0.0127642
0.0127642
0.0127642
0.0127642
0.0127632
0.0127633
0.0127634
0.0127636
0.0127638
0.012764
0.0127642
0.0127644
0.0127646
0.0127648
0.012765
0.0127652
0.0127654
0.0127656
0.0127658
0.0127659
0.012766
0.0127662
0.0127663
0.0127664
0.0127664
0.0127665
0.0127666
0.0127666
0.0127666
0.0127666
0.0127667
0.0127657
0.0127658
0.0127659
0.012766
0.0127662
0.0127664
0.0127665
0.0127667
0.0127669
0.0127671
0.0127672
0.0127674
0.0127676
0.0127677
0.0127678
0.0127679
0.0127681
0.0127681
0.0127682
0.0127683
0.0127684
0.0127684
0.0127685
0.0127685
0.0127685
0.0127685
0.0127685
0.0127677
0.0127678
0.0127679
0.012768
0.0127681
0.0127683
0.0127684
0.0127685
0.0127687
0.0127688
0.012769
0.0127691
0.0127692
0.0127693
0.0127694
0.0127695