/*--------------------------------*- C++ -*----------------------------------*\
| =========                 |                                                 |
| \\      /  F ield         | OpenFOAM: The Open Source CFD Toolbox           |
|  \\    /   O peration     | Version:  2106                                  |
|   \\  /    A nd           | Website:  www.openfoam.com                      |
|    \\/     M anipulation  |                                                 |
\*---------------------------------------------------------------------------*/
FoamFile
{
    version     2.0;
    format      ascii;
    arch        "LSB;label=32;scalar=64";
    class       volScalarField;
    location    "110.00057";
    object      C4H61_0;
}
// * * * * * * * * * * * * * * * * * * * * * * * * * * * * * * * * * * * * * //

dimensions      [0 0 0 0 0 0 0];

internalField   nonuniform List<scalar> 
3360
(
1.07781e-25
1.14525e-25
1.2402e-25
1.3582e-25
1.49532e-25
1.64792e-25
1.81246e-25
1.98555e-25
2.16388e-25
2.3443e-25
2.52387e-25
2.69987e-25
2.86989e-25
3.03182e-25
3.18391e-25
3.32475e-25
3.45325e-25
3.56869e-25
3.67064e-25
3.75898e-25
3.83383e-25
3.89556e-25
3.94476e-25
3.98216e-25
4.00864e-25
4.02521e-25
4.03293e-25
5.44964e-25
5.82675e-25
6.36585e-25
7.04911e-25
7.86298e-25
8.79601e-25
9.83786e-25
1.09785e-24
1.2208e-24
1.35155e-24
1.48897e-24
1.63183e-24
1.77876e-24
1.92826e-24
2.07872e-24
2.22841e-24
2.37551e-24
2.51808e-24
2.65414e-24
2.78166e-24
2.89863e-24
3.00313e-24
3.09334e-24
3.16765e-24
3.22469e-24
3.26337e-24
3.28292e-24
2.08256e-24
2.25382e-24
2.50167e-24
2.82084e-24
3.208e-24
3.66048e-24
4.17564e-24
4.75029e-24
5.3803e-24
6.06032e-24
6.78355e-24
7.54191e-24
8.32617e-24
9.12606e-24
9.93036e-24
1.07272e-23
1.15043e-23
1.22495e-23
1.2951e-23
1.35977e-23
1.41798e-23
1.46892e-23
1.5119e-23
1.54646e-23
1.57234e-23
1.58943e-23
1.59785e-23
7.52293e-24
8.22934e-24
9.26458e-24
1.06166e-23
1.22808e-23
1.42544e-23
1.65321e-23
1.91039e-23
2.19527e-23
2.50535e-23
2.83728e-23
3.18689e-23
3.54927e-23
3.91887e-23
4.28968e-23
4.65543e-23
5.00984e-23
5.34689e-23
5.6611e-23
5.94765e-23
6.20258e-23
6.42289e-23
6.60653e-23
6.75239e-23
6.86026e-23
6.93072e-23
6.96504e-23
2.79542e-23
3.08378e-23
3.50907e-23
4.06869e-23
4.76288e-23
5.59209e-23
6.55524e-23
7.64842e-23
8.86398e-23
1.01901e-22
1.16108e-22
1.31062e-22
1.4653e-22
1.62257e-22
1.77973e-22
1.93404e-22
2.08285e-22
2.22367e-22
2.35431e-22
2.47289e-22
2.57793e-22
2.66832e-22
2.74339e-22
2.80281e-22
2.84661e-22
2.87514e-22
2.889e-22
1.0658e-22
1.18238e-22
1.35502e-22
1.58312e-22
1.86714e-22
2.20752e-22
2.60389e-22
3.0546e-22
3.55636e-22
4.10406e-22
4.69077e-22
5.3079e-22
5.94553e-22
6.59277e-22
7.23825e-22
7.87059e-22
8.47889e-22
9.05314e-22
9.58453e-22
1.00657e-21
1.04909e-21
1.08561e-21
1.11586e-21
1.13976e-21
1.15735e-21
1.16879e-21
1.17434e-21
4.13252e-22
4.60164e-22
5.29781e-22
6.21972e-22
7.37012e-22
8.75115e-22
1.03613e-21
1.21933e-21
1.4233e-21
1.64587e-21
1.88413e-21
2.1345e-21
2.39288e-21
2.65481e-21
2.91568e-21
3.17088e-21
3.41606e-21
3.64722e-21
3.86088e-21
4.05413e-21
4.22475e-21
4.37112e-21
4.49232e-21
4.58801e-21
4.65838e-21
4.70411e-21
4.72629e-21
1.61772e-21
1.80514e-21
2.08368e-21
2.45305e-21
2.91458e-21
3.46924e-21
4.11651e-21
4.85347e-21
5.6743e-21
6.57008e-21
7.52889e-21
8.53612e-21
9.5751e-21
1.06277e-20
1.16754e-20
1.26996e-20
1.36828e-20
1.4609e-20
1.54644e-20
1.62376e-20
1.69196e-20
1.75042e-20
1.79879e-20
1.83695e-20
1.865e-20
1.88322e-20
1.89205e-20
6.37262e-21
7.1212e-21
8.23438e-21
9.71163e-21
1.15585e-20
1.37792e-20
1.63714e-20
1.93229e-20
2.261e-20
2.61963e-20
3.00335e-20
3.40624e-20
3.82161e-20
4.24221e-20
4.66057e-20
5.06932e-20
5.46151e-20
5.83081e-20
6.17172e-20
6.47971e-20
6.75131e-20
6.98408e-20
7.17663e-20
7.3285e-20
7.44011e-20
7.51259e-20
7.54771e-20
2.51518e-20
2.81291e-20
3.25593e-20
3.84417e-20
4.58003e-20
5.46522e-20
6.49886e-20
7.67609e-20
8.98732e-20
1.04179e-19
1.19484e-19
1.35552e-19
1.52114e-19
1.68879e-19
1.85549e-19
2.01831e-19
2.17447e-19
2.32146e-19
2.4571e-19
2.57958e-19
2.68755e-19
2.78005e-19
2.85653e-19
2.91683e-19
2.96112e-19
2.98988e-19
3.00381e-19
9.94629e-20
1.11307e-19
1.28933e-19
1.52341e-19
1.81629e-19
2.16863e-19
2.58006e-19
3.0486e-19
3.57037e-19
4.13949e-19
4.74817e-19
5.38695e-19
6.04509e-19
6.71105e-19
7.37299e-19
8.01926e-19
8.63887e-19
9.22188e-19
9.75968e-19
1.02452e-18
1.06731e-18
1.10396e-18
1.13425e-18
1.15814e-18
1.17568e-18
1.18707e-18
1.19258e-18
3.93093e-19
4.40077e-19
5.10011e-19
6.02905e-19
7.1914e-19
8.58984e-19
1.02228e-18
1.20822e-18
1.41527e-18
1.64106e-18
1.88248e-18
2.13577e-18
2.39665e-18
2.66053e-18
2.92272e-18
3.1786e-18
3.42382e-18
3.65446e-18
3.86712e-18
4.05904e-18
4.22809e-18
4.37283e-18
4.49244e-18
4.58669e-18
4.6559e-18
4.70081e-18
4.72255e-18
1.55278e-18
1.73904e-18
2.01626e-18
2.38443e-18
2.84502e-18
3.39901e-18
4.04566e-18
4.78171e-18
5.60088e-18
6.49376e-18
7.44793e-18
8.44841e-18
9.47828e-18
1.05194e-17
1.15532e-17
1.25615e-17
1.35273e-17
1.44352e-17
1.52718e-17
1.60265e-17
1.6691e-17
1.72596e-17
1.77294e-17
1.80995e-17
1.83711e-17
1.85473e-17
1.86326e-17
6.11528e-18
6.85088e-18
7.94563e-18
9.39937e-18
1.12176e-17
1.34038e-17
1.59547e-17
1.88567e-17
2.20846e-17
2.56004e-17
2.93549e-17
3.32885e-17
3.73343e-17
4.14208e-17
4.54753e-17
4.94266e-17
5.32079e-17
5.67596e-17
6.00303e-17
6.29782e-17
6.55719e-17
6.77901e-17
6.96213e-17
7.1063e-17
7.21206e-17
7.28065e-17
7.31383e-17
2.4e-17
2.68955e-17
3.12034e-17
3.69216e-17
4.40697e-17
5.26587e-17
6.2672e-17
7.40532e-17
8.66987e-17
1.00457e-16
1.15131e-16
1.30485e-16
1.46258e-16
1.62168e-16
1.77933e-16
1.93278e-16
2.07945e-16
2.21705e-16
2.34362e-16
2.45759e-16
2.55776e-16
2.64336e-16
2.71396e-16
2.76951e-16
2.81023e-16
2.83662e-16
2.84938e-16
9.36199e-17
1.0494e-16
1.21773e-16
1.44102e-16
1.71992e-16
2.05472e-16
2.44459e-16
2.88714e-16
3.37816e-16
3.91157e-16
4.47958e-16
5.07294e-16
5.6814e-16
6.29413e-16
6.90022e-16
7.48913e-16
8.05108e-16
8.57742e-16
9.06081e-16
9.49539e-16
9.87685e-16
1.02023e-15
1.04705e-15
1.06812e-15
1.08355e-15
1.09355e-15
1.09837e-15
3.62386e-16
4.0626e-16
4.71454e-16
5.57846e-16
6.65615e-16
7.94784e-16
9.44939e-16
1.11505e-15
1.30341e-15
1.50756e-15
1.72444e-15
1.95045e-15
2.18165e-15
2.4139e-15
2.64306e-15
2.8652e-15
3.07668e-15
3.27432e-15
3.45544e-15
3.61794e-15
3.76032e-15
3.88159e-15
3.98134e-15
4.05961e-15
4.11685e-15
4.15387e-15
4.17174e-15
1.38854e-15
1.55653e-15
1.80586e-15
2.13576e-15
2.54651e-15
3.03774e-15
3.60735e-15
4.25091e-15
4.96133e-15
5.72895e-15
6.54179e-15
7.38608e-15
8.24685e-15
9.10868e-15
9.95633e-15
1.07754e-14
1.15528e-14
1.22771e-14
1.29391e-14
1.35316e-14
1.40494e-14
1.44895e-14
1.48507e-14
1.51336e-14
1.53401e-14
1.54735e-14
1.55378e-14
5.25364e-15
5.88662e-15
6.8245e-15
8.06266e-15
9.60009e-15
1.14329e-14
1.35507e-14
1.59343e-14
1.85549e-14
2.13745e-14
2.43472e-14
2.74216e-14
3.05423e-14
3.36536e-14
3.6701e-14
3.96338e-14
4.24067e-14
4.49813e-14
4.73263e-14
4.94182e-14
5.12411e-14
5.27862e-14
5.40514e-14
5.504e-14
5.57604e-14
5.62247e-14
5.64481e-14
1.95717e-14
2.1907e-14
2.53589e-14
2.99019e-14
3.55218e-14
4.2193e-14
4.9865e-14
5.84562e-14
6.78516e-14
7.79056e-14
8.84478e-14
9.92905e-14
1.10238e-13
1.21095e-13
1.31675e-13
1.41809e-13
1.51347e-13
1.60165e-13
1.68164e-13
1.75274e-13
1.81449e-13
1.86667e-13
1.90927e-13
1.94248e-13
1.96662e-13
1.98215e-13
1.98961e-13
7.15906e-14
7.9981e-14
9.2344e-14
1.08547e-13
1.28492e-13
1.52035e-13
1.78946e-13
2.08889e-13
2.4142e-13
2.75999e-13
3.12016e-13
3.48819e-13
3.85743e-13
4.2214e-13
4.57405e-13
4.90998e-13
5.22456e-13
5.514e-13
5.77544e-13
6.00688e-13
6.20714e-13
6.3758e-13
6.5131e-13
6.61984e-13
6.69725e-13
6.74695e-13
6.77077e-13
2.56319e-13
2.85497e-13
3.28315e-13
3.84137e-13
4.52425e-13
5.3248e-13
6.23317e-13
7.23618e-13
8.31746e-13
9.45801e-13
1.06371e-12
1.18331e-12
1.30247e-12
1.41915e-12
1.5315e-12
1.63791e-12
1.73702e-12
1.82776e-12
1.90935e-12
1.98128e-12
2.04329e-12
2.09534e-12
2.13758e-12
2.17034e-12
2.19403e-12
2.20921e-12
2.21648e-12
8.95362e-13
9.92982e-13
1.13554e-12
1.32022e-12
1.54449e-12
1.80532e-12
2.09881e-12
2.42012e-12
2.76357e-12
3.12284e-12
3.49127e-12
3.86215e-12
4.229e-12
4.58581e-12
4.92724e-12
5.24873e-12
5.54659e-12
5.81799e-12
6.06095e-12
6.2743e-12
6.45757e-12
6.61091e-12
6.73501e-12
6.83098e-12
6.90026e-12
6.94456e-12
6.96572e-12
3.04029e-12
3.35276e-12
3.80656e-12
4.39037e-12
5.09369e-12
5.90465e-12
6.80909e-12
7.79054e-12
8.83053e-12
9.90937e-12
1.1007e-11
1.21037e-11
1.31809e-11
1.4222e-11
1.52123e-11
1.61398e-11
1.69949e-11
1.77705e-11
1.84622e-11
1.90673e-11
1.95855e-11
2.00178e-11
2.03668e-11
2.0636e-11
2.083e-11
2.09538e-11
2.10129e-11
9.99791e-12
1.09512e-11
1.23277e-11
1.4086e-11
1.61872e-11
1.85893e-11
2.12452e-11
2.41028e-11
2.7106e-11
3.01972e-11
3.33193e-11
3.64177e-11
3.94422e-11
4.23485e-11
4.50989e-11
4.76626e-11
5.00162e-11
5.21431e-11
5.4033e-11
5.56816e-11
5.70892e-11
5.82608e-11
5.92046e-11
5.99313e-11
6.04541e-11
6.07873e-11
6.0946e-11
3.17305e-11
3.44985e-11
3.84742e-11
4.35184e-11
4.95014e-11
5.62883e-11
6.37342e-11
7.16849e-11
7.99811e-11
8.84631e-11
9.69765e-11
1.05377e-10
1.13535e-10
1.21337e-10
1.28689e-10
1.35516e-10
1.41761e-10
1.47388e-10
1.52374e-10
1.56713e-10
1.60409e-10
1.6348e-10
1.65949e-10
1.67848e-10
1.69212e-10
1.70081e-10
1.70494e-10
9.6953e-11
1.04619e-10
1.15578e-10
1.29403e-10
1.45697e-10
1.6406e-10
1.84076e-10
2.05319e-10
2.27357e-10
2.49768e-10
2.72153e-10
2.94143e-10
3.15413e-10
3.35682e-10
3.5472e-10
3.72348e-10
3.88434e-10
4.02893e-10
4.1568e-10
4.26786e-10
4.36234e-10
4.44072e-10
4.50366e-10
4.55201e-10
4.58671e-10
4.60878e-10
4.61927e-10
2.84841e-10
3.05188e-10
3.34165e-10
3.70553e-10
4.13232e-10
4.61093e-10
5.13015e-10
5.67869e-10
6.24539e-10
6.81951e-10
7.39098e-10
7.95067e-10
8.49054e-10
9.00375e-10
9.48477e-10
9.92931e-10
1.03343e-09
1.06977e-09
1.10188e-09
1.12973e-09
1.15339e-09
1.17301e-09
1.18875e-09
1.20083e-09
1.2095e-09
1.215e-09
1.21762e-09
8.03995e-10
8.56068e-10
9.30037e-10
1.02264e-09
1.13089e-09
1.25189e-09
1.38276e-09
1.52063e-09
1.6627e-09
1.8063e-09
1.94896e-09
2.08843e-09
2.22276e-09
2.35029e-09
2.46969e-09
2.57993e-09
2.68026e-09
2.77025e-09
2.84968e-09
2.91854e-09
2.97704e-09
3.02549e-09
3.06436e-09
3.09419e-09
3.11558e-09
3.12917e-09
3.13563e-09
2.17728e-09
2.30644e-09
2.48965e-09
2.71863e-09
2.98589e-09
3.28418e-09
3.60635e-09
3.94537e-09
4.29442e-09
4.64702e-09
4.99713e-09
5.33933e-09
5.66886e-09
5.98168e-09
6.27455e-09
6.54495e-09
6.79109e-09
7.01186e-09
7.20672e-09
7.37569e-09
7.51922e-09
7.63812e-09
7.7335e-09
7.80668e-09
7.85915e-09
7.89249e-09
7.90833e-09
5.63218e-09
5.94248e-09
6.3825e-09
6.93232e-09
7.574e-09
8.29032e-09
9.06434e-09
9.87947e-09
1.07195e-08
1.15691e-08
1.24139e-08
1.32408e-08
1.40384e-08
1.47967e-08
1.55078e-08
1.61654e-08
1.67649e-08
1.73033e-08
1.77791e-08
1.81923e-08
1.85435e-08
1.88348e-08
1.90686e-08
1.92481e-08
1.93768e-08
1.94586e-08
1.94975e-08
1.37865e-08
1.44999e-08
1.5512e-08
1.67776e-08
1.82562e-08
1.9909e-08
2.16982e-08
2.35865e-08
2.55374e-08
2.7516e-08
2.94893e-08
3.14271e-08
3.33022e-08
3.50913e-08
3.67746e-08
3.83364e-08
3.97649e-08
4.10518e-08
4.21926e-08
4.31855e-08
4.40319e-08
4.47351e-08
4.53006e-08
4.57355e-08
4.60477e-08
4.62464e-08
4.63408e-08
3.15043e-08
3.30366e-08
3.5211e-08
3.79311e-08
4.11112e-08
4.46698e-08
4.85274e-08
5.26057e-08
5.68279e-08
6.11199e-08
6.54115e-08
6.96374e-08
7.37385e-08
7.76627e-08
8.13658e-08
8.48115e-08
8.79717e-08
9.08263e-08
9.33627e-08
9.55754e-08
9.7465e-08
9.90376e-08
1.00304e-07
1.01279e-07
1.0198e-07
1.02425e-07
1.02637e-07
6.64105e-08
6.94105e-08
7.36638e-08
7.89792e-08
8.5187e-08
9.21268e-08
9.96427e-08
1.07582e-07
1.15796e-07
1.24142e-07
1.32482e-07
1.40692e-07
1.48656e-07
1.56275e-07
1.63461e-07
1.70146e-07
1.76274e-07
1.81807e-07
1.8672e-07
1.91004e-07
1.9466e-07
1.977e-07
2.00147e-07
2.02029e-07
2.03381e-07
2.0424e-07
2.04649e-07
1.28608e-07
1.33906e-07
1.41403e-07
1.50746e-07
1.61624e-07
1.73744e-07
1.86822e-07
2.00587e-07
2.14773e-07
2.29132e-07
2.43427e-07
2.57445e-07
2.70992e-07
2.83903e-07
2.96037e-07
3.07284e-07
3.17559e-07
3.26805e-07
3.34991e-07
3.42107e-07
3.48163e-07
3.53188e-07
3.57222e-07
3.60318e-07
3.62538e-07
3.63948e-07
3.64617e-07
2.29827e-07
2.3831e-07
2.50276e-07
2.65131e-07
2.82348e-07
3.01431e-07
3.21913e-07
3.43346e-07
3.65308e-07
3.87406e-07
4.09277e-07
4.30598e-07
4.51088e-07
4.70506e-07
4.8866e-07
5.05402e-07
5.20624e-07
5.34263e-07
5.46287e-07
5.56701e-07
5.65535e-07
5.72842e-07
5.78694e-07
5.83175e-07
5.86382e-07
5.88415e-07
5.89379e-07
3.82496e-07
3.9495e-07
4.12457e-07
4.34094e-07
4.59038e-07
4.86525e-07
5.15842e-07
5.46323e-07
5.77351e-07
6.08363e-07
6.38859e-07
6.684e-07
6.96616e-07
7.23202e-07
7.47922e-07
7.70603e-07
7.9113e-07
8.09442e-07
8.25525e-07
8.39406e-07
8.51147e-07
8.60833e-07
8.68573e-07
8.7449e-07
8.78718e-07
8.81396e-07
8.82665e-07
5.98674e-07
6.15648e-07
6.39425e-07
6.68677e-07
7.02221e-07
7.38971e-07
7.77925e-07
8.18169e-07
8.58875e-07
8.99306e-07
9.3882e-07
9.76874e-07
1.01302e-06
1.0469e-06
1.07825e-06
1.1069e-06
1.13271e-06
1.15567e-06
1.17576e-06
1.19306e-06
1.20766e-06
1.21968e-06
1.22927e-06
1.2366e-06
1.24182e-06
1.24513e-06
1.2467e-06
8.88564e-07
9.10273e-07
9.40584e-07
9.77721e-07
1.0201e-06
1.06629e-06
1.11498e-06
1.165e-06
1.21531e-06
1.26501e-06
1.31333e-06
1.35964e-06
1.40343e-06
1.44431e-06
1.48199e-06
1.51629e-06
1.54712e-06
1.57445e-06
1.59833e-06
1.61885e-06
1.63614e-06
1.65035e-06
1.66169e-06
1.67033e-06
1.6765e-06
1.68041e-06
1.68226e-06
1.25887e-06
1.28518e-06
1.32182e-06
1.36655e-06
1.41739e-06
1.47255e-06
1.53044e-06
1.58964e-06
1.64892e-06
1.70723e-06
1.76368e-06
1.81758e-06
1.86837e-06
1.91563e-06
1.95907e-06
1.99852e-06
2.0339e-06
2.06521e-06
2.09253e-06
2.11597e-06
2.13569e-06
2.15191e-06
2.16482e-06
2.17468e-06
2.18171e-06
2.18616e-06
2.18826e-06
1.71178e-06
1.74228e-06
1.78467e-06
1.83627e-06
1.89473e-06
1.95795e-06
2.02406e-06
2.09143e-06
2.15866e-06
2.22457e-06
2.2882e-06
2.34878e-06
2.40572e-06
2.45858e-06
2.50708e-06
2.55105e-06
2.59042e-06
2.62523e-06
2.65556e-06
2.68157e-06
2.70346e-06
2.72143e-06
2.73576e-06
2.74668e-06
2.75447e-06
2.75941e-06
2.76175e-06
2.24502e-06
2.27915e-06
2.32648e-06
2.38399e-06
2.44899e-06
2.51911e-06
2.59224e-06
2.66658e-06
2.74058e-06
2.81297e-06
2.8827e-06
2.94896e-06
3.01114e-06
3.06877e-06
3.12158e-06
3.16941e-06
3.21221e-06
3.25001e-06
3.28294e-06
3.31117e-06
3.33491e-06
3.35441e-06
3.36995e-06
3.3818e-06
3.39026e-06
3.39562e-06
3.39816e-06
2.85291e-06
2.89003e-06
2.94145e-06
3.00385e-06
3.07426e-06
3.15008e-06
3.22901e-06
3.30911e-06
3.38872e-06
3.46647e-06
3.54127e-06
3.61225e-06
3.67878e-06
3.7404e-06
3.79682e-06
3.84788e-06
3.89355e-06
3.93388e-06
3.969e-06
3.99911e-06
4.02443e-06
4.04523e-06
4.0618e-06
4.07445e-06
4.08349e-06
4.08921e-06
4.09192e-06
3.52768e-06
3.56721e-06
3.62194e-06
3.68827e-06
3.76304e-06
3.84346e-06
3.92709e-06
4.01186e-06
4.09601e-06
4.17813e-06
4.25706e-06
4.33191e-06
4.40202e-06
4.46692e-06
4.52632e-06
4.58007e-06
4.62813e-06
4.67057e-06
4.70752e-06
4.7392e-06
4.76585e-06
4.78774e-06
4.8052e-06
4.81852e-06
4.82804e-06
4.83407e-06
4.83693e-06
4.26082e-06
4.30226e-06
4.3596e-06
4.42905e-06
4.50729e-06
4.59137e-06
4.67876e-06
4.76727e-06
4.85509e-06
4.94073e-06
5.02301e-06
5.10101e-06
5.17404e-06
5.24164e-06
5.30349e-06
5.35945e-06
5.40949e-06
5.45368e-06
5.49216e-06
5.52516e-06
5.55292e-06
5.57573e-06
5.59393e-06
5.60782e-06
5.61774e-06
5.62403e-06
5.62702e-06
5.04393e-06
5.08687e-06
5.14626e-06
5.21818e-06
5.29916e-06
5.38616e-06
5.47654e-06
5.56805e-06
5.65882e-06
5.74731e-06
5.83231e-06
5.91287e-06
5.9883e-06
6.0581e-06
6.12197e-06
6.17976e-06
6.23144e-06
6.27709e-06
6.31684e-06
6.35094e-06
6.37963e-06
6.40322e-06
6.42203e-06
6.4364e-06
6.44667e-06
6.45318e-06
6.45627e-06
5.86929e-06
5.91341e-06
5.97443e-06
6.04831e-06
6.13147e-06
6.2208e-06
6.31358e-06
6.40751e-06
6.50066e-06
6.59147e-06
6.67868e-06
6.76134e-06
6.83872e-06
6.91035e-06
6.97589e-06
7.0352e-06
7.08825e-06
7.1351e-06
7.17592e-06
7.21093e-06
7.2404e-06
7.26464e-06
7.28397e-06
7.29874e-06
7.3093e-06
7.316e-06
7.31918e-06
6.73011e-06
6.77516e-06
6.83748e-06
6.91292e-06
6.99785e-06
7.08905e-06
7.18378e-06
7.27966e-06
7.37476e-06
7.46746e-06
7.55649e-06
7.64088e-06
7.71989e-06
7.79303e-06
7.85996e-06
7.92053e-06
7.97472e-06
8.02258e-06
8.0643e-06
8.10008e-06
8.1302e-06
8.15498e-06
8.17475e-06
8.18986e-06
8.20067e-06
8.20752e-06
8.21078e-06
7.62052e-06
7.66634e-06
7.72971e-06
7.80642e-06
7.89277e-06
7.98551e-06
8.08182e-06
8.17932e-06
8.27602e-06
8.37028e-06
8.46083e-06
8.54665e-06
8.62701e-06
8.7014e-06
8.7695e-06
8.83113e-06
8.88627e-06
8.93498e-06
8.97744e-06
9.01387e-06
9.04455e-06
9.06979e-06
9.08992e-06
9.10532e-06
9.11633e-06
9.12332e-06
9.12664e-06
8.53559e-06
8.58203e-06
8.64626e-06
8.72401e-06
8.81153e-06
8.90553e-06
9.00316e-06
9.102e-06
9.20002e-06
9.29559e-06
9.38739e-06
9.47441e-06
9.5559e-06
9.63135e-06
9.70041e-06
9.76293e-06
9.81887e-06
9.8683e-06
9.91138e-06
9.94835e-06
9.97949e-06
1.00051e-05
1.00256e-05
1.00412e-05
1.00524e-05
1.00595e-05
1.00628e-05
9.47113e-06
9.51808e-06
9.58302e-06
9.66163e-06
9.75013e-06
9.84518e-06
9.9439e-06
1.00438e-05
1.0143e-05
1.02396e-05
1.03325e-05
1.04205e-05
1.05029e-05
1.05792e-05
1.06491e-05
1.07124e-05
1.0769e-05
1.0819e-05
1.08626e-05
1.09e-05
1.09316e-05
1.09575e-05
1.09782e-05
1.0994e-05
1.10054e-05
1.10126e-05
1.1016e-05
1.04236e-05
1.0471e-05
1.05365e-05
1.06158e-05
1.07051e-05
1.0801e-05
1.09007e-05
1.10015e-05
1.11016e-05
1.11991e-05
1.12928e-05
1.13817e-05
1.14649e-05
1.1542e-05
1.16125e-05
1.16764e-05
1.17335e-05
1.17841e-05
1.18281e-05
1.18659e-05
1.18977e-05
1.19239e-05
1.19449e-05
1.19609e-05
1.19723e-05
1.19796e-05
1.1983e-05
1.139e-05
1.14377e-05
1.15037e-05
1.15836e-05
1.16736e-05
1.17702e-05
1.18706e-05
1.19722e-05
1.2073e-05
1.21713e-05
1.22657e-05
1.23552e-05
1.24391e-05
1.25167e-05
1.25878e-05
1.26522e-05
1.27098e-05
1.27607e-05
1.28051e-05
1.28432e-05
1.28753e-05
1.29017e-05
1.29228e-05
1.2939e-05
1.29505e-05
1.29578e-05
1.29613e-05
1.23677e-05
1.24157e-05
1.24821e-05
1.25625e-05
1.26529e-05
1.27501e-05
1.28511e-05
1.29533e-05
1.30547e-05
1.31536e-05
1.32486e-05
1.33386e-05
1.3423e-05
1.35011e-05
1.35726e-05
1.36374e-05
1.36954e-05
1.37466e-05
1.37913e-05
1.38296e-05
1.38619e-05
1.38885e-05
1.39097e-05
1.39259e-05
1.39376e-05
1.39449e-05
1.39484e-05
1.33543e-05
1.34026e-05
1.34693e-05
1.355e-05
1.36409e-05
1.37385e-05
1.38399e-05
1.39426e-05
1.40445e-05
1.41438e-05
1.42392e-05
1.43296e-05
1.44144e-05
1.44928e-05
1.45647e-05
1.46297e-05
1.4688e-05
1.47394e-05
1.47843e-05
1.48228e-05
1.48553e-05
1.4882e-05
1.49033e-05
1.49196e-05
1.49313e-05
1.49387e-05
1.49422e-05
1.43479e-05
1.43963e-05
1.44632e-05
1.45442e-05
1.46354e-05
1.47333e-05
1.4835e-05
1.4938e-05
1.50402e-05
1.51398e-05
1.52355e-05
1.53262e-05
1.54112e-05
1.54899e-05
1.5562e-05
1.56272e-05
1.56856e-05
1.57372e-05
1.57822e-05
1.58208e-05
1.58534e-05
1.58802e-05
1.59016e-05
1.59179e-05
1.59296e-05
1.59371e-05
1.59406e-05
1.53465e-05
1.53949e-05
1.5462e-05
1.55431e-05
1.56344e-05
1.57325e-05
1.58344e-05
1.59376e-05
1.60399e-05
1.61397e-05
1.62355e-05
1.63264e-05
1.64115e-05
1.64903e-05
1.65625e-05
1.66278e-05
1.66863e-05
1.6738e-05
1.6783e-05
1.68217e-05
1.68543e-05
1.68811e-05
1.69026e-05
1.69189e-05
1.69307e-05
1.69381e-05
1.69416e-05
1.63481e-05
1.63966e-05
1.64637e-05
1.65448e-05
1.66362e-05
1.67343e-05
1.68363e-05
1.69394e-05
1.70418e-05
1.71416e-05
1.72374e-05
1.73283e-05
1.74134e-05
1.74922e-05
1.75643e-05
1.76297e-05
1.76881e-05
1.77398e-05
1.77848e-05
1.78235e-05
1.78561e-05
1.78829e-05
1.79043e-05
1.79207e-05
1.79324e-05
1.79399e-05
1.79434e-05
1.73512e-05
1.73996e-05
1.74666e-05
1.75476e-05
1.76389e-05
1.77369e-05
1.78387e-05
1.79417e-05
1.80439e-05
1.81435e-05
1.82392e-05
1.833e-05
1.84149e-05
1.84936e-05
1.85656e-05
1.86308e-05
1.86891e-05
1.87407e-05
1.87857e-05
1.88243e-05
1.88568e-05
1.88836e-05
1.89049e-05
1.89213e-05
1.8933e-05
1.89404e-05
1.89439e-05
1.83536e-05
1.84019e-05
1.84687e-05
1.85496e-05
1.86406e-05
1.87383e-05
1.88398e-05
1.89425e-05
1.90444e-05
1.91437e-05
1.92391e-05
1.93295e-05
1.94141e-05
1.94925e-05
1.95643e-05
1.96292e-05
1.96874e-05
1.97388e-05
1.97835e-05
1.9822e-05
1.98544e-05
1.9881e-05
1.99023e-05
1.99186e-05
1.99303e-05
1.99377e-05
1.99412e-05
1.93537e-05
1.94018e-05
1.94683e-05
1.95488e-05
1.96394e-05
1.97366e-05
1.98376e-05
1.99398e-05
2.00412e-05
2.014e-05
2.02348e-05
2.03248e-05
2.0409e-05
2.04869e-05
2.05583e-05
2.06229e-05
2.06806e-05
2.07317e-05
2.07763e-05
2.08145e-05
2.08467e-05
2.08732e-05
2.08943e-05
2.09105e-05
2.09221e-05
2.09294e-05
2.09329e-05
2.03493e-05
2.03971e-05
2.04632e-05
2.05431e-05
2.06331e-05
2.07297e-05
2.083e-05
2.09315e-05
2.10321e-05
2.11301e-05
2.12243e-05
2.13135e-05
2.13971e-05
2.14744e-05
2.15452e-05
2.16093e-05
2.16666e-05
2.17173e-05
2.17615e-05
2.17994e-05
2.18313e-05
2.18576e-05
2.18786e-05
2.18946e-05
2.19061e-05
2.19134e-05
2.19168e-05
2.13383e-05
2.13856e-05
2.14511e-05
2.15303e-05
2.16195e-05
2.17152e-05
2.18145e-05
2.19151e-05
2.20147e-05
2.21118e-05
2.2205e-05
2.22934e-05
2.23761e-05
2.24526e-05
2.25227e-05
2.25861e-05
2.26428e-05
2.26929e-05
2.27366e-05
2.27741e-05
2.28057e-05
2.28316e-05
2.28524e-05
2.28683e-05
2.28796e-05
2.28868e-05
2.28902e-05
2.23181e-05
2.23649e-05
2.24296e-05
2.25079e-05
2.2596e-05
2.26906e-05
2.27887e-05
2.2888e-05
2.29864e-05
2.30823e-05
2.31743e-05
2.32615e-05
2.33431e-05
2.34186e-05
2.34877e-05
2.35503e-05
2.36062e-05
2.36556e-05
2.36987e-05
2.37357e-05
2.37668e-05
2.37924e-05
2.38129e-05
2.38285e-05
2.38397e-05
2.38468e-05
2.38502e-05
2.3286e-05
2.33321e-05
2.33959e-05
2.34731e-05
2.35598e-05
2.3653e-05
2.37496e-05
2.38473e-05
2.39442e-05
2.40385e-05
2.4129e-05
2.42148e-05
2.42951e-05
2.43693e-05
2.44372e-05
2.44987e-05
2.45537e-05
2.46022e-05
2.46446e-05
2.46809e-05
2.47114e-05
2.47366e-05
2.47567e-05
2.47721e-05
2.4783e-05
2.479e-05
2.47933e-05
2.4239e-05
2.42843e-05
2.43469e-05
2.44226e-05
2.45078e-05
2.45991e-05
2.46939e-05
2.47897e-05
2.48847e-05
2.49771e-05
2.50658e-05
2.51498e-05
2.52284e-05
2.53011e-05
2.53676e-05
2.54278e-05
2.54815e-05
2.55291e-05
2.55705e-05
2.5606e-05
2.56359e-05
2.56605e-05
2.56801e-05
2.56951e-05
2.57059e-05
2.57127e-05
2.5716e-05
2.51735e-05
2.52178e-05
2.5279e-05
2.5353e-05
2.54362e-05
2.55254e-05
2.56179e-05
2.57114e-05
2.58041e-05
2.58942e-05
2.59807e-05
2.60626e-05
2.61392e-05
2.621e-05
2.62748e-05
2.63334e-05
2.63857e-05
2.6432e-05
2.64723e-05
2.65068e-05
2.65359e-05
2.65599e-05
2.6579e-05
2.65936e-05
2.6604e-05
2.66107e-05
2.66138e-05
2.60858e-05
2.61288e-05
2.61883e-05
2.62602e-05
2.6341e-05
2.64276e-05
2.65175e-05
2.66083e-05
2.66981e-05
2.67856e-05
2.68694e-05
2.69488e-05
2.7023e-05
2.70916e-05
2.71543e-05
2.7211e-05
2.72617e-05
2.73064e-05
2.73454e-05
2.73788e-05
2.74069e-05
2.74301e-05
2.74485e-05
2.74626e-05
2.74727e-05
2.74792e-05
2.74822e-05
2.69712e-05
2.70128e-05
2.70703e-05
2.71397e-05
2.72177e-05
2.73013e-05
2.7388e-05
2.74755e-05
2.75621e-05
2.76464e-05
2.77271e-05
2.78035e-05
2.78749e-05
2.79408e-05
2.80011e-05
2.80556e-05
2.81043e-05
2.81472e-05
2.81846e-05
2.82167e-05
2.82437e-05
2.82659e-05
2.82836e-05
2.82972e-05
2.83069e-05
2.8313e-05
2.8316e-05
2.78251e-05
2.7865e-05
2.79201e-05
2.79866e-05
2.80614e-05
2.81414e-05
2.82243e-05
2.83081e-05
2.83908e-05
2.84713e-05
2.85484e-05
2.86213e-05
2.86894e-05
2.87523e-05
2.88097e-05
2.88616e-05
2.8908e-05
2.89489e-05
2.89845e-05
2.9015e-05
2.90407e-05
2.90618e-05
2.90787e-05
2.90916e-05
2.91008e-05
2.91066e-05
2.91094e-05
2.86421e-05
2.868e-05
2.87323e-05
2.87955e-05
2.88664e-05
2.89424e-05
2.9021e-05
2.91003e-05
2.91786e-05
2.92548e-05
2.93277e-05
2.93965e-05
2.94608e-05
2.95202e-05
2.95744e-05
2.96233e-05
2.9667e-05
2.97055e-05
2.9739e-05
2.97677e-05
2.97919e-05
2.98118e-05
2.98276e-05
2.98397e-05
2.98484e-05
2.98539e-05
2.98565e-05
2.94164e-05
2.9452e-05
2.95012e-05
2.95605e-05
2.9627e-05
2.96983e-05
2.97719e-05
2.98462e-05
2.99195e-05
2.99907e-05
3.00587e-05
3.0123e-05
3.0183e-05
3.02383e-05
3.02888e-05
3.03343e-05
3.03749e-05
3.04108e-05
3.04419e-05
3.04686e-05
3.0491e-05
3.05095e-05
3.05242e-05
3.05354e-05
3.05435e-05
3.05486e-05
3.0551e-05
3.01419e-05
3.0175e-05
3.02205e-05
3.02755e-05
3.03371e-05
3.0403e-05
3.0471e-05
3.05396e-05
3.06072e-05
3.06728e-05
3.07354e-05
3.07945e-05
3.08496e-05
3.09004e-05
3.09467e-05
3.09884e-05
3.10256e-05
3.10584e-05
3.10869e-05
3.11113e-05
3.11319e-05
3.11487e-05
3.11621e-05
3.11724e-05
3.11797e-05
3.11844e-05
3.11866e-05
3.08125e-05
3.08427e-05
3.08843e-05
3.09343e-05
3.09904e-05
3.10503e-05
3.11121e-05
3.11743e-05
3.12356e-05
3.1295e-05
3.13516e-05
3.1405e-05
3.14547e-05
3.15004e-05
3.15421e-05
3.15796e-05
3.16131e-05
3.16425e-05
3.16681e-05
3.16899e-05
3.17083e-05
3.17234e-05
3.17354e-05
3.17446e-05
3.17512e-05
3.17554e-05
3.17573e-05
3.14222e-05
3.14491e-05
3.14863e-05
3.1531e-05
3.1581e-05
3.16344e-05
3.16894e-05
3.17446e-05
3.17989e-05
3.18515e-05
3.19016e-05
3.19487e-05
3.19925e-05
3.20328e-05
3.20694e-05
3.21024e-05
3.21317e-05
3.21575e-05
3.21799e-05
3.2199e-05
3.22151e-05
3.22283e-05
3.22388e-05
3.22468e-05
3.22526e-05
3.22562e-05
3.22579e-05
3.19652e-05
3.19887e-05
3.20211e-05
3.20601e-05
3.21035e-05
3.21498e-05
3.21975e-05
3.22452e-05
3.22921e-05
3.23374e-05
3.23805e-05
3.24209e-05
3.24584e-05
3.24929e-05
3.25241e-05
3.25522e-05
3.25772e-05
3.25992e-05
3.26182e-05
3.26344e-05
3.2648e-05
3.26592e-05
3.26681e-05
3.26749e-05
3.26797e-05
3.26828e-05
3.26843e-05
3.2437e-05
3.24569e-05
3.24842e-05
3.2517e-05
3.25536e-05
3.25925e-05
3.26324e-05
3.26723e-05
3.27114e-05
3.2749e-05
3.27847e-05
3.28182e-05
3.28492e-05
3.28776e-05
3.29033e-05
3.29263e-05
3.29468e-05
3.29647e-05
3.29802e-05
3.29935e-05
3.30046e-05
3.30137e-05
3.30209e-05
3.30264e-05
3.30304e-05
3.30329e-05
3.3034e-05
3.28341e-05
3.28502e-05
3.28724e-05
3.28989e-05
3.29284e-05
3.29596e-05
3.29916e-05
3.30235e-05
3.30547e-05
3.30845e-05
3.31128e-05
3.31392e-05
3.31635e-05
3.31858e-05
3.32058e-05
3.32238e-05
3.32397e-05
3.32536e-05
3.32656e-05
3.32759e-05
3.32844e-05
3.32914e-05
3.3297e-05
3.33012e-05
3.33042e-05
3.33062e-05
3.33071e-05
3.31551e-05
3.31675e-05
3.31844e-05
3.32047e-05
3.32271e-05
3.32508e-05
3.32749e-05
3.32989e-05
3.33221e-05
3.33443e-05
3.33653e-05
3.33847e-05
3.34025e-05
3.34188e-05
3.34334e-05
3.34464e-05
3.34578e-05
3.34678e-05
3.34765e-05
3.34838e-05
3.34899e-05
3.34949e-05
3.34988e-05
3.35018e-05
3.3504e-05
3.35053e-05
3.3506e-05
3.34009e-05
3.34097e-05
3.34216e-05
3.34358e-05
3.34515e-05
3.34679e-05
3.34845e-05
3.35009e-05
3.35167e-05
3.35317e-05
3.35457e-05
3.35586e-05
3.35703e-05
3.35809e-05
3.35904e-05
3.35988e-05
3.36062e-05
3.36126e-05
3.3618e-05
3.36227e-05
3.36265e-05
3.36296e-05
3.36321e-05
3.3634e-05
3.36353e-05
3.36362e-05
3.36366e-05
3.35751e-05
3.35805e-05
3.35879e-05
3.35965e-05
3.3606e-05
3.36158e-05
3.36256e-05
3.36352e-05
3.36442e-05
3.36527e-05
3.36605e-05
3.36676e-05
3.36739e-05
3.36796e-05
3.36845e-05
3.36889e-05
3.36926e-05
3.36958e-05
3.36985e-05
3.37008e-05
3.37026e-05
3.37041e-05
3.37053e-05
3.37062e-05
3.37068e-05
3.37072e-05
3.37074e-05
3.36845e-05
3.3687e-05
3.36903e-05
3.36942e-05
3.36983e-05
3.37024e-05
3.37064e-05
3.371e-05
3.37134e-05
3.37164e-05
3.37189e-05
3.37211e-05
3.37229e-05
3.37244e-05
3.37256e-05
3.37266e-05
3.37274e-05
3.3728e-05
3.37284e-05
3.37287e-05
3.3729e-05
3.37292e-05
3.37293e-05
3.37294e-05
3.37294e-05
3.37295e-05
3.37295e-05
3.37381e-05
3.37382e-05
3.37383e-05
3.37383e-05
3.37381e-05
3.37377e-05
3.3737e-05
3.37361e-05
3.37349e-05
3.37336e-05
3.37321e-05
3.37305e-05
3.37289e-05
3.37272e-05
3.37256e-05
3.37241e-05
3.37226e-05
3.37212e-05
3.372e-05
3.37189e-05
3.37179e-05
3.37171e-05
3.37165e-05
3.3716e-05
3.37156e-05
3.37154e-05
3.37153e-05
3.37472e-05
3.37456e-05
3.37433e-05
3.37405e-05
3.37372e-05
3.37334e-05
3.37295e-05
3.37253e-05
3.3721e-05
3.37167e-05
3.37124e-05
3.37083e-05
3.37043e-05
3.37005e-05
3.3697e-05
3.36938e-05
3.36908e-05
3.36882e-05
3.36859e-05
3.36839e-05
3.36821e-05
3.36807e-05
3.36796e-05
3.36787e-05
3.36781e-05
3.36777e-05
3.36775e-05
3.3724e-05
3.37213e-05
3.37176e-05
3.37129e-05
3.37077e-05
3.3702e-05
3.3696e-05
3.36899e-05
3.36838e-05
3.36778e-05
3.3672e-05
3.36664e-05
3.36612e-05
3.36563e-05
3.36518e-05
3.36477e-05
3.3644e-05
3.36407e-05
3.36379e-05
3.36354e-05
3.36333e-05
3.36316e-05
3.36302e-05
3.36291e-05
3.36284e-05
3.36279e-05
3.36276e-05
3.36807e-05
3.36775e-05
3.3673e-05
3.36676e-05
3.36615e-05
3.3655e-05
3.36482e-05
3.36414e-05
3.36346e-05
3.3628e-05
3.36216e-05
3.36156e-05
3.361e-05
3.36048e-05
3.36001e-05
3.35958e-05
3.35919e-05
3.35885e-05
3.35856e-05
3.3583e-05
3.35809e-05
3.35791e-05
3.35777e-05
3.35766e-05
3.35758e-05
3.35753e-05
3.3575e-05
3.36279e-05
3.36246e-05
3.36201e-05
3.36147e-05
3.36086e-05
3.36022e-05
3.35955e-05
3.35888e-05
3.35822e-05
3.35759e-05
3.35698e-05
3.35641e-05
3.35587e-05
3.35538e-05
3.35493e-05
3.35453e-05
3.35417e-05
3.35385e-05
3.35357e-05
3.35333e-05
3.35313e-05
3.35297e-05
3.35283e-05
3.35273e-05
3.35266e-05
3.35261e-05
3.35259e-05
3.3574e-05
3.3571e-05
3.35669e-05
3.3562e-05
3.35565e-05
3.35507e-05
3.35448e-05
3.35388e-05
3.35329e-05
3.35273e-05
3.35219e-05
3.35169e-05
3.35122e-05
3.35079e-05
3.3504e-05
3.35005e-05
3.34973e-05
3.34945e-05
3.34921e-05
3.349e-05
3.34882e-05
3.34868e-05
3.34856e-05
3.34847e-05
3.3484e-05
3.34836e-05
3.34834e-05
3.35246e-05
3.35221e-05
3.35186e-05
3.35145e-05
3.35099e-05
3.3505e-05
3.35e-05
3.3495e-05
3.34901e-05
3.34854e-05
3.34809e-05
3.34767e-05
3.34728e-05
3.34692e-05
3.34659e-05
3.3463e-05
3.34603e-05
3.3458e-05
3.34559e-05
3.34541e-05
3.34526e-05
3.34514e-05
3.34504e-05
3.34496e-05
3.3449e-05
3.34486e-05
3.34485e-05
3.34825e-05
3.34805e-05
3.34777e-05
3.34744e-05
3.34707e-05
3.34668e-05
3.34627e-05
3.34587e-05
3.34547e-05
3.34509e-05
3.34473e-05
3.34439e-05
3.34407e-05
3.34377e-05
3.3435e-05
3.34326e-05
3.34303e-05
3.34284e-05
3.34266e-05
3.34251e-05
3.34238e-05
3.34227e-05
3.34219e-05
3.34212e-05
3.34207e-05
3.34203e-05
3.34202e-05
3.34484e-05
3.34468e-05
3.34446e-05
3.3442e-05
3.3439e-05
3.34359e-05
3.34327e-05
3.34295e-05
3.34263e-05
3.34232e-05
3.34203e-05
3.34174e-05
3.34148e-05
3.34123e-05
3.34101e-05
3.3408e-05
3.34061e-05