/*--------------------------------*- C++ -*----------------------------------*\
| =========                 |                                                 |
| \\      /  F ield         | OpenFOAM: The Open Source CFD Toolbox           |
|  \\    /   O peration     | Version:  2106                                  |
|   \\  /    A nd           | Website:  www.openfoam.com                      |
|    \\/     M anipulation  |                                                 |
\*---------------------------------------------------------------------------*/
FoamFile
{
    version     2.0;
    format      ascii;
    arch        "LSB;label=32;scalar=64";
    class       volScalarField;
    location    "110.00057";
    object      C5H5_0;
}
// * * * * * * * * * * * * * * * * * * * * * * * * * * * * * * * * * * * * * //

dimensions      [0 0 0 0 0 0 0];

internalField   nonuniform List<scalar> 
3360
(
2.1663e-24
2.30183e-24
2.49269e-24
2.72985e-24
3.00545e-24
3.31214e-24
3.64287e-24
3.99076e-24
4.34918e-24
4.71181e-24
5.07272e-24
5.42646e-24
5.76818e-24
6.09365e-24
6.39934e-24
6.6824e-24
6.94069e-24
7.17271e-24
7.37762e-24
7.55517e-24
7.70561e-24
7.82969e-24
7.92856e-24
8.00373e-24
8.05697e-24
8.09026e-24
8.10578e-24
1.09532e-23
1.17112e-23
1.27947e-23
1.4168e-23
1.58038e-23
1.76791e-23
1.97731e-23
2.20658e-23
2.45368e-23
2.71647e-23
2.99269e-23
3.27982e-23
3.57512e-23
3.8756e-23
4.17801e-23
4.47888e-23
4.77453e-23
5.06109e-23
5.33455e-23
5.59085e-23
5.82595e-23
6.03598e-23
6.2173e-23
6.36666e-23
6.4813e-23
6.55904e-23
6.59833e-23
4.18573e-23
4.52995e-23
5.0281e-23
5.66961e-23
6.44775e-23
7.3572e-23
8.39262e-23
9.54761e-23
1.08139e-22
1.21806e-22
1.36343e-22
1.51585e-22
1.67348e-22
1.83425e-22
1.9959e-22
2.15606e-22
2.31225e-22
2.46203e-22
2.60301e-22
2.733e-22
2.85001e-22
2.95237e-22
3.03876e-22
3.10824e-22
3.16024e-22
3.1946e-22
3.21152e-22
1.51203e-22
1.65401e-22
1.86209e-22
2.13383e-22
2.46833e-22
2.86499e-22
3.32279e-22
3.83969e-22
4.41226e-22
5.0355e-22
5.70265e-22
6.40533e-22
7.13367e-22
7.87654e-22
8.62183e-22
9.35694e-22
1.00693e-21
1.07467e-21
1.13782e-21
1.19542e-21
1.24666e-21
1.29094e-21
1.32785e-21
1.35716e-21
1.37884e-21
1.39301e-21
1.3999e-21
5.61851e-22
6.19808e-22
7.05289e-22
8.17766e-22
9.5729e-22
1.12395e-21
1.31754e-21
1.53725e-21
1.78157e-21
2.04811e-21
2.33366e-21
2.63421e-21
2.94511e-21
3.26121e-21
3.57708e-21
3.88723e-21
4.18631e-21
4.46935e-21
4.73192e-21
4.97026e-21
5.18137e-21
5.36306e-21
5.51394e-21
5.63336e-21
5.7214e-21
5.77874e-21
5.8066e-21
2.14216e-21
2.37647e-21
2.72345e-21
3.1819e-21
3.75277e-21
4.43689e-21
5.23355e-21
6.13944e-21
7.14793e-21
8.24875e-21
9.42797e-21
1.06683e-20
1.19499e-20
1.32508e-20
1.45482e-20
1.58191e-20
1.70417e-20
1.81959e-20
1.92639e-20
2.02311e-20
2.10857e-20
2.18196e-20
2.24277e-20
2.29081e-20
2.32617e-20
2.34915e-20
2.36031e-20
8.30595e-21
9.24883e-21
1.06481e-20
1.2501e-20
1.48132e-20
1.75889e-20
2.08251e-20
2.45072e-20
2.86069e-20
3.30803e-20
3.78691e-20
4.29013e-20
4.80945e-20
5.33591e-20
5.86021e-20
6.37315e-20
6.86593e-20
7.33054e-20
7.75997e-20
8.1484e-20
8.49131e-20
8.78552e-20
9.02912e-20
9.22143e-20
9.36287e-20
9.45479e-20
9.49936e-20
3.25145e-20
3.62815e-20
4.18798e-20
4.93039e-20
5.85801e-20
6.97283e-20
8.27378e-20
9.75499e-20
1.14048e-19
1.32052e-19
1.51323e-19
1.71567e-19
1.9245e-19
2.13607e-19
2.34664e-19
2.55249e-19
2.7501e-19
2.93627e-19
3.1082e-19
3.26359e-19
3.40066e-19
3.51817e-19
3.61539e-19
3.69209e-19
3.74846e-19
3.78508e-19
3.80282e-19
1.28083e-19
1.43129e-19
1.65503e-19
1.95194e-19
2.32315e-19
2.76948e-19
3.29048e-19
3.88371e-19
4.54439e-19
5.2652e-19
6.03642e-19
6.84621e-19
7.68106e-19
8.52641e-19
9.36727e-19
1.01888e-18
1.09771e-18
1.17193e-18
1.24045e-18
1.30236e-18
1.35695e-18
1.40373e-18
1.44243e-18
1.47296e-18
1.49539e-18
1.50995e-18
1.51701e-18
5.05526e-19
5.65367e-19
6.54409e-19
7.7264e-19
9.2054e-19
1.09845e-18
1.3062e-18
1.54282e-18
1.80636e-18
2.0939e-18
2.40151e-18
2.72446e-18
3.05733e-18
3.39429e-18
3.72935e-18
4.0566e-18
4.37047e-18
4.66591e-18
4.93852e-18
5.1847e-18
5.40171e-18
5.58762e-18
5.74134e-18
5.86253e-18
5.95156e-18
6.00936e-18
6.03736e-18
1.9991e-18
2.23716e-18
2.59142e-18
3.06191e-18
3.65055e-18
4.35872e-18
5.18565e-18
6.12737e-18
7.17608e-18
8.31996e-18
9.54335e-18
1.08272e-17
1.215e-17
1.34885e-17
1.4819e-17
1.61179e-17
1.73633e-17
1.8535e-17
1.9616e-17
2.05918e-17
2.14518e-17
2.21884e-17
2.27973e-17
2.32774e-17
2.36299e-17
2.38588e-17
2.39697e-17
7.90078e-18
8.8451e-18
1.02507e-17
1.21178e-17
1.4454e-17
1.72647e-17
2.05467e-17
2.42841e-17
2.84455e-17
3.29836e-17
3.7836e-17
4.29268e-17
4.81702e-17
5.3474e-17
5.87438e-17
6.38867e-17
6.88154e-17
7.3451e-17
7.77253e-17
8.15826e-17
8.49804e-17
8.78895e-17
9.02935e-17
9.21879e-17
9.35788e-17
9.44814e-17
9.49185e-17
3.12093e-17
3.4953e-17
4.05248e-17
4.79247e-17
5.71821e-17
6.83166e-17
8.13136e-17
9.61075e-17
1.12572e-16
1.30518e-16
1.49696e-16
1.69805e-16
1.90504e-16
2.11429e-16
2.32207e-16
2.52474e-16
2.71885e-16
2.90132e-16
3.06948e-16
3.22117e-16
3.35472e-16
3.46902e-16
3.56343e-16
3.63781e-16
3.6924e-16
3.72782e-16
3.74497e-16
1.22911e-16
1.37696e-16
1.59699e-16
1.88918e-16
2.25463e-16
2.69404e-16
3.20673e-16
3.79001e-16
4.43877e-16
5.14543e-16
5.90003e-16
6.69065e-16
7.50381e-16
8.32517e-16
9.14008e-16
9.93424e-16
1.06943e-15
1.14081e-15
1.20655e-15
1.2658e-15
1.31793e-15
1.36251e-15
1.39932e-15
1.42829e-15
1.44955e-15
1.46334e-15
1.47001e-15
4.82375e-16
5.40572e-16
6.27157e-16
7.42087e-16
8.85756e-16
1.05839e-15
1.25964e-15
1.48839e-15
1.74256e-15
2.01908e-15
2.31401e-15
2.62262e-15
2.93963e-15
3.25941e-15
3.57628e-15
3.88469e-15
4.17948e-15
4.45605e-15
4.71044e-15
4.9395e-15
5.14084e-15
5.31288e-15
5.45479e-15
5.56644e-15
5.64828e-15
5.70133e-15
5.72698e-15
1.88166e-15
2.10918e-15
2.44751e-15
2.89631e-15
3.45687e-15
4.12978e-15
4.91337e-15
5.80285e-15
6.78976e-15
7.86186e-15
9.0035e-15
1.01961e-14
1.1419e-14
1.26506e-14
1.38687e-14
1.50524e-14
1.61819e-14
1.72397e-14
1.82113e-14
1.90848e-14
1.98515e-14
2.05057e-14
2.10447e-14
2.14682e-14
2.17783e-14
2.19792e-14
2.20762e-14
7.28358e-15
8.16541e-15
9.47574e-15
1.12121e-14
1.33782e-14
1.59743e-14
1.89923e-14
2.24115e-14
2.61971e-14
3.03004e-14
3.46594e-14
3.92021e-14
4.3849e-14
4.85169e-14
5.31229e-14
5.75877e-14
6.18382e-14
6.58104e-14
6.94508e-14
7.2717e-14
7.55786e-14
7.80161e-14
8.0021e-14
8.15941e-14
8.27446e-14
8.34886e-14
8.38477e-14
2.79081e-14
3.12845e-14
3.62958e-14
4.29264e-14
5.11822e-14
6.10554e-14
7.2504e-14
8.54388e-14
9.97176e-14
1.15146e-13
1.31483e-13
1.48453e-13
1.65753e-13
1.83075e-13
2.00112e-13
2.16574e-13
2.32199e-13
2.46758e-13
2.60064e-13
2.71971e-13
2.82378e-13
2.91223e-13
2.98483e-13
3.04169e-13
3.08321e-13
3.11001e-13
3.12293e-13
1.05592e-13
1.18314e-13
1.37164e-13
1.6205e-13
1.92951e-13
2.29789e-13
2.72355e-13
3.20263e-13
3.72933e-13
4.29604e-13
4.89354e-13
5.51145e-13
6.13869e-13
6.76402e-13
7.37652e-13
7.96598e-13
8.52332e-13
9.04078e-13
9.5121e-13
9.93255e-13
1.02989e-12
1.06095e-12
1.08638e-12
1.10625e-12
1.12073e-12
1.13006e-12
1.13455e-12
3.93363e-13
4.40299e-13
5.09679e-13
6.00988e-13
7.13943e-13
8.48026e-13
1.00223e-12
1.1749e-12
1.36374e-12
1.56581e-12
1.7777e-12
1.99563e-12
2.21566e-12
2.43387e-12
2.64653e-12
2.85021e-12
3.04191e-12
3.21914e-12
3.37992e-12
3.52283e-12
3.64694e-12
3.75181e-12
3.83744e-12
3.90418e-12
3.9527e-12
3.98392e-12
3.99891e-12
1.43882e-12
1.60746e-12
1.85594e-12
2.1816e-12
2.58246e-12
3.05566e-12
3.59655e-12
4.19837e-12
4.8522e-12
5.54721e-12
6.27112e-12
7.01083e-12
7.75296e-12
8.4845e-12
9.1933e-12
9.86848e-12
1.05007e-11
1.10825e-11
1.1608e-11
1.20731e-11
1.24756e-11
1.28146e-11
1.30906e-11
1.33051e-11
1.34607e-11
1.35606e-11
1.36085e-11
5.1511e-12
5.73752e-12
6.5981e-12
7.72005e-12
9.09254e-12
1.07015e-11
1.25273e-11
1.45432e-11
1.67165e-11
1.90089e-11
2.13787e-11
2.37825e-11
2.61774e-11
2.85226e-11
3.07808e-11
3.29195e-11
3.49114e-11
3.67352e-11
3.83751e-11
3.98209e-11
4.10672e-11
4.21133e-11
4.29624e-11
4.36207e-11
4.4097e-11
4.4402e-11
4.45481e-11
1.79904e-11
1.99523e-11
2.28174e-11
2.65291e-11
3.10366e-11
3.62788e-11
4.21774e-11
4.86353e-11
5.55381e-11
6.27591e-11
7.01641e-11
7.76183e-11
8.49915e-11
9.21629e-11
9.90252e-11
1.05487e-10
1.11473e-10
1.16928e-10
1.21811e-10
1.26099e-10
1.29782e-10
1.32864e-10
1.35358e-10
1.37287e-10
1.3868e-10
1.3957e-10
1.39995e-10
6.1063e-11
6.73421e-11
7.64614e-11
8.81934e-11
1.02328e-10
1.18625e-10
1.36802e-10
1.56526e-10
1.77428e-10
1.99111e-10
2.21171e-10
2.43212e-10
2.64863e-10
2.85786e-10
3.0569e-10
3.24331e-10
3.41517e-10
3.57106e-10
3.71007e-10
3.83169e-10
3.93582e-10
4.0227e-10
4.09283e-10
4.14694e-10
4.18593e-10
4.21082e-10
4.22269e-10
2.00611e-10
2.19759e-10
2.4741e-10
2.82731e-10
3.24943e-10
3.73204e-10
4.26568e-10
4.83985e-10
5.44333e-10
6.06451e-10
6.69192e-10
7.31458e-10
7.92241e-10
8.50651e-10
9.05926e-10
9.57452e-10
1.00476e-09
1.0475e-09
1.08549e-09
1.11862e-09
1.14691e-09
1.17046e-09
1.18942e-09
1.20403e-09
1.21454e-09
1.22123e-09
1.22442e-09
6.35309e-10
6.9084e-10
7.70607e-10
8.71821e-10
9.91888e-10
1.1281e-09
1.27756e-09
1.43717e-09
1.60374e-09
1.77405e-09
1.94501e-09
2.11373e-09
2.27758e-09
2.4343e-09
2.58199e-09
2.71914e-09
2.84463e-09
2.95768e-09
3.05787e-09
3.14505e-09
3.21933e-09
3.28104e-09
3.33066e-09
3.36881e-09
3.39622e-09
3.41367e-09
3.42197e-09
1.93243e-09
2.08572e-09
2.30489e-09
2.5814e-09
2.90734e-09
3.27472e-09
3.67523e-09
4.10031e-09
4.54133e-09
4.98984e-09
5.43782e-09
5.87788e-09
6.30346e-09
6.70894e-09
7.08969e-09
7.44212e-09
7.76358e-09
8.05238e-09
8.30764e-09
8.52923e-09
8.71763e-09
8.87382e-09
8.9992e-09
9.09546e-09
9.16451e-09
9.20842e-09
9.22929e-09
5.62772e-09
6.03159e-09
6.6068e-09
7.32912e-09
8.17627e-09
9.12614e-09
1.01563e-08
1.12441e-08
1.23672e-08
1.3504e-08
1.46341e-08
1.57393e-08
1.68035e-08
1.78133e-08
1.87579e-08
1.96293e-08
2.04216e-08
2.11315e-08
2.17575e-08
2.22997e-08
2.276e-08
2.3141e-08
2.34464e-08
2.36806e-08
2.38485e-08
2.39551e-08
2.40058e-08
1.56285e-08
1.6645e-08
1.80883e-08
1.98939e-08
2.20022e-08
2.43552e-08
2.68945e-08
2.95626e-08
3.23037e-08
3.5065e-08
3.77986e-08
4.04618e-08
4.30181e-08
4.54371e-08
4.7695e-08
4.97738e-08
5.16611e-08
5.33497e-08
5.48369e-08
5.61238e-08
5.7215e-08
5.81174e-08
5.88403e-08
5.93942e-08
5.97908e-08
6.00426e-08
6.01622e-08
4.10105e-08
4.34261e-08
4.68458e-08
5.11081e-08
5.60661e-08
6.15783e-08
6.75067e-08
7.3718e-08
8.00849e-08
8.64887e-08
9.28212e-08
9.89862e-08
1.04901e-07
1.10497e-07
1.15719e-07
1.20525e-07
1.24887e-07
1.28789e-07
1.32224e-07
1.35194e-07
1.37711e-07
1.3979e-07
1.41455e-07
1.42728e-07
1.43639e-07
1.44217e-07
1.4449e-07
9.96179e-08
1.04924e-07
1.12425e-07
1.21763e-07
1.32613e-07
1.44667e-07
1.5763e-07
1.71214e-07
1.85146e-07
1.99172e-07
2.13057e-07
2.2659e-07
2.39589e-07
2.519e-07
2.63399e-07
2.73992e-07
2.83612e-07
2.92218e-07
2.99795e-07
3.06345e-07
3.1189e-07
3.16468e-07
3.20126e-07
3.22921e-07
3.24915e-07
3.26176e-07
3.26772e-07
2.198e-07
2.30402e-07
2.4538e-07
2.64012e-07
2.85647e-07
3.09675e-07
3.35508e-07
3.62581e-07
3.90356e-07
4.18326e-07
4.46027e-07
4.73039e-07
4.98996e-07
5.23589e-07
5.46565e-07
5.67731e-07
5.86949e-07
6.04135e-07
6.19252e-07
6.32307e-07
6.43345e-07
6.52441e-07
6.59693e-07
6.6522e-07
6.69153e-07
6.71632e-07
6.72799e-07
4.36737e-07
4.5559e-07
4.82179e-07
5.15176e-07
5.53397e-07
5.9573e-07
6.41116e-07
6.88545e-07
7.37065e-07
7.85788e-07
8.33905e-07
8.80692e-07
9.25524e-07
9.67877e-07
1.00733e-06
1.04357e-06
1.07637e-06
1.10562e-06
1.13127e-06
1.15335e-06
1.17196e-06
1.18724e-06
1.19939e-06
1.20861e-06
1.21515e-06
1.21926e-06
1.22119e-06
7.81782e-07
8.11295e-07
8.5278e-07
9.04044e-07
9.63129e-07
1.02821e-06
1.09757e-06
1.16961e-06
1.24285e-06
1.31592e-06
1.38762e-06
1.4569e-06
1.52287e-06
1.58481e-06
1.64217e-06
1.69455e-06
1.74171e-06
1.78353e-06
1.82002e-06
1.85128e-06
1.87751e-06
1.89896e-06
1.91595e-06
1.9288e-06
1.93788e-06
1.94356e-06
1.94622e-06
1.27104e-06
1.31194e-06
1.36919e-06
1.43954e-06
1.5201e-06
1.60819e-06
1.70135e-06
1.79733e-06
1.8941e-06
1.98987e-06
2.08308e-06
2.17242e-06
2.25683e-06
2.3355e-06
2.40783e-06
2.47345e-06
2.53215e-06
2.58391e-06
2.62883e-06
2.66714e-06
2.69914e-06
2.72521e-06
2.74577e-06
2.76129e-06
2.77223e-06
2.77906e-06
2.78225e-06
1.90061e-06
1.95161e-06
2.02266e-06
2.10947e-06
2.2082e-06
2.31534e-06
2.42775e-06
2.54262e-06
2.65748e-06
2.7702e-06
2.87904e-06
2.98255e-06
3.07963e-06
3.16948e-06
3.25156e-06
3.32558e-06
3.39144e-06
3.44922e-06
3.49916e-06
3.54157e-06
3.57689e-06
3.60559e-06
3.62817e-06
3.64518e-06
3.65716e-06
3.66464e-06
3.66813e-06
2.64969e-06
2.70799e-06
2.78887e-06
2.88716e-06
2.99825e-06
3.11801e-06
3.24276e-06
3.36932e-06
3.49496e-06
3.6174e-06
3.73482e-06
3.84578e-06
3.94922e-06
4.04443e-06
4.13097e-06
4.20865e-06
4.2775e-06
4.33769e-06
4.38956e-06
4.43351e-06
4.47003e-06
4.49966e-06
4.52295e-06
4.54049e-06
4.55284e-06
4.56054e-06
4.56414e-06
3.48732e-06
3.54951e-06
3.6355e-06
3.73955e-06
3.85656e-06
3.98201e-06
4.11195e-06
4.24303e-06
4.37241e-06
4.49783e-06
4.61749e-06
4.73003e-06
4.8345e-06
4.93027e-06
5.01703e-06
5.09467e-06
5.16331e-06
5.2232e-06
5.27471e-06
5.31831e-06
5.35451e-06
5.38387e-06
5.40695e-06
5.42433e-06
5.43657e-06
5.44421e-06
5.44779e-06
4.37894e-06
4.44183e-06
4.52857e-06
4.63317e-06
4.75037e-06
4.87551e-06
5.0046e-06
5.13428e-06
5.26178e-06
5.38491e-06
5.50198e-06
5.61173e-06
5.71333e-06
5.80626e-06
5.89026e-06
5.96531e-06
6.03158e-06
6.08934e-06
6.139e-06
6.18102e-06
6.2159e-06
6.24421e-06
6.26647e-06
6.28325e-06
6.29508e-06
6.30248e-06
6.30594e-06
5.29143e-06
5.35251e-06
5.43659e-06
5.53777e-06
5.65083e-06
5.77124e-06
5.8951e-06
6.01919e-06
6.1409e-06
6.25816e-06
6.36941e-06
6.47353e-06
6.56978e-06
6.65769e-06
6.73709e-06
6.808e-06
6.87058e-06
6.92513e-06
6.97203e-06
7.01173e-06
7.04472e-06
7.0715e-06
7.09259e-06
7.10851e-06
7.11974e-06
7.12678e-06
7.13009e-06
6.19657e-06
6.25415e-06
6.33334e-06
6.42849e-06
6.53466e-06
6.64754e-06
6.76348e-06
6.87946e-06
6.99306e-06
7.10238e-06
7.20601e-06
7.30292e-06
7.39245e-06
7.47421e-06
7.54806e-06
7.614e-06
7.67223e-06
7.72301e-06
7.76671e-06
7.80373e-06
7.83453e-06
7.85956e-06
7.8793e-06
7.89421e-06
7.90476e-06
7.91137e-06
7.91448e-06
7.0729e-06
7.12608e-06
7.19918e-06
7.28696e-06
7.38482e-06
7.4888e-06
7.59552e-06
7.70222e-06
7.80668e-06
7.90719e-06
8.00244e-06
8.09153e-06
8.17385e-06
8.24905e-06
8.317e-06
8.37774e-06
8.4314e-06
8.47825e-06
8.51861e-06
8.55284e-06
8.58135e-06
8.60455e-06
8.62288e-06
8.63675e-06
8.64657e-06
8.65274e-06
8.65565e-06
7.90618e-06
7.95466e-06
8.02128e-06
8.10127e-06
8.19044e-06
8.28517e-06
8.3824e-06
8.47963e-06
8.57483e-06
8.66645e-06
8.75333e-06
8.83463e-06
8.90981e-06
8.97854e-06
9.04071e-06
9.09632e-06
9.14552e-06
9.18851e-06
9.2256e-06
9.2571e-06
9.28337e-06
9.30479e-06
9.32173e-06
9.33456e-06
9.34367e-06
9.3494e-06
9.35211e-06
8.68857e-06
8.73244e-06
8.79275e-06
8.86516e-06
8.94591e-06
9.03172e-06
9.11985e-06
9.20801e-06
9.29439e-06
9.37759e-06
9.45654e-06
9.53049e-06
9.59894e-06
9.66159e-06
9.71832e-06
9.76913e-06
9.81413e-06
9.85352e-06
9.88753e-06
9.91646e-06
9.94063e-06
9.96035e-06
9.97597e-06
9.98783e-06
9.99626e-06
1.00016e-05
1.00041e-05
9.41723e-06
9.45683e-06
9.51128e-06
9.57669e-06
9.64966e-06
9.72726e-06
9.80701e-06
9.88686e-06
9.96516e-06
1.00407e-05
1.01124e-05
1.01796e-05
1.02419e-05
1.0299e-05
1.03508e-05
1.03972e-05
1.04384e-05
1.04745e-05
1.05057e-05
1.05323e-05
1.05545e-05
1.05727e-05
1.05871e-05
1.0598e-05
1.06058e-05
1.06108e-05
1.06131e-05
1.00928e-05
1.01286e-05
1.01777e-05
1.02369e-05
1.03029e-05
1.03731e-05
1.04454e-05
1.05178e-05
1.05889e-05
1.06575e-05
1.07228e-05
1.0784e-05
1.08409e-05
1.0893e-05
1.09403e-05
1.09828e-05
1.10206e-05
1.10537e-05
1.10824e-05
1.11068e-05
1.11273e-05
1.11441e-05
1.11574e-05
1.11675e-05
1.11748e-05
1.11793e-05
1.11815e-05
1.0718e-05
1.07504e-05
1.07949e-05
1.08485e-05
1.09084e-05
1.09722e-05
1.10379e-05
1.11038e-05
1.11685e-05
1.12311e-05
1.12906e-05
1.13466e-05
1.13986e-05
1.14464e-05
1.14898e-05
1.15288e-05
1.15635e-05
1.1594e-05
1.16205e-05
1.1643e-05
1.16619e-05
1.16774e-05
1.16898e-05
1.16992e-05
1.17059e-05
1.17101e-05
1.17121e-05
1.12967e-05
1.13261e-05
1.13666e-05
1.14154e-05
1.147e-05
1.15282e-05
1.15881e-05
1.16483e-05
1.17075e-05
1.17648e-05
1.18194e-05
1.18707e-05
1.19185e-05
1.19624e-05
1.20024e-05
1.20384e-05
1.20704e-05
1.20986e-05
1.2123e-05
1.21439e-05
1.21614e-05
1.21758e-05
1.21873e-05
1.2196e-05
1.22022e-05
1.22062e-05
1.22081e-05
1.18331e-05
1.186e-05
1.1897e-05
1.19417e-05
1.19916e-05
1.20449e-05
1.20999e-05
1.21551e-05
1.22095e-05
1.22622e-05
1.23125e-05
1.23598e-05
1.24039e-05
1.24445e-05
1.24814e-05
1.25147e-05
1.25444e-05
1.25705e-05
1.25932e-05
1.26126e-05
1.26289e-05
1.26423e-05
1.2653e-05
1.26611e-05
1.26669e-05
1.26706e-05
1.26724e-05
1.23315e-05
1.23562e-05
1.23903e-05
1.24313e-05
1.24773e-05
1.25263e-05
1.2577e-05
1.26279e-05
1.26782e-05
1.27269e-05
1.27733e-05
1.28172e-05
1.2858e-05
1.28957e-05
1.293e-05
1.29609e-05
1.29885e-05
1.30128e-05
1.30339e-05
1.3052e-05
1.30673e-05
1.30798e-05
1.30898e-05
1.30974e-05
1.31028e-05
1.31063e-05
1.31079e-05
1.27959e-05
1.28187e-05
1.28502e-05
1.28881e-05
1.29306e-05
1.2976e-05
1.30229e-05
1.30702e-05
1.31168e-05
1.3162e-05
1.32051e-05
1.32459e-05
1.32839e-05
1.3319e-05
1.3351e-05
1.33798e-05
1.34056e-05
1.34283e-05
1.34481e-05
1.3465e-05
1.34793e-05
1.3491e-05
1.35004e-05
1.35075e-05
1.35127e-05
1.35159e-05
1.35175e-05
1.32299e-05
1.32511e-05
1.32803e-05
1.33156e-05
1.33551e-05
1.33973e-05
1.34409e-05
1.34849e-05
1.35283e-05
1.35705e-05
1.36108e-05
1.36488e-05
1.36844e-05
1.37171e-05
1.37471e-05
1.37741e-05
1.37983e-05
1.38196e-05
1.38381e-05
1.3854e-05
1.38675e-05
1.38785e-05
1.38873e-05
1.3894e-05
1.38989e-05
1.39019e-05
1.39034e-05
1.36369e-05
1.36566e-05
1.36839e-05
1.37167e-05
1.37536e-05
1.3793e-05
1.38338e-05
1.38749e-05
1.39156e-05
1.3955e-05
1.39928e-05
1.40285e-05
1.40618e-05
1.40926e-05
1.41207e-05
1.41461e-05
1.41688e-05
1.41889e-05
1.42063e-05
1.42213e-05
1.4234e-05
1.42444e-05
1.42527e-05
1.42591e-05
1.42636e-05
1.42665e-05
1.42679e-05
1.40196e-05
1.4038e-05
1.40635e-05
1.40943e-05
1.41289e-05
1.41659e-05
1.42041e-05
1.42427e-05
1.42809e-05
1.43179e-05
1.43534e-05
1.4387e-05
1.44184e-05
1.44474e-05
1.44739e-05
1.44978e-05
1.45193e-05
1.45382e-05
1.45547e-05
1.45689e-05
1.45808e-05
1.45907e-05
1.45986e-05
1.46046e-05
1.46089e-05
1.46117e-05
1.4613e-05
1.43804e-05
1.43978e-05
1.44217e-05
1.44507e-05
1.44832e-05
1.4518e-05
1.4554e-05
1.45903e-05
1.46263e-05
1.46612e-05
1.46947e-05
1.47264e-05
1.4756e-05
1.47834e-05
1.48085e-05
1.48311e-05
1.48514e-05
1.48693e-05
1.4885e-05
1.48984e-05
1.49097e-05
1.49191e-05
1.49266e-05
1.49323e-05
1.49364e-05
1.4939e-05
1.49403e-05
1.47216e-05
1.47379e-05
1.47605e-05
1.47878e-05
1.48185e-05
1.48513e-05
1.48853e-05
1.49197e-05
1.49536e-05
1.49867e-05
1.50184e-05
1.50483e-05
1.50764e-05
1.51023e-05
1.51261e-05
1.51475e-05
1.51668e-05
1.51838e-05
1.51986e-05
1.52114e-05
1.52222e-05
1.5231e-05
1.52381e-05
1.52436e-05
1.52475e-05
1.525e-05
1.52512e-05
1.50448e-05
1.50603e-05
1.50817e-05
1.51075e-05
1.51365e-05
1.51676e-05
1.51998e-05
1.52323e-05
1.52644e-05
1.52958e-05
1.53258e-05
1.53542e-05
1.53808e-05
1.54055e-05
1.5428e-05
1.54484e-05
1.54667e-05
1.54829e-05
1.5497e-05
1.55091e-05
1.55194e-05
1.55278e-05
1.55346e-05
1.55398e-05
1.55435e-05
1.55459e-05
1.5547e-05
1.53517e-05
1.53664e-05
1.53866e-05
1.54111e-05
1.54386e-05
1.54681e-05
1.54986e-05
1.55294e-05
1.556e-05
1.55897e-05
1.56182e-05
1.56453e-05
1.56706e-05
1.5694e-05
1.57154e-05
1.57348e-05
1.57522e-05
1.57676e-05
1.57811e-05
1.57927e-05
1.58024e-05
1.58105e-05
1.5817e-05
1.58219e-05
1.58255e-05
1.58278e-05
1.58289e-05
1.56435e-05
1.56574e-05
1.56766e-05
1.56999e-05
1.5726e-05
1.5754e-05
1.5783e-05
1.58123e-05
1.58414e-05
1.58696e-05
1.58968e-05
1.59225e-05
1.59465e-05
1.59688e-05
1.59893e-05
1.60078e-05
1.60244e-05
1.60391e-05
1.60519e-05
1.60629e-05
1.60723e-05
1.608e-05
1.60862e-05
1.60909e-05
1.60943e-05
1.60965e-05
1.60975e-05
1.59213e-05
1.59345e-05
1.59528e-05
1.59749e-05
1.59997e-05
1.60263e-05
1.60539e-05
1.60818e-05
1.61094e-05
1.61364e-05
1.61622e-05
1.61867e-05
1.62096e-05
1.62309e-05
1.62503e-05
1.6268e-05
1.62838e-05
1.62978e-05
1.63101e-05
1.63206e-05
1.63295e-05
1.63369e-05
1.63428e-05
1.63474e-05
1.63506e-05
1.63527e-05
1.63537e-05
1.61859e-05
1.61985e-05
1.62159e-05
1.62369e-05
1.62605e-05
1.62858e-05
1.63121e-05
1.63386e-05
1.63649e-05
1.63906e-05
1.64152e-05
1.64385e-05
1.64604e-05
1.64806e-05
1.64992e-05
1.6516e-05
1.65311e-05
1.65445e-05
1.65562e-05
1.65663e-05
1.65748e-05
1.65819e-05
1.65875e-05
1.65919e-05
1.6595e-05
1.6597e-05
1.65979e-05
1.6438e-05
1.645e-05
1.64666e-05
1.64865e-05
1.6509e-05
1.65331e-05
1.65581e-05
1.65834e-05
1.66084e-05
1.66328e-05
1.66563e-05
1.66785e-05
1.66993e-05
1.67186e-05
1.67363e-05
1.67524e-05
1.67668e-05
1.67796e-05
1.67907e-05
1.68004e-05
1.68085e-05
1.68153e-05
1.68207e-05
1.68248e-05
1.68278e-05
1.68297e-05
1.68306e-05
1.66782e-05
1.66896e-05
1.67053e-05
1.67243e-05
1.67457e-05
1.67686e-05
1.67924e-05
1.68164e-05
1.68403e-05
1.68635e-05
1.68858e-05
1.69069e-05
1.69268e-05
1.69452e-05
1.6962e-05
1.69773e-05
1.69911e-05
1.70032e-05
1.70139e-05
1.70231e-05
1.70309e-05
1.70373e-05
1.70425e-05
1.70465e-05
1.70493e-05
1.70512e-05
1.7052e-05
1.69068e-05
1.69176e-05
1.69325e-05
1.69506e-05
1.69709e-05
1.69926e-05
1.70152e-05
1.7038e-05
1.70607e-05
1.70827e-05
1.71039e-05
1.7124e-05
1.71429e-05
1.71604e-05
1.71764e-05
1.7191e-05
1.7204e-05
1.72156e-05
1.72258e-05
1.72346e-05
1.7242e-05
1.72481e-05
1.72531e-05
1.72569e-05
1.72596e-05
1.72613e-05
1.72622e-05
1.7124e-05
1.71342e-05
1.71483e-05
1.71654e-05
1.71847e-05
1.72053e-05
1.72267e-05
1.72483e-05
1.72697e-05
1.72907e-05
1.73107e-05
1.73298e-05
1.73477e-05
1.73643e-05
1.73795e-05
1.73933e-05
1.74057e-05
1.74167e-05
1.74264e-05
1.74347e-05
1.74418e-05
1.74476e-05
1.74523e-05
1.7456e-05
1.74586e-05
1.74603e-05
1.74611e-05
1.73297e-05
1.73394e-05
1.73528e-05
1.73689e-05
1.73871e-05
1.74065e-05
1.74267e-05
1.74472e-05
1.74674e-05
1.74871e-05
1.75061e-05
1.75241e-05
1.7541e-05
1.75567e-05
1.75711e-05
1.75842e-05
1.75959e-05
1.76064e-05
1.76155e-05
1.76234e-05
1.76301e-05
1.76357e-05
1.76401e-05
1.76436e-05
1.7646e-05
1.76476e-05
1.76484e-05
1.7524e-05
1.75331e-05
1.75457e-05
1.75608e-05
1.75779e-05
1.75962e-05
1.76152e-05
1.76344e-05
1.76534e-05
1.7672e-05
1.76898e-05
1.77067e-05
1.77226e-05
1.77374e-05
1.77509e-05
1.77632e-05
1.77743e-05
1.77841e-05
1.77927e-05
1.78002e-05
1.78065e-05
1.78118e-05
1.7816e-05
1.78193e-05
1.78216e-05
1.78231e-05
1.78239e-05
1.77065e-05
1.7715e-05
1.77267e-05
1.77409e-05
1.77568e-05
1.77739e-05
1.77917e-05
1.78096e-05
1.78273e-05
1.78447e-05
1.78613e-05
1.78771e-05
1.7892e-05
1.79058e-05
1.79184e-05
1.79299e-05
1.79403e-05
1.79495e-05
1.79576e-05
1.79646e-05
1.79705e-05
1.79755e-05
1.79794e-05
1.79825e-05
1.79847e-05
1.79862e-05
1.79869e-05
1.78768e-05
1.78847e-05
1.78955e-05
1.79087e-05
1.79234e-05
1.79392e-05
1.79556e-05
1.79722e-05
1.79887e-05
1.80047e-05
1.80201e-05
1.80347e-05
1.80485e-05
1.80612e-05
1.8073e-05
1.80837e-05
1.80933e-05
1.81018e-05
1.81094e-05
1.81159e-05
1.81214e-05
1.8126e-05
1.81297e-05
1.81326e-05
1.81347e-05
1.8136e-05
1.81367e-05
1.80342e-05
1.80414e-05
1.80514e-05
1.80634e-05
1.80769e-05
1.80914e-05
1.81064e-05
1.81216e-05
1.81366e-05
1.81513e-05
1.81653e-05
1.81787e-05
1.81913e-05
1.8203e-05
1.82137e-05
1.82235e-05
1.82323e-05
1.82402e-05
1.82471e-05
1.82531e-05
1.82582e-05
1.82625e-05
1.82659e-05
1.82686e-05
1.82705e-05
1.82718e-05
1.82724e-05
1.8178e-05
1.81845e-05
1.81935e-05
1.82043e-05
1.82165e-05
1.82295e-05
1.8243e-05
1.82567e-05
1.82702e-05
1.82834e-05
1.82961e-05
1.83081e-05
1.83194e-05
1.83299e-05
1.83396e-05
1.83485e-05
1.83564e-05
1.83635e-05
1.83698e-05
1.83753e-05
1.83799e-05
1.83838e-05
1.83869e-05
1.83894e-05
1.83911e-05
1.83923e-05
1.83928e-05
1.83071e-05
1.83129e-05
1.83208e-05
1.83304e-05
1.83411e-05
1.83526e-05
1.83645e-05
1.83765e-05
1.83884e-05
1.84e-05
1.84111e-05
1.84217e-05
1.84316e-05
1.84409e-05
1.84494e-05
1.84572e-05
1.84643e-05
1.84706e-05
1.84761e-05
1.8481e-05
1.84851e-05
1.84886e-05
1.84914e-05
1.84936e-05
1.84952e-05
1.84962e-05
1.84967e-05
1.84205e-05
1.84254e-05
1.84322e-05
1.84403e-05
1.84495e-05
1.84593e-05
1.84694e-05
1.84796e-05
1.84897e-05
1.84996e-05
1.85091e-05
1.85181e-05
1.85265e-05
1.85344e-05
1.85417e-05
1.85484e-05
1.85544e-05
1.85598e-05
1.85646e-05
1.85688e-05
1.85724e-05
1.85754e-05
1.85779e-05
1.85798e-05
1.85812e-05
1.85821e-05
1.85826e-05
1.85166e-05
1.85206e-05
1.85261e-05
1.85328e-05
1.85402e-05
1.85482e-05
1.85564e-05
1.85646e-05
1.85728e-05
1.85808e-05
1.85884e-05
1.85957e-05
1.86025e-05
1.86089e-05
1.86148e-05
1.86203e-05
1.86252e-05
1.86296e-05
1.86336e-05
1.8637e-05
1.864e-05
1.86425e-05
1.86446e-05
1.86462e-05
1.86474e-05
1.86482e-05
1.86486e-05
1.8594e-05
1.8597e-05
1.86012e-05
1.86061e-05
1.86117e-05
1.86176e-05
1.86237e-05
1.86299e-05
1.86359e-05
1.86418e-05
1.86474e-05
1.86528e-05
1.86579e-05
1.86626e-05
1.8667e-05
1.8671e-05
1.86748e-05
1.86781e-05
1.86811e-05
1.86838e-05
1.86861e-05
1.86881e-05
1.86897e-05
1.86911e-05
1.8692e-05
1.86927e-05
1.8693e-05
1.86509e-05
1.86528e-05
1.86555e-05
1.86586e-05
1.86622e-05
1.86659e-05
1.86697e-05
1.86735e-05
1.86772e-05
1.86808e-05
1.86842e-05
1.86875e-05
1.86906e-05
1.86935e-05
1.86962e-05
1.86988e-05
1.87012e-05
1.87034e-05
1.87053e-05
1.87071e-05
1.87087e-05
1.87101e-05
1.87113e-05
1.87122e-05
1.87129e-05
1.87134e-05
1.87137e-05
1.86854e-05
1.86862e-05
1.86872e-05
1.86884e-05
1.86897e-05
1.8691e-05
1.86923e-05
1.86935e-05
1.86946e-05
1.86957e-05
1.86968e-05
1.86978e-05
1.86987e-05
1.86997e-05
1.87006e-05
1.87015e-05
1.87024e-05
1.87033e-05
1.87041e-05
1.8705e-05
1.87058e-05
1.87065e-05
1.87071e-05
1.87077e-05
1.87081e-05
1.87084e-05
1.87086e-05
1.86956e-05
1.86951e-05
1.86944e-05
1.86934e-05
1.86923e-05
1.8691e-05
1.86895e-05
1.86879e-05
1.86863e-05
1.86847e-05
1.86831e-05
1.86816e-05
1.86803e-05
1.8679e-05
1.8678e-05
1.86771e-05
1.86764e-05
1.86758e-05
1.86755e-05
1.86752e-05
1.86751e-05
1.86751e-05
1.86752e-05
1.86753e-05
1.86754e-05
1.86755e-05
1.86756e-05
1.86796e-05
1.86778e-05
1.86751e-05
1.86718e-05
1.86681e-05
1.86639e-05
1.86595e-05
1.86549e-05
1.86503e-05
1.86458e-05
1.86414e-05
1.86372e-05
1.86333e-05
1.86298e-05
1.86266e-05
1.86238e-05
1.86213e-05
1.86192e-05
1.86175e-05
1.86162e-05
1.86151e-05
1.86143e-05
1.86137e-05
1.86133e-05
1.86131e-05
1.8613e-05
1.8613e-05
1.86356e-05
1.86322e-05
1.86275e-05
1.86218e-05
1.86152e-05
1.86081e-05
1.86005e-05
1.85928e-05
1.8585e-05
1.85774e-05
1.857e-05
1.8563e-05
1.85565e-05
1.85504e-05
1.8545e-05
1.85401e-05
1.85358e-05
1.85321e-05
1.8529e-05
1.85264e-05
1.85243e-05
1.85226e-05
1.85214e-05
1.85205e-05
1.85199e-05
1.85195e-05
1.85194e-05
1.85619e-05
1.8557e-05
1.85502e-05
1.85419e-05
1.85325e-05
1.85222e-05
1.85114e-05
1.85004e-05
1.84893e-05
1.84785e-05
1.8468e-05
1.84581e-05
1.84487e-05
1.84401e-05
1.84323e-05
1.84253e-05
1.84191e-05
1.84137e-05
1.84091e-05
1.84052e-05
1.8402e-05
1.83995e-05
1.83976e-05
1.83961e-05
1.83951e-05
1.83945e-05
1.83943e-05
1.84577e-05
1.84513e-05
1.84424e-05
1.84315e-05
1.84191e-05
1.84056e-05
1.83915e-05
1.83772e-05
1.83628e-05
1.83487e-05
1.83351e-05
1.83222e-05
1.83101e-05
1.82989e-05
1.82887e-05
1.82796e-05
1.82714e-05
1.82643e-05
1.82582e-05
1.8253e-05
1.82488e-05
1.82453e-05
1.82427e-05
1.82407e-05
1.82393e-05
1.82384e-05
1.82381e-05
1.8323e-05
1.8315e-05
1.8304e-05
1.82905e-05
1.82752e-05
1.82587e-05
1.82414e-05
1.82238e-05
1.82062e-05
1.81889e-05
1.81723e-05
1.81565e-05
1.81417e-05
1.8128e-05
1.81156e-05
1.81043e-05
1.80943e-05
1.80855e-05
1.8078e-05
1.80715e-05
1.80662e-05
1.80619e-05
1.80585e-05
1.8056e-05
1.80542e-05
1.80531e-05
1.80526e-05
1.81587e-05
1.81493e-05
1.81363e-05
1.81204e-05
1.81024e-05
1.8083e-05
1.80628e-05
1.80421e-05
1.80215e-05
1.80014e-05
1.7982e-05
1.79636e-05
1.79463e-05
1.79303e-05
1.79158e-05
1.79026e-05
1.78909e-05
1.78806e-05
1.78717e-05
1.78642e-05
1.78579e-05
1.78528e-05
1.78488e-05
1.78457e-05
1.78436e-05
1.78423e-05
1.78417e-05
1.79673e-05
1.79566e-05
1.79419e-05
1.79239e-05
1.79036e-05
1.78817e-05
1.78589e-05
1.78357e-05
1.78126e-05
1.779e-05
1.77683e-05
1.77476e-05
1.77283e-05
1.77105e-05
1.76941e-05
1.76794e-05
1.76663e-05
1.76548e-05
1.76448e-05
1.76363e-05
1.76292e-05
1.76234e-05
1.76189e-05
1.76154e-05
1.7613e-05
1.76115e-05
1.76108e-05
1.77528e-05
1.77412e-05
1.77251e-05
1.77055e-05
1.76835e-05
1.76597e-05
1.76349e-05
1.76098e-05
1.75848e-05
1.75604e-05
1.7537e-05
1.75148e-05
1.7494e-05
1.74747e-05
1.74572e-05
1.74414e-05
1.74273e-05
1.74149e-05
1.74041e-05
1.7395e-05
1.73873e-05
1.73811e-05
1.73761e-05
1.73724e-05
1.73698e-05
1.73681e-05
1.73673e-05
1.75212e-05
1.75089e-05
1.7492e-05
1.74714e-05
1.74483e-05
1.74234e-05
1.73975e-05
1.73712e-05
1.73452e-05
1.73199e-05
1.72955e-05
1.72725e-05
1.7251e-05
1.72311e-05
1.7213e-05
1.71966e-05
1.71821e-05
1.71693e-05
1.71582e-05
1.71487e-05
1.71408e-05
1.71343e-05
1.71292e-05
1.71253e-05
1.71226e-05
1.71208e-05
1.712e-05
1.72796e-05
1.72672e-05
1.725e-05
1.72292e-05
1.72057e-05
1.71806e-05
1.71546e-05
1.71282e-05
1.71021e-05
1.70768e-05
1.70524e-05
1.70295e-05
1.70081e-05
1.69883e-05
1.69703e-05
1.69541e-05
1.69397e-05
1.6927e-05
1.6916e-05
1.69066e-05
1.68988e-05
1.68924e-05
1.68873e-05
1.68835e-05
1.68807e-05
1.6879e-05
1.68782e-05
1.70364e-05
1.70242e-05
1.70074e-05
1.69872e-05
1.69644e-05
1.694e-05
1.69148e-05
1.68893e-05
1.68642e-05
1.68398e-05
1.68165e-05
1.67946e-05
1.67741e-05
1.67553e-05
1.67382e-05
1.67228e-05
1.67091e-05
1.66971e-05
1.66867e-05
1.66778e-05
1.66704e-05
1.66644e-05
1.66596e-05
1.6656e-05
1.66534e-05
1.66518e-05
1.6651e-05
1.68002e-05
1.67888e-05
1.6773e-05
1.67541e-05
1.67328e-05
1.67102e-05
1.66867e-05
1.66632e-05
1.664e-05
1.66176e-05
1.65962e-05
1.65762e-05
1.65575e-05
1.65404e-05
1.65249e-05
1.6511e-05
1.64987e-05
1.64879e-05
1.64786e-05
1.64706e-05
1.6464e-05
1.64586e-05
1.64543e-05
1.64511e-05
1.64488e-05
1.64473e-05
1.64466e-05
1.65793e-05
1.65691e-05
1.6555e-05
1.65381e-05
1.65192e-05
1.6499e-05
1.64784e-05
1.64576e-05
1.64373e-05
1.64178e-05
1.63992e-05
1.63818e-05
1.63658e-05
1.63511e-05
1.63379e-05
1.6326e-05
1.63156e-05
1.63065e-05