/*--------------------------------*- C++ -*----------------------------------*\
| =========                 |                                                 |
| \\      /  F ield         | OpenFOAM: The Open Source CFD Toolbox           |
|  \\    /   O peration     | Version:  2106                                  |
|   \\  /    A nd           | Website:  www.openfoam.com                      |
|    \\/     M anipulation  |                                                 |
\*---------------------------------------------------------------------------*/
FoamFile
{
    version     2.0;
    format      ascii;
    arch        "LSB;label=32;scalar=64";
    class       volScalarField;
    location    "110.00057";
    object      C7H7_0;
}
// * * * * * * * * * * * * * * * * * * * * * * * * * * * * * * * * * * * * * //

dimensions      [0 0 0 0 0 0 0];

internalField   nonuniform List<scalar> 
3360
(
7.40543e-33
7.88461e-33
8.56e-33
9.40028e-33
1.03781e-32
1.14678e-32
1.26447e-32
1.38844e-32
1.51636e-32
1.64595e-32
1.7751e-32
1.90184e-32
2.02442e-32
2.14129e-32
2.25116e-32
2.353e-32
2.44599e-32
2.52959e-32
2.60347e-32
2.66752e-32
2.72182e-32
2.76663e-32
2.80235e-32
2.82951e-32
2.84875e-32
2.86079e-32
2.8664e-32
3.84885e-32
4.1245e-32
4.51887e-32
5.01924e-32
5.61592e-32
6.30074e-32
7.06625e-32
7.90519e-32
8.81015e-32
9.77327e-32
1.07861e-31
1.18394e-31
1.29231e-31
1.40258e-31
1.51358e-31
1.624e-31
1.7325e-31
1.83765e-31
1.93797e-31
2.03197e-31
2.11818e-31
2.19518e-31
2.26163e-31
2.31636e-31
2.35835e-31
2.38682e-31
2.40121e-31
1.53523e-31
1.66576e-31
1.85487e-31
2.09872e-31
2.39493e-31
2.74163e-31
3.13691e-31
3.57843e-31
4.06308e-31
4.58679e-31
5.14434e-31
5.72949e-31
6.33511e-31
6.95321e-31
7.5751e-31
8.19153e-31
8.79297e-31
9.36993e-31
9.9132e-31
1.04142e-30
1.08654e-30
1.12601e-30
1.15934e-30
1.18614e-30
1.2062e-30
1.21946e-30
1.22599e-30
5.85385e-31
6.42101e-31
7.25325e-31
8.34185e-31
9.68416e-31
1.12788e-30
1.31224e-30
1.52075e-30
1.7521e-30
2.00429e-30
2.27462e-30
2.55971e-30
2.85556e-30
3.15763e-30
3.46097e-30
3.76043e-30
4.05084e-30
4.32723e-30
4.58504e-30
4.82029e-30
5.02969e-30
5.21074e-30
5.36171e-30
5.48167e-30
5.57041e-30
5.62838e-30
5.65663e-30
2.31168e-30
2.5571e-30
2.91957e-30
3.39734e-30
3.99112e-30
4.7018e-30
5.5289e-30
6.46947e-30
7.51726e-30
8.66237e-30
9.89111e-30
1.11864e-29
1.25281e-29
1.38941e-29
1.52607e-29
1.66039e-29
1.79005e-29
1.91287e-29
2.02689e-29
2.13047e-29
2.22228e-29
2.30133e-29
2.36701e-29
2.41902e-29
2.45738e-29
2.48237e-29
2.49451e-29
9.39349e-30
1.04487e-29
1.20137e-29
1.40852e-29
1.66698e-29
1.97738e-29
2.3396e-29
2.75233e-29
3.21272e-29
3.7162e-29
4.2565e-29
4.82577e-29
5.41484e-29
6.01363e-29
6.61157e-29
7.19804e-29
7.76282e-29
8.29651e-29
8.7908e-29
9.23874e-29
9.63486e-29
9.97523e-29
1.02574e-28
1.04804e-28
1.06446e-28
1.07514e-28
1.08033e-28
3.8865e-29
4.33892e-29
5.01132e-29
5.90346e-29
7.01904e-29
8.3612e-29
9.92945e-29
1.17176e-28
1.37127e-28
1.5894e-28
1.82334e-28
2.06959e-28
2.32413e-28
2.58256e-28
2.84027e-28
3.09271e-28
3.3355e-28
3.56465e-28
3.77664e-28
3.96855e-28
4.13809e-28
4.28365e-28
4.40424e-28
4.49948e-28
4.56956e-28
4.61512e-28
4.63722e-28
1.62465e-28
1.81745e-28
2.10441e-28
2.4857e-28
2.96312e-28
3.53816e-28
4.21071e-28
4.97812e-28
5.83468e-28
6.77132e-28
7.77575e-28
8.83277e-28
9.92488e-28
1.1033e-27
1.21374e-27
1.32185e-27
1.42574e-27
1.52372e-27
1.6143e-27
1.69622e-27
1.76855e-27
1.83059e-27
1.88195e-27
1.92249e-27
1.9523e-27
1.97167e-27
1.98106e-27
6.83902e-28
7.66103e-28
8.88529e-28
1.05131e-27
1.25525e-27
1.50101e-27
1.78852e-27
2.1166e-27
2.48276e-27
2.88305e-27
3.31214e-27
3.76348e-27
4.22954e-27
4.70218e-27
5.17296e-27
5.63352e-27
6.07591e-27
6.49292e-27
6.87823e-27
7.22663e-27
7.53409e-27
7.79778e-27
8.01602e-27
8.18825e-27
8.31486e-27
8.39713e-27
8.437e-27
2.88734e-27
3.23663e-27
3.75714e-27
4.44958e-27
5.31757e-27
6.36399e-27
7.58855e-27
8.98622e-27
1.05462e-26
1.22515e-26
1.40793e-26
1.60015e-26
1.79859e-26
1.99977e-26
2.20008e-26
2.39598e-26
2.58407e-26
2.7613e-26
2.92498e-26
3.07293e-26
3.20344e-26
3.31531e-26
3.40787e-26
3.48088e-26
3.53454e-26
3.56939e-26
3.58628e-26
1.22333e-26
1.37194e-26
1.59341e-26
1.88807e-26
2.25745e-26
2.70275e-26
3.22381e-26
3.81842e-26
4.48188e-26
5.2069e-26
5.98369e-26
6.80024e-26
7.64283e-26
8.49665e-26
9.34643e-26
1.01771e-25
1.09743e-25
1.17252e-25
1.24185e-25
1.3045e-25
1.35974e-25
1.40709e-25
1.44626e-25
1.47715e-25
1.49984e-25
1.51458e-25
1.52173e-25
5.19384e-26
5.82541e-26
6.76672e-26
8.01906e-26
9.58888e-26
1.14811e-25
1.36948e-25
1.62203e-25
1.90373e-25
2.21147e-25
2.54105e-25
2.88735e-25
3.24454e-25
3.60631e-25
3.9662e-25
4.31782e-25
4.65515e-25
4.9727e-25
5.26576e-25
5.53043e-25
5.76374e-25
5.96361e-25
6.12887e-25
6.25916e-25
6.35487e-25
6.41701e-25
6.4471e-25
2.21372e-25
2.4827e-25
2.88347e-25
3.41644e-25
4.08417e-25
4.88855e-25
5.82895e-25
6.90103e-25
8.09599e-25
9.40033e-25
1.07961e-24
1.22616e-24
1.37719e-24
1.53004e-24
1.68198e-24
1.83032e-24
1.97253e-24
2.10632e-24
2.22971e-24
2.34109e-24
2.43923e-24
2.52326e-24
2.59271e-24
2.64745e-24
2.68764e-24
2.71373e-24
2.72636e-24
9.4753e-25
1.06218e-24
1.23291e-24
1.45984e-24
1.74393e-24
2.08587e-24
2.48526e-24
2.94011e-24
3.44653e-24
3.9987e-24
4.58889e-24
5.2078e-24
5.84492e-24
6.48899e-24
7.1285e-24
7.75219e-24
8.34948e-24
8.91086e-24
9.42813e-24
9.89464e-24
1.03053e-23
1.06567e-23
1.0947e-23
1.11756e-23
1.13433e-23
1.14522e-23
1.15049e-23
4.08936e-24
4.58004e-24
5.31011e-24
6.27927e-24
7.49092e-24
8.94703e-24
1.06449e-23
1.25751e-23
1.47201e-23
1.70544e-23
1.95447e-23
2.21512e-23
2.48294e-23
2.75318e-23
3.02104e-23
3.28184e-23
3.5312e-23
3.76523e-23
3.98058e-23
4.17455e-23
4.34512e-23
4.49091e-23
4.61122e-23
4.70591e-23
4.77535e-23
4.82037e-23
4.84215e-23
1.78742e-23
1.99854e-23
2.31219e-23
2.72776e-23
3.24616e-23
3.86763e-23
4.5904e-23
5.40983e-23
6.31795e-23
7.30343e-23
8.35182e-23
9.44609e-23
1.05674e-22
1.16958e-22
1.28115e-22
1.38951e-22
1.49288e-22
1.58968e-22
1.67857e-22
1.75848e-22
1.82863e-22
1.88849e-22
1.93782e-22
1.97659e-22
2.00499e-22
2.02339e-22
2.03228e-22
7.98085e-23
8.89918e-23
1.02601e-22
1.20578e-22
1.42923e-22
1.69605e-22
2.00507e-22
2.35391e-22
2.7388e-22
3.15463e-22
3.59505e-22
4.05276e-22
4.51979e-22
4.98789e-22
5.44887e-22
5.89494e-22
6.31899e-22
6.71478e-22
7.07715e-22
7.40201e-22
7.68646e-22
7.92867e-22
8.12784e-22
8.28411e-22
8.39841e-22
8.47234e-22
8.50803e-22
3.68147e-22
4.08826e-22
4.68886e-22
5.47839e-22
6.45431e-22
7.61259e-22
8.9454e-22
1.04399e-21
1.20776e-21
1.38348e-21
1.56834e-21
1.75918e-21
1.95265e-21
2.14537e-21
2.33403e-21
2.51557e-21
2.68724e-21
2.8467e-21
2.99203e-21
3.1218e-21
3.23499e-21
3.33106e-21
3.40982e-21
3.47146e-21
3.51645e-21
3.54549e-21
3.55949e-21
1.77774e-21
1.96334e-21
2.23585e-21
2.59151e-21
3.0275e-21
3.54023e-21
4.12448e-21
4.77294e-21
5.47622e-21
6.223e-21
7.0005e-21
7.79502e-21
8.59258e-21
9.3795e-21
1.01429e-20
1.08713e-20
1.15545e-20
1.21845e-20
1.27547e-20
1.32607e-20
1.36996e-20
1.40702e-20
1.43728e-20
1.46086e-20
1.47802e-20
1.48906e-20
1.49438e-20
9.08115e-21
9.96508e-21
1.12529e-20
1.29173e-20
1.49339e-20
1.72748e-20
1.99052e-20
2.27821e-20
2.58554e-20
2.90689e-20
3.23636e-20
3.56795e-20
3.89588e-20
4.21478e-20
4.5199e-20
4.80718e-20
5.07334e-20
5.31589e-20
5.53309e-20
5.72393e-20
5.88799e-20
6.02541e-20
6.13678e-20
6.22306e-20
6.28547e-20
6.32546e-20
6.34462e-20
4.91961e-20
5.36463e-20
6.0069e-20
6.82667e-20
7.80531e-20
8.92241e-20
1.01548e-19
1.14764e-19
1.28595e-19
1.42753e-19
1.56959e-19
1.70948e-19
1.84488e-19
1.97376e-19
2.09453e-19
2.20597e-19
2.30722e-19
2.39781e-19
2.47752e-19
2.54642e-19
2.60476e-19
2.65295e-19
2.6915e-19
2.72103e-19
2.74217e-19
2.7556e-19
2.76198e-19
2.80063e-19
3.03939e-19
3.38055e-19
3.81022e-19
4.31492e-19
4.88038e-19
5.49132e-19
6.13186e-19
6.78617e-19
7.43918e-19
8.07727e-19
8.6888e-19
9.26442e-19
9.79717e-19
1.02824e-18
1.07176e-18
1.1102e-18
1.14363e-18
1.17226e-18
1.19634e-18
1.2162e-18
1.2322e-18
1.24468e-18
1.25403e-18
1.26057e-18
1.26464e-18
1.26654e-18
1.64511e-18
1.78226e-18
1.97671e-18
2.2191e-18
2.50022e-18
2.81057e-18
3.1404e-18
3.48002e-18
3.8203e-18
4.15302e-18
4.47121e-18
4.76938e-18
5.04355e-18
5.29117e-18
5.51103e-18
5.70301e-18
5.86789e-18
6.00712e-18
6.12264e-18
6.21666e-18
6.29152e-18
6.34959e-18
6.39319e-18
6.42449e-18
6.44547e-18
6.45794e-18
6.46349e-18
9.76592e-18
1.0615e-17
1.18182e-17
1.33172e-17
1.50549e-17
1.69735e-17
1.9014e-17
2.11191e-17
2.32346e-17
2.53124e-17
2.73111e-17
2.91975e-17
3.09465e-17
3.25408e-17
3.39702e-17
3.52307e-17
3.63237e-17
3.7255e-17
3.80336e-17
3.8671e-17
3.91803e-17
3.95759e-17
3.98722e-17
4.00835e-17
4.02238e-17
4.03058e-17
4.03415e-17
5.7695e-17
6.34137e-17
7.16137e-17
8.1995e-17
9.42791e-17
1.08181e-16
1.23405e-16
1.39642e-16
1.56583e-16
1.73919e-16
1.91351e-16
2.08593e-16
2.25381e-16
2.41471e-16
2.56652e-16
2.70743e-16
2.83603e-16
2.95128e-16
3.05255e-16
3.13962e-16
3.21262e-16
3.27205e-16
3.31868e-16
3.3535e-16
3.37767e-16
3.39247e-16
3.39921e-16
3.38021e-16
3.7982e-16
4.41289e-16
5.21773e-16
6.20979e-16
7.38652e-16
8.74392e-16
1.02751e-15
1.19695e-15
1.38116e-15
1.57811e-15
1.78519e-15
1.99936e-15
2.21711e-15
2.43468e-15
2.64816e-15
2.85368e-15
3.04761e-15
3.22667e-15
3.38813e-15
3.52987e-15
3.65047e-15
3.7492e-15
3.82602e-15
3.8815e-15
3.91679e-15
3.93347e-15
1.9833e-15
2.30619e-15
2.79775e-15
3.47065e-15
4.34409e-15
5.44055e-15
6.78326e-15
8.39367e-15
1.02889e-14
1.24789e-14
1.49647e-14
1.77354e-14
2.07678e-14
2.40255e-14
2.74596e-14
3.10099e-14
3.46075e-14
3.81775e-14
4.16422e-14
4.49246e-14
4.79516e-14
5.06568e-14
5.29832e-14
5.48848e-14
5.63284e-14
5.72934e-14
5.77731e-14
1.1812e-14
1.43376e-14
1.83308e-14
2.40599e-14
3.18984e-14
4.23015e-14
5.57857e-14
7.29028e-14
9.42068e-14
1.20214e-13
1.5136e-13
1.8795e-13
2.3012e-13
2.77794e-13
3.30655e-13
3.88129e-13
4.49374e-13
5.13286e-13
5.78522e-13
6.43528e-13
7.06584e-13
7.65857e-13
8.19466e-13
8.65546e-13
9.02321e-13
9.28165e-13
9.41664e-13
7.13602e-14
9.04522e-14
1.21716e-13
1.68513e-13
2.35568e-13
3.28915e-13
4.55845e-13
6.24785e-13
8.45048e-13
1.12646e-12
1.47885e-12
1.91135e-12
2.43169e-12
3.04523e-12
3.75413e-12
4.55643e-12
5.44522e-12
6.4081e-12
7.42676e-12
8.47705e-12
9.52932e-12
1.05492e-11
1.14986e-11
1.23373e-11
1.30241e-11
1.35188e-11
1.37833e-11
4.28228e-13
5.61552e-13
7.85872e-13
1.13261e-12
1.6468e-12
2.38804e-12
3.43141e-12
4.86768e-12
6.80223e-12
9.35204e-12
1.26407e-11
1.67905e-11
2.19131e-11
2.80969e-11
3.53943e-11
4.38091e-11
5.32841e-11
6.36933e-11
7.48364e-11
8.64398e-11
9.81611e-11
1.09599e-10
1.20307e-10
1.29812e-10
1.37627e-10
1.43276e-10
1.46307e-10
2.49758e-12
3.32851e-12
4.74748e-12
6.97876e-12
1.0347e-11
1.52875e-11
2.23553e-11
3.22274e-11
4.56922e-11
6.3623e-11
8.69315e-11
1.16502e-10
1.53109e-10
1.97324e-10
2.4942e-10
3.09289e-10
3.7637e-10
4.49615e-10
5.2748e-10
6.07948e-10
6.88594e-10
7.66664e-10
8.39179e-10
9.03049e-10
9.55186e-10
9.92614e-10
1.01257e-09
1.42087e-11
1.87491e-11
2.64867e-11
3.86156e-11
5.68438e-11
8.3421e-11
1.21149e-10
1.73341e-10
2.43708e-10
3.36166e-10
4.54554e-10
6.02286e-10
7.81974e-10
9.95041e-10
1.24139e-09
1.51915e-09
1.82453e-09
2.15185e-09
2.4936e-09
2.84073e-09
3.18294e-09
3.5091e-09
3.80767e-09
4.06707e-09
4.27617e-09
4.42453e-09
4.50277e-09
7.81537e-11
9.93155e-11
1.34631e-10
1.88595e-10
2.67427e-10
3.78951e-10
5.32372e-10
7.37884e-10
1.00606e-09
1.34704e-09
1.76961e-09
2.2802e-09
2.88195e-09
3.57398e-09
4.35088e-09
5.20251e-09
6.11413e-09
7.06684e-09
8.03822e-09
9.00322e-09
9.93512e-09
1.08065e-08
1.15901e-08
1.22601e-08
1.27921e-08
1.31645e-08
1.33584e-08
3.81914e-10
4.61603e-10
5.90299e-10
7.79299e-10
1.04366e-09
1.40111e-09
1.87086e-09
2.47219e-09
3.22271e-09
4.13661e-09
5.22292e-09
6.48411e-09
7.91502e-09
9.50242e-09
1.12251e-08
1.30542e-08
1.4955e-08
1.68872e-08
1.88075e-08
2.06707e-08
2.24312e-08
2.4045e-08
2.54701e-08
2.66684e-08
2.76057e-08
2.82529e-08
2.85859e-08
1.50769e-09
1.74036e-09
2.10343e-09
2.61469e-09
3.29746e-09
4.17719e-09
5.27847e-09
6.62218e-09
8.22284e-09
1.00864e-08
1.22088e-08
1.45749e-08
1.71587e-08
1.99243e-08
2.28268e-08
2.58145e-08
2.8831e-08
3.18173e-08
3.47136e-08
3.74617e-08
4.00061e-08
4.22954e-08
4.42833e-08
4.59295e-08
4.71996e-08
4.80659e-08
4.85067e-08
4.65912e-09
5.18608e-09
5.98393e-09
7.06638e-09
8.45325e-09
1.0164e-08
1.22132e-08
1.46066e-08
1.73393e-08
2.03938e-08
2.37401e-08
2.73365e-08
3.11315e-08
3.50652e-08
3.90728e-08
4.30862e-08
4.70369e-08
5.08583e-08
5.44867e-08
5.78633e-08
6.09351e-08
6.36552e-08
6.59836e-08
6.78869e-08
6.93385e-08
7.03182e-08
7.08121e-08
1.14823e-08
1.24363e-08
1.38459e-08
1.57013e-08
1.79991e-08
2.07331e-08
2.38898e-08
2.74448e-08
3.13618e-08
3.5593e-08
4.00803e-08
4.47575e-08
4.95532e-08
5.43935e-08
5.92042e-08
6.39135e-08
6.84534e-08
7.27613e-08
7.67811e-08
8.04633e-08
8.37655e-08
8.66522e-08
8.90946e-08
9.10704e-08
9.25632e-08
9.35624e-08
9.40624e-08
2.34125e-08
2.48488e-08
2.6932e-08
2.96101e-08
3.28392e-08
3.6574e-08
4.07625e-08
4.53447e-08
5.02524e-08
5.54109e-08
6.07414e-08
6.61632e-08
7.15966e-08
7.69647e-08
8.21957e-08
8.72244e-08
9.19923e-08
9.64486e-08
1.0055e-07
1.0426e-07
1.0755e-07
1.10397e-07
1.12783e-07
1.14698e-07
1.16134e-07
1.17089e-07
1.17564e-07
4.10102e-08
4.28795e-08
4.55522e-08
4.89271e-08
5.29146e-08
5.7427e-08
6.23755e-08
6.76691e-08
7.32155e-08
7.89234e-08
8.4703e-08
9.04703e-08
9.61472e-08
1.01663e-07
1.06957e-07
1.11974e-07
1.16669e-07
1.21005e-07
1.24953e-07
1.2849e-07
1.31598e-07
1.34265e-07
1.36486e-07
1.38255e-07
1.39575e-07
1.40447e-07
1.4088e-07
6.37495e-08
6.59211e-08
6.89935e-08
7.28212e-08
7.72748e-08
8.22325e-08
8.75776e-08
9.31981e-08
9.89884e-08
1.04851e-07
1.10695e-07
1.16442e-07
1.22021e-07
1.27372e-07
1.32446e-07
1.37201e-07
1.41607e-07
1.45637e-07
1.49275e-07
1.52508e-07
1.55329e-07
1.57735e-07
1.59725e-07
1.61302e-07
1.62473e-07
1.63244e-07
1.63624e-07
9.02894e-08
9.26014e-08
9.58464e-08
9.98487e-08
1.04452e-07
1.09513e-07
1.14899e-07
1.20489e-07
1.26176e-07
1.31862e-07
1.37463e-07
1.42908e-07
1.48137e-07
1.53102e-07
1.57765e-07
1.62097e-07
1.66078e-07
1.69692e-07
1.7293e-07
1.7579e-07
1.7827e-07
1.80374e-07
1.82105e-07
1.83471e-07
1.8448e-07
1.85142e-07
1.85467e-07
1.18945e-07
1.21247e-07
1.2446e-07
1.28392e-07
1.32876e-07
1.37759e-07
1.42906e-07
1.48195e-07
1.53523e-07
1.58799e-07
1.63948e-07
1.68909e-07
1.73632e-07
1.78081e-07
1.82228e-07
1.86052e-07
1.89542e-07
1.9269e-07
1.95494e-07
1.97957e-07
2.00081e-07
2.01873e-07
2.03342e-07
2.04495e-07
2.05344e-07
2.05899e-07
2.0617e-07
1.48129e-07
1.50308e-07
1.53336e-07
1.57021e-07
1.61195e-07
1.65709e-07
1.7043e-07
1.75246e-07
1.8006e-07
1.84791e-07
1.89374e-07
1.93758e-07
1.97903e-07
2.01782e-07
2.05373e-07
2.08665e-07
2.11651e-07
2.1433e-07
2.16703e-07
2.18776e-07
2.20555e-07
2.22049e-07
2.23268e-07
2.24221e-07
2.2492e-07
2.25374e-07
2.25596e-07
1.76594e-07
1.7858e-07
1.81329e-07
1.84661e-07
1.88416e-07
1.92455e-07
1.96655e-07
2.00913e-07
2.05143e-07
2.09275e-07
2.13254e-07
2.17037e-07
2.20593e-07
2.23901e-07
2.26947e-07
2.29723e-07
2.32228e-07
2.34463e-07
2.36432e-07
2.38144e-07
2.39606e-07
2.40827e-07
2.41819e-07
2.42591e-07
2.43154e-07
2.43518e-07
2.43696e-07
2.03506e-07
2.05266e-07
2.07694e-07
2.10628e-07
2.13921e-07
2.17447e-07
2.21097e-07
2.24779e-07
2.28419e-07
2.31956e-07
2.35344e-07
2.38549e-07
2.41546e-07
2.44318e-07
2.46858e-07
2.4916e-07
2.51226e-07
2.53059e-07
2.54666e-07
2.56054e-07
2.57234e-07
2.58214e-07
2.59005e-07
2.59618e-07
2.60062e-07
2.60349e-07
2.60487e-07
2.2841e-07
2.29936e-07
2.32039e-07
2.34571e-07
2.37405e-07
2.40428e-07
2.43545e-07
2.46677e-07
2.49759e-07
2.5274e-07
2.55583e-07
2.58258e-07
2.60748e-07
2.63039e-07
2.65125e-07
2.67007e-07
2.68685e-07
2.70166e-07
2.71456e-07
2.72564e-07
2.73498e-07
2.7427e-07
2.74889e-07
2.75365e-07
2.75708e-07
2.75928e-07
2.76033e-07
2.51135e-07
2.52439e-07
2.54232e-07
2.56388e-07
2.58793e-07
2.61351e-07
2.63979e-07
2.6661e-07
2.69188e-07
2.71671e-07
2.74028e-07
2.76235e-07
2.78278e-07
2.80148e-07
2.81841e-07
2.83358e-07
2.84703e-07
2.85881e-07
2.86899e-07
2.87767e-07
2.88494e-07
2.89089e-07
2.89562e-07
2.89922e-07
2.90179e-07
2.90342e-07
2.9042e-07
2.71703e-07
2.72806e-07
2.7432e-07
2.76136e-07
2.78158e-07
2.80301e-07
2.82496e-07
2.84685e-07
2.86822e-07
2.88871e-07
2.90806e-07
2.92608e-07
2.94267e-07
2.95776e-07
2.97133e-07
2.9834e-07
2.99401e-07
3.00322e-07
3.01112e-07
3.01778e-07
3.02329e-07
3.02775e-07
3.03126e-07
3.03389e-07
3.03575e-07
3.03691e-07
3.03745e-07
2.90253e-07
2.91178e-07
2.92447e-07
2.93966e-07
2.95653e-07
2.97436e-07
2.99256e-07
3.01064e-07
3.02821e-07
3.04498e-07
3.06073e-07
3.07532e-07
3.08865e-07
3.10068e-07
3.11141e-07
3.12087e-07
3.1291e-07
3.13616e-07
3.14214e-07
3.14711e-07
3.15116e-07
3.15438e-07
3.15687e-07
3.1587e-07
3.15996e-07
3.16072e-07
3.16107e-07
3.06974e-07
3.07747e-07
3.08805e-07
3.10069e-07
3.11469e-07
3.12944e-07
3.14444e-07
3.15928e-07
3.17363e-07
3.18725e-07
3.19996e-07
3.21164e-07
3.22223e-07
3.2317e-07
3.24005e-07
3.24732e-07
3.25356e-07
3.25883e-07
3.2632e-07
3.26676e-07
3.2696e-07
3.2718e-07
3.27343e-07
3.2746e-07
3.27536e-07
3.27581e-07
3.276e-07
3.22076e-07
3.22719e-07
3.23598e-07
3.24645e-07
3.25802e-07
3.27016e-07
3.28246e-07
3.29457e-07
3.3062e-07
3.31717e-07
3.32732e-07
3.33657e-07
3.34486e-07
3.35218e-07
3.35854e-07
3.36398e-07
3.36855e-07
3.37232e-07
3.37537e-07
3.37776e-07
3.37958e-07
3.38092e-07
3.38185e-07
3.38246e-07
3.38282e-07
3.38299e-07
3.38305e-07
3.35762e-07
3.36295e-07
3.37022e-07
3.37886e-07
3.38837e-07
3.39832e-07
3.40834e-07
3.41814e-07
3.42749e-07
3.43623e-07
3.44424e-07
3.45144e-07
3.4578e-07
3.46332e-07
3.46801e-07
3.47192e-07
3.4751e-07
3.47762e-07
3.47954e-07
3.48096e-07
3.48193e-07
3.48256e-07
3.4829e-07
3.48305e-07
3.48306e-07
3.48301e-07
3.48296e-07
3.48215e-07
3.48655e-07
3.49254e-07
3.49963e-07
3.50741e-07
3.5155e-07
3.52359e-07
3.53145e-07
3.53888e-07
3.54573e-07
3.55193e-07
3.55741e-07
3.56214e-07
3.56614e-07
3.56943e-07
3.57205e-07
3.57406e-07
3.57552e-07
3.5765e-07
3.57709e-07
3.57736e-07
3.57738e-07
3.57723e-07
3.57699e-07
3.57671e-07
3.57648e-07
3.57633e-07
3.59594e-07
3.59955e-07
3.60445e-07
3.61024e-07
3.61654e-07
3.62305e-07
3.62952e-07
3.63572e-07
3.64151e-07
3.64677e-07
3.65143e-07
3.65544e-07
3.65879e-07
3.6615e-07
3.66359e-07
3.66511e-07
3.66612e-07
3.66669e-07
3.66687e-07
3.66676e-07
3.66642e-07
3.66592e-07
3.66536e-07
3.66478e-07
3.66426e-07
3.66387e-07
3.66364e-07
3.70033e-07
3.70326e-07
3.70724e-07
3.7119e-07
3.71694e-07
3.7221e-07
3.72716e-07
3.73195e-07
3.73634e-07
3.74022e-07
3.74356e-07
3.74631e-07
3.74847e-07
3.75006e-07
3.75112e-07
3.7517e-07
3.75184e-07
3.75163e-07
3.75112e-07
3.7504e-07
3.74953e-07
3.7486e-07
3.74767e-07
3.7468e-07
3.74607e-07
3.74554e-07
3.74525e-07
3.79639e-07
3.79874e-07
3.80191e-07
3.80559e-07
3.80954e-07
3.81353e-07
3.81737e-07
3.82093e-07
3.82409e-07
3.82678e-07
3.82895e-07
3.8306e-07
3.83172e-07
3.83233e-07
3.83248e-07
3.83222e-07
3.83161e-07
3.83071e-07
3.8296e-07
3.82834e-07
3.82701e-07
3.82568e-07
3.82442e-07
3.82331e-07
3.82239e-07
3.82173e-07
3.82138e-07
3.88496e-07
3.8868e-07
3.88925e-07
3.89208e-07
3.89506e-07
3.89801e-07
3.90077e-07
3.90323e-07
3.9053e-07
3.90692e-07
3.90806e-07
3.90872e-07
3.9089e-07
3.90864e-07
3.90798e-07
3.90697e-07
3.90567e-07
3.90415e-07
3.90249e-07
3.90074e-07
3.89899e-07
3.89731e-07
3.89576e-07
3.89441e-07
3.89333e-07
3.89256e-07
3.89215e-07
3.96667e-07
3.96804e-07
3.96985e-07
3.9719e-07
3.974e-07
3.97601e-07
3.97779e-07
3.97926e-07
3.98033e-07
3.98098e-07
3.98117e-07
3.98092e-07
3.98025e-07
3.97918e-07
3.97776e-07
3.97606e-07
3.97412e-07
3.97203e-07
3.96985e-07
3.96766e-07
3.96551e-07
3.9635e-07
3.96168e-07
3.96012e-07
3.95887e-07
3.958e-07
3.95754e-07
4.04191e-07
4.04286e-07
4.04407e-07
4.0454e-07
4.04669e-07
4.04782e-07
4.04869e-07
4.04922e-07
4.04936e-07
4.04909e-07
4.04839e-07
4.04729e-07
4.0458e-07
4.04396e-07
4.04183e-07
4.03946e-07
4.03692e-07
4.03428e-07
4.03161e-07
4.02898e-07
4.02647e-07
4.02413e-07
4.02205e-07
4.02028e-07
4.01888e-07
4.0179e-07
4.0174e-07
4.11091e-07
4.11145e-07
4.1121e-07
4.11274e-07
4.11325e-07
4.11354e-07
4.11353e-07
4.11316e-07
4.1124e-07
4.11124e-07
4.10968e-07
4.10774e-07
4.10545e-07
4.10286e-07
4.10003e-07
4.09701e-07
4.09388e-07
4.0907e-07
4.08754e-07
4.08448e-07
4.08159e-07
4.07894e-07
4.0766e-07
4.07462e-07
4.07307e-07
4.07199e-07
4.07143e-07
4.17371e-07
4.17384e-07
4.17393e-07
4.1739e-07
4.17364e-07
4.1731e-07
4.17221e-07
4.17095e-07
4.1693e-07
4.16724e-07
4.16481e-07
4.16204e-07
4.15895e-07
4.1556e-07
4.15206e-07
4.14838e-07
4.14464e-07
4.1409e-07
4.13725e-07
4.13375e-07
4.13048e-07
4.12751e-07
4.12489e-07
4.12271e-07
4.121e-07
4.11982e-07
4.11921e-07
4.23014e-07
4.22987e-07
4.2294e-07
4.22867e-07
4.22763e-07
4.22624e-07
4.22447e-07
4.22229e-07
4.21971e-07
4.21674e-07
4.21342e-07
4.20977e-07
4.20585e-07
4.20172e-07
4.19743e-07
4.19306e-07
4.18869e-07
4.18437e-07
4.1802e-07
4.17624e-07
4.17257e-07
4.16925e-07
4.16636e-07
4.16394e-07
4.16207e-07
4.16078e-07
4.16011e-07
4.27988e-07
4.27918e-07
4.27812e-07
4.27668e-07
4.27483e-07
4.27255e-07
4.26983e-07
4.26669e-07
4.26314e-07
4.2592e-07
4.25493e-07
4.25036e-07
4.24555e-07
4.24058e-07
4.2355e-07
4.23039e-07
4.22533e-07
4.2204e-07
4.21567e-07
4.21121e-07
4.2071e-07
4.20342e-07
4.20021e-07
4.19756e-07
4.1955e-07
4.19409e-07
4.19337e-07
4.32241e-07
4.32126e-07
4.31957e-07
4.31736e-07
4.31463e-07
4.31139e-07
4.30767e-07
4.30349e-07
4.29888e-07
4.2939e-07
4.28859e-07
4.28302e-07
4.27725e-07
4.27136e-07
4.26541e-07
4.2595e-07
4.2537e-07
4.24808e-07
4.24273e-07
4.23773e-07
4.23315e-07
4.22905e-07
4.22551e-07
4.22259e-07
4.22034e-07
4.2188e-07
4.21801e-07
4.35701e-07
4.35537e-07
4.35299e-07
4.34994e-07
4.34625e-07
4.34196e-07
4.33713e-07
4.33181e-07
4.32605e-07
4.31991e-07
4.31346e-07
4.30678e-07
4.29995e-07
4.29304e-07
4.28613e-07
4.27932e-07
4.27269e-07
4.26632e-07
4.26028e-07
4.25467e-07
4.24956e-07
4.24501e-07
4.24109e-07
4.23787e-07
4.23539e-07
4.23371e-07
4.23285e-07
4.38276e-07
4.38057e-07
4.37743e-07
4.37344e-07
4.36869e-07
4.36324e-07
4.35718e-07
4.35058e-07
4.34353e-07
4.3361e-07
4.32838e-07
4.32046e-07
4.31243e-07
4.30438e-07
4.2964e-07
4.28858e-07
4.28101e-07
4.27379e-07
4.26698e-07
4.26069e-07
4.25497e-07
4.24991e-07
4.24557e-07
4.24201e-07
4.23928e-07
4.23743e-07
4.23649e-07
4.39852e-07
4.39572e-07
4.39173e-07
4.38669e-07
4.38074e-07
4.37398e-07
4.36654e-07
4.3585e-07
4.34999e-07
4.34111e-07
4.33196e-07
4.32264e-07
4.31326e-07
4.30392e-07
4.29472e-07
4.28577e-07
4.27714e-07
4.26895e-07
4.26128e-07
4.2542e-07
4.2478e-07
4.24216e-07
4.23734e-07
4.2334e-07
4.23038e-07
4.22834e-07
4.22731e-07
4.40294e-07
4.39945e-07
4.39449e-07
4.38827e-07
4.38096e-07
4.37272e-07
4.36371e-07
4.35405e-07
4.3439e-07
4.33337e-07
4.32259e-07
4.31168e-07
4.30078e-07
4.28998e-07
4.2794e-07
4.26915e-07
4.25933e-07
4.25004e-07
4.24138e-07
4.23342e-07
4.22625e-07
4.21995e-07
4.21458e-07
4.2102e-07
4.20686e-07
4.20461e-07
4.20347e-07
4.39442e-07
4.39015e-07
4.38409e-07
4.37653e-07
4.36769e-07
4.35777e-07
4.34698e-07
4.33549e-07
4.32346e-07
4.31107e-07
4.29844e-07
4.28575e-07
4.2731e-07
4.26065e-07
4.24851e-07
4.2368e-07
4.22562e-07
4.21509e-07
4.2053e-07
4.19635e-07
4.18831e-07
4.18126e-07
4.17526e-07
4.17039e-07
4.16669e-07
4.16419e-07
4.16293e-07
4.37116e-07
4.366e-07
4.35871e-07
4.34962e-07
4.33904e-07
4.32723e-07
4.31442e-07
4.30085e-07
4.28671e-07
4.2722e-07
4.2575e-07
4.24277e-07
4.22818e-07
4.21385e-07
4.19995e-07
4.18658e-07
4.17388e-07
4.16195e-07
4.15089e-07
4.14081e-07
4.13178e-07
4.12389e-07
4.1172e-07
4.11177e-07
4.10765e-07
4.10488e-07
4.10348e-07
4.33116e-07
4.32499e-07
4.31629e-07
4.30549e-07
4.29295e-07
4.279e-07
4.26393e-07
4.24801e-07
4.2315e-07
4.21461e-07
4.19757e-07
4.18056e-07
4.16377e-07
4.14735e-07
4.13146e-07
4.11625e-07
4.10183e-07
4.08833e-07
4.07586e-07
4.06452e-07
4.05439e-07
4.04555e-07
4.03808e-07
4.03203e-07
4.02745e-07
4.02437e-07
4.02283e-07
4.27223e-07
4.26493e-07
4.25467e-07
4.24194e-07
4.22721e-07
4.21086e-07
4.19325e-07
4.17472e-07
4.15556e-07
4.13603e-07
4.11638e-07
4.09683e-07
4.0776e-07
4.05885e-07
4.04077e-07
4.0235e-07
4.00718e-07
3.99195e-07
3.97791e-07
3.96517e-07
3.95382e-07
3.94395e-07
3.93561e-07
3.92887e-07
3.92378e-07
3.92037e-07
3.91866e-07
4.19211e-07
4.18356e-07
4.17155e-07
4.1567e-07
4.13953e-07
4.12053e-07
4.10012e-07
4.0787e-07
4.05661e-07
4.03416e-07
4.01165e-07
3.98932e-07
3.9674e-07
3.94611e-07
3.92562e-07
3.90611e-07
3.88772e-07
3.87059e-07
3.85485e-07
3.84059e-07
3.82792e-07
3.81691e-07
3.80763e-07
3.80015e-07
3.79451e-07
3.79073e-07
3.78884e-07
4.08854e-07
4.07862e-07
4.0647e-07
4.04751e-07
4.02768e-07
4.00579e-07
3.98233e-07
3.95776e-07
3.9325e-07
3.90689e-07
3.88128e-07
3.85594e-07
3.83114e-07
3.8071e-07
3.78403e-07
3.76211e-07
3.7415e-07
3.72235e-07
3.70477e-07
3.6889e-07
3.67481e-07
3.66259e-07
3.65232e-07
3.64405e-07
3.63781e-07
3.63365e-07
3.63156e-07
3.95941e-07
3.94801e-07
3.93203e-07
3.91233e-07
3.88965e-07
3.86465e-07
3.83793e-07
3.81001e-07
3.78136e-07
3.7524e-07
3.7235e-07
3.69499e-07
3.66714e-07
3.64021e-07
3.61443e-07
3.58999e-07
3.56706e-07
3.54579e-07
3.52632e-07
3.50876e-07
3.4932e-07
3.47974e-07
3.46843e-07
3.45934e-07
3.45249e-07
3.44793e-07
3.44564e-07
3.80294e-07
3.78998e-07
3.77184e-07
3.74949e-07
3.72381e-07
3.69557e-07
3.66544e-07
3.63403e-07
3.60188e-07
3.56946e-07
3.53717e-07
3.50539e-07
3.47442e-07
3.44455e-07
3.41601e-07
3.38901e-07
3.36373e-07
3.34033e-07
3.31894e-07
3.29968e-07
3.28265e-07
3.26793e-07
3.25559e-07
3.24568e-07
3.23823e-07
3.23326e-07
3.23078e-07
3.61793e-07
3.60338e-07
3.58302e-07
3.55798e-07
3.52925e-07
3.49772e-07
3.46415e-07
3.42923e-07
3.39356e-07
3.35768e-07
3.32203e-07
3.28701e-07
3.25298e-07
3.22021e-07
3.18897e-07
3.15948e-07
3.13192e-07
3.10646e-07
3.08323e-07
3.06234e-07
3.0439e-07
3.02799e-07
3.01466e-07
3.00396e-07
2.99594e-07
2.99059e-07
2.98792e-07
3.40405e-07
3.38792e-07
3.36537e-07
3.33769e-07
3.30598e-07
3.27125e-07
3.23435e-07
3.19606e-07
3.15703e-07
3.11786e-07
3.07904e-07
3.041e-07
3.0041e-07
2.96866e-07
2.93494e-07
2.90318e-07
2.87355e-07
2.84622e-07
2.82133e-07
2.79898e-07
2.77928e-07
2.76228e-07
2.74806e-07
2.73664e-07
2.72809e-07
2.7224e-07
2.71956e-07
3.16206e-07
3.14444e-07
3.11984e-07
3.08968e-07
3.05521e-07
3.01752e-07
2.97756e-07
2.93619e-07
2.89412e-07
2.85199e-07
2.81032e-07
2.76958e-07
2.73013e-07
2.6923e-07
2.65642e-07
2.62271e-07
2.59134e-07
2.56247e-07
2.53622e-07
2.51271e-07
2.49201e-07
2.4742e-07
2.45932e-07
2.44741e-07
2.43849e-07
2.43256e-07
2.42961e-07
2.89413e-07
2.8752e-07
2.84881e-07
2.8165e-07
2.77964e-07
2.7394e-07
2.69682e-07
2.6528e-07
2.60823e-07
2.56374e-07
2.51988e-07
2.47713e-07
2.43587e-07
2.39643e-07
2.35909e-07
2.32405e-07
2.29151e-07
2.26162e-07
2.23449e-07
2.21023e-07
2.1889e-07
2.17057e-07
2.15528e-07
2.14305e-07
2.1339e-07
2.12782e-07
2.1248e-07
2.60379e-07
2.58386e-07
2.55611e-07
2.52221e-07
2.48362e-07
2.44161e-07
2.39731e-07
2.35167e-07
2.30553e-07
2.25958e-07
2.2144e-07
2.17048e-07
2.1282e-07
2.08789e-07
2.04981e-07
2.01418e-07
1.98115e-07
1.95087e-07
1.92345e-07
1.89896e-07
1.87747e-07
1.85903e-07
1.84367e-07
1.8314e-07
1.82222e-07
1.81614e-07
1.81311e-07
2.29773e-07
2.2772e-07
2.24865e-07
2.21386e-07
2.17434e-07
2.13144e-07
2.08632e-07
2.03999e-07
1.99329e-07
1.94693e-07
1.90148e-07
1.85743e-07
1.81516e-07
1.77498e-07
1.73712e-07
1.70178e-07
1.66912e-07
1.63924e-07
1.61223e-07
1.58816e-07
1.56708e-07
1.54901e-07
1.53398e-07
1.522e-07
1.51305e-07
1.50711e-07
1.50417e-07
1.9832e-07
1.96257e-07
1.93393e-07
1.8991e-07
1.85964e-07
1.81694e-07
1.77218e-07
1.72637e-07
1.68035e-07
1.63482e-07
1.59035e-07
1.5474e-07
1.50632e-07
1.46739e-07
1.43084e-07
1.39681e-07
1.36545e-07
1.33683e-07
1.31103e-07
1.28809e-07
1.26803e-07
1.25087e-07
1.23662e-07
1.22527e-07
1.21681e-07
1.2112e-07
1.20842e-07
1.66917e-07
1.649e-07
1.62107e-07
1.58719e-07
1.54892e-07
1.50764e-07
1.46452e-07
1.42057e-07
1.37658e-07
1.33324e-07
1.29108e-07
1.25051e-07
1.21186e-07
1.17537e-07
1.14123e-07
1.10956e-07
1.08046e-07
1.05398e-07
1.03017e-07
1.00905e-07
9.90633e-08
9.74908e-08
9.61871e-08
9.51504e-08
9.43783e-08
9.38676e-08
9.36146e-08
1.36549e-07
1.34639e-07
1.32001e-07
1.28809e-07
1.25216e-07
1.21355e-07
1.17339e-07
1.13262e-07
1.09201e-07
1.05218e-07
1.0136e-07
9.76647e-08
9.41597e-08
9.08649e-08
8.77942e-08
8.4957e-08
8.23592e-08
8.0004e-08
7.78926e-08
7.60251e-08
7.44004e-08
7.30168e-08
7.18721e-08
7.09635e-08
7.02878e-08
6.98416e-08
6.96208e-08
1.08201e-07
1.06456e-07
1.04051e-07
1.01151e-07
9.78984e-08
9.44187e-08
9.08161e-08
8.71768e-08
8.35701e-08
8.00506e-08
7.66599e-08
7.34288e-08
7.03795e-08
6.75271e-08
6.48812e-08
6.24475e-08
6.02286e-08
5.82247e-08
5.6435e-08
5.48572e-08
5.34888e-08
5.23267e-08
5.13675e-08
5.06079e-08
5.00441e-08
4.96724e-08
4.94888e-08
8.27507e-08
8.12185e-08
7.91119e-08
7.65807e-08
7.37549e-08
7.07461e-08
6.76475e-08
6.45349e-08
6.14682e-08
5.84934e-08
5.56446e-08
5.2946e-08
5.04142e-08
4.80593e-08
4.58869e-08
4.38991e-08
4.20958e-08
4.04748e-08
3.90333e-08
3.77676e-08
3.66738e-08
3.5748e-08
3.49862e-08
3.43844e-08
3.39388e-08
3.36457e-08
3.3501e-08
6.08639e-08
5.95762e-08
5.78114e-08
5.56995e-08
5.33535e-08
5.08695e-08
4.83268e-08
4.57889e-08
4.33053e-08
4.09124e-08
3.86368e-08
3.6496e-08
3.45012e-08
3.26581e-08
3.09688e-08
2.94326e-08
2.80471e-08
2.68087e-08
2.5713e-08
2.47556e-08
2.39318e-08
2.32374e-08
2.2668e-08
2.22197e-08
2.18887e-08
2.16715e-08
2.15646e-08
4.29122e-08
4.18818e-08
4.04746e-08
3.87986e-08
3.69472e-08
3.49993e-08
3.30192e-08
3.10575e-08
2.91524e-08
2.73315e-08
2.56136e-08
2.40106e-08
2.25287e-08
2.11702e-08
1.99346e-08
1.88193e-08
1.78204e-08
1.69335e-08
1.61538e-08
1.54764e-08
1.48968e-08
1.44105e-08
1.40137e-08
1.37024e-08
1.34735e-08
1.33237e-08
1.32502e-08
2.89362e-08
2.81554e-08
2.70934e-08
2.58353e-08
2.44544e-08
2.30121e-08
2.15576e-08
2.01289e-08
1.87537e-08
1.74514e-08
1.62342e-08
1.51092e-08
1.4079e-08
1.31434e-08
1.23002e-08
1.15458e-08
1.0876e-08
1.02862e-08
9.77162e-09
9.32789e-09
8.95078e-09
8.63641e-09
8.3813e-09
8.18231e-09
8.03661e-09
7.9417e-09
7.89529e-09
1.86623e-08
1.81053e-08
1.73514e-08
1.64638e-08
1.54967e-08
1.44951e-08
1.34942e-08
1.25208e-08
1.15937e-08
1.07252e-08
9.92247e-09
9.18888e-09
8.52477e-09
7.92851e-09
7.39719e-09
6.92712e-09