/*--------------------------------*- C++ -*----------------------------------*\
| =========                 |                                                 |
| \\      /  F ield         | OpenFOAM: The Open Source CFD Toolbox           |
|  \\    /   O peration     | Version:  2106                                  |
|   \\  /    A nd           | Website:  www.openfoam.com                      |
|    \\/     M anipulation  |                                                 |
\*---------------------------------------------------------------------------*/
FoamFile
{
    version     2.0;
    format      ascii;
    arch        "LSB;label=32;scalar=64";
    class       volScalarField;
    location    "110.00057";
    object      CH3_0;
}
// * * * * * * * * * * * * * * * * * * * * * * * * * * * * * * * * * * * * * //

dimensions      [0 0 0 0 0 0 0];

internalField   nonuniform List<scalar> 
3360
(
1.04015e-25
1.10493e-25
1.19613e-25
1.30944e-25
1.4411e-25
1.58757e-25
1.7455e-25
1.91158e-25
2.08267e-25
2.25573e-25
2.42793e-25
2.59669e-25
2.75969e-25
2.91491e-25
3.06068e-25
3.19565e-25
3.31879e-25
3.42939e-25
3.52707e-25
3.61169e-25
3.68339e-25
3.74252e-25
3.78964e-25
3.82546e-25
3.85082e-25
3.86669e-25
3.87408e-25
5.23987e-25
5.60073e-25
6.11654e-25
6.7702e-25
7.54867e-25
8.441e-25
9.43726e-25
1.05279e-24
1.17032e-24
1.29531e-24
1.42666e-24
1.56321e-24
1.70363e-24
1.84651e-24
1.99031e-24
2.13338e-24
2.27396e-24
2.41023e-24
2.54027e-24
2.66216e-24
2.77397e-24
2.87385e-24
2.96009e-24
3.03113e-24
3.08566e-24
3.12263e-24
3.14133e-24
1.99078e-24
2.15372e-24
2.38949e-24
2.69306e-24
3.0612e-24
3.49139e-24
3.98106e-24
4.52718e-24
5.1258e-24
5.77183e-24
6.45884e-24
7.1791e-24
7.92389e-24
8.68345e-24
9.44713e-24
1.02037e-23
1.09414e-23
1.16489e-23
1.23147e-23
1.29286e-23
1.34812e-23
1.39646e-23
1.43726e-23
1.47007e-23
1.49462e-23
1.51085e-23
1.51884e-23
7.13787e-24
7.80508e-24
8.78269e-24
1.00592e-23
1.163e-23
1.34924e-23
1.56412e-23
1.80669e-23
2.07532e-23
2.36765e-23
2.68052e-23
3.00999e-23
3.35143e-23
3.69963e-23
4.04892e-23
4.3934e-23
4.72715e-23
5.04454e-23
5.34037e-23
5.61015e-23
5.85014e-23
6.05753e-23
6.23038e-23
6.36767e-23
6.4692e-23
6.53551e-23
6.56781e-23
2.6297e-23
2.89981e-23
3.29811e-23
3.82207e-23
4.47184e-23
5.24777e-23
6.14878e-23
7.17114e-23
8.30764e-23
9.54722e-23
1.08748e-22
1.22719e-22
1.37168e-22
1.51856e-22
1.66531e-22
1.80937e-22
1.94827e-22
2.0797e-22
2.20162e-22
2.31227e-22
2.41027e-22
2.49461e-22
2.56464e-22
2.62007e-22
2.66092e-22
2.68754e-22
2.70046e-22
9.93511e-23
1.10174e-22
1.26199e-22
1.47366e-22
1.73714e-22
2.05281e-22
2.42028e-22
2.83801e-22
3.30291e-22
3.81022e-22
4.35353e-22
4.92487e-22
5.51504e-22
6.11399e-22
6.71118e-22
7.29612e-22
7.85873e-22
8.38976e-22
8.8811e-22
9.32596e-22
9.71904e-22
1.00565e-21
1.03362e-21
1.05571e-21
1.07196e-21
1.08253e-21
1.08766e-21
3.81606e-22
4.24759e-22
4.88782e-22
5.73542e-22
6.79275e-22
8.06162e-22
9.54048e-22
1.12226e-21
1.30948e-21
1.51372e-21
1.73228e-21
1.9619e-21
2.19881e-21
2.43891e-21
2.67799e-21
2.91184e-21
3.13646e-21
3.3482e-21
3.54389e-21
3.72087e-21
3.87709e-21
4.01111e-21
4.12207e-21
4.20966e-21
4.27407e-21
4.31594e-21
4.33623e-21
1.4795e-21
1.65026e-21
1.90399e-21
2.24036e-21
2.6605e-21
3.16527e-21
3.7541e-21
4.4243e-21
5.17053e-21
5.98464e-21
6.85578e-21
7.77067e-21
8.71415e-21
9.66982e-21
1.06208e-20
1.15502e-20
1.24423e-20
1.32826e-20
1.40585e-20
1.47597e-20
1.53782e-20
1.59083e-20
1.63469e-20
1.66928e-20
1.69471e-20
1.71122e-20
1.71922e-20
5.77101e-21
6.44644e-21
7.4506e-21
8.78276e-21
1.04477e-20
1.2449e-20
1.47841e-20
1.74421e-20
2.04013e-20
2.36289e-20
2.70812e-20
3.0705e-20
3.44401e-20
3.82213e-20
4.19815e-20
4.56547e-20
4.91785e-20
5.24959e-20
5.55579e-20
5.83239e-20
6.07628e-20
6.28528e-20
6.45815e-20
6.59448e-20
6.69467e-20
6.75973e-20
6.79125e-20
2.25489e-20
2.52086e-20
2.91651e-20
3.44171e-20
4.09848e-20
4.88827e-20
5.81018e-20
6.8598e-20
8.0285e-20
9.3032e-20
1.06665e-19
1.20974e-19
1.35718e-19
1.5064e-19
1.65475e-19
1.79961e-19
1.93852e-19
2.06926e-19
2.18987e-19
2.29878e-19
2.39477e-19
2.47699e-19
2.54497e-19
2.59857e-19
2.63793e-19
2.66349e-19
2.67587e-19
8.82481e-20
9.87205e-20
1.14302e-19
1.34989e-19
1.60862e-19
1.91979e-19
2.28301e-19
2.69652e-19
3.15685e-19
3.65881e-19
4.19549e-19
4.75856e-19
5.33856e-19
5.92531e-19
6.50839e-19
7.07755e-19
7.62314e-19
8.13641e-19
8.60982e-19
9.03716e-19
9.41371e-19
9.73619e-19
1.00028e-18
1.02129e-18
1.03672e-18
1.04674e-18
1.05159e-18
3.45019e-19
3.86123e-19
4.47293e-19
5.28522e-19
6.3013e-19
7.52336e-19
8.94986e-19
1.05737e-18
1.23813e-18
1.4352e-18
1.64585e-18
1.86679e-18
2.0943e-18
2.32439e-18
2.55294e-18
2.77596e-18
2.98965e-18
3.1906e-18
3.37586e-18
3.54302e-18
3.69026e-18
3.8163e-18
3.92045e-18
4.00252e-18
4.06277e-18
4.10187e-18
4.1208e-18
1.34737e-18
1.50852e-18
1.74832e-18
2.06672e-18
2.46493e-18
2.94374e-18
3.50247e-18
4.13827e-18
4.84567e-18
5.61651e-18
6.44006e-18
7.30338e-18
8.19185e-18
9.08984e-18
9.98136e-18
1.08508e-17
1.16833e-17
1.24659e-17
1.31869e-17
1.38373e-17
1.44098e-17
1.48998e-17
1.53044e-17
1.56232e-17
1.58572e-17
1.6009e-17
1.60824e-17
5.24097e-18
5.86989e-18
6.80572e-18
8.04817e-18
9.60176e-18
1.14693e-17
1.36479e-17
1.61257e-17
1.88811e-17
2.18817e-17
2.50852e-17
2.84409e-17
3.18918e-17
3.53768e-17
3.88338e-17
4.22024e-17
4.54257e-17
4.84529e-17
5.12401e-17
5.37521e-17
5.5962e-17
5.78518e-17
5.94118e-17
6.06399e-17
6.15407e-17
6.21249e-17
6.24075e-17
2.02864e-17
2.27298e-17
2.63647e-17
3.11888e-17
3.72183e-17
4.44621e-17
5.29059e-17
6.25015e-17
7.31615e-17
8.47579e-17
9.71243e-17
1.10063e-16
1.23352e-16
1.36755e-16
1.50035e-16
1.6296e-16
1.75312e-16
1.869e-16
1.97558e-16
2.07153e-16
2.15587e-16
2.22793e-16
2.28737e-16
2.33412e-16
2.3684e-16
2.39061e-16
2.40135e-16
7.78817e-17
8.72917e-17
1.01285e-16
1.19846e-16
1.4303e-16
1.70858e-16
2.03263e-16
2.40047e-16
2.80859e-16
3.25193e-16
3.72402e-16
4.21718e-16
4.72289e-16
5.23213e-16
5.73585e-16
6.22527e-16
6.69229e-16
7.1297e-16
7.5314e-16
7.89253e-16
8.2095e-16
8.47996e-16
8.70277e-16
8.87784e-16
9.00605e-16
9.08905e-16
9.12916e-16
2.95782e-16
3.31604e-16
3.84838e-16
4.5539e-16
5.43412e-16
6.48931e-16
7.71617e-16
9.10639e-16
1.06459e-15
1.23149e-15
1.40883e-15
1.59367e-15
1.78278e-15
1.97278e-15
2.16029e-15
2.34207e-15
2.51514e-15
2.6769e-15
2.82515e-15
2.95817e-15
3.07472e-15
3.174e-15
3.25566e-15
3.31973e-15
3.36659e-15
3.39689e-15
3.41151e-15
1.10732e-15
1.24139e-15
1.44043e-15
1.70388e-15
2.03201e-15
2.4246e-15
2.88004e-15
3.39484e-15
3.96341e-15
4.57806e-15
5.22924e-15
5.90592e-15
6.59614e-15
7.28749e-15
7.96773e-15
8.62527e-15
9.24956e-15
9.83145e-15
1.03634e-14
1.08395e-14
1.12557e-14
1.16095e-14
1.19e-14
1.21275e-14
1.22936e-14
1.24008e-14
1.24525e-14
4.07318e-15
4.56353e-15
5.29031e-15
6.25018e-15
7.44267e-15
8.86516e-15
1.05099e-14
1.23625e-14
1.44009e-14
1.65958e-14
1.8912e-14
2.13093e-14
2.37448e-14
2.61748e-14
2.85568e-14
3.08508e-14
3.30213e-14
3.50378e-14
3.68755e-14
3.85157e-14
3.99456e-14
4.11581e-14
4.21512e-14
4.29274e-14
4.34932e-14
4.38579e-14
4.40334e-14
1.46927e-14
1.6432e-14
1.9003e-14
2.23869e-14
2.65735e-14
3.15445e-14
3.72637e-14
4.36715e-14
5.06837e-14
5.81931e-14
6.60739e-14
7.41869e-14
8.23861e-14
9.05259e-14
9.84664e-14
1.0608e-13
1.13252e-13
1.1989e-13
1.25917e-13
1.31279e-13
1.35939e-13
1.3988e-13
1.43101e-13
1.45612e-13
1.47439e-13
1.48615e-13
1.4918e-13
5.21121e-14
5.80651e-14
6.6824e-14
7.82832e-14
9.23621e-14
1.0895e-13
1.27876e-13
1.48898e-13
1.71703e-13
1.95912e-13
2.211e-13
2.46814e-13
2.72594e-13
2.97993e-13
3.22594e-13
3.46025e-13
3.67965e-13
3.88155e-13
4.06396e-13
4.2255e-13
4.36535e-13
4.4832e-13
4.57921e-13
4.65391e-13
4.70813e-13
4.74297e-13
4.75969e-13
1.83667e-13
2.03413e-13
2.32242e-13
2.6958e-13
3.14905e-13
3.67589e-13
4.26823e-13
4.91598e-13
5.60728e-13
6.32893e-13
7.06704e-13
7.80766e-13
8.53742e-13
9.2441e-13
9.91695e-13
1.0547e-12
1.11273e-12
1.16526e-12
1.21196e-12
1.25268e-12
1.28739e-12
1.31622e-12
1.33938e-12
1.35717e-12
1.36993e-12
1.37805e-12
1.38191e-12
6.5431e-13
7.19464e-13
8.13588e-13
9.33775e-13
1.07715e-12
1.24042e-12
1.41972e-12
1.61065e-12
1.80843e-12
2.00811e-12
2.20485e-12
2.39411e-12
2.57191e-12
2.735e-12
2.88094e-12
3.00823e-12
3.11616e-12
3.20478e-12
3.2746e-12
3.32652e-12
3.36199e-12
3.3831e-12
3.39252e-12
3.39332e-12
3.38886e-12
3.38258e-12
3.37784e-12
2.36634e-12
2.5882e-12
2.906e-12
3.30712e-12
3.77872e-12
4.30633e-12
4.87356e-12
5.46242e-12
6.05413e-12
6.63046e-12
7.17485e-12
7.67308e-12
8.11309e-12
8.4858e-12
8.79123e-12
9.04273e-12
9.26963e-12
9.51831e-12
9.84147e-12
1.02026e-11
1.05733e-11
1.09306e-11
1.1256e-11
1.15347e-11
1.17547e-11
1.1907e-11
1.19853e-11
8.36992e-12
9.1358e-12
1.02299e-11
1.16064e-11
1.3221e-11
1.50274e-11
1.69777e-11
1.9023e-11
2.11119e-11
2.3241e-11
2.55208e-11
2.82613e-11
3.18367e-11
3.60946e-11
4.09143e-11
4.61816e-11
5.17765e-11
5.75684e-11
6.34155e-11
6.91679e-11
7.4672e-11
7.97748e-11
8.43282e-11
8.81927e-11
9.12409e-11
9.33607e-11
9.44579e-11
2.67233e-11
2.92187e-11
3.27951e-11
3.72986e-11
4.26577e-11
4.90404e-11
5.71993e-11
6.91372e-11
8.49624e-11
1.04821e-10
1.28931e-10
1.57465e-10
1.90462e-10
2.27778e-10
2.69069e-10
3.13765e-10
3.61065e-10
4.09944e-10
4.59191e-10
5.07472e-10
5.53408e-10
5.95653e-10
6.3297e-10
6.64273e-10
6.88656e-10
7.054e-10
7.13964e-10
7.0905e-11
8.08019e-11
9.86401e-11
1.25082e-10
1.61819e-10
2.11154e-10
2.75745e-10
3.58329e-10
4.61339e-10
5.86627e-10
7.35067e-10
9.06072e-10
1.09721e-09
1.30408e-09
1.52064e-09
1.73988e-09
1.9548e-09
2.15916e-09
2.34804e-09
2.518e-09
2.66692e-09
2.79372e-09
2.8981e-09
2.98025e-09
3.04069e-09
3.08015e-09
3.09943e-09
3.25931e-10
3.91114e-10
4.95145e-10
6.45489e-10
8.51803e-10
1.12449e-09
1.47271e-09
1.90179e-09
2.41036e-09
2.98857e-09
3.61836e-09
4.27658e-09
4.93951e-09
5.58676e-09
6.20307e-09
6.77821e-09
7.30583e-09
7.78236e-09
8.20609e-09
8.5766e-09
8.8944e-09
9.16063e-09
9.37694e-09
9.5453e-09
9.66793e-09
9.74719e-09
9.78557e-09
1.82315e-09
2.15505e-09
2.66945e-09
3.38199e-09
4.30444e-09
5.43507e-09
6.7534e-09
8.22182e-09
9.79374e-09
1.14231e-08
1.30706e-08
1.47043e-08
1.62991e-08
1.78346e-08
1.92943e-08
2.06648e-08
2.19356e-08
2.30982e-08
2.41469e-08
2.50774e-08
2.58874e-08
2.65762e-08
2.71441e-08
2.75925e-08
2.79238e-08
2.8141e-08
2.82476e-08
8.6325e-09
9.7231e-09
1.1318e-08
1.33777e-08
1.58581e-08
1.87074e-08
2.18702e-08
2.52905e-08
2.89132e-08
3.26851e-08
3.6554e-08
4.04698e-08
4.43839e-08
4.82503e-08
5.20254e-08
5.56686e-08
5.91426e-08
6.24133e-08
6.54497e-08
6.82237e-08
7.07104e-08
7.28872e-08
7.47344e-08
7.62351e-08
7.73748e-08
7.81421e-08
7.85284e-08
2.57804e-08
2.80618e-08
3.13615e-08
3.55914e-08
4.06796e-08
4.65592e-08
5.31621e-08
6.04168e-08
6.82467e-08
7.65693e-08
8.52962e-08
9.43342e-08
1.03585e-07
1.12947e-07
1.22315e-07
1.3158e-07
1.40632e-07
1.49359e-07
1.57648e-07
1.65387e-07
1.72469e-07
1.78786e-07
1.84241e-07
1.88742e-07
1.92208e-07
1.9457e-07
1.95773e-07
5.52765e-08
5.93631e-08
6.52888e-08
7.29166e-08
8.21482e-08
9.28989e-08
1.05085e-07
1.18617e-07
1.3339e-07
1.49288e-07
1.66173e-07
1.83888e-07
2.02256e-07
2.21078e-07
2.40133e-07
2.59182e-07
2.77972e-07
2.96235e-07
3.13699e-07
3.30093e-07
3.45151e-07
3.58619e-07
3.70263e-07
3.79875e-07
3.87272e-07
3.92306e-07
3.94862e-07
9.68751e-08
1.03258e-07
1.12515e-07
1.2444e-07
1.3889e-07
1.55748e-07
1.74899e-07
1.96218e-07
2.19555e-07
2.44727e-07
2.71516e-07
2.99658e-07
3.28848e-07
3.58741e-07
3.88954e-07
4.19075e-07
4.48672e-07
4.77304e-07
5.04532e-07
5.29932e-07
5.53102e-07
5.73678e-07
5.91335e-07
6.05798e-07
6.16843e-07
6.24303e-07
6.28063e-07
1.47813e-07
1.56615e-07
1.69356e-07
1.85726e-07
2.05504e-07
2.28495e-07
2.54507e-07
2.83321e-07
3.14684e-07
3.48289e-07
3.8378e-07
4.20746e-07
4.58728e-07
4.97226e-07
5.35713e-07
5.73646e-07
6.10482e-07
6.45694e-07
6.78781e-07
7.09281e-07
7.36781e-07
7.60926e-07
7.81419e-07
7.98029e-07
8.10586e-07
8.18986e-07
8.23181e-07
2.06428e-07
2.17469e-07
2.3338e-07
2.53699e-07
2.78062e-07
3.06132e-07
3.37565e-07
3.71988e-07
4.08986e-07
4.48097e-07
4.88816e-07
5.30599e-07
5.72878e-07
6.15075e-07
6.56611e-07
6.96928e-07
7.35498e-07
7.71836e-07
8.05505e-07
8.3613e-07
8.63394e-07
8.87045e-07
9.06892e-07
9.22809e-07
9.34723e-07
9.42619e-07
9.4653e-07
2.74419e-07
2.8722e-07
3.05537e-07
3.28706e-07
3.56167e-07
3.87389e-07
4.21844e-07
4.58988e-07
4.98254e-07
5.39061e-07
5.80816e-07
6.22926e-07
6.64813e-07
7.05924e-07
7.45741e-07
7.83793e-07
8.1966e-07
8.52979e-07
8.83447e-07
9.10817e-07
9.34904e-07
9.55575e-07
9.72751e-07
9.86399e-07
9.96529e-07
1.00319e-06
1.00647e-06
3.53603e-07
3.67306e-07
3.86746e-07
4.11061e-07
4.39499e-07
4.71354e-07
5.05949e-07
5.42622e-07
5.80733e-07
6.19664e-07
6.58825e-07
6.97668e-07
7.3569e-07
7.72436e-07
8.0751e-07
8.40571e-07
8.71335e-07
8.99572e-07
9.25107e-07
9.47812e-07
9.67607e-07
9.84448e-07
9.98332e-07
1.00929e-06
1.01736e-06
1.02265e-06
1.02523e-06
4.41388e-07
4.54881e-07
4.73863e-07
4.9735e-07
5.24472e-07
5.54431e-07
5.86487e-07
6.19954e-07
6.54202e-07
6.88657e-07
7.22806e-07
7.56197e-07
7.8844e-07
8.19203e-07
8.48215e-07
8.75257e-07
9.00161e-07
9.22803e-07
9.43101e-07
9.61009e-07
9.76509e-07
9.89612e-07
1.00035e-06
1.00878e-06
1.01497e-06
1.019e-06
1.02096e-06
5.30471e-07
5.42726e-07
5.5984e-07
5.80821e-07
6.04788e-07
6.3095e-07
6.58598e-07
6.87098e-07
7.15894e-07
7.44506e-07
7.72523e-07
7.99604e-07
8.2547e-07
8.49899e-07
8.7272e-07
8.93807e-07
9.13072e-07
9.30462e-07
9.4595e-07
9.59533e-07
9.71229e-07
9.8107e-07
9.89102e-07
9.95384e-07
9.9998e-07
1.00296e-06
1.00442e-06
6.12324e-07
6.22669e-07
6.37033e-07
6.5451e-07
6.74302e-07
6.95704e-07
7.18096e-07
7.40945e-07
7.63798e-07
7.86281e-07
8.08087e-07
8.28974e-07
8.48754e-07
8.67287e-07
8.84473e-07
9.00247e-07
9.14571e-07
9.2743e-07
9.38826e-07
9.48777e-07
9.57313e-07
9.6447e-07
9.70296e-07
9.7484e-07
9.78159e-07
9.80309e-07
9.81353e-07
6.80663e-07
6.88853e-07
7.00172e-07
7.13862e-07
7.29258e-07
7.45781e-07
7.62931e-07
7.8029e-07
7.97511e-07
8.1432e-07
8.30498e-07
8.45882e-07
8.60351e-07
8.73822e-07
8.86241e-07
8.97579e-07
9.07825e-07
9.16983e-07
9.25068e-07
9.32105e-07
9.38123e-07
9.43158e-07
9.47247e-07
9.50431e-07
9.52753e-07
9.54256e-07
9.54985e-07
7.32734e-07
7.38853e-07
7.47278e-07
7.57417e-07
7.68755e-07
7.80846e-07
7.93312e-07
8.05844e-07
8.18192e-07
8.30162e-07
8.41608e-07
8.52423e-07
8.62536e-07
8.71899e-07
8.80487e-07
8.88291e-07
8.95314e-07
9.01568e-07
9.07072e-07
9.11849e-07
9.15925e-07
9.19328e-07
9.22088e-07
9.24234e-07
9.25797e-07
9.26809e-07
9.27299e-07
7.68819e-07
7.73138e-07
7.79064e-07
7.86163e-07
7.9406e-07
8.02431e-07
8.11009e-07
8.19575e-07
8.27961e-07
8.36036e-07
8.43708e-07
8.50912e-07
8.57608e-07
8.63773e-07
8.69399e-07
8.74487e-07
8.79046e-07
8.83091e-07
8.86639e-07
8.8971e-07
8.92324e-07
8.94502e-07
8.96266e-07
8.97636e-07
8.98633e-07
8.99279e-07
8.99591e-07
7.90999e-07
7.93854e-07
7.97757e-07
8.02411e-07
8.07556e-07
8.12975e-07
8.18487e-07
8.23951e-07
8.29257e-07
8.34326e-07
8.39103e-07
8.43555e-07
8.47661e-07
8.51414e-07
8.54815e-07
8.57872e-07
8.60595e-07
8.62999e-07
8.65098e-07
8.66908e-07
8.68443e-07
8.6972e-07
8.70751e-07
8.71552e-07
8.72134e-07
8.7251e-07
8.72693e-07
8.02044e-07
8.03766e-07
8.06106e-07
8.08877e-07
8.11914e-07
8.15081e-07
8.18267e-07
8.21387e-07
8.2438e-07
8.27201e-07
8.29824e-07
8.32234e-07
8.34428e-07
8.36406e-07
8.38175e-07
8.39746e-07
8.4113e-07
8.42339e-07
8.43384e-07
8.44279e-07
8.45032e-07
8.45655e-07
8.46156e-07
8.46544e-07
8.46826e-07
8.47008e-07
8.47096e-07
8.04706e-07
8.05579e-07
8.06753e-07
8.08121e-07
8.09594e-07
8.11095e-07
8.12567e-07
8.13967e-07
8.15267e-07
8.16449e-07
8.17506e-07
8.18438e-07
8.19249e-07
8.19947e-07
8.20543e-07
8.21047e-07
8.2147e-07
8.21823e-07
8.22115e-07
8.22354e-07
8.22549e-07
8.22705e-07
8.22828e-07
8.22921e-07
8.22987e-07
8.2303e-07
8.23051e-07
8.01364e-07
8.01619e-07
8.01945e-07
8.02298e-07
8.02639e-07
8.02939e-07
8.03178e-07
8.03344e-07
8.03432e-07
8.03445e-07
8.03387e-07
8.03268e-07
8.031e-07
8.02892e-07
8.02659e-07
8.02409e-07
8.02155e-07
8.01905e-07
8.01665e-07
8.01444e-07
8.01245e-07
8.01072e-07
8.00927e-07
8.00812e-07
8.00727e-07
8.00672e-07
8.00645e-07
7.93917e-07
7.93734e-07
7.9346e-07
7.93093e-07
7.92634e-07
7.92088e-07
7.9146e-07
7.90759e-07
7.9e-07
7.89195e-07
7.88359e-07
7.87509e-07
7.86659e-07
7.85823e-07
7.85013e-07
7.84241e-07
7.83517e-07
7.82848e-07
7.82241e-07
7.817e-07
7.81228e-07
7.80826e-07
7.80496e-07
7.80236e-07
7.80045e-07
7.79921e-07
7.79861e-07
7.83808e-07
7.83321e-07
7.82631e-07
7.81767e-07
7.80757e-07
7.79627e-07
7.78403e-07
7.77109e-07
7.75768e-07
7.74405e-07
7.73038e-07
7.7169e-07
7.70375e-07
7.69111e-07
7.6791e-07
7.66784e-07
7.6574e-07
7.64787e-07
7.63929e-07
7.6317e-07
7.62512e-07
7.61955e-07
7.61497e-07
7.61139e-07
7.60875e-07
7.60704e-07
7.60621e-07
7.72087e-07
7.71396e-07
7.70425e-07
7.69227e-07
7.67847e-07
7.66326e-07
7.64704e-07
7.63013e-07
7.61286e-07
7.5955e-07
7.57832e-07
7.56153e-07
7.54531e-07
7.52983e-07
7.51523e-07
7.50162e-07
7.48907e-07
7.47765e-07
7.46742e-07
7.45838e-07
7.45055e-07
7.44394e-07
7.43852e-07
7.43427e-07
7.43115e-07
7.42912e-07
7.42813e-07
7.595e-07
7.58675e-07
7.57522e-07
7.56107e-07
7.54487e-07
7.52714e-07
7.50834e-07
7.48889e-07
7.46913e-07
7.4494e-07
7.42996e-07
7.41106e-07
7.39288e-07
7.3756e-07
7.35935e-07
7.34423e-07
7.33033e-07
7.31771e-07
7.30641e-07
7.29644e-07
7.28782e-07
7.28053e-07
7.27456e-07
7.26988e-07
7.26644e-07
7.2642e-07
7.26311e-07
7.46557e-07
7.4565e-07
7.44384e-07
7.42835e-07
7.41068e-07
7.39141e-07
7.37104e-07
7.35003e-07
7.32877e-07
7.3076e-07
7.2868e-07
7.26662e-07
7.24727e-07
7.2289e-07
7.21165e-07
7.19563e-07
7.18092e-07
7.16757e-07
7.15562e-07
7.14508e-07
7.13597e-07
7.12827e-07
7.12196e-07
7.11701e-07
7.11337e-07
7.111e-07
7.10985e-07
7.33599e-07
7.32645e-07
7.31316e-07
7.29692e-07
7.27842e-07
7.25828e-07
7.23704e-07
7.21517e-07
7.19308e-07
7.17112e-07
7.14958e-07
7.12871e-07
7.10871e-07
7.08975e-07
7.07196e-07
7.05545e-07
7.04029e-07
7.02654e-07
7.01423e-07
7.00338e-07
6.99399e-07
6.98605e-07
6.97954e-07
6.97444e-07
6.97068e-07
6.96824e-07
6.96704e-07
7.20844e-07
7.19867e-07
7.18508e-07
7.16847e-07
7.14958e-07
7.12904e-07
7.1074e-07
7.08515e-07
7.06269e-07
7.04038e-07
7.01851e-07
6.99734e-07
6.97707e-07
6.95785e-07
6.93983e-07
6.9231e-07
6.90774e-07
6.8938e-07
6.88133e-07
6.87033e-07
6.86081e-07
6.85276e-07
6.84615e-07
6.84096e-07
6.83715e-07
6.83466e-07
6.83345e-07
7.08419e-07
7.07435e-07
7.06067e-07
7.04397e-07
7.02499e-07
7.00435e-07
6.98263e-07
6.96029e-07
6.93777e-07
6.9154e-07
6.89348e-07
6.87226e-07
6.85195e-07
6.83269e-07
6.81463e-07
6.79786e-07
6.78247e-07
6.76849e-07
6.75598e-07
6.74494e-07
6.73538e-07
6.72729e-07
6.72065e-07
6.71543e-07
6.71159e-07
6.70908e-07
6.70786e-07
6.96387e-07
6.95408e-07
6.94046e-07
6.92383e-07
6.90493e-07
6.8844e-07
6.86278e-07
6.84056e-07
6.81816e-07
6.79591e-07
6.77411e-07
6.753e-07
6.73278e-07
6.71362e-07
6.69565e-07
6.67895e-07
6.66361e-07
6.64968e-07
6.6372e-07
6.62619e-07
6.61665e-07
6.60857e-07
6.60193e-07
6.59671e-07
6.59287e-07
6.59036e-07
6.58913e-07
6.84771e-07
6.83802e-07
6.82453e-07
6.80808e-07
6.78937e-07
6.76905e-07
6.74765e-07
6.72566e-07
6.70347e-07
6.68144e-07
6.65985e-07
6.63894e-07
6.6189e-07
6.59991e-07
6.58207e-07
6.5655e-07
6.55027e-07
6.53644e-07
6.52403e-07
6.51308e-07
6.50358e-07
6.49554e-07
6.48892e-07
6.48372e-07
6.47989e-07
6.47738e-07
6.47616e-07
6.73557e-07
6.726e-07
6.7127e-07
6.69646e-07
6.678e-07
6.65793e-07
6.63681e-07
6.61508e-07
6.59316e-07
6.57139e-07
6.55004e-07
6.52936e-07
6.50953e-07
6.49072e-07
6.47306e-07
6.45664e-07
6.44153e-07
6.4278e-07
6.41548e-07
6.4046e-07
6.39516e-07
6.38715e-07
6.38057e-07
6.37538e-07
6.37156e-07
6.36907e-07
6.36784e-07
6.6271e-07
6.61767e-07
6.60455e-07
6.58854e-07
6.57033e-07
6.55053e-07
6.52967e-07
6.50822e-07
6.48657e-07
6.46505e-07
6.44394e-07
6.42347e-07
6.40384e-07
6.38521e-07
6.3677e-07
6.35142e-07
6.33643e-07
6.32279e-07
6.31055e-07
6.29973e-07
6.29033e-07
6.28236e-07
6.27581e-07
6.27064e-07
6.26683e-07
6.26433e-07
6.26311e-07
6.52178e-07
6.51247e-07
6.49952e-07
6.48371e-07
6.46573e-07
6.44616e-07
6.42555e-07
6.40433e-07
6.38291e-07
6.3616e-07
6.34069e-07
6.3204e-07
6.30094e-07
6.28245e-07
6.26506e-07
6.24887e-07
6.23396e-07
6.2204e-07
6.20821e-07
6.19743e-07
6.18806e-07
6.18011e-07
6.17356e-07
6.1684e-07
6.16459e-07
6.16209e-07
6.16087e-07
6.41893e-07
6.40972e-07
6.39691e-07
6.38126e-07
6.36345e-07
6.34407e-07
6.32363e-07
6.30259e-07
6.28133e-07
6.26017e-07
6.23939e-07
6.21922e-07
6.19985e-07
6.18144e-07
6.16412e-07
6.14798e-07
6.13311e-07
6.11956e-07
6.10739e-07
6.09661e-07
6.08724e-07
6.07928e-07
6.07272e-07
6.06755e-07
6.06373e-07
6.06122e-07
6.06e-07
6.31777e-07
6.30863e-07
6.2959e-07
6.28035e-07
6.26264e-07
6.24336e-07
6.22303e-07
6.20207e-07
6.18089e-07
6.15979e-07
6.13905e-07
6.11891e-07
6.09956e-07
6.08115e-07
6.06381e-07
6.04765e-07
6.03275e-07
6.01917e-07
6.00696e-07
5.99614e-07
5.98672e-07
5.97872e-07
5.97213e-07
5.96692e-07
5.96308e-07
5.96056e-07
5.95932e-07
6.2174e-07
6.20828e-07
6.19557e-07
6.18004e-07
6.16235e-07
6.14308e-07
6.12274e-07
6.10176e-07
6.08054e-07
6.05939e-07
6.0386e-07
6.01838e-07
5.99894e-07
5.98044e-07
5.963e-07
5.94673e-07
5.93173e-07
5.91804e-07
5.90572e-07
5.8948e-07
5.8853e-07
5.87722e-07
5.87055e-07
5.86528e-07
5.86139e-07
5.85884e-07
5.85759e-07
6.11682e-07
6.10766e-07
6.0949e-07
6.0793e-07
6.06152e-07
6.04214e-07
6.02167e-07
6.00055e-07
5.97916e-07
5.95784e-07
5.93685e-07
5.91644e-07
5.89679e-07
5.87808e-07
5.86043e-07
5.84396e-07
5.82876e-07
5.81488e-07
5.80238e-07
5.7913e-07
5.78165e-07
5.77344e-07
5.76666e-07
5.76131e-07
5.75735e-07
5.75475e-07
5.75347e-07
6.01491e-07
6.00566e-07
5.99276e-07
5.97698e-07
5.95899e-07
5.93936e-07
5.91862e-07
5.89721e-07
5.87551e-07
5.85386e-07
5.83254e-07
5.81178e-07
5.79179e-07
5.77274e-07
5.75477e-07
5.73798e-07
5.72247e-07
5.70831e-07
5.69555e-07
5.68423e-07
5.67437e-07
5.66597e-07
5.65904e-07
5.65355e-07
5.6495e-07
5.64684e-07
5.64553e-07
5.91044e-07
5.90102e-07
5.88788e-07
5.87181e-07
5.85346e-07
5.83344e-07
5.81227e-07
5.7904e-07
5.76822e-07
5.74608e-07
5.72426e-07
5.703e-07
5.68252e-07
5.66299e-07
5.64455e-07
5.62731e-07
5.61138e-07
5.59683e-07
5.58371e-07
5.57206e-07
5.56191e-07
5.55327e-07
5.54613e-07
5.54048e-07
5.5363e-07
5.53356e-07
5.53221e-07
5.80205e-07
5.79238e-07
5.7789e-07
5.76238e-07
5.74353e-07
5.72295e-07
5.70117e-07
5.67866e-07
5.65582e-07
5.63299e-07
5.61049e-07
5.58856e-07
5.56741e-07
5.54723e-07
5.52817e-07
5.51035e-07
5.49387e-07
5.4788e-07
5.46522e-07
5.45315e-07
5.44263e-07
5.43367e-07
5.42627e-07
5.42041e-07
5.41608e-07
5.41323e-07
5.41183e-07
5.68824e-07
5.67824e-07
5.66428e-07
5.64719e-07
5.62766e-07
5.60633e-07
5.58374e-07
5.56039e-07
5.53667e-07
5.51297e-07
5.48958e-07
5.46677e-07
5.44477e-07
5.42377e-07
5.40392e-07
5.38536e-07
5.36818e-07
5.35248e-07
5.33831e-07
5.32572e-07
5.31475e-07
5.30539e-07
5.29766e-07
5.29155e-07
5.28702e-07
5.28404e-07
5.28258e-07
5.56739e-07
5.55696e-07
5.5424e-07
5.52455e-07
5.50416e-07
5.48188e-07
5.45828e-07
5.43385e-07
5.40905e-07
5.38423e-07
5.35974e-07
5.33585e-07
5.3128e-07
5.29078e-07
5.26996e-07
5.25049e-07
5.23246e-07
5.21598e-07
5.20111e-07
5.18789e-07
5.17636e-07
5.16653e-07
5.15841e-07
5.15198e-07
5.14722e-07
5.14409e-07
5.14256e-07
5.43774e-07
5.42677e-07
5.41146e-07
5.39269e-07
5.37124e-07
5.34779e-07
5.32294e-07
5.29721e-07
5.27107e-07
5.24492e-07
5.2191e-07
5.1939e-07
5.16957e-07
5.14633e-07
5.12436e-07
5.1038e-07
5.08476e-07
5.06735e-07
5.05164e-07
5.03767e-07
5.02549e-07
5.01511e-07
5.00652e-07
4.99972e-07
4.99469e-07
4.99139e-07
4.98976e-07
5.29741e-07
5.2858e-07
5.26959e-07
5.24971e-07
5.22699e-07
5.20214e-07
5.17579e-07
5.14852e-07
5.1208e-07
5.09306e-07
5.06566e-07
5.03892e-07
5.01311e-07
4.98844e-07
4.96512e-07
4.94329e-07
4.92308e-07
4.90459e-07
4.88791e-07
4.87307e-07
4.86014e-07
4.84911e-07
4.83999e-07
4.83277e-07
4.82743e-07
4.82392e-07
4.82219e-07
5.14446e-07
5.13209e-07
5.11482e-07
5.09364e-07
5.06943e-07
5.04295e-07
5.01487e-07
4.98579e-07
4.95624e-07
4.92667e-07
4.89746e-07
4.86895e-07
4.84142e-07
4.81512e-07
4.79025e-07
4.76697e-07
4.74543e-07
4.72572e-07
4.70793e-07
4.69212e-07
4.67833e-07
4.66658e-07
4.65686e-07
4.64917e-07
4.64347e-07
4.63973e-07
4.6379e-07
4.97689e-07
4.96365e-07
4.94517e-07
4.9225e-07
4.89659e-07
4.86824e-07
4.83819e-07
4.80707e-07
4.77545e-07
4.7438e-07
4.71254e-07
4.68204e-07
4.6526e-07
4.62447e-07
4.59787e-07
4.57299e-07
4.54996e-07
4.52889e-07
4.50989e-07
4.493e-07
4.47827e-07
4.46571e-07
4.45534e-07
4.44713e-07
4.44105e-07
4.43706e-07
4.43509e-07
4.79277e-07
4.77856e-07
4.75871e-07
4.73438e-07
4.70656e-07
4.67614e-07
4.64389e-07
4.61051e-07
4.5766e-07
4.54267e-07
4.50917e-07
4.47648e-07
4.44494e-07
4.41482e-07
4.38635e-07
4.35972e-07
4.33508e-07
4.31256e-07
4.29224e-07
4.27418e-07
4.25845e-07
4.24504e-07
4.23396e-07
4.22519e-07
4.2187e-07
4.21444e-07
4.21235e-07
4.59033e-07
4.57504e-07
4.55371e-07
4.52756e-07
4.49767e-07
4.465e-07
4.43038e-07
4.39456e-07
4.35818e-07
4.3218e-07
4.2859e-07
4.25089e-07
4.21713e-07
4.1849e-07
4.15445e-07
4.12598e-07
4.09966e-07
4.07561e-07
4.05392e-07
4.03466e-07
4.01787e-07
4.00358e-07
3.99177e-07
3.98243e-07
3.97552e-07
3.97099e-07
3.96876e-07
4.3681e-07
4.35168e-07
4.32876e-07
4.30069e-07
4.26861e-07
4.23357e-07
4.19646e-07
4.15809e-07
4.11914e-07
4.08022e-07
4.04185e-07
4.00445e-07
3.96841e-07
3.93403e-07
3.90157e-07
3.87125e-07
3.84323e-07
3.81764e-07
3.79458e-07
3.77411e-07
3.75629e-07
3.74111e-07
3.72859e-07
3.71868e-07
3.71136e-07
3.70655e-07
3.70419e-07
4.12513e-07
4.10754e-07
4.08301e-07
4.05297e-07
4.01867e-07
3.98122e-07
3.94161e-07
3.90067e-07
3.85916e-07
3.81773e-07
3.7769e-07
3.73716e-07
3.69889e-07
3.66243e-07
3.62803e-07
3.59593e-07
3.56628e-07
3.53923e-07
3.51487e-07
3.49327e-07
3.47446e-07
3.45847e-07
3.44527e-07
3.43484e-07
3.42713e-07
3.42207e-07
3.41959e-07
3.86119e-07
3.84246e-07
3.81635e-07
3.78439e-07
3.74794e-07
3.70818e-07
3.66616e-07
3.62279e-07
3.57887e-07
3.53508e-07
3.49199e-07
3.4501e-07
3.4098e-07
3.37146e-07
3.33533e-07
3.30164e-07
3.27056e-07
3.24224e-07
3.21675e-07
3.19417e-07
3.17452e-07
3.15782e-07
3.14405e-07
3.13316e-07
3.12512e-07
3.11985e-07
3.11727e-07
3.57699e-07
3.5572e-07
3.52962e-07
3.49591e-07
3.45749e-07
3.41564e-07
3.37147e-07
3.32594e-07
3.2799e-07
3.23405e-07
3.18901e-07
3.14526e-07
3.10325e-07
3.0633e-07
3.02574e-07
2.99077e-07
2.95856e-07
2.92925e-07
2.90291e-07
2.8796e-07
2.85935e-07
2.84216e-07
2.82799e-07
2.81682e-07
2.80857e-07
2.80317e-07
2.80052e-07
3.27442e-07
3.25373e-07
3.22492e-07
3.18975e-07
3.14971e-07
3.10615e-07
3.06024e-07
3.01298e-07
2.96531e-07
2.91796e-07
2.87153e-07
2.82655e-07
2.78343e-07
2.74253e-07
2.70413e-07
2.66842e-07
2.63559e-07
2.60574e-07
2.57896e-07
2.55529e-07
2.53475e-07
2.51732e-07
2.50299e-07
2.49169e-07
2.48336e-07
2.47791e-07
2.47523e-07
2.95662e-07
2.9353e-07
2.90566e-07
2.86951e-07
2.82844e-07
2.78385e-07
2.73697e-07
2.68883e-07
2.64035e-07
2.59228e-07
2.54525e-07
2.49979e-07
2.4563e-07
2.41514e-07
2.37656e-07
2.34076e-07
2.3079e-07
2.27809e-07
2.25138e-07
2.22781e-07
2.20739e-07
2.19009e-07
2.17588e-07
2.16468e-07
2.15644e-07
2.15105e-07
2.14841e-07
2.62921e-07
2.60763e-07
2.57766e-07
2.54117e-07
2.49979e-07
2.45497e-07
2.40795e-07
2.3598e-07
2.31144e-07
2.2636e-07
2.21693e-07
2.17192e-07
2.12899e-07
2.08844e-07
2.05054e-07
2.01546e-07
1.98332e-07
1.95422e-07
1.92821e-07
1.9053e-07
1.88548e-07
1.86872e-07
1.85496e-07
1.84415e-07
1.83619e-07
1.831e-07
1.82846e-07
2.29862e-07
2.27722e-07
2.24755e-07
2.2115e-07
2.17072e-07
2.12665e-07
2.08056e-07
2.03349e-07
1.98636e-07
1.93989e-07
1.89469e-07
1.85124e-07
1.80992e-07
1.77102e-07
1.73475e-07
1.70127e-07
1.67069e-07
1.64307e-07
1.61843e-07
1.59678e-07
1.57808e-07
1.5623e-07
1.54938e-07
1.53923e-07
1.53178e-07
1.52691e-07
1.52454e-07
1.97273e-07
1.95204e-07
1.9234e-07
1.88867e-07
1.8495e-07
1.80731e-07
1.76331e-07
1.71854e-07
1.67387e-07
1.62999e-07
1.58746e-07
1.54673e-07
1.50813e-07
1.47192e-07
1.43827e-07
1.40731e-07
1.37911e-07
1.35372e-07
1.33113e-07
1.31132e-07
1.29427e-07
1.2799e-07
1.26816e-07
1.25896e-07
1.25221e-07
1.24781e-07
1.24567e-07
1.66029e-07
1.64086e-07
1.61401e-07
1.58155e-07
1.54503e-07
1.50584e-07
1.46512e-07
1.42387e-07
1.38286e-07
1.34275e-07
1.30405e-07
1.26713e-07
1.23228e-07
1.19972e-07
1.16958e-07
1.14196e-07
1.11688e-07
1.09437e-07
1.07441e-07
1.05697e-07
1.04198e-07
1.02939e-07
1.01912e-07
1.01109e-07
1.00521e-07
1.00139e-07
9.9953e-08
1.37012e-07
1.35246e-07
1.32812e-07
1.29877e-07
1.26588e-07
1.23072e-07
1.19434e-07
1.15765e-07
1.12135e-07
1.08601e-07
1.05207e-07
1.01984e-07
9.89569e-08
9.61407e-08
9.35453e-08
9.11758e-08
8.90338e-08
8.7118e-08
8.54251e-08
8.395e-08
8.26868e-08
8.16284e-08
8.07674e-08
8.00957e-08
7.9605e-08
7.92866e-08
7.91319e-08
1.11004e-07
1.09458e-07
1.07332e-07
1.04777e-07
1.01925e-07
9.88886e-08
9.57627e-08
9.26248e-08
8.95365e-08
8.65454e-08
8.36873e-08
8.09878e-08
7.84645e-08
7.61284e-08
7.39855e-08
7.20379e-08
7.02847e-08
6.87228e-08
6.73477e-08
6.61537e-08
6.51344e-08
6.42829e-08
6.3592e-08
6.30544e-08
6.26624e-08
6.24087e-08
6.22856e-08
8.85844e-08
8.72841e-08
8.55008e-08
8.33653e-08
8.09911e-08
7.8475e-08
7.58977e-08
7.33238e-08
7.0804e-08
6.83766e-08
6.60696e-08
6.39019e-08
6.18861e-08
6.0029e-08
5.83335e-08
5.67993e-08
5.54239e-08
5.42035e-08
5.31329e-08
5.22064e-08
5.14178e-08
5.0761e-08
5.02294e-08
4.98166e-08
4.95163e-08
4.93222e-08
4.92282e-08
7.00406e-08
6.89917e-08
6.75572e-08
6.58452e-08
6.39497e-08
6.19499e-08
5.99112e-08
5.78854e-08
5.59122e-08
5.40209e-08
5.22322e-08
5.05596e-08
4.90112e-08
4.75909e-08
4.62993e-08
4.5135e-08
4.40949e-08
4.31748e-08
4.237e-08
4.16753e-08
4.10854e-08
4.05951e-08
4.01989e-08
3.98917e-08
3.96686e-08
3.95246e-08
3.94549e-08
5.53269e-08
5.45141e-08
5.3405e-08
5.20854e-08
5.06294e-08
4.90991e-08
4.75452e-08
4.60071e-08
4.45147e-08
4.30896e-08
4.17464e-08
4.04943e-08
3.93385e-08
3.8281e-08
3.73214e-08
3.64579e-08
3.56877e-08
3.50072e-08
3.44125e-08
3.38995e-08
3.34641e-08
3.31022e-08
3.28098e-08
3.25832e-08
3.24184e-08
3.23121e-08
3.22606e-08
4.40853e-08
4.34755e-08
4.26446e-08
4.16577e-08
4.0571e-08
3.9431e-08
3.82755e-08
3.71336e-08
3.60269e-08
3.49708e-08
3.39758e-08
3.30481e-08
3.21913e-08
3.14065e-08
3.06934e-08
3.00506e-08