/*--------------------------------*- C++ -*----------------------------------*\
| =========                 |                                                 |
| \\      /  F ield         | OpenFOAM: The Open Source CFD Toolbox           |
|  \\    /   O peration     | Version:  2106                                  |
|   \\  /    A nd           | Website:  www.openfoam.com                      |
|    \\/     M anipulation  |                                                 |
\*---------------------------------------------------------------------------*/
FoamFile
{
    version     2.0;
    format      ascii;
    arch        "LSB;label=32;scalar=64";
    class       volScalarField;
    location    "110.00057";
    object      CH3COCH3;
}
// * * * * * * * * * * * * * * * * * * * * * * * * * * * * * * * * * * * * * //

dimensions      [0 0 0 0 0 0 0];

internalField   nonuniform List<scalar> 
3360
(
0.0136842
0.0136842
0.0136842
0.0136842
0.0136842
0.0136842
0.0136842
0.0136842
0.0136842
0.0136842
0.0136842
0.0136842
0.0136842
0.0136842
0.0136842
0.0136842
0.0136842
0.0136842
0.0136842
0.0136842
0.0136842
0.0136842
0.0136842
0.0136842
0.0136842
0.0136842
0.0136842
0.0136842
0.0136842
0.0136842
0.0136842
0.0136842
0.0136842
0.0136842
0.0136842
0.0136842
0.0136842
0.0136842
0.0136842
0.0136842
0.0136842
0.0136842
0.0136842
0.0136842
0.0136842
0.0136842
0.0136842
0.0136842
0.0136842
0.0136842
0.0136842
0.0136842
0.0136842
0.0136842
0.0136842
0.0136842
0.0136842
0.0136842
0.0136842
0.0136842
0.0136842
0.0136842
0.0136842
0.0136842
0.0136842
0.0136842
0.0136842
0.0136842
0.0136842
0.0136842
0.0136842
0.0136842
0.0136842
0.0136842
0.0136842
0.0136842
0.0136842
0.0136842
0.0136842
0.0136842
0.0136842
0.0136842
0.0136842
0.0136842
0.0136842
0.0136842
0.0136842
0.0136842
0.0136842
0.0136842
0.0136842
0.0136842
0.0136842
0.0136842
0.0136842
0.0136842
0.0136842
0.0136842
0.0136842
0.0136842
0.0136842
0.0136842
0.0136842
0.0136842
0.0136842
0.0136842
0.0136842
0.0136842
0.0136842
0.0136842
0.0136842
0.0136842
0.0136842
0.0136842
0.0136842
0.0136842
0.0136842
0.0136842
0.0136842
0.0136842
0.0136842
0.0136842
0.0136842
0.0136842
0.0136842
0.0136842
0.0136842
0.0136842
0.0136842
0.0136842
0.0136842
0.0136842
0.0136842
0.0136842
0.0136842
0.0136842
0.0136842
0.0136842
0.0136842
0.0136842
0.0136842
0.0136842
0.0136842
0.0136842
0.0136842
0.0136842
0.0136842
0.0136842
0.0136842
0.0136842
0.0136842
0.0136842
0.0136842
0.0136842
0.0136842
0.0136842
0.0136842
0.0136842
0.0136842
0.0136842
0.0136842
0.0136842
0.0136842
0.0136842
0.0136842
0.0136842
0.0136842
0.0136842
0.0136842
0.0136842
0.0136842
0.0136842
0.0136842
0.0136842
0.0136842
0.0136842
0.0136842
0.0136842
0.0136842
0.0136842
0.0136842
0.0136842
0.0136842
0.0136842
0.0136842
0.0136842
0.0136842
0.0136842
0.0136842
0.0136842
0.0136842
0.0136842
0.0136842
0.0136842
0.0136842
0.0136842
0.0136842
0.0136842
0.0136842
0.0136842
0.0136842
0.0136842
0.0136842
0.0136842
0.0136842
0.0136842
0.0136842
0.0136842
0.0136842
0.0136842
0.0136842
0.0136842
0.0136842
0.0136842
0.0136842
0.0136842
0.0136842
0.0136842
0.0136842
0.0136842
0.0136842
0.0136842
0.0136842
0.0136842
0.0136842
0.0136842
0.0136842
0.0136842
0.0136842
0.0136842
0.0136842
0.0136842
0.0136842
0.0136842
0.0136842
0.0136842
0.0136842
0.0136842
0.0136842
0.0136842
0.0136842
0.0136842
0.0136842
0.0136842
0.0136842
0.0136842
0.0136842
0.0136842
0.0136842
0.0136842
0.0136842
0.0136842
0.0136842
0.0136842
0.0136842
0.0136842
0.0136842
0.0136842
0.0136842
0.0136842
0.0136842
0.0136842
0.0136842
0.0136842
0.0136842
0.0136842
0.0136842
0.0136842
0.0136842
0.0136842
0.0136842
0.0136842
0.0136842
0.0136842
0.0136842
0.0136842
0.0136842
0.0136842
0.0136842
0.0136842
0.0136842
0.0136842
0.0136842
0.0136842
0.0136842
0.0136842
0.0136842
0.0136842
0.0136842
0.0136842
0.0136842
0.0136842
0.0136842
0.0136842
0.0136842
0.0136842
0.0136842
0.0136842
0.0136842
0.0136842
0.0136842
0.0136842
0.0136842
0.0136842
0.0136842
0.0136842
0.0136842
0.0136842
0.0136842
0.0136842
0.0136842
0.0136842
0.0136842
0.0136842
0.0136842
0.0136842
0.0136842
0.0136842
0.0136842
0.0136842
0.0136842
0.0136842
0.0136842
0.0136842
0.0136842
0.0136842
0.0136842
0.0136842
0.0136842
0.0136842
0.0136842
0.0136842
0.0136842
0.0136842
0.0136842
0.0136842
0.0136842
0.0136842
0.0136842
0.0136842
0.0136842
0.0136842
0.0136842
0.0136842
0.0136842
0.0136842
0.0136842
0.0136842
0.0136842
0.0136842
0.0136842
0.0136842
0.0136842
0.0136842
0.0136842
0.0136842
0.0136842
0.0136842
0.0136842
0.0136842
0.0136842
0.0136842
0.0136842
0.0136842
0.0136842
0.0136842
0.0136842
0.0136842
0.0136842
0.0136842
0.0136842
0.0136842
0.0136842
0.0136842
0.0136842
0.0136842
0.0136842
0.0136842
0.0136842
0.0136842
0.0136842
0.0136842
0.0136842
0.0136842
0.0136842
0.0136842
0.0136842
0.0136842
0.0136842
0.0136842
0.0136842
0.0136842
0.0136842
0.0136842
0.0136842
0.0136842
0.0136842
0.0136842
0.0136842
0.0136842
0.0136842
0.0136842
0.0136842
0.0136842
0.0136842
0.0136842
0.0136842
0.0136842
0.0136842
0.0136842
0.0136842
0.0136842
0.0136842
0.0136842
0.0136842
0.0136842
0.0136842
0.0136842
0.0136842
0.0136842
0.0136842
0.0136842
0.0136842
0.0136842
0.0136842
0.0136842
0.0136842
0.0136842
0.0136842
0.0136842
0.0136842
0.0136842
0.0136842
0.0136842
0.0136842
0.0136842
0.0136842
0.0136842
0.0136842
0.0136842
0.0136842
0.0136842
0.0136842
0.0136842
0.0136842
0.0136842
0.0136842
0.0136842
0.0136842
0.0136842
0.0136842
0.0136842
0.0136842
0.0136842
0.0136842
0.0136842
0.0136842
0.0136842
0.0136842
0.0136842
0.0136842
0.0136842
0.0136842
0.0136842
0.0136842
0.0136842
0.0136842
0.0136842
0.0136842
0.0136842
0.0136842
0.0136842
0.0136842
0.0136842
0.0136842
0.0136842
0.0136842
0.0136842
0.0136842
0.0136842
0.0136842
0.0136842
0.0136842
0.0136842
0.0136842
0.0136842
0.0136842
0.0136842
0.0136842
0.0136842
0.0136842
0.0136842
0.0136842
0.0136842
0.0136842
0.0136842
0.0136842
0.0136842
0.0136842
0.0136842
0.0136842
0.0136842
0.0136842
0.0136842
0.0136842
0.0136842
0.0136842
0.0136842
0.0136842
0.0136842
0.0136842
0.0136842
0.0136842
0.0136842
0.0136842
0.0136842
0.0136842
0.0136842
0.0136842
0.0136842
0.0136842
0.0136842
0.0136842
0.0136842
0.0136842
0.0136842
0.0136842
0.0136842
0.0136842
0.0136842
0.0136842
0.0136842
0.0136842
0.0136842
0.0136842
0.0136842
0.0136842
0.0136842
0.0136842
0.0136842
0.0136842
0.0136842
0.0136842
0.0136842
0.0136842
0.0136842
0.0136842
0.0136842
0.0136842
0.0136842
0.0136842
0.0136842
0.0136842
0.0136842
0.0136842
0.0136842
0.0136842
0.0136842
0.0136842
0.0136842
0.0136842
0.0136842
0.0136842
0.0136842
0.0136842
0.0136842
0.0136842
0.0136842
0.0136842
0.0136842
0.0136842
0.0136842
0.0136842
0.0136842
0.0136842
0.0136842
0.0136842
0.0136842
0.0136842
0.0136842
0.0136842
0.0136842
0.0136842
0.0136842
0.0136842
0.0136842
0.0136842
0.0136842
0.0136842
0.0136842
0.0136842
0.0136842
0.0136842
0.0136842
0.0136842
0.0136842
0.0136842
0.0136842
0.0136842
0.0136842
0.0136842
0.0136842
0.0136842
0.0136842
0.0136842
0.0136842
0.0136842
0.0136842
0.0136842
0.0136842
0.0136842
0.0136842
0.0136842
0.0136842
0.0136842
0.0136842
0.0136842
0.0136842
0.0136842
0.0136842
0.0136842
0.0136842
0.0136842
0.0136842
0.0136842
0.0136842
0.0136842
0.0136842
0.0136842
0.0136842
0.0136842
0.0136842
0.0136842
0.0136842
0.0136842
0.0136842
0.0136842
0.0136842
0.0136842
0.0136842
0.0136842
0.0136842
0.0136842
0.0136842
0.0136842
0.0136842
0.0136842
0.0136842
0.0136842
0.0136842
0.0136842
0.0136842
0.0136842
0.0136842
0.0136842
0.0136841
0.0136841
0.0136841
0.0136841
0.0136841
0.0136841
0.0136841
0.0136841
0.0136841
0.0136841
0.0136841
0.0136841
0.0136841
0.0136841
0.0136841
0.0136841
0.0136841
0.0136841
0.0136841
0.0136841
0.0136841
0.0136841
0.0136841
0.0136841
0.0136841
0.0136841
0.0136841
0.013684
0.013684
0.013684
0.013684
0.013684
0.0136839
0.0136839
0.0136839
0.0136839
0.0136839
0.0136839
0.0136838
0.0136838
0.0136838
0.0136838
0.0136838
0.0136838
0.0136838
0.0136838
0.0136838
0.013684
0.013684
0.0136839
0.0136839
0.0136839
0.0136838
0.0136838
0.0136837
0.0136837
0.0136836
0.0136836
0.0136835
0.0136835
0.0136834
0.0136834
0.0136833
0.0136833
0.0136833
0.0136832
0.0136832
0.0136832
0.0136832
0.0136832
0.0136831
0.0136831
0.0136831
0.0136831
0.0136836
0.0136836
0.0136835
0.0136834
0.0136833
0.0136832
0.0136831
0.013683
0.0136828
0.0136827
0.0136826
0.0136825
0.0136823
0.0136822
0.0136821
0.013682
0.0136819
0.0136818
0.0136818
0.0136817
0.0136816
0.0136816
0.0136815
0.0136815
0.0136815
0.0136815
0.0136815
0.0136826
0.0136825
0.0136824
0.0136822
0.013682
0.0136817
0.0136814
0.0136811
0.0136808
0.0136805
0.0136802
0.0136799
0.0136797
0.0136794
0.0136791
0.0136789
0.0136787
0.0136785
0.0136783
0.0136781
0.013678
0.0136779
0.0136778
0.0136778
0.0136777
0.0136777
0.0136777
0.0136804
0.0136801
0.0136798
0.0136794
0.0136789
0.0136783
0.0136777
0.0136771
0.0136764
0.0136758
0.0136751
0.0136745
0.0136739
0.0136733
0.0136727
0.0136722
0.0136717
0.0136713
0.0136709
0.0136706
0.0136703
0.0136701
0.0136699
0.0136698
0.0136696
0.0136696
0.0136696
0.0136756
0.0136751
0.0136744
0.0136736
0.0136726
0.0136715
0.0136703
0.0136691
0.0136678
0.0136665
0.0136652
0.0136639
0.0136627
0.0136615
0.0136604
0.0136594
0.0136584
0.0136576
0.0136568
0.0136562
0.0136556
0.0136551
0.0136548
0.0136545
0.0136543
0.0136541
0.0136541
0.0136667
0.0136659
0.0136647
0.0136632
0.0136614
0.0136595
0.0136574
0.0136552
0.0136529
0.0136506
0.0136484
0.0136461
0.013644
0.0136419
0.01364
0.0136382
0.0136365
0.013635
0.0136337
0.0136325
0.0136316
0.0136307
0.0136301
0.0136295
0.0136292
0.0136289
0.0136288
0.0136523
0.0136509
0.013649
0.0136466
0.0136439
0.0136409
0.0136376
0.0136342
0.0136307
0.0136272
0.0136237
0.0136203
0.013617
0.0136139
0.013611
0.0136083
0.0136058
0.0136036
0.0136017
0.0135999
0.0135985
0.0135972
0.0135963
0.0135955
0.013595
0.0135946
0.0135944
0.0136312
0.0136293
0.0136266
0.0136233
0.0136195
0.0136153
0.0136108
0.0136061
0.0136014
0.0135966
0.013592
0.0135874
0.0135831
0.013579
0.0135752
0.0135717
0.0135685
0.0135656
0.0135631
0.0135609
0.0135591
0.0135575
0.0135563
0.0135554
0.0135547
0.0135542
0.013554
0.0136035
0.013601
0.0135976
0.0135934
0.0135885
0.0135833
0.0135777
0.0135719
0.0135661
0.0135604
0.0135547
0.0135493
0.0135442
0.0135393
0.0135349
0.0135308
0.0135271
0.0135238
0.013521
0.0135185
0.0135164
0.0135147
0.0135133
0.0135122
0.0135115
0.013511
0.0135108
0.0135694
0.0135665
0.0135625
0.0135576
0.013552
0.0135459
0.0135395
0.0135329
0.0135264
0.0135199
0.0135136
0.0135076
0.013502
0.0134967
0.0134919
0.0134875
0.0134836
0.0134801
0.013477
0.0134744
0.0134722
0.0134704
0.013469
0.0134679
0.0134671
0.0134666
0.0134664
0.01353
0.0135268
0.0135223
0.0135169
0.0135108
0.0135042
0.0134973
0.0134903
0.0134833
0.0134765
0.0134699
0.0134636
0.0134578
0.0134523
0.0134474
0.0134429
0.0134389
0.0134353
0.0134323
0.0134296
0.0134274
0.0134256
0.0134242
0.0134231
0.0134223
0.0134218
0.0134216
0.0134862
0.0134828
0.0134782
0.0134725
0.0134662
0.0134593
0.0134522
0.0134451
0.0134379
0.013431
0.0134244
0.0134181
0.0134122
0.0134068
0.0134019
0.0133974
0.0133935
0.01339
0.013387
0.0133844
0.0133822
0.0133805
0.0133791
0.013378
0.0133773
0.0133768
0.0133766
0.0134393
0.0134359
0.0134312
0.0134255
0.0134192
0.0134123
0.0134053
0.0133981
0.0133911
0.0133842
0.0133777
0.0133716
0.0133658
0.0133606
0.0133558
0.0133515
0.0133476
0.0133443
0.0133414
0.0133389
0.0133368
0.0133351
0.0133338
0.0133327
0.013332
0.0133316
0.0133313
0.0133905
0.0133871
0.0133825
0.013377
0.0133707
0.0133641
0.0133572
0.0133503
0.0133434
0.0133368
0.0133305
0.0133246
0.0133191
0.013314
0.0133094
0.0133053
0.0133016
0.0132984
0.0132956
0.0132933
0.0132913
0.0132897
0.0132884
0.0132874
0.0132867
0.0132863
0.0132861
0.0133407
0.0133375
0.0133331
0.0133277
0.0133217
0.0133153
0.0133087
0.0133021
0.0132956
0.0132893
0.0132833
0.0132776
0.0132724
0.0132676
0.0132632
0.0132592
0.0132558
0.0132527
0.01325
0.0132478
0.0132459
0.0132443
0.0132431
0.0132422
0.0132415
0.0132411
0.0132409
0.0132909
0.0132878
0.0132836
0.0132785
0.0132728
0.0132668
0.0132605
0.0132542
0.013248
0.013242
0.0132363
0.013231
0.013226
0.0132214
0.0132172
0.0132135
0.0132102
0.0132073
0.0132047
0.0132026
0.0132008
0.0131993
0.0131981
0.0131972
0.0131966
0.0131962
0.013196
0.0132416
0.0132387
0.0132347
0.0132299
0.0132245
0.0132188
0.0132128
0.0132069
0.013201
0.0131953
0.0131899
0.0131848
0.0131801
0.0131758
0.0131718
0.0131683
0.0131651
0.0131623
0.0131599
0.0131579
0.0131562
0.0131548
0.0131537
0.0131528
0.0131522
0.0131518
0.0131516
0.0131932
0.0131905
0.0131867
0.0131821
0.0131771
0.0131716
0.013166
0.0131604
0.0131548
0.0131494
0.0131443
0.0131395
0.013135
0.0131309
0.0131271
0.0131238
0.0131207
0.0131181
0.0131158
0.0131139
0.0131122
0.0131109
0.0131098
0.013109
0.0131084
0.013108
0.0131079
0.013146
0.0131434
0.0131398
0.0131355
0.0131307
0.0131255
0.0131202
0.0131149
0.0131096
0.0131045
0.0130996
0.013095
0.0130908
0.0130868
0.0130832
0.01308
0.0130772
0.0130746
0.0130724
0.0130706
0.013069
0.0130677
0.0130667
0.0130659
0.0130653
0.013065
0.0130648
0.0130999
0.0130975
0.0130941
0.01309
0.0130854
0.0130805
0.0130755
0.0130704
0.0130654
0.0130605
0.0130559
0.0130515
0.0130474
0.0130437
0.0130402
0.0130372
0.0130344
0.013032
0.0130299
0.0130281
0.0130266
0.0130253
0.0130244
0.0130236
0.0130231
0.0130227
0.0130226
0.0130552
0.0130529
0.0130496
0.0130458
0.0130414
0.0130367
0.0130319
0.0130271
0.0130223
0.0130176
0.0130132
0.013009
0.0130051
0.0130015
0.0129982
0.0129952
0.0129926
0.0129902
0.0129882
0.0129865
0.012985
0.0129838
0.0129829
0.0129822
0.0129816
0.0129813
0.0129812
0.0130117
0.0130095
0.0130064
0.0130027
0.0129985
0.012994
0.0129894
0.0129848
0.0129802
0.0129757
0.0129714
0.0129674
0.0129637
0.0129602
0.012957
0.0129542
0.0129516
0.0129494
0.0129474
0.0129457
0.0129443
0.0129432
0.0129423
0.0129416
0.0129411
0.0129407
0.0129406
0.0129694
0.0129673
0.0129643
0.0129607
0.0129567
0.0129525
0.012948
0.0129435
0.0129391
0.0129348
0.0129307
0.0129268
0.0129232
0.0129198
0.0129168
0.012914
0.0129116
0.0129094
0.0129075
0.0129059
0.0129045
0.0129034
0.0129025
0.0129018
0.0129013
0.012901
0.0129009
0.0129283
0.0129262
0.0129234
0.0129199
0.0129161
0.0129119
0.0129076
0.0129033
0.012899
0.0128949
0.0128909
0.0128872
0.0128836
0.0128804
0.0128774
0.0128748
0.0128724
0.0128703
0.0128684
0.0128669
0.0128656
0.0128645
0.0128636
0.0128629
0.0128625
0.0128622
0.012862
0.0128882
0.0128862
0.0128834
0.0128801
0.0128764
0.0128724
0.0128682
0.0128641
0.0128599
0.0128559
0.012852
0.0128484
0.012845
0.0128418
0.012839
0.0128364
0.0128341
0.012832
0.0128302
0.0128287
0.0128274
0.0128264
0.0128255
0.0128249
0.0128244
0.0128241
0.012824
0.0128491
0.0128472
0.0128445
0.0128413
0.0128377
0.0128338
0.0128298
0.0128257
0.0128217
0.0128178
0.012814
0.0128105
0.0128072
0.0128041
0.0128013
0.0127988
0.0127965
0.0127946
0.0127928
0.0127913
0.0127901
0.0127891
0.0127882
0.0127876
0.0127872
0.0127869
0.0127867
0.012811
0.0128091
0.0128065
0.0128034
0.0127999
0.0127961
0.0127922
0.0127882
0.0127843
0.0127805
0.0127769
0.0127734
0.0127702
0.0127672
0.0127645
0.012762
0.0127598
0.0127579
0.0127562
0.0127547
0.0127535
0.0127525
0.0127517
0.0127511
0.0127507
0.0127504
0.0127503
0.0127737
0.0127719
0.0127694
0.0127663
0.0127629
0.0127592
0.0127554
0.0127516
0.0127477
0.012744
0.0127405
0.0127371
0.012734
0.0127311
0.0127284
0.012726
0.0127239
0.012722
0.0127203
0.0127189
0.0127177
0.0127167
0.0127159
0.0127153
0.0127149
0.0127146
0.0127145
0.0127373
0.0127355
0.0127331
0.0127301
0.0127267
0.0127231
0.0127194
0.0127157
0.012712
0.0127083
0.0127049
0.0127016
0.0126985
0.0126957
0.0126931
0.0126907
0.0126886
0.0126868
0.0126851
0.0126838
0.0126826
0.0126816
0.0126809
0.0126803
0.0126799
0.0126796
0.0126795
0.0127016
0.0126999
0.0126975
0.0126946
0.0126913
0.0126878
0.0126842
0.0126805
0.0126769
0.0126733
0.0126699
0.0126667
0.0126637
0.0126609
0.0126584
0.0126561
0.0126541
0.0126522
0.0126507
0.0126493
0.0126482
0.0126472
0.0126465
0.0126459
0.0126455
0.0126452
0.0126451
0.0126667
0.012665
0.0126627
0.0126598
0.0126567
0.0126532
0.0126497
0.0126461
0.0126425
0.0126391
0.0126357
0.0126326
0.0126296
0.0126269
0.0126244
0.0126222
0.0126202
0.0126184
0.0126168
0.0126155
0.0126144
0.0126135
0.0126128
0.0126122
0.0126118
0.0126115
0.0126114
0.0126325
0.0126309
0.0126286
0.0126258
0.0126227
0.0126193
0.0126158
0.0126123
0.0126088
0.0126054
0.0126022
0.0125991
0.0125962
0.0125936
0.0125911
0.0125889
0.0125869
0.0125852
0.0125837
0.0125824
0.0125813
0.0125804
0.0125797
0.0125791
0.0125787
0.0125785
0.0125784
0.012599
0.0125974
0.0125951
0.0125924
0.0125893
0.0125861
0.0125827
0.0125792
0.0125758
0.0125725
0.0125693
0.0125663
0.0125634
0.0125608
0.0125584
0.0125563
0.0125543
0.0125526
0.0125511
0.0125499
0.0125488
0.0125479
0.0125472
0.0125467
0.0125463
0.012546
0.0125459
0.0125662
0.0125646
0.0125623
0.0125597
0.0125567
0.0125535
0.0125501
0.0125467
0.0125434
0.0125401
0.012537
0.012534
0.0125313
0.0125287
0.0125264
0.0125243
0.0125224
0.0125207
0.0125192
0.012518
0.0125169
0.0125161
0.0125154
0.0125148
0.0125145
0.0125142
0.0125141
0.0125339
0.0125324
0.0125302
0.0125276
0.0125246
0.0125215
0.0125182
0.0125149
0.0125116
0.0125084
0.0125054
0.0125025
0.0124997
0.0124972
0.0124949
0.0124929
0.012491
0.0124894
0.0124879
0.0124867
0.0124857
0.0124848
0.0124842
0.0124836
0.0124833
0.012483
0.0124829
0.0125023
0.0125008
0.0124987
0.0124961
0.0124932
0.0124901
0.0124869
0.0124837
0.0124805
0.0124773
0.0124743
0.0124715
0.0124688
0.0124664
0.0124641
0.0124621
0.0124603
0.0124587
0.0124573
0.0124561
0.0124551
0.0124542
0.0124536
0.012453
0.0124527
0.0124525
0.0124523
0.0124714
0.0124698
0.0124678
0.0124653
0.0124624
0.0124594
0.0124563
0.0124531
0.0124499
0.0124469
0.0124439
0.0124411
0.0124385
0.0124361
0.0124339
0.0124319
0.0124302
0.0124286
0.0124272
0.012426
0.012425
0.0124242
0.0124236
0.0124231
0.0124227
0.0124225
0.0124224
0.012441
0.0124395
0.0124375
0.012435
0.0124323
0.0124293
0.0124262
0.0124231
0.01242
0.012417
0.0124142
0.0124114
0.0124089
0.0124065
0.0124044
0.0124024
0.0124007
0.0123991
0.0123978
0.0123967
0.0123957
0.0123949
0.0123943
0.0123938
0.0123934
0.0123932
0.0123931
0.0124113
0.0124099
0.0124079
0.0124055
0.0124028
0.0123999
0.0123969
0.0123938
0.0123908
0.0123879
0.0123851
0.0123824
0.0123799
0.0123776
0.0123755
0.0123736
0.0123719
0.0123704
0.0123691
0.0123679
0.012367
0.0123662
0.0123656
0.0123651
0.0123648
0.0123646
0.0123645
0.0123823
0.0123809
0.0123789
0.0123766
0.0123739
0.0123711
0.0123682
0.0123652
0.0123622
0.0123594
0.0123566
0.012354
0.0123516
0.0123494
0.0123473
0.0123454
0.0123438
0.0123423
0.012341
0.0123399
0.012339
0.0123383
0.0123377
0.0123372
0.0123369
0.0123366
0.0123365
0.0123539
0.0123525
0.0123507
0.0123484
0.0123458
0.012343
0.0123402
0.0123373
0.0123344
0.0123316
0.0123289
0.0123264
0.012324
0.0123218
0.0123198
0.012318
0.0123164
0.012315
0.0123137
0.0123127
0.0123118
0.012311
0.0123104
0.01231
0.0123097
0.0123095
0.0123094
0.0123263
0.012325
0.0123231
0.0123209
0.0123184
0.0123157
0.0123129
0.0123101
0.0123073
0.0123046
0.012302
0.0122995
0.0122972
0.0122951
0.0122932
0.0122914
0.0122898
0.0122884
0.0122872
0.0122862
0.0122853
0.0122846
0.012284
0.0122836
0.0122833
0.0122831
0.012283
0.0122994
0.0122981
0.0122964
0.0122942
0.0122918
0.0122892
0.0122865
0.0122837
0.012281
0.0122784
0.0122759
0.0122735
0.0122713
0.0122692
0.0122673
0.0122656
0.0122641
0.0122628
0.0122616
0.0122606
0.0122597
0.012259
0.0122585
0.0122581
0.0122578
0.0122576
0.0122575
0.0122734
0.0122722
0.0122704
0.0122683
0.012266
0.0122635
0.0122609
0.0122582
0.0122556
0.0122531
0.0122506
0.0122483
0.0122462
0.0122442
0.0122424
0.0122407
0.0122393
0.012238
0.0122369
0.0122359
0.0122351
0.0122344
0.0122339
0.0122335
0.0122332
0.012233
0.0122329
0.0122483
0.0122471
0.0122454
0.0122434
0.0122411
0.0122387
0.0122362
0.0122337
0.0122311
0.0122287
0.0122264
0.0122242
0.0122221
0.0122202
0.0122184
0.0122169
0.0122155
0.0122142
0.0122131
0.0122122
0.0122114
0.0122108
0.0122103
0.0122099
0.0122096
0.0122094
0.0122093
0.0122241
0.012223
0.0122214
0.0122194
0.0122173
0.0122149
0.0122125
0.0122101
0.0122077
0.0122054
0.0122031
0.012201
0.012199
0.0121972
0.0121956
0.0121941
0.0121927
0.0121915
0.0121905
0.0121896
0.0121889
0.0121883
0.0121878
0.0121874
0.0121871
0.012187
0.0121869
0.012201
0.0121999
0.0121984
0.0121965
0.0121945
0.0121923
0.01219
0.0121877
0.0121854
0.0121832
0.012181
0.012179
0.0121772
0.0121754
0.0121738
0.0121724
0.0121711
0.01217
0.012169
0.0121682
0.0121675
0.0121669
0.0121665
0.0121661
0.0121659
0.0121657
0.0121656
0.012179
0.012178
0.0121765
0.0121748
0.0121728
0.0121708
0.0121686
0.0121664
0.0121643
0.0121622
0.0121602
0.0121583
0.0121565
0.0121549
0.0121534
0.012152
0.0121508
0.0121498
0.0121489
0.0121481
0.0121474
0.0121469
0.0121464
0.0121461
0.0121459
0.0121457
0.0121457
0.0121583
0.0121573
0.0121559
0.0121543
0.0121525
0.0121505
0.0121485
0.0121465
0.0121444
0.0121425
0.0121406
0.0121388
0.0121372
0.0121357
0.0121343
0.012133
0.0121319
0.0121309
0.0121301
0.0121293
0.0121287
0.0121282
0.0121278
0.0121275
0.0121273
0.0121272
0.0121271
0.0121389
0.012138
0.0121367
0.0121352
0.0121335
0.0121317
0.0121298
0.0121279
0.012126
0.0121242
0.0121225
0.0121208
0.0121193
0.0121179
0.0121166
0.0121155
0.0121145
0.0121135
0.0121128
0.0121121
0.0121115
0.012111
0.0121107
0.0121104
0.0121102
0.0121101
0.01211
0.0121209
0.01212
0.0121189
0.0121175
0.0121159
0.0121143
0.0121125
0.0121108
0.0121091
0.0121074
0.0121059
0.0121044
0.012103
0.0121017
0.0121005
0.0120995
0.0120985
0.0120977
0.012097
0.0120964
0.0120959
0.0120954
0.0120951
0.0120948
0.0120947
0.0120945
0.0120945
0.0121044
0.0121036
0.0121026
0.0121013
0.0120999
0.0120984
0.0120968
0.0120953
0.0120937
0.0120922
0.0120908
0.0120895
0.0120882
0.0120871
0.012086
0.0120851
0.0120842
0.0120835
0.0120828
0.0120823
0.0120818
0.0120814
0.0120811
0.0120809
0.0120807
0.0120806
0.0120806
0.0120895
0.0120888
0.0120879
0.0120868
0.0120855
0.0120841
0.0120828
0.0120814
0.01208
0.0120786
0.0120774
0.0120762
0.0120751
0.0120741
0.0120731
0.0120723
0.0120715
0.0120709
0.0120703
0.0120698
0.0120694
0.0120691
0.0120688
0.0120686
0.0120685
0.0120684
0.0120684
0.0120762
0.0120756
0.0120748
0.0120738
0.0120727
0.0120715
0.0120703
0.0120691
0.0120679
0.0120667
0.0120656
0.0120646
0.0120636
0.0120627
0.0120619
0.0120612
0.0120605
0.01206
0.0120595
0.0120591
0.0120587
0.0120584
0.0120582
0.012058
0.0120579
0.0120578
0.0120578
0.0120646
0.0120641
0.0120634
0.0120625
0.0120616
0.0120605
0.0120595
0.0120584
0.0120574
0.0120564
0.0120555
0.0120546
0.0120537
0.012053
0.0120523
0.0120517
0.0120511
0.0120506
0.0120502
0.0120499
0.0120496
0.0120493
0.0120491
0.012049
0.0120489
0.0120488
0.0120488
0.0120546
0.0120542
0.0120535
0.0120528
0.012052
0.0120512
0.0120503
0.0120494
0.0120485
0.0120477
0.0120469
0.0120461
0.0120455
0.0120448
0.0120442
0.0120437
0.0120433
0.0120429
0.0120425
0.0120422
0.012042
0.0120418
0.0120416
0.0120415
0.0120414
0.0120413
0.0120413
0.0120461
0.0120458
0.0120453
0.0120447
0.012044
0.0120433
0.0120426
0.0120418
0.0120411
0.0120404
0.0120398
0.0120392
0.0120386
0.0120381
0.0120376
0.0120372
0.0120368
0.0120365
0.0120362
0.012036
0.0120358
0.0120356
0.0120355
0.0120354
0.0120353
0.0120353
0.0120352
0.0120392
0.0120389
0.0120385
0.012038
0.0120374
0.0120369
0.0120363
0.0120357
0.0120351
0.0120346
0.012034
0.0120336
0.0120331
0.0120327
0.0120323
0.012032
0.0120317
0.0120314
0.0120312
0.012031
0.0120308
0.0120307
0.0120306
0.0120305
0.0120305
0.0120304
0.0120304
0.0120335
0.0120333
0.012033
0.0120326
0.0120321
0.0120317
0.0120312
0.0120308
0.0120303
0.0120299
0.0120295
0.0120291
0.0120287
0.0120284
0.0120281
0.0120278
0.0120276
0.0120274
0.0120272
0.0120271
0.0120269
0.0120268
0.0120268
0.0120267
0.0120267
0.0120266
0.0120266
0.012029
0.0120288
0.0120286
0.0120283
0.012028
0.0120276
0.0120273
0.0120269
0.0120265
0.0120262
0.0120259
0.0120256
0.0120253
0.0120251
0.0120248
0.0120246
0.0120244
0.0120243
0.0120242
0.012024
0.0120239
0.0120239
0.0120238
0.0120237
0.0120237
0.0120237
0.0120237
0.0120255
0.0120254
0.0120252
0.012025
0.0120247
0.0120244
0.0120242
0.0120239
0.0120236
0.0120234
0.0120231
0.0120229
0.0120227
0.0120225
0.0120223
0.0120221
0.012022
0.0120219
0.0120218
0.0120217
0.0120216
0.0120216
0.0120215
0.0120215
0.0120214
0.0120214
0.0120214
0.0120228
0.0120227
0.0120226
0.0120224
0.0120222
0.012022
0.0120218
0.0120216
0.0120214
0.0120212
0.012021
0.0120208
0.0120206
0.0120205
0.0120204
0.0120202
0.0120201
0.01202
0.01202
0.0120199
0.0120198
0.0120198
0.0120197
0.0120197
0.0120197
0.0120197
0.0120197
0.0120207
0.0120207
0.0120206
0.0120204
0.0120203
0.0120201
0.0120199
0.0120198
0.0120196
0.0120195
0.0120193
0.0120192
0.0120191
0.012019
0.0120189
0.0120188
0.0120187
0.0120186
0.0120185
0.0120185
0.0120184
0.0120184
0.0120184
0.0120184
0.0120183
0.0120183
0.0120183
0.0120191
0.0120191
0.012019
0.0120189
0.0120188
0.0120187
0.0120185
0.0120184
0.0120183
0.0120182
0.0120181
0.0120179
0.0120178
0.0120178
0.0120177
0.0120176
0.0120175
0.0120175
0.0120174
0.0120174
0.0120174
0.0120173
0.0120173
0.0120173
0.0120173
0.0120173
0.0120173
0.0120179
0.0120179
0.0120178
0.0120177
0.0120176
0.0120175
0.0120174
0.0120173
0.0120172
0.0120171
0.0120171
0.012017
0.0120169
0.0120168
0.0120168
0.0120167
0.0120166
0.0120166
0.0120166
0.0120165
0.0120165
0.0120165
0.0120165
0.0120164
0.0120164
0.0120164
0.0120164
0.0120169
0.0120169
0.0120169
0.0120168
0.0120167
0.0120166
0.0120166
0.0120165
0.0120164
0.0120163
0.0120163
0.0120162
0.0120161
0.0120161
0.012016
0.012016
0.012016
0.0120159
0.0120159
0.0120159
0.0120158
0.0120158
0.0120158
0.0120158
0.0120158
0.0120158
0.0120158
0.0120162
0.0120162
0.0120161
0.0120161
0.012016
0.012016
0.0120159
0.0120158
0.0120158
0.0120157
0.0120157
0.0120156
0.0120156
0.0120155
0.0120155
0.0120155
0.0120154
0.0120154
0.0120154
0.0120153
0.0120153
0.0120153
0.0120153
0.0120153
0.0120153
0.0120153
0.0120153
0.0120156
0.0120156
0.0120155
0.0120155
0.0120155
0.0120154
0.0120154
0.0120153
0.0120153
0.0120152
0.0120152
0.0120152
0.0120151
0.0120151
0.0120151
0.012015
0.012015
0.012015
0.012015
0.012015
0.012015
0.0120149
0.0120149
0.0120149
0.0120149
0.0120149
0.0120149
0.0120151
0.0120151
0.0120151
0.0120151
0.012015
0.012015
0.012015
0.0120149
0.0120149
0.0120149
0.0120149
0.0120148
0.0120148
0.0120148
0.0120148
0.0120147
0.0120147
0.0120147
0.0120147
0.0120147
0.0120147
0.0120147
0.0120147
0.0120147
0.0120147
0.0120147
0.0120147
0.0120148
0.0120148
0.0120148
0.0120147
0.0120147
0.0120147
0.0120147
0.0120147
0.0120146
0.0120146
0.0120146
0.0120146
0.0120146
0.0120145
0.0120145
0.0120145
0.0120145
0.0120145
0.0120145
0.0120145
0.0120145
0.0120145
0.0120145
0.0120145
0.0120145
0.0120145
0.0120145
0.0120145
0.0120145
0.0120145
0.0120145
0.0120145
0.0120145
0.0120145
0.0120145
0.0120144
0.0120144
0.0120144
0.0120144
0.0120144
0.0120144
0.0120144
0.0120144
0.0120144
0.0120144
0.0120144
0.0120144
0.0120144
0.0120143
0.0120143
0.0120143
0.0120143
0.0120143
0.0120143
0.0120144
0.0120144
0.0120144
0.0120144
0.0120144
0.0120143
0.0120143
0.0120143
0.0120143
0.0120143
0.0120143
0.0120143
0.0120143
0.0120143
0.0120143
0.0120143
0.0120143
0.0120143
0.0120143
0.0120143
0.0120143
0.0120143
0.0120143
0.0120143
0.0120143
0.0120143
0.0120143
0.0120143
0.0120143
0.0120143
0.0120143
0.0120142
0.0120142
0.0120142
0.0120142
0.0120142
0.0120142
0.0120142
0.0120142
0.0120142
0.0120142
0.0120142
0.0120142
0.0120142
0.0120142
0.0120142
0.0120142
0.0120142
0.0120142
0.0120142
0.0120142
0.0120142
0.0120142
0.0120142
0.0120142
0.0120142
0.0120142
0.0120142
0.0120142
0.0120142
0.0120142
0.0120142
0.0120142
0.0120142
0.0120142
0.0120142
0.0120142
0.0120142
0.0120142
0.0120142
0.0120142
0.0120142
0.0120142
0.0120142
0.0120142
0.0120142
0.0120142
0.0120142
0.0120142
0.0120142
0.0120142
0.0120141
0.0120141
0.0120141
0.0120141
0.0120141
0.0120141
0.0120142
0.0120142
0.0120142
0.0120142
0.0120142
0.0120142
0.0120142
0.0120142
0.0120142
0.0120142
0.0120142
0.0120142
0.0120142
0.0120142
0.0120142
0.0120142
0.0120142
0.0120142
0.0120142
0.0120142
0.0120142
0.0120141
0.0120141
0.0120141
0.0120141
0.0120141
0.0120141
0.0120141
0.0120141
0.0120141
0.0120141
0.0120141
0.0120141
0.0120141
0.0120141
0.0120141
0.0120141
0.0120141
0.0120141
0.0120141
0.0120141
0.0120141
0.0120141
0.0120141
0.0120141
0.0120141
0.0120141
0.0120141
0.0120141
0.0120141
0.0120141
0.0120141
0.0120141
0.0120141
0.0120141
0.0120141
0.0120141
0.0120141
0.0120141
0.0120141
0.0120141
0.0120141
0.0120141
0.0120141
0.0120141
0.0120141
0.0120141
0.0120141
0.0120141
0.0120141
0.0120141
0.0120141
0.0120141
0.0120141
0.0120141
0.0120141
0.0120141
0.0120141
0.0120141
0.0120141
0.0120141
0.0120141
0.0120141
0.0120141
0.0120141
0.0120141
0.0120141
0.0120141
0.0120141
0.0120141
0.0120141
0.0120141
0.0120141
0.0120141
0.0120141
0.0120141
0.0120141
0.0120141
0.0120141
0.0120141
0.0120141
0.0120141
0.0120141
0.0120141
0.0120141
0.0120141
0.0120141
0.0120141
0.0120141
0.0120141
0.0120141
0.0120141
0.0120141
0.0120141
0.0120141
0.0120141
0.0120141
0.0120141
0.0120141
0.0120141
0.0120141
0.0120141
0.0120141
0.0120141
0.0120141
0.0120141
0.0120141
0.0120141
0.0120141
0.0120141
0.0120141
0.0120141
0.0120141
0.0120141
0.0120141
0.0120141
0.0120141
0.0120141
0.0120141
0.0120141
0.0120141
0.0120141
0.0120141
0.0120141
0.0120141
0.0120141
0.0120141
0.0120141
0.0120141
0.0120141
0.0120141
0.0120141
0.0120141
0.0120141
0.0120141
0.0120141
0.0120141
0.0120141
0.0120141
0.0120141
0.0120141
0.0120141
0.0120141
0.0120141
0.0120141
0.0120141
0.0120141
0.0120141
0.0120141
0.0120141
0.0120141
0.0120141
0.0120141
0.0120141
0.0120141
0.0120141
0.0120141
0.0120141
0.0120141
0.0120141
0.0120141
0.0120141
0.0120141
0.0120141
0.0120141
0.0120141
0.0120141
0.0120141
0.0120141
0.0120141
0.0120141
0.0120141
0.0120141
0.0120141
0.0120141
0.0120141
0.0120141
0.0120141
0.0120141
0.0120141
0.0120141
0.0120141
0.0120141
0.0120141
0.0120141
0.0120141
0.0120141
0.0120141
0.0120141
0.0120141
0.0120141
0.0120141
0.0120141
0.0120141
0.0120141
0.0120141
0.0120141
0.0120141
0.0120141
0.0120141
0.0120141