/*--------------------------------*- C++ -*----------------------------------*\
| =========                 |                                                 |
| \\      /  F ield         | OpenFOAM: The Open Source CFD Toolbox           |
|  \\    /   O peration     | Version:  2106                                  |
|   \\  /    A nd           | Website:  www.openfoam.com                      |
|    \\/     M anipulation  |                                                 |
\*---------------------------------------------------------------------------*/
FoamFile
{
    version     2.0;
    format      ascii;
    arch        "LSB;label=32;scalar=64";
    class       volScalarField;
    location    "110.00057";
    object      CH3CO_0;
}
// * * * * * * * * * * * * * * * * * * * * * * * * * * * * * * * * * * * * * //

dimensions      [0 0 0 0 0 0 0];

internalField   nonuniform List<scalar> 
3360
(
2.62357e-48
2.97591e-48
3.51028e-48
4.2375e-48
5.17209e-48
6.3278e-48
7.71441e-48
9.33559e-48
1.11873e-47
1.32573e-47
1.55244e-47
1.79596e-47
2.05266e-47
2.31829e-47
2.58818e-47
2.85736e-47
3.12075e-47
3.37337e-47
3.61047e-47
3.82777e-47
4.02156e-47
4.18893e-47
4.3278e-47
4.43709e-47
4.51672e-47
4.5676e-47
4.59164e-47
6.12278e-47
7.036e-47
8.45146e-47
1.04327e-46
1.30673e-46
1.64568e-46
2.07092e-46
2.59317e-46
3.22232e-46
3.96658e-46
4.83162e-46
5.81975e-46
6.92895e-46
8.15222e-46
9.4771e-46
1.08854e-45
1.23531e-45
1.38509e-45
1.53449e-45
1.67981e-45
1.81714e-45
1.94262e-45
2.05261e-45
2.14394e-45
2.21406e-45
2.26126e-45
2.28475e-45
8.80777e-46
1.03741e-45
1.28652e-45
1.64646e-45
2.14219e-45
2.80365e-45
3.6641e-45
4.75815e-45
6.11915e-45
7.77612e-45
9.7502e-45
1.20515e-44
1.46765e-44
1.76054e-44
2.08009e-44
2.42078e-44
2.77545e-44
3.13561e-44
3.49183e-44
3.83429e-44
4.15337e-44
4.4402e-44
4.68718e-44
4.8884e-44
5.03994e-44
5.13999e-44
5.18886e-44
1.15093e-44
1.38553e-44
1.7677e-44
2.33546e-44
3.14078e-44
4.24726e-44
5.72732e-44
7.65786e-44
1.01145e-43
1.31644e-43
1.68577e-43
2.12201e-43
2.62449e-43
3.1888e-43
3.80648e-43
4.46521e-43
5.14929e-43
5.84059e-43
6.51967e-43
7.16706e-43
7.76451e-43
8.29609e-43
8.74903e-43
9.11422e-43
9.3865e-43
9.5646e-43
9.65088e-43
1.5898e-43
1.94645e-43
2.53632e-43
3.42815e-43
4.71612e-43
6.51656e-43
8.96287e-43
1.21975e-42
1.63601e-42
2.15732e-42
2.7926e-42
3.5459e-42
4.41513e-42
5.39124e-42
6.45802e-42
7.59266e-42
8.76694e-42
9.94899e-42
1.11054e-41
1.22032e-41
1.32123e-41
1.41067e-41
1.4866e-41
1.54763e-41
1.59301e-41
1.62262e-41
1.63693e-41
2.30405e-42
2.85268e-42
3.76893e-42
5.16892e-42
7.21181e-42
1.00945e-41
1.40433e-41
1.92995e-41
2.60996e-41
3.46496e-41
4.50974e-41
5.75064e-41
7.1834e-41
8.79192e-41
1.05482e-40
1.24135e-40
1.43403e-40
1.62758e-40
1.81649e-40
1.99544e-40
2.15954e-40
2.30467e-40
2.42764e-40
2.52628e-40
2.59948e-40
2.64718e-40
2.67021e-40
3.44325e-41
4.29427e-41
5.72378e-41
7.92201e-41
1.11496e-40
1.57289e-40
2.20299e-40
3.04461e-40
4.13606e-40
5.51046e-40
7.19114e-40
9.18744e-40
1.14914e-39
1.40758e-39
1.68946e-39
1.98845e-39
2.29689e-39
2.60629e-39
2.90788e-39
3.19316e-39
3.45445e-39
3.68527e-39
3.88062e-39
4.03717e-39
4.15326e-39
4.22882e-39
4.26527e-39
5.23351e-40
6.55364e-40
8.77869e-40
1.22126e-39
1.72717e-39
2.44717e-39
3.44041e-39
4.76974e-39
6.49616e-39
8.67208e-39
1.1334e-38
1.44958e-38
1.81435e-38
2.22329e-38
2.66893e-38
3.14114e-38
3.62772e-38
4.11521e-38
4.58977e-38
5.03808e-38
5.44811e-38
5.80982e-38
6.11551e-38
6.36012e-38
6.54122e-38
6.65893e-38
6.71562e-38
8.03507e-39
1.00887e-38
1.35562e-38
1.89177e-38
2.68303e-38
3.8106e-38
5.36742e-38
7.45187e-38
1.01589e-37
1.35691e-37
1.77379e-37
2.26843e-37
2.83837e-37
3.47641e-37
4.17066e-37
4.90513e-37
5.66073e-37
6.4165e-37
7.151e-37
7.84371e-37
8.47622e-37
9.03322e-37
9.50312e-37
9.8784e-37
1.01557e-36
1.03354e-36
1.04218e-36
1.2353e-37
1.55302e-37
2.08997e-37
2.92086e-37
4.14778e-37
5.89668e-37
8.3112e-37
1.15426e-36
1.57358e-36
2.10126e-36
2.7454e-36
3.50843e-36
4.38601e-36
5.36643e-36
6.43089e-36
7.55443e-36
8.70747e-36
9.85785e-36
1.09729e-35
1.20216e-35
1.29764e-35
1.38145e-35
1.45193e-35
1.508e-35
1.54925e-35
1.57587e-35
1.58858e-35
1.89827e-36
2.38808e-36
3.21572e-36
4.49587e-36
6.3847e-36
9.07386e-36
1.27804e-35
1.77309e-35
2.41391e-35
3.21807e-35
4.19668e-35
5.35207e-35
6.67617e-35
8.14995e-35
9.7439e-35
1.14196e-34
1.31324e-34
1.4834e-34
1.64762e-34
1.80138e-34
1.9407e-34
2.06238e-34
2.16411e-34
2.24454e-34
2.30328e-34
2.34085e-34
2.35859e-34
2.89529e-35
3.64166e-35
4.90147e-35
6.847e-35
9.71141e-35
1.37785e-34
1.93661e-34
2.68009e-34
3.63846e-34
4.83557e-34
6.28509e-34
7.98736e-34
9.92729e-34
1.20739e-33
1.43814e-33
1.67921e-33
1.924e-33
2.16556e-33
2.39705e-33
2.61217e-33
2.80554e-33
2.97295e-33
3.11156e-33
3.21991e-33
3.29798e-33
3.3471e-33
3.36983e-33
4.36571e-34
5.48644e-34
7.37365e-34
1.02785e-33
1.45373e-33
2.05539e-33
2.87718e-33
3.96349e-33
5.35372e-33
7.0768e-33
9.14603e-33
1.1555e-32
1.42756e-32
1.72578e-32
2.04328e-32
2.37168e-32
2.70174e-32
3.02399e-32
3.32937e-32
3.6098e-32
3.85864e-32
4.07102e-32
4.24398e-32
4.37658e-32
4.46987e-32
4.52679e-32
4.55207e-32
6.44224e-33
8.08037e-33
1.08281e-32
1.50349e-32
2.11618e-32
2.97495e-32
4.1374e-32
5.65869e-32
7.5844e-32
9.94326e-32
1.27409e-31
1.59555e-31
1.95367e-31
2.34074e-31
2.74686e-31
3.16064e-31
3.57005e-31
3.96328e-31
4.32951e-31
4.65957e-31
4.94643e-31
5.18549e-31
5.37475e-31
5.51486e-31
5.60901e-31
5.66292e-31
5.68467e-31
9.21841e-32
1.15253e-31
1.53707e-31
2.12089e-31
2.96243e-31
4.12777e-31
5.6837e-31
7.68927e-31
1.01866e-30
1.31925e-30
1.6692e-30
2.0636e-30
2.49424e-30
2.95011e-30
3.41824e-30
3.88467e-30
4.33554e-30
4.75803e-30
5.14115e-30
5.47639e-30
5.75803e-30
5.98338e-30
6.15284e-30
6.26981e-30
6.34069e-30
6.37478e-30
6.38427e-30
1.25887e-30
1.56578e-30
2.07259e-30
2.8325e-30
3.91131e-30
5.37901e-30
7.30012e-30
9.72311e-30
1.26703e-29
1.61304e-29
2.00547e-29
2.43582e-29
2.89256e-29
3.36199e-29
3.82945e-29
4.28043e-29
4.70166e-29
5.08193e-29
5.41269e-29
5.68838e-29
5.90657e-29
6.06796e-29
6.17623e-29
6.23802e-29
6.26282e-29
6.26296e-29
6.25379e-29
1.61115e-29
1.98849e-29
2.60319e-29
3.50842e-29
4.76582e-29
6.43405e-29
8.55731e-29
1.11547e-28
1.42122e-28
1.76795e-28
2.14714e-28
2.54747e-28
2.95582e-28
3.35844e-28
3.74217e-28
4.09535e-28
4.40857e-28
4.6751e-28
4.89104e-28
5.05529e-28
5.16939e-28
5.23733e-28
5.26536e-28
5.2619e-28
5.23752e-28
5.20505e-28
5.1798e-28
1.8868e-28
2.30274e-28
2.96745e-28
3.92201e-28
5.20837e-28
6.85693e-28
8.87614e-28
1.12455e-27
1.39135e-27
1.68001e-27
1.98049e-27
2.28167e-27
2.57248e-27
2.84287e-27
3.08454e-27
3.29139e-27
3.45966e-27
3.58789e-27
3.67665e-27
3.72833e-27
3.74683e-27
3.73735e-27
3.70625e-27
3.66103e-27
3.61041e-27
3.56443e-27
3.53471e-27
1.96582e-27
2.36199e-27
2.97869e-27
3.83444e-27
4.94137e-27
6.29549e-27
7.87118e-27
9.62053e-27
1.14773e-26
1.33641e-26
1.52012e-26
1.69153e-26
1.84454e-26
1.97469e-26
2.07929e-26
2.15734e-26
2.20925e-26
2.23665e-26
2.24203e-26
2.22851e-26
2.1997e-26
2.15957e-26
2.11245e-26
2.06303e-26
2.0165e-26
1.97864e-26
1.95599e-26
1.76664e-26
2.07868e-26
2.54769e-26
3.16958e-26
3.93177e-26
4.80898e-26
5.76347e-26
6.74883e-26
7.71572e-26
8.61799e-26
9.41746e-26
1.00869e-25
1.06108e-25
1.09845e-25
1.12125e-25
1.13059e-25
1.12803e-25
1.11538e-25
1.09459e-25
1.06762e-25
1.03645e-25
1.00304e-25
9.69386e-26
9.37552e-26
9.09752e-26
8.88411e-26
8.76224e-26
1.3321e-25
1.52623e-25
1.80503e-25
2.15353e-25
2.55175e-25
2.97498e-25
3.39633e-25
3.7903e-25
4.13588e-25
4.41843e-25
4.63024e-25
4.76986e-25
4.84079e-25
4.8499e-25
4.806e-25
4.71867e-25
4.59742e-25
4.45124e-25
4.28838e-25
4.11632e-25
3.94196e-25
3.77174e-25
3.61199e-25
3.46916e-25
3.35006e-25
3.26212e-25
3.21357e-25
8.2937e-25
9.21143e-25
1.04552e-24
1.18961e-24
1.33972e-24
1.48266e-24
1.60746e-24
1.70646e-24
1.77573e-24
1.81468e-24
1.8253e-24
1.8112e-24
1.7768e-24
1.72664e-24
1.665e-24
1.59567e-24
1.52188e-24
1.44629e-24
1.37112e-24
1.29819e-24
1.22908e-24
1.16524e-24
1.10804e-24
1.05892e-24
1.01939e-24
9.91124e-25
9.75964e-25
4.27652e-24
4.60279e-24
5.01428e-24
5.44581e-24
5.83963e-24
6.15212e-24
6.35747e-24
6.44722e-24
6.42675e-24
6.31044e-24
6.11709e-24
5.8664e-24
5.57668e-24
5.26377e-24
4.94067e-24
4.61769e-24
4.30274e-24
4.00169e-24
3.71876e-24
3.45689e-24
3.21849e-24
3.00585e-24
2.82137e-24
2.66762e-24
2.54744e-24
2.4639e-24
2.42034e-24
1.8509e-23
1.94273e-23
2.04964e-23
2.14878e-23
2.22288e-23
2.26179e-23
2.26222e-23
2.22619e-23
2.15897e-23
2.0674e-23
1.95863e-23
1.83914e-23
1.71425e-23
1.58801e-23
1.4643e-23
1.34739e-23
1.24199e-23
1.15334e-23
1.08593e-23
1.0335e-23
9.91888e-24
9.58384e-24
9.31326e-24
9.09792e-24
8.9339e-24
8.82115e-24
8.76242e-24
6.73641e-23
6.9698e-23
7.22659e-23
7.44281e-23
7.57532e-23
7.60409e-23
7.52827e-23
7.35912e-23
7.11136e-23
6.81333e-23
6.51595e-23
6.30246e-23
6.24325e-23
6.27968e-23
6.37442e-23
6.5028e-23
6.64773e-23
6.79686e-23
6.94108e-23
7.07376e-23
7.19035e-23
7.28813e-23
7.36586e-23
7.42369e-23
7.46289e-23
7.48573e-23
7.49529e-23
2.02795e-22
2.09302e-22
2.16595e-22
2.22819e-22
2.26975e-22
2.29559e-22
2.33537e-22
2.46097e-22
2.64853e-22
2.8807e-22
3.14789e-22
3.44343e-22
3.76131e-22
4.0952e-22
4.43848e-22
4.78413e-22
5.1247e-22
5.45256e-22
5.76029e-22
6.04122e-22
6.2899e-22
6.50245e-22
6.67674e-22
6.81228e-22
6.91001e-22
6.97206e-22
7.00135e-22
4.95159e-22
5.31906e-22
5.99601e-22
6.92091e-22
8.07843e-22
9.47272e-22
1.11155e-21
1.30176e-21
1.51802e-21
1.75952e-21
2.02413e-21
2.30799e-21
2.60532e-21
2.90888e-21
3.21088e-21
3.50415e-21
3.7832e-21
4.04462e-21
4.28689e-21
4.50964e-21
4.71284e-21
4.89603e-21
5.05789e-21
5.19597e-21
5.30673e-21
5.38574e-21
5.42793e-21
2.24045e-21
2.56946e-21
3.06352e-21
3.72704e-21
4.56899e-21
5.59861e-21
6.82047e-21
8.22933e-21
9.80657e-21
1.15216e-20
1.33396e-20
1.52346e-20
1.72007e-20
1.92554e-20
2.14349e-20
2.37835e-20
2.63415e-20
2.9135e-20
3.21678e-20
3.54147e-20
3.88169e-20
4.22796e-20
4.56709e-20
4.88238e-20
5.15401e-20
5.3596e-20
5.47496e-20
1.37113e-20
1.57626e-20
1.88301e-20
2.2905e-20
2.79615e-20
3.39338e-20
4.07276e-20
4.82703e-20
5.65811e-20
6.58267e-20
7.63367e-20
8.85835e-20
1.03142e-19
1.20637e-19
1.41687e-19
1.66834e-19
1.96462e-19
2.30718e-19
2.69428e-19
3.12026e-19
3.57498e-19
4.04348e-19
4.506e-19
4.93818e-19
5.31164e-19
5.5948e-19
5.75383e-19
7.72472e-20
8.61897e-20
9.91828e-20
1.15953e-19
1.36413e-19
1.60767e-19
1.89663e-19
2.24324e-19
2.66636e-19
3.1919e-19
3.85262e-19
4.68711e-19
5.73786e-19
7.04807e-19
8.65756e-19
1.05977e-18
1.28859e-18
1.55201e-18
1.84736e-18
2.16918e-18
2.50889e-18
2.85481e-18
3.19227e-18
3.5039e-18
3.77014e-18
3.96981e-18
4.08081e-18
2.94708e-19
3.23394e-19
3.66176e-19
4.23782e-19
4.98282e-19
5.93338e-19
7.14576e-19
8.69913e-19
1.06977e-18
1.32704e-18
1.65679e-18
2.07546e-18
2.59976e-18
3.24509e-18
4.02373e-18
4.94287e-18
6.00272e-18
7.19484e-18
8.50093e-18
9.89212e-18
1.13289e-17
1.27618e-17
1.41322e-17
1.53745e-17
1.64175e-17
1.71872e-17
1.76087e-17
8.58597e-19
9.45433e-19
1.07871e-18
1.26456e-18
1.51383e-18
1.84243e-18
2.27182e-18
2.82919e-18
3.54712e-18
4.46241e-18
5.614e-18
7.0401e-18
8.77458e-18
1.08429e-17
1.3258e-17
1.60168e-17
1.90972e-17
2.24557e-17
2.60276e-17
2.97264e-17
3.34466e-17
3.70656e-17
4.04479e-17
4.34485e-17
4.59183e-17
4.77076e-17
4.86709e-17
2.17779e-18
2.41484e-18
2.78274e-18
3.30109e-18
4.00048e-18
4.9215e-18
6.11382e-18
7.63429e-18
9.54404e-18
1.19043e-17
1.47712e-17
1.81901e-17
2.21896e-17
2.67763e-17
3.19306e-17
3.76038e-17
4.37168e-17
5.0161e-17
5.67999e-17
6.34732e-17
7.00009e-17
7.61891e-17
8.18354e-17
8.67351e-17
9.06864e-17
9.34956e-17
9.49822e-17
5.14351e-18
5.70944e-18
6.5822e-18
7.79819e-18
9.41111e-18
1.14864e-17
1.40962e-17
1.73133e-17
2.1205e-17
2.58259e-17
3.12112e-17
3.73712e-17
4.42863e-17
5.19047e-17
6.0141e-17
6.88781e-17
7.79693e-17
8.72428e-17
9.65066e-17
1.05555e-16
1.14172e-16
1.22141e-16
1.29249e-16
1.35287e-16
1.40063e-16
1.43399e-16
1.45135e-16
1.15174e-17
1.26701e-17
1.44173e-17
1.67953e-17
1.986e-17
2.36745e-17
2.82989e-17
3.37812e-17
4.01501e-17
4.74087e-17
5.55299e-17
6.44548e-17
7.40923e-17
8.43212e-17
9.49938e-17
1.05941e-16
1.16976e-16
1.27904e-16
1.38522e-16
1.48629e-16
1.58028e-16
1.6653e-16
1.7396e-16
1.80156e-16
1.84972e-16
1.88283e-16
1.89982e-16
2.38458e-17
2.58242e-17
2.87629e-17
3.2659e-17
3.75289e-17
4.33886e-17
5.02419e-17
5.80718e-17
6.68346e-17
7.64582e-17
8.68422e-17
9.78599e-17
1.09363e-16
1.21186e-16
1.33153e-16
1.45081e-16
1.56787e-16
1.68091e-16
1.78822e-16
1.88818e-16
1.97929e-16
2.0602e-16
2.12971e-16
2.18677e-16
2.2305e-16
2.26018e-16
2.27522e-16
4.44513e-17
4.73385e-17
5.15485e-17
5.69998e-17
6.36303e-17
7.13757e-17
8.0158e-17
8.98797e-17
1.00422e-16
1.11648e-16
1.23401e-16
1.35516e-16
1.47821e-16
1.60143e-16
1.7231e-16
1.84161e-16
1.95542e-16
2.06314e-16
2.16351e-16
2.25539e-16
2.33781e-16
2.40994e-16
2.47107e-16
2.52064e-16
2.55819e-16
2.58341e-16
2.59607e-16
7.41705e-17
7.78354e-17
8.30988e-17
8.97838e-17
9.77366e-17
1.06806e-16
1.16836e-16
1.27661e-16
1.39108e-16
1.51e-16
1.63158e-16
1.75408e-16
1.87583e-16
1.99526e-16
2.11095e-16
2.22161e-16
2.32612e-16
2.42349e-16
2.51291e-16
2.59368e-16
2.66524e-16
2.72716e-16
2.77908e-16
2.82078e-16
2.85209e-16
2.87294e-16
2.88334e-16
1.1188e-16
1.16034e-16
1.2193e-16
1.29306e-16
1.37932e-16
1.47587e-16
1.5806e-16
1.69142e-16
1.80636e-16
1.92352e-16
2.04111e-16
2.15752e-16
2.27129e-16
2.38115e-16
2.486e-16
2.58492e-16
2.67713e-16
2.76203e-16
2.83911e-16
2.90803e-16
2.9685e-16
3.02036e-16
3.06349e-16
3.09787e-16
3.12351e-16
3.14047e-16
3.14888e-16
1.55021e-16
1.5933e-16
1.65391e-16
1.72888e-16
1.81541e-16
1.9109e-16
2.01296e-16
2.11936e-16
2.22807e-16
2.33727e-16
2.44535e-16
2.55092e-16
2.65278e-16
2.74996e-16
2.84165e-16
2.92723e-16
3.00622e-16
3.07826e-16
3.1431e-16
3.2006e-16
3.25068e-16
3.29332e-16
3.32855e-16
3.35646e-16
3.37715e-16
3.39078e-16
3.39749e-16
2.00584e-16
2.04759e-16
2.10592e-16
2.17747e-16
2.25922e-16
2.34849e-16
2.44283e-16
2.54008e-16
2.63833e-16
2.73593e-16
2.8315e-16
2.92388e-16
3.01215e-16
3.09557e-16
3.17358e-16
3.24578e-16
3.31189e-16
3.37173e-16
3.42522e-16
3.47234e-16
3.51312e-16
3.54764e-16
3.57601e-16
3.59836e-16
3.61486e-16
3.62567e-16
3.63098e-16
2.45896e-16
2.4974e-16
2.55083e-16
2.61594e-16
2.6898e-16
2.76979e-16
2.85362e-16
2.93928e-16
3.02508e-16
3.10959e-16
3.19165e-16
3.27034e-16
3.34493e-16
3.4149e-16
3.47987e-16
3.53959e-16
3.59391e-16
3.64278e-16
3.6862e-16
3.72423e-16
3.75697e-16
3.78455e-16
3.8071e-16
3.82478e-16
3.83778e-16
3.84626e-16
3.85041e-16
2.89063e-16
2.9247e-16
2.97188e-16
3.0291e-16
3.09365e-16
3.16312e-16
3.23545e-16
3.30887e-16
3.38192e-16
3.45338e-16
3.52231e-16
3.58798e-16
3.64983e-16
3.70749e-16
3.76071e-16
3.80934e-16
3.85333e-16
3.89268e-16
3.92746e-16
3.95777e-16
3.98373e-16
4.00549e-16
4.0232e-16
4.03704e-16
4.04715e-16
4.05373e-16
4.05693e-16
3.28997e-16
3.31936e-16
3.35995e-16
3.40899e-16
3.46406e-16
3.52305e-16
3.58415e-16
3.64585e-16
3.70689e-16
3.76629e-16
3.82326e-16
3.87724e-16
3.92781e-16
3.9747e-16
4.01773e-16
4.05686e-16
4.09205e-16
4.12338e-16
4.15093e-16
4.17481e-16
4.19517e-16
4.21214e-16
4.2259e-16
4.23658e-16
4.24437e-16
4.2494e-16
4.25184e-16
3.65271e-16
3.67759e-16
3.71188e-16
3.75317e-16
3.79938e-16
3.8487e-16
3.89956e-16
3.9507e-16
4.00106e-16
4.04983e-16
4.09638e-16
4.14027e-16
4.18119e-16
4.21892e-16
4.25339e-16
4.28455e-16
4.31245e-16
4.33714e-16
4.35874e-16
4.37736e-16
4.39314e-16
4.40624e-16
4.41679e-16
4.42494e-16
4.43085e-16
4.43465e-16
4.43648e-16
3.97904e-16
3.99984e-16
4.02845e-16
4.06283e-16
4.1012e-16
4.14201e-16
4.18395e-16
4.22595e-16
4.26714e-16
4.30686e-16
4.3446e-16
4.38002e-16
4.41287e-16
4.44302e-16
4.4704e-16
4.49503e-16
4.51694e-16
4.53623e-16
4.55299e-16
4.56736e-16
4.57946e-16
4.58943e-16
4.59741e-16
4.60353e-16
4.60794e-16
4.61076e-16
4.61211e-16
4.27171e-16
4.28898e-16
4.3127e-16
4.34114e-16
4.37279e-16
4.40636e-16
4.44075e-16
4.47506e-16
4.50859e-16
4.54077e-16
4.57122e-16
4.59965e-16
4.62589e-16
4.64983e-16
4.67144e-16
4.69076e-16
4.70784e-16
4.72276e-16
4.73564e-16
4.74658e-16
4.75573e-16
4.7632e-16
4.76913e-16
4.77364e-16
4.77686e-16
4.7789e-16
4.77986e-16
4.53468e-16
4.54898e-16
4.56858e-16
4.59204e-16
4.61809e-16
4.64564e-16
4.67377e-16
4.70174e-16
4.72895e-16
4.75497e-16
4.77945e-16
4.8022e-16
4.82306e-16
4.84197e-16
4.85894e-16
4.87398e-16
4.88717e-16
4.89859e-16
4.90835e-16
4.91657e-16
4.92336e-16
4.92884e-16
4.93314e-16
4.93637e-16
4.93864e-16
4.94005e-16
4.94072e-16
4.7722e-16
4.78404e-16
4.80024e-16
4.8196e-16
4.84104e-16
4.86365e-16
4.88666e-16
4.90946e-16
4.93154e-16
4.95254e-16
4.9722e-16
4.99035e-16
5.00688e-16
5.02175e-16
5.03497e-16
5.04658e-16
5.05666e-16
5.06528e-16
5.07256e-16
5.07859e-16
5.0835e-16
5.08741e-16
5.09041e-16
5.09262e-16
5.09414e-16
5.09506e-16
5.09548e-16
4.9883e-16
4.99812e-16
5.01155e-16
5.02756e-16
5.04525e-16
5.06385e-16
5.08271e-16
5.10131e-16
5.11924e-16
5.1362e-16
5.15197e-16
5.16642e-16
5.17946e-16
5.19109e-16
5.2013e-16
5.21017e-16
5.21775e-16
5.22413e-16
5.22941e-16
5.23371e-16
5.23712e-16
5.23976e-16
5.24173e-16
5.24312e-16
5.24404e-16
5.24458e-16
5.24481e-16
5.18656e-16
5.19474e-16
5.20592e-16
5.21921e-16
5.23386e-16
5.24921e-16
5.26472e-16
5.27993e-16
5.2945e-16
5.3082e-16
5.32083e-16
5.33229e-16
5.34253e-16
5.35154e-16
5.35935e-16
5.366e-16
5.37158e-16
5.37616e-16
5.37985e-16
5.38275e-16
5.38496e-16
5.38658e-16
5.38772e-16
5.38846e-16
5.38891e-16
5.38913e-16
5.38921e-16
5.37e-16
5.37686e-16
5.38621e-16
5.3973e-16
5.40948e-16
5.4222e-16
5.43498e-16
5.44744e-16
5.45931e-16
5.47036e-16
5.48045e-16
5.4895e-16
5.49748e-16
5.50437e-16
5.51022e-16
5.51509e-16
5.51904e-16
5.52217e-16
5.52457e-16
5.52633e-16
5.52757e-16
5.52837e-16
5.52884e-16
5.52906e-16
5.52911e-16
5.52909e-16
5.52904e-16
5.54111e-16
5.54689e-16
5.55475e-16
5.56405e-16
5.57422e-16
5.58479e-16
5.59535e-16
5.60558e-16
5.61524e-16
5.62413e-16
5.63215e-16
5.63924e-16
5.64536e-16
5.65052e-16
5.65478e-16
5.65818e-16
5.66081e-16
5.66274e-16
5.66408e-16
5.66492e-16
5.66536e-16
5.6655e-16
5.66541e-16
5.6652e-16
5.66494e-16
5.6647e-16
5.66456e-16
5.70186e-16
5.70675e-16
5.71339e-16
5.72122e-16
5.72974e-16
5.73855e-16
5.74728e-16
5.75567e-16
5.76349e-16
5.77061e-16
5.77692e-16
5.78238e-16
5.78696e-16
5.7907e-16
5.79363e-16
5.79582e-16
5.79734e-16
5.79828e-16
5.79874e-16
5.79881e-16
5.79859e-16
5.79816e-16
5.79762e-16
5.79705e-16
5.79652e-16
5.79611e-16
5.79588e-16
5.85379e-16
5.85794e-16
5.86356e-16
5.87016e-16
5.8773e-16
5.88463e-16
5.89184e-16
5.89868e-16
5.90498e-16
5.9106e-16
5.91547e-16
5.91955e-16
5.92284e-16
5.92536e-16
5.92717e-16
5.92833e-16
5.92891e-16
5.92902e-16
5.92873e-16
5.92814e-16
5.92735e-16
5.92644e-16
5.92551e-16
5.92463e-16
5.92388e-16
5.92332e-16
5.92302e-16
5.99803e-16
6.00155e-16
6.0063e-16
6.01185e-16
6.01782e-16
6.02389e-16
6.02979e-16
6.03531e-16
6.04029e-16
6.04462e-16
6.04825e-16
6.05114e-16
6.05331e-16
6.05478e-16
6.05561e-16
6.05587e-16
6.05564e-16
6.055e-16
6.05406e-16
6.05289e-16
6.0516e-16
6.05028e-16
6.049e-16
6.04785e-16
6.0469e-16
6.04621e-16
6.04585e-16
6.13537e-16
6.13834e-16
6.14234e-16
6.14697e-16
6.15191e-16
6.15687e-16
6.16162e-16
6.16597e-16
6.16978e-16
6.17297e-16
6.17549e-16
6.17733e-16
6.17849e-16
6.17902e-16
6.17897e-16
6.17842e-16
6.17745e-16
6.17615e-16
6.17461e-16
6.17292e-16
6.17118e-16
6.16947e-16
6.16788e-16
6.16649e-16
6.16535e-16
6.16455e-16
6.16412e-16
6.2663e-16
6.26879e-16
6.27209e-16
6.2759e-16
6.27991e-16
6.28386e-16
6.28756e-16
6.29084e-16
6.29359e-16
6.29573e-16
6.29722e-16
6.29808e-16
6.2983e-16
6.29796e-16
6.29709e-16
6.29578e-16
6.29412e-16
6.29219e-16
6.29009e-16
6.28791e-16
6.28574e-16
6.28368e-16
6.28179e-16
6.28016e-16
6.27886e-16
6.27794e-16
6.27746e-16
6.39106e-16
6.39308e-16
6.39575e-16
6.39877e-16
6.4019e-16
6.40491e-16
6.40761e-16
6.40987e-16
6.4116e-16
6.41273e-16
6.41325e-16
6.41316e-16
6.41249e-16
6.41129e-16
6.40963e-16
6.40758e-16
6.40525e-16
6.40271e-16
6.40006e-16
6.39739e-16
6.39481e-16
6.39238e-16
6.3902e-16
6.38834e-16
6.38687e-16
6.38584e-16
6.38531e-16
6.5096e-16
6.51117e-16
6.51322e-16
6.51548e-16
6.51775e-16
6.51982e-16
6.52154e-16
6.5228e-16
6.52352e-16
6.52365e-16
6.52319e-16
6.52215e-16
6.52057e-16
6.51851e-16
6.51605e-16
6.51326e-16
6.51024e-16
6.50708e-16
6.50387e-16
6.50071e-16
6.4977e-16
6.49491e-16
6.49243e-16
6.49034e-16
6.48869e-16
6.48755e-16
6.48696e-16
6.62167e-16
6.62278e-16
6.62419e-16
6.62568e-16
6.62707e-16
6.62819e-16
6.6289e-16
6.62913e-16
6.6288e-16
6.6279e-16
6.62642e-16
6.6244e-16
6.62188e-16
6.61893e-16
6.61562e-16
6.61205e-16
6.60831e-16
6.60449e-16
6.6007e-16
6.59702e-16
6.59355e-16
6.59038e-16
6.58759e-16
6.58525e-16
6.58342e-16
6.58215e-16
6.5815e-16
6.72674e-16
6.72738e-16
6.72812e-16
6.7288e-16
6.72926e-16
6.72937e-16
6.72902e-16
6.72814e-16
6.7267e-16
6.72469e-16
6.72213e-16
6.71905e-16
6.71551e-16
6.7116e-16
6.70738e-16
6.70297e-16
6.69845e-16
6.69392e-16
6.68948e-16
6.68524e-16
6.68129e-16
6.6777e-16
6.67456e-16
6.67195e-16
6.66992e-16
6.66852e-16
6.66781e-16
6.82407e-16
6.82419e-16
6.82421e-16
6.82401e-16
6.82346e-16
6.82246e-16
6.82095e-16
6.81887e-16
6.81622e-16
6.81299e-16
6.80923e-16
6.80499e-16
6.80033e-16
6.79535e-16
6.79013e-16
6.78478e-16
6.77939e-16
6.77408e-16
6.76894e-16
6.76407e-16
6.75957e-16
6.75552e-16
6.752e-16
6.74908e-16
6.74683e-16
6.74529e-16
6.7445e-16
6.91264e-16
6.91219e-16
6.91141e-16
6.91022e-16
6.90855e-16
6.90633e-16
6.90352e-16
6.9001e-16
6.89608e-16
6.89149e-16
6.88639e-16
6.88084e-16
6.87493e-16
6.86875e-16
6.8624e-16
6.85599e-16
6.84963e-16
6.84343e-16
6.83748e-16
6.83191e-16
6.82679e-16
6.82221e-16
6.81826e-16
6.81501e-16
6.8125e-16
6.8108e-16
6.80993e-16
6.99117e-16
6.99006e-16
6.98838e-16
6.98608e-16
6.98314e-16
6.97953e-16
6.97525e-16
6.9703e-16
6.96474e-16
6.95861e-16
6.95198e-16
6.94494e-16
6.9376e-16
6.93005e-16
6.92241e-16
6.9148e-16
6.90733e-16
6.90011e-16
6.89325e-16
6.88687e-16
6.88105e-16
6.87587e-16
6.87143e-16
6.86778e-16
6.86499e-16
6.8631e-16
6.86214e-16
7.05805e-16
7.0562e-16
7.05348e-16
7.04992e-16
7.04553e-16
7.04033e-16
7.03436e-16
7.02767e-16
7.02034e-16
7.01243e-16
7.00405e-16
6.99531e-16
6.98632e-16
6.9772e-16
6.96808e-16
6.95909e-16
6.95034e-16
6.94196e-16
6.93406e-16
6.92674e-16
6.92011e-16
6.91425e-16
6.90924e-16
6.90515e-16
6.90202e-16
6.89991e-16
6.89885e-16
7.11139e-16
7.10869e-16
7.10478e-16
7.09976e-16
7.09369e-16
7.08666e-16
7.07876e-16
7.07006e-16
7.06068e-16
7.05073e-16
7.04033e-16
7.02963e-16
7.01874e-16
7.00782e-16
6.99699e-16
6.9864e-16
6.97618e-16
6.96646e-16
6.95735e-16
6.94897e-16
6.94141e-16
6.93476e-16
6.9291e-16
6.92449e-16
6.92098e-16
6.91863e-16
6.91744e-16
7.14894e-16
7.14526e-16
7.13998e-16
7.13327e-16
7.12527e-16
7.11614e-16
7.10599e-16
7.09497e-16
7.08324e-16
7.07093e-16
7.05821e-16
7.04523e-16
7.03216e-16
7.01916e-16
7.00637e-16
6.99394e-16
6.98203e-16
6.97076e-16
6.96027e-16
6.95065e-16
6.94202e-16
6.93446e-16
6.92805e-16
6.92285e-16
6.91891e-16
6.91627e-16
6.91494e-16
7.16811e-16
7.1633e-16
7.15643e-16
7.14778e-16
7.13756e-16
7.12599e-16
7.11326e-16
7.09958e-16
7.08513e-16
7.07011e-16
7.05471e-16
7.03913e-16
7.02355e-16
7.00814e-16
6.9931e-16
6.97857e-16
6.96471e-16
6.95167e-16
6.93958e-16
6.92856e-16
6.9187e-16
6.9101e-16
6.90283e-16
6.89695e-16
6.89251e-16
6.88954e-16
6.88806e-16
7.16597e-16
7.15985e-16
7.15116e-16
7.14028e-16
7.12751e-16
7.11314e-16
7.09745e-16
7.0807e-16
7.06314e-16
7.04501e-16
7.02655e-16
7.00798e-16
6.98953e-16
6.97139e-16
6.95376e-16
6.93683e-16
6.92076e-16
6.9057e-16
6.89179e-16
6.87916e-16
6.86791e-16
6.85812e-16
6.84988e-16
6.84323e-16
6.83823e-16
6.83489e-16
6.83322e-16
7.13925e-16
7.13164e-16
7.12087e-16
7.10743e-16
7.09174e-16
7.07419e-16
7.05512e-16
7.03488e-16
7.01378e-16
6.99211e-16
6.97017e-16
6.94821e-16
6.92649e-16
6.90525e-16
6.88471e-16
6.86505e-16
6.84647e-16
6.82913e-16
6.81317e-16
6.79873e-16
6.7859e-16
6.77478e-16
6.76544e-16
6.75793e-16
6.75229e-16
6.74853e-16
6.74665e-16
7.08442e-16
7.07512e-16
7.06199e-16
7.04565e-16
7.02666e-16
7.00549e-16
6.98261e-16
6.95843e-16
6.93333e-16
6.90767e-16
6.88181e-16
6.85604e-16
6.83067e-16
6.80595e-16
6.78213e-16
6.75943e-16
6.73805e-16
6.71816e-16
6.69991e-16
6.68345e-16
6.66886e-16
6.65626e-16
6.6457e-16
6.63722e-16
6.63087e-16
6.62665e-16
6.62455e-16
6.99775e-16
6.98655e-16
6.97077e-16
6.95119e-16
6.92849e-16
6.90329e-16
6.87614e-16
6.84756e-16
6.818e-16
6.78792e-16
6.7577e-16
6.72771e-16
6.69828e-16
6.66971e-16
6.64227e-16
6.61621e-16
6.59174e-16
6.56905e-16
6.54829e-16
6.5296e-16
6.5131e-16
6.49887e-16
6.48697e-16
6.47745e-16
6.47032e-16
6.46559e-16
6.46325e-16
6.87546e-16
6.86216e-16
6.84344e-16
6.82028e-16
6.79349e-16
6.76384e-16
6.732e-16
6.69857e-16
6.66414e-16
6.6292e-16
6.59422e-16
6.55961e-16
6.52577e-16
6.49301e-16
6.46165e-16
6.43195e-16
6.40414e-16
6.37842e-16
6.35495e-16
6.33387e-16
6.31531e-16
6.29932e-16
6.28599e-16
6.27534e-16
6.26739e-16
6.26212e-16
6.25951e-16
6.71395e-16
6.69835e-16
6.67644e-16
6.64937e-16
6.61815e-16
6.58368e-16
6.54676e-16
6.50812e-16
6.46842e-16
6.42827e-16
6.38819e-16
6.34865e-16
6.3101e-16
6.27289e-16
6.23737e-16
6.20381e-16
6.17247e-16
6.14355e-16
6.11723e-16
6.09364e-16
6.07291e-16
6.0551e-16
6.04027e-16
6.02844e-16
6.01963e-16
6.0138e-16
6.01092e-16
6.51e-16
6.49195e-16
6.46664e-16
6.43542e-16
6.39949e-16
6.35991e-16
6.31763e-16
6.27349e-16
6.22827e-16
6.18265e-16
6.13724e-16
6.09258e-16
6.04913e-16
6.00732e-16
5.96749e-16
5.92997e-16
5.895e-16
5.86281e-16
5.83358e-16
5.80744e-16
5.7845e-16
5.76484e-16
5.74849e-16
5.73549e-16
5.7258e-16
5.71941e-16
5.71625e-16
6.2612e-16
6.24061e-16
6.21176e-16
6.17625e-16
6.13546e-16
6.09062e-16
6.04283e-16
5.99308e-16
5.94223e-16
5.89107e-16
5.84027e-16
5.79044e-16
5.74209e-16
5.69567e-16
5.65157e-16
5.61011e-16
5.57157e-16
5.53617e-16
5.50408e-16
5.47544e-16
5.45036e-16
5.4289e-16
5.4111e-16
5.39695e-16
5.38643e-16
5.3795e-16
5.37608e-16
5.96631e-16
5.94316e-16
5.91077e-16
5.87096e-16
5.82533e-16
5.77527e-16
5.72205e-16
5.66677e-16
5.61042e-16
5.55388e-16
5.49788e-16
5.44308e-16
5.39005e-16
5.33927e-16
5.29113e-16
5.24599e-16
5.20411e-16
5.16572e-16
5.131e-16
5.10008e-16
5.07303e-16
5.04993e-16
5.03078e-16
5.01558e-16
5.0043e-16
4.99688e-16
4.99323e-16
5.62562e-16
5.6e-16
5.5642e-16
5.52028e-16
5.47002e-16
5.41501e-16
5.35665e-16
5.29619e-16
5.23471e-16
5.17316e-16
5.11236e-16
5.053e-16
4.99568e-16
4.94091e-16
4.88915e-16
4.84073e-16
4.79594e-16
4.75498e-16
4.71801e-16
4.68516e-16
4.65651e-16
4.63208e-16
4.61188e-16
4.59588e-16
4.58403e-16
4.57624e-16
4.5724e-16
5.24147e-16
5.21361e-16
5.17472e-16
5.12708e-16
5.07267e-16
5.01324e-16
4.95032e-16
4.88528e-16
4.81938e-16
4.75362e-16
4.68886e-16
4.62584e-16
4.56517e-16
4.50737e-16
4.45287e-16
4.40201e-16
4.35505e-16
4.31221e-16
4.27363e-16
4.23942e-16
4.20963e-16
4.18428e-16
4.16336e-16
4.14682e-16
4.13459e-16
4.12656e-16
4.12262e-16
4.81836e-16
4.78865e-16
4.74726e-16
4.69665e-16
4.63897e-16
4.57615e-16
4.50984e-16
4.44152e-16
4.37245e-16
4.30369e-16
4.23617e-16
4.17065e-16
4.10775e-16
4.048e-16
3.99181e-16
3.93951e-16
3.89134e-16
3.84751e-16
3.80813e-16
3.77329e-16
3.74301e-16
3.71731e-16
3.69614e-16
3.67944e-16
3.66711e-16
3.65903e-16
3.65507e-16
4.36497e-16
4.33398e-16
4.29087e-16
4.23827e-16
4.17847e-16
4.1135e-16
4.04514e-16
3.9749e-16
3.90411e-16
3.83388e-16
3.76512e-16
3.69861e-16
3.63496e-16
3.57469e-16
3.51817e-16
3.46573e-16
3.41757e-16
3.37386e-16
3.33471e-16
3.30015e-16
3.2702e-16
3.24483e-16
3.22398e-16
3.20757e-16
3.19547e-16
3.18757e-16
3.1837e-16
3.89158e-16
3.86004e-16
3.81623e-16
3.7629e-16
3.70243e-16
3.63692e-16
3.56821e-16
3.49786e-16
3.4272e-16
3.35734e-16
3.28919e-16
3.22351e-16
3.16089e-16
3.10179e-16
3.04657e-16
2.99549e-16
2.94875e-16
2.90646e-16
2.86868e-16
2.83544e-16
2.80672e-16
2.78246e-16
2.76257e-16
2.74696e-16
2.73548e-16
2.728e-16
2.72435e-16
3.4112e-16
3.37997e-16
3.33668e-16
3.28411e-16
3.22467e-16
3.1605e-16
3.09343e-16
3.02502e-16
2.95658e-16
2.88919e-16
2.82372e-16
2.76088e-16
2.70121e-16
2.64513e-16
2.59293e-16
2.54484e-16
2.501e-16
2.46148e-16
2.42631e-16
2.39547e-16
2.36891e-16
2.34655e-16
2.32828e-16
2.31398e-16
2.3035e-16
2.29669e-16
2.29338e-16
2.93876e-16
2.9088e-16
2.86734e-16
2.81714e-16
2.76058e-16
2.69974e-16
2.63642e-16
2.57211e-16
2.50806e-16
2.44529e-16
2.3846e-16
2.32662e-16
2.27183e-16
2.22058e-16
2.1731e-16
2.12956e-16
2.09004e-16
2.05458e-16
2.02316e-16
1.99573e-16
1.97221e-16
1.95249e-16
1.93644e-16
1.92393e-16
1.9148e-16
1.90888e-16
1.90602e-16
2.48992e-16
2.46217e-16
2.42387e-16
2.37765e-16
2.32576e-16
2.2702e-16
2.21263e-16
2.15447e-16
2.09685e-16
2.04069e-16
1.98669e-16
1.93539e-16
1.88719e-16
1.84235e-16
1.80106e-16
1.7634e-16
1.72942e-16
1.69909e-16
1.67237e-16
1.64917e-16
1.62938e-16
1.61288e-16
1.59952e-16
1.58917e-16
1.58165e-16
1.57681e-16
1.57448e-16
2.07956e-16
2.05488e-16
2.02092e-16
1.98008e-16
1.93445e-16
1.88582e-16
1.83572e-16
1.78541e-16
1.73587e-16
1.6879e-16
1.64209e-16
1.59887e-16
1.55853e-16
1.52128e-16
1.48721e-16
1.45636e-16
1.42873e-16
1.40425e-16
1.38283e-16
1.36438e-16
1.34876e-16
1.33584e-16
1.32547e-16
1.31749e-16
1.31174e-16
1.30807e-16
1.30632e-16
1.72016e-16
1.69921e-16
1.67048e-16
1.63607e-16
1.59783e-16
1.55733e-16
1.51588e-16
1.47454e-16
1.43416e-16
1.39536e-16
1.35861e-16
1.32424e-16
1.29245e-16
1.26335e-16
1.23699e-16
1.21336e-16
1.1924e-16
1.17402e-16
1.15812e-16
1.14457e-16
1.13324e-16
1.12398e-16
1.11664e-16
1.11107e-16
1.10712e-16
1.10463e-16
1.10346e-16
1.42025e-16
1.4034e-16
1.38039e-16
1.35298e-16
1.3227e-16
1.29087e-16
1.25856e-16
1.22662e-16
1.19572e-16
1.16634e-16
1.13881e-16
1.11335e-16
1.0901e-16
1.06908e-16
1.05031e-16
1.03372e-16
1.01924e-16
1.00675e-16
9.96146e-17
9.87287e-17
9.80036e-17
9.7425e-17
9.69785e-17
9.66496e-17
9.64237e-17
9.62868e-17
9.62251e-17
1.18341e-16
1.17071e-16
1.15345e-16
1.13302e-16
1.11064e-16
1.08733e-16
1.06393e-16
1.04108e-16
1.01925e-16
9.98793e-17
9.79929e-17
9.62787e-17
9.47421e-17
9.3383e-17
9.21969e-17
9.11763e-17
9.03117e-17
8.95918e-17
8.90044e-17
8.85364e-17
8.81744e-17
8.79047e-17
8.77135e-17
8.75871e-17
8.75118e-17
8.74744e-17
8.74619e-17
1.00802e-16
9.99188e-17
9.87272e-17
9.73302e-17
9.58173e-17
9.42631e-17
9.2727e-17
9.12541e-17
8.98767e-17
8.86164e-17
8.7486e-17
8.64914e-17
8.56331e-17
8.49076e-17
8.43087e-17
8.38278e-17
8.34552e-17