/*--------------------------------*- C++ -*----------------------------------*\
| =========                 |                                                 |
| \\      /  F ield         | OpenFOAM: The Open Source CFD Toolbox           |
|  \\    /   O peration     | Version:  2106                                  |
|   \\  /    A nd           | Website:  www.openfoam.com                      |
|    \\/     M anipulation  |                                                 |
\*---------------------------------------------------------------------------*/
FoamFile
{
    version     2.0;
    format      ascii;
    arch        "LSB;label=32;scalar=64";
    class       volScalarField;
    location    "110.00057";
    object      H2;
}
// * * * * * * * * * * * * * * * * * * * * * * * * * * * * * * * * * * * * * //

dimensions      [0 0 0 0 0 0 0];

internalField   nonuniform List<scalar> 
3360
(
1.54913e-23
1.64604e-23
1.7825e-23
1.95208e-23
2.14914e-23
2.36843e-23
2.6049e-23
2.85365e-23
3.10993e-23
3.36922e-23
3.62727e-23
3.88021e-23
4.12454e-23
4.35726e-23
4.57583e-23
4.77823e-23
4.96291e-23
5.12881e-23
5.27532e-23
5.40227e-23
5.50984e-23
5.59856e-23
5.66926e-23
5.723e-23
5.76107e-23
5.78488e-23
5.79597e-23
7.8321e-23
8.37406e-23
9.1488e-23
1.01307e-22
1.13003e-22
1.26412e-22
1.41385e-22
1.57778e-22
1.75446e-22
1.94236e-22
2.13986e-22
2.34516e-22
2.55631e-22
2.77116e-22
2.98739e-22
3.20252e-22
3.41391e-22
3.61881e-22
3.81434e-22
3.99759e-22
4.1657e-22
4.31587e-22
4.44552e-22
4.55232e-22
4.63429e-22
4.68987e-22
4.71797e-22
2.99292e-22
3.23904e-22
3.59522e-22
4.05392e-22
4.6103e-22
5.26057e-22
6.00092e-22
6.82675e-22
7.73214e-22
8.7094e-22
9.74877e-22
1.08386e-21
1.19657e-21
1.31152e-21
1.42711e-21
1.54162e-21
1.6533e-21
1.76039e-21
1.8612e-21
1.95414e-21
2.03781e-21
2.111e-21
2.17277e-21
2.22245e-21
2.25963e-21
2.2842e-21
2.29629e-21
1.08113e-21
1.18265e-21
1.33143e-21
1.52573e-21
1.7649e-21
2.04852e-21
2.37586e-21
2.74544e-21
3.15485e-21
3.60046e-21
4.07749e-21
4.57992e-21
5.10069e-21
5.63185e-21
6.16475e-21
6.69037e-21
7.19969e-21
7.68408e-21
8.13563e-21
8.54742e-21
8.9138e-21
9.23041e-21
9.49431e-21
9.70393e-21
9.85896e-21
9.96022e-21
1.00095e-20
4.01733e-21
4.43173e-21
5.04293e-21
5.84716e-21
6.84478e-21
8.03645e-21
9.4206e-21
1.09916e-20
1.27385e-20
1.46443e-20
1.6686e-20
1.8835e-20
2.1058e-20
2.33182e-20
2.55767e-20
2.77943e-20
2.99328e-20
3.19565e-20
3.38339e-20
3.55381e-20
3.70476e-20
3.83467e-20
3.94255e-20
4.02794e-20
4.09089e-20
4.13189e-20
4.15181e-20
1.53168e-20
1.69921e-20
1.94731e-20
2.27511e-20
2.68329e-20
3.17244e-20
3.74207e-20
4.3898e-20
5.11088e-20
5.89798e-20
6.74114e-20
7.62803e-20
8.54438e-20
9.47453e-20
1.04021e-19
1.13109e-19
1.21851e-19
1.30103e-19
1.3774e-19
1.44655e-19
1.50766e-19
1.56013e-19
1.60362e-19
1.63797e-19
1.66324e-19
1.67968e-19
1.68765e-19
5.93888e-20
6.61306e-20
7.61352e-20
8.93841e-20
1.05917e-19
1.25764e-19
1.48903e-19
1.7523e-19
2.04543e-19
2.36529e-19
2.7077e-19
3.06751e-19
3.43883e-19
3.81525e-19
4.19014e-19
4.5569e-19
4.90924e-19
5.24145e-19
5.5485e-19
5.82623e-19
6.07142e-19
6.28178e-19
6.45596e-19
6.59346e-19
6.69459e-19
6.76032e-19
6.79219e-19
2.32483e-19
2.59418e-19
2.99447e-19
3.5253e-19
4.18856e-19
4.98568e-19
5.91587e-19
6.97496e-19
8.15458e-19
9.44192e-19
1.08198e-18
1.22673e-18
1.37604e-18
1.52732e-18
1.67788e-18
1.82507e-18
1.96636e-18
2.09947e-18
2.22241e-18
2.33351e-18
2.43152e-18
2.51554e-18
2.58506e-18
2.6399e-18
2.68021e-18
2.70639e-18
2.71908e-18
9.15814e-19
1.02339e-18
1.18337e-18
1.39567e-18
1.66109e-18
1.98022e-18
2.35274e-18
2.77691e-18
3.2493e-18
3.7647e-18
4.31613e-18
4.89514e-18
5.49207e-18
6.09651e-18
6.69773e-18
7.28516e-18
7.84878e-18
8.3795e-18
8.86942e-18
9.31204e-18
9.70236e-18
1.00369e-17
1.03136e-17
1.05318e-17
1.06922e-17
1.07964e-17
1.08469e-17
3.61459e-18
4.04246e-18
4.67912e-18
5.52449e-18
6.58199e-18
7.85411e-18
9.33956e-18
1.10314e-17
1.29157e-17
1.49717e-17
1.71712e-17
1.94803e-17
2.18603e-17
2.42697e-17
2.66654e-17
2.90053e-17
3.12495e-17
3.33619e-17
3.53111e-17
3.70714e-17
3.8623e-17
3.99523e-17
4.10514e-17
4.1918e-17
4.25545e-17
4.29678e-17
4.3168e-17
1.42939e-17
1.5996e-17
1.8529e-17
2.18931e-17
2.6102e-17
3.11655e-17
3.70782e-17
4.38116e-17
5.131e-17
5.9489e-17
6.82363e-17
7.74162e-17
8.68744e-17
9.64451e-17
1.05958e-16
1.15245e-16
1.2415e-16
1.32528e-16
1.40257e-16
1.47235e-16
1.53384e-16
1.5865e-16
1.63004e-16
1.66437e-16
1.68958e-16
1.70594e-16
1.71387e-16
5.64917e-17
6.32437e-17
7.32941e-17
8.66439e-17
1.03348e-16
1.23445e-16
1.46912e-16
1.73635e-16
2.03389e-16
2.35838e-16
2.70533e-16
3.06933e-16
3.44424e-16
3.82347e-16
4.20026e-16
4.56799e-16
4.9204e-16
5.25185e-16
5.55747e-16
5.83328e-16
6.07622e-16
6.28423e-16
6.45611e-16
6.59157e-16
6.69102e-16
6.75556e-16
6.78681e-16
2.23151e-16
2.49919e-16
2.89758e-16
3.42669e-16
4.0886e-16
4.88473e-16
5.81404e-16
6.87182e-16
8.04906e-16
9.33222e-16
1.07035e-15
1.21413e-15
1.36213e-15
1.51175e-15
1.66032e-15
1.80522e-15
1.94402e-15
2.07449e-15
2.19472e-15
2.30318e-15
2.39867e-15
2.4804e-15
2.5479e-15
2.60109e-15
2.64012e-15
2.66545e-15
2.6777e-15
8.78829e-16
9.84544e-16
1.14187e-15
1.35079e-15
1.61209e-15
1.92627e-15
2.29286e-15
2.70991e-15
3.17379e-15
3.67905e-15
4.21861e-15
4.78391e-15
5.36533e-15
5.95261e-15
6.53528e-15
7.10312e-15
7.64655e-15
8.15696e-15
8.62699e-15
9.05064e-15
9.42338e-15
9.74216e-15
1.00053e-14
1.02125e-14
1.03645e-14
1.04631e-14
1.05108e-14
3.44904e-15
3.86516e-15
4.48425e-15
5.30602e-15
6.33327e-15
7.5676e-15
9.00663e-15
1.06422e-14
1.24595e-14
1.44367e-14
1.65455e-14
1.87521e-14
2.10188e-14
2.33053e-14
2.55709e-14
2.77761e-14
2.98839e-14
3.18614e-14
3.36803e-14
3.53181e-14
3.67578e-14
3.79879e-14
3.90026e-14
3.98008e-14
4.0386e-14
4.07653e-14
4.09487e-14
1.34541e-14
1.50808e-14
1.74999e-14
2.07089e-14
2.4717e-14
2.95284e-14
3.51312e-14
4.14911e-14
4.85476e-14
5.62134e-14
6.43762e-14
7.29035e-14
8.16477e-14
9.04533e-14
9.91635e-14
1.07627e-13
1.15703e-13
1.23267e-13
1.30213e-13
1.36459e-13
1.41941e-13
1.46619e-13
1.50472e-13
1.53501e-13
1.55718e-13
1.57154e-13
1.57848e-13
5.20778e-14
5.8383e-14
6.7752e-14
8.01675e-14
9.5655e-14
1.14218e-13
1.35797e-13
1.60244e-13
1.87312e-13
2.16651e-13
2.47819e-13
2.803e-13
3.13526e-13
3.46902e-13
3.79836e-13
4.1176e-13
4.42151e-13
4.70554e-13
4.96583e-13
5.19937e-13
5.40397e-13
5.57826e-13
5.72161e-13
5.83409e-13
5.91636e-13
5.96955e-13
5.99523e-13
1.99539e-13
2.23681e-13
2.59512e-13
3.06922e-13
3.65952e-13
4.36547e-13
5.18406e-13
6.10892e-13
7.12988e-13
8.23304e-13
9.40119e-13
1.06145e-12
1.18516e-12
1.30901e-12
1.43083e-12
1.54853e-12
1.66025e-12
1.76435e-12
1.85949e-12
1.94463e-12
2.01905e-12
2.08229e-12
2.1342e-12
2.17485e-12
2.20454e-12
2.2237e-12
2.23294e-12
7.54929e-13
8.45894e-13
9.80677e-13
1.15861e-12
1.37956e-12
1.64296e-12
1.94731e-12
2.28986e-12
2.66646e-12
3.07167e-12
3.4989e-12
3.94072e-12
4.38921e-12
4.83634e-12
5.27429e-12
5.69577e-12
6.09428e-12
6.46428e-12
6.80129e-12
7.10192e-12
7.36389e-12
7.58595e-12
7.76777e-12
7.90985e-12
8.01338e-12
8.0801e-12
8.11221e-12
2.81201e-12
3.1476e-12
3.64367e-12
4.29654e-12
5.10417e-12
6.06289e-12
7.16546e-12
8.40012e-12
9.75037e-12
1.11953e-11
1.27104e-11
1.42686e-11
1.58419e-11
1.74023e-11
1.89228e-11
2.03792e-11
2.175e-11
2.30173e-11
2.4167e-11
2.51888e-11
2.60762e-11
2.68261e-11
2.74384e-11
2.79157e-11
2.82626e-11
2.84858e-11
2.8593e-11
1.02827e-11
1.14884e-11
1.32649e-11
1.55934e-11
1.84596e-11
2.1843e-11
2.57106e-11
3.00139e-11
3.46891e-11
3.96589e-11
4.48354e-11
5.0125e-11
5.54319e-11
6.06631e-11
6.57317e-11
7.056e-11
7.50814e-11
7.92416e-11
8.29993e-11
8.63257e-11
8.9204e-11
9.16282e-11
9.36017e-11
9.51358e-11
9.62485e-11
9.69627e-11
9.73052e-11
3.67883e-11
4.09805e-11
4.71328e-11
5.51541e-11
6.49671e-11
7.64718e-11
8.95267e-11
1.03943e-10
1.19484e-10
1.35878e-10
1.52827e-10
1.70019e-10
1.87148e-10
2.03922e-10
2.20074e-10
2.35371e-10
2.49619e-10
2.62665e-10
2.74395e-10
2.84736e-10
2.9365e-10
3.01133e-10
3.07207e-10
3.11915e-10
3.15322e-10
3.17505e-10
3.18549e-10
1.28289e-10
1.4231e-10
1.62786e-10
1.89317e-10
2.21541e-10
2.59023e-10
3.01204e-10
3.4739e-10
3.96766e-10
4.48423e-10
5.01402e-10
5.54739e-10
6.07501e-10
6.58823e-10
7.07935e-10
7.54182e-10
7.97031e-10
8.36075e-10
8.71029e-10
9.01723e-10
9.28089e-10
9.5015e-10
9.68004e-10
9.81811e-10
9.91779e-10
9.98151e-10
1.0012e-09
4.33978e-10
4.78808e-10
5.43931e-10
6.27739e-10
7.28741e-10
8.45247e-10
9.75236e-10
1.11635e-09
1.26593e-09
1.42115e-09
1.57913e-09
1.73702e-09
1.89216e-09
2.04212e-09
2.1848e-09
2.31845e-09
2.44169e-09
2.55351e-09
2.65321e-09
2.74046e-09
2.81517e-09
2.8775e-09
2.92782e-09
2.96664e-09
2.99462e-09
3.01247e-09
3.02099e-09
1.41567e-09
1.55203e-09
1.74905e-09
2.00091e-09
2.30216e-09
2.64688e-09
3.0284e-09
3.43929e-09
3.87156e-09
4.31692e-09
4.76715e-09
5.21436e-09
5.65129e-09
6.07147e-09
6.4694e-09
6.84059e-09
7.18157e-09
7.48989e-09
7.764e-09
8.00322e-09
8.20757e-09
8.37771e-09
8.5148e-09
8.62041e-09
8.69639e-09
8.74482e-09
8.7679e-09
4.42034e-09
4.81326e-09
5.37832e-09
6.09639e-09
6.94973e-09
7.91973e-09
8.98627e-09
1.01278e-08
1.13217e-08
1.25453e-08
1.37764e-08
1.49942e-08
1.61796e-08
1.73161e-08
1.83895e-08
1.93886e-08
2.03047e-08
2.11319e-08
2.18665e-08
2.25071e-08
2.3054e-08
2.35091e-08
2.38758e-08
2.41583e-08
2.43616e-08
2.44912e-08
2.45529e-08
1.30987e-08
1.4167e-08
1.56977e-08
1.76342e-08
1.99245e-08
2.25157e-08
2.53522e-08
2.83762e-08
3.15284e-08
3.47501e-08
3.79846e-08
4.11788e-08
4.4285e-08
4.7261e-08
5.00715e-08
5.26877e-08
5.50877e-08
5.7256e-08
5.91833e-08
6.08655e-08
6.23033e-08
6.35015e-08
6.44682e-08
6.52139e-08
6.57513e-08
6.60946e-08
6.62585e-08
3.64944e-08
3.92204e-08
4.3116e-08
4.80296e-08
5.38236e-08
6.03611e-08
6.75013e-08
7.51002e-08
8.30118e-08
9.10922e-08
9.92028e-08
1.07214e-07
1.15008e-07
1.22482e-07
1.29547e-07
1.36134e-07
1.42188e-07
1.47668e-07
1.52552e-07
1.56826e-07
1.6049e-07
1.63554e-07
1.66034e-07
1.67955e-07
1.69344e-07
1.70235e-07
1.70662e-07
9.47029e-08
1.01178e-07
1.10414e-07
1.22041e-07
1.35724e-07
1.51136e-07
1.67946e-07
1.85816e-07
2.0441e-07
2.23394e-07
2.42454e-07
2.61293e-07
2.79646e-07
2.97275e-07
3.13981e-07
3.29597e-07
3.43993e-07
3.57071e-07
3.68765e-07
3.79039e-07
3.87881e-07
3.95303e-07
4.01335e-07
4.06024e-07
4.0943e-07
4.11621e-07
4.12675e-07
2.26878e-07
2.40996e-07
2.61097e-07
2.86342e-07
3.15982e-07
3.49294e-07
3.85559e-07
4.24057e-07
4.64077e-07
5.04928e-07
5.45949e-07
5.86525e-07
6.26094e-07
6.64158e-07
7.00284e-07
7.34114e-07
7.65357e-07
7.93794e-07
8.1927e-07
8.41694e-07
8.61028e-07
8.77284e-07
8.90518e-07
9.00822e-07
9.08315e-07
9.13144e-07
9.1547e-07
4.96859e-07
5.24633e-07
5.64083e-07
6.13495e-07
6.71344e-07
7.36179e-07
8.06581e-07
8.81148e-07
9.58513e-07
1.03735e-06
1.1164e-06
1.1945e-06
1.27058e-06
1.3437e-06
1.41303e-06
1.4779e-06
1.53776e-06
1.5922e-06
1.64093e-06
1.68379e-06
1.7207e-06
1.75171e-06
1.77693e-06
1.79654e-06
1.81078e-06
1.81995e-06
1.82437e-06
9.87859e-07
1.03666e-06
1.10578e-06
1.19203e-06
1.29259e-06
1.40481e-06
1.52613e-06
1.65405e-06
1.78619e-06
1.92027e-06
2.05416e-06
2.18589e-06
2.31371e-06
2.43608e-06
2.55168e-06
2.65945e-06
2.75854e-06
2.84834e-06
2.92845e-06
2.99866e-06
3.05895e-06
3.10943e-06
3.15035e-06
3.18208e-06
3.20506e-06
3.2198e-06
3.22688e-06
1.78352e-06
1.85987e-06
1.96759e-06
2.10135e-06
2.25642e-06
2.42839e-06
2.61308e-06
2.80653e-06
3.00501e-06
3.20503e-06
3.40342e-06
3.59733e-06
3.78425e-06
3.96207e-06
4.12901e-06
4.28371e-06
4.42512e-06
4.55256e-06
4.66563e-06
4.76422e-06
4.84844e-06
4.91862e-06
4.97526e-06
5.01897e-06
5.0505e-06
5.07065e-06
5.08029e-06
2.94323e-06
3.05024e-06
3.20054e-06
3.3861e-06
3.59981e-06
3.83507e-06
4.08577e-06
4.34625e-06
4.61131e-06
4.87623e-06
5.13684e-06
5.38951e-06
5.63115e-06
5.85923e-06
6.07178e-06
6.26731e-06
6.44482e-06
6.60372e-06
6.74382e-06
6.86523e-06
6.96836e-06
7.05384e-06
7.12247e-06
7.17519e-06
7.21305e-06
7.23715e-06
7.24862e-06
4.48775e-06
4.62401e-06
4.81452e-06
5.04839e-06
5.3159e-06
5.60821e-06
5.91724e-06
6.23569e-06
6.55702e-06
6.87551e-06
7.18622e-06
7.485e-06
7.76848e-06
8.034e-06
8.27961e-06
8.50397e-06
8.70627e-06
8.88623e-06
9.04393e-06
9.17984e-06
9.29469e-06
9.38941e-06
9.46511e-06
9.52303e-06
9.56447e-06
9.59075e-06
9.60322e-06
6.40099e-06
6.56135e-06
6.78465e-06
7.05734e-06
7.36733e-06
7.70378e-06
8.05691e-06
8.41812e-06
8.77988e-06
9.13576e-06
9.4804e-06
9.80944e-06
1.01195e-05
1.0408e-05
1.06732e-05
1.0914e-05
1.113e-05
1.13211e-05
1.14877e-05
1.16308e-05
1.17511e-05
1.185e-05
1.19288e-05
1.19889e-05
1.20318e-05
1.20589e-05
1.20717e-05
8.64059e-06
8.81796e-06
9.06413e-06
9.3634e-06
9.7019e-06
1.00672e-05
1.04484e-05
1.0836e-05
1.12218e-05
1.1599e-05
1.19623e-05
1.23071e-05
1.26304e-05
1.29296e-05
1.32035e-05
1.34511e-05
1.36722e-05
1.38672e-05
1.40367e-05
1.41817e-05
1.43035e-05
1.44033e-05
1.44826e-05
1.4543e-05
1.4586e-05
1.46132e-05
1.46261e-05
1.11491e-05
1.13362e-05
1.15952e-05
1.19091e-05
1.22626e-05
1.26426e-05
1.30374e-05
1.3437e-05
1.38329e-05
1.42185e-05
1.45882e-05
1.49379e-05
1.52644e-05
1.55657e-05
1.58406e-05
1.60884e-05
1.63092e-05
1.65035e-05
1.66721e-05
1.68161e-05
1.69367e-05
1.70355e-05
1.7114e-05
1.71737e-05
1.72162e-05
1.7243e-05
1.72557e-05
1.38633e-05
1.40539e-05
1.43174e-05
1.46358e-05
1.49935e-05
1.53769e-05
1.5774e-05
1.61747e-05
1.65707e-05
1.69552e-05
1.73229e-05
1.76699e-05
1.79932e-05
1.82909e-05
1.85621e-05
1.88062e-05
1.90235e-05
1.92144e-05
1.93799e-05
1.95212e-05
1.96395e-05
1.97363e-05
1.98132e-05
1.98717e-05
1.99134e-05
1.99397e-05
1.99521e-05
1.67222e-05
1.69117e-05
1.71733e-05
1.74891e-05
1.78434e-05
1.82223e-05
1.8614e-05
1.90087e-05
1.9398e-05
1.97755e-05
2.0136e-05
2.04757e-05
2.0792e-05
2.1083e-05
2.13478e-05
2.15861e-05
2.17981e-05
2.19843e-05
2.21457e-05
2.22835e-05
2.23989e-05
2.24933e-05
2.25684e-05
2.26254e-05
2.26661e-05
2.26918e-05
2.27039e-05
1.96724e-05
1.98579e-05
2.01138e-05
2.04225e-05
2.07684e-05
2.11381e-05
2.152e-05
2.19045e-05
2.22835e-05
2.26507e-05
2.30012e-05
2.33315e-05
2.36388e-05
2.39215e-05
2.41788e-05
2.44104e-05
2.46163e-05
2.47973e-05
2.49543e-05
2.50882e-05
2.52005e-05
2.52925e-05
2.53655e-05
2.54211e-05
2.54608e-05
2.54858e-05
2.54977e-05
2.26714e-05
2.28513e-05
2.30994e-05
2.33986e-05
2.37339e-05
2.40921e-05
2.4462e-05
2.48344e-05
2.52015e-05
2.55571e-05
2.58967e-05
2.62166e-05
2.65145e-05
2.67886e-05
2.70381e-05
2.72627e-05
2.74626e-05
2.76383e-05
2.77908e-05
2.79211e-05
2.80303e-05
2.81198e-05
2.81909e-05
2.82451e-05
2.82837e-05
2.83082e-05
2.83197e-05
2.56876e-05
2.58614e-05
2.6101e-05
2.63899e-05
2.67138e-05
2.70598e-05
2.74174e-05
2.77773e-05
2.81323e-05
2.84763e-05
2.8805e-05
2.91148e-05
2.94033e-05
2.9669e-05
2.9911e-05
3.0129e-05
3.03232e-05
3.0494e-05
3.06422e-05
3.07689e-05
3.08753e-05
3.09624e-05
3.10318e-05
3.10846e-05
3.11223e-05
3.11462e-05
3.11575e-05
2.86993e-05
2.88669e-05
2.90982e-05
2.93771e-05
2.96898e-05
3.00242e-05
3.03698e-05
3.07179e-05
3.10613e-05
3.13945e-05
3.17129e-05
3.20132e-05
3.22931e-05
3.2551e-05
3.27861e-05
3.2998e-05
3.31869e-05
3.33531e-05
3.34975e-05
3.3621e-05
3.37247e-05
3.38098e-05
3.38775e-05
3.39291e-05
3.3966e-05
3.39893e-05
3.40004e-05
3.16923e-05
3.18543e-05
3.20778e-05
3.23475e-05
3.26499e-05
3.29735e-05
3.33081e-05
3.36454e-05
3.39784e-05
3.43016e-05
3.46108e-05
3.49025e-05
3.51747e-05
3.54256e-05
3.56545e-05
3.58609e-05
3.6045e-05
3.62072e-05
3.63481e-05
3.64687e-05
3.657e-05
3.66532e-05
3.67194e-05
3.67699e-05
3.6806e-05
3.68289e-05
3.68397e-05
3.46584e-05
3.48152e-05
3.50318e-05
3.52932e-05
3.55865e-05
3.59004e-05
3.62253e-05
3.65529e-05
3.68767e-05
3.71911e-05
3.7492e-05
3.77762e-05
3.80415e-05
3.82862e-05
3.85096e-05
3.87111e-05
3.8891e-05
3.90495e-05
3.91874e-05
3.93054e-05
3.94046e-05
3.94861e-05
3.9551e-05
3.96005e-05
3.96359e-05
3.96583e-05
3.96689e-05
3.75929e-05
3.77453e-05
3.79557e-05
3.82099e-05
3.84952e-05
3.88007e-05
3.9117e-05
3.94362e-05
3.97518e-05
4.00585e-05
4.03522e-05
4.06298e-05
4.0889e-05
4.11283e-05
4.13468e-05
4.15441e-05
4.17202e-05
4.18756e-05
4.20107e-05
4.21264e-05
4.22237e-05
4.23037e-05
4.23674e-05
4.2416e-05
4.24508e-05
4.24728e-05
4.24833e-05
4.04941e-05
4.06426e-05
4.08477e-05
4.10955e-05
4.13738e-05
4.1672e-05
4.19809e-05
4.22928e-05
4.26013e-05
4.29013e-05
4.31887e-05
4.34605e-05
4.37144e-05
4.39489e-05
4.41632e-05
4.43567e-05
4.45296e-05
4.4682e-05
4.48148e-05
4.49285e-05
4.50241e-05
4.51027e-05
4.51653e-05
4.52132e-05
4.52474e-05
4.52691e-05
4.52794e-05
4.33614e-05
4.35066e-05
4.37071e-05
4.39495e-05
4.42218e-05
4.45136e-05
4.48161e-05
4.51216e-05
4.54239e-05
4.57181e-05
4.6e-05
4.62667e-05
4.6516e-05
4.67463e-05
4.69568e-05
4.7147e-05
4.7317e-05
4.7467e-05
4.75975e-05
4.77094e-05
4.78035e-05
4.78809e-05
4.79426e-05
4.79898e-05
4.80235e-05
4.80449e-05
4.8055e-05
4.61957e-05
4.6338e-05
4.65345e-05
4.67721e-05
4.70392e-05
4.73255e-05
4.76224e-05
4.79224e-05
4.82193e-05
4.85083e-05
4.87854e-05
4.90477e-05
4.92929e-05
4.95195e-05
4.97267e-05
4.9914e-05
5.00814e-05
5.02291e-05
5.03577e-05
5.0468e-05
5.05608e-05
5.06371e-05
5.0698e-05
5.07444e-05
5.07777e-05
5.07988e-05
5.08088e-05
4.8998e-05
4.91377e-05
4.93308e-05
4.95643e-05
4.98268e-05
5.01083e-05
5.04003e-05
5.06954e-05
5.09877e-05
5.12721e-05
5.1545e-05
5.18033e-05
5.20449e-05
5.22682e-05
5.24725e-05
5.26571e-05
5.28222e-05
5.29679e-05
5.30948e-05
5.32036e-05
5.32952e-05
5.33705e-05
5.34306e-05
5.34765e-05
5.35093e-05
5.35301e-05
5.354e-05
5.17696e-05
5.19071e-05
5.20972e-05
5.23271e-05
5.25856e-05
5.28629e-05
5.31505e-05
5.34413e-05
5.37294e-05
5.40099e-05
5.4279e-05
5.45337e-05
5.47721e-05
5.49925e-05
5.5194e-05
5.53763e-05
5.55393e-05
5.56832e-05
5.58085e-05
5.5916e-05
5.60065e-05
5.60809e-05
5.61403e-05
5.61856e-05
5.62181e-05
5.62386e-05
5.62484e-05
5.4512e-05
5.46476e-05
5.4835e-05
5.50617e-05
5.53166e-05
5.55902e-05
5.5874e-05
5.61609e-05
5.64452e-05
5.67221e-05
5.69878e-05
5.72394e-05
5.74748e-05
5.76925e-05
5.78917e-05
5.80718e-05
5.82329e-05
5.83751e-05
5.8499e-05
5.86053e-05
5.86947e-05
5.87683e-05
5.8827e-05
5.88719e-05
5.89039e-05
5.89243e-05
5.8934e-05
5.72266e-05
5.73604e-05
5.75454e-05
5.77693e-05
5.8021e-05
5.82912e-05
5.85715e-05
5.8855e-05
5.91359e-05
5.94095e-05
5.96721e-05
5.99208e-05
6.01535e-05
6.03688e-05
6.05657e-05
6.07439e-05
6.09032e-05
6.10438e-05
6.11664e-05
6.12715e-05
6.13601e-05
6.14329e-05
6.14909e-05
6.15353e-05
6.15671e-05
6.15873e-05
6.15968e-05
5.99146e-05
6.00468e-05
6.02297e-05
6.04509e-05
6.06997e-05
6.09668e-05
6.12439e-05
6.15243e-05
6.18021e-05
6.20727e-05
6.23324e-05
6.25784e-05
6.28087e-05
6.30217e-05
6.32165e-05
6.33928e-05
6.35505e-05
6.36897e-05
6.38111e-05
6.39151e-05
6.40027e-05
6.40748e-05
6.41323e-05
6.41763e-05
6.42077e-05
6.42277e-05
6.42372e-05
6.25771e-05
6.27079e-05
6.28887e-05
6.31075e-05
6.33537e-05
6.36179e-05
6.38921e-05
6.41695e-05
6.44444e-05
6.47122e-05
6.49693e-05
6.52128e-05
6.54407e-05
6.56515e-05
6.58445e-05
6.6019e-05
6.61751e-05
6.6313e-05
6.64331e-05
6.65362e-05
6.6623e-05
6.66944e-05
6.67513e-05
6.67949e-05
6.6826e-05
6.68458e-05
6.68552e-05
6.52149e-05
6.53444e-05
6.55234e-05
6.574e-05
6.59836e-05
6.62451e-05
6.65166e-05
6.67912e-05
6.70633e-05
6.73285e-05
6.7583e-05
6.78242e-05
6.80499e-05
6.82587e-05
6.84497e-05
6.86226e-05
6.87772e-05
6.89138e-05
6.90328e-05
6.91349e-05
6.92209e-05
6.92916e-05
6.9348e-05
6.93912e-05
6.9422e-05
6.94416e-05
6.94509e-05
6.78288e-05
6.7957e-05
6.81342e-05
6.83487e-05
6.85899e-05
6.88489e-05
6.91177e-05
6.93896e-05
6.96592e-05
6.99218e-05
7.01739e-05
7.04128e-05
7.06363e-05
7.08432e-05
7.10325e-05
7.12037e-05
7.13569e-05
7.14922e-05
7.16101e-05
7.17112e-05
7.17964e-05
7.18665e-05
7.19224e-05
7.19651e-05
7.19957e-05
7.20151e-05
7.20243e-05
7.04192e-05
7.05461e-05
7.07217e-05
7.0934e-05
7.1173e-05
7.14295e-05
7.16957e-05
7.19651e-05
7.22321e-05
7.24922e-05
7.27419e-05
7.29786e-05
7.32e-05
7.34049e-05
7.35925e-05
7.37621e-05
7.39139e-05
7.40479e-05
7.41647e-05
7.4265e-05
7.43493e-05
7.44187e-05
7.44741e-05
7.45165e-05
7.45468e-05
7.4566e-05
7.45751e-05
7.29861e-05
7.31119e-05
7.32857e-05
7.34961e-05
7.37328e-05
7.39868e-05
7.42505e-05
7.45173e-05
7.47818e-05
7.50395e-05
7.52869e-05
7.55213e-05
7.57406e-05
7.59436e-05
7.61294e-05
7.62975e-05
7.64478e-05
7.65806e-05
7.66963e-05
7.67956e-05
7.68792e-05
7.69479e-05
7.70028e-05
7.70448e-05
7.70748e-05
7.70938e-05
7.71029e-05
7.55296e-05
7.56541e-05
7.58263e-05
7.60346e-05
7.6269e-05
7.65206e-05
7.67818e-05
7.7046e-05
7.7308e-05
7.75632e-05
7.78082e-05
7.80403e-05
7.82576e-05
7.84586e-05
7.86426e-05
7.8809e-05
7.89579e-05
7.90894e-05
7.92041e-05
7.93024e-05
7.93851e-05
7.94533e-05
7.95076e-05
7.95491e-05
7.95789e-05
7.95977e-05
7.96067e-05
7.8049e-05
7.81723e-05
7.83427e-05
7.8549e-05
7.87811e-05
7.90302e-05
7.92888e-05
7.95505e-05
7.98098e-05
8.00625e-05
8.0305e-05
8.05348e-05
8.07499e-05
8.0949e-05
8.11311e-05
8.12959e-05
8.14432e-05
8.15734e-05
8.16869e-05
8.17842e-05
8.18662e-05
8.19336e-05
8.19874e-05
8.20285e-05
8.20579e-05
8.20766e-05
8.20855e-05
8.05435e-05
8.06656e-05
8.08343e-05
8.10384e-05
8.12681e-05
8.15147e-05
8.17706e-05
8.20295e-05
8.22861e-05
8.25361e-05
8.27762e-05
8.30035e-05
8.32164e-05
8.34133e-05
8.35935e-05
8.37565e-05
8.39023e-05
8.40311e-05
8.41434e-05
8.42396e-05
8.43207e-05
8.43874e-05
8.44406e-05
8.44813e-05
8.45104e-05
8.45289e-05
8.45376e-05
8.3012e-05
8.31328e-05
8.32996e-05
8.35015e-05
8.37287e-05
8.39725e-05
8.42256e-05
8.44816e-05
8.47354e-05
8.49826e-05
8.52199e-05
8.54448e-05
8.56552e-05
8.58499e-05
8.6028e-05
8.61891e-05
8.63333e-05
8.64606e-05
8.65715e-05
8.66667e-05
8.67468e-05
8.68127e-05
8.68653e-05
8.69056e-05
8.69343e-05
8.69526e-05
8.69612e-05
8.54529e-05
8.55721e-05
8.5737e-05
8.59366e-05
8.6161e-05
8.6402e-05
8.6652e-05
8.69049e-05
8.71556e-05
8.73998e-05
8.76342e-05
8.78563e-05
8.80641e-05
8.82564e-05
8.84323e-05
8.85914e-05
8.87338e-05
8.88595e-05
8.8969e-05
8.9063e-05
8.91421e-05
8.92071e-05
8.92591e-05
8.92988e-05
8.93272e-05
8.93452e-05
8.93537e-05
8.78638e-05
8.79815e-05
8.81443e-05
8.83413e-05
8.85628e-05
8.88006e-05
8.90473e-05
8.92969e-05
8.95442e-05
8.97852e-05
9.00164e-05
9.02354e-05
9.04404e-05
9.06301e-05
9.08035e-05
9.09605e-05
9.11008e-05
9.12248e-05
9.13328e-05
9.14254e-05
9.15034e-05
9.15676e-05
9.16188e-05
9.16579e-05
9.16859e-05
9.17036e-05
9.17121e-05
9.02422e-05
9.03582e-05
9.05187e-05
9.07128e-05
9.09311e-05
9.11654e-05
9.14085e-05
9.16544e-05
9.18981e-05
9.21354e-05
9.23632e-05
9.25789e-05
9.27808e-05
9.29675e-05
9.31383e-05
9.32928e-05
9.34309e-05
9.35529e-05
9.36592e-05
9.37504e-05
9.38272e-05
9.38903e-05
9.39407e-05
9.39792e-05
9.40067e-05
9.40242e-05
9.40325e-05
9.25847e-05
9.26989e-05
9.28568e-05
9.30477e-05
9.32625e-05
9.34929e-05
9.37321e-05
9.39739e-05
9.42134e-05
9.44468e-05
9.46707e-05
9.48827e-05
9.50811e-05
9.52645e-05
9.54324e-05
9.55841e-05
9.57199e-05
9.58397e-05
9.59441e-05
9.60337e-05
9.6109e-05
9.6171e-05
9.62205e-05
9.62583e-05
9.62854e-05
9.63025e-05
9.63107e-05
9.48874e-05
9.49995e-05
9.51545e-05
9.53419e-05
9.55528e-05
9.57789e-05
9.60136e-05
9.62508e-05
9.64858e-05
9.67147e-05
9.69342e-05
9.71421e-05
9.73366e-05
9.75164e-05
9.76809e-05
9.78297e-05
9.79627e-05
9.80801e-05
9.81824e-05
9.82701e-05
9.83439e-05
9.84047e-05
9.84531e-05
9.84901e-05
9.85166e-05
9.85334e-05
9.85414e-05
9.71456e-05
9.72554e-05
9.74071e-05
9.75906e-05
9.7797e-05
9.80184e-05
9.8248e-05
9.84801e-05
9.871e-05
9.89338e-05
9.91485e-05
9.93517e-05
9.95418e-05
9.97176e-05
9.98783e-05
0.000100024
0.000100154
0.000100268
0.000100368
0.000100454
0.000100526
0.000100585
0.000100633
0.000100669
0.000100695
0.000100711
0.000100719
9.93538e-05
9.9461e-05
9.96091e-05
9.97882e-05
9.99896e-05
0.000100206
0.000100429
0.000100656
0.00010088
0.000101098
0.000101307
0.000101505
0.000101691
0.000101862
0.000102018
0.00010216
0.000102286
0.000102398
0.000102495
0.000102578
0.000102648
0.000102706
0.000102752
0.000102787
0.000102812
0.000102828
0.000102836
0.000101506
0.00010161
0.000101754
0.000101928
0.000102124
0.000102334
0.000102551
0.000102771
0.000102989
0.000103201
0.000103404
0.000103596
0.000103776
0.000103942
0.000104093
0.00010423
0.000104353
0.000104461
0.000104555
0.000104636
0.000104704
0.00010476
0.000104804
0.000104838
0.000104863
0.000104878
0.000104886
0.000103595
0.000103696
0.000103835
0.000104004
0.000104193
0.000104396
0.000104607
0.000104819
0.000105029
0.000105234
0.00010543
0.000105616
0.000105789
0.000105949
0.000106096
0.000106228
0.000106346
0.00010645
0.000106541
0.000106619
0.000106684
0.000106738
0.000106781
0.000106814
0.000106837
0.000106852
0.000106859
0.000105613
0.00010571
0.000105845
0.000106007
0.000106189
0.000106384
0.000106587
0.000106791
0.000106993
0.00010719
0.000107378
0.000107556
0.000107723
0.000107876
0.000108017
0.000108143
0.000108257
0.000108357
0.000108444
0.000108518
0.000108581
0.000108632
0.000108673
0.000108705
0.000108727
0.000108741
0.000108748
0.000107552
0.000107645
0.000107774
0.000107929
0.000108103
0.00010829
0.000108483
0.000108678
0.000108871
0.000109059
0.000109239
0.000109408
0.000109567
0.000109713
0.000109847
0.000109968
0.000110076
0.000110171
0.000110254
0.000110324
0.000110384
0.000110433
0.000110472
0.000110502
0.000110523
0.000110537
0.000110543
0.000109403
0.000109491
0.000109613
0.000109761
0.000109926
0.000110103
0.000110287
0.000110472
0.000110655
0.000110832
0.000111003
0.000111163
0.000111313
0.000111452
0.000111578
0.000111692
0.000111794
0.000111884
0.000111962
0.000112028
0.000112085
0.000112131
0.000112168
0.000112196
0.000112216
0.000112229
0.000112235
0.000111156
0.00011124
0.000111355
0.000111493
0.000111649
0.000111816
0.000111988
0.000112162
0.000112334
0.000112501
0.000112661
0.000112811
0.000112952
0.000113081
0.0001132
0.000113306
0.000113402
0.000113486
0.000113559
0.000113621
0.000113674
0.000113717
0.000113751
0.000113777
0.000113796
0.000113808
0.000113814
0.000112803
0.000112881
0.000112988
0.000113118
0.000113263
0.000113418
0.000113579
0.000113741
0.000113901
0.000114056
0.000114204
0.000114344
0.000114474
0.000114594
0.000114704
0.000114803
0.000114891
0.000114968
0.000115036
0.000115093
0.000115142
0.000115182
0.000115213
0.000115238
0.000115255
0.000115266
0.000115271
0.000114335
0.000114407
0.000114506
0.000114625
0.000114759
0.000114902
0.00011505
0.000115199
0.000115346
0.000115488
0.000115624
0.000115752
0.000115872
0.000115982
0.000116082
0.000116172
0.000116253
0.000116324
0.000116385
0.000116438
0.000116482
0.000116519
0.000116548
0.00011657
0.000116585
0.000116595
0.0001166
0.000115743
0.000115809
0.000115899
0.000116008
0.00011613
0.00011626
0.000116394
0.000116529
0.000116662
0.000116791
0.000116915
0.000117031
0.000117139
0.000117238
0.000117328
0.00011741
0.000117482
0.000117546
0.000117602
0.000117649
0.000117689
0.000117722
0.000117748
0.000117767
0.000117782
0.000117791
0.000117795
0.000117022
0.000117081
0.000117162
0.00011726
0.000117369
0.000117486
0.000117606
0.000117727
0.000117846
0.000117961
0.000118071
0.000118174
0.00011827
0.000118359
0.000118439
0.000118511
0.000118576
0.000118632
0.000118681
0.000118723
0.000118759
0.000118788
0.00011881
0.000118828
0.000118841
0.000118848
0.000118852
0.000118166
0.000118218
0.00011829
0.000118376
0.000118473
0.000118576
0.000118682
0.000118788
0.000118893
0.000118994
0.00011909
0.00011918
0.000119265
0.000119342
0.000119412
0.000119475
0.000119531
0.000119581
0.000119623
0.00011966
0.00011969
0.000119716
0.000119736
0.000119751
0.000119762
0.000119769
0.000119772
0.000119175
0.00011922
0.000119282
0.000119357
0.00011944
0.000119529
0.000119621
0.000119713
0.000119803
0.00011989
0.000119973
0.000120051
0.000120123
0.000120189
0.000120249
0.000120303
0.000120351
0.000120393
0.00012043
0.000120461
0.000120487
0.000120508
0.000120525
0.000120538
0.000120548
0.000120553
0.000120556
0.000120047
0.000120086
0.000120139
0.000120202
0.000120273
0.000120349
0.000120426
0.000120504
0.00012058
0.000120654
0.000120723
0.000120789
0.000120849
0.000120905
0.000120955
0.000121001
0.000121041
0.000121076
0.000121106
0.000121132
0.000121154
0.000121172
0.000121186
0.000121197
0.000121204
0.000121209
0.000121212
0.000120788
0.00012082
0.000120864
0.000120917
0.000120976
0.000121038
0.000121103
0.000121167
0.00012123
0.00012129
0.000121348
0.000121401
0.000121451
0.000121497
0.000121538
0.000121575
0.000121608
0.000121637
0.000121661
0.000121682
0.0001217
0.000121715
0.000121726
0.000121735
0.000121741
0.000121745
0.000121747
0.000121404
0.00012143
0.000121465
0.000121508
0.000121556
0.000121607
0.000121658
0.00012171
0.000121761
0.00012181
0.000121856
0.000121899
0.000121939
0.000121975
0.000122008
0.000122037
0.000122064
0.000122086
0.000122106
0.000122123
0.000122137
0.000122148
0.000122158
0.000122165
0.000122169
0.000122173
0.000122174
0.000121904
0.000121925
0.000121953
0.000121987
0.000122024
0.000122064
0.000122105
0.000122146
0.000122185
0.000122223
0.000122259
0.000122293
0.000122324
0.000122352
0.000122378
0.000122401
0.000122421
0.000122439
0.000122454
0.000122467
0.000122478
0.000122487
0.000122494
0.000122499
0.000122503
0.000122505
0.000122506
0.000122301
0.000122317
0.000122339
0.000122365
0.000122393
0.000122424
0.000122455
0.000122486
0.000122516
0.000122545
0.000122572
0.000122598
0.000122621
0.000122643
0.000122662
0.000122679
0.000122694
0.000122708
0.000122719
0.000122729
0.000122737
0.000122744
0.000122749
0.000122753
0.000122756
0.000122758
0.000122758
0.000122608
0.00012262
0.000122636
0.000122655
0.000122677
0.000122699
0.000122722
0.000122745
0.000122767
0.000122789
0.000122809
0.000122827
0.000122845
0.00012286
0.000122874
0.000122887
0.000122898
0.000122908
0.000122916
0.000122923
0.000122929
0.000122934
0.000122938
0.000122941
0.000122943
0.000122944
0.000122945
0.00012284
0.000122848
0.00012286
0.000122873
0.000122889
0.000122905
0.000122921
0.000122938
0.000122953
0.000122969
0.000122983
0.000122996
0.000123008
0.000123019
0.000123029
0.000123038
0.000123046
0.000123053
0.000123059
0.000123064
0.000123068
0.000123072
0.000123074
0.000123076
0.000123078
0.000123079
0.000123079
0.000123009
0.000123015
0.000123023
0.000123033
0.000123043
0.000123054
0.000123066
0.000123077
0.000123088
0.000123098
0.000123108
0.000123117
0.000123125
0.000123133
0.00012314
0.000123146
0.000123151