/*--------------------------------*- C++ -*----------------------------------*\
| =========                 |                                                 |
| \\      /  F ield         | OpenFOAM: The Open Source CFD Toolbox           |
|  \\    /   O peration     | Version:  2106                                  |
|   \\  /    A nd           | Website:  www.openfoam.com                      |
|    \\/     M anipulation  |                                                 |
\*---------------------------------------------------------------------------*/
FoamFile
{
    version     2.0;
    format      ascii;
    arch        "LSB;label=32;scalar=64";
    class       volVectorField;
    location    "110.00057";
    object      U;
}
// * * * * * * * * * * * * * * * * * * * * * * * * * * * * * * * * * * * * * //

dimensions      [0 1 -1 0 0 0 0];

internalField   nonuniform List<vector> 
3360
(
(0.132623 -0.00481892 -3.84704e-11)
(0.133021 -0.00754787 -5.8164e-11)
(0.133576 -0.0103774 -6.9696e-11)
(0.134261 -0.0130991 -7.0094e-11)
(0.135032 -0.0157437 -5.7069e-11)
(0.135841 -0.018289 -3.48665e-11)
(0.136628 -0.0207136 -4.79844e-12)
(0.137324 -0.0229869 2.82664e-11)
(0.137853 -0.0250906 6.30613e-11)
(0.138134 -0.0269681 9.84715e-11)
(0.137863 -0.0285713 3.06671e-11)
(0.136768 -0.029921 -2.33456e-11)
(0.134901 -0.030934 -7.45394e-11)
(0.13227 -0.0316004 -3.69427e-11)
(0.128858 -0.0318963 -1.39433e-11)
(0.12463 -0.0318014 2.51897e-12)
(0.119544 -0.0312979 1.49853e-11)
(0.113554 -0.0303714 2.51569e-11)
(0.106609 -0.0290116 3.4137e-11)
(0.0986567 -0.0272121 4.23224e-11)
(0.0896415 -0.0249705 4.76849e-11)
(0.0795048 -0.0222848 3.83077e-11)
(0.0681842 -0.0191794 2.84923e-11)
(0.0555737 -0.0156359 2.0387e-11)
(0.0416188 -0.0116921 1.36456e-11)
(0.0262544 -0.00734319 7.78999e-12)
(0.00939975 -0.00247591 2.49146e-12)
(0.162983 -0.00348348 2.02615e-10)
(0.163348 -0.005328 3.40844e-10)
(0.163755 -0.00715911 4.85917e-10)
(0.164071 -0.00878141 6.33138e-10)
(0.164158 -0.0102006 5.8933e-10)
(0.16388 -0.0113883 5.48768e-10)
(0.163106 -0.0123266 4.13805e-10)
(0.161719 -0.0130038 3.02287e-10)
(0.159613 -0.0133999 2.35252e-10)
(0.156704 -0.0135338 1.98819e-10)
(0.153145 -0.0134338 1.80737e-10)
(0.149053 -0.0130525 1.80807e-10)
(0.144345 -0.0125 1.92124e-10)
(0.138965 -0.011768 2.13569e-10)
(0.132862 -0.0108862 2.38584e-10)
(0.125977 -0.00988181 2.08924e-10)
(0.118283 -0.008786 1.86416e-10)
(0.109777 -0.00763173 1.71425e-10)
(0.100481 -0.0064532 1.61589e-10)
(0.0904396 -0.00528485 1.54962e-10)
(0.0797189 -0.00416068 1.45877e-10)
(0.0684122 -0.00311796 1.3195e-10)
(0.0566144 -0.00216775 1.1561e-10)
(0.0444618 -0.00136733 1.00938e-10)
(0.0320311 -0.000722232 8.59587e-11)
(0.0193933 -0.000265847 5.97626e-11)
(0.00661216 -2.33774e-05 1.90472e-11)
(0.182448 -0.00315688 2.37725e-10)
(0.181927 -0.00483681 3.45715e-10)
(0.181043 -0.00640701 3.76808e-10)
(0.179693 -0.00770392 2.70367e-10)
(0.177776 -0.00873809 4.88223e-10)
(0.175204 -0.00950032 5.63943e-10)
(0.171908 -0.00999542 5.8012e-10)
(0.167849 -0.0102374 5.7307e-10)
(0.16302 -0.0102518 5.52466e-10)
(0.157429 -0.0100623 4.17354e-10)
(0.151075 -0.00969897 4.09067e-10)
(0.144025 -0.00920111 4.10337e-10)
(0.136272 -0.00856476 4.23809e-10)
(0.127859 -0.00783226 4.46788e-10)
(0.118868 -0.00701815 4.70138e-10)
(0.109418 -0.00615985 4.37887e-10)
(0.0996352 -0.00528284 3.50012e-10)
(0.0896439 -0.00441517 2.71087e-10)
(0.0795592 -0.0035825 1.99249e-10)
(0.069484 -0.00280758 1.6111e-10)
(0.0595036 -0.00210733 1.21481e-10)
(0.0496737 -0.00149824 1.11419e-10)
(0.0400426 -0.000988243 9.88477e-11)
(0.0306505 -0.000582797 8.62066e-11)
(0.0215286 -0.000283369 6.02803e-11)
(0.0127017 -9.19769e-05 3.51189e-11)
(0.00418827 -2.56641e-06 1.13359e-11)
(0.204707 -0.00181672 -5.38551e-10)
(0.203211 -0.00270351 -8.78732e-10)
(0.200964 -0.00352209 -1.27918e-09)
(0.197942 -0.00416008 -9.40923e-10)
(0.194118 -0.0046259 -7.49708e-10)
(0.189472 -0.0049297 -5.61975e-10)
(0.184003 -0.00505146 -4.33296e-10)
(0.17777 -0.00504792 -3.95832e-10)
(0.170833 -0.00490547 -2.94128e-10)
(0.163265 -0.00466133 -1.21148e-10)
(0.155179 -0.00433049 -1.01243e-11)
(0.146647 -0.00393816 6.19231e-11)
(0.137722 -0.00350395 1.0754e-10)
(0.128459 -0.00305043 1.35766e-10)
(0.118913 -0.00260527 1.53253e-10)
(0.109159 -0.00217729 1.62222e-10)
(0.0992719 -0.00178114 1.68889e-10)
(0.0893205 -0.00142428 1.11676e-10)
(0.0793664 -0.00111051 6.27465e-11)
(0.0694622 -0.000840362 2.4028e-11)
(0.0596516 -0.000614509 2.52977e-11)
(0.0499702 -0.000427882 3.76995e-11)
(0.0404463 -0.000279724 2.91402e-11)
(0.0311031 -0.000166421 2.22156e-11)
(0.0219596 -8.445e-05 1.5439e-11)
(0.013031 -3.05134e-05 8.97457e-12)
(0.0043296 -3.6367e-06 2.88702e-12)
(0.208722 -0.00110139 2.87359e-10)
(0.206712 -0.00167063 -2.80881e-11)
(0.203756 -0.0021594 -1.58603e-10)
(0.199883 -0.00251355 -1.46354e-10)
(0.195119 -0.00274513 -6.05395e-11)
(0.189495 -0.00285145 7.22351e-11)
(0.183066 -0.0028808 2.30526e-10)
(0.175875 -0.00281327 2.71239e-10)
(0.168021 -0.00269197 2.16239e-10)
(0.159599 -0.00252402 2.24285e-10)
(0.150702 -0.00232216 2.64727e-10)
(0.141425 -0.00209633 2.17248e-10)
(0.131856 -0.00185659 1.88825e-10)
(0.122079 -0.00161155 1.69302e-10)
(0.112188 -0.00137135 1.54193e-10)
(0.102262 -0.00114277 1.4179e-10)
(0.0923665 -0.000931253 1.31325e-10)
(0.0825563 -0.000740302 1.22092e-10)
(0.0728783 -0.000571886 1.1476e-10)
(0.0633725 -0.000426767 1.09581e-10)
(0.0540721 -0.000304823 1.06153e-10)
(0.0450052 -0.000205324 1.03808e-10)
(0.0361947 -0.000127167 6.61061e-11)
(0.0276571 -6.896e-05 5.01244e-11)
(0.0194037 -2.92546e-05 3.45192e-11)
(0.0114413 -6.95291e-06 1.99303e-11)
(0.00377249 1.31464e-06 6.40305e-12)
(0.218316 -0.000715111 3.25349e-11)
(0.215635 -0.00103801 1.04096e-11)
(0.211789 -0.0013173 1.8154e-12)
(0.206905 -0.00151174 1.91075e-11)
(0.201099 -0.00161995 5.88713e-11)
(0.194491 -0.00166325 1.0592e-10)
(0.187202 -0.00164234 1.49733e-10)
(0.179325 -0.00157235 1.8007e-10)
(0.170923 -0.00146887 2.01833e-10)
(0.162075 -0.00134213 2.25908e-10)
(0.152863 -0.00120205 2.44908e-10)
(0.14337 -0.00105671 1.81286e-10)
(0.133675 -0.000912684 1.19208e-10)
(0.12385 -0.000775212 6.3041e-11)
(0.113958 -0.000647815 9.30349e-12)
(0.104058 -0.000532319 -4.42237e-11)
(0.0941971 -0.000429598 -2.98491e-11)
(0.084416 -0.000339876 -1.97013e-11)
(0.074749 -0.000262911 -1.61912e-11)
(0.0652243 -0.000198123 1.26952e-11)
(0.0558651 -0.000144687 3.69023e-11)
(0.0466901 -0.000101597 3.47604e-11)
(0.0377144 -6.77164e-05 3.43479e-11)
(0.0289501 -4.1849e-05 3.38903e-11)
(0.0204069 -2.27551e-05 3.37702e-11)
(0.012092 -9.23486e-06 1.95244e-11)
(0.00401127 -1.73179e-06 6.22087e-12)
(0.219313 -0.00040446 1.27506e-11)
(0.216419 -0.000617375 3.29978e-11)
(0.212285 -0.000797481 7.06972e-11)
(0.207065 -0.000923151 1.12142e-10)
(0.200892 -0.00101042 1.5654e-10)
(0.19388 -0.00105067 2.18908e-10)
(0.186157 -0.00105853 9.33793e-11)
(0.177833 -0.00103477 -9.86461e-12)
(0.169011 -0.000985545 -1.09915e-10)
(0.159788 -0.000917559 -9.60077e-11)
(0.150254 -0.000837086 -1.02157e-10)
(0.140495 -0.000749534 -1.30122e-10)
(0.130589 -0.000659333 -1.7235e-10)
(0.120608 -0.000569947 -2.21162e-10)
(0.110615 -0.000483958 -2.10098e-10)
(0.100666 -0.000403206 -2.05811e-10)
(0.0908091 -0.000328943 -2.09791e-10)
(0.081087 -0.000261967 -2.22122e-10)
(0.0715345 -0.000202726 -1.95883e-10)
(0.062181 -0.000151408 -1.64476e-10)
(0.0530502 -0.000108001 -1.34923e-10)
(0.0441609 -7.23536e-05 -9.13803e-11)
(0.0355276 -4.42073e-05 -7.17487e-11)
(0.0271607 -2.32221e-05 -5.37662e-11)
(0.0190672 -9.05213e-06 -3.7088e-11)
(0.0112509 -1.51301e-06 -2.15187e-11)
(0.00371333 8.67034e-07 -6.93583e-12)
(0.223032 -0.000254558 5.75158e-10)
(0.21989 -0.000363466 9.98952e-10)
(0.215438 -0.00045841 4.62629e-10)
(0.209873 -0.000520059 1.39035e-10)
(0.203371 -0.000556221 -1.06888e-10)
(0.196083 -0.000565879 -3.06732e-10)
(0.188124 -0.000555585 -4.43361e-10)
(0.179604 -0.000529033 -4.77066e-10)
(0.170628 -0.000490683 -5.34461e-10)
(0.161292 -0.000444639 -5.11327e-10)
(0.151686 -0.000394523 -4.15435e-10)
(0.141889 -0.000343323 -3.49544e-10)
(0.131975 -0.000293361 -3.04191e-10)
(0.122006 -0.000246317 -2.69364e-10)
(0.112037 -0.000203304 -2.372e-10)
(0.102116 -0.000164962 -2.13253e-10)
(0.0922831 -0.000131547 -2.422e-10)
(0.0825711 -0.00010303 -2.81092e-10)
(0.0730083 -7.9168e-05 -2.79708e-10)
(0.0636178 -5.95767e-05 -2.4767e-10)
(0.0544182 -4.37835e-05 -2.22488e-10)
(0.0454245 -3.12721e-05 -1.83213e-10)
(0.0366487 -2.15195e-05 -1.48777e-10)
(0.0281002 -1.40202e-05 -9.50426e-11)
(0.019786 -8.2648e-06 -6.67697e-11)
(0.0117114 -3.73915e-06 -3.85923e-11)
(0.00388003 -9.49065e-07 -1.24154e-11)
(0.223301 -0.000170097 1.49368e-10)
(0.220071 -0.000262884 1.95011e-10)
(0.215496 -0.000340889 1.6226e-10)
(0.20978 -0.000399862 1.24981e-10)
(0.203095 -0.000438506 1.3523e-10)
(0.1956 -0.000459438 -1.13902e-10)
(0.187429 -0.00046362 -2.6068e-10)
(0.178707 -0.000453939 -3.55682e-10)
(0.169545 -0.000433408 -4.24453e-10)
(0.160042 -0.000404917 -4.74896e-10)
(0.150291 -0.000371049 -5.18435e-10)
(0.140372 -0.000333997 -5.7605e-10)
(0.130357 -0.00029555 -5.25747e-10)
(0.12031 -0.000257117 -5.01171e-10)
(0.110287 -0.00021978 -4.89612e-10)
(0.100336 -0.000184344 -4.8877e-10)
(0.0904988 -0.000151392 -4.97791e-10)
(0.0808101 -0.000121332 -5.0702e-10)
(0.0712997 -9.44356e-05 -5.06685e-10)
(0.061992 -7.08698e-05 -4.51093e-10)
(0.0529069 -5.07195e-05 -4.10563e-10)
(0.04406 -3.40062e-05 -3.28884e-10)
(0.0354636 -2.06994e-05 -2.58054e-10)
(0.0271262 -1.07227e-05 -1.92704e-10)
(0.0190539 -3.9888e-06 -1.32411e-10)
(0.0112501 -4.82463e-07 -7.65541e-11)
(0.00371595 4.49258e-07 -2.46013e-11)
(0.224976 -0.000106599 -4.57541e-11)
(0.221659 -0.000151052 -7.28993e-11)
(0.216976 -0.000190525 -8.66111e-11)
(0.211152 -0.000217636 -1.25291e-10)
(0.204368 -0.000233838 -2.01463e-10)
(0.196781 -0.000239805 -3.07914e-10)
(0.18853 -0.000236714 -4.17377e-10)
(0.179744 -0.000226484 -5.24755e-10)
(0.170533 -0.000211002 -6.3599e-10)
(0.161 -0.000192047 -6.21815e-10)
(0.151233 -0.000171178 -6.22492e-10)
(0.141311 -0.000149679 -6.29994e-10)
(0.131304 -0.00012855 -6.41445e-10)
(0.121271 -0.000108526 -6.7134e-10)
(0.111264 -9.01035e-05 -6.10965e-10)
(0.101327 -7.35827e-05 -5.7259e-10)
(0.091497 -5.91012e-05 -5.41656e-10)
(0.0818053 -4.66705e-05 -5.15251e-10)
(0.0722778 -3.62074e-05 -4.71133e-10)
(0.062936 -2.75616e-05 -4.00491e-10)
(0.0537972 -2.05393e-05 -3.39103e-10)
(0.0448752 -1.49223e-05 -2.56265e-10)
(0.0361811 -1.04855e-05 -2.02535e-10)
(0.0277233 -7.00751e-06 -1.51709e-10)
(0.0195078 -4.25251e-06 -1.0462e-10)
(0.0115392 -1.96483e-06 -6.06447e-11)
(0.00381997 -6.41783e-07 -1.95151e-11)
(0.225155 -9.12366e-05 4.58165e-10)
(0.221798 -0.000141441 8.25418e-10)
(0.217056 -0.000184193 2.1848e-10)
(0.211153 -0.000215471 -1.65951e-10)
(0.204274 -0.000236261 -4.63088e-10)
(0.196586 -0.000247521 -7.61802e-10)
(0.188235 -0.00025074 -8.41883e-10)
(0.179351 -0.000247177 -8.85606e-10)
(0.17005 -0.000238169 -9.46495e-10)
(0.160434 -0.000224969 -9.03832e-10)
(0.150592 -0.000208687 -7.87399e-10)
(0.140605 -0.000190278 -6.98102e-10)
(0.130541 -0.000170584 -6.27235e-10)
(0.120462 -0.000150332 -5.65509e-10)
(0.110418 -0.000130135 -5.07216e-10)
(0.100457 -0.000110497 -4.48295e-10)
(0.0906152 -9.18252e-05 -4.54989e-10)
(0.0809261 -7.4442e-05 -4.60918e-10)
(0.0714167 -5.85964e-05 -4.3418e-10)
(0.0621095 -4.4475e-05 -3.80167e-10)
(0.0530229 -3.22102e-05 -3.31204e-10)
(0.0441712 -2.18877e-05 -2.76077e-10)
(0.0355657 -1.35522e-05 -2.23605e-10)
(0.0272146 -7.20925e-06 -1.52341e-10)
(0.0191236 -2.83764e-06 -1.06451e-10)
(0.0112959 -4.34988e-07 -6.15945e-11)
(0.003733 5.62015e-08 -1.97963e-11)
(0.226196 -6.67948e-05 1.41709e-10)
(0.222797 -9.54512e-05 1.69011e-10)
(0.218005 -0.000121108 8.07759e-11)
(0.21205 -0.000139253 -1.89485e-11)
(0.205133 -0.000150819 -7.44591e-11)
(0.197416 -0.000156585 -3.25245e-10)
(0.189044 -0.000157256 -4.76555e-10)
(0.180146 -0.000153737 -5.66549e-10)
(0.170837 -0.000146928 -6.18063e-10)
(0.161218 -0.000137418 -6.41523e-10)
(0.151377 -0.000126679 -6.48166e-10)
(0.141392 -0.00011434 -6.47373e-10)
(0.131331 -0.000101599 -6.455e-10)
(0.121255 -8.87525e-05 -6.45631e-10)
(0.111212 -7.62224e-05 -6.49349e-10)
(0.101247 -6.43293e-05 -6.55284e-10)
(0.0913966 -5.33049e-05 -6.16691e-10)
(0.0816904 -4.33034e-05 -5.78211e-10)
(0.0721542 -3.4412e-05 -5.2987e-10)
(0.0628091 -2.66628e-05 -4.26429e-10)
(0.0536722 -2.0043e-05 -3.37496e-10)
(0.0447571 -1.45061e-05 -2.55465e-10)
(0.0360747 -9.9828e-06 -1.7653e-10)
(0.0276331 -6.38702e-06 -1.25593e-10)
(0.0194384 -3.59456e-06 -7.51661e-11)
(0.0114944 -1.44597e-06 -4.3734e-11)
(0.00380369 -6.77717e-07 -1.40757e-11)
(0.22661 -8.72446e-05 -3.28387e-11)
(0.223194 -0.00013424 -7.5812e-11)
(0.218376 -0.000175981 -1.43994e-10)
(0.212389 -0.000208347 -2.30892e-10)
(0.205429 -0.000231361 -3.31808e-10)
(0.197664 -0.00024499 -4.45801e-10)
(0.189243 -0.000250121 -5.58478e-10)
(0.180296 -0.000247903 -6.65409e-10)
(0.170938 -0.000239603 -7.63455e-10)
(0.161272 -0.000226758 -7.5324e-10)
(0.151384 -0.000209914 -7.47e-10)
(0.141355 -0.000191284 -7.48542e-10)
(0.131252 -0.000171261 -7.56163e-10)
(0.121136 -0.000150806 -7.74382e-10)
(0.111057 -0.000130518 -7.14166e-10)
(0.101059 -0.000110879 -6.67304e-10)
(0.0911811 -9.22721e-05 -6.25089e-10)
(0.0814534 -7.49975e-05 -5.83381e-10)
(0.071903 -5.92822e-05 -5.20882e-10)
(0.0625517 -4.52916e-05 -4.47239e-10)
(0.0534175 -3.3137e-05 -3.70696e-10)
(0.0445147 -2.28835e-05 -2.90522e-10)
(0.0358543 -1.45572e-05 -2.26007e-10)
(0.0274447 -8.14685e-06 -1.67851e-10)
(0.0192918 -3.59185e-06 -1.14925e-10)
(0.0113992 -8.13638e-07 -6.63359e-11)
(0.00376869 -4.67672e-07 -2.12992e-11)
(0.227909 -9.16634e-05 -1.38135e-10)
(0.22447 -0.000135639 -1.9232e-10)
(0.21962 -0.000175701 -2.88989e-10)
(0.213595 -0.000206189 -4.01858e-10)
(0.206591 -0.000227624 -5.17125e-10)
(0.198783 -0.000240151 -6.27485e-10)
(0.19032 -0.000244567 -7.35137e-10)
(0.181336 -0.000241941 -8.38803e-10)
(0.171948 -0.000233493 -9.3054e-10)
(0.162257 -0.00022049 -9.06941e-10)
(0.152352 -0.000204161 -8.86247e-10)
(0.142311 -0.000185649 -8.73138e-10)
(0.132199 -0.000165918 -8.66514e-10)
(0.122072 -0.00014578 -8.60492e-10)
(0.111979 -0.000125885 -7.96157e-10)
(0.101962 -0.000106744 -7.36579e-10)
(0.0920572 -8.87518e-05 -6.84378e-10)
(0.0822942 -7.21951e-05 -6.31101e-10)
(0.0726988 -5.72715e-05 -5.73567e-10)
(0.0632923 -4.41006e-05 -4.86566e-10)
(0.0540922 -3.27363e-05 -4.04164e-10)
(0.0451126 -2.31795e-05 -3.1319e-10)
(0.0363649 -1.53913e-05 -2.46637e-10)
(0.0278577 -9.29797e-06 -1.8409e-10)
(0.0195977 -4.75364e-06 -1.26571e-10)
(0.0115893 -1.5522e-06 -7.32098e-11)
(0.00383527 -1.09343e-06 -2.35282e-11)
(0.229024 -0.000127695 5.92013e-10)
(0.225573 -0.000194271 -5.55509e-10)
(0.220708 -0.000254747 -3.59421e-10)
(0.214665 -0.00030268 -2.60217e-10)
(0.207641 -0.000338818 -1.66263e-10)
(0.19981 -0.000363325 -3.05064e-10)
(0.191323 -0.000376947 -3.94882e-10)
(0.182312 -0.000380675 -4.60451e-10)
(0.172893 -0.000375672 -5.02153e-10)
(0.163166 -0.000363185 -5.2209e-10)
(0.153221 -0.000344481 -5.25918e-10)
(0.143133 -0.000320793 -5.17999e-10)
(0.132969 -0.000293349 -5.01413e-10)
(0.122786 -0.000263381 -4.78321e-10)
(0.112634 -0.000232049 -4.50279e-10)
(0.102555 -0.000200402 -4.19782e-10)
(0.0925863 -0.00016936 -3.893e-10)
(0.0827594 -0.000139701 -3.62611e-10)
(0.0731007 -0.000112062 -2.99392e-10)
(0.0636324 -8.69455e-05 -2.59591e-10)
(0.054373 -6.4724e-05 -1.94661e-10)
(0.0453375 -4.56531e-05 -1.64696e-10)
(0.0365379 -2.98877e-05 -1.18145e-10)
(0.0279834 -1.74863e-05 -8.91278e-11)
(0.019681 -8.37268e-06 -6.18403e-11)
(0.0116353 -2.39356e-06 -3.60331e-11)
(0.00384914 -1.369e-06 -1.16297e-11)
(0.23131 -0.000167478 3.5409e-10)
(0.227845 -0.000251442 4.34853e-10)
(0.222961 -0.000328472 -3.05554e-10)
(0.216893 -0.000389197 -2.84951e-10)
(0.20984 -0.000434531 -2.91986e-10)
(0.201977 -0.000464562 -3.39274e-10)
(0.193452 -0.000480236 -4.09987e-10)
(0.184399 -0.000482886 -4.95034e-10)
(0.17493 -0.000474123 -5.88273e-10)
(0.165148 -0.00045572 -5.68968e-10)
(0.155139 -0.000429514 -5.62647e-10)
(0.14498 -0.000397334 -5.66685e-10)
(0.134738 -0.000360938 -5.78358e-10)
(0.124469 -0.000321966 -5.93732e-10)
(0.114225 -0.000281897 -5.48844e-10)
(0.104047 -0.000242023 -5.10789e-10)
(0.0939736 -0.000203436 -4.79225e-10)
(0.0840359 -0.000167023 -4.5761e-10)
(0.0742607 -0.000133476 -4.04195e-10)
(0.0646708 -0.000103306 -3.43724e-10)
(0.0552847 -7.68557e-05 -2.85403e-10)
(0.046118 -5.43261e-05 -2.17698e-10)
(0.0371832 -3.58e-05 -1.70251e-10)
(0.0284899 -2.12524e-05 -1.27373e-10)
(0.0200457 -1.04854e-05 -8.77064e-11)
(0.0118559 -3.18636e-06 -5.07789e-11)
(0.00392411 -2.1061e-06 -1.63229e-11)
(0.234058 -0.000221532 -6.35788e-10)
(0.230582 -0.000335138 -1.20906e-09)
(0.225679 -0.000438423 -8.28123e-10)
(0.219588 -0.000519665 -7.27663e-10)
(0.212506 -0.000579987 -7.36691e-10)
(0.204606 -0.000619578 -8.06967e-10)
(0.196038 -0.000639775 -9.13131e-10)
(0.186931 -0.000642455 -1.03826e-09)
(0.177401 -0.000629882 -1.0674e-09)
(0.167548 -0.000604533 -9.75864e-10)
(0.157458 -0.000568954 -9.20004e-10)
(0.147207 -0.000525644 -8.83551e-10)
(0.136863 -0.000476966 -8.60297e-10)
(0.126482 -0.000425083 -8.42663e-10)
(0.116116 -0.000371915 -7.693e-10)
(0.105807 -0.000319125 -7.03414e-10)
(0.0955956 -0.000268104 -6.46797e-10)
(0.0855127 -0.000219985 -5.96976e-10)
(0.075587 -0.000175655 -5.28761e-10)
(0.0658423 -0.00013577 -4.47469e-10)
(0.0562987 -0.000100785 -3.76011e-10)
(0.046973 -7.09792e-05 -2.89078e-10)
(0.0378788 -4.64834e-05 -2.26997e-10)
(0.029027 -2.72928e-05 -1.69863e-10)
(0.020426 -1.31777e-05 -1.16829e-10)
(0.012082 -3.76846e-06 -6.75439e-11)
(0.00399934 -2.73582e-06 -2.16898e-11)
(0.238425 -0.000285553 -6.20872e-10)
(0.234936 -0.000429339 -1.00976e-09)
(0.230014 -0.000560016 -1.3531e-09)
(0.223895 -0.000661962 -1.13349e-09)
(0.216776 -0.000736715 -9.96399e-10)
(0.208829 -0.00078466 -9.18087e-10)
(0.2002 -0.000807693 -8.69388e-10)
(0.191019 -0.000808416 -8.33238e-10)
(0.181399 -0.000789913 -7.98047e-10)
(0.171439 -0.000755505 -7.62136e-10)
(0.161225 -0.000708554 -7.26961e-10)
(0.150833 -0.00065232 -6.92946e-10)
(0.14033 -0.000589843 -6.60437e-10)
(0.129774 -0.000523871 -6.26193e-10)
(0.119216 -0.000456813 -5.32711e-10)
(0.108702 -0.000390716 -4.39293e-10)
(0.0982709 -0.000327267 -4.10894e-10)
(0.0879575 -0.000267803 -3.77678e-10)
(0.0777914 -0.000213341 -3.26099e-10)
(0.0677985 -0.000164607 -2.75552e-10)
(0.0580004 -0.000122071 -2.27792e-10)
(0.0484156 -8.59819e-05 -1.82699e-10)
(0.0390594 -5.64197e-05 -1.40324e-10)
(0.0299441 -3.33004e-05 -1.0063e-10)
(0.0210797 -1.62563e-05 -6.3617e-11)
(0.0124734 -4.7407e-06 -2.9943e-11)
(0.00413067 -3.74314e-06 -9.34802e-12)
(0.24421 -0.000358875 -8.89469e-10)
(0.240706 -0.000540571 -1.47713e-09)
(0.235761 -0.000704069 -1.19119e-09)
(0.229608 -0.000830328 -1.0342e-09)
(0.222442 -0.000921388 -9.4883e-10)
(0.21443 -0.000978095 -9.07581e-10)
(0.205719 -0.00100319 -8.96237e-10)
(0.196436 -0.00100031 -9.05083e-10)
(0.186691 -0.000973625 -9.26782e-10)
(0.176581 -0.000927558 -8.62832e-10)
(0.166194 -0.000866496 -8.15705e-10)
(0.155604 -0.000794613 -7.82054e-10)
(0.14488 -0.000715743 -7.59354e-10)
(0.134081 -0.000633287 -7.42899e-10)
(0.12326 -0.000550177 -6.72207e-10)
(0.112465 -0.000468859 -6.11108e-10)
(0.101737 -0.000391309 -5.60163e-10)
(0.0911139 -0.000319063 -5.16758e-10)
(0.0806273 -0.000253256 -4.60583e-10)
(0.0703055 -0.000194668 -3.83305e-10)
(0.0601731 -0.000143777 -3.18812e-10)
(0.0502506 -0.000100804 -2.44186e-10)
(0.0405554 -6.57744e-05 -1.91482e-10)
(0.0311019 -3.85275e-05 -1.43477e-10)
(0.0219017 -1.85614e-05 -9.86757e-11)
(0.0129636 -5.16814e-06 -5.70507e-11)
(0.0042944 -4.72029e-06 -1.83155e-11)
(0.252508 -0.000429392 -1.11538e-09)
(0.248989 -0.000644026 -1.73377e-09)
(0.244016 -0.00083598 -1.47568e-09)
(0.23782 -0.000982304 -1.30944e-09)
(0.23059 -0.00108566 -1.21817e-09)
(0.222491 -0.00114754 -1.17297e-09)
(0.213664 -0.00117169 -1.15811e-09)
(0.204232 -0.00116293 -1.16285e-09)
(0.194305 -0.00112663 -1.18732e-09)
(0.183977 -0.00106836 -1.09119e-09)
(0.173336 -0.00099349 -1.02171e-09)
(0.162457 -0.00090706 -9.68868e-10)
(0.15141 -0.000813582 -9.27265e-10)
(0.140257 -0.000716977 -8.92512e-10)
(0.129054 -0.000620553 -8.08711e-10)
(0.117851 -0.000527006 -7.33961e-10)
(0.106695 -0.000438457 -6.68432e-10)
(0.0956252 -0.000356509 -6.10612e-10)
(0.0846781 -0.0002823 -5.36812e-10)
(0.0738854 -0.000216573 -4.52864e-10)
(0.0632747 -0.000159735 -3.77128e-10)
(0.0528698 -0.00011192 -2.94044e-10)
(0.0426909 -7.30596e-05 -2.2935e-10)
(0.032755 -4.28917e-05 -1.71244e-10)
(0.0230758 -2.07542e-05 -1.17573e-10)
(0.0136642 -5.74904e-06 -6.79282e-11)
(0.00452858 -5.97394e-06 -2.17992e-11)
(0.263543 -0.000489354 -3.8566e-10)
(0.260005 -0.000733659 -5.72008e-10)
(0.254998 -0.000949626 -6.74603e-10)
(0.248744 -0.00111182 -7.2548e-10)
(0.241427 -0.00122357 -7.41021e-10)
(0.233204 -0.0012873 -7.27924e-10)
(0.224212 -0.00130799 -7.08359e-10)
(0.214568 -0.00129174 -8.05342e-10)
(0.204381 -0.00124519 -8.86542e-10)
(0.193744 -0.00117498 -8.29255e-10)
(0.182745 -0.00108741 -7.72132e-10)
(0.171461 -0.000988229 -7.14156e-10)
(0.159966 -0.000882477 -6.56862e-10)
(0.148325 -0.000774434 -6.00684e-10)
(0.1366 -0.000667626 -5.4556e-10)
(0.124846 -0.00056486 -4.92058e-10)
(0.113113 -0.000468288 -4.41175e-10)
(0.101448 -0.000379484 -3.94914e-10)
(0.0898915 -0.000299523 -3.23143e-10)
(0.0784794 -0.000229061 -2.81905e-10)
(0.067244 -0.000168408 -2.22538e-10)
(0.0562128 -0.0001176 -1.81673e-10)
(0.0454096 -7.64776e-05 -1.32508e-10)
(0.0348543 -4.46877e-05 -1.00169e-10)
(0.0245632 -2.14266e-05 -6.93151e-11)
(0.0145496 -5.63373e-06 -4.02615e-11)
(0.0048237 -7.17638e-06 -1.29478e-11)
(0.278472 -0.000520903 -7.54794e-10)
(0.274907 -0.000777894 -1.23539e-09)
(0.269849 -0.00100277 -9.65055e-10)
(0.26351 -0.00116876 -8.29268e-10)
(0.256063 -0.00127982 -7.60589e-10)
(0.247656 -0.00133939 -7.24826e-10)
(0.238418 -0.00135355 -7.07247e-10)
(0.228463 -0.00132949 -7.01936e-10)
(0.217897 -0.00127473 -6.97836e-10)
(0.206814 -0.00119664 -6.90368e-10)
(0.195304 -0.00110202 -6.81711e-10)
(0.183449 -0.000996872 -6.73409e-10)
(0.171327 -0.00088637 -6.66181e-10)
(0.159012 -0.000774782 -6.60022e-10)
(0.14657 -0.000665539 -6.08553e-10)
(0.134066 -0.000561295 -5.62934e-10)
(0.121555 -0.000464027 -5.21879e-10)
(0.109092 -0.000375126 -4.86549e-10)
(0.0967222 -0.000295492 -4.3338e-10)
(0.0844886 -0.000225627 -3.73105e-10)
(0.0724282 -0.000165707 -3.13817e-10)
(0.0605733 -0.000115658 -2.51751e-10)
(0.0489516 -7.52418e-05 -2.06967e-10)
(0.0375865 -4.40413e-05 -1.54686e-10)
(0.0264974 -2.11436e-05 -1.06145e-10)
(0.0157001 -5.35668e-06 -6.12541e-11)
(0.00520691 -8.48133e-06 -1.96311e-11)
(0.297831 -0.000512339 -8.58986e-10)
(0.294219 -0.000764077 -1.37871e-09)
(0.289074 -0.000981335 -1.06384e-09)
(0.282595 -0.00113879 -9.03277e-10)
(0.274942 -0.00124075 -8.16496e-10)
(0.266251 -0.00129165 -7.66801e-10)
(0.256644 -0.00129829 -7.36414e-10)
(0.246234 -0.00126844 -7.15697e-10)
(0.235123 -0.00120997 -6.98923e-10)
(0.22341 -0.00113034 -6.82968e-10)
(0.211191 -0.00103624 -6.67662e-10)
(0.198557 -0.000933481 -6.52889e-10)
(0.185592 -0.000826879 -6.38153e-10)
(0.172381 -0.000720343 -6.22021e-10)
(0.159 -0.000616924 -5.59633e-10)
(0.145521 -0.000518929 -5.01122e-10)
(0.13201 -0.000428021 -4.47581e-10)
(0.118529 -0.00034533 -3.9751e-10)
(0.105132 -0.00027155 -3.36495e-10)
(0.0918666 -0.000207026 -2.64973e-10)
(0.0787771 -0.000151829 -2.02747e-10)
(0.0659006 -0.00010582 -1.52733e-10)
(0.0532692 -6.87356e-05 -1.19043e-10)
(0.04091 -4.01566e-05 -8.91212e-11)
(0.0288456 -1.91324e-05 -6.12711e-11)
(0.0170942 -4.42738e-06 -3.539e-11)
(0.00567022 -9.61862e-06 -1.13425e-11)
(0.322692 -0.00045097 -5.96485e-10)
(0.318984 -0.000669851 -9.43212e-10)
(0.313677 -0.000856226 -1.2236e-09)
(0.306954 -0.000988497 -9.73793e-10)
(0.29896 -0.00107095 -7.91257e-10)
(0.289823 -0.00110843 -6.53361e-10)
(0.279659 -0.00110773 -5.39576e-10)
(0.26858 -0.00107627 -4.37588e-10)
(0.256693 -0.00102132 -3.44335e-10)
(0.244106 -0.00094955 -3.35811e-10)
(0.230923 -0.000866789 -3.21069e-10)
(0.217246 -0.00077792 -2.9902e-10)
(0.203173 -0.000686902 -2.71519e-10)
(0.188799 -0.000596846 -2.40101e-10)
(0.174213 -0.000510118 -2.06229e-10)
(0.159498 -0.000428451 -1.66734e-10)
(0.144731 -0.000353058 -1.73015e-10)
(0.129981 -0.000284727 -1.72762e-10)
(0.115312 -0.000223912 -1.53968e-10)
(0.100779 -0.000170808 -1.36038e-10)
(0.0864314 -0.000125408 -1.19273e-10)
(0.0723119 -8.75556e-05 -1.03154e-10)
(0.058457 -5.70218e-05 -8.74253e-11)
(0.0448977 -3.34509e-05 -6.28578e-11)
(0.0316593 -1.59311e-05 -3.961e-11)
(0.0187627 -3.25212e-06 -1.82887e-11)
(0.00622401 -1.06028e-05 -5.72594e-12)
(0.353401 -0.00033528 -7.41056e-10)
(0.349505 -0.000497004 -1.23496e-09)
(0.343902 -0.000631998 -9.2671e-10)
(0.336762 -0.000725189 -7.42638e-10)
(0.328221 -0.000780345 -6.1152e-10)
(0.318403 -0.000802015 -5.13704e-10)
(0.307424 -0.000796 -4.38403e-10)
(0.295401 -0.000768351 -3.80138e-10)
(0.282453 -0.000724767 -3.36042e-10)
(0.268699 -0.000670273 -3.04496e-10)
(0.254258 -0.000609086 -2.8147e-10)
(0.239247 -0.000544614 -2.64029e-10)
(0.22378 -0.000479515 -2.50245e-10)
(0.207966 -0.000415801 -2.39118e-10)
(0.191906 -0.000354944 -2.30094e-10)
(0.175697 -0.000297978 -2.22909e-10)
(0.159425 -0.000245598 -2.17616e-10)
(0.14317 -0.000198233 -2.17027e-10)
(0.127003 -0.00015611 -1.99363e-10)
(0.110987 -0.000119307 -1.65091e-10)
(0.0951772 -8.77871e-05 -1.36229e-10)
(0.079621 -6.14379e-05 -1.10197e-10)
(0.0643591 -4.01226e-05 -8.6496e-11)
(0.0494256 -2.36137e-05 -6.46568e-11)
(0.0348486 -1.11199e-05 -4.44396e-11)
(0.0206506 -1.53744e-06 -2.56733e-11)
(0.00684941 -1.11806e-05 -8.23402e-12)
(0.390178 -0.000168316 -7.1703e-10)
(0.385952 -0.000247078 -1.19029e-09)
(0.379852 -0.000309881 -9.085e-10)
(0.37205 -0.000349884 -7.69511e-10)
(0.362683 -0.000369848 -6.88235e-10)
(0.351879 -0.000373115 -6.40636e-10)
(0.339766 -0.000363482 -6.17009e-10)
(0.326475 -0.000344606 -6.12264e-10)
(0.312141 -0.000319668 -6.22713e-10)
(0.2969 -0.000291242 -6.40726e-10)
(0.28089 -0.000261289 -6.10032e-10)
(0.264246 -0.000231229 -5.30511e-10)
(0.247098 -0.000202034 -4.70444e-10)
(0.22957 -0.000174332 -4.22941e-10)
(0.211779 -0.0001485 -3.84791e-10)
(0.193832 -0.000124739 -3.53406e-10)
(0.175827 -0.000103139 -3.26751e-10)
(0.157852 -8.37146e-05 -2.99845e-10)
(0.139986 -6.64445e-05 -2.6963e-10)
(0.122298 -5.12858e-05 -2.25501e-10)
(0.104848 -3.81857e-05 -1.86123e-10)
(0.0876882 -2.70936e-05 -1.50433e-10)
(0.0708624 -1.79964e-05 -1.17676e-10)
(0.0544072 -1.08322e-05 -8.76617e-11)
(0.0383524 -4.99426e-06 -6.00858e-11)
(0.0227221 4.60211e-07 -3.46531e-11)
(0.00753462 -1.13125e-05 -1.11021e-11)
(0.432106 3.90938e-05 -6.70914e-10)
(0.42737 6.13322e-05 -1.12665e-09)
(0.42053 8.56264e-05 -8.35979e-10)
(0.411776 0.000109069 -6.96688e-10)
(0.401264 0.000130137 -6.13296e-10)
(0.389143 0.000147404 -5.58933e-10)
(0.375562 0.000159805 -5.19962e-10)
(0.360674 0.000166795 -4.89405e-10)
(0.344637 0.000168344 -4.62941e-10)
(0.32761 0.000164854 -4.37714e-10)
(0.309751 0.000157035 -4.11785e-10)
(0.291214 0.000145781 -3.85655e-10)
(0.272146 0.000132056 -3.6061e-10)
(0.252688 0.000116804 -3.37216e-10)
(0.232967 0.000100887 -3.15719e-10)
(0.213102 8.50462e-05 -2.96261e-10)
(0.193202 6.98817e-05 -2.7962e-10)
(0.17336 5.58485e-05 -2.65233e-10)
(0.153663 4.32637e-05 -2.40001e-10)
(0.134184 3.23198e-05 -1.9804e-10)
(0.114988 2.31042e-05 -1.63774e-10)
(0.0961298 1.56127e-05 -1.32332e-10)
(0.0776546 9.7368e-06 -1.03763e-10)
(0.0596009 5.36305e-06 -7.74913e-11)
(0.0419995 2.86702e-06 -5.32182e-11)
(0.0248748 2.98522e-06 -3.07293e-11)
(0.00824545 -1.08237e-05 -9.85148e-12)
(0.477647 0.000272706 -7.04262e-10)
(0.472218 0.000409877 -1.07175e-09)
(0.464392 0.000532698 -8.6986e-10)
(0.454404 0.000628105 -7.25034e-10)
(0.442449 0.000695871 -6.33244e-10)
(0.428708 0.000736894 -5.65032e-10)
(0.413364 0.000753229 -5.11521e-10)
(0.3966 0.0007478 -4.67636e-10)
(0.378603 0.00072405 -4.30325e-10)
(0.359556 0.00068563 -3.9776e-10)
(0.33964 0.000636164 -3.6883e-10)
(0.319027 0.000579068 -3.42859e-10)
(0.29788 0.000517428 -3.19403e-10)
(0.276353 0.000453932 -2.98153e-10)
(0.254586 0.000390831 -2.78897e-10)
(0.232706 0.00032995 -2.61637e-10)
(0.210828 0.000272699 -2.4569e-10)
(0.189054 0.000220116 -2.35649e-10)
(0.167472 0.000172906 -2.10071e-10)
(0.14616 0.000131492 -1.75994e-10)
(0.125186 9.6059e-05 -1.45407e-10)
(0.104604 6.65996e-05 -1.17942e-10)
(0.0844621 4.29213e-05 -9.27142e-11)
(0.0647988 2.47586e-05 -6.93776e-11)
(0.0456447 1.22564e-05 -4.77162e-11)
(0.0270238 5.88848e-06 -2.75813e-11)
(0.00895406 -9.74944e-06 -8.84996e-12)
(0.524291 0.000513103 4.62528e-10)
(0.518025 0.000768052 8.74318e-11)
(0.509026 0.000992305 -1.18267e-10)
(0.497593 0.00116266 -2.54635e-10)
(0.483976 0.00127993 -1.14367e-10)
(0.468405 0.00134728 -1.75183e-10)
(0.451104 0.0013698 -1.93242e-10)
(0.432295 0.00135377 -1.92387e-10)
(0.412193 0.00130602 -1.81162e-10)
(0.391008 0.0012334 -1.64547e-10)
(0.368942 0.00114242 -1.44797e-10)
(0.346185 0.00103904 -1.23199e-10)
(0.322916 0.0009285 -9.94004e-11)
(0.299297 0.000815298 -7.91233e-11)
(0.275479 0.00070316 -8.56283e-11)
(0.251596 0.000595078 -9.48301e-11)
(0.227766 0.000493372 -1.23499e-10)
(0.204096 0.000399754 -1.27913e-10)
(0.180677 0.000315412 -1.20355e-10)
(0.157589 0.000241079 -9.70937e-11)
(0.134898 0.000177116 -8.86564e-11)
(0.11266 0.000123577 -7.9554e-11)
(0.0909233 8.02437e-05 -6.19705e-11)
(0.0697247 4.67405e-05 -4.59168e-11)
(0.0490943 2.29795e-05 -3.14067e-11)
(0.0290548 9.18393e-06 -1.81085e-11)
(0.00962274 -8.11769e-06 -5.80127e-12)
(0.569442 0.000738172 -3.0296e-10)
(0.562263 0.00110483 -5.56138e-10)
(0.551998 0.00142569 -3.68143e-10)
(0.539023 0.00166841 -2.7579e-10)
(0.523652 0.00183449 -2.18415e-10)
(0.506175 0.00192906 -1.85298e-10)
(0.486862 0.00195984 -1.64348e-10)
(0.465974 0.00193608 -1.50614e-10)
(0.443759 0.00186764 -1.41806e-10)
(0.420451 0.00176429 -1.36e-10)
(0.396273 0.00163519 -1.31947e-10)
(0.37143 0.00148867 -1.29057e-10)
(0.346113 0.00133203 -1.27091e-10)
(0.320494 0.00117151 -1.25969e-10)
(0.294728 0.00101229 -1.25688e-10)
(0.268955 0.000858531 -1.25531e-10)