/*--------------------------------*- C++ -*----------------------------------*\
| =========                 |                                                 |
| \\      /  F ield         | OpenFOAM: The Open Source CFD Toolbox           |
|  \\    /   O peration     | Version:  2212                                  |
|   \\  /    A nd           | Website:  www.openfoam.com                      |
|    \\/     M anipulation  |                                                 |
\*---------------------------------------------------------------------------*/
FoamFile
{
    version     2.0;
    format      ascii;
    arch        "LSB;label=32;scalar=64";
    class       volScalarField;
    location    "2.75000000";
    object      A1C2H3;
}
// * * * * * * * * * * * * * * * * * * * * * * * * * * * * * * * * * * * * * //

dimensions      [0 0 0 0 0 0 0];

internalField   nonuniform List<scalar> 
3000
(
3.176561059e-26
3.710758708e-26
4.526826245e-26
5.630946728e-26
7.02037518e-26
8.662193709e-26
1.045846969e-25
1.219044202e-25
1.343951023e-25
1.249898294e-25
1.469352608e-25
1.805110582e-25
2.261411968e-25
2.841732739e-25
3.544649299e-25
4.356631297e-25
5.232590887e-25
6.007529963e-25
3.036364728e-25
3.609686018e-25
4.497494082e-25
5.727892018e-25
7.337321697e-25
9.359399597e-25
1.179007723e-24
1.449064911e-24
1.682313538e-24
6.46533905e-25
7.796072742e-25
9.894192706e-25
1.287631918e-24
1.689728813e-24
2.210557975e-24
2.850908927e-24
3.561598337e-24
4.147933096e-24
1.316831111e-24
1.613264414e-24
2.089749344e-24
2.783321206e-24
3.741644698e-24
5.00737803e-24
6.573466672e-24
8.281214762e-24
9.63181527e-24
2.650299896e-24
3.298185196e-24
4.358016486e-24
5.931071484e-24
8.142570332e-24
1.109344878e-23
1.473682516e-23
1.863588911e-23
2.16249308e-23
5.34413895e-24
6.74562316e-24
9.070992533e-24
1.257235652e-23
1.754885375e-23
2.4215008e-23
3.239874302e-23
4.101783373e-23
4.748155732e-23
1.084323003e-23
1.385088863e-23
1.889514221e-23
2.656642401e-23
3.753972846e-23
5.224728776e-23
7.019097668e-23
8.88573539e-23
1.026461288e-22
2.214330288e-23
2.855347575e-23
3.938717e-23
5.597086943e-23
7.977332216e-23
1.116419906e-22
1.503037469e-22
1.901560265e-22
2.192929788e-22
4.544014936e-23
5.901216805e-23
8.207143875e-23
1.175133222e-22
1.684601637e-22
2.365547748e-22
3.187729796e-22
4.029499902e-22
4.640468865e-22
9.351400596e-23
1.220685884e-22
1.707525623e-22
2.457560112e-22
3.536125031e-22
4.974945546e-22
6.705441119e-22
8.468227678e-22
9.740996299e-22
1.92630094e-22
2.523419476e-22
3.543691093e-22
5.117441387e-22
7.379852652e-22
1.039214197e-21
1.400345869e-21
1.766793987e-21
2.030356512e-21
3.965369854e-22
5.206672452e-22
7.33032443e-22
1.060750475e-21
1.531549707e-21
2.15722827e-21
2.905263662e-21
3.661939824e-21
4.204753626e-21
8.146767812e-22
1.071215617e-21
1.510397737e-21
2.188129073e-21
3.160892376e-21
4.45133158e-21
5.990074182e-21
7.541978242e-21
8.654663283e-21
1.668670137e-21
2.195714617e-21
3.098209433e-21
4.490507496e-21
6.48700364e-21
9.131012804e-21
1.227563212e-20
1.543690459e-20
1.77069933e-20
3.404745469e-21
4.480886581e-21
6.323458746e-21
9.164546344e-21
1.323477683e-20
1.861949723e-20
2.502130309e-20
3.145748305e-20
3.602438883e-20
6.9165001e-21
9.100080534e-21
1.283721048e-20
1.85946013e-20
2.683212999e-20
3.771105844e-20
5.061581467e-20
6.355579377e-20
7.274087362e-20
1.398449261e-20
1.838837728e-20
2.592072819e-20
3.751323567e-20
5.407712215e-20
7.591707603e-20
1.017781561e-19
1.276640159e-19
1.46014218e-19
2.813873534e-20
3.696932486e-20
5.206185987e-20
7.526472953e-20
1.083738608e-19
1.519638212e-19
2.034990382e-19
2.55004345e-19
2.91458863e-19
5.634147493e-20
7.394981483e-20
1.040201103e-19
1.501978707e-19
2.160035007e-19
3.025147675e-19
4.046431573e-19
5.065634718e-19
5.785917435e-19
1.122529656e-19
1.471732403e-19
2.067557879e-19
2.981489531e-19
4.282150039e-19
5.98961493e-19
8.002394427e-19
1.000823077e-18
1.14237315e-18
2.225362854e-19
2.914183003e-19
4.088401381e-19
5.887387092e-19
8.444152264e-19
1.179579453e-18
1.574108185e-18
1.966729195e-18
2.243416083e-18
4.389661389e-19
5.741219374e-19
8.042991097e-19
1.156517109e-18
1.656413011e-18
2.310782733e-18
3.079951965e-18
3.844346901e-18
4.382314418e-18
8.615637583e-19
1.125374696e-18
1.574213592e-18
2.260172185e-18
3.232387781e-18
4.503194168e-18
5.994805244e-18
7.475150969e-18
8.515598502e-18
1.682568913e-18
2.194847845e-18
3.065532069e-18
4.394494777e-18
6.275383463e-18
8.730356053e-18
1.16077605e-17
1.44595754e-17
1.646131108e-17
3.269573459e-18
4.259257676e-18
5.939582578e-18
8.500966205e-18
1.212084861e-17
1.683853508e-17
2.235992438e-17
2.782469889e-17
3.165542207e-17
6.321873601e-18
8.224178711e-18
1.145046969e-17
1.636175688e-17
2.3292231e-17
3.231049295e-17
4.284899024e-17
5.326439299e-17
6.055515961e-17
1.216296148e-17
1.580103394e-17
2.196417535e-17
3.133286297e-17
4.453251718e-17
6.168041636e-17
8.168649986e-17
1.014284682e-16
1.152271593e-16
2.328455552e-17
3.020722745e-17
4.192075431e-17
5.970008745e-17
8.470768062e-17
1.171383947e-16
1.549080713e-16
1.921163252e-16
2.180807386e-16
4.435255527e-17
5.745873134e-17
7.960710656e-17
1.131713367e-16
1.602959259e-16
2.212911791e-16
2.921891593e-16
3.619010487e-16
4.104581614e-16
8.405548776e-17
1.087412835e-16
1.504017887e-16
2.134261227e-16
3.017373644e-16
4.157967436e-16
5.480802439e-16
6.778675014e-16
7.680800019e-16
1.584782643e-16
2.047303036e-16
2.826715684e-16
4.003574432e-16
5.648959162e-16
7.768890394e-16
1.022124796e-15
1.262119234e-15
1.42852468e-15
2.97215621e-16
3.834023618e-16
5.284026742e-16
7.468776427e-16
1.051562128e-15
1.443017029e-15
1.894499865e-15
2.334997591e-15
2.639535766e-15
5.543641821e-16
7.140454245e-16
9.822024181e-16
1.385267307e-15
1.945755551e-15
2.663505998e-15
3.488396899e-15
4.290318201e-15
4.842799044e-15
1.028121669e-15
1.322164591e-15
1.814937266e-15
2.553578748e-15
3.57727017e-15
4.883164066e-15
6.377729774e-15
7.824452274e-15
8.81704756e-15
1.895420488e-15
2.433331067e-15
3.332656807e-15
4.676416212e-15
6.531498027e-15
8.887346393e-15
1.157031534e-14
1.415425605e-14
1.591847001e-14
3.472543824e-15
4.44958061e-15
6.078628634e-15
8.50377809e-15
1.183658405e-14
1.604688727e-14
2.081430271e-14
2.537864397e-14
2.847740474e-14
6.320138675e-15
8.081037187e-15
1.100783195e-14
1.534640355e-14
2.127752171e-14
2.8724835e-14
3.710176995e-14
4.50674985e-14
5.044070285e-14
1.142318607e-14
1.456997961e-14
1.978138857e-14
2.746878986e-14
3.79147248e-14
5.094006917e-14
6.548112958e-14
7.920271933e-14
8.839207969e-14
2.04959306e-14
2.606745948e-14
3.525634089e-14
4.873521853e-14
6.692558519e-14
8.9430425e-14
1.143431347e-13
1.376534781e-13
1.531422869e-13
3.649235982e-14
4.625792307e-14
6.2288299e-14
8.565433945e-14
1.169462552e-13
1.553246888e-13
1.974188114e-13
2.364463827e-13
2.621624866e-13
6.445006381e-14
8.138078549e-14
1.09026641e-13
1.49040077e-13
2.021734241e-13
2.667250244e-13
3.368282701e-13
4.011985375e-13
4.432454771e-13
1.128668208e-13
1.418772428e-13
1.889718795e-13
2.566085927e-13
3.456001674e-13
4.526276057e-13
5.676565214e-13
6.722277884e-13
7.399313588e-13
1.95915243e-13
2.450059037e-13
3.241925585e-13
4.369729901e-13
5.839169108e-13
7.587815372e-13
9.447196834e-13
1.112054525e-12
1.219442276e-12
3.369544665e-13
4.189351215e-13
5.502777392e-13
7.356931442e-13
9.748233533e-13
1.256321681e-12
1.552441343e-12
1.816283727e-12
1.984156204e-12
5.740157688e-13
7.09049862e-13
9.238480624e-13
1.224306337e-12
1.607791074e-12
2.054333631e-12
2.519110441e-12
2.929232124e-12
3.188040766e-12
9.682417988e-13
1.187527947e-12
1.533786643e-12
2.01363117e-12
2.619718755e-12
3.317951184e-12
4.037273696e-12
4.666179912e-12
5.060002411e-12
1.61667291e-12
1.967672606e-12
2.517811926e-12
3.273137893e-12
4.217471974e-12
5.294191216e-12
6.392673152e-12
7.344827624e-12
7.936833346e-12
2.671333348e-12
3.225073354e-12
4.086640789e-12
5.258860571e-12
6.71004981e-12
8.348554465e-12
1.000503306e-11
1.142948971e-11
1.230942424e-11
4.367322749e-12
5.228458125e-12
6.55884019e-12
8.353254734e-12
1.055414047e-11
1.301653783e-11
1.548520992e-11
1.759284157e-11
1.888724135e-11
7.063633802e-12
8.384171241e-12
1.041062067e-11
1.312166495e-11
1.641821024e-11
2.007571372e-11
2.371485198e-11
2.680177302e-11
2.868785785e-11
1.130179673e-11
1.329967328e-11
1.634640032e-11
2.03917799e-11
2.527213781e-11
3.064606363e-11
3.595690533e-11
4.043622687e-11
4.316074794e-11
1.788934008e-11
2.087347028e-11
2.539813096e-11
3.136478365e-11
3.851191934e-11
4.632896713e-11
5.40082391e-11
6.045301349e-11
6.435780971e-11
2.801765032e-11
3.242169649e-11
3.90644099e-11
4.777012764e-11
5.813235622e-11
6.939882196e-11
8.040952733e-11
8.96108077e-11
9.516746916e-11
4.342484446e-11
4.98520612e-11
5.950108115e-11
7.20778052e-11
8.696469885e-11
1.030674475e-10
1.187345131e-10
1.317794241e-10
1.396355223e-10
6.662283634e-11
7.590666957e-11
8.978712916e-11
1.077930165e-10
1.290037811e-10
1.51845081e-10
1.739836082e-10
1.923603411e-10
2.034020393e-10
1.012125459e-10
1.14497816e-10
1.342903275e-10
1.598595729e-10
1.898549851e-10
2.22033439e-10
2.531208473e-10
2.788596245e-10
2.942957448e-10
1.523169002e-10
1.711684816e-10
1.991679608e-10
2.352114763e-10
2.773442264e-10
3.223972072e-10
3.658039638e-10
4.016661614e-10
4.231410006e-10
2.27174347e-10
2.537225811e-10
2.930507746e-10
3.435247464e-10
4.023477302e-10
4.650759413e-10
5.253746e-10
5.751062198e-10
6.04850884e-10
3.359493988e-10
3.730845179e-10
4.279741684e-10
4.982391605e-10
5.799177919e-10
6.668195031e-10
7.501984313e-10
8.188696885e-10
8.599049684e-10
4.928356523e-10
5.444675307e-10
6.2064204e-10
7.179428556e-10
8.308062202e-10
9.50658053e-10
1.065475174e-09
1.159935352e-09
1.216343709e-09
7.175515373e-10
7.889564526e-10
8.941368141e-10
1.028243434e-09
1.183520839e-09
1.348154431e-09
1.505678297e-09
1.635165035e-09
1.712455386e-09
1.037361395e-09
1.135644641e-09
1.280225952e-09
1.464289287e-09
1.677094283e-09
1.902434726e-09
2.1178364e-09
2.294792226e-09
2.400389382e-09
1.489796389e-09
1.624508943e-09
1.822462535e-09
2.074156194e-09
2.364800506e-09
2.672254472e-09
2.965935269e-09
3.207102319e-09
3.351004192e-09
2.126302757e-09
2.310262137e-09
2.580336957e-09
2.923378866e-09
3.319125327e-09
3.73743556e-09
4.136803809e-09
4.464691403e-09
4.66035163e-09
3.017110366e-09
3.267490967e-09
3.634810297e-09
4.10098684e-09
4.638384099e-09
5.206103178e-09
5.747948476e-09
6.192797958e-09
6.458309835e-09
4.257694343e-09
4.597471239e-09
5.095648318e-09
5.727498689e-09
6.455481033e-09
7.224260511e-09
7.957915773e-09
8.560321926e-09
8.920000733e-09
5.977296661e-09
6.437148567e-09
7.111076287e-09
7.965434409e-09
8.949415416e-09
9.988354034e-09
1.097988063e-08
1.179426567e-08
1.228074841e-08
8.350079566e-09
8.970879687e-09
9.880382571e-09
1.103301467e-08
1.236024846e-08
1.376158839e-08
1.509926056e-08
1.61984284e-08
1.6855428e-08
1.160959041e-08
1.244563519e-08
1.367020134e-08
1.522181155e-08
1.700833047e-08
1.889482223e-08
2.069621151e-08
2.217722592e-08
2.306308461e-08
1.606731332e-08
1.719045309e-08
1.883528111e-08
2.091917369e-08
2.331862215e-08
2.585288035e-08
2.82738322e-08
3.026544654e-08
3.145761586e-08
2.213614318e-08
2.364097767e-08
2.584456695e-08
2.863623722e-08
3.185088998e-08
3.524701538e-08
3.849275053e-08
4.11645542e-08
4.276509502e-08
3.035960747e-08
3.236988392e-08
3.531335343e-08
3.904221308e-08
4.33363758e-08
4.787400158e-08
5.22124507e-08
5.578579549e-08
5.792791532e-08
4.144754262e-08
4.412383607e-08
4.804206436e-08
5.300537915e-08
5.872119884e-08
6.476194312e-08
7.053924116e-08
7.529983652e-08
7.815538128e-08
5.631866262e-08
5.98673216e-08
6.506185321e-08
7.164076824e-08
7.921627303e-08
8.722232558e-08
9.488012736e-08
1.011919956e-07
1.04979668e-07
7.614999881e-08
8.08332049e-08
8.768667082e-08
9.636397681e-08
1.063528558e-07
1.169071178e-07
1.270011728e-07
1.353214058e-07
1.403153802e-07
1.024325873e-07
1.085792251e-07
1.175708127e-07
1.289498048e-07
1.420421718e-07
1.558691256e-07
1.690881883e-07
1.799817958e-07
1.86520282e-07
1.370320644e-07
1.450489227e-07
1.567702041e-07
1.715937804e-07
1.886368492e-07
2.066229722e-07
2.238070358e-07
2.37961026e-07
2.464542761e-07
1.822519759e-07
1.926347333e-07
2.07804969e-07
2.269737681e-07
2.489911931e-07
2.722037135e-07
2.943604115e-07
3.125962025e-07
3.235334427e-07
2.40896965e-07
2.542401428e-07
2.737200135e-07
2.983084559e-07
3.265170543e-07
3.56219752e-07
3.845377978e-07
4.078211067e-07
4.217759179e-07
3.163321328e-07
3.333373652e-07
3.581401677e-07
3.894091907e-07
4.252317892e-07
4.628966627e-07
4.987553306e-07
5.282028121e-07
5.458365674e-07
4.125348449e-07
4.340167551e-07
4.653161071e-07
5.047215232e-07
5.497948523e-07
5.971086809e-07
6.42082552e-07
6.789646571e-07
7.010277482e-07
5.341349709e-07
5.610240559e-07
6.001573196e-07
6.493529275e-07
7.055297321e-07
7.643948481e-07
8.202533513e-07
8.659931629e-07
8.933239465e-07
6.864397005e-07
7.197817469e-07
7.682485499e-07
8.290833426e-07
8.984281366e-07
9.709570285e-07
1.039658684e-06
1.095826954e-06
1.12934881e-06
8.754393864e-07
9.163910448e-07
9.758464138e-07
1.050355373e-06
1.135133397e-06
1.223636917e-06
1.307318471e-06
1.375625736e-06
1.416344244e-06
1.107791361e-06
1.157611581e-06
1.229853266e-06
1.320241206e-06
1.422899953e-06
1.529868402e-06
1.630828143e-06
1.713113325e-06
1.762111815e-06
1.390779452e-06
1.450816556e-06
1.537766167e-06
1.646384002e-06
1.769526167e-06
1.897601152e-06
2.018272939e-06
2.116483562e-06
2.174893809e-06
1.732248081e-06
1.803922387e-06
1.907600184e-06
2.036913252e-06
2.183260169e-06
2.335194373e-06
2.478106041e-06
2.594223359e-06
2.663190334e-06
2.140511289e-06
2.225293278e-06
2.347786533e-06
2.500334942e-06
2.672680974e-06
2.851281719e-06
3.018953423e-06
3.154957664e-06
3.235629116e-06
2.624238203e-06
2.723621703e-06
2.867045175e-06
3.045392043e-06
3.246517919e-06
3.454534274e-06
3.649453309e-06
3.807296655e-06
3.900801552e-06
3.192314643e-06
3.307782977e-06
3.474214739e-06
3.680836231e-06
3.913424706e-06
4.153525317e-06
4.378098835e-06
4.559665438e-06
4.667090936e-06
3.853595533e-06
3.986551631e-06
4.177960804e-06
4.415223127e-06
4.681834753e-06
4.956555986e-06
5.213062638e-06
5.420129876e-06
5.542498903e-06
4.616653044e-06
4.768416982e-06
4.986652956e-06
5.256768936e-06
5.559789231e-06
5.871483263e-06
6.162026661e-06
6.396228929e-06
6.534479499e-06
5.48965687e-06
5.661439735e-06
5.908194163e-06
6.2131791e-06
6.554770244e-06
6.905557991e-06
7.232025323e-06
7.494822444e-06
7.649789816e-06
6.480203587e-06
6.673083424e-06
6.949856757e-06
7.291489564e-06
7.67354952e-06
8.065281677e-06
8.429310152e-06
8.721962232e-06
8.894364919e-06
7.595159146e-06
7.810061489e-06
8.118136498e-06
8.497929483e-06
8.922061147e-06
9.356289628e-06
9.759242595e-06
1.008279261e-05
1.027322288e-05
8.840525418e-06
9.078209814e-06
9.418633732e-06
9.83781287e-06
1.030530483e-05
1.078326589e-05
1.122621955e-05
1.158148424e-05
1.179040339e-05
1.022133875e-05
1.04823919e-05
1.085596787e-05
1.131546425e-05
1.182728359e-05
1.234989284e-05
1.283363355e-05
1.322120244e-05
1.344894069e-05
1.174160524e-05
1.202644073e-05
1.243372841e-05
1.293418047e-05
1.349097707e-05
1.405883556e-05
1.458386683e-05
1.500410874e-05
1.525086938e-05
1.340427427e-05
1.371313821e-05
1.415446257e-05
1.469622794e-05
1.529834876e-05
1.591175865e-05
1.647831642e-05
1.693139203e-05
1.719725889e-05
1.52112484e-05
1.554423011e-05
1.601969698e-05
1.660287202e-05
1.725038335e-05
1.790937088e-05
1.851744493e-05
1.900332398e-05
1.928827149e-05
1.716342565e-05
1.752047197e-05
1.802998848e-05
1.865443333e-05
1.934714843e-05
2.005149192e-05
2.07008514e-05
2.121933283e-05
2.15232377e-05
1.926076767e-05
1.964169945e-05
2.018499741e-05
2.085036421e-05
2.15878741e-05
2.233713452e-05
2.302735555e-05
2.357808902e-05
2.390074256e-05
2.150238648e-05
2.190691609e-05
2.248357646e-05
2.31893387e-05
2.397104372e-05
2.476459582e-05
2.549508923e-05
2.607759665e-05
2.641871715e-05
2.388664251e-05
2.431439113e-05
2.492386811e-05
2.566934915e-05
2.649448956e-05
2.733155175e-05
2.810158961e-05
2.871528559e-05
2.907452992e-05
2.6411247e-05
2.686176073e-05
2.750340421e-05
2.828780384e-05
2.9155488e-05
3.003514977e-05
3.084388956e-05
3.148809998e-05
3.186507427e-05
2.907336286e-05
2.954612721e-05
3.021920272e-05
3.10416207e-05
3.195084999e-05
3.287209605e-05
3.371860197e-05
3.439258034e-05
3.478684925e-05
3.186969957e-05
3.236415185e-05
3.306785775e-05
3.392731393e-05
3.487700403e-05
3.583873493e-05
3.672199595e-05
3.742493729e-05
3.783603195e-05
3.479659916e-05
3.531213878e-05
3.604562039e-05
3.694107137e-05
3.793006987e-05
3.893111895e-05
3.985006381e-05
4.058111618e-05
4.100854078e-05
3.785011157e-05
3.838610826e-05
3.914846929e-05
4.007882174e-05
4.110592226e-05
4.214506937e-05
4.309857868e-05
4.38568525e-05
4.430008968e-05
4.102605893e-05
4.158185918e-05
4.237217058e-05
4.333629173e-05
4.4400245e-05
4.547622732e-05
4.646314315e-05
4.724771865e-05
4.770623383e-05
4.432008909e-05
4.489502103e-05
4.571232778e-05
4.670905344e-05
4.78085759e-05
4.892009636e-05
4.993922977e-05
5.074916295e-05
5.122240779e-05
4.77277194e-05
4.832109648e-05
4.916442269e-05
5.019256338e-05
5.132634374e-05
5.247207755e-05
5.352221453e-05
5.435654182e-05
5.4843957e-05
5.124437193e-05
5.185549563e-05
5.272384843e-05
5.378219395e-05
5.494889831e-05
5.612749808e-05
5.720740425e-05
5.80651463e-05
5.85661638e-05
5.486540158e-05
5.54935635e-05
5.638593592e-05
5.747325902e-05
5.867153484e-05
5.988163464e-05
6.099005907e-05
6.187022388e-05
6.238426885e-05
5.858611835e-05
5.923060181e-05
6.014597516e-05
6.126103439e-05
6.248951374e-05
6.372973254e-05
6.486541095e-05
6.576699645e-05
6.629348883e-05
6.240180511e-05
6.30618865e-05
6.399923228e-05
6.514077443e-05
6.63980768e-05
6.766702134e-05
6.882867886e-05
6.975067527e-05
7.028903121e-05
6.630773179e-05
6.698268174e-05
6.794096336e-05
6.910772566e-05
7.039246044e-05
7.168872785e-05
7.287508157e-05
7.381647334e-05
7.43661065e-05
7.029916693e-05
7.098825143e-05
7.196642586e-05
7.315713797e-05
7.446790687e-05
7.579008687e-05
7.699984773e-05
7.795961591e-05
7.85199389e-05
7.437138718e-05
7.507386878e-05
7.607088804e-05
7.728427367e-05
7.861967187e-05
7.996634961e-05
8.119822594e-05
8.217534999e-05
8.274577519e-05
7.851968439e-05
7.923482272e-05
8.024963507e-05
8.14844143e-05
8.284303469e-05
8.421279324e-05
8.546549208e-05
8.64589513e-05
8.703889197e-05
8.273937205e-05
8.34664254e-05
8.449797757e-05
8.575286917e-05
8.71333037e-05
8.852472607e-05
8.979695528e-05
9.080573061e-05
9.139460193e-05
8.702579216e-05
8.776401853e-05
8.881125718e-05
9.008498032e-05
9.148582205e-05
9.289749329e-05
9.418796354e-05
9.521103914e-05
9.580825918e-05
9.137432011e-05
9.212297829e-05
9.318485146e-05
9.447612745e-05
9.589597255e-05
9.732648175e-05
9.863390846e-05
9.967027321e-05
0.0001002752638
9.578036911e-05
9.653871968e-05
9.761417818e-05
9.892173225e-05
0.0001003591819
0.0001018071242
0.0001031302292
0.0001041788781
0.0001047910656
0.0001002393939
0.0001010067003
0.0001020946991
0.0001034172621
0.0001048709244
0.0001063349025
0.0001076724158
0.0001087323512
0.0001093511674
0.0001047468944
0.0001055224236
0.0001066219233
0.000107958233
0.0001094267246
0.0001109053511
0.0001122560122
0.000113326245
0.0001139511277
0.0001092984181
0.000110081442
0.0001111914098
0.000112540213
0.0001140221606
0.0001155140589
0.0001168766183
0.0001179561692
0.0001185865625
0.0001138895634
0.0001146793591
0.0001157987703
0.0001171588235
0.0001186528656
0.0001201566716
0.0001215298922
0.0001226177922
0.0001232531477
0.0001185159812
0.0001193118322
0.000120439671
0.0001218097422
0.0001233145303
0.0001248288937
0.0001262115517
0.0001273068433
0.0001279466201
0.0001231733774
0.0001239745741
0.0001251098347
0.0001264887042
0.000128002904
0.0001295264895
0.0001309173755
0.0001320191136
0.0001326627789
0.0001278575143
0.0001286633547
0.0001298050421
0.000131191504
0.0001327137964
0.0001342452848
0.0001356432048
0.000136750457
0.0001373974863
0.0001325642122
0.0001333740026
0.0001345211337
0.0001359139963
0.0001374430787
0.0001389811678
0.0001403849438
0.0001414967913
0.0001421466691
0.0001372893512
0.0001381024065
0.0001392540105
0.0001406520976
0.0001421866846
0.0001437300901
0.0001451385611
0.0001462540992
0.0001469063188
0.0001420288718
0.0001428445162
0.0001439996356
0.0001454017871
0.0001469406115
0.0001484880675
0.0001499000903
0.0001510184287
0.0001516724929
0.0001467787767
0.0001475963441
0.000148754035
0.0001501591078
0.0001517009211
0.0001532511815
0.0001546656308
0.0001557858944
0.0001564413156
0.0001515351318
0.0001523539661
0.0001535132991
0.0001549201675
0.0001564637409
0.0001580155796
0.0001594313491
0.0001605526782
0.0001612089783
0.0001562940671
0.0001571135229
0.0001582735833
0.00015968114
0.000161225265
0.0001627774765
0.0001641934793
0.00016531503
0.0001659717413
0.0001610517783
0.000161871221
0.0001630311097
0.0001644382662
0.0001659817551
0.0001675331554
0.0001689483245
0.0001700692693
0.0001707259338
0.0001658045281
0.0001666233343
0.000167782168
0.0001691878551
0.0001707295419
0.0001722789691
0.0001736922578
0.0001748117857
0.0001754679562
0.0001705486469
0.0001713662047
0.0001725231167
0.0001739262855
0.0001754650264
0.0001770113411
0.0001784217239
0.000179539041
0.0001801942804
0.000175280535
0.0001760962447
0.0001772503851
0.0001786500072
0.0001801846813
0.0001817267672
0.0001831332399
0.0001842475697
0.000184901452
0.0001799966641
0.0001808099382
0.0001819604746
0.0001833555427
0.0001848850524
0.0001864218173
0.0001878233979
0.0001889339816
0.0001895860914
0.0001846935788
0.0001855038423
0.0001866499601
0.0001880394889
0.0001895627607
0.0001910931367
0.0001924888657
0.0001935949629
0.000194244896
0.0001893678982
0.0001901745891
0.0001913154921
0.0001926985188
0.0001942145041
0.0001957374485
0.0001971263897
0.0001982272785
0.0001988746419
0.000194016318
0.0001948188879
0.0001959537989
0.0001973293835
0.0001988370593
0.0002003515552
0.000201732796
0.0002028277737
0.0002034721859
0.0001986356126
0.0001994335267
0.0002005616882
0.0002019289147
0.000203427284
0.0002049323412
0.0002063049936
0.0002073933768
0.000208034468
0.0002032226377
0.0002040153754
0.0002051360496
0.0002064940264
0.0002079821193
0.0002094767746
0.0002108399756
0.0002119211011
0.0002125585132
0.0002077743319
0.0002085613872
0.0002096738572
0.0002110217178
0.000212498592
0.0002139819104
0.0002153348225
0.0002164080476
0.0002170414346
0.0002122877198
0.0002130686015
0.0002141721716
0.0002155090753
0.0002169738171
0.0002184448921
0.0002197867045
0.0002208514071
0.0002214804354
0.0002167599141
0.0002175341464
0.0002186281426
0.0002199532753
0.0002214050001
0.0002228629551
0.0002241928836
0.0002252484634
0.0002258728117
0.0002211881184
0.0002219552413
0.0002230390121
0.0002243515869
0.0002257894401
0.0002272334286
0.000228550717
0.0002295965955
0.0002302159552
0.0002255696297
0.0002263291995
0.0002274021163
0.0002287013743
0.0002301245323
0.0002315537387
0.0002328576592
0.0002338932802
0.0002345073557
0.0002299018411
0.0002306534307
0.0002317148885
0.0002330000997
0.0002344077704
0.0002358214112
0.0002371112649
0.0002381360952
0.0002387446039
0.0002341822449
0.000234925444
0.000235974862
0.0002372453257
0.0002386367494
0.0002400340737
0.0002413091915
0.0002423227213
0.000242925394
0.0002384084344
0.0002391428504
0.0002401796727
0.0002414347184
0.0002428091687
0.0002441894588
0.0002454492019
0.0002464509453
0.0002470475261
0.0002425781075
0.0002433033654
0.0002443270613
0.0002455660495
0.0002469228337
0.0002482854063
0.0002495291671
0.0002505186623
0.0002511089092
0.0002466890686
0.0002474048119
0.0002484148767
0.0002496371991
0.0002509756594
0.0002523198658
0.0002535470681
0.0002545238782
0.0002551075629
0.0002507392314
0.000251445122
0.0002524410774
0.0002536461583
0.000254965672
0.000256290899
0.000257500999
0.0002584647123
0.0002590416204
0.0002547266213
0.0002554223401
0.0002564037348
0.0002575910309
0.0002588910115
0.000260196682
0.0002613891686
0.0002623393986
0.0002629093301
0.0002586493776
0.0002593346246
0.0002603010347
0.0002614700363
0.0002627499338
0.0002640355073
0.0002652099026
0.0002661462889
0.0002667090577
0.0002625057554
0.0002631802504
0.0002641312797
0.0002652815109
0.0002665408123
0.0002678057858
0.0002689616454
0.0002698838538
0.0002704392882
0.0002662941279
0.0002669576106
0.0002678928912
0.0002690239103
0.0002702621404
0.0002715060482
0.000272642962
0.0002735506845
0.0002740986273
0.000270012988
0.0002706652178
0.0002715844105
0.0002726958107
0.0002739125321
0.0002751349468
0.0002762525388
0.0002771454942
0.0002776858027
0.0002736609497
0.0002743017066
0.0002752045007
0.0002762959101
0.000277490724
0.0002786912565
0.0002797891856
0.0002806671192
0.000281199665
0.0002772367493
0.0002778658336
0.0002787519478
0.0002798230298
0.0002809955761
0.000282173876
0.0002832518356
0.0002841145198
0.0002846391891
0.000280739247
0.0002813564795
0.0002822256615
0.0002832761152
0.0002844260725
0.000285581828
0.0002866395469
0.000287486781
0.0002880034744
0.000284167427
0.0002847726492
0.0002856246761
0.0002866542361
0.0002877813222
0.0002889142606
0.0002899515022
0.0002907831124
0.0002912917449
0.0002875203982
0.0002881134722
0.0002889481507
0.0002899565875
0.0002910605589
0.0002921704464
0.0002931870094
0.0002940028489
0.0002945033497
0.0002907973948
0.0002913782035
0.0002921953694
0.000293182489
0.0002942631414
0.0002953497831
0.000296345501
0.0002971454496
0.0002976377625
0.0002939977757
0.0002945662224
0.000295365741
0.0002963313851
0.0002973885532
0.0002984517928
0.0002994265338
0.0003002104981
0.0003006945805
0.0002971210243
0.000297677033
0.0002984587988
0.0002994028444
0.0003004364013
0.000301476121
0.000302429788
0.0003031977009
0.0003036735244
0.0003001667477
0.0003007102627
0.000301474199
0.0003023965583
0.0003034064155
0.0003044225358
0.0003053550656
0.0003061068862
0.0003065744361
0.0003031346756
0.0003036656613
0.0003044117202
0.0003053123401
0.0003062984471
0.000307290926
0.0003082022892
0.0003089380023
0.0003093972772
0.0003060246585
0.0003065430991
0.0003072712609
0.0003081501227
0.0003091124661
0.0003100812987
0.000310971499
0.0003116911147
0.0003121421266
0.0003088366657
0.0003093425651
0.0003100528378
0.0003109099562
0.0003118485594
0.000312793777
0.0003136628508
0.0003143664038
0.0003148091775
0.0003115707825
0.0003120641635
0.0003127565823
0.0003135920049
0.0003145069269
0.0003154285964
0.0003162766114
0.0003169641605
0.0003173987332
0.0003142272065
0.0003147081104
0.0003153827367
0.0003161965431
0.0003170878775
0.0003179861
0.0003188131543
0.0003194847814
0.0003199112023
0.0003168062429
0.0003172747292
0.0003179316498
0.00031872395
0.0003195918237
0.0003204667328
0.0003212729538
0.0003219287626
0.0003223470921
0.0003193082998
0.0003197644445
0.0003204037703
0.0003211747033
0.0003220192745
0.0003228710348
0.0003236565771
0.000324296692
0.0003247070009
0.0003217338803
0.0003221777755
0.0003227996397
0.0003235493717
0.0003243708273
0.0003251996319
0.000325964675
0.000326589239
0.0003269916074
0.0003240835747
0.0003245153269
0.000325119883
0.0003258486041
0.0003266471574
0.0003274532245
0.00032819797
0.0003288071422
0.0003292016583
0.0003263580492
0.0003267777774
0.0003273651968
0.0003280731182
0.0003288490045
0.0003296325737
0.0003303572414
0.0003309511944
0.0003313379525
0.0003285580335
0.0003289658669
0.000329536335
0.0003302236848
0.0003309771569
0.000331738484
0.0003324433073
0.0003330222228
0.000333401321
0.0003306843038
0.0003310803791
0.0003316340916
0.0003323011093
0.0003330324313
0.0003337717822
0.000334457002
0.0003350210661
0.0003353926037
0.0003327376639
0.0003331221216
0.0003336592788
0.0003343062089
0.0003350156488
0.0003357332913
0.0003363991485
0.0003369485456
0.0003373126191
0.0003347189207
0.0003350919005
0.0003356127015
0.000336239785
0.0003369276055
0.0003376237999
0.0003382705259
0.0003388054311
0.0003391621299
0.000336628856
0.0003369904917
0.0003374951257
0.0003381025907
0.0003387690375
0.0003394440241
0.0003400718299
0.0003405923994
0.0003409418003
0.0003384681922
0.0003388186045
0.0003393072416
0.0003398952905
0.0003405405784
0.0003411945635
0.0003418036253
0.0003423099852
0.0003426521454
0.0003402375511
0.0003405768401
0.0003410496192
0.000341618414
0.0003422427104
0.0003428758482
0.0003434662909
0.0003439585236
0.000344293473
0.0003419374056
0.0003422656406
0.0003427226556
0.0003432723007
0.000343875705
0.000344488077
0.0003450599544
0.0003455380821
0.0003458658132
0.0003435680226
0.0003438852311
0.0003443265139
0.000344857035
0.0003454395554
0.0003460311452
0.0003465844165
0.0003470483824
0.0003473688392
0.0003451293963
0.0003454355501
0.0003458610517
0.0003463723712
0.0003469338966
0.0003475045614
0.0003480390639
0.0003484887094
0.0003488017741
0.0003466211709
0.0003469161706
0.0003473257378
0.0003478176468
0.000348357915
0.0003489073519
0.0003494227694
0.0003498578088
0.0003501632865
0.0003480425516
0.0003483262089
0.0003487195584
0.0003491916839
0.0003497102446
0.0003502379528
0.0003507337795
0.0003511537706
0.000351451372
0.0003493922043
0.000349664221
0.00035004091
0.0003504926785
0.000350988852
0.0003514940895
0.0003519695902
0.0003523739018
0.000352663224
0.0003506681427
0.0003509280882
0.0003512874816
0.0003517180782
0.0003521909096
0.0003526726462
0.0003531268119
0.0003535145879
0.0003537950934
0.0003518676052
0.0003521148916
0.000352456126
0.0003528644502
0.00035331266
0.0003537695266
0.0003542010271
0.0003545711486
0.0003548421428
0.000352986923
0.0003532207788
0.0003535427249
0.0003539273441
0.0003543492761
0.0003547795114
0.0003551866466
0.0003555376925
0.0003557983006
0.0003540213847
0.0003542408274
0.0003545420512
0.0003549011532
0.0003552947223
0.0003556961201
0.0003560767709
0.0003564069794
0.0003566561243
0.0003549651016
0.0003551689112
0.0003554476365
0.0003557789841
0.0003561416265
0.0003565114857
0.0003568630693
0.0003571703027
0.0003574066844
0.000355810884
0.0003559975793
0.0003562516537
0.0003565525444
0.0003568811742
0.0003572162565
0.0003575356892
0.0003578174051
0.0003580394852
0.0003565501386
0.0003567179573
0.0003569448258
0.0003572120609
0.0003575030387
0.0003577995392
0.0003580832113
0.0003583364456
0.0003585424374
0.0003571728006
0.0003573196876
0.0003575163774
0.000357746246