/*--------------------------------*- C++ -*----------------------------------*\
| =========                 |                                                 |
| \\      /  F ield         | OpenFOAM: The Open Source CFD Toolbox           |
|  \\    /   O peration     | Version:  2212                                  |
|   \\  /    A nd           | Website:  www.openfoam.com                      |
|    \\/     M anipulation  |                                                 |
\*---------------------------------------------------------------------------*/
FoamFile
{
    version     2.0;
    format      ascii;
    arch        "LSB;label=32;scalar=64";
    class       volScalarField;
    location    "2.75000000";
    object      AC3H4_0;
}
// * * * * * * * * * * * * * * * * * * * * * * * * * * * * * * * * * * * * * //

dimensions      [0 0 0 0 0 0 0];

internalField   nonuniform List<scalar> 
3000
(
5.333677444e-23
6.178078884e-23
7.463722031e-23
9.196000132e-23
1.136668908e-22
1.392174369e-22
1.670773819e-22
1.938536747e-22
2.130634322e-22
2.074443728e-22
2.416873658e-22
2.938796243e-22
3.644811241e-22
4.538518617e-22
5.616655358e-22
6.858478245e-22
8.196234509e-22
9.378762423e-22
4.940041584e-22
5.816168309e-22
7.166984905e-22
9.029175498e-22
1.145194948e-21
1.448125722e-21
1.810853381e-21
2.212688742e-21
2.558645749e-21
1.023908825e-21
1.2218298e-21
1.532323277e-21
1.970965706e-21
2.558707111e-21
3.315517451e-21
4.241155626e-21
5.263748753e-21
6.10291736e-21
2.018703566e-21
2.445827185e-21
3.128508511e-21
4.115448715e-21
5.469400281e-21
7.245356411e-21
9.428725588e-21
1.179539222e-20
1.365428824e-20
3.916902457e-21
4.818336221e-21
6.283813858e-21
8.44273238e-21
1.14540248e-20
1.544113344e-20
2.032798252e-20
2.552134337e-20
2.947158019e-20
7.593491634e-21
9.472168473e-21
1.256870815e-20
1.719409379e-20
2.371267775e-20
3.237150827e-20
4.291639536e-20
5.393678775e-20
6.21312605e-20
1.478848745e-20
1.866686406e-20
2.512630292e-20
3.486754607e-20
4.867769668e-20
6.702316934e-20
8.921370613e-20
1.121082508e-19
1.28869394e-19
2.896190818e-20
3.690487939e-20
5.02324996e-20
7.045635832e-20
9.921410519e-20
1.373597662e-19
1.832213329e-19
2.300886959e-19
2.640381703e-19
5.697344443e-20
7.312154737e-20
1.003544622e-19
1.41836202e-19
2.00893835e-19
2.790707528e-19
3.725858292e-19
4.674792585e-19
5.357037373e-19
1.123837559e-19
1.449888583e-19
2.001576128e-19
2.843721444e-19
4.04284972e-19
5.626734385e-19
7.513558437e-19
9.418150261e-19
1.078011538e-18
2.218989408e-19
2.873097211e-19
3.982123735e-19
5.676797463e-19
8.088662694e-19
1.126767945e-18
1.504192799e-18
1.883645568e-18
2.153915395e-18
4.378906784e-19
5.683152641e-19
7.897031734e-19
1.12810713e-18
1.609320875e-18
2.242326509e-18
2.991699686e-18
3.742679625e-18
4.276132463e-18
8.625584718e-19
1.121082483e-18
1.560160856e-18
2.231237238e-18
3.18455933e-18
4.436208412e-18
5.913966461e-18
7.390394354e-18
8.438577092e-18
1.694257345e-18
2.203681698e-18
3.069042248e-18
4.391146947e-18
6.26736695e-18
8.726360495e-18
1.162176725e-17
1.450449954e-17
1.655565063e-17
3.315797137e-18
4.313567099e-18
6.008236641e-18
8.595859989e-18
1.226435814e-17
1.70669989e-17
2.271979647e-17
2.835023023e-17
3.230487568e-17
6.462028488e-18
8.40428653e-18
1.170159528e-17
1.673177476e-17
2.385351711e-17
3.316033406e-17
4.408925478e-17
5.494448879e-17
6.257434196e-17
1.253684375e-17
1.629521107e-17
2.267144519e-17
3.238839609e-17
4.612649007e-17
6.4049934e-17
8.505913982e-17
1.058889695e-16
1.205112544e-16
2.420951747e-17
3.144122082e-17
4.370076044e-17
6.236285099e-17
8.871186842e-17
1.230357301e-16
1.632053908e-16
2.029706319e-16
2.308426743e-16
4.653058841e-17
6.037067806e-17
8.381377833e-17
1.194598168e-16
1.697211224e-16
2.350992185e-16
3.114985761e-16
3.870192986e-16
4.398750459e-16
8.900966012e-17
1.153590156e-16
1.599522797e-16
2.276799065e-16
3.2304945e-16
4.469260385e-16
5.914776228e-16
7.341678864e-16
8.338953074e-16
1.694660405e-16
2.193764533e-16
3.037677798e-16
4.317899779e-16
6.118218847e-16
8.453380173e-16
1.117444164e-15
1.385682534e-15
1.572909068e-15
3.211319089e-16
4.152021569e-16
5.741130596e-16
8.148948633e-16
1.153042189e-15
1.591032767e-15
2.100693083e-15
2.602441006e-15
2.952213605e-15
6.056955088e-16
7.821370029e-16
1.079911015e-15
1.530553541e-15
2.162572233e-15
2.980061597e-15
3.930005355e-15
4.863992626e-15
5.514266958e-15
1.137144416e-15
1.466513494e-15
2.021834714e-15
2.861211503e-15
4.036825746e-15
5.555307674e-15
7.317408872e-15
9.047692914e-15
1.02509133e-14
2.12515368e-15
2.737139212e-15
3.767924854e-15
5.324027925e-15
7.500465565e-15
1.03076691e-14
1.356073694e-14
1.675093978e-14
1.896666161e-14
3.953697947e-15
5.085619089e-15
6.990193701e-15
9.86171551e-15
1.387226958e-14
1.903756798e-14
2.501466351e-14
3.086835289e-14
3.492873322e-14
7.32286268e-15
9.407102973e-15
1.291034023e-14
1.818516436e-14
2.554146314e-14
3.500129425e-14
4.593125831e-14
5.662022798e-14
6.402446588e-14
1.350344914e-14
1.732436711e-14
2.373956195e-14
3.338550762e-14
4.681681319e-14
6.406048027e-14
8.395128036e-14
1.033730878e-13
1.168065761e-13
2.479192043e-14
3.176613321e-14
4.346197095e-14
6.102197918e-14
8.543202798e-14
1.167145545e-13
1.527337303e-13
1.878417925e-13
2.120845084e-13
4.531921189e-14
5.7993757e-14
7.922263729e-14
1.110446048e-13
1.551986761e-13
2.116709751e-13
2.765597177e-13
3.396788228e-13
3.831796959e-13
8.248083229e-14
1.05413701e-13
1.437724586e-13
2.011711327e-13
2.806499193e-13
3.820708765e-13
4.98328453e-13
6.111456607e-13
6.887210333e-13
1.49450725e-13
1.907577198e-13
2.597466741e-13
3.627767598e-13
5.051069649e-13
6.86253989e-13
8.933169608e-13
1.09368124e-12
1.231081025e-12
2.695722164e-13
3.436255213e-13
4.670982968e-13
6.510856148e-13
9.04569624e-13
1.226194626e-12
1.592609837e-12
1.945964479e-12
2.187485923e-12
4.839751612e-13
6.160740256e-13
8.35909319e-13
1.162649891e-12
1.611401505e-12
2.178732757e-12
2.822521267e-12
3.440838038e-12
3.861812711e-12
8.646920172e-13
1.099074161e-12
1.488273837e-12
2.065030911e-12
2.854271354e-12
3.84783638e-12
4.970045402e-12
6.042659951e-12
6.769562859e-12
1.537063009e-12
1.95050592e-12
2.635310462e-12
3.646646135e-12
5.024683284e-12
6.750879852e-12
8.689938347e-12
1.053285374e-11
1.177505945e-11
2.717683048e-12
3.442328934e-12
4.639092438e-12
6.39947349e-12
8.786310424e-12
1.175899227e-11
1.507717136e-11
1.821036648e-11
2.030928772e-11
4.778086857e-12
6.039250087e-12
8.115067819e-12
1.11544799e-11
1.525207786e-11
2.032180233e-11
2.594010504e-11
3.120633966e-11
3.470992722e-11
8.350595253e-12
1.052848541e-11
1.409933874e-11
1.930030162e-11
2.626661146e-11
3.482150166e-11
4.422596718e-11
5.296973985e-11
5.87432361e-11
1.450242463e-11
1.823131911e-11
2.431829016e-11
3.313121694e-11
4.484968014e-11
5.912150442e-11
7.467257697e-11
8.900458563e-11
9.839222642e-11
2.50189546e-11
3.134380901e-11
4.161725797e-11
5.639259825e-11
7.588142658e-11
9.940300009e-11
1.247908034e-10
1.479719839e-10
1.630293773e-10
4.285924231e-11
5.347847476e-11
7.063251168e-11
9.512313788e-11
1.271449236e-10
1.65420998e-10
2.063238829e-10
2.433146349e-10
2.671383199e-10
7.287950918e-11
9.051415431e-11
1.18829809e-10
1.589362971e-10
2.108892216e-10
2.723637392e-10
3.373865753e-10
3.956222588e-10
4.328121597e-10
1.229673268e-10
1.519113113e-10
1.980870967e-10
2.62942793e-10
3.461411824e-10
4.435708039e-10
5.455649662e-10
6.360396872e-10
6.933427275e-10
2.0579551e-10
2.527198886e-10
3.270737736e-10
4.305972097e-10
5.620834427e-10
7.144630559e-10
8.723643409e-10
1.011133412e-09
1.098333567e-09
3.414964018e-10
4.166027001e-10
5.347812274e-10
6.978627744e-10
9.029375928e-10
1.138171423e-09
1.379538364e-09
1.589788091e-09
1.72093109e-09
5.616820416e-10
6.803276904e-10
8.656984481e-10
1.119239554e-09
1.434957867e-09
1.793534217e-09
2.158031458e-09
2.472916282e-09
2.667987898e-09
9.154038498e-10
1.100358422e-09
1.387315078e-09
1.776406965e-09
2.256366864e-09
2.796381048e-09
3.340535757e-09
3.807051412e-09
4.094269477e-09
1.477871106e-09
1.762409464e-09
2.200889571e-09
2.790510486e-09
3.51137157e-09
4.31535748e-09
5.119028104e-09
5.803281127e-09
6.222216463e-09
2.363050898e-09
2.795153838e-09
3.456765831e-09
4.339500121e-09
5.409812219e-09
6.593997693e-09
7.769143183e-09
8.763500755e-09
9.369314208e-09
3.741682725e-09
4.389704805e-09
5.375991005e-09
6.682438844e-09
8.254553972e-09
9.981359823e-09
1.16838955e-08
1.311666545e-08
1.398584989e-08
5.866799429e-09
6.827089497e-09
8.280627514e-09
1.019338967e-08
1.247947643e-08
1.497434521e-08
1.742013874e-08
1.9468652e-08
2.070681683e-08
9.109605949e-09
1.051675937e-08
1.263604347e-08
1.540843435e-08
1.870191025e-08
2.227587329e-08
2.576229248e-08
2.867059484e-08
3.04230355e-08
1.400878942e-08
1.604922524e-08
1.910856463e-08
2.308987623e-08
2.779453063e-08
3.28749082e-08
3.78099407e-08
4.191259885e-08
4.437841121e-08
2.133892284e-08
2.426919806e-08
2.864556047e-08
3.431499495e-08
4.09839113e-08
4.815526302e-08
5.509655094e-08
6.085068172e-08
6.430189845e-08
3.2204866e-08
3.637614213e-08
4.258493017e-08
5.059685585e-08
5.998444073e-08
7.004343366e-08
7.975059572e-08
8.777879359e-08
9.258600866e-08
4.817047989e-08
5.40611598e-08
6.280396018e-08
7.404833975e-08
8.717981799e-08
1.012085221e-07
1.147130312e-07
1.258606981e-07
1.325272612e-07
7.143348737e-08
7.969267295e-08
9.192084848e-08
1.076037235e-07
1.258676929e-07
1.453311708e-07
1.640293763e-07
1.794410782e-07
1.886487223e-07
1.050616326e-07
1.165668332e-07
1.335659576e-07
1.553162849e-07
1.805875295e-07
2.074633114e-07
2.332399384e-07
2.544609383e-07
2.671305292e-07
1.533095162e-07
1.692429791e-07
1.927444821e-07
2.227553486e-07
2.575571658e-07
2.945065033e-07
3.29898208e-07
3.590090254e-07
3.763810807e-07
2.220402943e-07
2.439894555e-07
2.763175294e-07
3.175320118e-07
3.652500357e-07
4.158437279e-07
4.642548943e-07
5.04048894e-07
5.277899467e-07
3.192816732e-07
3.493706551e-07
3.936346606e-07
4.499894555e-07
5.151521896e-07
5.841670347e-07
6.501532623e-07
7.043702565e-07
7.367129601e-07
4.559513325e-07
4.970121548e-07
5.573572748e-07
6.341002572e-07
7.227449467e-07
8.165507936e-07
9.06189709e-07
9.798222209e-07
1.023749486e-06
6.467921375e-07
7.025859126e-07
7.845170712e-07
8.886179211e-07
1.008764266e-06
1.135826214e-06
1.257199945e-06
1.356893024e-06
1.41637923e-06
9.115598722e-07
9.870595323e-07
1.097855677e-06
1.238531712e-06
1.400789676e-06
1.572314217e-06
1.736132371e-06
1.870701982e-06
1.951027073e-06
1.276504745e-06
1.378251774e-06
1.527489033e-06
1.716870156e-06
1.93521025e-06
2.165966603e-06
2.386361197e-06
2.567458635e-06
2.675612531e-06
1.776181576e-06
1.912728791e-06
2.112930248e-06
2.3668858e-06
2.659598659e-06
2.96894457e-06
3.264466095e-06
3.507413656e-06
3.652606888e-06
2.455609766e-06
2.638059449e-06
2.905484893e-06
3.244628914e-06
3.635492673e-06
4.048623719e-06
4.44345612e-06
4.768268404e-06
4.962557547e-06
3.372781909e-06
3.615422244e-06
3.971001134e-06
4.421878235e-06
4.941533481e-06
5.490952152e-06
6.016339381e-06
6.448921007e-06
6.707941819e-06
4.601488012e-06
4.922519482e-06
5.392912522e-06
5.989341532e-06
6.676841103e-06
7.404002899e-06
8.099837349e-06
8.673308817e-06
9.017083665e-06
6.234379728e-06
6.656705796e-06
7.275453295e-06
8.059968199e-06
8.964421115e-06
9.921458543e-06
1.083792181e-05
1.159397084e-05
1.204772493e-05
8.38614338e-06
8.938175878e-06
9.746854278e-06
1.077213206e-05
1.195429886e-05
1.3205652e-05
1.440472474e-05
1.539481823e-05
1.598969649e-05
1.119657839e-05
1.191297868e-05
1.296224232e-05
1.42923493e-05
1.582597451e-05
1.744968185e-05
1.900626301e-05
2.029246761e-05
2.106595554e-05
1.483328575e-05
1.575553056e-05
1.710586904e-05
1.881709763e-05
2.078970764e-05
2.287805202e-05
2.488035484e-05
2.653548301e-05
2.753144094e-05
1.94935576e-05
2.067018835e-05
2.239218853e-05
2.457321512e-05
2.708605971e-05
2.974518856e-05
3.229408934e-05
3.440097539e-05
3.566908903e-05
2.540494524e-05
2.689133994e-05
2.906522223e-05
3.181628989e-05
3.498305042e-05
3.833127995e-05
4.153838538e-05
4.418801803e-05
4.578254121e-05
3.282390255e-05
3.468139943e-05
3.739556098e-05
4.082637025e-05
4.477045314e-05
4.893504162e-05
5.291922547e-05
5.620760668e-05
5.818532931e-05
4.203176036e-05
4.43259887e-05
4.767444191e-05
5.190069517e-05
5.675091913e-05
6.186314625e-05
6.67455057e-05
7.076923648e-05
7.318670232e-05
5.332762386e-05
5.612604453e-05
6.020468546e-05
6.534315515e-05
7.122782418e-05
7.741646522e-05
8.331384534e-05
8.816461641e-05
9.10747263e-05
6.701796616e-05
7.03865933e-05
7.528833628e-05
8.145060742e-05
8.849020218e-05
9.587371696e-05
0.0001028911822
0.0001086495369
0.0001120977858
8.340290482e-05
8.740236207e-05
9.321138921e-05
0.0001004966322
0.0001087955929
0.0001174735957
0.000125696449
0.0001324253556
0.0001364460471
0.0001027597169
0.0001074408976
0.0001142264413
0.0001227137812
0.0001323520765
0.0001423968633
0.0001518829877
0.0001596218783
0.0001642347162
0.0001253246166
0.0001307243247
0.0001385345467
0.0001482757571
0.0001593010924
0.0001707501361
0.0001815235336
0.0001902835229
0.0001954909787
0.0001512742285
0.0001574112456
0.0001662678561
0.0001772811807
0.0001897027525
0.0002025531105
0.000214599544
0.0002243605873
0.0002301462842
0.0001807084514
0.000187580477
0.0001974747249
0.0002097405775
0.0002235251745
0.0002377306075
0.0002509962041
0.0002617075873
0.0002680396783
0.0002136364632
0.0002212183134
0.0002321088537
0.000245567939
0.0002606388437
0.0002761098039
0.0002905020168
0.0003020834056
0.0003089101953
0.0002499674785
0.0002582107969
0.000270023747
0.0002845778846
0.0003008167542
0.0003174232824
0.0003328145897
0.0003451557965
0.0003524088767
0.000289507533
0.0002983420913
0.0003109733113
0.0003264888907
0.000343740438
0.0003613169085
0.0003775441564
0.0003905093511
0.0003981067494
0.0003319630693
0.0003412994782
0.0003546187151
0.0003709320803
0.0003890074018
0.0004073530803
0.0004242262182
0.0004376603275
0.0004455097629
0.0003769513944
0.0003866847544
0.0004005392963
0.0004174577276
0.0004361389376
0.0004550293702
0.0004723393483
0.0004860743446
0.0004940770256
0.000424008062
0.0004340183991
0.0004482362099
0.0004655483933
0.0004846004999
0.0005037969121
0.0005213243985
0.0005351862266
0.0005432408928
0.0004725968893
0.000482756568
0.0004971562172
0.0005146413561
0.000533821833
0.0005530808814
0.0005706051191
0.0005844205985
0.0005924274638
0.0005221359684
0.0005323149668
0.0005467129637
0.0005641497775
0.0005832182033
0.0006023014467
0.0006196086245
0.0006332118251
0.0006410761446
0.0005720202181
0.0005820912669
0.000596309192
0.0006134843749
0.000632211356
0.0006508937988
0.0006677844078
0.000681022113
0.0006886571728
0.0006216443155
0.0006314875551
0.000645358445
0.0006620740716
0.0006802488824
0.0006983260982
0.0007146208911
0.0007273568981
0.0007346863056
0.0006704244237
0.0006799312975
0.0006933049007
0.0007093843853
0.0007268209516
0.0007441144826
0.0007596588251
0.0007717769603
0.0007787361887
0.0007178173837
0.0007268935837
0.0007396402597
0.0007549326485
0.0007714736901
0.0007878346025
0.0008025011646
0.0008139070136
0.0008204442162
0.0007633363912
0.000771903783
0.0007839169638
0.0007982995048
0.0008138188315
0.0008291294706
0.0008428193393
0.0008534407799
0.0008595169381
0.0008065625864
0.0008145601304
0.0008257573929
0.0008391364764
0.0008535395722
0.0008677136881
0.0008803560863
0.000890142802
0.0008957313237
0.0008471523681
0.0008545361335
0.0008648590311
0.0008771696957
0.00089039283
0.0009033743425
0.0009149252195
0.0009238473948
0.0009289332734
0.0008848405794
0.0008915829957
0.0009009958646
0.0009122001483
0.000924208331
0.0009359690421
0.0009464088028
0.0009544552137
0.0009590338733
0.0009194400042
0.0009255285355
0.0009340165301
0.0009441009617
0.0009548850513
0.0009654216135
0.0009747522656
0.0009819279794
0.0009860039252
0.000950837789
0.000956273202
0.000963839804
0.0009728123266
0.0009823856048
0.0009917160463
0.0009999580238
0.001006281897
0.001009867273
0.0009789894624
0.000983783862
0.0009904480962
0.0009983346945
0.001006729188
0.001014889256
0.001022078137
0.00102758027
0.001030693411
0.001003911273
0.001008086053
0.001013879612
0.001020720873
0.001027983657
0.00103502319
0.001041206484
0.001045925759
0.001048589803
0.00102567152
0.001029255348
0.001034219786
0.001040067576
0.001046257228
0.001052236723
0.001057470858
0.001061452652
0.001063694253
0.001044381476
0.001047408403
0.00105159252
0.001056506899
0.001061690249
0.001066677726
0.001071025323
0.001074319445
0.001076167629
0.001060186387
0.001062694142
0.001066151626
0.001070198094
0.001074447334
0.001078515573
0.001082043055
0.001084701954
0.001086187118
0.001073256928
0.001075285429
0.001078072815
0.001081319934
0.001084710127
0.001087934306
0.001090709863
0.001092787107
0.001093940178
0.001083781387
0.001085371487
0.001087546436
0.00109006383
0.001092670841
0.001095126574
0.001097218483
0.001098767504
0.001099619247
0.001091958742
0.001093151198
0.001094771093
0.001096627832
0.00109852665
0.001100288405
0.001101763685
0.001102836781
0.001103417246
0.001097992708
0.001098827374
0.001099948218
0.001101211541
0.001102474971
0.001103614846
0.001104538213
0.001105185775
0.001105523872
0.001102086781
0.00110260199
0.001103277568
0.001104011929
0.001104709609
0.001105296416
0.00110572951
0.001105999456
0.001106122644
0.001104440245
0.001104672362
0.001104953637
0.001105220018
0.00110541772
0.001105516339
0.001105517185
0.00110545456
0.001105388629
0.001105245059
0.001105228178
0.001105162889
0.001105018341
0.001104777517
0.001104448477
0.001104071138
0.001103717865
0.001103486798
0.001104683549
0.001104449317
0.001104081735
0.001103579114
0.001102956627
0.001102255874
0.001101550263
0.001100945015
0.001100570922
0.001102926804
0.001102504327
0.001101875148
0.001101062998
0.001100111024
0.001099089839
0.001098101666
0.001097279825
0.001096782925
0.00110013365
0.00109954949
0.001098695828
0.001097618387
0.001096384433
0.001095089469
0.001093860277
0.001092853983
0.001092252629
0.00109645013
0.00109572835
0.00109468381
0.001093381109
0.001091908129
0.001090381529
0.001088948821
0.001087787061
0.001087097802
0.001092009377
0.00109117163
0.001089966441
0.001088474463
0.001086801042
0.001085080631
0.00108347804
0.001082186797
0.001081424453
0.001086931791
0.001085997445
0.001084658629
0.001083009523
0.001081170105
0.001079289629
0.001077547134
0.001076149549
0.001075327316
0.001081325464
0.001080311738
0.001078863311
0.00107708563
0.001075110788
0.001073100171
0.001071244338
0.001069760902
0.001068890455
0.001075286762
0.001074208881
0.001072672066
0.001070791029
0.001068707743
0.001066593374
0.001064647609
0.001063096363
0.001062187973
0.00106890104
0.00106777239
0.001066165841
0.001064203598
0.001062035549
0.001059840566
0.001057825375
0.00105622211
0.001055284758
0.001062243418
0.001061075707
0.001059415728
0.001057391629
0.001055159484
0.001052904065
0.001050837311
0.001049195769
0.001048237265
0.001055379599
0.001054183013
0.00105248378
0.001050414633
0.001048136332
0.001045837972
0.001043735127
0.001042067198
0.001041094291
0.001048366703
0.00104715005
0.00104542382
0.001043324146
0.00104101517
0.001038688952
0.001036563338
0.001034879247
0.001033897732
0.001041254077
0.001040024934
0.001038282242
0.001036164514
0.001033838145
0.001031496991
0.001029360008
0.001027668493
0.001026683315
0.001034084085
0.001032848932
0.00103109878
0.001028973642
0.001026641205
0.001024296119
0.001022157458
0.001020465935
0.001019481283
0.001026892862
0.001025657204
0.001023907233
0.001021783714
0.001019454799
0.001017115084
0.001014982926
0.001013297645
0.001012317041
0.001019711014
0.001018479495
0.001016736147
0.00101462185
0.001012304519
0.001009977983
0.001007859181
0.001006185364
0.001005211745
0.001012564273
0.001011340782
0.001009609447
0.001007510721
0.001005211699
0.001002904841
0.001000805084
0.0009991470578
0.0009981828457
0.001005474095
0.001004261861
0.001002547009
0.001000469113
0.0009981939563
0.0009959121316
0.0009938360983
0.0009921974091
0.0009912445821
0.0009984582111
0.0009972598881
0.0009955651893
0.0009935124333
0.0009912656847
0.0009890132614
0.0009869647526
0.0009853482715
0.0009844084222
0.0009915311171
0.0009903488632
0.0009886772965
0.0009866531707
0.0009844384984
0.0009822189906
0.0009802010527
0.0009786090696
0.0009776834593
0.0009847045214
0.0009835400668
0.000981894016
0.0009799013062
0.0009777216272
0.000975537817
0.0009735528496
0.0009719871571
0.0009710767637
0.0009779877406
0.0009768424487
0.0009752237889
0.000973264678
0.0009711222679
0.0009689763132
0.0009670261646
0.0009654881322
0.0009645936926
0.0009713880509
0.0009702629734
0.0009686731462
0.0009667493053
0.0009646458948
0.0009625394238
0.0009606254759
0.0009591161153
0.0009582381626
0.0009649109996
0.0009638069238
0.0009622470045
0.0009603596718
0.0009582965319
0.000956230727
0.0009543539689
0.0009528739912
0.0009520128875
0.0009585606774
0.0009574781685
0.0009559489241
0.0009540989744
0.0009520769907
0.0009500526611
0.0009482137541
0.0009467636194
0.0009459195845
0.000952339956
0.0009512793934
0.0009497813339
0.0009479693393
0.0009459890772
0.000944006722
0.0009422060554
0.0009407860166
0.0009399591524
0.000946250695
0.0009452123044
0.000943745727
0.0009419720095
0.0009400337695
0.0009380936326
0.0009363313727
0.0009349415122
0.0009341318241
0.0009402939209
0.0009392778012
0.0009378428286
0.000936107505
0.0009342113717
0.0009323134889
0.0009305896198
0.0009292298821
0.0009284372975
0.0009344699804
0.0009334761278
0.0009320727405
0.0009303757613
0.0009285216443
0.0009266658832
0.0009249802433
0.000923650462
0.0009228748455
0.0009287786713
0.000927806999
0.0009264350637
0.0009247762461
0.000922963915
0.0009211500097
0.0009195023211
0.0009182022424
0.0009174434096
0.0009232193539
0.0009222697094
0.0009209290022
0.0009193080582
0.0009175371727
0.0009157647525
0.0009141546469
0.0009128839488
0.0009121416769
0.000917791045
0.0009168632244
0.0009155534509
0.0009139700108
0.0009122401454
0.0009105087588
0.0009089357986
0.0009076941074
0.000906968145
0.000912492496
0.0009115862559
0.0009103070683
0.0009087607
0.0009070713651
0.0009053805001
0.0009038441962
0.0009026311001
0.0009019211746
0.0009073222585
0.0009064373262
0.0009051883364
0.0009036785621
0.0009020292208
0.0009003783216
0.0008988781479
0.0008976932079
0.0008969990321
0.0009022787376
0.0009014148193
0.0009001956106
0.0008987219199
0.0008971120023
0.0008955004824
0.0008940358877
0.0008928786468
0.000892199924
0.0008973602358
0.000896517023
0.0008953271594
0.0008938890198
0.0008923179342
0.0008907451877
0.0008893156049
0.0008881855952
0.0008875220233
0.0008925649877
0.0008917421628
0.000890581196
0.0008891780619
0.0008876452037
0.0008861106136
0.0008847154673
0.0008836122157
0.0008829634905
0.0008878911876
0.000887088428
0.0008859559035
0.0008845872224
0.000883091981
0.000881594926
0.0008802336383
0.000879156671
0.0008785224888
0.0008833370111
0.0008825539924
0.0008814494535
0.0008801146716
0.0008786564359
0.0008771962952
0.0008758682899
0.0008748171355
0.000874197195
0.0008789006307
0.0008781370294
0.0008770600207
0.0008757585861
0.0008743367482
0.0008729129054
0.0008716176114
0.0008705918031
0.0008699858068
0.0008745802279
0.0008738357225
0.0008727857923
0.0008715171581
0.0008701311163
0.0008687429617
0.0008674798146
0.0008664788923
0.0008658865474
0.0008703740008
0.0008696482735
0.0008686249753
0.0008673886012
0.0008660377612
0.0008646846934
0.0008634531373
0.0008624766481
0.0008618976672
0.0008662801689
0.0008655729064
0.0008645757996
0.0008633711528
0.0008620549292
0.0008607363561
0.0008595358439
0.0008585833428
0.0008580174441
0.0008622969763
0.0008616078695
0.0008606365203
0.0008594630761
0.0008581808922
0.000856896231
0.0008557262248
0.0008547972747
0.0008542441824
0.0008584226913
0.0008577514363
0.0008568054171
0.0008556626585
0.0008544139468
0.0008531626239
0.0008520225945
0.000851116766
0.0008505762098
0.0008546556067
0.0008540019035
0.0008530807933
0.000851968211
0.000850752412
0.0008495338623
0.0008484232889
0.0008475401597
0.000847011875
0.0008509940366
0.0008503575899
0.000849460973
0.0008483780644
0.0008471946263
0.0008460082926
0.0008449266617
0.0008440658162
0.0008435495437
0.0008474363147
0.0008468168326
0.0008459442985
0.0008448905672
0.0008437389447
0.0008425842764
0.0008415310812
0.0008406921099
0.0008401875948
0.0008439807904
0.0008433779842
0.0008425291269
0.0008415040813
0.0008403837346
0.0008392601869
0.0008382349262
0.0008374174246
0.0008369244172
0.0008406258256
0.0008400394095
0.0008392138262
0.0008382169788
0.0008371273727
0.0008360344056
0.0008350365827
0.0008342401509
0.0008337584052
0.0008373697915
0.0008367994815
0.0008359967723
0.0008350276389
0.0008339682415
0.0008329053184
0.0008319344405
0.0008311586825
0.0008306879565
0.0008342110647
0.0008336565785
0.0008328763455
0.0008319344439
0.000830904726
0.0008298713132
0.0008289268903
0.0008281714132
0.0008277114683
0.0008311480246
0.0008306090811
0.0008298509277
0.0008289357776
0.0008279352115
0.0008269307772
0.0008260123218
0.0008252767353
0.0008248273362
0.0008281790511
0.0008276553699
0.0008269189005
0.0008260300223
0.0008250580815
0.0008240820953
0.0008231891216
0.0008224730378
0.0008220339522
0.0008253025225
0.0008247938239
0.0008240786432
0.0008232155579
0.0008222717167
0.0008213236493
0.000820455673
0.0008197587063
0.000819329705
0.0008225168145
0.0008220228191
0.0008213285325
0.0008204907616
0.000819574495
0.0008186538181
0.0008178103565
0.0008171321235
0.0008167129801
0.0008198203006
0.0008193407295
0.0008186669427
0.0008178540083
0.0008169647921
0.0008160709787
0.0008152515511
0.000814591671
0.0008141821625
0.0008172113524
0.0008167459275
0.0008160922473
0.0008153036726
0.0008144409841
0.0008135735094
0.0008127776377
0.0008121357329
0.0008117356397
0.0008146883429
0.0008142367872
0.0008136028218
0.0008128381322
0.0008120014514
0.0008111597938
0.0008103870037
0.0008097627007
0.0008093718075
0.0008122496494
0.000811811688
0.0008111970485
0.0008104557727
0.000809644584
0.0008088282269
0.0008080780496
0.0008074709805
0.000807089077
0.0008098936603
0.0008094690211
0.0008088733228
0.0008081549949
0.0008073687892
0.0008065772235
0.0008058491982
0.0008052590025
0.0008048858843
0.0008076187822
0.0008072071976
0.000806630062
0.0008059342242
0.0008051725017
0.0008044052288
0.0008036989053
0.0008031252325
0.0008027607029
0.0008054234501
0.0008050246587
0.0008044657161
0.0008037919219
0.0008030541964
0.0008023107324
0.0008016256753
0.0008010681879
0.0008007120593
0.0008033061407
0.0008029198894
0.0008023787826
0.0008017266011
0.0008010124043
0.0008002922847
0.0007996280779
0.0007990864552
0.0007987385517
0.0008012653878
0.0008008914349
0.000800367823
0.0007997368438
0.0007990457316
0.0007983485177
0.0007977047703
0.0007971787133
0.0007968388732
0.0007992998018
0.0007989379205
0.000798431484
0.0007978213241
0.0007971528835
0.0007964781698
0.0007958545228
0.0007953437597
0.000795011839
0.0007974080935
0.0007970580758
0.0007965685227
0.0007959788333
0.000795332691
0.000794680114
0.0007940762492
0.000793580542
0.0007932564182
0.0007955891008
0.0007952507627
0.0007947778356
0.0007942083116
0.000793584144
0.0007929533924
0.0007923690414
0.0007918881939
0.0007915717702
0.0007938418215
0.0007935150086
0.000793058493
0.0007925088828
0.0007919064275
0.0007912972541
0.0007907322095
0.0007902660759
0.0007899572868
0.0007921654495
0.0007918500437
0.0007914097774
0.0007908798947
0.0007902989635
0.0007897111987
0.0007891653268
0.0007887138216
0.0007884126383
0.0007905594164
0.000790255343
0.0007898312267
0.0007893209639
0.0007887614573
0.000788195024
0.0007876682782
0.0007872313875
0.0007869378242
0.0007890234367
0.0007887306729
0.000788322682
0.0007878320242
0.0007872939478
0.0007867488775
0.0007862413136
0.0007858191065
0.0007855332273
0.0007875575573
0.0007872761409
0.0007868843383
0.0007864133791
0.0007858968607
0.0007853733112
0.0007848851029
0.0007844777441
0.0007841996697
0.00078616221
0.0007858922491
0.0007855167983
0.0007850657563
0.0007845710637
0.0007840693369
0.0007836007923
0.0007832085548
0.0007829384699
0.0007848382651
0.0007845799474
0.0007842211269
0.000783790362
0.0007833179215
0.0007828384818
0.0007823900598
0.0007820133373
0.0007817514972
0.0007835870854
0.0007833406884
0.0007829989045
0.0007825889348
0.0007821393487
0.0007816828403
0.0007812551661
0.0007808944849
0.0007806412223
0.0007824105777
0.0007821764773
0.0007818522776
0.0007814637944
0.0007810378578
0.0007806051207
0.0007801989993
0.0007798550287
0.000779610759
0.0007813112386
0.0007810899175
0.0007807840022
0.0007804178834
0.0007800165977
0.000779608681
0.0007792251091
0.0007788986693
0.0007786638946
0.0007802921926
0.0007800842472
0.0007797974776
0.0007794547981
0.0007790793817
0.0007786975531
0.000778337726
0.0007780297931
0.0007778051046
0.0007793572182
0.0007791633624
0.000778896767
0.0007785788044
0.0007782306982
0.0007778764478
0.0007775417621
0.0007772534693
0.0007770395467
0.0007785107584
0.0007783318248
0.0007780866001
0.0007777948354
0.0007774757015
0.0007771507397
0.0007768427896
0.0007765754225
0.0007763730315
0.0007777579113
0.0007775948492
0.0007773723553
0.0007771084662
0.0007768201797
0.0007765264266
0.0007762469928
0.0007760019796
0.0007758119649
0.0007771043988
0.0007769582664
0.0007767600167
0.0007765258633
0.0007762704946
0.0007760100607
0.000775761091
0.0007755399865
0.0007753632617
0.0007765565081
0.0007764284612
0.0007762561041
0.0007760537059
0.0007758334937
0.000775608651
0.0007753922323
0.0007751966941
0.0007750342282
0.0007761210068
0.0007760122809
0.0007758675746
0.0007756990783
0.0007755163925
0.0007753295354
0.000775147857
0.0007749796162
0.0007748324158
0.0007758050279
0.0007757169159
0.0007756016953
0.0007754693335
0.0007753266289
0.000775180226
0.000775035535
0.0007748963606
0.0007747654495
0.000775615929
0.0007755497533
0.0007754658904
0.0007753719326
0.0007752716936
0.0007751682325
0.0007750627827
0.0007749544416
0.0007748408386
0.0007755611267
0.0007755182077
0.0007754675662
0.0007754142636
0.000775358944
0.0007753008699
0.0007752368676
0.0007751610833
0.0007750657787
0.0007756479138
0.0007756295355
0.0007756139229
0.00077560345
0.0007755954095
0.0007755850641
0.0007755646137
0.0007755230253
0.0007754469598
0.0007758832669