/*--------------------------------*- C++ -*----------------------------------*\
| =========                 |                                                 |
| \\      /  F ield         | OpenFOAM: The Open Source CFD Toolbox           |
|  \\    /   O peration     | Version:  2212                                  |
|   \\  /    A nd           | Website:  www.openfoam.com                      |
|    \\/     M anipulation  |                                                 |
\*---------------------------------------------------------------------------*/
FoamFile
{
    version     2.0;
    format      ascii;
    arch        "LSB;label=32;scalar=64";
    class       volScalarField;
    location    "2.75000000";
    object      AC3H5_0;
}
// * * * * * * * * * * * * * * * * * * * * * * * * * * * * * * * * * * * * * //

dimensions      [0 0 0 0 0 0 0];

internalField   nonuniform List<scalar> 
3000
(
4.462739098e-35
5.099208102e-35
6.057794221e-35
7.327591967e-35
8.877345212e-35
1.062226154e-34
1.23683247e-34
1.374028489e-34
1.421150245e-34
1.691761545e-34
1.939256994e-34
2.309914764e-34
2.797801527e-34
3.39074434e-34
4.063285827e-34
4.766513041e-34
5.413860212e-34
5.850816273e-34
3.872953855e-34
4.473004294e-34
5.377465476e-34
6.583304667e-34
8.081475469e-34
9.842293281e-34
1.178374564e-33
1.371097897e-33
1.512831305e-33
7.634922223e-34
8.913254998e-34
1.086837406e-33
1.353361705e-33
1.694459497e-33
2.109563054e-33
2.583900124e-33
3.066408954e-33
3.419527845e-33
1.420187273e-33
1.679789072e-33
2.083825522e-33
2.64732801e-33
3.387104552e-33
4.309056162e-33
5.378338508e-33
6.46087359e-33
7.234552046e-33
2.585097806e-33
3.100016435e-33
3.914919498e-33
5.073770189e-33
6.623897477e-33
8.582132186e-33
1.086108297e-32
1.314343701e-32
1.474676339e-32
4.684363308e-33
5.691984135e-33
7.30906902e-33
9.642954829e-33
1.280371276e-32
1.682285032e-32
2.149251707e-32
2.612424226e-32
2.936756941e-32
8.510928555e-33
1.046292796e-32
1.362999483e-32
1.82499859e-32
2.455619095e-32
3.259804435e-32
4.191379216e-32
5.10867852e-32
5.750870437e-32
1.554045962e-32
1.929106917e-32
2.542609291e-32
3.444256123e-32
4.681025415e-32
6.259884971e-32
8.083780286e-32
9.871102771e-32
1.112474122e-31
2.851204531e-32
3.566687397e-32
4.744024479e-32
6.483314265e-32
8.876554336e-32
1.193305306e-31
1.545687605e-31
1.890036265e-31
2.132301859e-31
5.250121286e-32
6.606439015e-32
8.848019464e-32
1.217178348e-31
1.675533968e-31
2.261154198e-31
2.935633396e-31
3.593992673e-31
4.058970263e-31
9.689345887e-32
1.224656016e-31
1.648686433e-31
2.279238201e-31
3.150461958e-31
4.264548596e-31
5.547889603e-31
6.801067946e-31
7.690126903e-31
1.790169599e-31
2.270183867e-31
3.068349316e-31
4.258429305e-31
5.906479211e-31
8.017841007e-31
1.045403684e-30
1.283797654e-30
1.453852491e-30
3.308400366e-31
4.206593894e-31
5.704335006e-31
7.944620618e-31
1.105763927e-30
1.50602874e-30
1.969623792e-30
2.425144353e-30
2.752647564e-30
6.114165527e-31
7.792552358e-31
1.060128884e-30
1.482214485e-30
2.072112902e-30
2.835719311e-30
3.726509669e-30
4.607885787e-30
5.248800834e-30
1.130443478e-30
1.444540168e-30
1.972948094e-30
2.77296578e-30
3.902129976e-30
5.381995024e-30
7.134397702e-30
8.89746458e-30
1.017399458e-29
2.094475902e-30
2.686104761e-30
3.689748511e-30
5.227781055e-30
7.433443941e-30
1.038001888e-29
1.394242299e-29
1.760234207e-29
2.027447546e-29
3.902847235e-30
5.03416662e-30
6.979479208e-30
1.001907194e-29
1.448809544e-29
2.063298319e-29
2.828741593e-29
3.636920653e-29
4.233684032e-29
7.361955459e-30
9.587358458e-30
1.349536484e-29
1.978244749e-29
2.935994342e-29
4.30449709e-29
6.073351037e-29
7.998413739e-29
9.440571522e-29
1.420647405e-29
1.878984447e-29
2.708324426e-29
4.095717926e-29
6.304394329e-29
9.601711976e-29
1.403138223e-28
1.899181384e-28
2.276333798e-28
2.847493097e-29
3.854782965e-29
5.746722868e-29
9.057620833e-29
1.457858935e-28
2.317444349e-28
3.512014013e-28
4.880625798e-28
5.934175763e-28
6.038431729e-29
8.432641569e-29
1.311087625e-28
2.166420227e-28
3.65242717e-28
6.046072851e-28
9.457940766e-28
1.342946101e-27
1.651357227e-27
1.377360962e-28
1.993493089e-28
3.240551709e-28
5.6039333e-28
9.83894748e-28
1.682472103e-27
2.694907703e-27
3.88521721e-27
4.814476344e-27
3.403753312e-28
5.100041106e-28
8.626307029e-28
1.548100779e-27
2.801736631e-27
4.900289289e-27
7.971494324e-27
1.160375017e-26
1.444712292e-26
9.056669169e-28
1.396035602e-27
2.433627882e-27
4.482864957e-27
8.275866585e-27
1.467686216e-26
2.409145658e-26
3.525779675e-26
4.401730425e-26
2.55295112e-27
4.014636909e-27
7.139956466e-27
1.336721646e-26
2.496492877e-26
4.460997783e-26
7.355803397e-26
1.079145904e-25
1.34863392e-25
7.481787933e-27
1.191228274e-26
2.143686787e-26
4.049419298e-26
7.607355191e-26
1.363963403e-25
2.252718503e-25
3.306692451e-25
4.132510989e-25
2.243532431e-26
3.596483966e-26
6.511411726e-26
1.235085747e-25
2.325341169e-25
4.172092928e-25
6.888656851e-25
1.01040491e-24
1.261835089e-24
6.806059501e-26
1.094444922e-25
1.986195391e-25
3.771382267e-25
7.099126642e-25
1.272286874e-24
2.097225443e-24
3.070695566e-24
3.82957531e-24
2.073531816e-25
3.336997094e-25
6.056290881e-25
1.148886338e-24
2.158663666e-24
3.859105256e-24
6.343441967e-24
9.262556611e-24
1.152810611e-23
6.315365445e-25
1.015684117e-24
1.840652236e-24
3.483559138e-24
6.524945712e-24
1.162193181e-23
1.902837174e-23
2.768047221e-23
3.435372439e-23
1.917391825e-24
3.078658529e-24
5.564869897e-24
1.049518041e-23
1.957391999e-23
3.469361365e-23
5.650920598e-23
8.17980358e-23
1.011374386e-22
5.791569834e-24
9.277054968e-24
1.670985891e-23
3.137025302e-23
5.818475736e-23
1.024871037e-22
1.658340351e-22
2.385367646e-22
2.935084884e-22
1.737755867e-23
2.775017908e-23
4.976102756e-23
9.288444806e-23
1.711002086e-22
2.990494694e-22
4.799440979e-22
6.849541545e-22
8.37710543e-22
5.172293081e-23
8.228235948e-23
1.467387966e-22
2.719860024e-22
4.968339575e-22
8.602105902e-22
1.366895552e-21
1.932297504e-21
2.345924457e-21
1.524991898e-22
2.414779458e-22
4.277826486e-22
7.86214632e-22
1.421779802e-21
2.434077361e-21
3.822497634e-21
5.343408531e-21
6.431548646e-21
4.447278172e-22
7.002794529e-22
1.230684594e-21
2.239132646e-21
4.001385675e-21
6.760783846e-21
1.047355152e-20
1.445439479e-20
1.722908672e-20
1.280791198e-21
2.003265169e-21
3.487358026e-21
6.270284413e-21
1.105201097e-20
1.839496607e-20
2.806320932e-20
3.818358149e-20
4.503219587e-20
3.636785069e-21
5.64304715e-21
9.715149841e-21
1.723090495e-20
2.990051254e-20
4.893887374e-20
7.341824769e-20
9.838514596e-20
1.147460797e-19
1.016559274e-20
1.562658971e-20
2.656039324e-20
4.638428854e-20
7.910492324e-20
1.271320344e-19
1.873499326e-19
2.47127301e-19
2.850120322e-19
2.793338654e-20
4.247694921e-20
7.115465497e-20
1.221417174e-19
2.044095238e-19
3.222147657e-19
4.661629786e-19
6.052539954e-19
6.905609763e-19
7.537769459e-20
1.132192355e-19
1.866017355e-19
3.14355853e-19
5.156339174e-19
7.966882195e-19
1.131503454e-18
1.446895429e-18
1.634728129e-18
1.996555386e-19
2.957828446e-19
4.788908884e-19
7.907141813e-19
1.270190559e-18
1.923308022e-18
2.683125307e-18
3.383505691e-18
3.79195715e-18
5.192299679e-19
7.576869621e-19
1.203498869e-18
1.94576866e-18
3.060046551e-18
4.543152627e-18
6.2349515e-18
7.774696698e-18
8.673535843e-18
1.327428121e-18
1.905988086e-18
2.967318239e-18
4.695663704e-18
7.233194498e-18
1.054898203e-17
1.429952469e-17
1.776132268e-17
1.992174662e-17
3.343723163e-18
4.721446351e-18
7.203181485e-18
1.116520117e-17
1.688875236e-17
2.434214061e-17
3.30127548e-17
4.182537519e-17
4.868891563e-17
8.326529094e-18
1.156667809e-17
1.731723628e-17
2.639119246e-17
3.955016336e-17
5.747105402e-17
8.121429321e-17
1.122942562e-16
1.462794666e-16
2.058440236e-17
2.819439e-17
4.164188208e-17
6.314923305e-17
9.633468868e-17
1.492702999e-16
2.413845362e-16
4.049513915e-16
6.293065147e-16
5.077464054e-17
6.899981785e-17
1.019806092e-16
1.588840328e-16
2.63226246e-16
4.81204108e-16
9.768344045e-16
2.021756209e-15
3.578331735e-15
1.258397469e-16
1.721529883e-16
2.631429932e-16
4.494237176e-16
8.874371715e-16
2.037987866e-15
5.03110814e-15
1.170134092e-14
2.181758882e-14
3.17540291e-16
4.507523544e-16
7.559910917e-16
1.531315513e-15
3.741580965e-15
1.021029195e-14
2.768682567e-14
6.673493657e-14
1.254016657e-13
8.404607202e-16
1.301720963e-15
2.555171587e-15
6.273451182e-15
1.782315982e-14
5.244401611e-14
1.450845386e-13
3.474246623e-13
6.451551686e-13
2.472396895e-15
4.385747138e-15
1.018193669e-14
2.845901986e-14
8.577367471e-14
2.537848617e-13
6.870053437e-13
1.597153399e-12
2.893569652e-12
8.658106786e-15
1.746698747e-14
4.492466462e-14
1.308110497e-13
3.904633478e-13
1.112551086e-12
2.868350035e-12
6.344771149e-12
1.104931128e-11
3.648079773e-14
7.783384856e-14
2.031831833e-13
5.757161838e-13
1.62916991e-12
4.342498506e-12
1.040235024e-11
2.137182401e-11
3.502382815e-11
1.713085122e-13
3.577520925e-13
8.893816796e-13
2.353511302e-12
6.142411822e-12
1.495343887e-11
3.244966521e-11
6.021832311e-11
9.048942052e-11
8.098555983e-13
1.585214286e-12
3.633778845e-12
8.77407111e-12
2.070140398e-11
4.509439586e-11
8.670710121e-11
1.422617633e-10
1.930976238e-10
3.593387236e-12
6.488792004e-12
1.350225743e-11
2.929780449e-11
6.151512898e-11
1.180801135e-10
1.99156692e-10
2.898438079e-10
3.612790285e-10
1.434503036e-11
2.377230512e-11
4.451690647e-11
8.585655568e-11
1.587169199e-10
2.673774189e-10
4.006922678e-10
5.346506183e-10
6.345957001e-10
4.987872666e-11
7.577431745e-11
1.271535652e-10
2.169340443e-10
3.536056367e-10
5.320144884e-10
7.343264908e-10
9.33895409e-10
1.082455907e-09
1.469987013e-10
2.052842761e-10
3.097348738e-10
4.718529593e-10
6.940197215e-10
9.679426286e-10
1.276161682e-09
1.58146517e-09
1.807284729e-09
3.620542997e-10
4.698189897e-10
6.489120087e-10
9.085984833e-10
1.252232943e-09
1.674498223e-09
2.150676608e-09
2.619444366e-09
2.962357706e-09
7.579137975e-10
9.334103734e-10
1.216642014e-09
1.62114964e-09
2.155643891e-09
2.811850305e-09
3.547063527e-09
4.264177104e-09
4.783028106e-09
1.416589692e-09
1.693164972e-09
2.137546917e-09
2.770891204e-09
3.604557445e-09
4.621649845e-09
5.7529532e-09
6.847804433e-09
7.633006632e-09
2.481135809e-09
2.91673549e-09
3.614052197e-09
4.602620664e-09
5.896899538e-09
7.467431574e-09
9.205661491e-09
1.087986837e-08
1.207357431e-08
4.175219972e-09
4.855922229e-09
5.94128355e-09
7.473905192e-09
9.472951297e-09
1.18920263e-08
1.45649238e-08
1.713609965e-08
1.896486789e-08
6.814402696e-09
7.867252149e-09
9.541613267e-09
1.190066437e-08
1.497399558e-08
1.869409411e-08
2.28111542e-08
2.677995098e-08
2.960525174e-08
1.083761541e-08
1.244851564e-08
1.500778507e-08
1.861292213e-08
2.331540327e-08
2.90240764e-08
3.536937035e-08
4.151573378e-08
4.590643561e-08
1.684158518e-08
1.927954822e-08
2.315412652e-08
2.862016294e-08
3.577185249e-08
4.449521112e-08
5.425042326e-08
6.376021214e-08
7.058715446e-08
2.562257276e-08
2.927017536e-08
3.507456016e-08
4.328390913e-08
5.40689646e-08
6.729796554e-08
8.21898965e-08
9.680392114e-08
1.073493959e-07
3.822679463e-08
4.361654439e-08
5.220771205e-08
6.439387518e-08
8.047145165e-08
1.002990576e-07
1.227546025e-07
1.449205611e-07
1.609874286e-07
5.601508186e-08
6.386950951e-08
7.640939657e-08
9.424265571e-08
1.178548804e-07
1.471017977e-07
1.803820398e-07
2.133811061e-07
2.373902415e-07
8.074763625e-08
9.201859207e-08
1.100320923e-07
1.35692823e-07
1.697472938e-07
2.120446635e-07
2.60322438e-07
3.083431673e-07
3.433770456e-07
1.146917052e-07
1.305919207e-07
1.560083239e-07
1.922292977e-07
2.403301956e-07
3.001331356e-07
3.684728488e-07
4.365135616e-07
4.86134659e-07
1.607465931e-07
1.827649225e-07
2.179293572e-07
2.679884972e-07
3.344012369e-07
4.168956627e-07
5.110339304e-07
6.045629746e-07
6.726683456e-07
2.225671615e-07
2.524593205e-07
3.001046945e-07
3.677621846e-07
4.57287571e-07
5.680690724e-07
6.939637142e-07
8.186016297e-07
9.091296018e-07
3.04672203e-07
3.444228383e-07
4.076034323e-07
4.969517139e-07
6.145032202e-07
7.591189881e-07
9.225500305e-07
1.083578018e-06
1.20014014e-06
4.124891755e-07
4.642261015e-07
5.460558288e-07
6.610642876e-07
8.113322207e-07
9.948793477e-07
1.200897989e-06
1.402709249e-06
1.548193185e-06
5.520151123e-07
6.177447901e-07
7.211373126e-07
8.65434484e-07
1.052478775e-06
1.27907486e-06
1.531431875e-06
1.776996101e-06
1.953193422e-06
7.293199506e-07
8.108278277e-07
9.38271313e-07
1.114766726e-06
1.341554912e-06
1.613822489e-06
1.914451434e-06
2.204864615e-06
2.412175017e-06
9.501556937e-07
1.048801415e-06
1.20205779e-06
1.412561992e-06
1.680538667e-06
1.99916672e-06
2.347788275e-06
2.681966422e-06
2.919217544e-06
1.219296846e-06
1.335814358e-06
1.515637703e-06
1.760528655e-06
2.069270702e-06
2.432706744e-06
2.826600676e-06
3.201151797e-06
3.465554694e-06
1.53984644e-06
1.674173766e-06
1.880083255e-06
2.158060235e-06
2.505057242e-06
2.90935918e-06
3.343317238e-06
3.752590824e-06
4.03982807e-06
1.912607036e-06
2.063766948e-06
2.293901447e-06
2.601852222e-06
2.982426159e-06
3.421264368e-06
3.887683207e-06
4.323938466e-06
4.628362969e-06
2.335602676e-06
2.501648122e-06
2.752717328e-06
3.085705915e-06
3.493055841e-06
3.957805643e-06
4.446777597e-06
4.900240837e-06
5.215260439e-06
2.80380531e-06
2.981834614e-06
3.24917006e-06
3.600542763e-06
4.0258998e-06
4.505764113e-06
5.004880219e-06
5.462363706e-06
5.775220068e-06
3.309071767e-06
3.495306524e-06
3.773001409e-06
4.134608476e-06
4.567563981e-06
5.050062984e-06
5.545224293e-06
5.992022263e-06
6.295962187e-06
3.840233709e-06
4.03013041e-06
4.311209817e-06
4.673628954e-06
5.102410108e-06
5.573798303e-06
6.049543646e-06
6.477321577e-06
6.768118569e-06
4.383199655e-06
4.571555908e-06
4.84810065e-06
5.200710661e-06
5.611999776e-06
6.058203478e-06
6.507644501e-06
6.910553005e-06
7.183923624e-06
4.920757393e-06
5.101802307e-06
5.365025407e-06
5.696200571e-06
6.080205659e-06
6.495627525e-06
6.91241954e-06
7.284637468e-06
7.536577685e-06
5.431360762e-06
5.598929732e-06
5.841888796e-06
6.147259176e-06
6.499557506e-06
6.878641167e-06
7.256947791e-06
7.593330114e-06
7.820467654e-06
5.898834201e-06
6.051270635e-06
6.271473267e-06
6.546966156e-06
6.862803759e-06
7.200408292e-06
7.535301629e-06
7.831785694e-06
8.031605404e-06
6.316483304e-06
6.451778917e-06
6.646276999e-06
6.888079035e-06
7.163259545e-06
7.455252881e-06
7.743120006e-06
7.996985989e-06
8.167946351e-06
6.676636295e-06
6.79289608e-06
6.959062242e-06
7.164107735e-06
7.395540899e-06
7.639201437e-06
7.877985308e-06
8.087965e-06
8.229518975e-06
6.972037273e-06
7.067827922e-06
7.203801204e-06
7.370136456e-06
7.556134896e-06
7.750331912e-06
7.939592689e-06
8.105842812e-06
8.218380488e-06
7.196954075e-06
7.271492678e-06
7.37639284e-06
7.503340933e-06
7.643709218e-06
7.788900038e-06
7.929730195e-06
8.053701442e-06
8.138435615e-06
7.347855773e-06
7.401072789e-06
7.475050661e-06
7.563212048e-06
7.659179232e-06
7.757271953e-06
7.852107375e-06
7.936343113e-06
7.995158954e-06
7.423710624e-06
7.456224751e-06
7.500400037e-06
7.551536667e-06
7.605581194e-06
7.659708659e-06
7.712075348e-06
7.759971156e-06
7.795258806e-06
7.425989838e-06
7.439024849e-06
7.455350896e-06
7.472195769e-06
7.487804762e-06
7.502049087e-06
7.516279183e-06
7.531827875e-06
7.54631221e-06
7.358457154e-06
7.35372403e-06
7.344810501e-06
7.330837062e-06
7.312234598e-06
7.291333452e-06
7.272277231e-06
7.259823252e-06
7.256406052e-06
7.226813467e-06
7.206376242e-06
7.175294084e-06
7.134471841e-06
7.086342936e-06
7.035404986e-06
6.988162928e-06
6.952179154e-06
6.933798866e-06
7.038254036e-06
7.004393108e-06
6.954480723e-06
6.891041056e-06
6.818275381e-06
6.742522391e-06
6.672208544e-06
6.617105556e-06
6.586620924e-06
6.800991974e-06
6.756077556e-06
6.690764004e-06
6.608989369e-06
6.516455932e-06
6.421002967e-06
6.332549716e-06
6.262523189e-06
6.222622885e-06
6.523790296e-06
6.470171646e-06
6.392824358e-06
6.296871141e-06
6.189233893e-06
6.078914663e-06
5.976922628e-06
5.895840155e-06
5.848978216e-06
6.215531402e-06
6.155446924e-06
6.069250077e-06
5.963010194e-06
5.84458805e-06
5.723826944e-06
5.61245961e-06
5.523785182e-06
5.472140357e-06
5.884848129e-06
5.820358019e-06
5.728223148e-06
5.615225167e-06
5.489895802e-06
5.362624395e-06
5.245544021e-06
5.152296234e-06
5.097752159e-06
5.539829132e-06
5.47277008e-06
5.377277681e-06
5.260625071e-06
5.131768799e-06
5.001382019e-06
4.88172132e-06
4.786460035e-06
4.730602548e-06
5.187802948e-06
5.119762866e-06
5.023131706e-06
4.905473691e-06
4.775951781e-06
4.64529729e-06
4.525660356e-06
4.430495982e-06
4.374623688e-06
4.835198268e-06
4.767508013e-06
4.671587694e-06
4.555116962e-06
4.427277723e-06
4.298671465e-06
4.181157038e-06
4.08777661e-06
4.032920962e-06
4.487472955e-06
4.421211578e-06
4.327493333e-06
4.213964461e-06
4.089670249e-06
3.96493113e-06
3.851171708e-06
3.760876361e-06
3.707827913e-06
4.149101192e-06
4.085111179e-06
3.994751949e-06
3.885514563e-06
3.766183234e-06
3.646680518e-06
3.537891426e-06
3.45164059e-06
3.400978571e-06
3.823606644e-06
3.762515876e-06
3.676371123e-06
3.572412434e-06
3.459067544e-06
3.345775414e-06
3.242808936e-06
3.1612674e-06
3.113390339e-06
3.513629414e-06
3.455877001e-06
3.374538351e-06
3.276530529e-06
3.169855566e-06
3.063410355e-06
2.966811016e-06
2.890395898e-06
2.84555159e-06
3.221015384e-06
3.166879066e-06
3.090713648e-06
2.999062441e-06
2.89945539e-06
2.800212044e-06
2.710270152e-06
2.639195603e-06
2.597509207e-06
2.946918045e-06
2.896541384e-06
2.825730484e-06
2.740622393e-06
2.648247947e-06
2.556333283e-06
2.473134704e-06
2.407452933e-06
2.368952441e-06
2.691904723e-06
2.645322819e-06
2.579898173e-06
2.50134434e-06
2.416181955e-06
2.331543119e-06
2.255014063e-06
2.194651831e-06
2.159290494e-06
2.456060959e-06
2.413223882e-06
2.353100555e-06
2.280976209e-06
2.202862931e-06
2.125310182e-06
2.055256363e-06
2.000046605e-06
1.967722197e-06
2.239088613e-06
2.199882088e-06
2.144887352e-06
2.078966261e-06
2.007633843e-06
1.936877343e-06
1.873017374e-06
1.822725938e-06
1.793296907e-06
2.040394809e-06
2.004657978e-06
1.954556024e-06
1.894539795e-06
1.829646063e-06
1.76532675e-06
1.707319962e-06
1.661667677e-06
1.634966382e-06
1.859170128e-06
1.826710423e-06
1.78122297e-06
1.72676539e-06
1.667920175e-06
1.609635032e-06
1.557104028e-06
1.515784552e-06
1.491627905e-06
1.69445552e-06
1.665060851e-06
1.62388395e-06
1.574610676e-06
1.521396566e-06
1.46871885e-06
1.421267526e-06
1.383961431e-06
1.362159219e-06
1.545198035e-06
1.518646458e-06
1.4814638e-06
1.436987931e-06
1.388976702e-06
1.341471754e-06
1.298699213e-06
1.265084798e-06
1.245446033e-06
1.41029602e-06
1.386363282e-06
1.352856526e-06
1.312790612e-06
1.26955576e-06
1.226792992e-06
1.188304016e-06
1.158065376e-06
1.140402995e-06
1.288634919e-06
1.267100139e-06
1.236956674e-06
1.200921669e-06
1.162047686e-06
1.123609367e-06
1.08902202e-06
1.061854848e-06
1.045989063e-06
1.179114734e-06
1.159764544e-06
1.132683095e-06
1.10031479e-06
1.065403747e-06
1.03089117e-06
9.998420637e-07
9.754576089e-07
9.61218168e-07
1.080670381e-06
1.063301798e-06
1.03899629e-06
1.009949672e-06
9.786256357e-07
9.476631759e-07
9.198108606e-07
8.979384336e-07
8.851660199e-07
9.922861049e-07
9.767083805e-07
9.549103965e-07
9.288623877e-07
9.007741077e-07
8.730116172e-07
8.480385148e-07
8.284268541e-07
8.169738253e-07
9.130050293e-07
8.990407116e-07
8.795008579e-07
8.561517707e-07
8.309740361e-07
8.060879608e-07
7.837011766e-07
7.661189544e-07
7.558495805e-07
8.419348429e-07
8.294202177e-07
8.119086542e-07
7.909826783e-07
7.684166638e-07
7.461101989e-07
7.260414979e-07
7.102771885e-07
7.010675223e-07
7.78250453e-07
7.670355306e-07
7.513418751e-07
7.325868465e-07
7.123597158e-07
6.923622605e-07
6.743674416e-07
6.602287328e-07
6.519662209e-07
7.211943377e-07
7.111425083e-07
6.970752927e-07
6.802619475e-07
6.6212593e-07
6.441920497e-07
6.280499008e-07
6.15362794e-07
6.079457114e-07
6.700751995e-07
6.610626569e-07
6.484484724e-07
6.333693493e-07
6.171004611e-07
6.010085229e-07
5.865195041e-07
5.751272135e-07
5.684639878e-07
6.242654093e-07
6.16180424e-07
6.048628649e-07
5.913309829e-07
5.767275256e-07
5.62278135e-07
5.492628996e-07
5.390246384e-07
5.330331137e-07
5.831976359e-07
5.759397382e-07
5.657782291e-07
5.536256383e-07
5.405065775e-07
5.275209125e-07
5.158187528e-07
5.0660847e-07
5.012151469e-07
5.463609698e-07
5.398400901e-07
5.307086585e-07
5.197849383e-07
5.079882375e-07
4.963063543e-07
4.857736326e-07
4.774787475e-07
4.726180273e-07
5.132967794e-07
5.074323789e-07
4.992184228e-07
4.893891794e-07
4.787701465e-07
4.682493068e-07
4.587579175e-07
4.512780873e-07
4.468915372e-07
4.835944787e-07
4.783146973e-07
4.709177777e-07
4.620631822e-07
4.524928654e-07
4.430059244e-07
4.344418182e-07
4.276877582e-07
4.237234133e-07
4.568873382e-07
4.521281747e-07
4.4545886e-07
4.374722505e-07
4.288359126e-07
4.202697897e-07
4.125315789e-07
4.064239542e-07
4.028356612e-07
4.328484318e-07
4.285529695e-07
4.225317436e-07
4.153183105e-07
4.075139969e-07
3.997682449e-07
3.927659034e-07
3.872342966e-07
3.839811063e-07
4.111867831e-07
4.073044663e-07
4.018607118e-07
3.953362744e-07
3.882734836e-07
3.812589651e-07
3.749126278e-07
3.698945894e-07
3.669401975e-07
3.916437509e-07
3.881297165e-07
3.832007758e-07
3.772906545e-07
3.708891161e-07
3.645267887e-07
3.587656525e-07
3.542058331e-07
3.515180705e-07
3.739896744e-07
3.708041389e-07
3.663344546e-07
3.609724408e-07
3.551610007e-07
3.493808106e-07
3.44142135e-07
3.399914972e-07
3.375418689e-07
3.580207882e-07
3.551284907e-07
3.510688242e-07
3.461962453e-07
3.40911854e-07
3.356517332e-07
3.30879937e-07
3.270950444e-07
3.248583131e-07
3.435564085e-07
3.40926106e-07
3.372328312e-07
3.327977041e-07
3.279845042e-07
3.231894682e-07
3.188353161e-07
3.153776944e-07
3.133315073e-07
3.304363789e-07
3.280403916e-07
3.246748582e-07
3.206311299e-07
3.16239636e-07
3.118609734e-07
3.078808479e-07
3.047164133e-07
3.028409683e-07
3.185187644e-07
3.163325683e-07
3.132605322e-07
3.095673986e-07
3.055537644e-07
3.015483127e-07
2.979035635e-07
2.950021124e-07
2.932798608e-07
3.076777802e-07
3.056796429e-07
3.028707568e-07
2.994920552e-07
2.95817419e-07
2.921469196e-07
2.888032845e-07
2.861380399e-07
2.845534223e-07
2.978019377e-07
2.959725937e-07
2.933999537e-07
2.90303622e-07
2.869335249e-07
2.835640494e-07
2.8049114e-07
2.780383494e-07
2.765775613e-07
2.887923898e-07
2.871147524e-07
2.847544954e-07
2.819120917e-07
2.788159612e-07
2.757174028e-07
2.728882487e-07
2.70626827e-07
2.692776117e-07
2.80561459e-07
2.790203645e-07
2.768513106e-07
2.742375877e-07
2.713882807e-07
2.68533904e-07
2.659245498e-07
2.638357647e-07
2.625872302e-07
2.730313304e-07
2.716133118e-07
2.696166487e-07
2.672091778e-07
2.645825758e-07
2.619486191e-07
2.595377683e-07
2.57604962e-07
2.564474196e-07
2.661328942e-07
2.64825981e-07
2.629849846e-07
2.607638228e-07
2.583384754e-07
2.559037996e-07
2.536725004e-07
2.518808447e-07
2.508056666e-07
2.598047214e-07
2.585982631e-07
2.568980515e-07
2.548454483e-07
2.526022582e-07
2.503480375e-07
2.482794063e-07
2.466156864e-07
2.456151805e-07
2.539921596e-07
2.528766703e-07
2.513039862e-07
2.494041255e-07
2.473260713e-07
2.452355205e-07
2.433144984e-07
2.417669229e-07
2.408342227e-07
2.486465351e-07
2.476135563e-07
2.461565763e-07
2.443953487e-07
2.424672408e-07
2.405253756e-07
2.387385138e-07
2.372965479e-07
2.364255156e-07
2.437244505e-07
2.427664305e-07
2.414145964e-07
2.397793988e-07
2.379876649e-07
2.361810909e-07
2.345163627e-07
2.331705809e-07
2.323557224e-07
2.391871649e-07
2.382973527e-07
2.370412238e-07
2.35520784e-07
2.338532799e-07
2.321700073e-07
2.30616642e-07
2.293585996e-07
2.285949895e-07
2.350000499e-07
2.341724019e-07
2.33003525e-07
2.31587746e-07
2.300335901e-07
2.284628708e-07
2.270112085e-07
2.258333275e-07
2.251165438e-07
2.311321103e-07
2.303612083e-07
2.292720029e-07
2.279518278e-07
2.26501255e-07
2.25033439e-07
2.236748028e-07
2.225702727e-07
2.218963388e-07
2.275555627e-07
2.268365418e-07
2.258202e-07
2.245874918e-07
2.232317253e-07
2.218581355e-07
2.205847186e-07
2.195474089e-07
2.189127431e-07
2.242454652e-07
2.235739506e-07
2.226243485e-07
2.214717855e-07
2.202029242e-07
2.189157451e-07
2.177205128e-07
2.167448957e-07
2.161462665e-07
2.21179392e-07
2.20551443e-07
2.196630634e-07
2.185840463e-07
2.17394966e-07
2.161871469e-07
2.15063749e-07
2.141448322e-07
2.135793195e-07
2.183371468e-07
2.177492083e-07
2.169170719e-07
2.159056431e-07
2.14789909e-07
2.136550786e-07
2.125977735e-07
2.117310405e-07
2.111960009e-07
2.157005113e-07
2.151493704e-07
2.143689763e-07
2.134197482e-07
2.123715385e-07
2.113039294e-07
2.103075171e-07
2.094888748e-07
2.089819114e-07
2.132530237e-07
2.127357719e-07
2.120030444e-07
2.111111367e-07
2.101251755e-07
2.091195581e-07
2.081793209e-07
2.074050539e-07
2.069239895e-07
2.109797837e-07
2.104937836e-07
2.098050259e-07
2.089660103e-07
2.080375081e-07
2.070891325e-07
2.06200783e-07
2.054675128e-07
2.050103671e-07
2.08867281e-07
2.084101371e-07
2.077619905e-07
2.069718419e-07
2.060964433e-07
2.052009881e-07
2.043606235e-07
2.036652731e-07
2.032302412e-07
2.06903244e-07
2.064727768e-07
2.058621843e-07
2.051172382e-07
2.042909762e-07
2.034445032e-07
2.026485651e-07
2.019883275e-07
2.015737625e-07
2.050765063e-07
2.046707294e-07
2.040949045e-07
2.033918191e-07
2.026110745e-07
2.018099893e-07
2.01055228e-07
2.004275389e-07
2.000319356e-07
2.033768885e-07
2.029939888e-07
2.024503872e-07
2.017861104e-07
2.010475762e-07
2.002885931e-07
1.995720372e-07
1.989745504e-07
1.985965315e-07
2.01795094e-07
2.014334139e-07
2.009197091e-07
2.002914489e-07
1.995920994e-07
1.988722109e-07
1.981911392e-07
1.97621706e-07
1.9726001e-07
2.003226152e-07
1.999806374e-07
1.994946989e-07
1.988998982e-07
1.982369611e-07
1.97553411e-07
1.969053293e-07
1.963619798e-07
1.960154504e-07
1.989516506e-07
1.986279838e-07
1.981678583e-07
1.97604172e-07
1.969751047e-07
1.963253645e-07
1.95707985e-07
1.951889124e-07
1.948564895e-07
1.976750285e-07
1.973683959e-07
1.969322902e-07
1.963975655e-07
1.958000334e-07
1.951817824e-07
1.945930051e-07
1.94096552e-07
1.937772643e-07
1.964861376e-07
1.961953658e-07
1.957816322e-07
1.952738906e-07
1.947057492e-07
1.941168557e-07
1.935547535e-07
1.930794003e-07
1.927723587e-07
1.953788614e-07
1.951028708e-07
1.947099932e-07
1.942274153e-07
1.936866928e-07
1.931251989e-07
1.925880035e-07
1.921323585e-07
1.91836751e-07
1.943475144e-07
1.940853102e-07
1.937118921e-07
1.932528025e-07
1.927376852e-07
1.922017918e-07
1.916878819e-07
1.912506723e-07
1.909657595e-07
1.933867785e-07
1.931374422e-07
1.927821948e-07
1.923450484e-07
1.918538655e-07
1.913419188e-07
1.908498079e-07
1.904298718e-07
1.901549828e-07
1.924916364e-07
1.922543173e-07
1.919160472e-07
1.914994151e-07
1.91030624e-07
1.905411009e-07
1.900694254e-07
1.896657031e-07
1.894002315e-07
1.916572991e-07
1.914312049e-07
1.911088018e-07
1.907113555e-07
1.902635252e-07
1.897950172e-07
1.893425225e-07
1.889540462e-07
1.886974445e-07
1.908791256e-07
1.906635121e-07
1.903559333e-07
1.899764272e-07
1.895482182e-07
1.890994118e-07
1.886649341e-07
1.882908144e-07
1.880425868e-07
1.901525302e-07
1.899466887e-07
1.896529414e-07
1.892901902e-07
1.888803301e-07
1.884499809e-07
1.880324239e-07
1.876718306e-07
1.874315219e-07
1.894728761e-07
1.892761176e-07
1.889952365e-07
1.886480869e-07
1.882553378e-07
1.878422369e-07
1.874405392e-07
1.870926742e-07
1.868598535e-07
1.888353503e-07
1.886469863e-07
1.883780046e-07
1.880452993e-07
1.876684162e-07
1.872713451e-07
1.868844357e-07
1.865484956e-07
1.86322732e-07
1.882348198e-07
1.880541374e-07
1.87796051e-07
1.874765823e-07
1.871142583e-07
1.867319298e-07
1.863586694e-07
1.860337931e-07
1.858146223e-07
1.876656654e-07
1.874918967e-07
1.872436184e-07
1.869360696e-07
1.865868671e-07
1.862178489e-07
1.858569526e-07
1.855421528e-07
1.853290315e-07
1.871215938e-07
1.869538782e-07
1.867141818e-07
1.864170548e-07
1.860793187e-07
1.857219377e-07
1.853718764e-07
1.850659513e-07
1.848581976e-07
1.865954284e-07
1.864327666e-07
1.862002195e-07
1.859117466e-07
1.855834992e-07
1.852357238e-07
1.848946034e-07
1.845960261e-07
1.843927451e-07
1.860788806e-07
1.859200816e-07
1.856929644e-07
1.854110045e-07
1.850898205e-07
1.847491202e-07
1.844145361e-07
1.841213219e-07
1.839213139e-07
1.855623075e-07
1.854059265e-07
1.851821414e-07
1.849040596e-07
1.845869218e-07
1.84250105e-07
1.839189732e-07
1.836285237e-07
1.834301776e-07
1.850344606e-07
1.848787301e-07
1.846556975e-07
1.843782309e-07
1.840613679e-07
1.837243998e-07
1.833927664e-07
1.831016943e-07
1.829028655e-07
1.844822352e-07
1.843249895e-07
1.840995362e-07
1.838186477e-07
1.834973581e-07
1.831551617e-07
1.828179963e-07
1.825219334e-07
1.823198112e-07
1.838904303e-07
1.837290264e-07
1.834972672e-07
1.832079916e-07
1.828764595e-07
1.825227086e-07
1.821736873e-07
1.818670842e-07
1.816580513e-07
1.832415309e-07
1.830727681e-07
1.828299871e-07
1.825262764e-07
1.821773855e-07
1.818042963e-07
1.814355851e-07
1.811115105e-07
1.808910028e-07
1.825155282e-07
1.823355705e-07
1.820761053e-07
1.817506801e-07
1.813758372e-07
1.809739712e-07
1.805760216e-07
1.802259733e-07
1.799883484e-07
1.816897907e-07
1.81494096e-07
1.812112349e-07
1.80855452e-07
1.804444305e-07
1.80002522e-07
1.79563894e-07
1.791776363e-07
1.789160593e-07
1.807390043e-07
1.805222669e-07
1.802081644e-07
1.798119111e-07
1.793527297e-07
1.788575546e-07
1.783647848e-07
1.779302293e-07
1.776365896e-07
1.796351982e-07
1.793913095e-07
1.790369323e-07
1.78588561e-07
1.78067412e-07
1.775037166e-07
1.769412511e-07
1.764443995e-07
1.761092714e-07
1.78347874e-07
1.780699101e-07
1.776650219e-07
1.771513387e-07
1.765525855e-07
1.759030951e-07
1.752533106e-07
1.746782804e-07
1.742909423e-07
1.768442586e-07
1.765245006e-07
1.760576991e-07
1.754640222e-07
1.747702836e-07
1.740158144e-07
1.732591494e-07
1.72588306e-07
1.721368345e-07
1.750896995e-07
1.747196959e-07
1.741785136e-07
1.734888177e-07
1.726811599e-07
1.718008561e-07
1.709160788e-07
1.701302968e-07
1.696017519e-07
1.73048223e-07
1.726189027e-07
1.71989984e-07
1.711871476e-07
1.702454045e-07
1.692171244e-07
1.681817605e-07
1.672608362e-07
1.666415532e-07
1.706832765e-07
1.701851196e-07
1.694544871e-07
1.685206589e-07
1.674238985e-07
1.662247714e-07
1.650157133e-07
1.639389485e-07
1.632149512e-07
1.679586723e-07
1.673819473e-07