/*--------------------------------*- C++ -*----------------------------------*\
| =========                 |                                                 |
| \\      /  F ield         | OpenFOAM: The Open Source CFD Toolbox           |
|  \\    /   O peration     | Version:  2212                                  |
|   \\  /    A nd           | Website:  www.openfoam.com                      |
|    \\/     M anipulation  |                                                 |
\*---------------------------------------------------------------------------*/
FoamFile
{
    version     2.0;
    format      ascii;
    arch        "LSB;label=32;scalar=64";
    class       volScalarField;
    location    "2.75000000";
    object      C2H2;
}
// * * * * * * * * * * * * * * * * * * * * * * * * * * * * * * * * * * * * * //

dimensions      [0 0 0 0 0 0 0];

internalField   nonuniform List<scalar> 
3000
(
0.3340065119
0.3340065119
0.3340065119
0.3340065119
0.3340065119
0.3340065119
0.3340065119
0.3340065119
0.3340065119
0.3340065119
0.3340065119
0.3340065119
0.3340065119
0.3340065119
0.3340065119
0.3340065119
0.3340065119
0.3340065119
0.3340065119
0.3340065119
0.3340065119
0.3340065119
0.3340065119
0.3340065119
0.3340065119
0.3340065119
0.3340065119
0.3340065119
0.3340065119
0.3340065119
0.3340065119
0.3340065119
0.3340065119
0.3340065119
0.3340065119
0.3340065119
0.3340065119
0.3340065119
0.3340065119
0.3340065119
0.3340065119
0.3340065119
0.3340065119
0.3340065119
0.3340065119
0.3340065119
0.3340065119
0.3340065119
0.3340065119
0.3340065119
0.3340065119
0.3340065119
0.3340065119
0.3340065119
0.3340065119
0.3340065119
0.3340065119
0.3340065119
0.3340065119
0.3340065119
0.3340065119
0.3340065119
0.3340065119
0.3340065119
0.3340065119
0.3340065119
0.3340065119
0.3340065119
0.3340065119
0.3340065119
0.3340065119
0.3340065119
0.3340065119
0.3340065119
0.3340065119
0.3340065119
0.3340065119
0.3340065119
0.3340065119
0.3340065119
0.3340065119
0.3340065119
0.3340065119
0.3340065119
0.3340065119
0.3340065119
0.3340065119
0.3340065119
0.3340065119
0.3340065119
0.3340065119
0.3340065119
0.3340065119
0.3340065119
0.3340065119
0.3340065119
0.3340065119
0.3340065119
0.3340065119
0.3340065119
0.3340065119
0.3340065119
0.3340065119
0.3340065119
0.3340065119
0.3340065119
0.3340065119
0.3340065119
0.3340065119
0.3340065119
0.3340065119
0.3340065119
0.3340065119
0.3340065119
0.3340065119
0.3340065119
0.3340065119
0.3340065119
0.3340065119
0.3340065119
0.3340065119
0.3340065119
0.3340065119
0.3340065119
0.3340065119
0.3340065119
0.3340065119
0.3340065119
0.3340065119
0.3340065119
0.3340065119
0.3340065119
0.3340065119
0.3340065119
0.3340065119
0.3340065119
0.3340065119
0.3340065119
0.3340065119
0.3340065119
0.3340065119
0.3340065119
0.3340065119
0.3340065119
0.3340065119
0.3340065119
0.3340065119
0.3340065119
0.3340065119
0.3340065119
0.3340065119
0.3340065119
0.3340065119
0.3340065119
0.3340065119
0.3340065119
0.3340065119
0.3340065119
0.3340065119
0.3340065119
0.3340065119
0.3340065119
0.3340065119
0.3340065119
0.3340065119
0.3340065119
0.3340065119
0.3340065119
0.3340065119
0.3340065119
0.3340065119
0.3340065119
0.3340065119
0.3340065119
0.3340065119
0.3340065119
0.3340065119
0.3340065119
0.3340065119
0.3340065119
0.3340065119
0.3340065119
0.3340065119
0.3340065119
0.3340065119
0.3340065119
0.3340065119
0.3340065119
0.3340065119
0.3340065119
0.3340065119
0.3340065119
0.3340065119
0.3340065119
0.3340065119
0.3340065119
0.3340065119
0.3340065119
0.3340065119
0.3340065119
0.3340065119
0.3340065119
0.3340065119
0.3340065119
0.3340065119
0.3340065119
0.3340065119
0.3340065119
0.3340065119
0.3340065119
0.3340065119
0.3340065119
0.3340065119
0.3340065119
0.3340065119
0.3340065119
0.3340065119
0.3340065119
0.3340065119
0.3340065119
0.3340065119
0.3340065119
0.3340065119
0.3340065119
0.3340065119
0.3340065119
0.3340065119
0.3340065119
0.3340065119
0.3340065119
0.3340065119
0.3340065119
0.3340065119
0.3340065119
0.3340065119
0.3340065119
0.3340065119
0.3340065119
0.3340065119
0.3340065119
0.3340065119
0.3340065119
0.3340065119
0.3340065119
0.3340065119
0.3340065119
0.3340065119
0.3340065119
0.3340065119
0.3340065119
0.3340065118
0.3340065118
0.3340065119
0.3340065119
0.3340065119
0.3340065119
0.3340065119
0.3340065118
0.3340065118
0.3340065118
0.3340065118
0.3340065119
0.3340065119
0.3340065119
0.3340065118
0.3340065118
0.3340065118
0.3340065118
0.3340065118
0.3340065118
0.3340065119
0.3340065118
0.3340065118
0.3340065118
0.3340065118
0.3340065118
0.3340065118
0.3340065118
0.3340065118
0.3340065118
0.3340065118
0.3340065118
0.3340065118
0.3340065118
0.3340065118
0.3340065118
0.3340065117
0.3340065117
0.3340065118
0.3340065118
0.3340065118
0.3340065118
0.3340065118
0.3340065117
0.3340065117
0.3340065117
0.3340065116
0.3340065118
0.3340065118
0.3340065118
0.3340065117
0.3340065117
0.3340065116
0.3340065116
0.3340065115
0.3340065115
0.3340065118
0.3340065117
0.3340065117
0.3340065117
0.3340065116
0.3340065115
0.3340065114
0.3340065113
0.3340065112
0.3340065117
0.3340065117
0.3340065116
0.3340065115
0.3340065114
0.3340065112
0.334006511
0.3340065108
0.3340065107
0.3340065116
0.3340065115
0.3340065114
0.3340065112
0.334006511
0.3340065107
0.3340065104
0.3340065101
0.3340065099
0.3340065114
0.3340065113
0.3340065111
0.3340065108
0.3340065104
0.3340065099
0.3340065093
0.3340065088
0.3340065085
0.334006511
0.3340065108
0.3340065105
0.33400651
0.3340065093
0.3340065085
0.3340065075
0.3340065067
0.3340065061
0.3340065105
0.3340065101
0.3340065095
0.3340065086
0.3340065075
0.3340065061
0.3340065046
0.3340065031
0.3340065022
0.3340065094
0.3340065088
0.3340065078
0.3340065064
0.3340065045
0.3340065022
0.3340064996
0.3340064973
0.3340064958
0.3340065077
0.3340065067
0.334006505
0.3340065026
0.3340064995
0.3340064957
0.3340064916
0.3340064878
0.3340064854
0.3340065048
0.3340065031
0.3340065003
0.3340064964
0.3340064912
0.3340064851
0.3340064785
0.3340064726
0.3340064688
0.3340065
0.3340064972
0.3340064926
0.3340064862
0.3340064779
0.3340064681
0.3340064577
0.3340064484
0.3340064425
0.334006492
0.3340064874
0.33400648
0.3340064697
0.3340064564
0.3340064409
0.3340064247
0.3340064103
0.3340064012
0.3340064788
0.3340064714
0.3340064595
0.3340064431
0.3340064223
0.3340063981
0.3340063731
0.3340063512
0.3340063374
0.3340064574
0.3340064455
0.3340064268
0.334006401
0.3340063686
0.3340063315
0.3340062934
0.3340062603
0.3340062397
0.3340064227
0.334006404
0.3340063748
0.3340063349
0.3340062853
0.3340062289
0.3340061716
0.3340061222
0.3340060916
0.3340063674
0.3340063384
0.3340062934
0.3340062324
0.3340061572
0.3340060727
0.3340059875
0.3340059145
0.3340058696
0.33400628
0.3340062355
0.3340061671
0.3340060751
0.3340059626
0.3340058372
0.334005712
0.3340056053
0.3340055401
0.3340061432
0.3340060761
0.3340059733
0.3340058362
0.3340056701
0.3340054863
0.3340053039
0.3340051497
0.3340050557
0.3340059319
0.3340058318
0.3340056794
0.3340054777
0.3340052349
0.3340049683
0.3340047055
0.3340044844
0.3340043503
0.334005609
0.3340054617
0.3340052387
0.3340049453
0.3340045946
0.3340042119
0.3340038368
0.3340035225
0.3340033327
0.3340051216
0.3340049075
0.3340045852
0.3340041634
0.3340036625
0.3340031187
0.3340025882
0.3340021454
0.3340018786
0.3340043949
0.3340040878
0.3340036273
0.3340030282
0.3340023203
0.3340015556
0.3340008125
0.3340001944
0.3339998227
0.3340033247
0.3340028894
0.3340022397
0.3340013984
0.334000409
0.3339993453
0.3339983155
0.3339974617
0.3339969495
0.3340017677
0.3340011584
0.3340002524
0.3339990844
0.3339977175
0.3339962545
0.3339948444
0.3339936796
0.3339929831
0.3339995294
0.3339986867
0.333997438
0.3339958354
0.3339939687
0.3339919806
0.3339900734
0.3339885051
0.3339875704
0.3339963493
0.3339951973
0.3339934963
0.3339913228
0.3339888034
0.3339861335
0.3339835844
0.333981496
0.3339802539
0.3339918835
0.3339903272
0.333988037
0.3339851233
0.3339817617
0.333978215
0.3339748408
0.3339720816
0.3339704412
0.3339856881
0.3339836102
0.3339805624
0.3339766998
0.3339722603
0.3339675907
0.3339631552
0.3339595294
0.3339573718
0.3339772022
0.3339744595
0.3339704471
0.3339653764
0.333959562
0.3339534543
0.3339476543
0.3339429096
0.3339400825
0.3339657288
0.3339621444
0.3339569096
0.3339503041
0.3339427373
0.3339347906
0.333927241
0.3339210588
0.33391737
0.3339504022
0.3339457546
0.3339389722
0.3339304197
0.3339206251
0.333910337
0.3339005574
0.333892542
0.3338877534
0.3339301437
0.3339241549
0.333915419
0.3339044061
0.3338917951
0.3338785467
0.3338659482
0.3338556159
0.3338494383
0.3339036172
0.3338959449
0.3338847564
0.333870656
0.3338545126
0.3338375544
0.3338214269
0.3338081977
0.333800285
0.3338691926
0.3338594227
0.3338451808
0.3338272398
0.3338067079
0.3337851477
0.3337646498
0.333747839
0.3337377849
0.3338249151
0.3338125564
0.3337945495
0.3337718797
0.3337459535
0.3337187477
0.3336928989
0.3336717124
0.3336590473
0.3337684803
0.3337529601
0.3337303612
0.3337019335
0.3336694523
0.3336354005
0.3336030784
0.3335766101
0.3335608005
0.3336972184
0.3336778815
0.3336497467
0.3336143903
0.3335740379
0.3335317851
0.3334917268
0.3334589612
0.3334394112
0.3336080893
0.3335842001
0.3335494722
0.3335058797
0.3334561922
0.3334042363
0.3333550469
0.3333148663
0.3332909218
0.3334976905
0.3334684389
0.3334259564
0.3333726966
0.3333120768
0.3332487851
0.333188954
0.3331401512
0.3331111076
0.3333622783
0.3333267898
0.3332753026
0.33321084
0.333137581
0.3330612157
0.3329891406
0.3329304386
0.332895551
0.3331978029
0.3331551534
0.3330933441
0.3330160666
0.3329283843
0.332837137
0.3327511572
0.3326812392
0.3326397473
0.3329999575
0.3329491918
0.3328757032
0.3327839573
0.3326800308
0.3325720654
0.3324705082
0.3323880602
0.3323392058
0.3327642422
0.3327043967
0.3326178646
0.3325099972
0.3323880164
0.3322615273
0.3321427635
0.3320465106
0.3319895615
0.332486044
0.3324161726
0.3323152633
0.3321896694
0.3320479011
0.3319011742
0.3317636678
0.3316524181
0.3315866941
0.3321607332
0.3320799375
0.3319633978
0.3318185863
0.3316554305
0.3314868999
0.3313292648
0.3312019554
0.3311268558
0.3317837989
0.3316912677
0.3315579712
0.3313926129
0.3312066632
0.3310149746
0.3308360337
0.3306917786
0.3306068104
0.3313509954
0.3312460326
0.3310950235
0.3309080093
0.3306981171
0.3304821938
0.3302810399
0.3301191776
0.3300239832
0.3308584873
0.3307405461
0.3305710888
0.3303615897
0.3301269307
0.3298860402
0.3296620955
0.3294822363
0.3293766207
0.3303030166
0.3301717354
0.3299833643
0.3297508921
0.3294910324
0.3292248518
0.3289779274
0.3287799994
0.328663956
0.3296820781
0.3295373151
0.3293298836
0.3290743497
0.3287893098
0.32849799
0.3282283441
0.3280126384
0.3278863758
0.3289940919
0.3288359571
0.328609683
0.3283314531
0.3280217678
0.3277059947
0.327414391
0.3271816137
0.3270455907
0.3282385628
0.3280674448
0.3278229474
0.3275228863
0.3271896549
0.3268507044
0.3265384747
0.3262898199
0.3261448289
0.327416214
0.3272327982
0.3269711221
0.3266506204
0.326295535
0.3259353065
0.3256043998
0.3253416379
0.3251889556
0.3265290877
0.3263343602
0.3260569779
0.3257179494
0.3253432834
0.3249642769
0.3246172345
0.324342689
0.3241834732
0.3255806047
0.3253758407
0.3250846319
0.3247294789
0.3243380328
0.3239432526
0.3235830571
0.3232985689
0.3231337365
0.3245755871
0.3243623223
0.3240595287
0.323691085
0.3232861216
0.3228788478
0.3225077396
0.3222150023
0.3220455409
0.3235202547
0.3233002339
0.3229883801
0.3226097722
0.3221943242
0.3217770414
0.321397309
0.321098119
0.3209250662
0.3224222012
0.3221972776
0.3218787511
0.3214923674
0.3210689357
0.3206441977
0.3202581778
0.3199543718
0.3197787846
0.3212889536
0.3210604751
0.3207371711
0.3203453833
0.3199165529
0.3194869514
0.3190969907
0.3187904018
0.31861333
0.3201272244
0.3198965717
0.3195704415
0.3191756231
0.3187439767
0.3183120775
0.3179204789
0.3176128942
0.3174353561
0.3189440164
0.3187125639
0.3183855411
0.3179900166
0.317558066
0.3171263444
0.3167353138
0.3164284347
0.3162513959
0.3177464536
0.317515529
0.3171894717
0.3167954588
0.3163655832
0.3159363681
0.3155479676
0.3152433762
0.3150677312
0.3165416017
0.3163124509
0.3159890952
0.3155986534
0.3151730491
0.3147484769
0.3143645871
0.3140637199
0.3138902786
0.3153362973
0.3151100569
0.3147909805
0.314405972
0.3139866136
0.3135685942
0.3131908877
0.3128950168
0.3127244947
0.3141369969
0.313914675
0.3136012717
0.3132233341
0.3128119486
0.3124021433
0.3120320681
0.3117422905
0.3115753035
0.312949653
0.3127321167
0.3124255815
0.3120561121
0.3116541656
0.3112539771
0.3108927496
0.3106099837
0.3104470463
0.3117796192
0.3115675903
0.3112689137
0.310909065
0.3105177598
0.3101283319
0.3097769389
0.3095019268
0.3093434544
0.3106315874
0.3104256427
0.3101356133
0.3097862977
0.3094065794
0.3090288053
0.3086880125
0.3084213276
0.3082676407
0.3095095534
0.3093101312
0.3090293447
0.3086912463
0.3083238175
0.307958355
0.3076287217
0.3073707801
0.3072221109
0.3084168102
0.3082242198
0.3079530931
0.3076266851
0.3072720253
0.3069193167
0.3066012133
0.3063522881
0.3062087884
0.3073559643
0.3071703982
0.3069091868
0.3065947529
0.3062531416
0.3059134362
0.3056070654
0.305367302
0.3052290524
0.3063289703
0.3061505183
0.3058993357
0.3055969931
0.3052685346
0.3049419139
0.3046473318
0.3044167652
0.3042837838
0.3053371806
0.3051658438
0.3049246817
0.3046344053
0.3043190544
0.3040054565
0.3037225948
0.3035011653
0.3033734173
0.3043814035
0.3042171091
0.3039858573
0.3037075031
0.30340509
0.3031043338
0.3028330206
0.3026205903
0.3024979967
0.3034619684
0.3033045831
0.3030830485
0.3028163758
0.3025266298
0.3022384377
0.3019784173
0.3017747847
0.3016572307
0.3025787916
0.3024281344
0.3022160585
0.3019607506
0.3016833214
0.3014073402
0.3011582913
0.300963205
0.3008505474
0.3017314428
0.3015872963
0.3013843708
0.3011400533
0.3008745306
0.3006103495
0.3003719011
0.3001850721
0.3000771463
0.3009192073
0.3007813279
0.3005872086
0.3003534653
0.3000993956
0.299846563
0.2996183083
0.2994394204
0.2993360462
0.3001411449
0.300009271
0.2998235894
0.2995999764
0.2993568774
0.2991149144
0.2988964233
0.2987251423
0.2986261292
0.2993961423
0.2992700018
0.2990923751
0.2988784323
0.2986458049
0.298414217
0.2982050459
0.2980410273
0.2979461788
0.2986829601
0.2985622761
0.2983923154
0.2981875756
0.2979649143
0.297743201
0.2975429013
0.2973857968
0.2972949138
0.2980002728
0.2978847687
0.2977220854
0.2975260826
0.2973128831
0.2971005456
0.2969086705
0.2967581331
0.2966710171
0.2973467041
0.2972361069
0.2970803179
0.2968925929
0.2966883588
0.2964849064
0.296301016
0.2961567041
0.2960731595
0.2967208548
0.2966148982
0.29646563
0.2962857351
0.2960899826
0.2958949371
0.295718603
0.2955801835
0.2955000195
0.2961213264
0.296019753
0.2958766446
0.2957041472
0.2955164088
0.295329308
0.2951601161
0.2950272671
0.2949502989
0.29554674
0.2954493027
0.2953120076
0.2951464926
0.2949663197
0.2947867203
0.2946242732
0.2944966854
0.2944227352
0.2949957508
0.2949022139
0.2947704015
0.2946114728
0.2944384377
0.2942659165
0.2941098348
0.293987213
0.2939161111
0.2944670589
0.2943771986
0.2942505552
0.2940978371
0.2939315334
0.2937656889
0.2936156124
0.2934976758
0.2934292607
0.2939594175
0.2938730224
0.2937512515
0.2936043886
0.2934444324
0.2932848848
0.2931404727
0.2930269559
0.2929610744
0.2934716382
0.2933885093
0.2932713316
0.2931299893
0.292976019
0.2928224103
0.2926833415
0.2925739941
0.292510502
0.2930025947
0.2929225448
0.2928096982
0.2926735624
0.2925252381
0.2923772325
0.2922432052
0.292137792
0.2920765532
0.2925512236
0.2924740779
0.2923653168
0.2922340932
0.292091097
0.2919483796
0.2918191114
0.2917174116
0.2916582987
0.2921165261
0.2920421209
0.2919372161
0.2918106299
0.2916726645
0.2915349412
0.2914101677
0.2913119751
0.2912548686
0.2916975664
0.2916257493
0.2915244868
0.2914022818
0.2912690702
0.2911360666
0.2910155414
0.2909206635
0.2908654519
0.2912934706
0.2912240997
0.2911262806
0.2910082182
0.2908795025
0.2907509633
0.290634457
0.2905427144
0.2904892935
0.2909034249
0.2908363683
0.2907418078
0.2906276664
0.2905032068
0.2903788947
0.2902661939
0.2901774198
0.2901256929
0.290526673
0.2904618084
0.2903703348
0.2902599089
0.290139483
0.2900191776
0.2899100843
0.2898241238
0.2897740007
0.2901625136
0.2900997276
0.2900111818
0.2899042807
0.2897876824
0.2896711796
0.2895655101
0.2894822195
0.2894336165
0.2898102973
0.2897494848
0.2896637197
0.289560167
0.2894472053
0.2893343162
0.2892319005
0.2891511466
0.289103986
0.2894694239
0.2894104878
0.2893273672
0.2892269996
0.2891174982
0.2890080477
0.2889087285
0.2888303881
0.288784598
0.2891393393
0.2890821898
0.2890015878
0.2889042546
0.2887980502
0.2886918769
0.2885955087
0.2885194679
0.2884749814
0.2888195326
0.2887640867
0.2886858871
0.2885914491
0.2884883911
0.2883853456
0.2882917942
0.2882179475
0.2881747031
0.2885095331
0.2884557143
0.2883798099
0.2882881385
0.2881880879
0.2880880325
0.2879971738
0.2879254239
0.2878833644
0.2882089075
0.2881566453
0.2880829371
0.2879939138
0.2878967424
0.2877995501
0.2877112697
0.2876415268
0.2876005992
0.2879172576
0.2878664867
0.2877948836
0.2877083991
0.2876139887
0.2875195423
0.2874337347
0.2873659158
0.2873260713
0.2876342169
0.2875848774
0.2875152952
0.2874312489
0.2873394905
0.287247682
0.2871642498
0.2870982783
0.2870594718
0.2873594489
0.2873114854
0.2872438467
0.2871621456
0.2870729389
0.2869836687
0.2869025221
0.2868383275
0.286800517
0.2870926443
0.2870460058
0.286980239
0.2869007977
0.2868140501
0.2867272263
0.2866482826
0.2865857996
0.2865489465
0.2868335187
0.2867881582
0.2867241976
0.2866469372
0.2865625632
0.2864781013
0.286401284
0.2863404524
0.2863045208
0.286581811
0.286537685
0.2864754699
0.2864003176
0.2863182385
0.2862360604
0.2861612989
0.2861020631
0.2860670199
0.2863372808
0.2862943493
0.2862338236
0.2861607123
0.2860808555
0.2860008889
0.2859281182
0.2858704267
0.285836241
0.286099707
0.2860579331
0.2859990449
0.2859279126
0.2858502109
0.2857723891
0.2857015488
0.2856453539
0.2856119973
0.2858688858
0.2858282352
0.2857709367
0.285701726
0.2856261172
0.2855503785
0.2854814128
0.2854266703
0.2853941162
0.2856446292
0.2856050702
0.2855493171
0.2854819748
0.2854084012
0.2853346883
0.2852675454
0.2852142143
0.2851824379
0.2854267634
0.2853882665
0.2853340175
0.2852684943
0.2851969026
0.2851251622
0.2850597939
0.2850078358
0.2849768142
0.2852151273
0.2851776652
0.2851248821
0.285061132
0.2849914722
0.2849216548
0.2848580161
0.2848073955
0.284777107
0.2850095713
0.2849731185
0.2849217654
0.2848597456
0.2847919713
0.2847240305
0.2846620794
0.2846127629
0.2845831873
0.284809956
0.2847744886
0.2847245322
0.2846642026
0.2845982701
0.2845321626
0.2844718597
0.2844238158
0.2843949342
0.284616151
0.2845816466
0.2845330556
0.2844743784
0.2844102469
0.2843459318
0.2842872399
0.2842404393
0.2842122337
0.2844280341
0.2843944715
0.2843472162
0.284290156
0.2842277868
0.2841652256
0.2841081097
0.2840625244
0.2840349779
0.2842454897
0.2842128491
0.2841669016
0.2841114246
0.2840507811
0.2839899372
0.2839343641
0.2838899675
0.2838630641
0.2840684086
0.284036671
0.2839920046
0.283938079
0.2838791264
0.2838199649
0.2837659029
0.2837226697
0.283696394
0.2838966869
0.2838658341
0.2838224235
0.2837700187
0.2837127236
0.2836552112
0.2836026298
0.2835605359
0.2835348732
0.2837302247
0.2837002395
0.2836580603
0.2836071469
0.2835514773
0.283495582
0.283444452
0.2834034741
0.2833784103
0.2835689264
0.2835397921
0.2834988207
0.2834493704
0.2833952954
0.2833409862
0.2832912794
0.2832513949
0.2832269165
0.2834126993
0.2833843996
0.2833446134
0.2832965986
0.2832440882
0.2831913349
0.2831430239
0.2831042109
0.2830803049
0.2832614532
0.2832339723
0.283195349
0.2831487431
0.283097768
0.2830465413
0.2829995992
0.2829618365
0.28293849
0.2831150998
0.2830884225
0.2830509405
0.2830057171
0.2829562487
0.2829065198
0.2828609204
0.2828241871
0.2828013876
0.2829735528
0.2829476638
0.2829113017
0.2828674352
0.2828194451
0.2827711858
0.2827269032
0.2826911787
0.2826689142
0.2828367264
0.2828116109
0.2827763478
0.2827338126
0.2826872731
0.2826404553
0.2825974639
0.282562728
0.2825409865
0.2827045361
0.2826801793
0.2826459943
0.2826047653
0.2825596486
0.2825142445
0.2824725192
0.2824387518
0.2824175215
0.2825768976
0.2825532848
0.2825201572
0.2824802092
0.2824364879
0.2823924699
0.2823519853
0.2823191666
0.2822984359
0.2824537265
0.2824308433
0.2823987524
0.2823600604
0.282317707
0.2822750476
0.2822357787
0.2822038887
0.2821836461
0.2823349388
0.2823127705
0.2822816957
0.2822442347
0.2822032218
0.2821618933
0.282123815
0.282092834
0.2820730682
0.2822204497
0.2821989818
0.2821689024
0.2821326473
0.2820929474
0.2820529223
0.2820160095
0.2819859177
0.2819666172
0.2821101743
0.282089392
0.2820602874
0.282025213
0.2819867984
0.281948049
0.2819122764
0.281883054
0.2818642076
0.2820040268
0.2819839155
0.2819557647
0.2819218457
0.2818846887
0.281847187
0.2818125293
0.2817841565
0.2817657529
0.2819019206
0.2818824655
0.2818552476
0.2818224585
0.2817865311
0.2817502491
0.2817166809
0.2816891376
0.2816711657
0.2818037683
0.2817849546
0.2817586484
0.2817269634
0.2816922375
0.281657147
0.2816246425
0.2815979087
0.2815803573
0.2817094815
0.2816912941
0.2816658783
0.2816352716
0.2816017188
0.2815677911
0.2815363246
0.2815103801
0.2814932378
0.2816189706
0.2816013944
0.2815768474
0.2815472928
0.2815148842
0.2814820907
0.2814516359
0.2814264604
0.281409716
0.2815321448
0.2815151643
0.2814914644
0.2814629354
0.281431642
0.2813999534
0.2813704841
0.281346057
0.2813296992
0.2814489115
0.2814325114
0.2814096364
0.2813821062
0.2813518985
0.2813212854
0.2812927748
0.2812690753
0.2812530926
0.2813691767
0.2813533411
0.2813312688
0.28130471
0.2812755582
0.2812459905
0.2812184114
0.2811954185
0.2811797994
0.2812928442
0.2812775572
0.2812562646
0.2812306495
0.2812025231
0.2811739703
0.2811472951
0.2811249872
0.2811097199
0.2812198153
0.2812050605
0.2811845244
0.2811598245
0.2811326923
0.2811051232
0.2810793234
0.2810576786
0.2810427511
0.2811499883
0.2811357489
0.2811159452
0.2810921315
0.2810659613
0.2810393436
0.2810143901
0.2809933856
0.2809787857
0.2810832576
0.2810695162
0.2810504203
0.2810274623
0.281002221
0.2809765212
0.2809523837
0.2809319961
0.2809177108
0.2810195129
0.2810062514
0.2809878373
0.2809657037
0.2809413565
0.2809165396
0.2808931863
0.2808733907
0.2808594066
0.2809586378
0.2809458373
0.2809280779
0.2809067353
0.2808832455
0.2808592746
0.2808366719
0.2808174421
0.2808037447
0.2809005087
0.2808881489
0.2808710154
0.2808504284
0.2808277569
0.2808045925
0.2807827042
0.2807640119
0.2807505857
0.2808449928
0.280833052
0.2808165133
0.2807966439
0.2807747484
0.2807523477
0.2807311347
0.2807129493
0.2806997773
0.2807919461
0.2807804009
0.2807644233
0.28074523
0.2807240645
0.2807023807
0.2806818
0.2806640876
0.2806511509
0.2807412115
0.2807300361
0.2807145825
0.2806960198
0.2806755336
0.280654515
0.280634519
0.2806172418
0.2806045193
0.2806926162
0.2806817822
0.2806668117
0.2806488289
0.2806289657
0.2806085546
0.28058909
0.2805722057
0.2805596733
0.2806459694
0.2806354449
0.280620912
0.2806034528
0.2805841494
0.2805642813
0.2805452883
0.2805287489
0.2805163794
0.2806010598
0.2805908095
0.280576663
0.2805596644
0.2805408501
0.2805214524
0.2805028635
0.2804866151
0.2804743772
0.2805576538
0.280547638
0.2805338209
0.2805172122
0.2804988079
0.2804797991
0.2804615382
0.2804455198
0.2804333781
0.2805154937
0.2805056683
0.280492117
0.2804758193
0.2804577365
0.2804390257
0.2804210079
0.2804051507
0.2803930653
0.2804742974
0.2804646135
0.2804512575
0.2804351835
0.2804173243
0.2803988104
0.2803809413
0.2803651692
0.2803530953
0.2804337594
0.2804241631
0.280410925
0.2803949791
0.280377236
0.2803588085
0.2803409848
0.2803252139
0.2803131023
0.2803935525
0.2803839857
0.280370782
0.2803548607
0.2803371179
0.2803186576
0.2803007679
0.2802849081
0.2802727054
0.2803533336
0.2803437343
0.2803304761
0.28031447
0.2802966052
0.2802779864
0.2802599133
0.2802438696
0.2802315195
0.2803127501
0.2803030543
0.2802896497
0.2802734456
0.2802553328
0.2802364267
0.2802180504
0.2802017257
0.2801891706
0.2802714516
0.2802615945
0.2802479515
0.2802314367
0.2802129508
0.2801936301
0.2801748327
0.2801581319
0.2801453153
0.2802291033
0.2802190228
0.2802050529
0.2801881199
0.2801691429
0.2801492883
0.2801299602
0.2801127954
0.2800996653
0.2801854043
0.2801750441
0.2801606679
0.2801432214
0.2801236495
0.2801031581
0.2800832058
0.2800655029
0.2800520155
0.2801401093
0.2801294231
0.2801145767
0.2800965412
0.2800762948
0.2800550894
0.2800344452
0.2800161518
0.2800022767
0.280093053
0.2800820102
0.2800666525
0.2800479819
0.2800270157
0.2800050566
0.2799836891
0.2799647835
0.2799505088
0.2800441785
0.2800327694
0.2800168902
0.2799975784
0.2799758935
0.2799531905
0.2799311166
0.2799116172
0.2798969558
0.2799935657
0.2799818078
0.279965437
0.2799455283
0.2799231843
0.2798998096
0.279877106
0.2798570814
0.2798420765
0.2799414601
0.2799294043
0.2799126203
0.2798922204
0.2798693475
0.2798454473
0.2798222621
0.27980184
0.2797865708
0.2798882997
0.2798760357
0.2798589733
0.279838259
0.279815068
0.2797908734
0.2797674353
0.2797468102
0.2797313963
0.279834736
0.2798223971
0.2798052542
0.2797844804
0.2797612708
0.2797371052
0.2797137301
0.2796931677
0.2796777719
0.2797816486
0.2797694145
0.2797524558
0.27973196
0.279709124
0.279685406
0.279662499
0.2796423379
0.2796271669
0.2797301491
0.2797182467
0.2797018039
0.2796820063
0.2796600276
0.2796372689
0.2796153215
0.2795959699
0.2795812717
0.2796815723
0.2796702735
0.2796547425
0.2796361404
0.279615587
0.2795943842
0.2795739648
0.2795558922
0.2795419513
0.2796374537
0.2796270705
0.2796129028
0.2795960599
0.2795775712
0.2795585902
0.279540329
0.2795240526
0.2795111813
0.2795994919
0.2795903679
0.279578058
0.279563588
0.2795478545
0.2795318092
0.2795163767
0.2795024434
0.2794909702
0.2795694971
0.2795619956
0.2795520646
0.2795406093
0.2795283479
0.2795159729
0.2795040535
0.2794930176
0.2794832738
0.2795493265
0.2795438174
0.2795367923
0.2795289964
0.2795209207
0.2795129407
0.2795052032
0.2794976019
0.2794899063
0.2795408126
0.2795376565
0.279534048
0.2795305311
0.2795273202
0.2795244176
0.2795214851
0.2795178137
0.2795124579
0.2795456866
0.2795452188
0.2795454985
0.2795468273
0.2795490954
0.2795518794
0.2795543009
0.279554991
0.2795522266
0.2795655036
0.279568019
0.2795725981
0.2795792606
0.2795875289
0.2795965084
0.2796047353
0.2796101404
0.2796101729
0.2796015761
0.279607316
0.2796165268
0.2796289111
0.2796435848
0.2796591472
0.2796735098
0.2796838629
0.2796868128
0.2796549213
0.2796640628
0.279678145
0.2796965242
0.2797178727
0.2797402448
0.2797609098
0.2797763177
0.2797822356
0.2797262276
0.2797388772
0.2797579645
0.2797824656
0.27981059
0.2798398365
0.2798668322
0.279887295
0.2798961686
0.2798158069
0.2798319852
0.2798560882
0.2798867017
0.2799215623
0.2799576121
0.2799908436
0.2800162633
0.2800280229
0.279923575
0.2799432309
0.2799722657
0.2800088693
0.2800503047
0.2800929663
0.2801322311
0.2801624262
0.2801769536
0.2800491278
0.280072152
0.2801059526
0.2801483267
0.2801960728
0.2802450554
0.2802900652
0.2803247896
0.2803419311
0.2801917926
0.2802180272
0.2802563611
0.2803042096
0.2803579233
0.2804128633
0.2804632694
0.2805022343
0.2805218135
0.2803506825
0.2803799338
0.2804225207
0.2804754938
0.2805347803
0.2805952693
0.2806506897
0.2806935853
0.2807154167
0.2805247583
0.2805568105
0.2806033422
0.2806610616
0.2807255014
0.2807911143
0.2808511587
0.280897675
0.2809215759
0.2807128929
0.280747522
0.2807976814
0.2808597635
0.280928938
0.2809992578
0.2810635508
0.2811133942
0.2811391943
0.2809139325
0.2809509187
0.2810043976
0.2810704739
0.2811439873
0.2812186263
0.2812868247
0.2813397316
0.2813672794
0.2811267507
0.2811658887
0.2812224024
0.2812921368
0.2813696332
0.2814482491
0.2815200557
0.2815758032
0.2816049792
0.2813502927
0.2813914005
0.2814506986
0.2815237995
0.2816049754
0.2816872824
0.2817624583
0.2818208769
0.281851582
0.2815836085
0.2816265327
0.2816884066
0.2817646353
0.2818492487
0.2819350315
0.2820133986
0.2820743554
0.2821065197
0.2818258742
0.2818704932
0.2819347806
0.2820139579
0.2821018367
0.2821909358
0.2822723683
0.2823357814
0.2823693656
0.282076407
0.2821226346
0.282189226
0.2822712307
0.2823622544
0.2824545721
0.282539004
0.282604838
0.282639828
0.282334676
0.2823824578
0.2824512812
0.2825360414
0.2826301525
0.2827256543
0.2828130741
0.2828813351
0.2829177406
0.282600277
0.2826495874
0.2827206163
0.2828081148
0.2829053137
0.28300402
0.2830944653
0.2831651971
0.2832030494
0.2828729405
0.2829237834
0.2829970325
0.2830873002
0.2831876375
0.2832896184
0.2833831709
0.2834564517
0.2834958013
0.2831525213
0.2832049267
0.2832804464
0.2833735564
0.2834771286
0.2835824986
0.2836792795
0.2837552177
0.2837961325
0.2834389837
0.2834930045
0.283570877
0.2836669406
0.2837738845
0.2838827977
0.2839829635
0.2840616947
0.2841042579
0.283732389
0.2837880983
0.2838684341
0.2839675962
0.2840780846
0.2841907306
0.2842944692
0.2843761534
0.2844204621
0.2840328836
0.2840903725
0.2841733073
0.2842757426
0.2843899804
0.2845065803
0.284614108
0.2846989276
0.2847450916
0.2843406882
0.2844000639
0.2844857555
0.2845916654
0.2847098866
0.2848306902
0.2849422494
0.2850304072
0.2850785482
0.2846560885
0.2847174722
0.2848060985
0.2849157086
0.2850381734
0.2851634571
0.2852793144
0.2853710325
0.2854212835
0.2849794261
0.285042952
0.2851347094
0.2852482675
0.2853752607
0.2855053257
0.2856257706
0.2857212896
0.2857737939
0.285311092
0.2853769064
0.2854720082
0.285589783
0.2857216125
0.2858567837
0.2859821281
0.2860817065
0.2861366192
0.2856515207
0.285719781
0.2858184568
0.2859407369
0.286077733
0.2862183585
0.2863489359
0.2864528511
0.286510338
0.2860011849
0.2860720594
0.2861745542
0.2863016478
0.2864441626
0.2865906133
0.2867267798
0.286835327
0.2868955643
0.2863605919
0.2864342595
0.2865408338
0.2866730678
0.2868214753
0.2869741456
0.2871162787
0.2872297705
0.287292945
0.28673028
0.2868069299
0.2869178592
0.2870555801
0.2872102765
0.287369583
0.2875180815
0.2876368483
0.2877031574
0.2871108154
0.2871906477
0.2873062231
0.2874497964
0.287611199
0.2877775808
0.287932865
0.288057255
0.2881269068
0.2875027912
0.2875860162
0.2877065438
0.2878563534
0.288024901
0.2881988195
0.2883613311
0.2884917104
0.2885649243
0.2879068231
0.2879936612
0.2881194617