/*--------------------------------*- C++ -*----------------------------------*\
| =========                 |                                                 |
| \\      /  F ield         | OpenFOAM: The Open Source CFD Toolbox           |
|  \\    /   O peration     | Version:  2212                                  |
|   \\  /    A nd           | Website:  www.openfoam.com                      |
|    \\/     M anipulation  |                                                 |
\*---------------------------------------------------------------------------*/
FoamFile
{
    version     2.0;
    format      ascii;
    arch        "LSB;label=32;scalar=64";
    class       volScalarField;
    location    "2.75000000";
    object      C2H4_0;
}
// * * * * * * * * * * * * * * * * * * * * * * * * * * * * * * * * * * * * * //

dimensions      [0 0 0 0 0 0 0];

internalField   nonuniform List<scalar> 
3000
(
1.177556176e-23
1.36830395e-23
1.65907561e-23
2.051442368e-23
2.54385479e-23
3.12425695e-23
3.75786976e-23
4.367522054e-23
4.805714303e-23
4.599288278e-23
5.376471525e-23
6.562649471e-23
8.169894795e-23
1.020783201e-22
1.266984643e-22
1.550848654e-22
1.856780775e-22
2.12727384e-22
1.103232556e-22
1.303589271e-22
1.612985005e-22
2.040321155e-22
2.59737562e-22
3.295087635e-22
4.131676498e-22
5.059401229e-22
5.859013531e-22
2.309198843e-22
2.766284853e-22
3.484651094e-22
4.501738036e-22
5.867642728e-22
7.630214734e-22
9.790039438e-22
1.218004665e-21
1.414512537e-21
4.607040865e-22
5.604872291e-22
7.203005806e-22
9.519143172e-22
1.270485397e-21
1.68940099e-21
2.205617437e-21
2.766388185e-21
3.207935433e-21
9.059112838e-22
1.11918742e-21
1.466696514e-21
1.980037163e-21
2.698112626e-21
3.651566169e-21
4.823303029e-21
6.071706054e-21
7.02397841e-21
1.781569063e-21
2.232078341e-21
2.976422315e-21
4.091506403e-21
5.667853517e-21
7.768167022e-21
1.033346044e-20
1.302195434e-20
1.50271839e-20
3.52162973e-21
4.464733368e-21
6.039436975e-21
8.421433849e-21
1.180935432e-20
1.632444678e-20
2.180287526e-20
2.747196205e-20
3.163564616e-20
7.001862927e-21
8.961072729e-21
1.225702502e-20
1.727420379e-20
2.44325027e-20
3.395957281e-20
4.545090291e-20
5.723063642e-20
6.57917165e-20
1.398450378e-20
1.802543651e-20
2.485842012e-20
3.530016137e-20
5.021741683e-20
7.003227267e-20
9.381382814e-20
1.180225107e-19
1.354858507e-19
2.800516848e-20
3.628347955e-20
5.032854209e-20
7.183852861e-20
1.025741344e-19
1.433146411e-19
1.920120552e-19
2.413263432e-19
2.767097284e-19
5.612993146e-20
7.298012545e-20
1.016274426e-19
1.455477886e-19
2.082773701e-19
2.912539439e-19
3.901045013e-19
4.898085094e-19
5.610639852e-19
1.124187475e-19
1.465060008e-19
2.04526325e-19
2.935095375e-19
4.20496618e-19
5.881376739e-19
7.872791284e-19
9.874952188e-19
1.130198619e-18
2.247060635e-19
2.932494708e-19
4.099852411e-19
5.889981023e-19
8.442120436e-19
1.180491114e-18
1.578879986e-18
1.978193565e-18
2.262650174e-18
4.47787854e-19
5.847859e-19
8.181471473e-19
1.175870796e-18
1.685339148e-18
2.355440522e-18
3.147161353e-18
3.937935129e-18
4.502505737e-18
8.889118173e-19
1.161032597e-18
1.624489801e-18
2.334511248e-18
3.344707718e-18
4.671930701e-18
6.239428847e-18
7.805713212e-18
8.909415933e-18
1.756828081e-18
2.293932203e-18
3.20825256e-18
4.607713392e-18
6.596109009e-18
9.203796873e-18
1.227637162e-17
1.533791716e-17
1.749677653e-17
3.455825212e-18
4.509469572e-18
6.301885954e-18
9.042415723e-18
1.293072972e-17
1.802152091e-17
2.400887999e-17
2.996382897e-17
3.41575123e-17
6.764974646e-18
8.819906989e-18
1.231293438e-17
1.764760239e-17
2.520601425e-17
3.508652766e-17
4.668848052e-17
5.82094688e-17
6.631019011e-17
1.31778966e-17
1.716328096e-17
2.393199933e-17
3.425744754e-17
4.886697955e-17
6.793639204e-17
9.029419358e-17
1.124630195e-16
1.280268659e-16
2.554345474e-17
3.323088609e-17
4.627539979e-17
6.615077525e-17
9.42340272e-17
1.308366464e-16
1.73687808e-16
2.161158769e-16
2.458599022e-16
4.926782297e-17
6.401747525e-17
8.902215875e-17
1.270745705e-16
1.807673235e-16
2.506466726e-16
3.323364222e-16
4.131063005e-16
4.696519096e-16
9.455862164e-17
1.227110559e-16
1.703908366e-16
2.428608203e-16
3.449756382e-16
4.776820358e-16
6.325935333e-16
7.855493276e-16
8.92490346e-16
1.805938789e-16
2.340534402e-16
3.245039034e-16
4.618096989e-16
6.550118642e-16
9.057295794e-16
1.197978685e-15
1.486149621e-15
1.687363208e-15
3.432291635e-16
4.442359336e-16
6.149590103e-16
8.737889616e-16
1.237471866e-15
1.708734651e-15
2.257278874e-15
2.797444799e-15
3.174129138e-15
6.49175475e-16
8.390765878e-16
1.159714215e-15
1.645191803e-15
2.326354146e-15
3.207700076e-15
4.232091523e-15
5.239472341e-15
5.941062733e-15
1.221956521e-15
1.577252469e-15
2.176504913e-15
3.082616884e-15
4.352076175e-15
5.992093715e-15
7.895426286e-15
9.764508918e-15
1.106446101e-14
2.289203817e-15
2.950767317e-15
4.065337726e-15
5.748303264e-15
8.102486587e-15
1.113897398e-14
1.465739121e-14
1.810730922e-14
2.050328396e-14
4.268383016e-15
5.494397183e-15
7.557528198e-15
1.066824544e-14
1.501249346e-14
2.060619921e-14
2.707658015e-14
3.34106045e-14
3.780271592e-14
7.921369346e-15
1.018274818e-14
1.398352291e-14
1.970531273e-14
2.768197889e-14
3.793359969e-14
4.976938843e-14
6.133448171e-14
6.933986232e-14
1.463161802e-14
1.878305828e-14
2.575137939e-14
3.622411728e-14
5.079589056e-14
6.948451362e-14
9.1014662e-14
1.120080201e-13
1.26510423e-13
2.689820959e-14
3.448297848e-14
4.719614212e-14
6.626773453e-14
9.274697582e-14
1.266268906e-13
1.655612264e-13
2.034310276e-13
2.295300063e-13
4.921086613e-14
6.300027632e-14
8.607708413e-14
1.206247041e-13
1.684743774e-13
2.295307945e-13
2.994921839e-13
3.673411692e-13
4.139695914e-13
8.958909307e-14
1.145302577e-13
1.56196556e-13
2.18429364e-13
3.043834036e-13
4.137134064e-13
5.385597125e-13
6.592129677e-13
7.418517277e-13
1.622695418e-13
2.071363975e-13
2.81941475e-13
3.933740912e-13
5.467840515e-13
7.411907833e-13
9.622888425e-13
1.175071247e-12
1.320228029e-12
2.92360996e-13
3.726030954e-13
5.060846605e-13
7.043163024e-13
9.761975691e-13
1.319237001e-12
1.70751314e-12
2.079346588e-12
2.33180698e-12
5.238392305e-13
6.664444914e-13
9.030472759e-13
1.253180378e-12
1.731301408e-12
2.331497524e-12
3.007055632e-12
3.650287841e-12
4.084620012e-12
9.331538595e-13
1.184848945e-12
1.60119153e-12
2.214791025e-12
3.048447029e-12
4.088808694e-12
5.252270069e-12
6.352747083e-12
7.091175767e-12
1.65216406e-12
2.093057149e-12
2.819837949e-12
3.885915288e-12
5.325903041e-12
7.110865694e-12
9.092445133e-12
1.095280552e-11
1.219240265e-11
2.90640571e-12
3.672345834e-12
4.929939036e-12
6.764719327e-12
9.226651125e-12
1.225527073e-11
1.559007045e-11
1.869515179e-11
2.074836954e-11
5.078251189e-12
6.396876425e-12
8.552176007e-12
1.16775682e-11
1.584021084e-11
2.091801027e-11
2.645922027e-11
3.157294364e-11
3.49269195e-11
8.809968675e-12
1.105780084e-11
1.471332503e-11
1.997826904e-11
2.693325996e-11
3.533975313e-11
4.442558243e-11
5.273190039e-11
5.813381901e-11
1.516986483e-11
1.896104417e-11
2.509191476e-11
3.385633671e-11
4.533163635e-11
5.906648933e-11
7.376201123e-11
8.706675354e-11
9.564504292e-11
2.591672674e-11
3.223821978e-11
4.239857621e-11
5.68067784e-11
7.549386933e-11
9.763229507e-11
1.210744244e-10
1.420905674e-10
1.55525094e-10
4.391511052e-11
5.43286071e-11
7.095651402e-11
9.433577554e-11
1.243603798e-10
1.595583129e-10
1.964415001e-10
2.291880781e-10
2.499471148e-10
7.377846307e-11
9.071585735e-11
1.175751053e-10
1.55006566e-10
2.025952513e-10
2.577979987e-10
3.150508083e-10
3.654060917e-10
3.970740759e-10
1.228508483e-10
1.500384152e-10
1.928472816e-10
2.519706283e-10
3.263821959e-10
4.118078153e-10
4.9952749e-10
5.759910649e-10
6.237195514e-10
2.026839924e-10
2.457405835e-10
3.130524513e-10
4.051847536e-10
5.199972509e-10
6.50489441e-10
7.832242556e-10
8.979613778e-10
9.690867998e-10
3.312281415e-10
3.984957622e-10
5.029158136e-10
6.44589815e-10
8.194633562e-10
1.016340107e-09
1.214839588e-09
1.385106104e-09
1.489992882e-09
5.36037898e-10
6.397201898e-10
7.995680847e-10
1.014628599e-09
1.277703327e-09
1.571269399e-09
1.864862623e-09
2.114941752e-09
2.268129099e-09
8.589049374e-10
1.0166122e-09
1.258175084e-09
1.58061651e-09
1.971756749e-09
2.404703145e-09
2.834518263e-09
3.198344485e-09
3.420100776e-09
1.362478695e-09
1.599309539e-09
1.95987559e-09
2.437661542e-09
3.012823991e-09
3.644808606e-09
4.268115237e-09
4.792817892e-09
5.11124169e-09
2.139638382e-09
2.490971692e-09
3.022894629e-09
3.723073595e-09
4.560159607e-09
5.47395087e-09
6.369994318e-09
7.12066543e-09
7.574520665e-09
3.326654895e-09
3.841891834e-09
4.618016218e-09
5.633533189e-09
6.840175908e-09
8.149836058e-09
9.427635732e-09
1.04937212e-08
1.113624962e-08
5.121260624e-09
5.86875329e-09
6.98962405e-09
8.448450082e-09
1.017250336e-08
1.203440009e-08
1.384314301e-08
1.534689344e-08
1.625079796e-08
7.807695987e-09
8.881349542e-09
1.048485965e-08
1.256213245e-08
1.500551052e-08
1.763275874e-08
2.017542191e-08
2.228292851e-08
2.3546881e-08
1.179126847e-08
1.331928472e-08
1.559340081e-08
1.852740897e-08
2.196428089e-08
2.564567277e-08
2.91967641e-08
3.213222764e-08
3.38892355e-08
1.764548158e-08
1.980189457e-08
2.3001421e-08
2.711460521e-08
3.191521162e-08
3.703989718e-08
4.196854918e-08
4.603297024e-08
4.84614914e-08
2.617600653e-08
2.919581074e-08
3.366432421e-08
3.939067331e-08
4.605232132e-08
5.314198246e-08
5.994239242e-08
6.553871851e-08
6.887789437e-08
3.850666836e-08
4.270547498e-08
4.890376988e-08
5.682432334e-08
6.601171314e-08
7.576295104e-08
8.509519476e-08
9.276227961e-08
9.733231214e-08
5.619342263e-08
6.1992799e-08
7.053564425e-08
8.142471112e-08
9.402319036e-08
1.073643311e-07
1.201090683e-07
1.305665059e-07
1.367952357e-07
8.137340645e-08
8.933379748e-08
1.010381767e-07
1.159248475e-07
1.331119711e-07
1.512789359e-07
1.686092703e-07
1.828157578e-07
1.912732655e-07
1.169598839e-07
1.278246091e-07
1.437746343e-07
1.640255352e-07
1.873661128e-07
2.120015453e-07
2.354763521e-07
2.547056429e-07
2.661494152e-07
1.669010831e-07
1.816555648e-07
2.032890239e-07
2.307169538e-07
2.62286284e-07
2.955678104e-07
3.272529241e-07
3.531927536e-07
3.686264919e-07
2.365228531e-07
2.56471687e-07
2.856917019e-07
3.226952345e-07
3.652378079e-07
4.100440391e-07
4.526695929e-07
4.875500968e-07
5.083000129e-07
3.329701168e-07
3.598351909e-07
3.991527006e-07
4.488950645e-07
5.060290704e-07
5.661540746e-07
6.233178108e-07
6.700774589e-07
6.9789077e-07
4.657644062e-07
5.01809505e-07
5.545249446e-07
6.211631387e-07
6.976426628e-07
7.780710481e-07
8.544992389e-07
9.169977863e-07
9.541690085e-07
6.474994995e-07
6.956882745e-07
7.661220219e-07
8.550972637e-07
9.5714489e-07
1.064401057e-06
1.166280007e-06
1.249569134e-06
1.299100478e-06
8.946985297e-07
9.588918039e-07
1.052672035e-06
1.171072785e-06
1.306795556e-06
1.449380825e-06
1.584772157e-06
1.695434704e-06
1.761237055e-06
1.228850363e-06
1.314048244e-06
1.438464101e-06
1.595471432e-06
1.775371269e-06
1.964300593e-06
2.143651574e-06
2.290218798e-06
2.377359049e-06
1.677637525e-06
1.790269878e-06
1.954694855e-06
2.162115952e-06
2.399700768e-06
2.64914528e-06
2.885900152e-06
3.079352236e-06
3.194350225e-06
2.276357801e-06
2.424623105e-06
2.641008123e-06
2.913896362e-06
3.226389026e-06
3.554420653e-06
3.8657292e-06
4.120076869e-06
4.271254135e-06
3.069526687e-06
3.263773754e-06
3.547200855e-06
3.904549411e-06
4.313677624e-06
4.743095585e-06
5.150599168e-06
5.483533043e-06
5.681402598e-06
4.112626321e-06
4.365765631e-06
4.735041511e-06
5.200521863e-06
5.733352151e-06
6.292550194e-06
6.823202673e-06
7.256747599e-06
7.514367622e-06
5.473936727e-06
5.801858342e-06
6.280112257e-06
6.882809193e-06
7.572568477e-06
8.296379451e-06
8.983197845e-06
9.54427615e-06
9.877618293e-06
7.236344346e-06
7.658307641e-06
8.273541338e-06
9.048615909e-06
9.935417668e-06
1.086576907e-05
1.174839544e-05
1.246932214e-05
1.289754594e-05
9.498974917e-06
1.003792269e-05
1.082344706e-05
1.181262825e-05
1.294386274e-05
1.413015752e-05
1.525522571e-05
1.617394373e-05
1.671952011e-05
1.237845023e-05
1.306117332e-05
1.405574085e-05
1.530737879e-05
1.673782749e-05
1.823698823e-05
1.965804228e-05
2.081798907e-05
2.150659428e-05
1.600926597e-05
1.686626467e-05
1.811390452e-05
1.968276287e-05
2.147419199e-05
2.335008482e-05
2.512690951e-05
2.657638101e-05
2.743648041e-05
2.054313952e-05
2.160830605e-05
2.315776137e-05
2.510416453e-05
2.732420807e-05
2.964631276e-05
3.184352453e-05
3.363441633e-05
3.469646834e-05
2.614716604e-05
2.745703545e-05
2.936060146e-05
3.17488556e-05
3.446905658e-05
3.731024211e-05
3.999502084e-05
4.21808596e-05
4.347609345e-05
3.300019258e-05
3.459274296e-05
3.690444834e-05
3.980043728e-05
4.309334903e-05
4.652666933e-05
4.976556774e-05
5.239879544e-05
5.395754772e-05
4.128726043e-05
4.320023053e-05
4.597332491e-05
4.944124813e-05
5.33765758e-05
5.747108166e-05
6.132592018e-05
6.445444161e-05
6.630405773e-05
5.119205427e-05
5.346080079e-05
5.674459211e-05
6.084291669e-05
6.548279694e-05
7.029847204e-05
7.4821404e-05
7.84844208e-05
8.06466745e-05
6.288752247e-05
6.554251627e-05
6.937871867e-05
7.415557067e-05
7.954927019e-05
8.513138788e-05
9.035936318e-05
9.458250949e-05
9.707009183e-05
7.652508591e-05
7.958923945e-05
8.400813778e-05
8.949656721e-05
9.567517219e-05
0.0001020487749
0.0001079981827
0.0001127887786
0.0001156021027
9.222307607e-05
9.570917764e-05
0.0001007260452
0.0001069397947
0.0001139117839
0.0001210775607
0.0001277408025
0.0001330852146
0.0001362164963
0.0001100551975
0.0001139637697
0.0001195760155
0.0001265064308
0.000134254988
0.000142187905
0.0001495339679
0.0001554106568
0.0001588483244
0.0001300399441
0.0001343578825
0.0001405434296
0.0001481580702
0.0001566404079
0.0001652922134
0.0001732827186
0.0001796603726
0.0001833852009
0.0001521321554
0.0001568326644
0.000163550423
0.0001717948328
0.0001809521909
0.0001902675472
0.0001988488475
0.0002056828134
0.0002096678038
0.000176218611
0.0001812630783
0.0001884597967
0.0001972736809
0.0002070385396
0.0002169455643
0.0002260485731
0.0002332818979
0.0002374930078
0.0002021400931
0.000207488507
0.0002151062994
0.0002244161049
0.0002347047144
0.0002451157003
0.0002546574625
0.000262222694
0.0002666200355
0.000229708926
0.0002353133885
0.0002432829811
0.0002530021694
0.0002637169137
0.0002745311219
0.0002844177463
0.000292239499
0.000296778908
0.0002586960178
0.0002645018467
0.000272744756
0.0002827765208
0.000293809542
0.0003049171347
0.0003150475504
0.0003230455602
0.0003276803915
0.0002888365287
0.000294784336
0.0003032159874
0.0003134570995
0.0003246946865
0.0003359812192
0.0003462512861
0.0003543436401
0.0003590266218
0.0003198391045
0.0003258672725
0.0003344005245
0.0003447455781
0.0003560727914
0.0003674237859
0.0003777303635
0.0003858366248
0.0003905216221
0.0003513970389
0.000357444247
0.000365992914
0.000376338493
0.0003876435871
0.0003989487973
0.000409193454
0.0004172374535
0.0004218810226
0.0003832000837
0.0003892076481
0.0003976897164
0.0004079381339
0.0004191164434
0.0004302735196
0.0004403656493
0.0004482777858
0.0004528404339
0.0004149458585
0.0004208597176
0.0004292000375
0.0004392624102
0.0004502194741
0.0004611368365
0.0004709960382
0.0004787149877
0.0004831620909
0.0004463500284
0.0004521222698
0.0004602545922
0.0004700531131
0.0004807069174
0.0004913057454
0.0005008634072
0.0005083372247
0.000512639605
0.0004771546516
0.0004827445346
0.0004906128403
0.0005000822037
0.000510364516
0.0005205798587
0.0005297799756
0.0005369666096
0.0005411007804
0.0005071343362
0.0005125088147
0.0005200679533
0.0005291559769
0.0005390128393
0.000548793919
0.0005575932102
0.0005644604962
0.0005684086205
0.0005361001011
0.0005412339005
0.0005484496178
0.0005571171523
0.0005665086374
0.000575818463
0.0005841859086
0.0005907111346
0.0005944607497
0.0005639010367
0.000568776353
0.000575624809
0.0005838450695
0.0005927444506
0.0006015588948
0.0006094748261
0.0006156439776
0.0006191875455
0.0005904240026
0.000595029916
0.0006014968217
0.0006092542935
0.0006176467932
0.0006259532901
0.0006334081747
0.0006392149621
0.0006425493047
0.0006155917227
0.0006199234191
0.0006260029208
0.0006332919889
0.0006411732626
0.0006489692779
0.0006559623269
0.000661407093
0.0006645327648
0.0006393596856
0.0006434175702
0.0006491109981
0.0006559344377
0.0006633089323
0.0006706003354
0.000677138045
0.0006822266341
0.0006851472776
0.0006617122548
0.0006655010325
0.000670815613
0.0006771830519
0.0006840623546
0.0006908618004
0.0006969565151
0.0007016991682
0.0007044208868
0.0006826583633
0.0006861861425
0.0006911337508
0.0006970601911
0.000703461455
0.0007097868522
0.0007154554166
0.0007198657391
0.0007223965133
0.000702227107
0.0007055045672
0.000710100574
0.0007156050338
0.0007215495391
0.0007274226598
0.0007326851998
0.000736779233
0.0007391283962
0.0007204634816
0.0007235031312
0.000727765378
0.0007328696888
0.0007383815753
0.0007438268357
0.0007487056945
0.000752501107
0.0007546788894
0.0007374244399
0.0007402399769
0.0007441878951
0.0007489156722
0.0007540208589
0.0007590642834
0.0007635831207
0.000767098526
0.0007691156705
0.0007531753778
0.0007557811568
0.0007594350359
0.0007638108243
0.0007685361157
0.0007732044835
0.0007773875354
0.000780641932
0.0007825093789
0.0007677871079
0.0007701977091
0.0007735781055
0.0007776266937
0.000781999063
0.0007863192259
0.0007901907151
0.0007932030415
0.0007949316786
0.0007813333307
0.0007835632234
0.0007866904992
0.0007904363839
0.0007944824178
0.0007984807727
0.0008020644541
0.0008048532466
0.0008064537173
0.0007938885883
0.0007959518759
0.000798845852
0.0008023128372
0.0008060583201
0.0008097604164
0.0008130792401
0.0008156623806
0.000817144942
0.0008055266588
0.0008074368957
0.0008101166016
0.0008133275111
0.0008167971289
0.0008202273906
0.0008233032646
0.0008256978032
0.000827072227
0.0008163193443
0.0008180894101
0.000820572915
0.0008235493988
0.0008267665411
0.0008299480824
0.0008328017176
0.0008350237572
0.0008362992664
0.0008263355931
0.0008279776158
0.0008302819235
0.0008330443403
0.0008360309826
0.0008389854998
0.000841636319
0.0008437009517
0.000844886185
0.000835640904
0.000837166219
0.0008393072156
0.0008418745735
0.0008446512186
0.0008473989422
0.0008498650457
0.0008517863263
0.000852889324
0.0008442969549
0.0008457160927
0.0008477085314
0.0008500984767
0.0008526841509
0.0008552438431
0.0008575420074
0.0008593329565
0.0008603611632
0.0008523614143
0.0008536841108
0.0008555416292
0.0008577704684
0.0008601827461
0.0008625717301
0.0008647174385
0.0008663900683
0.0008673503486
0.000859887893
0.0008611231147
0.0008628582702
0.0008649410153
0.0008671960708
0.0008694302845
0.0008714377779
0.0008730031326
0.0008739017953
0.0008669259978
0.0008680819766
0.0008697062972
0.0008716567268
0.0008737694029
0.0008758634693
0.0008777458099
0.0008792140173
0.0008800568442
0.0008735214588
0.0008746057341
0.0008761297775
0.0008779605095
0.0008799443968
0.0008819117029
0.000883680847
0.000885061175
0.0008858534547
0.0008797163081
0.0008807357726
0.0008821691905
0.0008838917599
0.0008857592815
0.0008876120633
0.0008892789379
0.0008905798546
0.0008913264168
0.0008855490913
0.0008865100379
0.0008878616427
0.0008894865813
0.0008912490799
0.0008929985084
0.0008945730886
0.0008958023236
0.0008965075738
0.0008910550968
0.0008919632659
0.0008932410967
0.0008947780124
0.0008964458359
0.0008981021028
0.0008995934885
0.0009007580916
0.0009014260459
0.0008962665918
0.000897127217
0.0008983386038
0.0008997962582
0.0009013788432
0.0009029512425
0.0009043677324
0.0009054741318
0.0009061084496
0.0009012130582
0.0009020309102
0.0009031825356
0.0009045689166
0.0009060748676
0.0009075718745
0.0009089210357
0.0009099750921
0.0009105791074
0.0009059214215
0.0009067008492
0.0009077988058
0.0009091211974
0.0009105583611
0.0009119877049
0.0009132764386
0.0009142834963
0.0009148602472
0.0009104162692
0.0009111612383
0.0009122110824
0.0009134761285
0.000914851663
0.0009162203952
0.0009174549978
0.0009184199318
0.0009189721871
0.0009147200562
0.0009154341845
0.000916440986
0.0009176547496
0.0009189751878
0.0009202897448
0.0009214759633
0.0009224032228
0.0009229335074
0.0009188532963
0.0009195398861
0.0009205082735
0.0009216762905
0.0009229475986
0.0009242138587
0.0009253569422
0.0009262505898
0.0009267612071
0.0009228347376
0.0009234968052
0.000924431007
0.0009255583359
0.0009267859657
0.0009280093013
0.0009291140468
0.0009299777947
0.0009304708474
0.000926681524
0.0009273218264
0.0009282257082
0.0009293169741
0.0009305059112
0.0009316912353
0.0009327620299
0.0009335992722
0.0009340766809
0.0009304093411
0.0009310304
0.0009319074983
0.000932966933
0.0009341217395
0.0009352735481
0.0009363144062
0.0009371282482
0.0009375917679
0.0009340325484
0.0009346366719
0.0009354902239
0.0009365217018
0.0009376465547
0.0009387689646
0.0009397835618
0.0009405768458
0.0009410280813
0.0009375642978
0.0009381535996
0.0009389865705
0.0009399936405
0.0009410923664
0.0009421891488
0.0009431808521
0.0009439561807
0.0009443966
0.0009410166405
0.0009415930572
0.0009424081638
0.0009433940781
0.0009444701835
0.0009455447942
0.0009465166884
0.0009472764457
0.0009477073916
0.0009444006217
0.0009449659279
0.0009457656601
0.0009467333994
0.0009477900983
0.0009488457044
0.0009498006162
0.0009505469857
0.000950969687
0.000947726365
0.000948282187
0.0009490688271
0.0009500211233
0.0009510613608
0.0009521008644
0.0009530413833
0.0009537763648
0.0009541919455
0.0009510031483
0.0009515509761
0.0009523266149
0.0009532659709
0.0009542924451
0.0009553185041
0.0009562470013
0.0009569724251
0.0009573819129
0.0009542394694
0.0009547806675
0.0009555472194
0.0009564759267
0.0009574911076
0.0009585061546
0.0009594247994
0.0009601423392
0.0009605466729
0.0009574431055
0.0009579789219
0.0009587381384
0.0009596582929
0.0009606644387
0.0009616706971
0.0009625814717
0.000963292656
0.0009636926924
0.0009606211648
0.0009611527398
0.0009619062206
0.0009628197362
0.0009638189086
0.0009648184074
0.0009657231198
0.0009664293421
0.0009668258616
0.0009637801332
0.0009643085066
0.00096505771
0.000965966331
0.0009669604078
0.0009679549943
0.0009688552895
0.0009695578172
0.0009699515291
0.0009669259145
0.0009674520318
0.000968198284
0.0009691035955
0.0009700942827
0.0009710856338
0.0009719830043
0.0009726829864
0.0009730745338
0.0009700638663
0.0009705885851
0.0009713330877
0.0009722365257
0.0009732253672
0.0009742149996
0.0009751107941
0.0009758092686
0.0009761992323
0.0009731988325
0.0009737229269
0.0009744667646
0.0009753696239
0.0009763580109
0.0009773472899
0.0009782427216
0.0009789406215
0.0009793295238
0.000976335171
0.0009768593365
0.000977603483
0.0009785069252
0.0009794961043
0.0009804862519
0.0009813824056
0.0009820805644
0.0009824688726
0.000979476779
0.0009800016368
0.0009807469607
0.0009816520206
0.000982643101
0.000983635203
0.0009845330414
0.0009852321987
0.0009856203278
0.0009826271161
0.0009831532164
0.0009839004861
0.000984808078
0.0009858020381
0.0009867970509
0.0009876974204
0.0009883982259
0.0009887865415
0.0009857892243
0.0009863170495
0.0009870669381
0.0009879778613
0.0009889755547
0.0009899743106
0.000990877947
0.0009915809649
0.0009919697859
0.0009889657466
0.0009894957147
0.0009902488041
0.0009911637479
0.0009921659087
0.0009931691218
0.0009940766546
0.0009947823677
0.0009951719682
0.0009921589441
0.0009926914113
0.000993448196
0.0009943677443
0.0009953749924
0.0009963832634
0.0009972952208
0.0009980040335
0.0009983946453
0.0009953707116
0.000995905975
0.0009966668658
0.0009975915016
0.0009986043471
0.0009996181681
0.001000534981
0.001001247223
0.001001639037
0.0009986025927
0.0009991408924
0.0009999062199
0.001000836329
0.001001855177
0.001002874936
0.001003796942
0.001004512872
0.001004906042
0.001001855793
0.001002397315
0.001003167333
0.001004103209
0.001005128363
0.001006154348
0.001007081795
0.001007801603
0.001008196243
0.001005131195
0.001005676073
0.00100645096
0.001007392807
0.001008424475
0.001009456877
0.001010389928
0.001011113739
0.001011509931
0.001008429369
0.001008977686
0.001009757551
0.001010705487
0.001011743783
0.001012782703
0.00101372144
0.001014449314
0.001014847105
0.001011750587
0.001012302379
0.001013087263
0.001014041325
0.001015086275
0.001016131725
0.001017076149
0.001017808089
0.001018207495
0.001015094836
0.001015650092
0.001016439972
0.001017400117
0.001018451661
0.00101950357
0.001020453609
0.001021189559
0.001021590566
0.001018461829
0.001019020495
0.001019815283
0.001020781396
0.001021839394
0.00102289761
0.00102385312
0.001024592972
0.001024995536
0.001021851017
0.001022412998
0.00102321255
0.001024184442
0.001025248677
0.001026312973
0.001027273742
0.001028017334
0.001028421387
0.001025261605
0.001025826765
0.00102663088
0.001027608296
0.001028678478
0.001029748553
0.001030714307
0.001031461431
0.001031866876
0.00102869256
0.001029260727
0.00103006915
0.001031051772
0.001032127541
0.001033203028
0.001034173431
0.001034923831
0.00103533055
0.00103214263
0.001032713595
0.001033526022
0.00103451347
0.001035594402
0.00103667487
0.001037649529
0.001038402908
0.001038810759
0.001035610349
0.001036183871
0.001036999952
0.00103799179
0.001039077401
0.001040162357
0.001041140828
0.001041896848
0.00104230567
0.001039094058
0.001039669865
0.001040489205
0.001041484946
0.001042574692
0.00104366359
0.001044645379
0.001045403665
0.001045813276
0.001042591915
0.001043169705
0.001043991869
0.001044990976
0.001046084264
0.001047176505
0.001048161071
0.001048921215
0.001049331417
0.001046101906
0.001046681353
0.001047505868
0.001048507759
0.001049603946
0.001050698885
0.001051685647
0.001052447208
0.001052857787
0.001049621864
0.001050202616
0.001051028975
0.001052033028
0.001053131427
0.001054228374
0.001055216713
0.001055979224
0.00105638995
0.001053149478
0.001053731162
0.001054558827
0.001055564381
0.001056664265
0.001057762494
0.001058751756
0.001059514721
0.001059925353
0.001056682309
0.00105726453
0.001058092935
0.001059099297
0.001060199905
0.001061298651
0.001062288153
0.001063051056
0.001063461341
0.001060217801
0.001060800149
0.001061628703
0.001062635149
0.001063735685
0.001064834156
0.001065823186
0.00106658549
0.001066995163
0.001063753296
0.001064335342
0.001065163431
0.001066169212
0.001067268855
0.001068366229
0.001069354053
0.001070115202
0.001070523991
0.001067286041
0.001067867345
0.001068694338
0.001069698681
0.001070796582
0.001071892015
0.001072877877
0.001073637302
0.001074044926
0.001070813206
0.001071393316
0.001072218562
0.001073220674
0.001074315967
0.001075408593
0.001076391719
0.001077148836
0.001077555008
0.00107433189
0.001074910341
0.001075733177
0.001076732249
0.001077824046
0.001078912982
0.001079892584
0.001080646799
0.001081051224
0.001077839129
0.00107841545
0.0010792352
0.001080230406
0.001081317805
0.001082402153
0.001083377428
0.001084128135
0.001084530514
0.001081331907
0.001081905617
0.001082721593
0.001083712097
0.001084794181
0.00108587303
0.001086843164
0.001087589747
0.001087989777
0.001084807158
0.001085377772
0.001086189277
0.001087174227
0.001088250069
0.001089322494
0.001090286661
0.001091028498
0.001091425868
0.001088261774
0.001088828797
0.001089635125
0.001090613662
0.001091682319
0.001092747384
0.001093704747
0.001094441205
0.001094835602
0.001091692602
0.001092255533
0.001093055969
0.001094027221
0.001095087741
0.001096144495
0.001097094206
0.001097824645
0.001098215745
0.001095096445
0.001095654779
0.001096448596
0.001097411678
0.001098463094
0.001099510575
0.001100451773
0.001101175538
0.001101563014
0.00109847006
0.00109902328
0.001099809742
0.001100763758
0.001101805086
0.001102842315
0.001103774122
0.001104490547
0.001104874062
0.001101810149
0.001102357733
0.00110313609
0.001104080124
0.001105110363
0.001106136341
0.001107057861
0.001107766264
0.00110814547
0.001105113355
0.001105654766
0.001106424252
0.00110735737
0.001108375497
0.0011093892
0.001110299514
0.001110999193
0.001111373731
0.001108376248
0.001108910938
0.001109670767
0.00111059201
0.001111596972
0.00111259735
0.00111349551
0.001114185741
0.001114555233
0.001111595315
0.001112122718
0.001112872081
0.001113780461
0.001114771174
0.001115757138
0.001116642164
0.001117322193
0.001117686248
0.001114766945
0.001115286476
0.001116024537
0.001116919031
0.001117894369
0.001118864791
0.001119735664
0.001120404706
0.001120762908
0.001117887415
0.001118398468
0.001119124355
0.001120003901
0.001120962694
0.001121916399
0.001122772054
0.001123429286
0.001123781196
0.001120952878
0.001121454819
0.001122167627
0.001123031114
0.001123972141
0.001124907899
0.001125747221
0.001126391776
0.00112673693
0.001123959348
0.001124451514
0.001125150295
0.001125996564
0.001126918544
0.001127835068
0.001128656884
0.001129287853
0.001129625757
0.001126902691
0.001127384389
0.00112806815
0.001128895984
0.001129797578
0.001130693515
0.001131496596
0.001132113019
0.001132443149
0.001129778621
0.001130249124
0.001130916823
0.00113172495
0.001132604752
0.001133478684
0.001134261739
0.001134862607
0.001135184409
0.001132582694
0.001133041241
0.001133691791
0.001134478879
0.001135335418
0.001136185863
0.00113694754
0.001137531796
0.001137844686
0.001135310321
0.001135756116
0.001136388382
0.001137153043
0.001137984789
0.001138810202
0.001139549093
0.001140115634
0.001140419
0.001137956774
0.001138388994
0.001139001797
0.001139742592
0.001140547958
0.00114134674
0.00114206139
0.001142609075
0.001142902282
0.001140517219
0.001140935012
0.001141527139
0.001142242586
0.001143019942
0.001143790452
0.001144479366
0.001145007027
0.001145289422
0.001142986742
0.001143389239
0.001143959451
0.00114464804
0.001145395726
0.001146136297
0.00114679796
0.001147304412
0.001147575334
0.001145360402
0.001145746722
0.001146293768
0.001146953978
0.001147670326
0.001148379286
0.001149012184
0.001149496247
0.001149755036
0.001147633283
0.001148002548
0.001148525183
0.001149155503
0.001149838861
0.00115051456
0.001151117204
0.001151577719
0.00115182373
0.001149800562
0.001150151913
0.001150648916
0.001151247873
0.001151896635
0.001152537475
0.00115310843
0.001153544285
0.001153776901
0.001151857593
0.001152190199
0.001152660402
0.001153226586
0.001153839225
0.001154443695
0.001154981609
0.001155391766
0.001155610414
0.001153799983
0.001154113067
0.001154555374
0.001155087472
0.001155662573