/*--------------------------------*- C++ -*----------------------------------*\
| =========                 |                                                 |
| \\      /  F ield         | OpenFOAM: The Open Source CFD Toolbox           |
|  \\    /   O peration     | Version:  2212                                  |
|   \\  /    A nd           | Website:  www.openfoam.com                      |
|    \\/     M anipulation  |                                                 |
\*---------------------------------------------------------------------------*/
FoamFile
{
    version     2.0;
    format      ascii;
    arch        "LSB;label=32;scalar=64";
    class       volScalarField;
    location    "2.75000000";
    object      C2H6_0;
}
// * * * * * * * * * * * * * * * * * * * * * * * * * * * * * * * * * * * * * //

dimensions      [0 0 0 0 0 0 0];

internalField   nonuniform List<scalar> 
3000
(
2.316448699e-23
2.683490124e-23
3.242318116e-23
3.995264309e-23
4.938737044e-23
6.04922738e-23
7.260038215e-23
8.423702543e-23
9.258497747e-23
9.010131971e-23
1.049853907e-22
1.276706714e-22
1.583563722e-22
1.971980352e-22
2.440528386e-22
2.980184494e-22
3.56150132e-22
4.075340561e-22
2.145846503e-22
2.526618185e-22
3.11366892e-22
3.92291298e-22
4.975700901e-22
6.291964623e-22
7.867953911e-22
9.613763325e-22
1.111671835e-21
4.447793139e-22
5.307758129e-22
6.656763233e-22
8.562384431e-22
1.111551672e-21
1.440278327e-21
1.842302642e-21
2.28640165e-21
2.650807731e-21
8.768308577e-22
1.062335795e-21
1.358804593e-21
1.787353731e-21
2.375190567e-21
3.146145717e-21
4.093841877e-21
5.120971391e-21
5.927606629e-21
1.700826014e-21
2.09207129e-21
2.728040983e-21
3.664785312e-21
4.971131324e-21
6.700477328e-21
8.819677809e-21
1.10713778e-20
1.278370604e-20
3.295495931e-21
4.110131079e-21
5.452613808e-21
7.457462385e-21
1.028220224e-20
1.403342141e-20
1.860054712e-20
2.337237611e-20
2.691948804e-20
6.41261349e-21
8.092289629e-21
1.088912723e-20
1.510568867e-20
2.108155297e-20
2.901723453e-20
3.861290808e-20
4.850962626e-20
5.57521698e-20
1.254379904e-20
1.597844669e-20
2.173976818e-20
3.047897695e-20
4.290078119e-20
5.937064158e-20
7.916347362e-20
9.938174947e-20
1.140202396e-19
2.463869089e-20
3.160811922e-20
4.335740978e-20
6.124607249e-20
8.670147246e-20
1.203803302e-19
1.606460244e-19
2.014842042e-19
2.308283273e-19
4.851121428e-20
6.255184914e-20
8.629872474e-20
1.225286184e-19
1.740857212e-19
2.421438848e-19
3.231695523e-19
4.049089886e-19
4.633217185e-19
9.557345374e-20
1.236681051e-19
1.712780575e-19
2.439841919e-19
3.473888203e-19
4.835872401e-19
6.451733549e-19
8.075156974e-19
9.230589811e-19
1.881232277e-19
2.439773366e-19
3.387318478e-19
4.834664856e-19
6.891198822e-19
9.594262697e-19
1.279169585e-18
1.599350247e-18
1.826596373e-18
3.69499093e-19
4.798481066e-19
6.671441078e-19
9.531737799e-19
1.359147861e-18
1.891686263e-18
2.519871499e-18
3.146954634e-18
3.591730386e-18
7.234499452e-19
9.401071723e-19
1.30787866e-18
1.869264115e-18
2.665161971e-18
3.707238432e-18
4.933066938e-18
6.152393379e-18
7.019080915e-18
1.410847934e-18
1.833523578e-18
2.550852511e-18
3.645088405e-18
5.19474592e-18
7.221284874e-18
9.604017944e-18
1.197489481e-17
1.363833598e-17
2.738958668e-18
3.558228269e-18
4.947878859e-18
7.065600946e-18
1.006041168e-17
1.396946708e-17
1.855454953e-17
2.310369163e-17
2.629744563e-17
5.291669567e-18
6.869732117e-18
9.544494677e-18
1.361598819e-17
1.936519984e-17
2.685639474e-17
3.562641297e-17
4.431125531e-17
5.040036738e-17
1.017290713e-17
1.319450311e-17
1.831175044e-17
2.609192446e-17
3.706208181e-17
5.1333062e-17
6.80124632e-17
8.450311436e-17
9.604651859e-17
1.945908522e-17
2.521184759e-17
3.49458261e-17
4.972732688e-17
7.053977197e-17
9.757273853e-17
1.291184782e-16
1.602598022e-16
1.820250609e-16
3.70357547e-17
4.792822238e-17
6.634169875e-17
9.426911892e-17
1.335355048e-16
1.844612061e-16
2.437983611e-16
3.022891797e-16
3.431098298e-16
7.013707443e-17
9.065105174e-17
1.25296041e-16
1.777761056e-16
2.514596792e-16
3.468799879e-16
4.578962478e-16
5.67173544e-16
6.433325779e-16
1.321649297e-16
1.705979409e-16
2.354411888e-16
3.335416171e-16
4.710828805e-16
6.489364682e-16
8.555568434e-16
1.058657819e-15
1.200019673e-15
2.478270754e-16
3.194653922e-16
4.402097761e-16
6.226497868e-16
8.780771423e-16
1.207884703e-15
1.590483079e-15
1.966057268e-15
2.227122419e-15
4.624590246e-16
5.953293981e-16
8.190486576e-16
1.156644846e-15
1.628628608e-15
2.237163421e-15
2.942096593e-15
3.633165926e-15
4.11292946e-15
8.588583604e-16
1.104106328e-15
1.516608819e-15
2.138270526e-15
3.006147746e-15
4.12346056e-15
5.415906739e-15
6.681239436e-15
7.558567479e-15
1.587553387e-15
2.038088638e-15
2.795072887e-15
3.934370527e-15
5.522563615e-15
7.56411988e-15
9.922179017e-15
1.222756702e-14
1.382391236e-14
2.92099151e-15
3.744845947e-15
5.127562311e-15
7.205771789e-15
1.009841749e-14
1.381092824e-14
1.809231938e-14
2.227194816e-14
2.516207307e-14
5.350095979e-15
6.849835502e-15
9.364070955e-15
1.313756237e-14
1.838147519e-14
2.510040772e-14
3.28359626e-14
4.03756561e-14
4.55813568e-14
9.75552325e-15
1.24735825e-14
1.702485521e-14
2.384536349e-14
3.330745585e-14
4.540904858e-14
5.931605008e-14
7.284686862e-14
8.217340335e-14
1.770992434e-14
2.261446085e-14
3.081652592e-14
4.308824224e-14
6.00811363e-14
8.177051308e-14
1.066438699e-13
1.307951274e-13
1.474100325e-13
3.200863677e-14
4.08197204e-14
5.5534774e-14
7.751220181e-14
1.078819093e-13
1.465568169e-13
1.908029115e-13
2.336620322e-13
2.630802056e-13
5.759623735e-14
7.335497961e-14
9.963363053e-14
1.388046537e-13
1.928070363e-13
2.61397083e-13
3.396476735e-13
4.152307009e-13
4.669700361e-13
1.031744918e-13
1.31229471e-13
1.779346436e-13
2.473991715e-13
3.429085954e-13
4.638475828e-13
6.013636111e-13
7.337424188e-13
8.240668294e-13
1.839746595e-13
2.336787189e-13
3.16268238e-13
4.387921265e-13
6.067323821e-13
8.186262842e-13
1.058620849e-12
1.288717764e-12
1.4451091e-12
3.265037564e-13
4.141076313e-13
5.593577362e-13
7.742104226e-13
1.067640284e-12
1.436313751e-12
1.851950824e-12
2.248543283e-12
2.516863629e-12
5.766089661e-13
7.301475247e-13
9.840858823e-13
1.358437472e-12
1.867550318e-12
2.504078093e-12
3.217813061e-12
3.895041813e-12
4.350788715e-12
1.013069057e-12
1.280520559e-12
1.721589132e-12
2.369255226e-12
3.245778275e-12
4.335441093e-12
5.549646053e-12
6.694347357e-12
7.459995194e-12
1.770302606e-12
2.233042846e-12
2.993643639e-12
4.10545988e-12
5.601701737e-12
7.44967055e-12
9.494225025e-12
1.140777411e-11
1.267896972e-11
3.075958068e-12
3.870635883e-12
5.171871094e-12
7.064116703e-12
9.59436833e-12
1.26964488e-11
1.610127982e-11
1.926241869e-11
2.134680765e-11
5.312525908e-12
6.666084089e-12
8.872856684e-12
1.206310882e-11
1.62984214e-11
2.144852911e-11
2.70520827e-11
3.220952367e-11
3.558330233e-11
9.117263774e-12
1.140206681e-11
1.510894322e-11
2.04327237e-11
2.74444496e-11
3.589481324e-11
4.500331644e-11
5.330994024e-11
5.86989777e-11
1.554244458e-11
1.936150364e-11
2.552404529e-11
3.431081853e-11
4.578392359e-11
5.947957812e-11
7.409699034e-11
8.730146487e-11
9.579619513e-11
2.630927892e-11
3.262552941e-11
4.275736097e-11
5.709108448e-11
7.563541614e-11
9.755173093e-11
1.207069182e-10
1.414239422e-10
1.546404296e-10
4.420518641e-11
5.453380934e-11
7.099671395e-11
9.409453875e-11
1.236914163e-10
1.583127873e-10
1.94519304e-10
2.266069553e-10
2.46910896e-10
7.369710213e-11
9.038614021e-11
1.168092412e-10
1.535625909e-10
2.001959713e-10
2.54186237e-10
3.100820059e-10
3.591645206e-10
3.899808481e-10
1.218653302e-10
1.484975767e-10
1.903726608e-10
2.481085632e-10
3.206456713e-10
4.037774423e-10
4.890076682e-10
5.631952526e-10
6.094339652e-10
1.998057968e-10
2.417645882e-10
3.072786666e-10
3.968170672e-10
5.082242139e-10
6.3465665e-10
7.630848615e-10
8.739599366e-10
9.425994105e-10
3.247069837e-10
3.899609287e-10
4.911455288e-10
6.282520962e-10
7.972593703e-10
9.872839218e-10
1.178644886e-09
1.342607923e-09
1.443491224e-09
5.228863356e-10
6.230644703e-10
7.77365792e-10
9.847317035e-10
1.238097759e-09
1.520511488e-09
1.802658226e-09
2.042757993e-09
2.189676726e-09
8.341767188e-10
9.860279657e-10
1.218435402e-09
1.528358597e-09
1.903936898e-09
2.319256401e-09
2.731204839e-09
3.079620462e-09
3.291785411e-09
1.318197083e-09
1.545558807e-09
1.891474498e-09
2.34947412e-09
2.900348112e-09
3.50514746e-09
4.101190114e-09
4.602588675e-09
4.906620637e-09
2.06323772e-09
2.399681824e-09
2.908774667e-09
3.578444738e-09
4.378484039e-09
5.251231231e-09
6.106481528e-09
6.822549615e-09
7.255174215e-09
3.198759377e-09
3.691151559e-09
4.43252179e-09
5.402022564e-09
6.553313285e-09
7.802186518e-09
9.020034849e-09
1.003559361e-08
1.064729009e-08
4.912591026e-09
5.625803265e-09
6.694885844e-09
8.085702257e-09
9.728630314e-09
1.150213251e-08
1.322429552e-08
1.465549802e-08
1.551534739e-08
7.47483622e-09
8.498103594e-09
1.002597618e-08
1.200466564e-08
1.433136731e-08
1.683244078e-08
1.925237169e-08
2.12576634e-08
2.245986963e-08
1.1270963e-08
1.272637095e-08
1.489214735e-08
1.768598465e-08
2.095827643e-08
2.446313168e-08
2.784387946e-08
3.063856116e-08
3.231109494e-08
1.684709363e-08
1.890089875e-08
2.19482561e-08
2.586607915e-08
3.043931938e-08
3.532244808e-08
4.002033624e-08
4.389586614e-08
4.621193323e-08
2.497184878e-08
2.784954508e-08
3.210870188e-08
3.756859748e-08
4.392332396e-08
5.069061725e-08
5.718661432e-08
6.253627564e-08
6.572964466e-08
3.672034946e-08
4.072664999e-08
4.664347863e-08
5.420940047e-08
6.299313886e-08
7.232571217e-08
8.126711648e-08
8.862024855e-08
9.300569086e-08
5.358752177e-08
5.913272816e-08
6.730714507e-08
7.773720972e-08
8.981974888e-08
1.026321336e-07
1.148880533e-07
1.249555278e-07
1.309559065e-07
7.763952216e-08
8.527421379e-08
9.651077032e-08
1.108211311e-07
1.273679311e-07
1.44885438e-07
1.616203506e-07
1.753547281e-07
1.835368259e-07
1.117143642e-07
1.22175216e-07
1.37550142e-07
1.570998525e-07
1.79669506e-07
2.035306169e-07
2.263015548e-07
2.449765615e-07
2.560984018e-07
1.596865582e-07
1.739571392e-07
1.949072726e-07
2.215105912e-07
2.521834487e-07
2.845748593e-07
3.154596776e-07
3.40775128e-07
3.558484171e-07
2.268138914e-07
2.462047377e-07
2.746444343e-07
3.107183232e-07
3.522655928e-07
3.961000546e-07
4.378665473e-07
4.720867346e-07
4.924591633e-07
3.20184691e-07
3.464376322e-07
3.849112527e-07
4.336681932e-07
4.897735332e-07
5.489234226e-07
6.052518329e-07
6.513877751e-07
6.788513399e-07
4.492835693e-07
4.847065774e-07
5.365859974e-07
6.022843542e-07
6.778324527e-07
7.574348835e-07
8.332093842e-07
8.952580087e-07
9.321911598e-07
6.266920833e-07
6.743315047e-07
7.440688997e-07
8.323342898e-07
9.337825998e-07
1.040634042e-06
1.142321251e-06
1.225576973e-06
1.275129938e-06
8.689341221e-07
9.327906781e-07
1.026236191e-06
1.144466534e-06
1.280315662e-06
1.423373674e-06
1.55950637e-06
1.670961031e-06
1.737294167e-06
1.197463619e-06
1.282756225e-06
1.407546585e-06
1.565408907e-06
1.746781671e-06
1.937785491e-06
2.119564194e-06
2.268407081e-06
2.356989882e-06
1.639773283e-06
1.753249609e-06
1.919265843e-06
2.129282071e-06
2.370607779e-06
2.624814144e-06
2.866823638e-06
3.065040073e-06
3.18301028e-06
2.230577563e-06
2.380861449e-06
2.600739969e-06
2.878939808e-06
3.19871581e-06
3.535717751e-06
3.856725593e-06
4.119766303e-06
4.276334827e-06
3.012991865e-06
3.210944785e-06
3.500605846e-06
3.867196473e-06
4.28876255e-06
4.733314652e-06
5.157071585e-06
5.504523958e-06
5.711380503e-06
4.039594984e-06
4.298652472e-06
4.67778452e-06
5.157751583e-06
5.709966565e-06
6.292687311e-06
6.848588632e-06
7.304706539e-06
7.576315242e-06
5.373225285e-06
5.709651422e-06
6.202062564e-06
6.825579571e-06
7.543247439e-06
8.301014557e-06
9.024411084e-06
9.618313642e-06
9.972032861e-06
7.087324638e-06
7.520311093e-06
8.154034994e-06
8.956531077e-06
9.880383607e-06
1.085617881e-05
1.178810889e-05
1.255350972e-05
1.300939586e-05
9.265616195e-06
9.817141215e-06
1.062417119e-05
1.164588234e-05
1.282187697e-05
1.406388714e-05
1.525008523e-05
1.622435096e-05
1.680454598e-05
1.20008735e-05
1.269522577e-05
1.371071598e-05
1.499552249e-05
1.647336955e-05
1.803323315e-05
1.952223856e-05
2.074467951e-05
2.147232472e-05
1.539246116e-05
1.625533801e-05
1.751622431e-05
1.910979039e-05
2.094060102e-05
2.28706901e-05
2.471103209e-05
2.62204271e-05
2.711811609e-05
1.954253838e-05
2.05997533e-05
2.214277255e-05
2.408989386e-05
2.632294904e-05
2.867276058e-05
3.090933046e-05
3.274081463e-05
3.382867926e-05
2.455091648e-05
2.582668074e-05
2.768579894e-05
3.002705795e-05
3.270585116e-05
3.551771923e-05
3.818758455e-05
4.036914951e-05
4.166274701e-05
3.050855978e-05
3.202343026e-05
3.422682885e-05
3.699477125e-05
4.015261299e-05
4.345709268e-05
4.658513043e-05
4.913407707e-05
5.06422951e-05
3.749004144e-05
3.92586906e-05
4.182555439e-05
4.504071881e-05
4.869631283e-05
5.250769276e-05
5.610249341e-05
5.902221294e-05
6.074541459e-05
4.55454939e-05
4.757452234e-05
5.051195977e-05
5.417918842e-05
5.833267763e-05
6.264514305e-05
6.669566337e-05
6.997309494e-05
7.190163951e-05
5.469280545e-05
5.697886281e-05
6.027934692e-05
6.43848666e-05
6.901490527e-05
7.379992807e-05
7.827342336e-05
8.187754603e-05
8.399037558e-05
6.491093821e-05
6.743943097e-05
7.107916264e-05
7.558893721e-05
8.065136952e-05
8.585698521e-05
9.069906843e-05
9.458205761e-05
9.685053316e-05
7.613523631e-05
7.887986741e-05
8.281840319e-05
8.767816849e-05
9.310675672e-05
9.865911619e-05
0.0001037958818
0.000107894695
0.0001102803532
8.82554646e-05
9.117876701e-05
9.536011888e-05
0.0001004973192
0.0001062067589
0.0001120143773
0.0001173579199
0.0001216014851
0.0001240625083
0.0001011171361
0.0001041720588
0.0001085273012
0.0001138548641
0.0001197458037
0.0001257057391
0.0001311610111
0.0001354731868
0.000137964952
0.0001145265599
0.0001176590858
0.0001221104297
0.0001275323141
0.0001334982478
0.0001395028053
0.0001449707573
0.000149272815
0.0001517495762
0.0001282601392
0.000131412796
0.0001358788314
0.0001412964105
0.0001472290427
0.0001531692784
0.0001585507395
0.0001627647289
0.0001651816474
0.0001420786566
0.0001451940749
0.0001495938151
0.0001549092627
0.0001607021134
0.0001664721969
0.0001716721536
0.0001757244109
0.0001780396073
0.000155738655
0.0001587612653
0.0001630167716
0.0001681368643
0.0001736897341
0.0001791915813
0.0001841234136
0.0001879478527
0.0001901242603
0.0001690006619
0.0001718789212
0.0001759185475
0.0001807586716
0.0001859820347
0.0001911295941
0.0001957187831
0.0001992596323
0.0002012664753
0.0001816389974
0.0001843276267
0.0001880891278
0.0001925769034
0.0001973956484
0.0002021183424
0.0002063052687
0.0002095190087
0.0002113327875
0.000193451592
0.0001959134496
0.0001993464848
0.0002034245399
0.0002077806504
0.0002120256487
0.0002157672611
0.0002186236409
0.0002202285784
0.000204268508
0.0002064758681
0.0002095436216
0.0002131712456
0.0002170252078
0.0002207583971
0.0002240286936
0.0002265108242
0.00022789879
0.0002139582351
0.0002158933653
0.0002185731704
0.0002217267649
0.000225057674
0.0002282633602
0.000231052764
0.0002331563861
0.0002343263701
0.0002224312314
0.0002240862714
0.0002263692687
0.0002290416682
0.0002318461619
0.0002345256741
0.0002368394933
0.0002385715892
0.0002395288286
0.0002296405775
0.0002310168046
0.0002329067701
0.000235105624
0.0002373958784
0.0002395653352
0.0002414215578
0.0002427985109
0.0002435533905
0.0002355799533
0.0002366865736
0.0002381981252
0.0002399436026
0.0002417446847
0.0002434322234
0.0002448589192
0.0002459044337
0.0002464712779
0.0002402794015
0.0002411320365
0.0002422884553
0.0002436105578
0.0002449574429
0.0002462002091
0.0002472328
0.0002479757729
0.0002483716357
0.0002437995034
0.0002444185395
0.0002452494395
0.0002461851945
0.0002471197307
0.0002479608935
0.0002486395107
0.0002491120148
0.0002493555511
0.0002462246452
0.0002466335978
0.0002471726476
0.0002477634124
0.000248331462
0.0002488174609
0.0002491845564
0.0002494200492
0.0002495305247
0.0002476560257
0.0002478800351
0.0002481628871
0.0002484519348
0.0002487008589
0.0002488790249
0.0002489773434
0.000249009171
0.0002490056463
0.000248204953
0.000248269493
0.0002483320241
0.00024836252
0.0002483391033
0.0002482557312
0.0002481266967
0.0002479869226
0.0002478876223
0.0002479868447
0.0002479166865
0.0002477936007
0.0002476070185
0.0002473558732
0.0002470547666
0.000246737289
0.0002464558449
0.0002462777066
0.0002471161934
0.0002469346361
0.0002466584386
0.0002462934165
0.0002458558534
0.000245377322
0.0002449069969
0.0002445111276
0.0002442695144
0.0002457026212
0.000245430973
0.0002450312915
0.0002445228937
0.0002439362167
0.0002433164737
0.0002427251241
0.0002422390871
0.0002419476378
0.0002438480264
0.0002435053075
0.0002430085146
0.00024238784
0.000241684998
0.0002409558921
0.0002402713916
0.0002397163604
0.0002393869515
0.0002416447403
0.0002412475672
0.0002406766489
0.00023997072
0.0002391802428
0.0002383692504
0.0002376155626
0.0002370096867
0.0002366524778
0.0002391745562
0.0002387371658
0.0002381117764
0.0002373436385
0.0002364897834
0.000235620192
0.0002348175653
0.0002341761412
0.0002337996787
0.0002365084647
0.0002360428373
0.0002353794871
0.0002345684541
0.0002336714964
0.0002327627159
0.000231927981
0.0002312636929
0.0002308750518
0.0002337069248
0.0002332229717
0.0002325352981
0.0002316972904
0.000230773902
0.0002298418509
0.0002289887754
0.000228311976
0.0002279169207
0.0002308205109
0.0002303262979
0.000229625383
0.0002287733121
0.0002278369824
0.0002268945076
0.0002260341752
0.0002253531796
0.0002249563309
0.0002278907993
0.0002273927832
0.0002266874857
0.0002258316525
0.0002248931184
0.0002239504194
0.0002230916056
0.0002224129813
0.0002220179808
0.000224951379
0.0002244546415
0.0002237519231
0.0002229004063
0.0002219680674
0.0002210331004
0.0002201826312
0.0002195114716
0.0002191211354
0.000222028902
0.0002215373702
0.0002208426018
0.0002200016201
0.0002190819233
0.0002181607751
0.0002173238536
0.0002166640279
0.000216280487
0.00021914411
0.0002186607563
0.000217977996
0.0002171522345
0.0002162500201
0.0002153472423
0.0002145277422
0.0002138821166
0.0002135069411
0.0002163127953
0.0002158398152
0.0002151720525
0.0002143649513
0.0002134837573
0.0002126026577
0.0002118033766
0.0002111740077
0.0002108083152
0.0002135466729
0.0002130856379
0.0002124350062
0.0002116490076
0.000210791329
0.0002099342226
0.0002091571005
0.0002085454002
0.0002081899479
0.0002108541497
0.0002104061377
0.0002097740924
0.0002090108502
0.0002081783601
0.0002073467799
0.0002065930829
0.000205999957
0.0002056552194
0.000208240989
0.0002078066923
0.0002071941607
0.0002064547154
0.000205648448
0.0002048433206
0.000204113793
0.0002035397558
0.000203205989
0.0002057108746
0.0002052906893
0.0002046981934
0.0002039831156
0.0002032036169
0.0002024254063
0.0002017203952
0.0002011656638
0.0002008429579
0.0002032658814
0.0002028599802
0.0002022877367
0.0002015972434
0.0002008446929
0.0002000935173
0.0001994130733
0.0001988776437
0.0001985659654
0.0002009068635
0.000200515254
0.0001999632541
0.0001992973024
0.000198571611
0.0001978473354
0.0001971912935
0.0001966750014
0.0001963742281
0.0001986337686
0.0001982563394
0.0001977244125
0.0001970827735
0.0001963836608
0.0001956859712
0.0001950540148
0.000194556583
0.0001942665297
0.0001964458904
0.0001960824472
0.0001955703108
0.0001949526275
0.0001942796823
0.0001936081436
0.0001929998538
0.0001925209306
0.0001922413705
0.000194342068
0.0001939923621
0.0001934996603
0.0001929054925
0.0001922582199
0.0001916123198
0.0001910272143
0.0001905664019
0.0001902970832
0.0001923208419
0.0001919845916
0.0001915109245
0.0001909397834
0.00019031764
0.0001896968238
0.000189134386
0.0001886912624
0.0001884319198
0.0001903805741
0.0001900574809
0.000189602427
0.0001890538006
0.0001884562219
0.0001878599172
0.0001873196178
0.0001868937534
0.0001866441179
0.0001885195389
0.0001882092995
0.0001877724321
0.0001872458043
0.000186672224
0.0001860998596
0.0001855811728
0.0001851721421
0.0001849319473
0.0001867359904
0.0001864383054
0.0001860192044
0.0001855140687
0.000184963933
0.0001844149521
0.0001839173669
0.0001835247569
0.0001832937436
0.0001850282114
0.0001847427912
0.0001843410513
0.0001838569202
0.0001833296974
0.0001828035664
0.0001823265941
0.0001819500101
0.0001817279296
0.000183394547
0.000183121116
0.0001827363521
0.0001822727634
0.0001817679499
0.0001812641648
0.0001808073437
0.0001804464125
0.0001802330288
0.0001818334273
0.0001815717265
0.0001812035768
0.000180760097
0.0001802772215
0.0001797953103
0.0001793582085
0.0001790125807
0.000178807671
0.0001803433808
0.0001800931685
0.0001797412965
0.0001793175226
0.0001788561472
0.0001783956717
0.0001779778881
0.0001776472382
0.0001774505937
0.0001789230404
0.0001786840932
0.0001783481877
0.0001779437476
0.0001775034677
0.0001770640235
0.0001766651871
0.0001763492135
0.0001761606391
0.0001775711451
0.0001773432571
0.0001770230318
0.0001766375831
0.0001762180269
0.0001757992415
0.0001754190105
0.0001751174344
0.000174936748
0.0001762865368
0.0001760695188
0.0001757647108
0.0001753979394
0.0001749987655
0.0001746002968
0.0001742383566
0.0001739509202
0.0001737779519
0.0001750681547
0.0001748618328
0.0001745722011
0.0001742238187
0.0001738447136
0.000173466247
0.0001731223077
0.0001728487727
0.0001726833639
0.0001739150269
0.0001737192416
0.0001734445644
0.0001731143061
0.0001727549814
0.0001723962269
0.0001720700203
0.0001718101653
0.0001716521675
0.0001728262617
0.0001726408653
0.0001723809382
0.0001720685595
0.0001717287484
0.0001713894372
0.0001710807143
0.0001708343327
0.000170683606
0.0001718010365
0.0001716258922
0.0001713805252
0.0001710857986
0.0001707652527
0.0001704451338
0.0001701536613
0.000169920559
0.0001697769711
0.000170838587
0.0001706735666
0.0001704425817
0.000170165294
0.0001698637795
0.0001695626164
0.0001692881737
0.0001690681664
0.0001689315912
0.0001699381961
0.0001697831782
0.0001695664069
0.0001693063554
0.0001690236502
0.0001687412171
0.0001684835931
0.0001682765042
0.0001681468205
0.0001690991824
0.0001689540506
0.0001687513309
0.0001685083207
0.0001682442104
0.0001679802892
0.0001677392794
0.0001675449373
0.0001674220275
0.0001683208888
0.0001681855299
0.0001679967041
0.0001677705451
0.0001675248198
0.0001672791963
0.0001670545998
0.000166872836
0.000166756585
0.000167602672
0.0001674769742
0.0001673018863
0.0001670923898
0.0001668648411
0.0001666373023
0.0001664289189
0.0001662595657
0.0001661498598
0.0001669438914
0.000166827743
0.0001666662364
0.0001664732127
0.0001662636305
0.0001660539613
0.0001658615888
0.0001657044772
0.0001656012029
0.0001663438999
0.0001662371873
0.0001660891027
0.0001659123583
0.0001657205279
0.0001655285084
0.0001653519404
0.0001652068984
0.0001651099413
0.0001658020339
0.0001657046405
0.0001655698137
0.0001654091488
0.0001652348484
0.0001650602514
0.0001648992746
0.0001647661252
0.0001646753696
0.0001653176052
0.0001652294097
0.0001651076698
0.0001649628762
0.0001648058745
0.0001646484628
0.0001645028551
0.0001643814151
0.0001642967425
0.0001648898923
0.0001648107678
0.0001647019356
0.0001645727946
0.0001644328483
0.000164292373
0.0001641619016
0.0001640519797
0.0001639732686
0.0001645181339
0.0001644479467
0.0001643518329
0.0001642381133
0.0001641149656
0.0001639911637
0.0001638755836
0.0001637769794
0.0001637041045
0.0001642015219
0.0001641401306
0.0001640565348
0.0001639579914
0.0001638513697
0.000163743963
0.000163643015
0.0001635555182
0.0001634883497
0.0001639391962
0.0001638864507
0.0001638151598
0.0001637315321
0.0001636411472
0.0001635498402
0.0001634632505
0.0001633866393
0.0001633250426
0.0001637302394
0.0001636859805
0.000163626768
0.0001635577789
0.0001634833232
0.0001634078027
0.000163335281
0.0001632693222
0.0001632131576
0.0001635736733
0.0001635377317
0.000163490357
0.0001634357122
0.000163376859
0.0001633167925
0.000163258032
0.0001632024797
0.0001631516019
0.0001634684554
0.0001634406517
0.0001634048593
0.000163364246
0.0001633206489
0.0001632756844
0.0001632303608
0.0001631849565
0.0001631392146
0.0001634134767
0.0001633936208
0.0001633691401
0.0001633422272
0.0001633135194
0.0001632832848
0.0001632510562
0.0001632155283
0.0001631747657
0.0001634075603
0.0001633954516
0.0001633819963
0.0001633684337
0.000163354228
0.000163338331
0.0001633188376
0.0001632929018
0.000163256956
0.0001634494607
0.0001634448875
0.000163442156
0.000163441575
0.0001634414636
0.0001634394919
0.0001634323563
0.000163415715
0.0001633844182
0.0001635378638
0.0001635406039
0.0001635482793
0.0001635602923
0.0001635738476
0.0001635853688
0.0001635901962
0.0001635825396
0.0001635557182
0.0001636713878
0.0001636812086
0.000163698959
0.0001637231605
0.0001637499348
0.0001637744975
0.0001637908765
0.0001637918823
0.0001637693576
0.0001638485854
0.0001638652439
0.000163892723
0.0001639286898
0.0001639682168
0.0001640053511
0.0001640328541
0.0001640421886
0.0001640237769
0.0001640679456
0.0001640911894
0.0001641280368
0.0001641753293
0.0001642271245
0.0001642763431
0.0001643145273
0.0001643318461
0.0001643173592
0.0001643278972
0.0001643574648
0.0001644033074
0.00016446147
0.0001645250324
0.0001645858315
0.0001646342404
0.0001646591889
0.0001646484345
0.0001646268127
0.0001646624342
0.0001647168869
0.0001647854497
0.0001648602628
0.0001649321241
0.0001649902883
0.000165022503
0.0001650152855
0.0001649630132
0.0001650044109
0.0001650670777
0.000165145558
0.0001652310916
0.0001653134833
0.0001653809222
0.0001654200321
0.0001654161527
0.000165334773
0.0001653816627
0.0001654521382
0.0001655400418
0.0001656357536
0.0001657281328
0.0001658043565
0.000165849984
0.0001658492419
0.0001657403265
0.0001657924183
0.0001658702889
0.0001659671122
0.0001660724501
0.0001661742644
0.0001662587753
0.0001663105379
0.0001663127308
0.0001661778743
0.0001662348738
0.0001663197196
0.0001664249515
0.0001665393556
0.000166650046
0.0001667423408
0.0001667998526
0.0001668047776
0.0001666455914
0.0001667072009
0.0001667985975
0.0001669117216
0.0001670346269
0.0001671536295
0.000167253202
0.0001673160756
0.0001673235303
0.0001671416352
0.000167207555
0.0001673050754
0.0001674255726
0.0001675564116
0.0001676831611
0.0001677895045
0.0001678573529
0.0001678671364
0.0001676641549
0.0001677340852
0.0001678373021
0.0001679646533
0.0001681028594
0.0001682367919
0.0001683494013
0.0001684218404
0.0001684337542
0.0001682113023
0.0001682849447
0.0001683934331
0.0001685271222
0.0001686721326
0.0001688126893
0.0001689310656
0.0001690077162
0.0001690215662
0.0001687812434
0.0001688583027
0.0001689716424
0.0001691111601
0.0001692624201
0.0001694090509
0.0001695327039
0.0001696131952
0.0001696287927
0.0001693721712
0.0001694523581
0.0001695701371
0.0001697149843
0.0001698719516
0.0001700241199
0.0001701525726
0.0001702365449
0.0001702537087
0.0001699823212
0.000170065354
0.0001701871721
0.0001703368649
0.0001704990143
0.0001706562019
0.0001707889952
0.0001708761038
0.000170894662
0.0001706099876
0.0001706955958
0.0001708210686
0.0001709751426
0.000171141972
0.000171303685
0.0001714403828
0.0001715303025
0.0001715500951
0.0001712535428
0.0001713414699
0.0001714702334
0.0001716282502
0.0001717992867
0.0001719650618
0.0001721052577
0.0001721976873
0.0001722185688
0.0001719114588
0.000172001466
0.0001721331819
0.0001722947353
0.0001724695427
0.0001726389553
0.0001727822791
0.0001728769472
0.0001728987902
0.0001725823313
0.0001726742018
0.0001728085637
0.0001729732871
0.0001731514745
0.000173324147
0.0001734702731
0.0001735669446
0.0001735896431
0.0001732649074
0.000173358451
0.0001734951911
0.0001736627665
0.0001738439976
0.0001740196093
0.0001741682657
0.0001742667492
0.0001742902229
0.0001739581157
0.0001740531743
0.0001741920711
0.0001743622381
0.0001745462423
0.0001747245404
0.0001748755192
0.0001749756753
0.0001749998744
0.0001746610995
0.000174757553
0.0001748984402
0.0001750710068
0.0001752575909
0.0001754384031
0.0001755915717
0.0001756933219
0.0001757182325
0.0001753732533
0.0001754710262
0.0001756138016
0.0001757886563
0.0001759777174
0.000176160965
0.0001763162786
0.0001764196156
0.0001764452656
0.0001760942607
0.0001761933293
0.0001763379655
0.0001765150893
0.0001767066289
0.0001768923413
0.0001770498563
0.0001771548545
0.0001771813193
0.0001768241351
0.0001769245345
0.0001770710892
0.0001772505688
0.0001774447077
0.0001776330369
0.0001777929247
0.0001778997511
0.0001779271603
0.0001775632586
0.0001776650908
0.0001778137178
0.0001779957592
0.0001781927518
0.0001783839877
0.0001785465481
0.0001786554733
0.0001786840168
0.0001783124217
0.0001784158628
0.0001785668227
0.0001787517636
0.0001789520125
0.0001791465972
0.0001793122717
0.0001794236802
0.0001794536143
0.000179072858
0.0001791781654
0.0001793318352
0.0001795201578
0.0001797242263
0.0001799227669
0.0001800921502
0.0001802065494
0.0001802382019
0.0001798462744
0.0001799537925
0.0001801106745
0.0001803030145
0.0001805116379
0.0001807149169
0.0001808887663
0.0001810067934
0.0001810405668
0.0001806348718
0.0001807450369
0.0001809057643
0.0001811029188
0.0001813170111
0.0001815259931
0.0001817052337
0.0001818276595
0.0001818640339
0.0001814413551
0.0001815546972
0.0001817200377
0.0001819229678
0.0001821436246
0.0001823594581
0.0001825451834
0.0001826729125
0.0001827124443
0.0001822689276
0.0001823860708
0.0001825569249
0.0001827667539
0.000182995249
0.0001832192615
0.0001834127283
0.0001835467932
0.0001835901118
0.0001831212692
0.000183242927
0.0001834203225
0.0001836383272
0.0001838761019
0.0001841097877
0.0001843124032
0.0001844539536
0.0001845017545
0.0001840024924
0.0001841294605
0.0001843145402
0.0001845421353
0.0001847907793
0.0001850357788
0.0001852490796
0.0001853993646
0.0001854523978
0.0001849170779
0.0001850502213
0.0001852442247
0.0001854829391
0.0001857441626
0.0001860022318
0.0001862278543
0.0001863881968
0.0001864472516
0.0001858697853
0.0001860100214
0.0001862142593
0.0001864657038
0.0001867413003
0.0001870142707
0.0001872539127
0.0001874256774
0.0001874915629
0.0001868655418
0.0001870138183
0.0001872296413
0.000187495468
0.0001877872674
0.0001880769974
0.0001883323706
0.0001885169253
0.0001885904466
0.0001879093091
0.0001880665782
0.0001882953379
0.0001885771927
0.0001888870073
0.0001891953247
0.0001894681013
0.0001896667725
0.0001897487045
0.0001890059339
0.0001891731221
0.0001894161284