/*--------------------------------*- C++ -*----------------------------------*\
| =========                 |                                                 |
| \\      /  F ield         | OpenFOAM: The Open Source CFD Toolbox           |
|  \\    /   O peration     | Version:  2212                                  |
|   \\  /    A nd           | Website:  www.openfoam.com                      |
|    \\/     M anipulation  |                                                 |
\*---------------------------------------------------------------------------*/
FoamFile
{
    version     2.0;
    format      ascii;
    arch        "LSB;label=32;scalar=64";
    class       volScalarField;
    location    "2.75000000";
    object      C5H5;
}
// * * * * * * * * * * * * * * * * * * * * * * * * * * * * * * * * * * * * * //

dimensions      [0 0 0 0 0 0 0];

internalField   nonuniform List<scalar> 
3000
(
3.115131699e-23
3.610541094e-23
4.364931836e-23
5.381570757e-23
6.655710365e-23
8.155663495e-23
9.791358481e-23
1.136357816e-22
1.2491737e-22
1.212435349e-22
1.41346129e-22
1.719905976e-22
2.134514488e-22
2.659434074e-22
3.292757837e-22
4.022280719e-22
4.808153219e-22
5.502808871e-22
2.89059856e-22
3.405396028e-22
4.199239529e-22
5.293811988e-22
6.718145822e-22
8.499321447e-22
1.063231855e-21
1.299544092e-21
1.503010582e-21
5.999894451e-22
7.164046191e-22
8.990637521e-22
1.157161279e-21
1.503055594e-21
1.948527065e-21
2.493454798e-21
3.095536592e-21
3.58969031e-21
1.184751438e-21
1.436236665e-21
1.83825398e-21
2.41955016e-21
3.217159623e-21
4.263550964e-21
5.550186556e-21
6.945024347e-21
8.040790018e-21
2.302180668e-21
2.833390146e-21
3.697099532e-21
4.969693561e-21
6.744990832e-21
9.095893937e-21
1.197764123e-20
1.504043166e-20
1.737022987e-20
4.468717991e-21
5.576464479e-21
7.402469159e-21
1.013027679e-20
1.397492425e-20
1.908224648e-20
2.53023623e-20
3.180316391e-20
3.663698645e-20
8.710869725e-21
1.099826934e-20
1.480802812e-20
2.055348771e-20
2.869884477e-20
3.951901352e-20
5.260655281e-20
6.610854512e-20
7.599239378e-20
1.706785756e-20
2.175169987e-20
2.9610406e-20
4.15346579e-20
5.848898031e-20
8.097537845e-20
1.080065313e-19
1.356261919e-19
1.556289505e-19
3.357661331e-20
4.309308792e-20
5.914004583e-20
8.357889863e-20
1.183654076e-19
1.644031173e-19
2.19459722e-19
2.753130591e-19
3.154562904e-19
6.620184231e-20
8.539623113e-20
1.178666701e-19
1.674186392e-19
2.379528815e-19
3.310865485e-19
4.419929087e-19
5.539014561e-19
6.338914171e-19
1.30590279e-19
1.690376102e-19
2.342042967e-19
3.337449639e-19
4.753490806e-19
6.619060597e-19
8.832864226e-19
1.105746883e-18
1.264108455e-18
2.573348569e-19
3.338411884e-19
4.63654199e-19
6.619809697e-19
9.438447992e-19
1.314398278e-18
1.752806484e-18
2.191890179e-18
2.503576904e-18
5.059301964e-19
6.572008862e-19
9.139927359e-19
1.306224372e-18
1.863040054e-18
2.593575276e-18
3.455460606e-18
4.315997765e-18
4.926363504e-18
9.913968298e-19
1.288596966e-18
1.79315372e-18
2.563452415e-18
3.65570432e-18
5.086013834e-18
6.768853993e-18
8.443411882e-18
9.632853599e-18
1.934750484e-18
2.514874348e-18
3.499514907e-18
5.001701454e-18
7.129366815e-18
9.912110064e-18
1.318420782e-17
1.643988609e-17
1.872521312e-17
3.758230725e-18
4.8831733e-18
6.791468658e-18
9.699848257e-18
1.381318332e-17
1.918271596e-17
2.548135345e-17
3.17309868e-17
3.611896303e-17
7.264319177e-18
9.431889659e-18
1.310608391e-17
1.86993115e-17
2.659788651e-17
3.689038157e-17
4.894061257e-17
6.087437948e-17
6.924170634e-17
1.397031157e-17
1.812166299e-17
2.515253742e-17
3.584270505e-17
5.091674463e-17
7.052729149e-17
9.34482165e-17
1.161103943e-16
1.31974158e-16
2.673009044e-17
3.463497864e-17
4.801084924e-17
6.832335883e-17
9.692430415e-17
1.340744831e-16
1.774270759e-16
2.202243138e-16
2.50136178e-16
5.088363766e-17
6.585211927e-17
9.115633503e-17
1.295352981e-16
1.834971868e-16
2.534821812e-16
3.350265866e-16
4.154074401e-16
4.715044046e-16
9.637168017e-17
1.245622379e-16
1.721717659e-16
2.442901583e-16
3.455456914e-16
4.766700781e-16
6.292235984e-16
7.793846307e-16
8.840343135e-16
1.816071057e-16
2.34419407e-16
3.235219209e-16
4.583214204e-16
6.473121675e-16
8.916882819e-16
1.175582696e-15
1.454633107e-15
1.648850382e-15
3.405292527e-16
4.38960289e-16
6.048593424e-16
8.555189102e-16
1.206445848e-15
1.659545515e-15
2.185150661e-15
2.701086383e-15
3.059703223e-15
6.353991298e-16
8.179377034e-16
1.125276128e-15
1.589037373e-15
2.237381047e-15
3.073261156e-15
4.041509719e-15
4.990674206e-15
5.649585796e-15
1.179901297e-15
1.516769719e-15
2.083356102e-15
2.937192173e-15
4.129140581e-15
5.663588323e-15
7.438465863e-15
9.176028022e-15
1.03807227e-14
2.180674635e-15
2.799410697e-15
3.838964185e-15
5.403468011e-15
7.584290515e-15
1.038750069e-14
1.362513005e-14
1.679029311e-14
1.89818803e-14
4.0116535e-15
5.142873446e-15
7.041382596e-15
9.894687494e-15
1.386597942e-14
1.896259691e-14
2.483990081e-14
3.057725527e-14
3.454434536e-14
7.346525446e-15
9.405424943e-15
1.285693352e-14
1.803689701e-14
2.523499798e-14
3.445736227e-14
4.50746705e-14
5.54227468e-14
6.256720581e-14
1.339366418e-14
1.712451851e-14
2.337146214e-14
3.273271621e-14
4.571904276e-14
6.232730644e-14
8.141262436e-14
9.998110152e-14
1.127796446e-13
2.4310805e-14
3.104195004e-14
4.22984179e-14
5.913950711e-14
8.245893999e-14
1.122224751e-13
1.463543706e-13
1.794946709e-13
2.022932244e-13
4.393321247e-14
5.602463174e-14
7.621764953e-14
1.063759336e-13
1.480495499e-13
2.011186863e-13
2.618316799e-13
3.20640969e-13
3.610070595e-13
7.904529336e-14
1.006697502e-13
1.367294757e-13
1.904796718e-13
2.645808188e-13
3.586985821e-13
4.660723991e-13
5.6978633e-13
6.407830444e-13
1.41588016e-13
1.800853587e-13
2.441747939e-13
3.394953489e-13
4.705563512e-13
6.365147478e-13
8.252241467e-13
1.00688754e-12
1.130842958e-12
2.524661561e-13
3.206738355e-13
4.340110503e-13
6.02153458e-13
8.326278429e-13
1.123431408e-12
1.452811658e-12
1.768619441e-12
1.98327558e-12
4.480691784e-13
5.682983943e-13
7.676479462e-13
1.062535078e-12
1.465288022e-12
1.971343181e-12
2.54189224e-12
3.086327686e-12
3.4546953e-12
7.913562083e-13
1.002109545e-12
1.350690421e-12
1.864590529e-12
2.563531748e-12
3.437455934e-12
4.417451234e-12
5.347386911e-12
5.973242797e-12
1.39054788e-12
1.757742925e-12
2.36333793e-12
3.252659071e-12
4.456326291e-12
5.952813684e-12
7.620487617e-12
9.192835921e-12
1.024461751e-11
2.43037336e-12
3.065860644e-12
4.110476708e-12
5.637590532e-12
7.692929571e-12
1.023168962e-11
1.304081356e-11
1.567020698e-11
1.74171329e-11
4.223824261e-12
5.315514291e-12
7.103235834e-12
9.703195556e-12
1.318018203e-11
1.7443467e-11
2.212338408e-11
2.646883985e-11
2.933448244e-11
7.29702985e-12
9.157153223e-12
1.219008772e-11
1.657520491e-11
2.239754689e-11
2.947840858e-11
3.718370865e-11
4.427644384e-11
4.891680608e-11
1.252698682e-11
1.56681072e-11
2.076480038e-11
2.808555511e-11
3.772875758e-11
4.935216585e-11
6.188256484e-11
7.331131843e-11
8.07268873e-11
2.136254866e-11
2.661514118e-11
3.509179951e-11
4.717975452e-11
6.296561078e-11
8.181226864e-11
1.01930226e-10
1.201059837e-10
1.31800487e-10
3.617476282e-11
4.486565946e-11
5.880821595e-11
7.853579976e-11
1.040623029e-10
1.342349233e-10
1.661176947e-10
1.946471341e-10
2.128501438e-10
6.080521426e-11
7.502318693e-11
9.768796175e-11
1.294915938e-10
1.702499449e-10
2.17934703e-10
2.67809725e-10
3.120167158e-10
3.399932419e-10
1.014128418e-10
1.243962466e-10
1.607890678e-10
2.114167708e-10
2.756635447e-10
3.500565274e-10
4.270853985e-10
4.947334169e-10
5.372117362e-10
1.677636462e-10
2.044557094e-10
2.621545076e-10
3.41717925e-10
4.41691933e-10
5.562832243e-10
6.737815272e-10
7.760680081e-10
8.398278433e-10
2.751674594e-10
3.32998047e-10
4.233032048e-10
5.467384065e-10
7.003402994e-10
8.746788581e-10
1.051788473e-09
1.204706361e-09
1.299384e-09
4.473462592e-10
5.373159016e-10
6.768377231e-10
8.659115645e-10
1.099002242e-09
1.36110544e-09
1.625075106e-09
1.851269005e-09
1.990455191e-09
7.206258879e-10
8.58790095e-10
1.071616057e-09
1.357658012e-09
1.707182491e-09
2.096808133e-09
2.486089697e-09
2.817376459e-09
3.020108302e-09
1.149986622e-09
1.359468394e-09
1.680097291e-09
2.107693864e-09
2.625903801e-09
3.198973211e-09
3.767408906e-09
4.248188773e-09
4.540969502e-09
1.8177009e-09
2.13139977e-09
2.608688716e-09
3.240651745e-09
4.000785162e-09
4.835336518e-09
5.657799829e-09
6.349657122e-09
6.769182142e-09
2.845546845e-09
3.309768426e-09
4.012215169e-09
4.936227624e-09
6.040107928e-09
7.244269127e-09
8.424231297e-09
9.412113497e-09
1.00089418e-08
4.411938456e-09
5.091252272e-09
6.114034962e-09
7.45148432e-09
9.039611672e-09
1.076219665e-08
1.244181607e-08
1.384229455e-08
1.468577102e-08
6.775400351e-09
7.759024384e-09
9.233336201e-09
1.115112659e-08
1.341623541e-08
1.586095905e-08
1.823447659e-08
2.020661892e-08
2.13912737e-08
1.030704201e-08
1.171737379e-08
1.38228794e-08
1.654908689e-08
1.975396109e-08
2.319798798e-08
2.652917626e-08
2.928864061e-08
3.094247972e-08
1.553524747e-08
1.753912185e-08
2.05203218e-08
2.436471099e-08
2.886547747e-08
3.36835761e-08
3.832828774e-08
4.216539033e-08
4.446046692e-08
2.320638118e-08
2.602984937e-08
3.021752062e-08
3.559833561e-08
4.187474452e-08
4.857054557e-08
5.500586755e-08
6.030915862e-08
6.347562208e-08
3.436668576e-08
3.83142542e-08
4.415328214e-08
5.163190302e-08
6.032641181e-08
6.957290377e-08
7.843553175e-08
8.572366092e-08
9.006915639e-08
5.047124179e-08
5.595059568e-08
6.403567358e-08
7.436108192e-08
8.632935835e-08
9.902217825e-08
1.111601006e-07
1.211250756e-07
1.2706074e-07
7.35260226e-08
8.107947169e-08
9.220071618e-08
1.063669929e-07
1.227445836e-07
1.400737401e-07
1.566157056e-07
1.701798498e-07
1.782539997e-07
1.062694407e-07
1.166144141e-07
1.318169975e-07
1.511399671e-07
1.734322157e-07
1.969778428e-07
2.194239596e-07
2.378132338e-07
2.487546418e-07
1.524042728e-07
1.664875288e-07
1.871521754e-07
2.133726028e-07
2.435733506e-07
2.754291291e-07
3.05766481e-07
3.306039819e-07
3.453770083e-07
2.168998412e-07
2.359702509e-07
2.639196636e-07
2.993365453e-07
3.400785769e-07
3.830072956e-07
4.238556891e-07
4.572791629e-07
4.771523448e-07
3.063813942e-07
3.320821721e-07
3.697140993e-07
4.173500596e-07
4.720916986e-07
5.2971842e-07
5.845105301e-07
6.29315703e-07
6.559438193e-07
4.296061305e-07
4.64086632e-07
5.145353102e-07
5.783376085e-07
6.515897975e-07
7.286353717e-07
8.018311899e-07
8.616384777e-07
8.971547157e-07
5.980164015e-07
6.44064219e-07
7.113913922e-07
7.964695586e-07
8.940615761e-07
9.96611265e-07
1.093938519e-06
1.173372442e-06
1.220481214e-06
8.263482346e-07
8.875393883e-07
9.769498622e-07
1.089840046e-06
1.2192095e-06
1.354997739e-06
1.483695179e-06
1.588552055e-06
1.65060346e-06
1.133244894e-06
1.214100179e-06
1.332162824e-06
1.481092532e-06
1.651565275e-06
1.830234909e-06
1.999252329e-06
2.136611678e-06
2.217625631e-06
1.541773998e-06
1.647897409e-06
1.802734226e-06
1.997836271e-06
2.220832175e-06
2.454094389e-06
2.674172531e-06
2.852383044e-06
2.956977062e-06
2.079688182e-06
2.2178466e-06
2.419227513e-06
2.672620111e-06
2.961684087e-06
3.263268114e-06
3.54678961e-06
3.775239602e-06
3.908406278e-06
2.779208269e-06
2.957293476e-06
3.216548463e-06
3.542166787e-06
3.912691129e-06
4.297943932e-06
4.658429617e-06
4.947014253e-06
5.11371842e-06
3.676069373e-06
3.902870826e-06
4.232514737e-06
4.645563277e-06
5.114057229e-06
5.599054797e-06
6.050199622e-06
6.408442714e-06
6.613032598e-06
4.807590122e-06
5.092310602e-06
5.505286641e-06
6.021204816e-06
6.604007704e-06
7.20410106e-06
7.758321646e-06
8.19406066e-06
8.439245429e-06
6.209641798e-06
6.561120358e-06
7.069623844e-06
7.702541974e-06
8.414000293e-06
9.141888072e-06
9.808352567e-06
1.032593415e-05
1.06119143e-05
7.912628664e-06
8.338302053e-06
8.952253886e-06
9.713064485e-06
1.056339155e-05
1.142667363e-05
1.220896387e-05
1.280781181e-05
1.313153379e-05
9.936925089e-06
1.044165146e-05
1.116705419e-05
1.206138898e-05
1.305400331e-05
1.405275408e-05
1.494723322e-05
1.562080402e-05
1.597564651e-05
1.228860686e-05
1.287352036e-05
1.37105875e-05
1.47363945e-05
1.586604797e-05
1.699141966e-05
1.798629309e-05
1.872184453e-05
1.909789593e-05
1.495547951e-05
1.561671034e-05
1.655853275e-05
1.770509441e-05
1.895697898e-05
2.01907329e-05
2.126620916e-05
2.20455099e-05
2.243042477e-05
1.790477739e-05
1.863320526e-05
1.966545873e-05
2.091320756e-05
2.226321548e-05
2.357853696e-05
2.470814255e-05
2.550901897e-05
2.588928157e-05
2.108407287e-05
2.186553757e-05
2.296700557e-05
2.428852416e-05
2.570481517e-05
2.706838881e-05
2.822130157e-05
2.901980618e-05
2.938218965e-05
2.442422801e-05
2.524043503e-05
2.638451947e-05
2.774673022e-05
2.919256755e-05
3.056785436e-05
3.171222094e-05
3.248542955e-05
3.281865804e-05
2.784428091e-05
2.867436875e-05
2.983154178e-05
3.119906077e-05
3.26370001e-05
3.398905773e-05
3.509703384e-05
3.582755768e-05
3.612511164e-05
3.125763779e-05
3.208034708e-05
3.322151822e-05
3.456132131e-05
3.595936362e-05
3.726278444e-05
3.832049394e-05
3.900777564e-05
3.92769336e-05
3.457908954e-05
3.537551157e-05
3.6476406e-05
3.776429043e-05
3.910550067e-05
4.035944522e-05
4.139137488e-05
4.208945093e-05
4.23938786e-05
3.773275388e-05
3.84897776e-05
3.953665265e-05
4.076627931e-05
4.206377351e-05
4.331943611e-05
4.444511869e-05
4.539149575e-05
4.618875188e-05
4.06624767e-05
4.1377575e-05
4.237546922e-05
4.357168456e-05
4.488997204e-05
4.628538468e-05
4.778115543e-05
4.953062221e-05
5.086283206e-05
4.334981552e-05
4.403944884e-05
4.502778985e-05
4.627350119e-05
4.777234992e-05
4.959343626e-05
5.203647658e-05
5.441772101e-05
5.603806481e-05
4.585428629e-05
4.657113347e-05
4.765888463e-05
4.916193593e-05
5.125638553e-05
5.399455165e-05
5.696956881e-05
5.965805434e-05
6.141738501e-05
4.842113261e-05
4.928792244e-05
5.073465884e-05
5.296624494e-05
5.576471081e-05
5.894045989e-05
6.215996524e-05
6.49698552e-05
6.677527029e-05
5.185659873e-05
5.314186395e-05
5.509322949e-05
5.767986635e-05
6.074577645e-05
6.407136036e-05
6.73459354e-05
7.015419782e-05
7.194121335e-05
5.647806977e-05
5.791745305e-05
6.003400138e-05
6.272744331e-05
6.583635175e-05
6.913914391e-05
7.234237762e-05
7.50617312e-05
7.678226954e-05
6.154785749e-05
6.300992247e-05
6.512942522e-05
6.778178481e-05
7.07999154e-05
7.396772802e-05
7.701063195e-05
7.957609658e-05
8.119293058e-05
6.667093883e-05
6.808357703e-05
7.011519311e-05
7.263360102e-05
7.5472657e-05
7.842694853e-05
8.1244024e-05
8.360610073e-05
8.509022256e-05
7.161068228e-05
7.292938962e-05
7.481528112e-05
7.713684688e-05
7.973459229e-05
8.241817783e-05
8.496066804e-05
8.708206343e-05
8.841146925e-05
7.620863803e-05
7.740337845e-05
7.910372568e-05
8.118398313e-05
8.349570894e-05
8.586724589e-05
8.809999661e-05
8.995405635e-05
9.111315139e-05
8.035026329e-05
8.140011104e-05
8.288707808e-05
8.469493413e-05
8.668967403e-05
8.872111132e-05
9.062099567e-05
9.219081327e-05
9.317000962e-05
8.395070378e-05
8.484162826e-05
8.609682598e-05
8.761227549e-05
8.927095729e-05
9.094612496e-05
9.250099579e-05
9.377867132e-05
9.457396882e-05
8.694904083e-05
8.767288331e-05
8.868612318e-05
8.989898319e-05
9.12132309e-05
9.252673475e-05
9.373442799e-05
9.472023317e-05
9.533268857e-05
8.930580304e-05
8.985963686e-05
9.062807035e-05
9.153697668e-05
9.250801216e-05
9.346408062e-05
9.433128367e-05
9.503269118e-05
9.546779364e-05
9.100144281e-05
9.138699791e-05
9.191428839e-05
9.252565244e-05
9.316309108e-05
9.37742892e-05
9.431527264e-05
9.474584537e-05
9.501279365e-05
9.203479792e-05
9.225783669e-05
9.255325166e-05
9.288012228e-05
9.320065824e-05
9.348647214e-05
9.372169493e-05
9.389988546e-05
9.401081639e-05
9.242122855e-05
9.249087378e-05
9.256830723e-05
9.262913639e-05
9.265512797e-05
9.264047168e-05
9.25951388e-05
9.254306548e-05
9.251227581e-05
9.219039433e-05
9.211841434e-05
9.19953579e-05
9.181272565e-05
9.157075901e-05
9.128448278e-05
9.098712692e-05
9.072938728e-05
9.0572587e-05
9.13837299e-05
9.118382127e-05
9.088034174e-05
9.047970436e-05
8.999920366e-05
8.947267263e-05
8.895382299e-05
8.8516395e-05
8.825002338e-05
9.005177671e-05
8.973887818e-05
8.927664814e-05
8.868516499e-05
8.799710736e-05
8.726290649e-05
8.655389349e-05
8.596316213e-05
8.560378827e-05
8.825151737e-05
8.784118291e-05
8.724260228e-05
8.648808421e-05
8.562386294e-05
8.471466762e-05
8.384659583e-05
8.31285285e-05
8.269234969e-05
8.604384224e-05
8.555169325e-05
8.483912777e-05
8.394913562e-05
8.293959845e-05
8.188723362e-05
8.089013987e-05
8.006962112e-05
7.957206381e-05
8.349125005e-05
8.293251804e-05
8.212766927e-05
8.112877675e-05
8.000345127e-05
7.883814651e-05
7.774034619e-05
7.684067145e-05
7.629609312e-05
8.065585192e-05
8.004501605e-05
7.916842669e-05
7.808564991e-05
7.687215483e-05
7.562199096e-05
7.444960462e-05
7.349212373e-05
7.291360874e-05
7.759771786e-05
7.694823485e-05
7.601892523e-05
7.48753113e-05
7.359894284e-05
7.228947554e-05
7.106612008e-05
7.007001557e-05
6.946925445e-05
7.43735769e-05
7.369769685e-05
7.273292179e-05
7.154928209e-05
7.023275734e-05
6.888679778e-05
6.763342101e-05
6.661560237e-05
6.600284206e-05
7.103586038e-05
7.034451844e-05
6.935963004e-05
6.815439939e-05
6.681773462e-05
6.54552629e-05
6.419009804e-05
6.31651914e-05
6.254924313e-05
6.763206158e-05
6.693483408e-05
6.59432335e-05
6.473243405e-05
6.339293411e-05
6.203112061e-05
6.07697364e-05
5.975014922e-05
5.913844098e-05
6.420437411e-05
6.350948689e-05
6.252264792e-05
6.13199366e-05
5.99922715e-05
5.86455814e-05
5.740100483e-05
5.639704616e-05
5.579570755e-05
6.078956586e-05
6.0103943e-05
5.913149057e-05
5.794826964e-05
5.664461595e-05
5.532497449e-05
5.410786489e-05
5.312790407e-05
5.254187278e-05
5.741904343e-05
5.674838547e-05
5.579821375e-05
5.464378613e-05
5.337401326e-05
5.20910115e-05
5.090986785e-05
4.996051672e-05
4.939365765e-05
5.411906363e-05
5.346794564e-05
5.254636236e-05
5.142811557e-05
5.019999972e-05
4.896112416e-05
4.782251022e-05
4.690881677e-05
4.636404621e-05
5.091105195e-05
5.028303321e-05
4.93949188e-05
4.83185245e-05
4.71379761e-05
4.594884838e-05
4.48576239e-05
4.398326716e-05
4.34626763e-05
4.78119927e-05
4.720973147e-05
4.635870411e-05
4.532832272e-05
4.419961735e-05
4.306423264e-05
4.202377922e-05
4.119125916e-05
4.069623338e-05
4.483486221e-05
4.426023081e-05
4.344881048e-05
4.246729179e-05
4.139329242e-05
4.031424945e-05
3.932668805e-05
3.853750512e-05
3.806883519e-05
4.198907916e-05
4.144327439e-05
4.067303956e-05
3.97421142e-05
3.872448409e-05
3.770320153e-05
3.676959397e-05
3.602441438e-05
3.558239828e-05
3.928095309e-05
3.876460039e-05
3.803633547e-05
3.715679379e-05
3.61961928e-05
3.52331078e-05
3.435364054e-05
3.365244584e-05
3.323698021e-05
3.671411898e-05
3.622736832e-05
3.554119882e-05
3.4713054e-05
3.380931673e-05
3.290406406e-05
3.207821282e-05
3.142043297e-05
3.103109386e-05
3.428994693e-05
3.383255944e-05
3.318807366e-05
3.241070798e-05
3.156300278e-05
3.07145737e-05
2.994124866e-05
2.932587864e-05
2.896199176e-05
3.200792042e-05
3.157934538e-05
3.097570233e-05
3.024799635e-05
2.945496513e-05
2.866184638e-05
2.793951851e-05
2.736521908e-05
2.702592014e-05
2.986597958e-05
2.946542189e-05
2.890144555e-05
2.822189066e-05
2.748177016e-05
2.6742064e-05
2.606887343e-05
2.553405716e-05
2.521834302e-05
2.786082783e-05
2.748730638e-05
2.696156704e-05
2.632836222e-05
2.563908789e-05
2.495061443e-05
2.432446245e-05
2.382736614e-05
2.353413759e-05
2.598820215e-05
2.564059957e-05
2.515148318e-05
2.456261723e-05
2.392191116e-05
2.328229449e-05
2.270092052e-05
2.223966557e-05
2.196776275e-05
2.424310805e-05
2.392021282e-05
2.346597929e-05
2.29192998e-05
2.232474417e-05
2.173148412e-05
2.119252948e-05
2.07651715e-05
2.051340272e-05
2.262002161e-05
2.2320563e-05
2.189939472e-05
2.139266528e-05
2.084176306e-05
2.029229406e-05
1.979335399e-05
1.9397923e-05
1.916508799e-05
2.111306079e-05
2.083573771e-05
2.044577937e-05
1.997672632e-05
1.946695067e-05
1.895868948e-05
1.849735508e-05
1.813188764e-05
1.791679595e-05
1.971612918e-05
1.945963353e-05
1.909902434e-05
1.866537448e-05
1.819420842e-05
1.772459221e-05
1.729848356e-05
1.696104803e-05
1.676253329e-05
1.842303487e-05
1.818607022e-05
1.785296954e-05
1.745248006e-05
1.70174477e-05
1.658396387e-05
1.619075583e-05
1.587947173e-05
1.569640249e-05
1.72275874e-05
1.700888361e-05
1.670149102e-05
1.633197273e-05
1.593066345e-05
1.553087244e-05
1.516831415e-05
1.488136663e-05
1.471265432e-05
1.612367562e-05
1.592200006e-05
1.56385706e-05
1.529790556e-05
1.492799216e-05
1.45595444e-05
1.422547356e-05
1.396112383e-05
1.380572838e-05
1.510532889e-05
1.491949475e-05
1.465835027e-05
1.43445047e-05
1.400375647e-05
1.366440448e-05
1.335675734e-05
1.311334975e-05
1.297028322e-05
1.416676415e-05
1.399563637e-05
1.375517348e-05
1.346620673e-05
1.315249853e-05
1.284010497e-05
1.255692275e-05
1.233288912e-05
1.220121784e-05
1.330242087e-05
1.314492016e-05
1.292361548e-05
1.265768584e-05
1.236900361e-05
1.208154609e-05
1.182097855e-05
1.161484038e-05
1.14936858e-05
1.250698602e-05
1.236209113e-05
1.21585043e-05
1.191387217e-05
1.164831587e-05
1.138388909e-05
1.114419581e-05
1.095456466e-05
1.084310321e-05
1.177541045e-05
1.164215925e-05
1.145493416e-05
1.122996315e-05
1.098574733e-05
1.074256317e-05
1.052211301e-05
1.034768957e-05
1.024515182e-05
1.110291843e-05
1.098040791e-05
1.08082725e-05
1.060142883e-05
1.037688163e-05
1.015326758e-05
9.950536728e-06
9.790108843e-06
9.695778032e-06
1.048501155e-05
1.037239698e-05
1.021416195e-05
1.00240126e-05
9.817573358e-06
9.611969643e-06
9.425538613e-06
9.277978487e-06
9.191188633e-06
9.917468068e-06
9.813961617e-06
9.668518237e-06
9.493728133e-06
9.303943907e-06
9.114899751e-06
8.943449561e-06
8.807710425e-06
8.727844151e-06
9.396338814e-06
9.301207606e-06
9.167524911e-06
9.006853296e-06
8.832374752e-06
8.658543898e-06
8.500851706e-06
8.375964073e-06
8.302450222e-06
8.917940155e-06
8.830504026e-06
8.70762556e-06
8.559921927e-06
8.399498645e-06
8.239634431e-06
8.094568792e-06
7.979636461e-06
7.911947594e-06
8.478844982e-06
8.398474006e-06
8.285514248e-06
8.149713896e-06
8.002189358e-06
7.855139496e-06
7.721655397e-06
7.61585132e-06
7.553501149e-06
8.075872171e-06
8.001984028e-06
7.898124626e-06
7.77324401e-06
7.637550392e-06
7.502251594e-06
7.379385384e-06
7.281947489e-06
7.224488307e-06
7.706074982e-06
7.63813226e-06
7.542618168e-06
7.427750162e-06
7.302903051e-06
7.178375604e-06
7.065239924e-06
6.97546695e-06
6.922487102e-06
7.366728824e-06
7.304236285e-06
7.216371882e-06
7.110681026e-06
6.99577415e-06
6.881116546e-06
6.776895315e-06
6.694142742e-06
6.645264138e-06
7.055318646e-06
6.997820525e-06
6.916965769e-06
6.819683582e-06
6.71388363e-06
6.608267296e-06
6.512210833e-06
6.435886913e-06
6.390762648e-06
6.769526253e-06
6.716603605e-06
6.642170273e-06
6.552590679e-06
6.45513226e-06
6.357796453e-06
6.269216757e-06
6.198778706e-06
6.157090761e-06
6.507217706e-06
6.458485832e-06
6.389933882e-06
6.307408791e-06
6.217589575e-06
6.127836473e-06
6.046102701e-06
5.981053059e-06
5.942510121e-06
6.266430981e-06
6.221536961e-06
6.158371033e-06
6.082306098e-06
5.999482169e-06
5.916672186e-06
5.841206349e-06
5.781089522e-06
5.745424919e-06
6.045364001e-06
6.003984327e-06
5.945750408e-06
5.875600996e-06
5.799182428e-06
5.722729766e-06
5.653002653e-06
5.597401651e-06
5.564371408e-06
5.842363117e-06
5.804201454e-06
5.750483717e-06
5.685751079e-06
5.615197759e-06
5.544566215e-06
5.480093554e-06
5.428626919e-06
5.398007935e-06
5.655912107e-06
5.62069718e-06
5.571114997e-06
5.511342671e-06
5.446160364e-06
5.380859382e-06
5.321198238e-06
5.273517175e-06
5.245105519e-06
5.484621736e-06
5.452105337e-06
5.406310479e-06
5.351080906e-06
5.290817569e-06
5.230398552e-06
5.175143962e-06
5.130929657e-06
5.104538979e-06
5.327219889e-06
5.297175016e-06
5.254849032e-06
5.203780395e-06
5.148022731e-06
5.092075597e-06
5.040857433e-06
4.99981856e-06
4.975278622e-06
5.182542297e-06
5.154761419e-06
5.115613186e-06
5.068356466e-06
5.01672672e-06
4.9648767e-06
4.917356759e-06
4.879227169e-06
4.856382478e-06
5.049523849e-06
5.023817288e-06
4.98758074e-06
4.943816981e-06
4.895969964e-06
4.847874631e-06
4.803743936e-06
4.768280517e-06
4.746989066e-06
4.927190488e-06
4.903384917e-06
4.86981694e-06
4.82925471e-06
4.784875043e-06
4.740221568e-06
4.699197875e-06
4.666178577e-06
4.646310685e-06
4.814651661e-06
4.792588724e-06
4.761467201e-06
4.723840252e-06
4.68263982e-06
4.641142435e-06
4.602967936e-06
4.572189952e-06
4.55362719e-06
4.711093328e-06
4.690628355e-06
4.66175037e-06
4.626815474e-06
4.588531082e-06
4.549928743e-06
4.514367948e-06
4.485646043e-06
4.468280257e-06
4.61577148e-06
4.596772307e-06
4.569952488e-06
4.537487448e-06
4.501878658e-06
4.465932901e-06
4.432770696e-06
4.405935672e-06
4.38966808e-06
4.528006155e-06
4.510352042e-06
4.485421038e-06
4.455222858e-06
4.422070013e-06
4.388562982e-06
4.357602846e-06
4.332500133e-06
4.317240505e-06
4.447175929e-06
4.430756561e-06
4.407559644e-06
4.379442854e-06
4.348545258e-06
4.3172779e-06
4.288340274e-06
4.264828649e-06
4.25049455e-06
4.372712835e-06
4.357427415e-06
4.335823199e-06
4.30961832e-06
4.280792575e-06
4.251582993e-06
4.224503791e-06
4.202454203e-06
4.188970309e-06
4.304097702e-06
4.289854112e-06
4.269713387e-06
4.245265529e-06
4.218344019e-06
4.191025966e-06
4.165655218e-06
4.144949718e-06
4.132247194e-06
4.240855871e-06
4.227569915e-06
4.208774576e-06
4.185942158e-06
4.160771669e-06
4.135193177e-06
4.111393794e-06
4.091924569e-06
4.079940503e-06
4.182553266e-06
4.170147973e-06
4.152590049e-06
4.131243637e-06
4.107684097e-06
4.083706234e-06
4.061352892e-06
4.043021389e-06
4.031698281e-06
4.128792776e-06
4.11719777e-06
4.100778541e-06
4.080799792e-06
4.058723133e-06
4.036218879e-06
4.015197007e-06
3.997913142e-06
3.987198448e-06
4.079210933e-06
4.068361862e-06
4.052991056e-06
4.034271756e-06
4.013560884e-06
3.992414114e-06
3.972618989e-06
3.956300439e-06
3.946146164e-06
4.033474833e-06
4.023312845e-06
4.008907914e-06
3.991349114e-06
3.971896974e-06
3.952001545e-06
3.933337473e-06
3.917909049e-06
3.908271388e-06
3.991279275e-06
3.981750547e-06
3.968236e-06
3.951747233e-06
3.933455968e-06
3.914714896e-06
3.897094487e-06
3.882487573e-06
3.873326591e-06
3.952344061e-06
3.943399367e-06
3.930706173e-06
3.915204731e-06
3.897984921e-06
3.880309633e-06
3.863653145e-06
3.849805203e-06
3.841084561e-06
3.91641142e-06
3.908005731e-06
3.896070761e-06
3.881481043e-06
3.865250999e-06
3.848560658e-06
3.832795404e-06
3.819649525e-06
3.811336237e-06
3.883243497e-06
3.875335607e-06
3.864101112e-06
3.850353997e-06
3.835039104e-06
3.819259969e-06
3.804319763e-06
3.791824259e-06
3.783888468e-06
3.85261983e-06
3.845171993e-06
3.834585097e-06
3.82161735e-06
3.807149428e-06
3.792214231e-06
3.778038849e-06
3.766146847e-06
3.758561611e-06
3.824334764e-06
3.817312331e-06
3.807324525e-06
3.795078184e-06
3.781394827e-06
3.767242133e-06
3.753776743e-06
3.742445763e-06
3.735186825e-06
3.798194715e-06
3.791565751e-06
3.782132348e-06
3.770554072e-06
3.757597939e-06
3.744171436e-06
3.731365964e-06
3.720557426e-06
3.713602939e-06
3.774015209e-06
3.767750071e-06
3.758829605e-06
3.747869935e-06
3.73558793e-06
3.722835595e-06
3.710643954e-06
3.700322562e-06
3.693652737e-06
3.751617617e-06
3.745688462e-06
3.737241987e-06
3.726854472e-06
3.715196762e-06
3.703069837e-06
3.691448959e-06
3.681581906e-06
3.67517852e-06
3.730825508e-06
3.725205719e-06
3.717195964e-06
3.70733611e-06
3.696254909e-06
3.684706612e-06
3.673615193e-06
3.664171095e-06
3.658016835e-06
3.711460567e-06
3.706124051e-06
3.698514405e-06
3.68913837e-06
3.678586428e-06
3.667570322e-06
3.656967206e-06
3.647914699e-06
3.641992256e-06
3.693338033e-06
3.688258378e-06
3.681011637e-06
3.672074639e-06
3.662003361e-06
3.651471299e-06
3.64131341e-06
3.63261933e-06
3.626910199e-06
3.676261633e-06
3.671411088e-06
3.664487956e-06
3.655942324e-06
3.64629947e-06
3.636199045e-06
3.626438798e-06
3.618065857e-06
3.612548802e-06
3.660018046e-06
3.655366312e-06
3.648723598e-06
3.640516451e-06
3.631243349e-06
3.621514805e-06
3.612096933e-06
3.604000859e-06
3.598649981e-06
3.644370943e-06
3.639883762e-06
3.633472283e-06
3.625542785e-06
3.616571059e-06
3.607143627e-06
3.5980014e-06
3.590127496e-06
3.584909896e-06
3.629054736e-06
3.624692269e-06
3.618454438e-06
3.610730668e-06
3.601978466e-06
3.592766133e-06
3.583816981e-06
3.576096125e-06
3.570969172e-06
3.613768162e-06
3.60948319e-06
3.603350326e-06
3.595745764e-06
3.587113544e-06
3.578010327e-06
3.569150927e-06
3.561495072e-06
3.556403317e-06
3.598167953e-06
3.593903912e-06
3.587793319e-06
3.580203048e-06
3.571569007e-06
3.562443825e-06
3.55354479e-06
3.545842084e-06
3.540713907e-06
3.581862814e-06
3.577551734e-06
3.571363638e-06
3.563660353e-06
3.55487566e-06
3.545566999e-06
3.536467352e-06
3.528577089e-06
3.523321219e-06
3.564408034e-06
3.559968454e-06
3.553582906e-06
3.54561292e-06
3.536496949e-06
3.526807567e-06
3.5173093e-06
3.509056954e-06
3.503559076e-06
3.545301078e-06
3.54063603e-06
3.533909943e-06
3.525489381e-06
3.515825234e-06
3.505517242e-06
3.495380315e-06
3.486553044e-06
3.48067274e-06
3.523978521e-06
3.51897372e-06
3.511738235e-06
3.502649706e-06
3.492180363e-06
3.480971092e-06
3.469909347e-06
3.460252403e-06
3.453820769e-06
3.499814755e-06
3.49433715e-06
3.486395562e-06
3.476385629e-06
3.464811154e-06
3.452370324e-06
3.440048862e-06
3.429263457e-06
3.422081789e-06
3.472122922e-06
3.466019786e-06
3.457146335e-06
3.445924179e-06
3.432900473e-06
3.418849244e-06
3.404883917e-06
3.392627178e-06
3.384467177e-06
3.440158587e-06
3.433257371e-06
3.423197217e-06
3.410434953e-06
3.395574637e-06
3.379487217e-06
3.363446981e-06
3.349334683e-06
3.339940679e-06
3.403126742e-06
3.395235944e-06
3.383706722e-06
3.369041889e-06
3.351917951e-06
3.333326527e-06
3.314739426e-06
3.298352256e-06
3.287445974e-06
3.360192849e-06
3.351104186e-06
3.337799576e-06
3.320840367e-06
3.300993294e-06
3.279397054e-06
3.257760683e-06
3.23865478e-06
3.22594314e-06
3.31049874e-06
3.29999094e-06
3.284586724e-06
3.264920582e-06
3.241869678e-06
3.216748735e-06
3.191545936e-06
3.169268355e-06
3.154454728e-06
3.253184324e-06
3.241028869e-06
3.223191951e-06
3.200398129e-06
3.173657713e-06
3.144492588e-06
3.115213007e-06
3.089322579e-06
3.072121735e-06
3.187416099e-06
3.173385223e-06
3.152786052e-06
3.126452627e-06
3.095553606e-06