/*--------------------------------*- C++ -*----------------------------------*\
| =========                 |                                                 |
| \\      /  F ield         | OpenFOAM: The Open Source CFD Toolbox           |
|  \\    /   O peration     | Version:  2212                                  |
|   \\  /    A nd           | Website:  www.openfoam.com                      |
|    \\/     M anipulation  |                                                 |
\*---------------------------------------------------------------------------*/
FoamFile
{
    version     2.0;
    format      ascii;
    arch        "LSB;label=32;scalar=64";
    class       volScalarField;
    location    "2.75000000";
    object      C7H7_0;
}
// * * * * * * * * * * * * * * * * * * * * * * * * * * * * * * * * * * * * * //

dimensions      [0 0 0 0 0 0 0];

internalField   nonuniform List<scalar> 
3000
(
4.215508623e-29
4.855364087e-29
5.82754356e-29
7.134029576e-29
8.766756845e-29
1.068386038e-28
1.27697463e-28
1.47702308e-28
1.619985345e-28
1.627394587e-28
1.884664203e-28
2.275846912e-28
2.803429426e-28
3.469256922e-28
4.270411843e-28
5.191518118e-28
6.182896562e-28
7.058612584e-28
3.826035982e-28
4.475215126e-28
5.473306633e-28
6.8444687e-28
8.622069189e-28
1.08375965e-27
1.348357195e-27
1.640897618e-27
1.892138378e-27
7.791661552e-28
9.231652521e-28
1.148315095e-27
1.465089406e-27
1.887725563e-27
2.42973191e-27
3.090237365e-27
3.817519837e-27
4.411912916e-27
1.503316783e-27
1.807403993e-27
2.29155749e-27
2.988180855e-27
3.939076118e-27
5.180258306e-27
6.699170514e-27
8.338369403e-27
9.619106671e-27
2.845558751e-27
3.471945269e-27
4.485866249e-27
5.97165903e-27
8.03238833e-27
1.074565778e-26
1.40533756e-26
1.755022067e-26
2.019386033e-26
5.369313173e-27
6.641117815e-27
8.727502187e-27
1.182607802e-26
1.616606561e-26
2.189554548e-26
2.883142176e-26
3.60378928e-26
4.136086208e-26
1.016234911e-26
1.271689803e-26
1.695017634e-26
2.329520187e-26
3.223152802e-26
4.402431132e-26
5.819724396e-26
7.272844757e-26
8.32921556e-26
1.932389837e-26
2.440964213e-26
3.289831581e-26
4.569694196e-26
6.377099062e-26
8.757901612e-26
1.160094703e-25
1.448730384e-25
1.656292022e-25
3.689186591e-26
4.693666861e-26
6.378479636e-26
8.927836158e-26
1.253149541e-25
1.726750222e-25
2.289305597e-25
2.856292003e-25
3.260906669e-25
7.061083776e-26
9.030756546e-26
1.234497406e-25
1.736978498e-25
2.447233247e-25
3.378467401e-25
4.479863264e-25
5.583959547e-25
6.367560921e-25
1.352804974e-25
1.736484867e-25
2.383329121e-25
3.364939903e-25
4.751598167e-25
6.565630717e-25
8.703666782e-25
1.083819397e-24
1.234704546e-24
2.590714447e-25
3.333540896e-25
4.587240807e-25
6.490247053e-25
9.176059139e-25
1.268240442e-24
1.680299133e-24
2.090351906e-24
2.379422837e-24
4.953650547e-25
6.383544788e-25
8.798137101e-25
1.246272178e-24
1.762942299e-24
2.436167067e-24
3.22521033e-24
4.008062486e-24
4.559613419e-24
9.448185468e-25
1.218527254e-24
1.680806368e-24
2.382140476e-24
3.369936898e-24
4.654792971e-24
6.156719882e-24
7.641827642e-24
8.690467983e-24
1.796270091e-24
2.317258641e-24
3.197078335e-24
4.531147063e-24
6.408342264e-24
8.847473089e-24
1.169766944e-23
1.451715011e-23
1.648315127e-23
3.402326905e-24
4.388408748e-24
6.052975026e-24
8.574856214e-24
1.211896441e-23
1.671617842e-23
2.207624064e-23
2.736428617e-23
3.105452183e-23
6.418758576e-24
8.275115022e-24
1.140692492e-23
1.614718862e-23
2.280029894e-23
3.14169951e-23
4.144643369e-23
5.132436609e-23
5.821009297e-23
1.20604286e-23
1.553771702e-23
2.140025727e-23
3.026500051e-23
4.269166668e-23
5.876363213e-23
7.744383334e-23
9.581617354e-23
1.086059832e-22
2.256924045e-23
2.905256103e-23
3.997544745e-23
5.647577924e-23
7.957894053e-23
1.09420938e-22
1.440604845e-22
1.780858293e-22
2.017424222e-22
4.206662375e-23
5.410162732e-23
7.43630989e-23
1.049406803e-22
1.477056107e-22
2.028769213e-22
2.668389354e-22
3.295919982e-22
3.731709102e-22
7.810138731e-23
1.003488578e-22
1.377757142e-22
1.942035845e-22
2.730341742e-22
3.746140666e-22
4.922401983e-22
6.075126786e-22
6.874774879e-22
1.444513597e-22
1.854137119e-22
2.542727546e-22
3.579899762e-22
5.02726019e-22
6.890167112e-22
9.044890263e-22
1.11542172e-21
1.261600431e-21
2.661792659e-22
3.413136958e-22
4.675213392e-22
6.574352888e-22
9.22171995e-22
1.262534288e-21
1.655776587e-21
2.040340763e-21
2.306588661e-21
4.887310554e-22
6.260470133e-22
8.565281885e-22
1.203015812e-21
1.685495976e-21
2.305117909e-21
3.020234348e-21
3.718871545e-21
4.202125866e-21
8.942634255e-22
1.144358201e-21
1.563810837e-21
2.19377107e-21
3.070038007e-21
4.194128019e-21
5.490056304e-21
6.754855251e-21
7.628929325e-21
1.630873517e-21
2.084878986e-21
2.845725203e-21
3.987282309e-21
5.573427879e-21
7.605839159e-21
9.94631769e-21
1.222819185e-20
1.380361447e-20
2.964805169e-21
3.786406853e-21
5.162169855e-21
7.224221614e-21
1.008606934e-20
1.3748701e-20
1.79614828e-20
2.206418614e-20
2.489379117e-20
5.373455408e-21
6.855867781e-21
9.336033064e-21
1.304939066e-20
1.819671041e-20
2.477576204e-20
3.233314e-20
3.968389334e-20
4.474782724e-20
9.710687871e-21
1.23777767e-20
1.683590725e-20
2.350292956e-20
3.273210617e-20
4.45113012e-20
5.802201702e-20
7.114446992e-20
8.017251623e-20
1.749998436e-20
2.228525308e-20
3.027602711e-20
4.221062133e-20
5.870678288e-20
7.972587291e-20
1.037928971e-19
1.271283657e-19
1.431573154e-19
3.14531015e-20
4.001554289e-20
5.429780396e-20
7.559792495e-20
1.049881207e-19
1.423636123e-19
1.850701134e-19
2.263925492e-19
2.547215012e-19
5.638571946e-20
7.166534243e-20
9.711964736e-20
1.350175117e-19
1.872029679e-19
2.53413018e-19
3.288768117e-19
4.017087689e-19
4.515195407e-19
1.008308471e-19
1.280221611e-19
1.73253519e-19
2.404635904e-19
3.327877614e-19
4.495956949e-19
5.823213382e-19
7.100159545e-19
7.970889066e-19
1.798775262e-19
2.281285854e-19
3.08252836e-19
4.270315479e-19
5.897195214e-19
7.948538581e-19
1.027072043e-18
1.249627938e-18
1.400832477e-18
3.201616877e-19
4.055267576e-19
5.469898741e-19
7.561107551e-19
1.041535864e-18
1.399955551e-18
1.803859933e-18
2.189148839e-18
2.449758517e-18
5.686438178e-19
7.191921033e-19
9.680609028e-19
1.334718299e-18
1.833056591e-18
2.455753728e-18
3.153653235e-18
3.815656105e-18
4.261077877e-18
1.008075044e-18
1.272692534e-18
1.708841485e-18
2.348827104e-18
3.214275147e-18
4.289324915e-18
5.486411279e-18
6.614407439e-18
7.368688419e-18
1.784350313e-18
2.247848964e-18
3.009118821e-18
4.120801045e-18
5.615120786e-18
7.458426757e-18
9.495399144e-18
1.140003268e-17
1.266461562e-17
3.155175818e-18
3.964162431e-18
5.287344161e-18
7.208586456e-18
9.772910888e-18
1.291039029e-17
1.634706126e-17
1.953215933e-17
2.162997862e-17
5.577390779e-18
6.984515441e-18
9.274735482e-18
1.257791285e-17
1.6950568e-17
2.225040377e-17
2.799751527e-17
3.327111075e-17
3.67136167e-17
9.865334083e-18
1.230507368e-17
1.625331506e-17
2.190384419e-17
2.931339304e-17
3.819839742e-17
4.772494659e-17
5.637052475e-17
6.195938242e-17
1.748169995e-17
2.170067678e-17
2.848355706e-17
3.810527993e-17
5.058787618e-17
6.537783239e-17
8.103883866e-17
9.508129983e-17
1.040640618e-16
3.107913059e-17
3.836182484e-17
4.99837292e-17
6.630675973e-17
8.723277022e-17
1.117027372e-16
1.372651083e-16
1.598915565e-16
1.742053199e-16
5.552305125e-17
6.808688207e-17
8.797269294e-17
1.155993161e-16
1.505614419e-16
1.908708439e-16
2.323787429e-16
2.686252822e-16
2.912922471e-16
9.985023375e-17
1.215469186e-16
1.555853839e-16
2.02324845e-16
2.606709337e-16
3.269546597e-16
3.942045557e-16
4.521252354e-16
4.879263054e-16
1.810688188e-16
2.186519682e-16
2.770704133e-16
3.563226887e-16
4.538807193e-16
5.630731427e-16
6.722366023e-16
7.649912945e-16
8.216754794e-16
3.316247108e-16
3.970921529e-16
4.979113167e-16
6.33052613e-16
7.971476486e-16
9.78202467e-16
1.156707374e-15
1.306479983e-15
1.397051413e-15
6.142562944e-16
7.292956849e-16
9.048908211e-16
1.137623327e-15
1.416680075e-15
1.72064138e-15
2.016681742e-15
2.262389056e-15
2.409643053e-15
1.151933723e-15
1.356626862e-15
1.666620631e-15
2.073479464e-15
2.55616796e-15
3.076457324e-15
3.578356658e-15
3.991498122e-15
4.23741764e-15
2.189038375e-15
2.559498719e-15
3.117041214e-15
3.843326242e-15
4.698328175e-15
5.613357607e-15
6.490682574e-15
7.209303581e-15
7.635327304e-15
4.218220892e-15
4.90361598e-15
5.930959274e-15
7.263202986e-15
8.82511099e-15
1.04914109e-14
1.208579351e-14
1.339017936e-14
1.416265095e-14
8.247418003e-15
9.550344378e-15
1.150049797e-14
1.4026819e-14
1.698852996e-14
2.015191089e-14
2.318531797e-14
2.567316579e-14
2.714918394e-14
1.637012816e-14
1.892640927e-14
2.275769779e-14
2.773391379e-14
3.359171312e-14
3.988240818e-14
4.595174578e-14
5.09585529e-14
5.394185166e-14
3.299821646e-14
3.818869245e-14
4.600030037e-14
5.620890012e-14
6.832247836e-14
8.14525453e-14
9.424304759e-14
1.048866617e-13
1.112693562e-13
6.755900871e-14
7.847131564e-14
9.500448141e-14
1.168129864e-13
1.429881195e-13
1.717214939e-13
2.000716953e-13
2.239364404e-13
2.383730359e-13
1.404480533e-13
1.641517413e-13
2.003850479e-13
2.48756505e-13
3.076531816e-13
3.733320596e-13
4.391763491e-13
4.954311042e-13
5.298821022e-13
2.962420817e-13
3.492115681e-13
4.31047209e-13
5.418632961e-13
6.790956959e-13
8.350148445e-13
9.943908347e-13
1.133191634e-12
1.219728777e-12
6.331177122e-13
7.541908345e-13
9.435107732e-13
1.204018984e-12
1.532866697e-12
1.914610443e-12
2.313978946e-12
2.670413445e-12
2.898344576e-12
1.368376308e-12
1.649652255e-12
2.095271276e-12
2.719235098e-12
3.523601308e-12
4.480080959e-12
5.508009482e-12
6.453251232e-12
7.077934526e-12
2.984099925e-12
3.644143029e-12
4.704320922e-12
6.216327126e-12
8.209501795e-12
1.064203239e-11
1.33352515e-11
1.589705486e-11
1.765549899e-11
6.549696114e-12
8.105244113e-12
1.063915481e-11
1.432151584e-11
1.928844787e-11
2.551574003e-11
3.262747707e-11
3.963379947e-11
4.463243906e-11
1.443255284e-11
1.809603551e-11
2.414736085e-11
3.310650006e-11
4.546861248e-11
6.13845389e-11
8.011757114e-11
9.919698078e-11
1.132969025e-10
3.185486203e-11
4.044021861e-11
5.481221382e-11
7.647150942e-11
1.07006918e-10
1.473042176e-10
1.960470817e-10
2.471458505e-10
2.8602327e-10
7.028284021e-11
9.023153868e-11
1.240398331e-10
1.758228089e-10
2.502479093e-10
3.506083789e-10
4.748156123e-10
6.080586545e-10
7.116871533e-10
1.547505184e-10
2.005654224e-10
2.790530772e-10
4.009602423e-10
5.790333076e-10
8.23393201e-10
1.131200307e-09
1.46696708e-09
1.732080223e-09
3.395267058e-10
4.432290021e-10
6.22456778e-10
9.039511748e-10
1.320305712e-09
1.899027206e-09
2.63694058e-09
3.450559196e-09
4.098834511e-09
7.411341165e-10
9.718280868e-10
1.373110738e-09
2.008360572e-09
2.955917029e-09
4.283698227e-09
5.988563372e-09
7.878579901e-09
9.390740134e-09
1.606442021e-09
2.109362149e-09
2.987547159e-09
4.383986273e-09
6.476067277e-09
9.418165336e-09
1.320461422e-08
1.740647378e-08
2.076894857e-08
3.448937576e-09
4.520187219e-09
6.39303851e-09
9.37438494e-09
1.3843178e-08
2.012469463e-08
2.81957177e-08
3.712889296e-08
4.42570541e-08
7.311071131e-09
9.533987417e-09
1.34151759e-08
1.958085916e-08
2.879545381e-08
4.16965077e-08
5.819142808e-08
7.634850718e-08
9.076134555e-08
1.524594103e-08
1.972677318e-08
2.752220917e-08
3.984635369e-08
5.815569194e-08
8.36135469e-08
1.15916542e-07
1.511992588e-07
1.790072494e-07
3.115381419e-08
3.99049347e-08
5.504536334e-08
7.881005048e-08
1.138197411e-07
1.620471979e-07
2.226465944e-07
2.882015371e-07
3.394282605e-07
6.214500201e-08
7.866651399e-08
1.070472193e-07
1.511900971e-07
2.155447433e-07
3.032030869e-07
4.120897599e-07
5.285874944e-07
6.187481242e-07
1.206047855e-07
1.507002636e-07
2.019662033e-07
2.808619961e-07
3.945028593e-07
5.473293827e-07
7.347467919e-07
9.328459439e-07
1.084543257e-06
2.270726627e-07
2.798915874e-07
3.69029106e-07
5.046006661e-07
6.973047622e-07
9.528794593e-07
1.261991165e-06
1.584484676e-06
1.828652286e-06
4.138765748e-07
5.030987749e-07
6.52172246e-07
8.760686197e-07
1.189871609e-06
1.599955823e-06
2.088732375e-06
2.591720722e-06
2.968040679e-06
7.292090094e-07
8.741936382e-07
1.1139386e-06
1.469338045e-06
1.960185556e-06
2.591859446e-06
3.333411665e-06
4.085801869e-06
4.641857372e-06
1.241021786e-06
1.467656943e-06
1.838467579e-06
2.380850456e-06
3.118768385e-06
4.053622669e-06
5.134274737e-06
6.215086515e-06
7.003992095e-06
2.039760054e-06
2.380629805e-06
2.932438959e-06
3.728769728e-06
4.795920324e-06
6.126727319e-06
7.641440922e-06
9.134768764e-06
1.02113094e-05
3.2387895e-06
3.732379602e-06
4.523031319e-06
5.648892504e-06
7.135142634e-06
8.959818256e-06
1.100502517e-05
1.299292891e-05
1.440852491e-05
4.971621299e-06
5.660351327e-06
6.752233913e-06
8.28675359e-06
1.028275157e-05
1.269580801e-05
1.536003027e-05
1.791381183e-05
1.971068443e-05
7.38536792e-06
8.312423651e-06
9.767397053e-06
1.178611185e-05
1.437411218e-05
1.745582026e-05
2.080806142e-05
2.397752682e-05
2.618153206e-05
1.063045385e-05
1.18355737e-05
1.370843489e-05
1.627434491e-05
1.951678378e-05
2.331920266e-05
2.739247468e-05
3.118799741e-05
3.379397942e-05
1.484714831e-05
1.636160981e-05
1.869236169e-05
2.184517316e-05
2.576997126e-05
3.029600572e-05
3.50553986e-05
3.939874257e-05
4.230923921e-05
2.014964489e-05
2.199056247e-05
2.479540786e-05
2.853825034e-05
3.311847646e-05
3.828697801e-05
4.356003852e-05
4.812777313e-05
5.077398687e-05
2.660742109e-05
2.877074993e-05
3.203037288e-05
3.631127239e-05
4.143562793e-05
4.703291779e-05
5.242089567e-05
5.649066893e-05
5.877540941e-05
3.421948876e-05
3.666894571e-05
4.030792479e-05
4.498355179e-05
5.039448664e-05
5.598683674e-05
6.070893321e-05
6.438092329e-05
6.652260429e-05
4.286399796e-05
4.550861401e-05
4.934967676e-05
5.409628715e-05
5.92025141e-05
6.408757083e-05
6.84859428e-05
7.200253932e-05
7.408713065e-05
5.216150278e-05
5.480760086e-05
5.846895718e-05
6.263519918e-05
6.717052895e-05
7.173973777e-05
7.597233563e-05
7.940020744e-05
8.144433731e-05
6.104095696e-05
6.331414476e-05
6.652253515e-05
7.039448357e-05
7.468708327e-05
7.908186585e-05
8.318733035e-05
8.652229339e-05
8.851240438e-05
6.892845648e-05
7.104436538e-05
7.406048705e-05
7.775770499e-05
8.188129285e-05
8.611428763e-05
9.006818239e-05
9.327478825e-05
9.518492364e-05
7.637279546e-05
7.838760804e-05
8.12649798e-05
8.479861099e-05
8.873581757e-05
9.276684717e-05
9.651876137e-05
9.955050571e-05
0.0001013512636
8.349824092e-05
8.540852357e-05
8.813197521e-05
9.146767592e-05
9.516963428e-05
9.894178671e-05
0.0001024352871
0.000105245372
0.000106908693
9.026371887e-05
9.20464714e-05
9.458021522e-05
9.767033904e-05
0.0001010818815
0.0001045381879
0.0001077208636
0.0001102678354
0.0001117695729
9.657078777e-05
9.819929145e-05
0.0001005051444
0.0001033032516
0.0001063740745
0.0001094652461
0.0001122936213
0.0001145442177
0.000115865457
0.0001023096973
0.0001037598631
0.0001058045304
0.000108271717
0.0001109613371
0.0001136492678
0.0001160910419
0.0001180214651
0.0001191490899
0.0001073797324
0.0001086326543
0.000110390665
0.0001124981906
0.0001147779696
0.000117037082
0.0001190718771
0.0001206681078
0.0001215948763
0.0001116984987
0.0001127413864
0.0001141961199
0.0001159262429
0.0001177798818
0.0001195972503
0.0001212164329
0.0001224739021
0.0001231981749
0.0001152060628
0.0001160323924
0.0001171761387
0.00011852197
0.0001199450981
0.0001213197917
0.0001225256726
0.0001234484961
0.0001239737301
0.0001178663519
0.0001184755734
0.0001193090253
0.0001202737682
0.0001212729413
0.0001222148512
0.0001230194702
0.0001236193779
0.0001239534487
0.0001196668316
0.0001200637944
0.0001205951722
0.0001211909685
0.0001217822871
0.000122310612
0.0001227342443
0.0001230293161
0.000123183739
0.0001206169898
0.0001208111936
0.0001210551411
0.0001213016643
0.0001215091495
0.0001216506799
0.0001217201951
0.0001217335038
0.0001217226121
0.0001207459709
0.0001207507088
0.0001207270558
0.0001206499719
0.0001205038304
0.0001202911568
0.0001200383406
0.0001197965887
0.0001196367174
0.0001200996163
0.0001199310784
0.0001196635606
0.0001192929601
0.0001188278484
0.0001182975994
0.0001177575295
0.0001172897478
0.0001169984638
0.0001187371711
0.0001184135611
0.0001179285717
0.0001172974594
0.0001165508339
0.0001157420255
0.0001149515725
0.0001142879342
0.0001138833422
0.0001167278816
0.0001162685895
0.000115594019
0.0001147369258
0.0001137475455
0.000112700104
0.0001116966064
0.000110867393
0.0001103675362
0.0001141476731
0.0001135725353
0.0001127367421
0.0001116885049
0.0001104951309
0.0001092486261
0.0001080687715
0.0001071035101
0.0001065258765
0.0001110760629
0.0001104047286
0.0001094356639
0.0001082303999
0.0001068707165
0.000105463326
0.0001041422489
0.0001030690283
0.0001024301638
0.0001075934144
0.0001068448286
0.0001057693286
0.0001044396145
0.0001029493774
0.0001014170832
9.998767909e-05
9.883263882e-05
9.814786469e-05
0.0001037786033
0.0001029706069
0.0001018138502
0.0001003901025
9.88025085e-05
9.717851554e-05
9.567095711e-05
9.445793828e-05
9.374116218e-05
9.970712498e-05
9.885616597e-05
9.764128792e-05
9.61513315e-05
9.449659114e-05
9.281094709e-05
9.125238241e-05
9.000272057e-05
8.926633138e-05
9.54496434e-05
9.457058947e-05
9.331843745e-05
9.178724123e-05
9.009233096e-05
8.837172217e-05
8.678612873e-05
8.551856803e-05
8.47733999e-05
9.107095886e-05
9.017699749e-05
8.890600743e-05
8.735556351e-05
8.564412949e-05
8.39118232e-05
8.23199909e-05
8.105069665e-05
8.030604924e-05
8.662935256e-05
8.573196418e-05
8.445813787e-05
8.2907458e-05
8.119984269e-05
7.94757467e-05
7.789536218e-05
7.663800993e-05
7.590171148e-05
8.217625828e-05
8.128524778e-05
8.002220967e-05
7.848741354e-05
7.680077737e-05
7.510158887e-05
7.354739574e-05
7.23133164e-05
7.159181774e-05
7.775620567e-05
7.687977803e-05
7.563889185e-05
7.413336376e-05
7.248187605e-05
7.082129421e-05
6.93053061e-05
6.810366918e-05
6.740215806e-05
7.340697971e-05
7.255184709e-05
7.134237459e-05
6.987696717e-05
6.827204377e-05
6.666102403e-05
6.51927708e-05
6.403079047e-05
6.33533174e-05
6.915994381e-05
6.833145315e-05
6.716073961e-05
6.574400662e-05
6.419457508e-05
6.264160676e-05
6.122839813e-05
6.011154887e-05
5.946115725e-05
6.504047937e-05
6.42427511e-05
6.31164251e-05
6.175486909e-05
6.026764717e-05
5.877903842e-05
5.742622937e-05
5.635846275e-05
5.573731851e-05
6.106850185e-05
6.030457323e-05
5.922675076e-05
5.792507226e-05
5.650484277e-05
5.508500263e-05
5.379625568e-05
5.27802106e-05
5.218972635e-05
5.725901713e-05
5.653098269e-05
5.550446645e-05
5.42658071e-05
5.291568697e-05
5.156739628e-05
5.034492962e-05
4.938213004e-05
4.882308141e-05
5.36226905e-05
5.293183708e-05
5.195830749e-05
5.078448119e-05
4.950617411e-05
4.823083881e-05
4.707565684e-05
4.616669441e-05
4.563932674e-05
5.016640948e-05
4.951334255e-05
4.859353567e-05
4.74852429e-05
4.62792723e-05
4.507715549e-05
4.398925898e-05
4.313395843e-05
4.263808298e-05
4.689382366e-05
4.627858312e-05
4.541245314e-05
4.43694759e-05
4.32353959e-05
4.210582705e-05
4.108440141e-05
4.028196807e-05
3.98170474e-05
4.380585064e-05
4.322801504e-05
4.241488031e-05
4.143625661e-05
4.037284015e-05
3.931440064e-05
3.835798226e-05
3.760713165e-05
3.717235436e-05
4.090114111e-05
4.03599202e-05
3.959859241e-05
3.868277021e-05
3.768817436e-05
3.669885993e-05
3.580548105e-05
3.510455142e-05
3.469889669e-05
3.817649942e-05
3.767081509e-05
3.69597121e-05
3.610468339e-05
3.517659275e-05
3.42539539e-05
3.342126733e-05
3.276831604e-05
3.239060876e-05
3.562725837e-05
3.515581456e-05
3.449305771e-05
3.369647372e-05
3.283222337e-05
3.197348519e-05
3.119887039e-05
3.059175548e-05
3.024071276e-05
3.324760861e-05
3.280895104e-05
3.219244796e-05
3.145171712e-05
3.064839673e-05
2.985056003e-05
2.913121219e-05
2.856766074e-05
2.824193068e-05
3.103088469e-05
3.062345119e-05
3.005096559e-05
2.936333575e-05
2.861787666e-05
2.787780224e-05
2.721080626e-05
2.668847088e-05
2.638666446e-05
2.896981038e-05
2.859197283e-05
2.806118249e-05
2.742380903e-05
2.673305623e-05
2.604753429e-05
2.542992541e-05
2.494643026e-05
2.466714729e-05
2.705670647e-05
2.670680529e-05
2.621534965e-05
2.562535132e-05
2.498612215e-05
2.43519286e-05
2.378074137e-05
2.333371922e-05
2.307556909e-05
2.528366473e-05
2.496003685e-05
2.450555553e-05
2.396005939e-05
2.336919066e-05
2.278313213e-05
2.225543933e-05
2.184256084e-05
2.160417881e-05
2.364269149e-05
2.334369269e-05
2.292385613e-05
2.242003322e-05
2.187441839e-05
2.133336754e-05
2.084631056e-05
2.04653069e-05
2.024536665e-05
2.212582445e-05
2.184984684e-05
2.146238022e-05
2.099747329e-05
2.049409119e-05
1.999501378e-05
1.954582565e-05
1.919450561e-05
1.899172862e-05
2.072522622e-05
2.047071157e-05
2.011341302e-05
1.968475746e-05
1.922069386e-05
1.876066889e-05
1.834669127e-05
1.802295364e-05
1.783611589e-05
1.943325748e-05
1.919870715e-05
1.886946116e-05
1.847450035e-05
1.804696351e-05
1.762319755e-05
1.724189262e-05
1.694373475e-05
1.677167127e-05
1.8242533e-05
1.802651494e-05
1.772330177e-05
1.735959765e-05
1.696592897e-05
1.657576575e-05
1.62247239e-05
1.595024705e-05
1.579185469e-05
1.714596289e-05
1.694711625e-05
1.666801806e-05
1.633325791e-05
1.597093845e-05
1.561186448e-05
1.528880869e-05
1.503622083e-05
1.489045955e-05
1.613678162e-05
1.595381943e-05
1.569702369e-05
1.538902372e-05
1.505567742e-05
1.472532454e-05
1.44281119e-05
1.419572843e-05
1.40616215e-05
1.520856667e-05
1.504027692e-05
1.480407768e-05
1.452078411e-05
1.421417847e-05
1.391032378e-05
1.363694492e-05
1.342318777e-05
1.3299821e-05
1.435524885e-05
1.420049434e-05
1.39832918e-05
1.372277995e-05
1.344082448e-05
1.316138837e-05
1.290996516e-05
1.271336064e-05
1.259988094e-05
1.357111586e-05
1.342883307e-05
1.322913174e-05
1.298960354e-05
1.273034669e-05
1.247338928e-05
1.224217123e-05
1.206134688e-05
1.195696032e-05
1.285081028e-05
1.272000746e-05
1.253641333e-05
1.231619364e-05
1.207781843e-05
1.184153494e-05
1.162889464e-05
1.146257539e-05
1.136654483e-05
1.218932333e-05
1.206907801e-05
1.190029494e-05
1.169782698e-05
1.147864581e-05
1.1261361e-05
1.106578886e-05
1.091279272e-05
1.082443518e-05
1.15819852e-05
1.147144132e-05
1.131626688e-05
1.113010705e-05
1.092855583e-05
1.072871795e-05
1.05488165e-05
1.040804986e-05
1.032673375e-05
1.102445301e-05
1.092281776e-05
1.078013871e-05
1.060895098e-05
1.042358286e-05
1.023975722e-05
1.007423506e-05
9.944687869e-06
9.869830117e-06
1.05126969e-05
1.041923743e-05
1.028802491e-05
1.013057502e-05
9.960053859e-06
9.790916178e-06
9.638581898e-06
9.519322696e-06
9.4503858e-06
1.004298501e-05
9.957024915e-06
9.836329638e-06
9.691479086e-06
9.534572917e-06
9.37890264e-06
9.23865859e-06
9.128829608e-06
9.06531876e-06
9.611867533e-06
9.532783501e-06
9.421730813e-06
9.288430923e-06
9.14400534e-06
9.000679e-06
8.871515237e-06
8.770327524e-06
8.711787759e-06
9.21616058e-06
9.143378926e-06
9.041163986e-06
8.918450024e-06
8.785461741e-06
8.653446448e-06
8.534434775e-06
8.441163477e-06
8.387176908e-06
8.852929858e-06
8.785923201e-06
8.691806246e-06
8.578791687e-06
8.45628225e-06
8.334629385e-06
8.224917589e-06
8.138897387e-06
8.089080542e-06
8.519474572e-06
8.457758591e-06
8.371060364e-06
8.266931354e-06
8.154021085e-06
8.041860222e-06
7.940666553e-06
7.861287295e-06
7.815288573e-06
8.213311669e-06
8.156441992e-06
8.07653935e-06
7.980549397e-06
7.876431599e-06
7.772964708e-06
7.679572606e-06
7.606275152e-06
7.563772407e-06
7.932160588e-06
7.879729825e-06
7.806051547e-06
7.717516466e-06
7.621451908e-06
7.525947852e-06
7.439700959e-06
7.371973244e-06
7.3326715e-06
7.673928611e-06
7.625563531e-06
7.557586349e-06
7.475879476e-06
7.387191183e-06
7.298980515e-06
7.219277962e-06
7.156651296e-06
7.120280602e-06
7.436696882e-06
7.392055758e-06
7.32930061e-06
7.25384829e-06
7.171916636e-06
7.090386713e-06
7.016678703e-06
6.958724294e-06
6.92503771e-06
7.218707155e-06
7.177477259e-06
7.119505774e-06
7.049783126e-06
6.974041235e-06
6.89863164e-06
6.830415309e-06
6.776741024e-06
6.745512739e-06
7.018349281e-06
6.980244549e-06
6.926655752e-06
6.862182713e-06
6.792112162e-06
6.722310431e-06
6.659125997e-06
6.609373332e-06
6.580396921e-06
6.834149454e-06
6.798908299e-06
6.749335547e-06
6.689673184e-06
6.6248e-06
6.560137653e-06
6.501564829e-06
6.455406105e-06
6.428492906e-06
6.66475921e-06
6.632142494e-06
6.586250622e-06
6.530997704e-06
6.470888655e-06
6.410937505e-06
6.356592181e-06
6.313727941e-06
6.288705551e-06
6.508945168e-06
6.478734318e-06
6.43621699e-06
6.385006816e-06
6.329265969e-06
6.273634713e-06
6.223165881e-06
6.183322493e-06
6.160033383e-06
6.365579481e-06
6.337574748e-06
6.298152016e-06
6.250649478e-06
6.198915022e-06
6.14724609e-06
6.100333015e-06
6.063260451e-06
6.041560692e-06
6.23363099e-06
6.207649841e-06
6.171065887e-06
6.126964765e-06
6.078906081e-06
6.030872735e-06
5.987222345e-06
5.952692147e-06
5.932450227e-06
6.112157037e-06
6.088032672e-06
6.054053728e-06
6.013074197e-06
5.968389167e-06
5.923692834e-06
5.883037319e-06
5.850840724e-06
5.831936477e-06
6.000295898e-06
5.977875891e-06
5.946288333e-06
5.908174675e-06
5.866587205e-06
5.82495503e-06
5.787049643e-06
5.756995872e-06
5.739319486e-06
5.897259822e-06
5.876404871e-06
5.847013462e-06
5.811531969e-06
5.772789722e-06
5.733972324e-06
5.698593374e-06
5.670508057e-06
5.653959172e-06
5.802328616e-06
5.782911397e-06
5.755537687e-06
5.722474739e-06
5.686347063e-06
5.650116488e-06
5.617059496e-06
5.590783243e-06
5.575270127e-06
5.714843748e-06
5.696747871e-06
5.67122873e-06
5.640389042e-06
5.606665076e-06
5.572812923e-06
5.541890953e-06
5.517278047e-06
5.502716846e-06
5.634202934e-06
5.617321988e-06
5.593508269e-06
5.564713289e-06
5.533200239e-06
5.501535964e-06
5.472578095e-06
5.449495309e-06
5.435809364e-06
5.559855153e-06
5.544091835e-06
5.521847155e-06
5.494933613e-06
5.465455186e-06
5.43580455e-06
5.408654496e-06
5.386980019e-06
5.374099253e-06
5.491296059e-06
5.476561384e-06
5.455761015e-06
5.430579597e-06
5.402974573e-06
5.375178248e-06
5.349693105e-06
5.329315572e-06
5.317175935e-06
5.428063738e-06
5.414276315e-06
5.394806181e-06
5.371220326e-06
5.345341267e-06
5.31925356e-06
5.295302679e-06
5.276120294e-06
5.264663259e-06
5.369734756e-06
5.356820132e-06
5.338575884e-06
5.31646069e-06
5.292172765e-06
5.267660469e-06
5.245124427e-06
5.227044173e-06
5.216216289e-06
5.315920439e-06
5.303810498e-06
5.286696673e-06
5.265937895e-06
5.243117804e-06
5.220059143e-06
5.198828811e-06
5.181765731e-06
5.171518214e-06
5.266263326e-06
5.254895726e-06
5.238824971e-06
5.219318087e-06
5.197853066e-06
5.176136721e-06
5.156112398e-06
5.139988932e-06
5.130277286e-06
5.220433717e-06
5.209751364e-06
5.194643693e-06
5.176293028e-06
5.156079902e-06
5.135604085e-06
5.116694677e-06
5.101440029e-06
5.09222369e-06
5.178126218e-06
5.168076756e-06
5.153858832e-06
5.136576698e-06
5.117520956e-06
5.098192494e-06
5.0803147e-06
5.065864208e-06
5.057106185e-06
5.139056204e-06
5.129591497e-06
5.11619591e-06
5.099901731e-06
5.081916577e-06
5.063649966e-06
5.046727422e-06
5.03302189e-06
5.024688378e-06
5.102956093e-06
5.094031685e-06
5.081396182e-06
5.06601556e-06
5.049020879e-06
5.031737249e-06
5.015699575e-06
5.002684513e-06
4.994744455e-06
5.069571322e-06
5.061145838e-06
5.049212468e-06
5.034676134e-06
5.018597325e-06
5.002223234e-06
4.987004919e-06
4.974629642e-06
4.967054187e-06
5.038655917e-06
5.03069038e-06
5.019404508e-06
5.005647096e-06
4.990413688e-06
4.974879683e-06
4.960418713e-06
4.948635215e-06
4.941397041e-06
5.009967558e-06
5.002424583e-06
4.991733726e-06
4.978692304e-06
4.964236274e-06
4.94947512e-06
4.935711273e-06
4.924472801e-06
4.917545244e-06
4.983262052e-06
4.976104884e-06
4.965957299e-06
4.953569592e-06
4.939823309e-06
4.92576779e-06
4.912640505e-06
4.901899755e-06
4.895255694e-06
4.958287156e-06
4.951478509e-06
4.941821496e-06
4.930023724e-06
4.916917431e-06
4.903497646e-06
4.890943365e-06
4.880650223e-06
4.874260667e-06
4.934775705e-06
4.928276381e-06
4.919054249e-06
4.90777852e-06
4.895237292e-06
4.88237736e-06
4.870326275e-06
4.860425029e-06
4.854257372e-06
4.912438092e-06
4.906205347e-06
4.897357001e-06
4.886528221e-06
4.874468332e-06
4.862082452e-06
4.850454603e-06
4.840880583e-06
4.834896491e-06
4.890954153e-06
4.884939793e-06
4.876395932e-06
4.865928202e-06
4.854252893e-06
4.842240733e-06
4.83094143e-06
4.821617062e-06
4.815769979e-06
4.869964599e-06
4.864112822e-06
4.85579274e-06
4.845585255e-06
4.834179901e-06
4.822421344e-06
4.811335944e-06
4.80216624e-06
4.796398539e-06
4.849062211e-06
4.843307199e-06
4.835115238e-06
4.825047719e-06
4.813774474e-06
4.802123789e-06
4.791111908e-06
4.781979472e-06
4.776219303e-06
4.827783063e-06
4.822046376e-06
4.813868083e-06
4.803795866e-06
4.792487887e-06
4.780767475e-06
4.769656791e-06
4.760416486e-06
4.754574408e-06
4.805598111e-06
4.799785957e-06
4.791484072e-06
4.781232974e-06
4.769688444e-06
4.757682367e-06
4.746262251e-06
4.736735736e-06
4.730701291e-06
4.781905571e-06
4.775906051e-06
4.767316472e-06
4.756677671e-06
4.744653849e-06
4.732101471e-06
4.720116761e-06
4.710087204e-06
4.703725614e-06
4.756024545e-06
4.749705012e-06
4.740632945e-06
4.729358141e-06
4.716565818e-06
4.703155937e-06
4.690301288e-06
4.679508627e-06
4.67265788e-06
4.727190434e-06
4.720395125e-06
4.710611697e-06
4.698408905e-06
4.684507686e-06
4.669873673e-06
4.655789002e-06
4.643926244e-06
4.636394878e-06
4.694552723e-06
4.687100896e-06
4.676340524e-06
4.662870949e-06
4.647465901e-06
4.631182447e-06
4.615450114e-06
4.602161238e-06
4.59372721e-06
4.657175817e-06
4.648860635e-06
4.636819573e-06
4.621696057e-06
4.604336352e-06
4.585918557e-06
4.568063029e-06
4.552943172e-06
4.543354248e-06
4.614043705e-06
4.604632167e-06
4.590968664e-06
4.573756339e-06
4.553936641e-06
4.532842266e-06
4.512333122e-06
4.494931814e-06
4.483907965e-06
4.564069346e-06
4.553303627e-06
4.537640236e-06
4.51786006e-06
4.495025492e-06
4.470661321e-06
4.446920544e-06
4.426748807e-06
4.413987161e-06
4.506109842e-06
4.493710435e-06
4.475639068e-06
4.452775035e-06
4.426330636e-06
4.398063943e-06
4.3704785e-06
4.347020677e-06
4.332203537e-06
4.438988628e-06
4.424659722e-06
4.403750092e-06
4.377260913e-06
4.346586549e-06
4.313762677e-06
4.281703336e-06
4.254434431e-06
4.237240836e-06
4.361526022e-06
4.344963564e-06
4.320775648e-06
4.290111715e-06
4.254583297e-06
4.216550219e-06
4.179397385e-06
4.147806497e-06
4.12792765e-06
4.272579503e-06
4.253482337e-06
4.22558342e-06