/*--------------------------------*- C++ -*----------------------------------*\
| =========                 |                                                 |
| \\      /  F ield         | OpenFOAM: The Open Source CFD Toolbox           |
|  \\    /   O peration     | Version:  2212                                  |
|   \\  /    A nd           | Website:  www.openfoam.com                      |
|    \\/     M anipulation  |                                                 |
\*---------------------------------------------------------------------------*/
FoamFile
{
    version     2.0;
    format      ascii;
    arch        "LSB;label=32;scalar=64";
    class       volScalarField;
    location    "2.75000000";
    object      CH2CO;
}
// * * * * * * * * * * * * * * * * * * * * * * * * * * * * * * * * * * * * * //

dimensions      [0 0 0 0 0 0 0];

internalField   nonuniform List<scalar> 
3000
(
1.993801872e-21
2.302252508e-21
2.771322855e-21
3.402416096e-21
4.192035849e-21
5.120201269e-21
6.13106851e-21
7.101533594e-21
7.796455712e-21
7.72267189e-21
8.967639187e-21
1.086259209e-20
1.342163851e-20
1.665555481e-20
2.055124937e-20
2.503395845e-20
2.986088184e-20
3.412687443e-20
1.826010652e-20
2.142114355e-20
2.628710369e-20
3.298217452e-20
4.167558198e-20
5.252633679e-20
6.550083636e-20
7.985954983e-20
9.220755986e-20
3.747975483e-20
4.454921573e-20
5.561893974e-20
7.12220202e-20
9.207965756e-20
1.18877908e-19
1.515903369e-19
1.876671256e-19
2.172134623e-19
7.301583044e-20
8.809100996e-20
1.121343047e-19
1.468027301e-19
1.942329981e-19
2.562814403e-19
3.323761171e-19
4.146686495e-19
4.791375975e-19
1.397497599e-19
1.711433911e-19
2.220582365e-19
2.968470704e-19
4.008422278e-19
5.381191361e-19
7.058883657e-19
8.836881168e-19
1.01850898e-18
2.66910386e-19
3.314017321e-19
4.37422802e-19
5.952887121e-19
8.170210233e-19
1.110568076e-18
1.466903673e-18
1.838154846e-18
2.113271849e-18
5.116694849e-19
6.42799816e-19
8.605906093e-19
1.187925785e-18
1.650316169e-18
2.262342537e-18
3.000064419e-18
3.758643227e-18
4.31199565e-18
9.858089974e-19
1.250162338e-18
1.692429315e-18
2.36116345e-18
3.308469893e-18
4.560226499e-18
6.05962021e-18
7.586474002e-18
8.688314683e-18
1.907154065e-18
2.435933025e-18
3.324981368e-18
4.674198227e-18
6.587462986e-18
9.110021644e-18
1.211584216e-17
1.515471472e-17
1.733102918e-17
3.698854101e-18
4.748956939e-18
6.520184044e-18
9.213624886e-18
1.303306912e-17
1.805718873e-17
2.40183043e-17
3.001264447e-17
3.428206261e-17
7.179662636e-18
9.251062527e-18
1.275175444e-17
1.80800895e-17
2.563140676e-17
3.554233243e-17
4.726063134e-17
5.899593681e-17
6.732054833e-17
1.392689253e-17
1.798707491e-17
2.48562582e-17
3.531407854e-17
5.012105903e-17
6.951414964e-17
9.237611199e-17
1.151962004e-16
1.313390714e-16
2.696406372e-17
3.48742726e-17
4.826383018e-17
6.86444228e-17
9.746955655e-17
1.351478405e-16
1.794437724e-16
2.235244419e-16
2.546828692e-16
5.205513185e-17
6.737378322e-17
9.330666159e-17
1.327624164e-16
1.885045209e-16
2.612333531e-16
3.46506633e-16
4.310863405e-16
4.909616115e-16
1.001257139e-16
1.296103066e-16
1.795151375e-16
2.553947605e-16
3.624829964e-16
5.020409285e-16
6.655809795e-16
8.27784512e-16
9.412791406e-16
1.917740057e-16
2.481734398e-16
3.43585762e-16
4.885215135e-16
6.927832792e-16
9.584911904e-16
1.269135082e-15
1.576405894e-15
1.791471573e-15
3.656489258e-16
4.728882836e-16
6.541820919e-16
9.292750537e-16
1.316413982e-15
1.819157405e-15
2.405836972e-15
2.985085107e-15
3.389990361e-15
6.939273951e-16
8.966845428e-16
1.239186319e-15
1.758304991e-15
2.487842758e-15
3.433754991e-15
4.535822132e-15
5.622231789e-15
6.380491511e-15
1.310758108e-15
1.69205392e-15
2.335606362e-15
3.30989808e-15
4.677247296e-15
6.447524489e-15
8.506958914e-15
1.053418248e-14
1.194701426e-14
2.464288694e-15
3.177638513e-15
4.380578164e-15
6.199629192e-15
8.749114417e-15
1.204515311e-14
1.587405261e-14
1.963783178e-14
2.225730651e-14
4.611406137e-15
5.939320525e-15
8.176591542e-15
1.15557653e-14
1.628552522e-14
2.239168972e-14
2.947508352e-14
3.642866271e-14
4.126187198e-14
8.5895178e-15
1.104948774e-14
1.519021406e-14
2.143698205e-14
3.016885484e-14
4.142616776e-14
5.446714896e-14
6.725241897e-14
7.612818476e-14
1.592671855e-14
2.046242635e-14
2.808995037e-14
3.95833041e-14
5.562774157e-14
7.628423817e-14
1.001813128e-13
1.235803347e-13
1.398047493e-13
2.939956744e-14
3.772447069e-14
5.171080911e-14
7.276061763e-14
1.021067818e-13
1.398372929e-13
1.834289957e-13
2.260594027e-13
2.555842944e-13
5.403208156e-14
6.924430879e-14
9.477710162e-14
1.331582776e-13
1.865952861e-13
2.552054335e-13
3.34368075e-13
4.116892154e-13
4.651782946e-13
9.887823187e-14
1.265569172e-13
1.729683141e-13
2.426489904e-13
3.395318312e-13
4.637497046e-13
6.068761283e-13
7.464939512e-13
8.429615806e-13
1.801905719e-13
2.303436095e-13
3.143552901e-13
4.403291978e-13
6.152358159e-13
8.391646055e-13
1.09680864e-12
1.347796523e-12
1.520993278e-12
3.270298917e-13
4.175408308e-13
5.689985882e-13
7.958091441e-13
1.110257147e-12
1.512213918e-12
1.973973981e-12
2.423141754e-12
2.732665513e-12
5.911565954e-13
7.538605994e-13
1.02582668e-12
1.432536484e-12
1.99550561e-12
2.71393208e-12
3.537831206e-12
4.337935363e-12
4.888433487e-12
1.064396986e-12
1.355745993e-12
1.842181293e-12
2.568532672e-12
3.57221512e-12
4.850645651e-12
6.313907121e-12
7.732189271e-12
8.706254574e-12
1.908992107e-12
2.428687548e-12
3.295275796e-12
4.587157007e-12
6.36885301e-12
8.633412499e-12
1.121951129e-11
1.372045227e-11
1.543440249e-11
3.410369024e-12
4.333742163e-12
5.871316996e-12
8.15928213e-12
1.130779772e-11
1.529967515e-11
1.984619269e-11
2.42311071e-11
2.72284428e-11
6.068398788e-12
7.702340344e-12
1.041887991e-11
1.445275962e-11
1.998978764e-11
2.698954019e-11
3.493657406e-11
4.257619689e-11
4.778204746e-11
1.075426701e-11
1.363315533e-11
1.841097637e-11
2.548868443e-11
3.51750339e-11
4.737820955e-11
6.118052039e-11
7.439710242e-11
8.336951362e-11
1.897837295e-11
2.402727124e-11
3.238925711e-11
4.47418749e-11
6.158873256e-11
8.272697085e-11
1.065281049e-10
1.292132568e-10
1.445450561e-10
3.334459617e-11
4.21542943e-11
5.67101931e-11
7.814273279e-11
1.072543868e-10
1.436077955e-10
1.843252825e-10
2.22921811e-10
2.48871471e-10
5.831466424e-11
7.360025164e-11
9.878613608e-11
1.357300246e-10
1.856730745e-10
2.476942797e-10
3.167364805e-10
3.817699807e-10
4.252330109e-10
1.014836503e-10
1.278397959e-10
1.711271596e-10
2.343440832e-10
3.193368672e-10
4.242115464e-10
5.401441161e-10
6.485667499e-10
7.205426546e-10
1.75689404e-10
2.20817353e-10
2.946611748e-10
4.019576237e-10
5.453112233e-10
7.209216755e-10
9.135308499e-10
1.092240042e-09
1.210006562e-09
3.024676982e-10
3.791384727e-10
5.040654867e-10
6.845433812e-10
9.239716706e-10
1.21491735e-09
1.531285678e-09
1.822310788e-09
2.012591314e-09
5.176532872e-10
6.467969612e-10
8.562167704e-10
1.15680879e-09
1.55246989e-09
2.029041914e-09
2.542470039e-09
3.010490349e-09
3.313998796e-09
8.803591999e-10
1.095839966e-09
1.443403148e-09
1.938733148e-09
2.585180517e-09
3.356500058e-09
4.179391682e-09
4.922474567e-09
5.40035456e-09
1.487201103e-09
1.843060272e-09
2.413699789e-09
3.220681858e-09
4.26430678e-09
5.497241517e-09
6.799442352e-09
7.964193458e-09
8.707049124e-09
2.494545415e-09
3.075777048e-09
4.001963565e-09
5.301025209e-09
6.965089214e-09
8.911090916e-09
1.094567189e-08
1.274840012e-08
1.388886218e-08
4.152841605e-09
5.091116441e-09
6.576350431e-09
8.641763153e-09
1.126178879e-08
1.429449741e-08
1.743364706e-08
2.018970677e-08
2.19198141e-08
6.858862657e-09
8.355048375e-09
1.070722818e-08
1.394979578e-08
1.802296663e-08
2.269036983e-08
2.747497676e-08
3.163921288e-08
3.423434985e-08
1.123405806e-08
1.358992142e-08
1.726801077e-08
2.229436798e-08
2.854776654e-08
3.564397861e-08
4.285173025e-08
4.907399579e-08
5.292576163e-08
1.824038774e-08
2.190254832e-08
2.758098706e-08
3.527509042e-08
4.47591832e-08
5.542262797e-08
6.616114209e-08
7.536228798e-08
8.102356193e-08
2.934916735e-08
3.496926711e-08
4.362591807e-08
5.526008202e-08
6.947597274e-08
8.532305896e-08
1.011568353e-07
1.146325034e-07
1.22879176e-07
4.678389934e-08
5.530014128e-08
6.833535624e-08
8.572052759e-08
1.067922811e-07
1.300986882e-07
1.532216347e-07
1.727836494e-07
1.846988695e-07
7.386517794e-08
8.661197637e-08
1.06008709e-07
1.316966908e-07
1.626035862e-07
1.965491279e-07
2.300180838e-07
2.581860267e-07
2.752740972e-07
1.154950539e-07
1.343496836e-07
1.62887563e-07
2.004415762e-07
2.453293743e-07
2.94326944e-07
3.423760251e-07
3.8263503e-07
4.069745007e-07
1.788303709e-07
2.064086426e-07
2.47948613e-07
3.023024754e-07
3.668967332e-07
4.370297877e-07
5.054901698e-07
5.626376608e-07
5.970908519e-07
2.741944811e-07
3.141064328e-07
3.739661556e-07
4.519020388e-07
5.440601182e-07
6.436657488e-07
7.405213009e-07
8.211279524e-07
8.6962143e-07
4.16320456e-07
4.735085558e-07
5.589578102e-07
6.697311975e-07
8.001564664e-07
9.405744847e-07
1.076677053e-06
1.189674535e-06
1.257546805e-06
6.260308671e-07
7.072085723e-07
8.281074991e-07
9.842487558e-07
1.167404581e-06
1.363933133e-06
1.553896031e-06
1.711275371e-06
1.805663551e-06
9.324655335e-07
1.046679468e-06
1.216295292e-06
1.434634167e-06
1.689907846e-06
1.962998711e-06
2.226276963e-06
2.443914156e-06
2.574217281e-06
1.376008674e-06
1.535355027e-06
1.771402043e-06
2.074364866e-06
2.427516079e-06
2.804230739e-06
3.166445277e-06
3.465176927e-06
3.643722372e-06
2.012096807e-06
2.232622213e-06
2.558556304e-06
2.975752936e-06
3.460663143e-06
3.976459719e-06
4.471114603e-06
4.878211128e-06
5.121167213e-06
2.916053657e-06
3.218841907e-06
3.665407476e-06
4.23552863e-06
4.896347154e-06
5.597382379e-06
6.26814089e-06
6.819203675e-06
7.14770096e-06
4.188958523e-06
4.601411191e-06
5.208493229e-06
5.98166008e-06
6.875572961e-06
7.821704541e-06
8.725257575e-06
9.46652811e-06
9.908009516e-06
5.964576458e-06
6.521990327e-06
7.340959431e-06
8.381763496e-06
9.582543437e-06
1.085104189e-05
1.206056911e-05
1.30517166e-05
1.364158822e-05
8.41767928e-06
9.165274008e-06
1.026198122e-05
1.16532676e-05
1.325554974e-05
1.494550437e-05
1.655480699e-05
1.787229897e-05
1.865593015e-05
1.177405977e-05
1.276943818e-05
1.42277656e-05
1.60750351e-05
1.819926935e-05
2.043674353e-05
2.256513786e-05
2.430624214e-05
2.53413457e-05
1.632180334e-05
1.763771207e-05
1.956354419e-05
2.199988935e-05
2.479796762e-05
2.774190827e-05
3.053984619e-05
3.282724118e-05
3.418661923e-05
2.242297204e-05
2.415025723e-05
2.667576493e-05
2.986725862e-05
3.352866519e-05
3.737735778e-05
4.103257406e-05
4.401939621e-05
4.579394655e-05
3.052475001e-05
3.277540007e-05
3.606344304e-05
4.021463125e-05
4.497268477e-05
4.99702792e-05
5.471398306e-05
5.858889422e-05
6.089061734e-05
4.116893484e-05
4.407889677e-05
4.832705945e-05
5.368594149e-05
5.982337235e-05
6.626562282e-05
7.237785931e-05
7.736937003e-05
8.033389861e-05
5.49981496e-05
5.872946338e-05
6.417303054e-05
7.103459064e-05
7.888730659e-05
8.712523068e-05
9.493809198e-05
0.0001013169942
0.0001051049357
7.275703139e-05
7.749866889e-05
8.441160976e-05
9.311866414e-05
0.0001030762022
0.0001135159833
0.0001234129915
0.0001314914861
0.0001362877428
9.528669418e-05
0.0001012533807
0.0001099462573
0.0001208861982
0.0001333871725
0.0001464844704
0.0001588943704
0.0001690205398
0.0001750310779
0.0001235110548
0.0001309393416
0.0001417530652
0.0001553491349
0.0001708701103
0.0001871171355
0.0002025005982
0.0002150472388
0.0002224924951
0.0001584140908
0.0001675550907
0.0001808497069
0.0001975458357
0.0002165825872
0.0002364868917
0.0002553152196
0.0002706598179
0.000279758384
0.0002010076817
0.0002121162093
0.0002282544411
0.0002484934864
0.0002715348071
0.0002955906853
0.0003183143071
0.0003368089165
0.0003477634636
0.0002522902736
0.0002656106209
0.0002849366777
0.0003091329146
0.0003366287101
0.0003652777704
0.0003922866718
0.0004142307085
0.0004272102763
0.0003131971851
0.0003289463197
0.0003517617233
0.0003802695092
0.0004125873332
0.0004461765163
0.0004777659512
0.0005033762683
0.0005184986016
0.0003845453306
0.0004028941461
0.0004294265944
0.0004624991739
0.0004998883173
0.0005386351079
0.0005749714654
0.0006043554745
0.0006216715722
0.0004669618131
0.000488012064
0.0005183885867
0.0005561515246
0.0005987112074
0.0006426716567
0.0006837647712
0.0007168998036
0.0007363825712
0.0005608148643
0.0005845861551
0.0006188132877
0.0006612394908
0.0007088935883
0.0007579395508
0.0008036247265
0.0008403460133
0.0008618843141
0.0006661611974
0.0006925790587
0.0007305273413
0.0007774205908
0.0008299028186
0.0008837108548
0.0009336424409
0.0009736408128
0.0009970394032
0.0007827000843
0.0008115896133
0.000852986316
0.0009039753047
0.0009608264856
0.001018879363
0.001072536072
0.001115365031
0.001140349961
0.0009097454946
0.0009408314578
0.0009852625372
0.001039806143
0.001100383674
0.001161983758
0.001218684229
0.001263774497
0.001290002499
0.001046221345
0.001079134969
0.001126056312
0.001183459727
0.001246958173
0.001311250757
0.001370176481
0.001416854415
0.001443922901
0.001190682545
0.001224974693
0.001273732089
0.001333172913
0.001398654484
0.001464659354
0.001524882363
0.001572387582
0.001599835235
0.001341361572
0.001376521678
0.001426378737
0.001486942457
0.001553377544
0.001620030535
0.001680550107
0.001728060667
0.001755379297
0.001496237102
0.001531716903
0.001581889825
0.001642614104
0.001708933206
0.001775143317
0.001834943946
0.001881626443
0.00190837562
0.001653118388
0.001688358946
0.001738055963
0.001797981067
0.001863135512
0.001927858034
0.001985994427
0.002031224405
0.002057085907
0.001809738069
0.001844198578
0.001892661572
0.001950882517
0.00201390315
0.002076223677
0.002132034937
0.002175341727
0.00220005657
0.001963848022
0.001997036649
0.002043586288
0.002099312683
0.00215944905
0.002218756434
0.002271730192
0.00231273945
0.002336102323
0.002113318326
0.002144826215
0.002188946223
0.002241666621
0.002298422513
0.002354256886
0.002404007102
0.002442437255
0.002464294985
0.002256435184
0.002286024237
0.002327399255
0.002376750629
0.002429764023
0.00248179518
0.002528050126
0.002563707176
0.002583956366
0.002391996219
0.002419502076
0.002457913767
0.002503651348
0.002552682307
0.002600699139
0.002643293018
0.002676064645
0.002694648308
0.002519096376
0.002544417899
0.00257973542
0.002621719744
0.002666640572
0.002710541643
0.002749405735
0.002779254039
0.002796157212
0.002637103251
0.002660196831
0.002692369518
0.002730556623
0.002771341316
0.00281112382
0.002846275826
0.002873228489
0.002888472938
0.002745641168
0.002766515008
0.002795564032
0.002829994584
0.002866706365
0.002902453014
0.002933984633
0.002958124831
0.002971763107
0.002844572406
0.002863279667
0.002889288044
0.002920074738
0.002952851805
0.002984716169
0.003012779527
0.003034235144
0.003046344328
0.002933972563
0.002950603544
0.002973704896
0.003001018638
0.00303005889
0.003058250035
0.003083043773
0.00310197654
0.003112652036
0.003014100604
0.003028774426
0.003049141239
0.003073196968
0.003098742635
0.003123509957
0.003145265727
0.003161860827
0.003171210482
0.003085365424
0.00309822179
0.003116053889
0.00313709688
0.003159419898
0.003181038904
0.003200008902
0.003214465526
0.003222604357
0.003148291153
0.003159482634
0.003174996505
0.003193289802
0.003212678581
0.003231438229
0.003247884251
0.003260407384
0.003267453014
0.003203483238
0.003213168426
0.00322658781
0.003242401302
0.003259149358
0.003275341302
0.003289525545
0.003300319145
0.003306388056
0.00325159703
0.00325993478
0.003271482825
0.003285084197
0.003299480845
0.003313390731
0.003325568458
0.003334830075
0.003340034675
0.003293310109
0.003300454942
0.00331034798
0.00332199562
0.003334318764
0.003346219597
0.003356633613
0.003364550396
0.003368996866
0.003329299029
0.003335397689
0.003343840613
0.003353778409
0.003364289336
0.003374436764
0.003383313571
0.003390059534
0.003393846371
0.003360220795
0.003365409865
0.003372592981
0.00338104683
0.003389986793
0.003398616094
0.003406163503
0.003411897883
0.00341511505
0.003386698983
0.003391103441
0.003397200583
0.003404376372
0.003411964697
0.003419289202
0.003425695169
0.003430561679
0.003433290243
0.003409314139
0.00341304668
0.003418214383
0.003424297176
0.003430730601
0.003436941264
0.003442373685
0.003446500479
0.003448812642
0.003428597927
0.003431758893
0.003436136379
0.003441290538
0.003446743503
0.003452009341
0.003456616582
0.003460116748
0.003462076158
0.00344503038
0.003447708143
0.003451417921
0.003455787905
0.003460413526
0.003464882689
0.003468794627
0.003471767048
0.003473429307
0.00345903962
0.003461311277
0.003464460147
0.003468171782
0.003472103285
0.003475904536
0.00347923393
0.003481764378
0.003483177684
0.003471003406
0.003472935668
0.003475615997
0.003478778026
0.003482130452
0.003485374883
0.003488218937
0.003490381295
0.003491587135
0.003481251981
0.003482902166
0.003485193286
0.003487899056
0.003490771096
0.003493553943
0.003495995933
0.003497853461
0.003498887336
0.003490071724
0.003491488788
0.003493458434
0.003495787611
0.003498263455
0.003500665922
0.003502776813
0.003504383392
0.003505275525
0.003497709261
0.003498934798
0.003500640512
0.003502660759
0.003504811883
0.003506902881
0.003508742876
0.003510144198
0.0035109202
0.003504375708
0.003505444911
0.003506935369
0.003508703913
0.003510590756
0.00351242854
0.003514048516
0.00351528318
0.003515964676
0.003510250871
0.003511193405
0.003512509641
0.003514074716
0.003515748212
0.003517381868
0.003518824681
0.003519925194
0.003520530384
0.003515487224
0.003516328027
0.003517504529
0.003518906678
0.003520409634
0.003521880407
0.003523182067
0.003524175732
0.003524719891
0.003520213607
0.003520973586
0.003522039278
0.003523312497
0.00352468081
0.003526023286
0.00352721398
0.003528123682
0.003528619604
0.003524538555
0.003525235212
0.003526214302
0.003527387051
0.003528650767
0.003529893896
0.00353099889
0.003531843778
0.003532302156
0.003528553285
0.003529201245
0.003530113966
0.003531210032
0.003532394268
0.003533562248
0.00353460266
0.003535398733
0.003535828494
0.003532334296
0.003532945767
0.003533809013
0.003534848256
0.003535973984
0.003537087018
0.003538080478
0.003538841087
0.003539249672
0.003535945643
0.003536530807
0.003537358666
0.003538357654
0.003539442366
0.003540517307
0.003541478515
0.003542214791
0.003542608392
0.003539440883
0.003540008222
0.003540812435
0.003541784974
0.003542843249
0.003543894138
0.003544835341
0.003545556549
0.003545940316
0.003542864729
0.003543421306
0.003544211647
0.00354516923
0.003546213202
0.003547251724
0.003548183111
0.003548896956
0.003549275162
0.003546254459
0.003546806144
0.00354759074
0.003548542923
0.003549582678
0.003550618542
0.003551548574
0.003552261448
0.003552637633
0.003549641089
0.003550192755
0.003550978351
0.003551933062
0.003552976965
0.00355401822
0.003554953905
0.003555671099
0.003556048185
0.003553050363
0.003553606044
0.003554398222
0.00355536202
0.003556416987
0.003557470283
0.003558417406
0.003559143281
0.003559523671
0.003556503569
0.003557066592
0.003557869954
0.003558848243
0.003559919968
0.00356099077
0.00356195408
0.003562692208
0.003563077868
0.003560018224
0.003560591317
0.003561409634
0.003562406839
0.003563499974
0.003564592744
0.003565576107
0.003566329393
0.003566721914
0.00356360863
0.003564194012
0.003565030349
0.003566050058
0.003567168371
0.003568286708
0.003569293238
0.003570064013
0.003570464671
0.00356728634
0.003567885795
0.00356874261
0.003569787694
0.003570934189
0.003572080956
0.003573113118
0.00357390322
0.003574313017
0.003571060539
0.003571675473
0.003572554701
0.003573627412
0.003574804434
0.003575981852
0.003577041546
0.003577852386
0.003578272089
0.003574938352
0.003575569847
0.003576472967
0.003577575017
0.003578784334
0.003579994064
0.003581082698
0.003581915311
0.003582345482
0.003578925104
0.003579573953
0.003580502045
0.003581634671
0.003582877546
0.003584120755
0.003585239302
0.003586094393
0.003586535413
0.003583024528
0.003583691273
0.003584645063
0.003585809081
0.003587086325
0.00358836374
0.003589512786
0.003590390765
0.003590842856
0.003587238937
0.003587923894
0.003588903793
0.003590099641
0.003591411663
0.003592723616
0.003593903398
0.003594804413
0.003595267655
0.003591569371
0.003592272653
0.003593278785
0.003594506562
0.003595853404
0.003597199872
0.003598410312
0.00359933427
0.003599808614
0.003596015711
0.003596737245
0.003597769477
0.003599028972
0.003600410344
0.003601790977
0.00360303171
0.003603978299
0.003604463582
0.003600576779
0.003601316326
0.003602374286
0.003603665005
0.003605080312
0.003606494461
0.003607764856
0.003608733566
0.003609229519
0.003605250424
0.003606007588
0.003607090688
0.003608411874
0.00360986024
0.003611306979
0.003612606163
0.003613596298
0.003614102555
0.003610033593
0.003610807837
0.003611915285
0.003613265939
0.003614746227
0.003616224375
0.003617551246
0.00361856194
0.003619078046
0.003614922396
0.003615713048
0.003616843865
0.003618222764
0.003619733593
0.00362124173
0.003622594977
0.003623625206
0.003624150626
0.003619912161
0.003620718427
0.00362187146
0.003623277169
0.003624816933
0.003626353418
0.003627731535
0.003628780126
0.003629314247
0.003624997489
0.003625818457
0.00362699239
0.00362842328
0.003629990162
0.003631553148
0.003632954445
0.00363402009
0.003634562233
0.003630172299
0.003631006953
0.003632200318
0.003633654578
0.003635246565
0.003636834012
0.003638256633
0.003639337897
0.003639887317
0.003635429878
0.003636277101
0.003637488291
0.003638963942
0.00364057884
0.003642188531
0.003643630462
0.003644725795
0.00364528169
0.003640762925
0.00364162151
0.003642848787
0.003644343693
0.003645979142
0.003647608698
0.003649067782
0.003650175527
0.003650737042
0.003646163599
0.003647032254
0.003648273761
0.003649785646
0.003651439132
0.003653086023
0.003654559974
0.003655678377
0.00365624461
0.003651623563
0.003652500919
0.003653754692
0.003655281149
0.003656950019
0.003658611581
0.003660097995
0.003661225215
0.003661795224
0.003657134029
0.003658018648
0.003659282626
0.00366082113
0.003662502609
0.003664176059
0.003665672426
0.003666806547
0.003667379351
0.003662685806
0.00366357619
0.003664848225
0.003666396152
0.003668087353
0.003669769801
0.003671273523
0.003672412562
0.003672987149
0.00366826935
0.003669163947
0.003670441817
0.003671996451
0.003673694394
0.003675382862
0.003676891261
0.003678033179
0.003678608513
0.003673874812
0.003674772025
0.003676053444
0.003677611996
0.003679313623
0.003681005054
0.00368251539
0.003683658103
0.003684233128
0.003679492086
0.003680390282
0.003681672912
0.003683232531
0.00368493472
0.003686626002
0.003688135484
0.003689276874
0.003689850519
0.003685110865
0.003686008381
0.003687289845
0.003688847635
0.003690547217
0.003692235192
0.003693740995
0.00369487892
0.003695450104
0.003690720686
0.00369161584
0.003692893734
0.003694446768
0.003696140542
0.003697822025
0.003699321302
0.003700453607
0.003701021248
0.003696310992
0.003697202089
0.003698473993
0.003700019326
0.003701704077
0.003703375872
0.00370486577
0.003705990299
0.003706553315
0.003701871175
0.003702756519
0.003704020009
0.003705554695
0.003707227208
0.003708886124
0.003710363798
0.003711478403
0.003712035722
0.003707390636
0.003708268536
0.003709521198
0.003711042303
0.003712699382
0.003714342247
0.003715804874
0.003716907428
0.003717457988
0.003712858835
0.003713727613
0.003714967054
0.003716471674
0.003718110154
0.003719733834
0.003721178626
0.003722267031
0.003722809791
0.003718265345
0.003719123346
0.003720347205
0.003721832475
0.003723449242
0.003725050655
0.003726474874
0.003727547074
0.003728081016
0.003723599901
0.0037244455
0.00372565146
0.003727114574
0.003728706577
0.003730282707
0.003731683679
0.003732737668
0.003733261803
0.00372885245
0.003729684062
0.003730869864
0.003732308083
0.00373387235
0.003735420263
0.00373679539
0.003737829223
0.003738342595
0.003734013205
0.003734829289
0.003735992739
0.003737403409
0.003738937062
0.00374045392
0.003741800692
0.003742812495
0.003743314185
0.003739072686
0.003739871755
0.003741010738
0.003742391299
0.003743891566
0.003745374641
0.003746690649
0.003747678624
0.003748167757
0.003744021767
0.003744802395
0.003745914881
0.003747262883
0.003748727111
0.003750173797
0.003751456744
0.003752419181
0.003752894927
0.003748851718
0.003749612546
0.003750696603
0.003752009713
0.003753435383
0.003754843207
0.003756090916
0.003757026201
0.00375748778
0.003753554247
0.003754293989
0.003755347789
0.003756623803
0.00375800854
0.003759375173
0.0037605856
0.003761492219
0.003761938904
0.003758121533
0.003758838981
0.00375986081
0.003761097664
0.003762439244
0.003763762512
0.003764933754
0.003765810301
0.003766241421
0.003762546261
0.003763240292
0.003764228556
0.003765424334
0.003766720695
0.003767998589
0.003769128889
0.003769974072
0.003770389015
0.003766821654
0.003767491233
0.003768444464
0.003769597403
0.003770846656
0.003772077337
0.003773165094
0.003773977738
0.003774375953
0.003770941496
0.003771585681
0.003772502544
0.003773611044
0.003774811477
0.003775993283
0.003777037055
0.003777816108
0.003778197107
0.003774900159
0.003775518102
0.003776397398
0.003777460026
0.00377861011
0.003779741564
0.003780740074
0.003781484611
0.003781847969
0.003778692617
0.003779283569
0.003780124241
0.003781139735
0.003782238129
0.003783317942
0.003784270082
0.003784979305
0.003785324662
0.003782314466
0.003782877778
0.003783678912
0.003784646185
0.003785691741
0.003786718813
0.003787623646
0.003788296886
0.003788623949
0.003785761932
0.003786297058
0.003787057885
0.003787976028
0.003788967789
0.003789941215
0.003790797976
0.003791434696
0.003791743237
0.00378903188
0.003789538376
0.003790258273
0.003791126554
0.003792063761
0.003792982828
0.003793790926
0.003794390719
0.003794680575
0.003792121815
0.003792599339
0.003793277833
0.0037940957
0.003794977786
0.003795841976
0.00379660099
0.00379716358
0.003797434653
0.003795029885
0.003795478199
0.003796114959
0.003796882037
0.00379770863
0.003798517616
0.003799227298
0.003799752536
0.003800004794
0.003797754873
0.00379817384
0.003798768681
0.003799484771
0.00380025569
0.003801009334
0.003801669604
0.003802157468
0.00380239094
0.003800296194
0.003800685775
0.003801238657
0.003801903731
0.003802618982
0.003803317332
0.003803928274
0.003804378866
0.003804593642
0.003802653877
0.003803014133
0.003803525152
0.003804139352
0.003804799126
0.00380544241
0.003806004268
0.003806417811
0.003806614041
0.003804828558
0.003805159643
0.003805629032
0.003806192665
0.003806797327
0.00380738595
0.003807899125
0.003808275957
0.003808453848
0.003806821456
0.003807123618
0.00380755174
0.003808065269
0.00380861536
0.003809149894
0.003809614935
0.003809955505
0.003810115318
0.003808634356
0.003808907931
0.003809295275
0.003809759316
0.003810255538
0.003810736719
0.003811154317
0.003811459182
0.003811601231
0.003810269586
0.003810514993
0.003810862169
0.003811277482
0.003811720696
0.003812149412
0.003812520395
0.003812790211
0.003812914856
0.003811729989
0.003811947727
0.003812255457
0.003812622942
0.003813014155
0.003813391441
0.003813716762
0.003813952281
0.003814059931
0.003813018896
0.003813209541
0.003813478655
0.003813799338
0.003814139697
0.003814466722
0.003814747457
0.003814949517
0.003815040621
0.003814140098
0.003814304296
0.003814535724
0.003814810751
0.003815101533
0.003815379592
0.003815616925
0.003815786448
0.003815861494
0.003815097815
0.003815236276
0.00381543104
0.003815661669
0.003815904268
0.003816134774
0.00381632999
0.00381646797
0.003816527482
0.00381589666
0.003816010154
0.003816169359
0.003816356951
0.003816552871
0.00381673734
0.003816891814
0.003816999313
0.003817043846
0.003816541605
0.003816630957
0.003816755788
0.003816901791
0.003817052632
0.003817192676
0.003817307868
0.003817386007
0.003817416141
0.003817037951
0.003817104033
0.00381719574
0.003817301687
0.003817409137
0.003817506448
0.003817583887
0.003817633838
0.003817650179
0.003817391287
0.003817435014
0.003817494907
0.0038175624
0.003817628221
0.003817684566
0.003817725841
0.003817748819
0.003817751992
0.003817607454
0.003817629777
0.003817659218
0.00381768992
0.003817715937
0.003817733141
0.003817739893
0.00381773715
0.003817727793
0.00381769251
0.003817694411
0.003817694805
0.003817690428
0.003817678518
0.003817658454
0.003817632364
0.003817605176
0.003817583939
0.003817652693
0.003817635178
0.003817607962
0.003817570258
0.003817522337
0.003817466915
0.003817409692
0.003817359357
0.003817326897
0.003817494382
0.003817458475
0.003817405111
0.003817335861
0.003817253875
0.00381716503
0.003817078402
0.003817006228
0.003816963204
0.003817224061
0.003817170799
0.003817092768
0.00381699377
0.003816879681
0.003816759361
0.003816645066
0.003816552363
0.003816499433
0.003816848286
0.003816778711
0.0038166775
0.00381655056
0.003816406336
0.003816256492
0.003816116265
0.003816004342
0.003815942158
0.003816373644
0.003816288799
0.003816165896
0.003816012819
0.003815840422
0.003815662996
0.003815498561
0.003815368712
0.003815297917
0.003815806721
0.003815707645
0.003815564529
0.003815387107
0.003815188485
0.003814985399
0.00381479846
0.003814651963
0.003814573188
0.00381515407
0.003815041791
0.003814879925
0.003814679929
0.003814457002
0.003814230152
0.003814022384
0.003813860489
0.003813774349
0.003814422176
0.003814297706
0.00381411853
0.0038138977
0.003813652354
0.003813403594
0.003813176635
0.003813000563
0.003812907653
0.003813617426
0.003813481757
0.00381328668
0.003813046718
0.003812780793
0.003812511932
0.003812267372
0.003812078305
0.0038119792
0.00381274608
0.003812600176
0.00381239057
0.003812133132
0.003811848415
0.003811561203
0.003811300583
0.003811099661
0.00381099491
0.00381181424
0.003811659038
0.00381143623
0.003811162916
0.003810861132
0.003810557259
0.003810282058
0.003810070373
0.0038099605
0.003810827827
0.003810664227
0.003810429497
0.003810141845
0.00380982465
0.003809505734
0.003809217365
0.003808995959
0.003808881457
0.003809792554
0.003809621419
0.003809375989
0.00380907547
0.003808744444
0.003808412024
0.00380811183
0.003807881688
0.003807763022
0.003808713901
0.003808536052
0.003808281085
0.003807969094
0.003807625735
0.003807281268
0.003806970516
0.003806732562
0.003806610164
0.003807597096
0.003807413308
0.003807149901
0.003806827756