/*--------------------------------*- C++ -*----------------------------------*\
| =========                 |                                                 |
| \\      /  F ield         | OpenFOAM: The Open Source CFD Toolbox           |
|  \\    /   O peration     | Version:  2212                                  |
|   \\  /    A nd           | Website:  www.openfoam.com                      |
|    \\/     M anipulation  |                                                 |
\*---------------------------------------------------------------------------*/
FoamFile
{
    version     2.0;
    format      ascii;
    arch        "LSB;label=32;scalar=64";
    class       volScalarField;
    location    "2.75000000";
    object      CH3;
}
// * * * * * * * * * * * * * * * * * * * * * * * * * * * * * * * * * * * * * //

dimensions      [0 0 0 0 0 0 0];

internalField   nonuniform List<scalar> 
3000
(
5.815531403e-24
6.656950554e-24
7.932768864e-24
9.64306322e-24
1.177517293e-23
1.427327638e-23
1.698662336e-23
1.958491975e-23
2.143698642e-23
2.22847259e-23
2.56396464e-23
3.072891808e-23
3.757340303e-23
4.618764153e-23
5.652979121e-23
6.84047456e-23
8.118329254e-23
9.247679501e-23
5.172286645e-23
6.007536351e-23
7.288212568e-23
9.041836443e-23
1.130787481e-22
1.412425957e-22
1.748075722e-22
2.118676064e-22
2.436549759e-22
1.034994604e-22
1.21703519e-22
1.500750022e-22
1.898376612e-22
2.426774137e-22
3.101911615e-22
3.922024566e-22
4.822609601e-22
5.556498367e-22
1.954537287e-22
2.331032395e-22
2.92823381e-22
3.783643221e-22
4.94576923e-22
6.455762659e-22
8.29590634e-22
1.027419475e-21
1.181368821e-21
3.610421626e-22
4.36818894e-22
5.589641621e-22
7.370497736e-22
9.827255869e-22
1.304497633e-21
1.694826238e-21
2.105568844e-21
2.414605627e-21
6.634515375e-22
8.135407774e-22
1.058643264e-21
1.420658468e-21
1.924755748e-21
2.58640321e-21
3.382966099e-21
4.206345463e-21
4.811356142e-21
1.221367744e-21
1.515157712e-21
1.99967594e-21
2.721680944e-21
3.732265053e-21
5.057671914e-21
6.641222109e-21
8.255873822e-21
9.42325024e-21
2.2576143e-21
2.827261195e-21
3.773325735e-21
5.191138314e-21
7.180465085e-21
9.784070961e-21
1.287407584e-20
1.599318653e-20
1.8223562e-20
4.189099175e-21
5.284499448e-21
7.112412846e-21
9.861182564e-21
1.372100161e-20
1.876010455e-20
2.470782359e-20
3.066716316e-20
3.489558118e-20
7.793657615e-21
9.88453922e-21
1.338437929e-20
1.86571641e-20
2.605991294e-20
3.570035278e-20
4.702882572e-20
5.831721897e-20
6.628262511e-20
1.451730957e-20
1.848170354e-20
2.512999e-20
3.515456045e-20
4.921872338e-20
6.749163631e-20
8.888754966e-20
1.101193234e-19
1.250405211e-19
2.70379616e-20
3.450873261e-20
4.705029027e-20
6.596445066e-20
9.247451535e-20
1.268445025e-19
1.669692973e-19
2.06656174e-19
2.34470245e-19
5.029310746e-20
6.429127079e-20
8.780234376e-20
1.232526298e-19
1.72885846e-19
2.371082938e-19
3.118815927e-19
3.856201761e-19
4.372577908e-19
9.33421737e-20
1.194263507e-19
1.632429245e-19
2.292826439e-19
3.216438916e-19
4.409402762e-19
5.794734337e-19
7.156573106e-19
8.111686925e-19
1.727229862e-19
2.2105934e-19
3.022435849e-19
4.245320037e-19
5.953916543e-19
8.158323022e-19
1.071689212e-18
1.323200988e-18
1.49763201e-18
3.18481969e-19
4.075540645e-19
5.570917319e-19
7.821464361e-19
1.096180203e-18
1.500639542e-18
1.969036447e-18
2.428283202e-18
2.746903779e-18
5.849892592e-19
7.482500152e-19
1.0221703e-18
1.43401051e-18
2.007912185e-18
2.745890344e-18
3.599037e-18
4.434076719e-18
5.012761219e-18
1.070250862e-18
1.368000863e-18
1.867221227e-18
2.617034459e-18
3.660573686e-18
5.000538423e-18
6.547331581e-18
8.059136043e-18
9.105395404e-18
1.95024949e-18
2.490750739e-18
3.396316291e-18
4.755067946e-18
6.64379326e-18
9.065817751e-18
1.185793881e-17
1.458336256e-17
1.646710966e-17
3.539792086e-18
4.516657053e-18
6.152088182e-18
8.603499871e-18
1.200708463e-17
1.636623108e-17
2.138514427e-17
2.627823521e-17
2.96562435e-17
6.399981992e-18
8.158170046e-18
1.109942834e-17
1.550381448e-17
2.161198838e-17
2.942562788e-17
3.84110829e-17
4.716125875e-17
5.319555125e-17
1.152749216e-17
1.467946339e-17
1.994834939e-17
2.78304989e-17
3.874965301e-17
5.270133483e-17
6.872688325e-17
8.431586352e-17
9.505573604e-17
2.068699857e-17
2.631659694e-17
3.571997567e-17
4.977366288e-17
6.922123516e-17
9.404203056e-17
1.225208061e-16
1.501955758e-16
1.692437412e-16
3.699360893e-17
4.70130627e-17
6.373639547e-17
8.870624111e-17
1.232231536e-16
1.672289355e-16
2.176665939e-16
2.666324342e-16
3.003054134e-16
6.593079171e-17
8.370432048e-17
1.133476481e-16
1.575668904e-16
2.186293279e-16
2.96394614e-16
3.85433194e-16
4.717907704e-16
5.311263466e-16
1.171257902e-16
1.485567158e-16
2.009391709e-16
2.790053969e-16
3.866948946e-16
5.236933285e-16
6.803859043e-16
8.322112746e-16
9.364356733e-16
2.074400472e-16
2.628625157e-16
3.551594493e-16
4.925802978e-16
6.819458512e-16
9.225813281e-16
1.197505677e-15
1.463614997e-15
1.646120296e-15
3.663358628e-16
4.637995849e-16
6.25984083e-16
8.672241679e-16
1.199282748e-15
1.620746268e-15
2.101691789e-15
2.566688346e-15
2.885265398e-15
6.451748324e-16
8.161363005e-16
1.100395476e-15
1.522777336e-15
2.10347615e-15
2.839568477e-15
3.67842313e-15
4.488405321e-15
5.042674736e-15
1.133286942e-15
1.432445598e-15
1.929430231e-15
2.667072203e-15
3.679852317e-15
4.961758919e-15
6.420354898e-15
7.826573232e-15
8.787467699e-15
1.985657897e-15
2.507904344e-15
3.374675923e-15
4.659554369e-15
6.421020068e-15
8.6467283e-15
1.117451572e-14
1.360695269e-14
1.526615159e-14
3.470472017e-15
4.379981652e-15
5.887877297e-15
8.119926548e-15
1.117448111e-14
1.502617549e-14
1.939079191e-14
2.35810448e-14
2.643300169e-14
6.050426789e-15
7.630370788e-15
1.024655755e-14
1.411263225e-14
1.939224253e-14
2.603322757e-14
3.35379047e-14
4.072216357e-14
4.559853581e-14
1.052117864e-14
1.325817533e-14
1.778371844e-14
2.445800427e-14
3.354963627e-14
4.495141778e-14
5.779287702e-14
7.004288737e-14
7.832969037e-14
1.824585667e-14
2.29724336e-14
3.077421788e-14
4.225286214e-14
5.784159131e-14
7.73207921e-14
9.917057943e-14
1.199252709e-13
1.339079731e-13
3.155007592e-14
3.968295495e-14
5.30796034e-14
7.273353011e-14
9.932785739e-14
1.324155151e-13
1.693498142e-13
2.042549385e-13
2.276570458e-13
5.438332665e-14
6.831798275e-14
9.121490484e-14
1.246916778e-13
1.697940599e-13
2.256209004e-13
2.875819906e-13
3.457916354e-13
3.845989911e-13
9.341971095e-14
1.171760729e-13
1.560970177e-13
2.127709144e-13
2.887362776e-13
3.822008516e-13
4.852499965e-13
5.814033694e-13
6.450998692e-13
1.598797126e-13
2.001448956e-13
2.658830955e-13
3.611484758e-13
4.88081247e-13
6.431756076e-13
8.1289219e-13
9.700504165e-13
1.073430224e-12
2.725324226e-13
3.40320265e-13
4.505387715e-13
6.093713228e-13
8.195494961e-13
1.074346698e-12
1.350835221e-12
1.604738418e-12
1.770500087e-12
4.626340251e-13
5.758867809e-13
7.591442798e-13
1.021523209e-12
1.366003162e-12
1.779948302e-12
2.225009904e-12
2.630068082e-12
2.892419148e-12
7.820677607e-13
9.696783099e-13
1.27156019e-12
1.700560472e-12
2.258798557e-12
2.923052337e-12
3.630093239e-12
4.267473957e-12
4.676920146e-12
1.31685649e-12
1.624826368e-12
2.117164185e-12
2.810822902e-12
3.704340706e-12
4.755919218e-12
5.862927787e-12
6.850705322e-12
7.479867173e-12
2.209869027e-12
2.710732733e-12
3.505425343e-12
4.613984722e-12
6.025357569e-12
7.665566303e-12
9.370573007e-12
1.087445533e-11
1.182347524e-11
3.699536342e-12
4.507009738e-12
5.777068636e-12
7.528329022e-12
9.727459891e-12
1.224464604e-11
1.482069984e-11
1.705947818e-11
1.845510309e-11
6.186575554e-12
7.479131115e-12
9.492109009e-12
1.223062022e-11
1.561287642e-11
1.941004304e-11
2.321251338e-11
2.644131608e-11
2.840943371e-11
1.034872079e-11
1.240930138e-11
1.558383443e-11
1.983733524e-11
2.498725506e-11
3.062303981e-11
3.608255282e-11
4.052067339e-11
4.307878568e-11
1.733321321e-11
2.061832756e-11
2.562492415e-11
3.222803003e-11
4.004777722e-11
4.833654148e-11
5.59805607e-11
6.170629062e-11
6.455997245e-11
2.90627175e-11
3.432178212e-11
4.226298352e-11
5.259370359e-11
6.458653397e-11
7.691809296e-11
8.774395497e-11
9.525219697e-11
9.878600657e-11
4.867989891e-11
5.715066772e-11
6.986482746e-11
8.626947608e-11
1.05134074e-10
1.24438376e-10
1.419857346e-10
1.576950585e-10
1.692774769e-10
8.111294685e-11
9.482100217e-11
1.153632608e-10
1.418855397e-10
1.727819707e-10
2.065712144e-10
2.459197035e-10
2.864442049e-10
3.15983929e-10
1.336689363e-10
1.559001623e-10
1.894157274e-10
2.335105376e-10
2.883897926e-10
3.63649692e-10
4.545681576e-10
5.484320167e-10
6.180226604e-10
2.166127209e-10
2.529303955e-10
3.092897503e-10
3.891707828e-10
5.081838762e-10
6.684810009e-10
8.638842862e-10
1.069038628e-09
1.224874822e-09
3.453388829e-10
4.072776772e-10
5.133620598e-10
6.796066289e-10
9.199765688e-10
1.243050701e-09
1.639580742e-09
2.060147686e-09
2.383645734e-09
5.59400879e-10
6.829202178e-10
8.924415446e-10
1.213755052e-09
1.674147152e-09
2.289842248e-09
3.039880244e-09
3.823377472e-09
4.412023588e-09
9.65334254e-10
1.19709175e-09
1.587762237e-09
2.18103074e-09
3.020922578e-09
4.122879423e-09
5.421193433e-09
6.70800684e-09
7.614366964e-09
1.725279943e-09
2.146067866e-09
2.849283365e-09
3.901645066e-09
5.355796652e-09
7.188061603e-09
9.218063372e-09
1.108134136e-08
1.229912886e-08
3.137933039e-09
3.879866031e-09
5.101094284e-09
6.881585222e-09
9.240853972e-09
1.20391312e-08
1.492454249e-08
1.740684862e-08
1.895618572e-08
5.721447408e-09
6.97780859e-09
8.993870614e-09
1.181704714e-08
1.535671234e-08
1.93031364e-08
2.317050471e-08
2.640264263e-08
2.838890347e-08
1.026407008e-08
1.226253655e-08
1.536297169e-08
1.951054342e-08
2.446334867e-08
2.978456807e-08
3.491077557e-08
3.917670301e-08
4.178945959e-08
1.772662159e-08
2.067228871e-08
2.510654621e-08
3.085178501e-08
3.755842707e-08
4.470611644e-08
5.16023095e-08
5.735879996e-08
6.088476299e-08
2.906885663e-08
3.316774079e-08
3.925149073e-08
4.706028634e-08
5.616558125e-08
6.591488629e-08
7.537817088e-08
8.331629079e-08
8.81895215e-08
4.538200196e-08
5.098558967e-08
5.929726374e-08
6.999673498e-08
8.254623256e-08
9.60808399e-08
1.093152161e-07
1.204922562e-07
1.273927893e-07
6.829582062e-08
7.600646069e-08
8.748551671e-08
1.023449873e-07
1.19899899e-07
1.389900062e-07
1.578280093e-07
1.738963992e-07
1.83919504e-07
1.001896773e-07
1.109036461e-07
1.269244237e-07
1.47794478e-07
1.726495269e-07
1.999460989e-07
2.272020074e-07
2.507722617e-07
2.657000263e-07
1.442403081e-07
1.592278511e-07
1.81747196e-07
2.112892219e-07
2.468023318e-07
2.86269943e-07
3.262563987e-07
3.614320252e-07
3.84136644e-07
2.045160255e-07
2.255455467e-07
2.573136488e-07
2.993203824e-07
3.503597964e-07
4.078592346e-07
4.670837703e-07
5.20183579e-07
5.551724512e-07
2.861064641e-07
3.156086697e-07
3.604398338e-07
4.202352516e-07
4.937321398e-07
5.777359091e-07
6.657505068e-07
7.461834353e-07
8.002559435e-07
3.952991082e-07
4.365585886e-07
4.996426402e-07
5.845349036e-07
6.900982815e-07
8.124713764e-07
9.427812529e-07
1.063966143e-06
1.146896701e-06
5.39821919e-07
5.971798581e-07
6.854035936e-07
8.051374625e-07
9.556445514e-07
1.132362573e-06
1.323229002e-06
1.50338434e-06
1.628506098e-06
7.291941605e-07
8.082351819e-07
9.304638033e-07
1.097588802e-06
1.309622835e-06
1.561251484e-06
1.836180343e-06
2.098795143e-06
2.283411911e-06
9.752194836e-07
1.082904243e-06
1.250155565e-06
1.480205139e-06
1.7741921e-06
2.12593938e-06
2.513654072e-06
2.887504424e-06
3.152926416e-06
1.292612418e-06
1.437310736e-06
1.662749635e-06
1.974129954e-06
2.374047138e-06
2.855243295e-06
3.388983011e-06
3.906886689e-06
4.276512797e-06
1.699674055e-06
1.891057867e-06
2.189756103e-06
2.603287223e-06
3.135916506e-06
3.778969104e-06
4.494367086e-06
5.190179503e-06
5.688518419e-06
2.218854294e-06
2.467631637e-06
2.856088308e-06
3.394210294e-06
4.088056126e-06
4.925683446e-06
5.857289863e-06
6.763973047e-06
7.414687384e-06
2.877027903e-06
3.19453806e-06
3.69010924e-06
4.375797084e-06
5.257655142e-06
6.319777853e-06
7.498904369e-06
8.645575246e-06
9.469280218e-06
3.705524957e-06
4.10310992e-06
4.721927955e-06
5.575184141e-06
6.668416495e-06
7.980240566e-06
9.431971478e-06
1.084095205e-05
1.185305029e-05
4.736842436e-06
5.223894759e-06
5.979412458e-06
7.01667308e-06
8.339266057e-06
9.918655265e-06
1.165908444e-05
1.334331212e-05
1.455213559e-05
6.001140259e-06
6.584994204e-06
7.48714113e-06
8.719495185e-06
1.028197991e-05
1.213721449e-05
1.417124634e-05
1.613234186e-05
1.753781496e-05
7.524553706e-06
8.20956381e-06
9.263449895e-06
1.069507861e-05
1.249884875e-05
1.462699107e-05
1.6946919e-05
1.91740907e-05
2.076704134e-05
9.325838937e-06
1.011261282e-05
1.131749032e-05
1.294450327e-05
1.498069627e-05
1.736668943e-05
1.995163514e-05
2.242146683e-05
2.418361593e-05
1.141331136e-05
1.229816772e-05
1.364674614e-05
1.545650522e-05
1.770550295e-05
2.032199709e-05
2.313813964e-05
2.58151571e-05
2.771972004e-05
1.378248485e-05
1.475717078e-05
1.623531728e-05
1.820625271e-05
2.063774073e-05
2.344547939e-05
2.644677772e-05
2.928444533e-05
3.129722632e-05
1.641462887e-05
1.746629748e-05
1.905310831e-05
2.115497178e-05
2.372841143e-05
2.667683609e-05
2.980552285e-05
3.274654254e-05
3.48280056e-05
1.927626012e-05
2.038768959e-05
2.205590438e-05
2.425042733e-05
2.691590051e-05
2.994378516e-05
3.312939428e-05
3.609878073e-05
3.817775958e-05
2.231939533e-05
2.346940684e-05
2.518612397e-05
2.742813364e-05
3.012805356e-05
3.316628209e-05
3.633072381e-05
3.924804093e-05
4.12848728e-05
2.548219295e-05
2.664615682e-05
2.837362654e-05
3.061216626e-05
3.328286512e-05
3.625716367e-05
3.931819794e-05
4.213418466e-05
4.410069358e-05
2.868940441e-05
2.983974846e-05
3.153606639e-05
3.371511516e-05
3.628711679e-05
3.912407139e-05
4.203930291e-05
4.471566702e-05
4.658288493e-05
3.185163468e-05
3.295851179e-05
3.457866233e-05
3.663958144e-05
3.906100348e-05
4.172520557e-05
4.445420055e-05
4.695230368e-05
4.869245777e-05
3.486192927e-05
3.589501214e-05
3.740369697e-05
3.932028444e-05
4.156248872e-05
4.401824686e-05
4.652251245e-05
4.880694214e-05
5.039564354e-05
3.76405299e-05
3.858907e-05
3.99698282e-05
4.171666099e-05
4.374909449e-05
4.596237338e-05
4.820789885e-05
5.024909898e-05
5.166691632e-05
4.014759872e-05
4.099895699e-05
4.223293905e-05
4.378534962e-05
4.55799286e-05
4.752178669e-05
4.948170786e-05
5.12578675e-05
5.249129574e-05
4.233726876e-05
4.307909464e-05
4.414878262e-05
4.548566104e-05
4.701999278e-05
4.866918747e-05
5.032558854e-05
5.182367575e-05
5.286553105e-05
4.416437437e-05
4.478654348e-05
4.567828593e-05
4.678437685e-05
4.804379044e-05
4.938823561e-05
5.073294369e-05
5.194892605e-05
5.27982383e-05
4.559065039e-05
4.608647401e-05
4.679193485e-05
4.765912233e-05
4.863759674e-05
4.967478962e-05
5.070929001e-05
5.164767999e-05
5.230918498e-05
4.658898481e-05
4.695577545e-05
4.747252511e-05
4.810021708e-05
4.880040953e-05
4.953703644e-05
5.027170273e-05
5.094459566e-05
5.142793944e-05
4.714575958e-05
4.738490737e-05
4.771637207e-05
4.811118963e-05
4.854378296e-05
4.899471895e-05
4.944755641e-05
4.98733287e-05
5.019209375e-05
4.726160824e-05
4.73783016e-05
4.753324838e-05
4.770821296e-05
4.789078416e-05
4.807768636e-05
4.827277296e-05
4.847459008e-05
4.864523788e-05
4.69509272e-05
4.695362655e-05
4.694533165e-05
4.691872064e-05
4.687431119e-05
4.682398243e-05
4.678977019e-05
4.679405014e-05
4.683487656e-05
4.624044485e-05
4.614020219e-05
4.598543009e-05
4.577944709e-05
4.553499188e-05
4.527767783e-05
4.504530535e-05
4.488024202e-05
4.481040148e-05
4.516712312e-05
4.497682602e-05
4.469472936e-05
4.43341273e-05
4.391888815e-05
4.34866345e-05
4.308835097e-05
4.278258145e-05
4.262123215e-05
4.377566461e-05
4.350927952e-05
4.312031885e-05
4.263107622e-05
4.207517727e-05
4.150034314e-05
4.096812891e-05
4.054960303e-05
4.031520263e-05
4.211586991e-05
4.17877336e-05
4.131268335e-05
4.072081552e-05
4.005396355e-05
3.93679609e-05
3.873239466e-05
3.822747714e-05
3.793724159e-05
4.024004287e-05
3.986424453e-05
3.932334e-05
3.865390098e-05
3.790433955e-05
3.713663532e-05
3.64260298e-05
3.58588427e-05
3.552836658e-05
3.820061894e-05
3.779049762e-05
3.720275295e-05
3.647905639e-05
3.567277496e-05
3.485016591e-05
3.408997006e-05
3.348196448e-05
3.312499052e-05
3.604813656e-05
3.561590463e-05
3.499861244e-05
3.424167775e-05
3.34018736e-05
3.254802206e-05
3.176046927e-05
3.113020202e-05
3.075852025e-05
3.382962289e-05
3.3386114e-05
3.275452127e-05
3.198273296e-05
3.11295058e-05
3.026470845e-05
2.946867832e-05
2.883176115e-05
2.845521396e-05
3.158741929e-05
3.114195049e-05
3.050909329e-05
2.973804865e-05
2.888829605e-05
2.802944838e-05
2.724050235e-05
2.660968757e-05
2.623625601e-05
2.935843419e-05
2.891876571e-05
2.829543813e-05
2.753795086e-05
2.670542593e-05
2.586614062e-05
2.509669019e-05
2.448205658e-05
2.411800414e-05
2.717378244e-05
2.674615568e-05
2.614098459e-05
2.540720905e-05
2.460270038e-05
2.379353785e-05
2.305310563e-05
2.246231119e-05
2.211236376e-05
2.505875194e-05
2.464798553e-05
2.406758266e-05
2.336522402e-05
2.259681978e-05
2.182559239e-05
2.112113045e-05
2.05597032e-05
2.022724735e-05
2.303302943e-05
2.264265453e-05
2.209181934e-05
2.142639801e-05
2.069980033e-05
1.997191715e-05
1.930815288e-05
1.877979597e-05
1.846708133e-05
2.11111161e-05
2.074353413e-05
2.022548462e-05
1.960062837e-05
1.891948991e-05
1.823831496e-05
1.761810088e-05
1.712499391e-05
1.683332905e-05
1.930286816e-05
1.895951751e-05
1.847613039e-05
1.789387255e-05
1.726013331e-05
1.662733678e-05
1.605198686e-05
1.559507045e-05
1.532500491e-05
1.761410593e-05
1.729562701e-05
1.684767306e-05
1.6308741e-05
1.57229493e-05
1.513883719e-05
1.46084377e-05
1.418767273e-05
1.393916076e-05
1.604724508e-05
1.575363628e-05
1.534100097e-05
1.484508375e-05
1.43066907e-05
1.377050346e-05
1.328419117e-05
1.289878808e-05
1.267133184e-05
1.460191456e-05
1.433267411e-05
1.395455709e-05
1.350054562e-05
1.300816668e-05
1.251834197e-05
1.207454628e-05
1.172316256e-05
1.151593414e-05
1.327553577e-05
1.302978689e-05
1.268487702e-05
1.227107318e-05
1.182271428e-05
1.137711198e-05
1.097376051e-05
1.06546665e-05
1.046660955e-05
1.206384664e-05
1.18404448e-05
1.152706956e-05
1.115136389e-05
1.074461221e-05
1.034070229e-05
9.975390612e-06
9.686605822e-06
9.516518457e-06
1.096136188e-05
1.075898474e-05
1.047523474e-05
1.01352532e-05
9.767433107e-06
9.402448928e-06
9.072578567e-06
8.811981113e-06
8.658581702e-06
9.961765886e-06
9.77898624e-06
9.522816039e-06
9.216038587e-06
8.884337539e-06
8.55539805e-06
8.258285182e-06
8.023697309e-06
7.885675589e-06
9.058239229e-06
8.893583212e-06
8.662891324e-06
8.386745437e-06
8.088312226e-06
7.792516651e-06
7.525475625e-06
7.314728867e-06
7.190784509e-06
8.243723703e-06
8.095715795e-06
7.888406342e-06
7.640338541e-06
7.372357856e-06
7.106856934e-06
6.8672625e-06
6.678245706e-06
6.567116461e-06
7.51113137e-06
7.378328146e-06
7.192356798e-06
6.969885577e-06
6.729632678e-06
6.491680302e-06
6.27701217e-06
6.107705453e-06
6.008186805e-06
6.853504468e-06
6.734518929e-06
6.567925799e-06
6.368679152e-06
6.15355814e-06
5.940546973e-06
5.748420012e-06
5.596917361e-06
5.507875382e-06
6.264133299e-06
6.157651499e-06
6.008583404e-06
5.830323852e-06
5.637892726e-06
5.44737697e-06
5.275560011e-06
5.140082943e-06
5.060461847e-06
5.736639009e-06
5.641430528e-06
5.508154766e-06
5.348794469e-06
5.176779739e-06
5.006487842e-06
4.852913588e-06
4.731817892e-06
4.660643513e-06
5.265027702e-06
5.179951284e-06
5.060862793e-06
4.918470959e-06
4.76477421e-06
4.612613853e-06
4.475382042e-06
4.367159321e-06
4.303539556e-06
4.843721652e-06
4.76772715e-06
4.661350627e-06
4.534155088e-06
4.396853482e-06
4.260910808e-06
4.138286382e-06
4.041561773e-06
3.984684824e-06
4.467572639e-06
4.399700225e-06
4.304688507e-06
4.191072997e-06
4.068415346e-06
3.94695003e-06
3.837357735e-06
3.750884946e-06
3.70001603e-06
4.13186171e-06
4.071239097e-06
3.986368872e-06
3.88486726e-06
3.775266999e-06
3.666704429e-06
3.568720988e-06
3.491375529e-06
3.445852577e-06
3.832288926e-06
3.778127235e-06
3.702292926e-06
3.611581393e-06
3.513607488e-06
3.416529078e-06
3.328873812e-06
3.259645112e-06
3.218873871e-06
3.564956016e-06
3.516544765e-06
3.44875126e-06
3.367639192e-06
3.280005806e-06
3.193138204e-06
3.114662794e-06
3.052645734e-06
3.01609456e-06
3.326344282e-06
3.283045871e-06
3.222400602e-06
3.149820808e-06
3.071376325e-06
2.993580125e-06
2.923258021e-06
2.867644262e-06
2.834838843e-06
3.11328959e-06
3.074533576e-06
3.020238338e-06
2.955237018e-06
2.884952907e-06
2.815211278e-06
2.752127135e-06
2.702196537e-06
2.672714704e-06
2.922955886e-06
2.888233236e-06
2.839576032e-06
2.781302832e-06
2.718262673e-06
2.655670235e-06
2.599009633e-06
2.554121958e-06
2.527588693e-06
2.752808275e-06
2.721665767e-06
2.678012874e-06
2.625711256e-06
2.569100163e-06
2.512852324e-06
2.461891965e-06
2.421478995e-06
2.39756171e-06
2.600586483e-06
2.572621347e-06
2.533409744e-06
2.486407829e-06
2.435502427e-06
2.384885308e-06
2.338983796e-06
2.302541956e-06
2.280946091e-06
2.464279231e-06
2.439134096e-06
2.403864347e-06
2.36156632e-06
2.315725372e-06
2.270106424e-06
2.228695702e-06
2.195779226e-06
2.17624418e-06
2.34209992e-06
2.319458111e-06
2.287687739e-06
2.249565879e-06
2.208221609e-06
2.167040953e-06
2.129618422e-06
2.099833078e-06
2.08212849e-06
2.232463825e-06
2.212045028e-06
2.183382422e-06
2.148969773e-06
2.111619916e-06
2.07438241e-06
2.04050373e-06
2.013501109e-06
1.997423474e-06
2.133966974e-06
2.115523264e-06
2.089622112e-06
2.058505801e-06
2.024706352e-06
1.99097439e-06
1.96024695e-06
1.935719291e-06
1.921088905e-06
2.045366732e-06
2.028678973e-06
2.005233204e-06
1.977048379e-06
1.946407029e-06
1.915794024e-06
1.88787105e-06
1.865546583e-06
1.852204796e-06
1.965564091e-06
1.950438676e-06
1.929177891e-06
1.903602251e-06
1.875772482e-06
1.847937004e-06
1.822512272e-06
1.80215104e-06
1.789957799e-06
1.893587602e-06
1.87985352e-06
1.860538893e-06
1.837287781e-06
1.811963564e-06
1.786604095e-06
1.763407193e-06
1.744797323e-06
1.733628978e-06
1.828578879e-06
1.816085096e-06
1.798505698e-06
1.777327713e-06
1.754238771e-06
1.731089022e-06
1.709881136e-06
1.692835514e-06
1.682582871e-06
1.769779593e-06
1.758392707e-06
1.742362231e-06
1.723035312e-06
1.701942906e-06
1.680767648e-06
1.66133781e-06
1.645691134e-06
1.636257725e-06
1.716519824e-06
1.70612198e-06
1.69147583e-06
1.673803779e-06
1.654496958e-06
1.635088325e-06
1.617250089e-06
1.602856259e-06
1.594156811e-06
1.668207678e-06
1.658694723e-06
1.645287424e-06
1.629096825e-06
1.611389108e-06
1.593563322e-06
1.577151824e-06
1.56388163e-06
1.555840719e-06
1.624320061e-06
1.615599902e-06
1.603302815e-06
1.588440301e-06
1.572166747e-06
1.555761223e-06
1.540630582e-06
1.528369671e-06
1.520920529e-06
1.584394486e-06
1.576385645e-06
1.565084947e-06
1.551414793e-06
1.536429401e-06
1.521300198e-06
1.50732123e-06
1.495968308e-06
1.489051777e-06
1.548021829e-06
1.540652165e-06
1.530247065e-06
1.517649062e-06
1.503822496e-06
1.489842065e-06
1.476900263e-06
1.466365521e-06
1.459929131e-06
1.514839931e-06
1.508045515e-06
1.498446679e-06
1.486814267e-06
1.474031842e-06
1.461087049e-06
1.449080815e-06
1.439284537e-06
1.433281698e-06
1.484527945e-06
1.47825207e-06
1.469380245e-06
1.458618861e-06
1.44677878e-06
1.434769169e-06
1.423608255e-06
1.414479602e-06
1.408868892e-06
1.456801368e-06
1.45099368e-06
1.442778478e-06
1.432804116e-06
1.421815911e-06
1.410652175e-06
1.400256316e-06
1.391732258e-06
1.386476805e-06
1.431407666e-06
1.426023397e-06
1.418402227e-06
1.409140166e-06
1.398923343e-06
1.388525987e-06
1.378823702e-06
1.370848079e-06
1.365915013e-06
1.408122427e-06
1.403121727e-06
1.396038861e-06
1.387422551e-06
1.377905392e-06
1.368203554e-06
1.359131095e-06
1.351653799e-06
1.347013771e-06
1.386745986e-06
1.382093332e-06
1.375499083e-06
1.367469171e-06
1.358587683e-06
1.349518109e-06
1.341018542e-06
1.333994791e-06
1.32962156e-06
1.367100459e-06
1.362764144e-06
1.356614146e-06
1.349117616e-06
1.340814619e-06
1.332320755e-06
1.32434315e-06
1.317732864e-06
1.313602926e-06
1.349027148e-06
1.344978822e-06
1.339233403e-06
1.332222828e-06
1.324447144e-06
1.31647835e-06
1.308977074e-06
1.302744318e-06
1.298836588e-06
1.332384259e-06
1.328598537e-06
1.32322216e-06
1.316655045e-06
1.309360796e-06
1.301871651e-06
1.29480575e-06
1.288918253e-06
1.285213782e-06
1.317044902e-06
1.313499017e-06
1.308459802e-06
1.302298006e-06
1.295443996e-06
1.288393688e-06
1.281726344e-06
1.276155073e-06
1.272636802e-06
1.302895345e-06
1.299568841e-06
1.294838136e-06
1.289047369e-06
1.28259654e-06
1.275948341e-06
1.269646392e-06
1.264365184e-06
1.261017728e-06
1.289833471e-06
1.286707941e-06
1.282259953e-06
1.27680933e-06
1.270728293e-06
1.264449084e-06
1.258482616e-06
1.253467848e-06
1.250277308e-06
1.277767441e-06
1.274826286e-06
1.270637753e-06
1.265499413e-06
1.259758025e-06
1.253817896e-06
1.248159868e-06
1.243390178e-06
1.240343974e-06
1.266614503e-06
1.263842734e-06
1.259892642e-06
1.255041401e-06
1.249612405e-06
1.243984291e-06
1.238610224e-06
1.234066254e-06
1.231152983e-06
1.25629996e-06
1.253684017e-06
1.249953346e-06
1.245366403e-06
1.24022511e-06
1.234884481e-06
1.229772171e-06
1.225436356e-06
1.222645661e-06
1.24675626e-06
1.24428385e-06
1.240755359e-06
1.236412036e-06
1.23153604e-06
1.226460625e-06
1.221589902e-06
1.217446276e-06
1.214768738e-06
1.237922185e-06
1.235582151e-06
1.232240182e-06
1.228121691e-06
1.223490632e-06
1.218660179e-06
1.214012693e-06
1.21004672e-06
1.207473764e-06
1.229742146e-06
1.227524341e-06
1.224354652e-06
1.220443901e-06
1.216039243e-06
1.211435311e-06
1.206994345e-06
1.203192779e-06
1.200716588e-06
1.222165546e-06
1.220060729e-06
1.217050346e-06
1.21333176e-06
1.20913661e-06
1.204742385e-06
1.200492693e-06
1.196843453e-06
1.194456897e-06
1.21514621e-06
1.213145953e-06
1.21028304e-06
1.206742407e-06
1.20274135e-06
1.198541487e-06
1.194469156e-06
1.190961219e-06
1.188657796e-06
1.208641863e-06
1.206738467e-06
1.204012214e-06
1.200636554e-06
1.196815507e-06
1.192795993e-06
1.188888323e-06
1.185511633e-06
1.183285421e-06
1.202613646e-06
1.20080007e-06
1.198200588e-06
1.194978028e-06
1.191324119e-06
1.187472152e-06
1.183717551e-06
1.180462945e-06
1.178308558e-06
1.197025643e-06
1.195295433e-06
1.192813664e-06
1.189733334e-06
1.186234784e-06
1.182538664e-06
1.178926559e-06
1.175785702e-06
1.173698262e-06
1.191844412e-06
1.190191643e-06
1.18781927e-06
1.184871198e-06
1.181517218e-06
1.177966248e-06
1.174487002e-06
1.171452327e-06
1.169427436e-06
1.187038493e-06
1.185457704e-06
1.183187068e-06
1.18036208e-06
1.17714276e-06
1.173727148e-06
1.170371976e-06
1.167436635e-06
1.165470346e-06
1.182577874e-06
1.181064001e-06
1.178888007e-06
1.176177619e-06
1.173083818e-06
1.169794565e-06
1.166555444e-06
1.163713238e-06
1.161802034e-06
1.178433382e-06
1.176981687e-06
1.174893701e-06
1.172289989e-06
1.169313199e-06
1.166141968e-06
1.163011526e-06
1.160256828e-06
1.158397577e-06
1.174575981e-06
1.17318196e-06
1.171175679e-06
1.168671132e-06
1.165803305e-06
1.162742254e-06
1.159713613e-06
1.157041254e-06
1.155231149e-06
1.17097594e-06
1.169635212e-06
1.167704507e-06
1.165291823e-06
1.162525152e-06
1.159566701e-06
1.156633269e-06
1.154038365e-06
1.15227483e-06
1.167601846e-06
1.166310011e-06
1.16444872e-06
1.162120548e-06
1.159447171e-06
1.156583695e-06
1.153738866e-06
1.151216573e-06
1.149497109e-06
1.164419435e-06
1.163171892e-06
1.161373553e-06
1.159122157e-06
1.156533763e-06
1.153757171e-06
1.150993914e-06
1.148539078e-06
1.146861044e-06
1.161390222e-06
1.160181939e-06
1.158439447e-06
1.156256269e-06
1.153743589e-06
1.151044769e-06
1.148355076e-06
1.145961747e-06
1.144322046e-06
1.15846992e-06
1.157295138e-06
1.15560032e-06
1.153475425e-06
1.151027583e-06
1.148395683e-06
1.145769843e-06
1.143430628e-06
1.141825279e-06
1.155606635e-06
1.154458515e-06
1.152801597e-06
1.150722995e-06
1.148326689e-06
1.145748222e-06
1.143173899e-06
1.140879138e-06
1.13930272e-06
1.152738879e-06
1.151609073e-06
1.149978048e-06
1.147930867e-06
1.14556939e-06
1.143027132e-06
1.140488239e-06
1.138224975e-06
1.136669922e-06
1.149793424e-06
1.148671576e-06
1.147051458e-06
1.145016981e-06
1.142669063e-06
1.140140764e-06
1.137616123e-06
1.135366872e-06
1.133822629e-06
1.146683066e-06
1.145556248e-06
1.143928237e-06
1.141882806e-06
1.139521309e-06
1.136978221e-06
1.134440029e-06
1.132181367e-06
1.130633409e-06
1.143304408e-06
1.1421565e-06
1.140497062e-06
1.138410894e-06
1.136001376e-06
1.133406646e-06
1.130818801e-06
1.128519807e-06
1.126948546e-06
1.139535777e-06
1.138346827e-06
1.136626739e-06
1.134462675e-06
1.131961903e-06
1.129268899e-06
1.126585249e-06
1.124205878e-06
1.122585518e-06
1.135235455e-06
1.133981037e-06
1.132164438e-06
1.129876727e-06
1.127231218e-06
1.124381891e-06
1.121544525e-06
1.119034012e-06
1.117331418e-06
1.130240414e-06
1.128891042e-06
1.126934575e-06
1.124467764e-06
1.121612471e-06
1.118535899e-06
1.11547363e-06
1.112769071e-06
1.110942758e-06
1.124365797e-06
1.122886451e-06
1.120738573e-06
1.118026637e-06
1.11488394e-06
1.111495218e-06
1.108122441e-06
1.105147734e-06
1.103147102e-06
1.117405388e-06
1.115755225e-06
1.113355798e-06
1.110321653e-06
1.106800821e-06
1.10300051e-06
1.099216669e-06
1.095882023e-06
1.093646993e-06
1.109133345e-06
1.107265669e-06
1.104545958e-06
1.101101513e-06
1.097098845e-06
1.092773213e-06
1.088463109e-06
1.084665357e-06
1.082126578e-06
1.099307448e-06
1.097170033e-06
1.094053231e-06
1.090100152e-06
1.085500001e-06
1.080522282e-06
1.075557487e-06
1.071181442e-06
1.06826124e-06
1.087674086e-06
1.085209932e-06
1.081612342e-06
1.077043692e-06
1.071720562e-06
1.065953461e-06
1.060195052e-06
1.055116127e-06
1.051730346e-06
1.073975145e-06
1.071123737e-06
1.066956719e-06
1.061659604e-06
1.055481483e-06
1.048781094e-06
1.042083899e-06
1.036172139e-06
1.032232992e-06
1.057956857e-06
1.054655982e-06
1.049828731e-06
1.043688039e-06
1.036521059e-06
1.028742282e-06
1.020960704e-06
1.0140863e-06
1.009506271e-06
1.039380515e-06
1.035568657e-06
1.029991834e-06
1.022895077e-06
1.014609476e-06
1.005612903e-06
9.966082571e-07
9.886484602e-07
9.833451816e-07
1.018034814e-06
1.013654081e-06
1.007244229e-06
9.990873836e-07
9.895646416e-07
9.792246946e-07
9.688738094e-07
9.597209848e-07
9.536229044e-07
9.937493191e-07
9.887488194e-07
9.814334081e-07
9.721275199e-07