/*--------------------------------*- C++ -*----------------------------------*\
| =========                 |                                                 |
| \\      /  F ield         | OpenFOAM: The Open Source CFD Toolbox           |
|  \\    /   O peration     | Version:  2212                                  |
|   \\  /    A nd           | Website:  www.openfoam.com                      |
|    \\/     M anipulation  |                                                 |
\*---------------------------------------------------------------------------*/
FoamFile
{
    version     2.0;
    format      ascii;
    arch        "LSB;label=32;scalar=64";
    class       volScalarField;
    location    "2.75000000";
    object      CH3_0;
}
// * * * * * * * * * * * * * * * * * * * * * * * * * * * * * * * * * * * * * //

dimensions      [0 0 0 0 0 0 0];

internalField   nonuniform List<scalar> 
3000
(
5.806411985e-24
6.646602891e-24
7.920565439e-24
9.628383222e-24
1.175741973e-23
1.42519365e-23
1.696139824e-23
1.955598067e-23
2.140540965e-23
2.225014509e-23
2.560023285e-23
3.068220353e-23
3.751691954e-23
4.611892444e-23
5.644644046e-23
6.830461481e-23
8.106508313e-23
9.234258078e-23
5.164407125e-23
5.998479468e-23
7.277359128e-23
9.028537353e-23
1.129143306e-22
1.410392739e-22
1.745579503e-22
2.115668249e-22
2.433103429e-22
1.033458444e-22
1.215249836e-22
1.498578512e-22
1.895667608e-22
2.423355558e-22
3.097590787e-22
3.916610124e-22
4.815995126e-22
5.548910029e-22
1.951731299e-22
2.327729399e-22
2.924147811e-22
3.77844488e-22
4.939072183e-22
6.447132139e-22
8.28493278e-22
1.026071625e-21
1.179821579e-21
3.605441649e-22
4.362250548e-22
5.582170742e-22
7.360814637e-22
9.814553658e-22
1.302836319e-21
1.692695707e-21
2.102949933e-21
2.411629835e-21
6.625776565e-22
8.124860738e-22
1.057295979e-21
1.418883935e-21
1.922393621e-21
2.583279597e-21
3.378937281e-21
4.201392494e-21
4.805732836e-21
1.219839672e-21
1.513294154e-21
1.99726474e-21
2.718463933e-21
3.727935589e-21
5.051903781e-21
6.633758641e-21
8.24670457e-21
9.412864804e-21
2.254943485e-21
2.823976219e-21
3.769031974e-21
5.185353214e-21
7.172618321e-21
9.773566387e-21
1.286046325e-20
1.597648096e-20
1.820467727e-20
4.184430448e-21
5.278719026e-21
7.104798644e-21
9.850849767e-21
1.370691e-20
1.87411824e-20
2.468328759e-20
3.063708647e-20
3.486163417e-20
7.785500655e-21
9.874390168e-21
1.337093495e-20
1.863882645e-20
2.603481145e-20
3.566658141e-20
4.698502812e-20
5.826359117e-20
6.622217633e-20
1.45030847e-20
1.846394475e-20
2.510637492e-20
3.512223963e-20
4.917436962e-20
6.743188686e-20
8.881007346e-20
1.100245727e-19
1.249338436e-19
2.701324449e-20
3.447781518e-20
4.700908705e-20
6.590794491e-20
9.239685765e-20
1.267398431e-19
1.668337284e-19
2.06490559e-19
2.342840949e-19
5.025039141e-20
6.423781181e-20
8.773106491e-20
1.231548595e-19
1.727515534e-19
2.369276843e-19
3.116479906e-19
3.853322588e-19
4.369386412e-19
9.326885897e-20
1.193346819e-19
1.631208868e-19
2.29115672e-19
3.214154389e-19
4.406340498e-19
5.790715633e-19
7.151288346e-19
8.106260074e-19
1.725981173e-19
2.209035259e-19
3.020367834e-19
4.242502169e-19
5.950078314e-19
8.15320943e-19
1.07104182e-18
1.322457297e-18
1.496754704e-18
3.182709544e-19
4.072913535e-19
5.567440954e-19
7.816744501e-19
1.095539893e-18
1.499788886e-18
1.967949843e-18
2.426976579e-18
2.74543975e-18
5.846356217e-19
7.478107872e-19
1.021590732e-18
1.433225942e-18
2.006850897e-18
2.744484457e-18
3.597244575e-18
4.43191673e-18
5.010353392e-18
1.069663529e-18
1.367273284e-18
1.866264147e-18
2.615742948e-18
3.658831979e-18
4.998237914e-18
6.544406733e-18
8.055619345e-18
9.101481542e-18
1.949283476e-18
2.489557528e-18
3.394752173e-18
4.752964975e-18
6.640967408e-18
9.062098035e-18
1.185322453e-17
1.457770943e-17
1.646082904e-17
3.538219597e-18
4.514720949e-18
6.14956006e-18
8.600114656e-18
1.200255415e-17
1.63602904e-17
2.137764125e-17
2.626926352e-17
2.964629417e-17
6.397449969e-18
8.155063452e-18
1.109538903e-17
1.549842997e-17
2.160481409e-17
2.941625975e-17
3.839929521e-17
4.714720636e-17
5.317999758e-17
1.152346131e-17
1.467453673e-17
1.994197322e-17
2.782204075e-17
3.87384377e-17
5.26867564e-17
6.870861367e-17
8.429415492e-17
9.503175783e-17
2.068065825e-17
2.630887966e-17
3.571003821e-17
4.976055086e-17
6.920394043e-17
9.401966113e-17
1.224928966e-16
1.501625307e-16
1.692073234e-16
3.698376202e-17
4.70011314e-17
6.372111645e-17
8.868619913e-17
1.231968715e-16
1.671951277e-16
2.176246193e-16
2.665829319e-16
3.002509947e-16
6.591570562e-17
8.368613136e-17
1.133244971e-16
1.575367193e-16
2.185900184e-16
2.963443582e-16
3.853711403e-16
4.717179135e-16
5.31046479e-16
1.171030148e-16
1.485294057e-16
2.009046457e-16
2.789607295e-16
3.866371224e-16
5.236199829e-16
6.802959084e-16
8.321061508e-16
9.363208081e-16
2.074062114e-16
2.628221905e-16
3.551088589e-16
4.925153873e-16
6.818625994e-16
9.224764869e-16
1.197377978e-15
1.46346673e-15
1.645958911e-15
3.662864829e-16
4.637411419e-16
6.259114035e-16
8.671318099e-16
1.199165457e-15
1.620599974e-15
2.101515168e-15
2.566484771e-15
2.885044847e-15
6.451042022e-16
8.160533775e-16
1.10029341e-15
1.522649115e-15
2.103315247e-15
2.839370144e-15
3.678186301e-15
4.488134856e-15
5.042383457e-15
1.133188238e-15
1.432330821e-15
1.929290705e-15
2.666899382e-15
3.679638672e-15
4.961499532e-15
6.420049588e-15
7.826228809e-15
8.787099731e-15
1.985523728e-15
2.507750159e-15
3.374491406e-15
4.659329947e-15
6.420748083e-15
8.646404817e-15
1.117414255e-14
1.360653905e-14
1.526571483e-14
3.470295799e-15
4.379782222e-15
5.887643554e-15
8.119649282e-15
1.117415447e-14
1.502579874e-14
1.939037068e-14
2.358059101e-14
2.643253184e-14
6.050205547e-15
7.630125658e-15
1.024627874e-14
1.411231383e-14
1.939188413e-14
2.603283552e-14
3.353749121e-14
4.07217431e-14
4.559811858e-14
1.052091813e-14
1.325789595e-14
1.778341588e-14
2.445768128e-14
3.354930433e-14
4.495109649e-14
5.779258926e-14
7.00426488e-14
7.832949496e-14
1.824558007e-14
2.297215418e-14
3.077394431e-14
4.225261505e-14
5.78414043e-14
7.732070756e-14
9.917063622e-14
1.199254825e-13
1.339083004e-13
3.154983801e-14
3.968274974e-14
5.307946515e-14
7.273351206e-14
9.932803094e-14
1.324159591e-13
1.6935059e-13
2.042560503e-13
2.276583947e-13
5.438323568e-14
6.83179923e-14
9.121509479e-14
1.246921564e-13
1.697949592e-13
2.256223543e-13
2.875840897e-13
3.457943615e-13
3.846021448e-13
9.341996131e-14
1.171765427e-13
1.560978626e-13
2.127723304e-13
2.88738489e-13
3.822040706e-13
4.85254349e-13
5.814087923e-13
6.451060045e-13
1.598806319e-13
2.001462302e-13
2.658851215e-13
3.611515219e-13
4.880856711e-13
6.431817282e-13
8.129001703e-13
9.700601136e-13
1.07344104e-12
2.725345375e-13
3.403231036e-13
4.505427911e-13
6.093770457e-13
8.195574651e-13
1.074357368e-12
1.350848788e-12
1.604754607e-12
1.770517955e-12
4.626381502e-13
5.758920956e-13
7.591515049e-13
1.021533136e-12
1.36601658e-12
1.779965833e-12
2.225031758e-12
2.630093779e-12
2.892447264e-12
7.820751172e-13
9.696875347e-13
1.271572373e-12
1.700576768e-12
2.258820066e-12
2.923079869e-12
3.630126987e-12
4.267513135e-12
4.67696269e-12
1.31686886e-12
1.624841562e-12
2.117183792e-12
2.810848546e-12
3.704373863e-12
4.755960896e-12
5.862978102e-12
6.850763058e-12
7.479929437e-12
2.209888951e-12
2.710756786e-12
3.505455768e-12
4.614023723e-12
6.025407053e-12
7.665627453e-12
9.370645767e-12
1.087453789e-11
1.182356371e-11
3.699567386e-12
4.507046645e-12
5.777114475e-12
7.528386687e-12
9.727531739e-12
1.224473336e-11
1.482080224e-11
1.705959308e-11
1.845522535e-11
6.186622679e-12
7.479186354e-12
9.492176446e-12
1.223070353e-11
1.561297837e-11
1.941016484e-11
2.321265403e-11
2.64414719e-11
2.840959819e-11
1.034879088e-11
1.240938247e-11
1.558393183e-11
1.983745347e-11
2.498739716e-11
3.062320657e-11
3.608274206e-11
4.052087975e-11
4.307900102e-11
1.733331586e-11
2.061844492e-11
2.562506304e-11
3.222819587e-11
4.004797312e-11
4.83367672e-11
5.598081187e-11
6.170655899e-11
6.456024776e-11
2.906286618e-11
3.432195039e-11
4.226318014e-11
5.25939351e-11
6.458680339e-11
7.691839843e-11
8.774428901e-11
9.525254776e-11
9.878636292e-11
4.868011242e-11
5.715090745e-11
6.986510491e-11
8.626979949e-11
1.051344468e-10
1.244387955e-10
1.419861934e-10
1.576955525e-10
1.692779984e-10
8.111325087e-11
9.48213417e-11
1.153636514e-10
1.418859929e-10
1.727824929e-10
2.065718092e-10
2.459203862e-10
2.86444983e-10
3.159847789e-10
1.336693642e-10
1.55900639e-10
1.894162751e-10
2.335111753e-10
2.883905403e-10
3.636505978e-10
4.545692619e-10
5.484333331e-10
6.180241374e-10
2.166133132e-10
2.529310564e-10
3.092905157e-10
3.891716962e-10
5.081850192e-10
6.684824623e-10
8.638861461e-10
1.069040917e-09
1.224877441e-09
3.453396885e-10
4.072785868e-10
5.133631513e-10
6.796080124e-10
9.19978383e-10
1.243053104e-09
1.639583878e-09
2.060151612e-09
2.383650271e-09
5.594019922e-10
6.829215267e-10
8.92443188e-10
1.213757212e-09
1.674150058e-09
2.289846154e-09
3.039885375e-09
3.823383884e-09
4.412030952e-09
9.653359064e-10
1.197093737e-09
1.587764788e-09
2.181034144e-09
3.02092718e-09
4.122885584e-09
5.421201406e-09
6.708016572e-09
7.614377892e-09
1.72528251e-09
2.146070974e-09
2.84928737e-09
3.901650391e-09
5.355803763e-09
7.188070902e-09
9.218075004e-09
1.108135504e-08
1.229914379e-08
3.137937119e-09
3.879870944e-09
5.101100543e-09
6.881593383e-09
9.240864552e-09
1.20391445e-08
1.492455841e-08
1.740686665e-08
1.895620495e-08
5.721453905e-09
6.977816289e-09
8.993880181e-09
1.181705918e-08
1.535672729e-08
1.930315435e-08
2.317052536e-08
2.640266536e-08
2.838892735e-08
1.026408019e-08
1.226254822e-08
1.536298568e-08
1.951056028e-08
2.446336865e-08
2.978459112e-08
3.491080133e-08
3.917673084e-08
4.178948853e-08
1.772663651e-08
2.067230545e-08
2.510656548e-08
3.085180727e-08
3.755845251e-08
4.470614497e-08
5.160234078e-08
5.735883337e-08
6.08847975e-08
2.906887722e-08
3.316776326e-08
3.925151578e-08
4.706031441e-08
5.616561253e-08
6.591492073e-08
7.53782082e-08
8.331633032e-08
8.818956215e-08
4.538202865e-08
5.098561825e-08
5.929729492e-08
6.999676924e-08
8.254627014e-08
9.608088079e-08
1.0931526e-07
1.204923025e-07
1.273928367e-07
6.829585371e-08
7.600649573e-08
8.748555444e-08
1.023450282e-07
1.198999434e-07
1.389900541e-07
1.578280606e-07
1.73896453e-07
1.83919559e-07
1.001897172e-07
1.109036881e-07
1.269244685e-07
1.477945262e-07
1.726495788e-07
1.999461546e-07
2.272020668e-07
2.50772324e-07
2.657000898e-07
1.442403553e-07
1.592279006e-07
1.817472484e-07
2.11289278e-07
2.46802392e-07
2.862700075e-07
3.262564674e-07
3.614320971e-07
3.841367172e-07
2.045160806e-07
2.255456042e-07
2.573137096e-07
2.993204472e-07
3.503598658e-07
4.078593089e-07
4.670838495e-07
5.201836618e-07
5.551725353e-07
2.861065277e-07
3.15608736e-07
3.604399038e-07
4.202353261e-07
4.937322196e-07
5.777359945e-07
6.657505979e-07
7.461835309e-07
8.002560406e-07
3.952991811e-07
4.365586646e-07
4.996427203e-07
5.845349889e-07
6.900983728e-07
8.124714745e-07
9.427813579e-07
1.063966254e-06
1.146896813e-06
5.398220019e-07
5.971799446e-07
6.85403685e-07
8.051375598e-07
9.556446558e-07
1.132362685e-06
1.323229123e-06
1.503384469e-06
1.628506228e-06
7.291942543e-07
8.082352802e-07
9.304639071e-07
1.097588912e-06
1.309622954e-06
1.561251614e-06
1.836180483e-06
2.098795292e-06
2.283412062e-06
9.752195896e-07
1.082904354e-06
1.250155682e-06
1.480205265e-06
1.774192236e-06
2.125939528e-06
2.513654235e-06
2.887504597e-06
3.152926592e-06
1.292612537e-06
1.437310862e-06
1.662749768e-06
1.974130097e-06
2.374047294e-06
2.855243465e-06
3.388983199e-06
3.90688689e-06
4.276513002e-06
1.699674189e-06
1.891058009e-06
2.189756254e-06
2.603287386e-06
3.135916684e-06
3.7789693e-06
4.494367303e-06
5.190179737e-06
5.688518656e-06
2.218854446e-06
2.467631797e-06
2.856088479e-06
3.394210479e-06
4.088056329e-06
4.92568367e-06
5.857290112e-06
6.763973316e-06
7.414687657e-06
2.877028074e-06
3.194538242e-06
3.690109434e-06
4.375797294e-06
5.257655372e-06
6.319778108e-06
7.498904654e-06
8.645575553e-06
9.469280529e-06
3.70552515e-06
4.103110126e-06
4.721928175e-06
5.575184379e-06
6.668416755e-06
7.980240854e-06
9.431971799e-06
1.084095239e-05
1.185305064e-05
4.736842654e-06
5.223894992e-06
5.979412707e-06
7.016673348e-06
8.339266349e-06
9.918655587e-06
1.16590848e-05
1.33433125e-05
1.455213598e-05
6.001140505e-06
6.584994466e-06
7.487141409e-06
8.719495484e-06
1.028198023e-05
1.213721485e-05
1.417124673e-05
1.613234227e-05
1.753781538e-05
7.524553982e-06
8.209564102e-06
9.263450204e-06
1.069507894e-05
1.24988491e-05
1.462699145e-05
1.694691941e-05
1.917409114e-05
2.076704177e-05
9.325839244e-06
1.011261314e-05
1.131749066e-05
1.294450363e-05
1.498069665e-05
1.736668983e-05
1.995163557e-05
2.242146728e-05
2.418361636e-05
1.14133117e-05
1.229816807e-05
1.364674651e-05
1.54565056e-05
1.770550334e-05
2.03219975e-05
2.313814008e-05
2.581515754e-05
2.771972046e-05
1.378248522e-05
1.475717116e-05
1.623531767e-05
1.820625311e-05
2.063774113e-05
2.34454798e-05
2.644677814e-05
2.928444574e-05
3.12972267e-05
1.641462926e-05
1.746629788e-05
1.905310871e-05
2.115497218e-05
2.372841182e-05
2.667683648e-05
2.980552323e-05
3.27465429e-05
3.482800592e-05
1.927626052e-05
2.038768999e-05
2.205590479e-05
2.425042772e-05
2.691590088e-05
2.99437855e-05
3.312939458e-05
3.609878099e-05
3.817775979e-05
2.231939573e-05
2.346940724e-05
2.518612436e-05
2.7428134e-05
3.012805387e-05
3.316628235e-05
3.633072401e-05
3.924804106e-05
4.128487285e-05
2.548219333e-05
2.664615719e-05
2.837362688e-05
3.061216655e-05
3.328286534e-05
3.625716381e-05
3.931819798e-05
4.213418461e-05
4.410069344e-05
2.868940473e-05
2.983974877e-05
3.153606665e-05
3.371511535e-05
3.628711689e-05
3.912407137e-05
4.203930277e-05
4.471566675e-05
4.658288456e-05
3.185163493e-05
3.295851201e-05
3.457866248e-05
3.663958149e-05
3.906100341e-05
4.172520535e-05
4.445420018e-05
4.695230316e-05
4.869245714e-05
3.48619294e-05
3.589501222e-05
3.740369696e-05
3.932028431e-05
4.156248844e-05
4.401824641e-05
4.652251183e-05
4.880694134e-05
5.039564261e-05
3.764052987e-05
3.85890699e-05
3.9969828e-05
4.171666064e-05
4.374909397e-05
4.596237266e-05
4.820789792e-05
5.024909786e-05
5.166691506e-05
4.014759848e-05
4.099895668e-05
4.223293862e-05
4.378534903e-05
4.55799278e-05
4.752178567e-05
4.948170661e-05
5.125786604e-05
5.249129412e-05
4.233726828e-05
4.307909408e-05
4.414878193e-05
4.548566016e-05
4.701999167e-05
4.866918612e-05
5.032558694e-05
5.182367392e-05
5.286552906e-05
4.416437363e-05
4.478654264e-05
4.567828494e-05
4.678437566e-05
4.8043789e-05
4.938823391e-05
5.073294173e-05
5.194892384e-05
5.279823592e-05
4.559064934e-05
4.608647286e-05
4.679193353e-05
4.76591208e-05
4.863759495e-05
4.967478755e-05
5.070928766e-05
5.164767739e-05
5.23091822e-05
4.658898344e-05
4.695577396e-05
4.747252345e-05
4.81002152e-05
4.880040738e-05
4.953703399e-05
5.027169998e-05
5.094459265e-05
5.142793626e-05
4.714575786e-05
4.738490553e-05
4.771637005e-05
4.811118738e-05
4.854378043e-05
4.899471612e-05
4.944755327e-05
4.987332529e-05
5.019209017e-05
4.726160616e-05
4.73782994e-05
4.753324598e-05
4.770821033e-05
4.789078124e-05
4.807768313e-05
4.827276943e-05
4.847458628e-05
4.864523391e-05
4.695092475e-05
4.695362396e-05
4.694532887e-05
4.691871763e-05
4.687430789e-05
4.682397882e-05
4.678976628e-05
4.679404596e-05
4.683487221e-05
4.624044203e-05
4.614019923e-05
4.598542694e-05
4.57794437e-05
4.553498821e-05
4.527767385e-05
4.504530106e-05
4.488023747e-05
4.481039677e-05
4.516711992e-05
4.497682269e-05
4.469472584e-05
4.433412354e-05
4.391888412e-05
4.348663016e-05
4.308834633e-05
4.278257657e-05
4.262122711e-05
4.377566106e-05
4.350927583e-05
4.312031497e-05
4.263107211e-05
4.207517289e-05
4.150033848e-05
4.096812396e-05
4.054959783e-05
4.031519729e-05
4.2115866e-05
4.178772956e-05
4.131267913e-05
4.072081107e-05
4.005395885e-05
3.936795593e-05
3.873238941e-05
3.822747165e-05
3.793723597e-05
4.024003863e-05
3.986424017e-05
3.932333546e-05
3.865389623e-05
3.790433456e-05
3.713663006e-05
3.642602428e-05
3.585883697e-05
3.552836072e-05
3.820061439e-05
3.779049295e-05
3.720274811e-05
3.647905135e-05
3.56727697e-05
3.48501604e-05
3.40899643e-05
3.348195852e-05
3.312498444e-05
3.604813173e-05
3.561589968e-05
3.499860735e-05
3.424167247e-05
3.34018681e-05
3.254801633e-05
3.176046332e-05
3.113019588e-05
3.075851399e-05
3.382961781e-05
3.338610881e-05
3.275451594e-05
3.198272746e-05
3.11295001e-05
3.026470254e-05
2.94686722e-05
2.883175485e-05
2.845520756e-05
3.158741399e-05
3.11419451e-05
3.050908776e-05
2.973804296e-05
2.888829019e-05
2.802944232e-05
2.724049609e-05
2.660968115e-05
2.623624951e-05
2.935842871e-05
2.891876014e-05
2.829543244e-05
2.753794502e-05
2.670541992e-05
2.586613444e-05
2.509668382e-05
2.448205007e-05
2.411799755e-05
2.71737768e-05
2.674614995e-05
2.614097875e-05
2.540720309e-05
2.460269427e-05
2.379353158e-05
2.305309919e-05
2.246230462e-05
2.211235712e-05
2.505874617e-05
2.464797969e-05
2.406757672e-05
2.336521796e-05
2.259681359e-05
2.182558606e-05
2.112112397e-05
2.055969661e-05
2.022724069e-05
2.303302357e-05
2.26426486e-05
2.209181332e-05
2.14263919e-05
2.06997941e-05
1.997191079e-05
1.930814638e-05
1.877978937e-05
1.846707467e-05
2.111111017e-05
2.074352815e-05
2.022547856e-05
1.960062222e-05
1.891948365e-05
1.823830859e-05
1.76180944e-05
1.712498733e-05
1.683332242e-05
1.93028622e-05
1.89595115e-05
1.847612431e-05
1.789386639e-05
1.726012706e-05
1.662733043e-05
1.605198041e-05
1.559506391e-05
1.532499832e-05
1.761409996e-05
1.729562099e-05
1.684766699e-05
1.630873485e-05
1.572294308e-05
1.513883088e-05
1.46084313e-05
1.418766625e-05
1.393915423e-05
1.604723912e-05
1.575363028e-05
1.534099492e-05
1.484507765e-05
1.430668453e-05
1.377049721e-05
1.328418484e-05
1.289878168e-05
1.26713254e-05
1.460190864e-05
1.433266815e-05
1.39545511e-05
1.350053958e-05
1.300816058e-05
1.25183358e-05
1.207454004e-05
1.172315626e-05
1.15159278e-05
1.327552991e-05
1.302978099e-05
1.26848711e-05
1.227106722e-05
1.182270827e-05
1.137710591e-05
1.097375438e-05
1.065466032e-05
1.046660334e-05
1.206384086e-05
1.1840439e-05
1.152706373e-05
1.115135803e-05
1.074460631e-05
1.034069635e-05
9.975384613e-06
9.686599776e-06
9.516512383e-06
1.09613562e-05
1.075897904e-05
1.047522903e-05
1.013524746e-05
9.767427334e-06
9.402443117e-06
9.072572711e-06
8.811975215e-06
8.658575779e-06
9.961760324e-06
9.778980665e-06
9.52281045e-06
9.216032982e-06
8.884331911e-06
8.555392391e-06
8.258279485e-06
8.023691576e-06
7.885669834e-06
9.058233805e-06
8.893577779e-06
8.662885883e-06
8.386739986e-06
8.088306759e-06
7.79251116e-06
7.525470103e-06
7.314723314e-06
7.190778936e-06
8.243718435e-06
8.095710522e-06
7.888401067e-06
7.640333261e-06
7.372352567e-06
7.106851628e-06
6.86725717e-06
6.678240349e-06
6.567111087e-06
7.511126276e-06
7.378323052e-06
7.192351706e-06
6.969880487e-06
6.729627585e-06
6.4916752e-06
6.277007049e-06
6.107700311e-06
6.008181646e-06
6.853499569e-06
6.734514032e-06
6.567920909e-06
6.36867427e-06
6.153553262e-06
5.940542092e-06
5.748415119e-06
5.596912451e-06
5.507870458e-06
6.264128613e-06
6.15764682e-06
6.008578738e-06
5.830319199e-06
5.637888084e-06
5.447372331e-06
5.275555366e-06
5.140078285e-06
5.060457176e-06
5.736634558e-06
5.641426089e-06
5.508150344e-06
5.348790066e-06
5.176775353e-06
5.006483465e-06
4.852909211e-06
4.731813507e-06
4.660639117e-06
5.265023509e-06
5.179947105e-06
5.060858637e-06
4.918466828e-06
4.764770103e-06
4.612609762e-06
4.475377957e-06
4.367155231e-06
4.303535457e-06
4.843717741e-06
4.767723257e-06
4.661346761e-06
4.534151254e-06
4.396849679e-06
4.260907028e-06
4.138282613e-06
4.041558004e-06
3.984681047e-06
4.467569034e-06
4.399696642e-06
4.304684957e-06
4.191069486e-06
4.068411872e-06
3.946946587e-06
3.83735431e-06
3.750881525e-06
3.700012602e-06
4.131858439e-06
4.071235853e-06
3.986365666e-06
3.8848641e-06
3.775263883e-06
3.666701351e-06
3.568717934e-06
3.491372484e-06
3.445849527e-06
3.832286019e-06
3.778124359e-06
3.702290095e-06
3.611578613e-06
3.513604761e-06
3.416526396e-06
3.32887116e-06
3.259642474e-06
3.21887123e-06
3.564953504e-06
3.516542287e-06
3.448748833e-06
3.367636825e-06
3.280003499e-06
3.193135951e-06
3.114660578e-06
3.052643536e-06
3.01609236e-06
3.326342197e-06
3.283043826e-06
3.222398614e-06
3.149818888e-06
3.071374473e-06
2.993578335e-06
2.923256276e-06
2.867642539e-06
2.83483712e-06
3.113287969e-06
3.074532e-06
3.020236826e-06
2.955235581e-06
2.884951548e-06
2.815209988e-06
2.752125897e-06
2.702195327e-06
2.672713496e-06
2.922954765e-06
2.888232165e-06
2.839575032e-06
2.781301916e-06
2.718261844e-06
2.655669485e-06
2.599008943e-06
2.5541213e-06
2.527588039e-06
2.752807694e-06
2.721665242e-06
2.678012427e-06
2.625710902e-06
2.569099905e-06
2.512852154e-06
2.461891862e-06
2.421478931e-06
2.397561652e-06
2.600586484e-06
2.572621408e-06
2.533409892e-06
2.486408079e-06
2.435502783e-06
2.384885762e-06
2.338984325e-06
2.302542529e-06
2.280946672e-06
2.464279858e-06
2.439134789e-06
2.403865133e-06
2.361567219e-06
2.315726387e-06
2.270107547e-06
2.228696909e-06
2.195780482e-06
2.176245445e-06
2.342101217e-06
2.319459481e-06
2.28768921e-06
2.249567472e-06
2.20822333e-06
2.167042791e-06
2.129620352e-06
2.099835063e-06
2.082130487e-06
2.23246584e-06
2.212047121e-06
2.183384626e-06
2.148972109e-06
2.11162239e-06
2.074385012e-06
2.040506433e-06
2.013503873e-06
1.997426251e-06
2.133969755e-06
2.11552613e-06
2.089625098e-06
2.058508929e-06
2.024709629e-06
1.990977806e-06
1.960250476e-06
1.935722884e-06
1.921092513e-06
2.045370331e-06
2.028682663e-06
2.005237022e-06
1.97705235e-06
1.946411161e-06
1.915798305e-06
1.887875451e-06
1.865551056e-06
1.852209286e-06
1.965568559e-06
1.950443241e-06
1.929182594e-06
1.903607118e-06
1.875777522e-06
1.847942204e-06
1.822517599e-06
1.802156446e-06
1.789963224e-06
1.893592991e-06
1.879859013e-06
1.860544534e-06
1.837293597e-06
1.811969564e-06
1.786610267e-06
1.763413502e-06
1.744803716e-06
1.733635392e-06
1.828585245e-06
1.816091572e-06
1.798512331e-06
1.777334532e-06
1.754245787e-06
1.73109622e-06
1.70988848e-06
1.692842948e-06
1.682590328e-06
1.769786991e-06
1.758400221e-06
1.742369912e-06
1.72304319e-06
1.701950992e-06
1.680775928e-06
1.661346245e-06
1.645699664e-06
1.636266279e-06
1.716528309e-06
1.706130588e-06
1.691484613e-06
1.673812771e-06
1.65450617e-06
1.635097742e-06
1.61725967e-06
1.602865941e-06
1.594166518e-06
1.668217306e-06
1.658704481e-06
1.645297366e-06
1.629106987e-06
1.611399502e-06
1.593573932e-06
1.577162607e-06
1.563892519e-06
1.555851635e-06
1.624330888e-06
1.615610866e-06
1.603313974e-06
1.588451691e-06
1.572178378e-06
1.555773081e-06
1.540642622e-06
1.528381822e-06
1.520932708e-06
1.584406569e-06
1.576397871e-06
1.565097377e-06
1.551427465e-06
1.536442326e-06
1.52131336e-06
1.507334581e-06
1.495981777e-06
1.489065274e-06
1.548035225e-06
1.54066571e-06
1.530260822e-06
1.517663072e-06
1.50383677e-06
1.489856586e-06
1.476914982e-06
1.466380361e-06
1.459944e-06
1.514854694e-06
1.508060433e-06
1.498461818e-06
1.486829668e-06
1.474047519e-06
1.461102983e-06
1.449096954e-06
1.439300801e-06
1.433297992e-06
1.48454413e-06
1.478268417e-06
1.469396821e-06
1.45863571e-06
1.446795914e-06
1.434786568e-06
1.423625866e-06
1.414497343e-06
1.408886663e-06
1.456819029e-06
1.451011508e-06
1.442796544e-06
1.432822463e-06
1.421834554e-06
1.410671092e-06
1.400275451e-06
1.391751526e-06
1.386496103e-06
1.431426856e-06
1.42604276e-06
1.418421835e-06
1.409160064e-06
1.398943545e-06
1.388546471e-06
1.37884441e-06
1.370868923e-06
1.365935886e-06
1.408143197e-06
1.403142674e-06
1.39606006e-06
1.387444049e-06
1.377927202e-06
1.368225653e-06
1.359153424e-06
1.351676265e-06
1.347036266e-06
1.386768383e-06
1.382115913e-06
1.375521922e-06
1.367492316e-06
1.358611148e-06
1.349541869e-06
1.341042537e-06
1.334018925e-06
1.329645722e-06
1.367124532e-06
1.362788404e-06
1.356638671e-06
1.349142454e-06
1.340839783e-06
1.33234622e-06
1.324368853e-06
1.317758708e-06
1.313628796e-06
1.349052941e-06
1.345004806e-06
1.339259656e-06
1.332249401e-06
1.324474049e-06
1.316505561e-06
1.309004526e-06
1.302771912e-06
1.298864206e-06
1.332411814e-06
1.328626287e-06
1.323250184e-06
1.316683394e-06
1.309389482e-06
1.301900646e-06
1.294834988e-06
1.288947632e-06
1.285243184e-06
1.317074259e-06
1.313528571e-06
1.308489634e-06
1.302328167e-06
1.295474498e-06
1.288424503e-06
1.281757402e-06
1.276186272e-06
1.272668021e-06
1.302926539e-06
1.299600235e-06
1.294869812e-06
1.289079377e-06
1.282628893e-06
1.275981007e-06
1.269679303e-06
1.264398233e-06
1.261050794e-06
1.289866537e-06
1.286741208e-06
1.282293503e-06
1.276843216e-06
1.270762524e-06
1.264483631e-06
1.258517405e-06
1.253502774e-06
1.250312247e-06
1.277802407e-06
1.274861455e-06
1.270673208e-06
1.265535204e-06
1.259794162e-06
1.253854348e-06
1.248196561e-06
1.243427003e-06
1.24038081e-06
1.266651396e-06
1.26387983e-06
1.259930025e-06
1.25507912e-06
1.24965047e-06
1.24402267e-06
1.23864884e-06
1.234105e-06
1.231191734e-06
1.256338803e-06
1.253723062e-06
1.249992678e-06
1.245406071e-06
1.240265122e-06
1.234924804e-06
1.229812727e-06
1.225477037e-06
1.222686343e-06
1.246797071e-06
1.244324863e-06
1.240796658e-06
1.236453668e-06
1.231578015e-06
1.226502906e-06
1.221632412e-06
1.217488904e-06
1.214811363e-06
1.237964979e-06
1.235625146e-06
1.23228346e-06
1.228165301e-06
1.22353458e-06
1.218704428e-06
1.214057165e-06
1.210091303e-06
1.207518339e-06
1.229786934e-06
1.227569329e-06
1.224399919e-06
1.220489496e-06
1.216085171e-06
1.211481534e-06
1.207040783e-06
1.203239322e-06
1.200763116e-06
1.222212335e-06
1.220107715e-06
1.217097608e-06
1.213379344e-06
1.209184521e-06
1.204790583e-06
1.200541098e-06
1.196891955e-06
1.194505378e-06
1.215195002e-06
1.213194939e-06
1.210332298e-06
1.206791982e-06
1.202791243e-06
1.198591659e-06
1.194519526e-06
1.191011676e-06
1.188708226e-06
1.208692658e-06
1.206789453e-06
1.204063466e-06
1.200688114e-06
1.196867378e-06
1.192848133e-06
1.18894065e-06
1.185564038e-06
1.183337792e-06
1.202666439e-06
1.200853048e-06
1.198253826e-06
1.195031566e-06
1.191377958e-06
1.187526248e-06
1.183771824e-06
1.180517286e-06
1.178362858e-06
1.197080424e-06
1.195350395e-06
1.192868878e-06
1.189788839e-06
1.186290579e-06
1.182594705e-06
1.178982764e-06
1.175841963e-06
1.173754475e-06
1.191901168e-06
1.190248574e-06
1.187876446e-06
1.184928655e-06
1.181574952e-06
1.178024215e-06
1.17454512e-06
1.171510491e-06
1.169485543e-06
1.187097207e-06
1.185516587e-06
1.183246187e-06
1.180421469e-06
1.177202414e-06
1.17378702e-06
1.170431985e-06
1.167496677e-06
1.165530324e-06
1.182638526e-06
1.181124816e-06
1.178949048e-06
1.176238917e-06
1.173145367e-06
1.169856317e-06
1.166617319e-06
1.163775134e-06
1.161863856e-06
1.178495947e-06
1.177044407e-06
1.174956636e-06
1.17235317e-06
1.169376615e-06
1.166205572e-06
1.163075237e-06
1.160320547e-06
1.158461214e-06
1.174640431e-06
1.173246557e-06
1.171240481e-06
1.168736165e-06
1.165868558e-06
1.162807678e-06
1.159779128e-06
1.157106763e-06
1.155296569e-06
1.171042242e-06
1.169701653e-06
1.167771141e-06
1.165358674e-06
1.162592207e-06
1.15963391e-06
1.156700553e-06
1.154105629e-06
1.152341995e-06
1.167669963e-06
1.16637826e-06
1.164517149e-06
1.162189179e-06
1.159515988e-06
1.156652649e-06
1.153807877e-06
1.151285551e-06
1.149565979e-06
1.164489327e-06
1.163241908e-06
1.161443736e-06
1.159192526e-06
1.1566043e-06
1.153827826e-06
1.151064609e-06
1.148609725e-06
1.146931575e-06
1.161461846e-06
1.160253676e-06
1.158511338e-06
1.156328328e-06
1.153815799e-06
1.151117077e-06
1.148427406e-06
1.146034013e-06
1.144394187e-06
1.158543224e-06
1.157368545e-06
1.155673867e-06
1.153549123e-06
1.151101411e-06
1.14846959e-06
1.145843753e-06
1.143504459e-06
1.141898977e-06
1.155681564e-06
1.154533536e-06
1.152876743e-06
1.150798275e-06
1.148402078e-06
1.145823668e-06
1.143249328e-06
1.140954473e-06
1.139377911e-06
1.15281537e-06
1.151685646e-06
1.150054729e-06
1.148007661e-06
1.145646271e-06
1.143104047e-06
1.140565117e-06
1.138301742e-06
1.136746535e-06
1.149871407e-06
1.148749629e-06
1.147129602e-06
1.145095216e-06
1.142747362e-06
1.140219073e-06
1.137694371e-06
1.13544499e-06
1.133900584e-06
1.146762462e-06
1.145635699e-06
1.144007761e-06
1.141962398e-06
1.139600938e-06
1.137057833e-06
1.134519556e-06
1.132260744e-06
1.130712611e-06
1.143385126e-06
1.142237259e-06
1.140577873e-06
1.138491746e-06
1.136082235e-06
1.133487459e-06
1.1308995e-06
1.128600334e-06
1.127028886e-06
1.139617714e-06
1.138428788e-06
1.136708727e-06
1.134544675e-06
1.132043878e-06
1.129350793e-06
1.126666997e-06
1.124287428e-06
1.122666866e-06
1.135318492e-06
1.134064079e-06
1.13224748e-06
1.129959748e-06
1.127314175e-06
1.124464727e-06
1.121627179e-06
1.119116437e-06
1.117413623e-06
1.130324415e-06
1.128975027e-06
1.127018529e-06
1.124551657e-06
1.121696257e-06
1.118619518e-06
1.115557022e-06
1.112852198e-06
1.111025643e-06
1.124450607e-06
1.12297122e-06
1.120823275e-06
1.118111233e-06
1.114968377e-06
1.111579433e-06
1.108206377e-06
1.105231363e-06
1.103230462e-06
1.11749083e-06
1.115840597e-06
1.113441061e-06
1.110406757e-06
1.106885705e-06
1.103085109e-06
1.099300928e-06
1.095965923e-06
1.093730592e-06
1.109219218e-06
1.107351439e-06
1.10463157e-06
1.101186905e-06
1.097183946e-06
1.092857955e-06
1.088547439e-06
1.084749266e-06
1.082210149e-06
1.099393526e-06
1.09725597e-06
1.094138954e-06
1.090185584e-06
1.085585061e-06
1.080606896e-06
1.075641603e-06
1.071265065e-06
1.068344479e-06
1.087760118e-06
1.085295779e-06
1.08169791e-06
1.077128889e-06
1.071805294e-06
1.066037646e-06
1.060278641e-06
1.055199138e-06
1.05181292e-06
1.074060855e-06
1.071209212e-06
1.067041843e-06
1.061744264e-06
1.055565572e-06
1.048864522e-06
1.04216662e-06
1.036254185e-06
1.03231454e-06
1.058041943e-06
1.054740778e-06
1.049913096e-06
1.043771838e-06
1.036604168e-06
1.028824603e-06
1.021042193e-06
1.014167005e-06
1.009586407e-06
1.039464658e-06
1.035652449e-06
1.030075106e-06
1.022977671e-06
1.01469125e-06
1.00569375e-06
9.96688132e-07
9.88727431e-07
9.834235053e-07
1.018117678e-06
1.013736528e-06
1.00732606e-06
9.991684155e-07
9.896447133e-07
9.793036882e-07
9.689516823e-07
9.597978233e-07
9.536990112e-07
9.938305578e-07
9.888295722e-07
9.81513444e-07