/*--------------------------------*- C++ -*----------------------------------*\
| =========                 |                                                 |
| \\      /  F ield         | OpenFOAM: The Open Source CFD Toolbox           |
|  \\    /   O peration     | Version:  2212                                  |
|   \\  /    A nd           | Website:  www.openfoam.com                      |
|    \\/     M anipulation  |                                                 |
\*---------------------------------------------------------------------------*/
FoamFile
{
    version     2.0;
    format      ascii;
    arch        "LSB;label=32;scalar=64";
    class       volScalarField;
    location    "2.75000000";
    object      CH3COCH2;
}
// * * * * * * * * * * * * * * * * * * * * * * * * * * * * * * * * * * * * * //

dimensions      [0 0 0 0 0 0 0];

internalField   nonuniform List<scalar> 
3000
(
4.273628887e-24
4.903970915e-24
5.860465763e-24
7.143890724e-24
8.745342267e-24
1.062321788e-23
1.266424178e-23
1.461991748e-23
1.601553792e-23
1.642398321e-23
1.894555238e-23
2.27740209e-23
2.792838115e-23
3.442227059e-23
4.222529793e-23
5.118928512e-23
6.083616705e-23
6.93611117e-23
3.831197414e-23
4.462283083e-23
5.430914222e-23
6.758917736e-23
8.477118037e-23
1.061492854e-22
1.316482166e-22
1.598179216e-22
1.839949771e-22
7.719224e-23
9.104164666e-23
1.126528736e-22
1.429864612e-22
1.833586578e-22
2.350173344e-22
2.978488159e-22
3.669221092e-22
4.232826101e-22
1.470035485e-22
1.75881189e-22
2.217533057e-22
2.875743681e-22
3.771620866e-22
4.937762269e-22
6.361249435e-22
7.893987801e-22
9.088838612e-22
2.741537697e-22
3.328036053e-22
4.274952668e-22
5.658270597e-22
7.570624112e-22
1.008051784e-21
1.313118069e-21
1.634740885e-21
1.877217129e-21
5.09026381e-22
6.263157657e-22
8.181915673e-22
1.102197932e-21
1.498573674e-21
2.020015702e-21
2.64915273e-21
3.300817577e-21
3.780704162e-21
9.472443932e-22
1.179122729e-21
1.562244216e-21
2.13443753e-21
2.937259245e-21
3.992711656e-21
5.25664219e-21
6.54821619e-21
7.484131407e-21
1.770174371e-21
2.224320037e-21
2.979998355e-21
4.115111691e-21
5.711732145e-21
7.806549654e-21
1.029863556e-20
1.28198409e-20
1.462681304e-20
3.32058242e-21
4.202689405e-21
5.677518591e-21
7.90052943e-21
1.102991916e-20
1.512569252e-20
1.997163815e-20
2.483802902e-20
2.829885015e-20
6.244263607e-21
7.944811942e-21
1.079679455e-20
1.510361968e-20
2.116541366e-20
2.907941291e-20
3.840154301e-20
4.771159702e-20
5.429586678e-20
1.175323517e-20
1.50091391e-20
2.047977833e-20
2.874787199e-20
4.037670676e-20
5.552319299e-20
7.330062815e-20
9.098087434e-20
1.034336736e-19
2.211277303e-20
2.830717237e-20
3.872574341e-20
5.447432201e-20
7.660181712e-20
1.05360289e-19
1.390126527e-19
1.723702285e-19
1.957991684e-19
4.153673712e-20
5.325144247e-20
7.296392405e-20
1.027537607e-19
1.445625528e-19
1.987907454e-19
2.620723326e-19
3.246102414e-19
3.684975782e-19
7.782298125e-20
9.984910262e-20
1.369163757e-19
1.92907062e-19
2.713988052e-19
3.730189644e-19
4.912877923e-19
6.077862822e-19
6.896656712e-19
1.453233303e-19
1.864950733e-19
2.557687715e-19
3.603408611e-19
5.067832918e-19
6.961528124e-19
9.164229277e-19
1.133386074e-18
1.284142571e-18
2.703179405e-19
3.468230064e-19
4.754841333e-19
6.69523744e-19
9.408830632e-19
1.291152613e-18
1.697641551e-18
2.096954659e-18
2.374510604e-18
5.007190442e-19
6.420740623e-19
8.796361376e-19
1.237532222e-18
1.737335415e-18
2.381402455e-18
3.127484287e-18
3.859080701e-18
4.366983488e-18
9.235078405e-19
1.183295147e-18
1.619565635e-18
2.276103849e-18
3.191722131e-18
4.369843393e-18
5.732447992e-18
7.066589479e-18
7.991466491e-18
1.695923597e-18
2.170987146e-18
2.968145632e-18
4.166470103e-18
5.835504254e-18
7.980016697e-18
1.045680438e-17
1.28785147e-17
1.45550472e-17
3.101028956e-18
3.965650832e-18
5.41530551e-18
7.592124897e-18
1.062019569e-17
1.450567972e-17
1.898713886e-17
2.336326657e-17
2.638899791e-17
5.646345939e-18
7.212871437e-18
9.837182652e-18
1.37736254e-17
1.924268464e-17
2.625122555e-17
3.432432625e-17
4.219797354e-17
4.763559825e-17
1.023836372e-17
1.306438284e-17
1.77946953e-17
2.488252177e-17
3.471805344e-17
4.73063118e-17
6.178858038e-17
7.589643637e-17
8.562897172e-17
1.849030746e-17
2.356755391e-17
3.205896717e-17
4.476890366e-17
6.238522714e-17
8.490436212e-17
1.107804912e-16
1.359596613e-16
1.533118042e-16
3.32633508e-17
4.234966508e-17
5.753337357e-17
8.023654131e-17
1.116672723e-16
1.517976423e-16
1.978568783e-16
2.426275389e-16
2.734511127e-16
5.961561409e-17
7.581667644e-17
1.028670613e-16
1.432716775e-16
1.991444184e-16
2.703979462e-16
3.520849325e-16
4.314029996e-16
4.859594907e-16
1.064621016e-16
1.352483892e-16
1.832721114e-16
2.549298912e-16
3.539066556e-16
4.799800899e-16
6.243463454e-16
7.643750172e-16
8.605938605e-16
1.894712787e-16
2.404519999e-16
3.254313566e-16
4.520990065e-16
6.268530178e-16
8.491773913e-16
1.10345325e-15
1.349810767e-15
1.518916494e-15
3.361057607e-16
4.261154953e-16
5.760241005e-16
7.992324808e-16
1.106801357e-15
1.497590419e-15
1.943963947e-15
2.375905614e-15
2.672065895e-15
5.943714433e-16
7.528276481e-16
1.01649808e-15
1.408649275e-15
1.948309267e-15
2.633025539e-15
3.414008885e-15
4.168689797e-15
4.685471252e-15
1.047959116e-15
1.326135608e-15
1.788584728e-15
2.475537354e-15
3.419539774e-15
4.615396771e-15
5.977131952e-15
7.290857913e-15
8.189090303e-15
1.842362655e-15
2.329389146e-15
3.138208953e-15
4.338067924e-15
5.984247242e-15
8.065832654e-15
1.043154334e-14
1.27093701e-14
1.426391615e-14
3.229760707e-15
4.080119083e-15
5.490727185e-15
7.580137954e-15
1.044144218e-14
1.405181818e-14
1.814541587e-14
2.207750827e-14
2.47549508e-14
5.645801063e-15
7.12635397e-15
9.579172378e-15
1.320594406e-14
1.816174633e-14
2.439902478e-14
3.145116194e-14
3.820522572e-14
4.279133672e-14
9.840284836e-15
1.241024024e-14
1.666148166e-14
2.293452074e-14
3.148420498e-14
4.221184585e-14
5.429960142e-14
6.583512194e-14
7.364109254e-14
1.709822997e-14
2.154413284e-14
2.888568876e-14
3.96924927e-14
5.437619409e-14
7.273320505e-14
9.333288173e-14
1.129069478e-13
1.260978537e-13
2.961112605e-14
3.727275513e-14
4.989838101e-14
6.843017569e-14
9.351864022e-14
1.247474344e-13
1.596211186e-13
1.925898222e-13
2.146990253e-13
5.109509507e-14
6.423949236e-14
8.584769222e-14
1.174572089e-13
1.600674602e-13
2.128371554e-13
2.714318588e-13
3.264987123e-13
3.632195826e-13
8.780968588e-14
1.102425869e-13
1.47015756e-13
2.005979329e-13
2.724693621e-13
3.609560717e-13
4.585741609e-13
5.497016148e-13
6.100856824e-13
1.502164876e-13
1.882665439e-13
2.504355831e-13
3.406121906e-13
4.608838381e-13
6.079819592e-13
7.690884669e-13
9.183760827e-13
1.016618938e-12
2.55639923e-13
3.197137237e-13
4.240101081e-13
5.745175082e-13
7.739832407e-13
1.01616522e-12
1.279336539e-12
1.521287809e-12
1.679358548e-12
4.324615352e-13
5.394450906e-13
7.128543441e-13
9.616721798e-13
1.289147075e-12
1.683656314e-12
2.108845e-12
2.496602082e-12
2.748079869e-12
7.265977743e-13
9.034620395e-13
1.188804197e-12
1.595692177e-12
2.127263144e-12
2.762476685e-12
3.4414382e-12
4.055746345e-12
4.45137129e-12
1.211280761e-12
1.500306448e-12
1.96422991e-12
2.621381967e-12
3.473330353e-12
4.483130662e-12
5.553884894e-12
6.515630109e-12
7.131185558e-12
2.001499852e-12
2.467516085e-12
3.211400812e-12
4.257711254e-12
5.603516967e-12
7.185972506e-12
8.851541124e-12
1.033813062e-11
1.128495109e-11
3.274973677e-12
4.014832697e-12
5.188702053e-12
6.827359093e-12
8.91784511e-12
1.135641049e-11
1.390523808e-11
1.616793473e-11
1.76039684e-11
5.302549319e-12
6.456695483e-12
8.275387886e-12
1.079274467e-11
1.397506209e-11
1.765468217e-11
2.147119514e-11
2.483915566e-11
2.69687607e-11
8.493220901e-12
1.025877963e-11
1.301840862e-11
1.679907194e-11
2.152357574e-11
2.692088611e-11
3.245174892e-11
3.727597696e-11
4.029538414e-11
1.346348656e-11
1.610818938e-11
2.019989383e-11
2.572924427e-11
3.252311731e-11
4.012656398e-11
4.772285647e-11
5.414234683e-11
5.801258972e-11
2.114694453e-11
2.502355198e-11
3.094110478e-11
3.878312985e-11
4.815877883e-11
5.82480224e-11
6.775148569e-11
7.508270807e-11
7.892289135e-11
3.296040312e-11
3.851923035e-11
4.685281097e-11
5.758370626e-11
6.984083786e-11
8.205595771e-11
9.204642267e-11
9.775446211e-11
9.888685951e-11
5.101263506e-11
5.87931832e-11
7.017255937e-11
8.420988913e-11
9.905991447e-11
1.117584938e-10
1.187600322e-10
1.17934894e-10
1.119628471e-10
7.822787886e-11
8.875394267e-11
1.036075563e-10
1.207424257e-10
1.365792782e-10
1.461125174e-10
1.447681435e-10
1.323999194e-10
1.169201396e-10
1.179834931e-10
1.313762187e-10
1.492108764e-10
1.674969826e-10
1.801777616e-10
1.806379761e-10
1.661640094e-10
1.422426941e-10
1.208820271e-10
1.724255801e-10
1.874945869e-10
2.054722104e-10
2.196342208e-10
2.219204541e-10
2.075283344e-10
1.804395662e-10
1.512431427e-10
1.29673171e-10
2.385845299e-10
2.516317186e-10
2.633929631e-10
2.651725047e-10
2.506931644e-10
2.222433153e-10
1.896409148e-10
1.609665896e-10
1.408374227e-10
3.037843566e-10
3.089825217e-10
3.072295627e-10
2.919300806e-10
2.634786375e-10
2.295974392e-10
1.973251241e-10
1.691108059e-10
1.482417134e-10
3.487452102e-10
3.430638762e-10
3.277396097e-10
3.017744335e-10
2.696442938e-10
2.364151056e-10
2.037744028e-10
1.728152439e-10
1.493574061e-10
3.667524555e-10
3.549410818e-10
3.349806665e-10
3.082975137e-10
2.773916554e-10
2.433220863e-10
2.068846302e-10
1.71962571e-10
1.466520911e-10
3.744774709e-10
3.627613091e-10
3.439918723e-10
3.182406998e-10
2.855939098e-10
2.469305908e-10
2.059881546e-10
1.689716898e-10
1.435193102e-10
3.875109096e-10
3.76070875e-10
3.564130467e-10
3.273282206e-10
2.893211778e-10
2.459968781e-10
2.031666838e-10
1.665044662e-10
1.420444067e-10
4.029654727e-10
3.886995459e-10
3.643844471e-10
3.297471806e-10
2.875496785e-10
2.42946713e-10
2.011493259e-10
1.662968393e-10
1.432308924e-10
4.098973177e-10
3.91791998e-10
3.632683193e-10
3.259154106e-10
2.836000601e-10
2.40964284e-10
2.018536819e-10
1.693151037e-10
1.476540643e-10
4.048346979e-10
3.852663349e-10
3.563030701e-10
3.203987164e-10
2.811777194e-10
2.422225192e-10
2.063895795e-10
1.762121998e-10
1.558266244e-10
3.93435873e-10
3.752366102e-10
3.490349905e-10
3.171898181e-10
2.825665669e-10
2.479092201e-10
2.154926046e-10
1.876064414e-10
1.683720224e-10
3.822474888e-10
3.670224971e-10
3.451315009e-10
3.18364789e-10
2.888667936e-10
2.587250813e-10
2.298000193e-10
2.042152726e-10
1.860969358e-10
3.749033584e-10
3.631917767e-10
3.46093404e-10
3.247444846e-10
3.00602549e-10
2.751844745e-10
2.499728607e-10
2.268905339e-10
2.099955357e-10
3.725593285e-10
3.64493773e-10
3.523302172e-10
3.365746236e-10
3.180514059e-10
2.977380376e-10
2.767068958e-10
2.56576792e-10
2.411881979e-10
3.753111604e-10
3.709227054e-10
3.637924867e-10
3.538615247e-10
3.413754317e-10
3.267782275e-10
3.106646187e-10
2.942005474e-10
2.807901045e-10
3.828811301e-10
3.822149764e-10
3.80272846e-10
3.765080996e-10
3.706403991e-10
3.625770012e-10
3.523522055e-10
3.405017598e-10
3.297164907e-10
3.949373723e-10
3.980729934e-10
4.01530227e-10
4.043518839e-10
4.057834247e-10
4.051924449e-10
4.01970799e-10
3.958397204e-10
3.884639128e-10
4.11231128e-10
4.182588171e-10
4.273352471e-10
4.371640037e-10
4.465675555e-10
4.543800803e-10
4.592901847e-10
4.600519053e-10
4.570069799e-10
4.316484599e-10
4.426270845e-10
4.574813519e-10
4.746384759e-10
4.925508978e-10
5.095481964e-10
5.236079334e-10
5.324738359e-10
5.347947786e-10
4.562114942e-10
4.711215217e-10
4.917783269e-10
5.163883549e-10
5.430969197e-10
5.697967979e-10
5.938691497e-10
6.117812131e-10
6.199197788e-10
4.850388082e-10
5.037430727e-10
5.300385265e-10
5.619691676e-10
5.974683076e-10
6.341789534e-10
6.685586853e-10
6.955321373e-10
7.096874655e-10
5.182797572e-10
5.405093021e-10
5.720882003e-10
6.109687892e-10
6.551206003e-10
7.013489374e-10
7.452753586e-10
7.80847567e-10
8.008757613e-10
5.560681625e-10
5.814655581e-10
6.179542679e-10
6.6332588e-10
7.149180469e-10
7.692585281e-10
8.214721941e-10
8.646587569e-10
8.900386752e-10
5.987849545e-10
6.269643297e-10
6.674247769e-10
7.177684794e-10
7.751426746e-10
8.358332678e-10
8.94607269e-10
9.439469957e-10
9.738049458e-10
6.459647842e-10
6.759848354e-10
7.191056628e-10
7.727959877e-10
8.340598354e-10
8.990265821e-10
9.622724886e-10
1.015941061e-09
1.049124962e-09
6.961108487e-10
7.270433699e-10
7.714704948e-10
8.267754772e-10
8.898809673e-10
9.568642854e-10
1.022290593e-09
1.078256728e-09
1.11344232e-09
7.475125107e-10
7.784203218e-10
8.227760444e-10
8.779288389e-10
9.407917012e-10
1.007501418e-09
1.072788374e-09
1.128981569e-09
1.164789802e-09
7.98187495e-10
8.281563964e-10
8.711019874e-10
9.243975934e-10
9.850246772e-10
1.049289961e-09
1.112249968e-09
1.166712204e-09
1.201818132e-09
8.459776489e-10
8.741619083e-10
9.144678831e-10
9.643559644e-10
1.020955262e-09
1.08084435e-09
1.139542656e-09
1.190539325e-09
1.223753648e-09
8.887133894e-10
9.143772521e-10
9.50982405e-10
9.961380662e-10
1.047193105e-09
1.101081453e-09
1.153888602e-09
1.19994134e-09
1.23023138e-09
9.243892729e-10
9.469362597e-10
9.789858821e-10
1.018348362e-09
1.06264443e-09
1.109208366e-09
1.154731821e-09
1.194461971e-09
1.220779105e-09
9.513105987e-10
9.702971657e-10
9.971568775e-10
1.029933762e-09
1.066534643e-09
1.104660844e-09
1.14148072e-09
1.172866556e-09
1.19196955e-09
9.681836585e-10
9.833146775e-10
1.00455684e-09
1.030194266e-09
1.058390267e-09
1.087103502e-09
1.113686474e-09
1.13403249e-09
1.146483027e-09
9.741243956e-10
9.85222714e-10
1.000567047e-09
1.01864519e-09
1.037786584e-09
1.056062201e-09
1.070380485e-09
1.081928695e-09
1.089743972e-09
9.685388332e-10
9.754752805e-10
9.846469653e-10
9.946101609e-10
1.003486823e-09
1.010284058e-09
1.016010464e-09
1.021378635e-09
1.025728059e-09
9.507251369e-10
9.532965232e-10
9.557446252e-10
9.565290841e-10
9.562453578e-10
9.554026642e-10
9.549606641e-10
9.556789249e-10
9.572906151e-10
9.185762009e-10
9.163486063e-10
9.126375534e-10
9.07385008e-10
9.012112723e-10
8.950438492e-10
8.900255665e-10
8.871342537e-10
8.86537096e-10
8.737707814e-10
8.686670976e-10
8.612099868e-10
8.51917915e-10
8.416729165e-10
8.316473407e-10
8.231763957e-10
8.174715915e-10
8.151011113e-10
8.218828904e-10
8.149259739e-10
8.050003715e-10
7.929227821e-10
7.797914917e-10
7.669567354e-10
7.559106773e-10
7.480585581e-10
7.443003233e-10
7.660122325e-10
7.578246897e-10
7.4623883e-10
7.322531049e-10
7.171183853e-10
7.023087584e-10
6.894251658e-10
6.800097268e-10
6.752136294e-10
7.081164635e-10
6.991404537e-10
6.864901758e-10
6.712802447e-10
6.548603744e-10
6.387793365e-10
6.24697439e-10
6.142355803e-10
6.087173512e-10
6.496139608e-10
6.40198983e-10
6.269652675e-10
6.11097216e-10
5.93998455e-10
5.772484663e-10
5.625215558e-10
5.514647618e-10
5.455031945e-10
5.916332315e-10
5.820682833e-10
5.686519184e-10
5.526011196e-10
5.353352157e-10
5.184262916e-10
5.035236975e-10
4.922561851e-10
4.860902011e-10
5.351055379e-10
5.256298747e-10
5.123627663e-10
4.965226017e-10
4.795121155e-10
4.628641831e-10
4.481715582e-10
4.370093445e-10
4.308365888e-10
4.807943532e-10
4.716011895e-10
4.587504435e-10
4.434359204e-10
4.270172011e-10
4.109625908e-10
3.967839554e-10
3.859761172e-10
3.799533596e-10
4.293035929e-10
4.205424006e-10
4.083134409e-10
3.937649636e-10
3.781924544e-10
3.629804814e-10
3.495428231e-10
3.392756959e-10
3.335213614e-10
3.810822768e-10
3.728616608e-10
3.614024554e-10
3.477911755e-10
3.332438476e-10
3.190481531e-10
3.065088232e-10
2.969121266e-10
2.915099769e-10
3.364318501e-10
3.288233611e-10
3.182301069e-10
3.056654362e-10
2.922555569e-10
2.791833461e-10
2.676389436e-10
2.587932381e-10
2.537969355e-10
2.955183899e-10
2.885613933e-10
2.788855541e-10
2.674238393e-10
2.552068149e-10
2.433091616e-10
2.328053368e-10
2.247501409e-10
2.201882116e-10
2.583890156e-10
2.520959596e-10
2.433518086e-10
2.330056357e-10
2.219903942e-10
2.112728906e-10
2.018143089e-10
1.945562513e-10
1.904370538e-10
2.24990759e-10
2.193525766e-10
2.115248498e-10
2.022723372e-10
1.924315366e-10
1.828646022e-10
1.744244544e-10
1.679449822e-10
1.642613894e-10
1.951906438e-10
1.901819485e-10
1.83233136e-10
1.75026684e-10
1.663062e-10
1.578345383e-10
1.503631686e-10
1.446254827e-10
1.413590801e-10
1.687955476e-10
1.643793656e-10
1.582563034e-10
1.510304257e-10
1.433577517e-10
1.359086321e-10
1.293410212e-10
1.242960506e-10
1.214207452e-10
1.455707117e-10
1.417025909e-10
1.36342146e-10
1.300201678e-10
1.233115288e-10
1.168017343e-10
1.11063724e-10
1.06655068e-10
1.041400684e-10
1.252561169e-10
1.218875374e-10
1.172212977e-10
1.117208368e-10
1.058869618e-10
1.002283759e-10
9.524163937e-11
9.140949445e-11
8.922167763e-11
1.075802818e-10
1.046613606e-10
1.006193336e-10
9.585659103e-11
9.080719187e-11
8.591109858e-11
8.159693728e-11
7.828108693e-11
7.638680289e-11
9.227133481e-11
8.975286994e-11
8.626626014e-11
8.215921609e-11
7.780629457e-11
7.358652488e-11
6.986862972e-11
6.701061177e-11
6.537699551e-11
7.906543843e-11
7.690036717e-11
7.390354337e-11
7.037420045e-11
6.663434458e-11
6.300943954e-11
5.981577409e-11
5.736035689e-11
5.595622833e-11
6.77128032e-11
6.585716624e-11
6.328895002e-11
6.026478292e-11
5.706062938e-11
5.39551978e-11
5.121916927e-11
4.911526936e-11
4.791170045e-11
5.798162098e-11
5.639512792e-11
5.419953674e-11
5.161430956e-11
4.887534603e-11
4.622079012e-11
4.388186419e-11
4.20830298e-11
4.105365309e-11
4.966028644e-11
4.830657328e-11
4.643314429e-11
4.422724465e-11
4.189011164e-11
3.962487627e-11
3.762877567e-11
3.609334612e-11
3.521447005e-11
4.255827434e-11
4.140493356e-11
3.980873971e-11
3.792916033e-11
3.593759058e-11
3.40070704e-11
3.230567586e-11
3.099670992e-11
3.024729596e-11
3.650601165e-11
3.552446321e-11
3.416591517e-11
3.256599227e-11
3.087050228e-11
2.922671666e-11
2.777776744e-11
2.666281617e-11
2.602436239e-11
3.135403961e-11
3.051929815e-11
2.936380765e-11
2.800280357e-11
2.656022825e-11
2.516135132e-11
2.392802144e-11
2.297880479e-11
2.243517075e-11
2.697171043e-11
2.626209153e-11
2.527965453e-11
2.412225186e-11
2.289519221e-11
2.170500414e-11
2.065541248e-11
1.98474438e-11
1.938464306e-11
2.324561254e-11
2.264241015e-11
2.180715334e-11
2.08229109e-11
1.977914669e-11
1.876645399e-11
1.787314834e-11
1.718534028e-11
1.67913205e-11
2.007787271e-11
1.956503109e-11
1.885475283e-11
1.801755737e-11
1.712945759e-11
1.626751735e-11
1.550696544e-11
1.492123938e-11
1.458566243e-11
1.73844402e-11
1.69482348e-11
1.634396029e-11
1.563149887e-11
1.487545909e-11
1.414142941e-11
1.349353284e-11
1.299444622e-11
1.270847768e-11
1.509342695e-11
1.472216513e-11
1.420773062e-11
1.360099846e-11
1.295691645e-11
1.233134618e-11
1.177899013e-11
1.135339114e-11
1.110950453e-11
1.314355253e-11
1.282729949e-11
1.238897196e-11
1.187182324e-11
1.132262163e-11
1.078898676e-11
1.031763136e-11
9.954345478e-12
9.746144187e-12
1.148271971e-11
1.121305202e-11
1.083918768e-11
1.039793277e-11
9.929131827e-12
9.473421175e-12
9.070736698e-12
8.760286747e-12
8.582344706e-12
1.006673302e-11
9.836520167e-12
9.517262055e-12
9.140311417e-12
8.739651751e-12
8.350001487e-12
8.005546683e-12
7.739906071e-12
7.587627042e-12
8.858162046e-12
8.661375079e-12
8.388388342e-12
8.065941079e-12
7.723053984e-12
7.389428574e-12
7.094370038e-12
6.866747334e-12
6.736241968e-12
7.825344583e-12
7.656890024e-12
7.423132291e-12
7.14690612e-12
6.853028024e-12
6.566944004e-12
6.313813274e-12
6.118465752e-12
6.006445071e-12
6.941520471e-12
6.797097189e-12
6.596620802e-12
6.359619653e-12
6.107346442e-12
5.861634876e-12
5.644119607e-12
5.476192915e-12
5.379876644e-12
6.184084472e-12
6.060061121e-12
5.887843821e-12
5.684158937e-12
5.467235776e-12
5.255839108e-12
5.068604482e-12
4.92399551e-12
4.841033623e-12
5.533945773e-12
5.427256345e-12
5.279056997e-12
5.103697488e-12
4.91683982e-12
4.734638876e-12
4.573175544e-12
4.448415637e-12
4.376821521e-12
4.974981576e-12
4.883036713e-12
4.755272838e-12
4.604021866e-12
4.442763503e-12
4.285430691e-12
4.145925743e-12
4.038081591e-12
3.976175291e-12
4.493572765e-12
4.414184707e-12
4.303828829e-12
4.1731219e-12
4.033686469e-12
3.897561562e-12
3.776789324e-12
3.683379069e-12
3.629739245e-12
4.078210585e-12
4.009529789e-12
3.914021917e-12
3.800844115e-12
3.680036506e-12
3.562021741e-12
3.457251562e-12
3.376173947e-12
3.329597287e-12
3.719164272e-12
3.659625997e-12
3.576799858e-12
3.478599216e-12
3.373714085e-12
3.271185724e-12
3.180104221e-12
3.109578842e-12
3.069045825e-12
3.408200733e-12
3.356480081e-12
3.28450102e-12
3.1991156e-12
3.107860314e-12
3.018594177e-12
2.939239749e-12
2.877756731e-12
2.842402793e-12
3.138348458e-12
3.09332256e-12
3.03063532e-12
2.956231866e-12
2.876661696e-12
2.798770495e-12
2.729478218e-12
2.675755851e-12
2.64484712e-12
2.903698875e-12
2.86441512e-12
2.809699945e-12
2.744722317e-12
2.67518593e-12
2.607066573e-12
2.546421841e-12
2.499370955e-12
2.472283823e-12
2.699239334e-12
2.66488867e-12
2.617024417e-12
2.560150248e-12
2.499243895e-12
2.439533168e-12
2.386332708e-12
2.345026699e-12
2.321230657e-12
2.52071272e-12
2.490607226e-12
2.448640373e-12
2.398744642e-12
2.345273635e-12
2.292810944e-12
2.24603003e-12
2.209679654e-12
2.188722847e-12
2.364499481e-12
2.338053521e-12
2.301172115e-12
2.25729652e-12
2.210242849e-12
2.164038882e-12
2.122803756e-12
2.09073592e-12
2.072232997e-12
2.227518455e-12
2.204232833e-12
2.171744593e-12
2.133071806e-12
2.091566901e-12
2.050777261e-12
2.014341921e-12
1.98598184e-12
1.969603728e-12
2.107143496e-12
2.086592141e-12
2.057906041e-12
2.02373805e-12
1.987039852e-12
1.950942866e-12
1.918669525e-12
1.89352569e-12
1.878990992e-12
2.001133374e-12
1.98295213e-12
1.957562899e-12
1.927302764e-12
1.894776425e-12
1.862754445e-12
1.834097071e-12
1.811748591e-12
1.79881633e-12
1.907572759e-12
1.891449949e-12
1.868925015e-12
1.842061508e-12
1.813163126e-12
1.784686776e-12
1.759177212e-12
1.73926314e-12
1.727726649e-12
1.824822538e-12
1.81049101e-12
1.790459497e-12
1.766554155e-12
1.740817052e-12
1.715431941e-12
1.692668197e-12
1.674878523e-12
1.664560288e-12
1.751477939e-12
1.738708363e-12
1.720851813e-12
1.699528008e-12
1.676551161e-12
1.653866658e-12
1.633503025e-12
1.617571072e-12
1.608318379e-12
1.686333225e-12
1.67492843e-12
1.658972971e-12
1.639906684e-12
1.619344945e-12
1.599024703e-12
1.580763399e-12
1.566459395e-12
1.558140648e-12
1.628351888e-12
1.618142084e-12
1.603851807e-12
1.586763833e-12
1.568319661e-12
1.5500736e-12
1.5336577e-12
1.520783341e-12
1.513284953e-12
1.576641476e-12
1.56748021e-12
1.55465157e-12
1.539300918e-12
1.522717384e-12
1.506294904e-12
1.491502361e-12
1.479886207e-12
1.473109963e-12
1.5304323e-12
1.522193033e-12
1.510650113e-12
1.496828419e-12
1.48188328e-12
1.467067513e-12
1.453706083e-12
1.443199654e-12
1.437060481e-12
1.48905942e-12
1.481632629e-12
1.47122312e-12
1.458749912e-12
1.445250587e-12
1.431853517e-12
1.41975646e-12
1.410230929e-12
1.404654998e-12
1.451947379e-12
1.445238096e-12
1.435829892e-12
1.42454857e-12
1.412327875e-12
1.400186202e-12
1.389208627e-12
1.380552007e-12
1.375475129e-12
1.418597259e-12
1.412522985e-12
1.404001286e-12
1.393775715e-12
1.382688238e-12
1.371659857e-12
1.361675619e-12
1.353790373e-12
1.349156628e-12
1.388575692e-12
1.383064623e-12
1.375329481e-12
1.366041081e-12
1.355960105e-12
1.345921113e-12
1.336820171e-12
1.32962118e-12
1.325381756e-12
1.361505529e-12
1.356495045e-12
1.349459268e-12
1.34100455e-12
1.331819424e-12
1.322661574e-12
1.31434774e-12
1.307760568e-12
1.30387277e-12
1.33705789e-12
1.332493274e-12
1.326080643e-12
1.318369105e-12
1.309983014e-12
1.301611539e-12
1.29400056e-12
1.287959978e-12
1.284386382e-12
1.314945414e-12
1.310778751e-12
1.304922504e-12
1.297874832e-12
1.290202888e-12
1.282534649e-12
1.275552569e-12
1.270001297e-12
1.26670903e-12
1.294916486e-12
1.291105731e-12
1.285747264e-12
1.279293805e-12
1.272261418e-12
1.26522332e-12
1.258805082e-12
1.253692706e-12
1.250652829e-12
1.276750326e-12
1.273258507e-12
1.268346264e-12
1.262425717e-12
1.255967202e-12
1.249494838e-12
1.243583089e-12
1.238865144e-12
1.236052125e-12
1.26025279e-12
1.25704732e-12
1.25253585e-12
1.247094141e-12
1.241151528e-12
1.235188026e-12
1.229732086e-12
1.225369264e-12
1.222760528e-12
1.245252776e-12
1.242304874e-12
1.238154014e-12
1.233143341e-12
1.227665355e-12
1.222160378e-12
1.21711537e-12
1.213072844e-12
1.210648382e-12
1.231599155e-12
1.228883342e-12
1.225057525e-12
1.220435535e-12
1.215376719e-12
1.210285614e-12
1.205611705e-12
1.20185855e-12
1.199600592e-12
1.219158137e-12
1.216651805e-12
1.213119462e-12
1.208848543e-12
1.204168507e-12
1.199451577e-12
1.195113333e-12
1.191622024e-12
1.18951475e-12
1.207811008e-12
1.205494054e-12
1.202227102e-12
1.19827378e-12
1.193936555e-12
1.189558427e-12
1.185524256e-12
1.182270241e-12
1.180299537e-12
1.1974522e-12
1.195306707e-12
1.192280105e-12
1.18861452e-12
1.184588004e-12
1.180517087e-12
1.17675876e-12
1.17372009e-12
1.171873335e-12
1.187987615e-12
1.185997577e-12
1.183188952e-12
1.179784407e-12
1.176039885e-12
1.172247908e-12
1.168740144e-12
1.165897156e-12
1.164163042e-12
1.179333192e-12
1.177484283e-12
1.174873598e-12
1.171706177e-12
1.168217909e-12
1.164679512e-12
1.161399628e-12
1.158734667e-12
1.157103042e-12
1.171413671e-12
1.169693038e-12
1.167262313e-12
1.164310544e-12
1.161055409e-12
1.157747803e-12
1.154675401e-12
1.152172589e-12
1.150634318e-12
1.164161525e-12
1.162557616e-12
1.160290683e-12
1.157535251e-12
1.154492439e-12
1.151395104e-12
1.148511808e-12
1.146156835e-12
1.144703687e-12
1.157516033e-12
1.156018444e-12
1.153900737e-12
1.151324234e-12
1.148474985e-12
1.145569411e-12
1.14285864e-12
1.140638589e-12
1.139263136e-12
1.15142248e-12
1.150021824e-12
1.1480402e-12
1.145626911e-12
1.142954283e-12
1.140223748e-12
1.137670518e-12
1.135573714e-12
1.134269243e-12
1.145831458e-12
1.144519253e-12
1.142661832e-12
1.14039755e-12
1.137886219e-12
1.135315598e-12
1.132906353e-12
1.130922234e-12
1.129682671e-12
1.140698251e-12
1.139466823e-12
1.137722853e-12
1.135594717e-12
1.133230813e-12
1.13080641e-12
1.128528873e-12
1.126647876e-12
1.125467728e-12
1.135982299e-12
1.134824694e-12
1.133184433e-12
1.13118079e-12
1.128951743e-12
1.126661148e-12
1.124504202e-12
1.122717667e-12
1.121591962e-12
1.13164671e-12
1.130556622e-12
1.129011234e-12
1.127121516e-12
1.125015929e-12
1.122847896e-12
1.120801468e-12
1.119101559e-12
1.118025803e-12
1.127657816e-12
1.126629521e-12
1.125170988e-12
1.123385605e-12
1.12139314e-12
1.119337475e-12
1.117392444e-12
1.115772072e-12
1.114742208e-12
1.123984768e-12
1.123013062e-12
1.121634096e-12
1.119944338e-12
1.118055615e-12
1.116103076e-12
1.114251186e-12
1.112703948e-12
1.11171632e-12
1.120599131e-12
1.119679277e-12
1.118373247e-12
1.116771193e-12
1.114977688e-12
1.113119892e-12
1.111353671e-12
1.109873785e-12
1.108925103e-12
1.11747449e-12
1.116602163e-12
1.115363016e-12
1.113841443e-12
1.112135395e-12
1.110364723e-12
1.108677396e-12
1.107259641e-12
1.106346945e-12
1.11458604e-12
1.11375727e-12
1.112579454e-12
1.111131741e-12
1.109506047e-12
1.107815541e-12
1.106200938e-12
1.104840575e-12
1.103961193e-12
1.111910146e-12
1.111121259e-12
1.109999634e-12
1.108619658e-12
1.107067752e-12
1.10545099e-12
1.103903435e-12
1.102596121e-12
1.101747615e-12
1.109423869e-12
1.108671411e-12
1.10760115e-12
1.106283155e-12
1.104798868e-12
1.103249822e-12
1.10176399e-12
1.100505659e-12
1.099685757e-12
1.107104422e-12
1.106385083e-12
1.105361546e-12
1.104099993e-12
1.102677377e-12
1.101190219e-12
1.099760956e-12
1.098547671e-12
1.09775417e-12
1.104928579e-12
1.104239085e-12
1.103257675e-12
1.102047051e-12
1.100680157e-12
1.099249028e-12
1.097871118e-12
1.096698868e-12
1.095929508e-12
1.102872004e-12
1.102208994e-12
1.10126497e-12
1.100099558e-12
1.098782163e-12
1.097400873e-12
1.096068741e-12
1.094933183e-12
1.094185491e-12
1.100908499e-12
1.10026838e-12
1.09935664e-12
1.098230232e-12
1.096955505e-12
1.095617163e-12
1.094324507e-12
1.093220646e-12
1.092491722e-12
1.099009199e-12
1.098387964e-12
1.097502782e-12
1.096408339e-12
1.095168434e-12
1.093865007e-12
1.092604347e-12
1.09152614e-12
1.090812409e-12
1.097141691e-12
1.096534716e-12
1.095669434e-12
1.094598691e-12
1.093384279e-12
1.092106064e-12
1.090868211e-12
1.0898081e-12
1.089105006e-12
1.095269111e-12
1.094670919e-12
1.0938176e-12
1.092760611e-12
1.091560335e-12
1.090295367e-12
1.089068817e-12
1.088017191e-12
1.087318854e-12
1.093349224e-12
1.092753227e-12
1.09190227e-12
1.090846913e-12
1.089646798e-12
1.088380184e-12
1.087150451e-12
1.086095055e-12
1.085393887e-12
1.091333551e-12
1.090731776e-12
1.089871505e-12
1.088802949e-12
1.08758577e-12
1.086298998e-12
1.085047904e-12
1.083973215e-12
1.08325952e-12
1.089166578e-12
1.088549381e-12
1.087665635e-12
1.086565805e-12
1.085310447e-12
1.083980683e-12
1.082685651e-12
1.081572258e-12
1.080833832e-12
1.086785121e-12
1.086140922e-12
1.085216649e-12
1.084063713e-12
1.082744573e-12
1.081344e-12
1.079977396e-12
1.078801425e-12
1.078023196e-12
1.084117929e-12
1.083432967e-12
1.082447875e-12
1.081215794e-12
1.079802259e-12
1.07829752e-12
1.076826107e-12
1.075558758e-12
1.074722504e-12
1.081085585e-12
1.080343734e-12
1.07927402e-12
1.077932221e-12
1.076388295e-12
1.074740111e-12
1.07312469e-12
1.071731957e-12
1.070816148e-12
1.077600825e-12
1.076783488e-12
1.075601702e-12
1.074114915e-12
1.072399066e-12
1.070562107e-12
1.068757438e-12
1.06720009e-12
1.066179926e-12
1.073569336e-12
1.072655457e-12
1.071330535e-12
1.069658878e-12
1.067724181e-12
1.065647287e-12
1.063602385e-12
1.061836301e-12
1.06068399e-12
1.068891146e-12
1.067857374e-12
1.066354904e-12
1.064454264e-12
1.062248921e-12
1.059875759e-12
1.05753466e-12
1.055511616e-12
1.054196979e-12
1.063462675e-12
1.062283706e-12
1.06056647e-12
1.058389261e-12
1.05585758e-12
1.053127834e-12
1.050430925e-12
1.04809991e-12
1.046591352e-12
1.057179519e-12
1.055828654e-12
1.053857489e-12
1.051353836e-12
1.048437742e-12
1.045288903e-12
1.042174897e-12
1.03948403e-12
1.037749943e-12
1.049939994e-12
1.048389938e-12
1.046124965e-12
1.043244361e-12
1.039885469e-12
1.03625528e-12
1.032663878e-12
1.029562971e-12
1.027573582e-12
1.041649454e-12
1.039873365e-12
1.037275586e-12
1.033969042e-12
1.03011133e-12
1.025940897e-12
1.021816132e-12
1.018259889e-12
1.015989558e-12
1.032225319e-12
1.030198105e-12
1.027231374e-12
1.023454036e-12