/*--------------------------------*- C++ -*----------------------------------*\
| =========                 |                                                 |
| \\      /  F ield         | OpenFOAM: The Open Source CFD Toolbox           |
|  \\    /   O peration     | Version:  2212                                  |
|   \\  /    A nd           | Website:  www.openfoam.com                      |
|    \\/     M anipulation  |                                                 |
\*---------------------------------------------------------------------------*/
FoamFile
{
    version     2.0;
    format      ascii;
    arch        "LSB;label=32;scalar=64";
    class       volScalarField;
    location    "2.75000000";
    object      CH3COCH2_0;
}
// * * * * * * * * * * * * * * * * * * * * * * * * * * * * * * * * * * * * * //

dimensions      [0 0 0 0 0 0 0];

internalField   nonuniform List<scalar> 
3000
(
4.266111461e-24
4.89542112e-24
5.850355047e-24
7.131695076e-24
8.730557187e-24
1.060540859e-23
1.264315497e-23
1.459569649e-23
1.5989089e-23
1.639540341e-23
1.891289798e-23
2.273520575e-23
2.788131441e-23
3.436486061e-23
4.215550716e-23
5.110529424e-23
6.073688063e-23
6.924828906e-23
3.824655922e-23
4.454743986e-23
5.421851373e-23
6.747778152e-23
8.463306843e-23
1.059780722e-22
1.314375914e-22
1.595637414e-22
1.837034498e-22
7.706390972e-23
9.089206174e-23
1.124703127e-22
1.427579349e-22
1.830693637e-22
2.346506803e-22
2.973883135e-22
3.663585527e-22
4.226353233e-22
1.467672971e-22
1.756022049e-22
2.214069021e-22
2.8713202e-22
3.765902346e-22
4.930370229e-22
6.351826344e-22
7.882390067e-22
9.075512573e-22
2.737306251e-22
3.322972964e-22
4.268557556e-22
5.649948634e-22
7.559666575e-22
1.006613846e-21
1.311268683e-21
1.632462334e-21
1.874623581e-21
5.08276227e-22
6.254071178e-22
8.170259792e-22
1.100656261e-21
1.496513459e-21
2.017281743e-21
2.645615832e-21
3.296458935e-21
3.775747972e-21
9.459181575e-22
1.177499262e-21
1.560134547e-21
2.131610628e-21
2.933439432e-21
3.987604166e-21
5.250013147e-21
6.540052232e-21
7.474870186e-21
1.767829443e-21
2.221424877e-21
2.976197431e-21
4.109968109e-21
5.704727008e-21
7.797137568e-21
1.028640072e-20
1.280478935e-20
1.46097715e-20
3.316434521e-21
4.197534123e-21
5.670697825e-21
7.89123269e-21
1.101718875e-20
1.5108536e-20
1.994932263e-20
2.48106075e-20
2.826785202e-20
6.236929136e-21
7.935651422e-21
1.078460648e-20
1.508692326e-20
2.114246679e-20
2.904842987e-20
3.836123894e-20
4.766212806e-20
5.424002065e-20
1.174028943e-20
1.499291621e-20
2.045811234e-20
2.871809239e-20
4.033568011e-20
5.546773361e-20
7.322850063e-20
9.089245613e-20
1.033339768e-19
2.209000463e-20
2.827858618e-20
3.86874847e-20
5.442163581e-20
7.652913372e-20
1.052620024e-19
1.388849617e-19
1.722138799e-19
1.956231624e-19
4.14969071e-20
5.320140964e-20
7.289693026e-20
1.026614875e-19
1.444353281e-19
1.986190429e-19
2.618496055e-19
3.24335432e-19
3.681920373e-19
7.775377571e-20
9.976224364e-20
1.368002373e-19
1.927474733e-19
2.711795596e-19
3.727240156e-19
4.909004003e-19
6.072797658e-19
6.891398613e-19
1.452039921e-19
1.863455763e-19
2.555694451e-19
3.600680007e-19
5.064099939e-19
6.956534004e-19
9.157873223e-19
1.132648995e-18
1.283277456e-18
2.701137516e-19
3.465677657e-19
4.751447727e-19
6.69060746e-19
9.402520104e-19
1.290310694e-18
1.696562043e-18
2.095651963e-18
2.373049195e-18
5.003725588e-19
6.416419394e-19
8.790631662e-19
1.236752713e-18
1.736275935e-18
2.379992861e-18
3.125680441e-18
3.856900559e-18
4.364548795e-18
9.22925138e-19
1.182570264e-18
1.618607361e-18
2.274804162e-18
3.189960903e-18
4.367506834e-18
5.729466031e-18
7.062993435e-18
7.987456887e-18
1.694953009e-18
2.169783128e-18
2.966559321e-18
4.164326204e-18
5.832609102e-18
7.976188509e-18
1.045193365e-17
1.287265597e-17
1.454852564e-17
3.099428629e-18
3.963671774e-18
5.412707795e-18
7.588627859e-18
1.061549155e-17
1.449948241e-17
1.897927993e-17
2.335383916e-17
2.637852227e-17
5.643735223e-18
7.209653787e-18
9.832976385e-18
1.37679872e-17
1.923513229e-17
2.624131559e-17
3.431180389e-17
4.218299525e-17
4.761898509e-17
1.023415179e-17
1.305921078e-17
1.778796408e-17
2.487354104e-17
3.470607887e-17
4.729066675e-17
6.176888674e-17
7.587295309e-17
8.560297625e-17
1.84835911e-17
2.355933924e-17
3.204832753e-17
4.475478013e-17
6.23664891e-17
8.487999492e-17
1.107499458e-16
1.3592336e-16
1.532717047e-16
3.325277193e-17
4.233678192e-17
5.751677457e-17
8.021462874e-17
1.116383587e-16
1.517602356e-16
1.978102012e-16
2.425722703e-16
2.733902033e-16
5.959916836e-17
7.579674225e-17
1.028415246e-16
1.432381708e-16
1.991004726e-16
2.703414151e-16
3.520147498e-16
4.313202401e-16
4.858685218e-16
1.064368922e-16
1.352179891e-16
1.832334133e-16
2.54879458e-16
3.53840955e-16
4.798961141e-16
6.242426887e-16
7.64253355e-16
8.604605255e-16
1.894332194e-16
2.404063649e-16
3.253736743e-16
4.520244029e-16
6.267565714e-16
8.490550184e-16
1.103303195e-15
1.349635598e-15
1.518725178e-15
3.360492529e-16
4.260481715e-16
5.759396826e-16
7.991242461e-16
1.106662666e-15
1.497415947e-15
1.943751671e-15
2.375659398e-15
2.671798085e-15
5.942890902e-16
7.527302453e-16
1.016377069e-15
1.408495696e-15
1.948114526e-15
2.632783059e-15
3.413716649e-15
4.168353495e-15
4.685107302e-15
1.047841604e-15
1.3259978e-15
1.788415381e-15
2.475325044e-15
3.419273986e-15
4.61507002e-15
5.976742828e-15
7.290414598e-15
8.188613663e-15
1.842199049e-15
2.329199233e-15
3.137978671e-15
4.337783591e-15
5.98389704e-15
8.065409206e-15
1.0431047e-14
1.270881228e-14
1.426332174e-14
3.229539564e-15
4.07986564e-15
5.49042506e-15
7.579772287e-15
1.044100159e-14
1.405129757e-14
1.814481935e-14
2.207685117e-14
2.475425996e-14
5.645513067e-15
7.126029412e-15
9.578794309e-15
1.320549915e-14
1.816122726e-14
2.439843279e-14
3.145050808e-14
3.820452956e-14
4.279062198e-14
9.839927977e-15
1.240984757e-14
1.666103966e-14
2.293402304e-14
3.148365503e-14
4.221125807e-14
5.429899862e-14
6.583452716e-14
7.364051631e-14
1.709781885e-14
2.154369743e-14
2.888522668e-14
3.969201435e-14
5.437572499e-14
7.273278368e-14
9.333254927e-14
1.129067279e-13
1.260977257e-13
2.961070749e-14
3.727234408e-14
4.989799982e-14
6.842986786e-14
9.351847126e-14
1.24747483e-13
1.596214528e-13
1.925904592e-13
2.146998834e-13
5.109477306e-14
6.423924481e-14
8.584758857e-14
1.174573515e-13
1.600679814e-13
2.128381968e-13
2.714335247e-13
3.265009998e-13
3.632223026e-13
8.780965969e-14
1.102427595e-13
1.47016279e-13
2.005990059e-13
2.724712227e-13
3.609589539e-13
4.585782148e-13
5.497067928e-13
6.100916187e-13
1.502171076e-13
1.882675764e-13
2.50437314e-13
3.406149719e-13
4.608880644e-13
6.079879938e-13
7.690965118e-13
9.183860056e-13
1.016630098e-12
2.556417698e-13
3.197163298e-13
4.240139683e-13
5.745232025e-13
7.739913873e-13
1.016176355e-12
1.279350914e-12
1.521305146e-12
1.679377798e-12
4.324655262e-13
5.394503784e-13
7.128617346e-13
9.616825796e-13
1.289161408e-12
1.683675333e-12
2.108868997e-12
2.496630544e-12
2.748111166e-12
7.266053031e-13
9.034716645e-13
1.18881717e-12
1.595709854e-12
2.12728685e-12
2.762507436e-12
3.441476299e-12
4.055790925e-12
4.451419923e-12
1.211293869e-12
1.500322796e-12
1.964251365e-12
2.621410482e-12
3.47336776e-12
4.483178278e-12
5.553942984e-12
6.515697305e-12
7.13125837e-12
2.001521426e-12
2.467542477e-12
3.211434703e-12
4.257755361e-12
5.603573732e-12
7.186043576e-12
8.851626658e-12
1.033822857e-11
1.12850566e-11
3.275007668e-12
4.014873595e-12
5.188753582e-12
6.827424895e-12
8.917928331e-12
1.13565131e-11
1.390536004e-11
1.616807311e-11
1.760411669e-11
5.302600955e-12
6.456756681e-12
8.275463631e-12
1.079283967e-11
1.397518023e-11
1.765482567e-11
2.14713636e-11
2.483934506e-11
2.69689626e-11
8.493296887e-12
1.02588684e-11
1.301851658e-11
1.679920492e-11
2.152373825e-11
2.69210804e-11
3.245197389e-11
3.727622713e-11
4.029564906e-11
1.346359526e-11
1.610831453e-11
2.020004337e-11
2.572942497e-11
3.252333394e-11
4.012681812e-11
4.772314546e-11
5.414266307e-11
5.801292082e-11
2.114709619e-11
2.502372404e-11
3.094130654e-11
3.878336854e-11
4.815905849e-11
5.824834249e-11
6.775184004e-11
7.508308529e-11
7.892327762e-11
3.296061016e-11
3.851946167e-11
4.685307677e-11
5.758401327e-11
6.984118756e-11
8.205634463e-11
9.204683368e-11
9.775487922e-11
9.888726882e-11
5.101291231e-11
5.879348805e-11
7.017290204e-11
8.42102741e-11
9.906033792e-11
1.117589415e-10
1.1876048e-10
1.179353163e-10
1.11963234e-10
7.82282432e-11
8.875433648e-11
1.036079882e-10
1.207428954e-10
1.36579773e-10
1.46113011e-10
1.447686016e-10
1.324003155e-10
1.169204766e-10
1.179839609e-10
1.313767145e-10
1.492114045e-10
1.674975343e-10
1.801783125e-10
1.806384896e-10
1.661644515e-10
1.422430535e-10
1.208823237e-10
1.724261594e-10
1.874951862e-10
2.054728255e-10
2.196348314e-10
2.219210257e-10
2.075288317e-10
1.804399738e-10
1.512434712e-10
1.296734475e-10
2.38585206e-10
2.516323965e-10
2.633936268e-10
2.651731245e-10
2.506937079e-10
2.222437669e-10
1.896412824e-10
1.609668925e-10
1.408376836e-10
3.037850775e-10
3.089832183e-10
3.072302103e-10
2.919306524e-10
2.634791197e-10
2.295978374e-10
1.97325453e-10
1.691110795e-10
1.482419484e-10
3.487458971e-10
3.430645187e-10
3.277401856e-10
3.017749304e-10
2.696447132e-10
2.364154561e-10
2.037746925e-10
1.728154805e-10
1.493576054e-10
3.667530535e-10
3.549416349e-10
3.349811605e-10
3.082979439e-10
2.773920227e-10
2.433223924e-10
2.068848777e-10
1.719627677e-10
1.466522539e-10
3.744779818e-10
3.627617851e-10
3.439923022e-10
3.182410768e-10
2.855942293e-10
2.469308511e-10
2.059883595e-10
1.689718496e-10
1.435194417e-10
3.875113573e-10
3.760712934e-10
3.564134237e-10
3.273285469e-10
2.893214479e-10
2.459970928e-10
2.031668503e-10
1.665045956e-10
1.420445135e-10
4.029658658e-10
3.886999099e-10
3.643847696e-10
3.297474536e-10
2.875499e-10
2.429468871e-10
2.011494608e-10
1.662969449e-10
1.432309803e-10
4.09897651e-10
3.917923026e-10
3.632685848e-10
3.259156323e-10
2.836002388e-10
2.40964425e-10
2.018537922e-10
1.693151912e-10
1.47654138e-10
4.04834969e-10
3.852665809e-10
3.563032833e-10
3.203988943e-10
2.811778637e-10
2.422226343e-10
2.06389671e-10
1.762122735e-10
1.558266872e-10
3.934360885e-10
3.752368059e-10
3.490351607e-10
3.171899614e-10
2.825666847e-10
2.479093156e-10
2.154926818e-10
1.876065047e-10
1.68372077e-10
3.822476598e-10
3.670226532e-10
3.45131638e-10
3.18364906e-10
2.888668913e-10
2.587251619e-10
2.298000858e-10
2.042153281e-10
1.860969844e-10
3.749034957e-10
3.63191903e-10
3.460935162e-10
3.247445818e-10
3.006026316e-10
2.75184544e-10
2.499729191e-10
2.268905836e-10
2.099955797e-10
3.725594405e-10
3.644938769e-10
3.523303107e-10
3.365747059e-10
3.180514771e-10
2.977380987e-10
2.767069482e-10
2.565768374e-10
2.411882386e-10
3.753112536e-10
3.709227927e-10
3.637925663e-10
3.538615958e-10
3.413754944e-10
3.267782824e-10
3.106646668e-10
2.942005898e-10
2.80790143e-10
3.828812092e-10
3.822150512e-10
3.802729151e-10
3.765081623e-10
3.706404555e-10
3.625770516e-10
3.523522506e-10
3.405018003e-10
3.29716528e-10
3.949374407e-10
3.980730587e-10
4.015302881e-10
4.043519404e-10
4.057834764e-10
4.051924921e-10
4.019708423e-10
3.958397601e-10
3.884639498e-10
4.112311883e-10
4.182588753e-10
4.273353023e-10
4.371640556e-10
4.46567604e-10
4.543801256e-10
4.592902271e-10
4.600519451e-10
4.570070175e-10
4.316485143e-10
4.426271374e-10
4.574814029e-10
4.746385246e-10
4.925509442e-10
5.095482408e-10
5.23607976e-10
5.324738766e-10
5.347948175e-10
4.562115441e-10
4.711215708e-10
4.917783749e-10
5.163884016e-10
5.430969652e-10
5.697968424e-10
5.938691932e-10
6.117812554e-10
6.199198197e-10
4.850388552e-10
5.037431193e-10
5.300385728e-10
5.619692135e-10
5.974683532e-10
6.341789987e-10
6.685587304e-10
6.955321819e-10
7.096875092e-10
5.182798025e-10
5.405093475e-10
5.720882459e-10
6.109688351e-10
6.551206467e-10
7.013489842e-10
7.45275406e-10
7.808476145e-10
8.008758083e-10
5.560682073e-10
5.814656034e-10
6.179543139e-10
6.633259269e-10
7.149180948e-10
7.692585772e-10
8.214722445e-10
8.64658808e-10
8.900387262e-10
5.987849997e-10
6.269643758e-10
6.674248241e-10
7.17768528e-10
7.751427248e-10
8.358333199e-10
8.946073229e-10
9.439470509e-10
9.738050012e-10
6.459648308e-10
6.759848831e-10
7.19105712e-10
7.727960387e-10
8.340598886e-10
8.990266376e-10
9.622725465e-10
1.015941121e-09
1.049125022e-09
6.961108976e-10
7.270434202e-10
7.714705468e-10
8.267755314e-10
8.89881024e-10
9.56864345e-10
1.022290655e-09
1.078256793e-09
1.113442386e-09
7.475125627e-10
7.784203754e-10
8.227761e-10
8.77928897e-10
9.407917622e-10
1.007501482e-09
1.072788441e-09
1.128981638e-09
1.164789872e-09
7.98187551e-10
8.281564541e-10
8.711020473e-10
9.243976559e-10
9.850247428e-10
1.04929003e-09
1.11225004e-09
1.166712279e-09
1.201818208e-09
8.459777096e-10
8.741619707e-10
9.144679477e-10
9.643560319e-10
1.020955333e-09
1.080844424e-09
1.139542733e-09
1.190539404e-09
1.223753729e-09
8.887134552e-10
9.143773197e-10
9.509824749e-10
9.961381389e-10
1.047193181e-09
1.101081532e-09
1.153888684e-09
1.199941425e-09
1.230231466e-09
9.243893444e-10
9.469363329e-10
9.789859576e-10
1.018348441e-09
1.062644512e-09
1.10920845e-09
1.154731908e-09
1.194462061e-09
1.220779196e-09
9.513106761e-10
9.702972448e-10
9.971569587e-10
1.029933845e-09
1.06653473e-09
1.104660934e-09
1.141480812e-09
1.17286665e-09
1.191969645e-09
9.68183742e-10
9.833147625e-10
1.004556927e-09
1.030194355e-09
1.058390359e-09
1.087103596e-09
1.11368657e-09
1.134032587e-09
1.146483124e-09
9.741244852e-10
9.85222805e-10
1.00056714e-09
1.018645285e-09
1.037786681e-09
1.0560623e-09
1.070380584e-09
1.081928794e-09
1.089744072e-09
9.685389287e-10
9.754753771e-10
9.846470634e-10
9.946102605e-10
1.003486924e-09
1.010284159e-09
1.016010566e-09
1.021378737e-09
1.025728162e-09
9.507252379e-10
9.532966249e-10
9.557447277e-10
9.565291874e-10
9.562454617e-10
9.554027685e-10
9.549607687e-10
9.556790298e-10
9.572907204e-10
9.185763061e-10
9.163487117e-10
9.126376592e-10
9.073851144e-10
9.012113793e-10
8.950439565e-10
8.90025674e-10
8.871343615e-10
8.865372043e-10
8.737708899e-10
8.686672063e-10
8.612100958e-10
8.519180245e-10
8.416730266e-10
8.316474512e-10
8.231765065e-10
8.174717026e-10
8.151012229e-10
8.218830023e-10
8.149260858e-10
8.050004839e-10
7.929228949e-10
7.797916052e-10
7.669568493e-10
7.559107915e-10
7.480586726e-10
7.443004384e-10
7.660123479e-10
7.578248051e-10
7.462389458e-10
7.322532214e-10
7.171185023e-10
7.023088758e-10
6.894252835e-10
6.800098449e-10
6.75213748e-10
7.081165826e-10
6.991405728e-10
6.864902954e-10
6.712803649e-10
6.548604951e-10
6.387794577e-10
6.246975604e-10
6.142357021e-10
6.087174734e-10
6.496140837e-10
6.401991059e-10
6.269653908e-10
6.110973399e-10
5.939985795e-10
5.772485912e-10
5.625216809e-10
5.514648872e-10
5.455033203e-10
5.916333583e-10
5.820684101e-10
5.686520456e-10
5.526012474e-10
5.353353439e-10
5.184264202e-10
5.035238262e-10
4.922563141e-10
4.860903304e-10
5.351056684e-10
5.256300053e-10
5.123628972e-10
4.965227332e-10
4.795122474e-10
4.628643153e-10
4.481716904e-10
4.370094768e-10
4.308367214e-10
4.807944874e-10
4.716013238e-10
4.58750578e-10
4.434360554e-10
4.270173364e-10
4.109627263e-10
3.967840908e-10
3.859762526e-10
3.799534951e-10
4.293037306e-10
4.205425384e-10
4.083135789e-10
3.937651019e-10
3.781925929e-10
3.629806199e-10
3.495429613e-10
3.392758339e-10
3.335214994e-10
3.810824178e-10
3.728618018e-10
3.614025965e-10
3.477913168e-10
3.332439889e-10
3.190482941e-10
3.065089638e-10
2.969122668e-10
2.915101171e-10
3.36431994e-10
3.288235049e-10
3.182302507e-10
3.056655799e-10
2.922557004e-10
2.791834893e-10
2.676390861e-10
2.587933801e-10
2.537970773e-10
2.955185362e-10
2.885615394e-10
2.788857e-10
2.67423985e-10
2.552069602e-10
2.433093063e-10
2.328054808e-10
2.247502842e-10
2.201883544e-10
2.583891638e-10
2.520961075e-10
2.433519561e-10
2.330057829e-10
2.219905407e-10
2.112730363e-10
2.018144536e-10
1.945563952e-10
1.904371972e-10
2.249909085e-10
2.193527256e-10
2.115249984e-10
2.022724853e-10
1.924316838e-10
1.828647483e-10
1.744245994e-10
1.679451262e-10
1.642615327e-10
1.95190794e-10
1.901820981e-10
1.83233285e-10
1.750268322e-10
1.663063472e-10
1.578346842e-10
1.503633132e-10
1.446256262e-10
1.413592228e-10
1.687956978e-10
1.643795151e-10
1.582564522e-10
1.510305736e-10
1.433578983e-10
1.359087773e-10
1.293411649e-10
1.242961929e-10
1.214208867e-10
1.455708613e-10
1.417027399e-10
1.36342294e-10
1.300203147e-10
1.233116743e-10
1.168018782e-10
1.110638662e-10
1.066552088e-10
1.041402082e-10
1.252562653e-10
1.21887685e-10
1.172214443e-10
1.117209822e-10
1.058871056e-10
1.002285179e-10
9.524177958e-11
9.14096331e-11
8.922181528e-11
1.075804285e-10
1.046615065e-10
1.006194784e-10
9.585673437e-11
9.08073335e-11
8.591123828e-11
8.159707505e-11
7.828122305e-11
7.638693794e-11
9.227147926e-11
8.97530135e-11
8.626640249e-11
8.21593569e-11
7.780643353e-11
7.358666182e-11
6.986876463e-11
6.701074496e-11
6.537712759e-11
7.906558015e-11
7.690050795e-11
7.390368286e-11
7.03743383e-11
6.66344805e-11
6.300957333e-11
5.981590579e-11
5.736048683e-11
5.595635713e-11
6.771294179e-11
6.585730384e-11
6.328908627e-11
6.026491745e-11
5.706076191e-11
5.395532815e-11
5.121929748e-11
4.911539577e-11
4.79118257e-11
5.798175609e-11
5.639526202e-11
5.419966943e-11
5.161444048e-11
4.887547489e-11
4.622091677e-11
4.388198869e-11
4.208315248e-11
4.10537746e-11
4.96604178e-11
4.83067036e-11
4.643327317e-11
4.422737173e-11
4.189023663e-11
3.962499904e-11
3.762889627e-11
3.609346491e-11
3.521458767e-11
4.255840172e-11
4.14050599e-11
3.980886459e-11
3.792928339e-11
3.593771155e-11
3.400718914e-11
3.230579246e-11
3.099682472e-11
3.02474096e-11
3.650613489e-11
3.552458542e-11
3.416603591e-11
3.25661112e-11
3.087061912e-11
2.922683131e-11
2.777787998e-11
2.666292693e-11
2.602447203e-11
3.135415862e-11
3.051941614e-11
2.936392418e-11
2.800291831e-11
2.656034094e-11
2.516146185e-11
2.392812989e-11
2.297891153e-11
2.243527638e-11
2.697182518e-11
2.626220527e-11
2.527976684e-11
2.41223624e-11
2.289530074e-11
2.170511056e-11
2.065551689e-11
1.984754654e-11
1.938474473e-11
2.324572303e-11
2.264251964e-11
2.180726144e-11
2.082301728e-11
1.977925111e-11
1.876655637e-11
1.787324878e-11
1.718543911e-11
1.67914183e-11
2.007797898e-11
1.95651364e-11
1.885485679e-11
1.801765966e-11
1.712955799e-11
1.626761579e-11
1.550706201e-11
1.49213344e-11
1.458575647e-11
1.738454234e-11
1.694833601e-11
1.63440602e-11
1.563159718e-11
1.487555558e-11
1.414152402e-11
1.349362566e-11
1.299453758e-11
1.270856809e-11
1.509352508e-11
1.472226238e-11
1.420782661e-11
1.360109292e-11
1.295700918e-11
1.233143711e-11
1.177907936e-11
1.135347898e-11
1.110959148e-11
1.31436468e-11
1.282739291e-11
1.238906419e-11
1.1871914e-11
1.132271075e-11
1.078907418e-11
1.031771718e-11
9.954429975e-12
9.746227841e-12
1.148281029e-11
1.121314179e-11
1.083927632e-11
1.039802002e-11
9.92921753e-12
9.473505274e-12
9.070819288e-12
8.760368091e-12
8.582425256e-12
1.006682009e-11
9.836606478e-12
9.517347299e-12
9.140395354e-12
8.739734227e-12
8.350082458e-12
8.005626239e-12
7.73998446e-12
7.587704685e-12
8.858245807e-12
8.661458128e-12
8.388470389e-12
8.066021901e-12
7.723133439e-12
7.389506622e-12
7.094446764e-12
6.86682297e-12
6.736316907e-12
7.825425245e-12
7.656970021e-12
7.423211352e-12
7.146984038e-12
6.853104667e-12
6.567019337e-12
6.313887378e-12
6.118538842e-12
6.006517512e-12
6.941598249e-12
6.797174347e-12
6.59669709e-12
6.35969488e-12
6.107420486e-12
5.861707707e-12
5.644191298e-12
5.476263667e-12
5.379946791e-12
6.184159583e-12
6.060135659e-12
5.887917553e-12
5.684231689e-12
5.467307435e-12
5.255909647e-12
5.068673969e-12
4.924064129e-12
4.841101683e-12
5.534018437e-12
5.427328479e-12
5.27912839e-12
5.103767978e-12
4.916909306e-12
4.734707331e-12
4.573243034e-12
4.448482329e-12
4.376887696e-12
4.975052007e-12
4.88310666e-12
4.755342105e-12
4.604090305e-12
4.442831024e-12
4.28549727e-12
4.145991437e-12
4.038146553e-12
3.976239777e-12
4.493641178e-12
4.414252678e-12
4.30389618e-12
4.173188497e-12
4.033752228e-12
3.897626463e-12
3.776853419e-12
3.683442495e-12
3.629802234e-12
4.078277188e-12
4.00959599e-12
3.914087556e-12
3.800909069e-12
3.680100702e-12
3.562085159e-12
3.457314248e-12
3.376236024e-12
3.329658963e-12
3.719229267e-12
3.659690629e-12
3.576863982e-12
3.478662724e-12
3.373776908e-12
3.271247845e-12
3.18016568e-12
3.10963975e-12
3.069106365e-12
3.408264315e-12
3.356543336e-12
3.28456382e-12
3.199177847e-12
3.107921948e-12
3.01865518e-12
2.939300158e-12
2.87781664e-12
2.842462369e-12
3.138410813e-12
3.093384623e-12
3.030696977e-12
2.956293032e-12
2.876722315e-12
2.798830552e-12
2.729537742e-12
2.675814927e-12
2.644905891e-12
2.90376018e-12
2.864476167e-12
2.809760633e-12
2.744782571e-12
2.6752457e-12
2.607125844e-12
2.546480638e-12
2.499429351e-12
2.472341943e-12
2.699299759e-12
2.664948869e-12
2.617084301e-12
2.560209751e-12
2.499302973e-12
2.439591807e-12
2.386390928e-12
2.345084561e-12
2.32128827e-12
2.520772426e-12
2.490666735e-12
2.448699609e-12
2.398803546e-12
2.345332169e-12
2.292869095e-12
2.246087814e-12
2.20973712e-12
2.188780088e-12
2.36455862e-12
2.338112489e-12
2.301230849e-12
2.257354969e-12
2.21030098e-12
2.164096681e-12
2.122861235e-12
2.09079312e-12
2.072289993e-12
2.227577167e-12
2.204291401e-12
2.171802961e-12
2.133129934e-12
2.091624758e-12
2.050834835e-12
2.014399219e-12
1.986038893e-12
1.969660598e-12
2.107201915e-12
2.086650439e-12
2.057964174e-12
2.023795982e-12
1.987097558e-12
1.951000333e-12
1.918726756e-12
1.893582708e-12
1.879047846e-12
2.001191624e-12
1.983010281e-12
1.957620916e-12
1.927360617e-12
1.894834093e-12
1.862811915e-12
1.834154342e-12
1.811805678e-12
1.798873271e-12
1.907630956e-12
1.891508068e-12
1.868983027e-12
1.842119391e-12
1.813220861e-12
1.784744351e-12
1.759234622e-12
1.739320393e-12
1.727783772e-12
1.824880788e-12
1.810549201e-12
1.790517607e-12
1.766612167e-12
1.740874951e-12
1.715489714e-12
1.692725836e-12
1.67493603e-12
1.664617679e-12
1.751536341e-12
1.738766723e-12
1.720910117e-12
1.699586242e-12
1.676609314e-12
1.653924716e-12
1.633560977e-12
1.617628914e-12
1.608376118e-12
1.68639187e-12
1.674987049e-12
1.659031555e-12
1.639965225e-12
1.619403433e-12
1.599083124e-12
1.58082174e-12
1.566517646e-12
1.558198807e-12
1.62841086e-12
1.618201044e-12
1.603910751e-12
1.586822758e-12
1.568378559e-12
1.550132456e-12
1.533716499e-12
1.520842068e-12
1.513343599e-12
1.576700851e-12
1.567539585e-12
1.554710948e-12
1.539360298e-12
1.522776759e-12
1.506354261e-12
1.491561681e-12
1.47994547e-12
1.473169154e-12
1.530492147e-12
1.522252891e-12
1.51070999e-12
1.496888317e-12
1.481943194e-12
1.467127429e-12
1.45376598e-12
1.443259508e-12
1.437120271e-12
1.489119801e-12
1.481693031e-12
1.471283555e-12
1.458810385e-12
1.445311094e-12
1.431914044e-12
1.419816984e-12
1.410291423e-12
1.404715435e-12
1.452008349e-12
1.445299096e-12
1.435890937e-12
1.424609669e-12
1.412389024e-12
1.400247386e-12
1.389269823e-12
1.380613183e-12
1.375536254e-12
1.418658868e-12
1.412584632e-12
1.40406299e-12
1.393837484e-12
1.382750071e-12
1.371721739e-12
1.361737525e-12
1.353852269e-12
1.349218478e-12
1.388637984e-12
1.38312696e-12
1.375391883e-12
1.366103561e-12
1.35602266e-12
1.345983729e-12
1.33688282e-12
1.329683826e-12
1.325444361e-12
1.361568541e-12
1.356558108e-12
1.349522404e-12
1.341067773e-12
1.331882733e-12
1.322724953e-12
1.31441116e-12
1.307823992e-12
1.303936156e-12
1.337121656e-12
1.332557095e-12
1.326144544e-12
1.3184331e-12
1.310047103e-12
1.301675706e-12
1.294064775e-12
1.288024202e-12
1.284450571e-12
1.31500996e-12
1.310843356e-12
1.304987195e-12
1.297939623e-12
1.290267779e-12
1.282599624e-12
1.275617597e-12
1.270066337e-12
1.266774037e-12
1.294981835e-12
1.291171143e-12
1.285812765e-12
1.279359411e-12
1.272327129e-12
1.265289118e-12
1.258870937e-12
1.253758576e-12
1.250718668e-12
1.276816496e-12
1.273324741e-12
1.268412591e-12
1.262492151e-12
1.256033744e-12
1.249561471e-12
1.24364978e-12
1.238931851e-12
1.236118802e-12
1.260319794e-12
1.25711439e-12
1.252603013e-12
1.247161414e-12
1.24121891e-12
1.2352555e-12
1.22979962e-12
1.225436814e-12
1.222828048e-12
1.245320623e-12
1.242372787e-12
1.238222022e-12
1.233211459e-12
1.227733582e-12
1.222228696e-12
1.217183747e-12
1.213141237e-12
1.210716745e-12
1.23166785e-12
1.228952103e-12
1.22512638e-12
1.220504499e-12
1.215445791e-12
1.210354776e-12
1.205680924e-12
1.201927783e-12
1.199669794e-12
1.21922768e-12
1.216721413e-12
1.213189163e-12
1.208918351e-12
1.204238421e-12
1.199521578e-12
1.195183389e-12
1.191692091e-12
1.189584785e-12
1.207881398e-12
1.205564507e-12
1.202297645e-12
1.198344427e-12
1.194007305e-12
1.18962926e-12
1.185595139e-12
1.182341132e-12
1.180370393e-12
1.197523429e-12
1.195377997e-12
1.192351482e-12
1.188685997e-12
1.184659578e-12
1.18058874e-12
1.176830459e-12
1.173791793e-12
1.171945001e-12
1.188059673e-12
1.186069694e-12
1.183261152e-12
1.179856703e-12
1.176112272e-12
1.172320367e-12
1.168812643e-12
1.165969655e-12
1.164235501e-12
1.179406067e-12
1.177557213e-12
1.174946607e-12
1.171779276e-12
1.168291092e-12
1.164752761e-12
1.16147291e-12
1.158807944e-12
1.157176275e-12
1.171487348e-12
1.169766767e-12
1.167336115e-12
1.164384429e-12
1.161129371e-12
1.157821822e-12
1.154749446e-12
1.152246622e-12
1.150708305e-12
1.164235985e-12
1.162632124e-12
1.160365258e-12
1.157609901e-12
1.154567159e-12
1.151469872e-12
1.148586593e-12
1.146231602e-12
1.144778405e-12
1.157591256e-12
1.15609371e-12
1.153976064e-12
1.151399628e-12
1.148550439e-12
1.145644905e-12
1.142934142e-12
1.140714066e-12
1.13933856e-12
1.151498443e-12
1.150097826e-12
1.148116255e-12
1.145703025e-12
1.143030446e-12
1.140299941e-12
1.13774671e-12
1.135649874e-12
1.134345345e-12
1.145908135e-12
1.144595964e-12
1.142738589e-12
1.140474357e-12
1.137963066e-12
1.135392464e-12
1.132983207e-12
1.130999048e-12
1.129759424e-12
1.140775617e-12
1.139544217e-12
1.137800285e-12
1.135672189e-12
1.133308314e-12
1.130883919e-12
1.128606362e-12
1.126725316e-12
1.125545102e-12
1.136060325e-12
1.134902743e-12
1.133262512e-12
1.131258899e-12
1.12902987e-12
1.126739271e-12
1.124582294e-12
1.122795703e-12
1.121669927e-12
1.131725367e-12
1.130635295e-12
1.12908993e-12
1.127200232e-12
1.125094651e-12
1.122926603e-12
1.120880133e-12
1.119180159e-12
1.118104328e-12
1.127737074e-12
1.126708789e-12
1.12525027e-12
1.123464896e-12
1.121472426e-12
1.119416733e-12
1.117471649e-12
1.115851204e-12
1.11482126e-12
1.124064595e-12
1.123092893e-12
1.121713932e-12
1.120024173e-12
1.118135432e-12
1.116182854e-12
1.114330901e-12
1.11278358e-12
1.111795868e-12
1.120679495e-12
1.119759639e-12
1.118453605e-12
1.116851539e-12
1.115058005e-12
1.113200158e-12
1.111433863e-12
1.109953887e-12
1.109005116e-12
1.117555358e-12
1.116683024e-12
1.115443864e-12
1.113922268e-12
1.11221618e-12
1.110445445e-12
1.108758033e-12
1.107340178e-12
1.106427389e-12
1.11466738e-12
1.113838597e-12
1.112660759e-12
1.111213013e-12
1.109587267e-12
1.107896685e-12
1.106281987e-12
1.104921517e-12
1.104042037e-12
1.111991926e-12
1.111203019e-12
1.110081365e-12
1.108701344e-12
1.107149374e-12
1.105532526e-12
1.103984865e-12
1.102677436e-12
1.101828828e-12
1.109506054e-12
1.108753572e-12
1.107683273e-12
1.106365223e-12
1.104880861e-12
1.103331717e-12
1.101845768e-12
1.100587315e-12
1.099767307e-12
1.10718698e-12
1.10646761e-12
1.105444028e-12
1.10418241e-12
1.102759708e-12
1.101272441e-12
1.099843052e-12
1.098629637e-12
1.097836025e-12
1.105011478e-12
1.104321947e-12
1.103340482e-12
1.102129785e-12
1.100762793e-12
1.099331545e-12
1.097953499e-12
1.096781111e-12
1.096011638e-12
1.102955209e-12
1.102292156e-12
1.10134807e-12
1.100182575e-12
1.098865072e-12
1.097483652e-12
1.096151375e-12
1.095015672e-12
1.094267863e-12
1.100991976e-12
1.100351809e-12
1.099439999e-12
1.098313498e-12
1.097038653e-12
1.095700171e-12
1.09440736e-12
1.093303347e-12
1.092574303e-12
1.099092913e-12
1.098471624e-12
1.097586365e-12
1.096491819e-12
1.095251787e-12
1.093948209e-12
1.092687385e-12
1.091609019e-12
1.090895163e-12
1.097225606e-12
1.096618572e-12
1.095753204e-12
1.094682348e-12
1.093467798e-12
1.092189423e-12
1.090951396e-12
1.089891119e-12
1.089187897e-12
1.095353187e-12
1.094754931e-12
1.093901518e-12
1.092844407e-12
1.091643982e-12
1.090378841e-12
1.089152109e-12
1.088100309e-12
1.087401839e-12
1.093433421e-12
1.092837354e-12
1.091986293e-12
1.090930803e-12
1.089730528e-12
1.08846373e-12
1.087233803e-12
1.086178224e-12
1.085476919e-12
1.091417823e-12
1.09081597e-12
1.089955588e-12
1.088886888e-12
1.087669534e-12
1.086382565e-12
1.085131265e-12
1.084056384e-12
1.083342546e-12
1.089250875e-12
1.088633593e-12
1.087749725e-12
1.086649738e-12
1.085394191e-12
1.084064215e-12
1.082768962e-12
1.081655365e-12
1.080916789e-12
1.086869388e-12
1.086225097e-12
1.085300689e-12
1.08414758e-12
1.082828235e-12
1.081427431e-12
1.08006059e-12
1.0788844e-12
1.078106013e-12
1.084202103e-12
1.08351704e-12
1.082531799e-12
1.081299529e-12
1.079885768e-12
1.078380777e-12
1.076909106e-12
1.075641522e-12
1.074805099e-12
1.081169599e-12
1.080427635e-12
1.079357756e-12
1.078015747e-12
1.076471571e-12
1.07482311e-12
1.073207406e-12
1.071814417e-12
1.070898426e-12
1.0776846e-12
1.076867137e-12
1.075685167e-12
1.074198146e-12
1.07248202e-12
1.070644755e-12
1.068839773e-12
1.067282142e-12
1.066261779e-12
1.073652786e-12
1.072738767e-12
1.07141364e-12
1.069741721e-12
1.067806713e-12
1.065729477e-12
1.063684227e-12
1.06191783e-12
1.060765301e-12
1.068974178e-12
1.067940248e-12
1.066437548e-12
1.064536614e-12
1.062330922e-12
1.059957376e-12
1.057615887e-12
1.055592494e-12
1.054277615e-12
1.063545188e-12
1.062366041e-12
1.060648545e-12
1.058471005e-12
1.055938933e-12
1.053208755e-12
1.050511408e-12
1.04818e-12
1.046671173e-12
1.057261404e-12
1.05591034e-12
1.053938884e-12
1.051434857e-12
1.048518323e-12
1.045368997e-12
1.042254498e-12
1.03956319e-12
1.037828802e-12
1.050021141e-12
1.048470862e-12
1.046205562e-12
1.043324539e-12
1.039965152e-12
1.036334417e-12
1.032742459e-12
1.029641057e-12
1.02765133e-12
1.041729751e-12
1.039953413e-12
1.03735527e-12
1.034048258e-12
1.030189992e-12
1.026018946e-12
1.021893559e-12
1.01833676e-12
1.016066051e-12
1.03230466e-12
1.030277171e-12
1.027310035e-12
1.023532177e-12