/*--------------------------------*- C++ -*----------------------------------*\
| =========                 |                                                 |
| \\      /  F ield         | OpenFOAM: The Open Source CFD Toolbox           |
|  \\    /   O peration     | Version:  2212                                  |
|   \\  /    A nd           | Website:  www.openfoam.com                      |
|    \\/     M anipulation  |                                                 |
\*---------------------------------------------------------------------------*/
FoamFile
{
    version     2.0;
    format      ascii;
    arch        "LSB;label=32;scalar=64";
    class       volScalarField;
    location    "2.75000000";
    object      CH3CO;
}
// * * * * * * * * * * * * * * * * * * * * * * * * * * * * * * * * * * * * * //

dimensions      [0 0 0 0 0 0 0];

internalField   nonuniform List<scalar> 
3000
(
3.670448818e-45
4.915469399e-45
7.156527395e-45
1.085060328e-44
1.662080086e-44
2.518025555e-44
3.706025269e-44
5.183551186e-44
6.602023798e-44
4.061184709e-44
5.495838523e-44
8.103361304e-44
1.246215635e-43
1.941263194e-43
3.006778368e-43
4.567751227e-43
6.684749224e-43
8.966662439e-43
2.145626205e-43
2.967072861e-43
4.498168842e-43
7.148688169e-43
1.156628514e-42
1.869367801e-42
2.966374717e-42
4.499122685e-42
6.097305761e-42
8.843368291e-43
1.257084978e-42
1.975346561e-42
3.273054843e-42
5.542188191e-42
9.375284377e-42
1.547333918e-41
2.40135398e-41
3.248197666e-41
3.309059145e-42
4.850788486e-42
7.928549846e-42
1.372634308e-41
2.429701172e-41
4.277109691e-41
7.263108318e-41
1.138437965e-40
1.528526856e-40
1.196946618e-41
1.808907156e-41
3.071421631e-41
5.537258239e-41
1.018283015e-40
1.848562722e-40
3.197411835e-40
5.026861184e-40
6.696474323e-40
4.309325694e-41
6.695845418e-41
1.175817057e-40
2.193237781e-40
4.155540992e-40
7.708618899e-40
1.347432871e-39
2.116669085e-39
2.797803746e-39
1.561487414e-40
2.483781586e-40
4.483543953e-40
8.588998521e-40
1.663356558e-39
3.129982771e-39
5.50104569e-39
8.621426232e-39
1.132367835e-38
5.709654463e-40
9.252902e-40
1.706204985e-39
3.333507005e-39
6.55415961e-39
1.244262677e-38
2.191791836e-38
3.42516822e-38
4.475794064e-38
2.103523496e-39
3.457103616e-39
6.475071675e-39
1.282685505e-38
2.54711644e-38
4.859949314e-38
8.563811692e-38
1.334287506e-37
1.736250857e-37
7.785266666e-39
1.292454069e-38
2.4472865e-38
4.892919315e-38
9.775585033e-38
1.869763694e-37
3.292056123e-37
5.114247609e-37
6.631679315e-37
2.885599996e-38
4.823537995e-38
9.199814803e-38
1.85001686e-37
3.708621424e-37
7.098507001e-37
1.247937838e-36
1.933279446e-36
2.499441669e-36
1.06817448e-37
1.793459103e-37
3.43601358e-37
6.932419889e-37
1.391758044e-36
2.662766257e-36
4.672132607e-36
7.218470486e-36
9.308903291e-36
3.939993996e-37
6.632291184e-37
1.273813856e-36
2.574014364e-36
5.168722897e-36
9.877519803e-36
1.729189213e-35
2.664246287e-35
3.428906598e-35
1.44537529e-36
2.435929698e-36
4.68323204e-36
9.466481458e-36
1.89972515e-35
3.624665301e-35
6.330117753e-35
9.725397698e-35
1.249613931e-34
5.265660788e-36
8.875237239e-36
1.706064887e-35
3.446297466e-35
6.907425182e-35
1.315784434e-34
2.294360847e-34
3.519905567e-34
4.50785061e-34
1.903108291e-35
3.205198904e-35
6.15444214e-35
1.241294534e-34
2.482882543e-34
4.717847975e-34
8.202832937e-34
1.254178496e-33
1.604531022e-33
6.819839768e-35
1.146983799e-34
2.198463363e-34
4.424746651e-34
8.829173473e-34
1.673260689e-33
2.901366893e-33
4.423283813e-33
5.65191114e-33
2.422636265e-34
4.067060285e-34
7.778315687e-34
1.561687523e-33
3.108101177e-33
5.874650099e-33
1.015997986e-32
1.544890101e-32
1.971607262e-32
8.530585404e-34
1.429090626e-33
2.726386896e-33
5.459407063e-33
1.083597039e-32
2.042638146e-32
3.523748029e-32
5.345207742e-32
6.813675971e-32
2.977482625e-33
4.976643575e-33
9.468998956e-33
1.890809047e-32
3.742435191e-32
7.035660904e-32
1.210714537e-31
1.832579731e-31
2.333422756e-31
1.030186941e-32
1.717716954e-32
3.259099973e-32
6.488974049e-32
1.280655316e-31
2.401009707e-31
4.121635924e-31
6.227296585e-31
7.920719e-31
3.533470602e-32
5.876812175e-32
1.111774109e-31
2.206898966e-31
4.342585112e-31
8.11882049e-31
1.390318873e-30
2.097816003e-30
2.665608449e-30
1.201504236e-31
1.993121394e-31
3.759146304e-31
7.438560415e-31
1.459177475e-30
2.720078548e-30
4.646466533e-30
7.005498114e-30
8.894358087e-30
4.050364844e-31
6.700898272e-31
1.259830869e-30
2.484684183e-30
4.857949493e-30
9.027062087e-30
1.537620245e-29
2.313678663e-29
2.938924297e-29
1.353585589e-30
2.233092669e-30
4.184372877e-30
8.22312902e-30
1.601908648e-29
2.966039721e-29
5.035365831e-29
7.55555945e-29
9.579815454e-29
4.483665214e-30
7.375084898e-30
1.37694957e-29
2.695279023e-29
5.228793084e-29
9.640851738e-29
1.630102392e-28
2.437367331e-28
3.082894602e-28
1.471653189e-29
2.412960742e-29
4.486998058e-29
8.743174969e-29
1.687840346e-28
3.096079537e-28
5.208275484e-28
7.751692186e-28
9.772089074e-28
4.783856161e-29
7.815994406e-29
1.446751354e-28
2.803962859e-28
5.380469636e-28
9.805738687e-28
1.638607513e-27
2.423708598e-27
3.041115106e-27
1.538875539e-28
2.504126406e-28
4.610162843e-28
8.876742939e-28
1.690533417e-27
3.0552846e-27
5.06096886e-27
7.422968419e-27
9.252411903e-27
4.893047625e-28
7.924641449e-28
1.449458743e-27
2.768333567e-27
5.22182865e-27
9.335549785e-27
1.528568974e-26
2.21661815e-26
2.73763163e-26
1.535383917e-27
2.472635996e-27
4.48652328e-27
8.482094277e-27
1.580497566e-26
2.78626132e-26
4.493435086e-26
6.418530558e-26
7.829109465e-26
4.744717966e-27
7.588682602e-27
1.363365043e-26
2.544795706e-26
4.668727938e-26
8.084290171e-26
1.278577006e-25
1.79102124e-25
2.149213903e-25
1.440165152e-26
2.284054685e-26
4.053359847e-26
7.445856683e-26
1.339652241e-25
2.268024681e-25
3.500077752e-25
4.783688155e-25
5.622661062e-25
4.279742158e-26
6.717650249e-26
1.174191023e-25
2.114711121e-25
3.714178953e-25
6.115954184e-25
9.158628388e-25
1.214660583e-24
1.391989558e-24
1.24039714e-25
1.922515319e-25
3.298675546e-25
5.799396969e-25
9.892511815e-25
1.575463872e-24
2.276151222e-24
2.913280444e-24
3.24066103e-24
3.490848429e-25
5.328384618e-25
8.940421776e-25
1.527088405e-24
2.516164985e-24
3.853427557e-24
5.341037284e-24
6.563997738e-24
7.060233887e-24
9.493166974e-25
1.422794242e-24
2.324860856e-24
3.838791678e-24
6.076417008e-24
8.899975781e-24
1.177568696e-23
1.383892967e-23
1.435295867e-23
2.481675955e-24
3.640485507e-24
5.768153486e-24
9.161520103e-24
1.386036498e-23
1.932394719e-23
2.431285779e-23
2.724913912e-23
2.721433078e-23
6.203529936e-24
8.878137151e-24
1.358268997e-23
2.065625166e-23
2.973875059e-23
3.932737295e-23
4.694487812e-23
5.013126146e-23
4.822926343e-23
1.475358932e-23
2.053463732e-23
3.021774099e-23
4.383189062e-23
5.986272829e-23
7.49471221e-23
8.484737151e-23
8.642143859e-23
8.02568902e-23
3.323515286e-23
4.486250125e-23
6.329885123e-23
8.733827342e-23
1.129739941e-22
1.339068435e-22
1.440098922e-22
1.403239396e-22
1.262487549e-22
7.067821983e-23
9.232494142e-23
1.24633721e-22
1.633701217e-22
2.001935361e-22
2.25089377e-22
2.307762457e-22
2.161176748e-22
1.892830942e-22
1.41641191e-22
1.788085595e-22
2.30745381e-22
2.874505774e-22
3.343809141e-22
3.579824198e-22
3.516791619e-22
3.183491086e-22
2.729248966e-22
2.675549752e-22
3.263254244e-22
4.027941413e-22
4.778674988e-22
5.296761084e-22
5.42728803e-22
5.139554388e-22
4.525297926e-22
3.818932808e-22
4.776063234e-22
5.633027614e-22
6.664828535e-22
7.557872666e-22
8.022851081e-22
7.914897806e-22
7.270140447e-22
6.2632519e-22
5.229199971e-22
8.096693065e-22
9.254748618e-22
1.053457937e-21
1.147672525e-21
1.17378206e-21
1.121880511e-21
1.005212509e-21
8.5130438e-22
7.056733242e-22
1.312677479e-21
1.459184367e-21
1.606181829e-21
1.691753036e-21
1.678338806e-21
1.563731369e-21
1.373110343e-21
1.146114957e-21
9.441003866e-22
2.05204998e-21
2.228737293e-21
2.387723098e-21
2.449853713e-21
2.375541382e-21
2.171729469e-21
1.876837598e-21
1.545634632e-21
1.263201794e-21
3.118754201e-21
3.328016414e-21
3.49633288e-21
3.52468638e-21
3.370130687e-21
3.047925297e-21
2.61096632e-21
2.136701353e-21
1.750846355e-21
4.640774359e-21
4.894607374e-21
5.082731681e-21
5.080663553e-21
4.837850674e-21
4.378426022e-21
3.78476373e-21
3.206330319e-21
2.760141335e-21
6.794481938e-21
7.124008581e-21
7.368250712e-21
7.367768268e-21
7.062360092e-21
6.515463524e-21
5.952642624e-21
5.382992296e-21
4.849383292e-21
9.813825134e-21
1.028458793e-20
1.067229351e-20
1.077821563e-20
1.057800348e-20
1.044295302e-20
1.020941302e-20
9.761294579e-21
9.147930848e-21
1.40040214e-20
1.47533325e-20
1.551633738e-20
1.615175606e-20
1.702502234e-20
1.788267369e-20
1.845684735e-20
1.847616579e-20
1.790897383e-20
1.985469072e-20
2.124124811e-20
2.324927895e-20
2.586162695e-20
2.88208188e-20
3.17613394e-20
3.417237768e-20
3.542645761e-20
3.521996948e-20
2.901798974e-20
3.24029998e-20
3.727992325e-20
4.338568734e-20
5.029277122e-20
5.731564672e-20
6.335938558e-20
6.697660903e-20
6.73484132e-20
4.615761099e-20
5.289494445e-20
6.270960224e-20
7.510299127e-20
8.924445344e-20
1.036246319e-19
1.157139005e-19
1.224266135e-19
1.22682524e-19
7.793422283e-20
9.055465744e-20
1.091237626e-19
1.327056937e-19
1.594287031e-19
1.856844553e-19
2.059774033e-19
2.151739292e-19
2.135074957e-19
1.373352907e-19
1.60326359e-19
1.941959884e-19
2.367916607e-19
2.835318992e-19
3.264979405e-19
3.561921092e-19
3.667339957e-19
3.616193535e-19
2.486888443e-19
2.893109346e-19
3.483931783e-19
4.205518291e-19
4.957836225e-19
5.60341822e-19
6.018652456e-19
6.152098448e-19
6.071238821e-19
4.535184885e-19
5.217646409e-19
6.186610527e-19
7.327478504e-19
8.46946875e-19
9.426190436e-19
1.005490576e-18
1.029763939e-18
1.023717584e-18
8.134981022e-19
9.215625185e-19
1.07196628e-18
1.24591703e-18
1.419979721e-18
1.570837453e-18
1.679796419e-18
1.737359615e-18
1.750061892e-18
1.413608781e-18
1.57953452e-18
1.810442494e-18
2.080906692e-18
2.36083367e-18
2.619283115e-18
2.829640789e-18
2.975794397e-18
3.053626904e-18
2.383786389e-18
2.642574072e-18
3.008518297e-18
3.449596992e-18
3.927081339e-18
4.399914247e-18
4.832200604e-18
5.197486647e-18
5.456375647e-18
3.946333592e-18
4.364689255e-18
4.968551046e-18
5.719739314e-18
6.571597895e-18
7.475061909e-18
8.387971744e-18
9.266016887e-18
9.9720519e-18
6.479199924e-18
7.176846781e-18
8.205148562e-18
9.525603807e-18
1.109257513e-17
1.28617974e-17
1.479595149e-17
1.681286266e-17
1.853257957e-17
1.060949747e-17
1.179900992e-17
1.358917232e-17
1.596031838e-17
1.889590209e-17
2.239070691e-17
2.643488913e-17
3.085419531e-17
3.471470342e-17
1.737098936e-17
1.942950036e-17
2.259080596e-17
2.690155373e-17
3.243979534e-17
3.931107665e-17
4.756620933e-17
5.680333424e-17
6.491325295e-17
2.846412394e-17
3.205759125e-17
3.768061302e-17
4.55466884e-17
5.596002e-17
6.926621369e-17
8.560694966e-17
1.040458268e-16
1.201361234e-16
4.667985805e-17
5.296981851e-17
6.297328402e-17
7.726170032e-17
9.660269993e-17
1.21789053e-16
1.53042492e-16
1.882590221e-16
2.186057984e-16
7.657738418e-17
8.755040066e-17
1.052289818e-16
1.308754417e-16
1.661126932e-16
2.124784611e-16
2.701453741e-16
3.346421859e-16
3.893323368e-16
1.255427788e-16
1.445107157e-16
1.753564868e-16
2.205704814e-16
2.8322904e-16
3.659979115e-16
4.686221379e-16
5.821569796e-16
6.767388946e-16
2.053942117e-16
2.377153932e-16
2.905837267e-16
3.68524657e-16
4.769150464e-16
6.199799723e-16
7.962148198e-16
9.887535777e-16
1.14629585e-15
3.347305173e-16
3.88793368e-16
4.774645088e-16
6.084345412e-16
7.904918244e-16
1.029811029e-15
1.322120221e-15
1.637203753e-15
1.89032184e-15
5.422274861e-16
6.30715813e-16
7.758624349e-16
9.899961037e-16
1.286657563e-15
1.674187883e-15
2.142750781e-15
2.640698508e-15
3.033840258e-15
8.710494105e-16
1.012470783e-15
1.243980815e-15
1.584312608e-15
2.053265572e-15
2.660666031e-15
3.386796024e-15
4.147911871e-15
4.739212594e-15
1.384444096e-15
1.604848568e-15
1.964406726e-15
2.490080064e-15
3.208645028e-15
4.130299766e-15
5.219451004e-15
6.34604355e-15
7.208338329e-15
2.172489936e-15
2.50718794e-15
3.050230417e-15
3.838347474e-15
4.906016624e-15
6.261213578e-15
7.844077358e-15
9.460609159e-15
1.068104928e-14
3.358155447e-15
3.852516848e-15
4.649663954e-15
5.797125584e-15
7.336498965e-15
9.269162517e-15
1.150010032e-14
1.375066116e-14
1.54284089e-14
5.102253316e-15
5.812565226e-15
6.950197633e-15
8.573358313e-15
1.072850773e-14
1.340385028e-14
1.645587228e-14
1.949834738e-14
2.173997415e-14
7.607200627e-15
8.600101705e-15
1.017894172e-14
1.241075422e-14
1.53423744e-14
1.893979088e-14
2.299557599e-14
2.699222152e-14
2.990470538e-14
1.111626191e-14
1.246668198e-14
1.459807858e-14
1.758217401e-14
2.145903267e-14
2.616092722e-14
3.139982899e-14
3.65044372e-14
4.0186013e-14
1.590724837e-14
1.769457158e-14
2.049415934e-14
2.437558916e-14
2.936216827e-14
3.533886032e-14
4.192033164e-14
4.826263636e-14
5.279213013e-14
2.227951104e-14
2.458187011e-14
2.816056393e-14
3.307331456e-14
3.931396983e-14
4.670522093e-14
5.474933759e-14
6.241745634e-14
6.784321025e-14
3.053375998e-14
3.342062151e-14
3.787328208e-14
4.392512845e-14
5.152552646e-14
6.041938092e-14
6.998452411e-14
7.900465563e-14
8.533671457e-14
4.094511495e-14
4.446860603e-14
4.986114631e-14
5.711699338e-14
6.612430106e-14
7.653447619e-14
8.759040956e-14
9.788730544e-14
1.050142219e-13
5.373063715e-14
5.791631064e-14
6.427239642e-14
7.273794344e-14
8.312305844e-14
9.497232724e-14
1.073892604e-13
1.187948965e-13
1.266248835e-13
6.901309082e-14
7.385086239e-14
8.113918312e-14
9.074584115e-14
1.023878797e-13
1.154957095e-13
1.290353227e-13
1.413724622e-13
1.497915765e-13
8.678256194e-14
9.22186375e-14
1.003417809e-13
1.109336199e-13
1.236056522e-13
1.376927326e-13
1.52129456e-13
1.651807502e-13
1.740294588e-13
1.068561265e-13
1.12787394e-13
1.215751436e-13
1.329057855e-13
1.463374361e-13
1.611440383e-13
1.761844797e-13
1.896692587e-13
1.987506021e-13
1.288337676e-13
1.351088116e-13
1.443539611e-13
1.561991888e-13
1.701167422e-13
1.853137556e-13
2.006048096e-13
2.141973296e-13
2.232898305e-13
1.522203867e-13
1.587105559e-13
1.682157128e-13
1.802998602e-13
1.943654155e-13
2.095704138e-13
2.247199754e-13
2.38070964e-13
2.469435305e-13
1.765096054e-13
1.830531994e-13
1.925756566e-13
2.045807246e-13
2.18417963e-13
2.33221979e-13
2.478258239e-13
2.605862744e-13
2.690136976e-13
2.010650509e-13
2.074797275e-13
2.167524453e-13
2.283407437e-13
2.415630598e-13
2.555600228e-13
2.692297522e-13
2.810741715e-13
2.888516038e-13
2.251626646e-13
2.312602742e-13
2.400133836e-13
2.508528695e-13
2.630914637e-13
2.759063653e-13
2.882949486e-13
2.989415955e-13
3.058966048e-13
2.480442465e-13
2.536454182e-13
2.616265615e-13
2.714146665e-13
2.823437123e-13
2.936566672e-13
3.044791231e-13
3.137054459e-13
3.197066686e-13
2.689734956e-13
2.739205056e-13
2.809123184e-13
2.893958291e-13
2.987524672e-13
3.083166594e-13
3.17364294e-13
3.250165368e-13
3.299784466e-13
2.872882707e-13
2.914551427e-13
2.972885207e-13
3.042779256e-13
3.1187563e-13
3.195280209e-13
3.266755297e-13
3.326722418e-13
3.365560366e-13
3.024441017e-13
3.057432487e-13
3.103055543e-13
3.156830324e-13
3.214177642e-13
3.270823406e-13
3.322879349e-13
3.366177732e-13
3.394287677e-13
3.140453486e-13
3.164304854e-13
3.196684594e-13
3.233894615e-13
3.272388672e-13
3.309230222e-13
3.342224439e-13
3.369372892e-13
3.387195984e-13
3.218620642e-13
3.233275532e-13
3.252452927e-13
3.273343442e-13
3.293509556e-13
3.311362922e-13
3.326321737e-13
3.338368178e-13
3.346661467e-13
3.258323542e-13
3.264095046e-13
3.270623544e-13
3.276043141e-13
3.279042806e-13
3.279334671e-13
3.277816095e-13
3.276214309e-13
3.275969012e-13
3.26051755e-13
3.25802898e-13
3.252884556e-13
3.244166727e-13
3.231656555e-13
3.216270783e-13
3.200213292e-13
3.186693164e-13
3.179051604e-13
3.227523351e-13
3.217635329e-13
3.20210997e-13
3.180939151e-13
3.154918455e-13
3.126037286e-13
3.097609347e-13
3.074052063e-13
3.060229981e-13
3.162748264e-13
3.146481006e-13
3.122071861e-13
3.090348062e-13
3.053009728e-13
3.012963376e-13
2.974425378e-13
2.94275218e-13
2.923971224e-13
3.0703735e-13
3.048831759e-13
3.017136012e-13
2.976849364e-13
2.930445246e-13
2.881579946e-13
2.83516648e-13
2.797246438e-13
2.774679601e-13
2.955039538e-13
2.929345816e-13
2.891968578e-13
2.845091674e-13
2.791819908e-13
2.736390474e-13
2.684217294e-13
2.641796602e-13
2.616527618e-13
2.821555485e-13
2.792795026e-13
2.751274646e-13
2.699677086e-13
2.641594983e-13
2.581684311e-13
2.525681096e-13
2.480333954e-13
2.453330234e-13
2.67465044e-13
2.643829585e-13
2.599582111e-13
2.544968557e-13
2.483931567e-13
2.421396613e-13
2.363264183e-13
2.316363523e-13
2.288461208e-13
2.518776872e-13
2.486794749e-13
2.44107712e-13
2.384947798e-13
2.322572675e-13
2.259014308e-13
2.20020331e-13
2.152908468e-13
2.124807584e-13
2.357968996e-13
2.325601353e-13
2.279491393e-13
2.22312233e-13
2.16077111e-13
2.097523998e-13
2.039231137e-13
1.992489041e-13
1.964756521e-13
2.195753573e-13
2.163646858e-13
2.118037259e-13
2.062476673e-13
2.001257311e-13
1.939395459e-13
1.882573078e-13
1.837129428e-13
1.81020778e-13
2.035106849e-13
2.003780323e-13
1.959383449e-13
1.905460395e-13
1.846239762e-13
1.786593338e-13
1.731968321e-13
1.688385496e-13
1.66260512e-13
1.878449237e-13
1.848302893e-13
1.80566329e-13
1.754004841e-13
1.69743007e-13
1.64060956e-13
1.588708e-13
1.547386871e-13
1.522980361e-13
1.727668678e-13
1.698994948e-13
1.65850676e-13
1.609560426e-13
1.556085128e-13
1.502509486e-13
1.453684177e-13
1.414887578e-13
1.392004661e-13
1.584163943e-13
1.557161476e-13
1.519088422e-13
1.473147119e-13
1.423059682e-13
1.372985825e-13
1.327444321e-13
1.291320442e-13
1.270042602e-13
1.448900166e-13
1.423688334e-13
1.388184428e-13
1.345411898e-13
1.298863753e-13
1.252415456e-13
1.210247052e-13
1.176851574e-13
1.157205686e-13
1.32247023e-13
1.299103351e-13
1.266233037e-13
1.226688254e-13
1.183720628e-13
1.140915482e-13
1.102116052e-13
1.071432262e-13
1.053402825e-13
1.205157076e-13
1.183637707e-13
1.153394515e-13
1.117054085e-13
1.077622304e-13
1.038395952e-13
1.002890019e-13
9.748464673e-14
9.58386259e-14
1.096993435e-13
1.077284292e-13
1.049607495e-13
1.016385521e-13
9.803803917e-14
9.446075916e-14
9.122673123e-14
8.867529149e-14
8.717920178e-14
9.978166402e-14
9.798509859e-14
9.546400312e-14
9.244051678e-14
8.916711408e-14
8.591836086e-14
8.298447653e-14
8.067213748e-14
7.931746211e-14
9.07317183e-14
8.910075816e-14
8.681341949e-14
8.407239276e-14
8.110742742e-14
7.816754154e-14
7.551504806e-14
7.342630863e-14
7.220360542e-14
8.250804117e-14
8.1032595e-14
7.896440981e-14
7.648764072e-14
7.381055007e-14
7.115822615e-14
6.876708314e-14
6.688556377e-14
6.578493648e-14
7.506214489e-14
7.373135378e-14
7.186673934e-14
6.963500326e-14
6.722430577e-14
6.483752214e-14
6.268721338e-14
6.09962793e-14
6.000773821e-14
6.834136513e-14
6.714405672e-14
6.546707164e-14
6.346084019e-14
6.129488231e-14
5.915161026e-14
5.722175739e-14
5.570498544e-14
5.481871479e-14
6.22911212e-14
6.121615516e-14
5.97109694e-14
5.791095122e-14
5.59684645e-14
5.404719211e-14
5.231800302e-14
5.095951864e-14
5.016606751e-14
5.685666172e-14
5.589318404e-14
5.454442293e-14
5.293195599e-14
5.119245709e-14
4.947256061e-14
4.792514272e-14
4.670985181e-14
4.600026338e-14
5.19843708e-14
5.112199328e-14
4.991497819e-14
4.847230141e-14
4.691636486e-14
4.537835731e-14
4.399492279e-14
4.290866009e-14
4.227455234e-14
4.762270778e-14
4.685162728e-14
4.577253375e-14
4.448296217e-14
4.309239212e-14
4.171807517e-14
4.048206168e-14
3.951167416e-14
3.894528311e-14
4.372284802e-14
4.303391839e-14
4.206986945e-14
4.09178942e-14
3.96758179e-14
3.844835909e-14
3.734448575e-14
3.647786681e-14
3.597206157e-14
4.023908539e-14
3.962385299e-14
3.876296272e-14
3.773429363e-14
3.662519545e-14
3.552914926e-14
3.454342435e-14
3.37695115e-14
3.331778863e-14
3.712904857e-14
3.657976041e-14
3.581114043e-14
3.489270594e-14
3.390241758e-14
3.292370548e-14
3.204339912e-14
3.135214565e-14
3.094860889e-14
3.435377573e-14
3.386336767e-14
3.317710657e-14
3.235702296e-14
3.147268239e-14
3.059854387e-14
2.981213646e-14
2.919446512e-14
2.88337953e-14
3.187768398e-14
3.143975493e-14
3.082687896e-14
3.009439833e-14
2.930438739e-14
2.852331163e-14
2.782042622e-14
2.726817151e-14
2.694559026e-14
2.966846371e-14
2.927724043e-14
2.872966176e-14
2.807510619e-14
2.736897465e-14
2.667062015e-14
2.604194525e-14
2.554778908e-14
2.525901914e-14
2.769692127e-14
2.734721748e-14
2.685767492e-14
2.627236262e-14
2.564074461e-14
2.501585235e-14
2.445306006e-14
2.401046442e-14
2.375168865e-14
2.593678887e-14
2.562396131e-14
2.518595737e-14
2.466212495e-14
2.40966521e-14
2.353695656e-14
2.303261945e-14
2.263575882e-14
2.240357941e-14
2.436451584e-14
2.408441939e-14
2.369215624e-14
2.322288037e-14
2.271609507e-14
2.22142359e-14
2.176174531e-14
2.140544072e-14
2.119683955e-14
2.295905203e-14
2.270799533e-14
2.235631177e-14
2.193543249e-14
2.148070335e-14
2.103014e-14
2.062362745e-14
2.030328336e-14
2.011558442e-14
2.17016313e-14
2.147633383e-14
2.116064463e-14
2.078269178e-14
2.037413301e-14
1.996906359e-14
1.960332655e-14
1.93148715e-14
1.914570554e-14
2.057556067e-14
2.03731121e-14
2.008935056e-14
1.974947432e-14
1.93818699e-14
1.901715526e-14
1.868758784e-14
1.842741929e-14
1.827469116e-14
1.956601889e-14
1.938384097e-14
1.912840526e-14
1.882231157e-14
1.849104487e-14
1.816213826e-14
1.786466727e-14
1.762960083e-14
1.749145951e-14
1.865986699e-14
1.849567833e-14
1.826538198e-14
1.798927293e-14
1.769026197e-14
1.739314448e-14
1.712417093e-14
1.691139403e-14
1.678620531e-14
1.784547225e-14
1.769725605e-14
1.748928255e-14
1.723980184e-14
1.696944014e-14
1.670056203e-14
1.645690794e-14
1.626393782e-14
1.615025964e-14
1.711254615e-14
1.697852074e-14
1.679038226e-14
1.656456572e-14
1.631966877e-14
1.607589621e-14
1.585475665e-14
1.567940251e-14
1.557596275e-14
1.645199633e-14
1.633058854e-14
1.616008859e-14
1.595531953e-14
1.573307644e-14
1.551164375e-14
1.531054364e-14
1.515087269e-14
1.505654926e-14
1.585579225e-14
1.574561348e-14
1.559081339e-14
1.540478238e-14
1.520271261e-14
1.500117931e-14
1.481793487e-14
1.467224198e-14
1.458604509e-14
1.531684408e-14
1.521666882e-14
1.507585767e-14
1.490652669e-14
1.472244124e-14
1.453865381e-14
1.437133812e-14
1.42381188e-14
1.415917519e-14
1.48288939e-14
1.473764057e-14
1.460930838e-14
1.445487874e-14
1.428684572e-14
1.411890353e-14
1.396581591e-14
1.384374235e-14
1.37712813e-14
1.438641844e-14
1.430313231e-14
1.418594617e-14
1.40448301e-14
1.389114403e-14
1.373736913e-14
1.359700807e-14
1.348490786e-14
1.341824882e-14
1.398454232e-14
1.390838039e-14
1.380116334e-14
1.367195871e-14
1.353111341e-14
1.339002376e-14
1.326106291e-14
1.315790031e-14
1.309644197e-14
1.361896106e-14
1.354917864e-14
1.345089091e-14
1.333235893e-14
1.32030235e-14
1.307330934e-14
1.295457635e-14
1.285943572e-14
1.280264641e-14
1.328587274e-14
1.322181162e-14
1.313153411e-14
1.302257961e-14
1.290357726e-14
1.278408028e-14
1.267453814e-14
1.258660936e-14
1.253401857e-14
1.29819176e-14
1.292299561e-14
1.283991531e-14
1.273956937e-14
1.262985876e-14
1.251955374e-14
1.241828436e-14
1.233685004e-14
1.228804095e-14
1.270412475e-14
1.264982655e-14
1.257322367e-14
1.248062833e-14
1.237928717e-14
1.227726585e-14
1.218345563e-14
1.210787981e-14
1.206248281e-14
1.244986515e-14
1.239973412e-14
1.232897082e-14
1.224336564e-14
1.214957627e-14
1.205503315e-14
1.196796032e-14
1.18976786e-14
1.185536552e-14
1.221681023e-14
1.217044139e-14
1.210495185e-14
1.202566211e-14
1.193869879e-14
1.185091872e-14
1.176994219e-14
1.17044531e-14
1.166493221e-14
1.200289553e-14
1.195992928e-14
1.189921102e-14
1.182563733e-14
1.174485516e-14
1.166320239e-14
1.158775203e-14
1.152660938e-14
1.1489621e-14
1.180628878e-14
1.176640542e-14
1.17100116e-14
1.164162084e-14
1.156644603e-14
1.149035466e-14
1.141992276e-14
1.136272901e-14
1.132804162e-14
1.162536182e-14
1.158827674e-14
1.153580952e-14
1.147212687e-14
1.140204814e-14
1.133101375e-14
1.12651475e-14
1.121154794e-14
1.117895483e-14
1.1458666e-14
1.142412551e-14
1.137523014e-14
1.131583208e-14
1.125039324e-14
1.11839655e-14
1.112226049e-14
1.107193811e-14
1.104125444e-14
1.130491069e-14
1.127268828e-14
1.122704799e-14
1.117155619e-14
1.111034954e-14
1.104812582e-14
1.099022023e-14
1.094289126e-14
1.091395147e-14
1.116294427e-14
1.113283742e-14
1.109016887e-14
1.103824484e-14
1.098090546e-14
1.092252516e-14
1.086809478e-14
1.08235048e-14
1.079616033e-14
1.103173764e-14
1.100356496e-14
1.096361434e-14
1.091495472e-14
1.086115541e-14
1.080629505e-14
1.075504887e-14
1.071296934e-14
1.068708666e-14
1.091036969e-14
1.088396844e-14
1.084650797e-14
1.080084044e-14
1.075028733e-14
1.069865621e-14
1.065033254e-14
1.061055784e-14
1.058601671e-14
1.079801452e-14
1.077323847e-14
1.07380634e-14
1.069514306e-14
1.064757173e-14
1.059890816e-14
1.055327127e-14
1.051561604e-14
1.049230803e-14
1.069393036e-14
1.067064786e-14
1.06375738e-14
1.059718001e-14
1.055235214e-14
1.050642009e-14
1.046325726e-14
1.042755413e-14
1.040538122e-14
1.059744974e-14
1.057554204e-14
1.054440265e-14
1.050633628e-14
1.046403667e-14
1.042062289e-14
1.03797418e-14
1.034583934e-14
1.032471284e-14
1.050797089e-14
1.04873307e-14
1.045797563e-14
1.042205664e-14
1.03820906e-14
1.034100208e-14
1.030222855e-14
1.026998956e-14
1.024982903e-14
1.042495019e-14
1.040548039e-14
1.037777352e-14
1.034383882e-14
1.030602993e-14
1.026709166e-14
1.023026768e-14
1.01995676e-14
1.01803e-14
1.03478955e-14
1.032950804e-14
1.030332587e-14
1.027122748e-14
1.023541559e-14
1.019846864e-14
1.016345063e-14
1.013417625e-14
1.011573516e-14
1.027636025e-14
1.025897512e-14
1.023420548e-14
1.02038089e-14
1.016984839e-14
1.013474819e-14
1.010140551e-14
1.007345378e-14
1.005577875e-14
1.020993818e-14
1.019348259e-14
1.017002336e-14
1.014120615e-14
1.010896443e-14
1.007557931e-14
1.004379296e-14
1.001707001e-14
1.0000106e-14
1.014825857e-14
1.013266619e-14
1.011042429e-14
1.008307481e-14
1.005243098e-14
1.002064088e-14
9.990302366e-15
9.964722653e-15
9.948419541e-15
1.009098194e-14
1.007619219e-14
1.005508264e-14
1.002909896e-14
9.999942646e-15
9.969637999e-15
9.940648372e-15
9.916133949e-15
9.900446135e-15
1.003779593e-14
1.00237534e-14
1.000369846e-14
9.978987391e-15
9.951217717e-15
9.922298453e-15
9.894567443e-15
9.871047329e-15
9.855933411e-15
9.988411361e-15
9.975065278e-15
9.955993712e-15
9.932469874e-15
9.905994501e-15
9.878369144e-15
9.851814399e-15
9.829224032e-15
9.814646519e-15
9.942558357e-15
9.929862014e-15
9.911708343e-15
9.889293313e-15
9.864027534e-15
9.837612339e-15
9.812158696e-15
9.790439413e-15
9.776364467e-15
9.899982189e-15
9.887892437e-15
9.870596194e-15
9.849217628e-15
9.825083438e-15
9.799801496e-15
9.775380223e-15
9.754478715e-15
9.740875882e-15
9.860438846e-15
9.848915525e-15
9.832420456e-15
9.812011132e-15
9.788936199e-15
9.764716436e-15
9.741264353e-15
9.721132028e-15
9.707973905e-15
9.823690068e-15
9.812695351e-15
9.796948502e-15
9.777445205e-15
9.755361643e-15
9.732137597e-15
9.709595981e-15
9.690188117e-15
9.677449896e-15
9.789497652e-15
9.778995276e-15
9.763945875e-15
9.745288024e-15
9.724130863e-15
9.701839109e-15
9.680152232e-15
9.661426811e-15
9.649085599e-15
9.757616854e-15
9.747571157e-15
9.733169229e-15
9.715297138e-15
9.695002346e-15
9.67358042e-15
9.652693565e-15
9.63460963e-15
9.622643452e-15
9.727788706e-15
9.718163425e-15
9.704358033e-15
9.687210689e-15
9.667712598e-15
9.64709625e-15
9.626953026e-15
9.609468389e-15
9.597854754e-15
9.69973111e-15
9.690487866e-15
9.67722489e-15
9.660737118e-15
9.641965112e-15
9.622084709e-15
9.602623471e-15
9.5856916e-15
9.574405493e-15
9.673128612e-15
9.664225032e-15
9.651444397e-15
9.635543294e-15
9.617417597e-15
9.59819351e-15
9.579342708e-15
9.562908615e-15
9.551919795e-15
9.647620864e-15
9.63900828e-15
9.626640545e-15
9.611241081e-15
9.593667537e-15
9.575004365e-15
9.556676665e-15
9.540671638e-15
9.529941134e-15
9.622789846e-15
9.61441054e-15
9.602372815e-15
9.587372534e-15
9.570236284e-15
9.552015822e-15
9.534100897e-15
9.518435987e-15
9.50791171e-15
9.598146087e-15
9.589930077e-15
9.57812124e-15
9.563394047e-15
9.546552101e-15
9.528625043e-15
9.510981008e-15
9.495539241e-15
9.485150687e-15
9.573114266e-15
9.564975652e-15
9.553270915e-15
9.538660018e-15
9.521932784e-15
9.504109244e-15
9.486552847e-15
9.471180244e-15
9.460832354e-15
9.547018741e-15
9.538851691e-15
9.527096634e-15
9.51240678e-15
9.495568765e-15
9.47760785e-15
9.459903648e-15
9.444399295e-15
9.433965619e-15
9.519069763e-15
9.510744271e-15
9.498748538e-15
9.48373783e-15
9.466507837e-15
9.448106669e-15
9.429955635e-15
9.414061194e-15
9.403376639e-15
9.488351324e-15
9.479708927e-15
9.46723989e-15
9.451611589e-15
9.433642929e-15
9.414425714e-15
9.395453898e-15
9.378843166e-15
9.367696756e-15
9.453811776e-15
9.444661517e-15
9.431438313e-15
9.414833168e-15
9.395704578e-15
9.37521251e-15
9.354960631e-15
9.33722997e-15
9.325358195e-15
9.414258565e-15
9.404373522e-15
9.390061994e-15
9.372051816e-15
9.351259933e-15
9.328942969e-15
9.306858016e-15
9.287518691e-15
9.274600182e-15
9.368358516e-15
9.357473329e-15
9.34168249e-15
9.321765796e-15
9.298720254e-15
9.273931949e-15
9.249362098e-15
9.227835752e-15
9.213488162e-15
9.314645225e-15
9.302455085e-15
9.284735829e-15
9.262336513e-15
9.23635882e-15
9.208355579e-15
9.180549883e-15
9.156168536e-15
9.139948614e-15
9.251535058e-15
9.237696676e-15
9.217543502e-15
9.192013557e-15
9.162340999e-15
9.130287184e-15
9.098401542e-15
9.07041355e-15
9.051821423e-15
9.17735316e-15
9.161488225e-15
9.138344747e-15
9.108972044e-15
9.074767846e-15
9.037748113e-15
9.000858981e-15
8.96844231e-15
8.946930957e-15
9.090370546e-15
9.072072164e-15
9.045341117e-15
9.011363147e-15
8.971733944e-15
8.928773983e-15
8.885901039e-15
8.848184978e-15
8.823175655e-15
8.988852912e-15
8.967695391e-15
8.936753671e-15
8.897377914e-15
8.851399297e-15
8.801495772e-15
8.751634272e-15
8.707730215e-15
8.678634276e-15
8.871121087e-15
8.846673285e-15
8.81089229e-15
8.765323508e-15
8.712073882e-15
8.654233698e-15
8.59639657e-15
8.545437806e-15
8.511684822e-15
8.735622148e-15
8.70746433e-15
8.666235492e-15
8.613709661e-15
8.552311939e-15
8.485600153e-15
8.418868895e-15
8.360058404e-15
8.321129792e-15
8.581009065e-15
8.548752905e-15
8.501517745e-15