/*--------------------------------*- C++ -*----------------------------------*\
| =========                 |                                                 |
| \\      /  F ield         | OpenFOAM: The Open Source CFD Toolbox           |
|  \\    /   O peration     | Version:  2212                                  |
|   \\  /    A nd           | Website:  www.openfoam.com                      |
|    \\/     M anipulation  |                                                 |
\*---------------------------------------------------------------------------*/
FoamFile
{
    version     2.0;
    format      ascii;
    arch        "LSB;label=32;scalar=64";
    class       volScalarField;
    location    "2.75000000";
    object      CH4_0;
}
// * * * * * * * * * * * * * * * * * * * * * * * * * * * * * * * * * * * * * //

dimensions      [0 0 0 0 0 0 0];

internalField   nonuniform List<scalar> 
3000
(
0.0004199879352
0.0004199879352
0.0004199879352
0.0004199879352
0.0004199879352
0.0004199879352
0.0004199879352
0.0004199879352
0.0004199879352
0.0004199879352
0.0004199879352
0.0004199879352
0.0004199879352
0.0004199879352
0.0004199879352
0.0004199879352
0.0004199879352
0.0004199879352
0.0004199879352
0.0004199879352
0.0004199879352
0.0004199879352
0.0004199879352
0.0004199879352
0.0004199879352
0.0004199879352
0.0004199879352
0.0004199879352
0.0004199879352
0.0004199879352
0.0004199879352
0.0004199879352
0.0004199879352
0.0004199879352
0.0004199879352
0.0004199879352
0.0004199879352
0.0004199879352
0.0004199879352
0.0004199879352
0.0004199879352
0.0004199879352
0.0004199879352
0.0004199879352
0.0004199879352
0.0004199879352
0.0004199879352
0.0004199879352
0.0004199879352
0.0004199879352
0.0004199879352
0.0004199879352
0.0004199879352
0.0004199879352
0.0004199879352
0.0004199879352
0.0004199879352
0.0004199879352
0.0004199879352
0.0004199879352
0.0004199879352
0.0004199879352
0.0004199879352
0.0004199879352
0.0004199879352
0.0004199879352
0.0004199879352
0.0004199879352
0.0004199879352
0.0004199879352
0.0004199879352
0.0004199879352
0.0004199879352
0.0004199879352
0.0004199879352
0.0004199879352
0.0004199879352
0.0004199879352
0.0004199879352
0.0004199879352
0.0004199879352
0.0004199879352
0.0004199879352
0.0004199879352
0.0004199879352
0.0004199879352
0.0004199879352
0.0004199879352
0.0004199879352
0.0004199879352
0.0004199879352
0.0004199879352
0.0004199879352
0.0004199879352
0.0004199879352
0.0004199879352
0.0004199879352
0.0004199879352
0.0004199879352
0.0004199879352
0.0004199879352
0.0004199879352
0.0004199879352
0.0004199879352
0.0004199879352
0.0004199879352
0.0004199879352
0.0004199879352
0.0004199879352
0.0004199879352
0.0004199879352
0.0004199879352
0.0004199879352
0.0004199879352
0.0004199879352
0.0004199879352
0.0004199879352
0.0004199879352
0.0004199879352
0.0004199879352
0.0004199879352
0.0004199879352
0.0004199879352
0.0004199879352
0.0004199879352
0.0004199879352
0.0004199879352
0.0004199879352
0.0004199879352
0.0004199879352
0.0004199879352
0.0004199879352
0.0004199879352
0.0004199879352
0.0004199879352
0.0004199879352
0.0004199879352
0.0004199879352
0.0004199879352
0.0004199879352
0.0004199879352
0.0004199879352
0.0004199879352
0.0004199879352
0.0004199879352
0.0004199879352
0.0004199879352
0.0004199879352
0.0004199879352
0.0004199879352
0.0004199879352
0.0004199879352
0.0004199879352
0.0004199879352
0.0004199879352
0.0004199879352
0.0004199879352
0.0004199879352
0.0004199879352
0.0004199879352
0.0004199879352
0.0004199879352
0.0004199879352
0.0004199879352
0.0004199879352
0.0004199879352
0.0004199879352
0.0004199879352
0.0004199879352
0.0004199879352
0.0004199879352
0.0004199879352
0.0004199879352
0.0004199879352
0.0004199879352
0.0004199879352
0.0004199879352
0.0004199879352
0.0004199879352
0.0004199879352
0.0004199879352
0.0004199879352
0.0004199879352
0.0004199879352
0.0004199879352
0.0004199879352
0.0004199879352
0.0004199879352
0.0004199879352
0.0004199879352
0.0004199879352
0.0004199879352
0.0004199879352
0.0004199879352
0.0004199879352
0.0004199879352
0.0004199879352
0.0004199879352
0.0004199879352
0.0004199879352
0.0004199879352
0.0004199879352
0.0004199879352
0.0004199879352
0.0004199879352
0.0004199879352
0.0004199879352
0.0004199879352
0.0004199879352
0.0004199879352
0.0004199879352
0.0004199879352
0.0004199879352
0.0004199879352
0.0004199879352
0.0004199879352
0.0004199879352
0.0004199879352
0.0004199879352
0.0004199879352
0.0004199879352
0.0004199879352
0.0004199879352
0.0004199879352
0.0004199879352
0.0004199879352
0.0004199879352
0.0004199879352
0.0004199879352
0.0004199879352
0.0004199879352
0.0004199879352
0.0004199879352
0.0004199879352
0.0004199879352
0.0004199879352
0.0004199879352
0.0004199879352
0.0004199879352
0.0004199879352
0.0004199879352
0.0004199879352
0.0004199879352
0.0004199879352
0.0004199879352
0.0004199879352
0.0004199879352
0.0004199879352
0.0004199879352
0.0004199879352
0.0004199879352
0.0004199879352
0.0004199879352
0.0004199879352
0.0004199879352
0.0004199879352
0.0004199879352
0.0004199879352
0.0004199879352
0.0004199879352
0.0004199879352
0.0004199879352
0.0004199879352
0.0004199879352
0.0004199879352
0.0004199879352
0.0004199879352
0.0004199879352
0.0004199879353
0.0004199879353
0.0004199879352
0.0004199879352
0.0004199879352
0.0004199879352
0.0004199879352
0.0004199879353
0.0004199879353
0.0004199879353
0.0004199879353
0.0004199879352
0.0004199879352
0.0004199879352
0.0004199879353
0.0004199879353
0.0004199879353
0.0004199879354
0.0004199879354
0.0004199879354
0.0004199879352
0.0004199879353
0.0004199879353
0.0004199879353
0.0004199879354
0.0004199879354
0.0004199879355
0.0004199879356
0.0004199879356
0.0004199879353
0.0004199879353
0.0004199879353
0.0004199879354
0.0004199879355
0.0004199879356
0.0004199879357
0.0004199879358
0.0004199879359
0.0004199879354
0.0004199879354
0.0004199879355
0.0004199879356
0.0004199879357
0.0004199879359
0.0004199879361
0.0004199879363
0.0004199879365
0.0004199879355
0.0004199879356
0.0004199879357
0.0004199879359
0.0004199879361
0.0004199879365
0.0004199879368
0.0004199879372
0.0004199879374
0.0004199879357
0.0004199879358
0.0004199879361
0.0004199879364
0.0004199879369
0.0004199879374
0.0004199879381
0.0004199879387
0.0004199879391
0.0004199879361
0.0004199879363
0.0004199879367
0.0004199879373
0.0004199879381
0.0004199879391
0.0004199879402
0.0004199879413
0.000419987942
0.0004199879368
0.0004199879372
0.0004199879379
0.0004199879389
0.0004199879403
0.000419987942
0.0004199879439
0.0004199879456
0.0004199879468
0.000419987938
0.0004199879387
0.0004199879399
0.0004199879416
0.000419987944
0.0004199879469
0.00041998795
0.000419987953
0.0004199879549
0.00041998794
0.0004199879413
0.0004199879433
0.0004199879463
0.0004199879502
0.0004199879551
0.0004199879603
0.0004199879651
0.0004199879683
0.0004199879436
0.0004199879457
0.0004199879492
0.0004199879542
0.0004199879607
0.0004199879687
0.0004199879773
0.0004199879851
0.0004199879902
0.0004199879496
0.0004199879532
0.000419987959
0.0004199879673
0.0004199879781
0.0004199879911
0.000419988005
0.0004199880176
0.0004199880257
0.0004199879598
0.0004199879657
0.0004199879754
0.000419987989
0.0004199880066
0.0004199880275
0.0004199880497
0.0004199880695
0.0004199880822
0.0004199879768
0.0004199879866
0.0004199880023
0.0004199880244
0.0004199880528
0.000419988086
0.0004199881208
0.0004199881517
0.0004199881713
0.000419988005
0.000419988021
0.0004199880464
0.0004199880817
0.0004199881266
0.0004199881787
0.0004199882327
0.0004199882803
0.0004199883101
0.0004199880514
0.0004199880771
0.0004199881175
0.0004199881733
0.0004199882435
0.0004199883242
0.0004199884069
0.0004199884791
0.0004199885241
0.0004199881269
0.0004199881675
0.0004199882311
0.0004199883181
0.0004199884265
0.0004199885497
0.000419988675
0.0004199887833
0.0004199888504
0.0004199882484
0.000419988312
0.0004199884106
0.0004199885445
0.0004199887097
0.0004199888957
0.0004199890832
0.000419989244
0.0004199893431
0.0004199884422
0.0004199885403
0.0004199886914
0.0004199888947
0.0004199891435
0.0004199894211
0.0004199896987
0.0004199899352
0.00041999008
0.000419988748
0.0004199888973
0.0004199891259
0.0004199894311
0.0004199898014
0.0004199902113
0.0004199906183
0.0004199909629
0.0004199911729
0.0004199892255
0.0004199894499
0.0004199897917
0.0004199902446
0.0004199907899
0.0004199913893
0.0004199919806
0.0004199924785
0.0004199927808
0.0004199899633
0.0004199902968
0.0004199908018
0.0004199914667
0.0004199922619
0.0004199931304
0.0004199939825
0.0004199946967
0.0004199951286
0.0004199910918
0.0004199915818
0.00041999232
0.0004199932865
0.0004199944356
0.0004199956836
0.0004199969022
0.0004199979196
0.0004199985332
0.0004199928005
0.0004199935128
0.0004199945814
0.0004199959733
0.0004199976197
0.0004199993995
0.0004200011302
0.0004200025706
0.0004200034371
0.000419995362
0.0004199963876
0.0004199979205
0.0004199999081
0.0004200022487
0.0004200047687
0.0004200072109
0.0004200092378
0.0004200104548
0.000419999166
0.0004200006297
0.0004200028098
0.0004200056259
0.0004200089294
0.0004200124735
0.000420015898
0.0004200187333
0.0004200204326
0.0004200047644
0.0004200068359
0.0004200099125
0.0004200138734
0.000420018504
0.0004200234567
0.0004200282291
0.0004200321717
0.0004200345309
0.0004200129328
0.0004200158423
0.0004200201527
0.0004200256856
0.0004200321347
0.0004200390129
0.0004200456246
0.0004200510761
0.0004200543337
0.0004200247536
0.0004200288112
0.0004200348092
0.0004200424881
0.0004200514145
0.000420060911
0.0004200700203
0.0004200775193
0.0004200819959
0.0004200417252
0.0004200473464
0.0004200556395
0.0004200662316
0.0004200785155
0.000420091556
0.0004201040433
0.0004201143105
0.0004201204352
0.0004200659059
0.0004200736446
0.0004200850418
0.0004200995695
0.0004201163839
0.0004201342028
0.0004201512425
0.0004201652396
0.0004201735851
0.0004201001013
0.0004201106933
0.0004201262702
0.0004201460922
0.000420168997
0.0004201932359
0.0004202163899
0.000420235396
0.0004202467245
0.0004201481113
0.0004201625323
0.0004201837148
0.0004202106329
0.0004202416961
0.0004202745314
0.0004203058703
0.0004203315816
0.0004203469038
0.0004202150521
0.0004202345916
0.0004202632643
0.0004202996595
0.0004203416136
0.0004203859207
0.0004204281809
0.0004204628399
0.0004204834928
0.0004203077658
0.0004203341221
0.000420372766
0.0004204217726
0.0004204782144
0.0004205377793
0.0004205945649
0.0004206411267
0.0004206688735
0.0004204353359
0.0004204707348
0.0004205226022
0.0004205883284
0.0004206639736
0.0004207437614
0.0004208198023
0.0004208821474
0.0004209193047
0.0004206097245
0.0004206570694
0.0004207264021
0.0004208142072
0.0004209152091
0.0004210217024
0.0004211231777
0.0004212063801
0.0004212559794
0.0004208465496
0.0004209096056
0.0004210019054
0.0004211187415
0.0004212530854
0.0004213947012
0.00042152964
0.000421640298
0.0004217062843
0.0004211660158
0.0004212496339
0.0004213719889
0.0004215268145
0.0004217047933
0.0004218923866
0.0004220711505
0.0004222177857
0.0004223052567
0.0004215940063
0.0004217043874
0.0004218658587
0.0004220701257
0.0004223048993
0.0004225523528
0.0004227882
0.000422981721
0.0004230972045
0.0004221633342
0.0004223083336
0.0004225203968
0.0004227886062
0.0004230968361
0.0004234217265
0.000423731443
0.0004239856623
0.0004241374233
0.00042291514
0.0004231046039
0.0004233816366
0.0004237319464
0.0004241344839
0.0004245587948
0.0004249633655
0.0004252955422
0.0004254939021
0.0004239004017
0.0004241465226
0.0004245063146
0.0004249611686
0.000425483756
0.0004260345945
0.0004265598621
0.000426991226
0.0004272488715
0.0004251815002
0.0004254991681
0.0004259634183
0.0004265501482
0.0004272240746
0.0004279343197
0.0004286115646
0.0004291677655
0.0004294999961
0.0004268337473
0.0004272408633
0.0004278356141
0.0004285869477
0.000429449576
0.0004303583744
0.0004312247294
0.000431936127
0.0004323610108
0.0004289467447
0.0004294644534
0.0004302203956
0.0004311747844
0.0004322698592
0.0004334228609
0.0004345214517
0.000435423177
0.0004359615611
0.0004316253925
0.0004322781773
0.0004332307503
0.00043443243
0.0004358100433
0.000437259264
0.000438638984
0.0004397706823
0.0004404460067
0.0004349903209
0.0004358059129
0.0004369951172
0.000438493785
0.0004402099063
0.0004420131133
0.0004437279274
0.0004451331056
0.0004459709771
0.0004391775055
0.0004401865399
0.0004416563859
0.0004435064208
0.0004456218868
0.00044784141
0.0004499491066
0.0004516740283
0.0004527015252
0.0004443368199
0.0004455722022
0.0004473697308
0.0004496288714
0.0004522077611
0.0004549086672
0.0004574690179
0.0004595611225
0.0004608058215
0.0004506293156
0.0004521252573
0.0004542990883
0.0004570265319
0.0004601339008
0.0004633815221
0.0004664538554
0.0004689597209
0.0004704484617
0.000458223064
0.0004600137854
0.0004626121962
0.0004658661339
0.0004695651424
0.0004734220151
0.0004770622733
0.0004800251869
0.0004817826167
0.0004672875259
0.0004694056563
0.0004724742454
0.0004763089175
0.0004806574674
0.0004851798166
0.0004894372351
0.0004928944816
0.0004949414192
0.0004779865525
0.0004804613036
0.0004840403595
0.0004885027974
0.0004935498867
0.0004987838988
0.0005036975582
0.000507677625
0.0005100291422
0.0004904702888
0.0004933255237
0.0004974472852
0.000502573992
0.0005083561034
0.0005143343698
0.0005199301109
0.0005244506777
0.0005271164809
0.0005048664049
0.0005081187623
0.0005128048126
0.0005186187011
0.0005251566038
0.0005318951124
0.0005381829475
0.0005432486227
0.0005462296962
0.000521271224
0.0005249284836
0.0005301875503
0.0005366954897
0.0005439918958
0.0005514881861
0.0005584613591
0.0005640638987
0.0005673542177
0.0005397414502
0.0005438013335
0.0005496277682
0.000556819055
0.0005648574393
0.0005730900486
0.0005807250108
0.0005868430191
0.0005904289068
0.0005602873707
0.0005647369787
0.0005711102111
0.0005789563374
0.00058770117
0.0005966300146
0.0006048862537
0.0006114849107
0.0006153449386
0.0005828687182
0.00058768478
0.0005945698999
0.000603025435
0.0006124228671
0.0006219894993
0.0006308099083
0.0006378414989
0.0006419468973
0.0006073945879
0.0006125442725
0.0006198928966
0.0006288961209
0.0006388746863
0.0006490033783
0.0006583156194
0.0006657208441
0.0006700363553
0.0006337246401
0.0006391660386
0.0006469171374
0.0006563913898
0.0006668638595
0.0006774638356
0.000687182656
0.0006948926304
0.000699377733
0.000661670633
0.000667353875
0.0006754355346
0.0006852916168
0.0006961579188
0.0007071265327
0.0007171568354
0.0007250956132
0.0007297060167
0.0006910008642
0.0006968698378
0.0007052018018
0.0007153412065
0.000726492117
0.0007377186812
0.000747959086
0.0007560464963
0.0007607357858
0.0007214474049
0.0007274418718
0.0007359385788
0.0007462572224
0.0007575784959
0.0007689484374
0.0007792950431
0.0007874496231
0.0007921709332
0.0007527154652
0.0007587733648
0.0007673471997
0.0007777393361
0.0007891159365
0.0008005149578
0.0008108650315
0.0008190068503
0.0008237144532
0.0007844940983
0.0007905538493
0.0007991183492
0.0008094803634
0.0008208004895
0.0008321184506
0.0008423738024
0.0008504270013
0.0008550777191
0.0008164674155
0.0008224700481
0.0008309428375
0.0008411766681
0.0008523353187
0.0008634696091
0.0008735394694
0.0008814343892
0.0008859887604
0.0008483255127
0.0008542165011
0.0008625217844
0.0008725377821
0.0008834396778
0.0008942979207
0.000904101195
0.0009117760104
0.0009161991726
0.0008797744139
0.0008855051198
0.0008935756172
0.0009032947214
0.0009138564739
0.0009243584764
0.0009338253227
0.000941227151
0.0009454894251
0.0009105444879
0.0009160731702
0.0009238514436
0.0009332066279
0.0009433581239
0.0009534370595
0.0009625097881
0.0009695952821
0.0009736724688
0.0009403969767
0.0009456893648
0.0009531285368
0.0009620655402
0.0009717505699
0.0009813534357
0.0009899867822
0.0009967222539
0.00100059567
0.000969128469
0.0009741579288
0.0009812218439
0.0009896992522
0.0009988754639
0.001007962903
0.001016123759
0.001022484902
0.001026141198
0.0009965733245
0.001001320674
0.001007983582
0.001015972363
0.001024610658
0.00103315626
0.001040822968
0.001046794264
0.001050225066
0.001022604204
0.001027057249
0.001033303114
0.001040785726
0.001048869223
0.001056858436
0.001064019763
0.001069593651
0.001072795081
0.00104713097
0.001051283835
0.00105710537
0.00106407457
0.001071597277
0.001079026054
0.001085679953
0.001090855859
0.001093827976
0.001070098281
0.001073950613
0.001079348149
0.001085805618
0.00109277093
0.001099644231
0.001105796491
0.001110579777
0.001113325979
0.001091482229
0.001095038337
0.001100018614
0.001105973507
0.001112392638
0.001118722888
0.00112438576
0.001128786665
0.001131313087
0.001111286373
0.001114554359
0.001119129314
0.001124596818
0.001130487256
0.001136292832
0.001141483696
0.001145516312
0.001147831248
0.001129537463
0.001132528389
0.001136713997
0.001141713958
0.001147098009
0.00115240183
0.001157141944
0.001160823265
0.001162936633
0.001146281118
0.001149008241
0.00115282345
0.001157379124
0.001162282585
0.001167110823
0.00117142421
0.001174773276
0.001176696132
0.001161577676
0.00116405576
0.00116752155
0.001171658491
0.001176109481
0.001180490443
0.001184402896
0.001187440047
0.001189184167
0.001175498343
0.001177743071
0.001180881642
0.001184626751
0.001188654708
0.00119261787
0.001196156125
0.001198902363
0.00120047988
0.001188121747
0.001190149232
0.001192983317
0.001196364052
0.001199998904
0.001203574116
0.001206765153
0.001209241618
0.00121066473
0.00119953096
0.001201357334
0.001203909658
0.001206953384
0.001210224877
0.00121344172
0.001216312209
0.001218539759
0.001219820489
0.001209810977
0.001211452082
0.001213744918
0.001216478411
0.001219415581
0.001222302867
0.001224878734
0.001226877615
0.001228027625
0.001219046665
0.001220517809
0.001222572655
0.001225021714
0.001227652493
0.001230237892
0.001232543995
0.001234333595
0.001235364052
0.001227321139
0.001228636921
0.001230474261
0.001232663438
0.001235014368
0.001237324137
0.001239384036
0.001240982718
0.00124190419
0.001234714527
0.001235888718
0.001237527858
0.001239480271
0.001241576315
0.001243635121
0.001245470929
0.001246895913
0.001247718313
0.001241303069
0.00124234854
0.00124380751
0.00124554473
0.001247409163
0.001249239982
0.001250872278
0.00125213958
0.001252872126
0.001247158512
0.001248087193
0.001249382701
0.001250924703
0.001252579059
0.001254203132
0.001255650927
0.001256775336
0.001257426537
0.001252347738
0.001253170618
0.001254318038
0.001255683194
0.001257147264
0.001258584099
0.001259864844
0.001260859929
0.001261437594
0.001256932595
0.001257659727
0.001258673125
0.001259878232
0.001261170102
0.001262437517
0.001263567138
0.001264445278
0.001264956533
0.001260969868
0.001261610404
0.001262502581
0.00126356292
0.001264699031
0.001265813214
0.001266806176
0.001267578613
0.001268029927
0.001264511375
0.001265073611
0.001265856162
0.001266785566
0.001267780801
0.001268756395
0.00126962578
0.001270302673
0.001270699895
0.00126760415
0.001268095572
0.001268778958
0.001269589906
0.001270457677
0.00127130788
0.001272065469
0.001272655968
0.001273004367
0.001270290682
0.001270718021
0.001271311647
0.001272015352
0.001272767712
0.001273504373
0.001274160741
0.001274673058
0.001274977364
0.001272609198
0.00127297849
0.001273490785
0.001274097292
0.001274745033
0.001275378761
0.001275943375
0.001276384859
0.001276649304
0.001274593969
0.001274910608
0.001275349104
0.001275867391
0.001276420154
0.001276960424
0.001277441734
0.001277818944
0.001278047308
0.001276275623
0.001276544421
0.001276915837
0.001277353905
0.001277820283
0.001278275535
0.00127868107
0.00127899985
0.001279195501
0.001277681465
0.001277906704
0.00127821702
0.00127858199
0.001278969627
0.001279347371
0.001279683825
0.001279949371
0.001280115305
0.001278835783
0.001279021272
0.001279275799
0.001279574
0.001279889688
0.001280196592
0.001280469913
0.001280686839
0.001280825719
0.001279760149
0.001279909268
0.001280112726
0.001280349773
0.00128059954
0.001280841524
0.001281056987
0.001281229389
0.001281343578
0.001280473701
0.00128058945
0.001280746022
0.001280926899
0.001281116092
0.001281298406
0.001281460694
0.001281592205
0.001281683801
0.001280993407
0.001281078447
0.001281191846
0.001281320973
0.001281454335
0.001281581639
0.001281694904
0.00128178875
0.001281859613
0.00128133431
0.001281391002
0.001281464524
0.001281545823
0.001281627567
0.001281703996
0.001281771927
0.001281830969
0.001281882755
0.001281509756
0.001281540197
0.001281576768
0.001281613726
0.001281647594
0.001281676825
0.001281702702
0.001281729489
0.001281763668
0.001281531597
0.001281537654
0.00128153988
0.0012815356
0.001281524924
0.001281510233
0.001281496978
0.00128149378
0.001281511663
0.001281410384
0.001281393722
0.001281363926
0.001281321179
0.001281268935
0.001281213248
0.001281163474
0.001281132319
0.001281135078
0.001281155535
0.001281117643
0.001281057905
0.00128097917
0.001280888025
0.001280793965
0.001280710014
0.001280652725
0.00128064141
0.001280775486
0.0012807177
0.001280629891
0.001280517397
0.001280389751
0.00128025968
0.001280143666
0.001280061883
0.001280037439
0.001280277829
0.001280201357
0.001280087163
0.001279942927
0.00127978095
0.001279617009
0.001279470842
0.001279366054
0.001279329337
0.001279669434
0.001279575371
0.001279436326
0.001279262181
0.001279067848
0.001278871985
0.001278697411
0.001278570974
0.001278522761
0.001278956558
0.001278845905
0.00127868341
0.001278481032
0.001278256154
0.001278030157
0.001277828778
0.001277681937
0.001277622941
0.001278144939
0.001278018616
0.001277833962
0.0012776049
0.001277351148
0.001277096668
0.001276869966
0.001276703871
0.00127663475
0.001277239882
0.001277098742
0.001276893128
0.001276638817
0.001276357747
0.001276076325
0.001275825679
0.001275641406
0.001275562769
0.00127624633
0.001276091171
0.001275865717
0.001275587506
0.001275280577
0.001274973659
0.001274700369
0.001274498926
0.001274411343
0.00127516893
0.001275000503
0.001274756269
0.00127445543
0.001274124023
0.001273792979
0.001273498276
0.00127328062
0.001273184628
0.001274012088
0.001273831108
0.001273569101
0.001273246847
0.00127289228
0.001272538418
0.001272223479
0.001271990521
0.001271886631
0.001272780018
0.001272587169
0.001272308353
0.001271965851
0.00127158939
0.001271213971
0.001270879927
0.001270632546
0.001270521246
0.001271476778
0.001271272721
0.001270978031
0.001270616406
0.001270219279
0.001269823523
0.001269471473
0.001269210521
0.00126909228
0.001270106311
0.001269891686
0.00126958203
0.001269202382
0.001268785785
0.001268370883
0.0012680019
0.001267728204
0.001267603478
0.001268672467
0.001268447903
0.001268124169
0.001267727573
0.00126729268
0.001266859801
0.001266474935
0.001266189308
0.001266058539
0.00126717903
0.001266945143
0.001266608207
0.001266195723
0.001265743689
0.001265293985
0.001264894273
0.001264597515
0.001264461136
0.001265629737
0.001265387136
0.001265037862
0.001264610537
0.001264142506
0.001263677117
0.001263263583
0.001262956484
0.00126281492
0.001264028291
0.001263777579
0.001263416824
0.001262975697
0.001262492805
0.001262012861
0.001261586523
0.001261269864
0.001261123534
0.001262378373
0.001262120149
0.001261748765
0.001261294869
0.001260798243
0.00126030487
0.001259866739
0.001259541297
0.001259390613
0.001260683649
0.00126041851
0.001260037343
0.001259571709
0.001259062474
0.001258556791
0.001258107872
0.001257774418
0.00125761979
0.001258947777
0.001258676316
0.001258286212
0.001257809865
0.00125728914
0.001256772265
0.00125631356
0.001255972862
0.001255814693
0.001257174406
0.001256897215
0.001256499017
0.001256012979
0.001255481883
0.001254954927
0.001254487434
0.001254140254
0.001253978944
0.00125536718
0.001255084848
0.001254679395
0.001254184687
0.001253644333
0.001253108405
0.001252633116
0.001252280214
0.001252116158
0.001253529732
0.001253242848
0.001252830976
0.001252328614
0.00125178011
0.001251236312
0.001250754217
0.001250396345
0.001250229934
0.001251665686
0.001251374833
0.001250957376
0.001250448369
0.001249892818
0.001249342248
0.001248854327
0.001248492233
0.001248323851
0.001249778646
0.001249484405
0.001249062189
0.001248547542
0.00124798604
0.001247429785
0.001246937011
0.001246571434
0.001246401464
0.001247872195
0.001247575142
0.001247148988
0.001246629696
0.001246063327
0.001245502466
0.001245005801
0.001244637472
0.001244466288
0.001245949886
0.001245650591
0.001245221309
0.001244698358
0.001244128196
0.001243563793
0.001243064189
0.001242693828
0.001242521797
0.001244015233
0.001243714259
0.001243282652
0.001242757013
0.001242184116
0.001241617221
0.001241115614
0.001240743931
0.001240571414
0.001242071706
0.001241769606
0.001241336463
0.001240809094
0.001240234504
0.00123966615
0.001239163458
0.001238791147
0.001238618497
0.001240122719
0.001239820038
0.001239386133
0.001238857973
0.001238282711
0.00123771391
0.001237211034
0.001236838776
0.001236666334
0.001238171621
0.001237868892
0.001237434985
0.001236906953
0.001236332018
0.001235763757
0.001235261577
0.001234890033
0.001234718134
0.00123622169
0.001235919432
0.001235486263
0.001234959255
0.001234385622
0.001233818864
0.001233318233
0.001232948047
0.001232777013
0.001234276119
0.001233974839
0.001233543127
0.001233018014
0.001232446627
0.001231882307
0.001231384053
0.001231015847
0.001230845989
0.001232338011
0.001232038198
0.00123160864
0.001231086265
0.001230518039
0.001229957057
0.00122946198
0.001229096354
0.001228927969
0.001230410365
0.001230112491
0.001229685759
0.001229166935
0.00122860275
0.001228045975
0.001227554842
0.001227192371
0.001227025744
0.00122849607
0.00122820059
0.001227777329
0.001227262834
0.001226703534
0.001226151795
0.00122566534
0.001225306572
0.001225141975
0.001226597895
0.001226305241
0.001225886067
0.001225376646
0.001224823035
0.001224277124
0.001223796043
0.001223441499
0.001223279185
0.001224718478
0.001224429062
0.001224014561
0.001223510918
0.001222963758
0.001222424422
0.001221949375
0.001221599544
0.001221439754
0.001222860319
0.001222574531
0.001222165253
0.001221668054
0.001221128062
0.001220596004
0.001220127608
0.001219782948
0.001219625903
0.00122102577
0.001220743973
0.001220340435
0.001219850301
0.001219318146
0.001218794019
0.001218332848
0.001217993783
0.001217839687
0.001219217025
0.001218939556
0.001218542237
0.001218059744
0.001217536043
0.001217020452
0.001216567031
0.00121623395
0.001216082988
0.001217436108
0.001217163278
0.001216772617
0.001216298291
0.00121578361
0.001215277102
0.001214831909
0.001214505161
0.001214357496
0.001215684869
0.001215416958
0.001215033351
0.001214567668
0.001214062513
0.001213565579
0.001213129039
0.001212808932
0.001212664708
0.001213964966
0.001213702224
0.001213326023
0.001212869402
0.00121237422
0.001211887289
0.001211459771
0.001211146571
0.001211005907
0.001212277859
0.0012120205
0.001211652011
0.001211204812
0.001210719984
0.001210243421
0.001209825234
0.001209519161
0.00120938215
0.001210624793
0.001210373
0.001210012474
0.001209574998
0.001209100838
0.001208634937
0.001208226327
0.001207927549
0.001207794259
0.001209006791
0.001208760706
0.001208408345
0.001207980824
0.00120751757
0.001207062551
0.001206663697
0.001206372331
0.001206242801
0.001207424637
0.001207184363
0.001206840309
0.001206422906
0.001205970719
0.001205526724
0.001205137731
0.001204853838
0.001204728076
0.001205878863
0.001205644461
0.001205308794
0.001204901597
0.001204460556
0.001204027642
0.001203648538
0.001203372119
0.001203250099
0.001204369735
0.001204141221
0.001203813958
0.001203416974
0.00120298707
0.001202565204
0.001202195938
0.001201926927
0.001201808589
0.001202897241
0.001202674583
0.001202355673
0.001201968826
0.001201549956
0.001201139011
0.001200779444
0.00120051771
0.001200402957
0.00120146108
0.001201244194
0.001200933513
0.00120055664
0.001200148603
0.001199748355
0.001199398258
0.001199143598
0.001199032293
0.001200060646
0.0011998494
0.00119954675
0.001199179595
0.001198782089
0.001198392211
0.00119805126
0.001197803399
0.001197695364
0.001198695031
0.001198489235
0.001198194341
0.001197836554
0.001197449175
0.001197069234
0.001196737012
0.0011964956
0.001196390617
0.001197363013
0.001197162425
0.001196874934
0.001196526071
0.001196148308
0.001195777767
0.00119545376
0.001195218371
0.001195116181
0.001196063064
0.001195867387
0.001195586868
0.00119524639
0.00119487763
0.001194515847
0.001194199449
0.001193969586
0.001193869888
0.001194793359
0.001194602242
0.001194328189
0.001193995466
0.001193634996
0.001193281232
0.001192971745
0.001192746842
0.001192649298
0.00119355179
0.001193364833
0.00119309667
0.001192770986
0.001192418001
0.001192071424
0.001191768071
0.001191547499
0.00119145174
0.001192335998
0.001192152755
0.001191889842
0.001191570405
0.001191224018
0.001190883716
0.001190585649
0.001190368727
0.001190274353
0.001191143404
0.001190963391
0.001190705033
0.001190390988
0.001190050244
0.001189715242
0.001189421558
0.001189207564
0.001189114155
0.001189971257
0.001189793959
0.001189539421
0.001189229865
0.001188893761
0.001188563038
0.001188272796
0.001188060982
0.001187968105
0.001188816689
0.001188641572
0.001188390092
0.001188084093
0.001187751597
0.00118742411
0.001187136354
0.001186925963
0.001186833186
0.001187676778
0.0011875033
0.001187254107
0.001186950727
0.001186620807
0.001186295514
0.001186009296
0.001185799582
0.001185706478
0.001186548616
0.001186376243
0.001186128577
0.001185826892
0.001185498538
0.001185174429
0.001184888832
0.001184679081
0.001184585247
0.001185429385
0.001185257599
0.001185010732
0.001184709862
0.001184382115
0.001184058236
0.001183772403
0.001183561948
0.001183467012
0.001184316423
0.001184144744
0.001183897996
0.001183597126
0.001183269104
0.001182944585
0.001182657739
0.001182445983
0.001182349614
0.001183207298
0.001183035289
0.001182788051
0.001182486453
0.001182157375
0.001181831451
0.001181542918
0.001181329347
0.001181231266
0.001182099862
0.001181927147
0.001181678892
0.001181375942
0.001181045146
0.001180717178
0.0011804264
0.001180210595
0.00118011058
0.001180992299
0.001180818566
0.001180568864
0.001180264057
0.001179931014
0.001179600498
0.001179307043
0.001179088687
0.001178986574
0.001179883156
0.001179708167
0.001179456688
0.001179149644
0.001178813963
0.001178480534
0.001178184098
0.001177962975