/*--------------------------------*- C++ -*----------------------------------*\
| =========                 |                                                 |
| \\      /  F ield         | OpenFOAM: The Open Source CFD Toolbox           |
|  \\    /   O peration     | Version:  2212                                  |
|   \\  /    A nd           | Website:  www.openfoam.com                      |
|    \\/     M anipulation  |                                                 |
\*---------------------------------------------------------------------------*/
FoamFile
{
    version     2.0;
    format      ascii;
    arch        "LSB;label=32;scalar=64";
    class       volScalarField;
    location    "2.75000000";
    object      CO_0;
}
// * * * * * * * * * * * * * * * * * * * * * * * * * * * * * * * * * * * * * //

dimensions      [0 0 0 0 0 0 0];

internalField   nonuniform List<scalar> 
3000
(
1.124286481e-22
1.301100517e-22
1.570253413e-22
1.93282018e-22
2.387037068e-22
2.921575175e-22
3.504337353e-22
4.064352656e-22
4.465997628e-22
4.368211998e-22
5.084593813e-22
6.176238039e-22
7.652527738e-22
9.520809764e-22
1.177420667e-21
1.436946746e-21
1.716524919e-21
1.963675135e-21
1.03848013e-21
1.221522622e-21
1.503670023e-21
1.892516423e-21
2.398277474e-21
3.030508069e-21
3.787412106e-21
4.625836714e-21
5.347584044e-21
2.147831186e-21
2.560671762e-21
3.2081582e-21
4.122597348e-21
5.347484438e-21
6.924279703e-21
8.852364207e-21
1.098197263e-20
1.272918218e-20
4.22466778e-21
5.114135746e-21
6.535421973e-21
8.589513404e-21
1.140656517e-20
1.510055226e-20
1.964075136e-20
2.456093186e-20
2.842450217e-20
8.178185086e-21
1.005255651e-20
1.309902639e-20
1.758577037e-20
2.384215049e-20
3.21236864e-20
4.227158078e-20
5.305362952e-20
6.125306622e-20
1.582157661e-20
1.972313798e-20
2.615264679e-20
3.575439897e-20
4.928313492e-20
6.72500027e-20
8.912638544e-20
1.119857105e-19
1.289810644e-19
3.076028371e-20
3.880779376e-20
5.220912141e-20
7.241613524e-20
1.010594986e-19
1.39104796e-19
1.851195926e-19
2.325909656e-19
2.673437303e-19
6.016658414e-20
7.664078275e-20
1.042813753e-19
1.462218118e-19
2.058572778e-19
2.849588916e-19
3.800610076e-19
4.772516634e-19
5.476592515e-19
1.182723838e-19
1.517649353e-19
2.08249435e-19
2.942911882e-19
4.167967335e-19
5.789762783e-19
7.72996344e-19
9.699021288e-19
1.111495186e-18
2.332496802e-19
3.009071078e-19
4.153972e-19
5.901899056e-19
8.391199268e-19
1.167987808e-18
1.559841343e-18
1.95547765e-18
2.238477002e-18
4.606776555e-19
5.965328587e-19
8.269157506e-19
1.179043572e-18
1.680335076e-18
2.341278491e-18
3.126229252e-18
3.915661107e-18
4.47816252e-18
9.097848628e-19
1.181034565e-18
1.641588925e-18
2.345814517e-18
3.347621085e-18
4.665980507e-18
6.227361146e-18
7.792759019e-18
8.905268543e-18
1.794262345e-18
2.332865256e-18
3.247950722e-18
4.647160247e-18
6.635838178e-18
9.248190609e-18
1.233406309e-17
1.541874215e-17
1.760997194e-17
3.530046053e-18
4.593622207e-18
6.401090577e-18
9.164023729e-18
1.308726032e-17
1.823224512e-17
2.429402791e-17
3.033285609e-17
3.463254382e-17
6.922419934e-18
9.010712135e-18
1.255934842e-17
1.798117573e-17
2.567298895e-17
3.574986529e-17
4.761879248e-17
5.944874679e-17
6.776375201e-17
1.35226026e-17
1.759902621e-17
2.452333582e-17
3.509402364e-17
5.007150128e-17
6.965973797e-17
9.267986779e-17
1.155618751e-16
1.316578116e-16
2.630518294e-17
3.421765161e-17
4.764989301e-17
6.813553758e-17
9.712320416e-17
1.349747883e-16
1.79380684e-16
2.234433059e-16
2.544012224e-16
5.094827348e-17
6.622433976e-17
9.213876191e-17
1.316202141e-16
1.874153365e-16
2.601656838e-16
3.45384345e-16
4.298188747e-16
4.890543033e-16
9.824018382e-17
1.275811494e-16
1.773170377e-16
2.53010622e-16
3.598446484e-16
4.989499442e-16
6.616640335e-16
8.226563775e-16
9.354409082e-16
1.885823091e-16
2.446568036e-16
3.39630812e-16
4.840148856e-16
6.875397509e-16
9.521814513e-16
1.261310472e-15
1.566757684e-15
1.780452615e-15
3.603751003e-16
4.670177658e-16
6.474842383e-16
9.215308294e-16
1.307334725e-15
1.808312375e-15
2.392710736e-15
2.96939129e-15
3.372328026e-15
6.855647795e-16
8.874064434e-16
1.22866839e-15
1.746297051e-15
2.474076362e-15
3.41784024e-15
4.51726977e-15
5.600778487e-15
6.356919154e-15
1.29833521e-15
1.678561473e-15
2.320832927e-15
3.293898713e-15
4.660235087e-15
6.429662075e-15
8.488171437e-15
1.051431554e-14
1.192655539e-14
2.447823593e-15
3.160777277e-15
4.363944767e-15
6.184619545e-15
8.737756097e-15
1.203960497e-14
1.587576685e-14
1.96468837e-14
2.227225205e-14
4.594535672e-15
5.925300183e-15
8.16888626e-15
1.155982108e-14
1.630852118e-14
2.244125138e-14
2.955671762e-14
3.654266074e-14
4.140027035e-14
8.585916314e-15
1.105873633e-14
1.522357106e-14
2.151036812e-14
3.030221962e-14
4.164014157e-14
5.477628757e-14
6.765616605e-14
7.660065225e-14
1.59746498e-14
2.054937884e-14
2.824631462e-14
3.984963876e-14
5.605285542e-14
7.691675848e-14
1.010534501e-13
1.246856868e-13
1.410749619e-13
2.959294346e-14
3.801933614e-14
5.218118681e-14
7.350119955e-14
1.032270791e-13
1.41441054e-13
1.855774101e-13
2.287240862e-13
2.586025727e-13
5.458364494e-14
7.00372832e-14
9.597947796e-14
1.349769755e-13
1.892593105e-13
2.58917343e-13
3.392250636e-13
4.175942318e-13
4.717732801e-13
1.00241988e-13
1.284598802e-13
1.757707536e-13
2.46777482e-13
3.45433302e-13
4.717811782e-13
6.171449529e-13
7.587118689e-13
8.563924522e-13
1.832868975e-13
2.345839059e-13
3.204733782e-13
4.491547262e-13
6.275747879e-13
8.555561152e-13
1.117220784e-12
1.371441182e-12
1.546451592e-12
3.33636549e-13
4.264633125e-13
5.816552523e-13
8.137094876e-13
1.134704307e-12
1.543783502e-12
2.011978104e-12
2.465554491e-12
2.776951778e-12
6.045388022e-13
7.717148975e-13
1.050736169e-12
1.467015674e-12
2.041287489e-12
2.770888711e-12
3.603131583e-12
4.406632324e-12
4.956453551e-12
1.090214895e-12
1.389760482e-12
1.888750766e-12
2.631293742e-12
3.652435474e-12
4.945072057e-12
6.413708507e-12
7.825827758e-12
8.788317982e-12
1.956354682e-12
2.49013998e-12
3.377373318e-12
4.693726766e-12
6.497323117e-12
8.770714399e-12
1.134152938e-11
1.380143224e-11
1.547028619e-11
3.492392913e-12
4.437912884e-12
6.005513677e-12
8.323261336e-12
1.148530836e-11
1.545110818e-11
1.991111656e-11
2.415450511e-11
2.701772129e-11
6.200338082e-12
7.864211723e-12
1.061466828e-11
1.466499691e-11
2.016326812e-11
2.70192129e-11
3.468056045e-11
4.19222238e-11
4.67782808e-11
1.094430157e-11
1.385116021e-11
1.863999509e-11
2.565939269e-11
3.513353299e-11
4.686871207e-11
5.988767666e-11
7.210279108e-11
8.023724949e-11
1.919970552e-11
2.423771649e-11
3.250508197e-11
4.455900423e-11
6.072212544e-11
8.059260965e-11
1.024586929e-10
1.228075499e-10
1.362561862e-10
3.346423862e-11
4.211952108e-11
5.625974514e-11
7.675258742e-11
1.040301498e-10
1.372853951e-10
1.735563154e-10
2.070132357e-10
2.289469419e-10
5.79279677e-11
7.265562799e-11
9.659614233e-11
1.310594538e-10
1.765615041e-10
2.315319852e-10
2.909172619e-10
3.451853931e-10
3.804641469e-10
9.955309146e-11
1.243536029e-10
1.644445538e-10
2.217315148e-10
2.967033803e-10
3.863984875e-10
4.82329171e-10
5.691505253e-10
6.251099677e-10
1.697919579e-10
2.110891418e-10
2.774436099e-10
3.715039153e-10
4.934502201e-10
6.378651708e-10
7.907330887e-10
9.277402545e-10
1.01529648e-09
2.872845861e-10
3.552364483e-10
4.637099805e-10
6.161775223e-10
8.119179767e-10
1.041313338e-09
1.281624304e-09
1.494930438e-09
1.630118669e-09
4.820358812e-10
5.924530489e-10
7.675120692e-10
1.011411474e-09
1.321409091e-09
1.680912346e-09
2.053679945e-09
2.381471617e-09
2.587575222e-09
8.017927529e-10
9.788928895e-10
1.257697757e-09
1.642670232e-09
2.127080646e-09
2.683074077e-09
3.253891427e-09
3.751380608e-09
4.061861871e-09
1.32164116e-09
1.601934618e-09
2.04006026e-09
2.63963262e-09
3.386667098e-09
4.235580571e-09
5.098956453e-09
5.84517097e-09
6.307688647e-09
2.158247504e-09
2.595935256e-09
3.275279466e-09
4.196864482e-09
5.334252383e-09
6.614586816e-09
7.905331953e-09
9.012388004e-09
9.694285221e-09
3.490712441e-09
4.165091083e-09
5.204690843e-09
6.603228067e-09
8.313823926e-09
1.022250837e-08
1.213122358e-08
1.375694252e-08
1.475271986e-08
5.590738148e-09
6.616261588e-09
8.18696856e-09
1.028341221e-08
1.282633947e-08
1.564089394e-08
1.843496614e-08
2.079999142e-08
2.224145045e-08
8.865805762e-09
1.040566736e-08
1.274994676e-08
1.585620406e-08
1.95953855e-08
2.370384892e-08
2.775583005e-08
3.116679094e-08
3.323677221e-08
1.392042183e-08
1.620482403e-08
1.96633637e-08
2.421580416e-08
2.965831772e-08
3.559953195e-08
4.142540543e-08
4.630619333e-08
4.925717704e-08
2.164235996e-08
2.4993106e-08
3.004050052e-08
3.664480516e-08
4.449221305e-08
5.300981955e-08
6.132050038e-08
6.825450085e-08
7.243380786e-08
3.33214556e-08
3.818454512e-08
4.547704022e-08
5.4968771e-08
6.618686563e-08
7.830272711e-08
9.00735863e-08
9.98604052e-08
1.057437611e-07
5.081484672e-08
5.780449502e-08
6.824446266e-08
8.177048184e-08
9.768254723e-08
1.147946903e-07
1.313587091e-07
1.450904223e-07
1.533274067e-07
7.677581068e-08
8.673337262e-08
1.01555403e-07
1.206826454e-07
1.43094304e-07
1.67108315e-07
1.902811108e-07
2.094446421e-07
2.209197236e-07
1.149671896e-07
1.290400021e-07
1.49926157e-07
1.767873077e-07
2.081537983e-07
2.416589552e-07
2.739064692e-07
3.005210686e-07
3.16435595e-07
1.706895299e-07
1.904363876e-07
2.196704385e-07
2.571589697e-07
3.008092227e-07
3.473145991e-07
3.919780875e-07
4.287799711e-07
4.507624206e-07
2.513631974e-07
2.788954062e-07
3.195691838e-07
3.716004401e-07
4.320372899e-07
4.962884328e-07
5.578866632e-07
6.085774208e-07
6.388319906e-07
3.673158336e-07
4.054857447e-07
4.617751139e-07
5.336358246e-07
6.169384341e-07
7.0534262e-07
7.899786086e-07
8.595604935e-07
9.010683664e-07
5.328414321e-07
5.854942236e-07
6.630279889e-07
7.618441484e-07
8.762078372e-07
9.97406126e-07
1.113316296e-06
1.208547049e-06
1.26534108e-06
7.676150053e-07
8.399244392e-07
9.46276954e-07
1.081639909e-06
1.238100694e-06
1.403738907e-06
1.562037305e-06
1.692050957e-06
1.769593918e-06
1.098566767e-06
1.197481782e-06
1.342829357e-06
1.527632417e-06
1.74103911e-06
1.966808025e-06
2.182497903e-06
2.359656699e-06
2.465366425e-06
1.562340658e-06
1.697176856e-06
1.895169044e-06
2.146721771e-06
2.43703711e-06
2.744074149e-06
3.037423159e-06
3.278488438e-06
3.422468925e-06
2.208481588e-06
2.391699362e-06
2.660607948e-06
3.002111088e-06
3.396143129e-06
3.812910791e-06
4.211310368e-06
4.539042397e-06
4.735094352e-06
3.103510269e-06
3.351728267e-06
3.71594716e-06
4.178424689e-06
4.712105669e-06
5.276879089e-06
5.817324625e-06
6.262633413e-06
6.529623621e-06
4.336048779e-06
4.671345125e-06
5.163319245e-06
5.788108998e-06
6.509442243e-06
7.273537703e-06
8.005859571e-06
8.610616139e-06
8.974271807e-06
6.023146246e-06
6.474696545e-06
7.137350787e-06
7.979241985e-06
8.952015086e-06
9.983856884e-06
1.097478536e-05
1.179534949e-05
1.229050118e-05
8.317911461e-06
8.923996548e-06
9.813708041e-06
1.094477054e-05
1.225306962e-05
1.364310712e-05
1.498115055e-05
1.609256461e-05
1.676578398e-05
1.141847303e-05
1.222885403e-05
1.341895253e-05
1.493301643e-05
1.668645854e-05
1.8552797e-05
2.03537447e-05
2.185438217e-05
2.276684964e-05
1.557814047e-05
1.665673844e-05
1.824142339e-05
2.025903164e-05
2.25984563e-05
2.509285594e-05
2.750549362e-05
2.952174581e-05
3.075204706e-05
2.111641605e-05
2.25441464e-05
2.464257451e-05
2.73160495e-05
3.041918738e-05
3.373283437e-05
3.694421539e-05
3.963460298e-05
4.128106298e-05
2.843020359e-05
3.030770684e-05
3.306784249e-05
3.658590011e-05
4.067229275e-05
4.504050127e-05
4.927990253e-05
5.283784693e-05
5.501987383e-05
3.800419257e-05
4.04540884e-05
4.405574531e-05
4.864688984e-05
5.398114533e-05
5.968599029e-05
6.522653264e-05
6.988090489e-05
7.273885266e-05
5.041900401e-05
5.3587197e-05
5.824357036e-05
6.417738135e-05
7.106974083e-05
7.843949854e-05
8.559643446e-05
9.160912553e-05
9.530222691e-05
6.635536033e-05
7.041087814e-05
7.636783143e-05
8.39532423e-05
9.275641988e-05
0.000102160882
0.0001112857245
0.0001189456461
0.0001236477357
8.659244236e-05
9.172530882e-05
9.925770694e-05
0.0001088374367
0.0001199389885
0.0001317799634
0.0001432499903
0.0001528632788
0.0001587562604
0.000111998519
0.0001184152775
0.000127819897
0.0001397605929
0.0001535704055
0.0001682672127
0.0001824703789
0.000194347012
0.0002016123001
0.0001435125004
0.000151429215
0.0001630140583
0.0001776920691
0.000194625115
0.0002125954637
0.0002299113269
0.0002443488349
0.0002531572785
0.0001821156709
0.0001917485066
0.0002058187684
0.0002236020234
0.0002440571278
0.0002656943891
0.0002864722173
0.0003037376007
0.0003142386322
0.0002287938493
0.0002403476492
0.0002571890303
0.0002784160348
0.0003027519825
0.0003284004191
0.0003529361092
0.0003732473946
0.0003855583039
0.0002844913264
0.000298146903
0.0003180073771
0.0003429648082
0.0003714755806
0.0004014054989
0.0004299192265
0.0004534282514
0.0004676245368
0.0003500590172
0.0003659601148
0.0003890315658
0.0004179322693
0.000450823479
0.0004852084474
0.000517825029
0.0005446030177
0.0005607106977
0.0004262001794
0.0004444412053
0.0004708425064
0.000503805821
0.0005411744491
0.0005800726516
0.0006168064289
0.0006468336868
0.0006648242227
0.0005134176764
0.0005340333158
0.0005637964062
0.0006008326417
0.0006426519755
0.0006859934623
0.0007267391393
0.0007598998873
0.0007796885096
0.0006119670088
0.0006349247367
0.0006679850608
0.0007089856661
0.0007550969389
0.0008026780314
0.0008472082991
0.0008832908887
0.0009047382382
0.0007218191985
0.0007470154896
0.0007832078428
0.0008279423677
0.0008780540964
0.000929539757
0.0009775103973
0.001016214729
0.001039132063
0.0008426370859
0.0008698978355
0.0009089582253
0.0009570786246
0.001010773992
0.001065708336
0.00111667169
0.001157620258
0.001181776412
0.000973767751
0.001002853071
0.00104442673
0.001095479047
0.001152231742
0.001210056934
0.001263478936
0.001306231893
0.001331362854
0.001114252717
0.001144865921
0.00118852136
0.001241964961
0.001301161057
0.001361239323
0.001416521673
0.001460595254
0.001486415194
0.001262857913
0.001294658588
0.001339906102
0.001395135487
0.00145609836
0.001517738653
0.001574243744
0.001619130245
0.001645343155
0.001418118762
0.001450736516
0.001497048133
0.001553418286
0.001615436885
0.001677923377
0.001735000117
0.001780187987
0.001806499099
0.001578394306
0.001611444312
0.001658275822
0.001715128739
0.001777486323
0.001840106634
0.001897115348
0.001942108085
0.001968234353
0.001741930939
0.001775029553
0.001821842262
0.001878532685
0.001940534047
0.00200260533
0.002058940177
0.002103272893
0.002128951969
0.001906929939
0.001939709255
0.001985989991
0.002041908631
0.002102904104
0.002163795447
0.00221890314
0.002262156002
0.002287153307
0.002071614118
0.002103734553
0.002149012706
0.00220360561
0.002263010583
0.002322160667
0.002375554724
0.00241736279
0.002441476505
0.002234289317
0.002265449569
0.002309310318
0.002362093526
0.002419402698
0.002476332152
0.002527602335
0.002567661685
0.002590725623
0.002393397218
0.002423341224
0.002465434534
0.002516003632
0.002570799775
0.002625118151
0.002673935202
0.002712005498
0.002733890033
0.002547556968
0.002576077792
0.002616123156
0.002664157818
0.002716115263
0.002767522993
0.002813639075
0.002849542981
0.002870154271
0.00269559425
0.002722535107
0.002760322343
0.002805586325
0.002854469762
0.002902755768
0.002946001285
0.002979621296
0.002998899145
0.0028365576
0.00286181038
0.002897197072
0.002939534387
0.002985193843
0.003030229667
0.003070507278
0.003101780578
0.003119695289
0.002969722732
0.002993224548
0.003026130855
0.00306545903
0.003107821965
0.003149553392
0.003186830054
0.003215742069
0.003232290649
0.003094586412
0.003116314739
0.003146716353
0.00318301769
0.003222079226
0.003260516331
0.00329481418
0.003321391398
0.003336593434
0.003210851927
0.003230818872
0.003258738899
0.003292050621
0.003327862793
0.00336306926
0.003394456049
0.003418758635
0.00343265211
0.003318408381
0.003336654599
0.003362155019
0.003392559078
0.003425219885
0.003457302308
0.003485881973
0.003507996571
0.003520633835
0.003417306079
0.003433894727
0.003457067996
0.003484681134
0.003514324006
0.003543421716
0.003569325496
0.003589358534
0.003600802578
0.00350773002
0.003522741068
0.003543702255
0.003568666789
0.003595450893
0.003621726679
0.0036451051
0.003663176778
0.003673497911
0.003589973216
0.003603498323
0.003622378063
0.00364485367
0.003668955334
0.003692587295
0.003713603171
0.003729842249
0.003739115227
0.003664411191
0.003676549255
0.003693487662
0.003713644321
0.003735249709
0.003756424339
0.003775246859
0.003789786276
0.003798087901
0.003731478589
0.003742332036
0.003757473625
0.00377548576
0.003794784821
0.003813691318
0.00383049122
0.003843464524
0.003850871685
0.003791648508
0.003801320282
0.003814809889
0.003830851667
0.003848033306
0.003864859062
0.00387980481
0.003891343345
0.003897931482
0.003845414835
0.003854006064
0.003865985668
0.003880227376
0.003895475741
0.003910402882
0.003923657752
0.003933888521
0.003939730462
0.003893277636
0.003900885887
0.003911492259
0.00392409761
0.003937589357
0.003950792213
0.003962512176
0.003971556296
0.003976721413
0.003935731484
0.003942449526
0.003951812562
0.003962936815
0.003974839206
0.003986482567
0.003996814833
0.00400478648
0.004009340119
0.003973256459
0.003979171453
0.003987413092
0.003997201836
0.004007671521
0.004017909536
0.004026991659
0.004033997422
0.004038000556
0.004006311542
0.004011504568
0.004018738169
0.004027326638
0.004036508996
0.004045484589
0.004053443999
0.004059582564
0.004063091624
0.004035330018
0.004039875875
0.00404620596
0.004053718771
0.004061747675
0.004069592368
0.00407654626
0.004081908338
0.00408497519
0.004060716595
0.004064683794
0.004070206073
0.004076757278
0.004083755188
0.004090589227
0.004096644695
0.004101313159
0.004103985178
0.00408284587
0.004086296792
0.004091098378
0.004096791751
0.004102870042
0.004108802751
0.00411405713
0.004118107277
0.004120427507
0.004102061886
0.00410505303
0.004109212806
0.004114142291
0.004119401765
0.004124532051
0.004129073377
0.004132573298
0.004134580662
0.004118678504
0.004121260814
0.004124849897
0.004129100171
0.004133631658
0.004138048624
0.004141956184
0.004144967193
0.004146696743
0.004132980392
0.004135199625
0.004138281881
0.004141928971
0.004145814006
0.004149597618
0.004152942558
0.004155519665
0.004157002846
0.004145224429
0.00414712154
0.004149754128
0.004152866069
0.004156177602
0.004159399391
0.004162245336
0.004164437732
0.004165702664
0.004155641388
0.004157252929
0.004159486856
0.004162124347
0.004164927453
0.004167651216
0.004170054908
0.004171906452
0.004172978209
0.004164437793
0.0041657963
0.004167676962
0.004169894021
0.0041722466
0.004174529094
0.004176541
0.0041780907
0.00417899158
0.004171797839
0.004172932207
0.004174499917
0.004176344507
0.004178297964
0.004180189567
0.004181854477
0.004183136948
0.004183886736
0.004177885331
0.004178821171
0.004180111657
0.004181626282
0.004183226164
0.004184771508
0.004186129097
0.004187174994
0.004187791215
0.004182845573
0.004183605548
0.004184650424
0.004185872688
0.004187159286
0.004188397846
0.004189483201
0.004190319633
0.004190817777
0.004186807188
0.004187411323
0.004188238523
0.004189201649
0.004190210557
0.004191177204
0.004192021312
0.004192672217
0.004193065963
0.004189883834
0.004190349806
0.004190983984
0.004191717294
0.004192479923
0.004193205425
0.004193835626
0.00419432212
0.004194623533
0.004192175807
0.004192519207
0.004192982106
0.00419351146
0.004194055509
0.004194566995
0.004195007394
0.004195348094
0.004195567805
0.004193771527
0.004194006097
0.004194316885
0.004194665077
0.004195014962
0.004195336346
0.004195608188
0.004195819496
0.004195966871
0.004194748899
0.00419488675
0.004195062321
0.00419524944
0.004195426681
0.004195579039
0.004195701046
0.004195797419
0.004195880707
0.004195176543
0.004195228353
0.004195283598
0.004195327358
0.004195350928
0.004195352843
0.004195341525
0.004195335705
0.004195362174
0.004195114925
0.004195090111
0.004195038167
0.004194954193
0.004194840832
0.004194708701
0.004194578625
0.004194481856
0.004194457913
0.004194617358
0.004194524232
0.0041943767
0.004194178792
0.004193943288
0.004193691599
0.004193455635
0.00419327785
0.004193209149
0.004193730904
0.004193576818
0.004193343956
0.004193044323
0.004192699761
0.004192341334
0.004192010875
0.004191760865
0.004191652405
0.004192497186
0.004192288652
0.00419197955
0.004191589014
0.004191146997
0.004190693206
0.004190278359
0.004189963921
0.004189820129
0.004190953096
0.004190695896
0.004190318633
0.004189846812
0.004189317658
0.004188778621
0.004188288379
0.004187916449
0.004187741257
0.00418913143
0.004188830717
0.00418839249
0.004187847964
0.004187240877
0.004186625624
0.004186068017
0.004185644788
0.004185441697
0.004187061447
0.004186721826
0.004186229075
0.004185619522
0.004184942749
0.004184259373
0.0041836416
0.004183172621
0.00418294476
0.004184769355
0.004184394962
0.004183853474
0.004183185798
0.004182446756
0.004181702543
0.004181031087
0.004180521354
0.004180271534
0.004182278746
0.004181873311
0.004181288309
0.004180568747
0.004179774146
0.004178975689
0.004178256418
0.004177710452
0.004177441205
0.004179610962
0.004179177867
0.004178554093
0.004177788311
0.00417694425
0.004176097548
0.004175335804
0.004174757718
0.004174471339
0.004176785426
0.004176327757
0.004175669537
0.004174862714
0.00417397477
0.004173085313
0.004172285987
0.004171679544
0.004171378126
0.00417381992
0.004173340506
0.004172651814
0.004171808709
0.004170882015
0.004169954858
0.004169122455
0.00416849112
0.004168176577
0.004170730825
0.004170232278
0.004169516786
0.004168641802
0.004167681109
0.004166720937
0.004165859632
0.004165206613
0.004164880712
0.004167533332
0.004167018078
0.004166279199
0.004165376434
0.004164386168
0.004163397347
0.004162511035
0.004161839321
0.004161503696
0.004164241613
0.004163711918
0.004162952846
0.004162026136
0.004161010445
0.004159997071
0.004159089404
0.004158401797
0.004158057971
0.004160868976
0.00416032697
0.004159550709
0.004158603665
0.00415756646
0.004156532394
0.004155606816
0.004154905956
0.004154555355
0.004157427983
0.004156875678
0.004156085069
0.004155121113
0.004154066097
0.004153014999
0.004152074777
0.004151363161
0.004151007129
0.004153930559
0.004153369867
0.00415256761
0.004151589994
0.004150520693
0.004149456049
0.004148504291
0.004147784295
0.004147424099
0.004150388075
0.004149820816
0.004149009489
0.004148021322
0.004146941104
0.004145866246
0.004144905922
0.004144179814
0.004143816658
0.004146811415
0.004146239334
0.004145421404
0.004144425664
0.004143337759
0.004142255882
0.004141289842
0.004140559793
0.004140194822
0.004143211033
0.004142635804
0.004141813643
0.004140813191
0.004139720705
0.00413863488
0.004137665861
0.004136933954
0.00413656826
0.004139596995
0.004139020228
0.004138196118
0.004137193711
0.004136099635
0.004135012819
0.004134043455
0.004133311693
0.004132946319
0.004135979009
0.004135402254
0.004134578396
0.004133576691
0.004132483908
0.004131398954
0.004130431784
0.004129702092
0.004129338036
0.004132366449
0.004131791202
0.004130969717
0.004129971278
0.00412888257
0.004127802227
0.004126839697
0.004126113929
0.004125752146
0.004128768367
0.004128196071
0.004127379005
0.004126386305
0.004125304355
0.004124231274
0.00412327574
0.004122555679
0.004122197082
0.004125193504
0.004124625548
0.004123814875
0.004122830298
0.004121757692
0.004120694425
0.004119748156
0.004119035512
0.004118680975
0.00412165029
0.004121088012
0.004120285632
0.004119311473
0.004118250697
0.004117199701
0.004116264873
0.004115561291
0.004115211645
0.004118146845
0.00411759153
0.004116799268
0.004115837732
0.004114791176
0.004113754805
0.004112833507
0.004112140555
0.004111796594
0.00411469097
0.004114143851
0.004113363456
0.004112416654
0.004111386605
0.004110367114
0.004109461341
0.004108780519
0.004108442994
0.00411129014
0.004110752394
0.004109985538
0.00410905549
0.00410804413
0.004107043668
0.00410615532
0.004105488052
0.004105157674
0.004107951495
0.004107424243
0.004106672518
0.004105761143
0.00410477055
0.004103791156
0.004102922036
0.004102269671
0.004101947109
0.004104681826
0.004104166131
0.004103431046
0.004102540163
0.004101572301
0.004100615907
0.004099767715
0.004099131522
0.004098817404
0.004101487562
0.004100984428
0.004100267407
0.00409939873
0.004098455449
0.004097523869
0.004096698202
0.00409607937
0.00409577428
0.004098374761
0.004097885129
0.004097187505
0.004096342643
0.004095425675
0.004094520603
0.004093718951
0.004093118586
0.004092823063
0.004095349091
0.004094873838
0.004094196857
0.004093377304
0.004092488258
0.004091611268
0.00409083501
0.004090254134
0.004089968672
0.004092415823
0.004091955761
0.004091300572
0.00409050771
0.00408964807
0.00408880061
0.00408805101
0.004087490557
0.004087215607
0.004089579816
0.00408913569
0.004088503347
0.004087738441
0.004086909562
0.00408609295
0.004085371159
0.004084831975
0.004084567939
0.00408684551
0.004086417996
0.004085809454
0.004085073647
0.004084276754
0.004083492179
0.004082799229
0.004082282069
0.004082029304
0.004084216914
0.004083806616
0.004083222731
0.004082517048
0.004081753231
0.004081001747
0.004080338551
0.004079844081
0.004079602897
0.004081697599
0.004081305053
0.00408074658
0.004080071919
0.004079342135
0.004078624664
0.004077992014
0.004077520806
0.004077291466
0.004079290696
0.004078916365
0.004078383957
0.004077741093
0.004077046163
0.004076363488
0.004075762057
0.004075314593
0.004075097313
0.004076998889
0.004076643164
0.00407613737
0.004075526956
0.004074867563
0.004074220336
0.004073650673
0.004073227342
0.004073022292
0.004074824414
0.004074487616
0.004074008884
0.004073431444
0.004072808137
0.004072196873
0.004071659409
0.004071260511
0.004071067815
0.004072769065
0.00407245144
0.004072000116
0.004071456053
0.004070869246
0.004070294326
0.004069789371
0.004069415114
0.00406923485
0.004070834187
0.004070535914
0.004070112241
0.004069601836
0.004069051808
0.004068513481
0.00406804123
0.004067691733
0.004067523935
0.004069020691
0.004068741877
0.004068346001
0.004067869412
0.004067356312
0.004066854697
0.004066415227
0.004066090524
0.004065935183
0.004067329056
0.004067069739
0.004066701707
0.004066258975
0.004065782824
0.004065317914
0.00406491119
0.004064611228
0.004064468293
0.004065759336
0.004065519489
0.004065179254
0.004064770305
0.004064330998
0.004063902661
0.004063528539
0.004063253186
0.004063122564
0.004064311177
0.004064090708
0.004063778129
0.004063402777
0.00406300009
0.004062608075
0.004062266304
0.004062015347
0.004061896908
0.004062983827
0.004062782579
0.004062497429
0.004062155381
0.00406178897
0.004061432912
0.004061123142
0.004060896292
0.004060789868
0.004061776147
0.004061593907
0.004061335871
0.00406102673
0.004060696142
0.004060375566
0.004060097349
0.004059894245
0.004059799633
0.004060686636
0.004060523131
0.004060291813
0.004060015086
0.00405971976
0.004059434087
0.004059186883
0.004059007096
0.00405892406
0.00405971344
0.004059568343
0.004059363271
0.004059118369
0.004058857647
0.0040586062
0.004058389382
0.00405823242
0.004058160692
0.004058854374
0.004058727309
0.004058547938
0.004058334187
0.004058107314
0.004057889323
0.004057702185
0.004057567495
0.004057506779
0.004058106947
0.004057997487
0.004057843205
0.00405765985
0.004057465984
0.004057280594
0.004057122355
0.004057009329
0.004056959304
0.004057468373
0.004057376051
0.004057246182
0.004057092392
0.004056930612
0.004056776891
0.004056646701
0.004056554681
0.004056515
0.004056935605
0.00405685991
0.004056753724
0.004056628598
0.00405649791
0.004056374852
0.004056271799
0.004056200082
0.004056170377
0.004056505348
0.004056445735
0.004056362446
0.004056265024
0.004056164365
0.004056070904
0.004055994019
0.004055941862
0.004055921748
0.004056174087
0.004056129977
0.004056068756
0.004055998021
0.004055926271
0.00405586128
0.004055809549
0.004055776172
0.004055765247
0.004055938111
0.004055908894
0.00405586887
0.004055823757
0.004055779745
0.004055742049
0.004055714415
0.004055699009
0.004055696857
0.004055793532
0.004055778577
0.004055758843
0.004055738244
0.004055720753
0.004055709138
0.004055704505
0.004055706237
0.004055712431
0.004055736314
0.004055734966
0.004055734586
0.004055737358
0.004055745136
0.00405575835
0.004055775597
0.004055793612
0.004055807719
0.004055762292
0.004055773879
0.004055791891
0.004055816864
0.004055848629
0.004055885393
0.004055923374
0.004055956803
0.004055978381
0.004055867198
0.004055891032
0.004055926456
0.004055972434
0.00405602688
0.004056085894
0.004056143448
0.004056191411
0.004056220015
0.004056046675
0.004056082059
0.004056133899
0.004056199671
0.004056275475
0.004056355425
0.004056431377
0.004056492986
0.00405652817
0.004056296303
0.004056342532
0.004056409781
0.004056494124
0.00405658995
0.00405668951
0.00405678268
0.004056857043
0.004056898361
0.004056611612
0.004056667976
0.004056749619
0.004056851301
0.004056965808
0.004057083647
0.004057192849
0.004057279074
0.004057326081
0.004056988099
0.004057053883
0.004057148901
0.004057266685
0.004057398526
0.004057533311
0.004057657359
0.004057754554
0.004057806803
0.004057421233
0.004057495721
0.004057603094
0.00405773574
0.004057883566
0.004058033961
0.004058171669
0.004058278941
0.00405833599
0.004057906469
0.004057988942
0.004058107645
0.004058253912
0.004058416373
0.00405858104
0.00405873122
0.004058847677
0.004058909082
0.004058439242
0.00405852898
0.004058657988
0.004058816631
0.00405899237
0.00405916997
0.004059331431
0.004059456178
0.004059521496
0.004059014968
0.00405911125
0.004059249531
0.004059419299
0.004059606956
0.004059796139
0.004059967684
0.00406009982
0.004060168602
0.004059629038
0.004059731134
0.004059877651
0.004060057282
0.004060255485
0.00406045489
0.004060635308
0.004060773922
0.004060845713
0.004060276797
0.004060383972
0.004060537674
0.004060725894
0.004060933249
0.004061141497
0.004061329557
0.004061473721
0.004061548058
0.004060953534
0.004061065042
0.004061224861
0.004061420372
0.004061635464
0.004061851147
0.004062045592
0.004062194357
0.004062270763
0.004061654459
0.004061769536
0.004061934385
0.004062135859
0.004062357239
0.004062578913
0.004062778454
0.004062930842
0.004063008823
0.00406237468
0.004062492545