/*--------------------------------*- C++ -*----------------------------------*\
| =========                 |                                                 |
| \\      /  F ield         | OpenFOAM: The Open Source CFD Toolbox           |
|  \\    /   O peration     | Version:  2212                                  |
|   \\  /    A nd           | Website:  www.openfoam.com                      |
|    \\/     M anipulation  |                                                 |
\*---------------------------------------------------------------------------*/
FoamFile
{
    version     2.0;
    format      ascii;
    arch        "LSB;label=32;scalar=64";
    class       volScalarField;
    location    "2.75000000";
    object      H2_0;
}
// * * * * * * * * * * * * * * * * * * * * * * * * * * * * * * * * * * * * * //

dimensions      [0 0 0 0 0 0 0];

internalField   nonuniform List<scalar> 
3000
(
1.305797683e-22
1.506588297e-22
1.811869711e-22
2.222488963e-22
2.736116917e-22
3.339727508e-22
3.99699989e-22
4.627893734e-22
5.079508553e-22
5.052961186e-22
5.862624217e-22
7.094700495e-22
8.758065179e-22
1.085948382e-21
1.339035036e-21
1.630218355e-21
1.943754344e-21
2.220862052e-21
1.192847287e-21
1.398123793e-21
1.714029599e-21
2.148538569e-21
2.712552286e-21
3.416330972e-21
4.257673768e-21
5.188641171e-21
5.989108968e-21
2.443230074e-21
2.901479833e-21
3.6188056e-21
4.629513102e-21
5.980067186e-21
7.714658745e-21
9.831395358e-21
1.216519123e-20
1.40759361e-20
4.748195206e-21
5.723405371e-21
7.278228262e-21
9.51922745e-21
1.258384709e-20
1.659134178e-20
2.150417263e-20
2.681529979e-20
3.097434152e-20
9.064474875e-21
1.10911133e-20
1.437679405e-20
1.920108001e-20
2.590635466e-20
3.475372621e-20
4.556197242e-20
5.701215656e-20
6.569128196e-20
1.726806758e-20
2.142303536e-20
2.825126078e-20
3.841431298e-20
5.268277065e-20
7.156457484e-20
9.447614076e-20
1.183380987e-19
1.360145472e-19
3.302316552e-20
4.14559871e-20
5.545731016e-20
7.649294615e-20
1.0619582e-19
1.454957719e-19
1.928499892e-19
2.415270674e-19
2.77023567e-19
6.34858944e-20
8.045881272e-20
1.088466144e-19
1.517561482e-19
2.125191063e-19
2.927833954e-19
3.888968274e-19
4.867434526e-19
5.573351192e-19
1.225897422e-19
1.5649468e-19
2.134860638e-19
2.999515398e-19
4.225289308e-19
5.840976988e-19
7.765715498e-19
9.711199368e-19
1.11042038e-18
2.3738875e-19
3.046496526e-19
4.1807816e-19
5.905267463e-19
8.350138973e-19
1.15654766e-18
1.537978926e-18
1.921479113e-18
2.194590421e-18
4.602210981e-19
5.927978441e-19
8.168236816e-19
1.157756557e-18
1.640854201e-18
2.274824451e-18
3.024326404e-18
3.774857149e-18
4.307230587e-18
8.919305159e-19
1.151679777e-18
1.591099324e-18
2.260026048e-18
3.207071895e-18
4.447372728e-18
5.909482184e-18
7.368898705e-18
8.40131527e-18
1.72591156e-18
2.231893455e-18
3.088347612e-18
4.391960794e-18
6.235719517e-18
8.645814508e-18
1.147932043e-17
1.429910065e-17
1.629270429e-17
3.331127216e-18
4.311151795e-18
5.970295871e-18
8.494763765e-18
1.206156273e-17
1.67157644e-17
2.217306638e-17
2.75852653e-17
3.142030704e-17
6.407685333e-18
8.294845224e-18
1.148931832e-17
1.634712015e-17
2.320398982e-17
3.214152065e-17
4.261723693e-17
5.301080165e-17
6.028206085e-17
1.227726794e-17
1.588977497e-17
2.200210582e-17
3.128892042e-17
4.438016557e-17
6.141386729e-17
8.133354298e-17
1.010423788e-16
1.148408042e-16
2.342376669e-17
3.029964775e-17
4.192618055e-17
5.957296241e-17
8.441502284e-17
1.166858468e-16
1.543570533e-16
1.915634286e-16
2.175808346e-16
4.449451476e-17
5.751138897e-17
7.950571233e-17
1.128531527e-16
1.597355415e-16
2.205472258e-16
2.914264683e-16
3.613263183e-16
4.101337029e-16
8.414534874e-17
1.086619854e-16
1.500546678e-16
2.127456769e-16
3.007678986e-16
4.14782062e-16
5.474815363e-16
6.781651314e-16
7.692865745e-16
1.584253839e-16
2.043744767e-16
2.818887657e-16
3.99158797e-16
5.636038418e-16
7.763171021e-16
1.023550808e-15
1.266704839e-15
1.43602428e-15
2.969599382e-16
3.826680801e-16
5.271308824e-16
7.454434425e-16
1.051190117e-15
1.4461502e-15
1.904591822e-15
2.354888622e-15
2.668061815e-15
5.54198299e-16
7.133297404e-16
9.813138648e-16
1.385837587e-15
1.951656493e-15
2.681607256e-15
3.527766623e-15
4.357851274e-15
4.93448312e-15
1.029792728e-15
1.323920522e-15
1.818801478e-15
2.564982127e-15
3.607368332e-15
4.950364583e-15
6.505146773e-15
8.028548222e-15
9.085575301e-15
1.905377127e-15
2.446653563e-15
3.356543203e-15
4.726905393e-15
6.638823962e-15
9.098898322e-15
1.194328109e-14
1.472693505e-14
1.66562481e-14
3.510680281e-15
4.502559316e-15
6.168372345e-15
8.674305969e-15
1.216608152e-14
1.665303633e-14
2.183426103e-14
2.689880063e-14
3.040504359e-14
6.441931135e-15
8.252048332e-15
1.128918049e-14
1.585263541e-14
2.220303762e-14
3.03522798e-14
3.974994327e-14
4.892453111e-14
5.526873282e-14
1.177313212e-14
1.506327493e-14
2.05783214e-14
2.885487384e-14
4.035667758e-14
5.509560129e-14
7.206860822e-14
8.861681861e-14
1.000456027e-13
2.143150114e-14
2.738848795e-14
3.736368601e-14
5.231459115e-14
7.306178733e-14
9.96079029e-14
1.30131408e-13
1.598479236e-13
1.803432713e-13
3.886195431e-14
4.960614585e-14
6.757851165e-14
9.447910715e-14
1.317509735e-13
1.793614217e-13
2.340128329e-13
2.871323833e-13
3.237123485e-13
7.019802721e-14
8.950304414e-14
1.21758657e-13
1.699671739e-13
2.366482928e-13
3.21667412e-13
4.190714761e-13
5.135656452e-13
5.78521019e-13
1.263154817e-13
1.608701363e-13
2.185335631e-13
3.045763422e-13
4.233615429e-13
5.744919878e-13
7.472484961e-13
9.144668723e-13
1.029167517e-12
2.264155364e-13
2.880244907e-13
3.906929505e-13
5.436110849e-13
7.542587243e-13
1.021603006e-12
1.326389718e-12
1.620608732e-12
1.821903221e-12
4.042419361e-13
5.136395158e-13
6.956612419e-13
9.662069279e-13
1.33794463e-12
1.808364546e-12
2.342966742e-12
2.857351765e-12
3.208177988e-12
7.188015569e-13
9.122137306e-13
1.233449728e-12
1.709766699e-12
2.362301181e-12
3.185218252e-12
4.116869941e-12
5.009778283e-12
5.616479903e-12
1.272726737e-12
1.613067766e-12
2.17717184e-12
3.01126265e-12
4.149957619e-12
5.580136613e-12
7.192007796e-12
8.729639965e-12
9.769736631e-12
2.243496832e-12
2.83929136e-12
3.824437822e-12
5.276322626e-12
7.250336941e-12
9.717803894e-12
1.248402794e-11
1.510837793e-11
1.687426875e-11
3.936104904e-12
4.973116348e-12
6.683039021e-12
9.193466228e-12
1.259044034e-11
1.681290812e-11
2.151755174e-11
2.595264144e-11
2.891904511e-11
6.871142927e-12
8.664586053e-12
1.161222102e-11
1.592063663e-11
2.171842493e-11
2.887891532e-11
3.68011228e-11
4.421588423e-11
4.914187195e-11
1.193077636e-11
1.501031514e-11
2.005283583e-11
2.738569841e-11
3.7191288e-11
4.921357657e-11
6.241018398e-11
7.466338691e-11
8.274383777e-11
2.059827837e-11
2.584427275e-11
3.439754263e-11
4.676370454e-11
6.318250636e-11
8.315015389e-11
1.048788763e-10
1.248806318e-10
1.379671344e-10
3.534695482e-11
4.420520272e-11
5.857838157e-11
7.922390432e-11
1.064197708e-10
1.392015442e-10
1.745431095e-10
2.067794016e-10
2.276975101e-10
6.026451816e-11
7.507864285e-11
9.898661181e-11
1.330818361e-10
1.776102963e-10
2.307766978e-10
2.875341482e-10
3.388166187e-10
3.718156411e-10
1.020433837e-10
1.265596108e-10
1.658927638e-10
2.215506049e-10
2.935760697e-10
3.787199834e-10
4.686994886e-10
5.492238755e-10
6.006079804e-10
1.715312398e-10
2.116501182e-10
2.756087023e-10
3.653661945e-10
4.804100385e-10
6.150214616e-10
7.558338618e-10
8.806591641e-10
9.596657833e-10
2.86126134e-10
3.510003642e-10
4.537350385e-10
5.966719809e-10
7.780852115e-10
9.881790274e-10
1.205748303e-09
1.396847657e-09
1.516862521e-09
4.73424197e-10
5.770320487e-10
7.399755023e-10
9.646976965e-10
1.247113487e-09
1.57087488e-09
1.902903239e-09
2.191990155e-09
2.3722199e-09
7.766957606e-10
9.400572978e-10
1.195186742e-09
1.543971401e-09
1.978074854e-09
2.470875377e-09
2.971600373e-09
3.40400505e-09
3.671770969e-09
1.262989273e-09
1.517240763e-09
1.911582798e-09
2.446076823e-09
3.105139512e-09
3.846395889e-09
4.593090475e-09
5.233056754e-09
5.62693107e-09
2.034958051e-09
2.425563202e-09
3.027347783e-09
3.836334188e-09
4.825108808e-09
5.927616364e-09
7.029438325e-09
7.96734158e-09
8.541426432e-09
3.247893827e-09
3.840355112e-09
4.747352453e-09
5.957265847e-09
7.424032352e-09
9.046617954e-09
1.065662467e-08
1.201878948e-08
1.284854546e-08
5.133961866e-09
6.021508993e-09
7.372250791e-09
9.161337925e-09
1.131414593e-08
1.367876284e-08
1.601018546e-08
1.79722254e-08
1.916241349e-08
8.036302255e-09
9.350189349e-09
1.133899095e-08
1.395627765e-08
1.708473755e-08
2.049946662e-08
2.384769718e-08
2.665261886e-08
2.83481498e-08
1.245653552e-08
1.437980718e-08
1.727678068e-08
2.106730446e-08
2.557160254e-08
3.046137791e-08
3.523353383e-08
3.921625115e-08
4.161700217e-08
1.911923941e-08
2.190477742e-08
2.608232413e-08
3.152086051e-08
3.795078917e-08
4.489876666e-08
5.165321834e-08
5.727317867e-08
6.065357229e-08
2.906007381e-08
3.305460363e-08
3.902263676e-08
4.675828634e-08
5.586448062e-08
6.566604867e-08
7.516396287e-08
8.304738478e-08
8.778152068e-08
4.374526055e-08
4.942081597e-08
5.787275117e-08
6.878706347e-08
8.158767145e-08
9.53203666e-08
1.085915514e-07
1.195841939e-07
1.261762985e-07
6.523101222e-08
7.322587067e-08
8.509836987e-08
1.003806073e-07
1.182471185e-07
1.373597733e-07
1.557856068e-07
1.710188045e-07
1.801417866e-07
9.637449849e-08
1.075458836e-07
1.240955318e-07
1.453387598e-07
1.701047969e-07
1.965298948e-07
2.219486176e-07
2.429261931e-07
2.554753474e-07
1.411090244e-07
1.565998092e-07
1.794996938e-07
2.088210926e-07
2.42918234e-07
2.792136384e-07
3.140573632e-07
3.427722569e-07
3.599372763e-07
2.04795301e-07
2.261164901e-07
2.57575284e-07
2.977647316e-07
3.443925887e-07
3.939237881e-07
4.413973114e-07
4.804809709e-07
5.038355271e-07
2.94657454e-07
3.23788697e-07
3.666969514e-07
4.214028094e-07
4.847463589e-07
5.519202732e-07
6.162252432e-07
6.691305301e-07
7.007408848e-07
4.203136209e-07
4.598278718e-07
5.179421081e-07
5.919075141e-07
6.774113093e-07
7.679640283e-07
8.545698166e-07
9.257910599e-07
9.683470474e-07
5.944246067e-07
6.476454081e-07
7.258191009e-07
8.251731764e-07
9.398716595e-07
1.061210674e-06
1.177176138e-06
1.27251111e-06
1.329481379e-06
8.334834783e-07
9.046752161e-07
1.009133794e-06
1.141733543e-06
1.294636404e-06
1.45624059e-06
1.610591059e-06
1.737446871e-06
1.813259493e-06
1.158734555e-06
1.253320516e-06
1.391975326e-06
1.567795447e-06
1.770329007e-06
1.984207455e-06
2.188365969e-06
2.356108274e-06
2.456356295e-06
1.59719053e-06
1.721994636e-06
1.904791927e-06
2.136360184e-06
2.402859379e-06
2.684061242e-06
2.952326906e-06
3.17266659e-06
3.304335134e-06
2.182709984e-06
2.346218206e-06
2.585515683e-06
2.888379807e-06
3.236613742e-06
3.603771015e-06
3.953826693e-06
4.24122922e-06
4.412935214e-06
2.957088432e-06
3.169716585e-06
3.480667225e-06
3.873868182e-06
4.325569115e-06
4.80143901e-06
5.254855179e-06
5.626944288e-06
5.849171408e-06
3.97108945e-06
4.245438009e-06
4.64635197e-06
5.152864806e-06
5.73421378e-06
6.346168801e-06
6.928851493e-06
7.40676267e-06
7.69206437e-06
5.285333181e-06
5.636402387e-06
6.149046773e-06
6.796136102e-06
7.538141503e-06
8.318536722e-06
9.061049636e-06
9.669675228e-06
1.003281208e-05
6.97095513e-06
7.41628747e-06
8.066074555e-06
8.885500066e-06
9.824192067e-06
1.08105259e-05
1.174820614e-05
1.251627043e-05
1.297425839e-05
9.109951818e-06
9.669665277e-06
1.048567486e-05
1.151367689e-05
1.26900359e-05
1.392481639e-05
1.509760184e-05
1.605751128e-05
1.662954092e-05
1.17951375e-05
1.249181384e-05
1.350659792e-05
1.478359844e-05
1.624314217e-05
1.777337724e-05
1.922527004e-05
2.041254651e-05
2.111941641e-05
1.512964285e-05
1.59880419e-05
1.723717215e-05
1.880714532e-05
2.059913508e-05
2.247543866e-05
2.425342065e-05
2.570557455e-05
2.656921756e-05
1.922588623e-05
2.02724692e-05
2.179380792e-05
2.370330186e-05
2.587958184e-05
2.815460694e-05
3.03070026e-05
3.206244269e-05
3.310518815e-05
2.420394108e-05
2.546620121e-05
2.729892412e-05
2.959574936e-05
3.220877601e-05
3.493527308e-05
3.75101444e-05
3.960672251e-05
4.085041842e-05
3.018930063e-05
3.16948777e-05
3.387793763e-05
3.660905457e-05
3.971000095e-05
4.293889243e-05
4.598206229e-05
4.845544549e-05
4.992048961e-05
3.730923563e-05
3.908460143e-05
4.165513028e-05
4.486495175e-05
4.85015824e-05
5.227968568e-05
5.583260479e-05
5.871455567e-05
6.041888593e-05
4.568847292e-05
4.775791459e-05
5.074963846e-05
5.447793889e-05
5.869227349e-05
6.305991756e-05
6.715747506e-05
7.04741186e-05
7.243220922e-05
5.544476187e-05
5.782912268e-05
6.127057078e-05
6.555030392e-05
7.037622136e-05
7.536484884e-05
8.003320882e-05
8.380334832e-05
8.602524693e-05
6.668360107e-05
6.939899695e-05
7.331169133e-05
7.816680957e-05
8.362768416e-05
8.925751652e-05
9.451203727e-05
9.874555243e-05
0.0001012359731
7.949265655e-05
8.254923105e-05
8.694594137e-05
9.238930835e-05
9.849576054e-05
0.0001047735811
0.0001106168312
0.0001153131345
0.0001180705725
9.39362165e-05
9.733700558e-05
0.0001022201656
0.0001082516681
0.0001149995213
0.0001219166219
0.000128336458
0.0001334828727
0.0001364985512
0.0001100500776
0.0001137900761
0.0001191504949
0.0001257555169
0.0001331241352
0.0001406545682
0.0001476222957
0.0001531921009
0.000156447933
0.0001278372576
0.0001319028088
0.000137718869
0.000144867412
0.000152818817
0.0001609184978
0.0001683877986
0.0001743387433
0.0001778055762
0.0001472648484
0.0001516334905
0.0001578710628
0.0001655178817
0.0001739972858
0.0001826050707
0.0001905135847
0.0001967895316
0.0002004373535
0.0001682621782
0.0001729030526
0.0001795162778
0.000187602248
0.0001965403414
0.0002055818879
0.000213856921
0.0002204094895
0.0002242134811
0.0001907203705
0.0001955952936
0.0002025283527
0.0002109830895
0.0002202995398
0.0002296943472
0.0002382765096
0.0002450614803
0.0002489963063
0.0002144935584
0.0002195590432
0.000226749457
0.0002354963635
0.0002451149365
0.0002547977326
0.0002636287003
0.0002706008027
0.0002746404168
0.0002394026901
0.0002446133378
0.000252001627
0.000260978521
0.000270834605
0.0002807409204
0.0002897623037
0.0002968757653
0.0003009937897
0.0002652678328
0.0002705885401
0.0002781258441
0.0002872730235
0.0002973020113
0.0003073673811
0.0003165208628
0.0003237300316
0.0003279002156
0.0002919263259
0.0002973225584
0.0003049602212
0.0003142187441
0.0003243565395
0.0003345172203
0.0003437454191
0.0003510055813
0.0003552023054
0.0003192119503
0.0003246496239
0.0003323396713
0.0003416517981
0.0003518358702
0.0003620300244
0.0003712776052
0.0003785458665
0.0003827446453
0.0003469560066
0.0003524020669
0.00036009815
0.0003694084256
0.0003795790695
0.000389748021
0.0003989627917
0.0004061988999
0.0004103768366
0.0003749903383
0.000380413481
0.0003880718831
0.0003973282848
0.0004074298226
0.0004175191848
0.0004266530462
0.0004338200828
0.0004379562428
0.0004031509179
0.000408522244
0.0004161027639
0.0004252576929
0.0004352394693
0.0004452000495
0.0004542097334
0.0004612746367
0.0004653503259
0.0004312813268
0.0004365748581
0.0004440414908
0.0004530525219
0.0004628696341
0.0004726580733
0.0004815056453
0.0004884395552
0.0004924384975
0.0004592357939
0.0004644288255
0.0004717502179
0.0004805805838
0.0004901943317
0.0004997734754
0.0005084266047
0.0005152050291
0.0005191134449
0.0004868816273
0.0004919549191
0.0004991046041
0.0005077234241
0.0005171014946
0.0005264405104
0.000534872523
0.0005414753509
0.0005452819545
0.0005141009717
0.0005190387926
0.0005259952226
0.0005343774993
0.0005434939118
0.0005525681902
0.0005607579441
0.0005671693236
0.0005708652458
0.0005407918802
0.0005455819248
0.0005523283349
0.000560454761
0.0005692896236
0.0005780804999
0.0005860121071
0.0005922202143
0.000595798865
0.0005668687514
0.0005715019593
0.0005780260983
0.0005858827108
0.0005944218203
0.0006029161561
0.0006105785906
0.0006165753166
0.0006200322047
0.0005922622056
0.0005967325039
0.0006030262634
0.0006106039858
0.0006188383181
0.000627027985
0.0006344146128
0.0006401951956
0.000643527719
0.0006169184808
0.0006212224755
0.000627281453
0.0006345755653
0.0006425006972
0.0006503820017
0.0006574900643
0.0006630526891
0.0006662599084
0.0006407984524
0.0006449350924
0.0006507581184
0.0006577676905
0.0006653831883
0.0006729562705
0.0006797863504
0.000685131739
0.0006882141455
0.0006638763802
0.000667846612
0.000673435268
0.0006801625858
0.0006874713908
0.000694739624
0.0007012951156
0.0007064261214
0.0007093854087
0.0006861384793
0.000689944908
0.0006953030548
0.0007017530616
0.0007087608962
0.0007157303108
0.0007220169128
0.0007269381342
0.0007297769806
0.0007075813996
0.000711227968
0.000716361301
0.0007225410727
0.0007292558839
0.0007359346288
0.0007419598733
0.0007466772944
0.0007493991606
0.0007282106891
0.0007317023826
0.0007366180232
0.0007425362886
0.0007489677408
0.0007553655944
0.000761138419
0.0007656590852
0.000768268031
0.0007480392973
0.0007513818801
0.0007560880111
0.0007617547234
0.0007679137473
0.0007740416835
0.0007795720524
0.0007839037815
0.0007864043037
0.0007670861643
0.0007702859482
0.0007747914956
0.0007802174595
0.0007861158594
0.00079198567
0.0007972842447
0.0008014353777
0.0008038322686
0.0007853749247
0.0007884385719
0.0007927529325
0.000797949486
0.0008035996053
0.000809223579
0.0008143014389
0.0008182806265
0.0008205788541
0.0008029327455
0.0008058671031
0.0008099999172
0.0008149786657
0.0008203931078
0.0008257837629
0.0008306521719
0.000834468198
0.0008366728053
0.000819789306
0.000822601271
0.0008265622364
0.0008313348353
0.000836526236
0.0008416961016
0.000846366318
0.0008500279545
0.000852143978
0.000835975921
0.0008386723318
0.0008424710549
0.0008470490364
0.0008520298819
0.000856991324
0.0008614744488
0.0008649903407
0.0008670227445
0.0008515248011
0.0008541123532
0.0008577582333
0.0008621528712
0.0008669353567
0.000871700443
0.0008760073022
0.0008793858775
0.0008813395029
0.0008664684418
0.0008689536243
0.0008724557661
0.0008766779739
0.0008812738973
0.0008858542952
0.0008899953513
0.0008932447534
0.0008951242798
0.0008808391297
0.0008832281786
0.0008865953286
0.000890655586
0.0008950762711
0.0008994831732
0.0009034684597
0.0009065965
0.0009084064186
0.0008946685514
0.0008969674185
0.0009002079213
0.0009041162219
0.0009083724623
0.0009126165384
0.0009164556207
0.0009194697452
0.0009212143387
0.0009079874902
0.0009102018208
0.0009133235906
0.0009170894121
0.0009211914454
0.0009252828116
0.0009289847575
0.0009318920257
0.0009335753568
0.0009208256016
0.0009229607256
0.0009259712338
0.000929603523
0.0009335610106
0.0009375092137
0.00094108258
0.0009438896549
0.0009455155608
0.0009332112572
0.0009352721858
0.0009381784566
0.0009416856234
0.0009455076468
0.0009493216598
0.0009527744901
0.0009554876363
0.0009570597272
0.0009451714382
0.0009471628661
0.0009499714794
0.0009533614017
0.0009570564675
0.0009607446957
0.000964084525
0.000966709613
0.0009682312747
0.0009567316723
0.0009586579841
0.000961375085
0.0009646551197
0.0009682311719
0.0009718014652
0.000975035332
0.0009775778469
0.0009790522454
0.0009679160052
0.000969781285
0.0009724125972
0.0009755895965
0.0009790540345
0.0009825137051
0.0009856481666
0.0009881132204
0.0009895433092
0.0009787469995
0.0009805550425
0.0009831058847
0.000986186216
0.0009895459158
0.0009929017596
0.000995942911
0.000998335257
0.000999723785
0.0009892457541
0.0009910000802
0.0009934753846
0.0009964649525
0.0009997262907
0.00100298461
0.001005938106
0.001008262155
0.001009611676
0.0009994319403
0.001001135808
0.001003540139
0.001006444409
0.001009613288
0.001012779918
0.001015650992
0.00101791083
0.001019223712
0.001009323848
0.001010980268
0.001013317845
0.001016141867
0.00101922374
0.001022304072
0.001025097563
0.001027296968
0.001028575403
0.001018938443
0.001020550192
0.001022824908
0.001025573339
0.001028573238
0.001031572246
0.00103429262
0.001036435079
0.001037681095
0.001028291423
0.001029861062
0.0010320765
0.001034753633
0.001037676192
0.001040598458
0.001043249828
0.001045338557
0.001046554024
0.001037397287
0.001038927169
0.001041086627
0.001043696408
0.00104654589
0.001049395629
0.00105198178
0.001054019738
0.001055206382
0.001046269394
0.001047761683
0.00104986819
0.001052414243
0.001055194563
0.001057975646
0.001060500055
0.001062489961
0.001063649371
0.001054920035
0.001056376714
0.001058433048
0.001060918699
0.001063633445
0.001066349423
0.001068815278
0.00107075963
0.001071893267
0.001063360492
0.00106478338
0.001066792086
0.001069220377
0.001071872838
0.001074526961
0.001076937184
0.001078838269
0.001079947474
0.001071601106
0.001072991865
0.00107495527
0.001077328985
0.001079922166
0.001082517407
0.001084874669
0.001086734581
0.001087820587
0.001079651333
0.001081011483
0.001082931711
0.001085253393
0.001087790037
0.001090329109
0.001092635849
0.001094456503
0.001095520437
0.001087519809
0.001088850735
0.001090729724
0.001093001688
0.001095484297
0.001097969674
0.001100228116
0.001102011257
0.001103054153
0.001095214403
0.001096517367
0.00109835688
0.001100581234
0.001103012083
0.001105446016
0.001107658185
0.001109405405
0.001110428207
0.001102742271
0.00110401842
0.001105820061
0.00110799872
0.001110379877
0.001112764409
0.001114932146
0.001116644891
0.001117648462
0.001110109912
0.001111360286
0.001113125509
0.001115260211
0.001117593549
0.001119930536
0.001122055508
0.001123735095
0.001124720219
0.001117323211
0.001118548755
0.001120278875
0.001122371191
0.001124658408
0.001126949528
0.001129033248
0.001130680867
0.001131648262
0.001124387491
0.001125589056
0.001127285265
0.001129336617
0.001131579244
0.001133826013
0.001135869847
0.001137486579
0.001138436896
0.001131307553
0.00113248591
0.00113414928
0.001136160949
0.001138360369
0.001140564155
0.001142569336
0.001144156157
0.001145089989
0.00113808772
0.001139243562
0.001140875061
0.0011428482
0.001145005657
0.001147167692
0.001149135331
0.00115069312
0.001151611005
0.001144731876
0.001145865828
0.001147466325
0.001149401969
0.001151518581
0.00115363997
0.001155571066
0.001157100619
0.001158003043
0.001151243503
0.001152356126
0.0011539264
0.001155825478
0.001157902247
0.001159983983
0.001161879434
0.001163381463
0.001164268869
0.001157625718
0.001158717512
0.001160258262
0.001162121607
0.001164159429
0.001166202401
0.001168063009
0.001169538158
0.001170410947
0.001163881303
0.001164952718
0.001166464567
0.001168292922
0.001170292599
0.001172297601
0.001174124088
0.001175572932
0.001176431466
0.001170012738
0.001171064176
0.001172547681
0.001174341709
0.001176303957
0.001178271699
0.001180064709
0.001181487766
0.001182332373
0.001176022231
0.001177054051
0.00117850971
0.001180270002
0.001182195458
0.001184126575
0.001185886682
0.001187284416
0.001188115395
0.001181911748
0.001182924268
0.001184352524
0.001186079607
0.001187968841
0.001189863896
0.001191591617
0.001192964445
0.001193782063
0.001187683032
0.001188676539
0.001190077787
0.00119177213
0.001193625649
0.001195485148
0.001197180942
0.001198529238
0.001199333741
0.001193337637
0.001194312385
0.001195686976
0.001197348999
0.001199167256
0.001200991649
0.00120265593
0.00120398003
0.001204771641
0.001198876944
0.00119983316
0.001201181411
0.001202811487
0.001204594886
0.001206384579
0.001208017717
0.001209317926
0.001210096847
0.001204302185
0.001205240074
0.001206562266
0.001208160732
0.001209909638
0.001211664994
0.001213267324
0.001214543917
0.001215310334
0.001209614465
0.001210534211
0.001211830598
0.001213397757
0.001215112497
0.001216833845
0.001218405671
0.0012196589
0.001220412983
0.001214814779
0.001215716549
0.001216987362
0.001218523487
0.001220204361
0.001221892001
0.001223433599
0.001224663694
0.0012254056
0.001219904029
0.001220787975
0.001222033425
0.001223538768
0.001225186048
0.001226840255
0.001228351882
0.001229559056
0.001230288933
0.001224883043
0.001225749307
0.001226969587
0.00122844438
0.00123005832
0.00123167935
0.001233161244
0.001234345695
0.001235063681
0.001229752589
0.0012306013
0.001231796593
0.001233241053
0.00123482189
0.001236409984
0.001237862369
0.001239024286
0.00123973051
0.001234513386
0.00123534467
0.001236515146
0.00123792948
0.00123947744
0.001241032826
0.001242455917
0.001243595479
0.001244290064
0.001239166123
0.001239980097
0.001241125922
0.001242510327
0.001244025627
0.001245548528
0.00124694253
0.001248059911
0.001248742976
0.001243711463
0.001244508244
0.001245629578
0.001246984247
0.0012484671
0.00124995773
0.001251322847
0.001252418216
0.001253089876
0.001248150061
0.001248929761
0.001250026762
0.001251351885
0.001252802502
0.001254261077
0.001255597509
0.001256671033
0.001257331401
0.001252482566
0.001253245298
0.001254318123
0.001255613893
0.001257032484
0.001258459218
0.001259767167
0.001260819013
0.001261468199
0.001256709634
0.001257455511
0.001258504321
0.001259770929
0.001261157707
0.001262552819
0.001263832487
0.001264862822
0.001265500936
0.001260831931
0.001261561069
0.001262586025
0.001263823668
0.001265178852
0.001266542562
0.001267794156
0.001268803151
0.001269430301
0.001264850141
0.001265562659
0.001266563926
0.001267772806
0.001269096617
0.001270429153
0.001271652884
0.00127264071
0.001273257005
0.001268764969
0.001269460986
0.001270438736
0.00127161906
0.001272911727
0.001274213321
0.001275409405
0.001276376238
0.001276981787
0.001272577139
0.00127325678
0.001274211187
0.001275363168
0.001276624928
0.00127789582
0.001279064477
0.001280010494
0.001280605404
0.001276287401
0.001276950792
0.001277882037
0.001279005894
0.001280236988
0.001281477421
0.001282618876
0.001283544257
0.001284128637
0.001279896522
0.001280543794
0.001281452061
0.001282548017
0.00128374869
0.001284958913
0.001286073394
0.001286978321
0.001287552277
0.001283405286
0.001284036571
0.001284922045
0.001285990328
0.001287160829
0.001288341093
0.001289428828
0.001290313481
0.001290877118
0.001286814484
0.001287429914
0.001288292784
0.001289333619
0.001290474198
0.001291624752
0.001292685967
0.001293550523
0.001294103942
0.001290124904
0.001290724609
0.001291565059
0.001292578671
0.001293689571
0.001294810659
0.001295845575
0.001296690204
0.001297233498
0.001293337312
0.00129392142
0.001294739628
0.001295726233
0.001296807689
0.001297899542
0.001298908366
0.001299733227
0.001300266482
0.001296452435
0.001297021065
0.0012978172
0.001298776998
0.001299829227
0.001300892058
0.001301874976
0.00130268021
0.0013032035
0.001299470935
0.001300024193
0.001300798404
0.001301731574
0.001302754765
0.001303788757
0.001304745928
0.001305531651
0.001306045031
0.001302393372
0.001302931347
0.001303683758
0.001304590443
0.001305584746
0.00130659004
0.001307521581
0.001308287872
0.001308791376
0.001305220163
0.001305742919
0.001306473616
0.001307353915
0.001308319427
0.001309296105
0.001310202076
0.00131094897
0.001311442601
0.001307951536
0.001308459102
0.001309168122
0.001310022071
0.001310958814
0.001311906885
0.001312787273
0.00131351474
0.001313998463
0.001310587467
0.001311079828
0.001311767143
0.001312594693
0.001313502599
0.001314421968
0.001315276665
0.001315984597
0.001316458328
0.001313127608
0.001313604692
0.00131427019
0.001315071191
0.001315950069
0.001316840516
0.001317669294
0.001318357484
0.001318821077
0.001315571209
0.001316032871
0.001316676337
0.001317450505
0.001318300016
0.001319161166
0.001319963646
0.001320631762
0.001321084996
0.001317917026
0.001318363032
0.001318984121
0.001319731012
0.001320550631
0.001321381915
0.001322157535
0.001322805096
0.001323247659
0.001320163217
0.001320593225
0.001321191435
0.001321910409
0.001322699391
0.001323500008
0.001324247986
0.001324874329
0.001325305801
0.001322307231
0.001322720771
0.001323295413
0.001323985598
0.001324742932
0.001325511807
0.001326231104
0.001326835354
0.001327255186
0.001324345695
0.001324742145
0.001325292314
0.001325952563
0.001326676932
0.001327412669
0.00132810194
0.001328682977
0.001329090473
0.001326274292
0.001326652855
0.00132717739
0.001327806246
0.001328495978
0.001329196813
0.001329854372
0.001330410794
0.001330805089
0.001328087642
0.001328447322
0.001328944781
0.00132954043
0.001330193453
0.001330857213
0.001331480985
0.001332011074
0.001332391118
0.001329779193
0.001330118774
0.001330587394
0.00133114763
0.001331761433
0.001332385487
0.001332972973
0.00133347467
0.001333839205
0.001331341124
0.001331659149
0.001332096821
0.001332619011
0.001333190604
0.001333771832
0.001334320074
0.00133479095
0.0013351385
0.001332764269
0.001333059023
0.001333463271
0.001333944328
0.001334470213
0.001335004978
0.001335510539
0.001335947777
0.00133627664
0.001334038074
0.001334307572
0.001334675536
0.001335111903
0.001335588064
0.001336072197
0.00133653115
0.00133693154
0.00133723978
0.001335150588
0.001335392576
0.001335721009
0.001336108657
0.001336530555
0.001336959358
0.001337367291
0.001337727241
0.001338012698
0.001336088509
0.001336300466
0.001336585745
0.001336920188
0.001337282782
0.001337651057
0.001338003101
0.001338318654
0.001338578958
0.001336837281
0.001337016436
0.001337254587
0.001337530916
0.001337828709
0.001338130801
0.001338421676
0.001338688558
0.001338921155
0.001337381252
0.001337524616
0.001337711358
0.001337924301
0.001338151403
0.001338381277
0.001338605369
0.001338819048
0.00133902124
0.001337703901
0.001337808308
0.001337939118
0.00133808312
0.001338233348
0.001338384692
0.001338536149
0.001338691921
0.001338860915
0.001337788133
0.001337850299
0.001337920495
0.001337989823
0.001338056823
0.001338123175
0.001338196037
0.001338289128
0.001338422102
0.001337616636
0.001337633228
0.001337638073
0.001337626948
0.001337604342
0.00133757925
0.001337567592
0.001337593279
0.001337687454
0.0013371723
0.001337140019
0.001337074839
0.001336977587
0.001336859143
0.001336736338
0.00133663444
0.001336588193
0.001336640914
0.001336438676
0.001336354353
0.001336214674
0.001336025887
0.001335805706
0.001335579298
0.001335381823
0.001335259443
0.001335268267
0.001335400475
0.001335261165
0.001335042852
0.001334757567
0.001334430278
0.00133409495
0.00133379713
0.001333594902
0.001333557685
0.001334044064
0.001333847152
0.001333546553
0.001333160427
0.001332721379
0.001332272587
0.001331870398
0.00133158523
0.001331500207
0.00133235796
0.001332101255
0.001331715342
0.001331224817
0.001330670261
0.001330104408
0.001329594736
0.001329224283
0.001329090142
0.001330333274
0.001330015101
0.00132954159
0.00132894404
0.001328271287
0.001327585883