/*--------------------------------*- C++ -*----------------------------------*\
| =========                 |                                                 |
| \\      /  F ield         | OpenFOAM: The Open Source CFD Toolbox           |
|  \\    /   O peration     | Version:  2212                                  |
|   \\  /    A nd           | Website:  www.openfoam.com                      |
|    \\/     M anipulation  |                                                 |
\*---------------------------------------------------------------------------*/
FoamFile
{
    version     2.0;
    format      ascii;
    arch        "LSB;label=32;scalar=64";
    class       volScalarField;
    location    "2.75000000";
    object      I-C4H3_0;
}
// * * * * * * * * * * * * * * * * * * * * * * * * * * * * * * * * * * * * * //

dimensions      [0 0 0 0 0 0 0];

internalField   nonuniform List<scalar> 
3000
(
2.72073254e-24
3.145655054e-24
3.792183815e-24
4.662592553e-24
5.752362878e-24
7.034117672e-24
8.430811334e-24
9.772352085e-24
1.073379365e-23
1.055637844e-23
1.227493545e-23
1.489229682e-23
1.842951771e-23
2.290288257e-23
2.829508918e-23
3.450258062e-23
4.118810854e-23
4.709735868e-23
2.503486844e-23
2.941287481e-23
3.615689333e-23
4.544390269e-23
5.751337468e-23
7.258971993e-23
9.062811753e-23
1.106001772e-22
1.277843367e-22
5.159781142e-23
6.143214939e-23
7.684398661e-23
9.858926494e-23
1.276879938e-22
1.651114104e-22
2.108338216e-22
2.612975841e-22
3.026641171e-22
1.010360982e-22
1.221183392e-22
1.557745668e-22
2.043607937e-22
2.709140884e-22
3.580835605e-22
4.651052108e-22
5.809650241e-22
6.718365199e-22
1.945328209e-22
2.386996192e-22
3.104080527e-22
4.158797294e-22
5.627457484e-22
7.568824183e-22
9.944550782e-22
1.246551135e-21
1.437985294e-21
3.740007389e-22
4.653274126e-22
6.156441737e-22
8.397920499e-22
1.155110383e-21
1.573201025e-21
2.081478174e-21
2.611794356e-21
3.005411451e-21
7.220629034e-22
9.090596677e-22
1.22003834e-21
1.688166989e-21
2.350554251e-21
3.228781039e-21
4.289108856e-21
5.381136066e-21
6.179090694e-21
1.401569635e-21
1.781328773e-21
2.417543773e-21
3.381147678e-21
4.748611246e-21
6.558829693e-21
8.730980125e-21
1.09466501e-20
1.254846571e-20
2.732509072e-21
3.497968179e-21
4.786813233e-21
6.746207298e-21
9.530011884e-21
1.320736995e-20
1.759737155e-20
2.204355132e-20
2.523374053e-20
5.341800006e-21
6.874002113e-21
9.462297929e-21
1.340547404e-20
1.900821202e-20
2.63928572e-20
3.517177485e-20
4.401601101e-20
5.032755556e-20
1.045301837e-20
1.350006549e-20
1.865768345e-20
2.652299371e-20
3.769267686e-20
5.238310185e-20
6.97875006e-20
8.725058823e-20
9.966314829e-20
2.044413608e-20
2.64665384e-20
3.667196033e-20
5.223957687e-20
7.432821892e-20
1.033202723e-19
1.375690267e-19
1.71822153e-19
1.961026884e-19
3.991405334e-20
5.174674226e-20
7.180911955e-20
1.024083905e-19
1.457806184e-19
2.025984536e-19
2.695365268e-19
3.362793332e-19
3.835621831e-19
7.770885327e-20
1.008207686e-19
1.400133279e-19
1.997666292e-19
2.843729588e-19
3.950092201e-19
5.250000491e-19
6.541624171e-19
7.458643804e-19
1.50748557e-19
1.956198764e-19
2.716994621e-19
3.876216786e-19
5.515935244e-19
7.657712964e-19
1.017313534e-18
1.267347053e-18
1.442601353e-18
2.912244013e-19
3.778087123e-19
5.245434507e-19
7.479185798e-19
1.063454059e-18
1.474861447e-18
1.956918728e-18
2.43474598e-18
2.769897033e-18
5.600921315e-19
7.261800572e-19
1.007461825e-18
1.435204022e-18
2.038576637e-18
2.823967726e-18
3.74255693e-18
4.651435375e-18
5.288130247e-18
1.072232666e-18
1.389045049e-18
1.925178362e-18
2.739567354e-18
3.886772746e-18
5.377769625e-18
7.118875238e-18
8.838918796e-18
1.004202755e-17
2.043124713e-18
2.644222401e-18
3.660607741e-18
5.202761673e-18
7.372241972e-18
1.018776363e-17
1.347071368e-17
1.670927652e-17
1.89712342e-17
3.875008642e-18
5.009625796e-18
6.926473393e-18
9.831562873e-18
1.391298475e-17
1.920229263e-17
2.536092491e-17
3.142789965e-17
3.565951336e-17
7.315232473e-18
9.446211945e-18
1.304311211e-17
1.848808237e-17
2.612772009e-17
3.601446811e-17
4.751009852e-17
5.881947551e-17
6.669733261e-17
1.374596427e-17
1.772879598e-17
2.444526559e-17
3.460066816e-17
4.883049837e-17
6.722040929e-17
8.857355567e-17
1.095532494e-16
1.241492422e-16
2.571195556e-17
3.312066292e-17
4.560263517e-17
6.445315675e-17
9.08317128e-17
1.248752374e-16
1.643506947e-16
2.030866405e-16
2.300030971e-16
4.787789769e-17
6.159572326e-17
8.468499891e-17
1.195130145e-16
1.681849513e-16
2.309138201e-16
3.035542796e-16
3.747448609e-16
4.241548557e-16
8.875765279e-17
1.140431671e-16
1.565612246e-16
2.206176219e-16
3.100154835e-16
4.250727957e-16
5.581301571e-16
6.883679916e-16
7.786532256e-16
1.638251372e-16
2.102287383e-16
2.881795725e-16
4.054719655e-16
5.689413082e-16
7.790310826e-16
1.021649282e-15
1.258816178e-15
1.423024146e-15
3.010883105e-16
3.858841512e-16
5.281820508e-16
7.420227113e-16
1.0396249e-15
1.421532818e-15
1.861923997e-15
2.291824131e-15
2.589085235e-15
5.510326427e-16
7.053384115e-16
9.640068709e-16
1.352204424e-15
1.89164515e-15
2.582803327e-15
3.378538064e-15
4.154143253e-15
4.689682205e-15
1.004282077e-15
1.283925153e-15
1.752175895e-15
2.453905477e-15
3.427452886e-15
4.672653233e-15
6.103739368e-15
7.496253015e-15
8.456211676e-15
1.822820918e-15
2.327543579e-15
3.171668893e-15
4.434749074e-15
6.183978111e-15
8.416983508e-15
1.097820567e-14
1.346550079e-14
1.517698421e-14
3.294912185e-15
4.202142785e-15
5.717470016e-15
7.981053107e-15
1.110964705e-14
1.509471941e-14
1.965493041e-14
2.407325799e-14
2.710677359e-14
5.931173645e-15
7.555072284e-15
1.026353349e-14
1.430176173e-14
1.987055714e-14
2.694578973e-14
3.50200212e-14
4.282138357e-14
4.816345116e-14
1.063166461e-14
1.352568752e-14
1.834476058e-14
2.551440021e-14
3.537569444e-14
4.786722943e-14
6.207628398e-14
7.575950932e-14
8.509939524e-14
1.89746035e-14
2.410833283e-14
3.264119875e-14
4.530468581e-14
6.266945816e-14
8.458852914e-14
1.094251789e-13
1.332474591e-13
1.494458895e-13
3.371178024e-14
4.2773184e-14
5.780244281e-14
8.004314063e-14
1.104323038e-13
1.486328838e-13
1.917204997e-13
2.32852814e-13
2.606946713e-13
5.961222832e-14
7.551925849e-14
1.018380733e-13
1.406553326e-13
1.934739995e-13
2.595471152e-13
3.336735155e-13
4.040435588e-13
4.514237552e-13
1.048873012e-13
1.326441576e-13
1.784385401e-13
2.457178265e-13
3.368221572e-13
4.501451432e-13
5.764908811e-13
6.956670251e-13
7.754220509e-13
1.835768354e-13
2.316890683e-13
3.10805577e-13
4.265181104e-13
5.823324685e-13
7.748906922e-13
9.880570039e-13
1.187673288e-12
1.320354046e-12
3.195072918e-13
4.022876106e-13
5.37897606e-13
7.352121536e-13
9.992169035e-13
1.323086095e-12
1.678774515e-12
2.009188114e-12
2.22717776e-12
5.527920283e-13
6.940592095e-13
9.244823299e-13
1.257788593e-12
1.700554085e-12
2.239289074e-12
2.825806051e-12
3.36592711e-12
3.71944884e-12
9.503927815e-13
1.189305245e-12
1.577100908e-12
2.134370009e-12
2.868779683e-12
3.754419015e-12
4.709594245e-12
5.581152071e-12
6.146898929e-12
1.623084839e-12
2.023174671e-12
2.669071429e-12
3.590535849e-12
4.794443849e-12
6.232435945e-12
7.768082688e-12
9.156020955e-12
1.004939152e-11
2.752379149e-12
3.41527713e-12
4.479105637e-12
5.984952847e-12
7.934290482e-12
1.023941614e-11
1.267617166e-11
1.48574403e-11
1.624970648e-11
4.632698062e-12
5.718580065e-12
7.450128156e-12
9.880801919e-12
1.299713067e-11
1.664450113e-11
2.046083218e-11
2.384462168e-11
2.598682109e-11
7.736559828e-12
9.494015973e-12
1.227766418e-11
1.615150637e-11
2.106928786e-11
2.676582786e-11
3.266626038e-11
3.784977832e-11
4.110575604e-11
1.281392661e-11
1.56227826e-11
2.004095619e-11
2.613538307e-11
3.37959102e-11
4.257951639e-11
5.158886717e-11
5.94341799e-11
6.432605742e-11
2.104149756e-11
2.54731512e-11
3.239512806e-11
4.185944632e-11
5.364061122e-11
6.701657073e-11
8.060927253e-11
9.234864708e-11
9.961914081e-11
3.424395827e-11
4.114512058e-11
5.184970256e-11
6.636021669e-11
8.425428804e-11
1.043817612e-10
1.24658475e-10
1.420382151e-10
1.527357638e-10
5.521755143e-11
6.582504086e-11
8.216823197e-11
1.0413972e-10
1.309953315e-10
1.609410162e-10
1.908688741e-10
2.163450679e-10
2.319397902e-10
8.81975533e-11
1.042941829e-10
1.289365879e-10
1.618088338e-10
2.016587765e-10
2.457406327e-10
2.894790123e-10
3.264832381e-10
3.49024442e-10
1.395264023e-10
1.636513025e-10
2.003647946e-10
2.489890092e-10
3.074925446e-10
3.717440827e-10
4.35085211e-10
4.883844815e-10
5.207143061e-10
2.185998263e-10
2.543312078e-10
3.084109206e-10
3.795688747e-10
4.64606432e-10
5.57401964e-10
6.483656367e-10
7.245492156e-10
7.705925888e-10
3.391963019e-10
3.915318401e-10
4.70348408e-10
5.734470706e-10
6.959161617e-10
8.288093963e-10
9.584443777e-10
1.066582517e-09
1.131741286e-09
5.213030036e-10
5.971635675e-10
7.109015416e-10
8.589109256e-10
1.033807778e-09
1.2226727e-09
1.406139741e-09
1.558670062e-09
1.650349324e-09
7.936470269e-10
9.025563248e-10
1.06521064e-09
1.27592391e-09
1.52378945e-09
1.790342342e-09
2.048365594e-09
2.26228426e-09
2.39060393e-09
1.197185646e-09
1.35217904e-09
1.582884451e-09
1.880600454e-09
2.229455694e-09
2.603296947e-09
2.964110784e-09
3.262567678e-09
3.441311733e-09
1.789860181e-09
2.008699444e-09
2.333509174e-09
2.751285735e-09
3.239226236e-09
3.760579478e-09
4.262540691e-09
4.676980309e-09
4.924870888e-09
2.653045146e-09
2.95984262e-09
3.414108837e-09
3.996782377e-09
4.675460238e-09
5.398854435e-09
6.093961441e-09
6.66701992e-09
7.009455768e-09
3.900244384e-09
4.327635498e-09
4.959197677e-09
5.767434774e-09
6.706740733e-09
7.7059755e-09
8.664636457e-09
9.454094694e-09
9.925539166e-09
5.688743255e-09
6.280794058e-09
7.154252843e-09
8.269992869e-09
9.564364114e-09
1.093922869e-08
1.225675391e-08
1.33409513e-08
1.398821611e-08
8.23511626e-09
9.05121299e-09
1.025365713e-08
1.178742384e-08
1.356435235e-08
1.544974184e-08
1.725520609e-08
1.874046916e-08
1.962724561e-08
1.183569165e-08
1.295572855e-08
1.460438953e-08
1.670510063e-08
1.913661212e-08
2.171490193e-08
2.418324393e-08
2.621409045e-08
2.742721294e-08
1.689323979e-08
1.842450586e-08
2.067695426e-08
2.354505333e-08
2.686315879e-08
3.038095301e-08
3.374944748e-08
3.652256319e-08
3.81806343e-08
2.395128988e-08
2.603756497e-08
2.910522496e-08
3.301015794e-08
3.752750979e-08
4.231814483e-08
4.69086582e-08
5.069187981e-08
5.295703298e-08
3.373757857e-08
3.657102993e-08
4.073689541e-08
4.604009264e-08
5.217725338e-08
5.869064591e-08
6.493930135e-08
7.009703249e-08
7.319073166e-08
4.721794686e-08
5.105441846e-08
5.669585783e-08
6.388038727e-08
7.220113632e-08
8.104258761e-08
8.953849952e-08
9.656503492e-08
1.007888553e-07
6.566133527e-08
7.083949089e-08
7.845683081e-08
8.816463352e-08
9.942040782e-08
1.113996e-07
1.2293397e-07
1.324959123e-07
1.382580919e-07
9.071518267e-08
9.767963541e-08
1.079306892e-07
1.210075597e-07
1.361911753e-07
1.523815008e-07
1.680072427e-07
1.8099523e-07
1.888432023e-07
1.244884011e-07
1.338162912e-07
1.475559423e-07
1.651029592e-07
1.855098989e-07
2.073160707e-07
2.284158097e-07
2.460036865e-07
2.566614855e-07
1.696360462e-07
1.820654705e-07
2.00387758e-07
2.23815551e-07
2.511081172e-07
2.803364476e-07
3.086928967e-07
3.323989538e-07
3.468060791e-07
2.294362269e-07
2.45893503e-07
2.701714294e-07
3.012505786e-07
3.375162254e-07
3.764371943e-07
4.142947913e-07
4.460351573e-07
4.653816612e-07
3.078464662e-07
3.294676351e-07
3.613834719e-07
4.022809786e-07
4.500718758e-07
5.014594968e-07
5.51560806e-07
5.936806731e-07
6.194275536e-07
4.09524764e-07
4.376653903e-07
4.792222653e-07
5.325114876e-07
5.948493343e-07
6.619790412e-07
7.275558969e-07
7.828153252e-07
8.166781606e-07
5.398010225e-07
5.760277851e-07
6.295327088e-07
6.981636951e-07
7.784944888e-07
8.650815381e-07
9.497790596e-07
1.021272611e-06
1.065174276e-06
7.045876208e-07
7.506459108e-07
8.186560243e-07
9.058765624e-07
1.007964166e-06
1.11802633e-06
1.225746273e-06
1.316765577e-06
1.372744423e-06
9.10224162e-07
9.67978284e-07
1.053206564e-06
1.162429444e-06
1.290175679e-06
1.427821862e-06
1.562505982e-06
1.676340905e-06
1.746422329e-06
1.163257876e-06
1.234603392e-06
1.339778724e-06
1.474387373e-06
1.631601301e-06
1.80077277e-06
1.966134336e-06
2.105836607e-06
2.191882611e-06
1.47015439e-06
1.556899635e-06
1.68459368e-06
1.847722744e-06
2.037856633e-06
2.242037171e-06
2.441274606e-06
2.609413487e-06
2.712969931e-06
1.836953523e-06
1.940693891e-06
2.093135269e-06
2.287433145e-06
2.513310479e-06
2.755241582e-06
2.990768739e-06
3.18920914e-06
3.311370022e-06
2.268908649e-06
2.390896199e-06
2.569784273e-06
2.797185784e-06
3.060751903e-06
3.342184086e-06
3.615406238e-06
3.845132524e-06
3.986435165e-06
2.770118863e-06
2.911143451e-06
3.117483299e-06
3.379015924e-06
3.681135538e-06
4.002637443e-06
4.313789404e-06
4.574785029e-06
4.735141008e-06
3.343189476e-06
3.50348366e-06
3.737458159e-06
4.033098226e-06
4.373412941e-06
4.73424463e-06
5.082289003e-06
5.373463618e-06
5.552117273e-06
3.98895229e-06
4.168128135e-06
4.429016139e-06
4.757601145e-06
5.134446109e-06
5.53248474e-06
5.915045307e-06
6.234173324e-06
6.429653378e-06
4.706270278e-06
4.903290882e-06
5.189432947e-06
5.54862708e-06
5.958995962e-06
6.390690154e-06
6.803975684e-06
7.147568524e-06
7.357509733e-06
5.491935826e-06
5.705119602e-06
6.01392763e-06
6.400235702e-06
6.839789666e-06
7.300140006e-06
7.738851339e-06
8.101926101e-06
8.322627958e-06
6.34064744e-06
6.56769895e-06
6.895702698e-06
7.304530793e-06
7.767670671e-06
8.250309004e-06
8.707707825e-06
9.083784667e-06
9.311629142e-06
7.245019147e-06
7.483075411e-06
7.825990482e-06
8.251737922e-06
8.731738052e-06
9.229168232e-06
9.69742069e-06
1.00812579e-05
1.031348921e-05
8.1955491e-06
8.441233378e-06
8.794037998e-06
9.230196937e-06
9.719297262e-06
1.022339924e-05
1.069679497e-05
1.108402203e-05
1.131798376e-05
9.180462645e-06
9.42997261e-06
9.787050588e-06
1.022644631e-05
1.071763519e-05
1.12227773e-05
1.16960991e-05
1.208248079e-05
1.231558262e-05
1.018533938e-05
1.043462152e-05
1.079082913e-05
1.122858915e-05
1.171686305e-05
1.221785131e-05
1.268618266e-05
1.306765949e-05
1.32974082e-05
1.119687267e-05
1.144352387e-05
1.179550242e-05
1.222733789e-05
1.270794146e-05
1.319984824e-05
1.365852538e-05
1.403124659e-05
1.425528201e-05
1.22058155e-05
1.244759327e-05
1.279212771e-05
1.321402105e-05
1.368244979e-05
1.416062623e-05
1.460527669e-05
1.496565364e-05
1.518178835e-05
1.320351712e-05
1.343828863e-05
1.377232308e-05
1.418050226e-05
1.463255029e-05
1.509269082e-05
1.551930073e-05
1.586406698e-05
1.607032494e-05
1.418174042e-05
1.440750939e-05
1.472820103e-05
1.511919192e-05
1.555102139e-05
1.598923649e-05
1.639421739e-05
1.672048228e-05
1.691513114e-05
1.513269119e-05
1.534763902e-05
1.565241573e-05
1.602310427e-05
1.643131044e-05
1.684418825e-05
1.72244297e-05
1.752971766e-05
1.771129086e-05
1.604911256e-05
1.625163357e-05
1.653824043e-05
1.68859225e-05
1.726758231e-05
1.765223104e-05
1.800513281e-05
1.828740218e-05
1.845470579e-05
1.692438339e-05
1.711310924e-05
1.737963957e-05
1.770205311e-05
1.805475377e-05
1.840882254e-05
1.873230495e-05
1.89899358e-05
1.914203488e-05
1.775259762e-05
1.792641076e-05
1.817132199e-05
1.846666085e-05
1.878851002e-05
1.911018819e-05
1.940270351e-05
1.963460428e-05
1.977092915e-05
1.852861467e-05
1.868665215e-05
1.8908769e-05
1.917567524e-05
1.946530348e-05
1.975339587e-05
2.001402566e-05
2.021957147e-05
2.03398129e-05
1.92480702e-05
1.938971817e-05
1.958824097e-05
1.982588698e-05
2.008253819e-05
2.0336429e-05
2.056475181e-05
2.074372706e-05
2.08478267e-05
1.990754504e-05
2.003249295e-05
2.020704266e-05
2.041505711e-05
2.063845577e-05
2.085802311e-05
2.105408364e-05
2.12066543e-05
2.129478517e-05
2.050462607e-05
2.0612794e-05
2.076331812e-05
2.094173661e-05
2.113205931e-05
2.131764211e-05
2.148191283e-05
2.160859044e-05
2.168113226e-05
2.103773944e-05
2.112926473e-05
2.125601888e-05
2.14052534e-05
2.156309092e-05
2.17154455e-05
2.184878087e-05
2.195038095e-05
2.20078925e-05
2.150614088e-05
2.158136012e-05
2.16848811e-05
2.180568313e-05
2.193199561e-05
2.205224558e-05
2.215583107e-05
2.223342814e-05
2.227661797e-05
2.190988611e-05
2.196931369e-05
2.205038738e-05
2.214380597e-05
2.223987323e-05
2.23294553e-05
2.240475349e-05
2.245963449e-05
2.248933133e-05
2.224978433e-05
2.229408843e-05
2.235371447e-05
2.242105113e-05
2.248842014e-05
2.254902786e-05
2.259772366e-05
2.263134156e-05
2.264846528e-05
2.252733686e-05
2.255731406e-05
2.259666882e-05
2.263943083e-05
2.267986229e-05
2.271338978e-05
2.273733652e-05
2.275126543e-05
2.275679951e-05
2.274466399e-05
2.276121333e-05
2.278161243e-05
2.280146619e-05
2.281688182e-05
2.282536907e-05
2.282653696e-05
2.282242999e-05
2.281739604e-05
2.29044227e-05
2.290852004e-05
2.291138161e-05
2.291010737e-05
2.290253935e-05
2.28881206e-05
2.286854885e-05
2.284809952e-05
2.283353442e-05
2.300971852e-05
2.300239194e-05
2.298920158e-05
2.296865069e-05
2.29401946e-05
2.290505085e-05
2.286680429e-05
2.283171224e-05
2.28086481e-05
2.306401467e-05
2.304632145e-05
2.301859974e-05
2.29806554e-05
2.29334275e-05
2.287974403e-05
2.282487499e-05
2.27768163e-05
2.274626347e-05
2.307104152e-05
2.304404726e-05
2.300332043e-05
2.294986264e-05
2.288596219e-05
2.28158917e-05
2.274640739e-05
2.26870097e-05
2.264994283e-05
2.30347092e-05
2.299946934e-05
2.294724359e-05
2.288011873e-05
2.280159573e-05
2.271722729e-05
2.263506295e-05
2.256588539e-05
2.252323237e-05
2.295902568e-05
2.29165697e-05
2.285430938e-05
2.277530472e-05
2.26841333e-05
2.258746719e-05
2.249446471e-05
2.241698241e-05
2.23696162e-05
2.284802226e-05
2.27993406e-05
2.272845035e-05
2.263927344e-05
2.253733074e-05
2.243025897e-05
2.232815096e-05
2.224374381e-05
2.219247667e-05
2.270568781e-05
2.265172155e-05
2.257353227e-05
2.247579513e-05
2.236484546e-05
2.224913763e-05
2.213953623e-05
2.204948154e-05
2.199506162e-05
2.253591256e-05
2.247754561e-05
2.23933042e-05
2.228851188e-05
2.217019576e-05
2.204748976e-05
2.193187988e-05
2.18373484e-05
2.17804582e-05
2.234244169e-05
2.228049546e-05
2.219135785e-05
2.208090112e-05
2.195672863e-05
2.182852564e-05
2.170826201e-05
2.161031681e-05
2.155157326e-05
2.212883871e-05
2.206406886e-05
2.197109608e-05
2.18562477e-05
2.172759572e-05
2.159525876e-05
2.147156598e-05
2.137116376e-05
2.131111966e-05
2.189845816e-05
2.183155331e-05
2.173571016e-05
2.161762402e-05
2.148573643e-05
2.1350492e-05
2.122446735e-05
2.112246164e-05
2.106160811e-05
2.165442664e-05
2.158600857e-05
2.148816437e-05
2.136787724e-05
2.123386785e-05
2.109681e-05
2.096942822e-05
2.086657403e-05
2.080534368e-05
2.139963136e-05
2.133025651e-05
2.123118764e-05
2.110962293e-05
2.097448045e-05
2.083657666e-05
2.070869622e-05
2.060565568e-05
2.054442634e-05
2.113671529e-05
2.106687725e-05
2.096727106e-05
2.084524404e-05
2.070983851e-05
2.057193696e-05
2.044430736e-05
2.034165608e-05
2.028075484e-05
2.086807763e-05
2.079821044e-05
2.069867009e-05
2.057689424e-05
2.044198455e-05
2.030482217e-05
2.017809191e-05
2.007632575e-05
2.001603312e-05
2.059587884e-05
2.052636072e-05
2.042741074e-05
2.030650479e-05
2.017274678e-05
2.00369579e-05
1.991168272e-05
1.981122466e-05
1.975177881e-05
2.032204898e-05
2.025320641e-05
2.015529863e-05
2.003579399e-05
1.990374887e-05
1.9769874e-05
1.964652522e-05
1.954773217e-05
1.948933308e-05
2.004829861e-05
1.99804106e-05
1.988393024e-05
1.976627855e-05
1.963642138e-05
1.950491596e-05
1.938388862e-05
1.92870581e-05
1.922987149e-05
1.97761315e-05
1.970943382e-05
1.96147056e-05
1.949928618e-05
1.937201424e-05
1.924325709e-05
1.912487784e-05
1.903025422e-05
1.897441532e-05
1.950685843e-05
1.944154779e-05
1.934884182e-05
1.9235969e-05
1.911160972e-05
1.898591114e-05
1.887044565e-05
1.877822615e-05
1.872384321e-05
1.924161157e-05
1.917784963e-05
1.908738717e-05
1.897731708e-05
1.885613567e-05
1.873374508e-05
1.862140499e-05
1.853174516e-05
1.847890265e-05
1.8981359e-05
1.891927619e-05
1.883123494e-05
1.87241721e-05
1.860637859e-05
1.848749159e-05
1.83784409e-05
1.829145968e-05
1.824022128e-05
1.872691907e-05
1.866661813e-05
1.858113728e-05
1.847724056e-05
1.836299636e-05
1.824776119e-05
1.814212219e-05
1.805790651e-05
1.800831775e-05
1.847897428e-05
1.842053352e-05
1.833771835e-05
1.823710652e-05
1.81265304e-05
1.801505392e-05
1.791291245e-05
1.783152142e-05
1.778361209e-05
1.823808455e-05
1.818156087e-05
1.810148697e-05
1.800424373e-05
1.789741726e-05
1.77897703e-05
1.769118058e-05
1.761264919e-05
1.756643552e-05
1.800469973e-05
1.795013138e-05
1.787284844e-05
1.777902699e-05
1.767599943e-05
1.75722216e-05
1.747721055e-05
1.740155305e-05
1.735703959e-05
1.777917133e-05
1.772658035e-05
1.765211562e-05
1.756174277e-05
1.746253547e-05
1.736263948e-05
1.727121053e-05
1.719842337e-05
1.71556047e-05
1.756176337e-05
1.751115778e-05
1.743951916e-05
1.735259897e-05
1.725720932e-05
1.716118482e-05
1.707332134e-05
1.700338578e-05
1.696224803e-05
1.735266237e-05
1.730403816e-05
1.723521696e-05
1.715173402e-05
1.70601389e-05
1.69679559e-05
1.688362417e-05
1.681650865e-05
1.677703078e-05
1.71519865e-05
1.710532941e-05
1.703930275e-05
1.695922508e-05
1.687138398e-05
1.678299581e-05
1.670214774e-05
1.663780986e-05
1.659996486e-05
1.695979394e-05
1.6915081e-05
1.6851814e-05
1.677509559e-05
1.66909533e-05
1.660629932e-05
1.652887472e-05
1.646726309e-05
1.643101894e-05
1.677609045e-05
1.673329132e-05
1.667273902e-05
1.65993221e-05
1.651881114e-05
1.643781902e-05
1.636374769e-05
1.630480344e-05
1.627012406e-05
1.660083619e-05
1.655991441e-05
1.650202344e-05
1.643184044e-05
1.635488314e-05
1.627747093e-05
1.620667446e-05
1.615033264e-05
1.611717861e-05
1.643395194e-05
1.639486597e-05
1.633957599e-05
1.627255133e-05
1.619906171e-05
1.612513961e-05
1.605753291e-05
1.600372368e-05
1.597205294e-05
1.627532464e-05
1.623802881e-05
1.618527385e-05
1.612132539e-05
1.605121074e-05
1.598068267e-05
1.591617538e-05
1.586482506e-05
1.583459348e-05
1.612481237e-05
1.608925769e-05
1.603896724e-05
1.597800769e-05
1.591116997e-05
1.584393495e-05
1.57824326e-05
1.573346455e-05
1.570462647e-05
1.598224885e-05
1.594838369e-05
1.590048371e-05
1.584242173e-05
1.577875886e-05
1.571471215e-05
1.565611723e-05
1.560945268e-05
1.55819613e-05
1.584744738e-05
1.581521813e-05
1.576963192e-05
1.571437316e-05
1.565378003e-05
1.559281422e-05
1.553702705e-05
1.549258575e-05
1.546639356e-05
1.572020444e-05
1.568955605e-05
1.564620496e-05
1.559365295e-05
1.553602237e-05
1.547802825e-05
1.542494778e-05
1.538264861e-05
1.53577077e-05
1.560030287e-05
1.557117931e-05
1.552998343e-05
1.548004032e-05
1.542526386e-05
1.537013118e-05
1.531965568e-05
1.527941714e-05
1.525567948e-05
1.548751469e-05
1.545985935e-05
1.542073806e-05
1.53733053e-05
1.532127394e-05
1.526889212e-05
1.522091975e-05
1.518266043e-05
1.516007814e-05
1.538160358e-05
1.535535963e-05
1.53182321e-05
1.527321102e-05
1.522381579e-05
1.517407449e-05
1.51285038e-05
1.509214276e-05
1.507066829e-05
1.528232714e-05
1.525743785e-05
1.522222344e-05
1.517951574e-05
1.513264823e-05
1.508543784e-05
1.504216822e-05
1.500762529e-05
1.498721164e-05
1.518943883e-05
1.516584782e-05
1.513246646e-05
1.509197463e-05
1.504752746e-05
1.500273953e-05
1.496167159e-05
1.492886767e-05
1.490946849e-05
1.51026897e-05
1.508034117e-05
1.504871368e-05
1.501034139e-05
1.496820854e-05
1.492573618e-05
1.488677202e-05
1.485562932e-05
1.483719911e-05
1.502182994e-05
1.500066888e-05
1.497071721e-05
1.493436958e-05
1.489444677e-05
1.485418491e-05
1.481722846e-05
1.478767069e-05
1.477016484e-05
1.494661019e-05
1.492658249e-05
1.489822998e-05
1.486381388e-05
1.482599884e-05
1.478784452e-05
1.475280171e-05
1.472475425e-05
1.470812919e-05
1.487678269e-05
1.485783535e-05
1.48310069e-05
1.479843116e-05
1.476262382e-05
1.472647642e-05
1.469325538e-05
1.466664542e-05
1.465085866e-05
1.481210234e-05
1.479418353e-05
1.476880575e-05
1.473798133e-05
1.470408407e-05
1.466984548e-05
1.46383567e-05
1.461311337e-05
1.459812356e-05
1.47523275e-05
1.47353867e-05
1.471138807e-05
1.468222824e-05
1.465014599e-05
1.461772074e-05
1.458787721e-05
1.456393163e-05
1.454969866e-05
1.469722081e-05
1.468120886e-05
1.465851981e-05
1.463094025e-05
1.460058067e-05
1.456987607e-05
1.454159336e-05
1.451887875e-05
1.45053637e-05
1.464654981e-05
1.463141896e-05
1.460997197e-05
1.458389089e-05
1.455516441e-05
1.452609065e-05
1.449928697e-05
1.447773869e-05
1.446490396e-05
1.460008743e-05
1.458579142e-05
1.456552108e-05
1.454085926e-05
1.451367923e-05
1.448614941e-05
1.446074571e-05
1.444030131e-05
1.442811053e-05
1.455761248e-05
1.454410658e-05
1.452494963e-05
1.450163052e-05
1.447591319e-05
1.444984341e-05
1.442576338e-05
1.440636259e-05
1.439478075e-05
1.451891003e-05
1.450615102e-05
1.448804641e-05
1.446599611e-05
1.444166073e-05
1.44169701e-05
1.439414021e-05
1.437572501e-05
1.436471836e-05
1.448377162e-05
1.447171788e-05
1.445460675e-05
1.443375411e-05
1.441072288e-05
1.438733355e-05
1.436568305e-05
1.434819763e-05
1.433773376e-05
1.445199558e-05
1.444060701e-05
1.442443277e-05
1.440470931e-05
1.438290748e-05
1.43607446e-05
1.434020555e-05
1.432359633e-05
1.431364411e-05
1.44233871e-05
1.441262519e-05
1.439733345e-05
1.437867344e-05
1.435802922e-05
1.433702102e-05
1.431752824e-05
1.430174383e-05
1.429227346e-05
1.439775836e-05
1.438758616e-05
1.437312476e-05
1.435546518e-05
1.433590976e-05
1.431598746e-05
1.429747854e-05
1.428246979e-05
1.427345272e-05
1.437492852e-05
1.436531065e-05
1.435162963e-05
1.433491014e-05
1.431637771e-05
1.429747551e-05
1.427989079e-05
1.426561071e-05
1.425701971e-05
1.435472368e-05
1.43456263e-05
1.433267791e-05
1.431684083e-05
1.429926849e-05
1.428132359e-05
1.426460611e-05
1.425100988e-05
1.424281895e-05
1.433697673e-05
1.432836751e-05
1.431610616e-05
1.430109645e-05
1.428442421e-05
1.42673767e-05
1.42514722e-05
1.423851714e-05
1.423070157e-05
1.432152704e-05
1.431337515e-05
1.430175736e-05
1.428752258e-05
1.427169329e-05
1.425548616e-05
1.424034302e-05
1.422798853e-05
1.422052484e-05
1.430822002e-05
1.43004961e-05
1.428948047e-05
1.427597066e-05
1.426092995e-05
1.424550898e-05
1.423107816e-05
1.421928574e-05
1.421215163e-05
1.429690649e-05
1.428958256e-05
1.427912965e-05
1.42662973e-05
1.425199344e-05
1.423730712e-05
1.422354205e-05
1.421227516e-05
1.420544955e-05
1.428744164e-05
1.428049103e-05
1.427056326e-05
1.42583631e-05
1.424474687e-05
1.42307462e-05
1.421760264e-05
1.42068266e-05
1.42002895e-05
1.427968371e-05
1.42730809e-05
1.426364236e-05
1.425203112e-05
1.423905551e-05
1.422569372e-05
1.421312951e-05
1.420281135e-05
1.419654377e-05
1.427349198e-05
1.426721245e-05
1.425822856e-05
1.424716461e-05
1.423478441e-05
1.422201658e-05
1.420999122e-05
1.42000993e-05
1.419408308e-05
1.426872419e-05
1.426274404e-05
1.425418115e-05
1.424362397e-05
1.423179513e-05
1.421957747e-05
1.420805154e-05
1.41985551e-05
1.419277262e-05
1.426523293e-05
1.425952847e-05
1.425135319e-05
1.42412625e-05
1.422994121e-05
1.421823012e-05
1.420716433e-05
1.419803271e-05
1.419246643e-05
1.42628609e-05
1.425740802e-05
1.424958629e-05
1.423992092e-05
1.422906224e-05
1.421781288e-05
1.420716671e-05
1.419836823e-05
1.419300004e-05
1.426143488e-05
1.425620815e-05
1.424870392e-05
1.423942012e-05
1.422897611e-05
1.421814038e-05
1.420787013e-05
1.41993705e-05
1.419418073e-05
1.426075788e-05
1.425572934e-05
1.424850285e-05
1.423955208e-05
1.422946915e-05
1.421899291e-05
1.420904904e-05
1.420080911e-05
1.419577517e-05
1.42605996e-05
1.425573716e-05
1.424874251e-05
1.424006843e-05
1.423028393e-05
1.42201033e-05
1.421042685e-05
1.420239958e-05
1.419749412e-05
1.42606846e-05
1.425594995e-05
1.424913214e-05
1.424066672e-05
1.42311044e-05
1.422114096e-05
1.421165882e-05
1.420378536e-05
1.419897379e-05
1.426067837e-05
1.425602438e-05
1.42493154e-05
1.424097405e-05
1.423153837e-05
1.422169305e-05
1.421231205e-05
1.420451667e-05
1.41997541e-05
1.426017101e-05
1.42555385e-05
1.424885261e-05
1.424052813e-05
1.423109728e-05
1.422124287e-05
1.421184244e-05
1.420402634e-05
1.419925369e-05
1.425865876e-05
1.425397261e-05
1.424720069e-05
1.423875606e-05
1.422917357e-05
1.421914571e-05
1.420956912e-05
1.420160301e-05
1.419674235e-05
1.425552356e-05
1.425068821e-05
1.424369109e-05
1.423495107e-05
1.422501604e-05
1.421460283e-05
1.4204647e-05
1.419636242e-05
1.41913116e-05
1.425001108e-05
1.424490538e-05
1.423750638e-05
1.422824799e-05
1.421770413e-05
1.420663435e-05
1.419603841e-05
1.418721804e-05
1.418184459e-05
1.424120802e-05
1.423567962e-05
1.422765632e-05
1.421759843e-05
1.420612204e-05
1.41940524e-05
1.418248527e-05
1.417285241e-05
1.416698697e-05
1.422801955e-05
1.42218789e-05
1.421295443e-05
1.420174686e-05
1.418893428e-05
1.417543611e-05
1.416248363e-05
1.415169134e-05
1.414512088e-05
1.420914818e-05
1.420216251e-05
1.419199678e-05
1.417920926e-05
1.416456436e-05
1.414911042e-05
1.413426271e-05
1.412188314e-05
1.411434438e-05
1.418307556e-05
1.417496303e-05
1.416314441e-05
1.414825627e-05
1.413117875e-05
1.411313112e-05
1.409577101e-05
1.40812859e-05
1.407245933e-05
1.414804904e-05
1.413847367e-05
1.412451168e-05
1.410690297e-05
1.408667855e-05
1.406527863e-05
1.404467245e-05
1.402746556e-05
1.401697093e-05
1.410207489e-05
1.409064266e-05
1.407396263e-05
1.405290774e-05
1.402870145e-05
1.40030635e-05
1.397835542e-05
1.395770828e-05
1.394510212e-05
1.404292058e-05
1.402917741e-05
1.400911782e-05
1.398378282e-05
1.395463674e-05
1.392374643e-05
1.389395798e-05
1.386905012e-05
1.385382628e-05
1.396812819e-05
1.395156041e-05
1.392737412e-05
1.389681904e-05
1.3861656e-05
1.382437561e-05
1.378841193e-05
1.375832718e-05
1.373992115e-05
1.387504141e-05
1.385507948e-05
1.38259397e-05
1.378912713e-05
1.374676198e-05
1.37018439e-05
1.365850842e-05
1.362224843e-05
1.360004647e-05
1.376084812e-05
1.373687428e-05
1.370188649e-05
1.365769774e-05
1.360685757e-05
1.35529677e-05
1.350098654e-05
1.345749295e-05
1.34308466e-05
1.362264041e-05
1.359400095e-05
1.355222151e-05
1.349948149e-05
1.343883603e-05
1.337458813e-05
1.331264559e-05
1.326083156e-05
1.322907826e-05
1.345749313e-05
1.342351566e-05
1.337397789e-05
1.331148941e-05
1.323969248e-05
1.316369437e-05
1.309047978e-05
1.302927129e-05
1.2991761e-05
1.326256133e-05
1.322257741e-05
1.316432537e-05
1.309091313e-05
1.300665503e-05
1.291756636e-05
1.283183207e-05
1.27602185e-05
1.27163461e-05
1.303519561e-05
1.29885685e-05
1.292069817e-05
1.28352619e-05