/*--------------------------------*- C++ -*----------------------------------*\
| =========                 |                                                 |
| \\      /  F ield         | OpenFOAM: The Open Source CFD Toolbox           |
|  \\    /   O peration     | Version:  2212                                  |
|   \\  /    A nd           | Website:  www.openfoam.com                      |
|    \\/     M anipulation  |                                                 |
\*---------------------------------------------------------------------------*/
FoamFile
{
    version     2.0;
    format      ascii;
    arch        "LSB;label=32;scalar=64";
    class       volScalarField;
    location    "2.75000000";
    object      I-C4H51;
}
// * * * * * * * * * * * * * * * * * * * * * * * * * * * * * * * * * * * * * //

dimensions      [0 0 0 0 0 0 0];

internalField   nonuniform List<scalar> 
3000
(
2.859407613e-25
3.3037984e-25
3.979700316e-25
4.889236728e-25
6.027449788e-25
7.365578104e-25
8.823113665e-25
1.022255126e-24
1.122487498e-24
1.108330526e-24
1.287815001e-24
1.561052989e-24
1.930123845e-24
2.396616886e-24
2.958656125e-24
3.605438007e-24
4.301885057e-24
4.917379885e-24
2.623708524e-24
3.07989086e-24
3.782249133e-24
4.748840504e-24
6.004214523e-24
7.571409939e-24
9.445595707e-24
1.151991322e-23
1.330393846e-23
5.393463022e-24
6.414944181e-24
8.014761496e-24
1.02703063e-23
1.328619364e-23
1.716194607e-23
2.189398302e-23
2.711357909e-23
3.138918738e-23
1.052522746e-23
1.270635095e-23
1.618576526e-23
2.120409807e-23
2.80715812e-23
3.705793578e-23
4.80811316e-23
6.000467654e-23
6.934786828e-23
2.018036045e-23
2.472834537e-23
3.210594011e-23
4.294565532e-23
5.802244016e-23
7.792929944e-23
1.022635771e-22
1.280582242e-22
1.476218929e-22
3.860729729e-23
4.796097564e-23
6.334102704e-23
8.624727195e-23
1.184281015e-22
1.610412733e-22
2.127798845e-22
2.666941416e-22
3.066546172e-22
7.412027268e-23
9.315738025e-23
1.247807375e-22
1.723190173e-22
2.394840112e-22
3.284005277e-22
4.355955551e-22
5.458364589e-22
6.262625607e-22
1.429786586e-22
1.813841469e-22
2.456448639e-22
3.428243051e-22
4.805041054e-22
6.624543173e-22
8.804224415e-22
1.102400471e-21
1.262598345e-21
2.768636433e-22
3.537193918e-22
4.829482082e-22
6.790809081e-22
9.572278528e-22
1.323973529e-21
1.760995643e-21
2.202831473e-21
2.519253329e-21
5.372958336e-22
6.8994915e-22
9.474378579e-22
1.338997877e-21
1.894252881e-21
2.62462939e-21
3.491195687e-21
4.362552095e-21
4.983121833e-21
1.043232875e-21
1.344317915e-21
1.853139804e-21
2.627570396e-21
3.725021193e-21
5.16528094e-21
6.868025182e-21
8.573054903e-21
9.782374228e-21
2.023633393e-21
2.613567737e-21
3.611559996e-21
5.130759172e-21
7.281469042e-21
1.009788668e-20
1.341754655e-20
1.673056532e-20
1.907371523e-20
3.916876449e-21
5.065472209e-21
7.009432381e-21
9.96787218e-21
1.415128385e-20
1.961838268e-20
2.604427239e-20
3.243749765e-20
3.695537348e-20
7.557534078e-21
9.779908296e-21
1.354147151e-20
1.926320444e-20
2.734461498e-20
3.788582842e-20
5.024177756e-20
6.249386419e-20
7.116457853e-20
1.45250885e-20
1.879791027e-20
2.602833642e-20
3.701897247e-20
5.252503115e-20
7.272590276e-20
9.63903168e-20
1.198537282e-19
1.362655105e-19
2.779226571e-20
3.595494675e-20
4.976027423e-20
7.072422785e-20
1.00258394e-19
1.386624018e-19
1.835442832e-19
2.279226224e-19
2.589719944e-19
5.292663028e-20
6.842466061e-20
9.461697625e-20
1.343459432e-19
1.902335067e-19
2.627789748e-19
3.474010398e-19
4.309177562e-19
4.892731091e-19
1.003055668e-19
1.29560539e-19
1.789622032e-19
2.538078241e-19
3.589438565e-19
4.951994686e-19
6.538772315e-19
8.102335326e-19
9.193141822e-19
1.891781928e-19
2.440988495e-19
3.367608868e-19
4.769825016e-19
6.736788035e-19
9.282124986e-19
1.22418092e-18
1.515389079e-18
1.718247388e-18
3.550795003e-19
4.576418093e-19
6.305297841e-19
8.91844598e-19
1.257904835e-18
1.730915083e-18
2.28012438e-18
2.819742334e-18
3.195123556e-18
6.633041156e-19
8.538681327e-19
1.174804724e-18
1.659314689e-18
2.337121257e-18
3.211717906e-18
4.225774065e-18
5.220777126e-18
5.91204514e-18
1.233290104e-18
1.58563909e-18
2.178491155e-18
3.072441397e-18
4.321368127e-18
5.930660392e-18
7.793994944e-18
9.619933423e-18
1.088693999e-17
2.282568921e-18
2.930994719e-18
4.020990574e-18
5.662623659e-18
7.953101323e-18
1.090044253e-17
1.430845644e-17
1.764389891e-17
1.995557356e-17
4.205675995e-18
5.39357258e-18
7.388521003e-18
1.038952818e-17
1.457116833e-17
1.994476764e-17
2.615010129e-17
3.221587823e-17
3.641506737e-17
7.715286073e-18
9.881997373e-18
1.351729168e-17
1.897936081e-17
2.658026295e-17
3.63345872e-17
4.758392462e-17
5.856690127e-17
6.616155698e-17
1.409374642e-17
1.802923774e-17
2.462581319e-17
3.452531775e-17
4.828292991e-17
6.591397277e-17
8.621994634e-17
1.060202723e-16
1.196959207e-16
2.563979524e-17
3.275919904e-17
4.468084674e-17
6.25497105e-17
8.734857771e-17
1.190842903e-16
1.555835184e-16
1.911269041e-16
2.156455649e-16
4.645887412e-17
5.92880345e-17
8.074908726e-17
1.128751682e-16
1.573966565e-16
2.142859794e-16
2.796157124e-16
3.431433752e-16
3.869074218e-16
8.385604963e-17
1.068870709e-16
1.453733738e-16
2.029079348e-16
2.82519243e-16
3.840794259e-16
5.005130538e-16
6.135525025e-16
6.913075396e-16
1.5078107e-16
1.919738412e-16
2.60732118e-16
3.633727273e-16
5.051598166e-16
6.857071e-16
8.923026913e-16
1.092501658e-15
1.229968449e-15
2.701014057e-16
3.435070844e-16
4.658850907e-16
6.482777178e-16
8.99761421e-16
1.219325234e-15
1.584186496e-15
1.936970039e-15
2.178702987e-15
4.820341425e-16
6.123556847e-16
8.293276134e-16
1.152127691e-15
1.596254016e-15
2.159244127e-15
2.800358703e-15
3.418607065e-15
3.841171232e-15
8.570037174e-16
1.087477085e-15
1.470608489e-15
2.039455098e-15
2.820167318e-15
3.807004882e-15
4.927283513e-15
6.004147838e-15
6.737915831e-15
1.517757647e-15
1.923678385e-15
2.597295637e-15
3.59508818e-15
4.960537031e-15
6.680672481e-15
8.626140692e-15
1.048900912e-14
1.175366434e-14
2.677163645e-15
3.388917535e-15
4.567686642e-15
6.308956145e-15
8.683710516e-15
1.166337988e-14
1.501846202e-14
1.82163225e-14
2.037770537e-14
4.702356328e-15
5.944269413e-15
7.996252457e-15
1.101772362e-14
1.512192237e-14
2.024734588e-14
2.598843052e-14
3.143086986e-14
3.509032939e-14
8.222775287e-15
1.037795241e-14
1.392919132e-14
1.913869311e-14
2.618184997e-14
3.492921362e-14
4.466789126e-14
5.384218846e-14
5.997433688e-14
1.431062766e-14
1.802785413e-14
2.413355805e-14
3.30513545e-14
4.504260676e-14
5.984107439e-14
7.6202355e-14
9.150609099e-14
1.016670849e-13
2.477964411e-14
3.114723701e-14
4.156788937e-14
5.671158091e-14
7.694782492e-14
1.017420824e-13
1.289413805e-13
1.541823334e-13
1.708189141e-13
4.267492954e-14
5.34991908e-14
7.11387198e-14
9.662657884e-14
1.304465289e-13
1.715521501e-13
2.162589073e-13
2.57392637e-13
2.842927626e-13
7.306786088e-14
9.131169028e-14
1.20900761e-13
1.633802694e-13
2.193074853e-13
2.86687159e-13
3.592941229e-13
4.254939659e-13
4.684339129e-13
1.243317231e-13
1.547932266e-13
2.039352395e-13
2.739853067e-13
3.654283813e-13
4.745617316e-13
5.910193723e-13
6.962057172e-13
7.638674107e-13
2.101645939e-13
2.605073413e-13
3.412493671e-13
4.554580537e-13
6.031937827e-13
7.777711678e-13
9.621999123e-13
1.127198702e-12
1.23245667e-12
3.52756855e-13
4.350438931e-13
5.661911875e-13
7.501781869e-13
9.859172277e-13
1.261663127e-12
1.550026954e-12
1.805585548e-12
1.967297737e-12
5.876854764e-13
7.206195149e-13
9.310827042e-13
1.223821166e-12
1.595250977e-12
2.025282059e-12
2.470502163e-12
2.861469342e-12
3.106953193e-12
9.713732827e-13
1.183507583e-12
1.517059902e-12
1.976961579e-12
2.554786547e-12
3.217042381e-12
3.896057638e-12
4.487140358e-12
4.855578887e-12
1.592301209e-12
1.926563283e-12
2.448497907e-12
3.16186856e-12
4.04953368e-12
5.05699619e-12
6.080448775e-12
6.964099851e-12
7.51120715e-12
2.587635504e-12
3.107605391e-12
3.913930409e-12
5.006592559e-12
6.353599972e-12
7.868256187e-12
9.393709637e-12
1.070088877e-11
1.150527719e-11
4.167573855e-12
4.966091102e-12
6.19609727e-12
7.849232921e-12
9.86925941e-12
1.212108e-11
1.437098108e-11
1.628578117e-11
1.745762219e-11
6.650590439e-12
7.861444534e-12
9.714749119e-12
1.218635893e-11
1.518178118e-11
1.849440942e-11
2.178040847e-11
2.455987235e-11
2.625263629e-11
1.05139717e-11
1.232768183e-11
1.508721698e-11
1.874105198e-11
2.313601291e-11
2.796141461e-11
3.271719042e-11
3.67180842e-11
3.914441302e-11
1.646573652e-11
1.915078568e-11
2.321369714e-11
2.855812249e-11
3.494295159e-11
4.19079978e-11
4.873344591e-11
5.444833786e-11
5.790149173e-11
2.554645524e-11
2.947790623e-11
3.539702179e-11
4.313704278e-11
5.232767469e-11
6.229651242e-11
7.201711568e-11
8.012299013e-11
8.500583723e-11
3.927070793e-11
4.496822919e-11
5.350765768e-11
6.461528373e-11
7.773405094e-11
9.189289626e-11
1.05639788e-10
1.170632312e-10
1.239267769e-10
5.98263543e-11
6.800584091e-11
8.021639453e-11
9.602556197e-11
1.146094897e-10
1.345798842e-10
1.538971699e-10
1.699019975e-10
1.794975805e-10
9.035553296e-11
1.019988799e-10
1.193196825e-10
1.416540507e-10
1.678007461e-10
1.957922269e-10
2.227815225e-10
2.45086735e-10
2.584362638e-10
1.353495006e-10
1.517996253e-10
1.761964394e-10
2.075432053e-10
2.441089847e-10
2.831259893e-10
3.206417428e-10
3.515802942e-10
3.700700967e-10
2.012068763e-10
2.24298845e-10
2.584549004e-10
3.022043739e-10
3.530768187e-10
4.072021879e-10
4.591172115e-10
5.018488641e-10
5.273531667e-10
2.970274335e-10
3.29273205e-10
3.768582275e-10
4.376415515e-10
5.081228521e-10
5.829137974e-10
6.544848606e-10
7.132829955e-10
7.483258996e-10
4.357476028e-10
4.806040527e-10
5.466654665e-10
6.308463812e-10
7.282104747e-10
8.312698329e-10
9.296582558e-10
1.01031044e-09
1.058285155e-09
6.357713838e-10
6.980427158e-10
7.895956501e-10
9.060154912e-10
1.040355151e-09
1.182202823e-09
1.317270245e-09
1.427687284e-09
1.493182719e-09
9.233075196e-10
1.009769003e-09
1.136718935e-09
1.297876822e-09
1.483470099e-09
1.678981437e-09
1.864636785e-09
2.015909998e-09
2.105290016e-09
1.335675847e-09
1.456066237e-09
1.632701671e-09
1.856711929e-09
2.114364221e-09
2.385336886e-09
2.642059573e-09
2.850558691e-09
2.973189809e-09
1.925886564e-09
2.094517608e-09
2.341986514e-09
2.655931977e-09
3.017157713e-09
3.397134327e-09
3.757011932e-09
4.048875456e-09
4.219962252e-09
2.768835985e-09
3.007210687e-09
3.357649721e-09
3.803370281e-09
4.317935988e-09
4.861372889e-09
5.378260527e-09
5.799035034e-09
6.046107756e-09
3.969518988e-09
4.310520815e-09
4.813821046e-09
5.457714427e-09
6.206939916e-09
7.006136768e-09
7.775353975e-09
8.409629016e-09
8.786423455e-09
5.673875095e-09
6.168244323e-09
6.902711321e-09
7.851573945e-09
8.970489312e-09
1.018474189e-08
1.137819559e-08
1.238591377e-08
1.299906017e-08
8.083591733e-09
8.809455314e-09
9.897611612e-09
1.132233173e-08
1.303313895e-08
1.493322053e-08
1.685366237e-08
1.85272404e-08
1.957954911e-08
1.147779347e-08
1.25538068e-08
1.418386532e-08
1.635084797e-08
1.90057303e-08
2.202805946e-08
2.517124522e-08
2.799704974e-08
2.983263257e-08
1.624686668e-08
1.784886141e-08
2.030046732e-08
2.360573379e-08
2.772557572e-08
3.25058401e-08
3.757135801e-08
4.219789173e-08
4.523474527e-08
2.294456708e-08
2.532398277e-08
2.899296642e-08
3.398503408e-08
4.026048658e-08
4.757021898e-08
5.525354942e-08
6.201656222e-08
6.590049422e-08
3.235784494e-08
3.585574477e-08
4.126406013e-08
4.862635779e-08
5.782041005e-08
6.827992974e-08
7.856758969e-08
8.589112785e-08
8.80010894e-08
4.556779605e-08
5.060512223e-08
5.835775495e-08
6.877996697e-08
8.140348071e-08
9.475988226e-08
1.054452463e-07
1.103176784e-07
1.109808359e-07
6.39103444e-08
7.090184265e-08
8.14875666e-08
9.52406741e-08
1.106163897e-07
1.238236401e-07
1.319582321e-07
1.352271099e-07
1.349281129e-07
8.859234144e-08
9.765844913e-08
1.108318794e-07
1.26700491e-07
1.405735077e-07
1.514105635e-07
1.58262384e-07
1.60844207e-07
1.601049145e-07
1.192957807e-07
1.295082538e-07
1.422795183e-07
1.555970532e-07
1.679334718e-07
1.780095803e-07
1.847153001e-07
1.87396808e-07
1.866732547e-07
1.497003142e-07
1.582651207e-07
1.695061341e-07
1.818857796e-07
1.939577129e-07
2.043224757e-07
2.116510587e-07
2.149735028e-07
2.146015199e-07
1.755734444e-07
1.83651221e-07
1.945769914e-07
2.07040557e-07
2.196366581e-07
2.308710785e-07
2.392290649e-07
2.434864902e-07
2.436749003e-07
1.997277657e-07
2.078842372e-07
2.190979218e-07
2.321406599e-07
2.456030272e-07
2.57912127e-07
2.674162568e-07
2.726999229e-07
2.735452872e-07
2.238982805e-07
2.323430997e-07
2.440431717e-07
2.577833808e-07
2.721311544e-07
2.854567082e-07
2.9601952e-07
3.02270693e-07
3.03778117e-07
2.489466141e-07
2.576819992e-07
2.698242103e-07
2.841479845e-07
2.991998557e-07
3.133193525e-07
3.247213441e-07
3.317768379e-07
3.338806542e-07
2.751073049e-07
2.840255227e-07
2.964356626e-07
3.111028164e-07
3.265661608e-07
3.411620451e-07
3.531014327e-07
3.607263469e-07
3.633076166e-07
3.022074409e-07
3.111493743e-07
3.235915965e-07
3.382998736e-07
3.538231091e-07
3.685203383e-07
3.806360455e-07
3.885358233e-07
3.914313878e-07
3.298263008e-07
3.386125189e-07
3.508250436e-07
3.652420294e-07
3.804361682e-07
3.94807047e-07
4.06659292e-07
4.144353017e-07
4.174272539e-07
3.573976918e-07
3.658424623e-07
3.775527105e-07
3.913265359e-07
4.057639965e-07
4.192992689e-07
4.302692485e-07
4.371183882e-07
4.390023351e-07
3.842688747e-07
3.921837148e-07
4.031102914e-07
4.15867108e-07
4.290725467e-07
4.411665954e-07
4.504426385e-07
4.551773277e-07
4.559411258e-07
4.097224655e-07
4.16909509e-07
4.26746985e-07
4.38061115e-07
4.494608163e-07
4.593513676e-07
4.657502359e-07
4.687211795e-07
4.688502205e-07
4.329469804e-07
4.391769319e-07
4.475478968e-07
4.568461309e-07
4.655272869e-07
4.722743125e-07
4.766446879e-07
4.784764389e-07
4.782217147e-07
4.528888578e-07
4.578581257e-07
4.642060664e-07
4.705941018e-07
4.764320582e-07
4.810244972e-07
4.839164486e-07
4.849072495e-07
4.843783238e-07
4.676840611e-07
4.709282783e-07
4.750727028e-07
4.793795454e-07
4.832804591e-07
4.862734614e-07
4.879921787e-07
4.882867986e-07
4.875261962e-07
4.768411192e-07
4.789406881e-07
4.816057904e-07
4.843528219e-07
4.867479499e-07
4.884263457e-07
4.891327046e-07
4.888027689e-07
4.878247167e-07
4.818872353e-07
4.831230075e-07
4.846402385e-07
4.861079299e-07
4.872224515e-07
4.877440904e-07
4.875333518e-07
4.866221967e-07
4.854325963e-07
4.835758456e-07
4.840916487e-07
4.846335551e-07
4.849854558e-07
4.849598664e-07
4.844335961e-07
4.833795183e-07
4.819251661e-07
4.805310778e-07
4.82310768e-07
4.821957229e-07
4.818751543e-07
4.812297873e-07
4.801762098e-07
4.786983297e-07
4.768734737e-07
4.749184096e-07
4.733316554e-07
4.783662645e-07
4.776910163e-07
4.766021808e-07
4.750656929e-07
4.730914779e-07
4.707601026e-07
4.682429621e-07
4.658367848e-07
4.640744922e-07
4.719868691e-07
4.708176821e-07
4.690514585e-07
4.667296576e-07
4.639450856e-07
4.608637508e-07
4.577394305e-07
4.549380892e-07
4.530218345e-07
4.634255311e-07
4.618285972e-07
4.594767238e-07
4.56477638e-07
4.529964604e-07
4.492729752e-07
4.456311059e-07
4.424947947e-07
4.404492456e-07
4.529526383e-07
4.509943608e-07
4.481491077e-07
4.445816623e-07
4.405188113e-07
4.362623729e-07
4.321941181e-07
4.287845932e-07
4.266358996e-07
4.40852437e-07
4.385982608e-07
4.353505339e-07
4.313219829e-07
4.267904879e-07
4.221082928e-07
4.177031928e-07
4.140816034e-07
4.11856292e-07
4.274148791e-07
4.249277888e-07
4.21364923e-07
4.169779837e-07
4.120858512e-07
4.070802697e-07
4.024238935e-07
3.986488866e-07
3.963727871e-07
4.129262891e-07
4.102653193e-07
4.064690523e-07
4.018197566e-07
3.966677499e-07
3.914340777e-07
3.86606005e-07
3.827322378e-07
3.804296781e-07
3.976611337e-07
3.948803934e-07
3.909255076e-07
3.861014904e-07
3.807813256e-07
3.75406103e-07
3.704785102e-07
3.665556133e-07
3.642488563e-07
3.818756035e-07
3.790235278e-07
3.749768391e-07
3.700562091e-07
3.646494193e-07
3.592093944e-07
3.542461944e-07
3.503181399e-07
3.48027027e-07
3.658026828e-07
3.629216314e-07
3.58841464e-07
3.538922359e-07
3.484696273e-07
3.430312836e-07
3.380877445e-07
3.341925588e-07
3.319343266e-07
3.496489943e-07
3.467751493e-07
3.427112231e-07
3.377912297e-07
3.324128372e-07
3.27032391e-07
3.221551494e-07
3.183249048e-07
3.1611414e-07
3.335932295e-07
3.307567381e-07
3.26750391e-07
3.219075803e-07
3.16623021e-07
3.113467885e-07
3.065741702e-07
3.028351933e-07
3.006838947e-07
3.17785924e-07
3.150112281e-07
3.110958924e-07
3.063689168e-07
3.012180398e-07
2.960830779e-07
2.914456444e-07
2.878188823e-07
2.857365998e-07
3.023503123e-07
2.996566108e-07
2.958584679e-07
2.91277475e-07
2.862912147e-07
2.813261474e-07
2.768473932e-07
2.733488859e-07
2.713429136e-07
2.873839965e-07
2.847857908e-07
2.811245368e-07
2.767120828e-07
2.719134337e-07
2.671393856e-07
2.628365228e-07
2.594779365e-07
2.575535379e-07
2.729611817e-07
2.704688615e-07
2.669585241e-07
2.62730543e-07
2.581355855e-07
2.535671595e-07
2.494519366e-07
2.462411225e-07
2.44401772e-07
2.591352527e-07
2.567556881e-07
2.534054497e-07
2.493722239e-07
2.449911471e-07
2.406373945e-07
2.367169071e-07
2.336584571e-07
2.319060836e-07
2.459415062e-07
2.436786192e-07
2.404936093e-07
2.366607008e-07
2.324987801e-07
2.283641259e-07
2.2464159e-07
2.217373678e-07
2.200725926e-07
2.333998845e-07
2.312551822e-07
2.282372139e-07
2.24606328e-07
2.206648302e-07
2.167499279e-07
2.132253938e-07
2.104750276e-07
2.088973869e-07
2.215175971e-07
2.194906535e-07
2.166388891e-07
2.132086535e-07
2.094856507e-07
2.057881501e-07
2.024591449e-07
1.998604731e-07
1.983686232e-07
2.102915497e-07
2.08380431e-07
2.05691968e-07
2.024586174e-07
1.989497022e-07
1.954649244e-07
1.923270168e-07
1.898764816e-07
1.884683829e-07
1.997105303e-07
1.97912161e-07
1.953825368e-07
1.923405023e-07
1.890394028e-07
1.8576092e-07
1.828082071e-07
1.805011961e-07
1.791742749e-07
1.897571271e-07
1.880675995e-07
1.856912176e-07
1.828336234e-07
1.797327212e-07
1.766528459e-07
1.738783646e-07
1.717095015e-07
1.704607903e-07
1.804093734e-07
1.78824204e-07
1.765946859e-07
1.739137602e-07
1.710045189e-07
1.681147098e-07
1.655107792e-07
1.634741654e-07
1.623004215e-07
1.716421289e-07
1.701564661e-07
1.680669377e-07
1.655543473e-07
1.628276629e-07
1.601188523e-07
1.576773494e-07
1.557667639e-07
1.546645698e-07
1.634282165e-07
1.620370074e-07
1.600803284e-07
1.57727443e-07
1.551739164e-07
1.526367726e-07
1.503493575e-07
1.485584187e-07
1.475242637e-07
1.557393373e-07
1.544374566e-07
1.526063964e-07
1.504044958e-07
1.480146514e-07
1.456397845e-07
1.434980749e-07
1.418203677e-07
1.408507144e-07
1.485467892e-07
1.473291383e-07
1.456165125e-07
1.435569454e-07
1.413213964e-07
1.390995156e-07
1.370952214e-07
1.355243959e-07
1.346157323e-07
1.418220225e-07
1.406836031e-07
1.390823754e-07
1.371566772e-07
1.350662487e-07
1.329882787e-07
1.311133024e-07
1.296431491e-07
1.287920293e-07
1.355370561e-07
1.344730238e-07
1.329763783e-07
1.311763562e-07
1.292221734e-07
1.272793391e-07
1.255258485e-07
1.241503527e-07
1.233534274e-07
1.296647788e-07
1.286704796e-07
1.272718718e-07
1.255896625e-07
1.237632115e-07
1.219470954e-07
1.203075739e-07
1.190209543e-07
1.182749931e-07
1.241791581e-07
1.232501523e-07
1.21943341e-07
1.203714486e-07
1.186646149e-07
1.169671938e-07
1.154344726e-07
1.142312067e-07
1.13533113e-07
1.190553752e-07
1.18187451e-07
1.169665168e-07
1.154978334e-07
1.139029233e-07
1.12316589e-07
1.108838656e-07
1.097587044e-07
1.091055256e-07
1.142699019e-07
1.134590816e-07
1.123184346e-07
1.109462489e-07
1.094559984e-07
1.079735658e-07
1.06634411e-07
1.05582386e-07
1.049713182e-07
1.098005344e-07
1.090430743e-07
1.079774541e-07
1.06695451e-07
1.053030242e-07
1.039177296e-07
1.026660871e-07
1.016825106e-07
1.01110901e-07
1.056263933e-07
1.049187796e-07
1.039232495e-07
1.027255022e-07
1.014244832e-07
1.001299763e-07
9.896015575e-08
9.804061691e-08
9.750596215e-08
1.017278996e-07
1.010668416e-07
1.001367784e-07
9.901773647e-08
9.780211564e-08
9.659244654e-08
9.549911227e-08
9.463946965e-08
9.413941335e-08
9.808673375e-08
9.746915507e-08
9.660023609e-08
9.555470977e-08
9.44188674e-08
9.328846991e-08
9.226662703e-08
9.146299856e-08
9.099532671e-08
9.468578355e-08
9.41088113e-08
9.329700019e-08
9.232014301e-08
9.125883002e-08
9.020250329e-08
8.924748163e-08
8.849623323e-08
8.80588687e-08
9.150908414e-08
9.097003827e-08
9.021156931e-08
8.929885934e-08
8.830717723e-08
8.732006604e-08
8.642750303e-08
8.572523617e-08
8.531623257e-08
8.854175463e-08
8.80381365e-08
8.732949873e-08
8.647671945e-08
8.555009969e-08
8.462767433e-08
8.37934974e-08
8.313703619e-08
8.275457132e-08
8.576993288e-08
8.529941398e-08
8.463733526e-08
8.384055655e-08
8.297474003e-08
8.211277613e-08
8.133318513e-08
8.071956328e-08
8.036193237e-08
8.318071057e-08
8.274112144e-08
8.212255289e-08
8.137811231e-08
8.056912923e-08
7.976368811e-08
7.9035138e-08
7.846158591e-08
7.812719483e-08
8.076206976e-08
8.035138925e-08
7.977349022e-08
7.907797503e-08
7.832212548e-08
7.756953507e-08
7.688871916e-08
7.635265137e-08
7.604000993e-08
7.850282174e-08
7.811916678e-08
7.757929049e-08
7.692952042e-08
7.622335583e-08
7.552019247e-08
7.488402635e-08
7.438302948e-08
7.409074492e-08
7.639254876e-08
7.603416469e-08
7.552984457e-08
7.492285551e-08
7.426316105e-08
7.360623228e-08
7.301183861e-08
7.254365974e-08
7.22704305e-08
7.442154891e-08
7.408680027e-08
7.361573717e-08
7.304876582e-08
7.243254395e-08
7.181887223e-08
7.126356632e-08
7.082610213e-08
7.05707118e-08
7.258078428e-08
7.226814634e-08
7.182819657e-08
7.129866615e-08
7.072312107e-08
7.014992856e-08
6.963120486e-08
6.922249126e-08
6.898380294e-08
7.086183283e-08
7.056988361e-08
7.015904775e-08
6.966455452e-08
6.912707774e-08
6.859177206e-08
6.810729151e-08
6.772549403e-08
6.750244498e-08
6.925684344e-08
6.898425624e-08
6.860066868e-08
6.813896954e-08
6.763712642e-08
6.713728743e-08
6.668486568e-08
6.632827043e-08
6.611986701e-08
6.775849408e-08
6.750403064e-08
6.714594998e-08
6.671495084e-08
6.624646814e-08
6.577983563e-08
6.535743213e-08
6.502443734e-08
6.482975033e-08
6.635995324e-08
6.612245735e-08
6.578825743e-08
6.538600257e-08
6.494875689e-08
6.451321921e-08
6.411892702e-08
6.380803528e-08
6.362619545e-08
6.505484422e-08
6.483323584e-08
6.45213975e-08
6.414605966e-08
6.373806677e-08
6.333165028e-08
6.296368666e-08
6.267349762e-08
6.250369166e-08
6.383721223e-08
6.363048203e-08
6.333958548e-08
6.298945672e-08
6.260886169e-08
6.222972104e-08
6.188641877e-08
6.161562241e-08
6.14570891e-08
6.270149394e-08
6.250869833e-08
6.223741611e-08
6.191089939e-08
6.155596748e-08
6.120237661e-08
6.088217589e-08
6.06295463e-08
6.048157299e-08
6.16424896e-08
6.146274605e-08
6.120983653e-08
6.090543791e-08
6.057454616e-08
6.024488996e-08
5.994633105e-08
5.971072063e-08
5.957263994e-08
6.065533716e-08
6.048781995e-08
6.025212135e-08
5.996844281e-08
5.966007228e-08
5.935283896e-08
5.907455521e-08
5.885488936e-08
5.872607613e-08
5.973548852e-08
5.957942482e-08
5.935984966e-08
5.909558248e-08
5.880831108e-08
5.852208505e-08
5.826279661e-08
5.805806877e-08
5.793793725e-08
5.887868767e-08
5.873335384e-08
5.852888385e-08
5.828280249e-08
5.801529837e-08
5.774875371e-08
5.750726162e-08
5.731652869e-08
5.720452991e-08
5.808095039e-08
5.79456687e-08
5.77553501e-08
5.752630653e-08
5.727732196e-08
5.702921636e-08
5.680439713e-08
5.662677525e-08
5.652239458e-08
5.733854571e-08
5.721268117e-08
5.703562032e-08
5.682253882e-08
5.659090456e-08
5.63600737e-08
5.615087429e-08
5.59855349e-08
5.588828981e-08
5.664797862e-08
5.653093615e-08
5.636629552e-08
5.616816784e-08
5.595278786e-08
5.573814028e-08
5.554357343e-08
5.538973963e-08
5.529917761e-08
5.600597421e-08
5.589719597e-08
5.574419041e-08
5.556007131e-08
5.535991801e-08
5.516043028e-08
5.497957018e-08
5.483651338e-08
5.475220998e-08
5.540946294e-08
5.53084259e-08
5.516631919e-08
5.499532226e-08
5.480943196e-08
5.462414426e-08
5.445612256e-08
5.432315936e-08
5.424471639e-08
5.485556705e-08
5.476178067e-08
5.462988234e-08
5.447117623e-08
5.4298645e-08
5.412665695e-08
5.397065908e-08
5.384714832e-08
5.37741922e-08
5.434158795e-08
5.42545921e-08
5.413225444e-08
5.398505923e-08
5.382503906e-08
5.366550596e-08
5.352076764e-08
5.340610773e-08
5.333828789e-08
5.386499452e-08
5.378435752e-08
5.367097284e-08
5.353455678e-08
5.338625199e-08
5.323838119e-08
5.310418525e-08
5.299781166e-08
5.293479913e-08
5.342341228e-08
5.334872907e-08
5.324372714e-08
5.311740357e-08
5.298006747e-08
5.284311514e-08
5.271878853e-08
5.262017147e-08
5.256165751e-08
5.301461334e-08
5.294550379e-08
5.284834949e-08
5.273147398e-08
5.260440579e-08
5.24776738e-08
5.236258484e-08
5.227122706e-08
5.221692192e-08
5.263650705e-08
5.257261441e-08
5.248280549e-08
5.23747732e-08
5.225731518e-08
5.214014826e-08
5.203370405e-08
5.194913886e-08
5.18987706e-08
5.228713135e-08
5.222812078e-08
5.214518583e-08
5.204542905e-08
5.193696381e-08
5.182874693e-08
5.173039097e-08
5.165218034e-08
5.160549377e-08
5.196464476e-08
5.191020196e-08
5.18336985e-08
5.174168436e-08
5.164163243e-08
5.154178831e-08
5.145099829e-08
5.137873115e-08
5.133548679e-08
5.166731887e-08
5.161714887e-08
5.154666161e-08
5.146188998e-08
5.13697075e-08
5.127769436e-08
5.119398012e-08
5.112727071e-08
5.108724393e-08
5.13935316e-08
5.134735756e-08
5.128249677e-08
5.120449831e-08
5.111967492e-08
5.103498438e-08
5.095788604e-08
5.089637249e-08
5.085935259e-08
5.114176077e-08
5.109932298e-08
5.1039723e-08
5.096805738e-08
5.089011429e-08
5.08122695e-08
5.074135571e-08
5.068469868e-08
5.065048817e-08
5.091057848e-08
5.087163333e-08
5.081695123e-08
5.075120551e-08
5.067969378e-08
5.060824766e-08
5.05431141e-08
5.049099558e-08
5.045940946e-08
5.069864585e-08
5.0662965e-08
5.061287934e-08
5.055266654e-08
5.048716551e-08
5.042169922e-08
5.036196722e-08
5.031408949e-08
5.028495466e-08
5.050470843e-08
5.047207806e-08
5.042628786e-08
5.037124566e-08
5.031136158e-08
5.025148322e-08
5.019679859e-08
5.015288327e-08
5.012603802e-08
5.03275923e-08
5.02978124e-08
5.025603622e-08
5.02058259e-08
5.015119082e-08
5.00965343e-08
5.004656636e-08
5.000635374e-08
4.998164731e-08
5.016620072e-08
5.013908462e-08
5.01010598e-08
5.00553654e-08
5.000563624e-08
4.995586045e-08
4.99103013e-08
4.987354976e-08
4.98508421e-08
5.001951165e-08
4.999488558e-08
4.996036773e-08
4.991889542e-08
4.987375336e-08
4.982854161e-08
4.978710568e-08
4.975359139e-08
4.973275295e-08
4.988657612e-08
4.986427899e-08
4.983304165e-08
4.979551938e-08
4.975466957e-08
4.971372932e-08
4.967615321e-08
4.964567006e-08
4.962658183e-08
4.976651758e-08
4.974640088e-08
4.971823548e-08
4.968441297e-08
4.964758456e-08
4.961064758e-08
4.957669028e-08
4.954905011e-08
4.953160374e-08
4.965853239e-08
4.964046038e-08
4.961517645e-08
4.958482554e-08
4.955177213e-08
4.951859506e-08
4.948803853e-08
4.946307171e-08
4.94471699e-08
4.956189168e-08
4.954574169e-08
4.952316746e-08
4.949608288e-08
4.946658351e-08
4.94369489e-08
4.94095992e-08
4.93871555e-08
4.937271263e-08
4.947594461e-08
4.946160777e-08
4.944159113e-08
4.941759175e-08
4.939145236e-08
4.936517033e-08
4.934085913e-08
4.932080915e-08
4.930775205e-08
4.940012351e-08
4.938750565e-08
4.936991553e-08
4.934884619e-08
4.932590172e-08
4.930281218e-08
4.928139903e-08
4.926363595e-08
4.925190503e-08
4.933395078e-08
4.932297373e-08
4.930770206e-08
4.928943594e-08
4.926955314e-08
4.924952872e-08
4.923090377e-08
4.921534573e-08
4.920489638e-08
4.927704797e-08
4.926765127e-08
4.925461535e-08
4.923905708e-08
4.922213797e-08
4.92050877e-08
4.918917526e-08
4.917576812e-08
4.916657236e-08
4.922914706e-08
4.922128999e-08
4.921043556e-08
4.919752496e-08
4.918351111e-08
4.916938488e-08
4.915614751e-08
4.914486825e-08
4.913691668e-08
4.919010406e-08
4.918376814e-08
4.917507293e-08
4.916478948e-08
4.915366709e-08
4.914246082e-08
4.91319042e-08
4.912276477e-08
4.911606882e-08
4.91599148e-08
4.915510672e-08
4.914858465e-08
4.914095266e-08
4.91327583e-08
4.912451988e-08
4.911669828e-08
4.910974993e-08
4.910434428e-08
4.913873295e-08
4.913548781e-08
4.913119368e-08
4.912628809e-08
4.912111519e-08
4.911595103e-08
4.911097331e-08
4.910631124e-08
4.91022565e-08
4.912688969e-08
4.912527461e-08
4.912330923e-08
4.912126193e-08
4.911926773e-08
4.91173498e-08
4.911538582e-08
4.91131542e-08
4.911053958e-08
4.912491465e-08
4.91250326e-08
4.912554827e-08
4.91265547e-08
4.912796756e-08
4.912954074e-08
4.913082791e-08
4.91312249e-08
4.913017107e-08
4.913355738e-08
4.913555109e-08
4.913875711e-08
4.914308302e-08
4.914820977e-08
4.915359913e-08
4.9158449e-08
4.916173178e-08
4.916239355e-08
4.915380819e-08
4.9157864e-08
4.916403211e-08
4.917202004e-08
4.918125304e-08
4.919087083e-08
4.919967532e-08
4.920616487e-08
4.920873388e-08
4.918691739e-08
4.919326874e-08
4.920273803e-08
4.921481324e-08
4.922863677e-08
4.924298878e-08
4.925622586e-08
4.926631143e-08
4.927101869e-08
4.923441122e-08
4.924334168e-08
4.925652273e-08
4.927319816e-08
4.929219373e-08
4.931188457e-08
4.933012319e-08
4.934426639e-08
4.935138491e-08
4.929810318e-08
4.930994855e-08
4.932732649e-08
4.934920628e-08
4.937405656e-08
4.939979373e-08
4.942369797e-08
4.944243664e-08
4.945228436e-08
4.938009895e-08
4.939524843e-08
4.94173844e-08
4.944516579e-08
4.947665682e-08
4.950925348e-08
4.953958591e-08
4.956353827e-08
4.957648174e-08
4.948279364e-08
4.950168966e-08
4.952922069e-08
4.956369399e-08
4.960271564e-08
4.964309214e-08
4.968071717e-08
4.971058687e-08
4.972704657e-08
4.960886003e-08
4.96319968e-08
4.966563387e-08
4.970768058e-08
4.97552256e-08
4.980441052e-08
4.985029846e-08
4.988688195e-08
4.990734041e-08
4.976122749e-08
4.978914822e-08
4.982967277e-08
4.988026233e-08
4.993742468e-08
4.999655643e-08
5.005179e-08
5.009598808e-08
5.012100248e-08
4.99430517e-08
4.997634495e-08
5.002460441e-08
5.00847904e-08
5.01527642e-08
5.02230952e-08
5.028888093e-08
5.034171726e-08
5.037193868e-08
5.015767693e-08
5.019697257e-08
5.025387599e-08
5.03247935e-08
5.040487486e-08
5.048778105e-08
5.056546888e-08
5.062811886e-08
5.066432113e-08
5.040859375e-08
5.045455981e-08
5.05210752e-08
5.060394159e-08
5.069753648e-08
5.079453599e-08
5.088565154e-08
5.09594862e-08
5.100260776e-08
5.069939726e-08
5.075273895e-08
5.082989488e-08
5.092601728e-08
5.103465934e-08
5.114744522e-08
5.125373994e-08
5.134039001e-08
5.139159267e-08
5.103375232e-08
5.109521544e-08
5.118410963e-08