/*--------------------------------*- C++ -*----------------------------------*\
| =========                 |                                                 |
| \\      /  F ield         | OpenFOAM: The Open Source CFD Toolbox           |
|  \\    /   O peration     | Version:  2212                                  |
|   \\  /    A nd           | Website:  www.openfoam.com                      |
|    \\/     M anipulation  |                                                 |
\*---------------------------------------------------------------------------*/
FoamFile
{
    version     2.0;
    format      ascii;
    arch        "LSB;label=32;scalar=64";
    class       volScalarField;
    location    "2.75000000";
    object      I-C4H51_0;
}
// * * * * * * * * * * * * * * * * * * * * * * * * * * * * * * * * * * * * * //

dimensions      [0 0 0 0 0 0 0];

internalField   nonuniform List<scalar> 
3000
(
2.852588491e-25
3.295986548e-25
3.970383939e-25
4.877904854e-25
6.013607332e-25
7.348796064e-25
8.803139518e-25
1.019951938e-24
1.119966214e-24
1.105716088e-24
1.284804828e-24
1.557442832e-24
1.92570737e-24
2.391186365e-24
2.952008677e-24
3.597392932e-24
4.292334702e-24
4.9064982e-24
2.617636209e-24
3.072833969e-24
3.773683514e-24
4.738210475e-24
5.990918326e-24
7.554799713e-24
9.425031258e-24
1.149497422e-23
1.327524275e-23
5.381306362e-24
6.400644622e-24
7.997124264e-24
1.024799444e-23
1.325767181e-23
1.712548494e-23
2.184785864e-23
2.705681609e-23
3.132374859e-23
1.050227561e-23
1.267897843e-23
1.61513857e-23
2.115968986e-23
2.801355594e-23
3.698221555e-23
4.798382987e-23
5.98841599e-23
6.920892e-23
2.013802668e-23
2.467715201e-23
3.204047974e-23
4.285941939e-23
5.790758348e-23
7.777701606e-23
1.020659757e-22
1.278130309e-22
1.473413602e-22
3.852975494e-23
4.78659953e-23
6.321760564e-23
8.608191039e-23
1.182044455e-22
1.607412562e-22
2.123881355e-22
2.662077862e-22
3.060989045e-22
7.397827519e-23
9.298153185e-23
1.245491494e-22
1.720045323e-22
2.390537522e-22
3.27818782e-22
4.348332496e-22
5.448904869e-22
6.251841436e-22
1.427181384e-22
1.8105865e-22
2.452116469e-22
3.422300176e-22
4.796843886e-22
6.613403381e-22
8.789601591e-22
1.10058755e-21
1.260535432e-21
2.763848638e-22
3.531171071e-22
4.821402194e-22
6.779643248e-22
9.556790875e-22
1.321862103e-21
1.758222027e-21
2.199396417e-21
2.515350571e-21
5.364154966e-22
6.888361762e-22
9.459362352e-22
1.336912107e-21
1.891349068e-21
2.620663108e-21
3.485984797e-21
4.356105725e-21
4.97580738e-21
1.041616035e-21
1.342266863e-21
1.850361977e-21
2.623699037e-21
3.719618744e-21
5.157893775e-21
6.858322585e-21
8.561066485e-21
9.768787325e-21
2.020672549e-21
2.6098043e-21
3.606451805e-21
5.123626477e-21
7.271502733e-21
1.00842556e-20
1.339966097e-20
1.670849143e-20
1.904873446e-20
3.911478993e-21
5.058606792e-21
7.000107251e-21
9.95484642e-21
1.413308982e-20
1.959353778e-20
2.601171701e-20
3.239710128e-20
3.691008172e-20
7.547751276e-21
9.767470262e-21
1.352459142e-20
1.923966265e-20
2.731181757e-20
3.784114731e-20
5.01827193e-20
6.241752802e-20
7.108306521e-20
1.450747036e-20
1.877553847e-20
2.599803252e-20
3.697681865e-20
5.246647241e-20
7.264643241e-20
9.628755254e-20
1.197314787e-19
1.361233873e-19
2.776074473e-20
3.591498076e-20
4.97062426e-20
7.064924157e-20
1.00154497e-19
1.385216822e-19
1.833614355e-19
2.276993576e-19
2.587201539e-19
5.287062395e-20
6.835376558e-20
9.452131552e-20
1.342134502e-19
1.900503028e-19
2.625313488e-19
3.4707978e-19
4.305252161e-19
4.888316947e-19
1.002067781e-19
1.294357168e-19
1.787941373e-19
2.535755593e-19
3.586233836e-19
4.947672063e-19
6.533175483e-19
8.095507911e-19
9.185473241e-19
1.890052579e-19
2.438807805e-19
3.36467966e-19
4.765786847e-19
6.731229755e-19
9.274645141e-19
1.223214502e-18
1.514212275e-18
1.716927147e-18
3.547791109e-19
4.572638418e-19
6.300233789e-19
8.911483283e-19
1.256948959e-18
1.729631907e-18
2.278470132e-18
2.817731595e-18
3.192870369e-18
6.62786421e-19
8.532182334e-19
1.173936342e-18
1.65812407e-18
2.335491167e-18
3.209535227e-18
4.222966548e-18
5.217370815e-18
5.908232562e-18
1.232404933e-18
1.58453054e-18
2.177014131e-18
3.070422192e-18
4.318611417e-18
5.926978853e-18
7.789270421e-18
9.614211865e-18
1.088054355e-17
2.281067424e-18
2.929118989e-18
4.018498713e-18
5.659227387e-18
7.948478098e-18
1.089428492e-17
1.430057307e-17
1.763436989e-17
1.994493328e-17
4.203149326e-18
5.39042427e-18
7.384351248e-18
1.038386275e-17
1.456347937e-17
1.993455521e-17
2.613705837e-17
3.220014306e-17
3.639751849e-17
7.711068359e-18
9.876755819e-18
1.351037123e-17
1.896998826e-17
2.65675822e-17
3.631779285e-17
4.75625291e-17
5.85411407e-17
6.613286298e-17
1.408676262e-17
1.802058207e-17
2.461442172e-17
3.450994105e-17
4.826219225e-17
6.588658899e-17
8.618515039e-17
1.059784637e-16
1.196494115e-16
2.562832491e-17
3.274502198e-17
4.466225016e-17
6.252469357e-17
8.731495036e-17
1.190400218e-16
1.555274186e-16
1.910596429e-16
2.155708424e-16
4.644018827e-17
5.926500419e-17
8.071897947e-17
1.128348082e-16
1.57342591e-16
2.14215032e-16
2.795260563e-16
3.430361239e-16
3.867884425e-16
8.382585806e-17
1.068499665e-16
1.453250348e-16
2.028433705e-16
2.824330615e-16
3.839667116e-16
5.003710392e-16
6.133830231e-16
6.911198116e-16
1.507326891e-16
1.919145566e-16
2.606551574e-16
3.632703206e-16
5.0502363e-16
6.855296112e-16
8.920797674e-16
1.092236302e-15
1.229674998e-15
2.700245182e-16
3.434131501e-16
4.657635954e-16
6.48116682e-16
8.995481003e-16
1.219048253e-15
1.583839781e-15
1.936558468e-15
2.178248641e-15
4.819129707e-16
6.122081e-16
8.29137447e-16
1.15187666e-15
1.595922847e-15
2.158815834e-15
2.799824524e-15
3.417974862e-15
3.840474666e-15
8.568143618e-16
1.087247177e-15
1.470313404e-15
2.039067229e-15
2.819657854e-15
3.806348803e-15
4.926468443e-15
6.003186354e-15
6.736858697e-15
1.517464255e-15
1.923323307e-15
2.596841754e-15
3.594494256e-15
4.959760531e-15
6.679677087e-15
8.624909342e-15
1.048756178e-14
1.175207671e-14
2.676712961e-15
3.388373916e-15
4.566994707e-15
6.30805501e-15
8.682538195e-15
1.166188449e-14
1.501662071e-14
1.821416666e-14
2.037534657e-14
4.701670039e-15
5.94344448e-15
7.995207145e-15
1.101636911e-14
1.512016956e-14
2.024512191e-14
2.598570583e-14
3.142769331e-14
3.508686339e-14
8.221739403e-15
1.037671178e-14
1.392762666e-14
1.913667645e-14
2.617925511e-14
3.492594009e-14
4.466390242e-14
5.383755944e-14
5.996930109e-14
1.430907796e-14
1.80260052e-14
2.413123783e-14
3.304838104e-14
4.503880398e-14
5.983630644e-14
7.619657888e-14
9.149942071e-14
1.016598515e-13
2.477734644e-14
3.114450673e-14
4.156448128e-14
5.670723973e-14
7.694230886e-14
1.017352115e-13
1.28933108e-13
1.541728298e-13
1.708086422e-13
4.267155348e-14
5.349519624e-14
7.113376156e-14
9.662030376e-14
1.304386103e-13
1.715423546e-13
2.162471899e-13
2.573792483e-13
2.84278341e-13
7.306294493e-14
9.130590018e-14
1.208936169e-13
1.633712895e-13
2.192962355e-13
2.866733434e-13
3.592777074e-13
4.254753129e-13
4.684138904e-13
1.243246294e-13
1.547849118e-13
2.03925045e-13
2.739725847e-13
3.654125641e-13
4.745424522e-13
5.909966225e-13
6.961800112e-13
7.638399132e-13
2.101544493e-13
2.604955112e-13
3.412349595e-13
4.554402095e-13
6.031717713e-13
7.777445445e-13
9.62168715e-13
1.127163648e-12
1.232419301e-12
3.527424767e-13
4.350272166e-13
5.661710196e-13
7.50153404e-13
9.858869042e-13
1.261626736e-12
1.549984606e-12
1.805538228e-12
1.96724746e-12
5.876652773e-13
7.205962204e-13
9.310547383e-13
1.223787079e-12
1.595209612e-12
2.025232804e-12
2.470445241e-12
2.861406077e-12
3.106886188e-12
9.713451544e-13
1.183475336e-12
1.51702148e-12
1.976915135e-12
2.554730654e-12
3.216976343e-12
3.895981834e-12
4.487056546e-12
4.855490391e-12
1.592262377e-12
1.926519038e-12
2.448445599e-12
3.161805857e-12
4.049458845e-12
5.056908449e-12
6.080348716e-12
6.963989773e-12
7.511091254e-12
2.587582352e-12
3.107545209e-12
3.913859818e-12
5.006508653e-12
6.353500653e-12
7.868140609e-12
9.393578663e-12
1.070074537e-11
1.150512661e-11
4.167501716e-12
4.966009937e-12
6.19600282e-12
7.849121595e-12
9.869128698e-12
1.212092899e-11
1.4370811e-11
1.628559577e-11
1.745742801e-11
6.650493344e-12
7.861335984e-12
9.714623793e-12
1.218621243e-11
1.518161052e-11
1.849421364e-11
2.178018924e-11
2.455963439e-11
2.625238767e-11
1.051384208e-11
1.232753784e-11
1.508705201e-11
1.87408607e-11
2.31357918e-11
2.796116267e-11
3.271690983e-11
3.671778088e-11
3.914409679e-11
1.646556489e-11
1.915059617e-11
2.321348169e-11
2.855787463e-11
3.49426672e-11
4.190767584e-11
4.873308923e-11
5.444795375e-11
5.790109211e-11
2.554622977e-11
2.947765877e-11
3.539674251e-11
4.313672395e-11
5.232731148e-11
6.229610377e-11
7.201666523e-11
8.012250678e-11
8.500533534e-11
3.927041404e-11
4.49679085e-11
5.350729832e-11
6.461487649e-11
7.773359018e-11
9.189238095e-11
1.056392227e-10
1.170626267e-10
1.239261503e-10
5.982597419e-11
6.800542842e-11
8.021593544e-11
9.602504538e-11
1.146089091e-10
1.345792386e-10
1.538964649e-10
1.69901246e-10
1.794968029e-10
9.035504504e-11
1.019983532e-10
1.193191001e-10
1.416533997e-10
1.678000192e-10
1.95791423e-10
2.227806484e-10
2.450858062e-10
2.584353044e-10
1.353488789e-10
1.517989576e-10
1.761957056e-10
2.075423906e-10
2.441080803e-10
2.831249944e-10
3.206406656e-10
3.515791531e-10
3.700689199e-10
2.012060899e-10
2.242980043e-10
2.584539822e-10
3.022033606e-10
3.530757004e-10
4.072009641e-10
4.59115892e-10
5.018474705e-10
5.273517318e-10
2.970264456e-10
3.292721537e-10
3.768570857e-10
4.37640299e-10
5.081214777e-10
5.829123008e-10
6.54483254e-10
7.132813038e-10
7.483241606e-10
4.357463698e-10
4.806027462e-10
5.466640552e-10
6.30844842e-10
7.282087952e-10
8.312680134e-10
9.29656311e-10
1.010308399e-09
1.05828306e-09
6.35769854e-10
6.980411016e-10
7.895939152e-10
9.060136098e-10
1.04035311e-09
1.182200623e-09
1.317267904e-09
1.427684836e-09
1.493180211e-09
9.233056312e-10
1.009767018e-09
1.136716813e-09
1.297874533e-09
1.483467629e-09
1.67897879e-09
1.864633982e-09
2.015907078e-09
2.105287033e-09
1.335673525e-09
1.456063805e-09
1.632699083e-09
1.856709153e-09
2.114361243e-09
2.385333712e-09
2.642056231e-09
2.850555225e-09
2.973186277e-09
1.925883717e-09
2.094514636e-09
2.341983366e-09
2.655928617e-09
3.017154128e-09
3.397130528e-09
3.757007953e-09
4.048871349e-09
4.219958079e-09
2.768832499e-09
3.007207059e-09
3.357645892e-09
3.803366212e-09
4.317931668e-09
4.861368333e-09
5.37825578e-09
5.799030157e-09
6.046102815e-09
3.969514718e-09
4.310516381e-09
4.813816378e-09
5.457709483e-09
6.206934684e-09
7.00613127e-09
7.775348266e-09
8.409623167e-09
8.786417539e-09
5.673869854e-09
6.168238887e-09
6.902705607e-09
7.851567899e-09
8.970482917e-09
1.018473517e-08
1.137818861e-08
1.238590662e-08
1.299905293e-08
8.08358528e-09
8.809448619e-09
9.897604567e-09
1.132232426e-08
1.303313103e-08
1.493321216e-08
1.685365362e-08
1.852723137e-08
1.957953992e-08
1.147778549e-08
1.25537985e-08
1.418385655e-08
1.635083862e-08
1.90057203e-08
2.202804878e-08
2.517123393e-08
2.799703794e-08
2.983262044e-08
1.624685675e-08
1.784885104e-08
2.03004563e-08
2.360572191e-08
2.772556285e-08
3.250582616e-08
3.757134302e-08
4.219787583e-08
4.523472875e-08
2.294455463e-08
2.53239697e-08
2.899295239e-08
3.398501878e-08
4.026046974e-08
4.757020045e-08
5.525352922e-08
6.20165406e-08
6.590047177e-08
3.235782919e-08
3.585572812e-08
4.126404207e-08
4.862633783e-08
5.78203878e-08
6.8279905e-08
7.856756264e-08
8.589109926e-08
8.800106048e-08
4.556777592e-08
5.060510079e-08
5.835773147e-08
6.877994077e-08
8.140345133e-08
9.475984966e-08
1.054452113e-07
1.103176426e-07
1.109808003e-07
6.391031842e-08
7.090181484e-08
8.148753597e-08
9.524063987e-08
1.106163516e-07
1.238235989e-07
1.319581894e-07
1.352270668e-07
1.349280704e-07
8.859230777e-08
9.76584131e-08
1.108318399e-07
1.267004473e-07
1.405734606e-07
1.514105142e-07
1.582623336e-07
1.608441567e-07
1.601048649e-07
1.192957377e-07
1.295082081e-07
1.422794694e-07
1.555970009e-07
1.679334167e-07
1.780095233e-07
1.847152423e-07
1.873967504e-07
1.866731979e-07
1.49700262e-07
1.582650663e-07
1.69506077e-07
1.818857196e-07
1.939576504e-07
2.043224114e-07
2.116509936e-07
2.149734379e-07
2.146014558e-07
1.755733845e-07
1.836511592e-07
1.945769271e-07
2.0704049e-07
2.196365886e-07
2.308710072e-07
2.392289925e-07
2.434864179e-07
2.436748287e-07
1.997276989e-07
2.078841687e-07
2.190978509e-07
2.321405863e-07
2.45602951e-07
2.579120487e-07
2.674161774e-07
2.726998433e-07
2.735452082e-07
2.238982072e-07
2.323430247e-07
2.440430943e-07
2.577833007e-07
2.721310716e-07
2.854566232e-07
2.960194336e-07
3.022706062e-07
3.037780307e-07
2.489465345e-07
2.576819179e-07
2.698241266e-07
2.841478979e-07
2.991997664e-07
3.13319261e-07
3.24721251e-07
3.317767443e-07
3.33880561e-07
2.75107219e-07
2.840254351e-07
2.964355726e-07
3.111027236e-07
3.265660653e-07
3.411619473e-07
3.531013333e-07
3.607262469e-07
3.633075167e-07
3.022073487e-07
3.111492805e-07
3.235915004e-07
3.382997748e-07
3.538230077e-07
3.685202346e-07
3.806359402e-07
3.885357173e-07
3.914312819e-07
3.298262025e-07
3.386124191e-07
3.508249417e-07
3.652419249e-07
3.804360612e-07
3.948069379e-07
4.066591813e-07
4.144351903e-07
4.174271426e-07
3.573975877e-07
3.658423568e-07
3.77552603e-07
3.913264261e-07
4.057638845e-07
4.192991548e-07
4.302691331e-07
4.371182722e-07
4.390022193e-07
3.842687651e-07
3.92183604e-07
4.031101788e-07
4.158669934e-07
4.290724301e-07
4.411664771e-07
4.504425192e-07
4.551772081e-07
4.559410066e-07
4.09722351e-07
4.169093935e-07
4.267468679e-07
4.380609963e-07
4.494606959e-07
4.593512459e-07
4.657501136e-07
4.687210573e-07
4.688500988e-07
4.329468615e-07
4.391768123e-07
4.47547776e-07
4.568460088e-07
4.655271637e-07
4.722741885e-07
4.766445637e-07
4.78476315e-07
4.782215914e-07
4.528887354e-07
4.578580028e-07
4.642059427e-07
4.705939773e-07
4.764319331e-07
4.810243718e-07
4.839163233e-07
4.849071246e-07
4.843781995e-07
4.676839361e-07
4.709281531e-07
4.750725773e-07
4.793794196e-07
4.83280333e-07
4.862733354e-07
4.87992053e-07
4.882866734e-07
4.875260717e-07
4.76840993e-07
4.789405619e-07
4.816056641e-07
4.843526956e-07
4.867478237e-07
4.884262198e-07
4.891325792e-07
4.888026441e-07
4.878245927e-07
4.818871087e-07
4.83122881e-07
4.846401122e-07
4.861078039e-07
4.872223259e-07
4.877439653e-07
4.875332273e-07
4.86622073e-07
4.854324734e-07
4.835757194e-07
4.840915228e-07
4.846334297e-07
4.849853308e-07
4.849597421e-07
4.844334725e-07
4.833793955e-07
4.819250442e-07
4.805309567e-07
4.823106429e-07
4.821955983e-07
4.818750304e-07
4.812296641e-07
4.801760874e-07
4.786982083e-07
4.768733533e-07
4.749182902e-07
4.733315369e-07
4.783661413e-07
4.776908938e-07
4.766020591e-07
4.750655721e-07
4.730913582e-07
4.707599841e-07
4.682428448e-07
4.658366686e-07
4.64074377e-07
4.719867487e-07
4.708175624e-07
4.690513397e-07
4.6672954e-07
4.639449693e-07
4.608636359e-07
4.57739317e-07
4.54937977e-07
4.530217234e-07
4.634254141e-07
4.618284809e-07
4.594766087e-07
4.564775244e-07
4.529963483e-07
4.492728648e-07
4.45630997e-07
4.424946872e-07
4.404491394e-07
4.529525254e-07
4.509942488e-07
4.48148997e-07
4.445815533e-07
4.405187041e-07
4.362622676e-07
4.321940145e-07
4.287844913e-07
4.266357989e-07
4.408523291e-07
4.385981539e-07
4.353504285e-07
4.313218794e-07
4.267903864e-07
4.221081934e-07
4.177030954e-07
4.140815077e-07
4.118561977e-07
4.274147768e-07
4.249276877e-07
4.213648236e-07
4.169778864e-07
4.120857562e-07
4.07080177e-07
4.024238029e-07
3.986487979e-07
3.963726999e-07
4.129261933e-07
4.102652248e-07
4.064689597e-07
4.018196663e-07
3.96667662e-07
3.914339924e-07
3.86605922e-07
3.827321568e-07
3.804295987e-07
3.976610452e-07
3.948803063e-07
3.909254224e-07
3.861014077e-07
3.807812457e-07
3.754060258e-07
3.704784356e-07
3.665555408e-07
3.642487854e-07
3.818755228e-07
3.790234487e-07
3.749767621e-07
3.700561348e-07
3.646493479e-07
3.592093259e-07
3.542461286e-07
3.503180764e-07
3.480269652e-07
3.658026107e-07
3.62921561e-07
3.588413958e-07
3.538921706e-07
3.484695651e-07
3.430312245e-07
3.380876882e-07
3.34192505e-07
3.319342744e-07
3.496489314e-07
3.467750882e-07
3.427111644e-07
3.37791174e-07
3.324127848e-07
3.270323418e-07
3.221551031e-07
3.183248611e-07
3.161140981e-07
3.335931765e-07
3.307566868e-07
3.267503423e-07
3.219075347e-07
3.166229788e-07
3.113467497e-07
3.065741345e-07
3.028351602e-07
3.006838634e-07
3.177858813e-07
3.150111872e-07
3.110958542e-07
3.063688818e-07
3.012180083e-07
2.9608305e-07
2.914456196e-07
2.878188602e-07
2.857365796e-07
3.023502804e-07
2.996565808e-07
2.958584407e-07
2.912774511e-07
2.862911944e-07
2.813261307e-07
2.768473797e-07
2.733488751e-07
2.713429047e-07
2.873839758e-07
2.847857721e-07
2.811245209e-07
2.767120702e-07
2.719134248e-07
2.671393804e-07
2.628365209e-07
2.594779374e-07
2.575535406e-07
2.729611725e-07
2.704688543e-07
2.669585198e-07
2.627305421e-07
2.581355884e-07
2.535671661e-07
2.494519465e-07
2.462411352e-07
2.444017865e-07
2.591352553e-07
2.567556927e-07
2.534054572e-07
2.493722349e-07
2.449911618e-07
2.40637413e-07
2.367169289e-07
2.336584817e-07
2.319061101e-07
2.459415208e-07
2.436786358e-07
2.404936289e-07
2.366607238e-07
2.324988069e-07
2.283641565e-07
2.24641624e-07
2.217374045e-07
2.200726311e-07
2.333999112e-07
2.312552109e-07
2.282372456e-07
2.246063632e-07
2.206648691e-07
2.167499706e-07
2.132254399e-07
2.104750764e-07
2.088974374e-07
2.21517636e-07
2.194906945e-07
2.16638933e-07
2.132087009e-07
2.094857018e-07
2.057882049e-07
2.024592031e-07
1.998605339e-07
1.983686857e-07
2.102916009e-07
2.083804842e-07
2.056920241e-07
2.02458677e-07
1.989497655e-07
1.954649913e-07
1.923270871e-07
1.898765545e-07
1.884684574e-07
1.997105938e-07
1.979122264e-07
1.953826052e-07
1.923405741e-07
1.890394783e-07
1.85760999e-07
1.828082893e-07
1.805012809e-07
1.791743614e-07
1.897572027e-07
1.880676772e-07
1.856912981e-07
1.828337073e-07
1.797328087e-07
1.76652937e-07
1.738784587e-07
1.717095981e-07
1.704608885e-07
1.804094612e-07
1.788242938e-07
1.765947784e-07
1.739138561e-07
1.710046184e-07
1.681148127e-07
1.655108851e-07
1.634742738e-07
1.623005314e-07
1.716422287e-07
1.701565679e-07
1.680670423e-07
1.655544551e-07
1.628277741e-07
1.601189669e-07
1.57677467e-07
1.557668839e-07
1.546646912e-07
1.634283283e-07
1.620371211e-07
1.600804448e-07
1.577275625e-07
1.551740393e-07
1.526368988e-07
1.503494866e-07
1.485585501e-07
1.475243965e-07
1.557394608e-07
1.54437582e-07
1.526065244e-07
1.50404627e-07
1.480147858e-07
1.456399222e-07
1.434982154e-07
1.418205103e-07
1.408508583e-07
1.485469243e-07
1.473292752e-07
1.45616652e-07
1.43557088e-07
1.413215422e-07
1.390996645e-07
1.37095373e-07
1.355245496e-07
1.346158873e-07
1.41822169e-07
1.406837515e-07
1.390825262e-07
1.371568311e-07
1.350664056e-07
1.329884387e-07
1.311134651e-07
1.296433138e-07
1.287921952e-07
1.355372139e-07
1.344731833e-07
1.329765404e-07
1.311765211e-07
1.292223414e-07
1.272795101e-07
1.25526022e-07
1.241505282e-07
1.233536041e-07
1.296649477e-07
1.286706502e-07
1.272720449e-07
1.255898384e-07
1.237633904e-07
1.219472772e-07
1.203077582e-07
1.190211405e-07
1.182751804e-07
1.24179338e-07
1.232503339e-07
1.21943525e-07
1.203716354e-07
1.186648045e-07
1.169673862e-07
1.154346676e-07
1.142314035e-07
1.135333109e-07
1.190555659e-07
1.181876434e-07
1.169667115e-07
1.154980308e-07
1.139031236e-07
1.123167921e-07
1.108840711e-07
1.097589117e-07
1.091057339e-07
1.142701033e-07
1.134592847e-07
1.1231864e-07
1.10946457e-07
1.094562093e-07
1.079737794e-07
1.06634627e-07
1.055826037e-07
1.049715369e-07
1.098007465e-07
1.09043288e-07
1.079776701e-07
1.066956696e-07
1.053032456e-07
1.039179536e-07
1.026663135e-07
1.016827387e-07
1.0111113e-07
1.05626616e-07
1.049190038e-07
1.03923476e-07
1.027257314e-07
1.01424715e-07
1.001302108e-07
9.896039258e-08
9.804085545e-08
9.750620158e-08
1.017281328e-07
1.010670764e-07
1.001370154e-07
9.901797609e-08
9.780235802e-08
9.659269157e-08
9.549935957e-08
9.463971863e-08
9.413966322e-08
9.808697751e-08
9.74694004e-08
9.660048363e-08
9.555495993e-08
9.441912032e-08
9.328872547e-08
9.226688487e-08
9.146325808e-08
9.09955871e-08
9.468603789e-08
9.410906722e-08
9.329725833e-08
9.232040378e-08
9.125909356e-08
9.020276949e-08
8.924775012e-08
8.84965034e-08
8.805913973e-08
9.150934916e-08
9.097030487e-08
9.021183815e-08
8.929913083e-08
8.830745152e-08
8.732034303e-08
8.642778233e-08
8.572551717e-08
8.531651443e-08
8.854203045e-08
8.803841393e-08
8.732977842e-08
8.647700183e-08
8.555038492e-08
8.46279623e-08
8.379378772e-08
8.313732824e-08
8.275486424e-08
8.577021967e-08
8.529970241e-08
8.463762599e-08
8.384085002e-08
8.297503641e-08
8.211307532e-08
8.133348673e-08
8.071986665e-08
8.036223662e-08
8.318100856e-08
8.27414211e-08
8.21228549e-08
8.137841713e-08
8.056943704e-08
7.97639988e-08
7.903545119e-08
7.846190092e-08
7.812751073e-08
8.076237922e-08
8.035170042e-08
7.977380382e-08
7.907829151e-08
7.832244504e-08
7.756985761e-08
7.688904428e-08
7.635297839e-08
7.604033786e-08
7.850314299e-08
7.81194898e-08
7.7579616e-08
7.692984893e-08
7.622368753e-08
7.552052726e-08
7.488436383e-08
7.438336892e-08
7.409108532e-08
7.639288218e-08
7.603449994e-08
7.553018241e-08
7.492319645e-08
7.426350531e-08
7.360657976e-08
7.30121889e-08
7.254401209e-08
7.227078385e-08
7.442189494e-08
7.408714819e-08
7.361608778e-08
7.304911966e-08
7.243290126e-08
7.181923291e-08
7.126392994e-08
7.082646791e-08
7.057107863e-08
7.258114338e-08
7.226850742e-08
7.182856046e-08
7.129903341e-08
7.072349196e-08
7.0150303e-08
6.963158238e-08
6.922287105e-08
6.898418385e-08
7.086220555e-08
7.057025839e-08
7.015942547e-08
6.966493578e-08
6.912746281e-08
6.859216086e-08
6.810768355e-08
6.772588847e-08
6.75028406e-08
6.925723036e-08
6.898464533e-08
6.860106085e-08
6.813936542e-08
6.76375263e-08
6.713769124e-08
6.668527292e-08
6.63286802e-08
6.612027802e-08
6.775889585e-08
6.750443468e-08
6.714635725e-08
6.671536201e-08
6.624688353e-08
6.578025515e-08
6.535785528e-08
6.502486317e-08
6.483017747e-08
6.636037054e-08
6.612287704e-08
6.578868052e-08
6.538642976e-08
6.494918852e-08
6.45136552e-08
6.411936684e-08
6.380847793e-08
6.36266395e-08
6.50552778e-08
6.483367192e-08
6.452183715e-08
6.414650363e-08
6.373851542e-08
6.333210353e-08
6.296414397e-08
6.267395792e-08
6.250415344e-08
6.383766285e-08
6.363093529e-08
6.334004249e-08
6.298991828e-08
6.260932818e-08
6.223019239e-08
6.188689439e-08
6.16161012e-08
6.145756946e-08
6.270196244e-08
6.250916959e-08
6.223789132e-08
6.191137938e-08
6.155645266e-08
6.120286691e-08
6.088267071e-08
6.063004446e-08
6.048207281e-08
6.164297682e-08
6.146323617e-08
6.12103308e-08
6.090593721e-08
6.057505092e-08
6.024540011e-08
5.994684596e-08
5.971123908e-08
5.957316014e-08
6.065584398e-08
6.048832983e-08
6.025263558e-08
5.996896232e-08
5.966059752e-08
5.935336988e-08
5.907509114e-08
5.885542902e-08
5.872661764e-08
5.973601586e-08
5.957995536e-08
5.936038476e-08
5.909612312e-08
5.880885775e-08
5.852263768e-08
5.82633545e-08
5.805863059e-08
5.793850101e-08
5.887923646e-08
5.873390598e-08
5.852944077e-08
5.828336521e-08
5.80158674e-08
5.774932899e-08
5.750784242e-08
5.731711362e-08
5.720511688e-08
5.808152158e-08
5.794624338e-08
5.775592978e-08
5.752689228e-08
5.727791432e-08
5.702981525e-08
5.680500181e-08
5.662738424e-08
5.652300572e-08
5.733914024e-08
5.721327935e-08
5.703622372e-08
5.682314856e-08
5.659152118e-08
5.636069715e-08
5.615150378e-08
5.59861689e-08
5.588892606e-08
5.664859745e-08
5.653155879e-08
5.636692359e-08
5.616880251e-08
5.595342971e-08
5.573878924e-08
5.554422868e-08
5.539039958e-08
5.529983991e-08
5.600661828e-08
5.589784401e-08
5.574484409e-08
5.556073184e-08
5.536058601e-08
5.516110567e-08
5.498025211e-08
5.483720021e-08
5.475289925e-08
5.541013319e-08
5.530910026e-08
5.51669994e-08
5.499600959e-08
5.481012702e-08
5.462484698e-08
5.445683207e-08
5.432387394e-08
5.42454335e-08
5.485626439e-08
5.476248226e-08
5.463058999e-08
5.447189123e-08
5.429936801e-08
5.412738789e-08
5.397139703e-08
5.384789151e-08
5.377493801e-08
5.434231326e-08
5.42553218e-08
5.413299039e-08
5.398580277e-08
5.382579086e-08
5.366626593e-08
5.352153485e-08
5.340688034e-08
5.33390632e-08
5.386574864e-08
5.378511616e-08
5.367173791e-08
5.353532966e-08
5.338703337e-08
5.323917098e-08
5.310498249e-08
5.299861445e-08
5.29356047e-08
5.342419601e-08
5.334951744e-08
5.324452212e-08
5.311820657e-08
5.298087919e-08
5.284393548e-08
5.271961651e-08
5.262100514e-08
5.256249402e-08
5.301542742e-08
5.294632263e-08
5.28491751e-08
5.27323078e-08
5.260524853e-08
5.247852536e-08
5.23634442e-08
5.227209224e-08
5.221779e-08
5.263735217e-08
5.257346439e-08
5.248366238e-08
5.237563847e-08
5.225818956e-08
5.214103163e-08
5.203459538e-08
5.195003612e-08
5.189967081e-08
5.228800814e-08
5.222900251e-08
5.214607459e-08
5.204632634e-08
5.193787038e-08
5.182966264e-08
5.173131476e-08
5.165311016e-08
5.160642658e-08
5.196555374e-08
5.191111597e-08
5.183461965e-08
5.174261417e-08
5.164257165e-08
5.15427368e-08
5.145195497e-08
5.137969392e-08
5.13364526e-08
5.166826052e-08
5.161809561e-08
5.154761559e-08
5.146285272e-08
5.137067975e-08
5.127867598e-08
5.119497001e-08
5.112826675e-08
5.108824303e-08
5.139450629e-08
5.13483374e-08
5.128348391e-08
5.120549429e-08
5.112068049e-08
5.10359994e-08
5.095890938e-08
5.089740201e-08
5.086038518e-08
5.11427688e-08
5.110033619e-08
5.104074356e-08
5.096908682e-08
5.089115338e-08
5.081331807e-08
5.074241264e-08
5.06857618e-08
5.065155437e-08
5.091162004e-08
5.087268008e-08
5.081800535e-08
5.075226855e-08
5.068076648e-08
5.060932985e-08
5.054420464e-08
5.049209232e-08
5.046050927e-08
5.069972103e-08
5.066404538e-08
5.061396709e-08
5.05537632e-08
5.048827181e-08
5.042281499e-08
5.036309132e-08
5.031521975e-08
5.028608796e-08
5.050581723e-08
5.047319203e-08
5.042740919e-08
5.037237586e-08
5.031250138e-08
5.025263243e-08
5.019795607e-08
5.015404686e-08
5.012720462e-08
5.03287346e-08
5.029895985e-08
5.025719097e-08
5.020698946e-08
5.01523639e-08
5.009771671e-08
5.004775695e-08
5.000755037e-08
4.998284691e-08
5.01673763e-08
5.014026531e-08
5.010224772e-08
5.005656204e-08
5.000684228e-08
4.995707571e-08
4.991152462e-08
4.987477902e-08
4.985207428e-08
5.00207202e-08
4.999609917e-08
4.996158845e-08
4.992012474e-08
4.987499194e-08
4.982978925e-08
4.978836124e-08
4.975485277e-08
4.973401719e-08
4.988781721e-08
4.986552504e-08
4.983429471e-08
4.979678088e-08
4.975594016e-08
4.971500879e-08
4.967744043e-08
4.964696296e-08
4.96278775e-08
4.976779068e-08
4.974767884e-08
4.971952031e-08
4.968570606e-08
4.964888653e-08
4.961195821e-08
4.957800846e-08
4.955037382e-08
4.953293013e-08
4.965983687e-08
4.96417696e-08
4.961649237e-08
4.958614951e-08
4.955310475e-08
4.95199361e-08
4.94893869e-08
4.946442542e-08
4.944852621e-08
4.95632268e-08
4.954708143e-08
4.952451371e-08
4.949743695e-08
4.946794596e-08
4.943831951e-08
4.941097688e-08
4.938853833e-08
4.937409795e-08
4.947730955e-08
4.946297718e-08
4.944296684e-08
4.941897502e-08
4.939284373e-08
4.936656956e-08
4.934226516e-08
4.932222012e-08
4.930916539e-08
4.940151735e-08
4.93889038e-08
4.937131976e-08
4.935025769e-08
4.932732101e-08
4.930423901e-08
4.928283236e-08
4.9265074e-08
4.925334534e-08
4.933537251e-08
4.93243996e-08
4.930913376e-08
4.929087462e-08
4.927099927e-08
4.925098204e-08
4.92323633e-08
4.921680972e-08
4.92063625e-08
4.92784965e-08
4.926910376e-08
4.925607341e-08
4.92405218e-08
4.922360977e-08
4.920656634e-08
4.919065977e-08
4.917725685e-08
4.916806308e-08
4.923062123e-08
4.922276792e-08
4.921191878e-08
4.919901449e-08
4.918500736e-08
4.91708876e-08
4.915765575e-08
4.914638045e-08
4.913843074e-08
4.919160261e-08
4.918527026e-08
4.917658006e-08
4.916630255e-08
4.915518649e-08
4.914398629e-08
4.913343483e-08
4.912429909e-08
4.911760486e-08
4.916143643e-08
4.91566317e-08
4.915011433e-08
4.914248793e-08
4.913429949e-08
4.912606672e-08
4.911824992e-08
4.911130497e-08
4.91059009e-08
4.914027627e-08
4.913703426e-08
4.913274451e-08
4.912784413e-08
4.912267672e-08
4.911751779e-08
4.911254449e-08
4.910788553e-08
4.910383221e-08
4.912845324e-08
4.912684106e-08
4.912487974e-08
4.912283724e-08
4.912084809e-08
4.911893496e-08
4.911697501e-08
4.911474619e-08
4.911213285e-08
4.912649691e-08
4.912661753e-08
4.912713692e-08
4.912814774e-08
4.912956519e-08
4.913114271e-08
4.91324335e-08
4.913283298e-08
4.913178026e-08
4.913515675e-08
4.913715289e-08
4.914036229e-08
4.914469214e-08
4.914982302e-08
4.915521623e-08
4.916006929e-08
4.916335422e-08
4.916401694e-08
4.915542301e-08
4.915948099e-08
4.91656521e-08
4.917364353e-08
4.918288015e-08
4.919250129e-08
4.92013085e-08
4.920779986e-08
4.921036962e-08
4.91885459e-08
4.919489915e-08
4.920437105e-08
4.921644928e-08
4.92302759e-08
4.924463071e-08
4.925787002e-08
4.9267957e-08
4.927266481e-08
4.923605157e-08
4.924498364e-08
4.925816689e-08
4.927484482e-08
4.92938429e-08
4.931353595e-08
4.933177626e-08
4.934592043e-08
4.935303928e-08
4.929975341e-08
4.931160008e-08
4.932897976e-08
4.935086149e-08
4.937571366e-08
4.94014524e-08
4.942535769e-08
4.944409686e-08
4.945394461e-08
4.938175697e-08
4.939690741e-08
4.941904463e-08
4.944682735e-08
4.947831955e-08
4.951091705e-08
4.954124984e-08
4.956520212e-08
4.957814528e-08
4.948445721e-08
4.950335382e-08
4.953088555e-08
4.956535948e-08
4.960438151e-08
4.964475801e-08
4.968238259e-08
4.971225153e-08
4.972871052e-08
4.961052673e-08
4.963366367e-08
4.966730082e-08
4.970934737e-08
4.975689187e-08
4.980607581e-08
4.985196235e-08
4.988854426e-08
4.990900151e-08
4.976289469e-08
4.979081511e-08
4.983133904e-08
4.988192753e-08
4.99390883e-08
4.999821792e-08
5.005344895e-08
5.009764448e-08
5.012265705e-08
4.994471653e-08
4.99780089e-08
5.002626692e-08
5.00864508e-08
5.015442176e-08
5.022474928e-08
5.029053111e-08
5.034336367e-08
5.037358248e-08
5.015933619e-08
5.019863031e-08
5.025553132e-08
5.032644548e-08
5.040652254e-08
5.048942361e-08
5.056710589e-08
5.062975062e-08
5.066594931e-08
5.041024388e-08
5.045620767e-08
5.052271953e-08
5.060558109e-08
5.069916992e-08
5.079616235e-08
5.088727032e-08
5.096109792e-08
5.100421467e-08
5.070103428e-08
5.075437281e-08
5.083152386e-08
5.092763967e-08
5.103627356e-08
5.114904998e-08
5.125533466e-08
5.134197541e-08
5.139317173e-08
5.10353717e-08
5.109683059e-08
5.118571831e-08
5.129650318e-08