/*--------------------------------*- C++ -*----------------------------------*\
| =========                 |                                                 |
| \\      /  F ield         | OpenFOAM: The Open Source CFD Toolbox           |
|  \\    /   O peration     | Version:  2212                                  |
|   \\  /    A nd           | Website:  www.openfoam.com                      |
|    \\/     M anipulation  |                                                 |
\*---------------------------------------------------------------------------*/
FoamFile
{
    version     2.0;
    format      ascii;
    arch        "LSB;label=32;scalar=64";
    class       volScalarField;
    location    "2.75000000";
    object      p_0;
}
// * * * * * * * * * * * * * * * * * * * * * * * * * * * * * * * * * * * * * //

dimensions      [1 -1 -2 0 0 0 0];

internalField   nonuniform List<scalar> 
3000
(
5000.347193
5000.34723
5000.347318
5000.347442
5000.347646
5000.347918
5000.348431
5000.348969
5000.350804
5000.347161
5000.347172
5000.347221
5000.347278
5000.347362
5000.347439
5000.347599
5000.347625
5000.347814
5000.347101
5000.347105
5000.347148
5000.347191
5000.347253
5000.347319
5000.347406
5000.34741
5000.34748
5000.34691
5000.346894
5000.346908
5000.34691
5000.346922
5000.346918
5000.346925
5000.346896
5000.34686
5000.346738
5000.346718
5000.346724
5000.346718
5000.346718
5000.346711
5000.346709
5000.346687
5000.346657
5000.346511
5000.346489
5000.346486
5000.346472
5000.346462
5000.346448
5000.346436
5000.346419
5000.346393
5000.346312
5000.346293
5000.346289
5000.346276
5000.346267
5000.346256
5000.346247
5000.346235
5000.346217
5000.346103
5000.346087
5000.346082
5000.346071
5000.346063
5000.346054
5000.346046
5000.346038
5000.346026
5000.345914
5000.345901
5000.345898
5000.345889
5000.345883
5000.345877
5000.345872
5000.345866
5000.345858
5000.345727
5000.345717
5000.345715
5000.345708
5000.345704
5000.3457
5000.345696
5000.345692
5000.345687
5000.34555
5000.345543
5000.345542
5000.345537
5000.345534
5000.345531
5000.345529
5000.345526
5000.345522
5000.345378
5000.345372
5000.345371
5000.345368
5000.345366
5000.345364
5000.345362
5000.345361
5000.345358
5000.34521
5000.345206
5000.345205
5000.345203
5000.345202
5000.345201
5000.345199
5000.345198
5000.345196
5000.345044
5000.345042
5000.345041
5000.34504
5000.345039
5000.345038
5000.345037
5000.345036
5000.345035
5000.344881
5000.344879
5000.344879
5000.344878
5000.344878
5000.344877
5000.344877
5000.344876
5000.344875
5000.34472
5000.344718
5000.344718
5000.344718
5000.344717
5000.344717
5000.344716
5000.344716
5000.344715
5000.344559
5000.344558
5000.344558
5000.344558
5000.344558
5000.344557
5000.344557
5000.344557
5000.344556
5000.344399
5000.344399
5000.344399
5000.344398
5000.344398
5000.344398
5000.344398
5000.344398
5000.344397
5000.34424
5000.34424
5000.34424
5000.34424
5000.344239
5000.344239
5000.344239
5000.344239
5000.344239
5000.344081
5000.344081
5000.344081
5000.344081
5000.344081
5000.344081
5000.344081
5000.344081
5000.34408
5000.343923
5000.343923
5000.343923
5000.343923
5000.343923
5000.343922
5000.343922
5000.343922
5000.343922
5000.343765
5000.343764
5000.343764
5000.343764
5000.343764
5000.343764
5000.343764
5000.343764
5000.343764
5000.343606
5000.343606
5000.343606
5000.343606
5000.343606
5000.343606
5000.343606
5000.343606
5000.343606
5000.343448
5000.343448
5000.343448
5000.343448
5000.343448
5000.343448
5000.343448
5000.343448
5000.343448
5000.34329
5000.34329
5000.34329
5000.34329
5000.34329
5000.34329
5000.34329
5000.34329
5000.34329
5000.343132
5000.343132
5000.343132
5000.343132
5000.343132
5000.343132
5000.343132
5000.343132
5000.343131
5000.342973
5000.342973
5000.342973
5000.342973
5000.342974
5000.342974
5000.342973
5000.342973
5000.342973
5000.342814
5000.342814
5000.342814
5000.342815
5000.342815
5000.342815
5000.342815
5000.342815
5000.342813
5000.342654
5000.342655
5000.342655
5000.342655
5000.342656
5000.342656
5000.342655
5000.342655
5000.342654
5000.342494
5000.342494
5000.342495
5000.342495
5000.342496
5000.342496
5000.342495
5000.342495
5000.342493
5000.342332
5000.342332
5000.342333
5000.342334
5000.342334
5000.342335
5000.342334
5000.342334
5000.34233
5000.342168
5000.342169
5000.34217
5000.342171
5000.342171
5000.342172
5000.342171
5000.34217
5000.342166
5000.342002
5000.342003
5000.342004
5000.342005
5000.342006
5000.342007
5000.342005
5000.342005
5000.341998
5000.341833
5000.341833
5000.341835
5000.341837
5000.341838
5000.341838
5000.341836
5000.341836
5000.341827
5000.341659
5000.34166
5000.341662
5000.341664
5000.341665
5000.341666
5000.341663
5000.341662
5000.341651
5000.34148
5000.341481
5000.341484
5000.341486
5000.341487
5000.341488
5000.341485
5000.341483
5000.341469
5000.341295
5000.341296
5000.341299
5000.341301
5000.341302
5000.341303
5000.341299
5000.341297
5000.34128
5000.341102
5000.341103
5000.341106
5000.341108
5000.34111
5000.34111
5000.341104
5000.341101
5000.341081
5000.340899
5000.3409
5000.340903
5000.340906
5000.340907
5000.340906
5000.3409
5000.340896
5000.340871
5000.340685
5000.340686
5000.340689
5000.340691
5000.340692
5000.34069
5000.340683
5000.340677
5000.340649
5000.340457
5000.340458
5000.340461
5000.340463
5000.340463
5000.340461
5000.340451
5000.340444
5000.340411
5000.340214
5000.340215
5000.340218
5000.340219
5000.340218
5000.340214
5000.340202
5000.340194
5000.340156
5000.339953
5000.339953
5000.339956
5000.339956
5000.339954
5000.339948
5000.339935
5000.339924
5000.339881
5000.339673
5000.339672
5000.339674
5000.339673
5000.339669
5000.339661
5000.339645
5000.339632
5000.339584
5000.339369
5000.339368
5000.339368
5000.339366
5000.33936
5000.33935
5000.339331
5000.339316
5000.339263
5000.33904
5000.339038
5000.339037
5000.339033
5000.339024
5000.339012
5000.33899
5000.338973
5000.338915
5000.338683
5000.33868
5000.338677
5000.338671
5000.33866
5000.338645
5000.33862
5000.3386
5000.338537
5000.338296
5000.338292
5000.338287
5000.338278
5000.338264
5000.338246
5000.338218
5000.338196
5000.338128
5000.337876
5000.33787
5000.337863
5000.337851
5000.337834
5000.337813
5000.337782
5000.337757
5000.337685
5000.33742
5000.337412
5000.337403
5000.337388
5000.337368
5000.337343
5000.337309
5000.337282
5000.337206
5000.336926
5000.336917
5000.336904
5000.336887
5000.336863
5000.336835
5000.336799
5000.336769
5000.336689
5000.336392
5000.336381
5000.336366
5000.336345
5000.336318
5000.336287
5000.336248
5000.336216
5000.336133
5000.335816
5000.335804
5000.335785
5000.335761
5000.335732
5000.335698
5000.335655
5000.335621
5000.335536
5000.335196
5000.335182
5000.335161
5000.335134
5000.335101
5000.335064
5000.335019
5000.334983
5000.334896
5000.334531
5000.334516
5000.334492
5000.334462
5000.334427
5000.334387
5000.33434
5000.334302
5000.334213
5000.33382
5000.333803
5000.333777
5000.333745
5000.333706
5000.333664
5000.333615
5000.333575
5000.333486
5000.333062
5000.333044
5000.333016
5000.332981
5000.33294
5000.332895
5000.332845
5000.332804
5000.332714
5000.332257
5000.332238
5000.332207
5000.33217
5000.332127
5000.332081
5000.33203
5000.331987
5000.331897
5000.331404
5000.331384
5000.331352
5000.331313
5000.331268
5000.33122
5000.331168
5000.331124
5000.331035
5000.330504
5000.330483
5000.330449
5000.330409
5000.330363
5000.330314
5000.330261
5000.330216
5000.330128
5000.329556
5000.329534
5000.3295
5000.329459
5000.329412
5000.329361
5000.329308
5000.329264
5000.329176
5000.328562
5000.32854
5000.328505
5000.328463
5000.328415
5000.328364
5000.328311
5000.328266
5000.32818
5000.327523
5000.3275
5000.327464
5000.327422
5000.327373
5000.327322
5000.32727
5000.327225
5000.327141
5000.326438
5000.326416
5000.32638
5000.326337
5000.326288
5000.326238
5000.326185
5000.326141
5000.326059
5000.32531
5000.325288
5000.325252
5000.325209
5000.325161
5000.32511
5000.325059
5000.325015
5000.324935
5000.32414
5000.324118
5000.324082
5000.32404
5000.323992
5000.323942
5000.323891
5000.323848
5000.323771
5000.322929
5000.322907
5000.322872
5000.32283
5000.322783
5000.322734
5000.322684
5000.322642
5000.322567
5000.321679
5000.321657
5000.321622
5000.321581
5000.321535
5000.321487
5000.321438
5000.321397
5000.321325
5000.32039
5000.320369
5000.320335
5000.320295
5000.32025
5000.320203
5000.320155
5000.320115
5000.320046
5000.319066
5000.319045
5000.319012
5000.318973
5000.318929
5000.318883
5000.318837
5000.318798
5000.318732
5000.317706
5000.317686
5000.317654
5000.317616
5000.317573
5000.317529
5000.317484
5000.317447
5000.317384
5000.316314
5000.316294
5000.316263
5000.316226
5000.316185
5000.316142
5000.316099
5000.316063
5000.316003
5000.31489
5000.314871
5000.314841
5000.314805
5000.314765
5000.314724
5000.314683
5000.314648
5000.314591
5000.313436
5000.313418
5000.313389
5000.313354
5000.313316
5000.313276
5000.313237
5000.313204
5000.313149
5000.311953
5000.311936
5000.311908
5000.311875
5000.311838
5000.3118
5000.311762
5000.311731
5000.311679
5000.310444
5000.310427
5000.3104
5000.310369
5000.310333
5000.310297
5000.310261
5000.310231
5000.310182
5000.308909
5000.308893
5000.308867
5000.308837
5000.308803
5000.308768
5000.308734
5000.308705
5000.308659
5000.30735
5000.307335
5000.30731
5000.307281
5000.307249
5000.307216
5000.307183
5000.307156
5000.307112
5000.305768
5000.305754
5000.30573
5000.305703
5000.305672
5000.30564
5000.305609
5000.305583
5000.305542
5000.304165
5000.304151
5000.304129
5000.304103
5000.304074
5000.304043
5000.304014
5000.30399
5000.303951
5000.302542
5000.302529
5000.302508
5000.302483
5000.302455
5000.302426
5000.302398
5000.302375
5000.302339
5000.3009
5000.300888
5000.300868
5000.300844
5000.300818
5000.30079
5000.300764
5000.300742
5000.300708
5000.299241
5000.299229
5000.29921
5000.299187
5000.299162
5000.299137
5000.299111
5000.299091
5000.299059
5000.297565
5000.297554
5000.297536
5000.297514
5000.29749
5000.297466
5000.297442
5000.297423
5000.297393
5000.295873
5000.295863
5000.295846
5000.295825
5000.295803
5000.295779
5000.295757
5000.295739
5000.295711
5000.294167
5000.294157
5000.294141
5000.294122
5000.2941
5000.294078
5000.294057
5000.29404
5000.294014
5000.292447
5000.292438
5000.292423
5000.292404
5000.292384
5000.292363
5000.292343
5000.292327
5000.292304
5000.290715
5000.290706
5000.290691
5000.290674
5000.290655
5000.290635
5000.290617
5000.290602
5000.29058
5000.28897
5000.288962
5000.288948
5000.288932
5000.288914
5000.288895
5000.288878
5000.288864
5000.288844
5000.287215
5000.287207
5000.287194
5000.287178
5000.287161
5000.287144
5000.287128
5000.287115
5000.287096
5000.285449
5000.285442
5000.285429
5000.285415
5000.285399
5000.285383
5000.285368
5000.285356
5000.285338
5000.283674
5000.283667
5000.283655
5000.283642
5000.283627
5000.283612
5000.283598
5000.283587
5000.28357
5000.28189
5000.281883
5000.281873
5000.28186
5000.281846
5000.281832
5000.281819
5000.281809
5000.281794
5000.280098
5000.280092
5000.280082
5000.28007
5000.280057
5000.280044
5000.280032
5000.280022
5000.280009
5000.278298
5000.278293
5000.278284
5000.278273
5000.278261
5000.278249
5000.278237
5000.278229
5000.278216
5000.276492
5000.276487
5000.276479
5000.276468
5000.276457
5000.276446
5000.276436
5000.276428
5000.276416
5000.27468
5000.274675
5000.274667
5000.274658
5000.274648
5000.274638
5000.274628
5000.274621
5000.27461
5000.272862
5000.272858
5000.272851
5000.272842
5000.272833
5000.272823
5000.272814
5000.272808
5000.272798
5000.271039
5000.271035
5000.271029
5000.271021
5000.271012
5000.271004
5000.270996
5000.27099
5000.270981
5000.269212
5000.269208
5000.269202
5000.269195
5000.269187
5000.269179
5000.269172
5000.269167
5000.269159
5000.26738
5000.267377
5000.267372
5000.267365
5000.267358
5000.267351
5000.267344
5000.267339
5000.267332
5000.265545
5000.265542
5000.265537
5000.265531
5000.265525
5000.265519
5000.265513
5000.265508
5000.265501
5000.263707
5000.263704
5000.2637
5000.263694
5000.263688
5000.263683
5000.263677
5000.263673
5000.263667
5000.261866
5000.261863
5000.261859
5000.261854
5000.261849
5000.261844
5000.261839
5000.261835
5000.26183
5000.260022
5000.260019
5000.260016
5000.260012
5000.260007
5000.260002
5000.259998
5000.259995
5000.25999
5000.258175
5000.258174
5000.25817
5000.258167
5000.258162
5000.258158
5000.258155
5000.258152
5000.258147
5000.256327
5000.256326
5000.256323
5000.256319
5000.256316
5000.256312
5000.256309
5000.256306
5000.256302
5000.254477
5000.254476
5000.254473
5000.25447
5000.254467
5000.254464
5000.254461
5000.254459
5000.254455
5000.252626
5000.252625
5000.252622
5000.25262
5000.252617
5000.252614
5000.252612
5000.25261
5000.252606
5000.250773
5000.250772
5000.25077
5000.250768
5000.250766
5000.250763
5000.250761
5000.250759
5000.250756
5000.248919
5000.248918
5000.248917
5000.248915
5000.248913
5000.248911
5000.248909
5000.248907
5000.248904
5000.247064
5000.247064
5000.247062
5000.247061
5000.247059
5000.247057
5000.247055
5000.247054
5000.247051
5000.245209
5000.245208
5000.245207
5000.245205
5000.245204
5000.245202
5000.245201
5000.245199
5000.245197
5000.243352
5000.243351
5000.24335
5000.243349
5000.243348
5000.243347
5000.243345
5000.243344
5000.243342
5000.241495
5000.241494
5000.241493
5000.241492
5000.241491
5000.24149
5000.241489
5000.241488
5000.241486
5000.239637
5000.239637
5000.239636
5000.239635
5000.239634
5000.239633
5000.239632
5000.239631
5000.23963
5000.237779
5000.237778
5000.237778
5000.237777
5000.237776
5000.237776
5000.237775
5000.237774
5000.237773
5000.23592
5000.23592
5000.235919
5000.235919
5000.235918
5000.235918
5000.235917
5000.235916
5000.235915
5000.234061
5000.234061
5000.234061
5000.23406
5000.23406
5000.234059
5000.234058
5000.234058
5000.234057
5000.232202
5000.232202
5000.232201
5000.232201
5000.232201
5000.2322
5000.2322
5000.232199
5000.232198
5000.230342
5000.230342
5000.230342
5000.230342
5000.230341
5000.230341
5000.230341
5000.23034
5000.230339
5000.228483
5000.228482
5000.228482
5000.228482
5000.228482
5000.228482
5000.228481
5000.228481
5000.22848
5000.226623
5000.226623
5000.226622
5000.226622
5000.226622
5000.226622
5000.226622
5000.226621
5000.226621
5000.224763
5000.224763
5000.224762
5000.224762
5000.224762
5000.224762
5000.224762
5000.224762
5000.224761
5000.222902
5000.222902
5000.222902
5000.222902
5000.222902
5000.222902
5000.222902
5000.222902
5000.222901
5000.221042
5000.221042
5000.221042
5000.221042
5000.221042
5000.221042
5000.221042
5000.221042
5000.221041
5000.219182
5000.219182
5000.219182
5000.219182
5000.219182
5000.219182
5000.219182
5000.219182
5000.219181
5000.217322
5000.217322
5000.217322
5000.217322
5000.217322
5000.217322
5000.217322
5000.217322
5000.217321
5000.215461
5000.215461
5000.215461
5000.215462
5000.215462
5000.215462
5000.215462
5000.215462
5000.215461
5000.213601
5000.213601
5000.213601
5000.213601
5000.213601
5000.213601
5000.213601
5000.213601
5000.213601
5000.211741
5000.211741
5000.211741
5000.211741
5000.211741
5000.211741
5000.211741
5000.211741
5000.211741
5000.20988
5000.20988
5000.209881
5000.209881
5000.209881
5000.209881
5000.209881
5000.209881
5000.209881
5000.20802
5000.20802
5000.20802
5000.208021
5000.208021
5000.208021
5000.208021
5000.208021
5000.208021
5000.20616
5000.20616
5000.20616
5000.20616
5000.206161
5000.206161
5000.206161
5000.206161
5000.206161
5000.2043
5000.2043
5000.2043
5000.2043
5000.2043
5000.204301
5000.204301
5000.204301
5000.204301
5000.20244
5000.20244
5000.20244
5000.20244
5000.20244
5000.202441
5000.202441
5000.202441
5000.202441
5000.20058
5000.20058
5000.20058
5000.20058
5000.20058
5000.200581
5000.200581
5000.200581
5000.200581
5000.19872
5000.19872
5000.19872
5000.19872
5000.19872
5000.198721
5000.198721
5000.198721
5000.198721
5000.19686
5000.19686
5000.19686
5000.196861
5000.196861
5000.196861
5000.196861
5000.196861
5000.196861
5000.195
5000.195
5000.195001
5000.195001
5000.195001
5000.195001
5000.195001
5000.195001
5000.195001
5000.193141
5000.193141
5000.193141
5000.193141
5000.193141
5000.193141
5000.193142
5000.193142
5000.193142
5000.191281
5000.191281
5000.191281
5000.191282
5000.191282
5000.191282
5000.191282
5000.191282
5000.191282
5000.189422
5000.189422
5000.189422
5000.189422
5000.189422
5000.189422
5000.189423
5000.189423
5000.189423
5000.187563
5000.187563
5000.187563
5000.187563
5000.187563
5000.187563
5000.187563
5000.187563
5000.187563
5000.185703
5000.185703
5000.185703
5000.185704
5000.185704
5000.185704
5000.185704
5000.185704
5000.185704
5000.183844
5000.183844
5000.183844
5000.183844
5000.183845
5000.183845
5000.183845
5000.183845
5000.183845
5000.181985
5000.181985
5000.181985
5000.181985
5000.181986
5000.181986
5000.181986
5000.181986
5000.181986
5000.180126
5000.180126
5000.180126
5000.180126
5000.180127
5000.180127
5000.180127
5000.180127
5000.180127
5000.178267
5000.178267
5000.178268
5000.178268
5000.178268
5000.178268
5000.178268
5000.178268
5000.178268
5000.176409
5000.176409
5000.176409
5000.176409
5000.176409
5000.176409
5000.176409
5000.176409
5000.17641
5000.17455
5000.17455
5000.17455
5000.17455
5000.17455
5000.174551
5000.174551
5000.174551
5000.174551
5000.172691
5000.172691
5000.172692
5000.172692
5000.172692
5000.172692
5000.172692
5000.172692
5000.172692
5000.170833
5000.170833
5000.170833
5000.170833
5000.170833
5000.170834
5000.170834
5000.170834
5000.170834
5000.168975
5000.168975
5000.168975
5000.168975
5000.168975
5000.168975
5000.168975
5000.168975
5000.168975
5000.167116
5000.167116
5000.167116
5000.167117
5000.167117
5000.167117
5000.167117
5000.167117
5000.167117
5000.165258
5000.165258
5000.165258
5000.165258
5000.165259
5000.165259
5000.165259
5000.165259
5000.165259
5000.1634
5000.1634
5000.1634
5000.1634
5000.1634
5000.163401
5000.163401
5000.163401
5000.163401
5000.161542
5000.161542
5000.161542
5000.161542
5000.161542
5000.161542
5000.161543
5000.161543
5000.161543
5000.159684
5000.159684
5000.159684
5000.159684
5000.159684
5000.159685
5000.159685
5000.159685
5000.159685
5000.157826
5000.157826
5000.157826
5000.157826
5000.157827
5000.157827
5000.157827
5000.157827
5000.157827
5000.155968
5000.155968
5000.155969
5000.155969
5000.155969
5000.155969
5000.155969
5000.155969
5000.155969
5000.154111
5000.154111
5000.154111
5000.154111
5000.154111
5000.154111
5000.154111
5000.154111
5000.154111
5000.152253
5000.152253
5000.152253
5000.152253
5000.152253
5000.152253
5000.152253
5000.152254
5000.152254
5000.150395
5000.150395
5000.150396
5000.150396
5000.150396
5000.150396
5000.150396
5000.150396
5000.150396
5000.148538
5000.148538
5000.148538
5000.148538
5000.148538
5000.148538
5000.148538
5000.148538
5000.148538
5000.14668
5000.14668
5000.14668
5000.146681
5000.146681
5000.146681
5000.146681
5000.146681
5000.146681
5000.144823
5000.144823
5000.144823
5000.144823
5000.144823
5000.144823
5000.144823
5000.144823
5000.144823
5000.142965
5000.142965
5000.142966
5000.142966
5000.142966
5000.142966
5000.142966
5000.142966
5000.142966
5000.141108
5000.141108
5000.141108
5000.141108
5000.141108
5000.141108
5000.141108
5000.141108
5000.141108
5000.139251
5000.139251
5000.139251
5000.139251
5000.139251
5000.139251
5000.139251
5000.139251
5000.139251
5000.137393
5000.137393
5000.137393
5000.137394
5000.137394
5000.137394
5000.137394
5000.137394
5000.137394
5000.135536
5000.135536
5000.135536
5000.135536
5000.135536
5000.135536
5000.135536
5000.135536
5000.135536
5000.133679
5000.133679
5000.133679
5000.133679
5000.133679
5000.133679
5000.133679
5000.133679
5000.133679
5000.131822
5000.131822
5000.131822
5000.131822
5000.131822
5000.131822
5000.131822
5000.131822
5000.131822
5000.129965
5000.129965
5000.129965
5000.129965
5000.129965
5000.129965
5000.129965
5000.129965
5000.129965
5000.128107
5000.128107
5000.128107
5000.128107
5000.128107
5000.128108
5000.128108
5000.128108
5000.128108
5000.12625
5000.12625
5000.12625
5000.12625
5000.12625
5000.12625
5000.12625
5000.12625
5000.12625
5000.124393
5000.124393
5000.124393
5000.124393
5000.124393
5000.124393
5000.124393
5000.124393
5000.124393
5000.122536
5000.122536
5000.122536
5000.122536
5000.122536
5000.122536
5000.122536
5000.122536
5000.122536
5000.120679
5000.120679
5000.120679
5000.120679
5000.120679
5000.120679
5000.120679
5000.120679
5000.120679
5000.118822
5000.118822
5000.118822
5000.118822
5000.118822
5000.118822
5000.118822
5000.118822
5000.118822
5000.116965
5000.116965
5000.116965
5000.116965
5000.116965
5000.116965
5000.116965
5000.116965
5000.116965
5000.115108
5000.115108
5000.115108
5000.115108
5000.115108
5000.115108
5000.115108
5000.115108
5000.115108
5000.113251
5000.113251
5000.113251
5000.113251
5000.113251
5000.113251
5000.113251
5000.113251
5000.113251
5000.111394
5000.111394
5000.111394
5000.111394
5000.111394
5000.111394
5000.111394
5000.111394
5000.111394
5000.109537
5000.109537
5000.109537
5000.109537
5000.109537
5000.109537
5000.109537
5000.109537
5000.109537
5000.10768
5000.10768
5000.10768
5000.10768
5000.10768
5000.10768
5000.10768
5000.10768
5000.107681
5000.105823
5000.105823
5000.105823
5000.105823
5000.105823
5000.105823
5000.105824
5000.105824
5000.105824
5000.103966
5000.103966
5000.103966
5000.103967
5000.103967
5000.103967
5000.103967
5000.103967
5000.103968
5000.10211
5000.10211
5000.10211
5000.10211
5000.10211
5000.102111
5000.102111
5000.102111
5000.102112
5000.100254
5000.100254
5000.100254
5000.100254
5000.100255
5000.100255
5000.100255
5000.100256
5000.100257
5000.098399
5000.098399
5000.098399
5000.098399
5000.098399
5000.0984
5000.0984
5000.098401
5000.098402
5000.096544
5000.096544
5000.096544
5000.096544
5000.096544
5000.096545
5000.096546
5000.096546
5000.096548
5000.09469
5000.09469
5000.09469
5000.09469
5000.09469
5000.094691
5000.094692
5000.094693
5000.094695
5000.092837
5000.092837
5000.092837
5000.092837
5000.092838
5000.092838
5000.092839
5000.092841
5000.092843
5000.090985
5000.090985
5000.090985
5000.090986
5000.090986
5000.090987
5000.090988
5000.09099
5000.090993
5000.089135
5000.089135
5000.089136
5000.089136
5000.089137
5000.089138
5000.089139
5000.089141
5000.089145
5000.087288
5000.087288
5000.087288
5000.087288
5000.087289
5000.08729
5000.087292
5000.087295
5000.0873
5000.085443
5000.085443
5000.085443
5000.085444
5000.085445
5000.085446
5000.085448
5000.085451
5000.085457
5000.083601
5000.083601
5000.083602
5000.083602
5000.083603
5000.083605
5000.083608
5000.083611
5000.083619
5000.081764
5000.081764
5000.081764
5000.081765
5000.081766
5000.081768
5000.081771
5000.081775
5000.081784
5000.079931
5000.079931
5000.079931
5000.079932
5000.079933
5000.079936
5000.07994
5000.079944
5000.079955
5000.078103
5000.078104
5000.078104
5000.078105
5000.078107
5000.078109
5000.078114
5000.078119
5000.078132
5000.076283
5000.076283
5000.076283
5000.076284
5000.076286
5000.07629
5000.076295
5000.076301
5000.076315
5000.074469
5000.07447
5000.07447
5000.074471
5000.074474
5000.074477
5000.074483
5000.07449
5000.074507
5000.072665
5000.072665
5000.072666
5000.072667
5000.07267
5000.072674
5000.07268
5000.072688
5000.072707
5000.07087
5000.07087
5000.070871
5000.070872
5000.070875
5000.07088
5000.070888
5000.070897
5000.070918
5000.069086
5000.069086
5000.069087
5000.069089
5000.069092
5000.069098
5000.069106
5000.069116
5000.06914
5000.067314
5000.067315
5000.067316
5000.067318
5000.067322
5000.067328
5000.067337
5000.067348
5000.067375
5000.065556
5000.065557
5000.065558
5000.06556
5000.065565
5000.065572
5000.065582
5000.065594
5000.065624
5000.063813
5000.063814
5000.063815
5000.063818
5000.063823
5000.063831
5000.063842
5000.063855
5000.063888
5000.062086
5000.062087
5000.062089
5000.062092
5000.062098
5000.062106
5000.062118
5000.062133
5000.062169
5000.060377
5000.060379
5000.060381
5000.060384
5000.06039
5000.0604
5000.060413
5000.060429
5000.060468
5000.058688
5000.05869
5000.058692
5000.058696
5000.058702
5000.058712
5000.058727
5000.058745
5000.058786
5000.057019
5000.057021
5000.057023
5000.057028
5000.057035
5000.057046
5000.057062
5000.057081
5000.057125
5000.055372
5000.055374
5000.055377
5000.055382
5000.05539
5000.055402
5000.055419
5000.055439
5000.055486
5000.053748
5000.053751
5000.053754
5000.05376
5000.053768
5000.053781
5000.053799
5000.05382
5000.05387
5000.05215
5000.052153
5000.052156
5000.052162
5000.052171
5000.052185
5000.052204
5000.052227
5000.052279
5000.050577
5000.05058
5000.050584
5000.050591
5000.050601
5000.050615
5000.050635
5000.050659
5000.050714
5000.049031
5000.049035
5000.049039
5000.049046
5000.049057
5000.049072
5000.049094
5000.049118
5000.049176
5000.047514
5000.047518
5000.047522
5000.04753
5000.047541
5000.047557
5000.04758
5000.047605
5000.047665
5000.046025
5000.04603
5000.046034
5000.046043
5000.046055
5000.046072
5000.046095
5000.046121
5000.046183
5000.044567
5000.044572
5000.044577
5000.044586
5000.044598
5000.044616
5000.04464
5000.044667
5000.044731
5000.04314
5000.043145
5000.04315
5000.043159
5000.043173
5000.043191
5000.043216
5000.043244
5000.04331
5000.041744
5000.041749
5000.041755
5000.041765
5000.041778
5000.041798
5000.041823
5000.041852
5000.041919
5000.04038
5000.040386
5000.040392
5000.040402
5000.040416
5000.040436
5000.040462
5000.040492
5000.04056
5000.039049
5000.039055
5000.039061
5000.039072
5000.039087
5000.039107
5000.039134
5000.039164
5000.039233
5000.037751
5000.037757
5000.037764
5000.037775
5000.03779
5000.037811
5000.037838
5000.037868
5000.037939
5000.036486
5000.036492
5000.036499
5000.036511
5000.036526
5000.036547
5000.036576
5000.036605
5000.036677
5000.035255
5000.035261
5000.035268
5000.03528
5000.035296
5000.035316
5000.035345
5000.035376
5000.035448
5000.034056
5000.034063
5000.03407
5000.034082
5000.034098
5000.03412
5000.034149
5000.03418
5000.034252
5000.032892
5000.032898
5000.032905
5000.032917
5000.032934
5000.032957
5000.032986
5000.033016
5000.033089
5000.031759
5000.031765
5000.031774
5000.031786
5000.031804
5000.031826
5000.031855
5000.031886
5000.031958
5000.030661
5000.030667
5000.030677
5000.030689
5000.030706
5000.030729
5000.030758
5000.030788
5000.03086
5000.029597
5000.029603
5000.029611
5000.029624
5000.029641
5000.029663
5000.029693
5000.029723
5000.029794
5000.028563
5000.028569
5000.028578
5000.028591
5000.028608
5000.02863
5000.028659
5000.028689
5000.028761
5000.027561
5000.027568
5000.027577
5000.027589
5000.027607
5000.027629
5000.027658
5000.027688
5000.027758
5000.026591
5000.026598
5000.026606
5000.026619
5000.026637
5000.026659
5000.026688
5000.026717
5000.026786
5000.025651
5000.025658
5000.025667
5000.02568
5000.025697
5000.025719
5000.025748
5000.025777
5000.025845
5000.024742
5000.024749
5000.024758
5000.024771
5000.024788
5000.02481
5000.024838
5000.024866
5000.024934
5000.023862
5000.023869
5000.023878
5000.023891
5000.023908
5000.02393
5000.023958
5000.023985
5000.024052
5000.023011
5000.023018
5000.023027
5000.02304
5000.023057
5000.023079
5000.023106
5000.023133
5000.023198
5000.022188
5000.022195
5000.022204
5000.022217
5000.022234
5000.022255
5000.022282
5000.022309
5000.022372
5000.021393
5000.0214
5000.021409
5000.021421
5000.021438
5000.021459
5000.021486
5000.021511
5000.021574
5000.020624
5000.020631
5000.02064
5000.020652
5000.020669
5000.020689
5000.020716
5000.02074
5000.020801
5000.019881
5000.019887
5000.019896
5000.019909
5000.019925
5000.019945
5000.019971
5000.019995
5000.020055
5000.019163
5000.019169
5000.019178
5000.01919
5000.019206
5000.019226
5000.019252
5000.019275
5000.019333
5000.018469
5000.018475
5000.018484
5000.018496
5000.018512
5000.018531
5000.018556
5000.018579
5000.018635
5000.017798
5000.017804
5000.017813
5000.017825
5000.01784
5000.017859
5000.017884
5000.017905
5000.01796
5000.01715
5000.017156
5000.017165
5000.017176
5000.017192
5000.01721
5000.017234
5000.017255
5000.017308
5000.016523
5000.01653
5000.016538
5000.01655
5000.016565
5000.016583
5000.016606
5000.016626
5000.016677
5000.015918
5000.015924
5000.015932
5000.015944
5000.015958
5000.015976
5000.015998
5000.016018
5000.016068
5000.015333
5000.015339
5000.015347
5000.015358
5000.015372
5000.015389
5000.015411
5000.01543
5000.015478
5000.014767
5000.014772
5000.014781
5000.014791
5000.014805
5000.014822
5000.014843
5000.014862
5000.014908
5000.014219
5000.014225
5000.014233
5000.014244
5000.014257
5000.014273
5000.014294
5000.014312
5000.014356
5000.01369
5000.013695
5000.013703
5000.013714
5000.013727
5000.013743
5000.013763
5000.013779
5000.013822
5000.013177
5000.013183
5000.01319
5000.013201
5000.013214
5000.013229
5000.013248
5000.013264
5000.013306
5000.012681
5000.012687
5000.012694
5000.012704
5000.012717
5000.012732
5000.01275
5000.012766
5000.012806
5000.012201
5000.012206
5000.012213
5000.012223
5000.012235
5000.01225
5000.012268
5000.012283
5000.012321
5000.011736
5000.011741
5000.011748
5000.011757
5000.011769
5000.011783
5000.011801
5000.011815
5000.011852
5000.011285
5000.01129
5000.011297
5000.011306
5000.011317
5000.011331
5000.011348
5000.011361
5000.011397
5000.010848
5000.010852
5000.010859
5000.010868
5000.010879
5000.010892
5000.010909
5000.010922
5000.010956
5000.010423
5000.010428
5000.010435
5000.010443
5000.010454
5000.010467
5000.010483
5000.010495
5000.010528
5000.010012
5000.010016
5000.010023
5000.010031
5000.010042
5000.010054
5000.01007
5000.010081
5000.010112
5000.009612
5000.009616
5000.009623
5000.009631
5000.009641
5000.009653
5000.009668
5000.009679
5000.009709
5000.009224
5000.009228
5000.009234
5000.009242
5000.009252
5000.009264
5000.009278
5000.009289
5000.009317
5000.008847
5000.008851
5000.008857
5000.008864
5000.008874
5000.008885
5000.008899
5000.008909
5000.008937
5000.00848
5000.008483
5000.008489
5000.008497
5000.008506
5000.008517
5000.008531
5000.00854
5000.008566
5000.008122
5000.008126
5000.008132
5000.008139
5000.008148
5000.008158
5000.008172
5000.008181
5000.008206
5000.007775
5000.007778
5000.007784
5000.007791
5000.0078
5000.00781
5000.007822
5000.007831
5000.007855
5000.007436
5000.00744
5000.007445
5000.007452
5000.00746
5000.00747
5000.007482
5000.00749
5000.007513
5000.007106
5000.007109
5000.007114
5000.007121
5000.00713
5000.007139
5000.00715
5000.007158
5000.00718