/*--------------------------------*- C++ -*----------------------------------*\
| =========                 |                                                 |
| \\      /  F ield         | OpenFOAM: The Open Source CFD Toolbox           |
|  \\    /   O peration     | Version:  2212                                  |
|   \\  /    A nd           | Website:  www.openfoam.com                      |
|    \\/     M anipulation  |                                                 |
\*---------------------------------------------------------------------------*/
FoamFile
{
    version     2.0;
    format      ascii;
    arch        "LSB;label=32;scalar=64";
    class       volScalarField;
    location    "2.75000000";
    object      PC3H4;
}
// * * * * * * * * * * * * * * * * * * * * * * * * * * * * * * * * * * * * * //

dimensions      [0 0 0 0 0 0 0];

internalField   nonuniform List<scalar> 
3000
(
9.740050124e-22
1.124629449e-21
1.35368592e-21
1.661856983e-21
2.047433278e-21
2.500657158e-21
2.994260215e-21
3.46813149e-21
3.807451613e-21
3.772429665e-21
4.380347129e-21
5.305640419e-21
6.555186751e-21
8.134239489e-21
1.003640412e-20
1.222518146e-20
1.458203259e-20
1.666500624e-20
8.91896986e-21
1.046238189e-20
1.28382084e-20
1.610705155e-20
2.035150691e-20
2.564919298e-20
3.198370208e-20
3.899398683e-20
4.502255964e-20
1.830435929e-20
2.175578091e-20
2.716011263e-20
3.4777531e-20
4.496004116e-20
5.804249676e-20
7.40119419e-20
9.16235938e-20
1.060470861e-19
3.565461681e-20
4.301385338e-20
5.475087071e-20
7.167437029e-20
9.482718624e-20
1.251152744e-19
1.622592863e-19
2.024281239e-19
2.338964449e-19
6.823253719e-20
8.355662328e-20
1.084092121e-19
1.449146155e-19
1.956752018e-19
2.626798009e-19
3.445665758e-19
4.313481861e-19
4.971517295e-19
1.303028658e-19
1.61780764e-19
2.135285825e-19
2.905804557e-19
3.988032983e-19
5.420759624e-19
7.159926375e-19
8.971880138e-19
1.031462992e-18
2.497680945e-19
3.137696518e-19
4.200675142e-19
5.798301629e-19
8.055082229e-19
1.104217915e-18
1.46427492e-18
1.834511759e-18
2.104585696e-18
4.811864094e-19
6.102101375e-19
8.26068812e-19
1.152460629e-18
1.614817999e-18
2.2257734e-18
2.957600384e-18
3.702836991e-18
4.240637871e-18
9.308844824e-19
1.188975207e-18
1.622912331e-18
2.281460697e-18
3.215331057e-18
4.446618155e-18
5.913815037e-18
7.397172782e-18
8.4595173e-18
1.805444757e-18
2.318023686e-18
3.182612611e-18
4.497387572e-18
6.361852532e-18
8.814443582e-18
1.172452076e-17
1.465090084e-17
1.673526148e-17
3.504662838e-18
4.515873296e-18
6.224871181e-18
8.826180941e-18
1.251288324e-17
1.735177065e-17
2.30733031e-17
2.880336117e-17
3.286824413e-17
6.798923252e-18
8.781318562e-18
1.213532234e-17
1.72417486e-17
2.447214541e-17
3.39424422e-17
4.51072526e-17
5.625216091e-17
6.413647984e-17
1.316538492e-17
1.702832904e-17
2.356737262e-17
3.352112719e-17
4.759994668e-17
6.600393791e-17
8.764162389e-17
1.091754404e-16
1.243976462e-16
2.542100154e-17
3.290365261e-17
4.557162448e-17
6.484658845e-17
9.207965037e-17
1.276142013e-16
1.692808139e-16
2.106114633e-16
2.398722849e-16
4.890735639e-17
6.331368761e-17
8.76988795e-17
1.247789364e-16
1.771139169e-16
2.45322846e-16
3.252596911e-16
4.045496535e-16
4.600341732e-16
9.369929459e-17
1.212653907e-16
1.679027875e-16
2.387531176e-16
3.38613628e-16
4.685267155e-16
6.204248937e-16
7.706875819e-16
8.758701791e-16
1.787094228e-16
2.311437862e-16
3.197936619e-16
4.543227243e-16
6.436656997e-16
8.895755263e-16
1.176572276e-15
1.459962993e-15
1.658080098e-15
3.39275295e-16
4.384539395e-16
6.060031013e-16
8.599790194e-16
1.216943303e-15
1.679836033e-15
2.219209102e-15
2.750979981e-15
3.122174141e-15
6.411123763e-16
8.277086357e-16
1.142676566e-15
1.619571625e-15
2.288946943e-15
3.155688073e-15
4.164134622e-15
5.15693286e-15
5.848933645e-15
1.205854036e-15
1.555123607e-15
2.144167362e-15
3.035018061e-15
4.2837645e-15
5.898410169e-15
7.774357804e-15
9.618650915e-15
1.090240338e-14
2.257594533e-15
2.908118908e-15
4.004247696e-15
5.660073627e-15
7.97805625e-15
1.097106472e-14
1.444360731e-14
1.785300915e-14
2.022313295e-14
4.207346443e-15
5.413148794e-15
7.443056239e-15
1.05058729e-14
1.478785694e-14
2.030921398e-14
2.670645809e-14
3.297924506e-14
3.733462793e-14
7.805662342e-15
1.003030957e-14
1.377190518e-14
1.941075559e-14
2.728384664e-14
3.74219293e-14
4.915252647e-14
6.064054917e-14
6.86074701e-14
1.441732984e-14
1.850316875e-14
2.536858581e-14
3.570300427e-14
5.011323701e-14
6.864409263e-14
9.005757549e-14
1.110025193e-13
1.255111252e-13
2.651378937e-14
3.398508857e-14
4.652706571e-14
6.538374557e-14
9.164257776e-14
1.253642631e-13
1.642800781e-13
2.022976324e-13
2.286022655e-13
4.855253649e-14
6.21564647e-14
8.497097709e-14
1.192305706e-13
1.668744729e-13
2.279738015e-13
2.98388133e-13
3.670895543e-13
4.14567391e-13
8.854179573e-14
1.132104064e-13
1.545396918e-13
2.165245865e-13
3.026053481e-13
4.128368152e-13
5.396920139e-13
6.632946625e-13
7.486050943e-13
1.608131072e-13
2.053673098e-13
2.799353516e-13
3.916255189e-13
5.465067267e-13
7.445356199e-13
9.720775075e-13
1.193460003e-12
1.346047367e-12
2.909146306e-13
3.71070608e-13
5.050779419e-13
7.055214405e-13
9.830408217e-13
1.33727747e-12
1.743612072e-12
2.138295088e-12
2.409907586e-12
5.242101024e-13
6.678613171e-13
9.077441661e-13
1.266019587e-12
1.761208275e-12
2.392102509e-12
3.114377047e-12
3.814601285e-12
4.295613624e-12
9.409195545e-13
1.197373068e-12
1.625086335e-12
2.262851502e-12
3.142639767e-12
4.261138255e-12
5.538751877e-12
6.77456693e-12
7.621683225e-12
1.682295289e-12
2.13833697e-12
2.89786735e-12
4.028335172e-12
5.584381855e-12
7.557724725e-12
9.805786281e-12
1.197442392e-11
1.345713547e-11
2.995926554e-12
3.803593727e-12
5.146650834e-12
7.141464581e-12
9.880294632e-12
1.334351746e-11
1.727636725e-11
2.105792796e-11
2.363535468e-11
5.313680613e-12
6.737935621e-12
9.102089747e-12
1.260508808e-11
1.740039772e-11
2.344320651e-11
3.027952368e-11
3.682718307e-11
4.127319905e-11
9.384911204e-12
1.188480913e-11
1.602593033e-11
2.214476364e-11
3.049189569e-11
4.096790643e-11
5.27664475e-11
6.401425386e-11
7.161774455e-11
1.650249994e-11
2.086808417e-11
2.808252256e-11
3.870772567e-11
5.314342937e-11
7.117458081e-11
9.137503336e-11
1.105273838e-10
1.234068374e-10
2.88834619e-11
3.646416531e-11
4.895712727e-11
6.728656534e-11
9.207145323e-11
1.228577151e-10
1.571369148e-10
1.894325884e-10
2.110208012e-10
5.030446096e-11
6.338552808e-11
8.487379061e-11
1.162622001e-10
1.584726896e-10
2.105694363e-10
2.681719415e-10
3.220539504e-10
3.578304088e-10
8.715343861e-11
1.09567804e-10
1.46251351e-10
1.995645788e-10
2.70809977e-10
3.581063391e-10
4.538730564e-10
5.427457843e-10
6.013226608e-10
1.501530359e-10
1.882608534e-10
2.503640135e-10
3.401006489e-10
4.591741852e-10
6.038994869e-10
7.613023446e-10
9.061226806e-10
1.000827499e-09
2.571557186e-10
3.21386479e-10
4.255599281e-10
5.751147593e-10
7.72009959e-10
1.009217029e-09
1.264816792e-09
1.497851171e-09
1.648998421e-09
4.376266766e-10
5.448638659e-10
7.178597543e-10
9.644495386e-10
1.286331446e-09
1.670462186e-09
2.080348379e-09
2.450540441e-09
2.688650728e-09
7.397480587e-10
9.169476757e-10
1.201136432e-09
1.603095292e-09
2.123018036e-09
2.737358916e-09
3.386317684e-09
3.966862746e-09
4.337178232e-09
1.241534505e-09
1.531110267e-09
1.992605098e-09
2.639993147e-09
3.469413976e-09
4.439513666e-09
5.453919093e-09
6.352846869e-09
6.921614771e-09
2.067991702e-09
2.535675637e-09
3.276077364e-09
4.305845576e-09
5.612320802e-09
7.124793373e-09
8.690554677e-09
1.006540074e-08
1.092856407e-08
3.417232907e-09
4.163336863e-09
5.336420798e-09
6.953759635e-09
8.985649991e-09
1.131425912e-08
1.370161326e-08
1.577963906e-08
1.707480141e-08
5.599660619e-09
6.774934143e-09
8.609994654e-09
1.111799746e-08
1.423860172e-08
1.778016044e-08
2.137772158e-08
2.448366035e-08
2.64065026e-08
9.095904301e-09
1.092352847e-08
1.375761047e-08
1.759805257e-08
2.233238579e-08
2.765587475e-08
3.301720263e-08
3.761122242e-08
4.04379847e-08
1.464128418e-08
1.744699086e-08
2.176891765e-08
2.75778481e-08
3.467635474e-08
4.258984201e-08
5.049696612e-08
5.722655092e-08
6.134482862e-08
2.334727985e-08
2.760018137e-08
3.411018765e-08
4.279321434e-08
5.331813179e-08
6.495966874e-08
7.650963957e-08
8.628057249e-08
9.22316417e-08
3.687400161e-08
4.324150221e-08
5.293144435e-08
6.576510214e-08
8.120700608e-08
9.816774219e-08
1.148904928e-07
1.289642431e-07
1.375016595e-07
5.76722409e-08
6.709344458e-08
8.13540094e-08
1.001213914e-07
1.225555592e-07
1.47045739e-07
1.710642137e-07
1.911916405e-07
2.0336301e-07
8.931966649e-08
1.03103223e-07
1.238663364e-07
1.51037042e-07
1.83331208e-07
2.184016354e-07
2.526471584e-07
2.812499448e-07
2.985091045e-07
1.369757643e-07
1.569276066e-07
1.868541324e-07
2.258236341e-07
2.719157241e-07
3.217531811e-07
3.70248488e-07
4.106522067e-07
4.349974922e-07
2.080026567e-07
2.365951973e-07
2.793232023e-07
3.347270085e-07
3.999854485e-07
4.70289449e-07
5.384994698e-07
5.952040095e-07
6.293203408e-07
3.128071906e-07
3.534000511e-07
4.138668983e-07
4.919857947e-07
5.83668688e-07
6.821184028e-07
7.77360752e-07
8.563291957e-07
9.037244645e-07
4.659668792e-07
5.230921224e-07
6.07948221e-07
7.172221749e-07
8.450455628e-07
9.818563531e-07
1.113777884e-06
1.222800523e-06
1.288039424e-06
6.877210862e-07
7.674437434e-07
8.855685619e-07
1.037223001e-06
1.214033301e-06
1.402612242e-06
1.583809125e-06
1.733085541e-06
1.822204532e-06
1.005896994e-06
1.116250367e-06
1.279363305e-06
1.488135938e-06
1.730700338e-06
1.9884968e-06
2.235429833e-06
2.438395668e-06
2.559387701e-06
1.458282313e-06
1.609764688e-06
1.833123403e-06
2.118130669e-06
2.448185479e-06
2.797923657e-06
3.13215451e-06
3.406438733e-06
3.569782209e-06
2.095399621e-06
2.301559388e-06
2.604839756e-06
2.990776868e-06
3.436532952e-06
3.907823677e-06
4.35745216e-06
4.725989236e-06
4.945291014e-06
2.983825113e-06
3.26207775e-06
3.670642065e-06
4.189456564e-06
4.787482165e-06
5.418677287e-06
6.020031565e-06
6.512427881e-06
6.805251025e-06
4.210541516e-06
4.583297783e-06
5.129825005e-06
5.822681039e-06
6.620032348e-06
7.460397337e-06
8.260089312e-06
8.91433138e-06
9.303210627e-06
5.888361127e-06
6.384307608e-06
7.110590951e-06
8.030068265e-06
9.086754085e-06
1.019906821e-05
1.12565019e-05
1.212100943e-05
1.263467482e-05
8.161836911e-06
8.81733042e-06
9.776281576e-06
1.098886144e-05
1.23807387e-05
1.384437099e-05
1.523466771e-05
1.637069666e-05
1.704550771e-05
1.121342761e-05
1.207400277e-05
1.333186735e-05
1.492078958e-05
1.674283336e-05
1.865717453e-05
2.047444605e-05
2.195878067e-05
2.284033394e-05
1.526959604e-05
1.639163375e-05
1.803041458e-05
2.009869037e-05
2.246842625e-05
2.495648682e-05
2.731725777e-05
2.924501885e-05
3.038982052e-05
2.060655906e-05
2.20589105e-05
2.417870518e-05
2.685202057e-05
2.991279812e-05
3.312460089e-05
3.617099902e-05
3.865823353e-05
4.01352259e-05
2.755477527e-05
2.942014743e-05
3.214110848e-05
3.557019964e-05
3.949379174e-05
4.360897489e-05
4.751109115e-05
5.069662016e-05
5.258823594e-05
3.650136887e-05
3.887718781e-05
4.23406736e-05
4.670260062e-05
5.169042914e-05
5.691927483e-05
6.187589902e-05
6.592174304e-05
6.832407528e-05
4.788962009e-05
5.088802377e-05
5.525641615e-05
6.07540474e-05
6.703621065e-05
7.361819424e-05
7.985503057e-05
8.494466624e-05
8.796626023e-05
6.22147108e-05
6.596129669e-05
7.141593063e-05
7.82749271e-05
8.610620425e-05
9.430519108e-05
0.0001020696993
0.0001084034194
0.000112162518
8.001505728e-05
8.46460469e-05
9.138276963e-05
9.98454786e-05
0.0001094976358
0.0001195928966
0.0001291451503
0.0001369318853
0.0001415505335
0.0001018587752
0.0001075163803
0.0001157384638
0.0001260544422
0.000137804557
0.0001500779864
0.0001616770689
0.0001711219458
0.000176718986
0.0001283250816
0.0001351510542
0.0001450594753
0.0001574726579
0.000171588181
0.0001863067958
0.0002001933276
0.0002114839429
0.0002181665863
0.0001599804215
0.0001681079891
0.0001798896416
0.0001946232365
0.000211342687
0.0002287387242
0.0002451168673
0.0002584083518
0.0002662633183
0.0001973508519
0.0002068953913
0.0002207086695
0.000237946498
0.0002574603644
0.0002777121923
0.0002967317049
0.0003121324305
0.0003212176583
0.0002408876179
0.0002519359749
0.0002678967083
0.0002877673248
0.000310200374
0.0003334148195
0.0003551553365
0.0003727148809
0.0003830527662
0.0002909315372
0.0003035336999
0.0003217033244
0.0003442657982
0.0003696622129
0.0003958605879
0.0004203199204
0.0004400206682
0.0004515936141
0.0003476819985
0.0003618440551
0.000382220172
0.0004074535634
0.0004357667278
0.0004648761417
0.0004919639134
0.000513717213
0.0005264659617
0.0004111704133
0.0004268500325
0.0004493607746
0.000477158586
0.0005082467348
0.0005400976866
0.0005696349827
0.0005932822228
0.0006071070985
0.0004812419133
0.000498346956
0.0005228499148
0.000553020249
0.0005866485499
0.0006209791034
0.000652704165
0.000678022593
0.0006927874386
0.0005575477612
0.0005759382722
0.0006022242296
0.0006344957811
0.0006703447793
0.000706811051
0.0007403905867
0.0007671033443
0.0007826415149
0.0006395497193
0.0006590431769
0.0006868443827
0.0007208778331
0.0007585576935
0.0007967500938
0.0008317959046
0.0008595862245
0.0008757064198
0.0007265361987
0.0007469155621
0.0007759178474
0.0008113217327
0.0008503912446
0.0008898557007
0.0009259473832
0.0009544840642
0.000971008633
0.0008176487389
0.0008386725609
0.0008685301814
0.0009048797257
0.0009448679647
0.0009851285399
0.001021833814
0.001050782065
0.001067509664
0.0009119166016
0.0009333303317
0.0009636822731
0.001000539629
0.001040968684
0.001081550737
0.001118448129
0.001147466844
0.001164197413
0.001008297162
0.001029844705
0.001060331092
0.00109726526
0.001137672351
0.001178119991
0.001214781942
0.001243536397
0.001260078625
0.001105720305
0.001127154735
0.00115743164
0.001194035187
0.001233972529
0.001273829463
0.001309848885
0.001338023757
0.001354198232
0.001203136078
0.001224227988
0.001253969396
0.001289839813
0.00132887176
0.001367711846
0.001402710892
0.001430015767
0.001445658291
0.001299516334
0.001320039569
0.001348929734
0.001383694218
0.001421422559
0.001458858352
0.001492496116
0.001518671185
0.001533635952
0.001393848093
0.00141359797
0.001441352852
0.001474676801
0.001510747294
0.001546437262
0.001578416268
0.001603237134
0.001617399327
0.001485185789
0.001503982496
0.001530354029
0.001561947278
0.001596055855
0.001629710294
0.001659781448
0.001683062613
0.001696320192
0.001572669999
0.001590361566
0.001615141632
0.001644763202
0.001676660637
0.001708045753
0.001736011437
0.001757608254
0.001769882825
0.00165554464
0.001672009093
0.001695032309
0.001722493383
0.001751987926
0.001780927768
0.001806642932
0.001826451959
0.001837688749
0.001733171001
0.00174831744
0.001769462365
0.001794627267
0.001821585079
0.001847961273
0.001871332562
0.001889290422
0.001899457411
0.001805037466
0.001818805948
0.001837994635
0.001860779824
0.001885123286
0.001908872722
0.001929855836
0.00194593678
0.00195502313
0.001870764338
0.001883124646
0.001900320643
0.001920691898
0.001942396045
0.001963506826
0.001982102432
0.00199631486
0.002004328807
0.001930103722
0.001941053157
0.001956258188
0.001974226295
0.001993313758
0.00201181979
0.002028068354
0.002040450585
0.002047416941
0.001982934794
0.001992495202
0.002005744845
0.00202136018
0.002037895047
0.002053869705
0.002067845598
0.002078461185
0.00208441863
0.002029255094
0.002037469381
0.002048828065
0.002062174453
0.002076255476
0.002089804749
0.002101610038
0.002110542914
0.00211554123
0.002069168639
0.002076096985
0.00208565265
0.002096840904
0.002108594469
0.002119850006
0.002129608229
0.002136957916
0.002141055294
0.002102871754
0.00210858778
0.002116446487
0.002125607979
0.002135181207
0.002144293562
0.002152143778
0.002158020858
0.002161281361
0.002130637579
0.002135224628
0.002141505397
0.002148785938
0.002156340183
0.002163472535
0.002169563846
0.00217408583
0.002176577109
0.002152800097
0.002156347797
0.002161177844
0.002166732099
0.002172437069
0.002177759595
0.002182246283
0.002185533976
0.002187325266
0.002169738456
0.002172339651
0.002175850175
0.002179836747
0.002183865379
0.002187550391
0.002190587754
0.002192762163
0.002193922588
0.002181862184
0.002183610313
0.002185932901
0.002188510173
0.002191034327
0.002193252219
0.002194993131
0.002196172937
0.002196770129
0.00218959778
0.002190584712
0.002191848397
0.002193171147
0.002194358129
0.00219527414
0.002195866326
0.002196165881
0.002196264896
0.002193376972
0.002193691302
0.002194020254
0.002194237022
0.002194246905
0.002194018648
0.002193602617
0.002193130454
0.00219279296
0.002193626803
0.002193352579
0.002192864389
0.002192115538
0.002191099215
0.002189874895
0.002188582482
0.002187440261
0.002186723977
0.002190761592
0.002189977422
0.002188781923
0.002187198318
0.002185296195
0.002183213445
0.002181166862
0.002179448707
0.002178407043
0.002185176697
0.002183955197
0.002182153731
0.00217985595
0.002177197183
0.002174382405
0.002171693742
0.002169485893
0.002168167775
0.002177243948
0.002175651466
0.00217333654
0.002170434513
0.002167136698
0.002163704835
0.002160475903
0.002157856639
0.002156306468
0.002167308584
0.002165405142
0.00216266038
0.002159253383
0.002155422604
0.002151477233
0.002147799695
0.002144839452
0.002143097182
0.002155687455
0.002153526871
0.002150427201
0.002146604115
0.002142335258
0.002137968939
0.002133924648
0.002130686298
0.002128787593
0.002142668307
0.00214029844
0.002136910458
0.002132750217
0.002128127485
0.002123422293
0.002119083782
0.002115623019
0.002113599473
0.002128509921
0.002125973004
0.002122355449
0.002117927632
0.002113025191
0.002108053368
0.002103484443
0.002099850242
0.00209772964
0.002113442914
0.002110775949
0.002106980256
0.002102345755
0.002097228466
0.002092053148
0.002087309543
0.002083544665
0.002081351267
0.002097671037
0.002094906213
0.002090977112
0.002086188846
0.002080913043
0.002075589023
0.002070719074
0.002066860593
0.00206461543
0.002081372814
0.002078537946
0.002074514064
0.002069617707
0.002064231972
0.002058806472
0.002053851806
0.002049931637
0.002047652808
0.002064703395
0.002061822348
0.002057736816
0.00205277151
0.002047317448
0.00204183087
0.002036827082
0.002032872494
0.00203057546
0.00204779652
0.002044889628
0.002040770653
0.002035769705
0.002030282682
0.002024769342
0.002019746632
0.002015780745
0.002013478607
0.00203076652
0.002027850977
0.0020237224
0.00201871393
0.002013223779
0.002007712588
0.002002696371
0.001998738624
0.001996442386
0.002013710296
0.002010800524
0.002006682326
0.002001689883
0.001996221551
0.001990736654
0.001985748129
0.001981814712
0.001979533532
0.001996709217
0.001993817208
0.001989725986
0.001984769106
0.00197934326
0.001973904625
0.00196896129
0.001965065549
0.00196280696
0.001979830928
0.001976966551
0.001972915951
0.001968010668
0.001962644241
0.001957268194
0.001952384327
0.001948537127
0.001946307251
0.00196313103
0.001960302309
0.001956303414
0.001951462729
0.001946169416
0.001940869126
0.001936056211
0.001932266268
0.001930070002
0.001946654622
0.001943867993
0.001939929674
0.001935163968
0.001929954672
0.001924740588
0.001920007704
0.001916281883
0.001914123067
0.001930437719
0.001927698251
0.00192382748
0.001919144884
0.001914028114
0.001908908354
0.001904262518
0.001900606098
0.00189848767
0.001914508516
0.00191182011
0.001908022238
0.00190342897
0.001898411193
0.001893391885
0.001888838361
0.001885255274
0.0018831794
0.001898888533
0.001896254101
0.001892533103
0.001888033752
0.001883119705
0.001878205298
0.001873747865
0.0018702409
0.001868209098
0.001883593626
0.001881015243
0.001877373934
0.001872971719
0.001868164683
0.001863358212
0.001858999401
0.001855570393
0.001853583635
0.001868634881
0.001866113921
0.001862554146
0.00185825114
0.00185355318
0.001848856498
0.001844597804
0.00184124779
0.001839306593
0.0018540194
0.001851556654
0.00184807945
0.001843876775
0.001839288949
0.001834702933
0.001830544991
0.001827274351
0.001825378859
0.001839750984
0.001837346764
0.001833952503
0.0018298505
0.001825373037
0.001820897767
0.001816840512
0.001813649089
0.001811799138
0.001825830731
0.001823484957
0.001820173471
0.001816171844
0.001811804303
0.00180743921
0.001803482009
0.001800369215
0.001798564397
0.001812257548
0.001809969822
0.001806740508
0.001802838452
0.001798579855
0.001794323854
0.001790465624
0.001787430526
0.001785670237
0.001799028588
0.001796798265
0.001793650173
0.00178984648
0.001785695425
0.001781547026
0.001777786332
0.001774827733
0.001773111216
0.001786139632
0.00178396587
0.001780897783
0.001777190933
0.001773145695
0.001769103098
0.001765438237
0.001762554734
0.001760881118
0.001773585402
0.001771467211
0.001768477712
0.001764865951
0.00176092456
0.001756985734
0.001753414806
0.001750604848
0.001748973179
0.001761359836
0.001759296118
0.00175638364
0.001752865043
0.001749025355
0.001745188108
0.001741709074
0.001738971008
0.001737380271
0.001749456306
0.001747445887
0.001744608762
0.001741181291
0.001737441045
0.001733703077
0.001730313806
0.001727645915
0.00172609506
0.001737867811
0.001735909469
0.001733145965
0.00172980751
0.001726164377
0.001722523324
0.00171922164
0.00171662217
0.001715110128
0.001726587125
0.001724679613
0.001721987966
0.001718736384
0.001715188001
0.001711641478
0.001708425186
0.001705892374
0.001704418071
0.001715606927
0.00171374899
0.001711127429
0.001707960571
0.001704504578
0.001701050203
0.001697917118
0.001695449212
0.001694011581
0.001704919899
0.00170311029
0.001700557055
0.001697472791
0.001694106853
0.001690742273
0.001687690242
0.001685285515
0.001683883504
0.001694518803
0.001692756293
0.001690269654
0.001687265891
0.001683987715
0.001680710628
0.001677737541
0.001675394307
0.001674026886
0.001684396545
0.001682679932
0.001680258198
0.001677332894
0.001674140247
0.00167094841
0.001668052218
0.001665768835
0.001664435004
0.001674546216
0.001672874333
0.001670515863
0.001667667038
0.001664557755
0.001661448997
0.001658627715
0.001656402596
0.001655101386
0.001664961132
0.001663332849
0.001661036057
0.001658261798
0.00165523379
0.001652206016
0.001649457732
0.001647289348
0.001646019822
0.001655634846
0.001654049077
0.001651812434
0.001649110901
0.00164616216
0.001643213357
0.001640536235
0.001638423115
0.001637184374
0.001646561169
0.001645016868
0.001642838908
0.001640208336
0.001637336935
0.001634465174
0.001631857452
0.001629798187
0.001628589366
0.001637734169
0.001636230335
0.001634109655
0.001631548352
0.001628752447
0.00162595588
0.001623415871
0.001621409112
0.001620229382
0.001629148175
0.00162768385
0.001625619105
0.001623125453
0.001620403279
0.00161768014
0.001615206234
0.00161325069
0.001612099257
0.001620797768
0.001619372035
0.001617361939
0.001614934392
0.001612284264
0.001609632864
0.001607223519
0.001605317955
0.00160419406
0.00161267777
0.001611289753
0.001609333078
0.001606970157
0.001604390463
0.001601809188
0.001599462929
0.001597606164
0.001596509079
0.001604783237
0.001603432097
0.001601527667
0.001599227958
0.001596717155
0.001594204459
0.001591919875
0.001590110778
0.001589039806
0.001597109437
0.001595794371
0.001593941061
0.001591703209
0.001589259818
0.001586814221
0.00158458996
0.001582827447
0.001581781919
0.001589651839
0.001588372077
0.001586568807
0.001584391512
0.001582014115
0.001579634194
0.001577468957
0.001575751988
0.001574731263
0.001582406094
0.001581160896
0.001579406628
0.001577288639
0.001574975873
0.001572660261
0.001570552798
0.001568880369
0.001567883829
0.001575368018
0.001574156671
0.001572450404
0.001570390517
0.001568141065
0.001565888442
0.001563837547
0.001562208691
0.001561235744
0.001568533572
0.001567355387
0.001565696155
0.001563693205
0.001561505794
0.001559314884
0.00155731939
0.001555733174
0.001554783245
0.001561898848
0.001560753158
0.001559140024
0.001557192881
0.001555066278
0.001552935842
0.001550994617
0.001549450133
0.001548522668
0.001555460049
0.001554346207
0.00155277826
0.001550885826
0.001548818829
0.001546747662
0.001544859604
0.00154335597
0.00154245043
0.001549213478
0.001548130851
0.001546607203
0.001544768406
0.001542759844
0.001540746768
0.001538910801
0.001537447157
0.001536563021
0.001543155516
0.001542103487
0.00154062327
0.001538837061
0.001536885785
0.001534929649
0.00153314472
0.001531720225
0.001530856984
0.001537282618
0.001536260581
0.001534822943
0.001533088292
0.001531193176
0.001529292847
0.001527557922
0.001526171752
0.00152532891
0.001531591292
0.001530598653
0.001529202754
0.001527518648
0.001525678583
0.001523832948
0.00152214701
0.001520798356
0.001519975427
0.001526078097
0.001525114269
0.001523759284
0.001522124722
0.001520338613
0.001518546573
0.001516908621
0.001515596684
0.001514793196
0.00152073963
0.001519804034
0.001518489145
0.001516903141
0.001515169907
0.001513430377
0.001511839419
0.001510563416
0.001509778903
0.001515572521
0.001514664585
0.001513388985
0.001511850562
0.001510169133
0.001508481039
0.001506936098
0.001505695254
0.001504929261
0.001510573432
0.001509692589
0.00150845548
0.001506963669
0.001505332986
0.001503695267
0.001502195378
0.00150098893
0.001500241011
0.001505739052
0.001504884743
0.001503685333
0.001502239178
0.001500658194
0.0014990698
0.001497614008
0.001496441204
0.001495710923
0.001501066105
0.001500237777
0.001499075284
0.001497673838
0.001496141519
0.001494601414
0.001493188779
0.001492048879
0.001491335812
0.001496551351
0.001495748457
0.001494622111
0.001493264441
0.001491779767
0.001490286931
0.001488916529
0.00148780881
0.001487112542
0.001492191597
0.001491413603
0.001490322645
0.001489007835
0.001487569805
0.001486123239
0.001484794166
0.001483717922
0.001483038052
0.001487983717
0.001487230096
0.001486173786
0.00148490094
0.001483508578
0.001482107308
0.001480818687
0.001479773234
0.001479109378
0.001483924664
0.001483194908
0.001482172527
0.001480940777
0.001479593138
0.001478236225
0.001476987209
0.001475971892
0.001475323686
0.001480011503
0.001479305124
0.00147831598
0.001477124494
0.001475820674
0.001474507221
0.001473297009
0.001472311209
0.001471678313
0.001476241445
0.001475557978
0.001474601418
0.00147344941
0.001472188558
0.001470917727
0.001469745569
0.001468788712
0.001468170815
0.001472611886
0.0014719509
0.001471026318
0.001469913061
0.001468694396
0.001467465417
0.001466330635
0.001465402207
0.001464799034
0.00146912046
0.001468481567
0.001467588418
0.001466513262
0.001465336088
0.001464148286
0.001463050287
0.001462149845
0.001461561168
0.001465765102
0.001465147967
0.001464285781
0.001463248172
0.001462111904
0.001460964718
0.001459903021
0.001459030213
0.001458455859
0.001462544124
0.001461948475
0.001461116881
0.001460116384
0.001459020572
0.001457913583
0.001456887842
0.00145604243
0.001455482295
0.001459456293
0.001458881943
0.001458080683
0.001457117011
0.001456061373
0.001454994339
0.001454004374
0.001453186254
0.001452640319
0.001456500932
0.001455947791
0.001455176754
0.001454249798
0.001453234256
0.001452207146
0.001451252978
0.001450462216
0.001449930559
0.001453678026
0.001453146123
0.001452405369
0.001451515236
0.001450539955
0.001449552992
0.001448634886
0.001447871741
0.001447354562
0.001450988337
0.001450477843
0.001449767636
0.001448914686
0.001447980122
0.001447033831
0.001446152332
0.001445417299
0.001444914937
0.00144843353
0.001447944781
0.001447265624
0.001446450517
0.001445557459
0.001444652715
0.001443808702
0.001443102545
0.001442615501
0.001446016302
0.001445549825
0.001444902495
0.001444126232
0.001443275859
0.001442413939
0.001441608668
0.00144093246
0.001440461421
0.00144374051
0.001443297049
0.001442682636
0.001441946607
0.001441140535
0.001440323168
0.001439558323
0.001438913486
0.001438459347
0.001441611296
0.001441191837
0.001440611782
0.00143991781
0.001439158142
0.001438387564
0.001437665301
0.001437053641
0.001436617525
0.001439635203
0.001439240998
0.001438697126
0.001438047508
0.001437336882
0.001436615876
0.001435938865
0.001435362607
0.001434945887
0.001437820269
0.001437452861
0.001436947407
0.001436344951
0.001435686575
0.001435018513
0.001434389974
0.001433851784
0.001433456097
0.0014361761
0.001435837334
0.001435372972
0.001434821024
0.001434218706
0.001433607572
0.001433031295
0.001432534301
0.001432161554
0.001434713906
0.001434405942
0.001433985794
0.001433488251
0.001432946411
0.001432396816
0.001431877168
0.001431424961
0.001431077335
0.001433446494
0.001433171809
0.00143279945
0.001432360759
0.001431884426
0.001431401596
0.001430943512
0.001430540137
0.001430220076
0.001432388216
0.001432149597
0.001431829038
0.001431454178
0.001431048965
0.001430638712
0.001430247661
0.001429897581
0.001429607776
0.001431554856
0.001431355377
0.001431091034
0.001430785475
0.001430457527
0.001430126193
0.00142980812
0.001429516173
0.001429259523
0.001430963454
0.001430806443
0.001430603092
0.001430372728
0.001430128644
0.001429883016
0.001429644258
0.001429415578
0.001429195149
0.001430632064
0.001430521057
0.00143038376
0.00143023482
0.001430081552
0.001429928746
0.001429775918
0.001429615842
0.001429434805
0.001430579449
0.001430518129
0.001430452141
0.001430391075
0.001430335786
0.001430283103
0.001430222961
0.001430136908
0.001429998466
0.001430824705
0.001430816824
0.001430827486
0.001430860818
0.001430910726
0.001430965481
0.00143100475
0.001430998085
0.001430905385
0.001431386832
0.001431436119
0.001431528725
0.001431662896
0.001431825081
0.001431994404
0.001432139594
0.001432217468
0.00143217351
0.001432284246
0.00143239431
0.00143257396
0.001432815138
0.001433096337
0.001433386958
0.001433644157
0.001433811344
0.001433818876
0.001433534259
0.001433708476
0.001433979917
0.001434333806
0.00143474019
0.00143515821
0.001435532873
0.001435793589
0.001435855004
0.001435152535
0.001435393932
0.001435761396
0.001436233027
0.001436769979
0.001437320637
0.001437817368
0.001438175106
0.001438292345
0.001437152541
0.001437463683
0.001437930716
0.001438524253
0.00143919614
0.001439883594
0.001440505947
0.00144096332
0.001441137777
0.001439545018
0.001439927895
0.001440497208
0.001441215755
0.001442025731
0.001442852857
0.001443603159
0.001444161759
0.001444394211
0.0014423375
0.001442793429
0.001443466757
0.001444312197
0.001445262031
0.001446230262
0.00144710948
0.001447769792
0.001448060355
0.001445533908
0.001446063454