/*--------------------------------*- C++ -*----------------------------------*\
| =========                 |                                                 |
| \\      /  F ield         | OpenFOAM: The Open Source CFD Toolbox           |
|  \\    /   O peration     | Version:  2212                                  |
|   \\  /    A nd           | Website:  www.openfoam.com                      |
|    \\/     M anipulation  |                                                 |
\*---------------------------------------------------------------------------*/
FoamFile
{
    version     2.0;
    format      ascii;
    arch        "LSB;label=32;scalar=64";
    class       volScalarField;
    location    "2.75000000";
    object      Qdot;
}
// * * * * * * * * * * * * * * * * * * * * * * * * * * * * * * * * * * * * * //

dimensions      [1 -1 -3 0 0 0 0];

internalField   nonuniform List<scalar> 
3000
(
-1.213158434e-15
-1.221477661e-15
-1.233484432e-15
-1.248125935e-15
-1.263097168e-15
-1.273221546e-15
-1.266945447e-15
-1.21881563e-15
-1.074012797e-15
-1.394038214e-15
-1.42931585e-15
-1.48134387e-15
-1.5481036e-15
-1.625895537e-15
-1.707924296e-15
-1.782213358e-15
-1.828314817e-15
-1.807351558e-15
-1.734151491e-15
-1.827839613e-15
-1.969567701e-15
-2.15976212e-15
-2.398643375e-15
-2.684195573e-15
-3.006636179e-15
-3.33470138e-15
-3.564819515e-15
-2.355147265e-15
-2.568968048e-15
-2.899772675e-15
-3.358514642e-15
-3.959423433e-15
-4.712712771e-15
-5.6046097e-15
-6.547500714e-15
-7.251159204e-15
-3.483586279e-15
-3.938170968e-15
-4.655108634e-15
-5.673544828e-15
-7.04167789e-15
-8.793314226e-15
-1.088700576e-14
-1.307646733e-14
-1.46818533e-14
-5.540726519e-15
-6.469205094e-15
-7.957353965e-15
-1.010960805e-14
-1.304729571e-14
-1.684361946e-14
-2.137209377e-14
-2.602971217e-14
-2.937896183e-14
-9.319156677e-15
-1.117123581e-14
-1.417807583e-14
-1.858328746e-14
-2.465454912e-14
-3.252461952e-14
-4.185883641e-14
-5.131949803e-14
-5.80629578e-14
-1.630443588e-14
-1.994052631e-14
-2.590179332e-14
-3.471445162e-14
-4.692907198e-14
-6.276612843e-14
-8.143664169e-14
-1.001494266e-13
-1.13411439e-13
-2.928084032e-14
-3.633733287e-14
-4.798904526e-14
-6.531792413e-14
-8.941006977e-14
-1.206132306e-13
-1.572060563e-13
-1.935870563e-13
-2.192952222e-13
-5.344981508e-14
-6.701773743e-14
-8.95337972e-14
-1.231503965e-13
-1.699565766e-13
-2.304853892e-13
-3.011681818e-13
-3.710391004e-13
-4.203550235e-13
-9.850198301e-14
-1.24386558e-13
-1.674885777e-13
-2.319926346e-13
-3.218522573e-13
-4.378711589e-13
-5.72901706e-13
-7.058390055e-13
-7.996695862e-13
-1.824285266e-13
-2.31473127e-13
-3.133228151e-13
-4.359802308e-13
-6.068466568e-13
-8.27120516e-13
-1.082820609e-12
-1.333820567e-12
-1.511111681e-12
-3.385061181e-13
-4.308629119e-13
-5.852124626e-13
-8.166738699e-13
-1.138994038e-12
-1.553934114e-12
-2.034585055e-12
-2.505360295e-12
-2.838358519e-12
-6.280181804e-13
-8.009490661e-13
-1.090202357e-12
-1.524081803e-12
-2.127969805e-12
-2.904369952e-12
-3.801955704e-12
-4.679277038e-12
-5.301715151e-12
-1.163285097e-12
-1.485312799e-12
-2.024210071e-12
-2.832578645e-12
-3.957074903e-12
-5.401067606e-12
-7.067096959e-12
-8.691322177e-12
-9.849977915e-12
-2.149133274e-12
-2.745510683e-12
-3.743690345e-12
-5.24074456e-12
-7.322185823e-12
-9.99346957e-12
-1.307607519e-11
-1.608763104e-11
-1.82106517e-11
-3.957337862e-12
-5.055672611e-12
-6.893738531e-12
-9.649089783e-12
-1.3476684e-11
-1.838274225e-11
-2.403440756e-11
-2.955852708e-11
-3.34415793e-11
-7.260044684e-12
-9.27207996e-12
-1.263807567e-11
-1.768057788e-11
-2.467878456e-11
-3.363836335e-11
-4.394639992e-11
-5.403294498e-11
-6.109226258e-11
-1.326787729e-11
-1.693548916e-11
-2.306843932e-11
-3.224958236e-11
-4.49799817e-11
-6.126139174e-11
-7.997357332e-11
-9.830178862e-11
-1.110756276e-10
-2.415317263e-11
-3.080785899e-11
-4.193029391e-11
-5.856889313e-11
-8.161952283e-11
-1.110716542e-10
-1.448887295e-10
-1.780312389e-10
-2.010465325e-10
-4.379984777e-11
-5.582236025e-11
-7.590597729e-11
-1.059285932e-10
-1.474860823e-10
-2.005368657e-10
-2.613958898e-10
-3.21034901e-10
-3.623321881e-10
-7.912843739e-11
-1.007607634e-10
-1.368785174e-10
-1.908325306e-10
-2.654563374e-10
-3.606384763e-10
-4.697400729e-10
-5.765209478e-10
-6.503307059e-10
-1.424325406e-10
-1.812094977e-10
-2.459190815e-10
-3.425210917e-10
-4.760340108e-10
-6.462019389e-10
-8.411142423e-10
-1.031272321e-09
-1.162697211e-09
-2.554924956e-10
-3.247626202e-10
-4.403042367e-10
-6.126919634e-10
-8.508028925e-10
-1.154106394e-09
-1.501322726e-09
-1.837898119e-09
-2.071077976e-09
-4.568131643e-10
-5.80176585e-10
-7.858671761e-10
-1.092622773e-09
-1.516153694e-09
-2.055459924e-09
-2.672694908e-09
-3.270422692e-09
-3.678539594e-09
-8.1436036e-10
-1.033487606e-09
-1.398764573e-09
-1.943399008e-09
-2.695275532e-09
-3.652721437e-09
-4.748751691e-09
-5.810532333e-09
-6.535891578e-09
-1.448009299e-09
-1.836451365e-09
-2.483960165e-09
-3.449513464e-09
-4.782915491e-09
-6.481920987e-09
-8.428633747e-09
-1.031682466e-08
-1.160906622e-08
-2.569230511e-09
-3.25691899e-09
-4.403604008e-09
-6.114520873e-09
-8.479558536e-09
-1.149743395e-08
-1.496211419e-08
-1.833125894e-08
-2.064616519e-08
-4.551552049e-09
-5.768529949e-09
-7.799318488e-09
-1.08331627e-08
-1.503480979e-08
-2.041034934e-08
-1.606605155e-07
1.349194979e-07
1.307329443e-07
-8.056467196e-09
-1.021160689e-08
-1.381287263e-08
-1.920450538e-08
-1.607521234e-07
1.312538539e-07
1.201071325e-07
1.09140939e-07
-3.259642087e-08
-1.426029607e-08
-1.808452325e-08
-1.585462763e-07
1.33462577e-07
1.200350419e-07
-3.138121387e-08
-5.16494023e-08
2.299165584e-07
8.140996041e-08
-1.593246387e-07
1.354942582e-07
1.240523987e-07
1.067818135e-07
-5.154153786e-08
8.438649777e-08
-8.702718035e-08
1.770125853e-07
1.535352863e-08
1.227008884e-07
1.105076272e-07
-4.412785484e-08
9.217664371e-08
-8.620770558e-08
2.289152094e-08
-1.362300471e-08
3.836239843e-07
6.130573883e-08
-4.646483431e-08
2.33171258e-07
6.177383725e-08
3.805695207e-08
-1.050607075e-08
2.147811427e-07
2.81927343e-07
2.081752949e-07
4.332783736e-07
5.776069963e-08
1.852811307e-07
1.502715794e-07
3.79317875e-07
2.917902344e-07
3.159729692e-07
4.561261263e-07
7.432725445e-07
7.474107192e-07
1.434506907e-07
1.031558328e-07
1.767576698e-07
3.453122295e-07
6.187772271e-07
6.76223211e-07
1.257266114e-06
1.512318934e-06
1.521098177e-06
1.653309036e-07
5.300830118e-07
3.89626283e-07
6.085286817e-07
1.000721239e-06
1.416576818e-06
2.117114046e-06
2.723273197e-06
3.405341307e-06
6.724849492e-07
8.125312409e-07
9.854354573e-07
1.439293639e-06
2.091653928e-06
2.879440948e-06
4.068613441e-06
5.760146106e-06
6.980244996e-06
8.213392296e-07
1.118426345e-06
1.617696545e-06
2.655136852e-06
3.938747966e-06
5.871688922e-06
8.788997493e-06
1.195904325e-05
1.521432682e-05
1.738785208e-06
2.346827728e-06
3.333882169e-06
5.088435344e-06
7.917677022e-06
1.221299684e-05
1.823474429e-05
2.570517033e-05
3.313667065e-05
3.298231989e-06
4.637344023e-06
6.669089709e-06
1.032085562e-05
1.630104584e-05
2.547533541e-05
3.887845725e-05
5.570678802e-05
7.252330451e-05
6.636273285e-06
9.001438272e-06
1.349158189e-05
2.123130053e-05
3.422046638e-05
5.450264375e-05
8.410826895e-05
0.0001216044676
0.0001602563223
1.367715307e-05
1.851936879e-05
2.79687441e-05
4.453795068e-05
7.253623224e-05
0.0001174785349
0.000182957204
0.0002667958862
0.0003535086559
2.79612642e-05
3.855305122e-05
5.874516987e-05
9.4870658e-05
0.0001563938802
0.0002552124555
0.0003993880867
0.0005835605743
0.0007745084076
5.918129876e-05
8.175434517e-05
0.0001257394326
0.0002048177285
0.0003397280776
0.000555101498
0.0008681662024
0.001265030368
0.001673920981
0.0001271463541
0.0001766362911
0.0002727761601
0.0004452461809
0.0007390745063
0.001203648899
0.001869583015
0.002702327155
0.003551273424
0.0002781325576
0.0003866680674
0.0005964987943
0.0009721179346
0.001603638213
0.002587463132
0.003971596091
0.005668280175
0.007371300253
0.0006152782895
0.0008529573546
0.001310295167
0.002118772908
0.003455981348
0.005495852691
0.008297903108
0.01165405141
0.01496399566
0.00136997872
0.001888436884
0.002874919457
0.004591519051
0.007371820406
0.01150883425
0.01704528218
0.02352445286
0.02983604834
0.003050816847
0.004169512052
0.006268992208
0.00985384034
0.01552701995
0.02375974529
0.03452936445
0.04697314578
0.05879753696
0.006748133081
0.009123792626
0.0135154563
0.02086877186
0.03225963795
0.04849218128
0.06961624988
0.09283944033
0.1133826991
0.01471859629
0.01966159586
0.02866634562
0.04349652292
0.06618815548
0.09865967838
0.1384341159
0.1813021797
0.2194870874
0.03144559493
0.04149327304
0.05959509642
0.08920410456
0.1350305051
0.1959743236
0.271841383
0.3553993362
0.4309121207
0.06551682525
0.08551874856
0.1215136938
0.1804532537
0.2652105056
0.3818746095
0.5297419509
0.698013756
0.8558304194
0.1332945076
0.1729830736
0.2419587961
0.3495530916
0.5087260129
0.7298821442
1.016517551
1.352443685
1.676255122
0.2646574798
0.3368129854
0.4624713615
0.6603957
0.9532507661
1.362628663
1.895629344
2.514880022
3.100864402
0.5054161642
0.6372806826
0.8654680794
1.222955378
1.748976686
2.474044049
3.383502062
4.368478856
5.23270956
0.9512331342
1.189595669
1.598894381
2.232289976
3.141829494
4.33377567
5.700121334
7.01215499
8.07659115
1.782100258
2.207982813
2.927152408
4.006015983
5.469923644
7.216855054
8.985567651
10.52191451
11.80075663
3.326793768
4.060741627
5.257818457
6.949936527
9.045538841
11.27459499
13.33502531
15.14749292
16.88883583
6.080393928
7.243091596
9.037353586
11.37348288
13.99751551
16.5940793
19.02718124
21.43524543
24.12144479
10.52743024
12.14427848
14.49236322
17.3435018
20.40247025
23.4885011
26.67019336
30.23941433
34.57388919
16.81523032
18.80664436
21.6036141
24.94643574
28.63051241
32.64168192
37.20654531
42.73454422
49.66417793
24.83635643
27.19698138
30.53487368
34.64685481
39.45561761
45.08971269
51.91866646
60.46781907
71.19024945
34.75939983
37.67044459
41.89456905
47.32483034
54.00414452
62.21694693
72.48099557
85.39771875
101.3393196
47.21929304
51.0220447
56.67908406
64.18788814
73.74650403
85.80295304
100.9935764
119.9049583
142.6590683
63.21092966
68.36495045
76.17748846
86.77919482
100.535726
118.0442891
139.9846401
166.7639251
197.9848341
83.99373414
91.10158122
102.0105054
117.0040263
136.6161069
161.543403
192.3718373
229.0699853
270.3237659
111.1450899
120.9649896
136.1448508
157.1306163
184.6018112
219.259642
261.3833746
310.129511
362.7124089
146.5822127
160.0326184
180.8935168
209.7675255
247.4274846
294.4320362
350.4558624
413.3404322
478.0897088
192.5770766
210.7287579
238.9001005
277.8257149
328.2870196
390.499084
463.1479543
542.1230833
619.2812697
251.7612123
275.8187726
313.1187764
364.4834785
430.5880104
511.056421
603.1283503
699.9863331
789.0973058
327.1283269
358.4065319
406.8070216
473.1797255
557.958927
659.9078961
774.313068
890.6765065
990.4751227
422.0471524
461.9515333
523.554063
607.6673238
714.3547599
841.2365936
980.9760097
1118.202702
1227.274197
540.3047555
590.3299606
667.3751186
772.168271
904.2840564
1059.711988
1227.829255
1387.794831
1504.581238
686.2183599
747.980585
842.9173678
971.6432094
1132.774188
1320.628441
1520.942447
1705.941179
1829.335061
864.8338226
940.1560305
1055.621266
1211.486107
1405.789731
1630.687488
1867.592258
2080.780684
2210.553477
1082.047739
1172.736183
1311.555928
1498.498117
1730.617418
1997.763519
2276.497962
2522.024819
2659.109361
1344.567896
1452.833645
1618.289691
1840.587176
2115.744229
2431.021741
2757.566288
3040.458772
3187.000563
1660.548916
1788.801626
1984.517964
2246.922272
2570.815756
2940.53455
3321.250347
3647.024758
3806.175012
2039.361047
2190.251636
2420.146124
2727.670273
3106.131815
3536.535559
3977.551215
4351.582711
4527.068081
2491.537565
2667.80962
2935.836097
3293.357487
3731.795478
4228.356324
4734.769809
5161.514845
5357.069249
3028.217332
3232.457586
3542.204741
3953.9008
4456.580952
5023.16715
5598.181026
6080.390491
6299.177892
3660.23438
3894.538527
4248.721931
4717.403564
5286.664127
5924.709771
6568.856634
7106.970197
7351.224417
4396.918832
4662.516491
5062.437707
5588.889038
6224.433855
6932.284537
7642.953364
8234.997517
8492.8215
5244.751016
5541.655986
5986.734899
6569.212235
7267.692905
8040.412735
8812.022658
9448.095853
9591.980133
6206.070898
6532.837537
7020.347758
7654.438053
8409.662981
9239.981073
10058.50068
10551.75988
10622.36698
7278.10538
7631.785806
8156.942362
8835.987785
9637.811376
10506.74676
11138.43134
11591.26826
11657.59532
8452.730461
8829.197203
9385.591891
10096.55574
10855.74666
11540.83107
12170.56069
12617.0055
12677.34643
9714.488444
10106.16427
10656.36406
11233.48349
11887.65967
12562.93343
13177.70667
13609.0767
13662.12261
10923.81128
11240.12359
11696.34199
12263.11436
12900.1137
13551.93643
14140.26468
14548.79668
14593.39839
11970.45515
12278.28187
12719.82812
13264.43764
13871.82794
14488.33718
15040.09493
15418.97799
15454.12878
12993.10671
13285.99294
13704.01686
14216.27486
14783.3577
15354.35036
15860.92364
16204.46452
16229.35424
13968.69143
14241.18761
14628.2212
15099.48022
15617.28891
16134.37676
16588.86406
16892.64555
16906.72613
14876.48535
15124.07153
15473.98372
15897.25023
16358.71162
16815.4968
17212.85666
17473.83553
17476.87321
15698.3243
15917.46844
16225.55745
16595.62017
16995.67933
17387.8491
17724.95295
17941.48191
17933.58741
16419.11523
16607.32741
16870.38595
17183.874
17519.52328
17844.83839
18120.42428
18292.20089
18273.83517
17027.27601
17183.11695
17399.42726
17654.77665
17924.98251
18183.16515
18397.70474
18525.65833
18497.61531
17514.98324
17638.02074
17807.27721
18004.61193
18210.15343
18402.69293
18558.19063
18644.32444
18607.69482
17878.2055
17968.92583
18092.09692
18233.04178
18376.2817
18506.18247
18605.9302
18653.12972
18609.24717
18116.53921
18176.22461
18255.37069
18342.81824
18427.4316
18498.92365
18547.22781
18559.05562
18509.43413
18232.88324
18263.46847
18301.53392
18339.3831
18370.06242
18388.29918
18390.20317
18370.69104
18316.95612
18232.99184
18236.9107
18237.50477
18230.39405
18212.55434
18183.31493
18144.33058
18097.78098
18041.60048
18124.95139
18104.98452
18072.16685
18025.2154
17964.71322
17894.12442
17819.98555
17750.79161
17693.81048
17918.62239
17877.75411
17815.83485
17734.4049
17637.28434
17531.57344
17428.02037
17340.51048
17284.29308
17625.08281
17566.37312
17479.73597
17369.22497
17241.4988
17106.78429
16979.3847
16877.69543
16823.67786
17256.10323
17182.57897
17075.53198
16941.19965
16788.6702
16630.79365
16484.80183
16372.78036
16322.2343
16823.67624
16738.2432
16614.89961
16461.73179
16289.85262
16114.2521
15954.5061
15835.64148
15789.64987
16339.61484
16244.9911
16109.18012
15941.7888
15755.56583
15567.18858
15398.0426
15275.42348
15234.86766
15815.22742
15713.89678
15569.10239
15391.65928
15195.58793
14998.83834
14824.12628
14700.42193
14665.97897
15261.07062
15155.25406
15004.57904
14820.77864
14618.81222
14417.53003
14240.55536
14118.01588
14090.16465
14686.77649
14578.4192
14424.57022
14237.61778
14033.16192
13830.62503
13654.17158
13534.64332
13513.67736
14100.94677
13991.71771
13837.00789
13649.62716
13445.55453
13244.50083
13070.85949
12955.81162
12941.85703
13511.10498
13402.40627
13248.77074
13063.22673
12861.90696
12664.56985
12495.57637
12386.13496
12379.17133
12923.69575
12816.67916
12665.70016
12483.83242
12287.17223
12095.32521
11932.40487
11829.39129
11829.27438
12344.12105
12239.70913
12092.64723
11915.90973
11725.39937
11540.40559
11384.62134
11288.59241
11295.07696
11776.80309
11675.71308
11533.5418
11363.04622
11179.80864
11002.67239
10854.77363
10766.06138
10778.82321
11225.26535
11128.0341
10991.47568
10828.03555
10652.87583
10484.29325
10344.76323
10263.51292
10282.16937
10692.22399
10599.23272
10468.79333
10312.96711
10146.42004
9986.827537
9855.927906
9782.133016
9806.261396
10179.6836
10091.18158
9967.184888
9819.316581
9661.69133
9511.310199
9389.121486
9322.655372
9351.809061
9689.032753
9605.159374
9487.777524
9348.033958
9199.454348
9058.331131
8944.789205
8885.43292
8919.154959
9221.135659
9141.940311
9031.221809
8899.626065
8760.066865
8628.109079
8523.036937
8470.50318
8508.337464
8776.417523
8701.87731
8597.771789
8474.232728
8343.551317
8220.558481
8123.693582
8077.646942
8119.147114
8354.942479
8284.977674
8187.357434
8071.695248
7949.658871
7835.348997
7746.366367
7706.440107
7751.176378
7956.483209
7890.970534
7799.64897
7691.616954
7577.925814
7471.95769
7390.489137
7356.298847
7403.862975
7580.582089
7519.365942
7434.113089
7333.415919
7227.722466
7129.714115
7055.363955
7026.518433
7076.527121
7226.604054
7169.505871
7090.06133
6996.370204
6898.295002
6807.838747
6740.196462
6716.306195
6768.403171
6893.781668
6840.60763
6766.691161
6679.656154
6588.800761
6505.475332
6444.125581
6424.809193
6478.666204
6581.253036
6531.800311
6463.120406
6382.380412
6298.337661
6221.717769
6166.248149
6151.137139
6206.454101
6288.093276
6242.155016
6178.415718
6103.60632
6025.968405
5955.632161
5905.63909
5894.381177
5950.885661
6013.340315
5970.709576
5911.615821
5842.375414
5770.740111
5706.274661
5661.367703
5653.62904
5711.075278
5756.015722
5716.488495
5661.750208
5597.724667
5531.700019
5472.705701
5432.510628
5427.977114
5486.144663
5515.141296
5478.518788
5427.853958
5368.700092
5307.907834
5254.001129
5218.161959
5216.539856
5275.232037
5289.75204
5255.842342
5208.979249
5154.367281
5098.445232
5049.26075
5017.440982
5018.456992
5077.499209
5078.906097
5047.52536
5004.204119
4953.819366
4902.423001
4857.614692
4829.497912
4832.898853
4892.13685
4881.692159
4852.665366
4812.638927
4766.182848
4718.986217
4678.227981
4653.517973
4659.070172
4718.368301
4697.234798
4670.396218
4633.430928
4590.621674
4547.317808
4510.303641
4488.72414
4496.212614
4555.452147
4524.698097
4499.891492
4465.76732
4426.339896
4386.640818
4353.084595
4334.378769
4343.606281
4402.683796
4363.287911
4340.366546
4308.877048
4272.583172
4236.219616
4205.85462
4189.784354
4200.570388
4259.396251
4212.253027
4191.079537
4162.031621
4128.639369
4095.360272
4067.938523
4054.283583
4066.463283
4124.960233
4070.885474
4051.33162
4024.545164
3993.838442
3963.410278
3938.701738
3927.258847
3940.68195
3998.783797
3938.520139
3920.466485
3895.773849
3867.551759
3839.757771
3817.549466
3808.131328
3822.66111
3880.311548
3814.533881
3797.869416
3775.114893
3749.191023
3723.830379
3703.925457
3696.359776
3711.872036
3769.023555
3698.344275
3682.966002
3662.005211
3638.206868
3615.093781
3597.31056
3591.439055
3607.821139
3664.434054
3589.408062
3575.220563
3555.919824
3534.087252
3513.05008
3497.221093
3492.898533
3510.048408
3566.089979
3487.219418
3474.134409
3456.370103
3436.355691
3417.236046
3403.207095
3400.300369
3418.125752
3473.569397
3391.308086
3379.243976
3362.901914
3344.569415
3327.221284
3314.850525
3313.237748
3331.655292
3386.479879
3301.237454
3290.11891
3275.093708
3258.317479
3242.606369
3231.763428
3231.33309
3250.267622
3304.456847
3216.602601
3206.360124
3192.5546
3177.218859
3163.020978
3153.586111
3154.236273
3173.620093
3227.161914
3137.028355
3127.597867
3114.922465
3100.920583
3088.122057
3079.985346
3081.622885
3101.39511
3154.28125
3062.167379
3053.489836
3041.862064
3029.095895
3017.592024
3010.652623
3013.192522
3033.298487
3085.52399
2991.698311
2983.719331
2973.063241
2961.442477
2951.137036
2945.302457
2948.667146
2969.057848
3020.620684
2925.323976
2917.993486
2908.239171
2897.680748
2888.48532
2883.670775
2887.789512
2908.421102
2959.321812
2862.769668
2856.041569
2847.124702
2837.552227
2829.385595
2825.513368
2830.32167
2851.154982
2901.396366
2803.781511
2797.613375
2789.474765
2780.817992
2773.605555
2770.604426
2776.043541
2797.043664
2846.630499
2748.124917
2742.477691
2735.062878
2727.257213
2720.93045
2718.73516
2724.751573
2745.887458
2794.826246
2695.583126
2690.420862
2683.679733
2676.665776
2671.161748
2669.712499
2676.257483
2697.501579
2745.800322
2645.95583
2641.245434
2635.131869
2628.854986
2624.115872
2623.357867
2630.387066
2651.714993
2699.382995
2599.057892
2594.768888
2589.240434
2583.650363
2579.623033
2579.506051
2586.979095
2608.369337
2655.417017
2554.718143
2550.822461
2545.840022
2540.890508
2537.526126
2538.004127
2545.88428
2567.317912
2613.756646
2512.778269
2509.250039
2504.777599
2500.426056
2497.679713
2498.710482
2506.964314
2528.424747
2574.266717
2473.091768
2469.907137
2465.911499
2462.118697
2459.949078
2461.493883
2470.090974
2491.563721
2536.821784
2435.522988
2432.65995
2429.110495
2425.840273
2424.209343
2426.232636
2435.145299
2456.617762
2501.305327
2399.946236
2397.384474
2394.25294
2391.471942
2390.344658
2392.813786
2402.016816
2423.47809
2467.609006
2366.244957
2363.965694
2361.225973
2358.9034
2358.247451
2361.132398
2370.602833
2392.043523
2435.631976
2334.310969
2332.296838
2329.924784
2328.03217
2327.81773
2331.090871
2340.807778
2362.21983
2405.28024
2304.043774
2302.27869
2300.251947
2298.76295
2298.962446
2302.598325
2312.542594
2333.919129
2376.466049
2275.349917
2273.818963
2272.1168
2271.007002
2271.594908
2275.570021
2285.724169
2307.059324
2349.107334
2248.14241
2246.831727
2245.434888
2244.681613
2245.634243
2249.926837
2260.274816
2281.56358
2323.127161
2222.340215
2221.236903
2220.127458
2219.709597
2221.004912
2225.594782
2236.121787
2257.359829
2298.453207
2197.867791
2196.95981
2196.121022
2196.018863
2197.63628
2202.504568
2213.196836
2234.380297
2275.017249
2174.654715
2173.930791
2173.34698
2173.542041
2175.462245
2180.591231
2191.435813
2212.561076
2252.754646
2152.63538
2152.084918
2151.741332
2152.216197
2154.420941
2159.793823
2170.778335
2191.841718
2231.603845
2131.748809
2131.361807
2131.244493
2131.982645
2134.454548
2140.055194
2151.167518
2172.164902
2211.505892
2111.938591
2111.705555
2111.801236
2112.786889
2115.509222
2121.3219
2132.549836
2153.476189
2192.40401
2093.152996
2093.064863
2093.360819
2094.578755
2097.535219
2103.544299
2114.875154
2135.723931
2174.243286
2075.3453
2075.393377
2075.877338
2077.312749
2080.487253
2086.67689
2098.097007
2118.859432
2156.970593
2058.474412
2058.650324
2059.31039
2060.948747
2064.325201
2070.679009
2082.173257
2102.83749
2140.534894
2042.505849
2042.801525
2043.626124
2045.453094
2049.015244
2055.516
2067.067251
2087.617484
2124.888152
2027.413164
2027.820869
2028.79879
2030.800228
2034.531578
2041.161
2052.749665
2073.165241
2109.987134
2013.179932
2013.69237
2014.812885
2016.97496
2020.858836
2027.59752
2039.201243
2059.455914
2095.796454
1999.802382
2000.412894
2001.666035
2003.975536
2007.995374
2014.822986
2026.416628
2046.478179
2082.293236
1987.292786
1987.995685
1989.372714
1991.817613
1995.957568
2002.853417
2014.409517
2034.240008
2069.473791
1975.683688
1976.474756
1977.968889
1980.539253
1984.785234
1991.729391
2003.219322
2022.776279
2057.362677
1965.033025
1965.910229
1967.517681
1970.207005
1974.548266
1981.52339
1992.919447
2012.158392
2046.024388
1955.430171
1956.394621
1958.116025
1960.923085
1965.354496
1972.348544
1983.627235
2002.505944
2035.577784
1947.002839
1948.060027
1949.902288
1952.833588
1957.358685
1964.368657
1975.51543
1994.000321
2026.213115
1939.92472
1941.08606
1943.06467
1946.137526
1950.772423
1957.809276
1968.824864
1986.899831
2018.211155
1934.423612
1935.708281
1937.850096
1941.096376
1945.874553
1952.969305
1963.877804
1981.555695
2011.963591
1930.789673
1932.226722
1934.573163
1938.043609
1943.021508
1950.232485
1961.091091
1978.427826
2007.993293
1929.38326
1931.013924
1933.624489
1937.393489
1942.656742
1950.077725
1960.98789
1978.098928
2006.972577
1930.641625
1932.521719
1935.477621
1939.648166
1945.318107
1953.086981
1964.206455
1981.284957
2009.736976
1935.083561
1937.285768
1940.693411
1945.401846
1951.641797
1959.94902
1971.503947
1988.839549
2017.291474
1943.310829
1945.926628
1949.920532
1955.340539
1962.361132
1971.457087
1983.752941
2001.749535
2030.805602
1956.005011
1959.145912
1963.890544
1970.235631
1978.298205
1988.498199
2001.927959
2021.118382
2051.593462
1973.91822
1977.715878
1983.405751
1990.929336
2000.346218
2012.031596
2027.0792
2048.1342
2081.074605
1997.855961
2002.46068
2009.317949
2018.31
2029.440293
2043.053901
2060.290717
2084.019184
2120.711998
2028.650408
2034.227482
2042.496199
2053.275266
2066.514667
2082.548805
2102.620709
2129.957954
2171.92418
2067.122466
2073.845802
2083.781984
2096.681496
2112.444692
2131.419741
2155.022525
2187.003504
2235.970329
2114.03134
2122.073857
2133.930607
2149.278457
2167.972911
2190.405195
2218.246488
2255.961405
2313.809416
2170.010993
2179.531424
2193.53861
2211.629405
2233.619851
2259.978003
2292.724784
2337.25561
2405.937994
2235.493869
2246.619857
2262.958234
2284.018231
2309.582074
2340.232307
2378.444531
2430.782664
2512.215296
2310.623694
2323.431479
2342.201818
2366.347449
2395.622462
2430.764701
2474.817457
2535.76499
2631.688985
2395.161072
2409.652563
2430.841148
2458.033229
2490.960499
2530.559238
2580.558136
2650.617881
2762.439368
2488.387766
2504.466492
2527.909383
2557.906451
2594.173227
2637.889039
2693.585921
2772.848117
2901.463578
2589.01806
2606.466164
2631.815666
2664.131297
2703.120068
2750.249589
2810.967729
2899.003836
3044.622948
2695.127812
2713.58695
2740.284702
2774.154799
2814.906196
2864.339644
2928.918906
3024.694558
3186.67576
2804.113582
2823.07303
2850.334693
2884.701326
2925.898827
2976.104283
3042.876663
3144.696303
3321.412966
2912.694652
2931.490001
2958.306479
2991.824473
3031.808065
3080.850341
3147.654701
3253.149473
3441.906377
3016.969448
3034.794784
3059.953963
3091.024872
3127.838494
3173.437439
3237.679072
3343.848485
3540.870276
3112.534332
3128.469612
3150.60069
3177.436027
3208.910273
3248.540433
3307.29826
3410.606486
3611.112459
3194.666874
3207.72055
3225.361178
3246.074187
3269.940751
3300.962193
3351.134494
3447.675133
3646.06796
3258.570513
3267.735669
3279.414193
3292.129648
3306.158597
3325.983763
3364.479334
3450.197887
3640.364558
3299.656981
3303.974721
3308.309554
3311.293627
3313.450418
3319.725198
3343.679706
3414.653771
3590.379907
3313.865652
3312.495476
3308.295811
3300.086438
3288.6908
3279.485952
3286.500007
3339.264245
3494.735167
3297.979228
3290.265506
3276.629257
3256.161833
3230.040572
3204.03798
3192.417022
3224.307213
3354.639619
3249.91643
3235.447359
3211.84601
3178.55998
3137.172338
3093.814984
3062.754209
3067.896353
3163.989088
3168.975773
3147.626377
3113.963692
3067.870521
3011.364854
2946.992927
2890.6167
2870.210866
2935.766158
3055.995766
3027.94166
2984.350238
2922.365023
2846.40413
2763.031393
2688.23103
2647.289329
2683.808799
2909.457215
2873.212401
2816.501678
2741.631689
2652.463986
2556.388155
2467.002656
2407.561803
2416.781384
2729.081867
2686.510422
2622.648964
2539.463079
2440.944816
2334.637322
2233.513584
2158.670086
2143.850697
2528.388399
2481.895891
2412.637047
2323.103734
2217.743638
2104.213877
1994.802172
1908.403276
1873.898777
2314.471591
2265.163422
2192.190631
2098.574682
1989.193405
1871.759553
1757.813884
1664.066286
1614.802298
2093.120309
2042.213315
1967.358118
1872.070303
1761.595294
1643.616476
1528.865802
1431.934513
1372.894266
1870.22785
1818.973931
1744.08891
1649.51084
1540.754777
1425.367656
1313.215604
1216.878595
1152.672296
1651.389069
1600.989432
1527.818039
1436.13311
1331.59509
1221.496763
1114.794043
1022.19661
956.759378
1441.535519
1393.061867
1323.125457
1236.182042
1137.900833
1035.206449
936.1207898
849.6495943
786.0831283
1244.662332
1198.996639
1133.513861
1052.737523
962.212144
868.3982472
778.389306
699.7905904
640.7785799
1063.676624
1021.476006
961.3217792
887.6815686
805.8588043
721.7834899
641.9813314
572.3247308
518.453194
900.3730229
862.0615436
807.7662695
741.7925861
669.2191773
595.557432
525.7753589
464.4853081
417.1273017
755.5233619
721.3098332
673.1364404
615.2911832
552.0263103
487.6751047
427.4835411
375.1292197
334.1446834
629.2911969
599.3568621
557.3714955
507.0319547
452.0274894
397.2233154
346.0584088
301.7571848
266.9659838
520.897115
494.8818608
458.2048005
414.959446
368.3921583
322.0581776
279.1200185
242.1452531
213.1054657
428.2442562
405.9182068
374.9118992
338.2155763
298.9868085
260.2553462
224.6332906
194.1496762
170.2654504
350.5971442
331.6554421
305.4706673
274.6618277
241.9559684
209.9083587
180.6575761
155.796844
136.4032956
285.9337291
270.0248917
248.1280438
222.5095901
195.495051
169.2181972
145.4155931
125.3318515
109.7583775
232.5612158
219.321097
201.1719191
180.0519414
157.9225054
136.5487059
117.3312155
101.2385277
88.85057654
188.8520458
177.9227844
162.9986477
145.7190072
127.7218246
110.4555516
95.04346824
82.23719924
72.46076875
153.2978142
144.3409388
132.1535775
118.108688
103.5622702
89.6946416
77.40249703
67.26836677
59.6021007
124.5399942
117.245241
107.3517851
95.99936507
84.3019888
73.21575791
63.45422875
55.46908055
49.48592617
101.3847322
95.47481417
87.4830174
78.3481285
68.97919928
60.14721627
52.41869472
46.14425647
41.48796382
82.80393461
78.0361778
71.60540393
64.27961551
56.79659637
49.77527997
43.66480269
38.73811353
35.11467634
67.92718917
64.09288728
58.93235756
53.07007746
47.10159631
41.52199553
36.68651586
32.80713329
30.10521375
56.02840938
52.95085093
48.8156745
44.12793993
39.36623202
34.92514697
31.08497734
28.14708168
26.03821319
46.50905129
44.04027272
40.72656063
36.97444965
33.16702462
29.61816791
26.68367531
24.35216102
22.68406635
38.88031476
36.89764229
34.23708179
31.22437467
28.18426353
25.44785658
23.08779896
21.22463804
19.90021018
32.7456401
31.14794082
29.002457
26.61975873
24.24211354
22.02574136
20.12393994
18.62971517
17.57178569
27.78376305
26.5137257
24.83710081
22.93353687
21.00008037
19.20320121
17.66525295
16.46225628
15.63881408
23.83653355
22.81834495
21.44928929
19.89739891
18.32289486
16.86049269
15.61165362
14.66286937
14.04838851
20.6052351
19.7731353
18.65466345
17.38636307
16.09848006
14.90249899
13.9018121
13.17733974
12.68259551
17.93789619
17.25610857
16.33871023
15.29673904
14.23782604
13.27052596
12.49065293
11.8985977
11.49002123
15.7256922
15.16395036
14.40690747
13.54666749
12.68894057
11.92346051
11.27622938
10.78074384
10.43564418
13.8786057
13.41309242
12.78613794