/*--------------------------------*- C++ -*----------------------------------*\
| =========                 |                                                 |
| \\      /  F ield         | OpenFOAM: The Open Source CFD Toolbox           |
|  \\    /   O peration     | Version:  2212                                  |
|   \\  /    A nd           | Website:  www.openfoam.com                      |
|    \\/     M anipulation  |                                                 |
\*---------------------------------------------------------------------------*/
FoamFile
{
    version     2.0;
    format      ascii;
    arch        "LSB;label=32;scalar=64";
    class       volScalarField;
    location    "2.75000000";
    object      SC3H5_0;
}
// * * * * * * * * * * * * * * * * * * * * * * * * * * * * * * * * * * * * * //

dimensions      [0 0 0 0 0 0 0];

internalField   nonuniform List<scalar> 
3000
(
7.100214494e-23
8.149528455e-23
9.741917229e-23
1.187880842e-22
1.454549022e-22
1.767275014e-22
2.107195531e-22
2.432923124e-22
2.665396748e-22
2.729511697e-22
3.149415852e-22
3.787014043e-22
4.645530129e-22
5.727285713e-22
7.027240134e-22
8.520689268e-22
1.012792538e-21
1.15482122e-21
6.370437459e-22
7.421936278e-22
9.036028997e-22
1.124927159e-21
1.411320579e-21
1.767697302e-21
2.192805613e-21
2.66246512e-21
3.065579065e-21
1.284461314e-21
1.515384634e-21
1.875776156e-21
2.381705099e-21
3.05517857e-21
3.917060761e-21
4.965488467e-21
6.118194944e-21
7.058864203e-21
2.448264622e-21
2.930183109e-21
3.695830142e-21
4.794651023e-21
6.290530097e-21
8.238049114e-21
1.061576206e-20
1.317637018e-20
1.517276789e-20
4.570487689e-21
5.550197897e-21
7.132243193e-21
9.443891118e-21
1.264032626e-20
1.683646227e-20
2.193774961e-20
2.731695614e-20
3.137334027e-20
8.495427668e-21
1.045670432e-20
1.366580501e-20
1.841687833e-20
2.504938602e-20
3.3776748e-20
4.430905964e-20
5.522090832e-20
6.325821482e-20
1.582733162e-20
1.970891681e-20
2.61235721e-20
3.570623086e-20
4.915479705e-20
6.683994944e-20
8.802365023e-20
1.096757399e-19
1.253692373e-19
2.961246865e-20
3.722316483e-20
4.988968804e-20
6.89210666e-20
9.569739121e-20
1.308383515e-19
1.72654464e-19
2.149695113e-19
2.453044772e-19
5.561467974e-20
7.041382466e-20
9.516241999e-20
1.324757235e-19
1.850172978e-19
2.538033975e-19
3.352099864e-19
4.169804586e-19
4.751473172e-19
1.047059648e-19
1.332682439e-19
1.811803863e-19
2.535524422e-19
3.554439443e-19
4.885065415e-19
6.452874753e-19
8.019050277e-19
9.126958108e-19
1.973141299e-19
2.520616324e-19
3.440698085e-19
4.831641686e-19
6.788521892e-19
9.338074408e-19
1.233130655e-18
1.530893825e-18
1.740670766e-18
3.716625529e-19
4.759374913e-19
6.513598289e-19
9.165968499e-19
1.289373822e-18
1.774000271e-18
2.341253878e-18
2.903682251e-18
3.298808347e-18
6.989346892e-19
8.963579805e-19
1.228638313e-18
1.730920576e-18
2.436055171e-18
3.35091684e-18
4.418807907e-18
5.474374766e-18
6.215415138e-18
1.311004839e-18
1.68261595e-18
2.308131803e-18
3.253238972e-18
4.578543549e-18
6.294859993e-18
8.292811255e-18
1.026084984e-17
1.164547903e-17
2.450854352e-18
3.146246187e-18
4.316544212e-18
6.083649871e-18
8.559023761e-18
1.176095484e-17
1.548651592e-17
1.915757828e-17
2.170801528e-17
4.563902662e-18
5.857487074e-18
8.033441056e-18
1.131599206e-17
1.590789903e-17
2.183684468e-17
2.871932019e-17
3.548208761e-17
4.018378665e-17
8.463090815e-18
1.085577239e-17
1.487782881e-17
2.09388556e-17
2.940557152e-17
4.031930519e-17
5.296516815e-17
6.536864216e-17
7.39816822e-17
1.562583868e-17
2.002789835e-17
2.742209022e-17
3.855253418e-17
5.407972805e-17
7.406427098e-17
9.718456254e-17
1.19827585e-16
1.355283164e-16
2.872576247e-17
3.678416834e-17
5.030920416e-17
7.064612008e-17
9.897968323e-17
1.353954535e-16
1.774650367e-16
2.186093579e-16
2.470999876e-16
5.258093335e-17
6.726268178e-17
9.188402524e-17
1.288656221e-16
1.803237146e-16
2.463712784e-16
3.225701705e-16
3.9699648e-16
4.484681172e-16
9.583885409e-17
1.224667784e-16
1.67084763e-16
2.340290604e-16
3.270638835e-16
4.463207419e-16
5.837288884e-16
7.177749777e-16
8.103698846e-16
1.739604545e-16
2.220462468e-16
3.025516868e-16
4.232113845e-16
5.906936661e-16
8.051101113e-16
1.051852624e-15
1.292274004e-15
1.458170061e-15
3.14487804e-16
4.009656051e-16
5.456257276e-16
7.622087669e-16
1.062481938e-15
1.446430156e-15
1.887729738e-15
2.317245096e-15
2.613309694e-15
5.663159983e-16
7.212301256e-16
9.801539879e-16
1.367403642e-15
1.903665903e-15
2.588544434e-15
3.374808361e-15
4.139253413e-15
4.665670322e-15
1.015965825e-15
1.292446676e-15
1.754172506e-15
2.44401488e-15
3.398204373e-15
4.615388289e-15
6.011150826e-15
7.366744827e-15
8.299345165e-15
1.816072234e-15
2.307790337e-15
3.128280539e-15
4.352858638e-15
6.044737754e-15
8.200356504e-15
1.066935081e-14
1.306469303e-14
1.471095756e-14
3.235139915e-15
4.106776586e-15
5.559983687e-15
7.726601375e-15
1.071647844e-14
1.452119381e-14
1.887373618e-14
2.309164207e-14
2.598748664e-14
5.744205143e-15
7.284512776e-15
9.850332679e-15
1.36716139e-14
1.893841101e-14
2.563188509e-14
3.327915902e-14
4.068071596e-14
4.575654929e-14
1.016739107e-14
1.288136046e-14
1.739820634e-14
2.411747529e-14
3.336636927e-14
4.510400429e-14
5.849480087e-14
7.143717317e-14
8.030130879e-14
1.79427177e-14
2.271123424e-14
3.063991282e-14
4.242012721e-14
5.861192701e-14
7.912809209e-14
1.024948899e-13
1.250420978e-13
1.404609387e-13
3.157247104e-14
3.992798249e-14
5.380643832e-14
7.439864665e-14
1.026564765e-13
1.383956272e-13
1.790207949e-13
2.181436462e-13
2.448481272e-13
5.539812417e-14
6.999878567e-14
9.422242951e-14
1.301090455e-13
1.792624174e-13
2.412952795e-13
3.116430922e-13
3.792263634e-13
4.252521899e-13
9.692824948e-14
1.223696401e-13
1.645234314e-13
2.268620187e-13
3.120582642e-13
4.193017763e-13
5.405744673e-13
6.567379433e-13
7.356256497e-13
1.691034515e-13
2.133003286e-13
2.864184538e-13
3.943228545e-13
5.414071273e-13
7.259831077e-13
9.339861777e-13
1.132510076e-12
1.266865664e-12
2.941390496e-13
3.70661379e-13
4.970314614e-13
6.830628562e-13
9.358521071e-13
1.251904334e-12
1.606596177e-12
1.943656701e-12
2.170823457e-12
5.10005443e-13
6.419955259e-13
8.595054987e-13
1.17876879e-12
1.610992867e-12
2.149005572e-12
2.749819173e-12
3.317828968e-12
3.698767611e-12
8.812826504e-13
1.107960324e-12
1.480575936e-12
2.0256116e-12
2.760257812e-12
3.669967313e-12
4.67999824e-12
5.629158221e-12
6.26210084e-12
1.517202561e-12
1.904547742e-12
2.539399133e-12
3.464236981e-12
4.704426382e-12
6.230894305e-12
7.914431627e-12
9.485693188e-12
1.052675871e-11
2.601378993e-12
3.259449559e-12
4.334312903e-12
5.892745478e-12
7.970223024e-12
1.050966406e-11
1.328939989e-11
1.586398951e-11
1.755777394e-11
4.440313163e-12
5.550913407e-12
7.357735247e-12
9.963227894e-12
1.341321806e-11
1.759789588e-11
2.214062891e-11
2.631323112e-11
2.903750143e-11
7.54162847e-12
9.401799128e-12
1.241447167e-11
1.673231829e-11
2.240706554e-11
2.923220031e-11
3.657519622e-11
4.326057339e-11
4.75907678e-11
1.273856557e-11
1.582771297e-11
2.080569254e-11
2.789221289e-11
3.713022827e-11
4.814075412e-11
5.987562093e-11
7.046238053e-11
7.72640048e-11
2.138493447e-11
2.646637077e-11
3.460997501e-11
4.611884493e-11
6.099302267e-11
7.855481794e-11
9.709277334e-11
1.136643216e-10
1.242253918e-10
3.565457652e-11
4.392562158e-11
5.710372205e-11
7.558582096e-11
9.926143725e-11
1.269513081e-10
1.55905018e-10
1.815592194e-10
1.977830637e-10
5.899097785e-11
7.229893956e-11
9.337439284e-11
1.227039124e-10
1.599465936e-10
2.031086889e-10
2.478448906e-10
2.871672696e-10
3.118657232e-10
9.67650188e-11
1.179078327e-10
1.511879756e-10
1.971506666e-10
2.550309681e-10
3.215619859e-10
3.900087027e-10
4.49802384e-10
4.871819077e-10
1.572120059e-10
1.903395034e-10
2.421735703e-10
3.132445667e-10
4.020764642e-10
5.034997067e-10
6.073148142e-10
6.977635134e-10
7.543129065e-10
2.527395509e-10
3.03861873e-10
3.833884747e-10
4.916933511e-10
6.261873401e-10
7.789894115e-10
9.350831068e-10
1.071403331e-09
1.157325531e-09
4.017492305e-10
4.793459517e-10
5.993648294e-10
7.617545819e-10
9.622256488e-10
1.189101648e-09
1.420710447e-09
1.623468736e-09
1.751201171e-09
6.312501301e-10
7.469732298e-10
9.249046417e-10
1.164024539e-09
1.457287641e-09
1.787116346e-09
2.120589947e-09
2.402630978e-09
2.570787052e-09
9.808382878e-10
1.150328299e-09
1.409237761e-09
1.754386396e-09
2.173368668e-09
2.63574209e-09
3.077917702e-09
3.433089701e-09
3.63759403e-09
1.509107556e-09
1.752903056e-09
2.122229527e-09
2.608362834e-09
3.183917176e-09
3.770933329e-09
4.300133175e-09
4.693849009e-09
4.894340538e-09
2.30379199e-09
2.64759532e-09
3.160203756e-09
3.812707536e-09
4.519323202e-09
5.194835381e-09
5.733393777e-09
6.044110608e-09
6.119791585e-09
3.492412894e-09
3.961069315e-09
4.625267085e-09
5.406890669e-09
6.197338285e-09
6.848692594e-09
7.202328703e-09
7.173650578e-09
6.896735546e-09
5.212568102e-09
5.784423632e-09
6.563049713e-09
7.417812443e-09
8.158645613e-09
8.549851105e-09
8.390569397e-09
7.681644763e-09
6.826249409e-09
7.520044495e-09
8.167890403e-09
8.9888398e-09
9.760737376e-09
1.018328845e-08
9.948249917e-09
8.919485361e-09
7.355097032e-09
5.971823773e-09
1.043754187e-08
1.106425463e-08
1.173895164e-08
1.211846236e-08
1.181299767e-08
1.057457114e-08
8.563380008e-09
6.401870176e-09
4.865696569e-09
1.373551467e-08
1.413142744e-08
1.431767315e-08
1.38633772e-08
1.24405511e-08
1.012373765e-08
7.498854447e-09
5.279455584e-09
3.920208753e-09
1.673275517e-08
1.658785852e-08
1.588054706e-08
1.426417845e-08
1.174121663e-08
8.82670069e-09
6.217670136e-09
4.308009158e-09
3.216432176e-09
1.832717415e-08
1.741020291e-08
1.567454247e-08
1.310266543e-08
1.010298683e-08
7.299471484e-09
5.093761673e-09
3.56681081e-09
2.708419217e-09
1.768701902e-08
1.614925641e-08
1.382880242e-08
1.104182817e-08
8.293052209e-09
5.977755104e-09
4.231134577e-09
3.028571587e-09
2.348521912e-09
1.523223419e-08
1.358028892e-08
1.136426088e-08
8.974051481e-09
6.775168984e-09
4.970680133e-09
3.60538333e-09
2.651226632e-09
2.102852728e-09
1.230303523e-08
1.092245438e-08
9.15683936e-09
7.314768991e-09
5.635362862e-09
4.243534901e-09
3.168849102e-09
2.399442781e-09
1.947607843e-09
9.813517371e-09
8.780521078e-09
7.467348197e-09
6.090987252e-09
4.817496442e-09
3.737201389e-09
2.879307778e-09
2.247182998e-09
1.86666829e-09
7.950481659e-09
7.202635246e-09
6.242244147e-09
5.218327283e-09
4.247716671e-09
3.399945785e-09
2.704994758e-09
2.176698602e-09
1.850038442e-09
6.608697729e-09
6.072558889e-09
5.372538011e-09
4.608890356e-09
3.864249118e-09
3.192813448e-09
2.623706872e-09
2.176747959e-09
1.892361333e-09
5.653335123e-09
5.271351031e-09
4.76271588e-09
4.193415906e-09
3.621314711e-09
3.088184127e-09
2.620569762e-09
2.24071182e-09
1.99146313e-09
4.975130919e-09
4.706901843e-09
4.341871297e-09
3.921934527e-09
3.486549854e-09
3.066947239e-09
2.685751109e-09
2.364857903e-09
2.146971337e-09
4.49594904e-09
4.31406151e-09
4.060359528e-09
3.759663383e-09
3.437469126e-09
3.115842149e-09
2.81251357e-09
2.546843865e-09
2.359049933e-09
4.162530827e-09
4.048487264e-09
3.884367967e-09
3.682778469e-09
3.458448606e-09
3.2253692e-09
2.995706374e-09
2.784513077e-09
2.627317486e-09
3.939550606e-09
3.880707731e-09
3.791289468e-09
3.675106967e-09
3.538496843e-09
3.388303366e-09
3.230733203e-09
3.075134479e-09
2.950427984e-09
3.804159448e-09
3.791598718e-09
3.766307984e-09
3.725756614e-09
3.669705454e-09
3.598687773e-09
3.512947208e-09
3.415210702e-09
3.325597648e-09
3.742041097e-09
3.769132915e-09
3.799967272e-09
3.827462688e-09
3.846248612e-09
3.851589416e-09
3.837701051e-09
3.799651219e-09
3.746747372e-09
3.744560913e-09
3.806023058e-09
3.886415723e-09
3.975427503e-09
4.064003042e-09
4.142732596e-09
4.199499293e-09
4.220944406e-09
4.205758924e-09
3.806606915e-09
3.897931601e-09
4.022134019e-09
4.16678816e-09
4.320067568e-09
4.467520672e-09
4.591233722e-09
4.67058155e-09
4.693185252e-09
3.925509791e-09
4.04269842e-09
4.205555265e-09
4.399948001e-09
4.610707575e-09
4.820076302e-09
5.005511831e-09
5.139570488e-09
5.198886938e-09
4.09976123e-09
4.239050646e-09
4.434526987e-09
4.6708008e-09
4.930872316e-09
5.194348184e-09
5.434817966e-09
5.618789885e-09
5.712532792e-09
4.325851956e-09
4.482547245e-09
4.704097729e-09
4.974379036e-09
5.275141038e-09
5.584016584e-09
5.871546843e-09
6.099193417e-09
6.223938116e-09
4.597559498e-09
4.767245019e-09
5.008525985e-09
5.304930171e-09
5.637437585e-09
5.982336321e-09
6.307971378e-09
6.571904024e-09
6.72326161e-09
4.907702864e-09
5.086163143e-09
5.341008057e-09
5.655709212e-09
6.010882643e-09
6.382055706e-09
6.736222529e-09
7.028257999e-09
7.201111279e-09
5.247962053e-09
5.431171332e-09
5.693628744e-09
6.018977777e-09
6.387816746e-09
6.77544475e-09
7.148314239e-09
7.459835653e-09
7.648597158e-09
5.608993325e-09
5.793139838e-09
6.057537765e-09
6.386184845e-09
6.759957113e-09
7.1544035e-09
7.536191675e-09
7.858461127e-09
8.057317244e-09
5.980745808e-09
6.162260992e-09
6.423263539e-09
6.748249188e-09
7.118616921e-09
7.510581953e-09
7.891720917e-09
8.216065368e-09
8.419178774e-09
6.352851243e-09
6.528428426e-09
6.781067855e-09
7.095865818e-09
7.454924053e-09
7.835441926e-09
8.20647986e-09
8.524105102e-09
8.725879207e-09
6.714984666e-09
6.881583733e-09
7.121268744e-09
7.419791744e-09
7.760042819e-09
8.120324769e-09
8.471314113e-09
8.771225344e-09
8.959540759e-09
7.057122316e-09
7.211958465e-09
7.434462731e-09
7.711064247e-09
8.02547337e-09
8.357135501e-09
8.678338586e-09
8.949666607e-09
9.121736873e-09
7.369626786e-09
7.510125079e-09
7.711510604e-09
7.960872987e-09
8.242739691e-09
8.537819751e-09
8.819671304e-09
9.061111243e-09
9.217169781e-09
7.643060598e-09
7.766762272e-09
7.943196508e-09
8.159990797e-09
8.40222214e-09
8.653851696e-09
8.898328781e-09
9.110783284e-09
9.25023378e-09
7.867486779e-09
7.971939142e-09
8.119470852e-09
8.298251901e-09
8.499185394e-09
8.710919965e-09
8.919228992e-09
9.102439464e-09
9.224327209e-09
8.030612746e-09
8.113429357e-09
8.231053438e-09
8.375498457e-09
8.539031702e-09
8.712834098e-09
8.885406266e-09
9.038839851e-09
9.142307952e-09
8.129349791e-09
8.19340474e-09
8.284655043e-09
8.397267571e-09
8.525295826e-09
8.662154554e-09
8.799213108e-09
8.922574728e-09
9.007124447e-09
8.17084869e-09
8.217659214e-09
8.28430248e-09
8.366566591e-09
8.460268279e-09
8.561017959e-09
8.663087945e-09
8.756616738e-09
8.822229123e-09
8.158673488e-09
8.189142399e-09
8.232311225e-09
8.285414121e-09
8.345989855e-09
8.411814874e-09
8.480004008e-09
8.544594209e-09
8.591754917e-09
8.094862605e-09
8.109773246e-09
8.130571465e-09
8.1558792e-09
8.18492197e-09
8.217577605e-09
8.253662525e-09
8.290858652e-09
8.320518998e-09
7.981342902e-09
7.981603595e-09
7.981379123e-09
7.980647319e-09
7.980269747e-09
7.982117545e-09
7.988503218e-09
8.000417312e-09
8.013917755e-09
7.820664833e-09
7.807396711e-09
7.787824351e-09
7.763238315e-09
7.736056072e-09
7.709991698e-09
7.689599239e-09
7.67878655e-09
7.677761929e-09
7.616279751e-09
7.590819334e-09
7.553882269e-09
7.508002995e-09
7.457041238e-09
7.406367231e-09
7.362487999e-09
7.331806403e-09
7.318086362e-09
7.372548171e-09
7.33640708e-09
7.28432821e-09
7.219992336e-09
7.148556834e-09
7.07683354e-09
7.012974028e-09
6.965442753e-09
6.940955502e-09
7.094601155e-09
7.049406788e-09
6.984558908e-09
6.904761383e-09
6.816299743e-09
6.727194512e-09
6.64692727e-09
6.585598242e-09
6.552285933e-09
6.788128655e-09
6.735559414e-09
6.660371011e-09
6.568146859e-09
6.466114938e-09
6.363264261e-09
6.270097105e-09
6.197943844e-09
6.157690654e-09
6.459138389e-09
6.400861036e-09
6.317727673e-09
6.216045449e-09
6.103790815e-09
5.99068244e-09
5.887949091e-09
5.807776857e-09
5.762352326e-09
6.113716337e-09
6.05133168e-09
5.962540239e-09
5.854211698e-09
5.734877163e-09
5.614755879e-09
5.505531655e-09
5.419910301e-09
5.370928104e-09
5.757808053e-09
5.692806309e-09
5.600473919e-09
5.488083449e-09
5.36453414e-09
5.240333096e-09
5.127375908e-09
5.038594821e-09
4.98748611e-09
5.397030621e-09
5.330758241e-09
5.236787869e-09
5.122642772e-09
4.997416891e-09
4.871713713e-09
4.75742883e-09
4.66747204e-09
4.615471765e-09
5.036523763e-09
4.970161754e-09
4.876214198e-09
4.762314988e-09
4.637596721e-09
4.512592151e-09
4.399017993e-09
4.309556648e-09
4.257700806e-09
4.680842827e-09
4.61539578e-09
4.522876661e-09
4.410905344e-09
4.28851719e-09
4.166033006e-09
4.05484446e-09
3.96724343e-09
3.91637501e-09
4.333892976e-09
4.270187381e-09
4.180247015e-09
4.071570503e-09
3.952981608e-09
3.834474034e-09
3.726999496e-09
3.642334743e-09
3.593116113e-09
3.998901132e-09
3.937591277e-09
3.851134875e-09
3.74682033e-09
3.633167136e-09
3.519751856e-09
3.417000217e-09
3.336083699e-09
3.289013366e-09
3.678420454e-09
3.620000034e-09
3.537705597e-09
3.438544447e-09
3.330660035e-09
3.223145081e-09
3.125839181e-09
3.049248411e-09
3.004680332e-09
3.37436102e-09
3.319178675e-09
3.24152004e-09
3.148057626e-09
3.046506445e-09
2.945429671e-09
2.854043187e-09
2.782152987e-09
2.740316916e-09
3.088040075e-09
3.036317236e-09
2.963590033e-09
2.876158218e-09
2.781273356e-09
2.686941711e-09
2.601737004e-09
2.534751498e-09
2.495773196e-09
2.820245431e-09
2.772095095e-09
2.704443729e-09
2.62319429e-09
2.535115001e-09
2.447643415e-09
2.368708416e-09
2.306691781e-09
2.270612216e-09
2.571306251e-09
2.526751612e-09
2.464195796e-09
2.389132884e-09
2.307840632e-09
2.227188895e-09
2.154471656e-09
2.0973766e-09
2.064169571e-09
2.341166334e-09
2.300158458e-09
2.242618216e-09
2.173628694e-09
2.098980497e-09
2.024987025e-09
1.958327042e-09
1.906020379e-09
1.875608196e-09
2.129456048e-09
2.091890044e-09
2.039208469e-09
1.976089326e-09
1.907847655e-09
1.840259502e-09
1.779415303e-09
1.731700295e-09
1.703967384e-09
1.935560032e-09
1.901289406e-09
1.853252763e-09
1.795735184e-09
1.733594023e-09
1.672092841e-09
1.616765675e-09
1.573401068e-09
1.548205482e-09
1.758678758e-09
1.727527797e-09
1.683882802e-09
1.631652748e-09
1.575259732e-09
1.519483685e-09
1.469337357e-09
1.430053219e-09
1.407236156e-09
1.597882809e-09
1.569657001e-09
1.530125298e-09
1.482840658e-09
1.431815426e-09
1.381377221e-09
1.336054335e-09
1.3005649e-09
1.279958368e-09
1.452159421e-09
1.426653993e-09
1.39094398e-09
1.348248538e-09
1.302197589e-09
1.256698934e-09
1.215833769e-09
1.183847623e-09
1.165280505e-09
1.32045134e-09
1.297458097e-09
1.265274353e-09
1.226808798e-09
1.185337078e-09
1.144379988e-09
1.107608563e-09
1.078836498e-09
1.062139174e-09
1.201688329e-09
1.18100093e-09
1.152051456e-09
1.11746186e-09
1.080181696e-09
1.043377055e-09
1.010344656e-09
9.845055097e-10
9.695132818e-10
1.094811952e-09
1.076229885e-09
1.050231541e-09
1.01917565e-09
9.857132991e-10
9.526870989e-10
9.230537089e-10
8.998785365e-10
8.864340575e-10
9.987944661e-10
9.821259045e-10
9.588082943e-10
9.309599944e-10
9.009602201e-10
8.713578739e-10
8.448018739e-10
8.240367572e-10
8.119916489e-10
9.126526043e-10
8.977163472e-10
8.768244255e-10
8.5187669e-10
8.250057535e-10
7.984948432e-10
7.747153236e-10
7.5612309e-10
7.453389185e-10
8.35457051e-10
8.220837201e-10
8.033793752e-10
7.810460154e-10
7.569933831e-10
7.332651737e-10
7.119831502e-10
6.953442359e-10
6.856929846e-10
7.66338389e-10
7.543710392e-10
7.376338686e-10
7.176503381e-10
6.961294006e-10
6.748993973e-10
6.558581838e-10
6.409708451e-10
6.323350081e-10
7.044902129e-10
6.937844923e-10
6.7881196e-10
6.609354401e-10
6.416834773e-10
6.226912623e-10
6.056562145e-10
5.923362543e-10
5.846086491e-10
6.491700295e-10
6.395940017e-10
6.262011354e-10
6.102100875e-10
5.929876811e-10
5.759962246e-10
5.607540279e-10
5.488341763e-10
5.419175569e-10
5.996984772e-10
5.911322007e-10
5.791509576e-10
5.648442958e-10
5.494343511e-10
5.342289553e-10
5.205865993e-10
5.099156568e-10
5.03722193e-10
5.554573131e-10
5.477922525e-10
5.370706594e-10
5.242666662e-10
5.104731728e-10
4.968601757e-10
4.846437261e-10
4.750855577e-10
4.695362309e-10
5.158865348e-10
5.090248646e-10
4.994260142e-10
4.879610965e-10
4.756077313e-10
4.634130679e-10
4.524663226e-10
4.438987702e-10
4.389227236e-10
4.80480936e-10
4.743347834e-10
4.65735752e-10
4.554631117e-10
4.443917613e-10
4.334594581e-10
4.236425551e-10
4.159563171e-10
4.114901919e-10
4.487863288e-10
4.432769913e-10
4.355677262e-10
4.263560027e-10
4.164252657e-10
4.066159252e-10
3.978039484e-10
3.909014657e-10
3.868887425e-10
4.203956153e-10
4.154527797e-10
4.085349919e-10
4.002669182e-10
3.913506295e-10
3.825399449e-10
3.746215657e-10
3.684159403e-10
3.648063017e-10
3.949448452e-10
3.905058263e-10
3.842919156e-10
3.768630173e-10
3.688488252e-10
3.609261539e-10
3.538023318e-10
3.482162954e-10
3.449650204e-10
3.721093582e-10
3.681183715e-10
3.625304006e-10
3.558477577e-10
3.486357752e-10
3.415027908e-10
3.350855482e-10
3.30050493e-10
3.27117889e-10
3.516000824e-10
3.480075588e-10
3.429762883e-10
3.369573739e-10
3.304589148e-10
3.240283484e-10
3.182396303e-10
3.136947088e-10
3.11045585e-10
3.331600361e-10
3.299219832e-10
3.253859743e-10
3.199575759e-10
3.140939851e-10
3.082884612e-10
3.03059083e-10
2.989503795e-10
2.965535628e-10
3.165610597e-10
3.136384729e-10
3.095432604e-10
3.046404877e-10
2.993420662e-10
2.940930362e-10
2.893617212e-10
2.856414946e-10
2.834693886e-10
3.016007952e-10
2.989591182e-10
2.952564543e-10
2.908218326e-10
2.86026857e-10
2.812736279e-10
2.769861326e-10
2.736121298e-10
2.716403145e-10
2.88099913e-10
2.85708548e-10
2.823557145e-10
2.783383623e-10
2.73992197e-10
2.696810526e-10
2.657893755e-10
2.62724211e-10
2.609310827e-10
2.758995873e-10
2.737314511e-10
2.706906396e-10
2.670455261e-10
2.630998218e-10
2.591832305e-10
2.556449008e-10
2.528554998e-10
2.51221947e-10
2.648592102e-10
2.628903354e-10
2.601280877e-10
2.568153653e-10
2.532273394e-10
2.496632441e-10
2.464406842e-10
2.438977838e-10
2.424068982e-10
2.548543305e-10
2.530635071e-10
2.505502151e-10
2.475346214e-10
2.442664143e-10
2.410175975e-10
2.380775539e-10
2.357552585e-10
2.343920771e-10
2.45774803e-10
2.441432592e-10
2.418527175e-10
2.39103042e-10
2.361211433e-10
2.331546613e-10
2.30467698e-10
2.283430835e-10
2.270943596e-10
2.375231346e-10
2.360342516e-10
2.339432597e-10
2.314318691e-10
2.287066072e-10
2.259932879e-10
2.235333362e-10
2.215860993e-10
2.20440099e-10
2.300130091e-10
2.286520682e-10
2.267400771e-10
2.24442494e-10
2.219475833e-10
2.194615802e-10
2.172055403e-10
2.154176875e-10
2.143640102e-10
2.231679762e-10
2.219219346e-10
2.201707333e-10
2.180652631e-10
2.157774027e-10
2.134958009e-10
2.114231896e-10
2.097787626e-10
2.088081823e-10
2.169202884e-10
2.157775803e-10
2.141710189e-10
2.122384197e-10
2.101369397e-10
2.080394071e-10
2.061320463e-10
2.046168798e-10
2.037212049e-10
2.112098711e-10
2.101602328e-10
2.086839777e-10
2.069071687e-10
2.049737169e-10
2.030421977e-10
2.012839401e-10
1.99885448e-10
1.990573982e-10
2.059834128e-10
2.050177278e-10
2.036590458e-10
2.020228506e-10
2.002411173e-10
1.984595607e-10
1.968360482e-10
1.955430358e-10
1.947761335e-10
2.011935622e-10
2.003037249e-10
1.990512931e-10
1.975422134e-10
1.958976884e-10
1.942518105e-10
1.927502616e-10
1.9155276e-10
1.908412349e-10
1.9679822e-10
1.959770158e-10
1.948207542e-10
1.934267707e-10
1.919065301e-10
1.903836042e-10
1.889926269e-10
1.878817483e-10
1.872204535e-10
1.927599163e-10
1.920009159e-10
1.909318405e-10
1.896422376e-10
1.882347559e-10
1.868234287e-10
1.855328564e-10
1.845006655e-10
1.838850041e-10
1.890452619e-10
1.883427289e-10
1.873528216e-10
1.86158034e-10
1.848530193e-10
1.835431486e-10
1.82343896e-10
1.813832985e-10
1.80809159e-10
1.856244665e-10
1.849732754e-10
1.840553713e-10
1.829468483e-10
1.817350974e-10
1.805176106e-10
1.794015465e-10
1.785061909e-10
1.779698901e-10
1.824709152e-10
1.818664802e-10
1.81014167e-10
1.799842544e-10
1.788575255e-10
1.777242943e-10
1.766841311e-10
1.758483217e-10
1.753465554e-10
1.795607963e-10
1.789990083e-10
1.782065391e-10
1.772483743e-10
1.761992758e-10
1.751430069e-10
1.741722025e-10
1.733908241e-10
1.729206233e-10
1.768727745e-10
1.76349946e-10
1.756121621e-10
1.747195832e-10
1.737414752e-10
1.727556143e-10
1.718482865e-10
1.711167376e-10
1.706754302e-10
1.743877044e-10
1.739005207e-10
1.732127842e-10
1.723802495e-10
1.714671578e-10
1.70545805e-10
1.696966564e-10
1.69010791e-10
1.685959678e-10
1.72088378e-10
1.716338551e-10
1.709919894e-10
1.702145065e-10
1.693610471e-10
1.684988829e-10
1.677031348e-10
1.670592106e-10
1.666686964e-10
1.699593035e-10
1.695347505e-10
1.689349883e-10
1.682080525e-10
1.674093651e-10
1.66601585e-10
1.658549193e-10
1.652495533e-10
1.648813803e-10
1.679865113e-10
1.675894973e-10
1.670284347e-10
1.663479744e-10
1.655996641e-10
1.648419216e-10
1.641404296e-10
1.63570558e-10
1.632229434e-10
1.661573825e-10
1.657857081e-10
1.652602643e-10
1.646225929e-10
1.639206789e-10
1.63209035e-10
1.62549173e-10
1.620120164e-10
1.616833423e-10
1.644604988e-10
1.641121706e-10
1.636195525e-10
1.630213268e-10
1.62362197e-10
1.616930761e-10
1.610716254e-10
1.605646584e-10
1.602534538e-10
1.628855107e-10
1.625587188e-10
1.620963899e-10
1.615345725e-10
1.609149442e-10
1.602850951e-10
1.596991275e-10
1.592200515e-10
1.589249773e-10
1.614230205e-10
1.61116119e-10
1.60681772e-10
1.60153599e-10
1.595704837e-10
1.589769451e-10
1.584237927e-10
1.579705121e-10
1.576903471e-10
1.600644801e-10
1.597759698e-10
1.593675024e-10
1.588704546e-10
1.583211273e-10
1.577611979e-10
1.572384256e-10
1.568090275e-10
1.565426564e-10
1.588021002e-10
1.585306132e-10
1.581461068e-10
1.576778845e-10
1.571598567e-10
1.566310688e-10
1.561364512e-10
1.557291865e-10
1.554755896e-10
1.576287702e-10
1.573730566e-10
1.570107578e-10
1.565692584e-10
1.560802544e-10
1.555803502e-10
1.551118508e-10
1.547251186e-10
1.544833625e-10
1.565379867e-10
1.562969029e-10
1.559552069e-10
1.555385057e-10
1.550764414e-10
1.54603353e-10
1.541591061e-10
1.537914393e-10
1.535606689e-10
1.555237904e-10
1.552962885e-10
1.549737245e-10
1.545800573e-10
1.541430222e-10
1.536948537e-10
1.532731483e-10
1.529232021e-10
1.527026337e-10
1.545807084e-10
1.543658271e-10
1.540610458e-10
1.536887939e-10
1.532750349e-10
1.528500463e-10
1.52449313e-10
1.521158537e-10
1.519047694e-10
1.537037024e-10
1.535005589e-10
1.532123209e-10
1.528599975e-10
1.524679047e-10
1.520644989e-10
1.516832972e-10
1.513651939e-10
1.51162936e-10
1.528881201e-10
1.526959025e-10
1.524230687e-10
1.520893072e-10
1.517174012e-10
1.513341112e-10
1.509711197e-10
1.506673359e-10
1.504733034e-10
1.52129649e-10
1.519476103e-10
1.516891319e-10
1.51372675e-10
1.510195958e-10
1.506550743e-10
1.503090808e-10
1.500186681e-10
1.498323124e-10
1.514242718e-10
1.51251723e-10
1.510066336e-10
1.507063232e-10
1.50370819e-10
1.50023828e-10
1.496937213e-10
1.494158126e-10
1.492366348e-10
1.507682202e-10
1.506045246e-10
1.503719314e-10
1.500866983e-10
1.497676154e-10
1.494370161e-10
1.491217768e-10
1.488555802e-10
1.486831274e-10
1.501579268e-10
1.500024937e-10
1.497815687e-10
1.495104225e-10
1.492066936e-10
1.48891435e-10
1.485901262e-10
1.483349181e-10
1.4816878e-10
1.495899729e-10
1.494422506e-10
1.492322207e-10
1.489742378e-10
1.486848692e-10
1.483839758e-10
1.480957314e-10
1.47850847e-10
1.476906507e-10
1.490610294e-10
1.489204971e-10
1.487206332e-10
1.484749425e-10
1.481989985e-10
1.479115539e-10
1.476355636e-10
1.474003857e-10
1.472457889e-10
1.485677909e-10
1.484339493e-10
1.482435515e-10
1.480093173e-10
1.477459006e-10
1.474710266e-10
1.472065166e-10
1.469804587e-10
1.468311398e-10
1.48106899e-10
1.479792582e-10
1.477976391e-10
1.47574039e-10
1.473222648e-10
1.470590948e-10
1.46805301e-10
1.465877851e-10
1.464434289e-10
1.476748553e-10
1.475529199e-10
1.473793828e-10
1.471655799e-10
1.46924544e-10
1.466721878e-10
1.464283207e-10
1.462187469e-10
1.460790254e-10
1.472679222e-10
1.471511732e-10
1.469849847e-10
1.467800933e-10
1.465488309e-10
1.463063295e-10
1.460715295e-10
1.458692357e-10
1.457337818e-10
1.468820116e-10
1.467698842e-10
1.466102417e-10
1.46413284e-10
1.461907191e-10
1.459569888e-10
1.457302686e-10
1.455344802e-10
1.454028537e-10
1.465125628e-10
1.464044194e-10
1.462504111e-10
1.460602663e-10
1.458451504e-10
1.456189144e-10
1.453990893e-10
1.452088554e-10
1.450805011e-10
1.461544106e-10
1.4604951e-10
1.459000686e-10
1.457154125e-10
1.455062522e-10
1.452859602e-10
1.450715649e-10
1.448856832e-10
1.4475988e-10
1.458016484e-10
1.456991101e-10
1.455529604e-10
1.453721966e-10
1.451671712e-10
1.449509068e-10
1.447400999e-10
1.445570299e-10
1.444328316e-10
1.454474901e-10
1.453462555e-10
1.452018559e-10
1.450230403e-10
1.448199113e-10
1.446052903e-10
1.44395749e-10
1.442135156e-10
1.440896853e-10
1.450841391e-10
1.449829299e-10
1.448384109e-10
1.446591714e-10
1.444551861e-10
1.44239249e-10
1.440280575e-10
1.438441489e-10
1.437190899e-10
1.447026715e-10
1.445999476e-10
1.444530492e-10
1.442705049e-10
1.440622997e-10
1.438414037e-10
1.436249421e-10
1.434362087e-10
1.433078943e-10
1.442929447e-10
1.441868639e-10
1.440348765e-10
1.43845561e-10
1.436290708e-10
1.433987895e-10
1.431726306e-10
1.429751908e-10
1.428411015e-10
1.438435438e-10
1.43731927e-10
1.435716396e-10
1.433714356e-10
1.431418174e-10
1.42896857e-10
1.426556818e-10
1.424448473e-10
1.423019195e-10
1.433417788e-10
1.432220832e-10
1.43049746e-10
1.428338388e-10
1.425854191e-10
1.42319564e-10
1.420571095e-10
1.418273397e-10
1.416719372e-10
1.427737461e-10
1.42643053e-10
1.424543607e-10
1.422172204e-10
1.419434786e-10
1.416495787e-10
1.41358631e-10
1.41103533e-10
1.409314501e-10
1.421244711e-10
1.419794917e-10
1.417695954e-10
1.41504997e-10
1.411985974e-10
1.408686128e-10
1.405410629e-10
1.402534504e-10
1.400599581e-10
1.413781439e-10
1.412152493e-10
1.409788046e-10
1.406798982e-10
1.403327834e-10
1.399579013e-10
1.395848787e-10
1.392569074e-10
1.39036854e-10
1.405184617e-10
1.403337422e-10
1.40065003e-10
1.397244432e-10
1.393280022e-10
1.388988399e-10
1.384709407e-10
1.380943321e-10
1.378423086e-10
1.395290888e-10
1.393184473e-10
1.390114102e-10
1.386215554e-10
1.381668764e-10
1.376737838e-10
1.371814044e-10
1.367477725e-10
1.364583511e-10
1.383942376e-10
1.381535214e-10
1.378021285e-10
1.373553152e-10
1.368335319e-10
1.362670002e-10
1.357007853e-10
1.352020704e-10
1.348701212e-10
1.370993721e-10
1.368245445e-10
1.364229455e-10
1.359118418e-10
1.353145745e-10
1.346657534e-10
1.340171577e-10
1.334461688e-10
1.330672527e-10
1.356320224e-10
1.353193743e-10