/*--------------------------------*- C++ -*----------------------------------*\
| =========                 |                                                 |
| \\      /  F ield         | OpenFOAM: The Open Source CFD Toolbox           |
|  \\    /   O peration     | Version:  2212                                  |
|   \\  /    A nd           | Website:  www.openfoam.com                      |
|    \\/     M anipulation  |                                                 |
\*---------------------------------------------------------------------------*/
FoamFile
{
    version     2.0;
    format      ascii;
    arch        "LSB;label=32;scalar=64";
    class       volScalarField;
    location    "2.75000000";
    object      SC3H5;
}
// * * * * * * * * * * * * * * * * * * * * * * * * * * * * * * * * * * * * * //

dimensions      [0 0 0 0 0 0 0];

internalField   nonuniform List<scalar> 
3000
(
7.112844305e-23
8.163896208e-23
9.758912924e-23
1.189931461e-22
1.457035677e-22
1.770270959e-22
2.110743456e-22
2.436998916e-22
2.669847808e-22
2.734314616e-22
3.154904936e-22
3.793540695e-22
4.653446634e-22
5.736944564e-22
7.038984729e-22
8.534826188e-22
1.014463914e-21
1.156720631e-21
6.381435873e-22
7.434615556e-22
9.051275923e-22
1.126801844e-21
1.413645568e-21
1.770580275e-21
2.19635299e-21
2.666746763e-21
3.070490342e-21
1.286620404e-21
1.517902098e-21
1.878849698e-21
2.385553885e-21
3.060052416e-21
3.923239736e-21
4.973250909e-21
6.127696319e-21
7.0697786e-21
2.452242741e-21
2.934882362e-21
3.701667309e-21
4.802107867e-21
6.300173583e-21
8.250518824e-21
1.063166235e-20
1.319594417e-20
1.519526138e-20
4.577619783e-21
5.558734822e-21
7.143030623e-21
9.457934777e-21
1.265882493e-20
1.686074644e-20
2.1968992e-20
2.735545805e-20
3.141717261e-20
8.508085417e-21
1.047204235e-20
1.368548904e-20
1.844292526e-20
2.508420857e-20
3.382297596e-20
4.436888383e-20
5.529465088e-20
6.334208114e-20
1.584973673e-20
1.973635439e-20
2.615924355e-20
3.575405219e-20
4.921944349e-20
6.692642271e-20
8.813592258e-20
1.098140455e-19
1.255261586e-19
2.965213383e-20
3.727215791e-20
4.995404014e-20
6.900819318e-20
9.581610457e-20
1.309979198e-19
1.728619608e-19
2.152248493e-19
2.455936251e-19
5.568493642e-20
7.050118195e-20
9.5278057e-20
1.326334161e-19
1.852333337e-19
2.540946672e-19
3.355889783e-19
4.174463002e-19
4.756740144e-19
1.048303673e-19
1.334236871e-19
1.813873089e-19
2.538360494e-19
3.558339081e-19
4.890332987e-19
6.459729555e-19
8.027466265e-19
9.136460788e-19
1.975340205e-19
2.523373109e-19
3.444381736e-19
4.836707429e-19
6.795504211e-19
9.347517106e-19
1.23435918e-18
1.53240027e-18
1.742369694e-18
3.720498562e-19
4.764239817e-19
6.52011274e-19
9.174944284e-19
1.290612682e-18
1.775676257e-18
2.343432099e-18
2.906350135e-18
3.301812255e-18
6.996132531e-19
8.972107678e-19
1.229780815e-18
1.732495041e-18
2.438227108e-18
3.35384943e-18
4.422613467e-18
5.479071263e-18
6.220638505e-18
1.31218573e-18
1.684098807e-18
2.310115659e-18
3.255966617e-18
4.582292894e-18
6.299906455e-18
8.29944106e-18
1.026951478e-17
1.165448362e-17
2.452894062e-18
3.148802716e-18
4.319954988e-18
6.088321894e-18
8.565419416e-18
1.17695161e-17
1.549741892e-17
1.917023494e-17
2.172286478e-17
4.567398684e-18
5.861859648e-18
8.039258593e-18
1.132393455e-17
1.591873165e-17
2.185130596e-17
2.873787261e-17
3.550448668e-17
4.02089203e-17
8.469033982e-18
1.086318894e-17
1.488766978e-17
2.09522538e-17
2.942379491e-17
4.034356673e-17
5.299623338e-17
6.540620518e-17
7.402364322e-17
1.563585285e-17
2.004036403e-17
2.743858211e-17
3.85749195e-17
5.411008609e-17
7.410457453e-17
9.723603075e-17
1.19889683e-16
1.355975779e-16
2.874247693e-17
3.680491702e-17
5.033656342e-17
7.068312781e-17
9.90297006e-17
1.354616413e-16
1.77549307e-16
2.187107772e-16
2.472129201e-16
5.260855296e-17
6.729686339e-17
9.192893234e-17
1.289261325e-16
1.80405186e-16
2.464787012e-16
3.227064976e-16
3.971601137e-16
4.48650015e-16
9.588401836e-17
1.225224877e-16
1.671576605e-16
2.341268748e-16
3.271950373e-16
4.464929999e-16
5.839467372e-16
7.180357268e-16
8.10659218e-16
1.74033506e-16
2.221360312e-16
3.026686642e-16
4.233676326e-16
5.909022351e-16
8.053828984e-16
1.052196323e-15
1.292684152e-15
1.458624303e-15
3.146046195e-16
4.011086217e-16
5.458111867e-16
7.624552675e-16
1.06280939e-15
1.446856485e-15
1.888264727e-15
2.317881444e-15
2.614013008e-15
5.665005621e-16
7.214551406e-16
9.804442967e-16
1.367787437e-15
1.904173045e-15
2.589201439e-15
3.375629187e-15
4.140226286e-15
4.666743166e-15
1.016253733e-15
1.292796092e-15
1.754620817e-15
2.444604081e-15
3.398978421e-15
4.616385582e-15
6.012390713e-15
7.368208597e-15
8.30095533e-15
1.816515274e-15
2.308325364e-15
3.128962821e-15
4.353749528e-15
6.045900589e-15
8.201845555e-15
1.067119194e-14
1.306685697e-14
1.471333121e-14
3.235811737e-15
4.107583474e-15
5.561005713e-15
7.72792622e-15
1.071819513e-14
1.452337686e-14
1.887641853e-14
2.309477864e-14
2.599091606e-14
5.745207715e-15
7.285709597e-15
9.851837117e-15
1.367354806e-14
1.89408964e-14
2.563502034e-14
3.328298329e-14
4.06851611e-14
4.576139091e-14
1.0168861e-14
1.288310314e-14
1.740037797e-14
2.412024072e-14
3.336988828e-14
4.510840132e-14
5.850011754e-14
7.14433084e-14
8.030796033e-14
1.794483042e-14
2.271371914e-14
3.064297808e-14
4.242398672e-14
5.861678089e-14
7.913408699e-14
1.025020607e-13
1.250502979e-13
1.40469777e-13
3.157543898e-14
3.99314406e-14
5.381065234e-14
7.440387975e-14
1.026629623e-13
1.384035203e-13
1.79030105e-13
2.18154167e-13
2.448593791e-13
5.540218226e-14
7.000345983e-14
9.422803937e-14
1.301158902e-13
1.792707397e-13
2.413052092e-13
3.116545815e-13
3.792391312e-13
4.252656943e-13
9.693361667e-14
1.223757317e-13
1.645305978e-13
2.268705562e-13
3.120683698e-13
4.193134913e-13
5.405876336e-13
6.567521955e-13
7.356404563e-13
1.691102509e-13
2.13307892e-13
2.864271039e-13
3.94332802e-13
5.414184181e-13
7.259955845e-13
9.339994919e-13
1.132523784e-12
1.266879398e-12
2.94147161e-13
3.706701335e-13
4.970410353e-13
6.830732201e-13
9.358629749e-13
1.251915172e-12
1.606606333e-12
1.943665691e-12
2.170831363e-12
5.100142497e-13
6.420045401e-13
8.595145351e-13
1.178777317e-12
1.610999973e-12
2.149010081e-12
2.749819982e-12
3.317825661e-12
3.698761195e-12
8.812906284e-13
1.107967514e-12
1.48058143e-12
2.025613944e-12
2.760255027e-12
3.6699572e-12
4.679979081e-12
5.629129879e-12
6.262066013e-12
1.517206641e-12
1.904549109e-12
2.539395581e-12
3.464225498e-12
4.704403283e-12
6.230855866e-12
7.91437535e-12
9.485619613e-12
1.052667337e-11
2.601373608e-12
3.259438064e-12
4.334290932e-12
5.892707537e-12
7.970162853e-12
1.050957579e-11
1.328928012e-11
1.586384012e-11
1.755760491e-11
4.440288878e-12
5.550877393e-12
7.357679721e-12
9.963143613e-12
1.341309505e-11
1.75977254e-11
2.214040668e-11
2.631296137e-11
2.903720086e-11
7.54157007e-12
9.401720147e-12
1.241435917e-11
1.673215759e-11
2.240684156e-11
2.923190065e-11
3.657481592e-11
4.326012058e-11
4.759026884e-11
1.273844948e-11
1.582756293e-11
2.080548811e-11
2.789193181e-11
3.71298487e-11
4.814025925e-11
5.987500564e-11
7.046165896e-11
7.726321673e-11
2.138472539e-11
2.646610824e-11
3.46096281e-11
4.611838116e-11
6.099241156e-11
7.85540376e-11
9.70918195e-11
1.136632172e-10
1.242241946e-10
3.565422322e-11
4.392518735e-11
5.710316167e-11
7.558508863e-11
9.926049181e-11
1.269501221e-10
1.559035895e-10
1.815575836e-10
1.97781302e-10
5.899040803e-11
7.229825124e-11
9.337352197e-11
1.227027963e-10
1.599451782e-10
2.031069411e-10
2.478428125e-10
2.871649129e-10
3.118631995e-10
9.676413319e-11
1.179067788e-10
1.511866651e-10
1.971490159e-10
2.550289083e-10
3.215594776e-10
3.900057545e-10
4.497990686e-10
4.871783745e-10
1.57210672e-10
1.90337937e-10
2.42171653e-10
3.132421896e-10
4.020735408e-10
5.034961916e-10
6.073107238e-10
6.977589461e-10
7.543080576e-10
2.527375965e-10
3.038596063e-10
3.833857402e-10
4.916900103e-10
6.261832865e-10
7.789845925e-10
9.350775478e-10
1.071397159e-09
1.157318995e-09
4.017464384e-10
4.793427506e-10
5.99361021e-10
7.617499936e-10
9.622201518e-10
1.189095182e-09
1.420703048e-09
1.623460563e-09
1.751192541e-09
6.312462333e-10
7.469688118e-10
9.248994557e-10
1.164018376e-09
1.457280349e-09
1.787107862e-09
2.120580328e-09
2.402620453e-09
2.570776028e-09
9.808329664e-10
1.150322331e-09
1.409230849e-09
1.754378293e-09
2.17335921e-09
2.63573123e-09
3.077905589e-09
3.433076654e-09
3.637580504e-09
1.509100433e-09
1.752895153e-09
2.122220497e-09
2.608352406e-09
3.1839052e-09
3.770919893e-09
4.300118542e-09
4.693833595e-09
4.894324822e-09
2.30378262e-09
2.64758504e-09
3.160192184e-09
3.812694422e-09
4.519308558e-09
5.194819438e-09
5.733376987e-09
6.04409355e-09
6.119774718e-09
3.492400762e-09
3.961056172e-09
4.625252593e-09
5.406874725e-09
6.197321066e-09
6.84867459e-09
7.202310671e-09
7.173633316e-09
6.896719378e-09
5.21255272e-09
5.784407287e-09
6.563032167e-09
7.417793774e-09
8.158626286e-09
8.549831985e-09
8.390551592e-09
7.681629173e-09
6.826235967e-09
7.520025664e-09
8.167870799e-09
8.988819381e-09
9.760716519e-09
1.018326802e-08
9.948231147e-09
8.919469483e-09
7.355084592e-09
5.971814015e-09
1.043751976e-08
1.106423217e-08
1.173892909e-08
1.211844051e-08
1.181297775e-08
1.057455446e-08
8.563367353e-09
6.401861234e-09
4.865690012e-09
1.373549018e-08
1.413140329e-08
1.431765005e-08
1.386335628e-08
1.244053363e-08
1.012372445e-08
7.49884532e-09
5.279449515e-09
3.920204397e-09
1.673273021e-08
1.658783484e-08
1.588052573e-08
1.426416062e-08
1.174120305e-08
8.82669124e-09
6.217663923e-09
4.308005082e-09
3.216429229e-09
1.83271515e-08
1.741018238e-08
1.567452516e-08
1.310265202e-08
1.010297729e-08
7.29946509e-09
5.093757496e-09
3.566808037e-09
2.708417177e-09
1.768700113e-08
1.614924087e-08
1.382878999e-08
1.104181898e-08
8.293045823e-09
5.977750821e-09
4.231131736e-09
3.02856966e-09
2.348520466e-09
1.523222172e-08
1.358027835e-08
1.13642526e-08
8.97404541e-09
6.775164729e-09
4.970677226e-09
3.605381356e-09
2.65122526e-09
2.102851677e-09
1.230302707e-08
1.092244749e-08
9.156833942e-09
7.314764961e-09
5.63535998e-09
4.243532884e-09
3.168847696e-09
2.399441779e-09
1.947607059e-09
9.81351208e-09
8.780516568e-09
7.467344598e-09
6.090984521e-09
4.817494441e-09
3.737199952e-09
2.87930675e-09
2.247182245e-09
1.866667688e-09
7.95047816e-09
7.20263223e-09
6.242241697e-09
5.218325383e-09
4.247715244e-09
3.399944733e-09
2.704993984e-09
2.17669802e-09
1.850037967e-09
6.608695353e-09
6.072556816e-09
5.372536296e-09
4.608888996e-09
3.864248072e-09
3.192812655e-09
2.623706272e-09
2.176747496e-09
1.892360949e-09
5.653333461e-09
5.271349562e-09
4.762714643e-09
4.193414904e-09
3.62131392e-09
3.088183512e-09
2.620569284e-09
2.240711441e-09
1.991462811e-09
4.975129721e-09
4.70690077e-09
4.341870378e-09
3.921933767e-09
3.486549238e-09
3.066946747e-09
2.685750716e-09
2.364857584e-09
2.146971064e-09
4.495948149e-09
4.314060703e-09
4.060358825e-09
3.759662789e-09
3.437468633e-09
3.115841745e-09
2.812513238e-09
2.546843589e-09
2.359049692e-09
4.162530145e-09
4.048486639e-09
3.884367413e-09
3.68277799e-09
3.458448199e-09
3.225368858e-09
2.995706086e-09
2.784512832e-09
2.627317268e-09
3.939550069e-09
3.880707233e-09
3.791289019e-09
3.675106571e-09
3.538496499e-09
3.388303069e-09
3.230732946e-09
3.075134254e-09
2.950427782e-09
3.804159013e-09
3.79159831e-09
3.76630761e-09
3.725756277e-09
3.669705155e-09
3.598687507e-09
3.512946973e-09
3.415210492e-09
3.325597456e-09
3.742040734e-09
3.769132571e-09
3.799966951e-09
3.827462394e-09
3.846248345e-09
3.851589173e-09
3.83770083e-09
3.799651017e-09
3.746747185e-09
3.744560603e-09
3.80602276e-09
3.886415441e-09
3.975427239e-09
4.064002797e-09
4.142732369e-09
4.199499081e-09
4.22094421e-09
4.20575874e-09
3.806606642e-09
3.897931336e-09
4.022133764e-09
4.166787917e-09
4.320067339e-09
4.467520455e-09
4.591233516e-09
4.670581355e-09
4.693185068e-09
3.925509545e-09
4.042698178e-09
4.20555503e-09
4.399947774e-09
4.610707357e-09
4.820076091e-09
5.005511628e-09
5.139570293e-09
5.198886751e-09
4.099761001e-09
4.239050419e-09
4.434526764e-09
4.670800583e-09
4.930872104e-09
5.194347977e-09
5.434817763e-09
5.618789688e-09
5.712532601e-09
4.325851739e-09
4.482547029e-09
4.704097515e-09
4.974378825e-09
5.27514083e-09
5.584016377e-09
5.871546639e-09
6.099193217e-09
6.223937922e-09
4.597559288e-09
4.767244809e-09
5.008525776e-09
5.304929963e-09
5.637437378e-09
5.982336115e-09
6.307971173e-09
6.57190382e-09
6.723261411e-09
4.907702658e-09
5.086162936e-09
5.341007849e-09
5.655709004e-09
6.010882436e-09
6.382055499e-09
6.736222322e-09
7.028257793e-09
7.201111077e-09
5.247961848e-09
5.431171125e-09
5.693628536e-09
6.018977569e-09
6.387816538e-09
6.775444541e-09
7.148314029e-09
7.459835444e-09
7.648596954e-09
5.608993119e-09
5.79313963e-09
6.057537556e-09
6.386184636e-09
6.759956903e-09
7.154403289e-09
7.536191464e-09
7.858460918e-09
8.057317039e-09
5.980745599e-09
6.162260781e-09
6.423263328e-09
6.748248977e-09
7.11861671e-09
7.510581742e-09
7.891720706e-09
8.21606516e-09
8.41917857e-09
6.352851032e-09
6.528428213e-09
6.781067642e-09
7.095865605e-09
7.454923841e-09
7.835441716e-09
8.206479652e-09
8.524104897e-09
8.725879007e-09
6.714984452e-09
6.881583517e-09
7.12126853e-09
7.419791531e-09
7.760042608e-09
8.120324561e-09
8.47131391e-09
8.771225147e-09
8.959540567e-09
7.0571221e-09
7.211958248e-09
7.434462517e-09
7.711064035e-09
8.025473162e-09
8.357135299e-09
8.678338391e-09
8.94966642e-09
9.121736694e-09
7.369626569e-09
7.510124862e-09
7.71151039e-09
7.960872779e-09
8.24273949e-09
8.537819558e-09
8.819671122e-09
9.061111071e-09
9.217169617e-09
7.643060382e-09
7.766762058e-09
7.943196299e-09
8.159990594e-09
8.402221948e-09
8.653851516e-09
8.898328614e-09
9.110783128e-09
9.250233632e-09
7.867486567e-09
7.971938933e-09
8.119470651e-09
8.298251709e-09
8.499185214e-09
8.710919799e-09
8.919228841e-09
9.102439325e-09
9.224327079e-09
8.030612542e-09
8.113429158e-09
8.231053248e-09
8.375498278e-09
8.539031537e-09
8.712833948e-09
8.885406132e-09
9.03883973e-09
9.142307841e-09
8.129349599e-09
8.193404554e-09
8.284654865e-09
8.397267406e-09
8.525295676e-09
8.662154421e-09
8.799212991e-09
8.922574626e-09
9.007124354e-09
8.17084851e-09
8.217659042e-09
8.284302317e-09
8.366566441e-09
8.460268144e-09
8.561017842e-09
8.663087845e-09
8.756616653e-09
8.822229048e-09
8.158673322e-09
8.18914224e-09
8.232311076e-09
8.285413986e-09
8.345989736e-09
8.411814772e-09
8.480003925e-09
8.544594141e-09
8.591754858e-09
8.094862453e-09
8.109773101e-09
8.13057133e-09
8.15587908e-09
8.184921866e-09
8.217577519e-09
8.253662458e-09
8.290858601e-09
8.320518956e-09
7.981342763e-09
7.981603464e-09
7.981379003e-09
7.980647212e-09
7.980269657e-09
7.982117474e-09
7.988503166e-09
8.000417276e-09
8.013917728e-09
7.820664706e-09
7.807396593e-09
7.787824244e-09
7.763238221e-09
7.736055995e-09
7.70999164e-09
7.6895992e-09
7.678786528e-09
7.677761915e-09
7.616279636e-09
7.590819228e-09
7.553882174e-09
7.508002913e-09
7.457041173e-09
7.406367185e-09
7.362487972e-09
7.331806392e-09
7.31808636e-09
7.372548068e-09
7.336406986e-09
7.284328126e-09
7.219992266e-09
7.148556779e-09
7.076833504e-09
7.012974011e-09
6.965442752e-09
6.94095551e-09
7.094601062e-09
7.049406704e-09
6.984558834e-09
6.904761322e-09
6.816299698e-09
6.727194485e-09
6.646927262e-09
6.58559825e-09
6.552285949e-09
6.788128571e-09
6.735559338e-09
6.660370945e-09
6.568146806e-09
6.4661149e-09
6.363264241e-09
6.270097103e-09
6.197943858e-09
6.157690676e-09
6.459138312e-09
6.400860967e-09
6.317727614e-09
6.216045403e-09
6.103790783e-09
5.990682426e-09
5.887949095e-09
5.807776876e-09
5.762352353e-09
6.113716266e-09
6.051331617e-09
5.962540185e-09
5.854211656e-09
5.734877136e-09
5.614755868e-09
5.505531662e-09
5.419910321e-09
5.370928132e-09
5.757807986e-09
5.69280625e-09
5.600473869e-09
5.488083411e-09
5.364534115e-09
5.240333087e-09
5.127375916e-09
5.038594842e-09
4.987486139e-09
5.397030558e-09
5.330758184e-09
5.236787822e-09
5.122642735e-09
4.997416867e-09
4.871713704e-09
4.757428837e-09
4.66747206e-09
4.615471792e-09
5.0365237e-09
4.970161699e-09
4.876214151e-09
4.762314951e-09
4.637596697e-09
4.512592141e-09
4.399017998e-09
4.309556665e-09
4.25770083e-09
4.680842765e-09
4.615395724e-09
4.522876613e-09
4.410905305e-09
4.288517163e-09
4.166032992e-09
4.054844461e-09
3.967243443e-09
3.91637503e-09
4.333892912e-09
4.270187324e-09
4.180246964e-09
4.071570461e-09
3.952981577e-09
3.834474017e-09
3.726999492e-09
3.642334751e-09
3.593116126e-09
3.998901065e-09
3.937591216e-09
3.851134821e-09
3.746820284e-09
3.6331671e-09
3.519751833e-09
3.417000207e-09
3.3360837e-09
3.289013372e-09
3.678420383e-09
3.619999969e-09
3.537705538e-09
3.438544395e-09
3.330659993e-09
3.223145051e-09
3.125839163e-09
3.049248403e-09
3.00468033e-09
3.374360944e-09
3.319178605e-09
3.241519976e-09
3.148057568e-09
3.046506396e-09
2.945429632e-09
2.85404316e-09
2.78215297e-09
2.740316904e-09
3.088039993e-09
3.036317159e-09
2.963589961e-09
2.876158152e-09
2.781273299e-09
2.686941663e-09
2.601736967e-09
2.534751471e-09
2.495773173e-09
2.820245343e-09
2.772095011e-09
2.704443649e-09
2.623194215e-09
2.535114935e-09
2.447643358e-09
2.368708369e-09
2.306691742e-09
2.270612183e-09
2.571306154e-09
2.526751519e-09
2.464195707e-09
2.3891328e-09
2.307840555e-09
2.227188826e-09
2.154471597e-09
2.097376549e-09
2.064169525e-09
2.341166228e-09
2.300158356e-09
2.242618117e-09
2.173628599e-09
2.098980409e-09
2.024986945e-09
1.958326971e-09
1.906020315e-09
1.875608137e-09
2.129455931e-09
2.091889931e-09
2.039208359e-09
1.97608922e-09
1.907847555e-09
1.840259408e-09
1.779415218e-09
1.731700217e-09
1.70396731e-09
1.935559904e-09
1.901289281e-09
1.853252641e-09
1.795735066e-09
1.733593909e-09
1.672092734e-09
1.616765575e-09
1.573400975e-09
1.548205394e-09
1.758678618e-09
1.727527659e-09
1.683882666e-09
1.631652615e-09
1.575259604e-09
1.519483562e-09
1.469337242e-09
1.43005311e-09
1.407236051e-09
1.597882655e-09
1.569656849e-09
1.530125147e-09
1.482840511e-09
1.431815282e-09
1.381377082e-09
1.336054203e-09
1.300564773e-09
1.279958245e-09
1.452159252e-09
1.426653825e-09
1.390943814e-09
1.348248374e-09
1.302197427e-09
1.256698778e-09
1.215833618e-09
1.183847477e-09
1.165280363e-09
1.320451154e-09
1.297457912e-09
1.265274169e-09
1.226808616e-09
1.185336898e-09
1.144379811e-09
1.107608391e-09
1.078836331e-09
1.06213901e-09
1.201688124e-09
1.181000727e-09
1.152051253e-09
1.117461657e-09
1.080181496e-09
1.043376857e-09
1.010344462e-09
9.845053204e-10
9.695130957e-10
1.094811727e-09
1.076229661e-09
1.050231316e-09
1.019175426e-09
9.857130756e-10
9.526868776e-10
9.230534911e-10
8.998783224e-10
8.864338464e-10
9.987942192e-10
9.821256573e-10
9.588080463e-10
9.309597459e-10
9.009599717e-10
8.71357627e-10
8.448016296e-10
8.240365161e-10
8.119914105e-10
9.126523326e-10
8.977160748e-10
8.768241518e-10
8.518764149e-10
8.250054778e-10
7.98494568e-10
7.747150501e-10
7.561228191e-10
7.4533865e-10
8.35456752e-10
8.220834199e-10
8.03379073e-10
7.81045711e-10
7.569930773e-10
7.332648674e-10
7.119828448e-10
6.953439324e-10
6.856926832e-10
7.663380598e-10
7.543707083e-10
7.376335349e-10
7.176500015e-10
6.961290615e-10
6.748990568e-10
6.558578433e-10
6.409705057e-10
6.323346706e-10
7.044898503e-10
6.937841275e-10
6.788115917e-10
6.609350679e-10
6.416831016e-10
6.226908841e-10
6.056558354e-10
5.923358757e-10
5.84608272e-10
6.491696301e-10
6.395935995e-10
6.262007289e-10
6.102096761e-10
5.929872651e-10
5.75995805e-10
5.607536064e-10
5.488337545e-10
5.419171363e-10
5.996980373e-10
5.911317574e-10
5.791505092e-10
5.648438415e-10
5.494338909e-10
5.342284904e-10
5.205861314e-10
5.099151877e-10
5.037217248e-10
5.554568287e-10
5.47791764e-10
5.370701648e-10
5.242661646e-10
5.104726642e-10
4.968596611e-10
4.846432072e-10
4.75085037e-10
4.695357106e-10
5.158860015e-10
5.090243265e-10
4.994254692e-10
4.879605432e-10
4.756071697e-10
4.634124989e-10
4.524657483e-10
4.438981931e-10
4.389221466e-10
4.804803492e-10
4.743341911e-10
4.657351517e-10
4.554625019e-10
4.443911418e-10
4.334588299e-10
4.236419203e-10
4.159556786e-10
4.11489553e-10
4.487856834e-10
4.432763398e-10
4.355670655e-10
4.263553313e-10
4.164245831e-10
4.066152325e-10
3.978032477e-10
3.909007604e-10
3.868880364e-10
4.203949062e-10
4.154520636e-10
4.085342656e-10
4.002661798e-10
3.913498784e-10
3.825391821e-10
3.746207936e-10
3.684151626e-10
3.648055228e-10
3.949440669e-10
3.905050401e-10
3.84291118e-10
3.768622061e-10
3.688479998e-10
3.609253152e-10
3.538014824e-10
3.482154393e-10
3.449641627e-10
3.721085047e-10
3.681175094e-10
3.625295258e-10
3.558468678e-10
3.486348694e-10
3.415018701e-10
3.350846154e-10
3.300495524e-10
3.271169463e-10
3.515991478e-10
3.480066145e-10
3.429753301e-10
3.369563991e-10
3.304579223e-10
3.240273393e-10
3.182386075e-10
3.136936772e-10
3.110445508e-10
3.331590138e-10
3.299209504e-10
3.253849262e-10
3.199565095e-10
3.140928994e-10
3.08287357e-10
3.030579636e-10
2.989492502e-10
2.965524303e-10
3.165599432e-10
3.136373448e-10
3.095421157e-10
3.046393231e-10
2.993408804e-10
2.940918301e-10
2.893604983e-10
2.856402606e-10
2.83468151e-10
3.015995775e-10
2.98957888e-10
2.952552061e-10
2.908205627e-10
2.86025564e-10
2.812723128e-10
2.76984799e-10
2.736107839e-10
2.716389645e-10
2.880985871e-10
2.857072085e-10
2.823543556e-10
2.783369799e-10
2.739907895e-10
2.696796211e-10
2.657879239e-10
2.627227459e-10
2.609296128e-10
2.758981459e-10
2.73729995e-10
2.706891625e-10
2.670440237e-10
2.630982923e-10
2.591816752e-10
2.556433236e-10
2.528539078e-10
2.512203498e-10
2.648576457e-10
2.628887551e-10
2.601264849e-10
2.568137354e-10
2.532256803e-10
2.496615572e-10
2.464389737e-10
2.438960573e-10
2.424051659e-10
2.548526352e-10
2.53061795e-10
2.505484789e-10
2.475328561e-10
2.442646178e-10
2.410157711e-10
2.380757022e-10
2.357533895e-10
2.343902018e-10
2.457729691e-10
2.441414073e-10
2.418508399e-10
2.391011334e-10
2.361192015e-10
2.331526876e-10
2.304656972e-10
2.283410642e-10
2.270923334e-10
2.37521154e-10
2.360322519e-10
2.339412328e-10
2.314298092e-10
2.28704512e-10
2.259911587e-10
2.235311781e-10
2.215839214e-10
2.204379137e-10
2.300108737e-10
2.286499127e-10
2.267378927e-10
2.244402747e-10
2.219453265e-10
2.194592874e-10
2.172032169e-10
2.154153431e-10
2.143616578e-10
2.23165678e-10
2.21919615e-10
2.201683832e-10
2.180628762e-10
2.157749763e-10
2.134933363e-10
2.114206927e-10
2.097762434e-10
2.088056546e-10
2.169178191e-10
2.157750885e-10
2.14168495e-10
2.12235857e-10
2.101343353e-10
2.080367626e-10
2.061293677e-10
2.046141776e-10
2.037184938e-10
2.112072224e-10
2.101575605e-10
2.086812717e-10
2.06904422e-10
2.049709265e-10
2.030393651e-10
2.012810717e-10
1.998825548e-10
1.990544955e-10
2.059805767e-10
2.050148669e-10
2.036561495e-10
2.020199117e-10
2.002381326e-10
1.984565319e-10
1.968329819e-10
1.955399435e-10
1.947730312e-10
2.011905303e-10
2.003006672e-10
1.990481985e-10
1.975390743e-10
1.958945015e-10
1.942485775e-10
1.927469893e-10
1.915494607e-10
1.908379252e-10
1.967949844e-10
1.959737532e-10
1.948174532e-10
1.934234233e-10
1.91903133e-10
1.903801591e-10
1.88989141e-10
1.878782341e-10
1.872169285e-10
1.92756469e-10
1.919974406e-10
1.909283252e-10
1.896386742e-10
1.882311408e-10
1.868197637e-10
1.855291491e-10
1.844969288e-10
1.838812563e-10
1.89041595e-10
1.88339033e-10
1.873490843e-10
1.861542468e-10
1.848491786e-10
1.835392563e-10
1.823399598e-10
1.81379332e-10
1.808051809e-10
1.856205725e-10
1.849693514e-10
1.840514045e-10
1.829428299e-10
1.817310237e-10
1.805134836e-10
1.793973742e-10
1.785019873e-10
1.779656746e-10
1.824667866e-10
1.818623207e-10
1.810099634e-10
1.799799975e-10
1.788532117e-10
1.777199256e-10
1.766797158e-10
1.758438742e-10
1.753420957e-10
1.79556426e-10
1.789946062e-10
1.782020916e-10
1.772438721e-10
1.761947151e-10
1.751383898e-10
1.741675375e-10
1.733861261e-10
1.729159129e-10
1.768681557e-10
1.763452945e-10
1.75607464e-10
1.747148291e-10
1.73736661e-10
1.727507424e-10
1.718433656e-10
1.71111783e-10
1.706704628e-10
1.743828306e-10
1.738956134e-10
1.732078293e-10
1.723752371e-10
1.71462084e-10
1.705406722e-10
1.696914736e-10
1.690055738e-10
1.685907378e-10
1.720832429e-10
1.716286859e-10
1.709867716e-10
1.702092301e-10
1.69355708e-10
1.684934836e-10
1.676976846e-10
1.670537255e-10
1.666631983e-10
1.699539016e-10
1.695293138e-10
1.68929502e-10
1.682025065e-10
1.674037554e-10
1.665959141e-10
1.658491966e-10
1.652437953e-10
1.648756093e-10
1.679808371e-10
1.675837878e-10
1.670226747e-10
1.663421538e-10
1.655937788e-10
1.648359742e-10
1.641344299e-10
1.635645226e-10
1.63216895e-10
1.661514311e-10
1.657797209e-10
1.65254226e-10
1.646164933e-10
1.639145137e-10
1.63202807e-10
1.625428921e-10
1.620056996e-10
1.616770125e-10
1.64454266e-10
1.641059015e-10
1.636132317e-10
1.630149439e-10
1.62355748e-10
1.616865638e-10
1.610650598e-10
1.605580567e-10
1.602468393e-10
1.628789924e-10
1.625521639e-10
1.620897829e-10
1.61527903e-10
1.60908208e-10
1.602782951e-10
1.596922741e-10
1.592131619e-10
1.58918075e-10
1.614162135e-10
1.611092752e-10
1.606748757e-10
1.601466397e-10
1.595634574e-10
1.589698548e-10
1.584166488e-10
1.579633323e-10
1.576831548e-10
1.600573815e-10
1.597688342e-10
1.593603141e-10
1.588632031e-10
1.583138086e-10
1.577538152e-10
1.572309895e-10
1.568015556e-10
1.565351723e-10
1.587947077e-10
1.585231837e-10
1.581386245e-10
1.576703389e-10
1.57152244e-10
1.566233922e-10
1.561287214e-10
1.557214212e-10
1.554678124e-10
1.576210821e-10
1.573653315e-10
1.5700298e-10
1.565614175e-10
1.560723464e-10
1.555723787e-10
1.551038264e-10
1.547170591e-10
1.544752915e-10
1.565300019e-10
1.562888812e-10
1.559471326e-10
1.555303686e-10
1.550682376e-10
1.545950862e-10
1.541507869e-10
1.537830856e-10
1.535523042e-10
1.555155083e-10
1.552879697e-10
1.549653534e-10
1.545716239e-10
1.541345227e-10
1.536862916e-10
1.532645347e-10
1.529145546e-10
1.526939757e-10
1.545721291e-10
1.543572113e-10
1.540523782e-10
1.536800645e-10
1.532662401e-10
1.528411898e-10
1.524404057e-10
1.521069134e-10
1.518958191e-10
1.536948264e-10
1.534916468e-10
1.532033577e-10
1.528509732e-10
1.524588159e-10
1.520553492e-10
1.516740977e-10
1.513559622e-10
1.511536951e-10
1.528789486e-10
1.526866954e-10
1.524138111e-10
1.520799894e-10
1.517080199e-10
1.513246703e-10
1.509616301e-10
1.506578151e-10
1.504637739e-10
1.521201838e-10
1.5193811e-10
1.516795819e-10
1.513630658e-10
1.510099243e-10
1.506453445e-10
1.502993036e-10
1.500088608e-10
1.498224971e-10
1.514145151e-10
1.512419318e-10
1.509967937e-10
1.506964252e-10
1.503608601e-10
1.500138123e-10
1.496836595e-10
1.494057219e-10
1.492265368e-10
1.507581748e-10
1.505944455e-10
1.503618046e-10
1.500765148e-10
1.497573724e-10
1.494267178e-10
1.491114339e-10
1.488452097e-10
1.486727505e-10
1.501475961e-10
1.499921302e-10
1.497711586e-10
1.494999571e-10
1.491961703e-10
1.488808581e-10
1.485795064e-10
1.483242719e-10
1.481581282e-10
1.495793608e-10
1.494316064e-10
1.492215313e-10
1.489634946e-10
1.486740699e-10
1.483731247e-10
1.480848391e-10
1.478399298e-10
1.476797288e-10
1.490501403e-10
1.489095769e-10
1.48709669e-10
1.484639261e-10
1.48187928e-10
1.479004334e-10
1.476244038e-10
1.473892025e-10
1.472346018e-10
1.485566296e-10
1.484227579e-10
1.482323176e-10
1.47998033e-10
1.477345641e-10
1.474596422e-10
1.471950948e-10
1.46969015e-10
1.468196931e-10
1.48095471e-10
1.479678011e-10
1.47786141e-10
1.475624924e-10
1.473106681e-10
1.470474524e-10
1.467936231e-10
1.465760869e-10
1.464317286e-10
1.476631665e-10
1.475412031e-10
1.473676266e-10
1.471537772e-10
1.469126934e-10
1.466602937e-10
1.464163931e-10
1.462068006e-10
1.46067078e-10
1.47255979e-10
1.471392033e-10
1.469729771e-10
1.467680412e-10
1.465367332e-10
1.462941906e-10
1.460593593e-10
1.458570486e-10
1.457215945e-10
1.468698212e-10
1.467576683e-10
1.465979898e-10
1.464009899e-10
1.461783818e-10
1.459446127e-10
1.457178634e-10
1.455220598e-10
1.453904341e-10
1.465001328e-10
1.463919653e-10
1.462379229e-10
1.460477381e-10
1.458325815e-10
1.456063094e-10
1.453864576e-10
1.451962104e-10
1.45067858e-10
1.461417495e-10
1.460368262e-10
1.458873527e-10
1.457026591e-10
1.454934608e-10
1.452731354e-10
1.450587159e-10
1.448728229e-10
1.447470227e-10
1.457887654e-10
1.456862059e-10
1.455400263e-10
1.453592277e-10
1.451541673e-10
1.449378724e-10
1.447270441e-10
1.445439649e-10
1.444197707e-10
1.454343955e-10
1.453331413e-10
1.451887141e-10
1.450098666e-10
1.448067057e-10
1.445920575e-10
1.443824978e-10
1.442002575e-10
1.440764327e-10
1.450708442e-10
1.449696172e-10
1.448250731e-10
1.446458048e-10
1.444417912e-10
1.442258305e-10
1.440146239e-10
1.438307111e-10
1.43705659e-10
1.446891887e-10
1.44586449e-10
1.444395284e-10
1.442569588e-10
1.440487292e-10
1.438278137e-10
1.436113408e-10
1.434226062e-10
1.432943006e-10
1.44279288e-10
1.441731936e-10
1.440211872e-10
1.438318503e-10
1.436153403e-10
1.433850441e-10
1.431588782e-10
1.429614408e-10
1.428273623e-10
1.438297288e-10
1.437181008e-10
1.43557798e-10
1.433575771e-10
1.431279442e-10
1.428829742e-10
1.426417972e-10
1.424309692e-10
1.422880547e-10
1.433278227e-10
1.432081187e-10
1.430357702e-10
1.428198514e-10
1.425714227e-10
1.423055642e-10
1.420431138e-10
1.418133555e-10
1.416579693e-10
1.427596682e-10
1.426289699e-10
1.42440271e-10
1.422031249e-10
1.419293809e-10
1.416354848e-10
1.413445481e-10
1.410894674e-10
1.409174044e-10
1.421102926e-10
1.419653117e-10
1.41755414e-10
1.414908166e-10
1.411844225e-10
1.4085445e-10
1.405269192e-10
1.40239331e-10
1.400458629e-10
1.413638881e-10
1.412009962e-10
1.409645563e-10
1.406656584e-10
1.403185581e-10
1.399436976e-10
1.395707034e-10
1.392427644e-10
1.390227403e-10
1.405041542e-10
1.40319442e-10
1.400507144e-10
1.397101719e-10
1.393137555e-10
1.388846256e-10
1.384567655e-10
1.380801986e-10
1.378282103e-10
1.395147571e-10
1.393041282e-10
1.389971103e-10
1.386072825e-10
1.381526395e-10
1.376595915e-10
1.371672635e-10
1.367336838e-10
1.364443044e-10
1.383799112e-10
1.381392133e-10
1.37787848e-10
1.373410725e-10
1.368193377e-10
1.362528644e-10
1.356867144e-10
1.351880637e-10
1.348561642e-10
1.370850817e-10
1.368102787e-10
1.364087166e-10
1.358976626e-10
1.353004575e-10
1.346517098e-10
1.34003194e-10
1.334322825e-10
1.330534246e-10
1.356177999e-10
1.353051832e-10
1.348481034e-10
1.34266201e-10