/*--------------------------------*- C++ -*----------------------------------*\
| =========                 |                                                 |
| \\      /  F ield         | OpenFOAM: The Open Source CFD Toolbox           |
|  \\    /   O peration     | Version:  2212                                  |
|   \\  /    A nd           | Website:  www.openfoam.com                      |
|    \\/     M anipulation  |                                                 |
\*---------------------------------------------------------------------------*/
FoamFile
{
    version     2.0;
    format      ascii;
    arch        "LSB;label=32;scalar=64";
    class       volVectorField;
    location    "2.75000000";
    object      U_0;
}
// * * * * * * * * * * * * * * * * * * * * * * * * * * * * * * * * * * * * * //

dimensions      [0 1 -1 0 0 0 0];

internalField   nonuniform List<vector> 
3000
(
(0.1355060865 -0.003723051516 6.81487439e-12)
(0.1358379128 -0.006358566819 1.377418301e-11)
(0.1365431092 -0.009894872939 2.785943798e-11)
(0.1377397054 -0.01452182682 5.902105096e-11)
(0.1395008616 -0.02033639055 1.388366461e-10)
(0.1416215465 -0.02807388965 4.531870238e-11)
(0.1422375062 -0.0344271703 1.689722214e-11)
(0.1343699506 -0.0416844992 7.438064295e-12)
(0.09197165812 -0.02031958202 1.810663312e-12)
(0.1464908923 -0.008031235156 3.014693408e-11)
(0.148399664 -0.01315517749 5.808683399e-11)
(0.1510182635 -0.01898448671 1.010525172e-10)
(0.1543597132 -0.02499148234 1.686032855e-10)
(0.1577450757 -0.03055440527 2.740517056e-10)
(0.1588927204 -0.03485818506 1.313449988e-10)
(0.1536101056 -0.03390472675 6.236366133e-11)
(0.1315137186 -0.02854523812 2.589685105e-11)
(0.07484283846 -0.007888852023 7.065256623e-12)
(0.1640503629 -0.01075971342 5.536228607e-11)
(0.1659990495 -0.01700350834 1.016721699e-10)
(0.1682949561 -0.02339453108 1.649268195e-10)
(0.1700487436 -0.02885942173 2.475425911e-10)
(0.169418753 -0.03248773581 3.420916692e-10)
(0.1631207012 -0.03294904629 1.870217243e-10)
(0.1463748636 -0.02835072953 9.436377135e-11)
(0.1095937893 -0.01870979857 4.472024895e-11)
(0.0472153606 -0.00345742369 1.264663942e-11)
(0.183276662 -0.01066365767 5.987409082e-11)
(0.1845118848 -0.01642600541 1.10919717e-10)
(0.1853096358 -0.02174372253 1.94916373e-10)
(0.1841478424 -0.02538869409 2.913552469e-10)
(0.1786798957 -0.0265704236 4.031481443e-10)
(0.1655174878 -0.02465409547 2.250642222e-10)
(0.1406103127 -0.01847901388 1.236869539e-10)
(0.09882328353 -0.009794244168 6.159134557e-11)
(0.03918464481 -0.001317891359 1.761330504e-11)
(0.2002224932 -0.009573854233 -8.429461699e-11)
(0.1998248367 -0.01444159292 -2.363841478e-10)
(0.1979095267 -0.01851467412 8.23196815e-11)
(0.1926746597 -0.02064196889 2.191754735e-10)
(0.1818126209 -0.02040088228 2.669944964e-10)
(0.1624301854 -0.01748630887 1.997797792e-10)
(0.1319745053 -0.01199020046 1.273292168e-10)
(0.08838019714 -0.005517837128 6.837255517e-11)
(0.03254183196 -0.0005036960149 2.007236078e-11)
(0.214788245 -0.007868720851 -3.731225461e-11)
(0.2125729114 -0.0116390746 -3.394884107e-11)
(0.2078594275 -0.01451390867 1.107969228e-10)
(0.1988888626 -0.01555713925 2.387946491e-10)
(0.183681222 -0.01464449766 3.508840576e-10)
(0.1601434237 -0.01178755331 2.238712108e-10)
(0.1268107356 -0.007539979612 1.385245334e-10)
(0.08305933945 -0.003130785581 7.475224042e-11)
(0.0300119019 -0.0002324675536 2.20835283e-11)
(0.225908406 -0.006204364024 -1.218437664e-10)
(0.2218719036 -0.00903846937 -2.614590631e-10)
(0.2145057632 -0.0110194282 2.795242524e-11)
(0.2022797301 -0.01144462899 1.727640917e-10)
(0.1836523336 -0.01037315437 2.376637539e-10)
(0.1572220342 -0.007971009736 1.946852727e-10)
(0.1222633029 -0.004844245879 1.358628754e-10)
(0.07884170963 -0.001872530732 7.892284736e-11)
(0.02803499796 -9.324359867e-05 2.419103149e-11)
(0.2345633097 -0.004727987429 -7.135769498e-11)
(0.228946027 -0.006792438526 -7.866091657e-11)
(0.2193743516 -0.008124889341 4.573776389e-11)
(0.2046164932 -0.008222177367 1.80626884e-10)
(0.1835449868 -0.007231336031 3.326195876e-10)
(0.1552704379 -0.005366167486 2.248473668e-10)
(0.1194870574 -0.003149194069 1.650044978e-10)
(0.0764846072 -0.001170563888 1.055130115e-10)
(0.02709931868 -5.662436474e-05 3.319107203e-11)
(0.2408514028 -0.003538426689 -8.697515507e-11)
(0.2339204443 -0.005030200036 -1.508228469e-10)
(0.2225750892 -0.005926513897 -2.612946231e-10)
(0.2058816651 -0.00587734617 -1.374413395e-10)
(0.183056598 -0.005052684699 1.352024242e-10)
(0.1535647476 -0.0036558432 2.152265561e-10)
(0.1173332819 -0.002092031426 2.932747728e-10)
(0.07471377181 -0.0007544798881 2.262809098e-10)
(0.02637043798 -2.751356769e-05 5.988751564e-11)
(0.2455330491 -0.002615607634 -6.872852861e-11)
(0.2375666715 -0.003684242287 -1.027364055e-10)
(0.2248615076 -0.004287944269 -1.146487734e-10)
(0.2067457421 -0.004185660853 -2.785419842e-11)
(0.1826990583 -0.003537729396 1.005071591e-10)
(0.1524192792 -0.00251516086 1.614234619e-10)
(0.1159514054 -0.001418096401 1.756862139e-10)
(0.07362918305 -0.00050637252 1.259989365e-10)
(0.02596181272 -2.043829928e-05 3.932325953e-11)
(0.2488850755 -0.001921572312 8.574348468e-11)
(0.2401196204 -0.00268865041 2.584297042e-10)
(0.226387109 -0.003100197934 8.309219625e-11)
(0.207230539 -0.002990883274 1.155736157e-10)
(0.182324305 -0.002497197031 2.546458014e-10)
(0.1515187191 -0.001754030307 1.830669745e-10)
(0.1149184686 -0.0009787053415 1.448090733e-10)
(0.07282485529 -0.0003460275554 9.404442491e-11)
(0.025646471 -1.223427893e-05 2.980538159e-11)
(0.2513355055 -0.001408380105 8.513163372e-11)
(0.241966749 -0.001959788812 1.373505029e-10)
(0.2274721245 -0.002243841231 1.06488433e-10)
(0.2075632425 -0.002146280983 1.230192137e-10)
(0.1820549478 -0.001777100093 1.691792625e-10)
(0.1508966544 -0.001239013614 1.626500375e-10)
(0.1142211273 -0.000688237501 1.451072272e-10)
(0.07229401586 -0.0002436448293 1.01095839e-10)
(0.02544726141 -9.695935121e-06 3.246221145e-11)
(0.2530891508 -0.001032339295 9.054413051e-12)
(0.2432692726 -0.001431190253 -4.634359967e-11)
(0.2282122823 -0.0016304139 -2.570513785e-10)
(0.207758715 -0.001550402743 -1.411666518e-10)
(0.1818241547 -0.001276739952 6.538535527e-11)
(0.1504235504 -0.0008861522675 1.663225693e-10)
(0.1137030431 -0.000490910218 2.715315906e-10)
(0.07189957117 -0.0001736316871 2.153161692e-10)
(0.02529477174 -6.612876687e-06 5.546688216e-11)
(0.254363479 -0.000758453022 -1.872923958e-11)
(0.2442091887 -0.001048528663 -5.409234017e-11)
(0.2287396853 -0.001190355106 -1.024490613e-10)
(0.2078924174 -0.001127669199 -4.765394864e-11)
(0.1816549427 -0.0009257465421 5.564022121e-11)
(0.1500860625 -0.0006413101296 1.157019546e-10)
(0.1133378473 -0.0003554398942 1.338453663e-10)
(0.07162427969 -0.0001263047104 8.845268807e-11)
(0.02519052787 -5.223778523e-06 2.627462436e-11)
(0.2552790341 -0.0005590020108 -1.542146022e-11)
(0.2448777134 -0.0007715233882 -2.415521646e-11)
(0.229105828 -0.0008740206874 -1.290935218e-11)
(0.2079729459 -0.0008262335824 5.986881392e-11)
(0.1815182755 -0.0006773376422 2.024167127e-10)
(0.1498306315 -0.0004690414306 1.174224531e-10)
(0.113064846 -0.0002604182209 5.262398882e-11)
(0.07141797231 -9.274372504e-05 -5.264341589e-11)
(0.02511099399 -3.659502745e-06 -8.967285575e-12)
(0.2559433946 -0.0004138021205 -4.251024028e-12)
(0.2453600859 -0.0005705262712 5.366773473e-13)
(0.2293667476 -0.0006456032171 2.211825195e-11)
(0.2080263116 -0.000609789996 6.621926352e-11)
(0.1814151817 -0.0004999495104 1.095006084e-10)
(0.1496430743 -0.0003466166736 8.441174158e-11)
(0.1128659374 -0.0001934507655 4.534608184e-11)
(0.07126866656 -6.91924526e-05 7.108912601e-12)
(0.02505399697 -2.541656114e-06 1.256632615e-12)
(0.2564223114 -0.000307697306 4.821734256e-12)
(0.2457050157 -0.0004241060978 1.429212076e-11)
(0.2295493355 -0.0004797663365 3.288997804e-11)
(0.2080575784 -0.0004531784964 5.711708337e-11)
(0.1813330833 -0.0003719027803 7.213107351e-11)
(0.1495004255 -0.0002583211826 6.10777056e-11)
(0.1127159084 -0.0001449829281 3.915827451e-11)
(0.07115648455 -5.199065321e-05 1.791099828e-11)
(0.0250107166 -1.640461177e-06 4.83737799e-12)
(0.2567692709 -0.0002299457348 9.859592352e-12)
(0.2459533298 -0.0003169374957 1.991401288e-11)
(0.2296785287 -0.0003585883087 3.366744739e-11)
(0.2080761879 -0.0003389120912 4.699308657e-11)
(0.1812692509 -0.000278496921 5.234367916e-11)
(0.1493929813 -0.0001938290553 4.52508513e-11)
(0.1126037754 -0.0001092384485 3.136714318e-11)
(0.0710729862 -3.931075117e-05 1.683730359e-11)
(0.0249786727 -1.207536597e-06 4.841367051e-12)
(0.2570193467 -0.000172715649 1.167727553e-11)
(0.2461307324 -0.0002381007648 2.07155266e-11)
(0.2297683726 -0.0002694950642 3.034194373e-11)
(0.2080850043 -0.0002549062192 3.752211549e-11)
(0.1812179235 -0.0002097063928 3.863354506e-11)
(0.1493101744 -0.0001461667676 3.270744588e-11)
(0.1125181941 -8.25435423e-05 2.278464986e-11)
(0.07100931804 -2.972148566e-05 1.24211498e-11)
(0.02495418382 -8.761396617e-07 3.551429557e-12)
(0.2571998005 -0.0001304253716 1.124068046e-11)
(0.246257596 -0.0001798490333 1.841785416e-11)
(0.2298307946 -0.0002036223439 2.418861536e-11)
(0.2080879681 -0.000192695999 2.628169709e-11)
(0.1811770034 -0.000158577887 2.350186466e-11)
(0.1492466427 -0.000110532033 1.705541626e-11)
(0.1124533204 -6.227436695e-05 1.002840555e-11)
(0.07096144293 -2.23701072e-05 4.408299619e-12)
(0.02493582116 -7.032382993e-07 9.879256416e-13)
(0.2573296886 -9.911208812e-05 8.624193625e-12)
(0.2463479053 -0.0001367024676 1.229612708e-11)
(0.2298736136 -0.0001547584923 1.062877582e-11)
(0.2080871153 -0.0001463891567 -5.299187765e-12)
(0.1811441479 -0.0001202412735 -2.084889946e-11)
(0.1491976538 -8.352939526e-05 -2.822077126e-11)
(0.1124040512 -4.645064816e-05 -2.234829704e-11)
(0.07092543917 -1.646989696e-05 -1.39560556e-11)
(0.02492195202 -6.174519756e-07 -4.545190015e-12)
(0.2574237144 -7.601227282e-05 2.339387316e-11)
(0.2464126148 -0.0001048243584 4.778940715e-11)
(0.2299032128 -0.0001185510574 9.591315277e-11)
(0.2080845721 -0.0001119150719 -2.383791505e-10)
(0.1811183036 -9.144996159e-05 -3.012030626e-10)
(0.1491604679 -6.294651098e-05 -2.622778658e-10)
(0.1123674651 -3.385541191e-05 -1.154539082e-10)
(0.07089920647 -1.153660179e-05 -5.188937068e-11)
(0.02491176864 -5.897740106e-07 -1.425645845e-11)
(0.2574933875 -5.932870893e-05 1.124959426e-11)
(0.2464605273 -8.177348037e-05 8.028651538e-12)
(0.2299251263 -9.231198846e-05 -2.673731966e-11)
(0.2080828474 -8.676839387e-05 -1.544343428e-10)
(0.1810997042 -7.013936482e-05 -1.997641494e-10)
(0.1491338665 -4.729856634e-05 -1.753335944e-10)
(0.1123419527 -2.352545307e-05 -1.107599075e-10)
(0.07088065411 -7.144252101e-06 -5.760441174e-11)
(0.02490478949 -5.613937e-07 -1.651735376e-11)
(0.2575484812 -4.77727332e-05 -4.432309271e-12)
(0.2464992459 -6.580211118e-05 -1.987525494e-11)
(0.2299442824 -7.411782792e-05 -5.70329577e-11)
(0.2080842434 -6.931780002e-05 -1.154308602e-10)
(0.1810885743 -5.561981592e-05 -1.400351026e-10)
(0.1491170236 -3.682829399e-05 -1.256854592e-10)
(0.1123265123 -1.743819664e-05 -8.853980122e-11)
(0.07086920966 -4.0425337e-06 -4.910325246e-11)
(0.02490033396 6.075947829e-08 -1.448327928e-11)
(0.2575982143 -4.116262452e-05 -1.479685927e-11)
(0.2465366521 -5.686522021e-05 -3.262317745e-11)
(0.2299671515 -6.43650204e-05 -6.024461716e-11)
(0.2080945838 -6.041627901e-05 -8.956757563e-11)
(0.181090725 -4.858016043e-05 -9.991497726e-11)
(0.1491152636 -3.183937978e-05 -8.957420114e-11)
(0.1123251747 -1.566571423e-05 -6.616656591e-11)
(0.07086999565 -2.761063774e-06 -3.883258848e-11)
(0.02490074567 -1.216585469e-07 -1.165414536e-11)
(0.2576538528 -3.917705503e-05 -1.975048186e-11)
(0.2465829539 -5.451872823e-05 -3.658908298e-11)
(0.2300022286 -6.238221988e-05 -5.655824013e-11)
(0.2081191453 -5.938315218e-05 -7.378655861e-11)
(0.1811078173 -4.837103435e-05 -7.968932897e-11)
(0.1491293033 -3.159122958e-05 -7.131330658e-11)
(0.1123389066 -1.609142198e-05 -5.305100422e-11)
(0.07088317629 -2.32947827e-06 -3.107327458e-11)
(0.02490828618 -1.435595641e-06 -9.329294977e-12)
(0.2577263184 -4.138146637e-05 -2.104611894e-11)
(0.2466480674 -5.800026479e-05 -3.59162689e-11)
(0.2300585194 -6.704602784e-05 -5.047366846e-11)
(0.2081674882 -6.469165614e-05 -6.087575494e-11)
(0.1811496431 -5.395911553e-05 -6.314602435e-11)
(0.1491673029 -3.624507041e-05 -5.576363375e-11)
(0.1123742068 -1.976937918e-05 -4.144313358e-11)
(0.07091213345 -2.674179481e-06 -2.429621482e-11)
(0.02492282506 -2.652756044e-06 -7.317243737e-12)
(0.2578291324 -4.868941903e-05 -2.028479304e-11)
(0.2467446755 -6.884999919e-05 -3.307497952e-11)
(0.2301475503 -8.067619559e-05 -4.398448683e-11)
(0.2082495757 -7.915596046e-05 -5.068705529e-11)
(0.1812264997 -6.783427719e-05 -5.085284747e-11)
(0.1492389355 -4.71692707e-05 -4.425839497e-11)
(0.1124382662 -2.740213068e-05 -3.286219638e-11)
(0.07096122211 -4.062321896e-06 -1.93558889e-11)
(0.02494572392 -4.506690763e-06 -5.854982786e-12)
(0.2579808598 -6.194021007e-05 -1.775100045e-11)
(0.2468909938 -8.835219288e-05 -2.770216598e-11)
(0.2302870394 -0.0001048853428 -3.560958663e-11)
(0.2083823245 -0.0001047996999 -4.675330544e-11)
(0.18135253 -9.19137301e-05 -4.6004815e-11)
(0.1493564342 -6.565425065e-05 -3.894400661e-11)
(0.1125420637 -3.982363676e-05 -2.84564282e-11)
(0.07103927789 -6.792494487e-06 -1.666471824e-11)
(0.02498099658 -7.340771573e-06 -5.042320637e-12)
(0.2582043954 -8.214574362e-05 1.530141976e-11)
(0.2471094554 -0.0001179700514 4.950790881e-11)
(0.2304987276 -0.0001414631653 1.395982458e-10)
(0.2085864996 -0.0001433482835 -1.342722826e-10)
(0.1815476463 -0.0001280177332 -7.500116166e-11)
(0.1495378863 -9.366566163e-05 -4.703439383e-11)
(0.1127004898 -5.880096578e-05 -2.983755552e-11)
(0.07115644706 -1.166310131e-05 -1.641620717e-11)
(0.02503245359 -1.148735672e-05 -4.858517419e-12)
(0.2585290741 -0.0001104334438 1.597810526e-11)
(0.2474290196 -0.000159380856 2.918054472e-11)
(0.2308109181 -0.0001925114957 2.932137964e-11)
(0.2088893799 -0.0001971028558 -5.2846078e-11)
(0.1818374018 -0.000178373033 -5.399745777e-11)
(0.1498062182 -0.0001329770545 -4.106563024e-11)
(0.112932452 -8.556962106e-05 -2.744086523e-11)
(0.07132577482 -1.907448015e-05 -1.523749041e-11)
(0.02510508268 -1.723690981e-05 -4.508885617e-12)
(0.258991169 -0.0001478653408 7.966680576e-12)
(0.2478856218 -0.0002141440762 9.210085296e-12)
(0.2312589218 -0.0002599440563 -1.530831073e-12)
(0.209325139 -0.0002680764271 -3.11580398e-11)
(0.1822539763 -0.000244869826 -3.774387799e-11)
(0.1501902165 -0.0001851033415 -3.230148541e-11)
(0.1132614019 -0.0001211983751 -2.302998703e-11)
(0.07156313911 -2.938235396e-05 -1.324536324e-11)
(0.02520476996 -2.487797901e-05 -3.981904083e-12)
(0.2596349389 -0.0001953403115 1.63939898e-12)
(0.2485231734 -0.0002835309809 -1.177984825e-12)
(0.2318859304 -0.0003452615103 -1.021465048e-11)
(0.2099355358 -0.0003577766718 -2.33217695e-11)
(0.1828365171 -0.0003288180349 -2.808720778e-11)
(0.150724682 -0.0002509978812 -2.577913006e-11)
(0.1137154684 -0.0001662903653 -1.984837075e-11)
(0.07188741515 -4.273086955e-05 -1.222249495e-11)
(0.02533841292 -3.465226609e-05 -3.807827375e-12)
(0.260513115 -0.0002533704188 -2.032987825e-12)
(0.2493940338 -0.0003682285467 -5.934440667e-12)
(0.2327434391 -0.0004491820306 -1.282978359e-11)
(0.210770272 -0.0004667932102 -2.055830875e-11)
(0.1836314275 -0.000430564634 -2.491467821e-11)
(0.1514505858 -0.0003307697942 -2.564510346e-11)
(0.1143274574 -0.0002208072947 -2.324806334e-11)
(0.07232036513 -5.900078176e-05 -1.639345074e-11)
(0.02551382792 -4.672802697e-05 -5.125336802e-12)
(0.2616872397 -0.0003219022917 -7.251902819e-12)
(0.250559284 -0.0004680746719 -1.223921679e-11)
(0.2338914445 -0.0005713187019 -1.846018224e-11)
(0.2118870756 -0.0005944636678 -2.600372758e-11)
(0.1846923073 -0.0005491853769 -3.439608503e-11)
(0.152414877 -0.0004234353708 -4.396698443e-11)
(0.1151345787 -0.0002838948705 -5.218929822e-11)
(0.07288637926 -7.774509995e-05 -4.098468874e-11)
(0.02573963988 -6.117376902e-05 -9.027707263e-12)
(0.2632276395 -0.0004001699873 -4.558098979e-10)
(0.252088646 -0.0005818099316 -1.5283474e-10)
(0.2353982744 -0.000709868548 -7.195589693e-11)
(0.2133514086 -0.0007385679378 -5.80336419e-11)
(0.1860795313 -0.0006822250129 -7.230863061e-11)
(0.1536699521 -0.0005267387368 -1.124600647e-10)
(0.1161778814 -0.0003537894012 -2.016463612e-10)
(0.07361200478 -9.817270655e-05 -1.548524006e-10)
(0.02602509252 -7.794109838e-05 7.704416298e-12)
(0.2652130982 -0.0004865523798 -1.851922018e-10)
(0.2540601016 -0.000706897484 -1.289846078e-10)
(0.237340089 -0.0008614161373 -8.834031958e-11)
(0.2152358144 -0.0008951448835 -7.620754885e-11)
(0.1878594474 -0.0008255577378 -8.276866323e-11)
(0.1552727482 -0.0006370878102 -9.837858594e-11)
(0.117501378 -0.0004278250256 -1.085906312e-10)
(0.07452527814 -0.0001191762882 -7.6182214e-11)
(0.026379797 -9.685699419e-05 -1.767219883e-11)
(0.2677301768 -0.0005784673626 -9.648691744e-11)
(0.2565591214 -0.0008394156286 -9.771656154e-11)
(0.2397999816 -0.001020854547 -8.538995784e-11)
(0.2176188557 -0.001058458333 -7.87861492e-11)
(0.1901031533 -0.0009734241875 -7.852714918e-11)
(0.1572834391 -0.0007496531857 -7.839464341e-11)
(0.119150854 -0.0005025551366 -6.971163364e-11)
(0.07565486334 -0.0001394077083 -4.542553403e-11)
(0.02681341505 -0.0001176311158 -1.346133349e-11)
(0.2708721975 -0.0006723791921 -6.113239687e-11)
(0.259677517 -0.000974065544 -7.521686272e-11)
(0.2428666521 -0.001181439361 -7.556056532e-11)
(0.220583593 -0.001221141318 -7.266653472e-11)
(0.1928848175 -0.001118671361 -6.900820808e-11)
(0.1597637429 -0.0008586318968 -6.234436583e-11)
(0.1211723937 -0.0005739858159 -4.971821472e-11)
(0.07702902903 -0.0001573962396 -3.074504676e-11)
(0.02733529863 -0.0001398754499 -9.356998759e-12)
(0.2747378819 -0.0007639024638 -4.379621266e-11)
(0.2635119225 -0.001104331493 -5.938220257e-11)
(0.2466326441 -0.001335035418 -6.435183875e-11)
(0.2242155845 -0.001374541847 -6.345010115e-11)
(0.1962795511 -0.001253175329 -5.886255338e-11)
(0.1627748731 -0.0009576527116 -5.057896544e-11)
(0.1236106748 -0.0006379031855 -3.829489027e-11)
(0.0786745255 -0.0001716864171 -2.301517415e-11)
(0.02795411126 -0.0001631265901 -6.993392221e-12)
(0.2794296021 -0.0008479741058 -3.370537154e-11)
(0.2681618474 -0.001222802246 -4.80866963e-11)
(0.2511921238 -0.001472583927 -5.460805331e-11)
(0.2286004298 -0.001509275234 -5.520827447e-11)
(0.2003608834 -0.001368428418 -5.122638371e-11)
(0.1663752147 -0.001040291008 -4.403876287e-11)
(0.126507132 -0.0006902464305 -3.310383427e-11)
(0.08061544385 -0.0001809713292 -1.983246635e-11)
(0.02867745604 -0.0001868713201 -6.049355658e-12)
(0.285051176 -0.0009191311475 -2.845418589e-11)
(0.2737272145 -0.001321636954 -4.285002076e-11)
(0.2566381571 -0.001584738659 -5.279956177e-11)
(0.233820877 -0.001615945406 -5.830996994e-11)
(0.2051979216 -0.001456250477 -5.077031154e-11)
(0.1706178525 -0.00110063394 -5.117745508e-11)
(0.1298981185 -0.0007274754125 -3.827622794e-11)
(0.08287213975 -0.000184208634 -2.239949417e-11)
(0.02951153783 -0.0002105744982 -6.757765727e-12)
(0.2917051434 -0.0009719224477 -3.537931893e-11)
(0.2803053734 -0.00139315351 -6.38104214e-11)
(0.2630594938 -0.001662608907 -1.094777514e-10)
(0.2399535543 -0.00168595303 -2.013601044e-10)
(0.2108523316 -0.001509527235 -2.107915849e-11)
(0.1755481184 -0.001133817551 -1.320474132e-10)
(0.133813204 -0.0007468856957 -6.793102907e-11)
(0.08546030925 -0.0001807046028 -3.282271425e-11)
(0.03046089302 -0.000233704568 -9.138745576e-12)
(0.299489467 -0.001001391467 -3.729424645e-11)
(0.2879876086 -0.001430505322 -6.322953702e-11)
(0.2705369469 -0.001698565272 -9.05015836e-11)
(0.247065492 -0.00171229551 -1.088173242e-10)
(0.2173753404 -0.001522870935 -6.98763471e-11)
(0.1812013408 -0.00113645883 -7.683235186e-11)
(0.1382737416 -0.0007468215532 -5.302980974e-11)
(0.08839028372 -0.0001701492065 -2.875462505e-11)
(0.03152820293 -0.0002557527963 -8.294428475e-12)
(0.3084936328 -0.001003541126 -3.48616917e-11)
(0.2968551756 -0.001428361505 -5.559159384e-11)
(0.2791395314 -0.001687013663 -7.138510502e-11)
(0.2552106797 -0.00169026077 -7.632781705e-11)
(0.2248050151 -0.001493122137 -6.442568274e-11)
(0.1876009989 -0.001106924958 -5.580199063e-11)
(0.1432918246 -0.0007267593154 -3.998045234e-11)
(0.09166658033 -0.0001526013909 -2.26551761e-11)
(0.03271418933 -0.0002762456914 -6.667739836e-12)
(0.3187941988 -0.0009757516391 -3.048630781e-11)
(0.3069749783 -0.001383485418 -4.6906687e-11)
(0.2889205659 -0.001624997825 -5.725138109e-11)
(0.2644269007 -0.001617905658 -5.915947334e-11)
(0.2331640377 -0.001419621746 -5.278778235e-11)
(0.1947574274 -0.001045413969 -4.340553433e-11)
(0.1488696894 -0.0006872771049 -3.102022794e-11)
(0.09528771642 -0.0001284463768 -1.77895064e-11)
(0.03401758796 -0.0002947521911 -5.277712406e-12)
(0.3304500342 -0.0009171117864 -2.557675655e-11)
(0.3183952181 -0.001295119513 -3.865484471e-11)
(0.2999140722 -0.001512520972 -4.617078289e-11)
(0.274733135 -0.001496226643 -4.721423913e-11)
(0.2424581735 -0.001304198285 -4.266912478e-11)
(0.2026671558 -0.0009538393363 -3.482244767e-11)
(0.1549995827 -0.0006299277177 -2.499268906e-11)
(0.09924629046 -9.833670748e-05 -1.450276069e-11)
(0.0354351811 -0.0003108890922 -4.341756099e-12)
(0.3434975722 -0.0008285803504 -2.101658934e-11)
(0.3311413723 -0.001165118634 -3.156578605e-11)
(0.3121317991 -0.001352559795 -3.753776986e-11)
(0.2861277616 -0.00132901312 -3.859727828e-11)
(0.2526755246 -0.00115089437 -3.557650805e-11)
(0.2113128644 -0.0008355608629 -2.981622114e-11)
(0.161664032 -0.0005570429162 -2.225200528e-11)
(0.1035292791 -6.317794386e-05 -1.345150102e-11)
(0.03696192082 -0.0003243523888 -4.114694386e-12)
(0.3579466684 -0.0007129088439 -1.821444197e-11)
(0.3452130102 -0.0009977790058 -2.724842631e-11)
(0.3255612692 -0.001150747594 -3.267732769e-11)
(0.2985878042 -0.001122411384 -3.464405374e-11)
(0.2637866657 -0.0009655039289 -3.393457112e-11)
(0.2206639801 -0.000695020064 -3.124977174e-11)
(0.1688365223 -0.0004714967983 -2.63047757e-11)
(0.108118798 -2.406948282e-05 -1.744160708e-11)
(0.03859073915 -0.0003349654637 -5.334360343e-12)
(0.3737774867 -0.0005743784423 -3.18875641e-11)
(0.3605817344 -0.0007994030576 -3.639366884e-11)
(0.3401649601 -0.0009147862242 -3.833116456e-11)
(0.3120691655 -0.0008842917505 -4.036415695e-11)
(0.2757455252 -0.0007549989677 -4.333645806e-11)
(0.2306777247 -0.0005373405004 -4.755794061e-11)
(0.1764824913 -0.0003761330797 -5.039019932e-11)
(0.1129923083 1.683085671e-05 -3.663490282e-11)
(0.04031315928 -0.000343758252 -8.685274257e-12)
(0.3909392501 -0.0004183704565 -3.796000995e-10)
(0.3771908908 -0.0005776446205 -1.465403223e-10)
(0.355880993 -0.0006536443463 -8.015126685e-11)
(0.326508002 -0.000623442431 -6.38318667e-11)
(0.2884910009 -0.0005268781574 -6.878349508e-11)
(0.2413005537 -0.00036771146 -9.24516039e-11)
(0.1845603356 -0.0002739180141 -1.489850322e-10)
(0.1181221671 5.732841493e-05 -1.111423894e-10)
(0.0421206297 -0.000351647377 4.814841466e-12)
(0.4093506252 -0.0002508805118 -1.489369201e-10)
(0.394956648 -0.0003408389254 -1.137983061e-10)
(0.3726248245 -0.0003768161057 -8.311379622e-11)
(0.3418227114 -0.0003489141897 -7.005662353e-11)
(0.3019488837 -0.0002887152339 -6.881747828e-11)
(0.252469648 -0.0001911608923 -7.331438502e-11)
(0.1930228134 -0.0001688177003 -7.512372299e-11)
(0.1234786244 9.726433315e-05 -5.121916608e-11)
(0.04400318478 -0.0003570509938 -1.226659382e-11)
(0.4289029912 -7.803579188e-05 -7.383453113e-11)
(0.4137715894 -9.735471636e-05 -7.836918337e-11)
(0.3902929254 -9.361243845e-05 -7.025671087e-11)
(0.3579173989 -6.9377734e-05 -6.327422338e-11)
(0.3160346596 -4.787218509e-05 -5.882590506e-11)
(0.2641167042 -1.170457344e-05 -5.418340874e-11)
(0.2018146382 -6.259326341e-05 -4.536968251e-11)
(0.1290318767 0.0001357690216 -2.878486214e-11)
(0.04594942715 -0.0003600948708 -8.497108294e-12)
(0.4494644969 9.443822341e-05 -4.312373525e-11)
(0.4335085244 0.0001449534996 -5.424953768e-11)
(0.408766146 0.0001872837464 -5.495424423e-11)
(0.3746845275 0.000206852723 -5.170038829e-11)
(0.3306559161 0.0001906918436 -4.672090051e-11)
(0.2761661963 0.0001610015745 -3.981378135e-11)
(0.2108830441 4.419431261e-05 -3.027123454e-11)
(0.1347471076 0.0001769199338 -1.821460704e-11)
(0.04794794511 -0.0003623018288 -5.473181094e-12)
(0.4708838374 0.0002612886468 -2.795518875e-11)
(0.4540239978 0.0003788668746 -3.819807964e-11)
(0.4279129699 0.0004577694026 -4.122797215e-11)
(0.3920080249 0.0004724061982 -3.961144469e-11)
(0.3457150564 0.0004194904987 -3.508656056e-11)
(0.2885396883 0.0003270023694 -2.848933122e-11)
(0.220175491 0.0001493979819 -2.042755442e-11)
(0.1405868279 0.0002169151349 -1.175600482e-11)
(0.04998690068 -0.0003628901671 -3.473998639e-12)
(0.4929966701 0.0004182856355 -1.883266772e-11)
(0.4751641302 0.0005987508135 -2.658902715e-11)
(0.4475944649 0.0007118236374 -2.928262756e-11)
(0.4097672016 0.0007219708255 -2.788787098e-11)
(0.3611115828 0.0006345585453 -2.371145394e-11)
(0.301159238 0.0004840826173 -1.796045005e-11)
(0.2296324495 0.0002478001092 -1.165456163e-11)
(0.1465176722 0.000253147324 -5.990768223e-12)
(0.05205466223 -0.0003610409015 -1.632685414e-12)
(0.5156329584 0.0005623097321 -1.193318475e-11)
(0.4967709226 0.0008004748504 -1.659522308e-11)
(0.4676691908 0.0009449862262 -1.732841578e-11)
(0.4278400925 0.0009514074901 -1.456988817e-11)
(0.3767445694 0.0008325635662 -9.716541441e-12)
(0.3139457035 0.0006294925515 -4.713849433e-12)
(0.2391964372 0.0003386634732 4.388084822e-13)
(0.1525070775 0.000285770823 2.710653633e-12)
(0.05413992657 -0.0003571876649 1.247067534e-12)
(0.538622853 0.0006913037152 -4.919971871e-12)
(0.5186872701 0.0009813073299 -5.164833875e-12)
(0.4879973013 0.001154295288 -1.245340653e-12)
(0.4461068497 0.00115792832 6.774189492e-12)
(0.3925155472 0.001011245326 1.611432868e-11)
(0.3268224725 0.0007613373411 1.587444646e-11)
(0.2488128962 0.0004211898109 2.509959593e-11)
(0.1585219757 0.000314623532 2.305582483e-11)
(0.05623139487 -0.0003516797905 7.760143344e-12)
(0.5618014198 0.0008041051728 3.319709131e-12)
(0.5407609788 0.001139698896 9.624924324e-12)
(0.5084437224 0.001338044948 2.329997134e-11)
(0.4644520772 0.001339883158 4.944551666e-11)
(0.4083299801 0.001169245309 9.934721049e-11)
(0.3397161498 0.000878505047 1.679323587e-11)
(0.2584296146 0.0004950719099 8.775041607e-11)
(0.1645308291 0.0003391696576 8.208186473e-11)
(0.05831864158 -0.0003453218842 2.155472038e-11)
(0.585012636 0.0009002960049 7.99025104e-12)
(0.5628482253 0.001275076588 1.592787428e-11)
(0.5288809772 0.001495582221 2.756614946e-11)
(0.4827670374 0.001496585132 4.194232945e-11)
(0.4240989256 0.001305950858 5.326673672e-11)
(0.3525577804 0.0009804502881 4.205057359e-11)
(0.2679975126 0.0005599904786 4.724207694e-11)
(0.1705037633 0.0003595012144 3.65608274e-11)
(0.06039226733 -0.0003381798065 1.149686512e-11)
(0.6081122976 0.0009800587283 9.148367365e-12)
(0.584816069 0.001387660444 1.618946206e-11)
(0.5491912352 0.001627107305 2.41106794e-11)
(0.5009512374 0.001628136018 3.132339052e-11)
(0.4397402191 0.001421378802 3.478504228e-11)
(0.3652837207 0.001067089558 3.170540382e-11)
(0.2774713314 0.000615663119 2.768884536e-11)
(0.1764136492 0.0003763631068 1.87204351e-11)
(0.06244313954 -0.0003296605501 5.913224277e-12)
(0.630970006 0.001044028408 8.3943665e-12)
(0.6065441902 0.001478280202 1.393790232e-11)
(0.5692677458 0.001733497571 1.906513473e-11)
(0.5189135581 0.001735279518 2.271861642e-11)
(0.455179315 0.001516077305 2.366126708e-11)
(0.377836224 0.001138736903 2.141414648e-11)
(0.2868100102 0.000662254917 1.70966985e-11)
(0.182236088 0.00038984062 1.07505163e-11)
(0.06446276766 -0.0003199774179 3.329660337e-12)
(0.653470293 0.001093158114 6.961903818e-12)
(0.6279259006 0.001548208906 1.112992913e-11)
(0.5890156936 0.001816130912 1.44614978e-11)
(0.5365729354 0.001819236787 1.635625726e-11)
(0.4703498018 0.00159098949 1.634436351e-11)
(0.3901637888 0.001195985207 1.44073169e-11)
(0.2959768856 0.0007001074805 1.102725252e-11)
(0.1879491214 0.0004000485643 6.688711473e-12)
(0.06644381097 -0.0003093711122 2.042071274e-12)
(0.6755130598 0.001128617671 5.492657582e-12)
(0.6488685595 0.001599027267 8.581896867e-12)
(0.6083525735 0.001876738438 1.08056522e-11)
(0.5538586831 0.001881580442 1.183171462e-11)
(0.4851936709 0.001647363072 1.150268574e-11)
(0.4022213698 0.001239656658 9.925517513e-12)
(0.304939864 0.0007296919107 7.433913478e-12)
(0.1935334946 0.0004071334484 4.434696044e-12)
(0.06837983318 -0.0002980629075 1.345116663e-12)
(0.6970134334 0.00115170636 4.262753675e-12)
(0.6692934667 0.001632503097 6.576693952e-12)
(0.6272081258 0.0019172741 8.141384191e-12)
(0.570710463 0.001924121294 8.764950018e-12)
(0.4996613021 0.001686660945 8.406957758e-12)
(0.4139703701 0.001270743172 7.188753506e-12)
(0.3136714093 0.0007515796893 5.352019677e-12)
(0.1989726652 0.0004112895657 3.185431506e-12)
(0.07026530532 -0.0002862469374 9.675221428e-13)
(0.7179011839 0.00116378159 3.405452267e-12)
(0.6891353634 0.001650492589 5.242984887e-12)
(0.6455239444 0.001939812038 6.483884453e-12)
(0.5870779895 0.001948812672 6.99862689e-12)
(0.5137112481 0.001710482717 6.764783943e-12)
(0.4253784903 0.001290349726 5.857610721e-12)
(0.3221484453 0.0007664097129 4.428750749e-12)
(0.204252753 0.0004127466889 2.677562217e-12)
(0.07209558061 -0.000274091326 8.231035258e-13)
(0.7381198371 0.001166209892 3.081333346e-12)
(0.7083416635 0.001654869745 4.811411116e-12)
(0.6632528443 0.001946467738 6.096438459e-12)
(0.6029205298 0.00195766911 6.807242908e-12)
(0.5273098532 0.001720495395 6.852874778e-12)
(0.436419454 0.001299645947 6.187793673e-12)
(0.3303521729 0.0007748624548 4.858501928e-12)
(0.2093624383 0.000411758983 3.027934249e-12)
(0.07386686183 -0.0002617408868 9.490960953e-13)
(0.7576256145 0.001160323878 3.650807614e-12)
(0.726871517 0.001647472884 5.896324711e-12)
(0.6803580735 0.001939327783 7.87455653e-12)
(0.618206271 0.001952691537 9.372243874e-12)
(0.5404307711 0.001718371673 1.00478519e-11)
(0.4470726591 0.001299823617 9.504552466e-12)