/*--------------------------------*- C++ -*----------------------------------*\
| =========                 |                                                 |
| \\      /  F ield         | OpenFOAM: The Open Source CFD Toolbox           |
|  \\    /   O peration     | Version:  2212                                  |
|   \\  /    A nd           | Website:  www.openfoam.com                      |
|    \\/     M anipulation  |                                                 |
\*---------------------------------------------------------------------------*/
FoamFile
{
    version     2.0;
    format      ascii;
    arch        "LSB;label=32;scalar=64";
    class       volScalarField;
    location    "20.00000000";
    object      A1C2H3_0;
}
// * * * * * * * * * * * * * * * * * * * * * * * * * * * * * * * * * * * * * //

dimensions      [0 0 0 0 0 0 0];

internalField   nonuniform List<scalar> 
3000
(
1.974450356e-22
2.217931244e-22
2.585316009e-22
3.07484669e-22
3.681535173e-22
4.38891879e-22
5.154415503e-22
5.884911667e-22
6.40142936e-22
7.412912018e-22
8.360591263e-22
9.789913912e-22
1.169866465e-21
1.408490316e-21
1.693554661e-21
2.02011913e-21
2.37180143e-21
2.68326017e-21
1.660496018e-21
1.887497431e-21
2.233136984e-21
2.702398281e-21
3.303700557e-21
4.045786702e-21
4.925719603e-21
5.894224191e-21
6.721712285e-21
3.162854318e-21
3.632913024e-21
4.359148396e-21
5.366101905e-21
6.689422926e-21
8.362762951e-21
1.037698353e-20
1.257109761e-20
1.43418959e-20
5.616630471e-21
6.530595993e-21
7.964918285e-21
9.992427274e-21
1.270845665e-20
1.618917832e-20
2.03764106e-20
2.482335133e-20
2.823695086e-20
9.658582059e-21
1.1374091e-20
1.410494392e-20
1.802540825e-20
2.334459588e-20
3.019644735e-20
3.837627206e-20
4.685272958e-20
5.312377903e-20
1.639759121e-20
1.954887581e-20
2.462372568e-20
3.199149202e-20
4.20623273e-20
5.503641176e-20
7.037693432e-20
8.59629985e-20
9.720896909e-20
2.775158843e-20
3.345433852e-20
4.271964686e-20
5.627505294e-20
7.487611235e-20
9.879024185e-20
1.268171577e-19
1.548773117e-19
1.747857697e-19
4.704459686e-20
5.725514071e-20
7.395120569e-20
9.850103689e-20
1.322478105e-19
1.755147037e-19
2.258567217e-19
2.757337494e-19
3.107309282e-19
8.003467383e-20
9.817245192e-20
1.279659904e-19
1.719146327e-19
2.323629343e-19
3.096593423e-19
3.990972295e-19
4.870613873e-19
5.483275831e-19
1.367075746e-19
1.687411002e-19
2.215262406e-19
2.995455036e-19
4.068563427e-19
5.43767287e-19
7.015333187e-19
8.559158589e-19
9.629176366e-19
2.343931359e-19
2.907322334e-19
3.837707577e-19
5.214566731e-19
7.10787597e-19
9.518988305e-19
1.228897787e-18
1.499011575e-18
1.685653567e-18
4.031886411e-19
5.019866711e-19
6.653890803e-19
9.073889853e-19
1.240038284e-18
1.663012621e-18
2.147776704e-18
2.619266586e-18
2.944821382e-18
6.953731042e-19
8.682814205e-19
1.154568784e-18
1.578781822e-18
2.161689157e-18
2.901833201e-18
3.747834488e-18
4.567850225e-18
5.137777306e-18
1.201711827e-18
1.503881152e-18
2.004631085e-18
2.747016917e-18
3.767037099e-18
5.060733017e-18
6.533940145e-18
7.946936025e-18
8.958357844e-18
2.07964167e-18
2.607006364e-18
3.481592458e-18
4.779011322e-18
6.562758165e-18
8.82870943e-18
1.142437974e-17
1.395601287e-17
1.56577524e-17
3.602060634e-18
4.521111632e-18
6.045903124e-18
8.308285222e-18
1.141804404e-17
1.536484957e-17
1.987400076e-17
2.424125197e-17
2.72280337e-17
6.242205843e-18
7.841866045e-18
1.049642056e-17
1.443506956e-17
1.984733624e-17
2.67120033e-17
3.454667793e-17
4.212602137e-17
4.731924737e-17
1.082113917e-17
1.360299396e-17
1.821999886e-17
2.507036372e-17
3.448197498e-17
4.641506387e-17
6.00284218e-17
7.319271827e-17
8.221145784e-17
1.876386591e-17
2.359888475e-17
3.162444059e-17
4.353239707e-17
5.989093157e-17
8.062789488e-17
1.04278597e-16
1.271427717e-16
1.428028415e-16
3.254404455e-17
4.094472022e-17
5.489021484e-17
7.558253076e-17
1.040069321e-16
1.400342481e-16
1.811157861e-16
2.208223028e-16
2.480123901e-16
5.645622258e-17
7.10491293e-17
9.527584462e-17
1.312242711e-16
1.806032485e-16
2.431829159e-16
3.145300647e-16
3.834761418e-16
4.306817559e-16
9.795705157e-17
1.233035088e-16
1.653850843e-16
2.278275827e-16
3.135945807e-16
4.222781797e-16
5.461692123e-16
6.658703706e-16
7.478182698e-16
1.699949293e-16
2.140163038e-16
2.871047324e-16
3.95554872e-16
5.445051779e-16
7.332325732e-16
9.483336818e-16
1.15612943e-15
1.298371083e-15
2.950566733e-16
3.715098825e-16
4.984438492e-16
6.867823972e-16
9.45431054e-16
1.273107694e-15
1.64651469e-15
2.00718222e-15
2.254046142e-15
5.121951165e-16
6.449711153e-16
8.654076153e-16
1.192452611e-15
1.641528613e-15
2.210352973e-15
2.858431257e-15
3.484276553e-15
3.91258758e-15
8.892323985e-16
1.119819237e-15
1.502610399e-15
2.070450923e-15
2.850019752e-15
3.83722142e-15
4.961656556e-15
6.047216491e-15
6.789972883e-15
1.543944246e-15
1.944382367e-15
2.609047681e-15
3.594822144e-15
4.947780571e-15
6.660500843e-15
8.610556885e-15
1.0492462e-14
1.177965772e-14
2.68079861e-15
3.376151877e-15
4.530093503e-15
6.241008758e-15
8.588282844e-15
1.155828708e-14
1.493802482e-14
1.819784945e-14
2.042642745e-14
4.654600531e-15
5.861891624e-15
7.864811494e-15
1.083323998e-14
1.490351664e-14
2.005020284e-14
2.590249537e-14
3.154275056e-14
3.539596997e-14
8.080567249e-15
1.017613322e-14
1.365132257e-14
1.879878304e-14
2.585164571e-14
3.476154758e-14
4.488246987e-14
5.462611253e-14
6.127590526e-14
1.402428061e-14
1.766002135e-14
2.36861066e-14
3.260510438e-14
4.481331267e-14
6.02170353e-14
7.768982266e-14
9.448635468e-14
1.05933543e-13
2.432854495e-14
3.06319179e-14
4.107202531e-14
5.650837783e-14
7.760940452e-14
1.041903774e-13
1.342855369e-13
1.631586848e-13
1.82799204e-13
4.217381818e-14
5.309046361e-14
7.115459616e-14
9.782827577e-14
1.342274589e-13
1.799826666e-13
2.316613761e-13
2.811137405e-13
3.146695953e-13
7.303499161e-14
9.19125488e-14
1.231125988e-13
1.691049445e-13
2.317280838e-13
3.102356896e-13
3.986330664e-13
4.829443171e-13
5.399726515e-13
1.263065321e-13
1.588827586e-13
2.126421606e-13
2.917202352e-13
3.990941368e-13
5.332494967e-13
6.83723217e-13
8.266555951e-13
9.22955934e-13
2.180466989e-13
2.741082312e-13
3.664504968e-13
5.019219219e-13
6.852371983e-13
9.133268067e-13
1.167960129e-12
1.408635946e-12
1.57002331e-12
3.755806223e-13
4.71720497e-13
6.297118397e-13
8.607414921e-13
1.172061454e-12
1.557490004e-12
1.985365628e-12
2.387425833e-12
2.655535956e-12
6.451639588e-13
8.093137473e-13
1.078313536e-12
1.470132922e-12
1.99550242e-12
2.642112853e-12
3.355257408e-12
4.020870154e-12
4.461924395e-12
1.104637034e-12
1.383418948e-12
1.838746791e-12
2.498902783e-12
3.378934599e-12
4.45471019e-12
5.632384342e-12
6.72327482e-12
7.441073067e-12
1.884130258e-12
2.354609755e-12
3.120027259e-12
4.223810962e-12
5.685442388e-12
7.458503626e-12
9.383523724e-12
1.115197934e-11
1.230683486e-11
3.19960895e-12
3.987778989e-12
5.264270656e-12
7.093804906e-12
9.498385639e-12
1.239065316e-11
1.550273862e-11
1.833656557e-11
2.017248605e-11
5.406636426e-12
6.71598227e-12
8.825767653e-12
1.18289812e-11
1.574374834e-11
2.040951996e-11
2.538236067e-11
2.986911899e-11
3.275233157e-11
9.085543619e-12
1.12403712e-11
1.469295294e-11
1.957090783e-11
2.587332341e-11
3.331243547e-11
4.116340922e-11
4.818106417e-11
5.265405966e-11
1.517467966e-11
1.868458697e-11
2.427400609e-11
3.210787529e-11
4.213539733e-11
5.385380224e-11
6.609825184e-11
7.69418259e-11
8.379856246e-11
2.517615625e-11
3.08301375e-11
3.977556419e-11
5.220814087e-11
6.797000384e-11
8.620478017e-11
1.050707644e-10
1.216278849e-10
1.320177765e-10
4.146920634e-11
5.047048481e-11
6.461597988e-11
8.410719688e-11
1.085800412e-10
1.366114476e-10
1.653362748e-10
1.903289747e-10
2.05899962e-10
6.778086646e-11
8.193680658e-11
1.040308203e-10
1.34212771e-10
1.717489718e-10
2.143296687e-10
2.575667703e-10
2.948828828e-10
3.179774649e-10
1.098833705e-10
1.318689987e-10
1.659503697e-10
2.121153232e-10
2.690022713e-10
3.329439155e-10
3.973183137e-10
4.524637888e-10
4.863866832e-10
1.766141052e-10
2.103333134e-10
2.622588231e-10
3.320244864e-10
4.172456979e-10
5.122165918e-10
6.070801454e-10
6.877942441e-10
7.371767254e-10
2.813496729e-10
3.32425719e-10
4.105854964e-10
5.147962465e-10
6.410620404e-10
7.806674666e-10
9.191222996e-10
1.036211906e-09
1.107506137e-09
4.441141293e-10
5.205514776e-10
6.368337726e-10
7.907758644e-10
9.759136003e-10
1.179154132e-09
1.379435431e-09
1.547903675e-09
1.650052028e-09
6.945679303e-10
8.076422247e-10
9.787296033e-10
1.20376347e-09
1.47258589e-09
1.765819621e-09
2.05315954e-09
2.293729185e-09
2.439070143e-09
1.076215385e-09
1.241671112e-09
1.490778183e-09
1.81652232e-09
2.20332684e-09
2.622898494e-09
3.032033674e-09
3.373203378e-09
3.578698498e-09
1.652198581e-09
1.891835863e-09
2.251033602e-09
2.718313259e-09
3.270277258e-09
3.866092056e-09
4.444647395e-09
4.925452203e-09
5.214319288e-09
2.513358913e-09
2.857176029e-09
3.37052968e-09
4.035338791e-09
4.817056911e-09
5.657344781e-09
6.470364077e-09
7.144083614e-09
7.548006861e-09
3.789408017e-09
4.2784681e-09
5.006224772e-09
5.945015381e-09
7.044568903e-09
8.222270432e-09
9.35829127e-09
1.029742329e-08
1.085951809e-08
5.664244896e-09
6.35450951e-09
7.378700274e-09
8.695460376e-09
1.023254046e-08
1.187385577e-08
1.345304477e-08
1.475597247e-08
1.553476095e-08
8.396920106e-09
9.364374016e-09
1.079630377e-08
1.263202133e-08
1.476879275e-08
1.704461784e-08
1.922965924e-08
2.102958061e-08
2.210432055e-08
1.235022968e-08
1.369772809e-08
1.568798334e-08
1.823329322e-08
2.118891498e-08
2.43301339e-08
2.734079805e-08
2.981768128e-08
3.129550573e-08
1.80295852e-08
1.989599688e-08
2.264781026e-08
2.615988628e-08
3.022991337e-08
3.454784208e-08
3.868047551e-08
4.207706685e-08
4.410255331e-08
2.61356757e-08
2.870808442e-08
3.24951729e-08
3.73202824e-08
4.290258512e-08
4.881630259e-08
5.446990772e-08
5.911317404e-08
6.188118053e-08
3.763556689e-08
4.116554407e-08
4.635590723e-08
5.295951685e-08
6.05889032e-08
6.866179549e-08
7.637294459e-08
8.270282116e-08
8.647571827e-08
5.38583356e-08
5.868362515e-08
6.577127266e-08
7.477821307e-08
8.51726653e-08
9.616129327e-08
1.066508922e-07
1.152588572e-07
1.203896929e-07
7.662316809e-08
8.319654562e-08
9.284374709e-08
1.050917473e-07
1.192141283e-07
1.34133553e-07
1.483694765e-07
1.600503277e-07
1.670139879e-07
1.084101087e-07
1.1733771e-07
1.304311477e-07
1.470420621e-07
1.661823344e-07
1.863933157e-07
2.056741898e-07
2.214954604e-07
2.309305386e-07
1.525863587e-07
1.646784172e-07
1.824035722e-07
2.048778349e-07
2.307622428e-07
2.580872277e-07
2.841540857e-07
3.055487376e-07
3.18313558e-07
2.137041425e-07
2.300418055e-07
2.539809689e-07
2.843221423e-07
3.192573193e-07
3.561337069e-07
3.91317707e-07
4.202069113e-07
4.374538294e-07
2.978894793e-07
3.199121022e-07
3.521724408e-07
3.930499782e-07
4.401112966e-07
4.897917685e-07
5.372072676e-07
5.761608688e-07
5.994333761e-07
4.133442968e-07
4.429621818e-07
4.863410346e-07
5.413001811e-07
6.045743617e-07
6.713845368e-07
7.351769634e-07
7.876190976e-07
8.189760683e-07
5.709864252e-07
6.107240943e-07
6.689187101e-07
7.426462322e-07
8.275375802e-07
9.172000659e-07
1.002856372e-06
1.073321856e-06
1.115491676e-06
7.852519363e-07
8.384263329e-07
9.162939984e-07
1.014946438e-06
1.128553191e-06
1.248583384e-06
1.363308499e-06
1.457751153e-06
1.514315676e-06
1.075080463e-06
1.146016508e-06
1.249887835e-06
1.381484431e-06
1.533045781e-06
1.693217421e-06
1.846372571e-06
1.972520218e-06
2.048124136e-06
1.465094779e-06
1.559377081e-06
1.697419575e-06
1.872294349e-06
2.073698762e-06
2.286567254e-06
2.490155995e-06
2.657901134e-06
2.758486101e-06
1.98696936e-06
2.111723352e-06
2.294344011e-06
2.525640105e-06
2.791973997e-06
3.073431259e-06
3.342608864e-06
3.564416819e-06
3.697454524e-06
2.680957013e-06
2.845145491e-06
3.085410477e-06
3.38958815e-06
3.739687299e-06
4.109513836e-06
4.463085351e-06
4.75436942e-06
4.929070205e-06
3.597510793e-06
3.812224018e-06
4.126262034e-06
4.523576802e-06
4.980545105e-06
5.462906616e-06
5.923747426e-06
6.30318499e-06
6.530675477e-06
4.798901624e-06
5.077611922e-06
5.484969831e-06
5.99988592e-06
6.591499461e-06
7.215311682e-06
7.810666094e-06
8.300403837e-06
8.593830768e-06
6.360717452e-06
6.719476919e-06
7.243366996e-06
7.904812184e-06
8.663761868e-06
9.462874255e-06
1.022446501e-05
1.085017084e-05
1.122471421e-05
8.373070245e-06
8.830590105e-06
9.497978739e-06
1.033941065e-05
1.130330097e-05
1.231643631e-05
1.32803547e-05
1.407108645e-05
1.454386431e-05
1.09413056e-05
1.151890343e-05
1.236040106e-05
1.341962108e-05
1.463070547e-05
1.590112076e-05
1.710745048e-05
1.809531908e-05
1.868517449e-05
1.418606262e-05
1.49074508e-05
1.595698276e-05
1.727566745e-05
1.878027268e-05
2.035511035e-05
2.184729644e-05
2.30669281e-05
2.379410198e-05
1.824251545e-05
1.91334135e-05
2.042763371e-05
2.205060446e-05
2.38982641e-05
2.582763308e-05
2.765159607e-05
2.913941736e-05
3.002512766e-05
2.325868791e-05
2.43462709e-05
2.592376196e-05
2.789796245e-05
3.014028282e-05
3.247611107e-05
3.467919801e-05
3.647262138e-05
3.753860744e-05
2.93927902e-05
3.070499075e-05
3.260526673e-05
3.497855492e-05
3.766788536e-05
4.046260641e-05
4.309247222e-05
4.522912353e-05
4.649733182e-05
3.68096218e-05
3.837432231e-05
4.063669029e-05
4.345647349e-05
4.664445492e-05
4.99496449e-05
5.30531827e-05
5.557036589e-05
5.706344121e-05
4.567620248e-05
4.752037022e-05
5.018272454e-05
5.349453112e-05
5.723058286e-05
6.109554956e-05
6.471778624e-05
6.765095189e-05
6.938758666e-05
5.615694247e-05
5.830577588e-05
6.140342682e-05
6.52495376e-05
6.957932793e-05
7.404958831e-05
7.822949722e-05
8.160685636e-05
8.360319401e-05
6.840884973e-05
7.088500013e-05
7.44496589e-05
7.886810491e-05
8.383123072e-05
8.894225809e-05
9.371026064e-05
9.755508084e-05
9.982431395e-05
8.257749592e-05
8.540025623e-05
8.945763796e-05
9.447632854e-05
0.0001001011875
0.0001058803208
0.0001112599499
0.0001155899485
0.0001181420126
9.878494148e-05
0.0001019669878
0.0001065342285
0.00011217309
0.0001184799777
0.0001249461369
0.0001309533302
0.0001357802355
0.0001386215908
0.0001171230647
0.0001206724363
0.0001257602004
0.0001320311094
0.0001390316405
0.0001461950573
0.0001528379102
0.0001581673072
0.0001613008669
0.0001376556381
0.0001415756282
0.0001471879152
0.0001540946974
0.0001617917829
0.0001696540663
0.0001769329299
0.00018276436
0.0001861895567
0.0001604165456
0.0001647058185
0.0001708401483
0.0001783788778
0.0001867670802
0.0001953216096
0.0002032294679
0.0002095567363
0.0002132697016
0.0001854094399
0.0001900623405
0.000196710202
0.0002048697681
0.0002139359348
0.0002231685015
0.0002316915559
0.0002385031891
0.0002424970157
0.0002126087282
0.0002176157207
0.0002247631931
0.0002335260501
0.0002432501249
0.000253139734
0.0002622581189
0.000269537918
0.0002738029749
0.0002419616444
0.0002473098208
0.000254938282
0.0002642812916
0.000274637216
0.0002851569659
0.0002948455282
0.0003025731702
0.0003070974458
0.0002733911001
0.0002790647059
0.0002871515621
0.0002970468562
0.0003080034886
0.0003191214716
0.0003293505711
0.0003375022264
0.0003422716804
0.0003067990158
0.0003127799624
0.0003212993593
0.0003317151799
0.0003432371887
0.0003549173572
0.0003656536341
0.0003742025634
0.0003792014709
0.0003420698694
0.0003483381981
0.0003572616643
0.0003681631266
0.0003802118094
0.0003924147859
0.00040362189
0.0004125390155
0.0004177502982
0.00037907417
0.0003856084694
0.0003949055009
0.0004062552922
0.0004187893309
0.0004314731586
0.0004431124296
0.0004523668725
0.0004577724125
0.0004176717898
0.0004244495668
0.0004340881485
0.0004458471561
0.000458823303
0.0004719441341
0.0004839752305
0.0004935348118
0.000499115745
0.0004577150457
0.0004647130544
0.0004746601253
0.0004867880021
0.0005001617014
0.0005136744256
0.0005260559036
0.0005358876071
0.0005416245974
0.0004990514881
0.0005062460229
0.0005164678933
0.0005289235672
0.0005426495196
0.0005565083374
0.0005691981803
0.0005792685777
0.0005851420681
0.0005415263806
0.0005488935401
0.000559356268
0.000572098403
0.000586131077
0.0006002900192
0.0006132461182
0.0006235217539
0.0006295121935
0.0005849848737
0.0005925007991
0.0006031705295
0.0006161579412
0.0006304520393
0.0006448654276
0.0006580460005
0.0006684937433
0.0006745818065
0.000629273878
0.0006369149725
0.0006477582423
0.0006609502548
0.0006754610726
0.0006900839525
0.0007034479796
0.0007140353497
0.0007202021007
0.0006742435942
0.0006819866907
0.0006929706815
0.0007063274773
0.0007210113693
0.0007357998965
0.0007493074237
0.000760002831
0.0007662298807
0.0007197488226
0.0007275713721
0.000738664183
0.0007521471104
0.000766961764
0.0007818735077
0.0007954859334
0.0008062589085
0.0008125285466
0.0007656500636
0.0007735302816
0.0007847011269
0.0007982729359
0.0008131776355
0.0008281718373
0.0008418521491
0.0008526735275
0.0008589688287
0.00081181433
0.0008197313178
0.0008309506945
0.0008445757353
0.000859531577
0.0008745693626
0.0008882823244
0.0008991243921
0.0009054292982
0.0008581157487
0.0008660495917
0.0008772894146
0.0008909337976
0.0009059038597
0.0009209484027
0.0009346606985
0.0009454972996
0.0009517966795
0.0009044359741
0.0009123678181
0.0009236015256
0.0009372332442
0.0009521827145
0.0009671993569
0.0009808796928
0.0009916863046
0.0009979659953
0.0009506644391
0.0009585765474
0.0009697791777
0.0009833681956
0.0009982644602
0.001013220793
0.001026839963
0.001037593742
0.001043840571
0.0009966984687
0.00100457426
0.001015722502
0.001029240809
0.001044053505
0.001058919415
0.001072450332
0.001083130132
0.001089331929
0.001042443278
0.001050267347
0.001061339567
0.001074761206
0.001089462245
0.001104209925
0.001117627631
0.001128214003
0.00113435959
0.001087811878
0.001095570004
0.001106546252
0.001119847319
0.001134410882
0.001149014822
0.001162296462
0.001172771634
0.001178850815
0.001132724907
0.001140404045
0.001151266043
0.001164424673
0.001178827179
0.001193264129
0.001206388918
0.001216736757
0.001222740294
0.001177110406
0.001184698672
0.001195429785
0.001208426106
0.001222646173
0.001236895089
0.001249844255
0.00126005022
0.001265969801
0.001220903545
0.001228390188
0.001238975385
0.001251791475
0.001265809846
0.001279851824
0.001292608538
0.001302659625
0.001308487828
0.001264046329
0.001271421696
0.0012818475
0.001294467312
0.00130826679
0.00132208498
0.001334634281
0.001344518954
0.001350249211
0.00130648727
0.001313742765
0.001323997192
0.001336406487
0.001349971841
0.00136355136
0.001375880069
0.001385588189
0.001391214742
0.001348181048
0.001355309089
0.001365381583
0.001377567844
0.001390885718
0.001404213554
0.001416310179
0.001425832934
0.001431350787
0.001389088169
0.001396082137
0.001405963498
0.001417915841
0.001430974657
0.001444039564
0.001455894207
0.001465224031
0.001470628909
0.00142917461
0.001436028797
0.001445711108
0.00145742019
0.001470210043
0.001483002435
0.001494606697
0.001503737194
0.001509025494
0.001468411465
0.001475121019
0.001484597567
0.001496055496
0.001508568051
0.001521079902
0.001532426779
0.001541352642
0.001546521388
0.001506774599
0.001513335474
0.001522600677
0.001533800913
0.001546029299
0.001558254027
0.001569337815
0.001578054748
0.001583101545
0.001544244325
0.00155065322
0.001559702541
0.001570639799
0.001582578501
0.001594510865
0.001605327061
0.001613831703
0.001618754693
0.001580805048
0.001587059354
0.001595889225
0.001606559381
0.001618204136
0.001629840133
0.00164038534
0.001648675191
0.001653473006
0.001616444942
0.001622542689
0.001631150437
0.001641550436
0.001652898132
0.001664234893
0.001674506729
0.001682580072
0.001687251795
0.001651155641
0.001657095441
0.001665479213
0.001675606979
0.001686655558
0.00169769125
0.001707688256
0.001715544091
0.001720089215
0.001684931931
0.001690712935
0.001698871624
0.00170872597
0.001719474332
0.001730208064
0.001739929619
0.001747567595
0.001751985981
0.001717771468
0.001723393309
0.001731326486
0.001740907036
0.001751354947
0.001761786678
0.001771232919
0.001778653269
0.001782945112
0.001749674498
0.001755137247
0.001762845095
0.001772152199
0.001782300208
0.001792430661
0.001801602404
0.001808805884
0.00181297168
0.001780643598
0.001785947721
0.001793430972
0.001802465632
0.001812314985
0.001822145569
0.001831044236
0.001838032072
0.001842072578
0.001810683432
0.001815829745
0.00182308962
0.001831853422
0.001841405987
0.001850938717
0.001859566269
0.001866340099
0.001870256312
0.001839800517
0.001844790149
0.001851828304
0.001860323349
0.001869581545
0.001878818974
0.001887177848
0.001893739676
0.001897532799
0.001868003014
0.001872837369
0.001879655843
0.001887884685
0.001896851416
0.001905796568
0.001913889616
0.001920241766
0.001923913182
0.001895300524
0.001899981247
0.001906582415
0.001914548006
0.001923226597
0.001931882909
0.001939713346
0.001945858419
0.001949409668
0.001921703906
0.001926232853
0.001932619381
0.001940325017
0.001948719162
0.001957090424
0.001964661777
0.001970602612
0.001974035371
0.00194722511
0.001951604317
0.001957779122
0.001965228397
0.001973342101
0.001981432408
0.001988748472
0.001994488113
0.001997804173
0.001971877016
0.001976108674
0.001982074889
0.001989271647
0.001997109184
0.002004922891
0.002011987687
0.002017529349
0.002020730596
0.001995673297
0.001999759729
0.002005520666
0.002012468965
0.002020034835
0.002027576512
0.002034394248
0.002039741289
0.002042829692
0.002018628291
0.002022571928
0.002028131051
0.002034835127
0.002042134013
0.002049408407
0.002055983448
0.002061139344
0.002064116935
0.002040756881
0.002044560245
0.00204992114
0.002056385372
0.00206342211
0.002070434113
0.002076770948
0.002081739267
0.002084608131
0.002062074393
0.002065740077
0.002070906432
0.002077135312
0.002083914857
0.002090669476
0.00209677269
0.002101557073
0.002104319335
0.002082596502
0.002086127155
0.002091102732
0.002097100845
0.002103628243
0.002110130569
0.002116004821
0.002120608963
0.002123266778
0.002102339145
0.002105737459
0.002110526078
0.002116298072
0.002122578437
0.002128833624
0.002134483624
0.002138911257
0.002141466799
0.002121318449
0.002124587145
0.002129192668
0.002134743235
0.002140781725
0.002146794967
0.002152225458
0.002156480337
0.002158935793
0.002139550662
0.002142692482
0.002147118792
0.002152452653
0.002158254452
0.002164030962
0.002169246703
0.002173332593
0.002175690152
0.002157052096
0.002160069788
0.002164320781
0.002169442667
0.002175012966
0.002180557965
0.002185563714
0.002189484377
0.002191746228
0.002173839073
0.002176735386
0.002180814958
0.002185729594
0.002191073579
0.002196392276
0.002201192779
0.002204951966
0.00220712029
0.00218992788
0.002192705558
0.002196617591
0.00220132969
0.002206452524
0.002211550105
0.002216150086
0.002219751527
0.002221828491
0.00220533473
0.002207996502
0.002211744859
0.002216259104
0.002221165922
0.002226047539
0.002230451688
0.002233899086
0.002235886841
0.002220075729
0.002222624304
0.00222621282
0.00223053386
0.002235229753
0.002239900513
0.002244113479
0.002247410502
0.002249311178
0.00223416684
0.002236604904
0.002240037379
0.002244169818
0.002248659828
0.002253124788
0.002257151171
0.002260301447
0.002262117151
0.002247623866
0.002249954076
0.002253234269
0.002257182661
0.002261471772
0.002265735932
0.002269580275
0.00227258739
0.002274320202
0.002260462421
0.002262687403
0.002265819027
0.002269587871
0.002273681006
0.002277749297
0.002281416085
0.002284283575
0.002285935547
0.002272697916
0.002274820261
0.00227780698
0.002281400712
0.002285302726
0.002289180013
0.002292673668
0.002295405017
0.002296978172
0.002284345544
0.002286367806
0.002289213231
0.002292636223
0.002296351898
0.002300042973
0.002303367848
0.002305966488
0.002307462815
0.002295420265
0.00229734496
0.002300052647
0.002303309204
0.002306843247
0.002310352825
0.002313513204
0.00231598251
0.002317403968
0.0023059368
0.002307766403
0.00231033985
0.002313434206
0.002316791249
0.002320123966
0.002323124062
0.002325467353
0.002326815867
0.002315909624
0.002317646567
0.002320089214
0.002323025533
0.002326210126
0.002329370541
0.002332214492
0.002334435029
0.002335712489
0.002325352957
0.002326999632
0.002329314859
0.00233209723
0.002335113847
0.002338106436
0.002340798309
0.002342899295
0.002344107559
0.002334280767
0.002335839524
0.002338030651
0.002340663093
0.002343516124
0.002346345285
0.002348889072
0.002350873653
0.002352014544
0.002342706768
0.002344179914
0.002346250201
0.002348736659
0.002351430418
0.002354100469
0.002356500091
0.002358371353
0.002359446663
0.002350644421
0.002352034221
0.002353986872
0.002356331219
0.002358869941
0.002361385121
0.002363644428
0.002365405406
0.002366416891
0.002358106942
0.002359415622
0.002361253779
0.002363459822
0.002365847666
0.00236821214
0.002370334913
0.002371988584
0.002372937973
0.002365107307
0.002366337052
0.002368063805
0.002370135282
0.002372376335
0.002374594195
0.002376584151
0.002378133444
0.002379022434
0.002371658263
0.002372811222
0.002374429608
0.002376370194
0.002378468476
0.002380543747
0.002382404542
0.002383852336
0.002384682599
0.002377772343
0.002378850631
0.002380363639
0.002382176952
0.00238413642
0.002386073064
0.0023878083
0.002389157435
0.002389930616
0.002383461887
0.002384467587
0.002385878163
0.00238756777
0.002389392325
0.002391194253
0.002392807482
0.00239406076
0.002394778485
0.002388739063
0.002389674231
0.002390985284
0.002392554709
0.002394248207
0.002395919285
0.002397414024
0.002398574218
0.002399238097
0.002393615901
0.002394482574
0.002395696983
0.002397149716
0.00239871598
0.002400260043
0.00240163978
0.002402709644
0.002403321278
0.002398104328
0.002398904528
0.002400025157
0.002401364668
0.002402807501
0.002404228367
0.002405496581
0.002406478862
0.002407039847
0.002402216224
0.002402951968
0.002403981673
0.002405211429
0.002406534634
0.002407836124
0.002408996299
0.002409893753
0.002410405692
0.002405963475
0.002406636787
0.002407578435
0.002408701919
0.002409909322
0.002411095284
0.002412150935
0.002412966343
0.002413430857
0.002409358056
0.002409970979
0.002410827468
0.002411848204
0.002412943677
0.002414018018
0.002414972714
0.002415708908
0.002416127649
0.002412412117
0.00241296673
0.002413741013
0.002414662595
0.0024156501
0.002416616816
0.00241747422
0.002418134109
0.002418508774
0.002415138102
0.002415636541
0.002416331654
0.002417157784
0.002418041406
0.002418904631
0.002419668536
0.00242025514
0.002420587496
0.00241754888
0.002417993363
0.00241861246
0.002419346994
0.002420130993
0.002420895048
0.00242156943
0.002422085919
0.002422377824
0.002419657913
0.002420050766
0.002420597164
0.00242124416
0.002421933035
0.00242260249
0.002423191563
0.002423641306
0.002423894737
0.002421479441
0.002421823136
0.002422300363
0.002422864146
0.0024234627
0.002424042448
0.002424550735
0.002424937354
0.002425154442
0.00242302871
0.002423325904
0.002423737756
0.00242422299
0.002424736413
0.002425231752
0.002425664161
0.002425991595
0.00242617466
0.002424322225
0.002424575804
0.002424926412
0.002425338181
0.00242577214
0.002426188869
0.002426550783
0.002426823361
0.002426974958
0.002425378033
0.002425591167
0.002425885071
0.002426228969
0.002426589714
0.002426934238
0.002427231613
0.002427454132
0.002427577093
0.002426216038
0.002426392235
0.002426634467
0.002426916701
0.002427211175
0.00242749062
0.002427730091
0.002427907901
0.00242800539
0.002426858339
0.002427001506
0.002427197674
0.00242742517
0.002427661128
0.00242788346
0.002428072453
0.002428211548
0.002428287111
0.002427329569
0.002427444078
0.002427600459
0.002427780971
0.0024279671
0.002428141251
0.002428288096
0.002428395199
0.002428452815
0.002427657248
0.002427747997
0.002427871622
0.002428013843
0.002428159882
0.002428295866
0.002428409901
0.002428492552
0.002428536684
0.002427872099
0.00242794457
0.002428043312
0.002428156969
0.002428273816
0.002428382834
0.002428474501
0.002428541128
0.00242857676
0.002428008327
0.002428068638
0.002428151276
0.002428247215
0.002428347011
0.002428441532
0.002428522448
0.002428582418
0.002428615088
0.002428103813
0.002428158752
0.002428235025
0.00242832526
0.002428421444
0.002428515254
0.002428598244
0.002428661885
0.002428697691
0.002428200203
0.002428257244
0.002428337862
0.002428435593
0.002428542902
0.002428651096
0.002428750177
0.00242882876
0.002428874348
0.002428342841
0.002428410125
0.002428506743
0.002428626311
0.002428760727
0.002428899634
0.002429029938
0.002429135603
0.002429198118
0.002428580504
0.002428666792
0.002428791927
0.0024289487
0.002429127309
0.00242931434
0.002429491952
0.002429637567
0.002429724563
0.002428964911
0.002429079479
0.002429246363
0.002429456544
0.0024296973
0.002429950686
0.00243019239
0.002430391336
0.002430510647
0.002429549955
0.002429702442
0.002429924791
0.002430205124
0.002430526508
0.002430864933
0.002431187849
0.002431453714
0.002431613262
0.002430390628
0.002430590827
0.002430882532
0.002431249901
0.002431670457
0.002432112562
0.00243253367
0.002432879855
0.002433087415
0.002431541647
0.002431799225
0.002432173946
0.002432644868
0.002433182618
0.002433746387
0.002434281941
0.002434721171
0.002434984072
0.002433055748
0.002433379913
0.002433850592
0.002434440604
0.002435112349
0.002435814375
0.002436479204
0.00243702296
0.00243734775
0.00243498172
0.002435380824
0.002435959117
0.002436682067
0.00243750259
0.002438357251
0.002439163988
0.002439821882
0.002440213949
0.002437362198
0.002437843309
0.002438538962
0.002439406241
0.002440387443
0.002441406015
0.002442364274
0.002443143381
0.002443606568
0.002440231344
0.002440799781
0.002441619978
0.002442639719
0.002443789738
0.002444979506
0.002446095061
0.002446999276
0.002447535499
0.002443612504
0.002444271391
0.002445220116
0.002446396424
0.00244771879
0.002449082202
0.002450356236
0.002451385683
0.002451994595
0.002447516029
0.002448265879
0.002449343334
0.002450675596
0.002452168501
0.002453702466
0.002455130948
0.002456281511
0.002456960245
0.002451937412
0.002452775788
0.002453977932
0.002455460287
0.002457116036
0.002458811416
0.002460384691
0.002461647732
0.002462390751
0.002456855935
0.002457777228
0.00245909549
0.002460716513
0.002462521243
0.002464362633
0.002466065283
0.002467427579
0.002468226673
0.002462234008
0.002463229365
0.002464650572
0.002466393249
0.002468326967
0.002470292818
0.002472103854
0.002473547802
0.002474392233
0.002468017337
0.002469074774
0.002470581346