/*--------------------------------*- C++ -*----------------------------------*\
| =========                 |                                                 |
| \\      /  F ield         | OpenFOAM: The Open Source CFD Toolbox           |
|  \\    /   O peration     | Version:  2212                                  |
|   \\  /    A nd           | Website:  www.openfoam.com                      |
|    \\/     M anipulation  |                                                 |
\*---------------------------------------------------------------------------*/
FoamFile
{
    version     2.0;
    format      ascii;
    arch        "LSB;label=32;scalar=64";
    class       volScalarField;
    location    "20.00000000";
    object      A1C2H3;
}
// * * * * * * * * * * * * * * * * * * * * * * * * * * * * * * * * * * * * * //

dimensions      [0 0 0 0 0 0 0];

internalField   nonuniform List<scalar> 
3000
(
1.974448177e-22
2.217928453e-22
2.585312432e-22
3.074842545e-22
3.681531368e-22
4.388916958e-22
5.154417442e-22
5.884918269e-22
6.401439623e-22
7.412904983e-22
8.360582462e-22
9.789903306e-22
1.16986541e-21
1.408489748e-21
1.693555356e-21
2.020121914e-21
2.371806758e-21
2.683267615e-21
1.660494899e-21
1.887496098e-21
2.233135603e-21
2.702397531e-21
3.303701893e-21
4.045792325e-21
4.925731883e-21
5.894244459e-21
6.721738986e-21
3.162853202e-21
3.632911791e-21
4.359147516e-21
5.366102791e-21
6.689428377e-21
8.362777069e-21
1.037701056e-20
1.257113942e-20
1.434194839e-20
5.616629812e-21
6.53059513e-21
7.964917647e-21
9.992428218e-21
1.270846178e-20
1.618919106e-20
2.03764335e-20
2.482338354e-20
2.823698706e-20
9.658581177e-21
1.137408876e-20
1.410493946e-20
1.80254005e-20
2.334458314e-20
3.019642631e-20
3.837623701e-20
4.685267423e-20
5.31237044e-20
1.63975856e-20
1.954886528e-20
2.462370634e-20
3.199145809e-20
4.206227009e-20
5.503631926e-20
7.03767935e-20
8.596280315e-20
9.720873297e-20
2.775156507e-20
3.345430256e-20
4.271958977e-20
5.627496352e-20
7.487597618e-20
9.879004274e-20
1.268168834e-19
1.548769644e-19
1.747853769e-19
4.704453087e-20
5.725505234e-20
7.395108479e-20
9.850087542e-20
1.322476042e-19
1.755144563e-19
2.258564498e-19
2.757334813e-19
3.107306882e-19
8.003453736e-20
9.817229931e-20
1.27965833e-19
1.719145059e-19
2.323629047e-19
3.096595139e-19
3.990977302e-19
4.870622988e-19
5.483288383e-19
1.367073721e-19
1.68740955e-19
2.215262527e-19
2.995458516e-19
4.068573063e-19
5.437692599e-19
7.015366975e-19
8.559207321e-19
9.629236449e-19
2.343929569e-19
2.907323296e-19
3.837714311e-19
5.214584091e-19
7.107911656e-19
9.519052948e-19
1.228907797e-18
1.499024742e-18
1.685669746e-18
4.031886568e-19
5.019873579e-19
6.653910675e-19
9.073933354e-19
1.240046833e-18
1.663027057e-18
2.147794988e-18
2.619289645e-18
2.94485086e-18
6.953734131e-19
8.682828925e-19
1.154572508e-18
1.57878981e-18
2.161703825e-18
2.901849869e-18
3.747846407e-18
4.567950915e-18
5.137795207e-18
1.201712212e-18
1.503883062e-18
2.004635866e-18
2.747026283e-18
3.767048282e-18
5.060737148e-18
6.53413049e-18
7.949300153e-18
8.958528065e-18
2.07964144e-18
2.607007379e-18
3.481595338e-18
4.779017077e-18
6.562772021e-18
8.828734297e-18
1.142421298e-17
1.395371996e-17
1.565761104e-17
3.602058972e-18
4.521110477e-18
6.045902273e-18
8.308283068e-18
1.141803904e-17
1.536485192e-17
1.987401497e-17
2.424112778e-17
2.722803461e-17
6.242202447e-18
7.841862061e-18
1.049641538e-17
1.443506141e-17
1.984732125e-17
2.671197947e-17
3.454665319e-17
4.212599034e-17
4.731920582e-17
1.082113494e-17
1.360298817e-17
1.821999057e-17
2.50703517e-17
3.448195721e-17
4.641503811e-17
6.002838933e-17
7.319268298e-17
8.221141943e-17
1.876386261e-17
2.359887966e-17
3.162443269e-17
4.353238559e-17
5.989091604e-17
8.062787528e-17
1.042785745e-16
1.271427487e-16
1.428028192e-16
3.254404375e-17
4.094471809e-17
5.489021067e-17
7.55825242e-17
1.040069234e-16
1.400342383e-16
1.811157765e-16
2.208222948e-16
2.480123837e-16
5.645622479e-17
7.104913091e-17
9.527584528e-17
1.312242708e-16
1.806032477e-16
2.431829153e-16
3.145300653e-16
3.834761443e-16
4.306817596e-16
9.795705611e-17
1.233035133e-16
1.653850887e-16
2.27827587e-16
3.135945853e-16
4.222781848e-16
5.461692183e-16
6.658703776e-16
7.478182772e-16
1.699949349e-16
2.140163098e-16
2.871047386e-16
3.955548784e-16
5.445051847e-16
7.332325803e-16
9.483336893e-16
1.156129438e-15
1.298371091e-15
2.950566788e-16
3.715098887e-16
4.984438557e-16
6.867824039e-16
9.45431061e-16
1.273107701e-15
1.646514698e-15
2.007182229e-15
2.25404615e-15
5.121951212e-16
6.449711208e-16
8.654076213e-16
1.192452617e-15
1.64152862e-15
2.210352981e-15
2.858431266e-15
3.484276564e-15
3.912587591e-15
8.892324025e-16
1.119819242e-15
1.502610404e-15
2.070450929e-15
2.85001976e-15
3.83722143e-15
4.961656569e-15
6.047216508e-15
6.789972901e-15
1.54394425e-15
1.944382373e-15
2.609047688e-15
3.594822154e-15
4.947780584e-15
6.660500861e-15
8.610556909e-15
1.049246203e-14
1.177965775e-14
2.680798615e-15
3.376151885e-15
4.530093514e-15
6.241008775e-15
8.588282867e-15
1.155828711e-14
1.493802486e-14
1.81978495e-14
2.042642751e-14
4.65460054e-15
5.861891641e-15
7.864811514e-15
1.083324001e-14
1.490351668e-14
2.005020289e-14
2.590249544e-14
3.154275065e-14
3.539597006e-14
8.080567266e-15
1.017613325e-14
1.365132261e-14
1.879878309e-14
2.585164578e-14
3.476154768e-14
4.488246999e-14
5.462611268e-14
6.127590542e-14
1.402428064e-14
1.76600214e-14
2.368610666e-14
3.260510446e-14
4.481331278e-14
6.021703546e-14
7.768982287e-14
9.448635494e-14
1.059335433e-13
2.432854501e-14
3.063191799e-14
4.107202542e-14
5.650837798e-14
7.760940472e-14
1.041903776e-13
1.342855373e-13
1.631586852e-13
1.827992044e-13
4.217381829e-14
5.309046377e-14
7.115459635e-14
9.782827604e-14
1.342274593e-13
1.799826671e-13
2.316613767e-13
2.811137413e-13
3.146695962e-13
7.303499179e-14
9.191254907e-14
1.231125992e-13
1.691049449e-13
2.317280845e-13
3.102356904e-13
3.986330675e-13
4.829443186e-13
5.39972653e-13
1.263065324e-13
1.588827591e-13
2.126421612e-13
2.91720236e-13
3.990941379e-13
5.332494981e-13
6.837232189e-13
8.266555976e-13
9.229559365e-13
2.180466995e-13
2.741082321e-13
3.664504979e-13
5.019219233e-13
6.852372002e-13
9.133268092e-13
1.167960133e-12
1.40863595e-12
1.570023314e-12
3.755806233e-13
4.717204985e-13
6.297118416e-13
8.607414946e-13
1.172061457e-12
1.557490008e-12
1.985365634e-12
2.38742584e-12
2.655535964e-12
6.451639606e-13
8.093137499e-13
1.078313539e-12
1.470132927e-12
1.995502426e-12
2.642112861e-12
3.355257419e-12
4.020870168e-12
4.461924408e-12
1.104637037e-12
1.383418953e-12
1.838746796e-12
2.498902791e-12
3.378934609e-12
4.454710204e-12
5.63238436e-12
6.723274843e-12
7.44107309e-12
1.884130264e-12
2.354609763e-12
3.120027269e-12
4.223810975e-12
5.685442406e-12
7.45850365e-12
9.383523756e-12
1.115197938e-11
1.23068349e-11
3.19960896e-12
3.987779003e-12
5.264270673e-12
7.093804928e-12
9.49838567e-12
1.23906532e-11
1.550273868e-11
1.833656563e-11
2.017248611e-11
5.406636444e-12
6.715982296e-12
8.825767682e-12
1.182898124e-11
1.574374839e-11
2.040952003e-11
2.538236076e-11
2.98691191e-11
3.275233168e-11
9.085543648e-12
1.124037125e-11
1.469295299e-11
1.957090789e-11
2.58733235e-11
3.331243559e-11
4.116340938e-11
4.818106436e-11
5.265405984e-11
1.517467971e-11
1.868458704e-11
2.427400618e-11
3.21078754e-11
4.213539749e-11
5.385380245e-11
6.60982521e-11
7.694182622e-11
8.379856275e-11
2.517615634e-11
3.083013761e-11
3.977556435e-11
5.220814107e-11
6.79700041e-11
8.620478051e-11
1.050707648e-10
1.216278854e-10
1.32017777e-10
4.14692065e-11
5.047048501e-11
6.461598013e-11
8.410719722e-11
1.085800417e-10
1.366114482e-10
1.653362755e-10
1.903289755e-10
2.058999627e-10
6.778086672e-11
8.19368069e-11
1.040308208e-10
1.342127716e-10
1.717489726e-10
2.143296696e-10
2.575667715e-10
2.94882884e-10
3.17977466e-10
1.098833709e-10
1.318689993e-10
1.659503703e-10
2.121153241e-10
2.690022725e-10
3.32943917e-10
3.973183155e-10
4.524637907e-10
4.863866849e-10
1.76614106e-10
2.103333143e-10
2.622588242e-10
3.320244879e-10
4.172456997e-10
5.122165941e-10
6.070801481e-10
6.877942471e-10
7.37176728e-10
2.813496741e-10
3.324257205e-10
4.105854983e-10
5.147962488e-10
6.410620433e-10
7.806674701e-10
9.191223038e-10
1.03621191e-09
1.107506141e-09
4.441141313e-10
5.205514801e-10
6.368337755e-10
7.90775868e-10
9.759136047e-10
1.179154137e-09
1.379435437e-09
1.547903682e-09
1.650052034e-09
6.945679334e-10
8.076422285e-10
9.787296079e-10
1.203763475e-09
1.472585897e-09
1.765819629e-09
2.053159549e-09
2.293729195e-09
2.439070152e-09
1.07621539e-09
1.241671118e-09
1.49077819e-09
1.816522329e-09
2.203326851e-09
2.622898507e-09
3.032033689e-09
3.373203393e-09
3.578698511e-09
1.652198589e-09
1.891835872e-09
2.251033614e-09
2.718313272e-09
3.270277274e-09
3.866092075e-09
4.444647417e-09
4.925452225e-09
5.214319308e-09
2.513358925e-09
2.857176043e-09
3.370529696e-09
4.035338811e-09
4.817056935e-09
5.657344809e-09
6.470364109e-09
7.144083647e-09
7.548006889e-09
3.789408035e-09
4.278468121e-09
5.006224797e-09
5.945015411e-09
7.044568938e-09
8.222270473e-09
9.358291318e-09
1.029742334e-08
1.085951813e-08
5.664244922e-09
6.354509542e-09
7.378700312e-09
8.69546042e-09
1.023254052e-08
1.187385583e-08
1.345304484e-08
1.475597254e-08
1.553476101e-08
8.396920145e-09
9.364374064e-09
1.079630383e-08
1.26320214e-08
1.476879283e-08
1.704461793e-08
1.922965934e-08
2.102958071e-08
2.210432063e-08
1.235022974e-08
1.369772816e-08
1.568798342e-08
1.823329331e-08
2.118891509e-08
2.433013403e-08
2.734079819e-08
2.981768142e-08
3.129550585e-08
1.802958529e-08
1.989599699e-08
2.264781038e-08
2.615988642e-08
3.022991353e-08
3.454784226e-08
3.868047571e-08
4.207706704e-08
4.410255348e-08
2.613567583e-08
2.870808457e-08
3.249517307e-08
3.73202826e-08
4.290258534e-08
4.881630284e-08
5.4469908e-08
5.911317432e-08
6.188118076e-08
3.763556707e-08
4.116554429e-08
4.635590748e-08
5.295951713e-08
6.058890352e-08
6.866179585e-08
7.637294499e-08
8.270282155e-08
8.64757186e-08
5.385833586e-08
5.868362546e-08
6.577127301e-08
7.477821347e-08
8.517266576e-08
9.616129379e-08
1.066508928e-07
1.152588577e-07
1.203896934e-07
7.662316846e-08
8.319654606e-08
9.284374759e-08
1.050917479e-07
1.19214129e-07
1.341335538e-07
1.483694773e-07
1.600503285e-07
1.670139886e-07
1.084101092e-07
1.173377106e-07
1.304311484e-07
1.470420629e-07
1.661823354e-07
1.863933167e-07
2.056741908e-07
2.214954614e-07
2.309305395e-07
1.525863594e-07
1.646784181e-07
1.824035732e-07
2.04877836e-07
2.307622441e-07
2.580872291e-07
2.841540872e-07
3.05548739e-07
3.183135592e-07
2.137041435e-07
2.300418067e-07
2.539809703e-07
2.843221438e-07
3.192573211e-07
3.561337088e-07
3.913177091e-07
4.202069133e-07
4.37453831e-07
2.978894806e-07
3.199121039e-07
3.521724427e-07
3.930499804e-07
4.40111299e-07
4.897917712e-07
5.372072704e-07
5.761608715e-07
5.994333784e-07
4.133442987e-07
4.429621841e-07
4.863410372e-07
5.41300184e-07
6.04574365e-07
6.713845404e-07
7.351769673e-07
7.876191013e-07
8.189760714e-07
5.709864278e-07
6.107240975e-07
6.689187136e-07
7.426462361e-07
8.275375846e-07
9.172000709e-07
1.002856377e-06
1.073321861e-06
1.11549168e-06
7.852519398e-07
8.38426337e-07
9.162940032e-07
1.014946443e-06
1.128553197e-06
1.24858339e-06
1.363308506e-06
1.45775116e-06
1.514315682e-06
1.075080468e-06
1.146016513e-06
1.249887841e-06
1.381484438e-06
1.533045789e-06
1.69321743e-06
1.84637258e-06
1.972520227e-06
2.048124144e-06
1.465094785e-06
1.559377088e-06
1.697419583e-06
1.872294359e-06
2.073698773e-06
2.286567266e-06
2.490156008e-06
2.657901145e-06
2.75848611e-06
1.986969368e-06
2.111723362e-06
2.294344023e-06
2.525640118e-06
2.791974011e-06
3.073431275e-06
3.342608881e-06
3.564416835e-06
3.697454537e-06
2.680957024e-06
2.845145505e-06
3.085410492e-06
3.389588167e-06
3.739687318e-06
4.109513857e-06
4.463085373e-06
4.75436944e-06
4.929070222e-06
3.597510808e-06
3.812224035e-06
4.126262054e-06
4.523576824e-06
4.980545129e-06
5.462906644e-06
5.923747455e-06
6.303185017e-06
6.530675499e-06
4.798901643e-06
5.077611944e-06
5.484969857e-06
5.999885949e-06
6.591499493e-06
7.215311717e-06
7.810666132e-06
8.300403872e-06
8.593830797e-06
6.360717476e-06
6.719476948e-06
7.243367029e-06
7.904812221e-06
8.663761909e-06
9.4628743e-06
1.022446506e-05
1.085017089e-05
1.122471425e-05
8.373070276e-06
8.830590143e-06
9.497978782e-06
1.03394107e-05
1.130330102e-05
1.231643637e-05
1.328035476e-05
1.40710865e-05
1.454386435e-05
1.094130564e-05
1.151890348e-05
1.236040111e-05
1.341962114e-05
1.463070554e-05
1.590112084e-05
1.710745055e-05
1.809531915e-05
1.868517455e-05
1.418606267e-05
1.490745086e-05
1.595698283e-05
1.727566752e-05
1.878027276e-05
2.035511044e-05
2.184729653e-05
2.306692818e-05
2.379410205e-05
1.824251551e-05
1.913341357e-05
2.04276338e-05
2.205060456e-05
2.38982642e-05
2.582763319e-05
2.765159618e-05
2.913941747e-05
3.002512774e-05
2.325868799e-05
2.434627099e-05
2.592376206e-05
2.789796256e-05
3.014028294e-05
3.24761112e-05
3.467919815e-05
3.647262151e-05
3.753860754e-05
2.939279029e-05
3.070499086e-05
3.260526685e-05
3.497855505e-05
3.76678855e-05
4.046260656e-05
4.309247238e-05
4.522912367e-05
4.649733194e-05
3.680962191e-05
3.837432244e-05
4.063669044e-05
4.345647365e-05
4.66444551e-05
4.994964508e-05
5.305318289e-05
5.557036607e-05
5.706344135e-05
4.567620261e-05
4.752037037e-05
5.018272471e-05
5.34945313e-05
5.723058306e-05
6.109554978e-05
6.471778647e-05
6.76509521e-05
6.938758682e-05
5.615694262e-05
5.830577606e-05
6.140342702e-05
6.524953781e-05
6.957932801e-05
7.404958856e-05
7.822949748e-05
8.16068566e-05
8.360319419e-05
6.840884991e-05
7.088500033e-05
7.444965913e-05
7.886810516e-05
8.383123099e-05
8.894225838e-05
9.371026094e-05
9.755508111e-05
9.982431417e-05
8.257749612e-05
8.540025647e-05
8.945763823e-05
9.447632883e-05
0.0001001011878
0.0001058803211
0.0001112599503
0.0001155899488
0.0001181420128
9.87849417e-05
0.0001019669881
0.0001065342288
0.0001121730903
0.000118479978
0.0001249461373
0.0001309533305
0.0001357802358
0.000138621591
0.000117123065
0.0001206724367
0.0001257602008
0.0001320311098
0.0001390316409
0.0001461950577
0.0001528379107
0.0001581673075
0.0001613008672
0.0001376556384
0.0001415756285
0.0001471879155
0.0001540946978
0.0001617917833
0.0001696540668
0.0001769329304
0.0001827643604
0.000186189557
0.000160416546
0.0001647058189
0.0001708401487
0.0001783788783
0.0001867670807
0.0001953216102
0.0002032294684
0.0002095567367
0.0002132697019
0.0001854094402
0.0001900623409
0.0001967102025
0.0002048697686
0.0002139359354
0.0002231685021
0.0002316915565
0.0002385031896
0.0002424970161
0.0002126087286
0.0002176157212
0.0002247631936
0.0002335260506
0.0002432501255
0.0002531397346
0.0002622581195
0.0002695379186
0.0002738029754
0.0002419616448
0.0002473098213
0.0002549382826
0.0002642812922
0.0002746372167
0.0002851569665
0.0002948455289
0.0003025731708
0.0003070974463
0.0002733911006
0.0002790647064
0.0002871515627
0.0002970468569
0.0003080034893
0.0003191214723
0.0003293505718
0.0003375022271
0.0003422716809
0.0003067990163
0.000312779963
0.0003212993599
0.0003317151806
0.0003432371894
0.000354917358
0.0003656536348
0.000374202564
0.0003792014714
0.0003420698699
0.0003483381987
0.0003572616649
0.0003681631273
0.0003802118102
0.0003924147867
0.0004036218907
0.0004125390162
0.0004177502988
0.0003790741706
0.0003856084701
0.0003949055016
0.0004062552929
0.0004187893317
0.0004314731595
0.0004431124304
0.0004523668733
0.000457772413
0.0004176717903
0.0004244495675
0.0004340881493
0.0004458471569
0.0004588233038
0.0004719441349
0.0004839752314
0.0004935348125
0.0004991157456
0.0004577150463
0.0004647130551
0.0004746601261
0.0004867880029
0.0005001617022
0.0005136744264
0.0005260559044
0.0005358876078
0.000541624598
0.0004990514886
0.0005062460236
0.0005164678941
0.000528923568
0.0005426495204
0.0005565083383
0.0005691981812
0.0005792685785
0.0005851420687
0.0005415263812
0.0005488935408
0.0005593562688
0.0005720984038
0.0005861310779
0.0006002900201
0.0006132461191
0.0006235217546
0.0006295121941
0.0005849848743
0.0005925007998
0.0006031705303
0.000616157942
0.0006304520402
0.0006448654285
0.0006580460014
0.0006684937441
0.0006745818071
0.0006292738787
0.0006369149733
0.0006477582431
0.0006609502556
0.0006754610735
0.0006900839534
0.0007034479805
0.0007140353505
0.0007202021013
0.0006742435948
0.0006819866914
0.0006929706823
0.0007063274782
0.0007210113701
0.0007357998974
0.0007493074246
0.0007600028318
0.0007662298813
0.0007197488233
0.0007275713728
0.0007386641838
0.0007521471113
0.0007669617649
0.0007818735086
0.0007954859344
0.0008062589093
0.0008125285472
0.0007656500642
0.0007735302823
0.0007847011277
0.0007982729368
0.0008131776363
0.0008281718382
0.0008418521499
0.0008526735283
0.0008589688293
0.0008118143306
0.0008197313186
0.0008309506953
0.0008445757361
0.0008595315779
0.0008745693635
0.0008882823252
0.0008991243928
0.0009054292987
0.0008581157493
0.0008660495924
0.0008772894154
0.0008909337984
0.0009059038606
0.0009209484035
0.0009346606993
0.0009454973003
0.00095179668
0.0009044359746
0.0009123678188
0.0009236015263
0.000937233245
0.0009521827153
0.0009671993578
0.0009808796937
0.0009916863054
0.0009979659958
0.0009506644397
0.0009585765481
0.0009697791785
0.0009833681964
0.000998264461
0.001013220794
0.001026839964
0.001037593742
0.001043840572
0.0009966984693
0.00100457426
0.001015722503
0.001029240809
0.001044053506
0.001058919415
0.001072450333
0.001083130133
0.00108933193
0.001042443279
0.001050267348
0.001061339568
0.001074761206
0.001089462246
0.001104209926
0.001117627632
0.001128214004
0.001134359591
0.001087811879
0.001095570004
0.001106546253
0.00111984732
0.001134410883
0.001149014823
0.001162296463
0.001172771635
0.001178850816
0.001132724908
0.001140404046
0.001151266044
0.001164424673
0.00117882718
0.00119326413
0.001206388919
0.001216736758
0.001222740295
0.001177110406
0.001184698672
0.001195429785
0.001208426107
0.001222646173
0.00123689509
0.001249844255
0.001260050221
0.001265969801
0.001220903546
0.001228390188
0.001238975386
0.001251791475
0.001265809847
0.001279851825
0.001292608539
0.001302659625
0.001308487829
0.00126404633
0.001271421696
0.0012818475
0.001294467313
0.001308266791
0.001322084981
0.001334634282
0.001344518954
0.001350249212
0.00130648727
0.001313742765
0.001323997193
0.001336406488
0.001349971841
0.001363551361
0.00137588007
0.00138558819
0.001391214742
0.001348181048
0.00135530909
0.001365381584
0.001377567845
0.001390885719
0.001404213555
0.00141631018
0.001425832935
0.001431350787
0.001389088169
0.001396082137
0.001405963499
0.001417915842
0.001430974658
0.001444039564
0.001455894208
0.001465224032
0.001470628909
0.001429174611
0.001436028798
0.001445711109
0.001457420191
0.001470210044
0.001483002436
0.001494606698
0.001503737195
0.001509025494
0.001468411465
0.00147512102
0.001484597568
0.001496055496
0.001508568052
0.001521079902
0.00153242678
0.001541352642
0.001546521388
0.0015067746
0.001513335475
0.001522600677
0.001533800913
0.0015460293
0.001558254027
0.001569337815
0.001578054748
0.001583101546
0.001544244325
0.001550653221
0.001559702541
0.001570639799
0.001582578501
0.001594510865
0.001605327061
0.001613831704
0.001618754694
0.001580805048
0.001587059355
0.001595889225
0.001606559382
0.001618204136
0.001629840133
0.001640385341
0.001648675191
0.001653473007
0.001616444942
0.001622542689
0.001631150437
0.001641550437
0.001652898132
0.001664234894
0.00167450673
0.001682580072
0.001687251796
0.001651155641
0.001657095442
0.001665479214
0.00167560698
0.001686655558
0.001697691251
0.001707688257
0.001715544091
0.001720089215
0.001684931931
0.001690712935
0.001698871624
0.001708725971
0.001719474333
0.001730208065
0.00173992962
0.001747567596
0.001751985982
0.001717771469
0.001723393309
0.001731326487
0.001740907036
0.001751354948
0.001761786679
0.00177123292
0.001778653269
0.001782945113
0.001749674499
0.001755137248
0.001762845096
0.0017721522
0.001782300208
0.001792430662
0.001801602405
0.001808805885
0.00181297168
0.001780643599
0.001785947722
0.001793430973
0.001802465633
0.001812314985
0.001822145569
0.001831044236
0.001838032072
0.001842072578
0.001810683432
0.001815829745
0.00182308962
0.001831853422
0.001841405987
0.001850938717
0.00185956627
0.0018663401
0.001870256313
0.001839800517
0.001844790149
0.001851828304
0.001860323349
0.001869581545
0.001878818974
0.001887177848
0.001893739677
0.001897532799
0.001868003014
0.001872837369
0.001879655843
0.001887884685
0.001896851416
0.001905796569
0.001913889617
0.001920241767
0.001923913183
0.001895300524
0.001899981248
0.001906582415
0.001914548006
0.001923226598
0.00193188291
0.001939713346
0.001945858419
0.001949409669
0.001921703907
0.001926232854
0.001932619382
0.001940325018
0.001948719162
0.001957090424
0.001964661777
0.001970602612
0.001974035372
0.00194722511
0.001951604317
0.001957779123
0.001965228397
0.001973342101
0.001981432409
0.001988748473
0.001994488113
0.001997804173
0.001971877016
0.001976108675
0.001982074889
0.001989271647
0.001997109184
0.002004922892
0.002011987687
0.002017529349
0.002020730596
0.001995673297
0.00199975973
0.002005520666
0.002012468966
0.002020034835
0.002027576512
0.002034394249
0.00203974129
0.002042829692
0.002018628291
0.002022571929
0.002028131051
0.002034835127
0.002042134013
0.002049408407
0.002055983449
0.002061139344
0.002064116935
0.002040756881
0.002044560245
0.002049921141
0.002056385372
0.00206342211
0.002070434114
0.002076770948
0.002081739267
0.002084608131
0.002062074394
0.002065740077
0.002070906432
0.002077135313
0.002083914857
0.002090669476
0.00209677269
0.002101557073
0.002104319335
0.002082596502
0.002086127155
0.002091102732
0.002097100845
0.002103628243
0.002110130569
0.002116004821
0.002120608963
0.002123266778
0.002102339146
0.002105737459
0.002110526079
0.002116298072
0.002122578437
0.002128833624
0.002134483624
0.002138911258
0.002141466799
0.002121318449
0.002124587146
0.002129192668
0.002134743236
0.002140781726
0.002146794967
0.002152225458
0.002156480338
0.002158935793
0.002139550663
0.002142692482
0.002147118792
0.002152452653
0.002158254452
0.002164030963
0.002169246703
0.002173332593
0.002175690152
0.002157052096
0.002160069788
0.002164320781
0.002169442667
0.002175012967
0.002180557966
0.002185563714
0.002189484377
0.002191746228
0.002173839073
0.002176735386
0.002180814958
0.002185729595
0.00219107358
0.002196392276
0.00220119278
0.002204951967
0.00220712029
0.00218992788
0.002192705558
0.002196617591
0.00220132969
0.002206452525
0.002211550105
0.002216150087
0.002219751528
0.002221828491
0.002205334731
0.002207996502
0.00221174486
0.002216259105
0.002221165923
0.002226047539
0.002230451688
0.002233899086
0.002235886841
0.002220075729
0.002222624304
0.00222621282
0.00223053386
0.002235229753
0.002239900513
0.002244113479
0.002247410502
0.002249311178
0.00223416684
0.002236604904
0.00224003738
0.002244169819
0.002248659828
0.002253124789
0.002257151171
0.002260301448
0.002262117151
0.002247623866
0.002249954076
0.002253234269
0.002257182662
0.002261471773
0.002265735932
0.002269580275
0.00227258739
0.002274320202
0.002260462421
0.002262687403
0.002265819027
0.002269587871
0.002273681006
0.002277749297
0.002281416086
0.002284283575
0.002285935547
0.002272697916
0.002274820261
0.00227780698
0.002281400712
0.002285302726
0.002289180013
0.002292673668
0.002295405017
0.002296978172
0.002284345544
0.002286367806
0.002289213231
0.002292636224
0.002296351898
0.002300042973
0.002303367848
0.002305966488
0.002307462816
0.002295420265
0.00229734496
0.002300052647
0.002303309204
0.002306843247
0.002310352825
0.002313513204
0.00231598251
0.002317403969
0.002305936801
0.002307766403
0.00231033985
0.002313434206
0.002316791249
0.002320123966
0.002323124062
0.002325467353
0.002326815867
0.002315909624
0.002317646567
0.002320089214
0.002323025533
0.002326210126
0.002329370541
0.002332214492
0.002334435029
0.002335712489
0.002325352957
0.002326999632
0.002329314859
0.002332097231
0.002335113847
0.002338106437
0.002340798309
0.002342899295
0.002344107559
0.002334280767
0.002335839524
0.002338030651
0.002340663093
0.002343516124
0.002346345285
0.002348889072
0.002350873653
0.002352014544
0.002342706768
0.002344179914
0.002346250201
0.002348736659
0.002351430418
0.002354100469
0.002356500091
0.002358371353
0.002359446663
0.002350644421
0.002352034221
0.002353986872
0.002356331219
0.002358869941
0.002361385121
0.002363644428
0.002365405406
0.002366416891
0.002358106942
0.002359415622
0.002361253779
0.002363459822
0.002365847666
0.00236821214
0.002370334913
0.002371988584
0.002372937973
0.002365107307
0.002366337052
0.002368063805
0.002370135281
0.002372376335
0.002374594195
0.002376584151
0.002378133444
0.002379022434
0.002371658263
0.002372811222
0.002374429608
0.002376370194
0.002378468476
0.002380543746
0.002382404541
0.002383852336
0.002384682598
0.002377772343
0.002378850631
0.002380363639
0.002382176952
0.00238413642
0.002386073064
0.002387808299
0.002389157435
0.002389930615
0.002383461887
0.002384467587
0.002385878163
0.00238756777
0.002389392324
0.002391194253
0.002392807482
0.00239406076
0.002394778485
0.002388739063
0.002389674231
0.002390985284
0.002392554708
0.002394248207
0.002395919285
0.002397414024
0.002398574217
0.002399238097
0.0023936159
0.002394482573
0.002395696983
0.002397149715
0.00239871598
0.002400260043
0.00240163978
0.002402709643
0.002403321277
0.002398104328
0.002398904528
0.002400025157
0.002401364667
0.002402807501
0.002404228367
0.002405496581
0.002406478861
0.002407039847
0.002402216223
0.002402951968
0.002403981672
0.002405211428
0.002406534634
0.002407836124
0.002408996299
0.002409893752
0.002410405692
0.002405963475
0.002406636787
0.002407578435
0.002408701919
0.002409909321
0.002411095284
0.002412150934
0.002412966342
0.002413430857
0.002409358055
0.002409970978
0.002410827468
0.002411848203
0.002412943677
0.002414018018
0.002414972714
0.002415708908
0.002416127648
0.002412412116
0.00241296673
0.002413741013
0.002414662595
0.002415650099
0.002416616816
0.002417474219
0.002418134108
0.002418508774
0.002415138101
0.002415636541
0.002416331653
0.002417157784
0.002418041405
0.00241890463
0.002419668535
0.002420255139
0.002420587495
0.00241754888
0.002417993363
0.002418612459
0.002419346994
0.002420130993
0.002420895048
0.002421569429
0.002422085918
0.002422377823
0.002419657912
0.002420050766
0.002420597163
0.00242124416
0.002421933035
0.00242260249
0.002423191563
0.002423641305
0.002423894736
0.00242147944
0.002421823136
0.002422300362
0.002422864146
0.0024234627
0.002424042448
0.002424550735
0.002424937353
0.002425154441
0.00242302871
0.002423325903
0.002423737755
0.002424222989
0.002424736412
0.002425231751
0.00242566416
0.002425991594
0.002426174659
0.002424322224
0.002424575804
0.002424926412
0.00242533818
0.002425772139
0.002426188868
0.002426550782
0.00242682336
0.002426974957
0.002425378032
0.002425591166
0.00242588507
0.002426228968
0.002426589713
0.002426934237
0.002427231612
0.002427454131
0.002427577092
0.002426216037
0.002426392234
0.002426634466
0.0024269167
0.002427211174
0.002427490619
0.00242773009
0.0024279079
0.002428005389
0.002426858338
0.002427001505
0.002427197673
0.002427425169
0.002427661126
0.002427883459
0.002428072452
0.002428211547
0.002428287109
0.002427329568
0.002427444077
0.002427600457
0.00242778097
0.002427967099
0.00242814125
0.002428288095
0.002428395198
0.002428452814
0.002427657247
0.002427747996
0.00242787162
0.002428013842
0.002428159881
0.002428295865
0.0024284099
0.002428492551
0.002428536682
0.002427872098
0.002427944569
0.00242804331
0.002428156968
0.002428273814
0.002428382832
0.002428474499
0.002428541126
0.002428576758
0.002428008326
0.002428068636
0.002428151275
0.002428247213
0.002428347009
0.002428441531
0.002428522447
0.002428582417
0.002428615086
0.002428103812
0.00242815875
0.002428235024
0.002428325259
0.002428421442
0.002428515252
0.002428598242
0.002428661883
0.002428697689
0.002428200202
0.002428257242
0.00242833786
0.002428435591
0.0024285429
0.002428651094
0.002428750175
0.002428828758
0.002428874346
0.002428342839
0.002428410124
0.002428506742
0.002428626309
0.002428760725
0.002428899632
0.002429029936
0.002429135601
0.002429198115
0.002428580502
0.00242866679
0.002428791925
0.002428948698
0.002429127307
0.002429314337
0.00242949195
0.002429637564
0.002429724561
0.002428964909
0.002429079477
0.00242924636
0.002429456541
0.002429697298
0.002429950684
0.002430192388
0.002430391333
0.002430510644
0.002429549952
0.00242970244
0.002429924789
0.002430205121
0.002430526505
0.00243086493
0.002431187846
0.002431453711
0.00243161326
0.002430390626
0.002430590825
0.002430882529
0.002431249898
0.002431670454
0.002432112559
0.002432533667
0.002432879852
0.002433087412
0.002431541644
0.002431799222
0.002432173943
0.002432644865
0.002433182615
0.002433746384
0.002434281937
0.002434721167
0.002434984068
0.002433055745
0.00243337991
0.002433850588
0.0024344406
0.002435112345
0.002435814371
0.0024364792
0.002437022957
0.002437347746
0.002434981716
0.002435380821
0.002435959114
0.002436682064
0.002437502587
0.002438357247
0.002439163984
0.002439821878
0.002440213945
0.002437362194
0.002437843305
0.002438538958
0.002439406236
0.002440387438
0.002441406011
0.002442364269
0.002443143377
0.002443606563
0.00244023134
0.002440799776
0.002441619974
0.002442639715
0.002443789733
0.002444979501
0.002446095056
0.002446999271
0.002447535494
0.002443612499
0.002444271386
0.002445220111
0.002446396419
0.002447718785
0.002449082197
0.002450356231
0.002451385677
0.002451994589
0.002447516024
0.002448265874
0.002449343328
0.002450675591
0.002452168495
0.00245370246
0.002455130942
0.002456281505
0.002456960239
0.002451937406
0.002452775782
0.002453977927
0.002455460281
0.00245711603
0.00245881141
0.002460384684
0.002461647725
0.002462390745
0.002456855929
0.002457777221
0.002459095484
0.002460716506
0.002462521236
0.002464362626
0.002466065276
0.002467427572
0.002468226666
0.002462234001
0.002463229358
0.002464650565
0.002466393242
0.00246832696
0.002470292811
0.002472103846
0.002473547794
0.002474392225
0.00246801733
0.002469074767
0.002470581338
0.002472423366