/*--------------------------------*- C++ -*----------------------------------*\
| =========                 |                                                 |
| \\      /  F ield         | OpenFOAM: The Open Source CFD Toolbox           |
|  \\    /   O peration     | Version:  2212                                  |
|   \\  /    A nd           | Website:  www.openfoam.com                      |
|    \\/     M anipulation  |                                                 |
\*---------------------------------------------------------------------------*/
FoamFile
{
    version     2.0;
    format      ascii;
    arch        "LSB;label=32;scalar=64";
    class       volScalarField;
    location    "20.00000000";
    object      A1C2H_0;
}
// * * * * * * * * * * * * * * * * * * * * * * * * * * * * * * * * * * * * * //

dimensions      [0 0 0 0 0 0 0];

internalField   nonuniform List<scalar> 
3000
(
2.117236336e-21
2.378323783e-21
2.772274802e-21
3.297204279e-21
3.94776338e-21
4.706298995e-21
5.527149918e-21
6.310469319e-21
6.864337065e-21
7.948986447e-21
8.96519359e-21
1.049787225e-20
1.254464677e-20
1.510343642e-20
1.81602124e-20
2.166199871e-20
2.543312653e-20
2.877293303e-20
1.780575479e-20
2.023991443e-20
2.394624269e-20
2.897817876e-20
3.542600258e-20
4.338346482e-20
5.281907056e-20
6.320443875e-20
7.207767298e-20
3.391573544e-20
3.895621787e-20
4.674370481e-20
5.754135522e-20
7.173143899e-20
8.967480259e-20
1.112734527e-19
1.348011116e-19
1.537895179e-19
6.022783927e-20
7.002836175e-20
8.540870659e-20
1.071498308e-19
1.362739999e-19
1.735980062e-19
2.184979598e-19
2.66182771e-19
3.027869921e-19
1.035700274e-19
1.219655339e-19
1.512486281e-19
1.93287981e-19
2.503259005e-19
3.237986268e-19
4.115112433e-19
5.02404637e-19
5.696493286e-19
1.758328415e-19
2.096242044e-19
2.640420265e-19
3.430468578e-19
4.510367562e-19
5.901582379e-19
7.546550426e-19
9.217847376e-19
1.042375474e-18
2.975822186e-19
3.587329612e-19
4.580850826e-19
6.034399707e-19
8.028994207e-19
1.059330903e-18
1.359863725e-18
1.660752853e-18
1.874231241e-18
5.044615578e-19
6.139493277e-19
7.92981356e-19
1.056229282e-18
1.418095911e-18
1.882046596e-18
2.421863609e-18
2.956694351e-18
3.331968534e-18
8.582142637e-19
1.052705571e-18
1.37218145e-18
1.843442228e-18
2.491628418e-18
3.32047628e-18
4.279516647e-18
5.222753946e-18
5.879709516e-18
1.465917062e-18
1.809411949e-18
2.375425854e-18
3.212024424e-18
4.362715417e-18
5.830806965e-18
7.522526383e-18
9.177964264e-18
1.032533979e-17
2.513396724e-18
3.117519078e-18
4.115167967e-18
5.591568846e-18
7.621756559e-18
1.02071816e-17
1.317742824e-17
1.607384482e-17
1.807519706e-17
4.323384358e-18
5.382791388e-18
7.134948007e-18
9.729901314e-18
1.32968827e-17
1.78324136e-17
2.303051134e-17
2.808626957e-17
3.157717371e-17
7.456463968e-18
9.310550765e-18
1.238039454e-17
1.692920674e-17
2.317968733e-17
3.111620596e-17
4.018782371e-17
4.898079861e-17
5.50920878e-17
1.288590479e-17
1.61260482e-17
2.149555858e-17
2.945611413e-17
4.039372285e-17
5.426593604e-17
7.006303367e-17
8.521448461e-17
9.605989013e-17
2.22998894e-17
2.795478567e-17
3.733291249e-17
5.124504399e-17
7.037203324e-17
9.466966195e-17
1.225028397e-16
1.496493522e-16
1.678969705e-16
3.862467991e-17
4.847959717e-17
6.482982406e-17
8.908917759e-17
1.224348838e-16
1.647561728e-16
2.131074447e-16
2.599371301e-16
2.919641494e-16
6.693475671e-17
8.408778995e-17
1.125523711e-16
1.547861929e-16
2.128214944e-16
2.864307611e-16
3.704413323e-16
4.517140016e-16
5.074005282e-16
1.160342933e-16
1.458638977e-16
1.953716652e-16
2.688275632e-16
3.697474864e-16
4.977049933e-16
6.436798728e-16
7.848394952e-16
8.815466609e-16
2.012034927e-16
2.530489951e-16
3.391063537e-16
4.66794358e-16
6.422055193e-16
8.645661819e-16
1.118170598e-15
1.363341137e-15
1.531262684e-15
3.489671693e-16
4.390468913e-16
5.885832224e-16
8.104651215e-16
1.115257481e-15
1.501575206e-15
1.942088886e-15
2.367858318e-15
2.659415185e-15
6.053753605e-16
7.618538149e-16
1.021634741e-15
1.407106523e-15
1.936592885e-15
2.607629037e-15
3.372678076e-15
4.111980618e-15
4.618162129e-15
1.050385049e-15
1.322172841e-15
1.773409795e-15
2.442975072e-15
3.362646822e-15
4.52805117e-15
5.856523407e-15
7.140067972e-15
8.018787776e-15
1.822840699e-15
2.294877904e-15
3.078598477e-15
4.241499428e-15
5.838679923e-15
7.862386454e-15
1.016889584e-14
1.239707048e-14
1.392231458e-14
3.163866348e-15
3.983667105e-15
5.344768375e-15
7.364305289e-15
1.013777097e-14
1.365141727e-14
1.765542589e-14
2.152283033e-14
2.416992922e-14
5.492221859e-15
6.915966634e-15
9.279686835e-15
1.278656001e-14
1.76019603e-14
2.3701411e-14
3.065069407e-14
3.736157481e-14
4.195431396e-14
9.535157655e-15
1.20077189e-14
1.611235293e-14
2.220125398e-14
3.056049782e-14
4.11461691e-14
5.320338192e-14
6.48437395e-14
7.280824671e-14
1.655557176e-14
2.084943236e-14
2.797657644e-14
3.854694384e-14
5.30545904e-14
7.141992941e-14
9.233019748e-14
1.125096894e-13
1.263121683e-13
2.874595469e-14
3.620216266e-14
4.85757706e-14
6.692175444e-14
9.209135417e-14
1.239384307e-13
1.601790408e-13
1.951338338e-13
2.19030666e-13
4.991084739e-14
6.285651644e-14
8.433363808e-14
1.161638178e-13
1.598090116e-13
2.149964435e-13
2.777500254e-13
3.382299506e-13
3.795476594e-13
8.664716605e-14
1.091177228e-13
1.463818512e-13
2.015775853e-13
2.772047675e-13
3.727448058e-13
4.812705016e-13
5.857506633e-13
6.570557638e-13
1.503810437e-13
1.893667491e-13
2.539838933e-13
3.496214659e-13
4.805289323e-13
6.457015974e-13
8.330606482e-13
1.013168276e-12
1.135915397e-12
2.608726958e-13
3.284631693e-13
4.404114561e-13
6.059340076e-13
8.321983257e-13
1.117223589e-12
1.439931145e-12
1.749535184e-12
1.960138617e-12
4.522258684e-13
5.692840262e-13
7.629840134e-13
1.049003361e-12
1.439308365e-12
1.929937137e-12
2.48408306e-12
3.014356095e-12
3.374172358e-12
7.831472933e-13
9.855695538e-13
1.320124741e-12
1.813296317e-12
2.484798324e-12
3.326627966e-12
4.274504692e-12
5.178566275e-12
5.790075721e-12
1.354372923e-12
1.703684714e-12
2.280141694e-12
3.128088409e-12
4.279448608e-12
5.717983863e-12
7.331499365e-12
8.86414977e-12
9.89676922e-12
2.338093879e-12
2.939236369e-12
3.929413729e-12
5.382060995e-12
7.347733374e-12
9.793516714e-12
1.252392582e-11
1.510466993e-11
1.683521143e-11
4.027314749e-12
5.058213471e-12
6.752339624e-12
9.229648683e-12
1.256790319e-11
1.670081718e-11
2.128888724e-11
2.560014103e-11
2.847506071e-11
6.918030027e-12
8.678192496e-12
1.156265156e-11
1.576409361e-11
2.139758104e-11
2.833112382e-11
3.5978106e-11
4.311540925e-11
4.784479271e-11
1.184491276e-11
1.48342643e-11
1.971670103e-11
2.679549076e-11
3.623198861e-11
4.776742922e-11
6.039551936e-11
7.209303688e-11
7.978992122e-11
2.020333538e-11
2.524824095e-11
3.345573851e-11
4.529150513e-11
6.096444026e-11
7.997680999e-11
1.006186228e-10
1.19581611e-10
1.319650223e-10
3.430906437e-11
4.276053272e-11
5.644822658e-11
7.606614439e-11
1.018502344e-10
1.328637497e-10
1.662343591e-10
1.966212334e-10
2.163076482e-10
5.797474868e-11
7.201472812e-11
9.463774161e-11
1.26840902e-10
1.68818573e-10
2.188492094e-10
2.721725377e-10
3.202836641e-10
3.51200115e-10
9.742316678e-11
1.205291463e-10
1.575508109e-10
2.098566179e-10
2.774368001e-10
3.572057085e-10
4.413910197e-10
5.166407691e-10
5.646043642e-10
1.627160181e-10
2.003523363e-10
2.602870342e-10
3.442887553e-10
4.518128457e-10
5.77468198e-10
7.087643939e-10
8.250392281e-10
8.985635654e-10
2.69960009e-10
3.305868976e-10
4.265075652e-10
5.5982059e-10
7.288333045e-10
9.243630109e-10
1.126661353e-09
1.304202186e-09
1.415612408e-09
4.446667794e-10
5.411861036e-10
6.928661666e-10
9.018678077e-10
1.164287061e-09
1.464864755e-09
1.772878422e-09
2.040873297e-09
2.207840138e-09
7.267996008e-10
8.78591144e-10
1.115501369e-09
1.439137464e-09
1.841632522e-09
2.298219687e-09
2.761846206e-09
3.161983354e-09
3.409624843e-09
1.178250712e-09
1.413997625e-09
1.779444743e-09
2.27446204e-09
2.884449905e-09
3.570084933e-09
4.260361273e-09
4.851678102e-09
5.215428824e-09
1.893776743e-09
2.255338152e-09
2.812120925e-09
3.560199395e-09
4.474004449e-09
5.492353609e-09
6.509552115e-09
7.375029442e-09
7.904545671e-09
3.01680206e-09
3.564471523e-09
4.40255011e-09
5.519964097e-09
6.873866304e-09
8.3708035e-09
9.855400987e-09
1.111090475e-08
1.187536227e-08
4.762019385e-09
5.581619278e-09
6.828456419e-09
8.479099417e-09
1.046423404e-08
1.264346899e-08
1.479096488e-08
1.659734014e-08
1.769260625e-08
7.447427897e-09
8.659847271e-09
1.049429882e-08
1.290717451e-08
1.578955092e-08
1.893365257e-08
2.201453782e-08
2.459392878e-08
2.615226688e-08
1.153942425e-08
1.331345044e-08
1.598438178e-08
1.947699819e-08
2.362427052e-08
2.812282607e-08
3.250943804e-08
3.616730836e-08
3.837051633e-08
1.771487993e-08
2.028419254e-08
2.413536936e-08
2.914531315e-08
3.5063133e-08
4.145100814e-08
4.76537504e-08
5.280842717e-08
5.590531405e-08
2.694748836e-08
3.063359367e-08
3.613726822e-08
4.326460494e-08
5.164517072e-08
6.06534761e-08
6.936927534e-08
7.659160049e-08
8.092161461e-08
4.062737517e-08
4.587027185e-08
5.367197141e-08
6.373580624e-08
7.55227462e-08
8.814708307e-08
1.003242882e-07
1.103907335e-07
1.164156163e-07
6.072503032e-08
6.812417843e-08
7.910255995e-08
9.321663468e-08
1.096917344e-07
1.272834245e-07
1.442085818e-07
1.581723386e-07
1.665185031e-07
9.001555057e-08
1.003845653e-07
1.157313224e-07
1.354049354e-07
1.583039163e-07
1.826918079e-07
2.061055681e-07
2.25391559e-07
2.369067758e-07
1.32384268e-07
1.468238613e-07
1.6815028e-07
1.954228509e-07
2.270897513e-07
2.607426743e-07
2.929944483e-07
3.195261587e-07
3.353552537e-07
1.932418244e-07
2.132369658e-07
2.427158478e-07
2.803361404e-07
3.239289548e-07
3.701721671e-07
4.144262261e-07
4.507947671e-07
4.724805699e-07
2.800858678e-07
3.076350532e-07
3.481895367e-07
3.998541186e-07
4.596184239e-07
5.229216215e-07
5.834313512e-07
6.331204715e-07
6.627382591e-07
4.032584118e-07
4.41045459e-07
4.965999538e-07
5.672700772e-07
6.489026032e-07
7.352625712e-07
8.177348797e-07
8.854200221e-07
9.257562384e-07
5.769630905e-07
6.285850974e-07
7.043982148e-07
8.007201751e-07
9.118510515e-07
1.029299247e-06
1.141378023e-06
1.233323157e-06
1.288112608e-06
8.20625158e-07
8.908943055e-07
9.939996027e-07
1.12486122e-06
1.275692444e-06
1.434967116e-06
1.586873516e-06
1.711456766e-06
1.78569682e-06
1.160699224e-06
1.256041235e-06
1.39582917e-06
1.573094681e-06
1.777243489e-06
1.99267773e-06
2.198056347e-06
2.366464725e-06
2.466830574e-06
1.633055141e-06
1.76203348e-06
1.951017179e-06
2.190494559e-06
2.466103951e-06
2.75679553e-06
3.033829484e-06
3.260974567e-06
3.396366461e-06
2.28609919e-06
2.460101217e-06
2.714919118e-06
3.037627163e-06
3.408821389e-06
3.80016698e-06
4.173041208e-06
4.478761185e-06
4.661022644e-06
3.184811636e-06
3.418940024e-06
3.761658908e-06
4.195474772e-06
4.694253194e-06
5.219946387e-06
5.720754915e-06
6.131382196e-06
6.376236468e-06
4.415895876e-06
4.73011407e-06
5.189903756e-06
5.771681205e-06
6.440354575e-06
7.144957957e-06
7.816160983e-06
8.366542815e-06
8.694799933e-06
6.094229354e-06
6.514810412e-06
7.130061495e-06
7.908308717e-06
8.802578023e-06
9.744772302e-06
1.064229798e-05
1.137834437e-05
1.181741877e-05
8.370769253e-06
8.932088541e-06
9.753029569e-06
1.07912129e-05
1.198395915e-05
1.324053015e-05
1.44375634e-05
1.541933795e-05
1.600507656e-05
1.144198057e-05
1.218866823e-05
1.328049967e-05
1.466098435e-05
1.624676555e-05
1.79172994e-05
1.950870332e-05
2.081398678e-05
2.159274529e-05
1.556069897e-05
1.655012005e-05
1.799660794e-05
1.982514668e-05
2.192527204e-05
2.413741322e-05
2.624464978e-05
2.79729634e-05
2.900412168e-05
2.104808524e-05
2.235303441e-05
2.426038273e-05
2.667089656e-05
2.943877778e-05
3.235372191e-05
3.51300995e-05
3.74071965e-05
3.876575308e-05
2.830593407e-05
3.001731518e-05
3.251796544e-05
3.567718062e-05
3.930344228e-05
4.312138173e-05
4.675733746e-05
4.973925183e-05
5.151818103e-05
3.782812121e-05
4.005726863e-05
4.331311438e-05
4.74244611e-05
5.214161503e-05
5.710634403e-05
6.183319677e-05
6.570904919e-05
6.802084355e-05
5.020960631e-05
5.308992207e-05
5.729482319e-05
6.260148288e-05
6.868640458e-05
7.508703259e-05
8.11779615e-05
8.61702748e-05
8.914690328e-05
6.615256037e-05
6.984031874e-05
7.522053015e-05
8.200497731e-05
8.97774598e-05
9.794593414e-05
0.0001057126932
0.0001120739173
0.0001158644036
8.646678658e-05
9.113929868e-05
9.795034146e-05
0.0001065295425
0.0001163457757
0.0001266486214
0.0001364323799
0.000144436472
0.0001492014513
0.0001120599625
0.0001179109479
0.0001264303012
0.000137145463
0.0001493849405
0.0001622080737
0.0001743638197
0.0001842924812
0.0001901955789
0.0001439158164
0.0001511473514
0.0001616620209
0.000174862505
0.0001899083653
0.0002056354248
0.0002205099554
0.0002326341201
0.000239830705
0.0001830583387
0.0001918695303
0.0002046593371
0.0002206802532
0.0002388935424
0.0002578785683
0.0002757847013
0.0002903434607
0.0002989682746
0.0002305014948
0.0002410742301
0.0002563910159
0.000275527937
0.0002972184503
0.0003197556544
0.0003409450753
0.0003581250179
0.0003682811469
0.0002871865471
0.0002996696407
0.0003177146843
0.000340195933
0.0003655925994
0.0003918879306
0.0004165264297
0.0004364441691
0.0004481977582
0.0003539118088
0.0003684054493
0.0003893079004
0.000415269301
0.0004444936828
0.0004746396059
0.0005027849383
0.0005254652435
0.0005388023865
0.0004312622253
0.0004478049024
0.0004716042352
0.0005010695183
0.0005341158419
0.0005680731006
0.0005996461154
0.0006249877472
0.0006398548938
0.0005195475182
0.0005381073905
0.0005647422133
0.000597612826
0.0006343359996
0.0006719015879
0.0007066907587
0.0007345236543
0.0007508147278
0.0006187558404
0.0006392277794
0.0006685280567
0.0007045559959
0.0007446504146
0.0007855104859
0.0008232123192
0.0008532822002
0.0008708443857
0.0007284923304
0.000750681349
0.0007823631903
0.0008212018578
0.0008642711339
0.0009080036484
0.0009482172646
0.0009801978019
0.0009988388316
0.0008479809013
0.0008716471919
0.0009053623421
0.0009465739562
0.0009921235645
0.001038217428
0.001080467467
0.00111397878
0.001133477713
0.0009761560085
0.001001012438
0.00103634893
0.001079425901
0.001126892074
0.001174775738
0.001218539555
0.00125316977
0.001273289322
0.001111673538
0.001137401944
0.001173908121
0.001218301762
0.001267083958
0.001316157679
0.001360894309
0.001396221833
0.001416720869
0.001252978499
0.001279248162
0.00131645867
0.001361610016
0.001411103976
0.0014607718
0.001505949791
0.001541564186
0.001562209239
0.001398388149
0.001424874028
0.001462334925
0.001507703937
0.001557332064
0.001607030425
0.00165215206
0.001687671819
0.001708246763
0.001546181154
0.001572579955
0.00160987047
0.001654960801
0.001704197233
0.001753417887
0.001798038091
0.001833124184
0.001853437504
0.00169468356
0.001720726286
0.001757475483
0.001801852963
0.001850241694
0.001898547723
0.001942286771
0.001976651481
0.001996540936
0.001842343604
0.001867803857
0.001903701353
0.001947005415
0.001994170926
0.002041205549
0.0020837556
0.002117166774
0.002136501552
0.001987789677
0.002012487664
0.002047288468
0.002089236743
0.002134887561
0.002180376283
0.002221502266
0.002253783437
0.002272464101
0.00212986849
0.002153671096
0.002187195113
0.002227581982
0.002271508145
0.002315255393
0.002354791384
0.00238581868
0.002403775371
0.00226766266
0.002290480468
0.002322607967
0.002361298628
0.002403364744
0.002445246569
0.002483089003
0.002512785818
0.002529975264
0.00240049047
0.002422272713
0.002452937099
0.002489858713
0.002529994223
0.002569948598
0.002606047602
0.002634377956
0.002650779787
0.002527891497
0.002548619891
0.002577799055
0.002612930426
0.002651118565
0.002689134634
0.002723484598
0.002750446008
0.002766058793
0.002649602467
0.002669284723
0.002696992055
0.002730353051
0.002766619674
0.002802727017
0.002835357273
0.002860973732
0.002875811081
0.002765527606
0.002784191213
0.002810467048
0.002842108614
0.002876511747
0.002910770409
0.002941736612
0.002966052104
0.002980139043
0.002875707105
0.002893393774
0.002918297765
0.002948293071
0.002980913693
0.003013405394
0.003042781916
0.003065854727
0.003079224535
0.002980286475
0.002997047427
0.003020652095
0.003049089019
0.00308002318
0.003110843975
0.003138717662
0.003160615607
0.003173307061
0.003079488486
0.003095380577
0.00311776605
0.003144741187
0.003174093956
0.00320334831
0.003229813234
0.003250609686
0.003262664839
0.00317358898
0.003188671774
0.003209921802
0.003235535794
0.003263416275
0.003291212383
0.003316365813
0.003336136627
0.003347599051
0.003262896891
0.003277230438
0.003297429332
0.00332178333
0.003348300987
0.003374747263
0.003398686607
0.003417507785
0.003428421214
0.003347738195
0.00336138143
0.003380611878
0.003403804993
0.003429067001
0.003454269536
0.003477090115
0.003495036076
0.003505443404
0.003428443565
0.003441453216
0.003459794781
0.003481922347
0.003506031764
0.003530092568
0.003551886058
0.003569028431
0.003578970997
0.003505339237
0.003517769126
0.003535297284
0.003556449731
0.003579504318
0.003602520174
0.003623373586
0.003639780398
0.003649297507
0.003578740539
0.003590641172
0.003607426756
0.003627688957
0.003649780482
0.003671842263
0.003691837329
0.003707572519
0.003716701144
0.003648947559
0.003660365937
0.003676474868
0.003695925827
0.003717139729
0.003738332068
0.003757544934
0.003772668098
0.003781442722
0.003716242468
0.003727222043
0.003742715277
0.003761428057
0.003781843373
0.003802244576
0.003820745718
0.003835312033
0.003843764598
0.003780888103
0.003791468843
0.003806402452
0.003824444276
0.003844133737
0.003863815881
0.003881670179
0.003895730453
0.003903890378
0.003843127465
0.003853345981
0.003867771335
0.003885203797
0.003904234051
0.003923263193
0.003940530115
0.00395413092
0.003962025176
0.003903183872
0.003913073589
0.003927037592
0.003943916934
0.003962348845
0.003980785308
0.003997519161
0.00401070303
0.004018356246
0.003961261558
0.00397085291
0.003984398267
0.0040007757
0.004018664685
0.004036563393
0.004052813621
0.004065619271
0.004073053864
0.004017546565
0.004026867195
0.004040032699
0.004055954738
0.004073351129
0.004090761963
0.004106573459
0.004119036039
0.004126272358
0.004072207802
0.004081282771
0.004094103585
0.004109612391
0.004126561805
0.004143529962
0.004158943398
0.00417109474
0.004178151209
0.0041253982
0.004134250185
0.004146758127
0.004161891845
0.004178435543
0.004195001895
0.00421005404
0.004221922916
0.00422881618
0.0041772559
0.004185905389
0.004198129199
0.00421292228
0.004229097519
0.004245298962
0.004260022996
0.004271635362
0.004278380431
0.004227905425
0.004236370899
0.004248336502
0.004262820008
0.004278660375
0.004294530162
0.004308955979
0.004320335207
0.004326945595
0.004277458814
0.004285756921
0.004297487662
0.004311689568
0.0043272253
0.004342793354
0.004356947844
0.00436811495
0.004374602801
0.004326016719
0.004334162436
0.004345679318
0.004359624779
0.004374883056
0.004390176264
0.004404083578
0.00441505743
0.004421433644
0.004373669443
0.004381676226
0.004392998111
0.004406709712
0.00442171493
0.004436757418
0.004450439221
0.004461236737
0.004467511082
0.004420497881
0.0044283778
0.004439521608
0.004453019605
0.004467793636
0.004482607026
0.004496082723
0.004506719053
0.004512900274
0.004466574408
0.004474338281
0.004485319171
0.004498621707
0.004513184137
0.004527787783
0.004541074738
0.00455156343
0.004557659344
0.004511963701
0.004519621213
0.004530452752
0.00454357606
0.004557944405
0.00457235561
0.004585469342
0.004595822501
0.004601840089
0.0045567235
0.004564283308
0.004574977624
0.004587936212
0.004602126122
0.004616360339
0.004629314702
0.004639543129
0.004645488618
0.004600905292
0.00460837513
0.004618943053
0.004631749872
0.004645775314
0.00465984633
0.004672653678
0.004682767003
0.004688645944
0.004644554948
0.004651941715
0.004662392907
0.004675059507
0.004688932933
0.004702853035
0.004715524377
0.004725531175
0.00473134851
0.004687713295
0.004695023141
0.004705366212
0.004717902884
0.004731635385
0.004745415514
0.004757960647
0.004767868551
0.004773628674
0.004730416639
0.00473765504
0.004747897655
0.004760313559
0.004773915005
0.004787564893
0.004799992531
0.004809808326
0.004815515145
0.004772697237
0.004779869067
0.004790018044
0.004802321326
0.004815800492
0.004829328792
0.004841646678
0.00485137639
0.004857033374
0.004814583728
0.004821693317
0.004831754718
0.004843952617
0.004857317299
0.004870731692
0.004882946701
0.004892595681
0.00489820591
0.00485610152
0.004863152714
0.004873131919
0.004885230862
0.004898487979
0.004911795285
0.004923913516
0.004933486509
0.004939052714
0.004897273131
0.004904269344
0.00491417113
0.004926176818
0.004939332507
0.004952538772
0.004964565631
0.004974066844
0.004979591444
0.004938118512
0.004945062772
0.004954891371
0.004966808859
0.00497986856
0.004992979141
0.005004919419
0.005014352576
0.005019837713
0.004978655322
0.00498555031
0.004995309473
0.005007143238
0.005020111768
0.005033131408
0.005044989345
0.005054357744
0.005059805315
0.005018899181
0.005025747272
0.005035440321
0.005047194324
0.005060075947
0.005073008843
0.005084788189
0.005094094744
0.005099506426
0.005058863898
0.005065667193
0.005075297063
0.005086974811
0.005099773295
0.005112623156
0.005124327227
0.005133574516
0.00513895179
0.00509856167
0.005105322025
0.005114891313
0.005126495901
0.005139214577
0.005151984681
0.005163616405
0.005172806703
0.005178150878
0.005138003262
0.005144722317
0.005154233316
0.005165767479
0.005178409286
0.005191102526
0.005202664486
0.005211799801
0.00521711203
0.00517719817
0.005183877373
0.005193332105
0.005204798255
0.005217365787
0.005229984713
0.005241479187
0.005250561288
0.005255842589
0.005216154764
0.00522279539
0.005232195638
0.005243595901
0.005256091441
0.0052686383
0.005280067295
0.005289097741
0.00529434901
0.005254880411
0.005261483584
0.005270830917
0.005282167164
0.005294592724
0.005307069494
0.005318434775
0.005327414937
0.005332636962
0.005293381595
0.005299948303
0.005309244102
0.005320517979
0.005332875327
0.005345283745
0.005356586863
0.005365517946
0.005370711419
0.005331664013
0.005338195124
0.005347440602
0.005358653554
0.005370944242
0.005383285835
0.005394528151
0.005403411213
0.005408576742
0.005369732667
0.005376228943
0.005385425164
0.005396578458
0.005408803848
0.005421079952
0.00543226266
0.005441098627
0.005446236744
0.005407591944
0.005414054052
0.005423201947
0.005434296693
0.005446457975
0.005458669761
0.005469793906
0.005478583588
0.00548369476
0.005445245684
0.005451674208
0.005460774591
0.005471811759
0.005483909975
0.005496058465
0.005507124958
0.005515869064
0.005520953698
0.005482697247
0.005489092695
0.005498146277
0.005509126713
0.00552116277
0.005533248856
0.005544258492
0.005552957638
0.005558016089
0.005519949565
0.00552631238
0.00553531978
0.00554624422
0.005558218908
0.005570243365
0.005581196835
0.005589851558
0.005594884133
0.005557005193
0.00556333576
0.005572297515
0.005583166598
0.005595080602
0.005607044103
0.005617942006
0.005626552771
0.005631559739
0.005593866353
0.005600165007
0.005609081581
0.00561989586
0.005631749773
0.005643652897
0.005654495751
0.00566306296
0.005668044552
0.005630534975
0.005636802002
0.005645673796
0.005656433748
0.005668228079
0.005680071329
0.00569085958
0.005699383579
0.005704339993
0.005667012727
0.005673248373
0.005682075731
0.005692781765
0.005704516953
0.005716300756
0.005727034786
0.005735515871
0.005740447279
0.005703301045
0.005709505523
0.005718288739
0.005728941203
0.005740617622
0.005752342344
0.005763022478
0.005771460902
0.005776367449
0.005739401167
0.005745574655
0.005754313979
0.005764913168
0.005776531133
0.005788197085
0.005798823598
0.005807219574
0.005812101383
0.005775314147
0.005781456795
0.005790152436
0.005800698601
0.005812258377
0.005823865817
0.00583443894
0.005842792646
0.00584764982
0.00581104088
0.005817152815
0.005825804947
0.005836298292
0.0058478001
0.005859349241
0.005869869164
0.005878180749
0.005883013372
0.005846582118
0.005852663442
0.005861272208
0.005871712902
0.00588315692
0.005894647937
0.005905114813
0.005913384395
0.005918192537
0.005881938487
0.005887989282
0.005896554795
0.005906942971
0.00591832934
0.00592976237
0.00594017632
0.005948403992
0.005953187705
0.005917110492
0.005923130821
0.005931653168
0.005941988928
0.005953317754
0.005964692899
0.005975054013
0.005983239843
0.005987999168
0.005952098531
0.00595808844
0.005966567683
0.005976851099
0.005988122456
0.005999439786
0.006009748122
0.006017892156
0.006022627118
0.0059869029
0.005992862417
0.006001298593
0.006011529706
0.006022743637
0.006034003189
0.006044258779
0.006052361038
0.00605707165
0.00602152379
0.006027452926
0.00603584605
0.006046024874
0.006057181387
0.006068383166
0.00607858601
0.006086646493
0.006091332752
0.00605596129
0.006061860039
0.0060702101
0.006080336615
0.006091435687
0.006102579662
0.006112729728
0.006120748406
0.006125410296
0.006090215377
0.006096083714
0.006104390671
0.006114464828
0.006125506395
0.006136592497
0.006146689717
0.006154666533
0.006159304018
0.006124285901
0.006130123778
0.006138387563
0.006148409271
0.006159393227
0.006170421343
0.006180465606
0.006188400468
0.006193013493
0.006158172566
0.006163979912
0.006172200418
0.006182169541
0.006193095729
0.006204065692
0.006214056836
0.00622194961
0.006226538095
0.0061918749
0.006197651612
0.006205828689
0.006215745035
0.006226613236
0.006237524811
0.006247462612
0.006255313113
0.006259876947
0.006225392213
0.00623113815
0.006239271592
0.006249134902
0.006259944815
0.006270797686
0.006280681843
0.006288489821
0.006293028852
0.00625872354
0.006264438514
0.006272528046
0.006282337973
0.0062930892
0.006303882947
0.006313713057
0.006321478179
0.00632599221
0.006291867568
0.006297551331
0.006305596591
0.006315352677
0.006326044694
0.006336778763
0.006346554298
0.006354276131
0.006358764898
0.006324822545
0.006330474771
0.006338475285
0.006348176934
0.006358809056
0.006369482728
0.006379202999
0.006386880973
0.006391344134
0.006357586158
0.006363206426
0.006371161579
0.006380808015
0.006391379354
0.006401991693
0.006411655809
0.006419289189
0.006423726301
0.006390155388
0.006395743153
0.00640365215
0.006413242374
0.006423751784
0.006434301587
0.006443908398
0.006451496238
0.00645590673
0.006422526329
0.006428080889
0.006435942711
0.006445475439
0.006455921454
0.006466407177
0.006475955213
0.006483496299
0.006487879443
0.006454693969
0.00646021443
0.006468027775
0.00647750137
0.006487882119
0.006498301798
0.006507789187
0.00651528198
0.006519636848
0.006486651931
0.006492137157
0.006499900375
0.006509312765
0.006519625879
0.00652997703
0.006539401408
0.006546843963
0.006551169386
0.006518392173
0.006523840736
0.006531551747
0.006540900323
0.006551142827
0.00656142233
0.006570780733
0.006578170612
0.006582465125
0.006549904646
0.006555314755
0.006562970964
0.006572252468
0.00658242065
0.00659262462
0.006601913358
0.006609247534
0.006613509322
0.006581176901
0.006586546339
0.006594144525
0.006603354925
0.006613444196
0.006623567836
0.006632782361
0.006640057105
0.00664428393
0.006612193675
0.006617519713
0.006625055923
0.006634190272
0.006644195009
0.006654232448
0.006663367202
0.006670577964
0.006674767101
0.006642936437
0.006648215753
0.006655685175
0.006664737461
0.006674650841
0.006684594968
0.006693643229
0.006700784513
0.006704932678
0.006673382927
0.006678611515
0.006686008355
0.006694971347
0.006704785176
0.006714627467
0.006723581189
0.006730646431
0.006734749701
0.006703506698
0.006708679781
0.006715997135
0.00672486223
0.006734566775
0.006744297122
0.006753146788
0.006760128232
0.006764181984
0.006733276694
0.006738388637
0.006745618371
0.006754375449
0.006763959285
0.006773565847
0.006782300326
0.006789188921
0.006793187768
0.006762656874
0.006767701113
0.006774833761
0.006783471061
0.006792920937
0.006802390011
0.006810996455
0.006817781778
0.006821719526
0.006791605933
0.006796574915
0.006803599603
0.006812103643
0.006821404396
0.006830720337
0.006839184107
0.006845854312
0.006849723937
0.006820077163
0.006824962315
0.00683186672
0.006840222249
0.006849356769
0.006858501969
0.006866806636
0.006873348456
0.006877142111
0.006848018481
0.006852810212
0.006859580567
0.006867770588
0.006876719856
0.006885674799
0.006893802203
0.006900201015
0.00690391007
0.006875372673
0.006880060417
0.006886681584
0.006894687451
0.006903430663
0.006912174067
0.006920104472
0.006926344433
0.006929959563
0.006902077884
0.006906650193
0.006913105805
0.006920907412
0.006929422208
0.006937931278
0.006945643621
0.006951707884
0.006955219205
0.006928068397
0.00693251309
0.006938785773
0.006946361842
0.006954624643
0.006962875443
0.006970347699
0.006976218718
0.00697961597
0.006953275694
0.006957580072
0.006963651756
0.006970980234
0.006978966705
0.006986934644
0.006994144296
0.006999804217
0.007003077008
0.006977629837
0.006981780949
0.006987633264
0.006994691824
0.00700237745
0.007010037891
0.00701696251
0.00702239365
0.007025531738
0.007001061112
0.007005046088
0.007010660845
0.007017427484
0.007024788248
0.007032117217
0.007038735129
0.007043920522
0.00704691414
0.007023501923
0.007027308353
0.007032668086
0.007039121805
0.007046134952
0.007053109922
0.007059400947
0.007064324934
0.007067165145
0.007044888862
0.007048505207
0.007053593767
0.007059715298
0.007066360146
0.007072960868
0.007078907081
0.007083555922
0.007086234972
0.007065164856
0.007068580878
0.007073384044
0.007079156593
0.007085415352
0.007091624677
0.007097211156
0.007101573623
0.007104085282
0.007084281296
0.007087488478
0.007091994547
0.007097404511
0.007103263058
0.007109067703
0.007114283221
0.007118351122
0.007120690987
0.007102200018
0.007105191951
0.00710939228
0.007114429881
0.007119878439
0.007125269647
0.00713010724
0.007133875854
0.007136041585
0.007118895016
0.007121667721
0.007125557168
0.007130216974
0.007135250648
0.007140224685
0.007144682069
0.007148150443
0.007150141918
0.007134353763
0.007136905931
0.007140483178
0.007144764458
0.007149383581
0.007153942037
0.007158021834
0.007161192924
0.007163012304
0.007148578052
0.007150911181
0.007154178902
0.007158085793
0.007162296062
0.007166445932
0.007170155694
0.007173036347
0.007174688049
0.007161584287
0.007163702703
0.007166667569
0.007170209046
0.007174021435
0.007177774975
0.007181126985
0.007183727694