/*--------------------------------*- C++ -*----------------------------------*\
| =========                 |                                                 |
| \\      /  F ield         | OpenFOAM: The Open Source CFD Toolbox           |
|  \\    /   O peration     | Version:  2212                                  |
|   \\  /    A nd           | Website:  www.openfoam.com                      |
|    \\/     M anipulation  |                                                 |
\*---------------------------------------------------------------------------*/
FoamFile
{
    version     2.0;
    format      ascii;
    arch        "LSB;label=32;scalar=64";
    class       volScalarField;
    location    "20.00000000";
    object      A2;
}
// * * * * * * * * * * * * * * * * * * * * * * * * * * * * * * * * * * * * * //

dimensions      [0 0 0 0 0 0 0];

internalField   nonuniform List<scalar> 
3000
(
1.607354116e-21
1.805567031e-21
2.104647751e-21
2.5031655e-21
2.997060124e-21
3.572930245e-21
4.196110705e-21
4.790798589e-21
5.211289628e-21
6.034683638e-21
6.806171352e-21
7.969756673e-21
9.523637831e-21
1.146623775e-20
1.378690826e-20
1.644543095e-20
1.930843706e-20
2.18439863e-20
1.351773873e-20
1.536571787e-20
1.817951222e-20
2.199969712e-20
2.689481886e-20
3.293605814e-20
4.00995057e-20
4.798401242e-20
5.472051417e-20
2.574815613e-20
2.957483056e-20
3.548700475e-20
4.368447608e-20
5.445747344e-20
6.807996047e-20
8.447754449e-20
1.023396344e-19
1.167555412e-19
4.572393999e-20
5.316440321e-20
6.484102446e-20
8.134671327e-20
1.034575826e-19
1.317937489e-19
1.658815592e-19
2.020836284e-19
2.298733623e-19
7.862887319e-20
9.25946062e-20
1.148261281e-19
1.467421356e-19
1.900449891e-19
2.45825081e-19
3.124160382e-19
3.814218293e-19
4.324736551e-19
1.334902637e-19
1.591444908e-19
2.004582387e-19
2.604383596e-19
3.42423862e-19
4.480443907e-19
5.729298285e-19
6.998142085e-19
7.913664128e-19
2.259218256e-19
2.723472927e-19
3.477751836e-19
4.581283476e-19
6.095577177e-19
8.042403442e-19
1.032404876e-18
1.260840129e-18
1.42291327e-18
3.829842317e-19
4.66107332e-19
6.020285533e-19
8.018867664e-19
1.076616791e-18
1.42884974e-18
1.838681221e-18
2.244727668e-18
2.529638334e-18
6.515537051e-19
7.992121805e-19
1.041759721e-18
1.399543656e-18
1.891651291e-18
2.520919763e-18
3.249032915e-18
3.965149486e-18
4.463918529e-18
1.112924496e-18
1.373708541e-18
1.803431586e-18
2.438586387e-18
3.31220559e-18
4.42680208e-18
5.711183097e-18
6.968020443e-18
7.839129374e-18
1.908179603e-18
2.366836853e-18
3.124265838e-18
4.245172549e-18
5.786527138e-18
7.74943385e-18
1.000450825e-17
1.220352826e-17
1.372300438e-17
3.282342139e-18
4.08666086e-18
5.416928409e-18
7.387066617e-18
1.009519678e-17
1.353867769e-17
1.748517368e-17
2.132361327e-17
2.397400907e-17
5.661016195e-18
7.068671627e-18
9.399355022e-18
1.285290877e-17
1.759841449e-17
2.362394911e-17
3.051121577e-17
3.718769715e-17
4.182680825e-17
9.783122284e-18
1.224309714e-17
1.631973008e-17
2.236353884e-17
3.066755222e-17
4.119949483e-17
5.319441814e-17
6.471534389e-17
7.293149238e-17
1.693035574e-17
2.122365003e-17
2.834368584e-17
3.89060218e-17
5.342761022e-17
7.187486443e-17
9.30047253e-17
1.135975139e-16
1.274689421e-16
2.932438944e-17
3.680640917e-17
4.921977729e-17
6.763788039e-17
9.295449419e-17
1.250856204e-16
1.617948652e-16
1.973476814e-16
2.216641975e-16
5.081787257e-17
6.384074959e-17
8.545155183e-17
1.175162001e-16
1.615775972e-16
2.174630321e-16
2.812454114e-16
3.429490964e-16
3.852272766e-16
8.809512003e-17
1.10742287e-16
1.48329475e-16
2.040985295e-16
2.807187879e-16
3.778664965e-16
4.886933742e-16
5.958644705e-16
6.692864124e-16
1.527571814e-16
1.921192527e-16
2.574556165e-16
3.543987756e-16
4.875743004e-16
6.563948354e-16
8.489362881e-16
1.035074627e-15
1.162564027e-15
2.649422444e-16
3.333325131e-16
4.4686341e-16
6.153205095e-16
8.467249149e-16
1.140025062e-15
1.474471931e-15
1.797724728e-15
2.019080655e-15
4.596124559e-16
5.784140157e-16
7.756448967e-16
1.068302841e-15
1.47029963e-15
1.979763977e-15
2.560604916e-15
3.121898658e-15
3.506202146e-15
7.974728447e-16
1.003819665e-15
1.346407978e-15
1.85475568e-15
2.552989448e-15
3.437788588e-15
4.446392369e-15
5.420886224e-15
6.088028719e-15
1.383937091e-15
1.742317498e-15
2.337334411e-15
3.220233027e-15
4.432845851e-15
5.96928632e-15
7.720436817e-15
9.41211406e-15
1.057011168e-14
2.402071759e-15
3.024481664e-15
4.057858325e-15
5.591133287e-15
7.69680704e-15
1.036444179e-14
1.340437025e-14
1.634058611e-14
1.83503201e-14
4.169808403e-15
5.250745564e-15
7.045332065e-15
9.70782474e-15
1.336377929e-14
1.799461262e-14
2.327065718e-14
2.836570187e-14
3.185260817e-14
7.239291359e-15
9.116512625e-15
1.223283852e-14
1.685566264e-14
2.320218003e-14
3.123904941e-14
4.039314526e-14
4.923075603e-14
5.527758208e-14
1.256934036e-14
1.58293316e-14
2.124041274e-14
2.926566352e-14
4.028018207e-14
5.422354468e-14
7.009907315e-14
8.541978108e-14
9.589892275e-14
2.182454217e-14
2.748545639e-14
3.687976721e-14
5.080843558e-14
6.991774173e-14
9.409673404e-14
1.216113935e-13
1.481498334e-13
1.662928291e-13
3.789338771e-14
4.772202069e-14
6.402791803e-14
8.819408282e-14
1.213304643e-13
1.632299657e-13
2.108738544e-13
2.567915345e-13
2.881608419e-13
6.578440072e-14
8.284453702e-14
1.111362757e-13
1.530420815e-13
2.1045989e-13
2.829959757e-13
3.653910583e-13
4.447146844e-13
4.988510785e-13
1.141725529e-13
1.437713525e-13
1.928301011e-13
2.654402386e-13
3.648280533e-13
4.902307597e-13
6.324778586e-13
7.692195207e-13
8.62411828e-13
1.980602359e-13
2.49376404e-13
3.343699965e-13
4.600383468e-13
6.318231809e-13
8.48220617e-13
1.09322728e-12
1.328285468e-12
1.488180223e-12
3.433397676e-13
4.322128903e-13
5.792741733e-13
7.964263441e-13
1.092754479e-12
1.465250627e-12
1.885970397e-12
2.288565349e-12
2.561745772e-12
5.945826001e-13
7.482660309e-13
1.002267686e-12
1.376694393e-12
1.886513491e-12
2.52564908e-12
3.245297953e-12
3.93168141e-12
4.395952846e-12
1.028269711e-12
1.293474915e-12
1.731133747e-12
2.374913566e-12
3.249051585e-12
4.341219233e-12
5.56623574e-12
6.729857689e-12
7.513845122e-12
1.775132451e-12
2.231533087e-12
2.983297571e-12
4.086179399e-12
5.578561194e-12
7.4354538e-12
9.508440555e-12
1.146779834e-11
1.278166357e-11
3.057626516e-12
3.840307599e-12
5.12652558e-12
7.007353287e-12
9.541829737e-12
1.267962914e-11
1.616299301e-11
1.943619185e-11
2.161889417e-11
5.252322255e-12
6.588676567e-12
8.778621689e-12
1.196844932e-11
1.62455173e-11
2.150961581e-11
2.731537307e-11
3.273417073e-11
3.632482265e-11
8.992922865e-12
1.126250494e-11
1.496935914e-11
2.034373296e-11
2.750813052e-11
3.626609123e-11
4.585361496e-11
5.473462705e-11
6.057827041e-11
1.533882846e-11
1.916903331e-11
2.540034809e-11
3.438632469e-11
4.628556351e-11
6.07201733e-11
7.63918904e-11
9.078900566e-11
1.001907616e-10
2.604822645e-11
3.246477113e-11
4.285677473e-11
5.775113497e-11
7.732698719e-11
1.008731304e-10
1.262088263e-10
1.492792012e-10
1.642255527e-10
4.401577973e-11
5.467525127e-11
7.185115449e-11
9.630051639e-11
1.281708974e-10
1.66155257e-10
2.066394871e-10
2.431664881e-10
2.666389155e-10
7.396599622e-11
9.150859063e-11
1.196162884e-10
1.59328045e-10
2.106364331e-10
2.711987453e-10
3.351140527e-10
3.922452564e-10
4.286602152e-10
1.235380256e-10
1.521124134e-10
1.976162464e-10
2.613923001e-10
3.43027033e-10
4.384273622e-10
5.38110261e-10
6.26388539e-10
6.822097003e-10
2.049606243e-10
2.509900582e-10
3.238153714e-10
4.250298132e-10
5.533482102e-10
7.017987759e-10
8.553880598e-10
9.901807313e-10
1.074765563e-09
3.376031947e-10
4.108831909e-10
5.26042604e-10
6.847219169e-10
8.839570255e-10
1.112162667e-09
1.346013526e-09
1.549480889e-09
1.676245418e-09
5.518075541e-10
6.670519745e-10
8.469207986e-10
1.09263411e-09
1.398218952e-09
1.744871479e-09
2.096867924e-09
2.400661205e-09
2.588675947e-09
8.945652508e-10
1.073551633e-09
1.351010304e-09
1.726842362e-09
2.189963113e-09
2.71051688e-09
3.234593928e-09
3.683537708e-09
3.959706768e-09
1.43782058e-09
1.71233069e-09
2.135059612e-09
2.703026738e-09
3.396819049e-09
4.169984809e-09
4.942277186e-09
5.599377931e-09
6.001405233e-09
2.29046983e-09
2.706282797e-09
3.342586448e-09
4.190973559e-09
5.218913512e-09
6.355453778e-09
7.482628111e-09
8.435866754e-09
9.016280682e-09
3.615521872e-09
4.237802112e-09
5.184463193e-09
6.437716897e-09
7.944939271e-09
9.599541059e-09
1.123005406e-08
1.260157498e-08
1.343317784e-08
5.654425293e-09
6.574967455e-09
7.967798945e-09
9.799816085e-09
1.198832501e-08
1.437557537e-08
1.671484937e-08
1.867336371e-08
1.985660766e-08
8.761308318e-09
1.01082866e-08
1.213627771e-08
1.478818392e-08
1.793719998e-08
2.1352991e-08
2.468382984e-08
2.746135798e-08
2.91343353e-08
1.345011929e-08
1.540100335e-08
1.832523934e-08
2.212939237e-08
2.662299295e-08
3.147361769e-08
3.618375669e-08
4.009810462e-08
4.244984559e-08
2.046019704e-08
2.325918891e-08
2.743839006e-08
3.285062732e-08
3.921467997e-08
4.605561574e-08
5.267460625e-08
5.815955607e-08
6.144802349e-08
3.084709303e-08
3.482845203e-08
4.075304779e-08
4.839572881e-08
5.734728433e-08
6.693516616e-08
7.618382048e-08
8.382961234e-08
8.840583269e-08
4.610702482e-08
5.172624669e-08
6.006394048e-08
7.078351812e-08
8.329688903e-08
9.665905354e-08
1.09515624e-07
1.201231904e-07
1.264635879e-07
6.834706189e-08
7.622253114e-08
8.787917681e-08
1.028231206e-07
1.202181807e-07
1.387456143e-07
1.565342773e-07
1.711877891e-07
1.799374693e-07
1.005169598e-07
1.114855412e-07
1.276863911e-07
1.484058527e-07
1.724658938e-07
1.980373187e-07
2.225463444e-07
2.427101438e-07
2.54740753e-07
1.46723755e-07
1.619148978e-07
1.843129025e-07
2.12899562e-07
2.460284054e-07
2.811757352e-07
3.148151131e-07
3.424630671e-07
3.589500458e-07
2.12656904e-07
2.335912695e-07
2.644112157e-07
3.036794258e-07
3.491105756e-07
3.972392359e-07
4.432506356e-07
4.810384974e-07
5.035640876e-07
3.061601591e-07
3.348806375e-07
3.771106358e-07
4.308394348e-07
4.92914038e-07
5.58595849e-07
6.213318256e-07
6.728265339e-07
7.035168461e-07
4.379967351e-07
4.772420627e-07
5.348873257e-07
6.081412344e-07
6.926766251e-07
7.820382716e-07
8.673327622e-07
9.373168543e-07
9.790238983e-07
6.22866582e-07
6.763006128e-07
7.547186321e-07
8.542714533e-07
9.690482145e-07
1.090284916e-06
1.205943451e-06
1.300818076e-06
1.357360853e-06
8.807481895e-07
9.532611758e-07
1.059602257e-06
1.194494273e-06
1.349896961e-06
1.513948683e-06
1.670394239e-06
1.79871055e-06
1.875193112e-06
1.238651225e-06
1.336753007e-06
1.48053532e-06
1.662800932e-06
1.872655284e-06
2.094091037e-06
2.305209475e-06
2.478364926e-06
2.581593432e-06
1.732878455e-06
1.865206794e-06
2.059059916e-06
2.304668721e-06
2.587325003e-06
2.885488e-06
3.169723984e-06
3.402865869e-06
3.541890185e-06
2.411902916e-06
2.589872334e-06
2.850486198e-06
3.180544017e-06
3.560259813e-06
3.960729767e-06
4.342487105e-06
4.655667996e-06
4.842474717e-06
3.339964994e-06
3.57858123e-06
3.927896598e-06
4.370151218e-06
4.878824113e-06
5.415248945e-06
5.926644672e-06
6.346270203e-06
6.596651564e-06
4.601480227e-06
4.920341056e-06
5.387010578e-06
5.97769691e-06
6.656984414e-06
7.373318333e-06
8.056324203e-06
8.616920754e-06
8.951535558e-06
6.306318966e-06
6.730812345e-06
7.351945917e-06
8.137984286e-06
9.041822399e-06
9.99497881e-06
1.090395722e-05
1.165026932e-05
1.209591787e-05
8.595973275e-06
9.158667897e-06
9.981851778e-06
1.102338072e-05
1.222087355e-05
1.348375667e-05
1.468835921e-05
1.567777058e-05
1.626888022e-05
1.165056874e-05
1.239277152e-05
1.347832e-05
1.485150544e-05
1.64301081e-05
1.809494099e-05
1.968328447e-05
2.098838262e-05
2.176839338e-05
1.569661701e-05
1.667005001e-05
1.80934168e-05
1.989343733e-05
2.196232717e-05
2.414415945e-05
2.622600489e-05
2.793698376e-05
2.895988882e-05
2.10153408e-05
2.228386908e-05
2.413811796e-05
2.648220254e-05
2.917568687e-05
3.201563612e-05
3.472525883e-05
3.695243394e-05
3.8284295e-05
2.795135852e-05
2.959268096e-05
3.199090941e-05
3.502122806e-05
3.850148095e-05
4.216951803e-05
4.566839902e-05
4.854421955e-05
5.026427531e-05
3.69214666e-05
3.902859378e-05
4.210572026e-05
4.599128947e-05
5.045075208e-05
5.514798399e-05
5.962660157e-05
6.330693096e-05
6.550828623e-05
4.842210239e-05
5.110412252e-05
5.501815348e-05
5.995640898e-05
6.561898295e-05
7.157853907e-05
7.725687806e-05
8.192105014e-05
8.471054495e-05
6.303513614e-05
6.641767961e-05
7.135004803e-05
7.756679807e-05
8.468746577e-05
9.217341536e-05
9.929929851e-05
0.0001051483095
0.0001086451993
8.143128341e-05
8.565584656e-05
9.181018329e-05
9.955757027e-05
0.0001084193361
0.000117722747
0.0001265674381
0.0001338197156
0.0001381528286
0.0001043687719
0.0001095905807
0.0001171891949
0.0001267409773
0.0001376486522
0.0001490802862
0.0001599304492
0.0001688147021
0.0001741178492
0.0001326855079
0.0001390696204
0.0001483475714
0.0001599906125
0.0001732605587
0.0001871393015
0.0002002854566
0.0002110305971
0.0002174362723
0.0001672825352
0.0001749977437
0.0001861936101
0.0002002161845
0.0002161620359
0.0002327991258
0.0002485203603
0.0002613427631
0.000268974402
0.0002090970074
0.0002183074895
0.000231651032
0.0002483269168
0.0002672414457
0.00028692164
0.0003054676656
0.0003205566067
0.0003295197337
0.0002590636253
0.00026991858
0.0002856157178
0.0003051854978
0.000327319575
0.0003502795669
0.0003718508965
0.0003893531678
0.0003997282405
0.0003180648523
0.0003306867323
0.0003489027514
0.000371553293
0.0003970932661
0.0004234986567
0.0004482258011
0.000468229411
0.0004800600724
0.000386871974
0.0004013443238
0.00042218679
0.0004480306276
0.00047707633
0.000507000423
0.0005349267629
0.0005574486216
0.0005707362449
0.0004660804753
0.0004824365964
0.0005059398116
0.000534997639
0.0005675459507
0.0006009608773
0.0006320358247
0.0006570186473
0.00067172276
0.0005560447449
0.0005742598197
0.0006003766552
0.0006325734943
0.0006685173572
0.0007052880638
0.0007393664012
0.0007666809496
0.0007827206588
0.0006568353181
0.0006768279765
0.0007054313575
0.000740594082
0.0007797217659
0.0008196137086
0.0008564640707
0.0008859165571
0.0009031751813
0.0007682179069
0.00078985081
0.0008207369275
0.0008586041641
0.0009006126755
0.000943305883
0.000982624742
0.001013968496
0.001032300547
0.0008896466212
0.0009127354596
0.0009456371046
0.0009858756471
0.001030389655
0.0010754984
0.001116928472
0.001149878658
0.001169118371
0.00102028939
0.001044614737
0.00107921831
0.001121443954
0.00116803883
0.001215134769
0.001258285898
0.001292535705
0.001312506212
0.001159073313
0.0011843943
0.001220359059
0.001264159661
0.001312386245
0.001361022571
0.001405492912
0.00144072957
0.001461251802
0.001304746028
0.001330814429
0.001367791972
0.001412750295
0.001462158837
0.001511893019
0.001557288479
0.001593207655
0.001614108229
0.001455946598
0.001482519856
0.001520171881
0.001565885996
0.001616047036
0.001666460178
0.001712410592
0.001748728117
0.001769845669
0.001611278262
0.001638130298
0.001676143093
0.001722242695
0.001772763348
0.001823474844
0.001869645888
0.001906106221
0.001927295939
0.001769375634
0.001796304654
0.001834399384
0.001880557077
0.00193109199
0.001981769159
0.00202786996
0.002064251447
0.002085387817
0.001928960593
0.00195579386
0.001993732683
0.00203967043
0.002089927691
0.002140290559
0.002186077177
0.002222194277
0.002243172219
0.002088884264
0.002115479949
0.002153068163
0.002198559204
0.002248301673
0.00229812361
0.002343399087
0.002379102156
0.00239983683
0.002248153318
0.002274399983
0.002311485026
0.002356352282
0.002405395425
0.00245450062
0.002499112491
0.002534285739
0.002554711387
0.002405941867
0.002431756255
0.002468224468
0.002512336479
0.002560543811
0.002608802658
0.002652638766
0.002687197043
0.002707265201
0.002561591321
0.002586915109
0.002622687158
0.002665952587
0.002713229752
0.00276055306
0.00280353647
0.002837421415
0.00285709878
0.002714601225
0.002739397299
0.002774423007
0.002816784543
0.002863072867
0.002909405653
0.002951489266
0.002984665254
0.003003931438
0.002864614124
0.002888862814
0.002923115963
0.002964544249
0.00300981439
0.003055129778
0.003096291039
0.00312874126
0.003147586645
0.00301139716
0.003035092722
0.003068566207
0.003109054144
0.003153300041
0.003197593712
0.00323782994
0.003269552824
0.003287976481
0.003154822392
0.003177969802
0.003210671283
0.003250229112
0.003293463111
0.003336748414
0.00337607242
0.003407078329
0.003425086209
0.003294847742
0.003317460095
0.003349408447
0.003388059559
0.00343030785
0.003472611543
0.003511047977
0.003541356443
0.003558959814
0.003431499517
0.003453595829
0.003484818107
0.003522595498
0.003563894435
0.003605253157
0.003642835442
0.003672472832
0.003689686943
0.003564856765
0.0035864602
0.003616989193
0.003653932614
0.003694325729
0.003734783125
0.003771550938
0.003800548517
0.003817391483
0.003695037851
0.00371617432
0.003746046624
0.00378220032
0.003821735935
0.003861340352
0.003897337582
0.003925729934
0.003942221825
0.003822189229
0.003842886305
0.003872140819
0.003907551759
0.003946281114
0.003985083766
0.004020356889
0.004048180644
0.004064342743
0.00394647626
0.003966762344
0.003995439112
0.004030155625
0.004068131412
0.004106184949
0.004140781739
0.00416807456
0.004183928769
0.004068075835
0.004087979524
0.004116118861
0.004150189584
0.004187464821
0.004224822211
0.004258790729
0.004285590516
0.004301158888
0.004187170564
0.004206720176
0.004234361997
0.004267835081
0.004304462251
0.004341175918
0.004374563732
0.004400908001
0.004416212371
0.004303944262
0.004323167482
0.004350350806
0.004383273317
0.004419303709
0.004455424884
0.004488278472
0.004514203875
0.004529265577
0.004418578515
0.004437502134
0.004464264716
0.004496682186
0.004532165415
0.004567743638
0.004600107936
0.004625649902
0.00464048956
0.004531250112
0.004549899836
0.0045762779
0.004608234008
0.004643217649
0.004678300415
0.004710218486
0.004735410959
0.004750048321
0.00464212918
0.004660529502
0.00468655755
0.004718093888
0.00475262323
0.00478725573
0.00481876853
0.004843643775
0.004858097611
0.004751377882
0.004769551988
0.004795262677
0.004826418596
0.004860536471
0.004894761421
0.004925907641
0.004950496125
0.004964784146
0.004859149546
0.004877119264
0.004902543327
0.004933355846
0.004967102525
0.005000960066
0.005031776042
0.005056106356
0.005070245177
0.004965588153
0.004983373924
0.005008540136
0.005039043897
0.005072457046
0.005105984693
0.005136504362
0.005160603194
0.005174608313
0.005070828086
0.005088448967
0.005113384137
0.005143611404
0.005176726077
0.005209958723
0.005240213626
0.005264105762
0.005277991563
0.005174994108
0.00519246778
0.005217196777
0.005247177457
0.005280026131
0.005312996082
0.005343015401
0.005366723755
0.005380503526
0.005278201464
0.005295544266
0.005320090061
0.005349851771
0.005382464417
0.005415201462
0.005445012079
0.005468557742
0.005482243707
0.005380556161
0.005397783137
0.005422166873
0.005451735014
0.005484139173
0.005516670662
0.005546297243
0.005569699554
0.005583302913
0.005482155345
0.005499280291
0.005523521346
0.005552919182
0.005585140064
0.005617491019
0.005646956112
0.005670232738
0.005683763718
0.005583087683
0.005600123202
0.005624239271
0.005653488039
0.005685548646
0.005717741879
0.005747066027
0.005770233051
0.005783700954
0.005683433816
0.005700391387
0.005724398582
0.005753517607
0.005785438856
0.005817495097
0.005846696955
0.005869768972
0.005883182235
0.005783266865
0.005800156908
0.005824069853
0.005853076666
0.005884877519
0.005916815549
0.005945912006
0.00596890222
0.005982268472
0.005882652926
0.005899484878
0.005923316805
0.005952227264
0.005983924863
0.00601576165
0.006044767952
0.006067688278
0.006081014398
0.005981651587
0.005998433966
0.006022196819
0.006051025227
0.006082635027
0.006114385857
0.006143315734
0.006166176893
0.006179469068
0.006080316429
0.006097056904
0.006120761432
0.006149520658
0.006181056557
0.006212735169
0.006241600952
0.006264412566
0.006277676347
0.006178695507
0.006195400967
0.006219056822
0.006247758418
0.006279232882
0.006310851593
0.00633966433
0.006362435018
0.006375675373
0.006276831825
0.006293508444
0.006317124273
0.00634577858
0.006377202766
0.006408772595
0.006437542164
0.006460279626
0.006473500993
0.006374763783
0.006391417078
0.006415000609
0.006443616868
0.006475000739
0.006506531519
0.006535266733
0.006557977835
0.006571184167
0.00647252559
0.006489160484
0.00651271861
0.006541305057
0.006572657493
0.006604157982
0.006632866683
0.006655557534
0.006668752349
0.006570147665
0.006586768542
0.006610307395
0.006638871359
0.006670200252
0.006701678235
0.00673036739
0.006753043412
0.006766229831
0.006667657
0.006684267752
0.006707792778
0.006736340763
0.006767653118
0.006799115496
0.00682779128
0.006850457278
0.006863638064
0.006765077495
0.006781681571
0.006805197596
0.006833735362
0.00686503738
0.00689649026
0.006925158135
0.006947818355
0.006960995949
0.006862430266
0.006879030719
0.006902542008
0.006931074646
0.006962371802
0.006993820576
0.00702248536
0.007045143546
0.007058320101
0.006959733935
0.006976333454
0.006999843769
0.007028375768
0.007059672887
0.007091122302
0.007119788234
0.00714244768
0.007155625087
0.007057004877
0.00707360583
0.007097118481
0.007125653785
0.007156955107
0.007188409332
0.007217080133
0.007239743728
0.007252923645
0.007154257461
0.007170861928
0.007194379816
0.007222921882
0.007254231122
0.007285693806
0.007314372731
0.007337042999
0.007350226876
0.00725150426
0.007268114056
0.007291639719
0.00732019157
0.007351511969
0.007382986296
0.007411676183
0.007434355324
0.007447544422
0.007348756237
0.007365372945
0.007388908592
0.007417472857
0.007448807236
0.007480295972
0.007508999284
0.007531689207
0.007544884619
0.00744602292
0.007462647914
0.00748619546
0.007514774419
0.007546125219
0.007577630758
0.007606349623
0.007629051974
0.007642254643
0.007543312552
0.00755994702
0.007583508119
0.007612103735
0.007643473059
0.007674997458
0.007703733705
0.007726449897
0.007739660633
0.007640632236
0.007657277193
0.007680853264
0.007709467221
0.007740856867
0.007772401885
0.007801157074
0.007823888312
0.007837107802
0.007737988049
0.007754644365
0.007778236614
0.007806870343
0.007838281839
0.007869848966
0.007898624416
0.007921371718
0.007934600543
0.007835385159
0.007852053567
0.007875663013
0.00790431772
0.007935752351
0.007967342837
0.007996139655
0.008018903869
0.008032142514
0.007932827924
0.007949509036
0.007973136529
0.008001813217
0.00803327205
0.008064886932
0.00809370603
0.008116487857
0.00812973672
0.008030319976
0.008047014296
0.008070660535
0.008099360029
0.008130843936
0.008162484057
0.008191326176
0.008214126184
0.008227385587
0.008127864303
0.008144572239
0.008168237789
0.00819696075
0.008228470429
0.008260136463
0.00828900219
0.008311820825
0.00832509102
0.008225463318
0.008242185193
0.008265870495
0.008294617442
0.008326153435
0.0083578459
0.008386735686
0.008409573288
0.008422854466
0.008323118922
0.00833985498
0.00836356037
0.00839233169
0.008423894401
0.008455613678
0.008484527849
0.008507384663
0.008520676961
0.008420832561
0.008437582977
0.008461308693
0.008490104658
0.008521694364
0.008553440712
0.008582379485
0.008605255668
0.008618559172
0.008518605273
0.008535370159
0.008559116352
0.008587937131
0.008619553999
0.008651327565
0.008680291057
0.008703186692
0.008716501444
0.008616437732
0.008633217148
0.008656983889
0.008685829557
0.008717473653
0.008749274484
0.008778262725
0.008801177823
0.008814503827
0.00871433029
0.008731124241
0.008754911535
0.008783782082
0.00881545338
0.008847281437
0.008876294374
0.008899228886
0.008912566109
0.008812283007
0.008829091456
0.00885289924
0.008881794582
0.008913492976
0.008945348136
0.008974385646
0.008997339464
0.00901068784
0.008910295679
0.008927118547
0.008950946703
0.008979866686
0.009011591994
0.009043474062
0.009072535955
0.009095508922
0.009108868355
0.009008367869
0.009025205039
0.009049053396
0.009077997803
0.009109749775
0.009141658487
0.009170744512
0.009193736422
0.009207106789
0.00910649892
0.00912335024
0.009147218579
0.009176187134
0.009207965457
0.009239900486
0.009269010335
0.009292020938
0.009305402091
0.009204687975
0.009221553262
0.009245441316
0.009274433689
0.009306237989
0.009338198949
0.00936733226
0.009390361263
0.009403753028
0.009302933987
0.009319813025
0.009343720485
0.009372736291
0.009404566137
0.009436552584
0.009465708941
0.009488756008
0.009502158189
0.009401235723
0.009418128266
0.009442054779
0.009471093581
0.009502948483
0.009534959914
0.00956413885
0.009587203604
0.009600615977
0.009499591766
0.009516497538
0.009540442705
0.009569504013
0.009601383422
0.009633419272
0.009662620262
0.009685702281
0.009699124598
0.009598000505
0.009614919196
0.009638882574
0.009667965838
0.009699869141
0.009731928781
0.00976115124
0.009784250053
0.009797682035
0.009696460121
0.009713391385
0.009737372476
0.009766477085
0.009798403596
0.009830486323
0.009859729596
0.009882844677
0.009896286013
0.009794968556
0.009811912005
0.009835910255
0.009865035522
0.009896984473
0.009929089499
0.009958352852
0.009981483607
0.009994933948
0.009893523471
0.009910478671
0.009934493454
0.009963638607
0.009995609131
0.01002773556
0.01005701817
0.01008016392
0.01009362287
0.009992122192
0.01000908865
0.01003311925
0.01006228341
0.01009427452
0.01012642135
0.01015572224
0.01017888224
0.01019234934
0.01009076162
0.01010773877
0.01013178438
0.01016096654
0.0101929771
0.01022514314
0.01025446123
0.01027763456
0.01029110928
0.01018943814
0.01020642532
0.010230485
0.01025968397
0.01029171265
0.01032389653
0.01035323053
0.01037641616
0.01038989787
0.01028814746
0.0103051439
0.01032921652
0.01035843092
0.01039047615
0.01042267625
0.01045202463
0.0104752213
0.01048870927
0.01038688443
0.0104038892
0.01042797343
0.01045720161
0.01048926152
0.01052147589
0.0105508368
0.01057404302
0.01058753635
0.0104856428
0.0105026548
0.01052674905
0.01055598899
0.01058806132
0.01062028759
0.01064965881
0.01067287276
0.01068637035
0.01058441494
0.01060143283
0.01062553514
0.01065478442
0.01068686639
0.01071910168
0.01074848048
0.01077169992
0.01078520045
0.01068319146
0.01070021358
0.01072432156
0.01075357718
0.0107856654
0.01081790615
0.01084728917
0.01087051134
0.01088401316
0.01078196073
0.01079898505
0.01082309574
0.01085235401
0.01088444426
0.0109166861
0.01094606918
0.01096929068
0.01098279173
0.01088070834
0.01089773234
0.01092184208
0.01095109842
0.01098318551
0.01101542299
0.01104480096
0.01106801757
0.01108151533
0.01097941644
0.01099643699
0.01102054126
0.01104979
0.01108186747
0.01111409383
0.01114346031
0.01116666677
0.01118015809
0.01107806294
0.01109507616
0.01111916935
0.01114840346
0.01118046331
0.01121267021
0.01124201727
0.01126520709
0.01127868809
0.0111766206
0.01119362172
0.01121769689
0.01124690767
0.01127894003
0.01131111715
0.01134043502
0.0113636002
0.01137706607
0.011275056
0.01129203912
0.01131608773
0.01134526451
0.01137725724
0.01140939191
0.01143866858
0.01146179928
0.01147524413
0.0113733284
0.01139028631
0.0114142979
0.01144342761
0.01147536585
0.01150744258
0.01153666339
0.01155974763
0.01157316428
0.01147138844
0.01148831235
0.0115122742
0.01154134095
0.01157320668
0.01160520667
0.01163435386
0.0116573771
0.01167075686
0.01156917682
0.01158605612
0.01160995288
0.01163893749
0.01167070897
0.01170260959
0.01173166179
0.01175460657
0.01176793901
0.01166662291
0.01168344487
0.01170725813
0.01173613766
0.01176778892
0.01179956316
0.0118284949
0.01185134044
0.01186461313
0.01176364329
0.0117803928
0.01180410072
0.01183284798
0.01186434825
0.01189596418
0.01192474537
0.01194746715
0.01196066547
0.01186014047
0.01187679974
0.01190037666
0.01192895968
0.01196027288
0.01199169311
0.0120202886
0.01204285801
0.0120559649
0.01195600155
0.01197254986
0.0119959659
0.01202434758
0.01205543187
0.01208661308
0.01211498219
0.0121373662
0.012150362
0.0120510972
0.0120675107
0.01209073149
0.01211886917
0.01214967654
0.01218056912
0.01220866537
0.01223082627
0.01224368858
0.01214528094
0.01216153243
0.01218451885
0.01221236408
0.01224284007
0.01227338789
0.01230115878
0.01232305406
0.01233575765
0.01223838869
0.01225444757
0.01227715564
0.01230465401
0.01233473765
0.01236487795
0.01239226492
0.01241384728
0.01242636412
0.01233023888
0.01234607111
0.012368452
0.01239554324
0.01242516707
0.01245483064
0.01248176925
0.01250298674
0.01251528612
0.01242063306
0.01243620131
0.01245820152
0.01248481971
0.01251391016
0.01254302168
0.01256944202
0.01259023842
0.01260228719
0.0125093572
0.01252462105
0.01254618277
0.01257225687
0.01260073485
0.0126292136
0.01265504094
0.01267535637
0.01268711928
0.01259618363
0.01261109998
0.01263216171
0.01265761627
0.01268539807
0.01271315888
0.01273831466
0.01275808634
0.01276952659
0.01268087374
0.01269539739
0.0127158947
0.01274065097
0.01276764943
0.01279460399
0.01281900707
0.01283817043
0.01284925027
0.01276318146
0.01277726578
0.01279713239
0.01282110958
0.01284723568
0.01287329413
0.01289686233
0.01291535225
0.01292603378
0.01284285744
0.01285645525
0.01287562429
0.01289874117
0.01292390582
0.01294897868
0.01297163057
0.0129893829
0.01299962897
0.01291965388
0.01293271848
0.01295112396
0.01297330071
0.01299741677
0.01302141708
0.01304307407
0.01306002726
0.01306980244
0.01299332997
0.01300581627
0.01302339469
0.01304455493
0.01306753957
0.01309038525
0.01311097371
0.0131270706
0.01313634224
0.01306365772
0.01307552346
0.0130922156
0.01311228856
0.01313406561
0.01315568191
0.01317513551
0.01319032514
0.01319906444
0.01313042809
0.01314163512
0.01315738786
0.01317631055
0.01319681302
0.013217135
0.01323539693
0.01324963634
0.01325781938
0.01319345709
0.01320397265
0.01321874074
0.0132364602
0.01325563262
0.01327460756
0.01329163275
0.01330488869
0.01331249743
0.01325259171
0.01326238963
0.01327613744
0.01329261277
0.01331041339
0.01332800297
0.01334376002
0.01335601057
0.01336303388
0.01330771541
0.01331677721
0.01332948019
0.01334468431
0.01336108703
0.01337726915
0.01339174174
0.01340297657
0.01340940966
0.01335875283
0.0133670686
0.01337871452
0.01339263561
0.01340763123
0.01342240035
0.01343558701
0.01344580796
0.01345165349
0.01340567358
0.0134132426
0.01342383216
0.01343647361
0.01345006948
0.01346343741
0.01347535302
0.01348457493
0.01348984309
0.0134484931
0.01345532348
0.01346487003
0.01347625119
0.01348847254
0.01350046893
0.01351114448