/*--------------------------------*- C++ -*----------------------------------*\
| =========                 |                                                 |
| \\      /  F ield         | OpenFOAM: The Open Source CFD Toolbox           |
|  \\    /   O peration     | Version:  2212                                  |
|   \\  /    A nd           | Website:  www.openfoam.com                      |
|    \\/     M anipulation  |                                                 |
\*---------------------------------------------------------------------------*/
FoamFile
{
    version     2.0;
    format      ascii;
    arch        "LSB;label=32;scalar=64";
    class       volScalarField;
    location    "20.00000000";
    object      AC3H4_0;
}
// * * * * * * * * * * * * * * * * * * * * * * * * * * * * * * * * * * * * * //

dimensions      [0 0 0 0 0 0 0];

internalField   nonuniform List<scalar> 
3000
(
2.753388514e-21
3.092919893e-21
3.605233726e-21
4.287878457e-21
5.133898194e-21
6.120336006e-21
7.187811835e-21
8.206479818e-21
8.926757132e-21
1.033735641e-20
1.165888237e-20
1.3652053e-20
1.631377865e-20
1.964135342e-20
2.36165339e-20
2.817042813e-20
3.307458837e-20
3.741783804e-20
2.315567203e-20
2.632116806e-20
3.114105107e-20
3.768481498e-20
4.606986359e-20
5.641811479e-20
6.868861159e-20
8.219422323e-20
9.373338474e-20
4.410595431e-20
5.066082048e-20
6.07880095e-20
7.482974161e-20
9.328313417e-20
1.166174449e-19
1.447052366e-19
1.753015832e-19
1.999948858e-19
7.832348286e-20
9.106847937e-20
1.11069694e-19
1.393427045e-19
1.772168941e-19
2.257544389e-19
2.841439976e-19
3.461550522e-19
3.937564731e-19
1.346875031e-19
1.586096863e-19
1.966904611e-19
2.513598883e-19
3.255339119e-19
4.21080233e-19
5.351444803e-19
6.533450196e-19
7.407919929e-19
2.286607026e-19
2.72604057e-19
3.433706627e-19
4.461108845e-19
5.86544019e-19
7.674613829e-19
9.813773166e-19
1.198716944e-18
1.355536011e-18
3.869873184e-19
4.665093771e-19
5.957094372e-19
7.847325158e-19
1.044114254e-18
1.377583437e-18
1.768402621e-18
2.159684818e-18
2.437296119e-18
6.56018387e-19
7.983986875e-19
1.031215706e-18
1.373548559e-18
1.844126707e-18
2.447456324e-18
3.149443237e-18
3.844945373e-18
4.332957338e-18
1.116045454e-18
1.368965372e-18
1.784417163e-18
2.39725211e-18
3.240162962e-18
4.318008038e-18
5.565156291e-18
6.791753213e-18
7.646065463e-18
1.906311566e-18
2.352997052e-18
3.089048946e-18
4.17697198e-18
5.673343624e-18
7.582465282e-18
9.782393627e-18
1.193513992e-17
1.342719657e-17
3.268466307e-18
4.054073388e-18
5.351425971e-18
7.271351412e-18
9.911424911e-18
1.327353198e-17
1.713606215e-17
2.090258127e-17
2.350515156e-17
5.622189368e-18
6.999850454e-18
9.278367633e-18
1.265286221e-17
1.729138639e-17
2.318941568e-17
2.994904723e-17
3.652357571e-17
4.106316068e-17
9.696463375e-18
1.210752736e-17
1.609956666e-17
2.201486108e-17
3.014300901e-17
4.046368251e-17
5.226043317e-17
6.36948301e-17
7.164196191e-17
1.675692468e-17
2.097041603e-17
2.795293985e-17
3.830486096e-17
5.252814141e-17
7.056757342e-17
9.111010989e-17
1.108130888e-16
1.249163993e-16
2.899887897e-17
3.635250943e-17
4.854782742e-17
6.663915895e-17
9.151187977e-17
1.231084864e-16
1.593027057e-16
1.946039238e-16
2.183331206e-16
5.022762344e-17
6.304294605e-17
8.430475591e-17
1.158515713e-16
1.592142454e-16
2.142487264e-16
2.771245662e-16
3.380217224e-16
3.796695253e-16
8.704198478e-17
1.093477441e-16
1.463630025e-16
2.012837263e-16
2.767526212e-16
3.72473817e-16
4.817208024e-16
5.874074133e-16
6.598219048e-16
1.508908564e-16
1.89681162e-16
2.540608648e-16
3.495825999e-16
4.808184065e-16
6.472137277e-16
8.37038717e-16
1.020601942e-15
1.14635941e-15
2.616445117e-16
3.29064161e-16
4.40972731e-16
6.070175601e-16
8.351212972e-16
1.124277865e-15
1.454063586e-15
1.772881899e-15
1.991246055e-15
4.537956288e-16
5.709348109e-16
7.653910204e-16
1.053924959e-15
1.450275121e-15
1.95264031e-15
2.52548151e-15
3.079149322e-15
3.458287946e-15
7.872273318e-16
9.907109681e-16
1.328528479e-15
1.829793539e-15
2.518334161e-15
3.390945106e-15
4.38580968e-15
5.347193596e-15
6.005428482e-15
1.365915066e-15
1.719346128e-15
2.306131654e-15
3.176829789e-15
4.372764561e-15
5.888248154e-15
7.615783934e-15
9.28489597e-15
1.042757675e-14
2.370411078e-15
2.984244969e-15
4.003389668e-15
5.515617733e-15
7.592579636e-15
1.022419269e-14
1.322356029e-14
1.61210618e-14
1.810447764e-14
4.114271135e-15
5.180334052e-15
6.950300104e-15
9.576490843e-15
1.318308469e-14
1.775220355e-14
2.295898556e-14
2.798812831e-14
3.143039503e-14
7.142047154e-15
8.993474083e-15
1.206723781e-14
1.662754871e-14
2.288945786e-14
3.082113584e-14
3.985792879e-14
4.85847049e-14
5.455706628e-14
1.23994496e-14
1.561474901e-14
2.095238298e-14
2.887034193e-14
3.974063631e-14
5.350615875e-14
6.918526152e-14
8.432228864e-14
9.467926933e-14
2.152874059e-14
2.711244279e-14
3.638052405e-14
5.012614498e-14
6.899177154e-14
9.287390949e-14
1.200654518e-13
1.463066982e-13
1.642553286e-13
3.738101648e-14
4.70770091e-14
6.316754854e-14
8.702451657e-14
1.197548583e-13
1.611685353e-13
2.082955264e-13
2.537504506e-13
2.848256935e-13
6.490367042e-14
8.173811254e-14
1.096667853e-13
1.51058489e-13
2.078143386e-13
2.795796181e-13
3.611838549e-13
4.398314464e-13
4.935606505e-13
1.126752767e-13
1.418958031e-13
1.903537672e-13
2.621298416e-13
3.604747999e-13
4.847142689e-13
6.258401767e-13
7.617053043e-13
8.544298591e-13
1.955542827e-13
2.462509695e-13
3.302785651e-13
4.546448655e-13
6.248758389e-13
8.396649874e-13
1.083305123e-12
1.317515568e-12
1.477134889e-12
3.392367064e-13
4.271307924e-13
5.727074062e-13
7.879515426e-13
1.082183759e-12
1.452828211e-12
1.872474395e-12
2.275080873e-12
2.548947798e-12
5.880707733e-13
7.402922182e-13
9.921780518e-13
1.364115201e-12
1.871664535e-12
2.509674044e-12
3.230280714e-12
3.919843278e-12
4.387745297e-12
1.018398229e-12
1.281626431e-12
1.716679174e-12
2.357995325e-12
3.231210853e-12
4.325918988e-12
5.558529841e-12
6.734163848e-12
7.529365537e-12
1.761215278e-12
2.215457384e-12
2.96507717e-12
4.067739902e-12
5.564958944e-12
7.435617975e-12
9.533819813e-12
1.152686535e-11
1.286967489e-11
3.040437862e-12
3.822158486e-12
5.109776759e-12
6.99878696e-12
9.554930635e-12
1.273540648e-11
1.62860072e-11
1.964198481e-11
2.189236619e-11
5.237086854e-12
6.577658878e-12
8.780686233e-12
1.200215796e-11
1.634319576e-11
2.171760188e-11
2.768388894e-11
3.329020641e-11
3.702872728e-11
8.996149794e-12
1.128505034e-11
1.503597667e-11
2.049949642e-11
2.782523561e-11
3.684155539e-11
4.678562532e-11
5.606691289e-11
6.221696223e-11
1.540302973e-11
1.929035772e-11
2.563943774e-11
3.484463641e-11
4.711577816e-11
6.211636632e-11
7.853782553e-11
9.374917536e-11
1.037581363e-10
2.627226045e-11
3.283261464e-11
4.350557707e-11
5.889670951e-11
7.927766197e-11
1.040011843e-10
1.308436175e-10
1.555029194e-10
1.716061966e-10
4.461525299e-11
5.560547592e-11
7.340484364e-11
9.891582392e-11
1.32445239e-10
1.727749477e-10
2.161697932e-10
2.556846088e-10
2.812846403e-10
7.538996225e-11
9.364744708e-11
1.230662416e-10
1.649429781e-10
2.195303983e-10
2.845898099e-10
3.539309878e-10
4.164942447e-10
4.566976959e-10
1.266884774e-10
1.567353374e-10
2.048780514e-10
2.728961391e-10
3.607768808e-10
4.645077005e-10
5.739815164e-10
6.718355546e-10
7.342069126e-10
2.1159503e-10
2.605370855e-10
3.384758099e-10
4.477111085e-10
5.875346753e-10
7.509359004e-10
9.21672299e-10
1.07287492e-09
1.168485142e-09
3.51054795e-10
4.298937599e-10
5.546285823e-10
7.279881902e-10
9.477713608e-10
1.202036856e-09
1.46510395e-09
1.695976291e-09
1.840852844e-09
5.782431089e-10
7.037566964e-10
9.010011831e-10
1.172786433e-09
1.514035586e-09
1.90490546e-09
2.305444513e-09
2.653942827e-09
2.871064738e-09
9.451280043e-10
1.14251806e-09
1.450596621e-09
1.871453588e-09
2.394858615e-09
2.988604562e-09
3.591503754e-09
4.111840676e-09
4.433872172e-09
1.532192993e-09
1.838760041e-09
2.313990391e-09
2.957715036e-09
3.750948452e-09
4.642553937e-09
5.540194647e-09
6.309147069e-09
6.782170308e-09
2.462655136e-09
2.932835032e-09
3.656884682e-09
4.629699954e-09
5.818031063e-09
7.142315574e-09
8.465105695e-09
9.590595053e-09
1.027919171e-08
3.923009107e-09
4.635212702e-09
5.725075216e-09
7.178199527e-09
8.938869291e-09
1.088555707e-08
1.281620718e-08
1.444893833e-08
1.544308591e-08
6.192399901e-09
7.258241986e-09
8.879691331e-09
1.102628737e-08
1.360790123e-08
1.644196695e-08
1.923478559e-08
2.158399765e-08
2.300841118e-08
9.684243297e-09
1.126095284e-08
1.36466208e-08
1.678456508e-08
2.053316174e-08
2.462221739e-08
2.862913385e-08
3.198387533e-08
3.40106622e-08
1.500476386e-08
1.731188466e-08
2.0785498e-08
2.532785108e-08
3.072178846e-08
3.65728001e-08
4.227840346e-08
4.703628378e-08
4.990210993e-08
2.303349561e-08
2.637501189e-08
3.138381359e-08
3.789997168e-08
4.559734272e-08
5.390658173e-08
6.197546255e-08
6.868131755e-08
7.271031044e-08
3.503506667e-08
3.982927324e-08
4.698779325e-08
5.62587956e-08
6.716083147e-08
7.888053127e-08
9.022076212e-08
9.961869108e-08
1.052534984e-07
5.281365328e-08
5.963311009e-08
6.978157429e-08
8.287396053e-08
9.820989624e-08
1.146376898e-07
1.304860501e-07
1.435892877e-07
1.514327585e-07
7.892386918e-08
8.854880333e-08
1.028312526e-07
1.211959038e-07
1.426366184e-07
1.655353561e-07
1.875715318e-07
2.057561233e-07
2.166271728e-07
1.169576912e-07
1.304473178e-07
1.504159864e-07
1.760202557e-07
2.058302567e-07
2.375883117e-07
2.680877523e-07
2.932180531e-07
3.082266414e-07
1.719325354e-07
1.907201825e-07
2.184747643e-07
2.539788467e-07
2.952192417e-07
3.390647563e-07
3.81103266e-07
4.157002543e-07
4.363480967e-07
2.508125619e-07
2.768322617e-07
3.152053192e-07
3.641972093e-07
4.209964074e-07
4.81283583e-07
5.390113693e-07
5.864785585e-07
6.147945016e-07
3.632030799e-07
3.990574844e-07
4.518605822e-07
5.191684451e-07
5.970828855e-07
6.796745646e-07
7.586834737e-07
8.236104563e-07
8.623329035e-07
5.222660233e-07
5.714482568e-07
6.437976684e-07
7.359041847e-07
8.42398249e-07
9.551766123e-07
1.062992276e-06
1.151563366e-06
1.204386915e-06
7.459123761e-07
8.130976849e-07
9.118433842e-07
1.037432926e-06
1.182514893e-06
1.336061326e-06
1.482802156e-06
1.603347198e-06
1.675257329e-06
1.058333347e-06
1.14975938e-06
1.284045473e-06
1.454721067e-06
1.651780076e-06
1.860275269e-06
2.05953143e-06
2.223266872e-06
2.320994321e-06
1.491932584e-06
1.615889162e-06
1.797877198e-06
2.029089013e-06
2.295984253e-06
2.578387273e-06
2.848381741e-06
3.07039914e-06
3.203032295e-06
2.089715129e-06
2.257164696e-06
2.502951707e-06
2.815179049e-06
3.175632503e-06
3.557197638e-06
3.92229135e-06
4.222850545e-06
4.402644626e-06
2.908173992e-06
3.133520577e-06
3.464278078e-06
3.884498548e-06
4.369830812e-06
4.884005182e-06
5.37658928e-06
5.782754034e-06
6.026162043e-06
4.020689304e-06
4.322704911e-06
4.766050343e-06
5.329507718e-06
5.980725545e-06
6.671430134e-06
7.334200069e-06
7.881804747e-06
8.210719867e-06
5.521415115e-06
5.92431514e-06
6.515899012e-06
7.26814023e-06
8.138328263e-06
9.062553559e-06
9.951077217e-06
1.068693172e-05
1.113007394e-05
7.52956622e-06
8.064196792e-06
8.849442797e-06
9.848528917e-06
1.100541194e-05
1.223595493e-05
1.34213336e-05
1.440547038e-05
1.499978261e-05
1.019391877e-05
1.089897564e-05
1.19348431e-05
1.32535453e-05
1.478196873e-05
1.641000187e-05
1.798128474e-05
1.928894025e-05
2.008082125e-05
1.369718962e-05
1.462032923e-05
1.597687678e-05
1.770454719e-05
1.970847492e-05
2.184546572e-05
2.391130381e-05
2.563418015e-05
2.668021496e-05
1.825975827e-05
1.945839175e-05
2.121981781e-05
2.346349237e-05
2.606695863e-05
2.884528406e-05
3.153409709e-05
3.377993099e-05
3.514595018e-05
2.414196317e-05
2.568345657e-05
2.794819791e-05
3.083237535e-05
3.417874374e-05
3.775029633e-05
4.1207988e-05
4.409774626e-05
4.585708024e-05
3.164398003e-05
3.360493535e-05
3.648434557e-05
4.014883964e-05
4.439767564e-05
4.892935085e-05
5.331409776e-05
5.697759476e-05
5.920841862e-05
4.11021529e-05
4.3566436e-05
4.718159799e-05
5.177686051e-05
5.709723587e-05
6.276322363e-05
6.823755547e-05
7.28059218e-05
7.558587877e-05
5.288069582e-05
5.593585718e-05
6.041171499e-05
6.609073833e-05
7.265191474e-05
7.962302503e-05
8.634256748e-05
9.193836662e-05
9.533835813e-05
6.735683701e-05
7.108862951e-05
7.654608193e-05
8.345422669e-05
9.141284058e-05
9.98426376e-05
0.0001079426179
0.0001146681745
0.0001187451212
8.490029491e-05
8.938613561e-05
9.593215501e-05
0.0001041942451
0.0001136798535
0.0001236888451
0.0001332686596
0.0001411935285
0.000145982892
0.0001058476842
0.0001111488823
0.0001188652799
0.0001285715947
0.0001396705227
0.0001513297951
0.0001624381697
0.0001715874312
0.0001770965065
0.0001304723324
0.0001366258572
0.0001455574842
0.0001567499076
0.0001694902421
0.0001828069786
0.000195429153
0.0002057741208
0.0002119771039
0.0001589520911
0.0001659629964
0.0001761075198
0.0001887671008
0.0002031063666
0.0002180127822
0.0002320623644
0.0002435154299
0.0002503512036
0.0001913381219
0.0001991734817
0.0002104733731
0.0002245123026
0.0002403301504
0.000256678303
0.0002719948801
0.0002844096525
0.0002917829841
0.000227528389
0.0002361138743
0.0002484525533
0.0002637110273
0.0002808083938
0.0002983723641
0.0003147263487
0.0003279040351
0.0003356909642
0.0002672495656
0.0002764694301
0.0002896724309
0.0003059220663
0.0003240275853
0.0003425130785
0.0003596178514
0.000373320102
0.0003813796277
0.000310050784
0.0003197516616
0.0003335932093
0.0003505469548
0.0003693303083
0.0003883909655
0.0004059206695
0.0004198830277
0.0004280513043
0.0003553119886
0.0003653104563
0.0003795252234
0.0003968531935
0.0004159438682
0.0004352015859
0.0004527994373
0.0004667287332
0.0004748337395
0.0004022686629
0.0004123619763
0.0004266611164
0.0004440115396
0.0004630177984
0.0004820657365
0.0004993584462
0.0005129613719
0.0005208340197
0.0004500530961
0.000460031127
0.0004741143114
0.0004911162775
0.0005096318275
0.0005280690076
0.0005446983007
0.0005576987401
0.0005651826392
0.0004977131296
0.0005073604121
0.0005209259917
0.000537221649
0.0005548642828
0.0005723203328
0.0005879627516
0.000600116734
0.000607076341
0.0005442528069
0.0005533698392
0.0005661422012
0.0005814092303
0.0005978418633
0.0006139973797
0.0006283807359
0.000639487953
0.0006458144795
0.0005887088476
0.0005971235507
0.0006088681872
0.0006228372794
0.0006377847925
0.0006523861005
0.0006653006998
0.0006752116898
0.0006808264238
0.0006302060056
0.0006377822706
0.0006483167972
0.0006607834481
0.0006740433526
0.0006869108138
0.0006982148124
0.0007068335831
0.0007116886314
0.0006680039626
0.0006746465756
0.0006838466382
0.000694676663
0.0007061230377
0.0007171528106
0.0007267719095
0.0007340543712
0.0007381311343
0.0007015311478
0.000707186921
0.0007149868736
0.000724115817
0.0007336969544
0.0007428569305
0.0007507792713
0.0007567282891
0.0007600341888
0.0007304029164
0.0007350583878
0.0007414473582
0.0007488747213
0.0007566056499
0.0007639268799
0.0007701944283
0.0007748525386
0.0007774166039
0.0007544237885
0.000758100252
0.0007631147208
0.0007688944233
0.0007748458813
0.0007804110106
0.0007851087442
0.0007885495596
0.0007904174701
0.0007735753404
0.0007763220731
0.0007800361915
0.0007842647547
0.0007885502755
0.0007924808033
0.0007957254056
0.0007980449266
0.0007992740999
0.0007879928527
0.0007898798195
0.0007923952139
0.0007951996461
0.0007979626547
0.0008004064228
0.0008023353695
0.0008036437905
0.0008042988565
0.0007979362584
0.0007990469052
0.0008004827466
0.0008020089579
0.0008034106935
0.0008045304692
0.0008052923064
0.0008057068499
0.0008058557466
0.0008037578373
0.0008041826328
0.0008046668394
0.0008050695266
0.0008052786688
0.0008052425033
0.0008049887687
0.0008046278135
0.0008043386222
0.0008058704383
0.0008057015294
0.0008053635509
0.0008047979993
0.0008039823765
0.0008029560065
0.0008018349494
0.0008008135206
0.0008001520561
0.0008047187392
0.0008040458514
0.0008030111819
0.0008016270993
0.0007999475308
0.0007980888116
0.0007962408502
0.0007946673938
0.0007936954949
0.0008007550632
0.0007996626096
0.000798048951
0.000795986208
0.0007935923089
0.0007910474797
0.0007886022
0.0007865764796
0.0007853509052
0.0007944203937
0.000792985645
0.0007909005082
0.0007882865177
0.0007853141697
0.0007822156557
0.0007792900898
0.000776902004
0.0007754738194
0.0007861305502
0.0007844226674
0.0007819621343
0.0007789105478
0.0007754807056
0.000771946125
0.0007686440121
0.0007659731239
0.000764387478
0.0007762670524
0.0007743467815
0.0007715951496
0.0007682055336
0.0007644239848
0.0007605560484
0.0007569678503
0.0007540834576
0.0007523796409
0.0007651719196
0.0007630917426
0.0007601217768
0.0007564799811
0.0007524378276
0.0007483248735
0.0007445282993
0.000741489868
0.0007397015697
0.000753145586
0.0007509501815
0.0007478237822
0.0007440027685
0.000739777351
0.0007354942852
0.0007315551495
0.0007284129885
0.0007265686845
0.0007404471699
0.0007381740559
0.0007349431664
0.0007310041037
0.0007266601895
0.0007222696613
0.0007182429375
0.0007150390145
0.0007131624324
0.0007272963848
0.0007249766514
0.0007216842837
0.0007176777707
0.0007132688662
0.0007088225562
0.0007047535202
0.0007015223434
0.0006996329647
0.0007138765106
0.0007115355788
0.00070821687
0.0007041841896
0.000699753882
0.0006952938117
0.0006912192024
0.000687988715
0.0006861022836
0.0007003379646
0.0006979963278
0.0006946795718
0.0006906539142
0.0006862371749
0.00068179698
0.0006777461268
0.0006745385755
0.0006726675931
0.0006868021264
0.0006844760488
0.0006811836678
0.0006771912804
0.0006728156933
0.000668421821
0.0006644177055
0.0006612504587
0.0006594046518
0.0006733651686
0.0006710673264
0.0006678167614
0.0006638780049
0.0006595648925
0.000655237702
0.0006512979334
0.0006481842347
0.0006463709851
0.0006601017246
0.0006578417818
0.0006546462949
0.0006507765935
0.0006465420318
0.000642296786
0.0006384344812
0.0006353841291
0.000633608862
0.0006470682881
0.0006448534075
0.0006417227915
0.0006379334753
0.0006337891937
0.0006296369384
0.0006258615029
0.0006228814543
0.0006211479841
0.0006343062852
0.0006321415743
0.0006290827742
0.0006253818154
0.0006213359835
0.0006172843173
0.0006136021286
0.0006106970264
0.0006090078581
0.0006218447949
0.0006197336915
0.0006167513407
0.0006131439902
0.0006092018984
0.0006052556373
0.0006016706345
0.0005988432635
0.0005971998535
0.000609702916
0.0006076475178
0.000604744397
0.000601233729
0.0005973983691
0.0005935601142
0.0005900743018
0.000587325977
0.0005857289544
0.000597891796
0.0005958931398
0.0005930705657
0.0005896579374
0.0005859304942
0.0005822011112
0.0005788149832
0.0005761458768
0.0005745952304
0.0005864163464
0.0005844746425
0.0005817327928
0.0005784182304
0.0005747984922
0.0005711775112
0.0005678904052
0.0005652998185
0.0005637950512
0.000575276675
0.0005733915013
0.0005707296849
0.0005675122021
0.0005639989006
0.0005604848472
0.0005572952357
0.000554781823
0.000553322079
0.000564469266
0.0005626397275
0.0005600566062
0.0005569344671
0.0005535255556
0.0005501162195
0.0005470219469
0.0005445838969
0.0005431680649
0.0005539879438
0.0005522128031
0.0005497065711
0.0005466775006
0.0005433703774
0.0005400630305
0.0005370615045
0.0005346966861
0.0005333234811
0.0005438246447
0.000542102425
0.000539670953
0.000536732307
0.0005335239963
0.0005303155659
0.0005274039088
0.000525109986
0.0005237780143
0.000533970028
0.000532299097
0.0005299400474
0.0005270889483
0.0005239762413
0.0005208634463
0.0005180386128
0.0005158131347
0.0005145209443
0.0005244139611
0.0005227925957
0.0005205035118
0.000517736952
0.0005147165167
0.0005116959718
0.0005089548408
0.0005067953096
0.0005055414283
0.0005151458905
0.0005135723265
0.0005113507004
0.0005086656225
0.0005057340864
0.0005028023824
0.0005001418249
0.0004980457478
0.0004968287116
0.0005061551216
0.0005046275911
0.0005024709157
0.0004998642717
0.0004970182847
0.0004941720467
0.0004915889765
0.0004895539027
0.000488372277
0.0004974310268
0.0004959477858
0.0004938535924
0.0004913223878
0.0004885586671
0.000485794597
0.0004832860066
0.000481309554
0.0004801619473
0.0004889631948
0.0004875225433
0.0004854884282
0.0004830297529
0.0004803451145
0.0004776600205
0.0004752230054
0.0004733028784
0.0004721879523
0.0004807415344
0.0004793418299
0.0004773654731
0.0004749765218
0.0004723679013
0.0004697587168
0.0004673904912
0.0004655244916
0.0004644409663
0.0004727563429
0.0004713960086
0.0004694751854
0.0004671532709
0.0004646177362
0.000462081531
0.0004597794365
0.0004579654693
0.0004569121268
0.0004649983463
0.0004636758768
0.0004618084637
0.0004595510232
0.0004570857813
0.0004546197665
0.0004523812759
0.0004506173516
0.0004495930363
0.0004574587197
0.0004561726823
0.00045435666
0.000452161258
0.000449763656
0.0004473651853
0.0004451879024
0.0004434721361
0.0004424757541
0.0004501290916
0.0004488781269
0.0004471115798
0.0004449759069
0.0004426434309
0.0004403099979
0.0004381916547
0.0004365222636
0.0004355527806
0.0004430015379
0.0004417843581
0.0004400654719
0.0004379873417
0.0004357176124
0.0004334468464
0.0004313852982
0.0004297605974
0.0004288170365
0.000436068568
0.0004348839543
0.0004332110123
0.0004311883564
0.000428979124
0.0004267687832
0.0004247620034
0.0004231804008
0.0004222618395
0.0004293231056
0.000428169905
0.0004265412835
0.000424572146
0.0004224212828
0.0004202692481
0.000418315321
0.0004167753123
0.0004158808791
0.0004227584665
0.0004216355885
0.0004200497515
0.0004181322821
0.0004160377759
0.0004139420434
0.0004120391574
0.0004105393204
0.0004096681914
0.0004163683351
0.0004152747474
0.0004137302415
0.0004118626892
0.0004098226358
0.0004077813088
0.0004059277497
0.0004044667386
0.0004036181343
0.0004101467399
0.000409081465
0.0004075769133
0.0004057576197
0.0004037702154
0.0004017814975
0.0003999756414
0.0003985521812
0.0003977253632
0.0004040880294
0.0004030501405
0.000401584238
0.0003998116306
0.0003978751649
0.0003959373523
0.0003941776591
0.0003927905407
0.0003919848088
0.0003981868486
0.0003971754663
0.0003957469739
0.0003940195601
0.0003921324092
0.0003902438841
0.0003885288912
0.0003871769661
0.0003863916552
0.000392438117
0.0003914524055
0.0003900601458
0.0003883765067
0.0003865371266
0.0003846963508
0.000383024667
0.0003817068429
0.0003809413203
0.0003868370076
0.0003858761713
0.0003845190239
0.0003828778087
0.0003810847296
0.000379290238
0.0003776605386
0.0003763757749
0.0003756294378
0.0003813789271
0.0003804422081
0.0003791191047
0.0003775190258
0.0003757708462
0.0003740212418
0.000372432263
0.0003711795669
0.0003704518403
0.0003760594983
0.0003751461731
0.0003738560941
0.0003722959224
0.0003705913039
0.0003688852524
0.0003673357867
0.0003661142096
0.0003654045439
0.0003708745432
0.0003699839204
0.0003687258912
0.0003672044513
0.000365542114
0.0003638783389
0.0003623672314
0.0003611758656
0.0003604837348
0.000365820068
0.0003649514858
0.0003637245735
0.00036224074
0.0003606194582
0.000358996737
0.0003575228808
0.0003563608564
0.0003556857565
0.0003608922496
0.0003600450734
0.0003588483836
0.0003574010776
0.0003558196759
0.0003542368357
0.0003527991689
0.0003516656512
0.0003510070984
0.0003560874225
0.0003552610436
0.0003540937178
0.0003526819033
0.0003511392529
0.0003495951671
0.0003481926697
0.0003470868565
0.0003464443857
0.0003514020681
0.0003505959014
0.0003494571143
0.0003480797956
0.000346574811
0.0003450683964
0.0003437000869
0.0003426212065
0.0003419943704
0.0003468328042
0.0003460462866
0.0003449352442
0.0003435914627
0.0003421230992
0.0003406533125
0.000339318246
0.000338265555
0.0003376539226
0.0003423763758
0.000341608965
0.0003405249022
0.0003392137344
0.000337780985
0.0003363468207
0.0003350440859
0.0003340168675
0.0003334200232
0.0003380296466
0.0003372808196
0.0003362229986
0.0003349435537
0.0003335454469
0.0003321459348
0.0003308746525
0.0003298722148
0.0003292897572
0.0003337895918
0.0003330588438
0.0003320265524
0.0003307779702
0.000329413568
0.000328047771
0.0003268070916
0.0003258287662
0.0003252603076
0.0003296532912
0.0003289401344
0.0003279326844
0.0003267141337
0.0003253825294
0.0003240495416
0.0003228386439
0.0003218837843
0.0003213289497
0.000325617923
0.0003249218858
0.0003239386115
0.0003227492885
0.000321449605
0.00032014855
0.0003189666393
0.00031803462
0.0003174930466
0.0003216807582
0.0003210013842
0.0003200416416
0.0003188807681
0.0003176121564
0.0003163421858
0.0003151884926
0.0003142787078
0.0003137500441
0.0003178391559
0.0003171760032
0.0003162391683
0.0003151059908
0.0003138676285
0.0003126279202
0.000311501699
0.0003106135617
0.000310097467
0.0003140905584
0.0003134431986
0.0003125286671
0.0003114224552
0.0003102135452
0.0003090033023
0.0003079038303
0.0003070367714
0.0003065329155
0.0003104324873
0.0003098005053
0.0003089076911
0.0003078277364
0.0003066475057
0.0003054659555
0.0003043925317
0.000303545999
0.0003030540614
0.0003068625399
0.0003062455329
0.0003053738673
0.0003043194829
0.0003031671814
0.0003020135741
0.000300965518
0.0003001389758
0.0002996586455
0.0003033783854
0.0003027759626
0.0003019248938
0.0003008954128
0.0002997703126
0.0002986439201
0.0002976205714
0.0002968134995
0.0002963444746
0.0002999777623
0.0002993895441
0.0002985585365
0.0002975533115
0.0002964547057
0.0002953548213
0.0002943555386
0.0002935674317
0.0002931094191
0.0002966584753
0.0002960840933
0.0002952726265
0.0002942910286
0.0002932182308
0.000292144168
0.0002911683283
0.0002903986958
0.0002899514105
0.0002934183927
0.000292857489
0.0002920650577
0.0002911064761
0.0002900588193
0.0002890099111
0.0002880569092
0.0002873052742
0.0002868684395
0.0002902554445
0.0002897076712
0.0002889337845
0.0002879976257
0.000286974462
0.0002859500603
0.0002850193081
0.0002842852075
0.0002838585545
0.00028716762
0.0002866326393
0.0002858768199
0.0002849625073
0.000283963207
0.0002829626823
0.0002820536084
0.000281336592
0.0002809198594
0.000284152966
0.0002836304495
0.0002828922339
0.0002819992073
0.0002810231586
0.000280045899
0.0002791579481
0.0002784575787
0.0002780505127
0.0002812095853
0.0002806992141
0.0002799781519
0.0002791058667
0.0002781524753
0.0002771978864
0.0002763305193
0.000275646372
0.0002752487261
0.0002783356352
0.0002778370994
0.000277132753
0.0002762806804
0.000275349369
0.0002744168736
0.0002735695666
0.000272901229
0.0002725127638
0.0002755293266
0.000275042325
0.0002743542696
0.0002735218961
0.0002726121042
0.0002717011419
0.0002708733866
0.0002702204584
0.0002698409416
0.0002727889224
0.000272313163
0.000271640986
0.0002708278133
0.0002699389968
0.0002690490238
0.0002682403272
0.0002676024203
0.0002672316269
0.0002701127375
0.0002696479367
0.000268991238
0.0002681967826
0.0002673284141
0.0002664589033
0.0002656687873
0.0002650455257
0.0002646832376
0.0002674991378
0.0002670450207
0.0002664034124
0.0002656272058
0.0002647787741
0.000263929215
0.000263157217
0.0002625482366
0.0002621942431
0.0002649465397
0.0002645028402
0.0002638759467
0.0002631175352
0.0002622885458
0.0002614584444
0.000260704117
0.0002601090662
0.0002597631634
0.0002624534106
0.0002620198712
0.000261407329
0.0002606662742
0.0002598562488
0.0002590451279
0.000258308039
0.0002577265784
0.0002573885701
0.0002600182683
0.0002595946401
0.0002589960984
0.0002582719765
0.0002574804538
0.0002566878529
0.000255967586
0.0002553993887
0.0002550690858
0.0002576396813
0.0002572257241
0.0002566408444
0.0002559332472
0.0002551597822
0.000254385258
0.0002536814121
0.0002531261635
0.0002528033844
0.0002553162688
0.0002549117514
0.0002543402077
0.000253648742
0.0002528929068
0.0002521360328
0.0002514482224
0.0002509056206
0.0002505901909
0.000253046701
0.0002526514011
0.00025209288
0.000251417168
0.0002506785514
0.0002499389178
0.0002492667731
0.000248736528
0.0002484282804
0.000250829699
0.0002504434032
0.0002498976038
0.0002492372828
0.0002485154902
0.000247792704
0.0002471358699
0.0002466177034
0.0002463164774
0.0002486640349
0.0002482865384
0.0002477531723
0.0002471078946
0.0002464025475
0.0002456962318
0.0002450543675
0.0002445480124
0.0002442536538
0.0002465485308
0.0002461796377
0.0002456584286
0.000245027861
0.0002443385966
0.0002436483894
0.0002430211676
0.0002425263667
0.0002422387265
0.0002444820588
0.0002441215814
0.0002436122647
0.0002429960879
0.0002423225579
0.0002416481115
0.0002410352166
0.0002405517212
0.0002402706548
0.0002424635394
0.0002421112981
0.0002416136203
0.0002410115278
0.0002403533975
0.0002396943762
0.0002390955026
0.0002386230708
0.0002383484367
0.0002404919404
0.0002401477632
0.000239661481
0.000239073178
0.0002384301241
0.000237786203
0.0002372010531
0.0002367394472
0.0002364711052
0.0002385662752
0.0002382299967
0.000237754876
0.000237180078
0.0002365517875
0.0002359226495
0.0002353509308
0.0002348999154
0.0002346377248
0.0002366856008
0.0002363570618
0.0002358928765
0.0002353313078
0.0002347174755
0.0002341028092
0.0002335442317
0.0002331035705
0.0002328473884
0.0002348490169
0.0002345280633
0.0002340745938
0.0002335259854
0.0002329263114
0.0002323258087
0.0002317800821
0.0002313495353
0.0002310992143
0.0002330556643
0.0002327421463
0.0002322991785
0.0002317632662
0.0002311774539
0.0002305908067
0.0002300576375
0.0002296369595
0.0002293923462
0.0002313047242
0.0002309984956
0.0002305658194
0.0002300423424
0.0002294700965
0.0002288969947
0.0002283760837
0.0002279650206
0.0002277259538
0.0002295954184
0.000229296336
0.0002288737445
0.0002283624442
0.0002278034691
0.0002272435991
0.0002267346397
0.0002263329274
0.0002260992374
0.0002279270119
0.0002276349348
0.0002272222237
0.0002267228431
0.0002261768421
0.0002256298855
0.000225132563
0.000224739927
0.0002245114348
0.000226298816
0.000226013606
0.0002256105736
0.0002251228569
0.0002245895323
0.0002240551666
0.0002235691584
0.0002231853141
0.0002229618321
0.0002247101941
0.0002244317159
0.0002240381638
0.0002235618575
0.0002230409121
0.0002225188119
0.0002220437894
0.0002216684442
0.0002214497776
0.00022316057
0.000222888692
0.0002225044262
0.0002220392812
0.0002215304202
0.0002210202605
0.0002205558926
0.0002201887494
0.000219974699
0.0002216494369
0.0002213840326
0.0002210088659
0.0002205546401
0.0002200575753
0.0002195590359
0.0002191049944
0.0002187457569
0.0002185361233
0.0002201763692
0.000219917319
0.0002195510736
0.000219107536
0.0002186219907
0.0002181347624
0.0002176907289
0.0002173391086
0.0002171336976
0.0002187410338
0.0002184882273
0.0002181307384
0.0002176976737