/*--------------------------------*- C++ -*----------------------------------*\
| =========                 |                                                 |
| \\      /  F ield         | OpenFOAM: The Open Source CFD Toolbox           |
|  \\    /   O peration     | Version:  2212                                  |
|   \\  /    A nd           | Website:  www.openfoam.com                      |
|    \\/     M anipulation  |                                                 |
\*---------------------------------------------------------------------------*/
FoamFile
{
    version     2.0;
    format      ascii;
    arch        "LSB;label=32;scalar=64";
    class       volScalarField;
    location    "20.00000000";
    object      AC3H5_0;
}
// * * * * * * * * * * * * * * * * * * * * * * * * * * * * * * * * * * * * * //

dimensions      [0 0 0 0 0 0 0];

internalField   nonuniform List<scalar> 
3000
(
3.017980693e-35
3.382459956e-35
3.929098137e-35
4.649707854e-35
5.525700782e-35
6.509586783e-35
7.490684146e-35
8.242298505e-35
8.415487228e-35
1.119632688e-34
1.257394099e-34
1.462508713e-34
1.730554634e-34
2.053985414e-34
2.418372288e-34
2.796150643e-34
3.136386951e-34
3.345127127e-34
2.469700446e-34
2.78965673e-34
3.268323888e-34
3.900505869e-34
4.678181645e-34
5.5831422e-34
6.569786781e-34
7.531501776e-34
8.202218135e-34
4.624181933e-34
5.269163937e-34
6.246319189e-34
7.562630982e-34
9.22563177e-34
1.122277627e-33
1.347286571e-33
1.571958697e-33
1.729541694e-33
8.065720777e-34
9.292422473e-34
1.117971777e-33
1.377405293e-33
1.712623269e-33
2.123569429e-33
2.592072597e-33
3.056737439e-33
3.375970514e-33
1.362103833e-33
1.588162466e-33
1.941146324e-33
2.434751731e-33
3.082919207e-33
3.886166714e-33
4.802637732e-33
5.699977492e-33
6.306671402e-33
2.271227423e-33
2.679890007e-33
3.325997699e-33
4.241296537e-33
5.455758287e-33
6.967662208e-33
8.686660516e-33
1.035153188e-32
1.147943082e-32
3.776528429e-33
4.505383985e-33
5.66909404e-33
7.333188017e-33
9.555577367e-33
1.232651842e-32
1.546399808e-32
1.847866672e-32
2.052912679e-32
6.292683938e-33
7.580006208e-33
9.650722331e-33
1.26315456e-32
1.662857986e-32
2.161360194e-32
2.723881427e-32
3.261681455e-32
3.62948269e-32
1.052840597e-32
1.278572055e-32
1.643699767e-32
2.17180422e-32
2.88184734e-32
3.767393006e-32
4.764355684e-32
5.714870074e-32
6.368948802e-32
1.769699541e-32
2.163451282e-32
2.803026786e-32
3.731304067e-32
4.981805719e-32
6.541548969e-32
8.295287634e-32
9.96544043e-32
1.112220486e-31
2.987836344e-32
3.672165208e-32
4.78729788e-32
6.410123942e-32
8.599681765e-32
1.133158091e-31
1.440180631e-31
1.732570712e-31
1.936432502e-31
5.064316061e-32
6.250842924e-32
8.189241057e-32
1.101626463e-31
1.483580673e-31
1.960385135e-31
2.496228854e-31
3.006842444e-31
3.365616298e-31
8.612720528e-32
1.066713075e-31
1.403056619e-31
1.89454249e-31
2.559504141e-31
3.39012172e-31
4.323280168e-31
5.212134572e-31
5.845541785e-31
1.468802169e-31
1.824262245e-31
2.407373529e-31
3.261182412e-31
4.418418944e-31
5.865481368e-31
7.489159563e-31
9.024019554e-31
1.01582356e-30
2.510505363e-31
3.125334782e-31
4.135929636e-31
5.619143182e-31
7.635136834e-31
1.01667977e-30
1.303394345e-30
1.580650713e-30
1.773173161e-30
4.299071386e-31
5.362501599e-31
7.113843755e-31
9.690218565e-31
1.320107209e-30
1.762103342e-30
2.263471931e-30
2.748950902e-30
3.090345533e-30
7.375438453e-31
9.216556277e-31
1.225548294e-30
1.673918656e-30
2.287124253e-30
3.062378702e-30
3.946060568e-30
4.808809655e-30
5.414797755e-30
1.268143183e-30
1.587753137e-30
2.116933345e-30
2.901096297e-30
3.979622771e-30
5.352682396e-30
6.930592139e-30
8.487542166e-30
9.580801363e-30
2.187347591e-30
2.745139549e-30
3.672982777e-30
5.05720046e-30
6.978140798e-30
9.450764465e-30
1.232806259e-29
1.520521952e-29
1.723269519e-29
3.791217078e-30
4.773907856e-30
6.42039926e-30
8.902830409e-30
1.23962617e-29
1.696968336e-29
2.23909338e-29
2.790418464e-29
3.182312084e-29
6.622577387e-30
8.381411889e-30
1.136171279e-29
1.592890278e-29
2.249287536e-29
3.130053559e-29
4.201277795e-29
5.313468249e-29
6.115351303e-29
1.17157941e-29
1.494468057e-29
2.051005553e-29
2.924564879e-29
4.217954522e-29
6.011810185e-29
8.265561895e-29
1.066134106e-28
1.242093536e-28
2.115118599e-29
2.731167528e-29
3.819106198e-29
5.583367684e-29
8.297020622e-29
1.221258127e-28
1.731329202e-28
2.287003743e-28
2.703050272e-28
3.94070647e-29
5.181360451e-29
7.442327503e-29
1.12571245e-28
1.738235406e-28
2.659195504e-28
3.901921987e-28
5.291498179e-28
6.343201298e-28
7.687465606e-29
1.036188742e-28
1.54137257e-28
2.430282279e-28
3.918516049e-28
6.240196368e-28
9.466368685e-28
1.315102468e-27
1.597752245e-27
1.594523657e-28
2.215872073e-28
3.431804391e-28
5.654850915e-28
9.509843735e-28
1.569865343e-27
2.448398632e-27
3.466492957e-27
4.254401602e-27
3.55620984e-28
5.106296306e-28
8.232306198e-28
1.412335014e-27
2.460636614e-27
4.176974976e-27
6.646927949e-27
9.534183222e-27
1.177930369e-26
8.544437245e-28
1.264494457e-27
2.110141967e-27
3.737856829e-27
6.683486258e-27
1.156367978e-26
1.863914758e-26
2.694309517e-26
3.340898598e-26
2.192865657e-27
3.324702086e-27
5.693683578e-27
1.031371303e-26
1.875462943e-26
3.28208586e-26
5.326940124e-26
7.727504094e-26
9.593639359e-26
5.921393672e-27
9.132821152e-27
1.591291049e-26
2.922761424e-26
5.365426454e-26
9.441315629e-26
1.536046772e-25
2.228939934e-25
2.765121521e-25
1.655424204e-26
2.581144208e-26
4.543634662e-26
8.406920227e-26
1.549489192e-25
2.729587164e-25
4.436230913e-25
6.422464495e-25
7.947725911e-25
4.726345773e-26
7.414297372e-26
1.311740432e-25
2.43337268e-25
4.48482855e-25
7.882551686e-25
1.276158171e-24
1.839037526e-24
2.266512983e-24
1.363981564e-25
2.145342918e-25
3.800422059e-25
7.043597044e-25
1.294055732e-24
2.26292119e-24
3.640358575e-24
5.210744573e-24
6.385778225e-24
3.949613374e-25
6.212958581e-25
1.098927429e-24
2.029211899e-24
3.706425013e-24
6.432426991e-24
1.025818487e-23
1.455470526e-23
1.770953232e-23
1.141393131e-24
1.792210741e-24
3.157902755e-24
5.795744612e-24
1.04991631e-23
1.804034085e-23
2.845701128e-23
3.994429347e-23
4.818884213e-23
3.278427123e-24
5.129814506e-24
8.985779404e-24
1.635469273e-23
2.931553553e-23
4.975852385e-23
7.74727593e-23
1.073967623e-22
1.283148454e-22
9.327849341e-24
1.452143786e-23
2.523722352e-23
4.545161355e-23
8.043355694e-23
1.345722033e-22
2.064267763e-22
2.822146897e-22
3.336852909e-22
2.621311941e-23
4.05358322e-23
6.975488362e-23
1.24038774e-22
2.162452256e-22
3.559450673e-22
5.371311029e-22
7.235757081e-22
8.465130946e-22
7.25719565e-23
1.112886483e-22
1.892338991e-22
3.315372717e-22
5.682931585e-22
9.18869192e-22
1.362798762e-21
1.808635729e-21
2.094782957e-21
1.975134995e-22
2.998306385e-22
5.027349885e-22
8.660607322e-22
1.457194429e-21
2.31201799e-21
3.369509035e-21
4.409119444e-21
5.063964719e-21
5.276003953e-22
7.914000675e-22
1.305857234e-21
2.207987411e-21
3.642177009e-21
5.668767576e-21
8.125729279e-21
1.050944318e-20
1.201341758e-20
1.382094957e-21
2.044864482e-21
3.314257879e-21
5.492280935e-21
8.877373502e-21
1.356710168e-20
1.919066562e-20
2.46959611e-20
2.836454093e-20
3.551539226e-21
5.174569899e-21
8.225576366e-21
1.335093208e-20
2.116879799e-20
3.191143757e-20
4.503316593e-20
5.889650064e-20
6.999436446e-20
8.968174955e-21
1.285304639e-20
2.002962138e-20
3.189526141e-20
4.994135211e-20
7.558190763e-20
1.106209963e-19
1.573843084e-19
2.095524577e-19
2.233679726e-20
3.150039281e-20
4.826595032e-20
7.616689181e-20
1.210130362e-19
1.956250661e-19
3.317060633e-19
5.862087783e-19
9.537258985e-19
5.524432926e-20
7.703131394e-20
1.177366201e-19
1.913065134e-19
3.361084165e-19
6.685153142e-19
1.499089864e-18
3.390607265e-18
6.380388767e-18
1.374335961e-19
1.929859718e-19
3.087185343e-19
5.726841639e-19
1.289859846e-18
3.445729992e-18
9.659856547e-18
2.457766308e-17
4.846275044e-17
3.539676412e-19
5.27628453e-19
9.847718597e-19
2.380793591e-18
7.095328999e-18
2.277589331e-17
6.930510403e-17
1.811827705e-16
3.591161946e-16
1.008733161e-18
1.764894466e-18
4.27360096e-18
1.330811635e-17
4.600849541e-17
1.56095137e-16
4.798511531e-16
1.244891011e-15
2.440136903e-15
3.557291771e-18
7.850538824e-18
2.369570117e-17
8.318181739e-17
2.98010924e-16
1.007825813e-15
3.040142049e-15
7.707651379e-15
1.481697796e-14
1.660133316e-17
4.33385906e-17
1.431367086e-16
5.115607436e-16
1.803563816e-15
5.918381142e-15
1.725143791e-14
4.23319467e-14
7.939683913e-14
9.473011216e-17
2.585933203e-16
8.508465756e-16
2.946083082e-15
9.947351612e-15
3.11442747e-14
8.665304431e-14
2.037697289e-13
3.699342083e-13
5.798136981e-16
1.529281228e-15
4.775913554e-15
1.558570523e-14
4.948995126e-14
1.457258599e-13
3.816594915e-13
8.475399784e-13
1.469174466e-12
3.508702108e-15
8.601887886e-15
2.486115106e-14
7.512183892e-14
2.210781402e-13
6.029374151e-13
1.460005199e-12
2.998179882e-12
4.860136523e-12
2.005314808e-14
4.501752746e-14
1.187903493e-13
3.282364542e-13
8.829307083e-13
2.192840279e-12
4.807659394e-12
8.912339652e-12
1.321785968e-11
1.053706224e-13
2.158404411e-13
5.161726996e-13
1.290421402e-12
3.128757787e-12
6.95478765e-12
1.35456429e-11
2.232931534e-11
3.017523574e-11
4.995070088e-13
9.337753049e-13
2.012887533e-12
4.507305842e-12
9.718549969e-12
1.90670786e-11
3.276367902e-11
4.849582434e-11
6.111964389e-11
2.094134477e-12
3.576270239e-12
6.918050845e-12
1.375519323e-11
2.613691673e-11
4.520217039e-11
6.966193129e-11
9.55522903e-11
1.155557651e-10
7.587166053e-12
1.185512726e-11
2.053763435e-11
3.617384746e-11
6.089165819e-11
9.483958818e-11
1.356221445e-10
1.776463803e-10
2.096238144e-10
2.3211071e-11
3.334150143e-11
5.205113243e-11
8.231617656e-11
1.260726022e-10
1.832353482e-10
2.505676236e-10
3.191620727e-10
3.706788521e-10
5.932846326e-11
7.940534305e-11
1.141171497e-10
1.671302976e-10
2.412993102e-10
3.369519098e-10
4.488816349e-10
5.621629199e-10
6.466103893e-10
1.292800958e-10
1.64892482e-10
2.248705301e-10
3.149371092e-10
4.400697723e-10
6.010534772e-10
7.893502067e-10
9.801135017e-10
1.12217092e-09
2.513564174e-10
3.120900202e-10
4.137339661e-10
5.659396778e-10
7.77438849e-10
1.050586343e-09
1.372332896e-09
1.700964648e-09
1.947376659e-09
4.542048247e-10
5.563438239e-10
7.271793637e-10
9.834086848e-10
1.341658768e-09
1.808888964e-09
2.366420335e-09
2.944459955e-09
3.384144737e-09
7.80813056e-10
9.504557541e-10
1.235031954e-09
1.664645823e-09
2.271310936e-09
3.073567731e-09
4.047673135e-09
5.077592419e-09
5.876167096e-09
1.292739409e-09
1.571288422e-09
2.040911483e-09
2.755915315e-09
3.778070204e-09
5.151752306e-09
6.852213944e-09
8.688312613e-09
1.014132887e-08
2.07913605e-09
2.530533564e-09
3.296186722e-09
4.47292319e-09
6.177036887e-09
8.504426956e-09
1.143913611e-08
1.467002698e-08
1.727491192e-08
3.270670835e-09
3.991786011e-09
5.222306225e-09
7.130459724e-09
9.926294712e-09
1.379830707e-08
1.875609864e-08
2.430055925e-08
2.883890756e-08
5.065831441e-09
6.200659207e-09
8.146676086e-09
1.118564579e-08
1.567795548e-08
2.196287571e-08
3.009765681e-08
3.929562618e-08
4.690812754e-08
7.7757832e-09
9.534050054e-09
1.255783204e-08
1.729896014e-08
2.434209893e-08
3.425011901e-08
4.714985904e-08
6.182821533e-08
7.406583832e-08
1.189266173e-08
1.457244204e-08
1.918207941e-08
2.641283722e-08
3.716096744e-08
5.229386922e-08
7.202409833e-08
9.453812649e-08
1.134254412e-07
1.817978377e-08
2.219189731e-08
2.907562253e-08
3.983908038e-08
5.578338804e-08
7.816219087e-08
1.072888977e-07
1.405845163e-07
1.686764625e-07
2.777267099e-08
3.366266726e-08
4.371691702e-08
5.933880457e-08
8.232572833e-08
1.143985844e-07
1.56001278e-07
2.034283935e-07
2.432269615e-07
4.227231291e-08
5.073565178e-08
6.5082019e-08
8.718335481e-08
1.19425875e-07
1.640933816e-07
2.214921751e-07
2.862187108e-07
3.402895883e-07
6.381598615e-08
7.57065834e-08
9.57040788e-08
1.262112187e-07
1.703361884e-07
2.305505874e-07
3.067484435e-07
3.916498212e-07
4.620503115e-07
9.514411406e-08
1.114885213e-07
1.388004586e-07
1.79964433e-07
2.383992162e-07
3.168019051e-07
4.144670353e-07
5.218494798e-07
6.100816655e-07
1.397897634e-07
1.617830868e-07
1.980111823e-07
2.51740589e-07
3.266716781e-07
4.255260458e-07
5.466976714e-07
6.779642407e-07
7.84676454e-07
2.01513968e-07
2.301577648e-07
2.767512728e-07
3.447645582e-07
4.380795851e-07
5.589527956e-07
7.045529748e-07
8.598687788e-07
9.846474229e-07
2.839311832e-07
3.201334679e-07
3.783189437e-07
4.619656327e-07
5.747479718e-07
7.18162243e-07
8.878152071e-07
1.065913084e-06
1.207178978e-06
3.904701484e-07
4.348854389e-07
5.054105637e-07
6.053646995e-07
7.37736991e-07
9.029790626e-07
1.094735092e-06
1.292797685e-06
1.447797354e-06
5.239646895e-07
5.768901682e-07
6.599841404e-07
7.758595402e-07
9.266629493e-07
1.111396309e-06
1.321834112e-06
1.535556071e-06
1.70046786e-06
6.861705445e-07
7.473623378e-07
8.423451122e-07
9.728415718e-07
1.13958922e-06
1.339929405e-06
1.564002907e-06
1.787701774e-06
1.957819402e-06
8.773559182e-07
9.459497025e-07
1.05120809e-06
1.193651795e-06
1.372452483e-06
1.583211271e-06
1.814509724e-06
2.041385755e-06
2.211345285e-06
1.095910914e-06
1.170381453e-06
1.283351548e-06
1.433923436e-06
1.619569839e-06
1.834177763e-06
2.065086758e-06
2.287348743e-06
2.45100764e-06
1.338028044e-06
1.416192108e-06
1.533388058e-06
1.687177172e-06
1.87329176e-06
2.084003272e-06
2.305691516e-06
2.514018092e-06
2.66251738e-06
1.597496443e-06
1.67656589e-06
1.793672939e-06
1.944806796e-06
2.123988447e-06
2.321882029e-06
2.523901954e-06
2.709066777e-06
2.840525993e-06
1.8655659e-06
1.942215935e-06
2.054155934e-06
2.195794817e-06
2.359551814e-06
2.534514016e-06
2.710611935e-06
2.870540209e-06
2.983003247e-06
2.130521109e-06
2.200867369e-06
2.301542224e-06
2.425362249e-06
2.566023131e-06
2.715006601e-06
2.862418302e-06
2.99419753e-06
3.085749401e-06
2.375754378e-06
2.435574269e-06
2.52047764e-06
2.624064196e-06
2.73944819e-06
2.859076692e-06
2.974786367e-06
3.076211349e-06
3.145751357e-06
2.590553596e-06
2.638800029e-06
2.7062381e-06
2.786805317e-06
2.874078546e-06
2.961773081e-06
3.04399444e-06
3.114259376e-06
3.161758629e-06
2.768627029e-06
2.80387165e-06
2.85193773e-06
2.907379775e-06
2.964776112e-06
3.019493736e-06
3.068137623e-06
3.108006262e-06
3.134504801e-06
2.902522895e-06
2.923829378e-06
2.951469478e-06
2.980984568e-06
3.008341045e-06
3.030808573e-06
3.047510875e-06
3.059198895e-06
3.066653551e-06
2.986446204e-06
2.993677482e-06
3.00101671e-06
3.005293171e-06
3.004106842e-06
2.996717182e-06
2.984610036e-06
2.971497033e-06
2.962544225e-06
3.017509837e-06
3.011371809e-06
2.999712974e-06
2.980828173e-06
2.954043644e-06
2.920538863e-06
2.883868867e-06
2.850119377e-06
2.827801284e-06
2.996160788e-06
2.978096252e-06
2.949731761e-06
2.910867993e-06
2.862503876e-06
2.807538984e-06
2.751215106e-06
2.701374457e-06
2.668868681e-06
2.926041618e-06
2.898035353e-06
2.855952046e-06
2.801012273e-06
2.735713004e-06
2.664382653e-06
2.593525271e-06
2.532144478e-06
2.49252811e-06
2.813438955e-06
2.777782806e-06
2.725325719e-06
2.658523485e-06
2.581111538e-06
2.498505469e-06
2.418050139e-06
2.349377542e-06
2.305445606e-06
2.666466788e-06
2.625525176e-06
2.566074016e-06
2.491557066e-06
2.406644855e-06
2.317489779e-06
2.231888291e-06
2.159652728e-06
2.113799803e-06
2.494148755e-06
2.450162258e-06
2.386868605e-06
2.30842565e-06
2.220127855e-06
2.128535054e-06
2.041561797e-06
1.968847416e-06
1.923009603e-06
2.305562382e-06
2.260503673e-06
2.196104913e-06
2.116968597e-06
2.028723026e-06
1.938048832e-06
1.852711125e-06
1.781916114e-06
1.737564457e-06
2.109132257e-06
2.064621952e-06
2.00133886e-06
1.924087765e-06
1.838580887e-06
1.751387227e-06
1.669922464e-06
1.602783871e-06
1.560956087e-06
1.912139637e-06
1.869416696e-06
1.808924955e-06
1.735469727e-06
1.654647063e-06
1.572739174e-06
1.496675128e-06
1.434338751e-06
1.395695247e-06
1.720456558e-06
1.680391322e-06
1.623849267e-06
1.555480415e-06
1.480616288e-06
1.405131331e-06
1.335385103e-06
1.278500339e-06
1.243391945e-06
1.538476369e-06
1.501611941e-06
1.449724525e-06
1.387198116e-06
1.318999494e-06
1.250521663e-06
1.187515829e-06
1.136338874e-06
1.104876451e-06
1.369192659e-06
1.335801195e-06
1.288901964e-06
1.232542382e-06
1.171265604e-06
1.109948214e-06
1.053727913e-06
1.00822126e-06
9.803403365e-07
1.214373395e-06
1.184516601e-06
1.142653449e-06
1.092457536e-06
1.038022756e-06
9.837035607e-07
9.340433581e-07
8.939640974e-07
8.694808839e-07
1.074782554e-06
1.048369114e-06
1.011384326e-06
9.671164054e-07
9.192092324e-07
8.715110705e-07
8.280063947e-07
7.929799347e-07
7.716368462e-07
9.504115097e-07
9.27246899e-07
8.948458401e-07
8.561183485e-07
8.142751973e-07
7.72688557e-07
7.348290437e-07
7.044070617e-07
6.859078727e-07
8.406951919e-07
8.205223131e-07
7.923290397e-07
7.586669894e-07
7.223421399e-07
6.862891289e-07
6.535145123e-07
6.272183109e-07
6.112539261e-07
7.44699095e-07
7.272295448e-07
7.028292471e-07
6.737189148e-07
6.423345446e-07
6.112159027e-07
5.829563958e-07
5.60307619e-07
5.465739274e-07
6.612711122e-07
6.462079486e-07
6.251776219e-07
6.001013669e-07
5.730828579e-07
5.463105939e-07
5.220143728e-07
5.025554226e-07
4.907648332e-07
5.891581909e-07
5.762115609e-07
5.581408756e-07
5.366005386e-07
5.133998187e-07
4.904183362e-07
4.695688628e-07
4.528753376e-07
4.427635106e-07
5.270912246e-07
5.159883322e-07
5.004927874e-07
4.820241796e-07
4.621338259e-07
4.424322716e-07
4.245579728e-07
4.102452019e-07
4.015742896e-07
4.738432238e-07
4.643340279e-07
4.510623159e-07
4.352430739e-07
4.182036038e-07
4.013218183e-07
3.860002743e-07
3.737256791e-07
3.662851479e-07
4.28266217e-07
4.201260513e-07
4.08763272e-07
3.952159944e-07
3.806183594e-07
3.661483788e-07
3.530067501e-07
3.424694036e-07
3.360752722e-07
3.893120066e-07
3.823420843e-07
3.726101254e-07
3.610023143e-07
3.484871859e-07
3.360718135e-07
3.247848397e-07
3.157232631e-07
3.102163766e-07
3.560412149e-07
3.500677587e-07
3.41723849e-07
3.317658192e-07
3.210208642e-07
3.103504469e-07
3.006370034e-07
2.928259576e-07
2.880697444e-07
3.276242334e-07
3.224967796e-07
3.153309585e-07
3.067725614e-07
2.975285795e-07
2.88336808e-07
2.799557204e-07
2.732025248e-07
2.690805422e-07
3.033368913e-07
2.989261576e-07
2.927581855e-07
2.853849478e-07
2.77411482e-07
2.694707802e-07
2.622163775e-07
2.563571124e-07
2.527705837e-07
2.82552946e-07
2.787485292e-07
2.734245994e-07
2.670536825e-07
2.601545089e-07
2.532713894e-07
2.469691083e-07
2.418649311e-07
2.387303977e-07
2.647349112e-07
2.614429911e-07
2.568324746e-07
2.513087152e-07
2.453174766e-07
2.393280965e-07
2.338303287e-07
2.293640373e-07
2.266111985e-07
2.494242703e-07
2.465654269e-07
2.425577946e-07
2.377499864e-07
2.325261206e-07
2.272921749e-07
2.224744636e-07
2.185473796e-07
2.161171516e-07
2.362317696e-07
2.337389748e-07
2.302409754e-07
2.260384752e-07
2.214635221e-07
2.168685401e-07
2.126261736e-07
2.091553702e-07
2.069981755e-07
2.248282203e-07
2.226450325e-07
2.195781633e-07
2.158878601e-07
2.118621755e-07
2.078082418e-07
2.040532533e-07
2.0096913e-07
1.990434088e-07
2.149360566e-07
2.130150266e-07
2.10313303e-07
2.070569518e-07
2.034968267e-07
1.999017188e-07
1.965602793e-07
1.938044628e-07
1.920753935e-07
2.063217563e-07
2.046230367e-07
2.02231051e-07
1.993429586e-07
1.961781267e-07
1.929728436e-07
1.899830183e-07
1.875065647e-07
1.859449721e-07
1.987891552e-07
1.972793028e-07
1.951505537e-07
1.925755899e-07
1.897470876e-07
1.868737347e-07
1.841835682e-07
1.81945433e-07
1.805268635e-07
1.921736364e-07
1.908245868e-07
1.889200513e-07
1.866119504e-07
1.840702937e-07
1.814802845e-07
1.79046177e-07
1.770119225e-07
1.757158652e-07
1.863371225e-07
1.851253193e-07
1.834122401e-07
1.81332161e-07
1.790358023e-07
1.766883385e-07
1.744736766e-07
1.726143829e-07
1.714236158e-07
1.811637999e-07
1.800694589e-07
1.785203205e-07
1.766356319e-07
1.745496597e-07
1.724104521e-07
1.703844577e-07
1.686758112e-07
1.675758546e-07
1.765564926e-07
1.755629822e-07
1.741546504e-07
1.724379106e-07
1.705329573e-07
1.685731531e-07
1.667099203e-07
1.651314504e-07
1.641101111e-07
1.724336028e-07
1.715269255e-07
1.702399253e-07
1.68668027e-07
1.66919355e-07
1.651146411e-07
1.633923311e-07
1.619267742e-07
1.609737656e-07
1.687265418e-07
1.678948995e-07
1.667128124e-07
1.65266268e-07
1.636530067e-07
1.619828608e-07
1.603830306e-07
1.590158002e-07
1.581224268e-07
1.653775782e-07
1.646110101e-07
1.635199703e-07
1.621823161e-07
1.606868248e-07
1.591338917e-07
1.576409352e-07
1.563596811e-07
1.55518576e-07
1.623380415e-07
1.616281219e-07
1.60616397e-07
1.593736963e-07
1.579810345e-07
1.565306063e-07
1.551312894e-07
1.53925531e-07
1.531304382e-07
1.595668244e-07
1.589064111e-07
1.579640526e-07
1.568044825e-07
1.555019683e-07
1.541415524e-07
1.528246259e-07
1.516854476e-07
1.509310408e-07
1.570291363e-07
1.564121613e-07
1.55530714e-07
1.544442212e-07
1.532210642e-07
1.519400237e-07
1.506959016e-07
1.496156993e-07
1.488974317e-07
1.546954661e-07
1.541167616e-07
1.532890216e-07
1.522670362e-07
1.51114032e-07
1.499032863e-07
1.487237782e-07
1.476960486e-07
1.470100278e-07
1.525407207e-07
1.519958738e-07
1.512156875e-07
1.502508844e-07
1.491601605e-07
1.480119364e-07
1.468900246e-07
1.459091901e-07
1.452520738e-07
1.50543508e-07
1.500287404e-07
1.492908364e-07
1.483769375e-07
1.473417412e-07
1.462493657e-07
1.451790196e-07
1.442402819e-07
1.436091921e-07
1.486855412e-07
1.481976085e-07
1.474974584e-07
1.466290671e-07
1.456435894e-07
1.446013166e-07
1.435773382e-07
1.42676557e-07
1.420690068e-07
1.469511436e-07
1.464872516e-07
1.458209537e-07
1.449934168e-07
1.44052645e-07
1.430555121e-07
1.420734072e-07
1.412069981e-07
1.406208321e-07
1.453268357e-07
1.448845706e-07
1.442487524e-07
1.434580456e-07
1.425576409e-07
1.416013477e-07
1.406572176e-07
1.398220676e-07
1.392554114e-07
1.43800992e-07
1.433782618e-07
1.427699992e-07
1.420126308e-07
1.41148825e-07
1.402296336e-07
1.393200853e-07
1.385134815e-07
1.379646994e-07
1.42363554e-07
1.419585399e-07
1.413752894e-07
1.406482198e-07
1.398177301e-07
1.3893238e-07
1.380544505e-07
1.372740212e-07
1.367416809e-07
1.410057916e-07
1.406169071e-07
1.400564486e-07
1.39357023e-07
1.385569794e-07
1.377026175e-07
1.368537108e-07
1.360973745e-07
1.355802175e-07
1.397201023e-07
1.393459588e-07
1.388063485e-07
1.381322405e-07
1.373601257e-07
1.365342464e-07
1.357120798e-07
1.349780043e-07
1.344749209e-07
1.384998444e-07
1.381392225e-07
1.376187524e-07
1.369679164e-07
1.362215148e-07
1.354219106e-07
1.346244703e-07
1.339110363e-07
1.334210444e-07
1.37339196e-07
1.369910214e-07
1.364881858e-07
1.35858817e-07
1.35136172e-07
1.343608909e-07
1.335863939e-07
1.328921661e-07
1.324143935e-07
1.362330375e-07
1.358963603e-07
1.354098272e-07
1.34800328e-07
1.340997057e-07
1.333470161e-07
1.325938784e-07
1.319175795e-07
1.314512491e-07
1.351768516e-07
1.348508294e-07
1.343794166e-07
1.337883679e-07
1.331082266e-07
1.323765869e-07
1.316433965e-07
1.309838861e-07
1.305283027e-07
1.341666399e-07
1.338505228e-07
1.333931777e-07
1.328193147e-07
1.321582792e-07
1.314463125e-07
1.307318064e-07
1.300880628e-07
1.296426024e-07
1.33198852e-07
1.328919705e-07
1.324477525e-07
1.318899443e-07
1.312467836e-07
1.305532558e-07
1.298563004e-07
1.292274051e-07
1.287915059e-07
1.322703251e-07
1.319720794e-07
1.315401456e-07
1.309973777e-07
1.303709862e-07
1.296947877e-07
1.290143623e-07
1.283994867e-07
1.279726409e-07
1.313782332e-07
1.310880844e-07
1.306676766e-07
1.30139036e-07
1.295284179e-07
1.288685478e-07
1.282037301e-07
1.276021244e-07
1.271838714e-07
1.305200437e-07
1.302375057e-07
1.298279403e-07
1.293126027e-07
1.287168578e-07
1.280724104e-07
1.274223644e-07
1.268333478e-07
1.264232687e-07
1.296934798e-07
1.294181133e-07
1.290187715e-07
1.285159907e-07
1.279343029e-07
1.273044558e-07
1.266684216e-07
1.260913739e-07
1.256890862e-07
1.288964893e-07
1.286278959e-07
1.282382162e-07
1.27747314e-07
1.271789414e-07
1.265629458e-07
1.259402302e-07
1.253745846e-07
1.249797382e-07
1.28127217e-07
1.278650341e-07
1.274845054e-07
1.270048642e-07
1.264491299e-07
1.258463021e-07
1.252362709e-07
1.24681508e-07
1.242937811e-07
1.273839812e-07
1.271278779e-07
1.267560338e-07
1.262870891e-07
1.257433742e-07
1.251530877e-07
1.24555159e-07
1.240108013e-07
1.236298974e-07
1.266652531e-07
1.26414927e-07
1.260513403e-07
1.255925752e-07
1.250603117e-07
1.244819912e-07
1.238956297e-07
1.233612368e-07
1.229868819e-07
1.2596964e-07
1.257248135e-07
1.25369092e-07
1.249200314e-07
1.243986972e-07
1.238318125e-07
1.232565241e-07
1.227316889e-07
1.223636292e-07
1.252958691e-07
1.250562868e-07
1.247080699e-07
1.242682761e-07
1.237573893e-07
1.23201451e-07
1.226367787e-07
1.221211235e-07
1.21759123e-07
1.246427748e-07
1.244082014e-07
1.24067156e-07
1.236362248e-07
1.231353401e-07
1.225898947e-07
1.220354144e-07
1.215285884e-07
1.21172427e-07
1.240092869e-07
1.237795046e-07
1.234453227e-07
1.230228799e-07
1.225315842e-07
1.21996211e-07
1.214515283e-07
1.209532044e-07
1.206026768e-07
1.2339442e-07
1.231692272e-07
1.228416231e-07
1.224273213e-07
1.21945231e-07
1.214195383e-07
1.208842855e-07
1.203941583e-07
1.200490721e-07
1.227972651e-07
1.225764742e-07
1.222551823e-07
1.218486984e-07
1.213754562e-07
1.208590788e-07
1.203329125e-07
1.198506959e-07
1.195108705e-07
1.222169804e-07
1.220004171e-07
1.216851902e-07
1.212862228e-07
1.20821495e-07
1.203140916e-07
1.197966904e-07
1.193221163e-07
1.18987382e-07
1.216527851e-07
1.214402864e-07
1.211308935e-07
1.207391612e-07
1.202826361e-07
1.197838869e-07
1.192749495e-07
1.188077659e-07
1.184779631e-07
1.211039516e-07
1.208953653e-07
1.205915904e-07
1.202068296e-07
1.197582149e-07
1.192678204e-07
1.187670637e-07
1.183070338e-07
1.179820122e-07
1.205697992e-07
1.203649827e-07
1.200666233e-07
1.196885869e-07
1.192476084e-07
1.187652872e-07
1.182724453e-07
1.178193465e-07
1.174989646e-07
1.200496875e-07
1.198485069e-07
1.195553727e-07
1.191838286e-07
1.187502286e-07
1.182757162e-07
1.177905394e-07
1.173441625e-07
1.170282873e-07
1.195430096e-07
1.193453386e-07
1.190572506e-07
1.186919801e-07
1.182655162e-07
1.177985639e-07
1.173208173e-07
1.16880966e-07
1.165694734e-07
1.190491836e-07
1.188549031e-07
1.185716921e-07
1.18212489e-07
1.177929326e-07
1.173333062e-07
1.168627695e-07
1.164292604e-07
1.161220345e-07
1.185676445e-07
1.183766413e-07
1.180981469e-07
1.177448157e-07
1.173319504e-07
1.168794293e-07
1.164158958e-07
1.159885579e-07
1.156854919e-07
1.180978322e-07
1.179099981e-07
1.176360669e-07
1.172884212e-07
1.168820417e-07
1.164364171e-07
1.159796928e-07
1.155583675e-07
1.152593639e-07
1.17639178e-07
1.174544084e-07
1.171848923e-07
1.168427523e-07
1.164426614e-07
1.160037347e-07
1.15553637e-07
1.151381775e-07
1.148431483e-07
1.171910869e-07
1.170092786e-07
1.167440321e-07
1.164072219e-07
1.160132275e-07
1.155808067e-07
1.151371618e-07
1.147274319e-07
1.144362985e-07
1.16752915e-07
1.165739639e-07
1.163128401e-07
1.159811829e-07
1.155930929e-07
1.151669882e-07
1.147296274e-07
1.143254988e-07
1.140381908e-07
1.163239407e-07
1.161477382e-07
1.158905839e-07
1.155638954e-07
1.151815108e-07
1.147615273e-07
1.143302803e-07
1.139316276e-07
1.136480808e-07
1.159033297e-07
1.157297574e-07
1.154764058e-07
1.151544852e-07
1.147775897e-07
1.143635165e-07
1.139382013e-07
1.135448942e-07
1.132650456e-07
1.154900897e-07
1.153190129e-07
1.150692737e-07
1.147518917e-07
1.14380237e-07
1.13971832e-07
1.135522402e-07
1.131641307e-07
1.128879111e-07
1.150830174e-07
1.149142762e-07
1.146679224e-07
1.143548038e-07
1.139880906e-07
1.135850592e-07
1.131709345e-07
1.127878387e-07
1.125151602e-07
1.146806336e-07
1.145140312e-07
1.142707825e-07
1.139615846e-07
1.135994363e-07
1.132014029e-07
1.127924124e-07
1.12414084e-07
1.121448228e-07
1.142811084e-07
1.141163968e-07
1.138758974e-07
1.135701824e-07
1.132121118e-07
1.128185829e-07
1.124142788e-07
1.120403744e-07
1.117743465e-07
1.138821749e-07
1.137190368e-07
1.134808293e-07
1.131780292e-07
1.128233972e-07
1.124337146e-07
1.120334855e-07
1.116635194e-07
1.114004486e-07
1.134810333e-07
1.133190606e-07
1.130825537e-07
1.127819288e-07
1.12429894e-07
1.120431779e-07
1.116461889e-07
1.112794766e-07
1.110189542e-07
1.13074246e-07
1.129129148e-07
1.126773459e-07
1.123779356e-07
1.120273948e-07
1.116424761e-07
1.11247597e-07
1.108831872e-07
1.106246227e-07
1.12657627e-07
1.124962687e-07
1.122606609e-07
1.119612275e-07
1.116107478e-07
1.112260907e-07
1.108318136e-07
1.104684086e-07
1.102109718e-07
1.12226128e-07
1.120638975e-07
1.118270123e-07
1.115259789e-07
1.111737219e-07
1.107873375e-07
1.103916834e-07
1.100275504e-07
1.097701055e-07
1.117737258e-07
1.116095675e-07
1.113698536e-07
1.110652371e-07
1.107088776e-07
1.1031823e-07
1.099186492e-07
1.095515231e-07
1.092925568e-07
1.112933162e-07
1.111259281e-07
1.10881468e-07
1.105708097e-07
1.102074511e-07
1.098093608e-07
1.09402628e-07
1.090296101e-07
1.087671564e-07
1.107766193e-07
1.106044174e-07
1.103528744e-07
1.100331695e-07
1.096592588e-07
1.092498056e-07
1.088319161e-07
1.08449373e-07
1.081809374e-07
1.102141022e-07
1.10035186e-07
1.097737528e-07
1.094413843e-07
1.090526315e-07
1.086270623e-07
1.081931327e-07
1.077966009e-07
1.075190896e-07
1.09594925e-07
1.094070464e-07
1.091323989e-07
1.087830772e-07
1.083743834e-07
1.079270305e-07
1.074712123e-07
1.070553143e-07
1.067649715e-07
1.089069159e-07
1.08707453e-07
1.08415712e-07
1.08044426e-07
1.076098251e-07
1.071340411e-07
1.066494522e-07
1.062078321e-07
1.059001924e-07
1.081365811e-07
1.079225193e-07
1.076092232e-07
1.072102063e-07
1.067428256e-07
1.062309418e-07
1.057096248e-07
1.052349105e-07
1.049047726e-07
1.072691539e-07
1.070370767e-07
1.066971689e-07
1.062638842e-07
1.057559306e-07
1.051992452e-07
1.046321602e-07
1.041159609e-07
1.037573884e-07
1.062886884e-07
1.060347794e-07
1.056626134e-07
1.051877642e-07
1.046305415e-07
1.040193459e-07
1.033964063e-07
1.028293541e-07
1.024357103e-07
1.051782007e-07
1.048982605e-07
1.044876272e-07
1.03963197e-07
1.033471611e-07
1.026708125e-07
1.019809724e-07
1.013528168e-07
1.009168411e-07
1.039198642e-07
1.036093437e-07
1.031535244e-07
1.025708522e-07
1.01885712e-07
1.011327599e-07
1.003641644e-07
9.966392978e-08
9.91778619e-08
1.024952622e-07
1.02149316e-07
1.016411664e-07
1.009910644e-07
1.002259353e-07
9.938431319e-08
9.852452025e-08
9.774073559e-08
9.719649488e-08
1.008857062e-07
1.004992694e-07