/*--------------------------------*- C++ -*----------------------------------*\
| =========                 |                                                 |
| \\      /  F ield         | OpenFOAM: The Open Source CFD Toolbox           |
|  \\    /   O peration     | Version:  2212                                  |
|   \\  /    A nd           | Website:  www.openfoam.com                      |
|    \\/     M anipulation  |                                                 |
\*---------------------------------------------------------------------------*/
FoamFile
{
    version     2.0;
    format      ascii;
    arch        "LSB;label=32;scalar=64";
    class       volScalarField;
    location    "20.00000000";
    object      C2H3_0;
}
// * * * * * * * * * * * * * * * * * * * * * * * * * * * * * * * * * * * * * //

dimensions      [0 0 0 0 0 0 0];

internalField   nonuniform List<scalar> 
3000
(
2.198482124e-24
2.469668224e-24
2.878861412e-24
3.424107689e-24
4.099854948e-24
4.887770134e-24
5.740428872e-24
6.554127288e-24
7.129523502e-24
8.254286581e-24
9.309846904e-24
1.090190083e-23
1.302800096e-23
1.568600509e-23
1.886135618e-23
2.249903679e-23
2.641657516e-23
2.988612332e-23
1.849069153e-23
2.101928922e-23
2.486947364e-23
3.009681884e-23
3.679517166e-23
4.506197945e-23
5.486456729e-23
6.56540311e-23
7.487269497e-23
3.522321234e-23
4.04597218e-23
4.855022552e-23
5.976828443e-23
7.45112306e-23
9.315414669e-23
1.155953735e-22
1.400413829e-22
1.597714161e-22
6.255607864e-23
7.273887355e-23
8.871950906e-23
1.1130983e-22
1.41572507e-22
1.80356762e-22
2.270147407e-22
2.765679986e-22
3.146075825e-22
1.075870094e-22
1.267025132e-22
1.571325868e-22
2.008200445e-22
2.600962473e-22
3.364550215e-22
4.276162975e-22
5.220866025e-22
5.919798543e-22
1.82678526e-22
2.177976164e-22
2.743554097e-22
3.564702693e-22
4.687159089e-22
6.133261291e-22
7.843198145e-22
9.580570343e-22
1.083419636e-21
3.092170356e-22
3.727807109e-22
4.760567649e-22
6.271589438e-22
8.345145934e-22
1.101110196e-21
1.413569295e-21
1.726411894e-21
1.94837888e-21
5.242752598e-22
6.381028603e-22
8.242383288e-22
1.097943754e-21
1.47420431e-21
1.956633833e-21
2.517978524e-21
3.074162658e-21
3.464433457e-21
8.920855596e-22
1.09432264e-21
1.42653519e-21
1.916607789e-21
2.590703842e-21
3.452728841e-21
4.450208183e-21
5.431296016e-21
6.114637786e-21
1.524063856e-21
1.881305853e-21
2.469996875e-21
3.340157514e-21
4.537076578e-21
6.064231351e-21
7.824102717e-21
9.546311817e-21
1.074000714e-20
2.613607327e-21
3.242029001e-21
4.279850329e-21
5.81578167e-21
7.927947904e-21
1.061792304e-20
1.370844608e-20
1.672229374e-20
1.88048591e-20
4.496664694e-21
5.598901847e-21
7.421975298e-21
1.01221006e-20
1.383386209e-20
1.855375488e-20
2.396343965e-20
2.922524731e-20
3.285854784e-20
7.756900877e-21
9.68633406e-21
1.288107282e-20
1.761520723e-20
2.412071441e-20
3.238152937e-20
4.182434509e-20
5.097755641e-20
5.73394417e-20
1.340786943e-20
1.678037365e-20
2.236948318e-20
3.065605943e-20
4.204228251e-20
5.648432617e-20
7.293122628e-20
8.870654773e-20
9.999914153e-20
2.320799605e-20
2.90951063e-20
3.885878537e-20
5.334367379e-20
7.325929741e-20
9.856024404e-20
1.275443391e-19
1.558148504e-19
1.74818451e-19
4.020594125e-20
5.046766077e-20
6.749359278e-20
9.275691732e-20
1.274847033e-19
1.715626911e-19
2.219237307e-19
2.707022577e-19
3.040632423e-19
6.968955233e-20
8.755434693e-20
1.172014253e-19
1.611922083e-19
2.216454334e-19
2.983260254e-19
3.858467541e-19
4.705191574e-19
5.285371326e-19
1.20835129e-19
1.519089619e-19
2.034841377e-19
2.800117723e-19
3.851581889e-19
5.184824193e-19
6.705881106e-19
8.176831376e-19
9.184601778e-19
2.095720892e-19
2.635913852e-19
3.532611234e-19
4.863164454e-19
6.691118753e-19
9.008469759e-19
1.165157633e-18
1.420690121e-18
1.595715114e-18
3.635580683e-19
4.574342854e-19
6.132801613e-19
8.445370698e-19
1.162226569e-18
1.564914999e-18
2.024121351e-18
2.467978132e-18
2.771932031e-18
6.308200053e-19
7.939275128e-19
1.064726276e-18
1.466569095e-18
2.018575727e-18
2.718193971e-18
3.515873472e-18
4.286743791e-18
4.814558634e-18
1.094765226e-18
1.378126376e-18
1.848599659e-18
2.546747426e-18
3.505735245e-18
4.721032455e-18
6.10645512e-18
7.445086711e-18
8.361553388e-18
1.900261021e-18
2.392501853e-18
3.209803708e-18
4.42260026e-18
6.088408108e-18
8.19919285e-18
1.060508169e-17
1.292937312e-17
1.452047011e-17
3.298946467e-18
4.154014893e-18
5.57373474e-18
7.680362435e-18
1.057360099e-17
1.423919856e-17
1.841659326e-17
2.245166481e-17
2.521363786e-17
5.727942238e-18
7.213248571e-18
9.679284226e-18
1.333815271e-17
1.8362553e-17
2.472710013e-17
3.197880681e-17
3.898207312e-17
4.377510582e-17
9.946566317e-18
1.252658363e-17
1.680978996e-17
2.316392483e-17
3.18877923e-17
4.293582265e-17
5.552033257e-17
6.767032911e-17
7.598386718e-17
1.727373964e-17
2.175516091e-17
2.919394156e-17
4.022706546e-17
5.537066424e-17
7.45420986e-17
9.637127558e-17
1.174385186e-16
1.318487539e-16
2.99998584e-17
3.778343369e-17
5.070082822e-17
6.98539963e-17
9.613236185e-17
1.293840587e-16
1.6722488e-16
2.037246653e-16
2.286786128e-16
5.21006428e-17
6.561765192e-17
8.80434659e-17
1.212811299e-16
1.66858397e-16
2.244915249e-16
2.900289422e-16
3.531942566e-16
3.963478574e-16
9.047251392e-17
1.139400621e-16
1.528587954e-16
2.105075296e-16
2.8949889e-16
3.892928094e-16
5.026546601e-16
6.117941194e-16
6.862808257e-16
1.570662449e-16
1.977912919e-16
2.652929465e-16
3.652026151e-16
5.019616772e-16
6.745224181e-16
8.702668242e-16
1.058439142e-15
1.186684046e-15
2.725628614e-16
3.431867004e-16
4.601604706e-16
6.331158104e-16
8.69543489e-16
1.167374679e-15
1.50458383e-15
1.828101896e-15
2.048168784e-15
4.72687575e-16
5.950333449e-16
7.974815145e-16
1.096415439e-15
1.50433824e-15
2.017104752e-15
2.596243379e-15
3.150420201e-15
3.52644354e-15
8.190178718e-16
1.030652152e-15
1.380419777e-15
1.895991758e-15
2.597955588e-15
3.47792143e-15
4.468677735e-15
5.413577442e-15
6.052660418e-15
1.41741617e-15
1.782768774e-15
2.38564706e-15
3.272364544e-15
4.47622356e-15
5.980160008e-15
7.666814814e-15
9.268734439e-15
1.034786723e-14
2.449348494e-15
3.078416186e-15
4.1144279e-15
5.634014326e-15
7.68980381e-15
1.024710824e-14
1.310133826e-14
1.579848972e-14
1.760663306e-14
4.224916962e-15
5.304454381e-15
7.078025542e-15
9.670606937e-15
1.316282239e-14
1.748455396e-14
2.228024374e-14
2.678477432e-14
2.97873049e-14
7.272432455e-15
9.117478762e-15
1.213966138e-14
1.653914923e-14
2.243427852e-14
2.968473846e-14
3.767558924e-14
4.512872696e-14
5.006391443e-14
1.248954771e-14
1.56277199e-14
2.074942501e-14
2.816805099e-14
3.804675014e-14
5.010857202e-14
6.329717354e-14
7.549975027e-14
8.351959649e-14
2.139856456e-14
2.670668838e-14
3.533223613e-14
4.775182391e-14
6.416853673e-14
8.404455017e-14
1.05581031e-13
1.253273135e-13
1.381972516e-13
3.657946028e-14
4.550342944e-14
5.992978441e-14
8.055632133e-14
1.075883312e-13
1.399997146e-13
1.747588269e-13
2.063060433e-13
2.26678039e-13
6.240947266e-14
7.73168607e-14
1.012700099e-13
1.352382532e-13
1.793155554e-13
2.315788522e-13
2.869766274e-13
3.366833716e-13
3.684516072e-13
1.063377182e-13
1.310850494e-13
1.705703865e-13
2.260378498e-13
2.971964104e-13
3.805012666e-13
4.676307543e-13
5.447930881e-13
5.93525814e-13
1.811013068e-13
2.219573861e-13
2.866260482e-13
3.764974483e-13
4.903021978e-13
6.215976839e-13
7.568116127e-13
8.747277445e-13
9.481426999e-13
3.085971109e-13
3.757772205e-13
4.811784147e-13
6.259143493e-13
8.065348627e-13
1.011458548e-12
1.21869939e-12
1.396077664e-12
1.504528498e-12
5.266212438e-13
6.369041406e-13
8.083310923e-13
1.040754331e-12
1.326244825e-12
1.644164717e-12
1.958963629e-12
2.222274779e-12
2.379452525e-12
9.004065564e-13
1.081708941e-12
1.361009573e-12
1.735005693e-12
2.187205107e-12
2.681211741e-12
3.159352299e-12
3.548775145e-12
3.774203314e-12
1.541734987e-12
1.841218125e-12
2.299176732e-12
2.906199783e-12
3.630812732e-12
4.410167825e-12
5.150374505e-12
5.739368873e-12
6.07020692e-12
2.639053835e-12
3.137450581e-12
3.896477119e-12
4.897628157e-12
6.086834424e-12
7.360816097e-12
8.568579053e-12
9.530693546e-12
1.007230189e-11
4.502067349e-12
5.338565722e-12
6.61386285e-12
8.302193985e-12
1.032562809e-11
1.253304688e-11
1.469643343e-11
1.651755155e-11
1.762816957e-11
7.62437681e-12
9.039026939e-12
1.121211344e-11
1.413184512e-11
1.772674353e-11
2.183499618e-11
2.617346991e-11
3.024061458e-11
3.308598432e-11
1.27734023e-11
1.517989779e-11
1.893031145e-11
2.410302939e-11
3.075925074e-11
3.890953157e-11
4.838201629e-11
5.836341213e-11
6.628564752e-11
2.114633482e-11
2.526520813e-11
3.181799453e-11
4.117938593e-11
5.389502606e-11
7.063839734e-11
9.181315877e-11
1.160387823e-10
1.366964231e-10
3.47251321e-11
4.185433721e-11
5.348406863e-11
7.075433856e-11
9.543254392e-11
1.297725962e-10
1.751881753e-10
2.282150757e-10
2.733193667e-10
5.720817746e-11
6.981581163e-11
9.090729459e-11
1.232898077e-10
1.711354441e-10
2.389401587e-10
3.272595819e-10
4.244043093e-10
4.995462082e-10
9.635407835e-11
1.193044464e-10
1.584362287e-10
2.195699118e-10
3.100278069e-10
4.339648589e-10
5.81926018e-10
7.22266701e-10
8.115508943e-10
1.691571309e-10
2.119148341e-10
2.850798539e-10
3.981135294e-10
5.582732322e-10
7.579476724e-10
9.615102518e-10
1.116476805e-09
1.190789533e-09
3.111904958e-10
3.902787572e-10
5.227308978e-10
7.173927365e-10
9.683915407e-10
1.237910782e-09
1.462867052e-09
1.596479847e-09
1.638297884e-09
5.86166518e-10
7.235776194e-10
9.421275099e-10
1.235830176e-09
1.567317845e-09
1.868495551e-09
2.07780933e-09
2.174329684e-09
2.181830914e-09
1.075976684e-09
1.286095579e-09
1.596200693e-09
1.970235677e-09
2.341979918e-09
2.641179703e-09
2.826063352e-09
2.891504795e-09
2.871362448e-09
1.826569494e-09
2.099392494e-09
2.474636502e-09
2.892331797e-09
3.280966356e-09
3.581947468e-09
3.762600134e-09
3.817829993e-09
3.781944843e-09
2.797578258e-09
3.112014157e-09
3.530491716e-09
3.986737442e-09
4.413399303e-09
4.755532317e-09
4.975232218e-09
5.056178721e-09
5.026315201e-09
3.914642382e-09
4.271571248e-09
4.749496144e-09
5.282996181e-09
5.80637611e-09
6.258283001e-09
6.586438548e-09
6.755256661e-09
6.77239677e-09
5.148637486e-09
5.575799797e-09
6.161837006e-09
6.843524803e-09
7.55143864e-09
8.214696619e-09
8.761621258e-09
9.124102189e-09
9.263033596e-09
6.515895427e-09
7.057933202e-09
7.821355612e-09
8.744504256e-09
9.757437847e-09
1.078006282e-08
1.171561073e-08
1.244348669e-08
1.283163401e-08
8.053222303e-09
8.762998866e-09
9.787583039e-09
1.107211903e-08
1.255177477e-08
1.414133803e-08
1.571365325e-08
1.706706379e-08
1.790403336e-08
9.804449469e-09
1.074465481e-08
1.213230978e-08
1.39281685e-08
1.608333434e-08
1.851584714e-08
2.106342273e-08
2.340554117e-08
2.49767494e-08
1.183685018e-08
1.308083408e-08
1.495278228e-08
1.744142443e-08
2.052885853e-08
2.41482643e-08
2.809780143e-08
3.189224486e-08
3.456841636e-08
1.426192945e-08
1.589471686e-08
1.83918851e-08
2.178450497e-08
2.610268736e-08
3.130780287e-08
3.715340786e-08
4.293895103e-08
4.715638888e-08
1.725956337e-08
1.937827621e-08
2.265997273e-08
2.719185879e-08
3.306768424e-08
4.028809138e-08
4.855589739e-08
5.690605472e-08
6.313731741e-08
2.109692114e-08
2.380987738e-08
2.805015358e-08
3.397161773e-08
4.174302878e-08
5.141226452e-08
6.262872618e-08
7.413269335e-08
8.291550084e-08
2.613346582e-08
2.95573632e-08
3.493901607e-08
4.250480337e-08
5.250573037e-08
6.504701669e-08
7.974223154e-08
9.507509581e-08
1.070630383e-07
3.28072856e-08
3.706288703e-08
4.377091522e-08
5.323304518e-08
6.579153531e-08
8.163303939e-08
1.004102199e-07
1.201942089e-07
1.356392987e-07
4.160708198e-08
4.681629212e-08
5.503697965e-08
6.665299392e-08
8.212580991e-08
1.018073554e-07
1.251456298e-07
1.495650689e-07
1.686688827e-07
5.304894766e-08
5.934122069e-08
6.928321033e-08
8.335756551e-08
1.022621556e-07
1.261063864e-07
1.540857817e-07
1.831914382e-07
2.059406243e-07
6.770048972e-08
7.52460679e-08
8.725624754e-08
1.042332347e-07
1.266913012e-07
1.547390561e-07
1.873659315e-07
2.210777656e-07
2.473445753e-07
8.642128866e-08
9.545999283e-08
1.096757559e-07
1.29571267e-07
1.556025858e-07
1.878509698e-07
2.250565304e-07
2.631535163e-07
2.926761571e-07
1.098083397e-07
1.203528619e-07
1.368180938e-07
1.596515055e-07
1.893229674e-07
2.256705206e-07
2.671627014e-07
3.092485469e-07
3.416308174e-07
1.381664574e-07
1.502465768e-07
1.689937012e-07
1.947866157e-07
2.279762986e-07
2.681746311e-07
3.135258884e-07
3.590496598e-07
3.937771737e-07
1.718106506e-07
1.854209865e-07
2.06395062e-07
2.350761366e-07
2.715598322e-07
3.152369175e-07
3.638305561e-07
4.120851804e-07
4.485391839e-07
2.109908471e-07
2.260928703e-07
2.492314148e-07
2.805190353e-07
3.198922606e-07
3.664357425e-07
4.175573725e-07
4.677085451e-07
5.051862803e-07
2.558112353e-07
2.722826417e-07
2.973500568e-07
3.309371098e-07
3.726555026e-07
4.212870508e-07
4.740268359e-07
5.251045356e-07
5.628305978e-07
3.0619772e-07
3.238363425e-07
3.504836319e-07
3.85829779e-07
4.291884483e-07
4.790384662e-07
5.323371909e-07
5.832380444e-07
6.203534986e-07
3.618505911e-07
3.803740826e-07
4.081415607e-07
4.445845795e-07
4.887096404e-07
5.386895274e-07
5.912620568e-07
6.406065279e-07
6.759329873e-07
4.221944258e-07
4.412366668e-07
4.695441957e-07
5.062675433e-07
5.500801107e-07
5.988041051e-07
6.488616789e-07
6.94299846e-07
7.247446651e-07
4.863204276e-07
5.054211996e-07
5.33541842e-07
5.695146429e-07
6.116063741e-07
6.571163246e-07
7.017077653e-07
7.407477137e-07
7.674002662e-07
5.528587102e-07
5.714189945e-07
5.983684582e-07
6.32120533e-07
6.703383686e-07
7.096018463e-07
7.481109232e-07
7.821754235e-07
8.054212517e-07
6.195036016e-07
6.366376855e-07
6.607500228e-07
6.896523159e-07
7.22195363e-07
7.563066417e-07
7.896723958e-07
8.189711227e-07
8.387705921e-07
6.811019158e-07
6.955283328e-07
7.160145501e-07
7.410436346e-07
7.690765004e-07
7.982585488e-07
8.264346029e-07
8.508036633e-07
8.670286698e-07
7.364888221e-07
7.488512759e-07
7.66346597e-07
7.876052555e-07
8.110994548e-07
8.351417212e-07
8.578899168e-07
8.771502856e-07
8.897220676e-07
7.869314774e-07
7.972315837e-07
8.116608306e-07
8.289341952e-07
8.47634311e-07
8.662925598e-07
8.83443739e-07
8.975314734e-07
9.064694372e-07
8.318603274e-07
8.399618923e-07
8.511321896e-07
8.641974789e-07
8.7790891e-07
8.910649065e-07
9.026083344e-07
9.116145135e-07
9.170465913e-07
8.702657035e-07
8.760576763e-07
8.83838486e-07
8.925870325e-07
9.01268441e-07
9.089816365e-07
9.150863963e-07
9.19258093e-07
9.21413022e-07
9.012012328e-07
9.046494289e-07
9.090272784e-07
9.135029792e-07
9.172883784e-07
9.198000854e-07
9.208048231e-07
9.205265549e-07
9.197166054e-07
9.239839054e-07
9.251432513e-07
9.262314997e-07
9.266318071e-07
9.258210538e-07
9.235346525e-07
9.199202981e-07
9.156847093e-07
9.122832927e-07
9.382766706e-07
9.37286424e-07
9.353146597e-07
9.319721028e-07
9.270043125e-07
9.204522923e-07
9.12805536e-07
9.051787107e-07
8.995958774e-07
9.441112585e-07
9.41181339e-07
9.364738239e-07
9.298264999e-07
9.212432704e-07
9.110442007e-07
9.000147528e-07
8.895991389e-07
8.822574921e-07
9.418657408e-07
9.372564054e-07
9.302023696e-07
9.207567575e-07
9.091608388e-07
8.959795649e-07
8.822417614e-07
8.696435606e-07
8.609571472e-07
9.322103126e-07
9.262125816e-07
9.172382939e-07
9.055350934e-07
8.915523221e-07
8.760597307e-07
8.602760214e-07
8.4607606e-07
8.364328447e-07
9.160425447e-07
9.089577597e-07
8.984980727e-07
8.850785665e-07
8.693222976e-07
8.521613993e-07
8.349527804e-07
8.196840449e-07
8.094330855e-07
8.944056036e-07
8.865276618e-07
8.75001799e-07
8.603800589e-07
8.434228298e-07
8.251827454e-07
8.071073281e-07
7.912397577e-07
7.806832477e-07
8.684076821e-07
8.600091474e-07
8.478021956e-07
8.324445182e-07
8.147979866e-07
7.9599658e-07
7.775364429e-07
7.614687123e-07
7.508584942e-07
8.391505204e-07
8.304730913e-07
8.179236822e-07
8.022355415e-07
7.843386487e-07
7.654133979e-07
7.469689739e-07
7.310263512e-07
7.205641524e-07
8.076722418e-07
7.989214338e-07
7.863152777e-07
7.706351808e-07
7.528496175e-07
7.341555361e-07
7.160461903e-07
7.004831791e-07
6.90323648e-07
7.749068044e-07
7.662502654e-07
7.538186391e-07
7.384176805e-07
7.210291947e-07
7.028422061e-07
6.853114139e-07
6.703177499e-07
6.605733249e-07
7.416598299e-07
7.332284678e-07
7.211504738e-07
7.062361379e-07
6.894601082e-07
6.719841297e-07
6.552075376e-07
6.409161853e-07
6.316630138e-07
7.085988234e-07
7.004899092e-07
6.888972992e-07
6.746199768e-07
6.58609403e-07
6.41985587e-07
6.26080734e-07
6.125768367e-07
6.038609814e-07
6.762546127e-07
6.685359714e-07
6.575193432e-07
6.439803113e-07
6.28835229e-07
6.131521182e-07
5.981885363e-07
5.855183394e-07
5.7736179e-07
6.450307078e-07
6.377454098e-07
6.273609931e-07
6.146208707e-07
6.003979277e-07
5.857015038e-07
5.717104289e-07
5.598896314e-07
5.522957931e-07
6.152175951e-07
6.083886429e-07
5.986649727e-07
5.86751883e-07
5.734734039e-07
5.597763925e-07
5.467595708e-07
5.357807434e-07
5.287392177e-07
5.870093452e-07
5.8064403e-07
5.71588087e-07
5.605050712e-07
5.481671694e-07
5.35457238e-07
5.233945548e-07
5.1323346e-07
5.067240509e-07
5.605206132e-07
5.546143576e-07
5.462169435e-07
5.359483879e-07
5.245279196e-07
5.127746129e-07
5.01630459e-07
4.922512479e-07
4.862472078e-07
5.358027355e-07
5.303423453e-07
5.225826054e-07
5.130996063e-07
5.025599189e-07
4.9172033e-07
4.814487431e-07
4.728080969e-07
4.672786755e-07
5.12858154e-07
5.078244779e-07
5.006735808e-07
4.919382797e-07
4.822338175e-07
4.72257086e-07
4.628057822e-07
4.548561158e-07
4.497685037e-07
4.91652814e-07
4.870228537e-07
4.80446897e-07
4.724158831e-07
4.634957735e-07
4.543265542e-07
4.456399993e-07
4.38331869e-07
4.336526336e-07
4.72126464e-07
4.678750017e-07
4.618372454e-07
4.544641533e-07
4.462749227e-07
4.378559854e-07
4.298776686e-07
4.23161526e-07
4.188576383e-07
4.542009713e-07
4.50301793e-07
4.447643281e-07
4.380017671e-07
4.304893405e-07
4.227634623e-07
4.154375268e-07
4.092649521e-07
4.053044908e-07
4.377868682e-07
4.342136558e-07
4.291386167e-07
4.229395618e-07
4.160506895e-07
4.089619862e-07
4.022343542e-07
3.965588866e-07
3.929114949e-07
4.227883852e-07
4.195153476e-07
4.148657642e-07
4.091845243e-07
4.028677615e-07
3.963625855e-07
3.901816977e-07
3.849593592e-07
3.815965178e-07
4.091072321e-07
4.061095348e-07
4.018499066e-07
3.96642769e-07
3.908491162e-07
3.848766264e-07
3.791938916e-07
3.743834855e-07
3.712786505e-07
3.966453727e-07
3.938994137e-07
3.899960753e-07
3.85221707e-07
3.799049963e-07
3.744174856e-07
3.691875191e-07
3.647507653e-07
3.618794113e-07
3.853070035e-07
3.827905767e-07
3.792119083e-07
3.748315796e-07
3.69948676e-07
3.649017241e-07
3.600824345e-07
3.559839901e-07
3.53323587e-07
3.749999192e-07
3.726922957e-07
3.694088225e-07
3.653865011e-07
3.608973723e-07
3.562498747e-07
3.518024458e-07
3.48009847e-07
3.45539794e-07
3.656364108e-07
3.635183612e-07
3.605027741e-07
3.568051305e-07
3.526728246e-07
3.483869357e-07
3.442757371e-07
3.407592906e-07
3.384608224e-07
3.571338156e-07
3.551875933e-07
3.524147143e-07
3.490110637e-07
3.452016234e-07
3.412426435e-07
3.374350953e-07
3.341677374e-07
3.320238148e-07
3.494148038e-07
3.476240996e-07
3.450708108e-07
3.419330157e-07
3.384153539e-07
3.34751581e-07
3.312179905e-07
3.281751282e-07
3.26170321e-07
3.424074772e-07
3.407573573e-07
3.384025082e-07
3.355048551e-07
3.322506051e-07
3.288531644e-07
3.255665474e-07
3.227258911e-07
3.208462587e-07
3.360453364e-07
3.345221698e-07
3.323464691e-07
3.296655293e-07
3.266488802e-07
3.234915427e-07
3.204274384e-07
3.177688324e-07
3.16001806e-07
3.302671501e-07
3.288585289e-07
3.268444287e-07
3.243589117e-07
3.215564376e-07
3.186154355e-07
3.157517201e-07
3.132569763e-07
3.115912445e-07
3.250167561e-07
3.237114144e-07
3.218429915e-07
3.195335956e-07
3.169240842e-07
3.141779267e-07
3.11494631e-07
3.091473669e-07
3.075727669e-07
3.202428195e-07
3.190305507e-07
3.172933886e-07
3.151426532e-07
3.127069362e-07
3.101362296e-07
3.076153626e-07
3.054008474e-07
3.039082617e-07
3.158985613e-07
3.147701381e-07
3.131512103e-07
3.111433713e-07
3.088641606e-07
3.064514355e-07
3.040768154e-07
3.019818232e-07
3.005630833e-07
3.11941472e-07
3.108885677e-07
3.093761258e-07
3.074969761e-07
3.053587062e-07
3.03088252e-07
3.008453465e-07
2.988580193e-07
2.975058157e-07
3.083330177e-07
3.073481314e-07
3.059315973e-07
3.041683539e-07
3.021570319e-07
3.000147405e-07
2.978905164e-07
2.960002353e-07
2.947080339e-07
3.05038346e-07
3.041147309e-07
3.027845943e-07
3.011257724e-07
2.992288365e-07
2.972020554e-07
2.951848377e-07
2.933821037e-07
2.921440692e-07
3.020259967e-07
3.011575926e-07
2.99905315e-07
2.98340609e-07
2.965467961e-07
2.94624191e-07
2.927035324e-07
2.909798561e-07
2.89790781e-07
2.992676214e-07
2.984489915e-07
2.972669153e-07
2.957870884e-07
2.940863102e-07
2.922577374e-07
2.904242971e-07
2.887720969e-07
2.876273372e-07
2.96737715e-07
2.959639864e-07
2.948452514e-07
2.934420322e-07
2.918252603e-07
2.90081649e-07
2.883270815e-07
2.867395908e-07
2.856350067e-07
2.9441336e-07
2.936801694e-07
2.926186341e-07
2.912846215e-07
2.897437823e-07
2.880770257e-07
2.863938785e-07
2.848650604e-07
2.837969629e-07
2.922739871e-07
2.915774296e-07
2.905675999e-07
2.892961752e-07
2.878240521e-07
2.862269087e-07
2.846085294e-07
2.831329996e-07
2.820981019e-07
2.903011506e-07
2.896377338e-07
2.886746966e-07
2.874599436e-07
2.860500884e-07
2.845160912e-07
2.829565424e-07
2.815294994e-07
2.805248731e-07
2.884783209e-07
2.878449217e-07
2.869242852e-07
2.857609165e-07
2.84407569e-07
2.829309433e-07
2.814249264e-07
2.800420877e-07
2.790651235e-07
2.867906925e-07
2.861845193e-07
2.853023577e-07
2.841856486e-07
2.828836629e-07
2.814592521e-07
2.800020378e-07
2.786595836e-07
2.777079556e-07
2.852250089e-07
2.846435658e-07
2.837963703e-07
2.827220984e-07
2.81466877e-07
2.800900756e-07
2.786774415e-07
2.773719632e-07
2.764435978e-07
2.837694023e-07
2.832104577e-07
2.823950913e-07
2.813594825e-07
2.801469168e-07
2.788136099e-07
2.77441785e-07
2.761702397e-07
2.752632865e-07
2.824132481e-07
2.818748062e-07
2.810884636e-07
2.80088143e-07
2.7891456e-07
2.776210695e-07
2.76286684e-07
2.750463535e-07
2.741591607e-07
2.811470338e-07
2.806273089e-07
2.798674801e-07
2.788994288e-07
2.777615427e-07
2.765045792e-07
2.752046197e-07
2.739930742e-07
2.731241659e-07
2.799622398e-07
2.794596334e-07
2.787240718e-07
2.777855875e-07
2.766804573e-07
2.754570767e-07
2.741888467e-07
2.730039123e-07
2.721519686e-07
2.788512339e-07
2.783643141e-07
2.776510072e-07
2.767396691e-07
2.756646608e-07
2.74472226e-07
2.732333103e-07
2.720730402e-07
2.712368795e-07
2.77807175e-07
2.773346582e-07
2.76641802e-07
2.757554403e-07
2.747081921e-07
2.73544339e-07
2.723325723e-07
2.711952213e-07
2.703737845e-07
2.76823928e-07
2.763646628e-07
2.756906388e-07
2.748273065e-07
2.738056994e-07
2.726683063e-07
2.714817454e-07
2.703657472e-07
2.695580839e-07
2.758959878e-07
2.754489403e-07
2.74792295e-07
2.739502435e-07
2.729523742e-07
2.718395351e-07
2.706764339e-07
2.695803809e-07
2.687856371e-07
2.75018411e-07
2.745826518e-07
2.73942079e-07
2.731197363e-07
2.721438932e-07
2.710538938e-07
2.699126815e-07
2.688353072e-07
2.680527143e-07
2.741867556e-07
2.737614486e-07
2.731357725e-07
2.723317239e-07
2.713763663e-07
2.703076629e-07
2.691869245e-07
2.681270877e-07
2.673559528e-07
2.733970268e-07
2.72981419e-07
2.723695807e-07
2.715825513e-07
2.706462903e-07
2.695974911e-07
2.684959502e-07
2.674526209e-07
2.666923187e-07
2.726456293e-07
2.722390416e-07
2.71640086e-07
2.708689257e-07
2.699505082e-07
2.689203564e-07
2.6783686e-07
2.668091073e-07
2.66059072e-07
2.719293247e-07
2.715311441e-07
2.709442086e-07
2.701878787e-07
2.69286172e-07
2.682735314e-07
2.672070362e-07
2.661940171e-07
2.654537363e-07
2.712451936e-07
2.708548659e-07
2.702791707e-07
2.695367315e-07
2.686507106e-07
2.676545523e-07
2.66604113e-07
2.656050631e-07
2.648740714e-07
2.705906015e-07
2.702076251e-07
2.696424643e-07
2.689130647e-07
2.680418009e-07
2.670611917e-07
2.660259503e-07
2.650401748e-07
2.643180489e-07
2.699631693e-07
2.695870897e-07
2.690318233e-07
2.683146914e-07
2.674573416e-07
2.66491434e-07
2.654706103e-07
2.644974769e-07
2.637838309e-07
2.693607466e-07
2.689911512e-07
2.68445198e-07
2.677396327e-07
2.668954308e-07
2.659434536e-07
2.64936337e-07
2.63975269e-07
2.632697504e-07
2.687813875e-07
2.684179015e-07
2.678807333e-07
2.671860968e-07
2.663543452e-07
2.654155958e-07
2.644215377e-07
2.634720081e-07
2.627742941e-07
2.682233301e-07
2.678656123e-07
2.673367482e-07
2.666524594e-07
2.658325221e-07
2.64906359e-07
2.639247669e-07
2.629862929e-07
2.622960874e-07
2.676849771e-07
2.673327166e-07
2.668117181e-07
2.66137247e-07
2.65328543e-07
2.644143798e-07
2.63444711e-07
2.625168498e-07
2.618338804e-07
2.671648793e-07
2.668177924e-07
2.663042591e-07
2.656391213e-07
2.648411196e-07
2.639384193e-07
2.629801758e-07
2.620625205e-07
2.613865363e-07
2.666617205e-07
2.663195479e-07
2.658131137e-07
2.651568661e-07
2.643690802e-07
2.634773503e-07
2.62530075e-07
2.616222509e-07
2.609530202e-07
2.661743036e-07
2.658368081e-07
2.653371382e-07
2.646893749e-07
2.639113588e-07
2.630301472e-07
2.620934194e-07
2.611950812e-07
2.605323899e-07
2.657015389e-07
2.653685035e-07
2.648752909e-07
2.642356399e-07
2.634669843e-07
2.625958755e-07
2.616693082e-07
2.607801372e-07
2.601237874e-07
2.652424327e-07
2.649136583e-07
2.644266217e-07
2.637947417e-07
2.630350709e-07
2.621736833e-07
2.612569202e-07
2.603766229e-07
2.597264315e-07
2.647960766e-07
2.644713808e-07
2.639902624e-07
2.633658404e-07
2.626148097e-07
2.617627927e-07
2.608555066e-07
2.599838127e-07
2.593396111e-07
2.643616376e-07
2.640408532e-07
2.635654168e-07
2.629481661e-07
2.622054597e-07
2.613624923e-07
2.604643833e-07
2.596010453e-07
2.589626789e-07
2.639383478e-07
2.636213221e-07
2.631513514e-07
2.625410099e-07
2.618063393e-07
2.609721286e-07
2.600829237e-07
2.592277166e-07
2.585950452e-07
2.63525494e-07
2.632120872e-07
2.627473849e-07
2.621437137e-07
2.614168168e-07
2.605910975e-07
2.597105502e-07
2.588632722e-07
2.582361708e-07
2.63122405e-07
2.628124896e-07
2.623528763e-07
2.617556588e-07
2.610362988e-07
2.602188327e-07
2.593467241e-07
2.585071977e-07
2.578855582e-07
2.627284374e-07
2.624218976e-07
2.619672103e-07
2.61376251e-07
2.60664216e-07
2.598547926e-07
2.589909321e-07
2.581590064e-07
2.575427393e-07
2.623429576e-07
2.620396876e-07
2.61589779e-07
2.610049022e-07
2.603000045e-07
2.594984406e-07
2.586426671e-07
2.5781822e-07
2.572072576e-07
2.619653183e-07
2.616652216e-07
2.612199574e-07
2.606410057e-07
2.599430797e-07
2.591492191e-07
2.58301402e-07
2.574843425e-07
2.568786413e-07
2.615948286e-07
2.612978153e-07
2.608570721e-07
2.602839024e-07
2.595928023e-07
2.588065134e-07
2.579665518e-07
2.571568212e-07
2.565563642e-07
2.612307152e-07
2.609366985e-07
2.605003584e-07
2.599328368e-07
2.592484303e-07
2.584696014e-07
2.576374209e-07
2.568349917e-07
2.562397897e-07
2.608720715e-07
2.605809628e-07
2.60148906e-07
2.595868986e-07
2.589090573e-07
2.581375868e-07
2.573131316e-07
2.565180025e-07
2.559280923e-07
2.605177935e-07
2.602294942e-07
2.598015881e-07
2.592449468e-07
2.585735305e-07
2.578093107e-07
2.569925282e-07
2.562047124e-07
2.556201505e-07
2.601664986e-07
2.598808895e-07
2.594569718e-07
2.589055139e-07
2.582403463e-07
2.574832375e-07
2.566740536e-07
2.558935579e-07
2.553144073e-07
2.598164267e-07
2.595333518e-07
2.591132082e-07
2.585666866e-07
2.579075202e-07
2.571573129e-07
2.563555932e-07
2.55582383e-07
2.550086911e-07
2.594653194e-07
2.591845654e-07
2.587678977e-07
2.582259605e-07
2.57572429e-07
2.568287892e-07
2.56034283e-07
2.55268232e-07
2.546999951e-07
2.591102775e-07
2.588315464e-07
2.584179324e-07
2.578800693e-07
2.572316221e-07
2.564940185e-07
2.557062822e-07
2.549471e-07
2.543842123e-07
2.587475972e-07
2.584704712e-07
2.58059312e-07
2.57524786e-07
2.568806053e-07
2.561482138e-07
2.553665091e-07
2.54613645e-07
2.540558296e-07
2.583725834e-07
2.580964823e-07
2.576869379e-07
2.571546999e-07
2.565135961e-07
2.5578518e-07
2.550083449e-07
2.54260864e-07
2.537075822e-07
2.579793446e-07
2.577034741e-07
2.572943857e-07
2.567629719e-07
2.561232576e-07
2.553970208e-07
2.546233121e-07
2.538797423e-07
2.533300808e-07
2.575605722e-07
2.572838634e-07
2.568736629e-07
2.563410737e-07
2.557004147e-07
2.549738303e-07
2.542007358e-07
2.534588855e-07
2.529114207e-07
2.571073092e-07
2.568283499e-07
2.564149554e-07
2.558785185e-07
2.552337648e-07
2.545033769e-07
2.537274012e-07
2.529841495e-07
2.524367907e-07
2.566087142e-07
2.563256728e-07
2.559063743e-07
2.553625916e-07
2.547095891e-07
2.539707953e-07
2.531872216e-07
2.524382854e-07
2.518881006e-07
2.560518299e-07
2.557623726e-07
2.553337076e-07
2.547780918e-07
2.541114809e-07
2.533582977e-07
2.525609338e-07
2.518006193e-07
2.512436489e-07
2.554213619e-07
2.551225667e-07
2.546801907e-07
2.541070932e-07
2.534200989e-07
2.526449203e-07
2.518258376e-07
2.510467865e-07
2.504778539e-07
2.546994775e-07
2.543877461e-07
2.539263012e-07
2.533287406e-07
2.526129632e-07
2.518063209e-07
2.509555977e-07
2.501485412e-07
2.495610712e-07
2.53865631e-07
2.535366032e-07
2.530495903e-07
2.524190857e-07
2.516643015e-07
2.508146407e-07
2.499201269e-07
2.490736633e-07
2.484595211e-07
2.528964256e-07
2.525448981e-07
2.520245585e-07
2.513509784e-07
2.505449611e-07
2.496384451e-07
2.486855643e-07
2.477859802e-07
2.47135348e-07
2.517655163e-07
2.513853727e-07
2.508225856e-07
2.500940197e-07
2.492223969e-07
2.48242758e-07
2.472143676e-07
2.46245524e-07
2.455468307e-07
2.504435642e-07
2.500277184e-07
2.494119227e-07
2.486145903e-07
2.476607481e-07
2.465892034e-07
2.454655347e-07
2.44408841e-07
2.436487661e-07
2.488982487e-07
2.484386095e-07
2.477577587e-07
2.468759644e-07
2.458210184e-07
2.446362709e-07
2.433949733e-07
2.422294742e-07
2.413930441e-07
2.470943501e-07
2.465818129e-07
2.458223734e-07
2.44838526e-07
2.43661377e-07
2.423397255e-07
2.409560404e-07
2.396586408e-07
2.387294356e-07
2.449939183e-07
2.44418392e-07
2.435653981e-07
2.424601093e-07
2.411376057e-07
2.396531877e-07
2.381002784e-07
2.366461312e-07
2.356066194e-07
2.4255655e-07
2.419070295e-07
2.409442097e-07
2.396964929e-07
2.38203723e-07
2.365289182e-07
2.34778382e-07
2.331414593e-07
2.319734729e-07
2.39739807e-07
2.390045029e-07
2.379144946e-07
2.365020861e-07