/*--------------------------------*- C++ -*----------------------------------*\
| =========                 |                                                 |
| \\      /  F ield         | OpenFOAM: The Open Source CFD Toolbox           |
|  \\    /   O peration     | Version:  2212                                  |
|   \\  /    A nd           | Website:  www.openfoam.com                      |
|    \\/     M anipulation  |                                                 |
\*---------------------------------------------------------------------------*/
FoamFile
{
    version     2.0;
    format      ascii;
    arch        "LSB;label=32;scalar=64";
    class       volScalarField;
    location    "20.00000000";
    object      C4H2;
}
// * * * * * * * * * * * * * * * * * * * * * * * * * * * * * * * * * * * * * //

dimensions      [0 0 0 0 0 0 0];

internalField   nonuniform List<scalar> 
3000
(
4.449283267e-20
4.99794154e-20
5.825804149e-20
6.928910399e-20
8.296021505e-20
9.890042126e-20
1.161501844e-19
1.326112641e-19
1.44250532e-19
1.670444467e-19
1.883993686e-19
2.206076117e-19
2.636192896e-19
3.173907402e-19
3.816272226e-19
4.552154995e-19
5.344639306e-19
6.046483366e-19
3.741795374e-19
4.253317542e-19
5.032177764e-19
6.089606896e-19
7.444578232e-19
9.11679444e-19
1.109963748e-18
1.328206946e-18
1.514673316e-18
7.127217425e-19
8.186439026e-19
9.822924791e-19
1.209197723e-18
1.50739301e-18
1.884461501e-18
2.338343928e-18
2.832763302e-18
3.231792624e-18
1.265653749e-18
1.471604224e-18
1.794810379e-18
2.251683475e-18
2.863705727e-18
3.64804137e-18
4.591579504e-18
5.59363844e-18
6.362846303e-18
2.176458064e-18
2.563024174e-18
3.178383464e-18
4.061804089e-18
5.260405668e-18
6.80436873e-18
8.647568081e-18
1.0557606e-17
1.197068709e-17
3.695000892e-18
4.405095212e-18
5.548634705e-18
7.208845567e-18
9.478147384e-18
1.240164547e-17
1.585837641e-17
1.937043115e-17
2.190451646e-17
6.253450313e-18
7.538471887e-18
9.626255764e-18
1.268073849e-17
1.687216881e-17
2.226080147e-17
2.857617137e-17
3.489902467e-17
3.938503581e-17
1.060080758e-17
1.290157635e-17
1.666374223e-17
2.219561236e-17
2.979984423e-17
3.954925698e-17
5.089291377e-17
6.213178808e-17
7.001775876e-17
1.803453369e-17
2.212155464e-17
2.883498984e-17
3.873801958e-17
5.235894529e-17
6.977628298e-17
8.992948195e-17
1.09750603e-16
1.235558244e-16
3.080471685e-17
3.802288396e-17
4.991705077e-17
6.749727138e-17
9.167782398e-17
1.225282414e-16
1.580779968e-16
1.928653383e-16
2.169762753e-16
5.281628225e-17
6.551125671e-17
8.647578001e-17
1.17500791e-16
1.601631049e-16
2.144932531e-16
2.769100577e-16
3.377752968e-16
3.798318384e-16
9.085101001e-17
1.131132908e-16
1.499329724e-16
2.044631849e-16
2.79419714e-16
3.747294056e-16
4.839615748e-16
5.902028285e-16
6.635610449e-16
1.566887927e-16
1.956503249e-16
2.601596583e-16
3.557480212e-16
4.870952189e-16
6.53871172e-16
8.444981548e-16
1.029290828e-15
1.157692725e-15
2.707814679e-16
3.388691873e-16
4.517030327e-16
6.189846015e-16
8.488242808e-16
1.140328666e-15
1.472325367e-15
1.791202181e-15
2.018609521e-15
4.68603726e-16
5.874341009e-16
7.845032771e-16
1.07684861e-15
1.478778185e-15
1.989362214e-15
2.574195163e-15
3.144162987e-15
3.528096089e-15
8.116468061e-16
1.018734621e-15
1.362312417e-15
1.872089223e-15
2.572802748e-15
3.462127854e-15
4.478165473e-15
5.462195003e-15
6.135226358e-15
1.40654381e-15
1.76699104e-15
2.36513461e-15
3.252619134e-15
4.472148677e-15
6.018942619e-15
7.784306868e-15
9.492136409e-15
1.066230798e-14
2.438302114e-15
3.065129319e-15
4.105465303e-15
5.649037202e-15
7.769726214e-15
1.045857102e-14
1.352602527e-14
1.649229412e-14
1.852445723e-14
4.228013419e-15
5.317473275e-15
7.125846659e-15
9.809028741e-15
1.349504478e-14
1.81676373e-14
2.349677244e-14
2.864868157e-14
3.217731318e-14
7.333058388e-15
9.225955662e-15
1.236824872e-14
1.703078041e-14
2.343555658e-14
3.155347119e-14
4.081023559e-14
4.975717015e-14
5.588381956e-14
1.272111169e-14
1.600928291e-14
2.146820752e-14
2.956834493e-14
4.069474145e-14
5.479560256e-14
7.087200824e-14
8.640738719e-14
9.704406244e-14
2.20723531e-14
2.778358361e-14
3.726568006e-14
5.133563147e-14
7.06612091e-14
9.515050147e-14
1.230664285e-13
1.500382636e-13
1.6850329e-13
3.83043971e-14
4.82235791e-14
6.469233703e-14
8.912902223e-14
1.22691463e-13
1.652167293e-13
2.136846858e-13
2.605065486e-13
2.925573428e-13
6.648411451e-14
8.371104284e-14
1.123126177e-13
1.54750263e-13
2.130306269e-13
2.868648104e-13
3.710032433e-13
4.522711344e-13
5.078960733e-13
1.154111338e-13
1.453290676e-13
1.949992211e-13
2.686910739e-13
3.698797211e-13
4.980508187e-13
6.440799039e-13
7.85099306e-13
8.816090392e-13
2.003675624e-13
2.523248475e-13
3.385777697e-13
4.66527177e-13
6.421845327e-13
8.646270166e-13
1.117991798e-12
1.362596967e-12
1.529959488e-12
3.478913593e-13
4.381205963e-13
5.878871616e-13
8.100080504e-13
1.114865123e-12
1.500785976e-12
1.940184796e-12
2.364227412e-12
2.654266387e-12
6.040545119e-13
7.60735867e-13
1.020749217e-12
1.406263341e-12
1.9351658e-12
2.604385689e-12
3.36592927e-12
4.100453266e-12
4.602610336e-12
1.048803891e-12
1.32083826e-12
1.772148663e-12
2.44101348e-12
3.358153573e-12
4.51783695e-12
5.836511912e-12
7.107409283e-12
7.975640626e-12
1.820764049e-12
2.292950028e-12
3.076001326e-12
4.235859144e-12
5.825054013e-12
7.832688471e-12
1.011319754e-11
1.23086956e-11
1.380706816e-11
3.160038466e-12
3.979266173e-12
5.337101144e-12
7.346785121e-12
1.00976144e-11
1.356847678e-11
1.750555362e-11
2.129025238e-11
2.386960381e-11
5.481859165e-12
6.902174284e-12
9.254604063e-12
1.273281877e-11
1.748743295e-11
2.347682254e-11
3.025805043e-11
3.676392701e-11
4.118945046e-11
9.502866431e-12
1.196267265e-11
1.603299496e-11
2.204327376e-11
3.024496325e-11
4.055481012e-11
5.219937707e-11
6.33422901e-11
7.090330308e-11
1.645669615e-11
2.071030425e-11
2.774049275e-11
3.810377292e-11
5.221440654e-11
6.990422651e-11
8.982247091e-11
1.088200041e-10
1.216699814e-10
2.846016633e-11
3.580044326e-11
4.791384445e-11
6.573220581e-11
8.992635826e-11
1.201550749e-10
1.540607457e-10
1.862671546e-10
2.079661434e-10
4.913161923e-11
6.176375034e-11
8.257088092e-11
1.130961411e-10
1.544018748e-10
2.057964391e-10
2.631719981e-10
3.174025656e-10
3.537673669e-10
8.462811063e-11
1.062909412e-10
1.418905277e-10
1.939475599e-10
2.640961042e-10
3.509432577e-10
4.473548515e-10
5.37949555e-10
5.983617936e-10
1.453722179e-10
1.823594614e-10
2.429721576e-10
3.312593311e-10
4.496388512e-10
5.953371399e-10
7.560273174e-10
9.060073336e-10
1.005388426e-09
2.489033093e-10
3.117201685e-10
4.14317455e-10
5.630679052e-10
7.613621648e-10
1.003762656e-09
1.269123587e-09
1.514929884e-09
1.676668693e-09
4.245429014e-10
5.305542354e-10
7.030228466e-10
9.517342773e-10
1.281078256e-09
1.680595626e-09
2.11435338e-09
2.512833053e-09
2.773052444e-09
7.209528634e-10
8.985481683e-10
1.186175188e-09
1.598417346e-09
2.140232786e-09
2.791937117e-09
3.493172395e-09
4.131708725e-09
4.545390266e-09
1.218248745e-09
1.513278535e-09
1.988668511e-09
2.665371723e-09
3.547472555e-09
4.598795183e-09
5.719309091e-09
6.73029584e-09
7.379960789e-09
2.047188227e-09
2.532727013e-09
3.310684378e-09
4.409817009e-09
5.829920016e-09
7.506152801e-09
9.275190376e-09
1.085645915e-08
1.18643468e-08
3.419189173e-09
4.210062453e-09
5.469505918e-09
7.234686671e-09
9.4941607e-09
1.213464127e-08
1.489365771e-08
1.733701934e-08
1.888203445e-08
5.672670952e-09
6.946659163e-09
8.96230117e-09
1.176370038e-08
1.531529119e-08
1.942411151e-08
2.367517079e-08
2.74059798e-08
2.974712949e-08
9.343614174e-09
1.137183364e-08
1.455919379e-08
1.895111553e-08
2.44655727e-08
3.0781914e-08
3.725453109e-08
4.288619365e-08
4.639483985e-08
1.527149287e-08
1.84611871e-08
2.343957593e-08
3.024047156e-08
3.869859174e-08
4.829349439e-08
5.803638122e-08
6.644509009e-08
7.164916e-08
2.475609892e-08
2.971001482e-08
3.738952311e-08
4.779199989e-08
6.061073943e-08
7.501941833e-08
8.952581715e-08
1.019526353e-07
1.095970373e-07
3.978657986e-08
4.738435084e-08
5.90847541e-08
7.480558777e-08
9.400978662e-08
1.154117121e-07
1.36790008e-07
1.549799152e-07
1.661089149e-07
6.337168609e-08
7.488033676e-08
9.249236433e-08
1.159758274e-07
1.444309819e-07
1.758941524e-07
2.070995582e-07
2.334905358e-07
2.495598903e-07
1.000103456e-07
1.172333588e-07
1.434362102e-07
1.781284438e-07
2.198551685e-07
2.656666732e-07
3.108154067e-07
3.487954774e-07
3.718252109e-07
1.563549346e-07
1.818325728e-07
2.203861568e-07
2.711040658e-07
3.317016456e-07
3.978141823e-07
4.626094606e-07
5.168665314e-07
5.496500143e-07
2.42136655e-07
2.794151507e-07
3.35551672e-07
4.089769338e-07
4.961915711e-07
5.90825052e-07
6.831352966e-07
7.601355677e-07
8.065278132e-07
3.714223301e-07
4.254094419e-07
5.06356266e-07
6.117025018e-07
7.362015794e-07
8.706664367e-07
1.001314864e-06
1.109957067e-06
1.175268881e-06
5.643296044e-07
6.417719414e-07
7.574545795e-07
9.073623842e-07
1.083771423e-06
1.273574267e-06
1.457411039e-06
1.609925136e-06
1.701473764e-06
8.493407323e-07
9.594558397e-07
1.123428226e-06
1.335153681e-06
1.58344204e-06
1.849774922e-06
2.107132763e-06
2.320311731e-06
2.448183674e-06
1.266359915e-06
1.421667028e-06
1.652337094e-06
1.949322794e-06
2.296643749e-06
2.668373595e-06
3.027026623e-06
3.323898958e-06
3.501994858e-06
1.87070005e-06
2.088100581e-06
2.410327084e-06
2.824254414e-06
3.30735742e-06
3.823645553e-06
4.321401396e-06
4.73345555e-06
4.98088693e-06
2.738193905e-06
3.040356296e-06
3.487497054e-06
4.060921481e-06
4.729253705e-06
5.442927861e-06
6.130966736e-06
6.701016236e-06
7.043902942e-06
3.971624222e-06
4.388724171e-06
5.005207717e-06
5.794862916e-06
6.714449289e-06
7.696207659e-06
8.643224919e-06
9.428940348e-06
9.902610541e-06
5.70864219e-06
6.28049309e-06
7.124957076e-06
8.205767799e-06
9.463891346e-06
1.080732779e-05
1.210442953e-05
1.318245764e-05
1.383397853e-05
8.131279871e-06
8.909853749e-06
1.005883593e-05
1.152859475e-05
1.323918452e-05
1.5066484e-05
1.683263335e-05
1.830308538e-05
1.919396177e-05
1.147704202e-05
1.252932414e-05
1.408140148e-05
1.606593946e-05
1.837541687e-05
2.084339348e-05
2.323102935e-05
2.522197388e-05
2.64307663e-05
1.605137163e-05
1.746241339e-05
1.954256632e-05
2.220109428e-05
2.529425138e-05
2.860021904e-05
3.180050605e-05
3.447198176e-05
3.609653392e-05
2.224101983e-05
2.411696377e-05
2.688081337e-05
3.041095503e-05
3.451627564e-05
3.890309514e-05
4.315015453e-05
4.66971574e-05
4.885610447e-05
3.052753769e-05
3.29983035e-05
3.663575619e-05
4.127767347e-05
4.6671403e-05
5.243098029e-05
5.800443054e-05
6.265835063e-05
6.549161371e-05
4.149979652e-05
4.472105974e-05
4.945882975e-05
5.549779099e-05
6.250604731e-05
6.998059502e-05
7.720581463e-05
8.323390296e-05
8.690195729e-05
5.586420662e-05
6.001829343e-05
6.612078231e-05
7.388757066e-05
8.288588627e-05
9.246640871e-05
0.0001017121143
0.0001094147358
0.0001140965575
7.445121471e-05
7.97465875e-05
8.751469406e-05
9.73833999e-05
0.0001087932861
0.0001209149893
0.0001325879742
0.0001422936226
0.0001481833576
9.821676695e-05
0.000104885884
0.0001146534868
0.0001270364551
0.0001413188507
0.0001564534695
0.0001709906238
0.0001830489088
0.0001903514625
0.0001282377368
0.0001365332184
0.0001486612905
0.000164001263
0.0001816470238
0.0002002923422
0.0002181502806
0.0002329231428
0.0002418486605
0.0001657007944
0.0001758899928
0.0001907585368
0.0002095182973
0.0002310361673
0.0002537032584
0.0002753461268
0.0002931978069
0.000303956042
0.0002118847684
0.0002242429903
0.0002422411842
0.0002648912309
0.0002907938561
0.0003179925592
0.0003438788084
0.0003651655581
0.0003779595613
0.0002681371206
0.000282939871
0.0003044549585
0.000331459853
0.0003622486391
0.0003944727684
0.000425041436
0.0004501005561
0.0004651206054
0.0003358455681
0.0003533602436
0.0003787657491
0.0004105698216
0.0004467199349
0.0004844319116
0.0005200890878
0.0005492287463
0.0005666466806
0.0004164058507
0.0004368833392
0.0004665274984
0.000503541353
0.0005454865175
0.0005891028962
0.0006302091523
0.0006636988781
0.0006836627977
0.0005111888488
0.0005348555403
0.0005690499949
0.0006116369399
0.0006597557128
0.0007096340744
0.0007564931527
0.0007945554773
0.0008171852216
0.0006215062242
0.000648556512
0.0006875661807
0.0007360306187
0.0007906341708
0.0008470617128
0.0008999109891
0.0009427145022
0.0009680979586
0.0007485774918
0.0007791674155
0.0008232018087
0.0008777792443
0.0009391013319
0.00100228559
0.001061288406
0.001108942401
0.001137132771
0.0008934994
0.0009277414022
0.0009769476105
0.001037796782
0.001105985875
0.001176047784
0.001241288086
0.001293839024
0.001324853165
0.00105721807
0.001095177024
0.001149634462
0.001216831785
0.001291945821
0.001368915477
0.00144039477
0.001497824682
0.001531642611
0.001240504445
0.001282195117
0.001341912412
0.00141544864
0.001497452401
0.001581267444
0.001658904441
0.001721131402
0.001757697003
0.001443933248
0.00148931919
0.001554233033
0.001634012783
0.001722778149
0.001813284978
0.001896917723
0.001963798296
0.002003021126
0.001667865729
0.001716859745
0.001786835993
0.001872679725
0.001967988884
0.002064946962
0.002154337507
0.002225670885
0.002267428535
0.001912436629
0.001964902925
0.002039740107
0.002131389133
0.00223294098
0.002336030132
0.002430871768
0.002506405278
0.002550544238
0.002177546004
0.002233304165
0.002312739598
0.002409864283
0.002517284455
0.002626116015
0.002726044492
0.002805486945
0.002851845803
0.002462856894
0.00252168781
0.002605406456
0.002707617766
0.002820472762
0.002934605501
0.003039224456
0.003122272312
0.003170677212
0.002767800127
0.002829453969
0.002917100071
0.003023964002
0.00314178199
0.003260755563
0.003369653597
0.003455987961
0.003506258229
0.003091588157
0.003155794967
0.003246991168
0.003358060775
0.003480360376
0.003603698777
0.003716452551
0.003805748556
0.003857701671
0.003433267092
0.003499754746
0.003594119942
0.003708938976
0.00383523058
0.003962454805
0.004078641805
0.004170577829
0.004224034305
0.003791750794
0.003860245688
0.003957398284
0.004075513509
0.00420531402
0.004335955272
0.00445516514
0.00454943094
0.004604218543
0.004165834879
0.004236069897
0.004335638976
0.004456612524
0.004589458264
0.00472306969
0.00484491382
0.004941217199
0.004997174315
0.004554231195
0.004625952859
0.004727587819
0.004851007933
0.004986465354
0.005122631543
0.005246750533
0.005344822305
0.005401800333
0.004955603917
0.005028578203
0.005131956442
0.005257445867
0.005395119597
0.005533463403
0.005659532131
0.005759129286
0.005816994061
0.005368605029
0.005442621558
0.005547453848
0.005674675491
0.005814213458
0.005954400027
0.006082130324
0.006183037437
0.006241669722
0.005791907075
0.005866781556
0.005972815018
0.00610147478
0.006242570415
0.00638430854
0.006513449654
0.006615478708
0.00667477384
0.00622423147
0.006299806467
0.006406825247
0.006536672222
0.006679063805
0.006822104076
0.006952440348
0.007055428747
0.007115295566
0.006664369682
0.006740513137
0.006848336109
0.006979159547
0.007122626835
0.007266758873
0.007398107376
0.007501915985
0.007562275591
0.007111195779
0.007187799547
0.007296278115
0.007427904576
0.007572265406
0.00771731386
0.007849520584
0.007954030809
0.008014815006
0.007563679264
0.00764065631
0.007749670428
0.007881958959
0.008027064023
0.008172883533
0.00830581903
0.008410929625
0.008472079251
0.008020888994
0.00809817012
0.008207623736
0.008340460505
0.008486187722
0.008632657609
0.008766212531
0.008871836413
0.008933299691
0.00848199234
0.008559522767
0.008669339142
0.008802632018
0.008948880956
0.00909590006
0.009229980915
0.009336042182
0.009397773211
0.008946250726
0.009023986802
0.009134104039
0.009267777487
0.009414464192
0.009561946169
0.009696471498
0.009802902786
0.00986486022
0.009413012691
0.009490918916
0.009601285946
0.009735276493
0.00988232896
0.01003019819
0.0101650953
0.01027183555
0.01033398149
0.009881705514
0.009959751992
0.01007032516
0.01020457757
0.01035193201
0.01050012015
0.01063532234
0.01074231507
0.01080461431
0.01035182625
0.01042998667
0.01054072698
0.01067519102
0.01082278831
0.01097123184
0.01110667687
0.011213869
0.01127628824
0.01082293228
0.01090118204
0.01101205283
0.01114668116
0.01129446564
0.01144310413
0.0115787324
0.01168607303
0.01174858039
0.01129463284
0.01137294814
0.01148391393
0.01161866061
0.01176657809
0.01191535269
0.01205110625
0.01215854603
0.01222111076
0.01176658189
0.01184493892
0.01195596429
0.01209078359
0.0122387803
0.01238763288
0.0125234548
0.01263094557
0.01269353787
0.01223847126
0.01231684571
0.01242789467
0.01256274041
0.01271076238
0.01285963506
0.0129954691
0.01310296367
0.01316555458
0.01271002478
0.01278839161
0.01289942733
0.01303425254
0.01318224536
0.01333108032
0.01346687082
0.01357432291
0.01363688428
0.01318099337
0.01325932675
0.01337031145
0.01350506837
0.01365297723
0.01380171674
0.01393740865
0.01404477293
0.01410727739
0.0136511509
0.0137294243
0.01384031938
0.01397495963
0.01412272944
0.01427131605
0.01440685512
0.01451408727
0.01457650832
0.01412029085
0.01419847717
0.01430924349
0.01444371829
0.01459129404
0.01473967084
0.01487500377
0.01498206064
0.01504437268
0.01458822357
0.01466629539
0.01477689352
0.01491115409
0.01505848111
0.01520659204
0.01534166676
0.0154485065
0.01551068486
0.01505477408
0.0151327039
0.01524309443
0.01537709232
0.01552411672
0.01567190686
0.01580667271
0.01591325492
0.01597527593
0.01551978034
0.01559754078
0.01570768469
0.01584137214
0.01598804108
0.01613545697
0.01626986495
0.01637615076
0.01643799181
0.0159830918
0.01606065586
0.01617051478
0.01630384504
0.0164501071
0.01659709697
0.01673109992
0.01683705215
0.0168986917
0.01644456829
0.01652190955
0.01663144603
0.01676437369
0.01691017911
0.01705669314
0.01719024588
0.01729582907
0.01735724668
0.01690407913
0.01698117192
0.01709034968
0.01722283086
0.01736813179
0.01751412226
0.01764718172
0.01775236223
0.01781353858
0.01736150236
0.01743832191
0.01754710602
0.01767909861
0.01782384929
0.01796927073
0.01810179605
0.01820654205
0.01826745895
0.01781672417
0.01789324671
0.01800160374
0.01813306757
0.01827722444
0.01842203374
0.01855398628
0.01865826783
0.01871890817
0.01826963836
0.01834584124
0.01845373938
0.01858463628
0.01872815811
0.01887231456
0.01900365797
0.01910744694
0.01916779476
0.0187201459
0.01879600766
0.01890341679
0.01903371069
0.0191765586
0.01932002396
0.01945072416
0.01955399427
0.01961403463
0.01916815452
0.01924365488
0.01935054662
0.01948020363
0.01962234118
0.01976507963
0.01989510479
0.01999783154
0.02005755058
0.0196135784
0.01968869835
0.01979504612
0.01992403452
0.02006542763
0.02020740576
0.02033672626
0.0204388869
0.02049827176
0.02005633801
0.02013105978
0.02023683872
0.0203651289
0.02050574583
0.0206469326
0.02077552097
0.02087709442
0.02093613323
0.02049635967
0.02057066669
0.02067585367
0.02080341813
0.02094322945
0.02108359611
0.02121142693
0.02131239378
0.02137107558
0.02093357526
0.02100745216
0.02111202577
0.02123883905
0.02137781755
0.02151733758
0.02164438747
0.02174472983
0.02180304457
0.021367922
0.0214413546
0.02154529506
0.02167133369
0.02180945435
0.02194810336
0.02207435085
0.02217405234
0.02223199082
0.02179934219
0.02187231745
0.02197560659
0.02210084903
0.02223808887
0.02237584454
0.02250126998
0.02260031564
0.02265786947
0.02222778303
0.02230028897
0.02240291015
0.0225273367
0.02266367474
0.0228005167
0.02292510219
0.02302347841
0.02308063995
0.02265319629
0.02272522201
0.02282716006
0.02295075275
0.0230861699
0.02322207963
0.02334580894
0.02344350337
0.02350026572
0.0230755382
0.02314707377
0.0232483149
0.02337105745
0.0235055364
0.02364049714
0.02376335559
0.02386035709
0.02391671403
0.02349476913
0.02356580557
0.02366633732
0.02378821501
0.02392174015
0.02405573679
0.02417771118
0.02427400975
0.02432995569
0.02391085345
0.02398138267
0.02408119382
0.02420219341
0.02433475072
0.02446776973
0.02458884823
0.02468443493
0.02473996488
0.02432375927
0.02439377403
0.02449285452
0.02461296418
0.02474454114
0.02487657046
0.02499674254
0.02509160943
0.02514671898
0.02473345827
0.02480295211
0.02490129302
0.02502050221
0.02515108771
0.02528211664
0.02540137302
0.02549551308
0.02555019834
0.02513992552
0.02520889272
0.02530648612
0.02542478557
0.02555436981
0.02568438894
0.02580272145
0.02589612856
0.02595038613
0.02554313925
0.02561157478
0.02570841373
0.02582579529
0.02595436972
0.02608337085
0.0262007724
0.02629344123
0.02634726818
0.02594308069
0.02601098018
0.02610705865
0.02622351525
0.02635107244
0.02647904851
0.02659551299
0.02668743901
0.02674083283
0.02633973394
0.0264070936
0.02650240639
0.02661793196
0.02674446559
0.02687141056
0.02698693281
0.02707811216
0.02713107075
0.02673308571
0.02679990234
0.02689444503
0.02700903445
0.02713453917
0.02726044799
0.0273750237
0.0274654532
0.02751797483
0.02712312526
0.02718939616
0.02728316508
0.02739681409
0.02752128548
0.02764615401
0.02775977967
0.02784945677
0.02790154005
0.02750984419
0.02757556716
0.02766855931
0.02778126444
0.02790469896
0.0280285239
0.02814119675
0.02823011945
0.02828176332
0.0278932363
0.0279584096
0.02805062259
0.02816238114
0.02828477605
0.02840755488
0.02851927286
0.02860743969
0.02865864341
0.02827329748
0.02833791977
0.02842935182
0.02854016178
0.02866151507
0.02878324601
0.02889400769
0.02898141769
0.02903218077
0.02865002556
0.02871409589
0.02880474576
0.02891460576
0.02903491611
0.02915559804
0.0292654026
0.02935205526
0.02940237747
0.02902342016
0.02908693796
0.02917680489
0.02928571416
0.0294049809
0.02952461333
0.02963346049
0.02971935572
0.02976923709
0.02939348263
0.02945644764
0.02954553136
0.02965348967
0.02977171272
0.02989029573
0.02999818572
0.03008332384
0.03013276461
0.02976021589
0.02982262816
0.02991092882
0.03001793647
0.03013511629
0.03025265049
0.03035958403
0.03044396571
0.03049296632
0.03012362435
0.03018548422
0.03027300235
0.0303790601
0.03049519765
0.03061168417
0.03071766241
0.03080128864
0.03084984973
0.03048371377
0.03054502184
0.03063175836
0.0307368674
0.03085196412
0.03096740452
0.031072429
0.03115530111
0.03120342351
0.03084049123
0.03090124835
0.03098720449
0.03109136642
0.03120542416
0.03131982044
0.03142389309
0.03150601269
0.03155369735
0.03119396498
0.0312541722
0.03133934953
0.03144256632
0.03155558734
0.03166894187
0.03177206496
0.03185343391
0.03190068197
0.03154414437
0.03160380297
0.03168820333
0.03179047728
0.03190246421
0.03201477972
0.03211695583
0.03219757624
0.03224438897
0.0318910398
0.03195015123
0.03203377673
0.03213511046
0.03224606625
0.0323573458
0.03245857781
0.03253845203
0.03258483081
0.03223466259
0.03229322849
0.03237608147
0.03247647789
0.0325864058
0.03269665276
0.03279694382
0.03287607437
0.03292202072
0.03257502496
0.03263304711
0.03271513013
0.03281459241
0.032923496
0.03303271401
0.03313206749
0.03321045712
0.03325597265
0.03291213992
0.03296962026
0.03305093609
0.03314946763
0.03325735069
0.03336554364
0.03346396315
0.03354161476
0.03358670118
0.03324602121
0.0333029618
0.0333835134
0.03348111783
0.03358798439
0.0336951564
0.03379264576
0.03386956239
0.0339142215
0.03357668325
0.03363308627
0.03371287675
0.0338095579
0.03391541222
0.0340215676
0.0341181308
0.03419431566
0.03423854933
0.03390414107
0.03396000881
0.03403904143
0.0341348033
0.0342396498
0.03434479306
0.03444043425
0.03451589065
0.03455970085
0.03422841021
0.03428374506
0.03436202323
0.03445686995
0.03456071324
0.03466484905
0.03475957252
0.03483430389
0.03487769261
0.03454950672
0.03460431113
0.03468183835
0.03477577423
0.03487861903
0.03498175219
0.03507556236
0.03514957221
0.03519254152
0.03486744701
0.03492172353
0.0349985034
0.03509153283
0.03519338401
0.03529551944
0.03538842081
0.03546171273
0.03550426472
0.03518224784
0.03523599905
0.03531203526
0.03540416273
0.03550502524
0.03560616792
0.03569816508
0.03577074271
0.03581287951
0.03549392619
0.03554715473
0.03562245101
0.03571368107
0.03581355991
0.0359137149
0.03600481247
0.03607667949
0.03611840324
0.0358024992
0.03585520772
0.03592976783
0.03602010505
0.03611900526
0.03621817763
0.03630838025
0.03637954032
0.03642085316
0.036107984
0.03616017515
0.03623400287
0.03632345183
0.03642137842
0.03651957323
0.0366088855
0.03667934226
0.03672024631
0.03641039763
0.03646207405
0.0365351731
0.03662373832
0.03672069625
0.03681791847
0.03690634491
0.03697610194
0.03701659927
0.03670975682
0.03676092109
0.03683329512
0.03692098103
0.03701697514
0.03711322959
0.0372007746
0.03726983534
0.03730992796
0.03700607779
0.03705673241
0.03712838495
0.03721519579
0.03731023071
0.03740552202
0.03749218977
0.0375605575
0.03760024729
0.03729937598
0.03734952332
0.03742045769
0.03750639747
0.03760047753
0.03769481
0.03778060435
0.03784828208
0.03788757078
0.03758966571
0.03763930794
0.0377095272
0.03779459955
0.03788772868
0.03798110617
0.03806603056
0.03813302095
0.03817191007
0.03787695975
0.03792609879
0.03799560558
0.03807981366
0.03817199522
0.03826442098
0.03834847827
0.0384147835
0.03845327427
0.03816126877
0.03820990615
0.03827870263
0.03836204894
0.03845328552
0.03854476202
0.0386279543
0.03869357592
0.03873166916
0.03844260065
0.03849073748
0.03855882509
0.03864131125
0.03873160446
0.03882213311
0.03890446148
0.03896940019
0.03900709626
0.0387209597
0.03876859643
0.03883597574
0.03891760226
0.03900695242
0.03909653327
0.03917799752
0.03924225297
0.03927955156
0.03899634556
0.03904348189
0.03911015231
0.03919091824
0.03927932401
0.03936795537
0.03944855364
0.03951212411
0.03954902411
0.03926875206
0.03931538666
0.03938134612
0.03946124869
0.03954870663
0.03963638462
0.03971611295
0.039778995
0.03981549425
0.03953816565
0.03958429592
0.03964954054
0.03972857465
0.03981507869
0.03990179666
0.03998064849
0.04004283654
0.04007893157
0.03980456373
0.03985018551
0.0399147091
0.03999286678
0.04007840759
0.04016415549
0.040242121
0.04030360679
0.04033929258
0.04006791264
0.0401130198
0.04017681337
0.04025408314
0.04033864738
0.04042341096
0.04050047637
0.04056124843
0.04059651799
0.04032816536
0.04037274943
0.04043580054
0.04051216665
0.04059573612
0.04067949609
0.04075564287
0.0408156858
0.04085052981
0.040585259
0.04062930866
0.04069160078
0.04076704235
0.04084959306
0.0409323241
0.041007528
0.04106682176
0.04110122813
0.04083911205
0.04088261261
0.04094412437
0.04101861446
0.04110011559
0.04118178526
0.04125601536
0.04131453447
0.04134848784
0.04108962143
0.04113255429
0.04119325863
0.04126676327
0.04134717604
0.04142774369
0.04150096133
0.04155867399
0.04159215528
0.04133665954
0.04137900157
0.04143886492
0.04151134206
0.0415906186
0.04167003417
0.04174219187
0.04179905916
0.04183204501
0.04158007126
0.04162179422
0.04168077566
0.04175217413
0.04183025632
0.04190845921
0.04197949964
0.04203547465
0.04206793696
0.04181967121
0.04186074114
0.04191879156
0.04198905009
0.04206586851
0.0421427865
0.0422126415
0.04226766857
0.04229957408
0.04205524123
0.04209561798
0.04215267937
0.04222172569
0.04229719866
0.04237274699
0.04244133677
0.0424953509
0.04252666082
0.04228652849
0.04232616528
0.04238217014
0.04244992036
0.04252395326
0.04259803393
0.04266526647
0.04271819287
0.04274886267
0.04251324434
0.04255208745
0.04260695844
0.04267331661
0.04274580146
0.04281830297
0.04288407379
0.04293582773
0.04296580703
0.04273506416
0.04277305287
0.04282670268
0.04289156073
0.04296237622
0.04303317363
0.04309736598
0.04314785299
0.04317708576
0.04295162843
0.04298869516
0.04304102678
0.04310426489
0.0431732769
0.04324223244
0.04330471796
0.04335383449
0.04338225941
0.04316254521
0.04319861594
0.04324952333
0.04331101085
0.04337807353
0.04344503787
0.04350567788
0.04355331234
0.04358086352
0.04336739424
0.04340238929
0.04345175849
0.04351135543
0.04357631299
0.04364112718
0.04369977456
0.04374580898
0.04377241696
0.0435657327
0.04359956784
0.0436472787
0.04370483783
0.04376752703
0.04383002515
0.04388652696
0.04393083917
0.04395643224
0.04375710289
0.04378969083
0.04383561914
0.04389098881
0.04395124217
0.04401125476
0.0440654555
0.04410792184
0.04413242771
0.04394104146
0.04397229374
0.04401631397
0.04406934151
0.04412699123
0.0441843494
0.04423609497
0.04427659354
0.04429994126
0.0441170904
0.04414691958
0.04418890808
0.04423944382
0.04429432633
0.04434886648
0.0443980086
0.0444364229
0.04445854508
0.04428480927
0.04431313142
0.04435297002
0.04440087174
0.0444528327
0.04450440174
0.04455080286
0.04458702572
0.04460786089
0.04444378835
0.04447052578
0.04450810568
0.04455324341
0.04460214307
0.04465060386
0.04469414219
0.0447280799
0.04474757485
0.04459366235
0.04461874641
0.04465397215
0.04469623303
0.04474195167
0.04478718851
0.04482776308
0.04485933935
0.04487745155
0.04473412387
0.0447574977
0.04479029112
0.04482958422
0.0448720273
0.04491395117
0.04495148659
0.04498064628
0.04499734599
0.04486493614
0.04488655729
0.04491686119
0.04495312185
0.0449922248
0.045030778
0.0450652286
0.04509194096
0.04510721311
0.04498594423
0.04500578696
0.04503356823
0.0450667618
0.04510249396
0.04513765397
0.04516900714
0.04519326842
0.04520711404
0.04509708419
0.04511514123
0.04514039331
0.04517051798
0.04520288549
0.04523466761
0.0452629461
0.04528478142
0.04529721902
0.04519838942
0.04521467316
0.0452374176
0.04526450606
0.04529355334
0.04532201202
0.04534727439
0.04536673577
0.04537779825
0.04528999393
0.04530453687
0.04532482377
0.04534894366
0.04537475314
0.04539997914
0.04542231568
0.04543948105
0.04544921727
0.04537213228
0.0453849867
0.04540289359
0.04542414392
0.04544683162
0.0454689506
0.04548848442
0.04550345754
0.04551193118
0.04544513173
0.04545636688
0.04547199548
0.04549050588
0.04551022174
0.04552939276
0.04554627667
0.04555918419
0.04556647191
0.04550940311
0.04551910524
0.04553258103
0.04554850917
0.04556543295
0.04558184401
0.04559625609
0.04560724379
0.04561343293
0.04556543538
0.04557370536
0.04558517402
0.04559870112
0.04561303722
0.04562689969
0.04563903803
0.04564826646
0.04565345235
0.04561378261
0.04562073304
0.04563035618
0.04564168177
0.04565365326
0.04566519569
0.04567527248
0.04568291212
0.04568719525
0.04565504911
0.04566080104
0.04566875158
0.04567808771
0.04568792988
0.04569739139
0.04570562682
0.04571185326
0.04571533641
0.04568987329
0.04569455284
0.0457010101
0.04570857543
0.04571652925
0.04572415296
0.04573076927
0.04573575841
0.04573854389
0.04571891129
0.04572264621
0.04572779114
0.04573380516