/*--------------------------------*- C++ -*----------------------------------*\
| =========                 |                                                 |
| \\      /  F ield         | OpenFOAM: The Open Source CFD Toolbox           |
|  \\    /   O peration     | Version:  2212                                  |
|   \\  /    A nd           | Website:  www.openfoam.com                      |
|    \\/     M anipulation  |                                                 |
\*---------------------------------------------------------------------------*/
FoamFile
{
    version     2.0;
    format      ascii;
    arch        "LSB;label=32;scalar=64";
    class       volScalarField;
    location    "20.00000000";
    object      C4H612_0;
}
// * * * * * * * * * * * * * * * * * * * * * * * * * * * * * * * * * * * * * //

dimensions      [0 0 0 0 0 0 0];

internalField   nonuniform List<scalar> 
3000
(
8.811535928e-22
9.898121618e-22
1.153765457e-21
1.372228915e-21
1.642976465e-21
1.958661302e-21
2.300280311e-21
2.626279566e-21
2.856786325e-21
3.308213999e-21
3.73113547e-21
4.369000095e-21
5.220819075e-21
6.285726416e-21
7.557883722e-21
9.015243815e-21
1.058469774e-20
1.197464626e-20
7.410396885e-21
8.423434967e-21
9.965918329e-21
1.20600867e-20
1.474351212e-20
1.805521124e-20
2.198207676e-20
2.630420973e-20
2.999702956e-20
1.411501255e-20
1.621273385e-20
1.945368785e-20
2.394739346e-20
2.985294048e-20
3.732050287e-20
4.630929752e-20
5.610089214e-20
6.400336541e-20
2.506547869e-20
2.914419648e-20
3.554508561e-20
4.459315625e-20
5.67138441e-20
7.224707198e-20
9.093319044e-20
1.107782783e-19
1.260119236e-19
4.310337616e-20
5.075907354e-20
6.294587475e-20
8.044146026e-20
1.041790053e-19
1.347562216e-19
1.712596392e-19
2.090867753e-19
2.370720005e-19
7.317715362e-20
8.724012823e-20
1.098872161e-19
1.427666637e-19
1.877087905e-19
2.456068892e-19
3.140653618e-19
3.836195057e-19
4.338055511e-19
1.238456418e-19
1.492946973e-19
1.90641962e-19
2.511340979e-19
3.341427769e-19
4.408613065e-19
5.659332854e-19
6.911534453e-19
7.799960577e-19
2.099423443e-19
2.555076231e-19
3.300149291e-19
4.395700615e-19
5.901669226e-19
7.832476032e-19
1.00790111e-18
1.230479329e-18
1.386655462e-18
3.571625856e-19
4.38103332e-19
5.710583722e-19
7.671809946e-19
1.036933701e-18
1.381871275e-18
1.780990123e-18
2.173532017e-18
2.446933435e-18
6.100676517e-19
7.530182612e-19
9.885734013e-19
1.336736149e-18
1.815612706e-18
2.426579613e-18
3.130611924e-18
3.819544756e-18
4.297040301e-18
1.045991488e-18
1.297405521e-18
1.712590961e-18
2.327015315e-18
3.171905064e-18
4.247863572e-18
5.483969915e-18
6.689350274e-18
7.522237866e-18
1.799242146e-18
2.24012831e-18
2.969311001e-18
4.049233881e-18
5.533677797e-18
7.421194702e-18
9.584445804e-18
1.168845947e-17
1.314124003e-17
3.103112428e-18
3.874713463e-18
5.152266224e-18
7.045308762e-18
9.646519683e-18
1.294939355e-17
1.672464985e-17
2.038394415e-17
2.292722466e-17
5.362637887e-18
6.711061024e-18
8.945644064e-18
1.225851875e-17
1.681032556e-17
2.258339751e-17
2.91575276e-17
3.54629686e-17
3.997639121e-17
9.280371696e-18
1.163371851e-17
1.553652713e-17
2.13262085e-17
2.928610519e-17
3.939781405e-17
5.098087422e-17
6.227816198e-17
6.987209446e-17
1.607410477e-17
2.017533083e-17
2.697964556e-17
3.707542125e-17
5.095256984e-17
6.856499113e-17
8.868684396e-17
1.081754686e-16
1.215038173e-16
2.785562768e-17
3.49940328e-17
4.683984827e-17
6.441586396e-17
8.85678124e-17
1.19201008e-16
1.541627971e-16
1.87985176e-16
2.111596386e-16
4.828887453e-17
6.070274982e-17
8.13058771e-17
1.118752394e-16
1.538740045e-16
2.071247003e-16
2.6787348e-16
3.266183368e-16
3.668638949e-16
8.373283335e-17
1.053088199e-16
1.411223819e-16
1.942609109e-16
2.672598539e-16
3.597972407e-16
4.653369798e-16
5.673668717e-16
6.372489026e-16
1.452260305e-16
1.827135199e-16
2.449444061e-16
3.372825358e-16
4.641245732e-16
6.248940899e-16
8.082177056e-16
9.854053542e-16
1.106739266e-15
2.519325749e-16
3.170524649e-16
4.251625791e-16
5.855800271e-16
8.059303731e-16
1.08518786e-15
1.403569588e-15
1.711236663e-15
1.92188841e-15
4.371272289e-16
5.50234073e-16
7.380202247e-16
1.016665564e-15
1.399394822e-15
1.884387754e-15
2.437242728e-15
2.971400633e-15
3.337087272e-15
7.585912606e-16
9.550335709e-16
1.281185551e-15
1.765136632e-15
2.429816769e-15
3.271999251e-15
4.231872452e-15
5.159145936e-15
5.793888976e-15
1.316670416e-15
1.657837408e-15
2.224271139e-15
3.064718341e-15
4.218919241e-15
5.681152395e-15
7.347453822e-15
8.956906212e-15
1.005851829e-14
2.285635027e-15
2.87813829e-15
3.861820125e-15
5.32123451e-15
7.32520321e-15
9.863540002e-15
1.275554143e-14
1.554832966e-14
1.745963578e-14
3.968136271e-15
4.997113092e-15
6.705290443e-15
9.239236801e-15
1.271800488e-14
1.712331889e-14
2.214102682e-14
2.698525688e-14
3.029975165e-14
6.889739398e-15
8.676664786e-15
1.16426843e-14
1.604162932e-14
2.207910515e-14
2.972199101e-14
3.842396966e-14
4.682182966e-14
5.256584362e-14
1.196286708e-14
1.506582901e-14
2.021520704e-14
2.785003789e-14
3.832457191e-14
5.157799198e-14
6.665981652e-14
8.120653753e-14
9.115139822e-14
2.077080976e-14
2.615825539e-14
3.509613434e-14
4.834252242e-14
6.650582429e-14
8.947252189e-14
1.155879337e-13
1.407571446e-13
1.579518437e-13
3.605892736e-14
4.5410232e-14
6.091800142e-14
8.388815366e-14
1.153610182e-13
1.551207786e-13
2.002846248e-13
2.437648889e-13
2.734390827e-13
6.258229727e-14
7.880651435e-14
1.05697462e-13
1.454978116e-13
1.999760121e-13
2.687139514e-13
3.466849334e-13
4.216381769e-13
4.727203814e-13
1.085642926e-13
1.366926146e-13
1.832807987e-13
2.521643454e-13
3.463260679e-13
4.649416309e-13
5.992389829e-13
7.280831997e-13
8.15727516e-13
1.881974624e-13
2.369121598e-13
3.175219725e-13
4.36551231e-13
5.989798051e-13
8.031589225e-13
1.033771212e-12
1.254448606e-12
1.404189041e-12
3.259130877e-13
4.101527437e-13
5.493805816e-13
7.546179065e-13
1.034068875e-12
1.384403057e-12
1.778869585e-12
2.155102086e-12
2.40958666e-12
5.636332517e-13
7.090021681e-13
9.48899383e-13
1.301779234e-12
1.780927045e-12
2.37958506e-12
3.051062506e-12
3.688887288e-12
4.118620166e-12
9.730166918e-13
1.223186981e-12
1.635257259e-12
2.239788104e-12
3.057818465e-12
4.075650846e-12
5.211932514e-12
6.285929879e-12
7.006108603e-12
1.675999673e-12
2.105016478e-12
2.810040709e-12
3.840992787e-12
5.230234205e-12
6.950179506e-12
8.859541615e-12
1.065370439e-11
1.185012521e-11
2.878994427e-12
3.611500222e-12
4.811891075e-12
6.560354937e-12
8.9047759e-12
1.179022521e-11
1.497257792e-11
1.794282357e-11
1.991099415e-11
4.929357218e-12
6.173399989e-12
8.20526535e-12
1.115116054e-11
1.507823466e-11
1.987880028e-11
2.513408035e-11
3.000209493e-11
3.320521417e-11
8.407784454e-12
1.050726275e-11
1.392287909e-11
1.884842843e-11
2.537084558e-11
3.328299417e-11
4.187324737e-11
4.976484357e-11
5.491829678e-11
1.427800338e-11
1.779515078e-11
2.34913955e-11
3.165554979e-11
4.238580437e-11
5.529232332e-11
6.91797626e-11
8.182549457e-11
9.001814641e-11
2.412668439e-11
2.996953747e-11
3.938428935e-11
5.278589464e-11
7.025523655e-11
9.107587717e-11
1.132667891e-10
1.332885957e-10
1.461547046e-10
4.054350052e-11
5.015924774e-11
6.556612039e-11
8.733360841e-11
1.1545764e-10
1.486540896e-10
1.836884383e-10
2.150041659e-10
2.349645512e-10
6.771573938e-11
8.337841833e-11
1.083207526e-10
1.432787666e-10
1.880257816e-10
2.403182256e-10
2.949580992e-10
3.433466737e-10
3.739443038e-10
1.123463996e-10
1.375768271e-10
1.774950628e-10
2.329744242e-10
3.033104576e-10
3.846816653e-10
4.68869581e-10
5.427543714e-10
5.891184009e-10
1.850524752e-10
2.252199225e-10
2.883430117e-10
3.753209499e-10
4.845289965e-10
6.096168339e-10
7.377989945e-10
8.493268266e-10
9.188110371e-10
3.024651999e-10
3.656348502e-10
4.642274882e-10
5.989118854e-10
7.664140354e-10
9.564268444e-10
1.149368794e-09
1.315888789e-09
1.41894637e-09
4.903417691e-10
5.884506381e-10
7.405357336e-10
9.465428548e-10
1.20039607e-09
1.485730362e-09
1.772995804e-09
2.019077889e-09
2.170455904e-09
7.881159669e-10
9.385847011e-10
1.170297521e-09
1.481620717e-09
1.861913339e-09
2.285713463e-09
2.709034796e-09
3.069215288e-09
3.289580736e-09
1.25547402e-09
1.483395627e-09
1.832176181e-09
2.297207653e-09
2.860659041e-09
3.483638718e-09
4.101484901e-09
4.623990564e-09
4.942136994e-09
1.98175767e-09
2.322850709e-09
2.841748851e-09
3.528702626e-09
4.354867751e-09
5.261819175e-09
6.155568541e-09
6.907355042e-09
7.363190465e-09
3.099291222e-09
3.60387073e-09
4.367330004e-09
5.371526296e-09
6.571134686e-09
7.879688136e-09
9.161949884e-09
1.023550373e-08
1.088409599e-08
4.802132945e-09
5.540453723e-09
6.652064939e-09
8.105676019e-09
9.831787536e-09
1.170414773e-08
1.352995785e-08
1.505247948e-08
1.596953648e-08
7.371878756e-09
8.441213622e-09
1.00440846e-08
1.212929232e-08
1.459244834e-08
1.725134625e-08
1.983327341e-08
2.19790016e-08
2.326816234e-08
1.121353018e-08
1.274772487e-08
1.503847494e-08
1.800514091e-08
2.149360437e-08
2.524354969e-08
2.88719019e-08
3.187864356e-08
3.368132172e-08
1.690512502e-08
1.908737331e-08
2.233479707e-08
2.652403955e-08
3.143084465e-08
3.668657327e-08
4.175643245e-08
4.594766043e-08
4.845619303e-08
2.526563066e-08
2.834554564e-08
3.291555854e-08
3.879126169e-08
4.565035408e-08
5.297481366e-08
6.002211416e-08
6.58364759e-08
6.931169405e-08
3.744755466e-08
4.176395422e-08
4.815288332e-08
5.634373167e-08
6.587815374e-08
7.603313015e-08
8.578276937e-08
9.381349866e-08
9.860823667e-08
5.506255976e-08
6.10738211e-08
6.995273793e-08
8.130816855e-08
9.449419154e-08
1.085077456e-07
1.219377777e-07
1.329853359e-07
1.395758185e-07
8.035064671e-08
8.867503309e-08
1.009486482e-07
1.166132124e-07
1.34765683e-07
1.540220571e-07
1.724493361e-07
1.875915897e-07
1.966192344e-07
1.164059696e-07
1.278750872e-07
1.44759905e-07
1.6627213e-07
1.911581478e-07
2.175175836e-07
2.427118202e-07
2.633974216e-07
2.757244242e-07
1.67475164e-07
1.832047959e-07
2.063328506e-07
2.357566523e-07
2.697467457e-07
3.05704795e-07
3.400401973e-07
3.68212689e-07
3.849957614e-07
2.393470525e-07
2.60830806e-07
2.923869012e-07
3.324855208e-07
3.787538667e-07
4.276526262e-07
4.743091397e-07
5.125715581e-07
5.35359464e-07
3.39853686e-07
3.690857484e-07
4.119875003e-07
4.664520401e-07
5.292401595e-07
5.955471286e-07
6.587764617e-07
7.106088153e-07
7.414707241e-07
4.794995166e-07
5.191334623e-07
5.772646885e-07
6.510112426e-07
7.359719606e-07
8.256449235e-07
9.11119391e-07
9.811637018e-07
1.022856513e-06
6.722270909e-07
7.257775604e-07
8.042853707e-07
9.038344263e-07
1.018472784e-06
1.139429389e-06
1.254692109e-06
1.349120167e-06
1.405302943e-06
9.363108436e-07
1.008402176e-06
1.114063995e-06
1.248010601e-06
1.402232325e-06
1.564936586e-06
1.719965564e-06
1.846939686e-06
1.922440238e-06
1.295340414e-06
1.391999219e-06
1.533654999e-06
1.713223215e-06
1.919982908e-06
2.138140257e-06
2.346018493e-06
2.516238725e-06
2.617367438e-06
1.779208927e-06
1.908183116e-06
2.097205307e-06
2.336849083e-06
2.612850469e-06
2.904156699e-06
3.181792723e-06
3.409082966e-06
3.543964632e-06
2.424956741e-06
2.596019115e-06
2.84675418e-06
3.164712232e-06
3.531041733e-06
3.917845799e-06
4.286596921e-06
4.588398601e-06
4.767236787e-06
3.277237899e-06
3.502396902e-06
3.832455886e-06
4.251088565e-06
4.733558706e-06
5.243170391e-06
5.729077246e-06
6.126583971e-06
6.361734837e-06
4.388080131e-06
4.681577342e-06
5.111786004e-06
5.657429768e-06
6.286289838e-06
6.950514628e-06
7.583694894e-06
8.101228045e-06
8.406653911e-06
5.815514671e-06
6.193448204e-06
6.747208508e-06
7.449211516e-06
8.257807927e-06
9.11128117e-06
9.924001289e-06
1.058704367e-05
1.09769737e-05
7.620588847e-06
8.099980502e-06
8.801772112e-06
9.690357292e-06
1.071238094e-05
1.178919218e-05
1.281219811e-05
1.364414436e-05
1.41310309e-05
9.86228783e-06
1.045943408e-05
1.13322462e-05
1.243502037e-05
1.370003674e-05
1.502854593e-05
1.628592821e-05
1.730397151e-05
1.789633422e-05
1.259018033e-05
1.331824519e-05
1.437990352e-05
1.571688805e-05
1.724427475e-05
1.884074432e-05
2.034380179e-05
2.155363905e-05
2.225259519e-05
1.583470391e-05
1.670064484e-05
1.795915952e-05
1.953697037e-05
2.132971167e-05
2.319160284e-05
2.493226835e-05
2.632297787e-05
2.711945087e-05
1.959591097e-05
2.05971755e-05
2.204627598e-05
2.385278741e-05
2.589078965e-05
2.799071612e-05
2.9936909e-05
3.14773557e-05
3.23502673e-05
2.383327267e-05
2.495516082e-05
2.65705091e-05
2.857021643e-05
3.080691941e-05
3.308924953e-05
3.5182168e-05
3.681993084e-05
3.773613816e-05
2.845829352e-05
2.967230701e-05
3.140971153e-05
3.354220266e-05
3.590327679e-05
3.828437099e-05
4.044070927e-05
4.210482478e-05
4.302134347e-05
3.333148172e-05
3.459524602e-05
3.639072428e-05
3.857334572e-05
4.096078087e-05
4.333530345e-05
4.54531514e-05
4.706048865e-05
4.792886769e-05
3.826614279e-05
3.952600288e-05
4.130081222e-05
4.343335042e-05
4.573340176e-05
4.798400977e-05
4.995442024e-05
5.141942682e-05
5.219177992e-05
4.303945918e-05
4.423502915e-05
4.590252888e-05
4.787875433e-05
4.997413221e-05
5.198375578e-05
5.370339813e-05
5.494899801e-05
5.558479551e-05
4.741084439e-05
4.848126496e-05
4.995612671e-05
5.167458928e-05
5.345788758e-05
5.512460993e-05
5.650841804e-05
5.74758771e-05
5.794991284e-05
5.114556306e-05
5.203647572e-05
5.324456599e-05
5.462050499e-05
5.600642261e-05
5.725421285e-05
5.8243104e-05
5.889233525e-05
5.916879043e-05
5.404013294e-05
5.471003876e-05
5.559695798e-05
5.657179912e-05
5.750571554e-05
5.829074046e-05
5.884594832e-05
5.914395204e-05
5.922659755e-05
5.594518987e-05
5.63699388e-05
5.690639977e-05
5.745375939e-05
5.791489621e-05
5.821265022e-05
5.833214089e-05
5.830241121e-05
5.82074007e-05
5.678111458e-05
5.695582572e-05
5.71363168e-05
5.724634466e-05
5.723536324e-05
5.708176877e-05
5.681064174e-05
5.649247898e-05
5.624414394e-05
5.652284164e-05
5.645071456e-05
5.62902343e-05
5.600429792e-05
5.557872959e-05
5.503350734e-05
5.443036714e-05
5.387174204e-05
5.349831972e-05
5.522300866e-05
5.493771782e-05
5.448621704e-05
5.386530517e-05
5.309535201e-05
5.223029533e-05
5.136133752e-05
5.061432651e-05
5.014543605e-05
5.302365651e-05
5.256533138e-05
5.188008725e-05
5.099371503e-05
4.995588941e-05
4.884734864e-05
4.778101379e-05
4.689812517e-05
4.636289783e-05
5.009443175e-05
4.950550085e-05
4.864619627e-05
4.756588604e-05
4.633727699e-05
4.50607293e-05
4.386339342e-05
4.289461887e-05
4.232025713e-05
4.661684943e-05
4.593902597e-05
4.496376212e-05
4.375831185e-05
4.241196322e-05
4.103781824e-05
3.977044021e-05
3.876099094e-05
3.817169908e-05
4.277206718e-05
4.204401189e-05
4.100617751e-05
3.973810182e-05
3.833950974e-05
3.693000984e-05
3.564570803e-05
3.463442555e-05
3.405069154e-05
3.873095898e-05
3.798656001e-05
3.693256263e-05
3.565560103e-05
3.426033204e-05
3.28675326e-05
3.161008479e-05
3.062851821e-05
3.006673411e-05
3.464630084e-05
3.391358043e-05
3.288145531e-05
3.163912909e-05
3.029154306e-05
2.895634363e-05
2.775957465e-05
2.683169043e-05
2.630408851e-05
3.064720633e-05
2.99478436e-05
2.896671256e-05
2.779187308e-05
2.652487239e-05
2.527700265e-05
2.416496517e-05
2.330741266e-05
2.282227503e-05
2.683596188e-05
2.618537191e-05
2.527565656e-05
2.419089238e-05
2.302653651e-05
2.188532826e-05
2.087311395e-05
2.009592222e-05
1.965799945e-05
2.328723925e-05
2.269509221e-05
2.186931103e-05
2.088800227e-05
1.983875585e-05
1.881446881e-05
1.790945619e-05
1.721702242e-05
1.682809004e-05
2.004937818e-05
1.952042215e-05
1.878438104e-05
1.791217428e-05
1.698254702e-05
1.607802002e-05
1.528135896e-05
1.467358351e-05
1.43330634e-05
1.714731135e-05
1.668235304e-05
1.603652833e-05
1.527299856e-05
1.44613362e-05
1.367373825e-05
1.298188539e-05
1.245532272e-05
1.216090404e-05
1.458653826e-05
1.418345024e-05
1.362438759e-05
1.296468815e-05
1.226491566e-05
1.1587418e-05
1.09935786e-05
1.054250423e-05
1.029071368e-05
1.235754342e-05
1.201219861e-05
1.153379726e-05
1.097015474e-05
1.037333282e-05
9.796580973e-06
9.291962581e-06
8.909291545e-06
8.695981331e-06
1.044014565e-05
1.014721728e-05
9.741820394e-06
9.264790328e-06
8.760407818e-06
8.273729453e-06
7.848559604e-06
7.526586043e-06
7.347324938e-06
8.80740899e-06
8.561008315e-06
8.220265885e-06
7.819717393e-06
7.396693573e-06
6.989025451e-06
6.633324844e-06
6.364278663e-06
6.214644566e-06
7.42890059e-06
7.223050985e-06
6.938556885e-06
6.604392994e-06
6.251803823e-06
5.912353082e-06
5.616479587e-06
5.392915208e-06
5.268699052e-06
6.273218496e-06
6.102182568e-06
5.865909874e-06
5.588552685e-06
5.296110226e-06
5.01478763e-06
4.769788863e-06
4.584832877e-06
4.482166065e-06
5.309808415e-06
5.16829112e-06
4.972859308e-06
4.743543976e-06
4.501883416e-06
4.269553661e-06
4.067363526e-06
3.914848602e-06
3.83027052e-06
4.510157052e-06
4.393414166e-06
4.232228658e-06
4.043151184e-06
3.843967058e-06
3.652560457e-06
3.486080117e-06
3.360595278e-06
3.291076342e-06
3.848480406e-06
3.752357721e-06
3.619656103e-06
3.464015458e-06
3.300091415e-06
3.142617947e-06
3.005715916e-06
2.902598654e-06
2.845532534e-06
3.302027387e-06
3.222952852e-06
3.113788198e-06
2.985757877e-06
2.850926034e-06
2.721425605e-06
2.608885603e-06
2.524176772e-06
2.477353006e-06
2.851110943e-06
2.786057479e-06
2.696242851e-06
2.590899453e-06
2.479957537e-06
2.373412716e-06
2.280851394e-06
2.211229022e-06
2.172794661e-06
2.478960888e-06
2.425393155e-06
2.351425225e-06
2.264654467e-06
2.173261507e-06
2.085491955e-06
2.009262572e-06
1.951966304e-06
1.920382848e-06
2.171472118e-06
2.127286591e-06
2.066260967e-06
1.994655398e-06
1.91922038e-06
1.846772192e-06
1.783865269e-06
1.736619403e-06
1.710619299e-06
1.916902303e-06
1.880366872e-06
1.829893435e-06
1.770651171e-06
1.708223983e-06
1.648262456e-06
1.596210398e-06
1.55715055e-06
1.535695929e-06
1.705556363e-06
1.675253252e-06
1.633376537e-06
1.584206631e-06
1.532376848e-06
1.482587632e-06
1.439377359e-06
1.406983601e-06
1.389228781e-06
1.52948163e-06
1.504255704e-06
1.469383041e-06
1.428420431e-06
1.38522678e-06
1.343727883e-06
1.30772338e-06
1.280761195e-06
1.266019613e-06
1.382187578e-06
1.361100927e-06
1.331939457e-06
1.297670652e-06
1.26152217e-06
1.2267876e-06
1.196662938e-06
1.174132269e-06
1.161848e-06
1.25839692e-06
1.240689842e-06
1.216192509e-06
1.187392003e-06
1.157000768e-06
1.127795551e-06
1.102478023e-06
1.083570113e-06
1.073293764e-06
1.153830101e-06
1.13888816e-06
1.118208167e-06
1.093884929e-06
1.068209548e-06
1.043535257e-06
1.022157811e-06
1.006219149e-06
9.975877363e-07
1.065022307e-06
1.052348886e-06
1.034801796e-06
1.014154787e-06
9.923535122e-07
9.714031524e-07
9.532650518e-07
9.397676003e-07
9.324879452e-07
9.891703735e-07
9.783640521e-07
9.633965695e-07
9.457781581e-07
9.2717036e-07
9.09291349e-07
8.938259393e-07
8.823427613e-07
8.761779061e-07
9.240062354e-07
9.147422902e-07
9.019067625e-07
8.867928598e-07
8.708276237e-07
8.554916472e-07
8.422401331e-07
8.324255834e-07
8.271837561e-07
8.676932618e-07
8.597086511e-07
8.486423738e-07
8.356082184e-07
8.218388956e-07
8.086175002e-07
7.972077369e-07
7.887814548e-07
7.843071563e-07
8.187419859e-07
8.118232194e-07
8.022317241e-07
7.909323335e-07
7.789960156e-07
7.67540944e-07
7.576703618e-07
7.5040439e-07
7.465712248e-07
7.759419554e-07
7.699153298e-07
7.615589441e-07
7.517134075e-07
7.413144425e-07
7.313418455e-07
7.227637448e-07
7.164721973e-07
7.13177126e-07
7.383068792e-07
7.330306538e-07
7.257137297e-07
7.170926184e-07
7.079893993e-07
6.992671862e-07
6.917797659e-07
6.863105614e-07
6.83469304e-07
7.050306439e-07
7.003887761e-07
6.939510651e-07
6.863663539e-07
6.783607487e-07
6.706984743e-07
6.641360624e-07
6.593643189e-07
6.569076841e-07
6.754520939e-07
6.713492286e-07
6.65658988e-07
6.589560027e-07
6.518849109e-07
6.451256964e-07
6.393517462e-07
6.351745079e-07
6.33045463e-07
6.490268731e-07
6.453843432e-07
6.403328304e-07
6.343838168e-07
6.281124251e-07
6.221265061e-07
6.170280039e-07
6.133600316e-07
6.115113651e-07
6.25304935e-07
6.22057566e-07
6.175546415e-07
6.122536281e-07
6.06670023e-07
6.01349595e-07
5.968325924e-07
5.936030013e-07
5.919954564e-07
6.039125754e-07
6.010061325e-07
5.969767456e-07
5.922354365e-07
5.872462971e-07
5.825013938e-07
5.784874355e-07
5.756370069e-07
5.7423779e-07
5.845380705e-07
5.819272158e-07
5.783085918e-07
5.740530804e-07
5.695802297e-07
5.653354233e-07
5.617586863e-07
5.592377152e-07
5.58019302e-07
5.669201811e-07
5.645668367e-07
5.613062236e-07
5.574743574e-07
5.534519972e-07
5.496437506e-07
5.464487491e-07
5.442153174e-07
5.431544953e-07
5.50838936e-07
5.487109705e-07
5.457638287e-07
5.423030925e-07
5.386755811e-07
5.352501196e-07
5.323898588e-07
5.304084465e-07
5.294855452e-07
5.361082276e-07
5.341783985e-07
5.315069438e-07
5.283727548e-07
5.250928161e-07
5.220044119e-07
5.194389005e-07
5.176792657e-07
5.168775364e-07
5.225698463e-07
5.208149468e-07
5.183869747e-07
5.15541306e-07
5.125685828e-07
5.097781683e-07
5.074732144e-07
5.059094882e-07
5.052146024e-07
5.100886624e-07
5.084888311e-07
5.062767642e-07
5.036870299e-07
5.009869116e-07
4.984609546e-07
4.963871897e-07
4.949971412e-07
4.94396784e-07
4.985487211e-07
4.970868815e-07
4.950669965e-07
4.927051453e-07
4.902478143e-07
4.879574035e-07
4.860894883e-07
4.848539267e-07
4.843374656e-07
4.878500677e-07
4.865114713e-07
4.846632689e-07
4.825050454e-07
4.802646993e-07
4.781847972e-07
4.765007723e-07
4.754030586e-07
4.749612734e-07
4.779061565e-07
4.766780101e-07
4.749836994e-07
4.730080392e-07
4.709622542e-07
4.690710851e-07
4.675518394e-07
4.665774856e-07
4.662023471e-07
4.68641729e-07
4.675128879e-07
4.659569637e-07
4.641454972e-07
4.622747039e-07
4.605532511e-07
4.59182084e-07
4.583184237e-07
4.580029111e-07
4.599910692e-07
4.589517856e-07
4.575206793e-07
4.55857322e-07
4.541443745e-07
4.525759644e-07
4.513382243e-07
4.505741407e-07
4.503120913e-07
4.51896564e-07
4.50938278e-07
4.496200697e-07
4.480906837e-07
4.465205011e-07
4.450904593e-07
4.439732441e-07
4.432989437e-07
4.430849284e-07
4.443075097e-07
4.434226765e-07
4.422068556e-07
4.407989678e-07
4.393582374e-07
4.380536022e-07
4.370455097e-07
4.36452335e-07
4.362815537e-07
4.371791197e-07
4.363610654e-07
4.35238331e-07
4.339408985e-07
4.326178274e-07
4.314271108e-07
4.305180304e-07
4.29998302e-07
4.298664976e-07
4.304716952e-07
4.297144963e-07
4.286765901e-07
4.274798034e-07
4.262639109e-07
4.251768978e-07
4.243578356e-07
4.239047211e-07
4.238081061e-07
4.2414993e-07
4.23448312e-07
4.224878784e-07
4.213829964e-07
4.202649389e-07
4.192725182e-07
4.185354498e-07
4.181428521e-07
4.180780474e-07
4.181823254e-07
4.175315774e-07
4.166420447e-07
4.156212552e-07
4.145926782e-07
4.136867007e-07
4.130244463e-07
4.126869098e-07
4.126508928e-07
4.125406949e-07
4.119365975e-07
4.11112078e-07
4.101683793e-07
4.092217925e-07
4.083949492e-07
4.078010681e-07
4.075136989e-07
4.075037592e-07
4.071997447e-07
4.066385084e-07
4.05873713e-07
4.050008135e-07
4.041294841e-07
4.033752032e-07
4.028439035e-07
4.02602301e-07
4.026160027e-07
4.021367154e-07
4.016149285e-07
4.009050942e-07
4.000973262e-07
3.992951875e-07
3.986075463e-07
3.981336076e-07
3.979338064e-07
3.979689561e-07
3.973310766e-07
3.968456599e-07
3.961864872e-07
3.954387337e-07
3.94700307e-07
3.940739558e-07
3.936526632e-07
3.934910826e-07
3.935457011e-07
3.927642636e-07
3.923124321e-07
3.917000316e-07
3.910076625e-07
3.903279895e-07
3.897580868e-07
3.89385173e-07
3.892585739e-07
3.893308726e-07
3.884194513e-07
3.879986807e-07
3.874295266e-07
3.867883441e-07
3.861629291e-07
3.856450841e-07
3.853166804e-07
3.852221275e-07
3.853104875e-07
3.842813582e-07
3.838893561e-07
3.833602461e-07
3.82766437e-07
3.821911957e-07
3.817214203e-07
3.814340129e-07
3.813688421e-07
3.814717961e-07
3.803360763e-07
3.799707572e-07
3.794787776e-07
3.789288721e-07
3.784000879e-07
3.779747528e-07
3.777251457e-07
3.776869356e-07
3.778031516e-07
3.765709233e-07
3.762303863e-07
3.757728815e-07
3.75263717e-07
3.747780021e-07
3.743938001e-07
3.741790819e-07
3.741656284e-07
3.742938964e-07
3.729743128e-07
3.72656823e-07
3.722313686e-07
3.717600578e-07
3.713143199e-07
3.709682324e-07
3.707857472e-07
3.70795042e-07
3.709342614e-07
3.695356412e-07
3.692396123e-07
3.68843992e-07
3.684078952e-07
3.679993072e-07
3.676885756e-07
3.675358976e-07
3.675661084e-07
3.677152771e-07
3.662451878e-07
3.659691674e-07
3.656013518e-07
3.651980524e-07
3.648240265e-07
3.645461263e-07
3.644210373e-07
3.644704906e-07
3.646286956e-07
3.630940267e-07
3.628366834e-07
3.624948121e-07
3.621220945e-07
3.617802588e-07
3.615328773e-07
3.614333463e-07
3.615005123e-07
3.616669212e-07
3.600739496e-07
3.59834061e-07
3.595164261e-07
3.591722567e-07
3.588604345e-07
3.586414502e-07
3.585656162e-07
3.586490951e-07
3.588229483e-07
3.571773964e-07
3.56953839e-07
3.566588708e-07
3.563413809e-07
3.560575725e-07
3.558650374e-07
3.55811193e-07
3.559097028e-07
3.560903068e-07
3.543973948e-07
3.541891347e-07
3.539153888e-07
3.53622859e-07
3.533652253e-07
3.531973488e-07
3.531639264e-07
3.532762922e-07
3.534630135e-07
3.517275057e-07
3.515335905e-07
3.512797364e-07
3.510105833e-07
3.507774309e-07
3.506325658e-07
3.506181247e-07
3.507432688e-07
3.509355287e-07
3.491617756e-07
3.489813269e-07
3.487461379e-07
3.484989017e-07
3.482886704e-07
3.481652996e-07
3.481685147e-07
3.483054483e-07
3.485027174e-07
3.466946942e-07
3.465269013e-07
3.463092451e-07
3.46082579e-07
3.458938296e-07
3.45790555e-07
3.458102068e-07
3.459580217e-07
3.46159816e-07
3.44321157e-07
3.44165271e-07
3.439641018e-07
3.437567621e-07
3.435881665e-07
3.435036989e-07
3.435386641e-07
3.436965256e-07
3.439024023e-07
3.420364334e-07
3.41891762e-07
3.417061133e-07
3.415169509e-07
3.413672826e-07
3.413004323e-07
3.413496759e-07
3.415168168e-07
3.417263702e-07
3.398361388e-07
3.397020421e-07
3.395310205e-07
3.393589735e-07
3.392270995e-07
3.391767684e-07
3.392393362e-07
3.394150507e-07
3.396279091e-07
3.377162128e-07
3.37592099e-07
3.374348788e-07
3.37278966e-07
3.371638398e-07
3.371290143e-07
3.372040266e-07
3.373876652e-07
3.376034879e-07
3.356729016e-07
3.355582242e-07
3.354140426e-07
3.352733582e-07
3.351740142e-07
3.351537595e-07
3.352404056e-07
3.354313704e-07
3.356498442e-07
3.337027469e-07
3.335970022e-07
3.334651567e-07
3.33338866e-07
3.332544149e-07
3.332478704e-07
3.333454041e-07
3.335431448e-07
3.337639818e-07
3.318025825e-07
3.31705308e-07
3.315851535e-07
3.314724909e-07
3.314021167e-07
3.31408493e-07
3.315162296e-07
3.31720241e-07
3.319431759e-07
3.299695374e-07
3.298803116e-07
3.297712604e-07
3.296715282e-07
3.29614488e-07
3.296330661e-07
3.297503811e-07
3.299602009e-07
3.301849897e-07
3.282010507e-07
3.281194939e-07
3.280210168e-07
3.279335879e-07
3.278892137e-07
3.279193467e-07
3.280456776e-07
3.282608872e-07
3.284873062e-07
3.264948966e-07
3.264206738e-07
3.263323048e-07
3.262566271e-07
3.26224332e-07
3.262654517e-07
3.264003026e-07
3.266205304e-07
3.268483778e-07
3.248492248e-07
3.247820509e-07
3.247033945e-07
3.24639001e-07
3.246182898e-07
3.246699175e-07
3.248128699e-07
3.25037799e-07
3.252668985e-07
3.232626168e-07
3.232022649e-07
3.231330079e-07
3.230795319e-07
3.230700188e-07
3.231317838e-07
3.232825136e-07
3.235118958e-07
3.237421046e-07
3.217341619e-07
3.21680475e-07
3.216204042e-07
3.215776013e-07
3.215790356e-07
3.216507029e-07
3.218090075e-07
3.220426854e-07
3.222739076e-07
3.202635549e-07
3.202164624e-07
3.201654889e-07
3.201332682e-07
3.201455709e-07
3.2022708e-07
3.203929167e-07
3.206308573e-07
3.208630649e-07
3.188512182e-07
3.188107581e-07
3.187689497e-07
3.187474154e-07
3.187707276e-07
3.188622467e-07
3.190357863e-07
3.192781278e-07
3.195113915e-07
3.174984505e-07
3.174647976e-07
3.174324207e-07
3.174219263e-07
3.174566739e-07
3.175586695e-07
3.177403677e-07
3.179874834e-07
3.182220154e-07
3.162076023e-07
3.161811041e-07
3.161586768e-07
3.161598935e-07
3.162068679e-07
3.163201956e-07
3.165108852e-07
3.167634671e-07
3.16999678e-07
3.149822805e-07
3.14963501e-07
3.149518581e-07
3.149658588e-07
3.150263174e-07
3.151523332e-07
3.153533397e-07
3.156125041e-07
3.158510763e-07
3.138275797e-07
3.138173519e-07
3.138177227e-07
3.13846083e-07
3.139218705e-07
3.140625662e-07
3.142758482e-07
3.145432661e-07
3.147852448e-07
3.127503394e-07
3.127498268e-07
3.127639266e-07
3.128088443e-07
3.129025347e-07
3.130606982e-07
3.132890147e-07
3.135670674e-07
3.13813971e-07
3.117594253e-07
3.117701925e-07
3.118003281e-07
3.118647593e-07
3.119798208e-07
3.121592216e-07
3.124063266e-07
3.126982878e-07
3.12952237e-07
3.108660297e-07
3.108901231e-07
3.109393116e-07
3.110271262e-07
3.111681079e-07
3.113737076e-07
3.116445717e-07
3.119548158e-07
3.122186834e-07
3.100839912e-07
3.101240275e-07
3.101961289e-07
3.103122839e-07
3.104850241e-07
3.107232127e-07
3.110242722e-07
3.113585093e-07
3.11636088e-07
3.094301278e-07
3.094893924e-07
3.095892566e-07
3.097399869e-07
3.099518443e-07
3.102307023e-07
3.105701363e-07
3.109356735e-07
3.112318641e-07
3.08924586e-07
3.090071407e-07
3.091407678e-07
3.093337968e-07
3.095939055e-07
3.099234936e-07
3.103115306e-07
3.107175626e-07
3.110385821e-07
3.085912061e-07
3.087020075e-07
3.088767248e-07
3.091214968e-07
3.094410486e-07
3.098337298e-07
3.102829898e-07
3.107409214e-07
3.110945345e-07
3.084579135e-07
3.086029438e-07
3.088276027e-07
3.091355424e-07
3.095281033e-07
3.099989054e-07
3.105247854e-07
3.110485965e-07
3.114443748e-07
3.085571474e-07
3.087435626e-07
3.09028762e-07
3.094135704e-07
3.098954437e-07
3.104624764e-07
3.110835946e-07
3.116902586e-07
3.121398778e-07
3.089263522e-07
3.091626543e-07
3.095210012e-07
3.099990024e-07
3.105896561e-07
3.112746041e-07
3.120133259e-07
3.127233046e-07
3.132408914e-07
3.096085667e-07
3.099048099e-07
3.103512331e-07
3.109417945e-07
3.116643811e-07
3.124931051e-07
3.13376183e-07
3.142140253e-07
3.148165734e-07
3.106531629e-07
3.110212097e-07
3.115733504e-07
3.122994069e-07
3.131814141e-07
3.141847032e-07
3.152440771e-07
3.16239162e-07
3.169470414e-07
3.121168083e-07
3.125706567e-07
3.13249369e-07
3.141380957e-07
3.152121812e-07
3.164267172e-07
3.177005334e-07
3.188880081e-07
3.197255972e-07
3.140647543e-07
3.146209661e-07
3.154509715e-07
3.16534664e-07
3.178397454e-07
3.193093554e-07
3.208432815e-07
3.222652561e-07
3.232617329e-07
3.165725869e-07
3.172508561e-07
3.182616119e-07
3.1957885e-07
3.211615406e-07
3.229388366e-07
3.247877643e-07
3.264948366e-07
3.276851653e-07
3.197286207e-07
3.205525334e-07