/*--------------------------------*- C++ -*----------------------------------*\
| =========                 |                                                 |
| \\      /  F ield         | OpenFOAM: The Open Source CFD Toolbox           |
|  \\    /   O peration     | Version:  2212                                  |
|   \\  /    A nd           | Website:  www.openfoam.com                      |
|    \\/     M anipulation  |                                                 |
\*---------------------------------------------------------------------------*/
FoamFile
{
    version     2.0;
    format      ascii;
    arch        "LSB;label=32;scalar=64";
    class       volScalarField;
    location    "20.00000000";
    object      C4H6_0;
}
// * * * * * * * * * * * * * * * * * * * * * * * * * * * * * * * * * * * * * //

dimensions      [0 0 0 0 0 0 0];

internalField   nonuniform List<scalar> 
3000
(
2.991480951e-22
3.360373171e-22
3.91698916e-22
4.658665359e-22
5.577844327e-22
6.649583876e-22
7.809369043e-22
8.916125637e-22
9.698688428e-22
1.123125547e-21
1.266706007e-21
1.483258973e-21
1.772448756e-21
2.133981349e-21
2.565874624e-21
3.060643621e-21
3.593468077e-21
4.065351015e-21
2.515801238e-21
2.859724473e-21
3.383392731e-21
4.094356346e-21
5.005370906e-21
6.129682428e-21
7.462841007e-21
8.930191638e-21
1.018389246e-20
4.791994716e-21
5.504164795e-21
6.604459005e-21
8.130058747e-21
1.013497458e-20
1.267019016e-20
1.572185979e-20
1.904607785e-20
2.172894492e-20
8.509642598e-21
9.894355807e-21
1.206743983e-20
1.513923492e-20
1.925417555e-20
2.452766484e-20
3.087155274e-20
3.760890849e-20
4.278069222e-20
1.463345602e-20
1.723254543e-20
2.136993333e-20
2.730964079e-20
3.536847915e-20
4.574937078e-20
5.814219557e-20
7.098442174e-20
8.048534332e-20
2.484342494e-20
2.961777186e-20
3.730640613e-20
4.846890493e-20
6.37266591e-20
8.338294123e-20
1.066244523e-19
1.302379457e-19
1.472760113e-19
4.204526025e-20
5.068516153e-20
6.472247374e-20
8.52594344e-20
1.134407225e-19
1.496714667e-19
1.921331812e-19
2.346452103e-19
2.648071297e-19
7.127491864e-20
8.674424732e-20
1.120393448e-19
1.492331233e-19
2.003605073e-19
2.659110894e-19
3.421806088e-19
4.177455828e-19
4.707671551e-19
1.21255936e-19
1.487351897e-19
1.938732183e-19
2.604565523e-19
3.520372031e-19
4.691430245e-19
6.046433316e-19
7.379107884e-19
8.307302203e-19
2.071168273e-19
2.556483576e-19
3.356190028e-19
4.53819789e-19
6.163977576e-19
8.238202526e-19
1.06283836e-18
1.296730234e-18
1.458839417e-18
3.551124013e-19
4.4046715e-19
5.814220947e-19
7.900184228e-19
1.076857501e-18
1.442144181e-18
1.861800901e-18
2.27102622e-18
2.553790676e-18
6.108401398e-19
7.605204976e-19
1.008077216e-18
1.374709865e-18
1.878677003e-18
2.519487032e-18
3.253908595e-18
3.968219204e-18
4.461436808e-18
1.053502797e-18
1.31546058e-18
1.749188491e-18
2.391874618e-18
3.274983278e-18
4.396305924e-18
5.678002206e-18
6.92032962e-18
7.783771159e-18
1.820609714e-18
2.278398192e-18
3.037037222e-18
4.161755414e-18
5.70709014e-18
7.667043684e-18
9.898956261e-18
1.203964745e-17
1.357195301e-17
3.150677329e-18
3.949636784e-18
5.274637424e-18
7.240230111e-18
9.942609561e-18
1.337552793e-17
1.730796933e-17
2.114339333e-17
2.372152731e-17
5.457145061e-18
6.849508579e-18
9.159569017e-18
1.258707854e-17
1.729836216e-17
2.327776905e-17
3.010912671e-17
3.672550417e-17
4.125047177e-17
9.456964827e-18
1.188044913e-17
1.590209662e-17
2.186914408e-17
3.006871746e-17
4.04686713e-17
5.233818087e-17
6.38208616e-17
7.168858041e-17
1.639404067e-17
2.060854465e-17
2.760329551e-17
3.798157834e-17
5.224013813e-17
7.031872346e-17
9.094290537e-17
1.10886757e-16
1.245501055e-16
2.84272465e-17
3.575228323e-17
4.791097015e-17
6.595147552e-17
9.073458284e-17
1.221509838e-16
1.579816784e-16
1.926207822e-16
2.163457018e-16
4.930415787e-17
6.20311433e-17
8.315850101e-17
1.145072552e-16
1.575700719e-16
2.121512545e-16
2.743895455e-16
3.345446795e-16
3.757374934e-16
8.553098285e-17
1.076391575e-16
1.443424954e-16
1.988041521e-16
2.736130045e-16
3.684208091e-16
4.765112799e-16
5.809641317e-16
6.524803187e-16
1.484044916e-16
1.868042191e-16
2.505575422e-16
3.451575249e-16
4.750939589e-16
6.397488732e-16
8.274429277e-16
1.008789336e-15
1.132939815e-15
2.575414045e-16
3.242334927e-16
4.34961965e-16
5.992631736e-16
8.24921832e-16
1.110842473e-15
1.436719075e-15
1.751528087e-15
1.967023122e-15
4.470090681e-16
5.62835135e-16
7.551391775e-16
1.040470696e-15
1.432321484e-15
1.928749117e-15
2.49445786e-15
3.04086638e-15
3.414863296e-15
7.759722022e-16
9.771268467e-16
1.311086478e-15
1.806557144e-15
2.486903812e-15
3.348668267e-15
4.33050175e-15
5.278652391e-15
5.927540164e-15
1.347180781e-15
1.696518051e-15
2.276443665e-15
3.136717576e-15
4.317758142e-15
5.81336074e-15
7.516870874e-15
9.161485341e-15
1.02867552e-14
2.339064036e-15
2.945724591e-15
3.952687202e-15
5.446127541e-15
7.49584854e-15
1.009060572e-14
1.304492455e-14
1.589599522e-14
1.784608604e-14
4.061389167e-15
5.114843694e-15
6.863055802e-15
9.455078319e-15
1.301117912e-14
1.751071083e-14
2.263098527e-14
2.756959224e-14
3.094586917e-14
7.051682773e-15
8.880718769e-15
1.191512571e-14
1.641227007e-14
2.257870506e-14
3.037589134e-14
3.924206509e-14
4.778700395e-14
5.362459865e-14
1.224199367e-14
1.541675852e-14
2.068164114e-14
2.848000029e-14
3.916502751e-14
5.266345318e-14
6.799656427e-14
8.275809978e-14
9.283247894e-14
2.124666915e-14
2.675478556e-14
3.588425354e-14
4.939645927e-14
6.789179066e-14
9.122829876e-14
1.176994219e-13
1.431460239e-13
1.604884158e-13
3.685754182e-14
4.640709803e-14
6.222377151e-14
8.560971338e-14
1.175775878e-13
1.578475332e-13
2.03441441e-13
2.471840112e-13
2.769392284e-13
6.38929778e-14
8.043160194e-14
1.077986075e-13
1.482090026e-13
2.033534515e-13
2.726721965e-13
3.509649951e-13
4.258848997e-13
4.767217296e-13
1.106473898e-13
1.392467263e-13
1.86514533e-13
2.561925395e-13
3.510660544e-13
4.700043979e-13
6.039256583e-13
7.316564728e-13
8.18053905e-13
1.913533134e-13
2.407060149e-13
3.221510439e-13
4.419536423e-13
6.046241728e-13
8.078683799e-13
1.035834761e-12
1.252376073e-12
1.39827025e-12
3.303388712e-13
4.152716069e-13
5.551693387e-13
7.604073724e-13
1.038128425e-12
1.383682201e-12
1.769449472e-12
2.134071242e-12
2.378571695e-12
5.690013972e-13
7.146524728e-13
9.540079847e-13
1.304015901e-12
1.775662936e-12
2.359583837e-12
3.007811686e-12
3.616929397e-12
4.0231139e-12
9.774178064e-13
1.226103309e-12
1.633635649e-12
2.227238611e-12
3.023168828e-12
4.002778004e-12
5.083185796e-12
6.091583308e-12
6.759776641e-12
1.673515509e-12
2.095867682e-12
2.785685399e-12
3.785815979e-12
5.119056515e-12
6.748847164e-12
8.533013241e-12
1.018570281e-11
1.12731609e-11
2.854440931e-12
3.567213269e-12
4.726814117e-12
6.399036808e-12
8.61339568e-12
1.1299568e-11
1.421595667e-11
1.689515151e-11
1.864474756e-11
4.847379618e-12
6.041450352e-12
7.975324096e-12
1.074705253e-11
1.438997138e-11
1.877173145e-11
2.34865138e-11
2.777973691e-11
3.056114044e-11
8.191006809e-12
1.017465433e-11
1.337096078e-11
1.792080311e-11
2.385164118e-11
3.092024453e-11
3.845405487e-11
4.525145462e-11
4.961949656e-11
1.376451858e-11
1.702906354e-11
2.225969473e-11
2.964975383e-11
3.919785851e-11
5.046804851e-11
6.236220541e-11
7.299389159e-11
7.977044083e-11
2.298950509e-11
2.830698396e-11
3.677490511e-11
4.864314865e-11
6.383475727e-11
8.158803887e-11
1.001382737e-10
1.165661943e-10
1.269540907e-10
3.814165084e-11
4.670738291e-11
6.025962623e-11
7.909487164e-11
1.029739572e-10
1.305994855e-10
1.591812886e-10
1.842651834e-10
2.000057794e-10
6.282546876e-11
7.646232669e-11
9.78926282e-11
1.274216527e-10
1.644978006e-10
2.069651403e-10
2.504830076e-10
2.883467344e-10
3.119366472e-10
1.026873756e-10
1.241335004e-10
1.576057386e-10
2.033311331e-10
2.601981562e-10
3.247075509e-10
3.902113958e-10
4.467449931e-10
4.817330913e-10
1.664722268e-10
1.997802596e-10
2.514132399e-10
3.213527493e-10
4.07535997e-10
5.044070586e-10
6.019337457e-10
6.854786929e-10
7.368716026e-10
2.675685146e-10
3.186528157e-10
3.973195123e-10
5.03013904e-10
6.321233427e-10
7.760034936e-10
9.197210429e-10
1.042002287e-09
1.116816369e-09
4.262414977e-10
5.036212491e-10
6.220326361e-10
7.799110645e-10
9.712027596e-10
1.182703954e-09
1.392462059e-09
1.56985202e-09
1.677862301e-09
6.728270195e-10
7.886289006e-10
9.647955728e-10
1.198016618e-09
1.478498959e-09
1.786407064e-09
2.089832088e-09
2.345060597e-09
2.499814832e-09
1.05225941e-09
1.223565882e-09
1.482761765e-09
1.823686359e-09
2.230950626e-09
2.675198279e-09
3.110517211e-09
3.474979599e-09
3.695170846e-09
1.630445029e-09
1.881108734e-09
2.258503676e-09
2.75200364e-09
3.338010441e-09
3.973660253e-09
4.593499816e-09
5.110372456e-09
5.421698175e-09
2.503038505e-09
2.866086129e-09
3.41026708e-09
4.118192221e-09
4.954415213e-09
5.857074111e-09
6.733587193e-09
7.46200973e-09
7.899646122e-09
3.807652772e-09
4.328530699e-09
5.10625525e-09
6.113435178e-09
7.297734394e-09
8.570770409e-09
9.802498476e-09
1.08231896e-08
1.143513787e-08
5.740776628e-09
6.481693523e-09
7.584233353e-09
9.006489714e-09
1.067230451e-08
1.245651759e-08
1.417758744e-08
1.560037037e-08
1.645194005e-08
8.580967065e-09
9.626700998e-09
1.117832762e-08
1.317319419e-08
1.550184418e-08
1.79884067e-08
2.038083785e-08
2.235472142e-08
2.35345403e-08
1.272058198e-08
1.418624309e-08
1.635557189e-08
1.913662562e-08
2.237375492e-08
2.582151363e-08
2.913168544e-08
3.185837052e-08
3.348644915e-08
1.870903584e-08
2.075043624e-08
2.376557987e-08
2.762158371e-08
3.20991309e-08
3.685774061e-08
4.14184397e-08
4.517042134e-08
4.740896448e-08
2.731153204e-08
3.013902658e-08
3.430782172e-08
3.96282861e-08
4.579384834e-08
5.233473288e-08
5.859468615e-08
6.373951124e-08
6.680741699e-08
3.958846929e-08
4.34854203e-08
4.922242895e-08
5.653177253e-08
6.498789849e-08
7.39457118e-08
8.250915677e-08
8.954196069e-08
9.373430054e-08
5.700234556e-08
6.234977543e-08
7.021236958e-08
8.021561533e-08
9.17723985e-08
1.04000566e-07
1.156803427e-07
1.252675977e-07
1.309818699e-07
8.156111819e-08
8.887063385e-08
9.960720946e-08
1.13251075e-07
1.289965499e-07
1.456417632e-07
1.615307226e-07
1.74569273e-07
1.823409512e-07
1.160094337e-07
1.259671114e-07
1.405814051e-07
1.591359251e-07
1.805303474e-07
2.031326612e-07
2.246999939e-07
2.423970477e-07
2.529479849e-07
1.64081786e-07
1.776065395e-07
1.97443307e-07
2.22610829e-07
2.516130057e-07
2.822405239e-07
3.114620263e-07
3.354439578e-07
3.497486354e-07
2.308346892e-07
2.491556908e-07
2.760145934e-07
3.100751055e-07
3.493114991e-07
3.9074157e-07
4.302759511e-07
4.627365641e-07
4.82113031e-07
3.230778984e-07
3.478368068e-07
3.84123128e-07
4.301272157e-07
4.831174707e-07
5.390796812e-07
5.925065485e-07
6.364086648e-07
6.62643133e-07
4.499267574e-07
4.833115818e-07
5.322340477e-07
5.942570165e-07
6.657123038e-07
7.412116914e-07
8.133500928e-07
8.72697226e-07
9.082131879e-07
6.234974477e-07
6.68415513e-07
7.342424043e-07
8.177142394e-07
9.13926085e-07
1.015666268e-06
1.112993812e-06
1.193189558e-06
1.241272806e-06
8.597622754e-07
9.200590754e-07
1.008442644e-06
1.120566619e-06
1.249901168e-06
1.386823415e-06
1.518011472e-06
1.626319505e-06
1.691406626e-06
1.179569777e-06
1.260297197e-06
1.378670992e-06
1.528935847e-06
1.702437779e-06
1.886378427e-06
2.062943008e-06
2.20904418e-06
2.297070269e-06
1.60981003e-06
1.717539584e-06
1.87558069e-06
2.076353204e-06
2.308439356e-06
2.554877528e-06
2.791911201e-06
2.988520888e-06
3.107298634e-06
2.184664221e-06
2.32782646e-06
2.537951518e-06
2.805103583e-06
3.114282729e-06
3.44309899e-06
3.759992536e-06
4.023457059e-06
4.183051061e-06
2.946814963e-06
3.1360233e-06
3.413851121e-06
3.76732458e-06
4.176817241e-06
4.612906459e-06
5.033899626e-06
5.384633602e-06
5.597597063e-06
3.948407622e-06
4.196693559e-06
4.561358808e-06
5.025508959e-06
5.563558404e-06
6.137077822e-06
6.691403652e-06
7.153886771e-06
7.435188523e-06
5.251451114e-06
5.574303043e-06
6.048451948e-06
6.651943672e-06
7.351594095e-06
8.097541978e-06
8.818804242e-06
9.420906832e-06
9.787439936e-06
6.927243833e-06
7.342315847e-06
7.95162353e-06
8.726688034e-06
9.624656169e-06
1.058140725e-05
1.150591512e-05
1.227727786e-05
1.274674289e-05
9.054448222e-06
9.580846103e-06
1.035282055e-05
1.133351517e-05
1.24679615e-05
1.367456074e-05
1.483837751e-05
1.580772002e-05
1.639685657e-05
1.171535623e-05
1.237230733e-05
1.333423772e-05
1.455366567e-05
1.596066125e-05
1.745281293e-05
1.888764541e-05
2.007913792e-05
2.080142205e-05
1.49899803e-05
1.579492401e-05
1.697097859e-05
1.845747081e-05
2.016644671e-05
2.197152082e-05
2.369975855e-05
2.512886452e-05
2.599198004e-05
1.894808951e-05
1.991429435e-05
2.132203374e-05
2.309461531e-05
2.512318003e-05
2.725477507e-05
2.928454737e-05
3.095407219e-05
3.195763587e-05
2.363960759e-05
2.477354202e-05
2.642012559e-05
2.848407119e-05
3.083311618e-05
3.328630812e-05
3.560736389e-05
3.750454856e-05
3.863863465e-05
2.908437893e-05
3.038328709e-05
3.226217169e-05
3.460510156e-05
3.725507725e-05
4.000341674e-05
4.258507734e-05
4.468065807e-05
4.592568815e-05
3.526272933e-05
3.671288399e-05
3.880164151e-05
4.139146799e-05
4.430084842e-05
4.729574993e-05
5.008759118e-05
5.233748987e-05
5.366618923e-05
4.210857154e-05
4.368465468e-05
4.594450847e-05
4.872958199e-05
5.183605576e-05
5.500928591e-05
5.794480872e-05
6.029450397e-05
6.167706014e-05
4.950684073e-05
5.117276899e-05
5.355022831e-05
5.6462075e-05
5.968651585e-05
6.295537821e-05
6.59578946e-05
6.834526792e-05
6.973848196e-05
5.729672146e-05
5.900799584e-05
6.143861889e-05
6.439715969e-05
6.764971471e-05
7.0923528e-05
7.390334507e-05
7.625064668e-05
7.760963062e-05
6.528148848e-05
6.698881221e-05
6.940272421e-05
7.23236899e-05
7.550859738e-05
7.868165005e-05
8.154170433e-05
8.377397746e-05
8.505622053e-05
7.324473011e-05
7.489754505e-05
7.722083239e-05
8.000915584e-05
8.302200645e-05
8.5993793e-05
8.864569526e-05
9.069609855e-05
9.186445734e-05
8.094526761e-05
8.248904125e-05
8.464603599e-05
8.721392938e-05
8.996247002e-05
9.26456206e-05
9.501486095e-05
9.682859963e-05
9.785339324e-05
8.813363075e-05
8.95212413e-05
9.1447756e-05
9.372176124e-05
9.613107257e-05
9.845674642e-05
0.0001004866786
0.0001020236261
0.0001028838923
9.458614108e-05
9.578070994e-05
9.742751813e-05
9.93527996e-05
0.0001013690563
0.0001032900794
0.0001049440492
0.0001061798988
0.0001068638009
0.0001001192281
0.0001010958619
0.0001024308168
0.0001039733174
0.0001055654423
0.0001070572603
0.0001083188302
0.0001092448205
0.0001097492743
0.0001045997807
0.0001053461178
0.0001063546182
0.0001075011676
0.0001086603589
0.000109719969
0.0001105914493
0.0001112128773
0.0001115425464
0.0001079506009
0.0001084661979
0.0001091500756
0.0001099066795
0.0001106441103
0.0001112873506
0.0001117870251
0.0001121208805
0.0001122867398
0.0001101506499
0.0001104454076
0.0001108205473
0.0001112092866
0.0001115524805
0.0001118102077
0.0001119687484
0.0001120408513
0.0001120585333
0.000111230497
0.0001113224384
0.0001114155784
0.0001114706729
0.0001114591608
0.0001113729145
0.0001112295003
0.0001110715197
0.0001109596414
0.0001112640219
0.0001111767855
0.0001110220034
0.0001107856219
0.0001104664713
0.0001100841439
0.0001096826996
0.0001093293434
0.0001091079666
0.0001103578006
0.0001101181561
0.0001097534478
0.0001092717242
0.0001086953991
0.0001080673455
0.0001074532509
0.0001069398606
0.0001066291946
0.0001086395861
0.0001082752472
0.0001077395586
0.0001070591993
0.0001062761094
0.0001054519702
0.0001046694297
0.0001040300929
0.0001036494913
0.0001062473517
0.0001057852336
0.0001051161279
0.0001042817913
0.0001033396807
0.0001023660311
0.0001014561682
0.0001007223781
0.0001002896369
0.0001033198477
0.000102784826
0.0001020168447
0.0001010693367
0.0001000115277
9.893033885e-05
9.792998292e-05
9.712980668e-05
9.666073618e-05
9.998923122e-05
9.940337833e-05
9.856705446e-05
9.754227333e-05
9.640667839e-05
9.52544906e-05
9.419555892e-05
9.335323503e-05
9.286146176e-05
9.63759282e-05
9.575815533e-05
9.48795728e-05
9.380807253e-05
9.262682893e-05
9.143449289e-05
9.034383877e-05
8.947970776e-05
8.897665251e-05
9.258558293e-05
9.195159318e-05
9.105236012e-05
8.995937636e-05
8.875893962e-05
8.755177037e-05
8.645136676e-05
8.558203736e-05
8.507701682e-05
8.870776258e-05
8.807021767e-05
8.716772258e-05
8.607351167e-05
8.48750581e-05
8.367325606e-05
8.258058871e-05
8.171925335e-05
8.121966341e-05
8.481600691e-05
8.418482578e-05
8.329266384e-05
8.221302128e-05
8.103301221e-05
7.985223461e-05
7.878082023e-05
7.793765572e-05
7.744919599e-05
8.096879944e-05
8.035151607e-05
7.94799906e-05
7.842685261e-05
7.727768584e-05
7.612968205e-05
7.508962843e-05
7.427222317e-05
7.379913663e-05
7.721109739e-05
7.661323513e-05
7.576987856e-05
7.475193836e-05
7.364260214e-05
7.253584711e-05
7.153440789e-05
7.074818313e-05
7.029349205e-05
7.357613857e-05
7.300156844e-05
7.219163821e-05
7.121492903e-05
7.015161745e-05
6.909190462e-05
6.813399672e-05
6.738259888e-05
6.694832469e-05
7.008730892e-05
6.953857398e-05
6.876550008e-05
6.783391968e-05
6.682058488e-05
6.581155695e-05
6.490022327e-05
6.418587485e-05
6.377323524e-05
6.675992945e-05
6.623852688e-05
6.550430062e-05
6.462006634e-05
6.365889702e-05
6.27025056e-05
6.183931578e-05
6.116311971e-05
6.077269991e-05
6.360287851e-05
6.31094978e-05
6.241499985e-05
6.157903243e-05
6.067085748e-05
5.976775092e-05
5.895313982e-05
5.831533687e-05
5.794723494e-05
6.062000853e-05
6.015472789e-05
5.949999881e-05
5.871223903e-05
5.785686057e-05
5.700670435e-05
5.6240252e-05
5.564043407e-05
5.529438152e-05
5.781134606e-05
5.737379121e-05
5.675825041e-05
5.601791546e-05
5.521437883e-05
5.441611544e-05
5.36967744e-05
5.313405805e-05
5.280951823e-05
5.517408296e-05
5.476355363e-05
5.418617365e-05
5.34919614e-05
5.273877044e-05
5.199082685e-05
5.131710399e-05
5.079026928e-05
5.048651619e-05
5.270337765e-05
5.231894675e-05
5.177839011e-05
5.112863956e-05
5.042392578e-05
4.972437666e-05
4.909447619e-05
4.860207613e-05
4.831825659e-05
5.039299045e-05
5.003358081e-05
4.952830592e-05
4.892112149e-05
4.82627752e-05
4.760946941e-05
4.702140383e-05
4.656184927e-05
4.62970312e-05
4.823577809e-05
4.790022111e-05
4.74285632e-05
4.686190964e-05
4.624768013e-05
4.563833737e-05
4.509001224e-05
4.466163662e-05
4.441484592e-05
4.622407194e-05
4.591115171e-05
4.547138374e-05
4.494315762e-05
4.437072853e-05
4.380301201e-05
4.329228954e-05
4.289339759e-05
4.266364572e-05
4.434996177e-05
4.405844785e-05
4.364882568e-05
4.315690827e-05
4.262395333e-05
4.209552341e-05
4.162026939e-05
4.124917286e-05
4.103547714e-05
4.26055044e-05
4.233417561e-05
4.195297081e-05
4.149526655e-05
4.099948991e-05
4.050804282e-05
4.006616041e-05
3.972120373e-05
3.952260192e-05
4.098287329e-05
4.073053468e-05
4.037605786e-05
3.995052148e-05
3.948968622e-05
3.903298133e-05
3.862243458e-05
3.830201274e-05
3.811757303e-05
3.947446254e-05
3.923995703e-05
3.891057385e-05
3.851522907e-05
3.808717658e-05
3.766305471e-05
3.728188443e-05
3.698445482e-05
3.681328254e-05
3.80729564e-05
3.785517258e-05
3.75493142e-05
3.718226567e-05
3.6784928e-05
3.63913231e-05
3.603765681e-05
3.576174667e-05
3.560298833e-05
3.677137217e-05
3.656924885e-05
3.628541827e-05
3.594485888e-05
3.55762662e-05
3.521121217e-05
3.488326969e-05
3.462748004e-05
3.448032551e-05
3.55630837e-05
3.537561253e-05
3.511238806e-05
3.479660273e-05
3.445488691e-05
3.411652069e-05
3.381261645e-05
3.357562371e-05
3.343930699e-05
3.444183179e-05
3.426805825e-05
3.402409455e-05
3.373146123e-05
3.341485659e-05
3.310141851e-05
3.281996167e-05
3.260051743e-05
3.247431645e-05
3.340172419e-05
3.324074722e-05
3.301477484e-05
3.274376364e-05
3.245060583e-05
3.216043821e-05
3.189993105e-05
3.169686069e-05
3.158009638e-05
3.243722854e-05
3.228819953e-05
3.207902327e-05
3.182819443e-05
3.155691789e-05
3.128846233e-05
3.104749759e-05
3.0859698e-05
3.075173294e-05
3.15431608e-05
3.140528201e-05
3.12117786e-05
3.097977953e-05
3.072891416e-05
3.048070795e-05
3.025796543e-05
3.008440224e-05
2.998463896e-05
3.07146709e-05
3.058719347e-05
3.040830878e-05
3.019387057e-05
2.996203775e-05
2.97327098e-05
2.952695255e-05
2.936665699e-05
2.927453615e-05
2.994722651e-05
2.982944835e-05
2.96641943e-05
2.94661279e-05
2.925203621e-05
2.904030268e-05
2.885037291e-05
2.870243858e-05
2.861743699e-05
2.92365962e-05
2.912785971e-05
2.897531101e-05
2.879250323e-05
2.859494408e-05
2.839960386e-05
2.822441878e-05
2.80879983e-05
2.8009627e-05
2.857883225e-05
2.847852201e-05
2.833781287e-05
2.816922239e-05
2.798706554e-05
2.780699576e-05
2.764554344e-05
2.75198451e-05
2.744764742e-05
2.797025373e-05
2.787779419e-05
2.774811509e-05
2.759276846e-05
2.742495761e-05
2.725910917e-05
2.711044447e-05
2.699472905e-05
2.692827867e-05
2.740743e-05
2.732228325e-05
2.720287771e-05
2.705986547e-05
2.690541399e-05
2.675280728e-05
2.661604787e-05
2.650962548e-05
2.644852463e-05
2.688716494e-05
2.68088285e-05
2.669898999e-05
2.656746288e-05
2.642544971e-05
2.628517039e-05
2.615949298e-05
2.606172002e-05
2.600559774e-05
2.640648182e-05
2.633448656e-05
2.62335555e-05
2.611272087e-05
2.598228649e-05
2.585348155e-05
2.573811826e-05
2.564839459e-05
2.5596905e-05
2.596260904e-05
2.589651713e-05
2.580387807e-05
2.56929964e-05
2.557333906e-05
2.545521302e-05
2.534944786e-05
2.526721405e-05
2.522003482e-05
2.555296659e-05
2.549236961e-05
2.540744847e-05
2.530583009e-05
2.519620224e-05
2.508801349e-05
2.499117916e-05
2.491591388e-05
2.487274468e-05
2.517515337e-05
2.511967047e-05
2.504193199e-05
2.494893393e-05
2.484863875e-05
2.474969619e-05
2.466117091e-05
2.459238851e-05
2.455294962e-05
2.482693526e-05
2.477621141e-05
2.470515668e-05
2.462017972e-05
2.452856794e-05
2.443822768e-05
2.435743228e-05
2.429468047e-05
2.425871142e-05
2.450623389e-05
2.445993824e-05
2.439510239e-05
2.431758828e-05
2.423405506e-05
2.415171742e-05
2.407811257e-05
2.402097023e-05
2.398822853e-05
2.421111613e-05
2.416894049e-05
2.410989049e-05
2.403931927e-05
2.396330137e-05
2.388840796e-05
2.382149157e-05
2.37695667e-05
2.373982666e-05
2.39397843e-05
2.390144164e-05
2.384777423e-05
2.378366176e-05
2.371463478e-05
2.364666583e-05
2.358597054e-05
2.353889836e-05
2.351194997e-05
2.369056692e-05
2.365578999e-05
2.360712977e-05
2.354902535e-05
2.348650119e-05
2.342497295e-05
2.33700639e-05
2.332750497e-05
2.330315288e-05
2.346191009e-05
2.343045015e-05
2.338644768e-05
2.333393187e-05
2.327745632e-05
2.322191869e-05
2.317239129e-05
2.313402987e-05
2.311209236e-05
2.325236948e-05
2.322399502e-05
2.318432515e-05
2.313700766e-05
2.308615814e-05
2.303619238e-05
2.29916703e-05
2.295721274e-05
2.29375208e-05
2.30606027e-05
2.303509834e-05
2.299945855e-05
2.295697631e-05
2.291135974e-05
2.28665764e-05
2.282670962e-05
2.279588283e-05
2.277827934e-05
2.288536234e-05
2.286252771e-05
2.283063661e-05
2.279265192e-05
2.27519027e-05
2.27119396e-05
2.267640269e-05
2.264895276e-05
2.263329161e-05
2.272548931e-05
2.270513808e-05
2.267673397e-05
2.264293277e-05
2.260671093e-05
2.257123131e-05
2.253972167e-05
2.251541256e-05
2.250155795e-05
2.257990676e-05
2.256186563e-05
2.253670514e-05
2.250679542e-05
2.247478488e-05
2.244347565e-05
2.241571199e-05
2.239432426e-05
2.238214996e-05
2.244761426e-05
2.243172209e-05
2.240957897e-05
2.238328923e-05
2.235519614e-05
2.232776624e-05
2.230348709e-05
2.22848168e-05
2.227420548e-05
2.232768248e-05
2.231378948e-05
2.229445336e-05
2.227153121e-05
2.224708241e-05
2.222326131e-05
2.220222364e-05
2.218608123e-05
2.217692386e-05
2.221924818e-05
2.220721508e-05
2.219049042e-05
2.217070126e-05
2.214964283e-05
2.212917909e-05
2.211115702e-05
2.209736634e-05
2.208956159e-05
2.212150952e-05
2.211120688e-05
2.209691192e-05
2.208003767e-05
2.206213364e-05
2.204479355e-05
2.202957717e-05
2.201797451e-05
2.201142823e-05
2.203372173e-05
2.202502923e-05
2.201299504e-05
2.199883302e-05
2.198386406e-05
2.196943043e-05
2.195682466e-05
2.194725789e-05
2.194188257e-05
2.195519306e-05
2.194799886e-05
2.193806841e-05
2.192643026e-05
2.191419252e-05
2.190246352e-05
2.189228707e-05
2.188461482e-05
2.188032917e-05
2.188528099e-05
2.187948115e-05
2.187150851e-05
2.186221915e-05
2.18525232e-05
2.184331123e-05
2.183539564e-05
2.182948654e-05
2.1826215e-05
2.18233887e-05
2.181888662e-05
2.181273616e-05
2.18056329e-05
2.179830267e-05
2.179143342e-05
2.178562212e-05
2.17813541e-05
2.177902645e-05
2.176896187e-05
2.176566776e-05
2.176121341e-05
2.175614503e-05
2.175101691e-05
2.174632839e-05
2.174247589e-05
2.173973549e-05
2.173828651e-05
2.172148557e-05
2.171931599e-05
2.171644061e-05
2.171326657e-05
2.171018851e-05
2.170753014e-05
2.170550125e-05
2.170418306e-05
2.170355212e-05
2.168048151e-05
2.167935891e-05
2.167795362e-05
2.167654332e-05
2.167537399e-05
2.167460589e-05
2.167427495e-05
2.167428102e-05
2.167441179e-05
2.164550542e-05
2.164535772e-05
2.164532133e-05
2.16455534e-05
2.16461615e-05
2.164715365e-05
2.164840393e-05
2.164964322e-05
2.165048337e-05
2.161614464e-05
2.161690488e-05
2.161814337e-05
2.161990502e-05
2.162216853e-05
2.162480014e-05
2.162752317e-05
2.162991113e-05
2.163141203e-05
2.159201596e-05
2.15936219e-05
2.159604791e-05
2.159923438e-05
2.160303995e-05
2.160719881e-05
2.161129384e-05
2.161475193e-05
2.161686844e-05
2.157276357e-05
2.157515741e-05
2.157868981e-05
2.158320379e-05
2.158844616e-05
2.159402808e-05
2.159940158e-05
2.16038569e-05
2.160654709e-05
2.155805729e-05
2.156118538e-05
2.156574885e-05
2.157150001e-05
2.15780815e-05
2.158498981e-05
2.1591555e-05
2.159693992e-05
2.160016493e-05
2.154759094e-05
2.15514035e-05
2.155692819e-05
2.156383278e-05
2.157166282e-05
2.157980791e-05
2.158748438e-05
2.159373625e-05
2.159746007e-05
2.154108098e-05
2.154553191e-05
2.155195311e-05
2.155993358e-05
2.156892832e-05
2.157822728e-05
2.158694065e-05
2.159400154e-05
2.15981909e-05
2.153826538e-05
2.154331205e-05
2.155056996e-05
2.155955465e-05
2.156963668e-05
2.158001297e-05
2.158969464e-05
2.159751116e-05
2.160213541e-05
2.153890272e-05
2.154450583e-05
2.155254537e-05
2.156246832e-05
2.157356641e-05
2.15849497e-05
2.159553667e-05
2.160405984e-05
2.160909087e-05
2.154277167e-05
2.15488952e-05
2.155766587e-05
2.156846668e-05
2.158051569e-05
2.159284172e-05
2.160427653e-05
2.161346173e-05
2.161887399e-05
2.154967085e-05
2.1556282e-05
2.156573789e-05
2.157736169e-05
2.159030258e-05
2.160351323e-05
2.1615744e-05
2.162555103e-05
2.163132152e-05
2.155941911e-05
2.156648836e-05
2.157658822e-05
2.158898584e-05
2.16027658e-05
2.161680926e-05
2.162978993e-05
2.164018321e-05
2.164629166e-05
2.157185641e-05
2.157935768e-05
2.159006515e-05
2.160319338e-05
2.161776623e-05
2.163259742e-05
2.16462881e-05
2.165723701e-05
2.166366605e-05
2.158684541e-05
2.15947563e-05
2.160604027e-05
2.161986241e-05
2.163518918e-05
2.165077037e-05
2.166513803e-05
2.167661745e-05
2.168335294e-05
2.160427376e-05
2.161257598e-05
2.162441125e-05
2.16388978e-05
2.165494763e-05
2.167124944e-05
2.168626881e-05
2.169825989e-05
2.170529142e-05
2.162405751e-05
2.163273744e-05
2.16451055e-05
2.166023532e-05
2.167698671e-05
2.169398942e-05
2.170964427e-05
2.172213549e-05
2.1729457e-05
2.164614556e-05
2.165519503e-05
2.166808526e-05
2.168384696e-05
2.170128945e-05
2.171898478e-05
2.173526963e-05
2.174825823e-05
2.175586889e-05
2.16705254e-05
2.167994274e-05
2.169335387e-05
2.170974778e-05
2.17278841e-05
2.174627749e-05
2.176319984e-05
2.177669363e-05
2.17845989e-05
2.16972304e-05
2.170702171e-05
2.172096377e-05
2.173800425e-05
2.175685313e-05
2.177596664e-05
2.17935497e-05
2.180756934e-05
2.181578238e-05
2.172634856e-05
2.173652938e-05
2.175102601e-05
2.17687445e-05
2.178834398e-05
2.18082199e-05
2.182650596e-05
2.184108774e-05
2.184963107e-05
2.175803305e-05
2.176863028e-05
2.178372162e-05
2.180217015e-05
2.182258174e-05
2.184328676e-05
2.186234129e-05
2.187754047e-05
2.188644797e-05
2.179251434e-05
2.180356858e-05
2.181931461e-05
2.183857005e-05
2.185988343e-05
2.188151372e-05
2.190143007e-05
2.191732475e-05
2.192664399e-05
2.183011394e-05
2.184168217e-05
2.18581666e-05
2.187833545e-05
2.1900674e-05
2.192336085e-05
2.194426561e-05
2.196096114e-05
2.197075601e-05
2.187125957e-05
2.188341813e-05
2.19007527e-05
2.192197652e-05
2.194550335e-05
2.196941947e-05
2.199147843e-05
2.20091122e-05
2.201946582e-05
2.191650122e-05
2.192934909e-05
2.194767828e-05
2.197013946e-05
2.199506397e-05
2.202043025e-05
2.20438547e-05
2.206260132e-05
2.207361907e-05
2.196652768e-05
2.198018991e-05
2.199969585e-05
2.202362367e-05
2.205020829e-05
2.207730072e-05
2.210235388e-05
2.212243035e-05
2.213424297e-05
2.202218268e-05
2.203681381e-05
2.205772118e-05
2.208339782e-05
2.211196467e-05
2.214112107e-05
2.216812432e-05
2.2189795e-05
2.220256154e-05
2.208447961e-05
2.210026692e-05
2.212284751e-05
2.215061357e-05
2.218155051e-05
2.221317661e-05
2.224251499e-05
2.226609595e-05
2.228000626e-05
2.215461348e-05
2.217177975e-05
2.219635638e-05
2.22266155e-05
2.226038102e-05
2.229495519e-05
2.232708157e-05
2.23529438e-05
2.236822034e-05
2.223396869e-05
2.22527742e-05
2.227972332e-05
2.231294522e-05
2.23500715e-05
2.23881475e-05
2.242358474e-05
2.24521555e-05
2.246905411e-05
2.232412076e-05
2.234486408e-05
2.237461674e-05
2.241133793e-05
2.245243114e-05
2.249463789e-05
2.253397804e-05
2.256573996e-05
2.258454897e-05
2.242683019e-05
2.244984729e-05
2.248288761e-05
2.252370907e-05
2.25694461e-05
2.261648348e-05
2.266038329e-05
2.269587004e-05
2.271690753e-05
2.25440262e-05
2.256968755e-05
2.26065481e-05
2.265212892e-05
2.270324945e-05
2.275587933e-05
2.280505081e-05
2.284483886e-05
2.28684474e-05
2.267777856e-05
2.270648354e-05
2.274773691e-05
2.279878317e-05
2.285607621e-05
2.291510737e-05
2.297030275e-05
2.301499836e-05
2.304153678e-05
2.28302555e-05
2.286242378e-05
2.290866967e-05
2.296591761e-05
2.303020149e-05
2.309646785e-05
2.315845797e-05
2.320867869e-05
2.323851067e-05
2.300366614e-05
2.303972558e-05
2.309157287e-05
2.315576581e-05
2.322786112e-05
2.330219244e-05
2.337173802e-05
2.342808845e-05
2.346156748e-05
2.320018662e-05
2.324055745e-05
2.329860093e-05
2.337045956e-05
2.345115452e-05
2.35343394e-05
2.361215514e-05
2.367519674e-05
2.371264767e-05
2.342186972e-05
2.346694502e-05
2.353173676e-05
2.361192282e-05
2.370193148e-05
2.379467292e-05
2.388138478e-05
2.395160032e-05
2.399329767e-05
2.367053932e-05
2.372066193e-05
2.379267769e-05
2.388175181e-05