/*--------------------------------*- C++ -*----------------------------------*\
| =========                 |                                                 |
| \\      /  F ield         | OpenFOAM: The Open Source CFD Toolbox           |
|  \\    /   O peration     | Version:  2212                                  |
|   \\  /    A nd           | Website:  www.openfoam.com                      |
|    \\/     M anipulation  |                                                 |
\*---------------------------------------------------------------------------*/
FoamFile
{
    version     2.0;
    format      ascii;
    arch        "LSB;label=32;scalar=64";
    class       volScalarField;
    location    "20.00000000";
    object      C5H5;
}
// * * * * * * * * * * * * * * * * * * * * * * * * * * * * * * * * * * * * * //

dimensions      [0 0 0 0 0 0 0];

internalField   nonuniform List<scalar> 
3000
(
1.137823033e-21
1.278132035e-21
1.489842267e-21
1.771940838e-21
2.121553613e-21
2.529194133e-21
2.970324022e-21
3.391284782e-21
3.688936843e-21
4.27185638e-21
4.817967977e-21
5.641632599e-21
6.741574395e-21
8.11667666e-21
9.759401859e-21
1.164128108e-20
1.366790787e-20
1.546273968e-20
9.568953e-21
1.087707296e-20
1.286885856e-20
1.557303024e-20
1.903810815e-20
2.331447775e-20
2.838521456e-20
3.396636099e-20
3.873487651e-20
1.822653311e-20
2.093528714e-20
2.512028184e-20
3.092294186e-20
3.854870417e-20
4.819149244e-20
5.979864441e-20
7.244244746e-20
8.264683648e-20
3.236671006e-20
3.763348953e-20
4.589885177e-20
5.758248097e-20
7.323374053e-20
9.329157008e-20
1.174206831e-19
1.430463454e-19
1.627173024e-19
5.565875417e-20
6.554441493e-20
8.128100462e-20
1.038727253e-19
1.345245641e-19
1.740083244e-19
2.211444446e-19
2.699898193e-19
3.061265174e-19
9.449247606e-20
1.12651712e-19
1.41895433e-19
1.843519765e-19
2.423847808e-19
3.171473167e-19
4.055461856e-19
4.953598322e-19
5.601638904e-19
1.599196723e-19
1.927814898e-19
2.461723146e-19
3.242844802e-19
4.31471739e-19
5.692749703e-19
7.307775736e-19
8.924715173e-19
1.007191983e-18
2.710944729e-19
3.299319131e-19
4.261415682e-19
5.676077385e-19
7.620702401e-19
1.011391245e-18
1.301481665e-18
1.588892425e-18
1.79055962e-18
4.611966805e-19
5.657137618e-19
7.373959003e-19
9.906452156e-19
1.338971859e-18
1.784383656e-18
2.299759205e-18
2.806642422e-18
3.15968164e-18
7.877674534e-19
9.723569199e-19
1.276525177e-18
1.726102136e-18
2.344468415e-18
3.133402056e-18
4.042510944e-18
4.932122468e-18
5.548707721e-18
1.350666756e-18
1.675313738e-18
2.21143669e-18
3.00483488e-18
4.095831776e-18
5.485207942e-18
7.081382366e-18
8.63787853e-18
9.713382912e-18
2.323323781e-18
2.892633768e-18
3.834217733e-18
5.228709909e-18
7.145560302e-18
9.582897816e-18
1.237627186e-17
1.509315981e-17
1.696913489e-17
4.006983492e-18
5.003340294e-18
6.653026417e-18
9.097490602e-18
1.245640818e-17
1.672133816e-17
2.159620769e-17
2.632187771e-17
2.960547179e-17
6.924656806e-18
8.665852063e-18
1.155133165e-17
1.582919229e-17
2.170683925e-17
2.916142788e-17
3.765152362e-17
4.580609298e-17
5.16215464e-17
1.198353091e-17
1.502235839e-17
2.006197195e-17
2.753806435e-17
3.781653296e-17
5.08735983e-17
6.582941321e-17
8.040509882e-17
9.022333513e-17
2.075610839e-17
2.605192612e-17
3.483817578e-17
4.787460025e-17
6.579381195e-17
8.853634952e-17
1.145192766e-16
1.396836665e-16
1.568949681e-16
3.59692945e-17
4.518694154e-17
6.048314993e-17
8.317861631e-17
1.143654024e-16
1.539212536e-16
1.990665561e-16
2.427405314e-16
2.726650895e-16
6.235424244e-17
7.838396895e-17
1.049882712e-16
1.444617213e-16
1.986936665e-16
2.67454939e-16
3.458983078e-16
4.21754079e-16
4.737221574e-16
1.081221602e-16
1.359826926e-16
1.822278504e-16
2.508443063e-16
3.451060204e-16
4.645972417e-16
6.008780816e-16
7.326267528e-16
8.228636914e-16
1.875268213e-16
2.359334846e-16
3.162906804e-16
4.355246121e-16
5.993125845e-16
8.069102716e-16
1.043631511e-15
1.272429531e-15
1.429105006e-15
3.253143569e-16
4.094020553e-16
5.490019619e-16
7.56145029e-16
1.040677958e-15
1.401276215e-15
1.812394633e-15
2.209677482e-15
2.481686847e-15
5.644516309e-16
7.105036905e-16
9.529872819e-16
1.312795082e-15
1.807003852e-15
2.433263155e-15
3.147151018e-15
3.836895814e-15
4.309097858e-15
9.795501461e-16
1.233211216e-15
1.654363149e-15
2.279277126e-15
3.137562025e-15
4.225051266e-15
5.464511589e-15
6.661876702e-15
7.481504544e-15
1.700183852e-15
2.14072429e-15
2.872146043e-15
3.957394551e-15
5.447785369e-15
7.335930538e-15
9.487583955e-15
1.156582962e-14
1.298831377e-14
2.951383666e-15
3.716468345e-15
4.986672139e-15
6.871177487e-15
9.458852205e-15
1.273654307e-14
1.647091223e-14
2.007716985e-14
2.254519164e-14
5.123955466e-15
6.452647527e-15
8.658374247e-15
1.193039584e-14
1.642244208e-14
2.211091389e-14
2.859015463e-14
3.484538772e-14
3.912531188e-14
8.896548467e-15
1.120396054e-14
1.503390734e-14
2.0714155e-14
2.851019648e-14
3.837926374e-14
4.9615911e-14
6.045985742e-14
6.787695884e-14
1.544735112e-14
1.945412821e-14
2.610339115e-14
3.596205713e-14
4.948756068e-14
6.660137021e-14
8.607615263e-14
1.048599692e-13
1.177015188e-13
2.68208265e-14
3.377750011e-14
4.531875932e-14
6.242348845e-14
8.587730522e-14
1.155336266e-13
1.492558038e-13
1.817561754e-13
2.039592595e-13
4.656198846e-14
5.863709378e-14
7.866188766e-14
1.083226695e-13
1.489627908e-13
2.003035731e-13
2.586225161e-13
3.147674917e-13
3.530850345e-13
8.081094771e-14
1.017608722e-13
1.364844782e-13
1.878776712e-13
2.582240055e-13
3.469835832e-13
4.476655579e-13
5.444508025e-13
6.104119726e-13
1.401863357e-13
1.765077311e-13
2.366658829e-13
3.256134771e-13
4.47202146e-13
6.003674467e-13
7.737822491e-13
9.40155555e-13
1.053328462e-12
2.430146246e-13
3.059186866e-13
4.10008109e-13
5.637075969e-13
7.734475324e-13
1.037098898e-12
1.334882758e-12
1.619837937e-12
1.813194e-12
4.20843287e-13
5.296198269e-13
7.094012196e-13
9.744190024e-13
1.335266999e-12
1.787644713e-12
2.297009418e-12
2.782828984e-12
3.111438511e-12
7.278051866e-13
9.155163785e-13
1.225289569e-12
1.680954388e-12
2.299665842e-12
3.07269782e-12
3.939759702e-12
4.763366748e-12
5.318269959e-12
1.256431272e-12
1.579469768e-12
2.111565597e-12
2.892180871e-12
3.948482669e-12
5.262783771e-12
6.730035448e-12
8.116860976e-12
9.046809444e-12
2.164174325e-12
2.718152628e-12
3.628532216e-12
4.959774087e-12
6.753665836e-12
8.974587083e-12
1.144009741e-11
1.375685374e-11
1.530176113e-11
3.717568135e-12
4.663433587e-12
6.21346678e-12
8.471212392e-12
1.149850196e-11
1.52244074e-11
1.933369641e-11
2.316909689e-11
2.571054379e-11
6.365142273e-12
7.971541102e-12
1.059523412e-11
1.439918948e-11
1.947011505e-11
2.566895683e-11
3.245495883e-11
3.874089455e-11
4.287699512e-11
1.08567284e-11
1.356772584e-11
1.797821566e-11
2.433844009e-11
3.276065549e-11
4.297739185e-11
5.406974421e-11
6.425993806e-11
7.091444355e-11
1.843674603e-11
2.297833434e-11
3.033372682e-11
4.087585823e-11
5.473151847e-11
7.139732185e-11
8.93297532e-11
1.056587984e-10
1.162377124e-10
3.11539805e-11
3.86986702e-11
5.08556389e-11
6.816070317e-11
9.071830145e-11
1.176033141e-10
1.462576974e-10
1.721111683e-10
1.887247184e-10
5.235230831e-11
6.47687831e-11
8.466313221e-11
1.127707129e-10
1.490862562e-10
1.919515992e-10
2.371901082e-10
2.776268546e-10
3.034008664e-10
8.743841634e-11
1.076630026e-10
1.398700273e-10
1.850098725e-10
2.427898053e-10
3.103127484e-10
3.808667065e-10
4.43348524e-10
4.82857674e-10
1.450671001e-10
1.776459514e-10
2.291904505e-10
3.008282245e-10
3.916495624e-10
4.967198424e-10
6.054268928e-10
7.008298034e-10
7.606966422e-10
2.389462979e-10
2.908121875e-10
3.723193099e-10
4.846286446e-10
6.256420587e-10
7.871595172e-10
9.526717721e-10
1.09667881e-09
1.186397809e-09
3.90547764e-10
4.721140779e-10
5.994193716e-10
7.733269283e-10
9.896088216e-10
1.234955734e-09
1.484083242e-09
1.699093044e-09
1.832159497e-09
6.331219135e-10
7.598003875e-10
9.561729392e-10
1.222169099e-09
1.54994271e-09
1.918362107e-09
2.289271751e-09
2.607003206e-09
2.802454357e-09
1.017566076e-09
1.211846436e-09
1.51102634e-09
1.912995635e-09
2.404013478e-09
2.951202114e-09
3.497766448e-09
3.962800929e-09
4.247313539e-09
1.620897119e-09
1.915169438e-09
2.365484439e-09
2.965891911e-09
3.693367764e-09
4.497694863e-09
5.295384244e-09
5.969969464e-09
6.38070593e-09
2.55835072e-09
2.998709444e-09
3.668620493e-09
4.555497718e-09
5.622100771e-09
6.792996601e-09
7.946837009e-09
8.917385016e-09
9.505847719e-09
4.000496513e-09
4.651845765e-09
5.637382832e-09
6.933693007e-09
8.482270245e-09
1.017149302e-08
1.182677633e-08
1.32126248e-08
1.404986985e-08
6.197255562e-09
7.150157569e-09
8.584854303e-09
1.046097551e-08
1.268883696e-08
1.510550163e-08
1.746212378e-08
1.942729904e-08
2.061095807e-08
9.51083314e-09
1.089053598e-08
1.295864515e-08
1.564912038e-08
1.882730061e-08
2.225811456e-08
2.558967963e-08
2.835841802e-08
3.002183508e-08
1.446130593e-08
1.643984814e-08
1.939404019e-08
2.321986052e-08
2.771852267e-08
3.255426915e-08
3.723299294e-08
4.110979105e-08
4.343373898e-08
2.178938033e-08
2.460162446e-08
2.878632443e-08
3.41842248e-08
4.05059369e-08
4.727592202e-08
5.380461136e-08
5.919960201e-08
6.242696733e-08
3.254161059e-08
3.650635808e-08
4.238839095e-08
4.994911841e-08
5.877196392e-08
6.818818179e-08
7.724095991e-08
8.470254353e-08
8.915775097e-08
4.818508985e-08
5.373258289e-08
6.194088729e-08
7.245841834e-08
8.469099146e-08
9.770440057e-08
1.101795789e-07
1.204383329e-07
1.265541181e-07
7.075888045e-08
7.846593035e-08
8.984200403e-08
1.043757896e-07
1.212271058e-07
1.39100951e-07
1.561922199e-07
1.702203711e-07
1.785732443e-07
1.03067637e-07
1.137015504e-07
1.293627255e-07
1.493169141e-07
1.72388172e-07
1.967970361e-07
2.20089139e-07
2.391782315e-07
2.50533868e-07
1.489196017e-07
1.634936005e-07
1.849147e-07
2.121436209e-07
2.435526628e-07
2.76714743e-07
3.083074698e-07
3.34167333e-07
3.49537748e-07
2.134142973e-07
2.332613069e-07
2.623850502e-07
2.993356404e-07
3.418807938e-07
3.867273583e-07
4.29392523e-07
4.642754242e-07
4.849896259e-07
3.032954103e-07
3.301665243e-07
3.695481786e-07
4.194416536e-07
4.768069664e-07
5.371936038e-07
5.945699184e-07
6.414226128e-07
6.69209793e-07
4.273692117e-07
4.635546023e-07
5.165373083e-07
5.835884283e-07
6.605916087e-07
7.415539347e-07
8.183809537e-07
8.81021157e-07
9.18100641e-07
5.969495833e-07
6.454162505e-07
7.163312128e-07
8.059991056e-07
9.088770583e-07
1.016923367e-06
1.119302261e-06
1.202604398e-06
1.251767488e-06
8.262654376e-07
8.90801228e-07
9.851777736e-07
1.10443037e-06
1.241135961e-06
1.384543389e-06
1.520187737e-06
1.630240766e-06
1.694895124e-06
1.132736193e-06
1.218080229e-06
1.342832623e-06
1.500373649e-06
1.680819153e-06
1.869858511e-06
2.048255976e-06
2.192421301e-06
2.276548742e-06
1.536987886e-06
1.648903918e-06
1.812426843e-06
2.018793805e-06
2.254925435e-06
2.501881633e-06
2.734231216e-06
2.920986217e-06
3.028945571e-06
2.062431916e-06
2.207660632e-06
2.419733815e-06
2.687130815e-06
2.992666032e-06
3.311467185e-06
3.610212733e-06
3.848644171e-06
3.984755772e-06
2.734214812e-06
2.920224351e-06
3.191603653e-06
3.533308082e-06
3.922948155e-06
4.328214594e-06
4.706026122e-06
5.004912058e-06
5.172856495e-06
3.577376445e-06
3.81183296e-06
4.153415914e-06
4.582626185e-06
5.070615646e-06
5.576049149e-06
6.044287608e-06
6.410999375e-06
6.613494515e-06
4.614161354e-06
4.904079109e-06
5.325601138e-06
5.853703453e-06
6.451773351e-06
7.068030994e-06
7.635020667e-06
8.074891707e-06
8.314015091e-06
5.860636262e-06
6.211252838e-06
6.719614489e-06
7.354058579e-06
8.069067826e-06
8.801567892e-06
9.471172264e-06
9.985875714e-06
1.025965597e-05
7.323077676e-06
7.736635734e-06
8.334181289e-06
9.076463862e-06
9.908497914e-06
1.075620746e-05
1.152530467e-05
1.210850106e-05
1.241092043e-05
8.994973384e-06
9.469749509e-06
1.015307556e-05
1.099760182e-05
1.193966366e-05
1.289181301e-05
1.374647625e-05
1.438569459e-05
1.470952623e-05
1.085592159e-05
1.138596027e-05
1.214628831e-05
1.308073844e-05
1.411378801e-05
1.514747454e-05
1.606482188e-05
1.674166451e-05
1.707718674e-05
1.287434496e-05
1.344971164e-05
1.42698713e-05
1.52699288e-05
1.636527387e-05
1.74487154e-05
1.839804999e-05
1.908967168e-05
1.942589534e-05
1.500348285e-05
1.560723888e-05
1.6462259e-05
1.749616464e-05
1.861559363e-05
1.971047991e-05
2.065820897e-05
2.133975924e-05
2.166532462e-05
1.718038213e-05
1.779183882e-05
1.865166796e-05
1.96816214e-05
2.078417257e-05
2.18495774e-05
2.276036815e-05
2.340664124e-05
2.371037756e-05
1.933307252e-05
1.992966131e-05
2.076259474e-05
2.174903749e-05
2.279285497e-05
2.378808635e-05
2.462887894e-05
2.521652566e-05
2.548815497e-05
2.138525052e-05
2.194411693e-05
2.271768677e-05
2.362499606e-05
2.457244819e-05
2.546316057e-05
2.62043793e-05
2.67138749e-05
2.694497141e-05
2.326228028e-05
2.376322137e-05
2.445040228e-05
2.524669436e-05
2.606748663e-05
2.682798718e-05
2.745008796e-05
2.786998596e-05
2.805643961e-05
2.489692125e-05
2.532425782e-05
2.590503911e-05
2.656998162e-05
2.724637894e-05
2.786515488e-05
2.836643028e-05
2.870377171e-05
2.885471332e-05
2.62359598e-05
2.658069042e-05
2.704547303e-05
2.757331721e-05
2.81087009e-05
2.860478678e-05
2.902697622e-05
2.934859607e-05
2.953276886e-05
2.724817216e-05
2.751084025e-05
2.786567312e-05
2.827479026e-05
2.871094714e-05
2.916838607e-05
2.96709949e-05
3.027330125e-05
3.106253872e-05
2.793776347e-05
2.81339156e-05
2.841132184e-05
2.876388301e-05
2.92180545e-05
2.985694346e-05
3.091081177e-05
3.22369168e-05
3.327249531e-05
2.837960931e-05
2.855373502e-05
2.88432524e-05
2.929624271e-05
3.005486648e-05
3.14203984e-05
3.301342881e-05
3.454834136e-05
3.561960527e-05
2.883560045e-05
2.909485811e-05
2.964883842e-05
3.069544116e-05
3.205865448e-05
3.366924824e-05
3.533374802e-05
3.68201278e-05
3.781120863e-05
3.027240169e-05
3.085934554e-05
3.176826731e-05
3.299317376e-05
3.443978352e-05
3.599928167e-05
3.752384168e-05
3.883228355e-05
3.968050351e-05
3.270658574e-05
3.334797111e-05
3.428125593e-05
3.544882191e-05
3.676237554e-05
3.811742119e-05
3.939449654e-05
4.045720823e-05
4.112922442e-05
3.532504559e-05
3.590516746e-05
3.672535452e-05
3.771566862e-05
3.879199436e-05
3.986351179e-05
4.08381185e-05
4.162186901e-05
4.210274126e-05
3.774773569e-05
3.821312824e-05
3.885605705e-05
3.960855387e-05
4.039631947e-05
4.114672937e-05
4.179589336e-05
4.229052036e-05
4.257856235e-05
3.977390897e-05
4.009927498e-05
4.053509694e-05
4.102243052e-05
4.15014358e-05
4.192042823e-05
4.224387774e-05
4.245646692e-05
4.256020709e-05
4.128998217e-05
4.14658997e-05
4.168520178e-05
4.190202794e-05
4.207392682e-05
4.217137507e-05
4.218613038e-05
4.213700639e-05
4.207275867e-05
4.223645593e-05
4.226442913e-05
4.227234525e-05
4.222966115e-05
4.211266246e-05
4.191379764e-05
4.16498681e-05
4.136902961e-05
4.115859014e-05
4.259519815e-05
4.248493792e-05
4.229757875e-05
4.201870664e-05
4.164331788e-05
4.118444394e-05
4.068077038e-05
4.020444657e-05
3.987286428e-05
4.238250245e-05
4.21497438e-05
4.179114869e-05
4.13080668e-05
4.071304152e-05
4.003736205e-05
3.933789305e-05
3.870528611e-05
3.827881249e-05
4.16427115e-05
4.130710128e-05
4.080626682e-05
4.015603371e-05
3.93844909e-05
3.853827595e-05
3.768846925e-05
3.693893014e-05
3.644328272e-05
4.044109959e-05
4.002424039e-05
3.941239875e-05
3.863393302e-05
3.772993103e-05
3.675917036e-05
3.580304228e-05
3.497378498e-05
3.443280169e-05
3.885647141e-05
3.838017438e-05
3.768840603e-05
3.681973287e-05
3.582543875e-05
3.477320759e-05
3.375111398e-05
3.28755789e-05
3.231030241e-05
3.697382681e-05
3.645871924e-05
3.571608907e-05
3.479225272e-05
3.374587716e-05
3.265050432e-05
3.159768962e-05
3.070455258e-05
3.013272486e-05
3.487794338e-05
3.434248696e-05
3.357476454e-05
3.262645091e-05
3.156096105e-05
3.045497564e-05
2.940083274e-05
2.851358629e-05
2.794949379e-05
3.264833489e-05
3.210824827e-05
3.133718901e-05
3.03900093e-05
2.933253942e-05
2.824229e-05
2.721021027e-05
2.634720177e-05
2.580179049e-05
3.035576725e-05
2.982379961e-05
2.906690372e-05
2.814122606e-05
2.711304922e-05
2.605884443e-05
2.506650722e-05
2.424130311e-05
2.372247818e-05
2.806027213e-05
2.754624906e-05
2.681688406e-05
2.592807182e-05
2.494497376e-05
2.394158253e-05
2.300153378e-05
2.222348457e-05
2.173651496e-05
2.58104352e-05
2.532149152e-05
2.462925942e-05
2.378817531e-05
2.286108284e-05
2.191844315e-05
2.103882408e-05
2.031372417e-05
1.986169234e-05
2.364365993e-05
2.31845837e-05
2.253582718e-05
2.174947613e-05
2.088519731e-05
2.000921365e-05
1.91945456e-05
1.852531229e-05
1.8109558e-05
2.158708542e-05
2.116070553e-05
2.055906405e-05
1.983128133e-05
1.903328098e-05
1.822662387e-05
1.747856649e-05
1.686587777e-05
1.648640698e-05
1.965888125e-05
1.92664572e-05
1.871341848e-05
1.804553787e-05
1.731466986e-05
1.657751639e-05
1.589555555e-05
1.53384174e-05
1.499425925e-05
1.786970363e-05
1.751128684e-05
1.700669259e-05
1.639815095e-05
1.573331135e-05
1.506399497e-05
1.444603661e-05
1.39422648e-05
1.363177022e-05
1.622415041e-05
1.589890086e-05
1.544138658e-05
1.489024443e-05
1.428892756e-05
1.368448433e-05
1.312734691e-05
1.267396099e-05
1.239504329e-05
1.472211282e-05
1.442856468e-05
1.401592643e-05
1.351929881e-05
1.29780532e-05
1.243466476e-05
1.193447389e-05
1.152800867e-05
1.12783311e-05
1.335996806e-05
1.309624463e-05
1.272573444e-05
1.228013559e-05
1.179492568e-05
1.130826736e-05
1.086076228e-05
1.04975065e-05
1.027462378e-05
1.213159017e-05
1.189557242e-05
1.156412885e-05
1.116573962e-05
1.073222423e-05
1.029773041e-05
9.89849488e-06
9.574668469e-06
9.376130058e-06
1.102917908e-05
1.081863388e-05
1.052305671e-05
1.016792596e-05
9.781666372e-06
9.394726673e-06
9.039357448e-06
8.751238661e-06
8.574661182e-06
1.004392109e-05
9.856595859e-06
9.593674477e-06
9.277866053e-06
8.934476429e-06
8.590575917e-06
8.27480118e-06
8.018814004e-06
7.861929642e-06
9.166500844e-06
9.000191066e-06
8.766795506e-06
8.48649167e-06
8.181743742e-06
7.876558895e-06
7.59631755e-06
7.369088454e-06
7.229774971e-06
8.387487185e-06
8.24008257e-06
8.033225316e-06
7.784796145e-06
7.514688269e-06
7.244148851e-06
6.995639935e-06
6.794031439e-06
6.670328529e-06
7.697614972e-06
7.567129169e-06
7.384004485e-06
7.164051225e-06
6.924850406e-06
6.68517559e-06
6.464885318e-06
6.286012449e-06
6.176128178e-06
7.087983051e-06
6.972570964e-06
6.810577312e-06
6.615956258e-06
6.404219996e-06
6.191935457e-06
5.996647915e-06
5.83788233e-06
5.740192573e-06
6.550186041e-06
6.448151986e-06
6.304902007e-06
6.132734066e-06
5.945317522e-06
5.757258775e-06
5.584054942e-06
5.443020422e-06
5.356063527e-06
6.076394884e-06
5.98619413e-06
5.859515659e-06
5.707185691e-06
5.541238405e-06
5.374544483e-06
5.220793205e-06
5.095355318e-06
5.017823668e-06
5.659398508e-06
5.579634168e-06
5.467564983e-06
5.332714025e-06
5.185669471e-06
5.037770081e-06
4.901113696e-06
4.789365747e-06
4.720095455e-06
5.29261659e-06
5.222033362e-06
5.12281173e-06
5.003324509e-06
4.872884949e-06
4.741483416e-06
4.619820091e-06
4.52006692e-06
4.458026557e-06
4.970091519e-06
4.907567429e-06
4.819619957e-06
4.713609393e-06
4.597727837e-06
4.480781617e-06
4.372245919e-06
4.282986672e-06
4.227265663e-06
4.686465585e-06
4.63100251e-06
4.55293046e-06
4.458720592e-06
4.355581326e-06
4.251281399e-06
4.154224154e-06
4.074134829e-06
4.023931961e-06
4.436948456e-06
4.387662131e-06
4.318227093e-06
4.234335352e-06
4.14233394e-06
4.04908393e-06
3.962052163e-06
3.889968512e-06
3.844580856e-06
4.21727886e-06
4.173388751e-06
4.111498192e-06
4.03661764e-06
3.954341107e-06
3.870736819e-06
3.792454305e-06
3.727355452e-06
3.686167894e-06
4.023682983e-06
3.984502342e-06
3.929195469e-06
3.862177557e-06
3.788385254e-06
3.713195069e-06
3.642543856e-06
3.583536877e-06
3.546012366e-06
3.852831752e-06
3.817758079e-06
3.768192341e-06
3.708030489e-06
3.64163597e-06
3.573782369e-06
3.509785484e-06
3.456091098e-06
3.421761671e-06
3.701798548e-06
3.67030461e-06
3.625743001e-06
3.571557199e-06
3.511611292e-06
3.450153691e-06
3.391959163e-06
3.342898585e-06
3.311357188e-06
3.568018395e-06
3.539643867e-06
3.499443135e-06
3.450465695e-06
3.39614088e-06
3.34025985e-06
3.287126087e-06
3.242109069e-06
3.21300216e-06
3.449249312e-06
3.423593094e-06
3.387192915e-06
3.342755402e-06
3.293331533e-06
3.242314423e-06
3.193596947e-06
3.152110979e-06
3.125131889e-06
3.343536271e-06
3.320249476e-06
3.287162598e-06
3.246683963e-06
3.201535327e-06
3.154763272e-06
3.109902774e-06
3.071503393e-06
3.046386391e-06
3.249177989e-06
3.227957606e-06
3.197760946e-06
3.160736815e-06
3.119320482e-06
3.076256738e-06
3.034768377e-06
2.999070528e-06
2.975585558e-06
3.164696638e-06
3.145279839e-06
3.117606487e-06
3.083599572e-06
3.045444971e-06
3.0056245e-06
2.967088384e-06
2.933758748e-06
2.91170677e-06
3.08881045e-06
3.070969505e-06
3.045501597e-06
3.014133137e-06
2.978832784e-06
2.941853011e-06
2.905905758e-06
2.874655972e-06
2.853864859e-06
3.020409132e-06
3.003946887e-06
2.980409272e-06
2.951351452e-06
2.918552738e-06
2.884065369e-06
2.850392663e-06
2.820973361e-06
2.801294296e-06
2.958531922e-06
2.943277805e-06
2.921432446e-06
2.894401703e-06
2.86379965e-06
2.831503477e-06
2.799833526e-06
2.7720291e-06
2.753333431e-06
2.902348124e-06
2.888154624e-06
2.867795675e-06
2.842546804e-06
2.813877704e-06
2.783512291e-06
2.753610097e-06
2.72723413e-06
2.709410618e-06
2.851139925e-06
2.8378795e-06
2.818828985e-06
2.795149979e-06
2.768185826e-06
2.739525983e-06
2.711188341e-06
2.686079614e-06
2.669032045e-06
2.804287277e-06
2.791849656e-06
2.77395369e-06
2.751661233e-06
2.726204858e-06
2.699055833e-06
2.672106971e-06
2.648126003e-06
2.631771111e-06
2.761254673e-06
2.749544493e-06
2.732669994e-06
2.711605531e-06
2.687486376e-06
2.661679664e-06
2.635967461e-06
2.612993499e-06
2.59725917e-06
2.721579584e-06
2.710514347e-06
2.694546169e-06
2.674572499e-06
2.651642938e-06
2.627032654e-06
2.602425362e-06
2.580353779e-06
2.565177498e-06
2.684862418e-06
2.674370709e-06
2.659209163e-06
2.640207473e-06
2.618339638e-06
2.594799371e-06
2.57118278e-06
2.549922825e-06
2.535250332e-06
2.650757786e-06
2.640777735e-06
2.626336441e-06
2.608203754e-06
2.587286778e-06
2.564706879e-06
2.541981867e-06
2.521454728e-06
2.507238864e-06
2.618966955e-06
2.609444908e-06
2.595648938e-06
2.578295903e-06
2.558233548e-06
2.536518786e-06
2.51459921e-06
2.494736342e-06
2.480936054e-06
2.58923132e-06
2.580120688e-06
2.566904967e-06
2.550253954e-06
2.530962567e-06
2.510030114e-06
2.488840994e-06
2.46958268e-06
2.456162168e-06
2.561326774e-06
2.55258705e-06
2.539894979e-06
2.523878439e-06
2.505285191e-06
2.485062885e-06
2.464538842e-06
2.44583296e-06
2.43276094e-06
2.535058868e-06
2.526654773e-06
2.514437041e-06
2.4989961e-06
2.481037472e-06
2.461462329e-06
2.441546244e-06
2.423347208e-06
2.41059628e-06
2.510258639e-06
2.502159392e-06
2.490372964e-06
2.475456208e-06
2.458076693e-06
2.439093626e-06
2.419735491e-06
2.402003336e-06
2.389549447e-06
2.486779035e-06
2.47895773e-06
2.467564967e-06
2.453127405e-06
2.436278396e-06
2.417839115e-06
2.398995043e-06
2.38169465e-06
2.369516629e-06
2.464491847e-06
2.45692491e-06
2.445892824e-06
2.431894998e-06
2.415533827e-06
2.397595904e-06
2.379227282e-06
2.362327708e-06
2.350406868e-06
2.443285075e-06
2.435951806e-06
2.425251415e-06
2.411658636e-06
2.395747758e-06
2.378273813e-06
2.36034658e-06
2.343820484e-06
2.332140281e-06
2.423060675e-06
2.415942852e-06
2.405548629e-06
2.39233032e-06
2.37683661e-06
2.359793625e-06
2.342277648e-06
2.326100799e-06
2.314646543e-06
2.403732627e-06
2.396814167e-06
2.38670357e-06
2.373832707e-06
2.358726857e-06
2.342085582e-06
2.324954125e-06
2.309104982e-06
2.297863584e-06
2.385225281e-06
2.378491949e-06
2.368645015e-06
2.356097647e-06
2.341353651e-06
2.325088094e-06
2.308317359e-06
2.292776713e-06
2.281736473e-06
2.367471941e-06
2.360911103e-06
2.351310101e-06
2.339064935e-06
2.324659649e-06
2.308746643e-06
2.292315381e-06
2.27706604e-06
2.266216462e-06
2.350413652e-06
2.344014061e-06
2.334643195e-06
2.322681245e-06
2.308594004e-06
2.293012834e-06
2.276902008e-06
2.261928537e-06
2.251260171e-06
2.333998162e-06
2.327749773e-06
2.31859493e-06
2.306899211e-06
2.293111507e-06
2.277843588e-06
2.262036085e-06
2.247324574e-06
2.236828881e-06
2.318179029e-06
2.312072844e-06
2.30312137e-06
2.291676642e-06
2.278171844e-06
2.263200446e-06
2.24768083e-06
2.233218702e-06
2.222887939e-06
2.302914858e-06
2.296942792e-06
2.288183308e-06
2.276975848e-06
2.263738961e-06
2.249048974e-06
2.233803273e-06
2.219579115e-06
2.209406231e-06
2.288168646e-06
2.282323409e-06
2.273745646e-06
2.262763061e-06
2.249780519e-06
2.235358251e-06
2.220373773e-06
2.206377191e-06
2.196355748e-06
2.273907214e-06
2.268182213e-06
2.259776877e-06
2.249007934e-06
2.236267427e-06
2.222100426e-06
2.207365606e-06
2.1935871e-06
2.183711193e-06
2.260100728e-06
2.254489978e-06
2.24624863e-06
2.235683118e-06
2.223173435e-06
2.209250342e-06
2.194754604e-06
2.181185463e-06
2.171449661e-06
2.246722273e-06
2.241220329e-06
2.233135279e-06
2.222763883e-06
2.210474785e-06
2.196785206e-06
2.182518848e-06
2.16915106e-06
2.15955035e-06
2.233747494e-06
2.228349384e-06
2.220413607e-06
2.210227807e-06
2.198149914e-06
2.184684306e-06
2.170638404e-06
2.157464576e-06
2.14799432e-06
2.221154282e-06
2.215855453e-06
2.208062511e-06
2.198054491e-06
2.186179185e-06
2.172928768e-06
2.15909509e-06
2.146108387e-06
2.136764281e-06
2.208922494e-06
2.203718767e-06
2.196062744e-06
2.186225317e-06
2.174544663e-06
2.161501338e-06
2.147872277e-06
2.135066369e-06
2.125844414e-06
2.197033711e-06
2.191921239e-06
2.18439669e-06
2.174723233e-06
2.16322991e-06
2.150386196e-06
2.136954715e-06
2.124323731e-06
2.115220213e-06
2.185471014e-06
2.180446251e-06
2.173048153e-06
2.163532553e-06
2.152219802e-06
2.139568785e-06
2.126328373e-06
2.113866877e-06
2.10487835e-06
2.17421878e-06
2.169278451e-06
2.162002167e-06
2.152638779e-06
2.141500355e-06
2.129035649e-06
2.11598029e-06
2.103683261e-06
2.094806541e-06
2.16326248e-06
2.158403561e-06
2.151244804e-06
2.142028414e-06
2.131058556e-06
2.118774275e-06
2.105898436e-06
2.09376126e-06
2.08499343e-06
2.15258848e-06
2.147808172e-06
2.140762984e-06
2.131688783e-06
2.120882186e-06
2.108772926e-06
2.096071548e-06
2.084090031e-06
2.075428451e-06
2.142183815e-06
2.13747953e-06
2.130544254e-06
2.121607813e-06
2.110959612e-06
2.099020445e-06
2.086488947e-06
2.074659328e-06
2.066101662e-06
2.132035942e-06
2.127405284e-06
2.120576546e-06
2.111773793e-06
2.101279544e-06
2.089506012e-06
2.077140305e-06
2.065459287e-06
2.057003531e-06
2.122132443e-06
2.117573189e-06
2.110847867e-06
2.102175061e-06
2.091830724e-06
2.080218831e-06
2.068015329e-06
2.056480106e-06
2.048124624e-06
2.112460657e-06
2.107970726e-06
2.101345919e-06
2.092799615e-06
2.082601516e-06
2.07114771e-06
2.05910333e-06
2.047711611e-06
2.039455169e-06
2.103007224e-06
2.098584644e-06
2.092057616e-06
2.0836346e-06
2.073579381e-06
2.062280506e-06
2.050392641e-06
2.039142648e-06
2.030984434e-06
2.09375751e-06
2.08940036e-06
2.082968465e-06
2.074665667e-06
2.064750177e-06
2.053603381e-06
2.041869827e-06
2.030760256e-06
2.022699867e-06
2.084694901e-06
2.080401228e-06
2.074061791e-06
2.065876135e-06
2.056097276e-06
2.045099843e-06
2.033518645e-06
2.022548546e-06
2.014585931e-06
2.075799921e-06
2.071567625e-06
2.065317771e-06
2.05724596e-06
2.047600432e-06
2.036749515e-06
2.025318707e-06
2.014487261e-06
2.006622581e-06
2.06704917e-06
2.062875843e-06
2.056712258e-06
2.048750464e-06
2.039234398e-06
2.028526611e-06
2.017243801e-06
2.006549945e-06
1.998783321e-06
2.05841406e-06
2.054296764e-06
2.04821537e-06
2.040358809e-06
2.030967253e-06
2.020398091e-06
2.009259846e-06
1.99870171e-06
1.991032825e-06
2.049859343e-06
2.045794326e-06
2.039789848e-06
2.032032214e-06
2.022758439e-06
2.01232148e-06
2.001322482e-06
1.990896575e-06
1.983324098e-06
2.041341432e-06
2.037323766e-06
2.031389186e-06
2.023721918e-06
2.014556522e-06
2.004242387e-06
1.993374299e-06
1.983074423e-06
1.975595206e-06
2.032806543e-06
2.028829672e-06
2.022955548e-06
2.015366928e-06
2.006296709e-06
1.996091742e-06
1.985341772e-06
1.975157611e-06
1.96776565e-06
2.024188675e-06
2.02024388e-06
2.014417532e-06
2.006891592e-06
1.997898182e-06
1.987782846e-06
1.977131972e-06
1.96704735e-06
1.959732479e-06
2.015407497e-06
2.011483269e-06
2.005687826e-06
1.998203061e-06
1.989261327e-06
1.979208304e-06
1.968629181e-06
1.958619982e-06
1.951366304e-06
2.006366189e-06
2.002447518e-06
1.996660833e-06
1.989188749e-06
1.980264962e-06
1.970236992e-06
1.959691545e-06
1.94972332e-06
1.942507405e-06
1.996949313e-06
1.993016905e-06
1.987210362e-06
1.979713868e-06
1.970763686e-06
1.960711173e-06
1.95014794e-06
1.940173266e-06
1.932962139e-06
1.987020805e-06
1.983050237e-06
1.977187469e-06
1.969619154e-06
1.960585469e-06
1.950443925e-06
1.939795227e-06
1.929750889e-06
1.922499904e-06
1.976422154e-06
1.972383001e-06
1.966418555e-06
1.958718896e-06
1.949529593e-06
1.939217015e-06
1.928396067e-06
1.918200204e-06
1.910850883e-06
1.964970835e-06
1.960825779e-06
1.954703777e-06
1.946799348e-06
1.937365091e-06
1.926779369e-06
1.915677458e-06
1.905226817e-06
1.897704815e-06
1.952459054e-06
1.948163019e-06
1.941815844e-06
1.933617596e-06
1.923829723e-06
1.912846237e-06
1.901330159e-06
1.890497656e-06
1.88271099e-06
1.938652834e-06
1.934152165e-06
1.927499254e-06
1.918900934e-06
1.908629587e-06
1.897099136e-06
1.885009096e-06
1.873641922e-06
1.865479672e-06
1.92329145e-06
1.918523188e-06
1.911469965e-06
1.902346792e-06
1.891439416e-06
1.879186682e-06
1.86633489e-06
1.85425343e-06
1.845585141e-06
1.90608722e-06
1.900978499e-06
1.893415547e-06
1.883623243e-06
1.871903619e-06
1.858726389e-06
1.844896645e-06
1.831894526e-06
1.822570573e-06
1.886725658e-06
1.881193297e-06
1.872995842e-06
1.86237017e-06
1.849638207e-06
1.835307631e-06
1.82025624e-06
1.806101876e-06
1.795955078e-06
1.864866062e-06
1.85881642e-06
1.849844281e-06
1.838201288e-06
1.824233825e-06
1.808496063e-06
1.791954496e-06
1.776394558e-06
1.76524337e-06
1.840142714e-06
1.833471926e-06
1.823570104e-06
1.810707343e-06
1.795260344e-06
1.777840056e-06
1.759519852e-06
1.74228514e-06
1.729938764e-06
1.81216708e-06
1.804761847e-06
1.793762029e-06
1.779461129e-06
1.762273733e-06
1.742879955e-06
1.722480454e-06
1.703294698e-06
1.689560455e-06
1.780531641e-06
1.772270813e-06
1.759994154e-06
1.744025234e-06