/*--------------------------------*- C++ -*----------------------------------*\
| =========                 |                                                 |
| \\      /  F ield         | OpenFOAM: The Open Source CFD Toolbox           |
|  \\    /   O peration     | Version:  2212                                  |
|   \\  /    A nd           | Website:  www.openfoam.com                      |
|    \\/     M anipulation  |                                                 |
\*---------------------------------------------------------------------------*/
FoamFile
{
    version     2.0;
    format      ascii;
    arch        "LSB;label=32;scalar=64";
    class       volScalarField;
    location    "20.00000000";
    object      C7H7;
}
// * * * * * * * * * * * * * * * * * * * * * * * * * * * * * * * * * * * * * //

dimensions      [0 0 0 0 0 0 0];

internalField   nonuniform List<scalar> 
3000
(
7.771125915e-29
8.77884237e-29
1.030192265e-28
1.233521233e-28
1.485947654e-28
1.780654933e-28
2.099822717e-28
2.404500694e-28
2.619983333e-28
2.934553266e-28
3.329706286e-28
3.926861922e-28
4.726087572e-28
5.727235399e-28
6.924800433e-28
8.297092361e-28
9.773339257e-28
1.107744773e-27
6.642079781e-28
7.600092962e-28
9.062216843e-28
1.105262354e-27
1.360955307e-27
1.677134992e-27
2.05247828e-27
2.465671868e-27
2.818468643e-27
1.2838783e-27
1.485505248e-27
1.797931954e-27
2.23261791e-27
2.805858797e-27
3.532986268e-27
4.410464145e-27
5.368068301e-27
6.141856832e-27
2.323145105e-27
2.723153274e-27
3.353205949e-27
4.247736063e-27
5.451543556e-27
7.00107947e-27
8.87253876e-27
1.086679413e-26
1.240179665e-26
4.08617767e-27
4.854915817e-27
6.084057673e-27
7.858067588e-27
1.027869599e-26
1.341427976e-26
1.717715936e-26
2.109460516e-26
2.40039143e-26
7.119691075e-27
8.569796683e-27
1.091702432e-26
1.434594006e-26
1.9064061e-26
2.518263909e-26
3.246254561e-26
3.990051179e-26
4.529209943e-26
1.240190163e-26
1.510314434e-26
1.951700002e-26
2.601945568e-26
3.50089322e-26
4.665239588e-26
6.039489179e-26
7.424096007e-26
8.411551523e-26
2.168805752e-26
2.667598964e-26
3.488285567e-26
4.704127338e-26
6.389024292e-26
8.566791705e-26
1.11201797e-25
1.366738112e-25
1.546463754e-25
3.812852221e-26
4.727999338e-26
6.241177241e-26
8.491182976e-26
1.161261817e-25
1.563850724e-25
2.033479153e-25
2.498724813e-25
2.82466114e-25
6.738614755e-26
8.40987221e-26
1.118283187e-25
1.531580094e-25
2.10517153e-25
2.843570774e-25
3.701679614e-25
4.547719235e-25
5.137657115e-25
1.196497718e-25
1.500697224e-25
2.006644545e-25
2.761873796e-25
3.810042585e-25
5.157253267e-25
6.718500108e-25
8.252715227e-25
9.319424091e-25
2.132664934e-25
2.685105652e-25
3.605480088e-25
4.98064306e-25
6.888874874e-25
9.338168478e-25
1.217012589e-24
1.494613953e-24
1.687534853e-24
3.81279737e-25
4.814491535e-25
6.485374096e-25
8.983557266e-25
1.244937037e-24
1.689204041e-24
2.201516647e-24
2.702019118e-24
3.052250298e-24
6.83174655e-25
8.645895104e-25
1.167496921e-24
1.620670014e-24
2.249387103e-24
3.054463754e-24
3.979499907e-24
4.874655755e-24
5.518114555e-24
1.225948076e-24
1.554122348e-24
2.102514454e-24
2.923526354e-24
4.063405781e-24
5.525577084e-24
7.215685655e-24
8.876051747e-24
1.000136857e-23
2.201954491e-24
2.794808767e-24
3.785939222e-24
5.270113862e-24
7.330350515e-24
9.970741483e-24
1.301488752e-23
1.598668954e-23
1.803237328e-23
3.957162279e-24
5.02694647e-24
6.81584469e-24
9.494742834e-24
1.321246304e-23
1.797420933e-23
2.345870179e-23
2.880709314e-23
3.249527709e-23
7.114127652e-24
9.043013772e-24
1.226905091e-23
1.710021315e-23
2.380377463e-23
3.238715524e-23
4.226931012e-23
5.190245178e-23
5.854456121e-23
1.279345535e-23
1.626968478e-23
2.208442571e-23
3.079267748e-23
4.287503274e-23
5.834270273e-23
7.614642974e-23
9.349681582e-23
1.054571847e-22
2.301262186e-23
2.927567141e-23
3.975310991e-23
5.544495509e-23
7.721577673e-23
1.05082916e-22
1.371528325e-22
1.683993881e-22
1.899348525e-22
4.14043428e-23
5.268642282e-23
7.156168369e-23
9.983154899e-23
1.390514387e-22
1.892483102e-22
2.47006497e-22
3.032717257e-22
3.420449532e-22
7.451089615e-23
9.483210878e-23
1.288317405e-22
1.797538861e-22
2.503964287e-22
3.408008797e-22
4.448078168e-22
5.461108252e-22
6.159135573e-22
1.341169189e-22
1.707175832e-22
2.319554453e-22
3.236706765e-22
4.508946098e-22
6.136893554e-22
8.009502797e-22
9.833207926e-22
1.108969521e-21
2.414555109e-22
3.073767129e-22
4.176693436e-22
5.828427014e-22
8.119397797e-22
1.105047322e-21
1.442148837e-21
1.7703979e-21
1.996543923e-21
4.34794412e-22
5.535275807e-22
7.521668531e-22
1.049613666e-21
1.462108111e-21
1.989748283e-21
2.596450806e-21
3.187099695e-21
3.593971175e-21
7.83127042e-22
9.969938526e-22
1.354749024e-21
1.890365506e-21
2.632976294e-21
3.582614709e-21
4.67421308e-21
5.73661467e-21
6.468285543e-21
1.410898687e-21
1.796160417e-21
2.440507633e-21
3.404948483e-21
4.741661791e-21
6.450354393e-21
8.413636497e-21
1.032361389e-20
1.163855654e-20
2.542684842e-21
3.236788309e-21
4.397367065e-21
6.133850693e-21
8.539488895e-21
1.161287548e-20
1.514207115e-20
1.857341517e-20
2.093456399e-20
4.583989664e-21
5.834708751e-21
7.925216472e-21
1.105149257e-20
1.53796899e-20
2.090508542e-20
2.724463107e-20
3.3403221e-20
3.763788769e-20
8.267502793e-21
1.052158281e-20
1.428728629e-20
1.991487654e-20
2.769921127e-20
3.762638105e-20
4.900311342e-20
6.004207432e-20
6.762443649e-20
1.491814742e-20
1.898120325e-20
2.576452287e-20
3.58924018e-20
4.988526089e-20
6.770491822e-20
8.809442211e-20
1.078463877e-19
1.213932039e-19
2.693410687e-20
3.425900168e-20
4.647734429e-20
6.469782095e-20
8.98322863e-20
1.217805746e-19
1.582589482e-19
1.935188049e-19
2.176519426e-19
4.866146491e-20
6.18682218e-20
8.387280773e-20
1.166346753e-19
1.617358974e-19
2.189221926e-19
2.840343231e-19
3.467864351e-19
3.896173394e-19
8.798839401e-20
1.118010101e-19
1.514183156e-19
2.102812796e-19
2.910983705e-19
3.932405157e-19
5.09113115e-19
6.203544919e-19
6.960033242e-19
1.592596583e-19
2.021927913e-19
2.734860739e-19
3.791307754e-19
5.236788646e-19
7.056072298e-19
9.110120336e-19
1.107218706e-18
1.240011736e-18
2.886242683e-19
3.660167775e-19
4.942217002e-19
6.835518925e-19
9.414596494e-19
1.264326339e-18
1.62663562e-18
1.97049196e-18
2.201789048e-18
5.238872749e-19
6.633500914e-19
8.936693335e-19
1.232322924e-18
1.691047765e-18
2.261395829e-18
2.896449965e-18
3.494213917e-18
3.893165047e-18
9.527326044e-19
1.203911853e-18
1.617124255e-18
2.221364324e-18
3.034021493e-18
4.03570809e-18
5.140075253e-18
6.168793842e-18
6.848574638e-18
1.736541499e-18
2.188559739e-18
2.928579694e-18
4.003276542e-18
5.435781699e-18
7.182386514e-18
9.084266728e-18
1.083270441e-17
1.19736318e-17
3.173255785e-18
3.985718892e-18
5.307912139e-18
7.211754958e-18
9.721451254e-18
1.274036276e-17
1.597720917e-17
1.890426626e-17
2.07841326e-17
5.814094106e-18
7.271810215e-18
9.626890232e-18
1.298290354e-17
1.734735843e-17
2.251125892e-17
2.794362564e-17
3.275651053e-17
3.578588201e-17
1.067916654e-17
1.328767717e-17
1.746553585e-17
2.334545438e-17
3.086927576e-17
3.959634039e-17
4.85682934e-17
5.631946993e-17
6.107529371e-17
1.965195047e-17
2.430186475e-17
3.167416787e-17
4.190048856e-17
5.474072224e-17
6.929229293e-17
8.385000292e-17
9.604828844e-17
1.032938446e-16
3.619055603e-17
4.443496537e-17
5.735646625e-17
7.49877767e-17
9.665676921e-17
1.205736448e-16
1.437599042e-16
1.624917419e-16
1.731677451e-16
6.658609641e-17
8.109879746e-17
1.035575407e-16
1.336545446e-16
1.697886993e-16
2.085329527e-16
2.447967008e-16
2.728679466e-16
2.880435971e-16
1.221409051e-16
1.474568539e-16
1.86108148e-16
2.369287693e-16
2.964665034e-16
3.583932674e-16
4.142084329e-16
4.553586186e-16
4.761484309e-16
2.22856936e-16
2.665481249e-16
3.323405562e-16
4.172051824e-16
5.142282127e-16
6.121347543e-16
6.970399417e-16
7.563661081e-16
7.838529668e-16
4.035686435e-16
4.780987829e-16
5.888369207e-16
7.290878462e-16
8.858041223e-16
1.039546416e-15
1.16803637e-15
1.252913125e-15
1.288175595e-15
7.240413281e-16
8.497172471e-16
1.034176215e-15
1.264019874e-15
1.515802082e-15
1.756920666e-15
1.952010319e-15
2.074050908e-15
2.118492805e-15
1.28563969e-15
1.495425985e-15
1.800169112e-15
2.174896435e-15
2.579110287e-15
2.959239373e-15
3.259241784e-15
3.438342937e-15
3.494738945e-15
2.259260975e-15
2.606911933e-15
3.108006051e-15
3.718445839e-15
4.370383219e-15
4.976867716e-15
5.448450358e-15
5.721129795e-15
5.796399935e-15
3.933282562e-15
4.507602618e-15
5.331496991e-15
6.330319698e-15
7.392928231e-15
8.378888731e-15
9.143375772e-15
9.580983652e-15
9.693732598e-15
6.798152816e-15
7.749031904e-15
9.111341563e-15
1.076316878e-14
1.252569838e-14
1.417231651e-14
1.54642304e-14
1.621832648e-14
1.64222204e-14
1.169942371e-14
1.328770213e-14
1.556963937e-14
1.835395167e-14
2.135938601e-14
2.422194601e-14
2.654102074e-14
2.797896732e-14
2.844854331e-14
2.012482453e-14
2.282499166e-14
2.673722401e-14
3.158227007e-14
3.694073879e-14
4.224558136e-14
4.6823044e-14
5.000730855e-14
5.139706545e-14
3.47665259e-14
3.949757533e-14
4.646868655e-14
5.534846863e-14
6.561310366e-14
7.648755568e-14
8.690167743e-14
9.545895861e-14
1.00488784e-13
6.068508165e-14
6.938034538e-14
8.257363906e-14
1.001920233e-13
1.220473442e-13
1.476443062e-13
1.75744848e-13
2.033553301e-13
2.237336937e-13
1.078881077e-13
1.250175398e-13
1.521988492e-13
1.910572169e-13
2.439820596e-13
3.137085021e-13
4.014440853e-13
5.011887806e-13
5.862910232e-13
1.974693721e-13
2.34331206e-13
2.963184554e-13
3.924153019e-13
5.369229235e-13
7.49143457e-13
1.046695238e-12
1.42024909e-12
1.767230535e-12
3.772381703e-13
4.644130359e-13
6.204038244e-13
8.820018705e-13
1.310471741e-12
1.994185361e-12
3.026244141e-12
4.403319387e-12
5.744785826e-12
7.637752888e-13
9.876105393e-13
1.410960712e-12
2.167778319e-12
3.488026045e-12
5.715789853e-12
9.235055119e-12
1.409459371e-11
1.894562198e-11
1.660249485e-12
2.269214188e-12
3.470667248e-12
5.717717678e-12
9.802460079e-12
1.693052033e-11
2.847278082e-11
4.467052144e-11
6.099529561e-11
3.894298806e-12
5.603881305e-12
9.071896123e-12
1.574063834e-11
2.814823641e-11
5.016506084e-11
8.616685334e-11
1.368757795e-10
1.879665101e-10
9.791698515e-12
1.463450305e-11
2.460592987e-11
4.40390681e-11
8.053236717e-11
1.455544763e-10
2.517728658e-10
4.006341232e-10
5.495760223e-10
2.594044503e-11
3.954638601e-11
6.768294529e-11
1.226337913e-10
2.256825482e-10
4.083271884e-10
7.040956567e-10
1.114050883e-09
1.519564211e-09
7.077609622e-11
1.081965965e-10
1.852830196e-10
3.348597162e-10
6.127493027e-10
1.09936842e-09
1.876264487e-09
2.936878788e-09
3.970975077e-09
1.943838018e-10
2.941325598e-10
4.975949122e-10
8.873727258e-10
1.600656605e-09
2.828749043e-09
4.754469755e-09
7.336691998e-09
9.813377796e-09
5.270706691e-10
7.82834719e-10
1.297246132e-09
2.265934044e-09
4.005047192e-09
6.939379944e-09
1.144711896e-08
1.737321939e-08
2.295723614e-08
1.390313842e-09
2.017636e-09
3.258399244e-09
5.548481528e-09
9.571420014e-09
1.620867184e-08
2.618116104e-08
3.901927247e-08
5.08929459e-08
3.531229685e-09
4.997343134e-09
7.844502694e-09
1.298614135e-08
2.180927244e-08
3.602367648e-08
5.689012571e-08
8.317438573e-08
1.07020996e-07
8.578689599e-09
1.183526375e-08
1.803984743e-08
2.899241234e-08
4.733449934e-08
7.616496181e-08
1.17487403e-07
1.683927342e-07
2.136691292e-07
1.985620103e-08
2.672087322e-08
3.954917094e-08
6.167542819e-08
9.782014825e-08
1.532256039e-07
2.307299964e-07
3.240719863e-07
4.054596456e-07
4.370200151e-08
5.7424989e-08
8.258038419e-08
1.249725061e-07
1.925122503e-07
2.93450999e-07
4.312453321e-07
5.935168699e-07
7.322622611e-07
9.140879725e-08
1.174244403e-07
1.642169168e-07
2.412779555e-07
3.610189032e-07
5.35512464e-07
7.680410814e-07
1.035875269e-06
1.260472034e-06
1.817765859e-07
2.285714595e-07
3.111875135e-07
4.441878621e-07
6.458140741e-07
9.324714431e-07
1.305442647e-06
1.725591518e-06
2.071054614e-06
3.440378086e-07
4.239697842e-07
5.625499081e-07
7.807547503e-07
1.103718811e-06
1.551894397e-06
2.121406298e-06
2.748923333e-06
3.254988765e-06
6.207276694e-07
7.505747078e-07
9.718065292e-07
1.312606093e-06
1.804840345e-06
2.472701865e-06
3.302700775e-06
4.196877527e-06
4.9044187e-06
1.069946203e-06
1.270955022e-06
1.60763628e-06
2.115141544e-06
2.833324287e-06
3.783867685e-06
4.937947978e-06
6.155466177e-06
7.101501223e-06
1.7657855e-06
2.062794337e-06
2.552333037e-06
3.275809183e-06
4.276734363e-06
5.57075975e-06
7.106347572e-06
8.693855277e-06
9.906020581e-06
2.796003595e-06
3.215375734e-06
3.895582305e-06
4.883597612e-06
6.219773677e-06
7.908882381e-06
9.867201263e-06
1.185299792e-05
1.334406662e-05
4.25694746e-06
4.824370045e-06
5.731898073e-06
7.023186101e-06
8.733495234e-06
1.084828734e-05
1.324854981e-05
1.563591376e-05
1.739944214e-05
6.244349594e-06
6.980248533e-06
8.140974353e-06
9.763578788e-06
1.186686775e-05
1.441079466e-05
1.723993538e-05
2.000075192e-05
2.200754011e-05
8.842528646e-06
9.75858805e-06
1.118405136e-05
1.314224405e-05
1.562985995e-05
1.857521193e-05
2.178221021e-05
2.484968064e-05
2.704063795e-05
1.211173099e-05
1.320753659e-05
1.489042648e-05
1.716285849e-05
1.999190755e-05
2.326707398e-05
2.674692389e-05
2.998685833e-05
3.222587982e-05
1.607496947e-05
1.733489906e-05
1.924438202e-05
2.177700372e-05
2.48598927e-05
2.832882968e-05
3.187168709e-05
3.496747908e-05
3.683846042e-05
2.070352531e-05
2.20927803e-05
2.416705479e-05
2.68593193e-05
3.003800984e-05
3.344808682e-05
3.664327461e-05
3.926294934e-05
4.092184914e-05
2.589053367e-05
2.73451467e-05
2.946913165e-05
3.21279824e-05
3.509202868e-05
3.801398572e-05
4.078157787e-05
4.31214881e-05
4.461832118e-05
3.136236793e-05
3.275898842e-05
3.468964894e-05
3.693939172e-05
3.944453985e-05
4.202688468e-05
4.44927548e-05
4.657545442e-05
4.789954867e-05
3.637694751e-05
3.753044364e-05
3.916165178e-05
4.114277273e-05
4.335005294e-05
4.562330758e-05
4.777304902e-05
4.9565046e-05
5.068926821e-05
4.078603481e-05
4.178991504e-05
4.321071271e-05
4.493551074e-05
4.683544466e-05
4.876203974e-05
5.054983141e-05
5.201063314e-05
5.291025977e-05
4.479231895e-05
4.564599975e-05
4.684325567e-05
4.82769406e-05
4.982560848e-05
5.135897525e-05
5.274398269e-05
5.384424472e-05
5.450414443e-05
4.834066809e-05
4.902302276e-05
4.996561996e-05
5.106993048e-05
5.222879763e-05
5.333595085e-05
5.429498854e-05
5.502255551e-05
5.543930257e-05
5.131685091e-05
5.180900928e-05
5.24725946e-05
5.322243525e-05
5.397090643e-05
5.463970628e-05
5.517059866e-05
5.553134017e-05
5.571292206e-05
5.361532469e-05
5.390757506e-05
5.428178205e-05
5.46702941e-05
5.500870414e-05
5.524866391e-05
5.536936373e-05
5.538540267e-05
5.53496302e-05
5.516375212e-05
5.525705381e-05
5.534668063e-05
5.538532898e-05
5.533377112e-05
5.517370838e-05
5.491917328e-05
5.46256769e-05
5.439787891e-05
5.593136415e-05
5.583664378e-05
5.56602047e-05
5.537637389e-05
5.497135362e-05
5.445533321e-05
5.387320525e-05
5.33144648e-05
5.29248773e-05
5.592947737e-05
5.566580967e-05
5.52527265e-05
5.468597782e-05
5.397592443e-05
5.315835359e-05
5.23041491e-05
5.152949283e-05
5.101067374e-05
5.520704143e-05
5.479924061e-05
5.418634475e-05
5.33840597e-05
5.242444607e-05
5.136511314e-05
5.02976201e-05
4.935766652e-05
4.874220001e-05
5.384288161e-05
5.331899562e-05
5.254699456e-05
5.156012913e-05
5.040888721e-05
4.916843311e-05
4.79456694e-05
4.688917534e-05
4.620781966e-05
5.193647362e-05
5.132542399e-05
5.043565046e-05
4.931494689e-05
4.802852734e-05
4.666473076e-05
4.53407777e-05
4.421227946e-05
4.349264119e-05
4.959824941e-05
4.89278721e-05
4.795964229e-05
4.675264012e-05
4.538301677e-05
4.394809324e-05
4.257091358e-05
4.140920089e-05
4.067493531e-05
4.694076869e-05
4.623637254e-05
4.52250889e-05
4.397405339e-05
4.256674592e-05
4.11056784e-05
3.971588412e-05
3.855324042e-05
3.782371792e-05
4.407152822e-05
4.335498975e-05
4.233099327e-05
4.107173429e-05
3.966478008e-05
3.821457225e-05
3.684500758e-05
3.570708315e-05
3.499742732e-05
4.108777061e-05
4.037711177e-05
3.936519498e-05
3.812664967e-05
3.675036402e-05
3.534003326e-05
3.401598654e-05
3.292214077e-05
3.224353184e-05
3.807330108e-05
3.738265416e-05
3.640209426e-05
3.520649605e-05
3.388381847e-05
3.253491917e-05
3.127476713e-05
3.023871597e-05
2.959885631e-05
3.509707191e-05
3.443692072e-05
3.350187706e-05
3.236532508e-05
3.111255473e-05
2.984002889e-05
2.865612516e-05
2.768675012e-05
2.709041115e-05
3.221316521e-05
3.159076024e-05
3.071089258e-05
2.964414746e-05
2.84718712e-05
2.728505936e-05
2.618473542e-05
2.528694796e-05
2.473652783e-05
2.946175254e-05
2.888160556e-05
2.806278803e-05
2.707216187e-05
2.598626424e-05
2.488995213e-05
2.387651146e-05
2.305208553e-05
2.254813529e-05
2.687065379e-05
2.633505172e-05
2.55801026e-05
2.466834706e-05
2.367098785e-05
2.266639781e-05
2.174003669e-05
2.098836377e-05
2.053005549e-05
2.445719132e-05
2.396668345e-05
2.327604895e-05
2.24431751e-05
2.153367763e-05
2.061935389e-05
1.977796968e-05
1.909671049e-05
1.868223526e-05
2.223010335e-05
2.17839358e-05
2.11562947e-05
2.04002906e-05
1.957590981e-05
1.874847376e-05
1.798834486e-05
1.737397008e-05
1.700086356e-05
2.019136174e-05
1.978784735e-05
1.922062262e-05
1.853805534e-05
1.779461609e-05
1.704938703e-05
1.636572505e-05
1.581394866e-05
1.547934866e-05
1.833780354e-05
1.797462512e-05
1.746440125e-05
1.685090478e-05
1.618331459e-05
1.55148036e-05
1.490218772e-05
1.440830369e-05
1.410914745e-05
1.666253387e-05
1.633698492e-05
1.587983767e-05
1.5330496e-05
1.473314474e-05
1.413543587e-05
1.358814445e-05
1.314728039e-05
1.288045107e-05
1.515609108e-05
1.486526116e-05
1.445701056e-05
1.396664981e-05
1.343371206e-05
1.290074801e-05
1.241300405e-05
1.20203062e-05
1.178273773e-05
1.380738598e-05
1.354829938e-05
1.318469801e-05
1.274810256e-05
1.227375938e-05
1.179954874e-05
1.136569544e-05
1.101645858e-05
1.080520765e-05
1.260443842e-05
1.237415451e-05
1.20510232e-05
1.166309021e-05
1.124168611e-05
1.082044801e-05
1.043506903e-05
1.012482332e-05
9.937115787e-06
1.15349393e-05
1.13306225e-05
1.104394419e-05
1.069978948e-05
1.03259385e-05
9.952198428e-06
9.610195501e-06
9.334760283e-06
9.168018562e-06
1.05866669e-05
1.040563289e-05
1.015161415e-05
9.846640564e-06
9.515293208e-06
9.183941679e-06
8.88057986e-06
8.636092939e-06
8.487949062e-06
9.74778454e-06
9.587528492e-06
9.362636389e-06
9.092573684e-06
8.79905451e-06
8.505377868e-06
8.236306916e-06
8.019235783e-06
7.88753438e-06
9.00704374e-06
8.865255061e-06
8.666235782e-06
8.427159478e-06
8.167182929e-06
7.906873862e-06
7.668132342e-06
7.475272601e-06
7.358066758e-06
8.35391353e-06
8.228480794e-06
8.052364872e-06
7.840699863e-06
7.610370557e-06
7.379524123e-06
7.167531368e-06
6.995996336e-06
6.891538695e-06
7.778653175e-06
7.667662048e-06
7.51176018e-06
7.324273583e-06
7.120075704e-06
6.915175393e-06
6.726715261e-06
6.57391974e-06
6.480650605e-06
7.272342428e-06
7.174068779e-06
7.035961171e-06
6.869747913e-06
6.688527323e-06
6.506424529e-06
6.338623893e-06
6.202264411e-06
6.118798128e-06
6.826880826e-06
6.739780687e-06
6.617302164e-06
6.469765796e-06
6.308707491e-06
6.146596999e-06
5.996901224e-06
5.87493436e-06
5.800044915e-06
6.434964681e-06
6.357662217e-06
6.248884788e-06
6.117715627e-06
5.974318702e-06
5.829712098e-06
5.695859069e-06
5.586479069e-06
5.519085564e-06
6.09004903e-06
6.02132356e-06
5.924537761e-06
5.807689744e-06
5.679741214e-06
5.550439529e-06
5.430433391e-06
5.332049939e-06
5.271202399e-06
5.786300262e-06
5.725072905e-06
5.638768704e-06
5.534435883e-06
5.419984419e-06
5.304051003e-06
5.196136457e-06
5.107353159e-06
5.052218983e-06
5.5185431e-06
5.463863507e-06
5.386711441e-06
5.29330495e-06
5.190635306e-06
5.086369636e-06
4.989007309e-06
4.908601294e-06
4.858452525e-06
5.282205121e-06
5.233238668e-06
5.164071697e-06
5.080197662e-06
4.987806287e-06
4.893719126e-06
4.805562391e-06
4.732465247e-06
4.686666784e-06
5.073261145e-06
5.029276795e-06
4.967073134e-06
4.891511849e-06
4.808083989e-06
4.722874192e-06
4.642747639e-06
4.576027825e-06
4.534026616e-06
4.888179061e-06
4.848538015e-06
4.79240512e-06
4.724091686e-06
4.64848017e-06
4.571013271e-06
4.497892927e-06
4.436739695e-06
4.398054923e-06
4.72386815e-06
4.688013371e-06
4.637173187e-06
4.575179702e-06
4.506385479e-06
4.435674123e-06
4.368669451e-06
4.31237828e-06
4.276592509e-06
4.577630628e-06
4.545077263e-06
4.498852742e-06
4.44237207e-06
4.379526523e-06
4.314712733e-06
4.253050363e-06
4.201009852e-06
4.167761097e-06
4.447116792e-06
4.417443482e-06
4.375246379e-06
4.323577478e-06
4.265926461e-06
4.20626567e-06
4.149274808e-06
4.100954948e-06
4.069929613e-06
4.330283952e-06
4.303125012e-06
4.264444908e-06
4.216979643e-06
4.163869173e-06
4.108715948e-06
4.055815349e-06
4.010757097e-06
3.981683709e-06
4.225359176e-06
4.200397594e-06
4.164792077e-06
4.121003457e-06
4.071866957e-06
4.02066229e-06
3.971348706e-06
3.929154748e-06
3.901798424e-06
4.130805755e-06
4.107766962e-06
4.0748529e-06
4.034284619e-06
3.988631601e-06
3.940891663e-06
3.894729619e-06
3.85505623e-06
3.829213817e-06
4.045293208e-06
4.023939558e-06
3.99338537e-06
3.955642565e-06
3.913048643e-06
3.868354862e-06
3.824967666e-06
3.787517557e-06
3.763013368e-06
3.967670618e-06
3.947796523e-06
3.91931537e-06
3.88405648e-06
3.844154575e-06
3.802144923e-06
3.761206786e-06
3.72572284e-06
3.702404929e-06
3.896943051e-06
3.8783707e-06
3.851714505e-06
3.818644127e-06
3.781116769e-06
3.741478135e-06
3.702707269e-06
3.668967082e-06
3.646703999e-06
3.832250781e-06
3.814826399e-06
3.789780612e-06
3.758643257e-06
3.723215849e-06
3.685677381e-06
3.648829998e-06
3.616641116e-06
3.595319089e-06
3.772851077e-06
3.756441655e-06
3.732820687e-06
3.703395332e-06
3.669830294e-06
3.634157605e-06
3.599022687e-06
3.568218481e-06
3.547738965e-06
3.718102283e-06
3.702592731e-06
3.680235982e-06
3.652331336e-06
3.620423004e-06
3.586413146e-06
3.552807917e-06
3.523243999e-06
3.503521568e-06
3.667449948e-06
3.652740625e-06
3.631509036e-06
3.604959432e-06
3.574529644e-06
3.542006745e-06
3.509772751e-06
3.481323882e-06
3.462284392e-06
3.620414772e-06
3.606419348e-06
3.586192412e-06
3.560854251e-06
3.531748525e-06
3.500560027e-06
3.469559745e-06
3.442117166e-06
3.423696184e-06
3.576582172e-06
3.563225774e-06
3.543898956e-06
3.519647634e-06
3.491731871e-06
3.461745275e-06
3.431859193e-06
3.405328317e-06
3.387469761e-06
3.535593243e-06
3.522810859e-06
3.50429337e-06
3.481020629e-06
3.454178263e-06
3.42527833e-06
3.396402431e-06
3.370700867e-06
3.353355838e-06
3.497136971e-06
3.484872073e-06
3.467084951e-06
3.444696593e-06
3.418826149e-06
3.390912489e-06
3.362956083e-06
3.338011929e-06
3.321137707e-06
3.460943518e-06
3.449146879e-06
3.432021334e-06
3.410435264e-06
3.385448245e-06
3.358433242e-06
3.331317109e-06
3.307067489e-06
3.29062667e-06
3.426778444e-06
3.415407118e-06
3.398883118e-06
3.37802765e-06
3.353846731e-06
3.327653766e-06
3.301308558e-06
3.277698365e-06
3.261658124e-06
3.394437747e-06
3.383454195e-06
3.367479242e-06
3.347291656e-06
3.32384913e-06
3.298411051e-06
3.272775922e-06
3.249756743e-06
3.234088197e-06
3.363743599e-06
3.353114938e-06
3.337643029e-06
3.318068324e-06
3.295304769e-06
3.270562582e-06
3.245584011e-06
3.2231132e-06
3.207790866e-06
3.334540696e-06
3.324238056e-06
3.309228779e-06
3.290218609e-06
3.268081748e-06
3.243983493e-06
3.21961428e-06
3.197654168e-06
3.182655495e-06
3.306693124e-06
3.296691095e-06
3.282108865e-06
3.263620625e-06
3.242064342e-06
3.21856413e-06
3.19476253e-06
3.173279746e-06
3.158584719e-06
3.280081676e-06
3.270357835e-06
3.256171232e-06
3.238167276e-06
3.21715078e-06
3.19420797e-06
3.170936951e-06
3.14990184e-06
3.135492635e-06
3.254601554e-06
3.24513606e-06
3.231317265e-06
3.213764232e-06
3.193251337e-06
3.170829824e-06
3.148056437e-06
3.127442561e-06
3.113303252e-06
3.230160399e-06
3.220935645e-06
3.207459956e-06
3.190328195e-06
3.170286703e-06
3.148354314e-06
3.126049148e-06
3.105832858e-06
3.091949165e-06
3.206676604e-06
3.197676919e-06
3.184522335e-06
3.167785415e-06
3.148186584e-06
3.126714559e-06
3.104851272e-06
3.085011342e-06
3.071370417e-06
3.184077873e-06
3.175289265e-06
3.16243613e-06
3.146070412e-06
3.126888507e-06
3.10585105e-06
3.08440597e-06
3.064923282e-06
3.051513522e-06
3.162299976e-06
3.153709915e-06
3.141140613e-06
3.125124888e-06
3.106336787e-06
3.085710684e-06
3.064662465e-06
3.045519739e-06
3.032330626e-06
3.141285691e-06
3.132882919e-06
3.120581609e-06
3.104896787e-06
3.086481648e-06
3.066245939e-06
3.045575266e-06
3.026756827e-06
3.013778794e-06
3.120983889e-06
3.112758258e-06
3.10071065e-06
3.085339491e-06
3.067278466e-06
3.047414158e-06
3.027103494e-06
3.008595072e-06
2.995819384e-06
3.101348751e-06
3.093291083e-06
3.081484245e-06
3.066411128e-06
3.048687113e-06
3.029176942e-06
3.009210307e-06
2.990998867e-06
2.97841752e-06
3.082339091e-06
3.07444106e-06
3.06286325e-06
3.048073974e-06
3.030671399e-06
3.011499617e-06
2.991862405e-06
2.973935998e-06
2.961541634e-06
3.063917773e-06
3.056171802e-06
3.044812325e-06
3.030293942e-06
3.013198585e-06
2.994350785e-06
2.975029599e-06
2.95737724e-06
2.945163072e-06
3.046051211e-06
3.038450382e-06
3.027299465e-06
3.013040133e-06
2.996238967e-06
2.977701925e-06
2.958684445e-06
2.941296002e-06
2.929255751e-06
3.028708925e-06
3.021246905e-06
3.010295595e-06
2.996284448e-06
2.979765508e-06
2.961527056e-06
2.942801921e-06
2.925668028e-06
2.913795872e-06
3.011863158e-06
3.004534133e-06
2.993774205e-06
2.980001253e-06
2.963753521e-06
2.945802439e-06
2.92735915e-06
2.910471132e-06
2.898761666e-06
2.995488539e-06
2.988287159e-06
2.977711039e-06
2.964167076e-06
2.948180388e-06
2.93050631e-06
2.912335153e-06
2.895684969e-06
2.88413317e-06
2.979561768e-06
2.972483099e-06
2.962083803e-06
2.948760331e-06
2.9330253e-06
2.915618642e-06
2.897710631e-06
2.881290829e-06
2.869892035e-06
2.964061333e-06
2.95710082e-06
2.946871894e-06
2.933761065e-06
2.918269016e-06
2.901120926e-06
2.883467751e-06
2.867271444e-06
2.856021343e-06
2.948967227e-06
2.94212066e-06
2.932056141e-06
2.919150703e-06
2.903893629e-06
2.886995937e-06
2.869589945e-06
2.853610796e-06
2.842505426e-06
2.934260666e-06
2.927524148e-06
2.917618525e-06
2.904911783e-06
2.889882303e-06
2.873227503e-06
2.856061684e-06
2.84029391e-06
2.82932967e-06
2.919923775e-06
2.9132937e-06
2.903541878e-06
2.891027659e-06
2.876218994e-06
2.859800221e-06
2.842868204e-06
2.827306595e-06
2.816480268e-06
2.905939238e-06
2.899412262e-06
2.889809529e-06
2.877482147e-06
2.862888088e-06
2.846699109e-06
2.829995174e-06
2.814635113e-06
2.803943899e-06
2.892289867e-06
2.885862882e-06
2.87640487e-06
2.864259085e-06
2.84987396e-06
2.833909152e-06
2.81742823e-06
2.802265725e-06
2.791707272e-06
2.87895809e-06
2.872628176e-06
2.863310808e-06
2.851341769e-06
2.837160389e-06
2.821414702e-06
2.805152361e-06
2.790184053e-06
2.779756485e-06
2.865925286e-06
2.859689663e-06
2.850509075e-06
2.838712224e-06
2.824729793e-06
2.809198669e-06
2.793151059e-06
2.778374202e-06
2.768076126e-06
2.853170976e-06
2.847026914e-06
2.837979336e-06
2.826350273e-06
2.812562231e-06
2.797241456e-06
2.781405185e-06
2.766817559e-06
2.75664803e-06
2.840671793e-06
2.834616496e-06
2.825698079e-06
2.814232341e-06
2.800634123e-06
2.785519576e-06
2.769891471e-06
2.755491199e-06
2.745449617e-06
2.828400224e-06
2.822430658e-06
2.813637222e-06
2.802329966e-06
2.78891663e-06
2.774003883e-06
2.758580603e-06
2.744365817e-06
2.734451716e-06
2.816323081e-06
2.810435734e-06
2.801762419e-06
2.790607967e-06
2.777373659e-06
2.762657384e-06
2.747434817e-06
2.733403121e-06
2.723615822e-06
2.804399677e-06
2.798590243e-06
2.790031031e-06
2.779022252e-06
2.765959455e-06
2.751432587e-06
2.736404983e-06
2.722552661e-06
2.712890726e-06
2.7925797e-06
2.786842659e-06
2.778389751e-06
2.767517237e-06
2.754615776e-06
2.740268377e-06
2.725427151e-06
2.711748057e-06
2.702208524e-06
2.780800788e-06
2.775128882e-06
2.766771902e-06
2.75602292e-06
2.743268675e-06
2.729086456e-06
2.714418613e-06
2.700902687e-06
2.691480022e-06
2.768985837e-06
2.763369419e-06
2.755094433e-06
2.744451617e-06
2.731824916e-06
2.717787379e-06
2.703273524e-06
2.689904899e-06
2.68058965e-06
2.757040077e-06
2.751466331e-06
2.74325467e-06
2.732694457e-06
2.720168134e-06
2.706246321e-06
2.691858223e-06
2.678612899e-06
2.669390021e-06
2.744847993e-06
2.739300032e-06
2.731126919e-06
2.720617711e-06
2.708154837e-06
2.694308677e-06
2.680006405e-06
2.666849487e-06
2.657696359e-06
2.732270185e-06
2.726726022e-06
2.718559018e-06
2.708059105e-06
2.695610404e-06
2.681785704e-06
2.667514354e-06
2.654396908e-06
2.645281047e-06
2.719140259e-06
2.71357168e-06
2.70536897e-06
2.69482424e-06
2.68232525e-06
2.668450381e-06
2.654136479e-06
2.640992063e-06
2.631868618e-06
2.705261888e-06
2.699633239e-06
2.691341796e-06
2.680683294e-06
2.668051342e-06
2.654033714e-06
2.639581405e-06
2.626322407e-06
2.61713151e-06
2.690406139e-06
2.684673074e-06
2.67622676e-06
2.665368151e-06
2.652499229e-06
2.638221692e-06
2.623508877e-06
2.610022823e-06
2.600686931e-06
2.674309182e-06
2.668417392e-06
2.659735056e-06
2.648570113e-06
2.635335808e-06
2.620653126e-06
2.605527714e-06
2.591673756e-06
2.58209517e-06
2.656670455e-06
2.650554446e-06
2.641538087e-06
2.629938296e-06
2.616182906e-06
2.600918521e-06
2.585195079e-06
2.570800917e-06
2.560859659e-06
2.637151372e-06
2.630733326e-06
2.62126642e-06
2.609078828e-06
2.594616848e-06
2.578560162e-06
2.562017231e-06
2.546876793e-06
2.536429113e-06
2.615374605e-06
2.608563394e-06
2.59850947e-06
2.585554943e-06
2.570169129e-06
2.553073588e-06
2.535452009e-06
2.519324254e-06
2.508202046e-06
2.590923979e-06
2.583614405e-06
2.572816013e-06
2.558888064e-06
2.542328348e-06
2.523910659e-06
2.504913322e-06
2.48752259e-06
2.475534058e-06
2.563345071e-06
2.555417426e-06
2.543695636e-06
2.528560083e-06
2.510543641e-06
2.490484551e-06
2.469778053e-06
2.450816466e-06
2.437748418e-06
2.532146659e-06
2.523466738e-06
2.510621395e-06
2.494017144e-06
2.47423006e-06
2.452177201e-06
2.429396008e-06
2.408528502e-06
2.39415068e-06
2.49680338e-06
2.487223128e-06
2.47303416e-06
2.454675536e-06
2.432776579e-06
2.408350051e-06
2.383103858e-06
2.359976499e-06
2.3440484e-06
2.456760187e-06
2.446119249e-06
2.430349426e-06
2.40993061e-06
2.385557831e-06
2.358359282e-06
2.33024438e-06
2.304496665e-06
2.28677727e-06
2.411439623e-06
2.399568135e-06
2.381967811e-06
2.359170062e-06