/*--------------------------------*- C++ -*----------------------------------*\
| =========                 |                                                 |
| \\      /  F ield         | OpenFOAM: The Open Source CFD Toolbox           |
|  \\    /   O peration     | Version:  2212                                  |
|   \\  /    A nd           | Website:  www.openfoam.com                      |
|    \\/     M anipulation  |                                                 |
\*---------------------------------------------------------------------------*/
FoamFile
{
    version     2.0;
    format      ascii;
    arch        "LSB;label=32;scalar=64";
    class       volScalarField;
    location    "20.00000000";
    object      CH3;
}
// * * * * * * * * * * * * * * * * * * * * * * * * * * * * * * * * * * * * * //

dimensions      [0 0 0 0 0 0 0];

internalField   nonuniform List<scalar> 
3000
(
3.919813419e-24
4.399515598e-24
5.123162578e-24
6.087154427e-24
7.281579848e-24
8.674020144e-24
1.018072213e-23
1.161850304e-23
1.263511893e-23
1.470425737e-23
1.656929466e-23
1.938143228e-23
2.313566909e-23
2.782778935e-23
3.343214886e-23
3.985233114e-23
4.676763713e-23
5.289444899e-23
3.288781501e-23
3.734718656e-23
4.41348993e-23
5.334680273e-23
6.514657181e-23
7.970512305e-23
9.696544937e-23
1.159630651e-22
1.32196441e-22
6.250897339e-23
7.172064282e-23
8.594648141e-23
1.056612595e-22
1.315569976e-22
1.642873024e-22
2.036706141e-22
2.465598255e-22
2.811681495e-22
1.106968918e-22
1.28553188e-22
1.565604686e-22
1.961246615e-22
2.490879424e-22
3.169178587e-22
3.984666432e-22
4.850286582e-22
5.514483568e-22
1.897197102e-22
2.231150678e-22
2.762401145e-22
3.524452839e-22
4.557483529e-22
5.887019849e-22
7.472947613e-22
9.115194531e-22
1.032942882e-21
3.20834367e-22
3.819282847e-22
4.802364426e-22
6.228246102e-22
8.1752271e-22
1.068087929e-21
1.364062582e-21
1.664506474e-21
1.881128857e-21
5.40606711e-22
6.50667118e-22
8.293227479e-22
1.090415047e-21
1.448268713e-21
1.907790288e-21
2.445731058e-21
2.983760161e-21
3.365167761e-21
9.120541104e-22
1.108156409e-21
1.428502117e-21
1.898970312e-21
2.544845209e-21
3.371840298e-21
4.332868445e-21
5.283954352e-21
5.950693499e-21
1.543707122e-21
1.890270786e-21
2.458939807e-21
3.296701623e-21
4.447373007e-21
5.916690368e-21
7.614532755e-21
9.282404089e-21
1.044293626e-20
2.622673955e-21
3.231466498e-21
4.233513849e-21
5.712567903e-21
7.743914607e-21
1.033173876e-20
1.330956747e-20
1.621988294e-20
1.8234969e-20
4.471733884e-21
5.536510949e-21
7.292824273e-21
9.888250784e-21
1.345171667e-20
1.798277366e-20
2.318066165e-20
2.824276998e-20
3.173690922e-20
7.64808893e-21
9.504674661e-21
1.257156424e-20
1.710695601e-20
2.333136287e-20
3.123336743e-20
4.027615199e-20
4.905967942e-20
5.511793455e-20
1.311372229e-20
1.634405937e-20
2.168592587e-20
2.958941075e-20
4.043190132e-20
5.417675139e-20
6.986359969e-20
8.505013191e-20
9.558968173e-20
2.252858726e-20
2.814044994e-20
3.742850065e-20
5.117722867e-20
7.003628714e-20
9.391588279e-20
1.210712931e-19
1.471196597e-19
1.656710124e-19
3.875418409e-20
4.848975438e-20
6.461439967e-20
8.849721413e-20
1.212770738e-19
1.628485178e-19
2.103902602e-19
2.566593526e-19
2.877928407e-19
6.67196452e-20
8.358354252e-20
1.115256236e-19
1.529182679e-19
2.097175816e-19
2.816835036e-19
3.637728212e-19
4.431654585e-19
4.974051301e-19
1.149189017e-19
1.440923831e-19
1.924400635e-19
2.64059758e-19
3.623057759e-19
4.867028821e-19
6.284500143e-19
7.653839795e-19
8.591020925e-19
1.979955451e-19
2.48416526e-19
3.319873054e-19
4.557818674e-19
6.25564976e-19
8.40461967e-19
1.085220294e-18
1.321567639e-18
1.483301754e-18
3.412025184e-19
4.282921674e-19
5.726548885e-19
7.865023373e-19
1.079758166e-18
1.450855131e-18
1.873401858e-18
2.281309652e-18
2.56037007e-18
5.880949526e-19
7.384613564e-19
9.877353423e-19
1.356995873e-18
1.863338012e-18
2.503984359e-18
3.233300551e-18
3.937185678e-18
4.418627813e-18
1.013800282e-18
1.273352383e-18
1.703660084e-18
2.341100634e-18
3.215127842e-18
4.320844714e-18
5.57937718e-18
6.793780675e-18
7.624274156e-18
1.747911279e-18
2.195856311e-18
2.93852849e-18
4.038687937e-18
5.547076323e-18
7.455080032e-18
9.626413685e-18
1.172122507e-17
1.315364181e-17
3.013979933e-18
3.786970681e-18
5.068573178e-18
6.967029136e-18
9.569731239e-18
1.286154319e-17
1.660703343e-17
2.021993489e-17
2.269010635e-17
5.197643946e-18
6.531433455e-18
8.742797689e-18
1.201834179e-17
1.650851219e-17
2.218671039e-17
2.864635574e-17
3.487625935e-17
3.913523828e-17
8.964094942e-18
1.126536586e-17
1.508058918e-17
2.073129402e-17
2.847626596e-17
3.826861705e-17
4.940626711e-17
6.014559604e-17
6.748632044e-17
1.546055933e-17
1.943075303e-17
2.60122628e-17
3.575871195e-17
4.911472611e-17
6.59971311e-17
8.519341131e-17
1.036978982e-16
1.16343375e-16
2.666509603e-17
3.351380797e-17
4.486553745e-17
6.167260269e-17
8.469761384e-17
1.137918036e-16
1.468606494e-16
1.787251639e-16
2.004930263e-16
4.598657552e-17
5.779888973e-17
7.737377136e-17
1.063471736e-16
1.460239347e-16
1.961350303e-16
2.530610944e-16
3.078834839e-16
3.45316029e-16
7.929498743e-17
9.96628826e-17
1.334060129e-16
1.833296734e-16
2.516590843e-16
3.379009216e-16
4.357977788e-16
5.30003277e-16
5.942802712e-16
1.366863579e-16
1.717916804e-16
2.299271996e-16
3.158916775e-16
4.334628154e-16
5.817213888e-16
7.498428156e-16
9.114498091e-16
1.021603335e-15
2.354959557e-16
2.959621185e-16
3.960433327e-16
5.439216326e-16
7.459715742e-16
1.000451193e-15
1.288623875e-15
1.565222342e-15
1.753491307e-15
4.054203711e-16
5.094649523e-16
6.815561809e-16
9.35584376e-16
1.282220046e-15
1.718108293e-15
2.210801256e-15
2.682778349e-15
3.003427156e-15
6.971762681e-16
8.759478543e-16
1.171372782e-15
1.60689879e-15
2.200200539e-15
2.944727123e-15
3.78427542e-15
4.586472942e-15
5.130118249e-15
1.197036975e-15
1.503582311e-15
2.009573633e-15
2.754303413e-15
3.766650422e-15
5.03369626e-15
6.458131427e-15
7.814789572e-15
8.731299032e-15
2.051031131e-15
2.575218007e-15
3.439194812e-15
4.70819351e-15
6.428572139e-15
8.574730894e-15
1.097842122e-14
1.325857062e-14
1.479296977e-14
3.504816468e-15
4.397867364e-15
5.867141317e-15
8.019665169e-15
1.092817159e-14
1.454196366e-14
1.857094755e-14
2.237439677e-14
2.492194133e-14
5.968593608e-15
7.482807355e-15
9.968459695e-15
1.359858036e-14
1.848392171e-14
2.452471103e-14
3.122309912e-14
3.751064979e-14
4.169915405e-14
1.012131764e-14
1.267316484e-14
1.685070854e-14
2.292859145e-14
3.106886268e-14
4.107741998e-14
5.210585903e-14
6.239068494e-14
6.91999082e-14
1.707540487e-14
2.13433976e-14
2.830736056e-14
3.83933196e-14
5.182552408e-14
6.823244223e-14
8.618240963e-14
1.028008447e-13
1.137290991e-13
2.863281304e-14
3.570490501e-14
4.719861513e-14
6.375578197e-14
8.566144126e-14
1.122186026e-13
1.41042456e-13
1.675172926e-13
1.848016246e-13
4.767714957e-14
5.926481502e-14
7.800814585e-14
1.048376409e-13
1.400638617e-13
1.824087455e-13
2.27963967e-13
2.694509455e-13
2.963320776e-13
7.876783807e-14
9.750364622e-14
1.276364791e-13
1.704440931e-13
2.261492544e-13
2.924632321e-13
3.631052894e-13
4.268470809e-13
4.678247288e-13
1.290405911e-13
1.588716923e-13
2.065153989e-13
2.735814523e-13
3.599225083e-13
4.615267932e-13
5.685237766e-13
6.640584557e-13
7.24952994e-13
2.095948245e-13
2.562793442e-13
3.301949709e-13
4.330555272e-13
5.636991847e-13
7.151899779e-13
8.723623228e-13
1.01077777e-12
1.098039767e-12
3.377020038e-13
4.094255076e-13
5.21741268e-13
6.757295509e-13
8.677893015e-13
1.085906203e-12
1.307140546e-12
1.497552803e-12
1.615167158e-12
5.404419748e-13
6.486390078e-13
8.15709237e-13
1.040278894e-12
1.313232933e-12
1.613257426e-12
1.905395371e-12
2.144543002e-12
2.283984471e-12
8.607359153e-13
1.021386287e-12
1.265164105e-12
1.584411025e-12
1.95822603e-12
2.347372341e-12
2.696022233e-12
2.94514332e-12
3.059820304e-12
1.366886671e-12
1.602842257e-12
1.953734243e-12
2.398713337e-12
2.893797812e-12
3.365931623e-12
3.721434788e-12
3.882258736e-12
3.86074769e-12
2.165777076e-12
2.510761265e-12
3.013248108e-12
3.628826454e-12
4.274553282e-12
4.824829463e-12
5.141236134e-12
5.168884694e-12
5.077461815e-12
3.416283131e-12
3.920544066e-12
4.641806003e-12
5.500021172e-12
6.363110028e-12
7.074942688e-12
7.601436566e-12
8.399376903e-12
9.392264235e-12
5.331799747e-12
6.068935529e-12
7.111729824e-12
8.342175146e-12
9.630775975e-12
1.108679612e-11
1.38209692e-11
1.773356589e-11
2.134222283e-11
8.15121888e-12
9.234332752e-12
1.078882006e-11
1.275088444e-11
1.543975625e-11
2.122447448e-11
3.031215285e-11
4.19865814e-11
5.258814311e-11
1.208014633e-11
1.375554482e-11
1.644229992e-11
2.088844844e-11
3.035674165e-11
4.650585851e-11
7.075777771e-11
1.018597771e-10
1.305455516e-10
1.752142496e-11
2.07218217e-11
2.762193344e-11
4.131657946e-11
6.56067428e-11
1.052789276e-10
1.642059635e-10
2.39212981e-10
3.074614368e-10
2.808987192e-11
3.741368544e-11
5.563809621e-11
8.863877384e-11
1.450165916e-10
2.350735024e-10
3.649077207e-10
5.220439045e-10
6.557804699e-10
5.662713163e-11
7.856694665e-11
1.204486395e-10
1.943770906e-10
3.17268525e-10
5.053887668e-10
7.581753571e-10
1.035389866e-09
1.246974332e-09
1.252004329e-10
1.741741863e-10
2.659979917e-10
4.233885078e-10
6.726121442e-10
1.025860762e-09
1.452912911e-09
1.869286949e-09
2.155957314e-09
2.852044143e-10
3.905030435e-10
5.819474945e-10
8.936896576e-10
1.350669948e-09
1.9359311e-09
2.571026572e-09
3.13841721e-09
3.506839461e-09
6.442650693e-10
8.560826256e-10
1.222929843e-09
1.778868814e-09
2.523219356e-09
3.392985747e-09
4.275097145e-09
5.035347691e-09
5.518932911e-09
1.384709658e-09
1.768014025e-09
2.394910427e-09
3.278767718e-09
4.38212608e-09
5.612071124e-09
6.837046908e-09
7.890670952e-09
8.559589414e-09
2.731051947e-09
3.347363869e-09
4.311084246e-09
5.612002806e-09
7.193842375e-09
8.949657577e-09
1.07153142e-08
1.225390947e-08
1.324003561e-08
4.88441787e-09
5.799528448e-09
7.206008836e-09
9.089388586e-09
1.139231022e-08
1.398943517e-08
1.665569604e-08
1.903023007e-08
2.0582393e-08
8.045939783e-09
9.376942906e-09
1.142865813e-08
1.420481999e-08
1.765953758e-08
2.164593416e-08
2.584832651e-08
2.96999964e-08
3.229306641e-08
1.251637783e-08
1.447066623e-08
1.751366067e-08
2.169634969e-08
2.70137494e-08
3.331162662e-08
4.015503211e-08
4.664377288e-08
5.117217721e-08
1.874555931e-08
2.164671988e-08
2.621812374e-08
3.261207049e-08
4.092633151e-08
5.104924716e-08
6.240870249e-08
7.357093171e-08
8.165610807e-08
2.734864392e-08
3.167518032e-08
3.857656766e-08
4.840066044e-08
6.146890802e-08
7.782293409e-08
9.675828459e-08
1.160013133e-07
1.304200852e-07
3.916167196e-08
4.560010847e-08
5.59941813e-08
7.104324597e-08
9.149707597e-08
1.177485795e-07
1.489999816e-07
1.8168482e-07
2.068741796e-07
5.536505977e-08
6.488204576e-08
8.041649182e-08
1.032534221e-07
1.348789844e-07
1.763384679e-07
2.268129573e-07
2.808007804e-07
3.233234663e-07
7.77242861e-08
9.165730058e-08
1.146104512e-07
1.48772591e-07
1.967782313e-07
2.60718181e-07
3.39832327e-07
4.258155372e-07
4.946214139e-07
1.08974097e-07
1.291373089e-07
1.625742927e-07
2.127664651e-07
2.839837717e-07
3.798016976e-07
4.995592995e-07
6.310474598e-07
7.374424802e-07
1.533328822e-07
1.821249891e-07
2.300394151e-07
3.022731209e-07
4.052367973e-07
5.444102158e-07
7.192059366e-07
9.122932076e-07
1.070028666e-06
2.170638687e-07
2.575518481e-07
3.249532932e-07
4.265842428e-07
5.714533373e-07
7.673023866e-07
1.013604394e-06
1.287013027e-06
1.512345752e-06
3.089352534e-07
3.648816118e-07
4.577883481e-07
5.974211679e-07
7.9575327e-07
1.063094285e-06
1.399200364e-06
1.772242359e-06
2.078582182e-06
4.404275172e-07
5.16244158e-07
6.415780846e-07
8.288829865e-07
1.093428693e-06
1.448602193e-06
1.892028357e-06
2.379747225e-06
2.779261672e-06
6.256539785e-07
7.263196623e-07
8.918085056e-07
1.137387667e-06
1.482385608e-06
1.939641103e-06
2.502938546e-06
3.116412349e-06
3.616297598e-06
8.812520546e-07
1.012326759e-06
1.226978983e-06
1.542455066e-06
1.978265561e-06
2.547487415e-06
3.239366228e-06
3.984606472e-06
4.587668396e-06
1.227537928e-06
1.395049163e-06
1.665861623e-06
2.05830847e-06
2.592066406e-06
3.279444231e-06
4.103744052e-06
4.980513742e-06
5.684055511e-06
1.683036503e-06
1.890545418e-06
2.222390063e-06
2.696671766e-06
3.333141604e-06
4.139830163e-06
5.092883771e-06
6.093594297e-06
6.889001135e-06
2.26216839e-06
2.512183831e-06
2.907939121e-06
3.466274325e-06
4.204452406e-06
5.125281763e-06
6.196439126e-06
7.306192499e-06
8.17916225e-06
2.976231845e-06
3.269387581e-06
3.728600046e-06
4.369014297e-06
5.202598206e-06
6.226134788e-06
7.397013064e-06
8.593846129e-06
9.524981028e-06
3.83161268e-06
4.166485061e-06
4.68613172e-06
5.400527443e-06
6.316681805e-06
7.423524182e-06
8.66985441e-06
9.925859019e-06
1.089167414e-05
4.827870959e-06
5.200148355e-06
5.772280809e-06
6.548927851e-06
7.529052917e-06
8.693384839e-06
9.984288727e-06
1.126649307e-05
1.22405406e-05
5.956723053e-06
6.359224652e-06
6.971752661e-06
7.792465912e-06
8.812324255e-06
1.000401037e-05
1.130391083e-05
1.257580372e-05
1.352985493e-05
7.201129311e-06
7.623933147e-06
8.260978973e-06
9.103326054e-06
1.013384255e-05
1.131774414e-05
1.258723347e-05
1.380947438e-05
1.471301238e-05
8.534657651e-06
8.965333901e-06
9.607620643e-06
1.044533038e-05
1.145350725e-05
1.259077187e-05
1.378681201e-05
1.491536591e-05
1.572847489e-05
9.92122816e-06
1.034522003e-05
1.097065717e-05
1.1774364e-05
1.272414585e-05
1.377251141e-05
1.484756867e-05
1.58414747e-05
1.655491982e-05
1.131499231e-05
1.171601484e-05
1.230013929e-05
1.303756409e-05
1.389006948e-05
1.480491479e-05
1.573106814e-05
1.657993163e-05
1.718433526e-05
1.265893771e-05
1.301901474e-05
1.353431168e-05
1.416903713e-05
1.48908162e-05
1.565796369e-05
1.642209647e-05
1.711256975e-05
1.7599329e-05
1.38785825e-05
1.417964356e-05
1.460660094e-05
1.512739464e-05
1.570801092e-05
1.63121311e-05
1.690094922e-05
1.742371777e-05
1.778853177e-05
1.492650696e-05
1.51634966e-05
1.549415101e-05
1.588851601e-05
1.631552243e-05
1.674572586e-05
1.715232776e-05
1.75051859e-05
1.774918318e-05
1.577263226e-05
1.593923104e-05
1.616529469e-05
1.642437349e-05
1.669083828e-05
1.694391405e-05
1.716982668e-05
1.735837629e-05
1.748803753e-05
1.638285987e-05
1.647528642e-05
1.659276781e-05
1.671411693e-05
1.682096213e-05
1.690236438e-05
1.695759222e-05
1.6994619e-05
1.702100196e-05
1.673147544e-05
1.674982636e-05
1.67604475e-05
1.674883949e-05
1.670504757e-05
1.66283583e-05
1.653025323e-05
1.643430476e-05
1.637186248e-05
1.680671539e-05
1.675514592e-05
1.666631131e-05
1.653324341e-05
1.635483936e-05
1.614024502e-05
1.59116533e-05
1.570517609e-05
1.55703918e-05
1.661271441e-05
1.649894496e-05
1.632286264e-05
1.608522015e-05
1.579349636e-05
1.546568964e-05
1.513274722e-05
1.484008637e-05
1.46501148e-05
1.616893019e-05
1.600333645e-05
1.575563038e-05
1.543386323e-05
1.505322807e-05
1.463910521e-05
1.422901228e-05
1.387453202e-05
1.364599893e-05
1.550766057e-05
1.530215906e-05
1.500026284e-05
1.461640785e-05
1.417220207e-05
1.36986698e-05
1.323770633e-05
1.284422072e-05
1.259228306e-05
1.467027505e-05
1.443718956e-05
1.40987711e-05
1.367460134e-05
1.319116542e-05
1.268332699e-05
1.219531608e-05
1.178295598e-05
1.152067228e-05
1.370287415e-05
1.345395736e-05
1.309560019e-05
1.265113852e-05
1.21503366e-05
1.163018044e-05
1.113546305e-05
1.072099751e-05
1.045900308e-05
1.265212529e-05
1.239781846e-05
1.20340572e-05
1.158654212e-05
1.108680546e-05
1.057244147e-05
1.008736668e-05
9.683949143e-06
9.430396831e-06
1.156172753e-05
1.131070381e-05
1.095346011e-05
1.051679224e-05
1.003267884e-05
9.53807715e-06
9.074936355e-06
8.6921952e-06
8.452899778e-06
1.046985829e-05
1.022883517e-05
9.887221651e-06
9.47183411e-06
9.014022335e-06
8.549153389e-06
8.116449071e-06
7.760821802e-06
7.539538607e-06
9.407689277e-06
9.181460343e-06
8.861876388e-06
8.474929279e-06
8.050528267e-06
7.621779893e-06
7.22470951e-06
6.899920197e-06
6.698693935e-06
8.398877679e-06
8.190497869e-06
7.8969238e-06
7.542709586e-06
7.155763704e-06
6.766513824e-06
6.407560185e-06
6.115154091e-06
5.934685678e-06
7.459827205e-06
7.270885958e-06
7.005285545e-06
6.685740955e-06
6.337820311e-06
5.989064298e-06
5.668606476e-06
5.408476914e-06
5.248470713e-06
6.600471607e-06
6.431398791e-06
6.194156364e-06
5.909398443e-06
5.600194605e-06
5.291152544e-06
5.008035451e-06
4.778900376e-06
4.638370414e-06
5.825346235e-06
5.675711474e-06
5.466051473e-06
5.21487941e-06
4.942746813e-06
4.671404929e-06
4.423436353e-06
4.223243452e-06
4.1007665e-06
5.134752197e-06
5.003530999e-06
4.819886743e-06
4.600217468e-06
4.362637966e-06
4.126201712e-06
3.910558431e-06
3.736809197e-06
3.630723516e-06
4.525876504e-06
4.411672429e-06
4.251991365e-06
4.061215304e-06
3.855170656e-06
3.650422649e-06
3.463965729e-06
3.313962314e-06
3.222515945e-06
3.993785818e-06
3.895005226e-06
3.756987009e-06
3.592242526e-06
3.414498066e-06
3.238066451e-06
3.077573564e-06
2.948597096e-06
2.870052639e-06
3.532251999e-06
3.447234203e-06
3.328506633e-06
3.18688068e-06
3.034189955e-06
2.882738863e-06
2.745065961e-06
2.634497809e-06
2.567201763e-06
3.134400628e-06
3.061509486e-06
2.959751251e-06
2.838417663e-06
2.707661254e-06
2.578017408e-06
2.460203523e-06
2.365601457e-06
2.308026091e-06
2.7931939e-06
2.730878034e-06
2.643898526e-06
2.540206488e-06
2.428478833e-06
2.317708402e-06
2.21703677e-06
2.136177068e-06
2.086941945e-06
2.501770058e-06
2.448598841e-06
2.374384997e-06
2.285909548e-06
2.190566567e-06
2.09601496e-06
2.010042092e-06
1.940937071e-06
1.898816172e-06
2.253665684e-06
2.208347333e-06
2.145086274e-06
2.06965117e-06
1.988329645e-06
1.907634933e-06
1.834197221e-06
1.775095878e-06
1.739015061e-06
2.042946887e-06
2.004333947e-06
1.950418663e-06
1.886100054e-06
1.81671761e-06
1.747806119e-06
1.685011539e-06
1.63438925e-06
1.603417641e-06
1.864272831e-06
1.831359216e-06
1.785382996e-06
1.730500494e-06
1.67124304e-06
1.612313636e-06
1.558524253e-06
1.515065961e-06
1.48840392e-06
1.712911245e-06
1.684824007e-06
1.645567904e-06
1.598667989e-06
1.547969712e-06
1.497471594e-06
1.451281028e-06
1.413861106e-06
1.390826607e-06
1.584721678e-06
1.5607098e-06
1.527126251e-06
1.486961575e-06
1.443481134e-06
1.400088541e-06
1.360297305e-06
1.327958271e-06
1.307972959e-06
1.476118531e-06
1.455540369e-06
1.426735153e-06
1.392242222e-06
1.354837654e-06
1.317423814e-06
1.283014459e-06
1.254945991e-06
1.237521708e-06
1.384022779e-06
1.366333236e-06
1.341547235e-06
1.311824111e-06
1.279528096e-06
1.247139918e-06
1.217253244e-06
1.192772369e-06
1.177498621e-06
1.305808683e-06
1.290546829e-06
1.26913851e-06
1.243423574e-06
1.215420089e-06
1.187254494e-06
1.161167531e-06
1.139700499e-06
1.126233106e-06
1.239249804e-06
1.226027341e-06
1.207456517e-06
1.185108876e-06
1.160711803e-06
1.136094202e-06
1.113200335e-06
1.094266376e-06
1.082317408e-06
1.182467079e-06
1.170957874e-06
1.154771013e-06
1.135252864e-06
1.11388681e-06
1.092251907e-06
1.072043258e-06
1.055240293e-06
1.044569267e-06
1.133880619e-06
1.123811402e-06
1.109628587e-06
1.092489589e-06
1.073672975e-06
1.054547918e-06
1.03659996e-06
1.021592182e-06
1.011998463e-06
1.092166076e-06
1.083308267e-06
1.070811781e-06
1.055675433e-06
1.039005782e-06
1.021995558e-06
1.005953827e-06
9.924610216e-07
9.837773224e-07
1.056215886e-06
1.048378534e-06
1.037302994e-06
1.023854872e-06
1.008996142e-06
9.93771026e-07
9.793397437e-07
9.671281904e-07
9.592150571e-07
1.025105415e-06
1.018129126e-06
1.008253028e-06
9.962307108e-07
9.829024708e-07
9.691873448e-07
9.561197577e-07
9.449945174e-07
9.37735674e-07
9.980636751e-07
9.918154481e-07
9.829539598e-07
9.721384816e-07
9.601067374e-07
9.476720401e-07
9.357622599e-07
9.255606865e-07
9.188591299e-07
9.744482551e-07
9.688171068e-07
9.608159903e-07
9.510246122e-07
9.40094067e-07
9.287481806e-07
9.17824329e-07
9.084106281e-07
9.021853631e-07
9.537240266e-07
9.486173131e-07
9.413478034e-07
9.324279459e-07
9.224355041e-07
9.120183706e-07
9.019368424e-07
8.931975269e-07
8.873808459e-07
9.35445174e-07
9.307855059e-07
9.241400238e-07
9.159641845e-07
9.067735196e-07
8.971513086e-07
8.877919859e-07
8.796320916e-07
8.74167314e-07
9.192401064e-07
9.149627717e-07
9.088513436e-07
9.013128568e-07
8.92809882e-07
8.838705491e-07
8.751328196e-07
8.674727608e-07
8.623123573e-07
9.047988414e-07
9.008496593e-07
8.951969355e-07
8.882064436e-07
8.802955441e-07
8.71945139e-07
8.637445894e-07
8.565175505e-07
8.516215897e-07
8.918624943e-07
8.881960305e-07
8.829388083e-07
8.764213298e-07
8.690222347e-07
8.611818381e-07
8.534475125e-07
8.465972872e-07
8.419321502e-07
8.802145432e-07
8.767926295e-07
8.718777975e-07
8.657702956e-07
8.588154846e-07
8.514186695e-07
8.440907984e-07
8.375700009e-07
8.331073179e-07
8.696735863e-07
8.664640938e-07
8.618469284e-07
8.560962965e-07
8.495288513e-07
8.425195807e-07
8.355477013e-07
8.293162863e-07
8.250320573e-07
8.600873464e-07
8.570631687e-07
8.527059242e-07
8.47267318e-07
8.410391442e-07
8.343700311e-07
8.277114313e-07
8.217354699e-07
8.176093378e-07
8.513277125e-07
8.484659251e-07
8.443366658e-07
8.391721229e-07
8.33242478e-07
8.268733454e-07
8.204917769e-07
8.147424435e-07
8.107570923e-07
8.432866436e-07
8.405678075e-07
8.366394421e-07
8.317167393e-07
8.260510145e-07
8.199477038e-07
8.138123166e-07
8.082650502e-07
8.044057077e-07
8.358727851e-07
8.33280371e-07
8.295298527e-07
8.248215605e-07
8.193902726e-07
8.135236567e-07
8.076081168e-07
8.022419266e-07
7.984959513e-07
8.290086747e-07
8.265285859e-07
8.229362507e-07
8.184189502e-07
8.131969062e-07
8.075420722e-07
8.018238302e-07
7.966207204e-07
7.929772597e-07
8.226284352e-07
8.202486125e-07
8.167976303e-07
8.124512644e-07
8.074168691e-07
8.019524404e-07
7.964121258e-07
7.913566172e-07
7.878063238e-07
8.166758669e-07
8.143859613e-07
8.110618814e-07
8.068692162e-07
8.020038983e-07
7.967114722e-07
7.913323895e-07
7.864111231e-07
7.829459184e-07
8.111028714e-07
8.088939721e-07
8.056843456e-07
8.016305243e-07
7.969182591e-07
7.917819395e-07
7.865496494e-07
7.817510563e-07
7.783639342e-07
8.05868147e-07
8.037325558e-07
8.00626622e-07
7.966987927e-07
7.921257055e-07
7.871317139e-07
7.820336852e-07
7.773477114e-07
7.740325745e-07
8.009361075e-07
7.988671506e-07
7.958555761e-07
7.920425831e-07
7.875966189e-07
7.827329705e-07
7.777582893e-07
7.731761659e-07
7.699276883e-07
7.962759856e-07
7.942678575e-07
7.913425182e-07
7.876346442e-07
7.833052919e-07
7.78561525e-07
7.73700652e-07
7.692147036e-07
7.660282164e-07
7.918610878e-07
7.899087203e-07
7.870625204e-07
7.834512709e-07
7.792293334e-07
7.74596283e-07
7.698408501e-07
7.65444334e-07
7.623157291e-07
7.876681748e-07
7.857671281e-07
7.829938475e-07
7.794717707e-07
7.753491716e-07
7.708187802e-07
7.661614203e-07
7.618483911e-07
7.587740404e-07
7.836769442e-07
7.81823315e-07
7.791174823e-07
7.75678018e-07
7.716476401e-07
7.672127979e-07
7.626470016e-07
7.584121978e-07
7.553888854e-07
7.798695986e-07
7.780599434e-07
7.75416729e-07
7.720540815e-07
7.681096302e-07
7.637640418e-07
7.592840364e-07
7.551227846e-07
7.521476488e-07
7.762304839e-07
7.744617543e-07
7.718768799e-07
7.685859111e-07
7.647217999e-07
7.604598706e-07
7.560605186e-07
7.519686525e-07
7.490391373e-07
7.727457855e-07
7.710152735e-07
7.684849364e-07
7.652610751e-07
7.614723285e-07
7.57289069e-07
7.529657815e-07
7.489395729e-07
7.460533871e-07
7.694032727e-07
7.677085646e-07
7.65229373e-07
7.620685385e-07
7.5835071e-07
7.54241655e-07
7.499903183e-07
7.460264193e-07
7.431815008e-07
7.661920827e-07
7.645310197e-07
7.620999383e-07
7.589984754e-07
7.553475773e-07
7.513087167e-07
7.471256303e-07
7.43221023e-07
7.404155093e-07
7.63102538e-07
7.614731829e-07
7.590874862e-07
7.560421098e-07
7.524545539e-07
7.484822739e-07
7.443640971e-07
7.405160516e-07
7.377482536e-07
7.60125991e-07
7.585265999e-07
7.561838326e-07
7.531915805e-07
7.496641272e-07
7.4575516e-07
7.416988663e-07
7.37904904e-07
7.351732849e-07
7.57254692e-07
7.556836901e-07
7.533816331e-07
7.504398253e-07
7.469695399e-07
7.431209208e-07
7.391237589e-07
7.353816217e-07
7.326847774e-07
7.544816764e-07
7.529376365e-07
7.506742779e-07
7.477804821e-07
7.443646977e-07
7.405737275e-07
7.36633188e-07
7.32940811e-07
7.302774543e-07
7.518006672e-07
7.502822925e-07
7.480558024e-07
7.452078041e-07
7.418440889e-07
7.381083028e-07
7.342220886e-07
7.305775775e-07
7.279465239e-07
7.492059925e-07
7.477121004e-07
7.455208093e-07
7.427165858e-07
7.39402716e-07
7.357198551e-07
7.318858573e-07
7.282874679e-07
7.256876238e-07
7.466925125e-07
7.45222022e-07
7.43064402e-07
7.403021004e-07
7.370360353e-07
7.334040238e-07
7.296202993e-07
7.260664206e-07
7.234967726e-07
7.442555579e-07
7.428074774e-07
7.406821261e-07
7.379600437e-07
7.347399057e-07
7.311568294e-07
7.274215827e-07
7.239107219e-07
7.213703279e-07
7.418908748e-07
7.404642921e-07
7.383699188e-07
7.356864864e-07
7.325105423e-07
7.289746313e-07
7.252861981e-07
7.218169675e-07
7.193049492e-07
7.395945767e-07
7.381886506e-07
7.361240636e-07
7.33477831e-07
7.303444767e-07
7.268540896e-07
7.232109231e-07
7.197820294e-07
7.172975653e-07
7.373631021e-07
7.359770545e-07
7.339411507e-07
7.313307742e-07
7.28238521e-07
7.247921318e-07
7.211927905e-07
7.178030252e-07
7.153453454e-07
7.351931755e-07
7.338262847e-07
7.318180406e-07
7.292422716e-07
7.261897347e-07
7.227859213e-07
7.19229059e-07
7.158772907e-07
7.134456722e-07
7.330817718e-07
7.317333669e-07
7.2975183e-07
7.272095061e-07
7.241953942e-07
7.208328288e-07
7.173171863e-07
7.140023543e-07
7.115961177e-07
7.310260814e-07
7.296955371e-07
7.277398193e-07
7.252298554e-07
7.222529626e-07
7.189304035e-07
7.154548017e-07
7.121759115e-07
7.097944187e-07
7.290234751e-07
7.27710207e-07
7.257794782e-07
7.2330086e-07
7.203600579e-07
7.170763429e-07
7.136396781e-07
7.103957982e-07
7.080384512e-07
7.270714665e-07
7.257749272e-07
7.238684095e-07
7.214201861e-07
7.18514418e-07
7.152684593e-07
7.118696991e-07
7.086599598e-07
7.063262012e-07
7.251676689e-07
7.238873432e-07
7.220043052e-07
7.195855839e-07
7.167138583e-07
7.135046378e-07
7.101428194e-07
7.069664128e-07
7.04655728e-07
7.233097423e-07
7.220451433e-07
7.201848942e-07
7.177948332e-07
7.149562184e-07
7.117827835e-07
7.084570116e-07
7.053131938e-07
7.030251141e-07
7.214953278e-07
7.202459911e-07
7.184078736e-07
7.160456741e-07
7.132392906e-07
7.10100749e-07
7.068101949e-07
7.036982879e-07
7.014323955e-07
7.197219617e-07
7.184874385e-07
7.166708186e-07
7.143357143e-07
7.115607245e-07
7.084562364e-07
7.052001342e-07
7.021195282e-07
6.998754616e-07
7.179869631e-07
7.167668098e-07
7.149710635e-07
7.126623044e-07
7.099178966e-07
7.068466618e-07
7.036243006e-07
7.005744533e-07
6.983519116e-07
7.16287286e-07
7.1508105e-07
7.133055428e-07
7.110223711e-07
7.083077351e-07
7.052689703e-07
7.020796783e-07
6.990601072e-07
6.96858852e-07
7.146193263e-07
7.134265251e-07
7.11670582e-07
7.094121966e-07
7.067264846e-07
7.037193869e-07
7.005625007e-07
6.975727653e-07
6.953926147e-07
7.129786733e-07
7.117987641e-07
7.100616269e-07
7.078271301e-07
7.051693983e-07
7.021930863e-07
6.990679001e-07
6.961075642e-07
6.939483759e-07
7.113597927e-07
7.101921304e-07
7.084728967e-07
7.062612181e-07
7.036303409e-07
7.006837661e-07
6.975894488e-07
6.946580161e-07
6.925196522e-07
7.09755631e-07
7.085994108e-07
7.068969494e-07
7.047067399e-07
7.021012878e-07
6.991831053e-07
6.961185769e-07
6.932153878e-07
6.910976518e-07
7.081571315e-07
7.070113111e-07
7.053241493e-07
7.03153637e-07
7.005717085e-07
6.976800966e-07
6.946438491e-07
6.917679269e-07
6.896704653e-07
7.06552652e-07
7.054158514e-07
7.037420266e-07
7.015888267e-07
6.990278254e-07
6.961602409e-07
6.931500932e-07
6.90299925e-07
6.88222082e-07
7.049272828e-07
7.037976568e-07
7.021345279e-07
6.999954e-07
6.974517462e-07
6.946046062e-07
6.916173773e-07
6.88790619e-07
6.867312345e-07
7.032620651e-07
7.021371458e-07
7.004811603e-07
6.98351706e-07
6.958204769e-07
6.929887565e-07
6.900198495e-07
6.87212942e-07
6.851700831e-07
7.015331199e-07
7.004096279e-07
6.987560413e-07
6.966303407e-07
6.941048332e-07
6.912815752e-07
6.883244645e-07
6.855321544e-07
6.835027755e-07
6.997107064e-07
6.98584331e-07
6.969268796e-07
6.947970651e-07
6.922682842e-07
6.894440202e-07
6.864896415e-07
6.837044061e-07
6.816839346e-07
6.977582381e-07
6.966233888e-07
6.949539208e-07
6.92809696e-07
6.902657741e-07
6.874278666e-07
6.844639193e-07
6.816753022e-07
6.796571548e-07
6.956313003e-07
6.944808369e-07
6.927889099e-07
6.906170255e-07
6.880425897e-07
6.851745118e-07
6.821846923e-07
6.793785686e-07
6.773536106e-07
6.932767235e-07
6.921016732e-07
6.903741349e-07
6.88157842e-07
6.85533354e-07
6.826139388e-07
6.79577137e-07
6.767349389e-07
6.746909099e-07
6.906317807e-07
6.894210576e-07
6.876416294e-07
6.853601406e-07
6.826612474e-07
6.796639479e-07
6.765534555e-07
6.736514044e-07
6.715723435e-07
6.876235932e-07
6.86363739e-07
6.845126337e-07
6.821406263e-07
6.793375663e-07
6.76229784e-07
6.730125777e-07
6.700209847e-07
6.678867013e-07
6.841688295e-07
6.82843799e-07
6.808974064e-07
6.784046227e-07
6.754617507e-07
6.722043013e-07
6.688404719e-07
6.657231846e-07
6.63508834e-07
6.801738012e-07
6.787648189e-07
6.766955017e-07
6.740464962e-07
6.709219953e-07
6.674687957e-07
6.639112216e-07
6.606253019e-07
6.583011336e-07
6.755350531e-07
6.740205722e-07
6.717966181e-07
6.689507152e-07
6.655965707e-07
6.618946344e-07
6.580889937e-07
6.545847303e-07
6.521160812e-07
6.701405423e-07
6.684963383e-07
6.660821152e-07
6.629936394e-07
6.593559536e-07
6.553457859e-07
6.512310071e-07
6.474523589e-07
6.447999707e-07
6.638714855e-07
6.620709136e-07
6.594272751e-07
6.560461151e-07
6.520658344e-07
6.476823117e-07
6.431915542e-07
6.390771148e-07
6.361978433e-07
6.566049287e-07
6.546193733e-07
6.517043522e-07
6.479769079e-07
6.435910238e-07
6.387648229e-07
6.338270585e-07
6.293116113e-07
6.261595797e-07
6.482170585e-07
6.460165925e-07
6.427864109e-07
6.386569571e-07
6.338002169e-07
6.284598333e-07
6.230020659e-07
6.180187616e-07
6.145469806e-07
6.385872253e-07
6.361414886e-07
6.325518928e-07
6.279643676e-07
6.225714987e-07
6.166458511e-07
6.105959624e-07
6.050791017e-07
6.012415406e-07
6.276025963e-07
6.248818845e-07
6.208897909e-07
6.157899842e-07
6.097983936e-07
6.032199584e-07
5.965101089e-07
5.903984496e-07
5.86152491e-07
6.151632888e-07
6.121398277e-07
6.077052374e-07