/*--------------------------------*- C++ -*----------------------------------*\
| =========                 |                                                 |
| \\      /  F ield         | OpenFOAM: The Open Source CFD Toolbox           |
|  \\    /   O peration     | Version:  2212                                  |
|   \\  /    A nd           | Website:  www.openfoam.com                      |
|    \\/     M anipulation  |                                                 |
\*---------------------------------------------------------------------------*/
FoamFile
{
    version     2.0;
    format      ascii;
    arch        "LSB;label=32;scalar=64";
    class       volScalarField;
    location    "20.00000000";
    object      CH3_0;
}
// * * * * * * * * * * * * * * * * * * * * * * * * * * * * * * * * * * * * * //

dimensions      [0 0 0 0 0 0 0];

internalField   nonuniform List<scalar> 
3000
(
3.919818608e-24
4.399522103e-24
5.12317081e-24
6.087164033e-24
7.281589128e-24
8.674025981e-24
1.018072105e-23
1.161849327e-23
1.26351023e-23
1.47042746e-23
1.656931581e-23
1.938145767e-23
2.313569539e-23
2.782780741e-23
3.343214385e-23
3.98522871e-23
4.676754529e-23
5.289431738e-23
3.28878446e-23
3.734722135e-23
4.413493667e-23
5.334683002e-23
6.51465613e-23
7.97050324e-23
9.696523287e-23
1.159626969e-22
1.321959508e-22
6.250900933e-23
7.172068291e-23
8.594651748e-23
1.05661265e-22
1.315569191e-22
1.642870608e-22
2.036701274e-22
2.465590573e-22
2.811671775e-22
1.106969277e-22
1.285532305e-22
1.565605109e-22
1.961246783e-22
2.490878841e-22
3.169176594e-22
3.984662534e-22
4.850280935e-22
5.514477181e-22
1.89719761e-22
2.231151479e-22
2.76240242e-22
3.524454804e-22
4.55748652e-22
5.887024502e-22
7.472955026e-22
9.115205905e-22
1.032944394e-21
3.20834519e-22
3.81928534e-22
4.802368648e-22
6.228253169e-22
8.175238681e-22
1.068089769e-21
1.364065353e-21
1.664510295e-21
1.881133463e-21
5.40607211e-22
6.506678608e-22
8.293238982e-22
1.09041682e-21
1.448271388e-21
1.907794178e-21
2.445736402e-21
2.98376692e-21
3.36517541e-21
9.120554307e-22
1.108158162e-21
1.428504504e-21
1.8989735e-21
2.544849299e-21
3.371845249e-21
4.332873975e-21
5.28395994e-21
5.95069866e-21
1.543709803e-21
1.890273806e-21
2.458942984e-21
3.296704341e-21
4.44737408e-21
5.916687928e-21
7.614524479e-21
9.282388467e-21
1.044291446e-20
2.622677963e-21
3.231469527e-21
4.233514107e-21
5.712562151e-21
7.743897758e-21
1.033170363e-20
1.330950678e-20
1.621979503e-20
1.823486038e-20
4.471737638e-21
5.53650976e-21
7.29281264e-21
9.888219841e-21
1.345165232e-20
1.798265642e-20
2.318047948e-20
2.82425299e-20
3.173661398e-20
7.648089354e-21
9.504662898e-21
1.257152878e-20
1.710687739e-20
2.333120743e-20
3.123310404e-20
4.027581738e-20
4.905925709e-20
5.51173942e-20
1.311371765e-20
1.634403353e-20
2.168585891e-20
2.95892658e-20
4.043163388e-20
5.417644578e-20
6.986337992e-20
8.504829616e-20
9.558935257e-20
2.252858162e-20
2.814041652e-20
3.74284148e-20
5.117705888e-20
7.003608323e-20
9.391580727e-20
1.210678314e-19
1.470765594e-19
1.656679149e-19
3.875419022e-20
4.848973795e-20
6.461434941e-20
8.849711176e-20
1.212768242e-19
1.628480663e-19
2.103932994e-19
2.567011604e-19
2.877954147e-19
6.671967818e-20
8.358356664e-20
1.115256427e-19
1.529183116e-19
2.097176789e-19
2.816834707e-19
3.637725672e-19
4.431677305e-19
4.974051298e-19
1.14918967e-19
1.440924599e-19
1.924401631e-19
2.640599132e-19
3.623060577e-19
4.867033286e-19
6.284504813e-19
7.653845628e-19
8.591028696e-19
1.979956261e-19
2.484166363e-19
3.319874629e-19
4.557820948e-19
6.255653108e-19
8.404624501e-19
1.085220903e-18
1.321568301e-18
1.483302474e-18
3.412025829e-19
4.282922656e-19
5.726550395e-19
7.865025558e-19
1.079758462e-18
1.450855503e-18
1.873402286e-18
2.281310091e-18
2.560370496e-18
5.880949726e-19
7.384614017e-19
9.877354268e-19
1.356996003e-18
1.863338184e-18
2.503984556e-18
3.233300746e-18
3.937185848e-18
4.418627954e-18
1.013800249e-18
1.273352362e-18
1.703660083e-18
2.341100654e-18
3.215127875e-18
4.320844747e-18
5.579377196e-18
6.793780663e-18
7.624274123e-18
1.747911207e-18
2.19585624e-18
2.938528425e-18
4.038687877e-18
5.547076264e-18
7.455079971e-18
9.626413613e-18
1.172122498e-17
1.315364172e-17
3.013979847e-18
3.78697059e-18
5.068573087e-18
6.967029047e-18
9.569731152e-18
1.286154311e-17
1.660703335e-17
2.021993481e-17
2.269010628e-17
5.19764387e-18
6.531433369e-18
8.742797604e-18
1.201834171e-17
1.650851212e-17
2.218671031e-17
2.864635567e-17
3.487625929e-17
3.913523823e-17
8.96409489e-18
1.12653658e-17
1.508058912e-17
2.073129396e-17
2.84762659e-17
3.826861699e-17
4.940626704e-17
6.014559596e-17
6.748632037e-17
1.54605593e-17
1.9430753e-17
2.601226277e-17
3.575871191e-17
4.911472606e-17
6.599713103e-17
8.51934112e-17
1.036978981e-16
1.163433748e-16
2.666509602e-17
3.351380793e-17
4.486553741e-17
6.167260262e-17
8.469761373e-17
1.137918035e-16
1.468606492e-16
1.787251636e-16
2.00493026e-16
4.598657552e-17
5.779888967e-17
7.737377129e-17
1.063471734e-16
1.460239344e-16
1.961350299e-16
2.530610939e-16
3.078834833e-16
3.453160284e-16
7.929498738e-17
9.966288244e-17
1.334060127e-16
1.833296731e-16
2.516590839e-16
3.37900921e-16
4.357977779e-16
5.300032759e-16
5.942802701e-16
1.366863578e-16
1.7179168e-16
2.299271992e-16
3.158916769e-16
4.334628146e-16
5.817213876e-16
7.49842814e-16
9.114498071e-16
1.021603333e-15
2.354959554e-16
2.959621178e-16
3.960433319e-16
5.439216316e-16
7.459715727e-16
1.000451191e-15
1.288623872e-15
1.565222339e-15
1.753491303e-15
4.054203704e-16
5.09464951e-16
6.815561795e-16
9.35584374e-16
1.282220043e-15
1.718108289e-15
2.210801251e-15
2.682778343e-15
3.003427149e-15
6.971762667e-16
8.759478521e-16
1.171372779e-15
1.606898786e-15
2.200200534e-15
2.944727116e-15
3.784275411e-15
4.586472931e-15
5.130118237e-15
1.197036972e-15
1.503582307e-15
2.009573629e-15
2.754303406e-15
3.766650412e-15
5.033696247e-15
6.45813141e-15
7.814789551e-15
8.731299011e-15
2.051031126e-15
2.575218e-15
3.439194804e-15
4.708193498e-15
6.428572123e-15
8.574730872e-15
1.09784212e-14
1.325857058e-14
1.479296973e-14
3.50481646e-15
4.397867352e-15
5.867141302e-15
8.019665148e-15
1.092817156e-14
1.454196362e-14
1.85709475e-14
2.237439671e-14
2.492194126e-14
5.968593593e-15
7.482807333e-15
9.968459667e-15
1.359858032e-14
1.848392166e-14
2.452471096e-14
3.122309903e-14
3.751064967e-14
4.169915394e-14
1.012131761e-14
1.26731648e-14
1.685070849e-14
2.292859139e-14
3.10688626e-14
4.107741986e-14
5.210585888e-14
6.239068474e-14
6.919990801e-14
1.707540482e-14
2.134339753e-14
2.830736048e-14
3.839331949e-14
5.182552393e-14
6.823244203e-14
8.618240936e-14
1.028008444e-13
1.137290987e-13
2.863281296e-14
3.570490489e-14
4.719861499e-14
6.375578177e-14
8.5661441e-14
1.122186022e-13
1.410424555e-13
1.67517292e-13
1.848016241e-13
4.767714943e-14
5.926481481e-14
7.800814561e-14
1.048376406e-13
1.400638612e-13
1.824087449e-13
2.279639662e-13
2.694509446e-13
2.963320767e-13
7.876783784e-14
9.750364587e-14
1.276364787e-13
1.704440926e-13
2.261492536e-13
2.924632311e-13
3.631052882e-13
4.268470794e-13
4.678247274e-13
1.290405907e-13
1.588716918e-13
2.065153983e-13
2.735814515e-13
3.599225071e-13
4.615267916e-13
5.685237746e-13
6.640584532e-13
7.249529917e-13
2.095948239e-13
2.562793433e-13
3.301949698e-13
4.330555258e-13
5.636991827e-13
7.151899753e-13
8.723623195e-13
1.010777766e-12
1.098039763e-12
3.377020027e-13
4.094255061e-13
5.217412662e-13
6.757295484e-13
8.677892984e-13
1.085906199e-12
1.307140541e-12
1.497552798e-12
1.615167154e-12
5.404419729e-13
6.486390055e-13
8.157092339e-13
1.04027889e-12
1.313232929e-12
1.61325742e-12
1.905395364e-12
2.144542994e-12
2.283984464e-12
8.607359121e-13
1.021386283e-12
1.2651641e-12
1.584411019e-12
1.958226023e-12
2.347372333e-12
2.696022224e-12
2.945143311e-12
3.059820297e-12
1.366886666e-12
1.602842251e-12
1.953734236e-12
2.398713328e-12
2.893797801e-12
3.365931611e-12
3.721434776e-12
3.882258724e-12
3.860747681e-12
2.165777067e-12
2.510761255e-12
3.013248096e-12
3.628826439e-12
4.274553265e-12
4.824829445e-12
5.141236115e-12
5.168884676e-12
5.0774618e-12
3.416283117e-12
3.920544049e-12
4.641805983e-12
5.500021149e-12
6.363110001e-12
7.074942657e-12
7.601436527e-12
8.399376857e-12
9.392264187e-12
5.331799725e-12
6.068935502e-12
7.111729792e-12
8.342175109e-12
9.630775927e-12
1.108679605e-11
1.38209691e-11
1.773356576e-11
2.13422227e-11
8.151218846e-12
9.23433271e-12
1.078882e-11
1.275088438e-11
1.543975615e-11
2.122447432e-11
3.031215259e-11
4.198658105e-11
5.258814275e-11
1.208014628e-11
1.375554475e-11
1.644229983e-11
2.08884483e-11
3.035674141e-11
4.65058581e-11
7.075777707e-11
1.018597763e-10
1.305455508e-10
1.752142488e-11
2.072182158e-11
2.762193325e-11
4.131657912e-11
6.560674222e-11
1.052789266e-10
1.64205962e-10
2.392129791e-10
3.074614349e-10
2.808987176e-11
3.741368516e-11
5.563809574e-11
8.863877305e-11
1.450165903e-10
2.350735004e-10
3.649077177e-10
5.220439007e-10
6.557804663e-10
5.662713119e-11
7.856694596e-11
1.204486385e-10
1.943770888e-10
3.172685223e-10
5.053887626e-10
7.581753513e-10
1.03538986e-09
1.246974325e-09
1.252004318e-10
1.741741847e-10
2.659979894e-10
4.233885041e-10
6.726121387e-10
1.025860754e-09
1.452912901e-09
1.869286938e-09
2.155957304e-09
2.852044119e-10
3.9050304e-10
5.819474894e-10
8.936896502e-10
1.350669937e-09
1.935931086e-09
2.571026554e-09
3.138417191e-09
3.506839445e-09
6.44265064e-10
8.560826184e-10
1.222929833e-09
1.7788688e-09
2.523219338e-09
3.392985723e-09
4.275097117e-09
5.035347662e-09
5.518932886e-09
1.384709647e-09
1.768014012e-09
2.394910408e-09
3.278767694e-09
4.382126049e-09
5.612071087e-09
6.837046864e-09
7.890670908e-09
8.559589376e-09
2.731051928e-09
3.347363845e-09
4.311084215e-09
5.612002767e-09
7.193842327e-09
8.949657518e-09
1.071531413e-08
1.22539094e-08
1.324003555e-08
4.884417839e-09
5.799528408e-09
7.206008787e-09
9.089388525e-09
1.139231015e-08
1.398943507e-08
1.665569593e-08
1.903022996e-08
2.05823929e-08
8.045939735e-09
9.376942845e-09
1.142865806e-08
1.42048199e-08
1.765953747e-08
2.164593402e-08
2.584832634e-08
2.969999622e-08
3.229306625e-08
1.251637776e-08
1.447066614e-08
1.751366056e-08
2.169634955e-08
2.701374922e-08
3.331162639e-08
4.015503184e-08
4.664377259e-08
5.117217695e-08
1.874555921e-08
2.164671975e-08
2.621812358e-08
3.261207028e-08
4.092633123e-08
5.104924679e-08
6.240870205e-08
7.357093124e-08
8.165610764e-08
2.734864378e-08
3.167518013e-08
3.857656741e-08
4.840066012e-08
6.14689076e-08
7.782293352e-08
9.675828389e-08
1.160013126e-07
1.304200846e-07
3.916167176e-08
4.56001082e-08
5.599418094e-08
7.104324549e-08
9.149707532e-08
1.177485786e-07
1.489999805e-07
1.816848188e-07
2.068741785e-07
5.536505948e-08
6.488204537e-08
8.04164913e-08
1.032534214e-07
1.348789834e-07
1.763384666e-07
2.268129556e-07
2.808007786e-07
3.233234647e-07
7.772428568e-08
9.165730002e-08
1.146104504e-07
1.4877259e-07
1.967782299e-07
2.607181791e-07
3.398323247e-07
4.258155346e-07
4.946214116e-07
1.089740964e-07
1.291373081e-07
1.625742917e-07
2.127664637e-07
2.839837697e-07
3.798016949e-07
4.995592962e-07
6.310474562e-07
7.374424771e-07
1.533328813e-07
1.82124988e-07
2.300394136e-07
3.022731188e-07
4.052367946e-07
5.444102122e-07
7.192059322e-07
9.122932028e-07
1.070028662e-06
2.170638674e-07
2.575518465e-07
3.249532911e-07
4.2658424e-07
5.714533336e-07
7.673023819e-07
1.013604388e-06
1.287013021e-06
1.512345747e-06
3.089352516e-07
3.648816096e-07
4.577883452e-07
5.974211642e-07
7.957532652e-07
1.063094279e-06
1.399200356e-06
1.772242352e-06
2.078582176e-06
4.404275147e-07
5.162441549e-07
6.415780807e-07
8.288829816e-07
1.093428686e-06
1.448602185e-06
1.892028348e-06
2.379747215e-06
2.779261665e-06
6.25653975e-07
7.263196581e-07
8.918085004e-07
1.137387661e-06
1.4823856e-06
1.939641094e-06
2.502938535e-06
3.116412339e-06
3.61629759e-06
8.812520501e-07
1.012326754e-06
1.226978977e-06
1.542455058e-06
1.978265551e-06
2.547487404e-06
3.239366215e-06
3.98460646e-06
4.587668387e-06
1.227537922e-06
1.395049156e-06
1.665861615e-06
2.05830846e-06
2.592066395e-06
3.279444218e-06
4.103744038e-06
4.980513729e-06
5.684055501e-06
1.683036496e-06
1.890545409e-06
2.222390053e-06
2.696671755e-06
3.333141591e-06
4.139830148e-06
5.092883755e-06
6.093594283e-06
6.889001124e-06
2.262168381e-06
2.51218382e-06
2.907939109e-06
3.466274311e-06
4.204452391e-06
5.125281747e-06
6.196439109e-06
7.306192484e-06
8.17916224e-06
2.976231834e-06
3.269387569e-06
3.728600032e-06
4.369014282e-06
5.20259819e-06
6.22613477e-06
7.397013047e-06
8.593846114e-06
9.524981018e-06
3.831612667e-06
4.166485047e-06
4.686131704e-06
5.400527426e-06
6.316681788e-06
7.423524163e-06
8.669854392e-06
9.925859004e-06
1.089167413e-05
4.827870945e-06
5.200148339e-06
5.772280792e-06
6.548927833e-06
7.529052898e-06
8.69338482e-06
9.98428871e-06
1.126649305e-05
1.224054059e-05
5.956723038e-06
6.359224635e-06
6.971752643e-06
7.792465894e-06
8.812324237e-06
1.000401035e-05
1.130391082e-05
1.257580371e-05
1.352985492e-05
7.201129294e-06
7.623933129e-06
8.260978954e-06
9.103326035e-06
1.013384253e-05
1.131774412e-05
1.258723345e-05
1.380947437e-05
1.471301238e-05
8.534657633e-06
8.965333882e-06
9.607620625e-06
1.044533036e-05
1.145350724e-05
1.259077186e-05
1.378681199e-05
1.49153659e-05
1.572847488e-05
9.921228142e-06
1.034522001e-05
1.097065716e-05
1.177436399e-05
1.272414581e-05
1.377251142e-05
1.484756866e-05
1.58414747e-05
1.655491982e-05
1.13149923e-05
1.171601482e-05
1.230013928e-05
1.3037564e-05
1.389006582e-05
1.480491472e-05
1.573106814e-05
1.657993163e-05
1.718433526e-05
1.265893769e-05
1.301901473e-05
1.353431167e-05
1.416903716e-05
1.489081614e-05
1.565796369e-05
1.642209647e-05
1.711256975e-05
1.759932901e-05
1.387858248e-05
1.417964355e-05
1.460660093e-05
1.512739463e-05
1.570801092e-05
1.63121311e-05
1.690094922e-05
1.742371777e-05
1.778853177e-05
1.492650694e-05
1.516349659e-05
1.549415101e-05
1.5888516e-05
1.631552243e-05
1.674572586e-05
1.715232776e-05
1.750518591e-05
1.774918319e-05
1.577263225e-05
1.593923104e-05
1.616529468e-05
1.642437349e-05
1.669083828e-05
1.694391406e-05
1.716982668e-05
1.73583763e-05
1.748803754e-05
1.638285986e-05
1.647528641e-05
1.65927678e-05
1.671411693e-05
1.682096213e-05
1.690236439e-05
1.695759223e-05
1.699461902e-05
1.702100197e-05
1.673147544e-05
1.674982636e-05
1.67604475e-05
1.674883949e-05
1.670504758e-05
1.662835831e-05
1.653025324e-05
1.643430477e-05
1.63718625e-05
1.680671539e-05
1.675514593e-05
1.666631132e-05
1.653324342e-05
1.635483937e-05
1.614024504e-05
1.591165332e-05
1.57051761e-05
1.557039181e-05
1.661271441e-05
1.649894497e-05
1.632286265e-05
1.608522016e-05
1.579349637e-05
1.546568966e-05
1.513274724e-05
1.484008639e-05
1.465011482e-05
1.61689302e-05
1.600333646e-05
1.57556304e-05
1.543386325e-05
1.505322809e-05
1.463910524e-05
1.422901231e-05
1.387453204e-05
1.364599895e-05
1.550766058e-05
1.530215907e-05
1.500026286e-05
1.461640787e-05
1.417220209e-05
1.369866982e-05
1.323770636e-05
1.284422074e-05
1.259228308e-05
1.467027506e-05
1.443718957e-05
1.409877112e-05
1.367460136e-05
1.319116545e-05
1.268332701e-05
1.219531611e-05
1.1782956e-05
1.15206723e-05
1.370287417e-05
1.345395738e-05
1.309560021e-05
1.265113854e-05
1.215033662e-05
1.163018047e-05
1.113546308e-05
1.072099754e-05
1.045900309e-05
1.26521253e-05
1.239781848e-05
1.203405722e-05
1.158654214e-05
1.108680548e-05
1.05724415e-05
1.00873667e-05
9.683949164e-06
9.430396848e-06
1.156172754e-05
1.131070383e-05
1.095346013e-05
1.051679227e-05
1.003267887e-05
9.538077173e-06
9.074936378e-06
8.69219522e-06
8.452899793e-06
1.046985831e-05
1.022883519e-05
9.887221673e-06
9.471834131e-06
9.014022357e-06
8.549153411e-06
8.116449092e-06
7.76082182e-06
7.539538621e-06
9.407689293e-06
9.181460362e-06
8.861876408e-06
8.474929299e-06
8.050528288e-06
7.621779914e-06
7.22470953e-06
6.899920213e-06
6.698693948e-06
8.398877694e-06
8.190497887e-06
7.896923819e-06
7.542709605e-06
7.155763723e-06
6.766513842e-06
6.407560202e-06
6.115154106e-06
5.934685689e-06
7.459827219e-06
7.270885973e-06
7.005285562e-06
6.685740972e-06
6.337820328e-06
5.989064315e-06
5.668606492e-06
5.408476927e-06
5.248470724e-06
6.600471619e-06
6.431398805e-06
6.194156379e-06
5.909398459e-06
5.60019462e-06
5.291152559e-06
5.008035465e-06
4.778900387e-06
4.638370423e-06
5.825346246e-06
5.675711487e-06
5.466051487e-06
5.214879424e-06
4.942746827e-06
4.671404942e-06
4.423436366e-06
4.223243462e-06
4.100766508e-06
5.134752207e-06
5.00353101e-06
4.819886755e-06
4.600217479e-06
4.362637978e-06
4.126201724e-06
3.910558442e-06
3.736809206e-06
3.630723523e-06
4.525876512e-06
4.411672438e-06
4.251991375e-06
4.061215314e-06
3.855170666e-06
3.650422658e-06
3.463965738e-06
3.313962321e-06
3.222515951e-06
3.993785825e-06
3.895005234e-06
3.756987018e-06
3.592242535e-06
3.414498075e-06
3.238066459e-06
3.077573571e-06
2.948597102e-06
2.870052643e-06
3.532252005e-06
3.44723421e-06
3.328506641e-06
3.186880687e-06
3.034189962e-06
2.88273887e-06
2.745065968e-06
2.634497815e-06
2.567201767e-06
3.134400633e-06
3.061509492e-06
2.959751257e-06
2.838417669e-06
2.70766126e-06
2.578017414e-06
2.460203529e-06
2.365601462e-06
2.308026094e-06
2.793193904e-06
2.730878039e-06
2.643898531e-06
2.540206494e-06
2.428478838e-06
2.317708407e-06
2.217036775e-06
2.136177071e-06
2.086941947e-06
2.501770062e-06
2.448598845e-06
2.374385002e-06
2.285909553e-06
2.190566572e-06
2.096014964e-06
2.010042096e-06
1.940937074e-06
1.898816174e-06
2.253665687e-06
2.208347337e-06
2.145086277e-06
2.069651174e-06
1.988329649e-06
1.907634937e-06
1.834197224e-06
1.775095881e-06
1.739015063e-06
2.04294689e-06
2.00433395e-06
1.950418666e-06
1.886100057e-06
1.816717613e-06
1.747806122e-06
1.685011541e-06
1.634389252e-06
1.603417642e-06
1.864272833e-06
1.831359219e-06
1.785382999e-06
1.730500497e-06
1.671243042e-06
1.612313639e-06
1.558524255e-06
1.515065963e-06
1.488403921e-06
1.712911247e-06
1.684824009e-06
1.645567906e-06
1.598667991e-06
1.547969714e-06
1.497471596e-06
1.45128103e-06
1.413861108e-06
1.390826608e-06
1.584721679e-06
1.560709802e-06
1.527126253e-06
1.486961577e-06
1.443481136e-06
1.400088543e-06
1.360297306e-06
1.327958272e-06
1.30797296e-06
1.476118532e-06
1.45554037e-06
1.426735154e-06
1.392242223e-06
1.354837655e-06
1.317423816e-06
1.283014461e-06
1.254945992e-06
1.237521709e-06
1.38402278e-06
1.366333237e-06
1.341547236e-06
1.311824113e-06
1.279528098e-06
1.247139919e-06
1.217253245e-06
1.19277237e-06
1.177498621e-06
1.305808684e-06
1.29054683e-06
1.269138511e-06
1.243423575e-06
1.215420091e-06
1.187254495e-06
1.161167532e-06
1.1397005e-06
1.126233107e-06
1.239249805e-06
1.226027342e-06
1.207456518e-06
1.185108877e-06
1.160711804e-06
1.136094203e-06
1.113200336e-06
1.094266377e-06
1.082317409e-06
1.182467079e-06
1.170957875e-06
1.154771014e-06
1.135252864e-06
1.113886811e-06
1.092251908e-06
1.072043258e-06
1.055240293e-06
1.044569267e-06
1.13388062e-06
1.123811403e-06
1.109628587e-06
1.092489589e-06
1.073672976e-06
1.054547919e-06
1.036599961e-06
1.021592183e-06
1.011998463e-06
1.092166076e-06
1.083308268e-06
1.070811781e-06
1.055675434e-06
1.039005783e-06
1.021995558e-06
1.005953827e-06
9.924610221e-07
9.837773228e-07
1.056215886e-06
1.048378534e-06
1.037302995e-06
1.023854872e-06
1.008996142e-06
9.937710265e-07
9.793397442e-07
9.671281908e-07
9.592150574e-07
1.025105415e-06
1.018129127e-06
1.008253028e-06
9.962307114e-07
9.829024713e-07
9.691873453e-07
9.561197582e-07
9.449945178e-07
9.377356743e-07
9.980636754e-07
9.918154485e-07
9.829539603e-07
9.72138482e-07
9.601067379e-07
9.476720405e-07
9.357622603e-07
9.255606869e-07
9.188591302e-07
9.744482555e-07
9.688171072e-07
9.608159907e-07
9.510246126e-07
9.400940674e-07
9.287481809e-07
9.178243294e-07
9.084106284e-07
9.021853633e-07
9.537240269e-07
9.486173134e-07
9.413478037e-07
9.324279463e-07
9.224355044e-07
9.120183709e-07
9.019368427e-07
8.931975272e-07
8.873808461e-07
9.354451743e-07
9.307855062e-07
9.241400241e-07
9.159641848e-07
9.067735199e-07
8.971513089e-07
8.877919862e-07
8.796320919e-07
8.741673142e-07
9.192401066e-07
9.14962772e-07
9.088513439e-07
9.013128571e-07
8.928098823e-07
8.838705494e-07
8.751328198e-07
8.67472761e-07
8.623123574e-07
9.047988416e-07
9.008496595e-07
8.951969358e-07
8.882064439e-07
8.802955444e-07
8.719451392e-07
8.637445896e-07
8.565175507e-07
8.516215899e-07
8.918624945e-07
8.881960307e-07
8.829388085e-07
8.7642133e-07
8.690222349e-07
8.611818383e-07
8.534475127e-07
8.465972874e-07
8.419321504e-07
8.802145433e-07
8.767926297e-07
8.718777977e-07
8.657702958e-07
8.588154848e-07
8.514186697e-07
8.440907986e-07
8.37570001e-07
8.33107318e-07
8.696735865e-07
8.66464094e-07
8.618469286e-07
8.560962967e-07
8.495288515e-07
8.425195809e-07
8.355477015e-07
8.293162865e-07
8.250320574e-07
8.600873465e-07
8.570631689e-07
8.527059243e-07
8.472673182e-07
8.410391444e-07
8.343700313e-07
8.277114315e-07
8.217354701e-07
8.176093379e-07
8.513277126e-07
8.484659253e-07
8.44336666e-07
8.391721231e-07
8.332424781e-07
8.268733455e-07
8.204917771e-07
8.147424436e-07
8.107570924e-07
8.432866437e-07
8.405678077e-07
8.366394423e-07
8.317167394e-07
8.260510146e-07
8.19947704e-07
8.138123168e-07
8.082650503e-07
8.044057077e-07
8.358727852e-07
8.332803711e-07
8.295298529e-07
8.248215607e-07
8.193902727e-07
8.135236569e-07
8.076081169e-07
8.022419267e-07
7.984959514e-07
8.290086748e-07
8.26528586e-07
8.229362508e-07
8.184189504e-07
8.131969063e-07
8.075420723e-07
8.018238304e-07
7.966207205e-07
7.929772598e-07
8.226284353e-07
8.202486126e-07
8.167976304e-07
8.124512645e-07
8.074168692e-07
8.019524405e-07
7.964121259e-07
7.913566173e-07
7.878063238e-07
8.166758669e-07
8.143859614e-07
8.110618815e-07
8.068692163e-07
8.020038984e-07
7.967114723e-07
7.913323896e-07
7.864111232e-07
7.829459185e-07
8.111028715e-07
8.088939722e-07
8.056843457e-07
8.016305244e-07
7.969182592e-07
7.917819396e-07
7.865496495e-07
7.817510564e-07
7.783639343e-07
8.058681471e-07
8.037325559e-07
8.006266221e-07
7.966987928e-07
7.921257056e-07
7.87131714e-07
7.820336853e-07
7.773477114e-07
7.740325745e-07
8.009361076e-07
7.988671507e-07
7.958555762e-07
7.920425832e-07
7.875966189e-07
7.827329706e-07
7.777582894e-07
7.73176166e-07
7.699276883e-07
7.962759857e-07
7.942678575e-07
7.913425183e-07
7.876346443e-07
7.83305292e-07
7.785615251e-07
7.737006521e-07
7.692147037e-07
7.660282164e-07
7.918610879e-07
7.899087204e-07
7.870625205e-07
7.834512709e-07
7.792293335e-07
7.745962831e-07
7.698408502e-07
7.654443341e-07
7.623157291e-07
7.876681749e-07
7.857671282e-07
7.829938475e-07
7.794717707e-07
7.753491717e-07
7.708187802e-07
7.661614203e-07
7.618483911e-07
7.587740404e-07
7.836769442e-07
7.81823315e-07
7.791174824e-07
7.756780181e-07
7.716476401e-07
7.67212798e-07
7.626470017e-07
7.584121979e-07
7.553888854e-07
7.798695986e-07
7.780599434e-07
7.75416729e-07
7.720540816e-07
7.681096302e-07
7.637640418e-07
7.592840364e-07
7.551227847e-07
7.521476488e-07
7.762304839e-07
7.744617543e-07
7.7187688e-07
7.685859112e-07
7.647217999e-07
7.604598706e-07
7.560605186e-07
7.519686525e-07
7.490391374e-07
7.727457855e-07
7.710152736e-07
7.684849365e-07
7.652610752e-07
7.614723286e-07
7.572890691e-07
7.529657815e-07
7.489395729e-07
7.460533872e-07
7.694032727e-07
7.677085646e-07
7.652293731e-07
7.620685386e-07
7.583507101e-07
7.54241655e-07
7.499903184e-07
7.460264193e-07
7.431815009e-07
7.661920827e-07
7.645310197e-07
7.620999383e-07
7.589984754e-07
7.553475773e-07
7.513087167e-07
7.471256304e-07
7.43221023e-07
7.404155093e-07
7.63102538e-07
7.614731829e-07
7.590874862e-07
7.560421098e-07
7.524545539e-07
7.48482274e-07
7.443640972e-07
7.405160516e-07
7.377482537e-07
7.60125991e-07
7.585266e-07
7.561838326e-07
7.531915805e-07
7.496641272e-07
7.457551601e-07
7.416988664e-07
7.379049041e-07
7.351732849e-07
7.57254692e-07
7.556836901e-07
7.533816331e-07
7.504398253e-07
7.469695399e-07
7.431209208e-07
7.39123759e-07
7.353816217e-07
7.326847774e-07
7.544816764e-07
7.529376365e-07
7.506742779e-07
7.477804822e-07
7.443646977e-07
7.405737276e-07
7.36633188e-07
7.32940811e-07
7.302774543e-07
7.518006672e-07
7.502822925e-07
7.480558024e-07
7.452078041e-07
7.41844089e-07
7.381083028e-07
7.342220886e-07
7.305775775e-07
7.279465239e-07
7.492059925e-07
7.477121004e-07
7.455208093e-07
7.427165858e-07
7.39402716e-07
7.357198551e-07
7.318858573e-07
7.282874679e-07
7.256876237e-07
7.466925125e-07
7.45222022e-07
7.43064402e-07
7.403021004e-07
7.370360353e-07
7.334040238e-07
7.296202993e-07
7.260664206e-07
7.234967725e-07
7.442555579e-07
7.428074774e-07
7.406821261e-07
7.379600437e-07
7.347399057e-07
7.311568294e-07
7.274215827e-07
7.239107218e-07
7.213703278e-07
7.418908748e-07
7.404642921e-07
7.383699188e-07
7.356864864e-07
7.325105422e-07
7.289746313e-07
7.252861981e-07
7.218169675e-07
7.193049491e-07
7.395945767e-07
7.381886506e-07
7.361240635e-07
7.33477831e-07
7.303444767e-07
7.268540896e-07
7.232109231e-07
7.197820294e-07
7.172975653e-07
7.373631021e-07
7.359770544e-07
7.339411506e-07
7.313307741e-07
7.282385209e-07
7.247921318e-07
7.211927905e-07
7.178030252e-07
7.153453454e-07
7.351931755e-07
7.338262847e-07
7.318180405e-07
7.292422716e-07
7.261897346e-07
7.227859213e-07
7.19229059e-07
7.158772906e-07
7.134456722e-07
7.330817718e-07
7.317333669e-07
7.2975183e-07
7.27209506e-07
7.241953942e-07
7.208328288e-07
7.173171862e-07
7.140023542e-07
7.115961177e-07
7.310260813e-07
7.29695537e-07
7.277398192e-07
7.252298554e-07
7.222529626e-07
7.189304034e-07
7.154548016e-07
7.121759114e-07
7.097944186e-07
7.29023475e-07
7.27710207e-07
7.257794782e-07
7.233008599e-07
7.203600578e-07
7.170763428e-07
7.13639678e-07
7.103957981e-07
7.080384511e-07
7.270714665e-07
7.257749271e-07
7.238684094e-07
7.21420186e-07
7.185144179e-07
7.152684592e-07
7.11869699e-07
7.086599597e-07
7.063262011e-07
7.251676688e-07
7.238873431e-07
7.220043051e-07
7.195855838e-07
7.167138582e-07
7.135046377e-07
7.101428193e-07
7.069664127e-07
7.046557279e-07
7.233097422e-07
7.220451431e-07
7.201848941e-07
7.177948331e-07
7.149562183e-07
7.117827834e-07
7.084570115e-07
7.053131937e-07
7.03025114e-07
7.214953277e-07
7.20245991e-07
7.184078734e-07
7.16045674e-07
7.132392905e-07
7.101007488e-07
7.068101948e-07
7.036982878e-07
7.014323954e-07
7.197219616e-07
7.184874383e-07
7.166708185e-07
7.143357142e-07
7.115607243e-07
7.084562362e-07
7.05200134e-07
7.02119528e-07
6.998754614e-07
7.17986963e-07
7.167668097e-07
7.149710634e-07
7.126623043e-07
7.099178965e-07
7.068466616e-07
7.036243004e-07
7.005744531e-07
6.983519114e-07
7.162872858e-07
7.150810499e-07
7.133055426e-07
7.11022371e-07
7.083077349e-07
7.052689702e-07
7.020796781e-07
6.99060107e-07
6.968588518e-07
7.146193261e-07
7.134265249e-07
7.116705818e-07
7.094121964e-07
7.067264844e-07
7.037193867e-07
7.005625005e-07
6.975727651e-07
6.953926144e-07
7.129786731e-07
7.117987639e-07
7.100616267e-07
7.078271299e-07
7.051693981e-07
7.021930861e-07
6.990678998e-07
6.961075639e-07
6.939483757e-07
7.113597924e-07
7.101921302e-07
7.084728964e-07
7.062612178e-07
7.036303407e-07
7.006837658e-07
6.975894485e-07
6.946580158e-07
6.925196519e-07
7.097556307e-07
7.085994105e-07
7.068969491e-07
7.047067397e-07
7.021012875e-07
6.99183105e-07
6.961185766e-07
6.932153875e-07
6.910976515e-07
7.081571312e-07
7.070113108e-07
7.05324149e-07
7.031536367e-07
7.005717082e-07
6.976800962e-07
6.946438488e-07
6.917679266e-07
6.896704649e-07
7.065526517e-07
7.054158511e-07
7.037420262e-07
7.015888264e-07
6.99027825e-07
6.961602406e-07
6.931500928e-07
6.902999246e-07
6.882220816e-07
7.049272824e-07
7.037976564e-07
7.021345276e-07
6.999953996e-07
6.974517458e-07
6.946046059e-07
6.916173769e-07
6.887906186e-07
6.867312341e-07
7.032620647e-07
7.021371454e-07
7.004811599e-07
6.983517056e-07
6.958204765e-07
6.929887561e-07
6.900198491e-07
6.872129415e-07
6.851700826e-07
7.015331195e-07
7.004096275e-07
6.987560409e-07
6.966303402e-07
6.941048328e-07
6.912815747e-07
6.88324464e-07
6.855321539e-07
6.83502775e-07
6.997107059e-07
6.985843305e-07
6.969268791e-07
6.947970646e-07
6.922682837e-07
6.894440197e-07
6.86489641e-07
6.837044056e-07
6.816839341e-07
6.977582375e-07
6.966233883e-07
6.949539203e-07
6.928096954e-07
6.902657736e-07
6.87427866e-07
6.844639187e-07
6.816753016e-07
6.796571541e-07
6.956312998e-07
6.944808363e-07
6.927889093e-07
6.906170249e-07
6.880425891e-07
6.851745112e-07
6.821846916e-07
6.793785679e-07
6.773536099e-07
6.932767229e-07
6.921016726e-07
6.903741342e-07
6.881578414e-07
6.855333533e-07
6.826139381e-07
6.795771363e-07
6.767349381e-07
6.746909092e-07
6.9063178e-07
6.894210569e-07
6.876416287e-07
6.853601398e-07
6.826612467e-07
6.796639471e-07
6.765534547e-07
6.736514036e-07
6.715723427e-07
6.876235924e-07
6.863637383e-07
6.84512633e-07
6.821406255e-07
6.793375655e-07
6.762297832e-07
6.730125769e-07
6.700209839e-07
6.678867004e-07
6.841688287e-07
6.828437982e-07
6.808974056e-07
6.784046219e-07
6.754617498e-07
6.722043004e-07
6.68840471e-07
6.657231837e-07
6.635088331e-07
6.801738003e-07
6.78764818e-07
6.766955008e-07
6.740464953e-07
6.709219944e-07
6.674687947e-07
6.639112206e-07
6.606253009e-07
6.583011325e-07
6.755350521e-07
6.740205712e-07
6.717966171e-07
6.689507141e-07
6.655965697e-07
6.618946333e-07
6.580889926e-07
6.545847292e-07
6.5211608e-07
6.701405412e-07
6.684963372e-07
6.660821141e-07
6.629936383e-07
6.593559525e-07
6.553457848e-07
6.51231006e-07
6.474523578e-07
6.447999694e-07
6.638714843e-07
6.620709125e-07
6.594272739e-07
6.560461139e-07
6.520658332e-07
6.476823105e-07
6.431915529e-07
6.390771135e-07
6.36197842e-07
6.566049275e-07
6.546193721e-07
6.517043509e-07
6.479769067e-07
6.435910225e-07
6.387648216e-07
6.338270572e-07
6.2931161e-07
6.261595783e-07
6.482170572e-07
6.460165912e-07
6.427864096e-07
6.386569558e-07
6.338002156e-07
6.284598319e-07
6.230020645e-07
6.180187602e-07
6.145469791e-07
6.385872239e-07
6.361414872e-07
6.325518914e-07
6.279643662e-07
6.225714972e-07
6.166458496e-07
6.105959609e-07
6.050791002e-07
6.012415391e-07
6.276025948e-07
6.24881883e-07
6.208897894e-07
6.157899827e-07
6.09798392e-07
6.032199569e-07
5.965101074e-07
5.90398448e-07
5.861524893e-07
6.151632872e-07
6.121398261e-07
6.077052358e-07
6.020433147e-07