/*--------------------------------*- C++ -*----------------------------------*\
| =========                 |                                                 |
| \\      /  F ield         | OpenFOAM: The Open Source CFD Toolbox           |
|  \\    /   O peration     | Version:  2212                                  |
|   \\  /    A nd           | Website:  www.openfoam.com                      |
|    \\/     M anipulation  |                                                 |
\*---------------------------------------------------------------------------*/
FoamFile
{
    version     2.0;
    format      ascii;
    arch        "LSB;label=32;scalar=64";
    class       volScalarField;
    location    "20.00000000";
    object      CH3COCH2;
}
// * * * * * * * * * * * * * * * * * * * * * * * * * * * * * * * * * * * * * //

dimensions      [0 0 0 0 0 0 0];

internalField   nonuniform List<scalar> 
3000
(
5.087579735e-24
5.714769782e-24
6.661118823e-24
7.922091625e-24
9.484835445e-24
1.130694482e-23
1.327873765e-23
1.516037064e-23
1.649082624e-23
1.910030455e-23
2.15413644e-23
2.522301596e-23
3.013952223e-23
3.628586876e-23
4.362836448e-23
5.20397919e-23
6.10982465e-23
6.912075015e-23
4.278239731e-23
4.862919653e-23
5.753160809e-23
6.961789846e-23
8.510484696e-23
1.042176124e-22
1.268805784e-22
1.518247334e-22
1.731370295e-22
8.148401466e-23
9.359012986e-23
1.122936496e-22
1.382263414e-22
1.723060419e-22
2.153991692e-22
2.672702492e-22
3.237734724e-22
3.693750452e-22
1.446856843e-22
1.682218864e-22
2.051574469e-22
2.573670602e-22
3.273047785e-22
4.169311876e-22
5.247474618e-22
6.392487375e-22
7.271417829e-22
2.487772745e-22
2.929490735e-22
3.632627501e-22
4.642034188e-22
6.011528629e-22
7.775572205e-22
9.881447048e-22
1.20636315e-21
1.367801855e-21
4.222960326e-22
5.034254262e-22
6.340730331e-22
8.237432342e-22
1.082989564e-21
1.416959772e-21
1.811831379e-21
2.213010711e-21
2.502470215e-21
7.145911342e-22
8.613849856e-22
1.099874713e-21
1.448778467e-21
1.927532912e-21
2.543009794e-21
3.264309034e-21
3.986438462e-21
4.498769098e-21
1.211175308e-21
1.473960697e-21
1.903647215e-21
2.535430595e-21
3.403856281e-21
4.517219423e-21
5.812588569e-21
7.095945098e-21
7.996410104e-21
2.060150916e-21
2.526877438e-21
3.293506123e-21
4.424316282e-21
5.9795948e-21
7.968267245e-21
1.026921377e-20
1.253215841e-20
1.410822903e-20
3.518312702e-21
4.342464745e-21
5.700460465e-21
7.707561515e-21
1.046807718e-20
1.398987281e-20
1.80479475e-20
2.201883185e-20
2.47709447e-20
6.031232546e-21
7.480455102e-21
9.87361495e-21
1.341504446e-20
1.828460226e-20
2.448564245e-20
3.160933226e-20
3.85556547e-20
4.335525368e-20
1.037260061e-20
1.291353993e-20
1.711584664e-20
2.333919929e-20
3.189330725e-20
4.276959013e-20
5.52340504e-20
6.735671095e-20
7.572697006e-20
1.78860571e-20
2.233217519e-20
2.969340395e-20
4.060057104e-20
5.558725323e-20
7.461537994e-20
9.636372809e-20
1.174455758e-19
1.320936174e-19
3.090394487e-20
3.867237775e-20
5.154558016e-20
7.062979219e-20
9.684954624e-20
1.30102202e-19
1.679721242e-19
2.043441536e-19
2.302816577e-19
5.347106405e-20
6.702643581e-20
8.950585577e-20
1.228516689e-19
1.686946007e-19
2.269273303e-19
2.93625003e-19
3.586245006e-19
4.024072421e-19
9.259728386e-20
1.162160778e-19
1.554002462e-19
2.135361333e-19
2.934426039e-19
3.948522943e-19
5.107054142e-19
6.229040941e-19
6.996402779e-19
1.604362582e-19
2.015383529e-19
2.697423832e-19
3.709338852e-19
5.099780486e-19
6.863259546e-19
8.875830123e-19
1.082272705e-18
1.215665799e-18
2.780704843e-19
3.495347732e-19
4.681381821e-19
6.441042939e-19
8.858486346e-19
1.192342964e-18
1.541977011e-18
1.880063463e-18
2.111675521e-18
4.820830463e-19
6.062686791e-19
8.123936137e-19
1.118217344e-18
1.538319973e-18
2.070836951e-18
2.678148019e-18
3.2652375e-18
3.66733162e-18
8.359662839e-19
1.051694027e-18
1.40979702e-18
1.941123771e-18
2.670952572e-18
3.595946534e-18
4.650655288e-18
5.670019184e-18
6.368031807e-18
1.449929132e-18
1.824601955e-18
2.446597405e-18
3.369489977e-18
4.637114063e-18
6.243533628e-18
8.0749253e-18
9.844609446e-18
1.105622557e-17
2.515291739e-18
3.16594001e-18
4.246137964e-18
5.848904586e-18
8.05024604e-18
1.083963193e-17
1.401916503e-17
1.709103886e-17
1.919398444e-17
4.364215792e-18
5.494041003e-18
7.369807252e-18
1.015297231e-17
1.397529655e-17
1.881811875e-17
2.43374332e-17
2.966907068e-17
3.331859218e-17
7.573436794e-18
9.535269617e-18
1.279233653e-17
1.762478181e-17
2.426091921e-17
3.26676704e-17
4.224719913e-17
5.149950954e-17
5.783216371e-17
1.314436965e-17
1.655083766e-17
2.220607679e-17
3.059592452e-17
4.211570067e-17
5.670653515e-17
7.332950171e-17
8.938151767e-17
1.003666892e-16
2.281578414e-17
2.873054732e-17
3.854910581e-17
5.311347284e-17
7.310737761e-17
9.84252412e-17
1.272612339e-16
1.550991007e-16
1.741455291e-16
3.960644771e-17
4.987609906e-17
6.692147781e-17
9.220054501e-17
1.268939e-16
1.708102975e-16
2.208099512e-16
2.690601881e-16
3.020615096e-16
6.875590284e-17
8.658552184e-17
1.161727523e-16
1.600388973e-16
2.202177374e-16
2.963583049e-16
3.82999045e-16
4.665623282e-16
5.236883714e-16
1.193536148e-16
1.503037769e-16
2.016489068e-16
2.77741743e-16
3.820746186e-16
5.139928784e-16
6.639904108e-16
8.085475051e-16
9.07300329e-16
2.071552357e-16
2.608662762e-16
3.499353117e-16
4.818594732e-16
6.626095215e-16
8.909418358e-16
1.150298027e-15
1.399976566e-15
1.57037017e-15
3.594393597e-16
4.526062473e-16
6.070221452e-16
8.35560061e-16
1.148368414e-15
1.543040073e-15
1.990708517e-15
2.421035475e-15
2.714302661e-15
6.233572448e-16
7.848453473e-16
1.052308344e-15
1.447759375e-15
1.988314335e-15
2.669232358e-15
3.44014985e-15
4.179741959e-15
4.682822636e-15
1.080231218e-15
1.359835411e-15
1.822501591e-15
2.505671808e-15
3.437921768e-15
4.609780469e-15
5.933326703e-15
7.199827051e-15
8.059186327e-15
1.869921099e-15
2.353278732e-15
3.152159643e-15
4.32981258e-15
5.9333232e-15
7.94358718e-15
1.020709855e-14
1.23659687e-14
1.382620527e-14
3.232103557e-15
4.065904932e-15
5.441949369e-15
7.466154284e-15
1.021480381e-14
1.364919825e-14
1.750150098e-14
2.116082003e-14
2.362626664e-14
5.575711554e-15
7.00994475e-15
9.372546647e-15
1.283897595e-14
1.753016554e-14
2.336783807e-14
2.988552928e-14
3.604640801e-14
4.017774629e-14
9.594770587e-15
1.205275276e-14
1.609267337e-14
2.200134453e-14
2.996518739e-14
3.982698916e-14
5.077713104e-14
6.10682757e-14
6.793139982e-14
1.645974214e-14
2.065271107e-14
2.752563179e-14
3.753982845e-14
5.097236687e-14
6.751135552e-14
8.575916174e-14
1.027961884e-13
1.140876025e-13
2.81300058e-14
3.524170391e-14
4.686166153e-14
6.37176734e-14
8.620185496e-14
1.137058624e-13
1.438355872e-13
1.717617309e-13
1.90144365e-13
4.785758318e-14
5.983601789e-14
7.933525362e-14
1.074773519e-13
1.447801868e-13
1.900819587e-13
2.39323741e-13
2.846094449e-13
3.142059678e-13
8.098767877e-14
1.009958991e-13
1.334284066e-13
1.799684256e-13
2.412298221e-13
3.150478299e-13
3.94630365e-13
4.672341018e-13
5.143422153e-13
1.362128114e-13
1.693065188e-13
2.226933978e-13
2.988163756e-13
3.982655636e-13
5.171166503e-13
6.4418321e-13
7.5919509e-13
8.333063477e-13
2.275140439e-13
2.81627488e-13
3.684552664e-13
4.913973042e-13
6.507226025e-13
8.395210736e-13
1.039709918e-12
1.219567403e-12
1.334757259e-12
3.771495962e-13
4.644776715e-13
6.037536403e-13
7.99437937e-13
1.050840805e-12
1.346133183e-12
1.656691541e-12
1.933803049e-12
2.110381036e-12
6.202879208e-13
7.591523224e-13
9.790845391e-13
1.285378697e-12
1.675061462e-12
2.128321954e-12
2.600806491e-12
3.019403312e-12
3.284877733e-12
1.012353721e-12
1.229658785e-12
1.57098533e-12
2.041321751e-12
2.632551939e-12
3.311665392e-12
4.010986664e-12
4.623795817e-12
5.00920099e-12
1.641047371e-12
1.975540255e-12
2.495587237e-12
3.202462646e-12
4.076376281e-12
5.060864802e-12
6.052197951e-12
6.899229472e-12
7.418174995e-12
2.646378609e-12
3.153220513e-12
3.931085028e-12
4.96897554e-12
6.220233253e-12
7.582136807e-12
8.888741593e-12
9.930725189e-12
1.051147621e-11
4.253202502e-12
5.010636549e-12
6.154185442e-12
7.641444662e-12
9.365076813e-12
1.1125144e-11
1.263652761e-11
1.361262575e-11
1.395239626e-11
6.818578707e-12
7.9362917e-12
9.589380647e-12
1.166501657e-11
1.392688044e-11
1.597830518e-11
1.731723763e-11
1.758410887e-11
1.702806198e-11
1.088289794e-11
1.250476523e-11
1.484042226e-11
1.763196789e-11
2.039327025e-11
2.238658257e-11
2.283360112e-11
2.149119636e-11
1.937220858e-11
1.717472214e-11
1.944962811e-11
2.260190851e-11
2.609370985e-11
2.90166903e-11
3.021275077e-11
2.888837243e-11
2.553098642e-11
2.209088853e-11
2.644023548e-11
2.940698489e-11
3.325956292e-11
3.698024951e-11
3.913167214e-11
3.844713131e-11
3.500018088e-11
3.047967348e-11
2.685905085e-11
3.888092439e-11
4.222944159e-11
4.607124693e-11
4.880395124e-11
4.881301321e-11
4.576519835e-11
4.12170047e-11
3.696236282e-11
3.388675889e-11
5.315877372e-11
5.6053633e-11
5.857210072e-11
5.897092119e-11
5.65408658e-11
5.243999665e-11
4.830794157e-11
4.461335493e-11
4.148805342e-11
6.602604696e-11
6.761908878e-11
6.814000815e-11
6.665144263e-11
6.363069985e-11
6.018531301e-11
5.648603128e-11
5.193559259e-11
4.733042239e-11
7.507437352e-11
7.583307979e-11
7.576196151e-11
7.460831395e-11
7.264546949e-11
6.962441571e-11
6.453526429e-11
5.733998879e-11
5.06391808e-11
8.304689374e-11
8.443456198e-11
8.550002843e-11
8.562484782e-11
8.394351692e-11
7.91173847e-11
7.071785053e-11
6.059110147e-11
5.240677893e-11
9.491903088e-11
9.728238722e-11
9.918908572e-11
9.901649755e-11
9.500124922e-11
8.640798154e-11
7.469737186e-11
6.27503952e-11
5.395523609e-11
1.114379817e-10
1.135638491e-10
1.141748998e-10
1.110653643e-10
1.030801302e-10
9.113810985e-11
7.76338545e-11
6.51148828e-11
5.629679604e-11
1.27983729e-10
1.281732928e-10
1.256702396e-10
1.189225729e-10
1.080513638e-10
9.470879709e-11
8.098196369e-11
6.874005429e-11
6.020030425e-11
1.387008661e-10
1.367053646e-10
1.317148998e-10
1.231415939e-10
1.116743167e-10
9.877286247e-11
8.592543418e-11
7.448498144e-11
6.641124437e-11
1.423129423e-10
1.394712701e-10
1.340496364e-10
1.259257615e-10
1.157664045e-10
1.045835713e-10
9.338235447e-11
8.319687047e-11
7.580695849e-11
1.415702377e-10
1.393314599e-10
1.352171052e-10
1.291629545e-10
1.215478505e-10
1.130004936e-10
1.041744571e-10
9.582476937e-11
8.948357514e-11
1.394641436e-10
1.387441603e-10
1.369720772e-10
1.339289479e-10
1.297287435e-10
1.246780305e-10
1.191133843e-10
1.134473615e-10
1.087578698e-10
1.378298224e-10
1.390587515e-10
1.401688313e-10
1.407755316e-10
1.407624541e-10
1.40166902e-10
1.39001975e-10
1.372031932e-10
1.350588163e-10
1.375259142e-10
1.409247107e-10
1.452637862e-10
1.500459705e-10
1.549990726e-10
1.599478434e-10
1.645614579e-10
1.681241274e-10
1.696965234e-10
1.390945799e-10
1.447976835e-10
1.526331921e-10
1.620722879e-10
1.727767014e-10
1.844208844e-10
1.963119059e-10
2.069019908e-10
2.135395436e-10
1.430980374e-10
1.512062319e-10
1.627633001e-10
1.772895441e-10
1.944650983e-10
2.138729054e-10
2.344486066e-10
2.536614397e-10
2.666998259e-10
1.502789996e-10
1.608708516e-10
1.763243222e-10
1.962682107e-10
2.204613711e-10
2.484387763e-10
2.787696134e-10
3.078590222e-10
3.284183387e-10
1.615706434e-10
1.746896368e-10
1.941306499e-10
2.196563893e-10
2.511306151e-10
2.880690722e-10
3.287193592e-10
3.684901339e-10
3.975896404e-10
1.77978769e-10
1.936054505e-10
2.169958615e-10
2.480381209e-10
2.867016575e-10
3.325265752e-10
3.835959724e-10
4.347326818e-10
4.73426677e-10
2.003723443e-10
2.1839204e-10
2.455244204e-10
2.81757531e-10
3.271766349e-10
3.814593026e-10
4.429258221e-10
5.053062255e-10
5.524557363e-10
2.292511142e-10
2.494362177e-10
2.799319226e-10
3.208225378e-10
3.724071942e-10
4.348547458e-10
5.05672702e-10
5.769583545e-10
6.310964368e-10
2.646024504e-10
2.866442175e-10
3.200553128e-10
3.650575017e-10
4.226191474e-10
4.91614313e-10
5.689000954e-10
6.462935212e-10
7.051999785e-10
3.060241551e-10
3.29676988e-10
3.659732896e-10
4.148687757e-10
4.762378115e-10
5.48984226e-10
6.297589525e-10
7.102298123e-10
7.715100855e-10
3.537226421e-10
3.788724205e-10
4.168976021e-10
4.675361505e-10
5.302983364e-10
6.041036247e-10
6.854606616e-10
7.659482446e-10
8.271691216e-10
4.060178634e-10
4.31550233e-10
4.698305739e-10
5.20280976e-10
5.823976019e-10
6.546243949e-10
7.335095331e-10
8.110550602e-10
8.69926741e-10
4.598251044e-10
4.848008159e-10
5.219878659e-10
5.70577874e-10
6.298166194e-10
6.979579585e-10
7.716643698e-10
8.436752459e-10
8.982345968e-10
5.122404672e-10
5.357663136e-10
5.705119806e-10
6.156619383e-10
6.700557953e-10
7.319783915e-10
7.981944857e-10
8.625806095e-10
9.113029713e-10
5.604917252e-10
5.817914131e-10
6.130536191e-10
6.531564401e-10
7.009779271e-10
7.548343782e-10
8.119424857e-10
8.672432446e-10
9.091030923e-10
6.019905578e-10
6.203616785e-10
6.471178947e-10
6.811024453e-10
7.210803244e-10
7.655793197e-10
8.124979381e-10
8.578622357e-10
8.923210323e-10
6.345344441e-10
6.494336706e-10
6.709333374e-10
6.979230268e-10
7.292749051e-10
7.638247764e-10
8.000944342e-10
8.352454695e-10
8.621815728e-10
6.564478583e-10
6.675364629e-10
6.833524703e-10
7.02927258e-10
7.253517078e-10
7.498245166e-10
7.754618478e-10
8.004711489e-10
8.198680176e-10
6.666754836e-10
6.738322426e-10
6.838578076e-10
6.959968611e-10
7.096087956e-10
7.24227458e-10
7.393858408e-10
7.539446145e-10
7.643874016e-10
6.648163404e-10
6.681200149e-10
6.725211039e-10
6.775025183e-10
6.826610933e-10
6.876970674e-10
6.920848535e-10
6.965015613e-10
7.010058617e-10
6.510440096e-10
6.507084311e-10
6.4978613e-10
6.479408883e-10
6.448496033e-10
6.402481904e-10
6.362174455e-10
6.341870478e-10
6.345615753e-10
6.257160236e-10
6.219423676e-10
6.157540732e-10
6.069140812e-10
5.966276843e-10
5.860072182e-10
5.766952498e-10
5.702846225e-10
5.676966355e-10
5.879685466e-10
5.809272777e-10
5.706431298e-10
5.577602109e-10
5.434150804e-10
5.290207727e-10
5.162699914e-10
5.068979005e-10
5.022377847e-10
5.413753686e-10
5.326521792e-10
5.201960943e-10
5.049759384e-10
4.882687495e-10
4.71619456e-10
4.567805158e-10
4.455649258e-10
4.395667472e-10
4.906048847e-10
4.810265898e-10
4.674692344e-10
4.510637005e-10
4.33191825e-10
4.154550363e-10
3.996091803e-10
3.874657866e-10
3.807382271e-10
4.382728491e-10
4.284011214e-10
4.145040505e-10
3.977930807e-10
3.796940078e-10
3.618022676e-10
3.458183036e-10
3.334828994e-10
3.265148517e-10
3.862581215e-10
3.765224477e-10
3.628753839e-10
3.465493845e-10
3.289576858e-10
3.116369452e-10
2.961846134e-10
2.842195985e-10
2.773834822e-10
3.360527362e-10
3.267814453e-10
3.138328859e-10
2.98412148e-10
2.81873017e-10
2.656525434e-10
2.512120001e-10
2.4001618e-10
2.335757508e-10
2.888276206e-10
2.802552032e-10
2.683209105e-10
2.541644019e-10
2.39044594e-10
2.242709852e-10
2.111495778e-10
2.009754039e-10
1.950986612e-10
2.454325295e-10
2.377059126e-10
2.269788349e-10
2.142982562e-10
2.008047321e-10
1.876646095e-10
1.760216269e-10
1.669985457e-10
1.617741301e-10
2.063991273e-10
1.99588159e-10
1.90154539e-10
1.790358617e-10
1.672419185e-10
1.557907764e-10
1.456668461e-10
1.378275776e-10
1.332825443e-10
1.719641887e-10
1.660756688e-10
1.579356984e-10
1.483654154e-10
1.382410212e-10
1.284357338e-10
1.197840457e-10
1.130911472e-10
1.092082274e-10
1.421130757e-10
1.371070192e-10
1.301979602e-10
1.220912082e-10
1.135338365e-10
1.05263527e-10
9.797858142e-11
9.234829549e-11
8.908113582e-11
1.166369339e-10
1.124421672e-10
1.066600874e-10
9.988644916e-11
9.27486883e-11
8.58619297e-11
7.980415201e-11
7.512634371e-11
7.241201629e-11
9.519197881e-11
9.171983e-11
8.693837638e-11
8.134371069e-11
7.545608273e-11
6.978281827e-11
6.479796283e-11
6.095154093e-11
5.872008851e-11
7.73549118e-11
7.451011361e-11
7.059526192e-11
6.601855462e-11
6.120677587e-11
5.657454765e-11
5.250777842e-11
4.937170379e-11
4.75528825e-11
6.266945072e-11
6.035803239e-11
5.717862617e-11
5.346382546e-11
4.956068664e-11
4.58055672e-11
4.251075107e-11
3.997118756e-11
3.849881236e-11
5.068172915e-11
4.881613793e-11
4.625062658e-11
4.325405686e-11
4.010668183e-11
3.707977286e-11
3.442486128e-11
3.237923867e-11
3.119363976e-11
4.096452764e-11
3.946647573e-11
3.740657366e-11
3.500082832e-11
3.247432203e-11
3.00448594e-11
2.791433249e-11
2.6273124e-11
2.532221926e-11
3.31317241e-11
3.193333804e-11
3.028541129e-11
2.836068573e-11
2.6339207e-11
2.439527219e-11
2.269053698e-11
2.137747675e-11
2.061691612e-11
2.68450355e-11
2.588885585e-11
2.457378168e-11
2.303749971e-11
2.142362299e-11
1.987132661e-11
1.850985031e-11
1.746118974e-11
1.685391964e-11
2.181520682e-11
2.105347698e-11
2.000557586e-11
1.878101358e-11
1.749414019e-11
1.625594416e-11
1.516967253e-11
1.433290632e-11
1.384842488e-11
1.7799602e-11
1.719319509e-11
1.635870106e-11
1.538311854e-11
1.435741814e-11
1.337006688e-11
1.250354127e-11
1.183591937e-11
1.144940606e-11
1.459775902e-11
1.411497206e-11
1.345034302e-11
1.26729639e-11
1.185519802e-11
1.106757373e-11
1.037600963e-11
9.843033094e-12
9.534469459e-12
1.204603067e-11
1.166139224e-11
1.113165406e-11
1.051170724e-11
9.859144256e-12
9.230234594e-12
8.677717127e-12
8.251733349e-12
8.005082765e-12
1.001206702e-11
9.705241232e-12
9.282473308e-12
8.78741344e-12
8.265947226e-12
7.763023647e-12
7.320899001e-12
6.97985416e-12
6.782334112e-12
8.389597777e-12
8.144422908e-12
7.806434049e-12
7.410392057e-12
6.992910848e-12
6.589955967e-12
6.235447795e-12
5.961816477e-12
5.803274744e-12
7.093755359e-12
6.897427485e-12
6.626633904e-12
6.309107245e-12
5.974118869e-12
5.650504603e-12
5.365553847e-12
5.145443099e-12
5.017836052e-12
6.057033318e-12
5.899429062e-12
5.681924683e-12
5.426693914e-12
5.15719052e-12
4.896588443e-12
4.666898496e-12
4.489311375e-12
4.386275452e-12
5.225884198e-12
5.099008299e-12
4.923807006e-12
4.718053543e-12
4.500588133e-12
4.290084073e-12
4.104345692e-12
3.960583976e-12
3.877088389e-12
4.557910218e-12
4.455450494e-12
4.313875912e-12
4.147471915e-12
3.971415448e-12
3.800797622e-12
3.650066126e-12
3.53325068e-12
3.465318705e-12
4.019576397e-12
3.936548444e-12
3.821746833e-12
3.686688435e-12
3.543637008e-12
3.404828096e-12
3.282026649e-12
3.186715053e-12
3.131201976e-12
3.584368616e-12
3.516833989e-12
3.423387842e-12
3.31334552e-12
3.196650038e-12
3.083256598e-12
2.982782153e-12
2.904665452e-12
2.859082574e-12
3.231321652e-12
3.17616532e-12
3.09978818e-12
3.009751549e-12
2.914146072e-12
2.821102411e-12
2.738514259e-12
2.674177331e-12
2.636552977e-12
2.943849552e-12
2.898604686e-12
2.835900797e-12
2.761898765e-12
2.683207598e-12
2.606495021e-12
2.538269213e-12
2.485001857e-12
2.453771876e-12
2.708820013e-12
2.671530277e-12
2.619805623e-12
2.558686285e-12
2.493593488e-12
2.430019292e-12
2.373355295e-12
2.329003517e-12
2.302925125e-12
2.515823878e-12
2.484935298e-12
2.442049166e-12
2.39130681e-12
2.337174974e-12
2.284198602e-12
2.236867175e-12
2.19971619e-12
2.177800247e-12
2.356599638e-12
2.330875707e-12
2.295124104e-12
2.252763296e-12
2.207491059e-12
2.163087367e-12
2.123310882e-12
2.091993096e-12
2.07345086e-12
2.224580551e-12
2.203035558e-12
2.17305961e-12
2.137488332e-12
2.099398322e-12
2.06195e-12
2.028308276e-12
2.001730876e-12
1.985932139e-12
2.11453829e-12
2.096384917e-12
2.071098857e-12
2.041044473e-12
2.008795146e-12
1.977008042e-12
1.948364193e-12
1.925652137e-12
1.912092282e-12
2.022302619e-12
2.006910731e-12
1.985445249e-12
1.959888356e-12
1.932404551e-12
1.905240939e-12
1.88068293e-12
1.861134027e-12
1.849408089e-12
1.944540832e-12
1.931405025e-12
1.913062623e-12
1.891184907e-12
1.867603077e-12
1.844229026e-12
1.823023569e-12
1.806073045e-12
1.795855256e-12
1.878584033e-12
1.867298035e-12
1.851517813e-12
1.832660896e-12
1.812285888e-12
1.792029693e-12
1.773585836e-12
1.758778345e-12
1.749805993e-12
1.822290202e-12
1.812526666e-12
1.798856516e-12
1.782489449e-12
1.764760329e-12
1.747079649e-12
1.73091997e-12
1.717887466e-12
1.709948133e-12
1.77393617e-12
1.765430698e-12
1.753505306e-12
1.739198847e-12
1.723661858e-12
1.70811769e-12
1.693855493e-12
1.682299701e-12
1.675221165e-12
1.732132301e-12
1.724670791e-12
1.714194217e-12
1.70160045e-12
1.687887569e-12
1.674123615e-12
1.661444837e-12
1.651123355e-12
1.644765578e-12
1.695755012e-12
1.68916363e-12
1.679895486e-12
1.668731644e-12
1.656543565e-12
1.644269843e-12
1.632918686e-12
1.623633943e-12
1.617882718e-12
1.66389335e-12
1.658030554e-12
1.649775028e-12
1.639810639e-12
1.62890324e-12
1.617883046e-12
1.607650547e-12
1.599241019e-12
1.594002907e-12
1.635806615e-12
1.63055682e-12
1.623153931e-12
1.614200587e-12
1.604374148e-12
1.59441368e-12
1.585128597e-12
1.577461805e-12
1.57266011e-12
1.610890712e-12
1.606159237e-12
1.599477875e-12
1.591381065e-12
1.582471678e-12
1.57341174e-12
1.564933285e-12
1.557900209e-12
1.553471755e-12
1.58865138e-12
1.584360415e-12
1.578292778e-12
1.570925377e-12
1.562798072e-12
1.554507456e-12
1.546719475e-12
1.540230082e-12
1.536122647e-12
1.56868287e-12
1.56476825e-12
1.559225399e-12
1.552482446e-12
1.545025694e-12
1.537395876e-12
1.530202198e-12
1.524181861e-12
1.520352112e-12
1.550650915e-12
1.547059543e-12
1.541967833e-12
1.535762361e-12
1.528883664e-12
1.521824548e-12
1.515145243e-12
1.50953187e-12
1.505943708e-12
1.534279133e-12
1.530966902e-12
1.526265129e-12
1.5205248e-12
1.514147153e-12
1.507583651e-12
1.501352029e-12
1.496093746e-12
1.49271698e-12
1.519338118e-12
1.51626825e-12
1.511905345e-12
1.506569756e-12
1.500628796e-12
1.494498078e-12
1.488658268e-12
1.483711563e-12
1.48052083e-12
1.505636698e-12
1.502778399e-12
1.498711582e-12
1.493730091e-12
1.488171798e-12
1.482421072e-12
1.476926067e-12
1.472254283e-12
1.46922819e-12
1.493014904e-12
1.490342287e-12
1.486535566e-12
1.481865532e-12
1.476644377e-12
1.471229093e-12
1.466039174e-12
1.461611294e-12
1.458731711e-12
1.481338306e-12
1.478829511e-12
1.475252479e-12
1.470857843e-12
1.465935284e-12
1.460817682e-12
1.45589914e-12
1.451688799e-12
1.448940295e-12
1.470493441e-12
1.46812993e-12
1.464756781e-12
1.460606916e-12
1.455950178e-12
1.45109811e-12
1.446422203e-12
1.442406891e-12
1.439776268e-12
1.460384115e-12
1.458150095e-12
1.454958831e-12
1.451027604e-12
1.446608692e-12
1.441994663e-12
1.437536774e-12
1.433697181e-12
1.431173101e-12
1.450928405e-12
1.448810361e-12
1.445782145e-12
1.442047158e-12
1.437842049e-12
1.433442433e-12
1.429181379e-12
1.425500863e-12
1.423073539e-12
1.442056224e-12
1.440042538e-12
1.437161163e-12
1.433603128e-12
1.429591115e-12
1.425385518e-12
1.421302988e-12
1.417767141e-12
1.415428083e-12
1.433707336e-12
1.431787973e-12
1.429039435e-12
1.42564167e-12
1.421804818e-12
1.417775555e-12
1.413855647e-12
1.410451935e-12
1.408193747e-12
1.425829737e-12
1.423995992e-12
1.421368132e-12
1.418116138e-12
1.414438846e-12
1.410570512e-12
1.406799353e-12
1.403516824e-12
1.401333032e-12
1.418378324e-12
1.416622612e-12
1.414104828e-12
1.410985951e-12
1.407454585e-12
1.403733701e-12
1.400099132e-12
1.396928172e-12
1.394813085e-12
1.411313813e-12
1.409629493e-12
1.407212498e-12
1.404215646e-12
1.400818239e-12
1.397232957e-12
1.393724277e-12
1.390656413e-12
1.388605002e-12
1.404601835e-12
1.40298307e-12
1.400658694e-12
1.397774098e-12
1.394500104e-12
1.391039969e-12
1.387647719e-12
1.384675445e-12
1.382683252e-12
1.398212195e-12
1.396653833e-12
1.39441486e-12
1.391633886e-12
1.388473968e-12
1.385129712e-12
1.381845496e-12
1.378962141e-12
1.377025194e-12
1.392118263e-12
1.390615735e-12
1.388455766e-12
1.385770748e-12
1.38271661e-12
1.379479987e-12
1.376296322e-12
1.37349593e-12
1.371610678e-12
1.386296453e-12
1.384845697e-12
1.382759033e-12
1.380163139e-12
1.377207381e-12
1.374071024e-12
1.370981217e-12
1.368258453e-12
1.366421706e-12
1.380725806e-12
1.379323191e-12
1.37730474e-12
1.374791861e-12
1.371927855e-12
1.368885161e-12
1.365883201e-12
1.363233263e-12
1.361442149e-12
1.375387623e-12
1.374029897e-12
1.372075091e-12
1.369639741e-12
1.366861532e-12
1.363906558e-12
1.360987031e-12
1.358405587e-12
1.356657507e-12
1.370265169e-12
1.368949405e-12
1.367054134e-12
1.364691374e-12
1.361993592e-12
1.359120974e-12
1.356278982e-12
1.353762109e-12
1.352054704e-12
1.365343416e-12
1.364066973e-12
1.362227527e-12
1.359932892e-12
1.357310681e-12
1.35451556e-12
1.351746661e-12
1.349290792e-12
1.347621916e-12
1.360608829e-12
1.359369317e-12
1.357582333e-12
1.355351777e-12
1.352800729e-12
1.350078691e-12
1.347378844e-12
1.344980729e-12
1.34334842e-12
1.356049178e-12
1.354844429e-12
1.353106853e-12
1.350936698e-12
1.348452802e-12
1.345799823e-12
1.34316534e-12
1.340822007e-12
1.339224468e-12
1.351653388e-12
1.350481424e-12
1.348790475e-12
1.346677366e-12
1.344256962e-12
1.341669366e-12
1.339096871e-12
1.336805596e-12
1.335241176e-12
1.347411394e-12
1.346270412e-12
1.344623549e-12
1.342564419e-12
1.340204157e-12
1.337678577e-12
1.335164971e-12
1.33292325e-12
1.331390428e-12
1.343314033e-12
1.342202381e-12
1.340597277e-12
1.338589317e-12
1.336286122e-12
1.333819463e-12
1.331361897e-12
1.329167419e-12
1.32766479e-12
1.339352937e-12
1.338269101e-12
1.336703618e-12
1.334744245e-12
1.332495291e-12
1.330084705e-12
1.327680549e-12
1.325531181e-12
1.324057444e-12
1.335520449e-12
1.334463034e-12
1.332935206e-12
1.331022042e-12
1.328824722e-12
1.326467578e-12
1.324114402e-12
1.322008169e-12
1.320562115e-12
1.331809542e-12
1.330777264e-12
1.329285277e-12
1.327416126e-12
1.325268033e-12
1.322961896e-12
1.32065745e-12
1.318592517e-12
1.317173023e-12
1.328213753e-12
1.327205425e-12
1.325747602e-12
1.323920433e-12
1.321819336e-12
1.319561952e-12
1.317304144e-12
1.315278807e-12
1.313884826e-12
1.324727121e-12
1.323741642e-12
1.32231643e-12
1.32052936e-12
1.318473191e-12
1.316262465e-12
1.314049353e-12
1.312062022e-12
1.310692579e-12
1.321344131e-12
1.320380481e-12
1.318986437e-12
1.317237718e-12
1.315224553e-12
1.313058537e-12
1.310888309e-12
1.308937505e-12
1.307591687e-12
1.318059659e-12
1.317116891e-12
1.315752673e-12
1.314040676e-12
1.312068726e-12
1.309945602e-12
1.307816573e-12
1.305900915e-12
1.304577871e-12
1.31486893e-12
1.313946157e-12
1.312610515e-12
1.310933723e-12
1.309001316e-12
1.306919392e-12
1.304829986e-12
1.302948185e-12
1.301647123e-12
1.311767457e-12
1.310863854e-12
1.309555618e-12
1.307912611e-12
1.306018187e-12
1.303975878e-12
1.301924627e-12
1.300075483e-12
1.298795664e-12
1.308750999e-12
1.30786579e-12
1.306583862e-12
1.30497331e-12
1.303115405e-12
1.301111231e-12
1.299096762e-12
1.297279157e-12
1.2960199e-12
1.305815496e-12
1.304947949e-12
1.303691296e-12
1.302111945e-12
1.300289182e-12
1.298321754e-12
1.296342785e-12
1.294555682e-12
1.293316356e-12
1.302957007e-12
1.302106427e-12
1.300874067e-12
1.299324728e-12
1.297535807e-12
1.295603814e-12
1.293659143e-12
1.291901578e-12
1.290681609e-12
1.300171631e-12
1.299337351e-12
1.298128342e-12
1.296607878e-12
1.294851554e-12
1.292953751e-12
1.291042247e-12
1.289313326e-12
1.28811219e-12
1.297455415e-12
1.296636784e-12
1.295450208e-12
1.29395751e-12
1.292232578e-12
1.290367766e-12
1.28848835e-12
1.286787234e-12
1.285604457e-12
1.294804239e-12
1.294000608e-12
1.29283555e-12
1.291369515e-12
1.289674778e-12
1.287841774e-12
1.285993395e-12
1.284319289e-12
1.283154437e-12
1.29221368e-12
1.291424382e-12
1.2902799e-12
1.288839396e-12
1.287173628e-12
1.285371228e-12
1.283552829e-12
1.281904946e-12
1.28075761e-12
1.28967884e-12
1.288903164e-12
1.287778257e-12
1.286362076e-12
1.284723971e-12
1.282950893e-12
1.281161355e-12
1.279538879e-12
1.278408648e-12
1.287194147e-12
1.286431309e-12
1.285324866e-12
1.283931665e-12
1.282319764e-12
1.280574575e-12
1.278812646e-12
1.277214666e-12
1.27610109e-12
1.284753119e-12
1.284002216e-12
1.282912957e-12
1.28154118e-12
1.279953784e-12
1.278234798e-12
1.276498995e-12
1.274924418e-12
1.273826949e-12
1.282348086e-12
1.28160805e-12
1.280534447e-12
1.27918223e-12
1.277617279e-12
1.275922435e-12
1.274210911e-12
1.272658346e-12
1.271576255e-12
1.279969883e-12
1.279239412e-12
1.278179603e-12
1.276844647e-12
1.275299585e-12
1.273626282e-12
1.271936662e-12
1.270404266e-12
1.269336542e-12
1.2776075e-12
1.27688499e-12
1.275836662e-12
1.274516097e-12
1.272987694e-12
1.271332602e-12
1.269661783e-12
1.268147075e-12
1.267092288e-12
1.275247722e-12
1.274531177e-12
1.27349144e-12
1.272181658e-12
1.270665813e-12
1.269024645e-12
1.267368559e-12
1.265868192e-12
1.264824333e-12
1.272874738e-12
1.272161676e-12
1.271126924e-12
1.26982339e-12
1.268314906e-12
1.266682167e-12
1.265035504e-12
1.263545012e-12
1.262509305e-12
1.270469772e-12
1.269757121e-12
1.268722875e-12
1.267419926e-12
1.265912268e-12
1.264280971e-12
1.262636893e-12
1.261150403e-12
1.260119095e-12
1.268010725e-12
1.267294714e-12
1.266255462e-12
1.264946104e-12
1.263431143e-12
1.26179253e-12
1.260142355e-12
1.258652295e-12
1.257620439e-12
1.265471874e-12
1.264747932e-12
1.263696972e-12
1.26237267e-12
1.260840443e-12
1.259183699e-12
1.257516608e-12
1.256013417e-12
1.254974661e-12
1.262823658e-12
1.262086313e-12
1.261015611e-12
1.259666106e-12
1.258104589e-12
1.256416595e-12
1.254719367e-12
1.253191243e-12
1.252137641e-12
1.260032576e-12
1.259275376e-12
1.25817545e-12
1.256788611e-12
1.255183548e-12
1.253448686e-12
1.251705495e-12
1.250138212e-12
1.249060092e-12
1.257061235e-12
1.256276699e-12
1.255136546e-12
1.253698279e-12
1.252033081e-12
1.250233135e-12
1.24842546e-12
1.246802288e-12
1.245688205e-12
1.253868595e-12
1.253048198e-12
1.251855281e-12
1.250349527e-12
1.248605278e-12
1.246719456e-12
1.244826131e-12
1.243127915e-12
1.241964731e-12
1.250410433e-12
1.24954465e-12
1.248284964e-12
1.246693791e-12
1.244849389e-12
1.242854522e-12
1.24085198e-12
1.239057418e-12
1.237830539e-12
1.246640061e-12
1.245718465e-12
1.244376699e-12
1.24268054e-12
1.240713006e-12
1.238583935e-12
1.23644669e-12
1.234532861e-12
1.233226681e-12
1.242509312e-12
1.241520754e-12
1.240080568e-12
1.238258597e-12
1.236143579e-12
1.23385379e-12
1.231555188e-12
1.229498371e-12
1.228096956e-12
1.23796981e-12
1.236902674e-12
1.235347098e-12
1.233377787e-12
1.231090274e-12
1.228612789e-12
1.226126064e-12
1.223902872e-12
1.222390899e-12
1.232974497e-12
1.23181705e-12
1.230129017e-12
1.227990863e-12
1.225506126e-12
1.222814665e-12
1.220114306e-12
1.217703149e-12
1.216067125e-12
1.227479407e-12
1.226220234e-12
1.224383245e-12
1.222055681e-12
1.219350434e-12
1.216420838e-12
1.213484248e-12
1.210867115e-12
1.209096839e-12
1.221445627e-12
1.220074146e-12
1.218073063e-12