/*--------------------------------*- C++ -*----------------------------------*\
| =========                 |                                                 |
| \\      /  F ield         | OpenFOAM: The Open Source CFD Toolbox           |
|  \\    /   O peration     | Version:  2212                                  |
|   \\  /    A nd           | Website:  www.openfoam.com                      |
|    \\/     M anipulation  |                                                 |
\*---------------------------------------------------------------------------*/
FoamFile
{
    version     2.0;
    format      ascii;
    arch        "LSB;label=32;scalar=64";
    class       volScalarField;
    location    "20.00000000";
    object      CH3COCH2_0;
}
// * * * * * * * * * * * * * * * * * * * * * * * * * * * * * * * * * * * * * //

dimensions      [0 0 0 0 0 0 0];

internalField   nonuniform List<scalar> 
3000
(
5.087586129e-24
5.714777831e-24
6.661129015e-24
7.922103434e-24
9.484846562e-24
1.130695107e-23
1.327873443e-23
1.516035564e-23
1.649080198e-23
1.910032554e-23
2.154139024e-23
2.52230469e-23
3.013955363e-23
3.62858883e-23
4.362835239e-23
5.203972699e-23
6.109811717e-23
6.912056727e-23
4.278243239e-23
4.862923779e-23
5.753165164e-23
6.961792711e-23
8.510482366e-23
1.042174809e-22
1.268802781e-22
1.518242303e-22
1.731363632e-22
8.148405477e-23
9.359017433e-23
1.12293687e-22
1.382263361e-22
1.723059228e-22
2.153988315e-22
2.672695847e-22
3.237724336e-22
3.69373736e-22
1.446857203e-22
1.682219301e-22
2.051574886e-22
2.573670664e-22
3.273046838e-22
4.169309057e-22
5.247469289e-22
6.39247976e-22
7.27140927e-22
2.487773274e-22
2.929491657e-22
3.63262906e-22
4.642036686e-22
6.011532534e-22
7.775578399e-22
9.881457028e-22
1.206364688e-21
1.367803903e-21
4.222962238e-22
5.034257511e-22
6.340735957e-22
8.237441878e-22
1.082991137e-21
1.416962278e-21
1.811835158e-21
2.213015922e-21
2.502476495e-21
7.145918066e-22
8.613859931e-22
1.099876282e-21
1.448780892e-21
1.927536572e-21
2.543015113e-21
3.264316333e-21
3.98644768e-21
4.498779515e-21
1.211177112e-21
1.473963094e-21
1.903650475e-21
2.535434937e-21
3.403861822e-21
4.517226083e-21
5.812595925e-21
7.095952418e-21
7.996416741e-21
2.060154584e-21
2.526881546e-21
3.293510394e-21
4.424319821e-21
5.979595912e-21
7.968263272e-21
1.026920143e-20
1.25321356e-20
1.410819744e-20
3.51831814e-21
4.342468744e-21
5.70046048e-21
7.707552975e-21
1.046805292e-20
1.398982273e-20
1.804786141e-20
2.201870748e-20
2.477079124e-20
6.031237481e-21
7.480453017e-21
9.87359811e-21
1.341500043e-20
1.828451127e-20
2.448547722e-20
3.160907611e-20
3.855531761e-20
4.335483928e-20
1.037260069e-20
1.291352283e-20
1.711579625e-20
2.333908834e-20
3.189308858e-20
4.276922049e-20
5.523358229e-20
6.735612033e-20
7.572621475e-20
1.788604986e-20
2.233213816e-20
2.969330923e-20
4.060036696e-20
5.558687787e-20
7.461495386e-20
9.636342453e-20
1.174429899e-19
1.320931612e-19
3.090393597e-20
3.867232983e-20
5.15454587e-20
7.062955328e-20
9.684926133e-20
1.301020989e-19
1.67967233e-19
2.042833991e-19
2.30277285e-19
5.347107141e-20
6.70264114e-20
8.950578382e-20
1.228515236e-19
1.686942477e-19
2.269266954e-19
2.936292967e-19
3.586834342e-19
4.024108842e-19
9.259732867e-20
1.162161099e-19
1.55400271e-19
2.135361924e-19
2.934427368e-19
3.948522394e-19
5.107050556e-19
6.229072956e-19
6.996402627e-19
1.604363485e-19
2.015384588e-19
2.697425206e-19
3.709340999e-19
5.099784405e-19
6.863265754e-19
8.875836579e-19
1.082273514e-18
1.21566688e-18
2.780705974e-19
3.495349269e-19
4.681384012e-19
6.441046102e-19
8.85849101e-19
1.192343638e-18
1.54197786e-18
1.880064387e-18
2.111676527e-18
4.82083137e-19
6.06268817e-19
8.123938252e-19
1.118217649e-18
1.538320386e-18
2.070837472e-18
2.678148618e-18
3.265238114e-18
3.667332218e-18
8.359663128e-19
1.051694091e-18
1.409797139e-18
1.941123955e-18
2.670952813e-18
3.595946811e-18
4.650655563e-18
5.670019422e-18
6.368032005e-18
1.449929087e-18
1.824601927e-18
2.446597404e-18
3.369490006e-18
4.637114111e-18
6.243533674e-18
8.074925321e-18
9.844609427e-18
1.105622552e-17
2.515291638e-18
3.16593991e-18
4.246137872e-18
5.848904502e-18
8.050245957e-18
1.083963184e-17
1.401916493e-17
1.709103874e-17
1.919398431e-17
4.364215671e-18
5.494040873e-18
7.369807122e-18
1.015297219e-17
1.397529642e-17
1.881811863e-17
2.433743308e-17
2.966907056e-17
3.331859207e-17
7.573436684e-18
9.535269493e-18
1.279233641e-17
1.762478169e-17
2.42609191e-17
3.266767029e-17
4.224719903e-17
5.149950944e-17
5.783216362e-17
1.314436957e-17
1.655083756e-17
2.22060767e-17
3.059592442e-17
4.211570057e-17
5.670653505e-17
7.33295016e-17
8.938151754e-17
1.003666891e-16
2.28157841e-17
2.873054726e-17
3.854910575e-17
5.311347276e-17
7.310737752e-17
9.842524108e-17
1.272612338e-16
1.550991005e-16
1.741455288e-16
3.960644769e-17
4.9876099e-17
6.692147774e-17
9.220054489e-17
1.268938998e-16
1.708102973e-16
2.208099509e-16
2.690601876e-16
3.020615092e-16
6.875590281e-17
8.658552174e-17
1.161727522e-16
1.600388971e-16
2.202177371e-16
2.963583044e-16
3.829990442e-16
4.665623272e-16
5.236883704e-16
1.193536148e-16
1.503037766e-16
2.016489065e-16
2.777417426e-16
3.820746179e-16
5.139928774e-16
6.639904095e-16
8.085475034e-16
9.073003273e-16
2.071552354e-16
2.608662756e-16
3.499353111e-16
4.818594723e-16
6.626095203e-16
8.90941834e-16
1.150298024e-15
1.399976563e-15
1.570370167e-15
3.594393592e-16
4.526062461e-16
6.07022144e-16
8.355600594e-16
1.148368412e-15
1.54304007e-15
1.990708513e-15
2.421035469e-15
2.714302655e-15
6.233572437e-16
7.848453453e-16
1.052308342e-15
1.447759372e-15
1.988314331e-15
2.669232352e-15
3.440149842e-15
4.179741948e-15
4.682822625e-15
1.080231216e-15
1.359835408e-15
1.822501587e-15
2.505671802e-15
3.43792176e-15
4.609780458e-15
5.933326688e-15
7.199827033e-15
8.059186308e-15
1.869921095e-15
2.353278726e-15
3.152159636e-15
4.32981257e-15
5.933323185e-15
7.943587159e-15
1.020709852e-14
1.236596867e-14
1.382620523e-14
3.23210355e-15
4.06590492e-15
5.441949355e-15
7.466154266e-15
1.021480378e-14
1.364919822e-14
1.750150094e-14
2.116081997e-14
2.362626658e-14
5.57571154e-15
7.009944729e-15
9.372546622e-15
1.283897591e-14
1.75301655e-14
2.336783801e-14
2.98855292e-14
3.604640791e-14
4.017774618e-14
9.594770562e-15
1.205275273e-14
1.609267333e-14
2.200134447e-14
2.996518731e-14
3.982698905e-14
5.077713089e-14
6.106827551e-14
6.793139963e-14
1.64597421e-14
2.0652711e-14
2.752563171e-14
3.753982834e-14
5.097236673e-14
6.751135532e-14
8.575916147e-14
1.027961881e-13
1.140876022e-13
2.813000572e-14
3.524170379e-14
4.686166138e-14
6.371767321e-14
8.620185471e-14
1.137058621e-13
1.438355867e-13
1.717617303e-13
1.901443645e-13
4.785758305e-14
5.983601769e-14
7.933525337e-14
1.074773516e-13
1.447801863e-13
1.900819581e-13
2.393237402e-13
2.846094439e-13
3.142059669e-13
8.098767853e-14
1.009958987e-13
1.334284062e-13
1.79968425e-13
2.412298213e-13
3.150478288e-13
3.946303636e-13
4.672341001e-13
5.143422137e-13
1.36212811e-13
1.693065182e-13
2.226933971e-13
2.988163747e-13
3.982655622e-13
5.171166485e-13
6.441832077e-13
7.591950872e-13
8.33306345e-13
2.275140432e-13
2.81627487e-13
3.684552652e-13
4.913973025e-13
6.507226002e-13
8.395210706e-13
1.039709914e-12
1.219567398e-12
1.334757255e-12
3.77149595e-13
4.644776699e-13
6.037536382e-13
7.994379342e-13
1.050840802e-12
1.346133178e-12
1.656691535e-12
1.933803041e-12
2.110381029e-12
6.202879187e-13
7.591523196e-13
9.790845354e-13
1.285378692e-12
1.675061456e-12
2.128321945e-12
2.60080648e-12
3.019403299e-12
3.284877721e-12
1.012353717e-12
1.229658781e-12
1.570985324e-12
2.041321743e-12
2.632551929e-12
3.311665378e-12
4.010986648e-12
4.623795798e-12
5.009200973e-12
1.641047365e-12
1.975540247e-12
2.495587227e-12
3.202462633e-12
4.076376264e-12
5.060864781e-12
6.052197926e-12
6.899229445e-12
7.418174971e-12
2.646378598e-12
3.1532205e-12
3.931085012e-12
4.968975519e-12
6.220233227e-12
7.582136776e-12
8.888741557e-12
9.930725151e-12
1.051147618e-11
4.253202484e-12
5.010636527e-12
6.154185416e-12
7.641444629e-12
9.365076774e-12
1.112514396e-11
1.263652756e-11
1.36126257e-11
1.395239622e-11
6.818578677e-12
7.936291663e-12
9.589380604e-12
1.166501652e-11
1.392688038e-11
1.597830511e-11
1.731723757e-11
1.758410882e-11
1.702806195e-11
1.088289789e-11
1.250476517e-11
1.484042219e-11
1.763196782e-11
2.039327017e-11
2.238658249e-11
2.283360104e-11
2.14911963e-11
1.937220854e-11
1.717472206e-11
1.944962801e-11
2.260190841e-11
2.609370974e-11
2.901669018e-11
3.021275066e-11
2.888837232e-11
2.553098633e-11
2.209088846e-11
2.644023537e-11
2.940698476e-11
3.325956278e-11
3.698024937e-11
3.913167199e-11
3.844713116e-11
3.500018073e-11
3.047967334e-11
2.685905075e-11
3.888092424e-11
4.222944142e-11
4.607124675e-11
4.880395106e-11
4.881301303e-11
4.576519816e-11
4.121700451e-11
3.696236265e-11
3.388675876e-11
5.315877354e-11
5.605363281e-11
5.857210051e-11
5.897092098e-11
5.654086559e-11
5.243999643e-11
4.830794136e-11
4.461335475e-11
4.148805329e-11
6.602604678e-11
6.761908857e-11
6.814000792e-11
6.665144238e-11
6.36306996e-11
6.018531277e-11
5.648603106e-11
5.193559241e-11
4.733042227e-11
7.507437332e-11
7.583307954e-11
7.576196124e-11
7.460831366e-11
7.264546921e-11
6.962441545e-11
6.453526407e-11
5.733998862e-11
5.063918069e-11
8.304689347e-11
8.443456166e-11
8.550002809e-11
8.562484749e-11
8.394351662e-11
7.911738444e-11
7.071785033e-11
6.059110132e-11
5.240677883e-11
9.491903053e-11
9.728238684e-11
9.918908534e-11
9.90164972e-11
9.500124892e-11
8.640798129e-11
7.469737167e-11
6.275039506e-11
5.395523599e-11
1.114379813e-10
1.135638487e-10
1.141748994e-10
1.11065364e-10
1.030801299e-10
9.113810962e-11
7.763385431e-11
6.511488266e-11
5.629679593e-11
1.279837286e-10
1.281732924e-10
1.256702393e-10
1.189225726e-10
1.080513635e-10
9.470879687e-11
8.098196349e-11
6.874005413e-11
6.020030412e-11
1.387008658e-10
1.367053643e-10
1.317148995e-10
1.231415936e-10
1.116743165e-10
9.877286223e-11
8.592543395e-11
7.448498124e-11
6.641124421e-11
1.423129421e-10
1.394712699e-10
1.340496361e-10
1.259257612e-10
1.157664042e-10
1.04583571e-10
9.338235418e-11
8.31968702e-11
7.580695827e-11
1.415702375e-10
1.393314597e-10
1.352171049e-10
1.291629542e-10
1.215478502e-10
1.130004932e-10
1.041744567e-10
9.582476903e-11
8.948357486e-11
1.394641435e-10
1.387441601e-10
1.369720769e-10
1.339289476e-10
1.297287432e-10
1.246780301e-10
1.191133838e-10
1.13447361e-10
1.087578694e-10
1.378298223e-10
1.390587513e-10
1.40168831e-10
1.407755312e-10
1.407624536e-10
1.401669015e-10
1.390019744e-10
1.372031926e-10
1.350588158e-10
1.37525914e-10
1.409247104e-10
1.452637859e-10
1.5004597e-10
1.54999072e-10
1.599478427e-10
1.645614571e-10
1.681241266e-10
1.696965228e-10
1.390945797e-10
1.447976832e-10
1.526331917e-10
1.620722874e-10
1.727767007e-10
1.844208836e-10
1.96311905e-10
2.069019899e-10
2.135395428e-10
1.430980372e-10
1.512062315e-10
1.627632996e-10
1.772895435e-10
1.944650976e-10
2.138729044e-10
2.344486055e-10
2.536614387e-10
2.66699825e-10
1.502789993e-10
1.608708512e-10
1.763243217e-10
1.9626821e-10
2.204613702e-10
2.484387752e-10
2.787696122e-10
3.07859021e-10
3.284183377e-10
1.61570643e-10
1.746896363e-10
1.941306492e-10
2.196563885e-10
2.511306141e-10
2.88069071e-10
3.28719358e-10
3.684901326e-10
3.975896394e-10
1.779787685e-10
1.936054498e-10
2.169958607e-10
2.4803812e-10
2.867016564e-10
3.32526574e-10
3.835959711e-10
4.347326805e-10
4.734266759e-10
2.003723437e-10
2.183920393e-10
2.455244196e-10
2.8175753e-10
3.271766337e-10
3.814593013e-10
4.429258208e-10
5.053062242e-10
5.524557353e-10
2.292511135e-10
2.494362168e-10
2.799319217e-10
3.208225367e-10
3.724071931e-10
4.348547445e-10
5.056727007e-10
5.769583533e-10
6.310964359e-10
2.646024495e-10
2.866442166e-10
3.200553118e-10
3.650575006e-10
4.226191462e-10
4.916143117e-10
5.689000942e-10
6.462935202e-10
7.051999777e-10
3.060241542e-10
3.29676987e-10
3.659732885e-10
4.148687746e-10
4.762378103e-10
5.489842248e-10
6.297589514e-10
7.102298114e-10
7.71510085e-10
3.537226411e-10
3.788724195e-10
4.16897601e-10
4.675361494e-10
5.302983353e-10
6.041036236e-10
6.854606607e-10
7.659482439e-10
8.271691212e-10
4.060178624e-10
4.315502319e-10
4.698305728e-10
5.20280975e-10
5.823976009e-10
6.546243941e-10
7.335095324e-10
8.110550597e-10
8.699267408e-10
4.598251034e-10
4.848008149e-10
5.219878649e-10
5.705778731e-10
6.298166186e-10
6.979579579e-10
7.716643694e-10
8.436752457e-10
8.982345968e-10
5.122404663e-10
5.357663127e-10
5.705119798e-10
6.156619376e-10
6.700557947e-10
7.319783911e-10
7.981944855e-10
8.625806096e-10
9.113029715e-10
5.604917244e-10
5.817914123e-10
6.130536184e-10
6.531564395e-10
7.009779267e-10
7.548343781e-10
8.119424858e-10
8.672432449e-10
9.091030927e-10
6.019905572e-10
6.203616779e-10
6.471178942e-10
6.81102445e-10
7.210803243e-10
7.655793198e-10
8.124979385e-10
8.578622362e-10
8.923210328e-10
6.345344436e-10
6.494336702e-10
6.709333372e-10
6.979230267e-10
7.292749052e-10
7.638247767e-10
8.000944348e-10
8.352454702e-10
8.621815736e-10
6.56447858e-10
6.675364627e-10
6.833524702e-10
7.029272582e-10
7.253517081e-10
7.498245171e-10
7.754618486e-10
8.004711498e-10
8.198680184e-10
6.666754835e-10
6.738322426e-10
6.838578078e-10
6.959968615e-10
7.096087966e-10
7.242274588e-10
7.393858418e-10
7.539446156e-10
7.643874026e-10
6.648163405e-10
6.681200152e-10
6.725211044e-10
6.775025206e-10
6.826611044e-10
6.876970693e-10
6.920848546e-10
6.965015624e-10
7.010058627e-10
6.510440098e-10
6.507084317e-10
6.497861325e-10
6.479409127e-10
6.44849789e-10
6.40248212e-10
6.362174483e-10
6.341870491e-10
6.345615763e-10
6.25716024e-10
6.219423681e-10
6.157540739e-10
6.069140838e-10
5.966277011e-10
5.860072216e-10
5.766952512e-10
5.702846237e-10
5.676966365e-10
5.879685472e-10
5.809272785e-10
5.706431306e-10
5.577602119e-10
5.434150824e-10
5.290207741e-10
5.162699927e-10
5.068979017e-10
5.022377856e-10
5.413753692e-10
5.326521801e-10
5.201960952e-10
5.049759394e-10
4.882687507e-10
4.716194572e-10
4.567805171e-10
4.455649269e-10
4.395667481e-10
4.906048854e-10
4.810265907e-10
4.674692354e-10
4.510637015e-10
4.331918262e-10
4.154550375e-10
3.996091815e-10
3.874657876e-10
3.80738228e-10
4.382728498e-10
4.284011224e-10
4.145040515e-10
3.977930817e-10
3.796940089e-10
3.618022687e-10
3.458183047e-10
3.334829004e-10
3.265148525e-10
3.862581222e-10
3.765224486e-10
3.628753849e-10
3.465493855e-10
3.289576868e-10
3.116369462e-10
2.961846145e-10
2.842195993e-10
2.773834829e-10
3.360527369e-10
3.267814462e-10
3.138328869e-10
2.98412149e-10
2.81873018e-10
2.656525444e-10
2.51212001e-10
2.400161808e-10
2.335757514e-10
2.888276213e-10
2.80255204e-10
2.683209114e-10
2.541644028e-10
2.390445949e-10
2.242709861e-10
2.111495786e-10
2.009754046e-10
1.950986617e-10
2.454325301e-10
2.377059133e-10
2.269788357e-10
2.14298257e-10
2.008047329e-10
1.876646103e-10
1.760216276e-10
1.669985464e-10
1.617741306e-10
2.063991278e-10
1.995881597e-10
1.901545397e-10
1.790358624e-10
1.672419192e-10
1.55790777e-10
1.456668468e-10
1.378275781e-10
1.332825447e-10
1.719641892e-10
1.660756694e-10
1.57935699e-10
1.48365416e-10
1.382410218e-10
1.284357343e-10
1.197840463e-10
1.130911477e-10
1.092082278e-10
1.421130761e-10
1.371070197e-10
1.301979607e-10
1.220912087e-10
1.13533837e-10
1.052635275e-10
9.797858188e-11
9.234829587e-11
8.908113611e-11
1.166369342e-10
1.124421676e-10
1.066600879e-10
9.988644961e-11
9.274868873e-11
8.586193011e-11
7.980415239e-11
7.512634403e-11
7.241201653e-11
9.519197913e-11
9.171983037e-11
8.693837676e-11
8.134371106e-11
7.545608309e-11
6.978281862e-11
6.479796315e-11
6.095154119e-11
5.872008871e-11
7.735491206e-11
7.451011391e-11
7.059526223e-11
6.601855492e-11
6.120677617e-11
5.657454793e-11
5.250777868e-11
4.9371704e-11
4.755288266e-11
6.266945094e-11
6.035803264e-11
5.717862643e-11
5.346382571e-11
4.956068688e-11
4.580556743e-11
4.251075128e-11
3.997118773e-11
3.849881249e-11
5.068172933e-11
4.881613813e-11
4.625062678e-11
4.325405706e-11
4.010668202e-11
3.707977305e-11
3.442486144e-11
3.237923881e-11
3.119363986e-11
4.096452778e-11
3.946647589e-11
3.740657383e-11
3.500082848e-11
3.247432219e-11
3.004485955e-11
2.791433263e-11
2.627312411e-11
2.532221934e-11
3.313172422e-11
3.193333817e-11
3.028541143e-11
2.836068586e-11
2.633920712e-11
2.439527231e-11
2.269053709e-11
2.137747684e-11
2.061691619e-11
2.684503559e-11
2.588885595e-11
2.457378178e-11
2.303749981e-11
2.142362309e-11
1.98713267e-11
1.850985039e-11
1.746118981e-11
1.685391969e-11
2.18152069e-11
2.105347706e-11
2.000557594e-11
1.878101366e-11
1.749414027e-11
1.625594423e-11
1.516967259e-11
1.433290637e-11
1.384842493e-11
1.779960205e-11
1.719319516e-11
1.635870112e-11
1.538311861e-11
1.43574182e-11
1.337006694e-11
1.250354132e-11
1.183591941e-11
1.14494061e-11
1.459775906e-11
1.411497211e-11
1.345034307e-11
1.267296395e-11
1.185519807e-11
1.106757378e-11
1.037600967e-11
9.843033128e-12
9.534469484e-12
1.20460307e-11
1.166139227e-11
1.11316541e-11
1.051170728e-11
9.859144293e-12
9.23023463e-12
8.67771716e-12
8.251733375e-12
8.005082784e-12
1.001206705e-11
9.705241262e-12
9.282473339e-12
8.787413471e-12
8.265947255e-12
7.763023675e-12
7.320899027e-12
6.979854181e-12
6.782334127e-12
8.389597797e-12
8.144422931e-12
7.806434073e-12
7.410392081e-12
6.992910871e-12
6.589955989e-12
6.235447815e-12
5.961816493e-12
5.803274756e-12
7.093755374e-12
6.897427503e-12
6.626633923e-12
6.309107264e-12
5.974118887e-12
5.650504621e-12
5.365553863e-12
5.145443112e-12
5.017836061e-12
6.05703333e-12
5.899429077e-12
5.681924698e-12
5.426693929e-12
5.157190534e-12
4.896588456e-12
4.666898509e-12
4.489311385e-12
4.386275459e-12
5.225884208e-12
5.099008311e-12
4.923807018e-12
4.718053555e-12
4.500588145e-12
4.290084084e-12
4.104345702e-12
3.960583984e-12
3.877088395e-12
4.557910226e-12
4.455450503e-12
4.313875921e-12
4.147471924e-12
3.971415458e-12
3.800797631e-12
3.650066134e-12
3.533250686e-12
3.46531871e-12
4.019576403e-12
3.936548452e-12
3.821746841e-12
3.686688443e-12
3.543637016e-12
3.404828104e-12
3.282026656e-12
3.186715058e-12
3.13120198e-12
3.584368621e-12
3.516833995e-12
3.423387849e-12
3.313345527e-12
3.196650045e-12
3.083256604e-12
2.982782159e-12
2.904665457e-12
2.859082578e-12
3.231321656e-12
3.176165325e-12
3.099788185e-12
3.009751554e-12
2.914146077e-12
2.821102416e-12
2.738514263e-12
2.674177334e-12
2.63655298e-12
2.943849556e-12
2.89860469e-12
2.835900801e-12
2.76189877e-12
2.683207602e-12
2.606495025e-12
2.538269217e-12
2.48500186e-12
2.453771878e-12
2.708820016e-12
2.67153028e-12
2.619805627e-12
2.558686288e-12
2.493593492e-12
2.430019295e-12
2.373355298e-12
2.32900352e-12
2.302925127e-12
2.51582388e-12
2.4849353e-12
2.442049169e-12
2.391306813e-12
2.337174976e-12
2.284198605e-12
2.236867177e-12
2.199716192e-12
2.177800248e-12
2.35659964e-12
2.33087571e-12
2.295124106e-12
2.252763299e-12
2.207491062e-12
2.16308737e-12
2.123310884e-12
2.091993098e-12
2.073450861e-12
2.224580552e-12
2.20303556e-12
2.173059612e-12
2.137488334e-12
2.099398324e-12
2.061950002e-12
2.028308278e-12
2.001730878e-12
1.98593214e-12
2.114538291e-12
2.096384919e-12
2.071098859e-12
2.041044474e-12
2.008795148e-12
1.977008044e-12
1.948364195e-12
1.925652138e-12
1.912092283e-12
2.02230262e-12
2.006910732e-12
1.98544525e-12
1.959888358e-12
1.932404552e-12
1.905240941e-12
1.880682932e-12
1.861134029e-12
1.84940809e-12
1.944540833e-12
1.931405026e-12
1.913062624e-12
1.891184908e-12
1.867603078e-12
1.844229027e-12
1.823023571e-12
1.806073046e-12
1.795855257e-12
1.878584034e-12
1.867298036e-12
1.851517814e-12
1.832660897e-12
1.812285889e-12
1.792029694e-12
1.773585837e-12
1.758778346e-12
1.749805994e-12
1.822290203e-12
1.812526667e-12
1.798856517e-12
1.78248945e-12
1.76476033e-12
1.74707965e-12
1.730919971e-12
1.717887467e-12
1.709948134e-12
1.773936171e-12
1.765430699e-12
1.753505307e-12
1.739198848e-12
1.723661859e-12
1.708117691e-12
1.693855494e-12
1.682299702e-12
1.675221165e-12
1.732132301e-12
1.724670792e-12
1.714194218e-12
1.70160045e-12
1.687887569e-12
1.674123616e-12
1.661444838e-12
1.651123356e-12
1.644765578e-12
1.695755013e-12
1.68916363e-12
1.679895487e-12
1.668731645e-12
1.656543566e-12
1.644269843e-12
1.632918687e-12
1.623633944e-12
1.617882718e-12
1.663893351e-12
1.658030554e-12
1.649775028e-12
1.63981064e-12
1.62890324e-12
1.617883047e-12
1.607650548e-12
1.599241019e-12
1.594002907e-12
1.635806616e-12
1.630556821e-12
1.623153932e-12
1.614200587e-12
1.604374149e-12
1.59441368e-12
1.585128598e-12
1.577461806e-12
1.57266011e-12
1.610890712e-12
1.606159237e-12
1.599477875e-12
1.591381066e-12
1.582471679e-12
1.573411741e-12
1.564933285e-12
1.557900209e-12
1.553471755e-12
1.588651381e-12
1.584360415e-12
1.578292779e-12
1.570925377e-12
1.562798072e-12
1.554507457e-12
1.546719476e-12
1.540230083e-12
1.536122647e-12
1.56868287e-12
1.56476825e-12
1.559225399e-12
1.552482447e-12
1.545025694e-12
1.537395876e-12
1.530202198e-12
1.524181862e-12
1.520352112e-12
1.550650916e-12
1.547059544e-12
1.541967834e-12
1.535762361e-12
1.528883664e-12
1.521824548e-12
1.515145243e-12
1.50953187e-12
1.505943708e-12
1.534279134e-12
1.530966903e-12
1.526265129e-12
1.5205248e-12
1.514147153e-12
1.507583651e-12
1.501352029e-12
1.496093746e-12
1.49271698e-12
1.519338118e-12
1.51626825e-12
1.511905345e-12
1.506569757e-12
1.500628796e-12
1.494498079e-12
1.488658268e-12
1.483711563e-12
1.48052083e-12
1.505636698e-12
1.5027784e-12
1.498711582e-12
1.493730091e-12
1.488171798e-12
1.482421072e-12
1.476926067e-12
1.472254283e-12
1.46922819e-12
1.493014904e-12
1.490342287e-12
1.486535566e-12
1.481865532e-12
1.476644377e-12
1.471229093e-12
1.466039175e-12
1.461611294e-12
1.458731711e-12
1.481338306e-12
1.478829511e-12
1.475252479e-12
1.470857843e-12
1.465935284e-12
1.460817682e-12
1.45589914e-12
1.451688799e-12
1.448940295e-12
1.470493441e-12
1.46812993e-12
1.464756781e-12
1.460606916e-12
1.455950178e-12
1.451098111e-12
1.446422203e-12
1.442406891e-12
1.439776269e-12
1.460384115e-12
1.458150095e-12
1.454958831e-12
1.451027605e-12
1.446608693e-12
1.441994663e-12
1.437536774e-12
1.433697181e-12
1.431173101e-12
1.450928405e-12
1.448810361e-12
1.445782145e-12
1.442047158e-12
1.43784205e-12
1.433442433e-12
1.429181379e-12
1.425500864e-12
1.423073539e-12
1.442056224e-12
1.440042538e-12
1.437161163e-12
1.433603129e-12
1.429591115e-12
1.425385518e-12
1.421302989e-12
1.417767142e-12
1.415428083e-12
1.433707337e-12
1.431787974e-12
1.429039436e-12
1.42564167e-12
1.421804818e-12
1.417775555e-12
1.413855647e-12
1.410451935e-12
1.408193747e-12
1.425829737e-12
1.423995992e-12
1.421368133e-12
1.418116138e-12
1.414438846e-12
1.410570512e-12
1.406799353e-12
1.403516824e-12
1.401333032e-12
1.418378324e-12
1.416622612e-12
1.414104828e-12
1.410985952e-12
1.407454585e-12
1.403733701e-12
1.400099132e-12
1.396928173e-12
1.394813085e-12
1.411313813e-12
1.409629493e-12
1.407212498e-12
1.404215646e-12
1.400818239e-12
1.397232957e-12
1.393724277e-12
1.390656413e-12
1.388605002e-12
1.404601835e-12
1.40298307e-12
1.400658694e-12
1.397774099e-12
1.394500104e-12
1.391039969e-12
1.387647719e-12
1.384675445e-12
1.382683252e-12
1.398212195e-12
1.396653833e-12
1.39441486e-12
1.391633886e-12
1.388473969e-12
1.385129712e-12
1.381845496e-12
1.378962141e-12
1.377025194e-12
1.392118263e-12
1.390615735e-12
1.388455766e-12
1.385770748e-12
1.382716611e-12
1.379479987e-12
1.376296322e-12
1.37349593e-12
1.371610678e-12
1.386296454e-12
1.384845697e-12
1.382759033e-12
1.380163139e-12
1.377207381e-12
1.374071025e-12
1.370981218e-12
1.368258453e-12
1.366421706e-12
1.380725806e-12
1.379323192e-12
1.377304741e-12
1.374791861e-12
1.371927855e-12
1.368885161e-12
1.365883202e-12
1.363233264e-12
1.361442149e-12
1.375387623e-12
1.374029897e-12
1.372075091e-12
1.369639741e-12
1.366861532e-12
1.363906558e-12
1.360987031e-12
1.358405588e-12
1.356657507e-12
1.370265169e-12
1.368949405e-12
1.367054134e-12
1.364691374e-12
1.361993593e-12
1.359120974e-12
1.356278983e-12
1.353762109e-12
1.352054704e-12
1.365343416e-12
1.364066974e-12
1.362227527e-12
1.359932892e-12
1.357310681e-12
1.35451556e-12
1.351746661e-12
1.349290792e-12
1.347621916e-12
1.360608829e-12
1.359369318e-12
1.357582333e-12
1.355351777e-12
1.35280073e-12
1.350078691e-12
1.347378844e-12
1.344980729e-12
1.34334842e-12
1.356049179e-12
1.354844429e-12
1.353106853e-12
1.350936698e-12
1.348452802e-12
1.345799823e-12
1.34316534e-12
1.340822008e-12
1.339224468e-12
1.351653388e-12
1.350481424e-12
1.348790475e-12
1.346677366e-12
1.344256962e-12
1.341669367e-12
1.339096871e-12
1.336805597e-12
1.335241177e-12
1.347411394e-12
1.346270412e-12
1.344623549e-12
1.34256442e-12
1.340204157e-12
1.337678577e-12
1.335164972e-12
1.33292325e-12
1.331390428e-12
1.343314033e-12
1.342202381e-12
1.340597277e-12
1.338589317e-12
1.336286122e-12
1.333819464e-12
1.331361898e-12
1.32916742e-12
1.327664791e-12
1.339352937e-12
1.338269101e-12
1.336703618e-12
1.334744245e-12
1.332495291e-12
1.330084705e-12
1.327680549e-12
1.325531182e-12
1.324057444e-12
1.335520449e-12
1.334463035e-12
1.332935207e-12
1.331022043e-12
1.328824723e-12
1.326467578e-12
1.324114403e-12
1.32200817e-12
1.320562116e-12
1.331809542e-12
1.330777264e-12
1.329285278e-12
1.327416127e-12
1.325268033e-12
1.322961897e-12
1.32065745e-12
1.318592518e-12
1.317173024e-12
1.328213754e-12
1.327205425e-12
1.325747602e-12
1.323920433e-12
1.321819336e-12
1.319561953e-12
1.317304145e-12
1.315278807e-12
1.313884827e-12
1.324727122e-12
1.323741643e-12
1.322316431e-12
1.320529361e-12
1.318473192e-12
1.316262466e-12
1.314049353e-12
1.312062023e-12
1.310692579e-12
1.321344131e-12
1.320380482e-12
1.318986438e-12
1.317237718e-12
1.315224554e-12
1.313058537e-12
1.31088831e-12
1.308937506e-12
1.307591688e-12
1.31805966e-12
1.317116891e-12
1.315752674e-12
1.314040677e-12
1.312068727e-12
1.309945603e-12
1.307816574e-12
1.305900915e-12
1.304577872e-12
1.31486893e-12
1.313946158e-12
1.312610516e-12
1.310933724e-12
1.309001317e-12
1.306919392e-12
1.304829987e-12
1.302948186e-12
1.301647123e-12
1.311767458e-12
1.310863855e-12
1.309555619e-12
1.307912612e-12
1.306018187e-12
1.303975879e-12
1.301924628e-12
1.300075484e-12
1.298795665e-12
1.308751e-12
1.307865791e-12
1.306583863e-12
1.304973311e-12
1.303115405e-12
1.301111232e-12
1.299096763e-12
1.297279158e-12
1.2960199e-12
1.305815497e-12
1.30494795e-12
1.303691297e-12
1.302111946e-12
1.300289183e-12
1.298321755e-12
1.296342786e-12
1.294555683e-12
1.293316357e-12
1.302957008e-12
1.302106428e-12
1.300874068e-12
1.299324729e-12
1.297535808e-12
1.295603815e-12
1.293659145e-12
1.291901579e-12
1.29068161e-12
1.300171632e-12
1.299337352e-12
1.298128343e-12
1.296607879e-12
1.294851555e-12
1.292953752e-12
1.291042248e-12
1.289313327e-12
1.288112191e-12
1.297455416e-12
1.296636785e-12
1.29545021e-12
1.293957511e-12
1.292232579e-12
1.290367767e-12
1.288488351e-12
1.286787235e-12
1.285604459e-12
1.294804241e-12
1.29400061e-12
1.292835551e-12
1.291369516e-12
1.289674779e-12
1.287841776e-12
1.285993397e-12
1.28431929e-12
1.283154438e-12
1.292213682e-12
1.291424383e-12
1.290279902e-12
1.288839397e-12
1.28717363e-12
1.28537123e-12
1.28355283e-12
1.281904948e-12
1.280757611e-12
1.289678841e-12
1.288903166e-12
1.287778259e-12
1.286362078e-12
1.284723972e-12
1.282950895e-12
1.281161357e-12
1.27953888e-12
1.278408649e-12
1.287194149e-12
1.28643131e-12
1.285324867e-12
1.283931667e-12
1.282319766e-12
1.280574576e-12
1.278812648e-12
1.277214668e-12
1.276101092e-12
1.284753121e-12
1.284002218e-12
1.282912958e-12
1.281541182e-12
1.279953785e-12
1.2782348e-12
1.276498997e-12
1.27492442e-12
1.273826951e-12
1.282348088e-12
1.281608052e-12
1.280534449e-12
1.279182232e-12
1.277617281e-12
1.275922437e-12
1.274210913e-12
1.272658348e-12
1.271576257e-12
1.279969885e-12
1.279239414e-12
1.278179605e-12
1.276844649e-12
1.275299587e-12
1.273626284e-12
1.271936664e-12
1.270404268e-12
1.269336544e-12
1.277607503e-12
1.276884993e-12
1.275836664e-12
1.274516099e-12
1.272987697e-12
1.271332604e-12
1.269661786e-12
1.268147077e-12
1.267092291e-12
1.275247724e-12
1.274531179e-12
1.273491443e-12
1.27218166e-12
1.270665816e-12
1.269024648e-12
1.267368561e-12
1.265868194e-12
1.264824336e-12
1.272874741e-12
1.272161679e-12
1.271126927e-12
1.269823393e-12
1.268314909e-12
1.26668217e-12
1.265035507e-12
1.263545015e-12
1.262509308e-12
1.270469775e-12
1.269757124e-12
1.268722878e-12
1.267419929e-12
1.265912271e-12
1.264280975e-12
1.262636896e-12
1.261150406e-12
1.260119098e-12
1.268010728e-12
1.267294718e-12
1.266255465e-12
1.264946107e-12
1.263431147e-12
1.261792534e-12
1.260142359e-12
1.258652298e-12
1.257620443e-12
1.265471877e-12
1.264747936e-12
1.263696975e-12
1.262372673e-12
1.260840447e-12
1.259183703e-12
1.257516612e-12
1.256013421e-12
1.254974665e-12
1.262823662e-12
1.262086317e-12
1.261015615e-12
1.25966611e-12
1.258104593e-12
1.256416599e-12
1.254719371e-12
1.253191247e-12
1.252137645e-12
1.26003258e-12
1.25927538e-12
1.258175455e-12
1.256788615e-12
1.255183552e-12
1.253448691e-12
1.2517055e-12
1.250138217e-12
1.249060096e-12
1.25706124e-12
1.256276703e-12
1.25513655e-12
1.253698284e-12
1.252033086e-12
1.25023314e-12
1.248425465e-12
1.246802293e-12
1.24568821e-12
1.2538686e-12
1.253048203e-12
1.251855286e-12
1.250349532e-12
1.248605283e-12
1.246719462e-12
1.244826137e-12
1.243127921e-12
1.241964737e-12
1.250410438e-12
1.249544655e-12
1.248284969e-12
1.246693797e-12
1.244849395e-12
1.242854528e-12
1.240851986e-12
1.239057424e-12
1.237830545e-12
1.246640067e-12
1.245718471e-12
1.244376705e-12
1.242680546e-12
1.240713013e-12
1.238583941e-12
1.236446696e-12
1.234532868e-12
1.233226688e-12
1.242509319e-12
1.24152076e-12
1.240080575e-12
1.238258603e-12
1.236143586e-12
1.233853797e-12
1.231555195e-12
1.229498379e-12
1.228096963e-12
1.237969817e-12
1.236902681e-12
1.235347105e-12
1.233377794e-12
1.231090281e-12
1.228612796e-12
1.226126072e-12
1.22390288e-12
1.222390907e-12
1.232974504e-12
1.231817058e-12
1.230129024e-12
1.227990871e-12
1.225506134e-12
1.222814674e-12
1.220114315e-12
1.217703158e-12
1.216067133e-12
1.227479415e-12
1.226220242e-12
1.224383253e-12
1.222055689e-12
1.219350443e-12
1.216420846e-12
1.213484257e-12
1.210867124e-12
1.209096848e-12
1.221445636e-12
1.220074154e-12
1.218073072e-12