/*--------------------------------*- C++ -*----------------------------------*\
| =========                 |                                                 |
| \\      /  F ield         | OpenFOAM: The Open Source CFD Toolbox           |
|  \\    /   O peration     | Version:  2212                                  |
|   \\  /    A nd           | Website:  www.openfoam.com                      |
|    \\/     M anipulation  |                                                 |
\*---------------------------------------------------------------------------*/
FoamFile
{
    version     2.0;
    format      ascii;
    arch        "LSB;label=32;scalar=64";
    class       volScalarField;
    location    "20.00000000";
    object      CH4;
}
// * * * * * * * * * * * * * * * * * * * * * * * * * * * * * * * * * * * * * //

dimensions      [0 0 0 0 0 0 0];

internalField   nonuniform List<scalar> 
3000
(
0.0004199879352
0.0004199879352
0.0004199879352
0.0004199879352
0.0004199879352
0.0004199879352
0.0004199879352
0.0004199879352
0.0004199879352
0.0004199879352
0.0004199879352
0.0004199879352
0.0004199879352
0.0004199879352
0.0004199879352
0.0004199879352
0.0004199879352
0.0004199879352
0.0004199879352
0.0004199879352
0.0004199879352
0.0004199879352
0.0004199879352
0.0004199879352
0.0004199879352
0.0004199879352
0.0004199879352
0.0004199879352
0.0004199879352
0.0004199879352
0.0004199879352
0.0004199879352
0.0004199879352
0.0004199879352
0.0004199879352
0.0004199879352
0.0004199879352
0.0004199879352
0.0004199879352
0.0004199879352
0.0004199879352
0.0004199879352
0.0004199879352
0.0004199879352
0.0004199879352
0.0004199879352
0.0004199879352
0.0004199879352
0.0004199879352
0.0004199879352
0.0004199879352
0.0004199879352
0.0004199879352
0.0004199879352
0.0004199879352
0.0004199879352
0.0004199879352
0.0004199879352
0.0004199879352
0.0004199879352
0.0004199879352
0.0004199879352
0.0004199879352
0.0004199879352
0.0004199879352
0.0004199879352
0.0004199879352
0.0004199879352
0.0004199879352
0.0004199879352
0.0004199879352
0.0004199879352
0.0004199879352
0.0004199879352
0.0004199879352
0.0004199879352
0.0004199879352
0.0004199879352
0.0004199879352
0.0004199879352
0.0004199879352
0.0004199879352
0.0004199879352
0.0004199879352
0.0004199879352
0.0004199879352
0.0004199879352
0.0004199879352
0.0004199879352
0.0004199879352
0.0004199879352
0.0004199879352
0.0004199879352
0.0004199879352
0.0004199879352
0.0004199879352
0.0004199879352
0.0004199879352
0.0004199879352
0.0004199879352
0.0004199879352
0.0004199879352
0.0004199879352
0.0004199879352
0.0004199879352
0.0004199879352
0.0004199879352
0.0004199879352
0.0004199879352
0.0004199879352
0.0004199879352
0.0004199879352
0.0004199879352
0.0004199879352
0.0004199879352
0.0004199879352
0.0004199879352
0.0004199879352
0.0004199879352
0.0004199879352
0.0004199879352
0.0004199879352
0.0004199879352
0.0004199879352
0.0004199879352
0.0004199879352
0.0004199879352
0.0004199879352
0.0004199879352
0.0004199879352
0.0004199879352
0.0004199879352
0.0004199879352
0.0004199879352
0.0004199879352
0.0004199879352
0.0004199879352
0.0004199879352
0.0004199879352
0.0004199879352
0.0004199879352
0.0004199879352
0.0004199879352
0.0004199879352
0.0004199879352
0.0004199879352
0.0004199879352
0.0004199879352
0.0004199879352
0.0004199879352
0.0004199879352
0.0004199879352
0.0004199879352
0.0004199879352
0.0004199879352
0.0004199879352
0.0004199879352
0.0004199879352
0.0004199879352
0.0004199879352
0.0004199879352
0.0004199879352
0.0004199879352
0.0004199879352
0.0004199879352
0.0004199879352
0.0004199879352
0.0004199879352
0.0004199879352
0.0004199879352
0.0004199879352
0.0004199879352
0.0004199879352
0.0004199879352
0.0004199879352
0.0004199879352
0.0004199879352
0.0004199879352
0.0004199879352
0.0004199879352
0.0004199879352
0.0004199879352
0.0004199879352
0.0004199879352
0.0004199879352
0.0004199879352
0.0004199879352
0.0004199879352
0.0004199879352
0.0004199879352
0.0004199879352
0.0004199879352
0.0004199879352
0.0004199879352
0.0004199879352
0.0004199879352
0.0004199879352
0.0004199879352
0.0004199879352
0.0004199879352
0.0004199879352
0.0004199879352
0.0004199879352
0.0004199879352
0.0004199879352
0.0004199879352
0.0004199879352
0.0004199879352
0.0004199879352
0.0004199879352
0.0004199879352
0.0004199879352
0.0004199879352
0.0004199879352
0.0004199879352
0.0004199879352
0.0004199879352
0.0004199879352
0.0004199879352
0.0004199879352
0.0004199879352
0.0004199879352
0.0004199879352
0.0004199879352
0.0004199879352
0.0004199879352
0.0004199879352
0.0004199879352
0.0004199879352
0.0004199879352
0.0004199879352
0.0004199879352
0.0004199879352
0.0004199879352
0.0004199879352
0.0004199879352
0.0004199879352
0.0004199879352
0.0004199879352
0.0004199879352
0.0004199879352
0.0004199879352
0.0004199879352
0.0004199879352
0.0004199879352
0.0004199879352
0.0004199879352
0.0004199879352
0.0004199879352
0.0004199879353
0.0004199879353
0.0004199879353
0.0004199879352
0.0004199879352
0.0004199879352
0.0004199879352
0.0004199879353
0.0004199879353
0.0004199879353
0.0004199879353
0.0004199879353
0.0004199879352
0.0004199879352
0.0004199879352
0.0004199879353
0.0004199879353
0.0004199879353
0.0004199879354
0.0004199879354
0.0004199879354
0.0004199879352
0.0004199879353
0.0004199879353
0.0004199879353
0.0004199879354
0.0004199879354
0.0004199879355
0.0004199879355
0.0004199879356
0.0004199879353
0.0004199879353
0.0004199879353
0.0004199879354
0.0004199879355
0.0004199879356
0.0004199879357
0.0004199879358
0.0004199879359
0.0004199879354
0.0004199879354
0.0004199879355
0.0004199879356
0.0004199879357
0.0004199879359
0.0004199879361
0.0004199879363
0.0004199879364
0.0004199879355
0.0004199879355
0.0004199879357
0.0004199879358
0.0004199879361
0.0004199879364
0.0004199879367
0.000419987937
0.0004199879372
0.0004199879357
0.0004199879358
0.000419987936
0.0004199879363
0.0004199879367
0.0004199879372
0.0004199879378
0.0004199879383
0.0004199879387
0.000419987936
0.0004199879362
0.0004199879366
0.0004199879371
0.0004199879378
0.0004199879386
0.0004199879396
0.0004199879405
0.0004199879412
0.0004199879366
0.000419987937
0.0004199879376
0.0004199879384
0.0004199879396
0.0004199879411
0.0004199879427
0.0004199879443
0.0004199879453
0.0004199879376
0.0004199879382
0.0004199879393
0.0004199879408
0.0004199879428
0.0004199879453
0.000419987948
0.0004199879506
0.0004199879524
0.0004199879394
0.0004199879404
0.0004199879422
0.0004199879447
0.0004199879481
0.0004199879523
0.0004199879569
0.0004199879612
0.000419987964
0.0004199879423
0.0004199879441
0.0004199879471
0.0004199879514
0.000419987957
0.000419987964
0.0004199879716
0.0004199879787
0.0004199879833
0.0004199879474
0.0004199879504
0.0004199879554
0.0004199879625
0.000419987972
0.0004199879834
0.0004199879959
0.0004199880073
0.0004199880148
0.0004199879559
0.000419987961
0.0004199879692
0.0004199879811
0.0004199879966
0.0004199880153
0.0004199880354
0.0004199880538
0.0004199880656
0.0004199879702
0.0004199879786
0.0004199879923
0.0004199880117
0.000419988037
0.0004199880672
0.0004199880993
0.0004199881284
0.000419988147
0.000419987994
0.0004199880079
0.0004199880302
0.0004199880618
0.0004199881025
0.0004199881506
0.0004199882014
0.0004199882468
0.0004199882757
0.0004199880333
0.000419988056
0.0004199880922
0.0004199881429
0.0004199882077
0.0004199882835
0.0004199883627
0.0004199884328
0.0004199884772
0.0004199880981
0.0004199881346
0.0004199881925
0.0004199882729
0.0004199883749
0.0004199884928
0.0004199886149
0.000419988722
0.0004199887892
0.0004199882035
0.0004199882617
0.0004199883533
0.0004199884794
0.0004199886377
0.0004199888191
0.0004199890049
0.0004199891666
0.0004199892673
0.0004199883738
0.0004199884654
0.0004199886084
0.0004199888037
0.0004199890466
0.0004199893222
0.000419989602
0.0004199898435
0.0004199899929
0.0004199886464
0.0004199887888
0.0004199890094
0.0004199893082
0.0004199896764
0.0004199900904
0.0004199905071
0.000419990864
0.0004199910836
0.0004199890787
0.000419989297
0.0004199896333
0.000419990085
0.0004199906369
0.0004199912519
0.0004199918662
0.0004199923889
0.0004199927087
0.0004199897574
0.0004199900882
0.0004199905946
0.0004199912697
0.0004199920877
0.0004199929922
0.0004199938893
0.0004199946479
0.0004199951099
0.0004199908125
0.0004199913079
0.0004199920616
0.0004199930595
0.0004199942596
0.0004199955772
0.0004199968758
0.0004199979681
0.0004199986305
0.0004199924369
0.0004199931702
0.0004199942798
0.0004199957394
0.0004199974833
0.0004199993859
0.0004200012505
0.0004200028119
0.0004200037553
0.0004199949133
0.000419995987
0.0004199976038
0.0004199997183
0.0004200022298
0.0004200049547
0.0004200076126
0.0004200098296
0.0004200111652
0.0004199986524
0.0004200002086
0.0004200025418
0.0004200055779
0.0004200091653
0.0004200130393
0.0004200168026
0.0004200199314
0.0004200218118
0.0004200042449
0.0004200064796
0.0004200098171
0.0004200141409
0.0004200192272
0.0004200246974
0.0004200299931
0.0004200343839
0.0004200370177
0.0004200125346
0.0004200157161
0.0004200204518
0.0004200265636
0.000420033726
0.0004200414023
0.0004200488118
0.0004200549409
0.0004200586111
0.0004200247168
0.0004200292109
0.0004200358817
0.0004200444625
0.0004200544853
0.000420065195
0.0004200755062
0.0004200840182
0.000420089108
0.000420042474
0.0004200487776
0.0004200581114
0.0004200700839
0.0004200840285
0.00042009889
0.0004201131666
0.0004201249318
0.0004201319587
0.0004200681583
0.0004200769431
0.0004200899236
0.0004201065328
0.0004201258302
0.00042014635
0.0004201660252
0.0004201822167
0.000420191879
0.0004201050363
0.0004201172069
0.0004201351578
0.0004201580783
0.0004201846519
0.0004202128555
0.0004202398572
0.0004202620544
0.0004202752926
0.0004201576139
0.0004201743843
0.0004201990813
0.0004202305591
0.0004202669901
0.0004203055967
0.000420342515
0.0004203728409
0.00042039092
0.0004202320648
0.0004202550598
0.0004202888802
0.0004203319234
0.0004203816699
0.0004204343253
0.0004204846345
0.0004205259385
0.000420550558
0.0004203367963
0.0004203681865
0.0004204143068
0.0004204729366
0.0004205406241
0.0004206122072
0.0004206805607
0.0004207366634
0.0004207701036
0.0004204831882
0.0004205258664
0.0004205885215
0.0004206681009
0.0004207599018
0.00042085693
0.0004209495513
0.000421025569
0.0004210708884
0.0004206865434
0.0004207443527
0.0004208291708
0.0004209368315
0.0004210609621
0.0004211921211
0.0004213173179
0.000421420093
0.0004214813888
0.0004209672927
0.0004210453194
0.0004211597522
0.0004213049441
0.0004214723037
0.0004216491345
0.0004218179675
0.000421956631
0.0004220393829
0.000421352503
0.0004214574462
0.0004216113145
0.0004218065025
0.0004220314868
0.0004222692602
0.0004224963981
0.0004226830905
0.0004227946035
0.0004218777371
0.0004220183705
0.0004222245422
0.0004224860741
0.0004227875882
0.0004231063947
0.0004234111803
0.0004236619531
0.0004238119112
0.0004225893117
0.0004227770458
0.0004230522645
0.000423401427
0.0004238041157
0.0004242301869
0.0004246379269
0.0004249738315
0.0004251749678
0.0004235469869
0.0004237965391
0.0004241624061
0.0004246266743
0.0004251623709
0.0004257296278
0.0004262730967
0.0004267214486
0.0004269903204
0.0004248270967
0.0004251572639
0.0004256413657
0.0004262558279
0.0004269651935
0.000427716983
0.0004284380963
0.0004290338751
0.0004293917318
0.0004265260866
0.0004269605982
0.0004275977433
0.0004284066475
0.0004293409276
0.0004303318538
0.0004312834071
0.0004320707015
0.0004325443678
0.0004287643543
0.0004293327614
0.0004301662539
0.0004312245732
0.0004324473331
0.0004337450181
0.0004349922924
0.0004360254969
0.0004366479167
0.0004316901981
0.0004324287226
0.0004335115537
0.0004348864067
0.0004364750495
0.0004381615838
0.000439783477
0.0004411279617
0.0004419385739
0.0004354835562
0.0004364357871
0.0004378315745
0.0004396032741
0.0004416500484
0.0004438226686
0.0004459120574
0.0004476444862
0.0004486895185
0.0004403590954
0.0004415763799
0.0004433598328
0.0004456222348
0.0004482341341
0.0004510048576
0.0004536680432
0.000455875555
0.0004572071887
0.000446568054
0.0004481093524
0.0004503657766
0.0004532253397
0.0004565229676
0.0004600169805
0.0004633716316
0.0004661498477
0.0004678248916
0.0004543976175
0.0004563285121
0.0004591523465
0.0004627261061
0.0004668406482
0.0004711928263
0.0004753643895
0.0004788139949
0.0004808916361
0.000464167476
0.0004665584752
0.0004700505438
0.000474462203
0.0004795309017
0.0004848803006
0.0004899961228
0.0004942177872
0.0004967563871
0.0004762229466
0.0004791466834
0.0004834099612
0.000488784243
0.0004949432963
0.0005014253703
0.0005076070777
0.0005126948997
0.0005157479452
0.0004909235429
0.0004944507876
0.0004995843336
0.0005060394962
0.0005134151516
0.0005211522553
0.0005285061982
0.0005345398873
0.000538151304
0.0005086267032
0.0005128214131
0.0005189132602
0.0005265514436
0.0005352492286
0.0005443393201
0.0005529462679
0.0005599827328
0.0005641819404
0.0005296665527
0.0005345800151
0.000541698645
0.000550595814
0.000560688961
0.0005711936796
0.0005810980229
0.0005891629761
0.0005939600904
0.0005543283931
0.0005599929934
0.0005681785225
0.0005783736622
0.0005898916928
0.0006018254312
0.0006130254525
0.0006221059867
0.0006274874837
0.0005828202582
0.0005892435162
0.0005984994956
0.0006099851478
0.000622904162
0.0006362251464
0.000648665806
0.0006587052769
0.0006646306346
0.0006152437093
0.0006224033784
0.0006326903575
0.0006454057181
0.0006596421699
0.0006742478762
0.0006878187303
0.0006987187782
0.0007051295477
0.0006515668855
0.0006594079889
0.0006706400729
0.000684468127
0.0006998778355
0.0007156068976
0.0007301503788
0.0007417807278
0.0007485968194
0.0006916036135
0.0007000382923
0.0007120839151
0.000726854023
0.0007432389479
0.0007598844874
0.000775202514
0.0007873994663
0.0007945227552
0.0007350037535
0.0007439151876
0.0007566051577
0.0007721074448
0.0007892291213
0.0008065419495
0.0008224004895
0.0008349750323
0.000842294316
0.0007812712946
0.0007905226646
0.000803659864
0.0008196497408
0.0008372347949
0.0008549358769
0.0008710782217
0.0008838269242
0.0008912243455
0.0008297806994
0.0008392187686
0.0008525850075
0.0008687964211
0.0008865527269
0.000904349634
0.0009205117244
0.0009332288101
0.0009405867477
0.0008797968299
0.0008892612331
0.0009026306969
0.0009187923434
0.0009364269038
0.000954031441
0.0009699574619
0.0009824466248
0.0009896542352
0.0009305153511
0.0009398486933
0.0009530020322
0.0009688539338
0.0009860903428
0.001003235122
0.001018691582
0.001030776268
0.001037735007
0.0009811107117
0.0009901680876
0.001002905372
0.001018213689
0.00103480715
0.001051259273
0.001066046139
0.001077577338
0.001084204993
0.001030785688
0.001039442476
0.001051593538
0.001066161982
0.001081910375
0.001097480987
0.001111438993
0.001122300029
0.001128533053
0.00107881653
0.001086973688
0.001098404888
0.001112081788
0.001126831999
0.0011413812
0.001154395085
0.001164503359
0.001170297523
0.001124588745
0.001132175307
0.00114279242
0.001155473243
0.001169122755
0.001182560051
0.001194558059
0.001203864073
0.001209193689
0.001167620401
0.001174593311
0.001184340819
0.00119596661
0.001208461004
0.001220742059
0.001231692434
0.001240176735
0.001245032784
0.001207571974
0.001213913781
0.001222771327
0.001233324023
0.001244651434
0.001255772186
0.001265677623
0.001273346356
0.001277733929
0.001244243865
0.001249958942
0.0012579359
0.001267431647
0.001277615388
0.001287604661
0.001296495673
0.001303375473
0.001307310896
0.001277564045
0.001282674076
0.00128980321
0.001298284802
0.001307375272
0.001316286916
0.001324214956
0.001330347753
0.001333855701
0.001307569108
0.001312108433
0.001318439479
0.001325968831
0.001334035622
0.001341940977
0.001348971949
0.001354410123
0.001357520949
0.001334381965
0.001338393274
0.001343987034
0.001350638342
0.001357763144
0.001364744358
0.001370952915
0.00137575507
0.001378502488
0.001358189017
0.001361719648
0.001366642955
0.001372496911
0.001378767571
0.001384912037
0.001390376874
0.001394604361
0.001397023526
0.00137921885
0.001382317822
0.001386639528
0.00139177873
0.001397284563
0.001402680558
0.001407480726
0.001411194936
0.001413320961
0.001397723769
0.001400439552
0.001404227515
0.001408733043
0.001413561339
0.001418294812
0.001422507026
0.001425767395
0.00142763424
0.001413964743
0.001416343686
0.001419662664
0.001423611703
0.001427845355
0.001431997705
0.001435694465
0.001438557086
0.001440196793
0.001428199891
0.00143028522
0.001433195533
0.001436659865
0.001440375825
0.001444022498
0.001447270913
0.00144978767
0.001451229882
0.001440676234
0.001442507488
0.00144506426
0.001448109416
0.001451377857
0.001454587583
0.001457448745
0.001459666854
0.001460938548
0.001451624231
0.001453237013
0.001455489863
0.001458174787
0.001461058785
0.001463893304
0.001466422064
0.001468383909
0.00146950931
0.001461254578
0.001462680556
0.001464673593
0.001467050665
0.001469606246
0.001472120375
0.001474365416
0.001476108612
0.001477109222
0.001469756773
0.001471023818
0.00147279586
0.001474911161
0.001477187597
0.001479429527
0.001481433638
0.001482991238
0.001483885954
0.001477298952
0.001478431387
0.001480016303
0.001481910027
0.001483950283
0.001485962024
0.001487762495
0.0014891633
0.001489968588
0.001484028615
0.001485047512
0.001486474637
0.001488181593
0.001490022864
0.001491840772
0.001493469862
0.001494738782
0.001495468881
0.001490073934
0.001490997431
0.001492292015
0.001493842154
0.001495516436
0.001497171773
0.001498657211
0.001499815649
0.00150048279
0.001495545375
0.001496389004
0.00149757266
0.001498991612
0.001500526275
0.001502045772
0.001503411257
0.001504477495
0.001505092124
0.001500537486
0.001501314479
0.001502405618
0.001503715208
0.00150513355
0.001506539949
0.001507805632
0.00150879521
0.001509366201
0.001505130701
0.001505852284
0.001506866521
0.001508085256
0.00150940702
0.001510719582
0.001511902519
0.001512828584
0.001513363441
0.001509393093
0.001510068754
0.001511019282
0.001512162789
0.001513404639
0.001514639614
0.001515754187
0.001516627814
0.001517132857
0.001513382014
0.001514019743
0.00151491767
0.0015159991
0.001517175053
0.0015183461
0.00151940439
0.001520234878
0.001520715408
0.001517145594
0.001517752098
0.001518606744
0.001519637131
0.00152075894
0.001521877504
0.001522889627
0.001523684758
0.00152414521
0.001520724083
0.001521304978
0.001522124146
0.001523112718
0.001524190209
0.001525265853
0.001526240256
0.001527006523
0.001527450595
0.001524151047
0.001524711023
0.001525501225
0.001526455683
0.001527497051
0.001528537746
0.001529481464
0.001530224273
0.001530655043
0.001527454405
0.001527997369
0.001528764029
0.001529690787
0.00153070285
0.001531715223
0.001532634105
0.001533357946
0.001533777968
0.001530657331
0.00153118653
0.001531934159
0.001532838542
0.001533826965
0.00153481652
0.001535715416
0.001536424013
0.001536835405
0.001533779021
0.001534297154
0.001535029494
0.001535915923
0.001536885401
0.001537856698
0.001538739628
0.001539436062
0.001539840576
0.00153683536
0.001537344663
0.001538064813
0.00153893695
0.001539891371
0.001540848186
0.001541718474
0.001542405295
0.00154280438
0.001539839472
0.001540341794
0.001541052323
0.001541913197
0.001542855778
0.00154380123
0.001544661624
0.001545340938
0.00154573579
0.001542802192
0.001543299065
0.001544002095
0.001544854209
0.001545787609
0.001546724277
0.001547577046
0.001548250592
0.001548642198
0.00154573246
0.001546225148
0.001546922432
0.001547767856
0.001548694269
0.001549624282
0.0015504713
0.001551140512
0.001551529689
0.001548637648
0.001549127196
0.001549820182
0.001550660625
0.001551581864
0.001552506977
0.00155334979
0.001554015854
0.001554403271
0.001551523834
0.001552011105
0.001552700989
0.00155353786
0.001554455421
0.001555377086
0.001556216969
0.00155688086
0.001557267075
0.001554396031
0.001554881737
0.001555569507
0.00155640397
0.001557319087
0.001558238501
0.001559076507
0.001559739032
0.0015601245
0.001557258372
0.001557743102
0.001558429571
0.001559262589
0.001560176281
0.00156109443
0.001561931428
0.001562593252
0.001562978353
0.001560114269
0.001560598507
0.001561284349
0.001562116713
0.001563029822
0.001563947523
0.00156478423
0.001565445903
0.001565830947
0.001562966534
0.001563450681
0.001564136452
0.001564968818
0.001565882039
0.001566799965
0.001567636974
0.001568298949
0.001568684195
0.001565817491
0.001566301879
0.001566988038
0.001567820947
0.001568734853
0.001569653561
0.001570491361
0.001571154013
0.001571539674
0.00156866906
0.001569153962
0.001569840888
0.001570674787
0.001571589853
0.001572509802
0.001573348797
0.001574012437
0.001574398688
0.001571522825
0.001572008468
0.001572696473
0.001573531732
0.00157444835
0.00157536992
0.001576210445
0.001576875328
0.001577262315
0.001574380098
0.001574866668
0.001575556012
0.001576392936
0.001577311428
0.001578234933
0.001579077264
0.001579743602
0.001580131445
0.001577241961
0.001577729612
0.001578420508
0.001579259348
0.001580179984
0.001581105682
0.001581950046
0.001582618013
0.001583006811
0.001580109307
0.001580598166
0.001581290791
0.001582131756
0.001583054753
0.001583982858
0.001584829444
0.001585499183
0.001585889019
0.001582982874
0.001583473046
0.001584167545
0.001585010804
0.001585936345
0.001586867032
0.001587715993
0.001588387623
0.001588778562
0.001585863269
0.00158635484
0.001587051331
0.001587897025
0.001588825258
0.001589758671
0.001590610133
0.00159128375
0.001591675848
0.001588750989
0.001589244029
0.001589942609
0.001590790852
0.001591721898
0.001592658154
0.00159351222
0.001594187903
0.001594581204
0.001591646442
0.001592141007
0.001592841755
0.001593692641
0.001594626597
0.001595565789
0.001596422542
0.001597100354
0.001597494894
0.001594549956
0.001595046093
0.001595749073
0.001596602674
0.001597539619
0.001598481825
0.00159934133
0.001600021322
0.001600417129
0.001597461797
0.001597959542
0.001598664804
0.00159952118
0.001600461176
0.001601406454
0.001602268764
0.001602950974
0.001603348071
0.001600382175
0.001600881557
0.00160158914
0.001602448337
0.001603391432
0.001604339828
0.001605204982
0.001605889441
0.001606287844
0.001603311254
0.001603812295
0.001604522228
0.00160538428
0.00160633051
0.001607282058
0.001608150086
0.001608836815
0.001609236537
0.001606249157
0.001606751872
0.001607464178
0.00160832911
0.0016092785
0.001610233223
0.001611104145
0.00161179316
0.001612194209
0.001609195974
0.001609700374
0.001610415066
0.001611282896
0.001612235462
0.001613193376
0.001614067204
0.001614758513
0.001615160894
0.001612151766
0.001612657857
0.001613374944
0.001614245679
0.00161520143
0.001616162542
0.001617039282
0.001617732889
0.001618136603
0.001615116565
0.00161562435
0.001616343835
0.001617217478
0.001618176417
0.001619140728
0.001620020378
0.001620716282
0.001621121329
0.001618090384
0.001618599862
0.001619321743
0.001620198292
0.001621160414
0.001622127918
0.001623010475
0.00162370867
0.001624115047
0.001621073215
0.001621584383
0.001622308655
0.001623188101
0.001624153397
0.001625124085
0.001626009537
0.001626710016
0.001627117717
0.001624065035
0.001624577885
0.001625304538
0.00162618687
0.001627155326
0.001628129182
0.001629017515
0.001629720265
0.001630129284
0.001627065802
0.001627580327
0.001628309348
0.00162919455
0.001630166147
0.001631143153
0.001632034349
0.001632739356
0.001633149683
0.001630075464
0.001630591652
0.001631323026
0.001632211078
0.001633185795
0.001634165928
0.001635059966
0.001635767213
0.001636178838
0.001633093956
0.001633611795
0.001634345504
0.001635236384
0.001636214195
0.001637197428
0.001638094284
0.001638803751
0.001639216662
0.001636121202
0.001636640677
0.0016373767
0.001638270382
0.00163925126
0.001640237565
0.001641137211
0.001641848876
0.001642263061
0.001639157116
0.001639678211
0.001640416526
0.001641312983
0.001642296895
0.001643286239
0.001644188647
0.001644902486
0.001645317932
0.001642201603
0.001642724302
0.001643464883
0.001644364084
0.001645350997
0.001646343348
0.001647248484
0.001647964473
0.001648381164
0.001645254562
0.001645778846
0.001646521667
0.001647423579
0.001648413457
0.001649408776
0.001650316608
0.001651034718
0.001651452638
0.001648315881
0.00164884173
0.001649586763
0.001650491352
0.001651484156
0.001652482404
0.001653392895
0.001654113099
0.001654532232
0.001651385444
0.001651912836
0.001652660051
0.00165356728
0.00165456297
0.001655564106
0.001656477218
0.001657199484
0.001657619811
0.001654463125
0.001654992039
0.001655741404
0.001656651234
0.001657649766
0.001658653746
0.001659569439
0.001660293736
0.001660715239
0.001657548794
0.001658079205
0.001658830687
0.001659743077
0.001660744406
0.001661751184
0.001662669415
0.001663395709
0.001663818367
0.001660642309
0.001661174194
0.001661927757
0.001662842664
0.001663846742
0.001664856269
0.001665776994
0.001666505248
0.001666929041
0.001663743525
0.001664276857
0.001665032463
0.001665949841
0.001666956618
0.001667968843
0.001668892014
0.001669622191
0.001670047097
0.001666852284
0.001667387036
0.001668144646
0.001669064447
0.001670073868
0.001671088737
0.001672014302
0.001672746363
0.001673172357
0.001669968421
0.001670504562
0.001671264134
0.001672186306
0.001673198314
0.001674215767
0.001675143674
0.001675877574
0.001676304632
0.001673091755
0.001673629253
0.001674390742
0.001675315229
0.001676329763
0.001677349737
0.001678279927
0.001679015619
0.001679443713
0.001676222091
0.001676760914
0.00167752427
0.001678451012
0.001679468003
0.00168049043
0.001681422839
0.001682160272
0.001682589371
0.001679359218
0.001679899326
0.001680664496
0.001681593425
0.0016826128
0.001683637603
0.00168457216
0.001685311277
0.001685741348
0.001682502896
0.001683044248
0.001683811172
0.001684742215
0.00168576389
0.001686790985
0.00168772761
0.001688468347
0.001688899352
0.001685652859
0.001686195408
0.001686964017
0.001687897091
0.001688920973
0.001689950262
0.001690888866
0.001691631149
0.001692063045
0.0016888088
0.001689352492
0.00169012271
0.001691057718
0.001692083699
0.001693115072
0.00169405555
0.001694799296
0.001695232032
0.001691970365
0.001692515138
0.001693286874
0.001694223707
0.001695251662
0.001696284989
0.00169722722
0.00169797233
0.001698405848
0.001695137137
0.001695682919
0.00169645607
0.001697394595
0.001698424377
0.001699459506
0.001700403346
0.001701149703
0.001701583933
0.001698308624
0.001698855329
0.001699629769
0.001700569833
0.001701601267
0.001702638015
0.001703583294
0.001704330759
0.001704765617
0.001701484237
0.001702031761
0.001702807343
0.00170374876
0.001704781636
0.001705819786
0.001706766298
0.001707514701
0.001707950087
0.001704663268
0.001705211488
0.001705988032
0.001706930579
0.001707964645
0.001709003933
0.001709951428
0.001710700568
0.001711136361
0.001707844863
0.001708393629
0.001709170919
0.001710114327
0.001711149276
0.001712189384
0.001713137563
0.001713887193
0.001714323245
0.001711027992
0.001711577123
0.001712354898
0.001713298839
0.001714334301
0.001715374844
0.001716323341
0.001717073163
0.001717509296
0.001714211412
0.001714760691
0.001715538634
0.001716482713
0.00171751824
0.00171855875
0.001719507125
0.001720256779
0.001720692777
0.001717393632
0.001717942793
0.001718720522
0.001719664263
0.001720699314
0.001721739229
0.001722686949
0.001723436001
0.001723871606
0.001720572863
0.001721121589
0.001721898645
0.001722841475
0.001723875401
0.001724914045
0.001725860474
0.001726608403
0.001727043302
0.00172374698
0.001724294892
0.001725070725
0.001726011959
0.001727043985
0.001728080554
0.001729024932
0.001729771118
0.001730204942
0.001726913472
0.001727460118
0.001728234077
0.001729172901
0.00173020211
0.001731235648
0.001732177077
0.001732920789
0.001733353102
0.001730069395
0.001730614242
0.001731385558
0.001732321018
0.001733346328
0.001734375717
0.001735313144
0.001736053525
0.001736483816
0.001733211329
0.001733753755
0.001734521531
0.00173545251
0.001736472664
0.001737496601
0.001738428803
0.001739164859
0.001739592537
0.001736335337
0.001736874623
0.00173763782
0.001738563031
0.001739576578
0.001740593564
0.001741519134
0.001742249725
0.001742674113
0.001739436935
0.001739972255
0.001740729687
0.001741647658
0.001742652943
0.00174366127
0.001744578612
0.001745302446
0.001745722777
0.00174251107
0.00174304149
0.001743791813
0.001744700882
0.001745696039
0.001746693787
0.001747601108
0.001748316735
0.001748732152
0.001745552114
0.001746076589
0.001746818302
0.001747716613
0.001748699566
0.001749684601
0.001750579914
0.001751285733
0.001751695289
0.001748553874
0.001749071248
0.001749802694
0.001750688206
0.001751656672
0.001752626657
0.00175350779
0.001754202054
0.00175460472
0.001751509626
0.001752018639
0.001752738016
0.00175360851
0.001754560018
0.001755512427
0.00175637704
0.001757057874
0.001757452549
0.001754412165
0.001754911465
0.00175561684
0.001756469942
0.001757401856
0.001758334004
0.001759179619
0.001759845042
0.001760230562
0.001757253889
0.001757742045
0.001758431377
0.001759264592
0.001760174145
0.001761083225
0.00176190726
0.001762555214
0.001762930379
0.001760026899
0.001760502423
0.001761173598
0.001761984342
0.001762868685
0.001763751816
0.001764551631
0.001765180024
0.001765543615
0.001762723131
0.001763184507
0.00176383537
0.001764621025
0.001765477278
0.001766331563
0.001767104517
0.001767711264
0.001768062073
0.001765334508
0.001765780219
0.001766408625
0.00176716659
0.001767991909
0.001768814501
0.001769558014
0.001770141089
0.001770477948
0.001767853107
0.001768281673
0.001768885533
0.00176961329
0.001770404935
0.00177119311
0.001771904729
0.00177246222
0.001772784032
0.001770271346
0.001770681359
0.001771258697
0.001771953875
0.001772709284
0.001773460514
0.001774137981
0.001774668144
0.001774973917
0.001772582167
0.001772972333
0.001773521338
0.001774181781
0.001774898645
0.001775610672
0.001776251994
0.001776753302
0.001777042178
0.001774779229
0.001775148401
0.001775667483
0.001776291312
0.001776967641
0.001777638548
0.001778242055
0.001778713253
0.001778984534
0.001776857073
0.001777204293
0.001777692129
0.001778277802
0.001778911989
0.001779540256
0.001780104658
0.001780544797
0.00178079797
0.001778811286
0.001779135805
0.001779591382
0.001780137742
0.001780728611
0.001781313167
0.001781837589
0.00178224606
0.001782480815
0.001780638614
0.001780939923
0.001781362567
0.001781868874
0.001782415719