/*--------------------------------*- C++ -*----------------------------------*\
| =========                 |                                                 |
| \\      /  F ield         | OpenFOAM: The Open Source CFD Toolbox           |
|  \\    /   O peration     | Version:  2212                                  |
|   \\  /    A nd           | Website:  www.openfoam.com                      |
|    \\/     M anipulation  |                                                 |
\*---------------------------------------------------------------------------*/
FoamFile
{
    version     2.0;
    format      ascii;
    arch        "LSB;label=32;scalar=64";
    class       volScalarField;
    location    "20.00000000";
    object      CO_0;
}
// * * * * * * * * * * * * * * * * * * * * * * * * * * * * * * * * * * * * * //

dimensions      [0 0 0 0 0 0 0];

internalField   nonuniform List<scalar> 
3000
(
7.426964353e-21
8.342816276e-21
9.724731668e-21
1.156609773e-20
1.384815159e-20
1.650896907e-20
1.93883783e-20
2.213613309e-20
2.407900906e-20
2.788389742e-20
3.144858271e-20
3.68249633e-20
4.400470524e-20
5.29805094e-20
6.370316535e-20
7.598684313e-20
8.921532727e-20
1.009308101e-19
6.245994867e-20
7.099856516e-20
8.399972991e-20
1.016508965e-19
1.2426875e-19
1.52182151e-19
1.852806215e-19
2.217106931e-19
2.528364585e-19
1.189711889e-19
1.366523138e-19
1.639694409e-19
2.018456791e-19
2.516219568e-19
3.145640533e-19
3.903282209e-19
4.728589863e-19
5.394668572e-19
2.112695988e-19
2.456480426e-19
2.995994689e-19
3.758633137e-19
4.780254757e-19
6.089510887e-19
7.664516447e-19
9.337208946e-19
1.062121487e-18
3.633062276e-19
4.278341714e-19
5.305536684e-19
6.780196167e-19
8.780975486e-19
1.13582546e-18
1.443503964e-18
1.762339858e-18
1.998220703e-18
6.167904961e-19
7.353239158e-19
9.262107987e-19
1.203343873e-18
1.582150532e-18
2.070160199e-18
2.647180991e-18
3.233437118e-18
3.656444057e-18
1.043863059e-18
1.258367287e-18
1.606873944e-18
2.116748505e-18
2.816410158e-18
3.715917156e-18
4.770121675e-18
5.825575494e-18
6.574411004e-18
1.769552661e-18
2.153612389e-18
2.781618264e-18
3.705034923e-18
4.9743839e-18
6.601820501e-18
8.495378423e-18
1.03714447e-17
1.168782173e-17
3.010440437e-18
3.692673025e-18
4.813323452e-18
6.46640078e-18
8.740091659e-18
1.16475014e-17
1.501159519e-17
1.832025397e-17
2.062470154e-17
5.142125505e-18
6.347027519e-18
8.332474956e-18
1.126707026e-17
1.530342761e-17
2.045315017e-17
2.638730456e-17
3.219418958e-17
3.621891038e-17
8.816442273e-18
1.093556272e-17
1.443508141e-17
1.961394794e-17
2.673536529e-17
3.580441992e-17
4.622333307e-17
5.638326454e-17
6.340352366e-17
1.516545064e-17
1.888159822e-17
2.502774463e-17
3.413021712e-17
4.664232594e-17
6.255186694e-17
8.078552537e-17
9.85198855e-17
1.107651183e-16
2.615553721e-17
3.265922378e-17
4.342748809e-17
5.938360858e-17
8.130875871e-17
1.091481074e-16
1.40969092e-16
1.718126578e-16
1.932495359e-16
4.520068141e-17
5.656630534e-17
7.54012192e-17
1.03324871e-16
1.416912749e-16
1.903515237e-16
2.457637667e-16
2.989112591e-16
3.369541733e-16
7.822259257e-17
9.805855455e-17
1.309546717e-16
1.797549285e-16
2.468475772e-16
3.320775049e-16
4.297092228e-16
5.249322461e-16
5.889402545e-16
1.354858397e-16
1.700543966e-16
2.274068471e-16
3.12502491e-16
4.294707244e-16
5.779229832e-16
7.475268519e-16
9.117933581e-16
1.024135893e-15
2.347903785e-16
2.949588397e-16
3.948053089e-16
5.429507266e-16
7.465236479e-16
1.004725993e-15
1.299413392e-15
1.584496902e-15
1.779830815e-15
4.070189478e-16
5.116535265e-16
6.853140187e-16
9.429783462e-16
1.296979334e-15
1.745821112e-15
2.257863102e-15
2.753014369e-15
3.092237939e-15
7.05770491e-16
8.876310946e-16
1.189498005e-15
1.63739438e-15
2.25269113e-15
3.032674439e-15
3.922252614e-15
4.782246872e-15
5.371271782e-15
1.22408708e-15
1.540063313e-15
2.064597823e-15
2.842901672e-15
3.912033697e-15
5.267135299e-15
6.812342017e-15
8.305829668e-15
9.328534729e-15
2.12350011e-15
2.672385659e-15
3.583629237e-15
4.935763375e-15
6.79306283e-15
9.146881694e-15
1.183047294e-14
1.442375208e-14
1.619930379e-14
3.684477574e-15
4.637837925e-15
6.220658828e-15
8.569318092e-15
1.179528502e-14
1.588321711e-14
2.054314823e-14
2.50454847e-14
2.812780235e-14
6.394049155e-15
8.049831646e-15
1.079891738e-14
1.487806799e-14
2.048055672e-14
2.757918615e-14
3.566981317e-14
4.348566224e-14
4.883581619e-14
1.109801421e-14
1.397365941e-14
1.874804412e-14
2.583204734e-14
3.556063357e-14
4.788557775e-14
6.193058311e-14
7.549641668e-14
8.478174035e-14
1.926527148e-14
2.425939265e-14
3.255069946e-14
4.485188491e-14
6.174303752e-14
8.313829928e-14
1.075145478e-13
1.310545435e-13
1.47164658e-13
3.344682286e-14
4.211991472e-14
5.651788654e-14
7.787614235e-14
1.0719816e-13
1.443298956e-13
1.866234089e-13
2.274547036e-13
2.553920873e-13
5.807258e-14
7.31343078e-14
9.813444455e-14
1.352124974e-13
1.861014832e-13
2.505222322e-13
3.238699176e-13
3.946542327e-13
4.430696739e-13
1.008332186e-13
1.269876233e-13
1.703909654e-13
2.347438206e-13
3.230321127e-13
4.347432239e-13
5.61865686e-13
6.844778407e-13
7.683015976e-13
1.750740598e-13
2.204840393e-13
2.958200948e-13
4.074719353e-13
5.605677141e-13
7.541506047e-13
9.742735425e-13
1.186421094e-12
1.331352666e-12
3.039353368e-13
3.827560976e-13
5.134687881e-13
7.070807987e-13
9.723609133e-13
1.307490048e-12
1.688169424e-12
2.054658136e-12
2.304777526e-12
5.274968954e-13
6.642484192e-13
8.909082368e-13
1.226379493e-12
1.685568186e-12
2.264950109e-12
2.922155986e-12
3.553925793e-12
3.984490144e-12
9.150723349e-13
1.1521618e-12
1.544846715e-12
2.125455945e-12
2.919131183e-12
3.918924231e-12
5.050896764e-12
6.136905629e-12
6.875646621e-12
1.586288562e-12
1.996897547e-12
2.676345747e-12
3.67962578e-12
5.048712233e-12
6.769707852e-12
8.71350478e-12
1.057356194e-11
1.183570196e-11
2.747073253e-12
3.457116874e-12
4.63064776e-12
6.360562867e-12
8.716013819e-12
1.166892892e-11
1.499382904e-11
1.816503725e-11
2.031005017e-11
4.750781498e-12
5.976074645e-12
7.998132872e-12
1.097250507e-11
1.501117127e-11
2.005717134e-11
2.571695565e-11
3.109308663e-11
3.471524168e-11
8.201414317e-12
1.03100628e-11
1.378334244e-11
1.88788438e-11
2.577390109e-11
3.435306016e-11
4.393061079e-11
5.298317623e-11
5.905345654e-11
1.412675475e-11
1.774287424e-11
2.368541966e-11
3.23751629e-11
4.408487418e-11
5.858203975e-11
7.46757717e-11
8.979850544e-11
9.988296036e-11
2.426662168e-11
3.044080536e-11
4.055872338e-11
5.529626815e-11
7.505704762e-11
9.937807539e-11
1.262016583e-10
1.51237422e-10
1.678268426e-10
4.154883141e-11
5.203468551e-11
6.91609806e-11
9.399149893e-11
1.270922302e-10
1.675554932e-10
2.118514777e-10
2.528832584e-10
2.79881881e-10
7.086799235e-11
8.856418816e-11
1.173539189e-10
1.588706539e-10
2.138471538e-10
2.805374968e-10
3.529434847e-10
4.19460596e-10
4.628983009e-10
1.203472294e-10
1.499927535e-10
1.980055716e-10
2.668200398e-10
3.572637935e-10
4.660509631e-10
5.831061689e-10
6.896952069e-10
7.587498817e-10
2.033603787e-10
2.52608944e-10
3.319645279e-10
4.449247221e-10
5.921712801e-10
7.676654521e-10
9.547094475e-10
1.123470374e-09
1.23191696e-09
3.417354756e-10
4.227852358e-10
5.526475632e-10
7.361226062e-10
9.73176046e-10
1.252984177e-09
1.548283708e-09
1.812239529e-09
1.980482796e-09
5.707667078e-10
7.027852261e-10
9.130206488e-10
1.207676821e-09
1.584843104e-09
2.025608758e-09
2.486160595e-09
2.894021148e-09
3.151924339e-09
9.469530561e-10
1.159616857e-09
1.496082159e-09
1.963710031e-09
2.556562738e-09
3.242429434e-09
3.95203784e-09
4.574802702e-09
4.965598877e-09
1.559784574e-09
1.898350626e-09
2.430406683e-09
3.163532019e-09
4.084031929e-09
5.138380504e-09
6.218810845e-09
7.158864255e-09
7.744537661e-09
2.549445901e-09
3.081894813e-09
3.912919441e-09
5.048156691e-09
6.460010385e-09
8.061603491e-09
9.68788615e-09
1.109146193e-08
1.196012143e-08
4.133046615e-09
4.959994503e-09
6.241901145e-09
7.978309381e-09
1.01180058e-08
1.252305187e-08
1.494437548e-08
1.701857037e-08
1.829451718e-08
6.642982863e-09
7.911267429e-09
9.864348375e-09
1.248845428e-08
1.569389307e-08
1.926604926e-08
2.283416879e-08
2.587008265e-08
2.772751469e-08
1.058237622e-08
1.250350632e-08
1.544334192e-08
1.93630391e-08
2.411229933e-08
2.936330844e-08
3.457104184e-08
3.897516069e-08
4.165676715e-08
1.670435811e-08
1.957940845e-08
2.395315701e-08
2.974341671e-08
3.670705239e-08
4.435159989e-08
5.188484521e-08
5.822149728e-08
6.20636366e-08
2.61244616e-08
3.03775497e-08
3.681270595e-08
4.527698053e-08
5.538830569e-08
6.641783885e-08
7.722569573e-08
8.627436267e-08
9.174114345e-08
4.047880023e-08
4.670214025e-08
5.607190815e-08
6.832429268e-08
8.287341429e-08
9.865506423e-08
1.140441842e-07
1.268768732e-07
1.34606321e-07
6.214181394e-08
7.115541584e-08
8.466616189e-08
1.022423493e-07
1.230039395e-07
1.454150253e-07
1.671769703e-07
1.852621168e-07
1.961276454e-07
9.452906442e-08
1.074613564e-07
1.267707028e-07
1.517771128e-07
1.811812241e-07
2.127886402e-07
2.433704971e-07
2.68712619e-07
2.839062664e-07
1.425164367e-07
1.609121723e-07
1.882866586e-07
2.235996374e-07
2.649603459e-07
3.092612029e-07
3.519945628e-07
3.873217595e-07
4.084659657e-07
2.130140731e-07
2.389787012e-07
2.775048336e-07
3.27037427e-07
3.848591743e-07
4.46603373e-07
5.06011452e-07
5.550272041e-07
5.843249771e-07
3.157500561e-07
3.521428482e-07
4.060095282e-07
4.75068643e-07
5.554566142e-07
6.410792947e-07
7.232890722e-07
7.910104937e-07
8.314473929e-07
4.643354185e-07
5.150277314e-07
5.899041071e-07
6.856686588e-07
7.96878676e-07
9.150803853e-07
1.028376354e-06
1.121589471e-06
1.177205989e-06
6.777039206e-07
7.479243851e-07
8.514652204e-07
9.836263064e-07
1.136802133e-06
1.299328228e-06
1.454898153e-06
1.582772926e-06
1.65903383e-06
9.820467675e-07
1.078842259e-06
1.221363507e-06
1.402981544e-06
1.613144294e-06
1.835834031e-06
2.048776751e-06
2.223702443e-06
2.328001755e-06
1.413393781e-06
1.546244053e-06
1.741624957e-06
1.990276843e-06
2.277653512e-06
2.581855047e-06
2.872547943e-06
3.11127541e-06
3.253633516e-06
2.021027205e-06
2.202662136e-06
2.469547072e-06
2.808859177e-06
3.200665797e-06
3.615146913e-06
4.011107331e-06
4.336319996e-06
4.530354454e-06
2.871949458e-06
3.119430667e-06
3.48282355e-06
3.944512975e-06
4.477341664e-06
5.040866243e-06
5.579285376e-06
6.021762936e-06
6.286043998e-06
4.056656842e-06
4.392798696e-06
4.886163135e-06
5.512737309e-06
6.235731202e-06
7.000512213e-06
7.731683439e-06
8.333262214e-06
8.69319019e-06
5.696490168e-06
6.151706249e-06
6.819701188e-06
7.667987388e-06
8.647012931e-06
9.683279767e-06
1.067516818e-05
1.149271948e-05
1.19830684e-05
7.952829841e-06
8.567494788e-06
9.469479671e-06
1.061515882e-05
1.19381828e-05
1.334008968e-05
1.468426589e-05
1.5794879e-05
1.6463118e-05
1.103836265e-05
1.186576779e-05
1.308019013e-05
1.462347343e-05
1.640729557e-05
1.830031503e-05
2.011936742e-05
2.162680272e-05
2.253721152e-05
1.523054937e-05
1.634049255e-05
1.797020611e-05
2.00426938e-05
2.244104356e-05
2.499079949e-05
2.744711137e-05
2.94893567e-05
3.072778307e-05
2.08872389e-05
2.237021126e-05
2.454864538e-05
2.732121958e-05
3.053397061e-05
3.395614523e-05
3.726156118e-05
4.001897764e-05
4.169784568e-05
2.846407362e-05
3.04358773e-05
3.333377282e-05
3.702508693e-05
4.130796825e-05
4.587847196e-05
5.03038995e-05
5.400699969e-05
5.626987478e-05
3.853288383e-05
4.113933213e-05
4.497147689e-05
4.985622281e-05
5.552993727e-05
6.159400087e-05
6.747747912e-05
7.241297231e-05
7.543783682e-05
5.179967026e-05
5.522079726e-05
6.02518594e-05
6.666756379e-05
7.412471263e-05
8.210305438e-05
8.985438916e-05
9.63678387e-05
0.0001003678933
6.912005598e-05
7.357302788e-05
8.012125144e-05
8.847194241e-05
9.81797921e-05
0.0001085697352
0.0001186695034
0.0001271626725
0.0001323836417
9.150931763e-05
9.724904293e-05
0.0001056863158
0.0001164411821
0.0001289381254
0.0001423072617
0.0001552981194
0.0001662195037
0.0001729325625
0.0001201434763
0.0001274598316
0.0001382066101
0.0001518918179
0.0001677753591
0.0001847459283
0.0002012146189
0.0002150420528
0.0002235318739
0.0001563478466
0.0001655585101
0.0001790721492
0.0001962540937
0.0002161590044
0.0002373817654
0.0002579311421
0.0002751463266
0.00028569442
0.0002015691017
0.0002130072556
0.0002297629134
0.0002510222525
0.0002755883172
0.0003017059145
0.0003269175475
0.0003479734326
0.0003608376043
0.0002573282782
0.0002713249666
0.0002917889541
0.0003176855853
0.0003475157724
0.0003791170554
0.0004095063873
0.0004347895222
0.0004501809881
0.0003251532938
0.0003420148772
0.0003666113511
0.0003976418828
0.0004332531943
0.0004708214703
0.0005067889401
0.0005365799953
0.0005546402787
0.000406491665
0.0004264735834
0.0004555465686
0.000492097173
0.0005338679519
0.0005777276054
0.000619510283
0.0006539467446
0.0006747268642
0.000502606551
0.0005258853947
0.000559659239
0.0006019579532
0.0006500765938
0.0007003434725
0.000747972574
0.0007870180095
0.0008104625552
0.0006144618498
0.0006411083757
0.0006796505247
0.0007277241009
0.0007821449405
0.0008386864788
0.0008919561593
0.0009353802561
0.0009613186742
0.0007426046811
0.0007725608789
0.0008157514383
0.0008693920814
0.0009298043708
0.00099221523
0.001050667544
0.001098040312
0.001126186982
0.0008870559376
0.0009201193972
0.0009676319977
0.001026379319
0.001092194639
0.001159792557
0.001222722103
0.001273424217
0.00130338793
0.001047221428
0.001083040017
0.001134337986
0.001197480536
0.001267842747
0.001339687801
0.001406168169
0.001459419727
0.001490727267
0.001221837067
0.00125991622
0.001314266908
0.00138086599
0.001454685761
0.001529624257
0.001598558255
0.00165346458
0.001685584005
0.001408961043
0.001448684748
0.001505192991
0.001574129126
0.001650143088
0.001726876524
0.00179706037
0.00185266099
0.001885033008
0.001606023559
0.001646688646
0.001704349113
0.001774391539
0.001851240448
0.001928400177
0.00199859261
0.002053917895
0.002085988269
0.001809945962
0.001850807594
0.00190856805
0.001978447483
0.00205475558
0.002130984821
0.002199980683
0.002254107691
0.002285358032
0.002017304723
0.002057621113
0.002114445759
0.002182932139
0.002257390226
0.002331423333
0.002398121131
0.002450222704
0.002480196445
0.002224523417
0.002263601666
0.002318534056
0.002384508983
0.002455948409
0.002526678437
0.002590135066
0.002639517528
0.002667838833
0.002428085526
0.002465321341
0.002517537381
0.00258005294
0.00264750282
0.002714030785
0.002773498674
0.002819625369
0.002846009864
0.002624739632
0.002659646531
0.002708492034
0.002766810263
0.002829532994
0.002891195273
0.002946140012
0.002988640029
0.003012897408
0.002811673593
0.002843899082
0.002888909008
0.002942519542
0.00300002317
0.003056396877
0.00310649619
0.003145159621
0.003167189167
0.00298663963
0.00301596805
0.003056867531
0.003105484354
0.003157513777
0.003208402912
0.003253530131
0.00328829265
0.003308073374
0.003148020776
0.00317436447
0.00321105434
0.003254595397
0.003301106928
0.003346514155
0.003386710721
0.003417631041
0.003435208436
0.003294838615
0.003318220512
0.003350751746
0.003389306817
0.003430431969
0.003470521738
0.003505963657
0.003533197464
0.003548668781
0.003426710552
0.003447241777
0.003475783855
0.003509576479
0.003545580941
0.003580639429
0.003611602166
0.003635375665
0.003648875324
0.00354377017
0.003561626148
0.003586433963
0.003615782591
0.003647025467
0.0036774218
0.003704247099
0.003724832511
0.003736518781
0.003646566268
0.003661964071
0.003683346962
0.003708629196
0.003735526158
0.003761677995
0.003784744919
0.003802439377
0.003812483023
0.003735955105
0.003749133833
0.003767429022
0.003789051325
0.003812043811
0.003834388957
0.003854090282
0.003869198812
0.003877773988
0.003812997369
0.00382420245
0.003839753954
0.003858127813
0.003877659057
0.0038966336
0.003913357811
0.003926180425
0.00393345779
0.003878867571
0.003888339128
0.003901482224
0.003917006747
0.003933504437
0.003949527079
0.003963645563
0.003974468126
0.003980609981
0.003934779885
0.003942744812
0.003953795528
0.003966845776
0.003980710541
0.003994172283
0.004006030963
0.004015119274
0.004020276421
0.003981931452
0.003988598588
0.003997847359
0.004008767365
0.00402036596
0.004031624153
0.004041538762
0.004049135216
0.004053445143
0.004021462065
0.004027019743
0.004034728266
0.004043827724
0.004053489974
0.004062865659
0.004071119644
0.004077441786
0.004081027933
0.004054428098
0.004059043486
0.00406544395
0.004072997481
0.004081015702
0.00408879329
0.004095637706
0.004100878239
0.004103850003
0.004081787946
0.004085607539
0.004090903382
0.004097151554
0.004103781765
0.004110210333
0.004115865052
0.004120192793
0.004122646063
0.00410439614
0.004107546992
0.004111914653
0.0041170661
0.004122530341
0.004127825917
0.004132481675
0.00413604311
0.004138061136
0.004123003759
0.004125595132
0.004129186341
0.004133420497
0.004137909743
0.00414225816
0.004146079054
0.004149000245
0.004150654698
0.004138263085
0.004140388265
0.00414333258
0.004146802669
0.004150480015
0.004154039987
0.004157166183
0.004159554821
0.004160906947
0.004150734859
0.004152473009
0.004154880382
0.004157716442
0.004160720309
0.004163626537
0.004166176993
0.004168124479
0.004169226261
0.004160896945
0.004162314889
0.004164278127
0.004166589922
0.004169037141
0.004171403306
0.004173478401
0.004175061848
0.004175957145
0.004169153513
0.004170307388
0.004171904458
0.004173784187
0.004175772875
0.004177694427
0.00417937842
0.00418066254
0.004181388149
0.004175844151
0.004176780918
0.00417807703
0.004179601793
0.004181213978
0.004182770685
0.004184133963
0.004185172792
0.004185759428
0.004181252526
0.004182011313
0.00418306079
0.004184294796
0.004185598765
0.004186857002
0.004187958102
0.004188796556
0.004189269739
0.004185614362
0.00418622765
0.004187075575
0.004188072094
0.004189124472
0.004190139247
0.00419102665
0.004191701905
0.004192082746
0.004189124634
0.004189619291
0.004190302948
0.004191106012
0.004191953579
0.004192770307
0.004193484014
0.004194026719
0.004194332612
0.00419194393
0.00419234211
0.004192892228
0.004193538111
0.004194219381
0.004194875426
0.004195448316
0.004195883647
0.004196128869
0.004194204012
0.004194523923
0.004194965748
0.004195484236
0.004196030812
0.004196556808
0.00419701582
0.004197364385
0.004197560615
0.00419601261
0.004196269171
0.004196623381
0.004197038857
0.004197476592
0.004197897578
0.004198264712
0.004198543326
0.004198700086
0.004197457523
0.004197662924
0.004197946407
0.004198278771
0.00419862875
0.004198965133
0.004199258298
0.004199480641
0.004199605672
0.004198610092
0.004198774266
0.004199000775
0.004199266226
0.004199545597
0.004199813958
0.004200047699
0.004200224867
0.004200324442
0.004199528126
0.004199659144
0.004199839852
0.004200051538
0.004200274213
0.004200487992
0.004200674083
0.004200815055
0.004200894247
0.004200258351
0.004200362756
0.004200506714
0.004200675282
0.004200852516
0.004201022578
0.004201170533
0.004201282554
0.004201345452
0.004200838443
0.004200921524
0.004201036049
0.0042011701
0.004201310978
0.004201446087
0.004201563571
0.004201652476
0.004201702372
0.004201298714
0.00420136474
0.004201455731
0.004201562197
0.004201674037
0.004201781246
0.004201874422
0.004201944899
0.004201984435
0.004201663499
0.004201715908
0.004201788112
0.004201872569
0.004201961252
0.004202046224
0.004202120039
0.004202175847
0.004202207141
0.004201952303
0.004201993853
0.004202051085
0.004202118006
0.004202188249
0.004202255525
0.004202313941
0.004202358087
0.004202382833
0.004202180723
0.004202213629
0.004202258944
0.004202311915
0.004202367495
0.004202420706
0.00420246689
0.004202501778
0.004202521328
0.004202361217
0.004202387251
0.004202423094
0.004202464981
0.004202508917
0.004202550963
0.004202587443
0.004202614991
0.004202630422
0.004202503716
0.004202524293
0.004202552618
0.00420258571
0.004202620409
0.004202653604
0.004202682395
0.004202704128
0.004202716298
0.004202616126
0.004202632375
0.004202654739
0.00420268086
0.004202708241
0.004202734427
0.004202757131
0.004202774264
0.004202783855
0.004202704733
0.004202717554
0.004202735197
0.004202755799
0.004202777388
0.00420279803
0.00420281592
0.004202829416
0.00420283697
0.004202774528
0.004202784636
0.004202798543
0.00420281478
0.004202831791
0.00420284805
0.004202862137
0.004202872762
0.004202878707
0.004202829467
0.004202837431
0.004202848386
0.004202861174
0.004202874568
0.004202887366
0.004202898452
0.004202906811
0.004202911487
0.004202872687
0.004202878957
0.004202887581
0.004202897645
0.004202908184
0.004202918252
0.004202926972
0.004202933544
0.00420293722
0.004202906667
0.0042029116
0.004202918385
0.004202926301
0.004202934589
0.004202942505
0.004202949359
0.004202954524
0.004202957412
0.004202933368
0.004202937248
0.004202942582
0.004202948805
0.00420295532
0.00420296154
0.004202966925
0.004202970981
0.004202973249
0.00420295434
0.004202957389
0.004202961581
0.00420296647
0.004202971588
0.004202976474
0.004202980702
0.004202983887
0.004202985667
0.004202970803
0.004202973198
0.004202976491
0.004202980331
0.004202984349
0.004202988185
0.004202991504
0.004202994003
0.0042029954
0.004202983722
0.004202985602
0.004202988187
0.004202991202
0.004202994356
0.004202997366
0.00420299997
0.00420300193
0.004203003026
0.004202993855
0.004202995331
0.00420299736
0.004202999725
0.004203002199
0.00420300456
0.004203006603
0.00420300814
0.004203008999
0.0042030018
0.004203002958
0.00420300455
0.004203006405
0.004203008345
0.004203010197
0.004203011798
0.004203013003
0.004203013677
0.004203008028
0.004203008936
0.004203010184
0.004203011639
0.00420301316
0.004203014611
0.004203015866
0.004203016811
0.004203017338
0.004203012907
0.004203013619
0.004203014597
0.004203015738
0.00420301693
0.004203018067
0.00420301905
0.00420301979
0.004203020204
0.004203016729
0.004203017287
0.004203018054
0.004203018947
0.004203019881
0.004203020772
0.004203021542
0.004203022122
0.004203022445
0.004203019722
0.004203020159
0.00420302076
0.004203021459
0.004203022191
0.004203022888
0.004203023491
0.004203023945
0.004203024198
0.004203022065
0.004203022407
0.004203022877
0.004203023425
0.004203023998
0.004203024544
0.004203025015
0.00420302537
0.004203025569
0.004203023897
0.004203024165
0.004203024533
0.004203024962
0.00420302541
0.004203025837
0.004203026206
0.004203026484
0.004203026639
0.004203025331
0.00420302554
0.004203025828
0.004203026163
0.004203026514
0.004203026847
0.004203027136
0.004203027353
0.004203027474
0.004203026451
0.004203026614
0.004203026839
0.004203027101
0.004203027375
0.004203027636
0.004203027861
0.004203028031
0.004203028125
0.004203027325
0.004203027453
0.004203027629
0.004203027833
0.004203028047
0.00420302825
0.004203028426
0.004203028558
0.004203028632
0.004203028007
0.004203028107
0.004203028244
0.004203028403
0.004203028569
0.004203028728
0.004203028864
0.004203028967
0.004203029025
0.004203028538
0.004203028615
0.004203028722
0.004203028846
0.004203028975
0.004203029098
0.004203029204
0.004203029283
0.004203029328
0.00420302895
0.00420302901
0.004203029092
0.004203029188
0.004203029288
0.004203029383
0.004203029465
0.004203029527
0.004203029561
0.004203029268
0.004203029314
0.004203029378
0.004203029452
0.004203029529
0.004203029602
0.004203029665
0.004203029712
0.004203029739
0.004203029513
0.004203029548
0.004203029597
0.004203029653
0.004203029712
0.004203029768
0.004203029815
0.004203029851
0.004203029871
0.004203029699
0.004203029726
0.004203029763
0.004203029805
0.00420302985
0.004203029891
0.004203029927
0.004203029954
0.004203029969
0.004203029839
0.004203029859
0.004203029886
0.004203029918
0.00420302995
0.004203029981
0.004203030007
0.004203030027
0.004203030038
0.004203029942
0.004203029956
0.004203029976
0.004203029999
0.004203030022
0.004203030043
0.004203030062
0.004203030075
0.004203030083
0.004203030014
0.004203030024
0.004203030038
0.004203030053
0.004203030069
0.004203030083
0.004203030095
0.004203030104
0.004203030109
0.004203030062
0.004203030069
0.004203030077
0.004203030087
0.004203030096
0.004203030104
0.004203030111
0.004203030115
0.004203030118
0.00420303009
0.004203030094
0.004203030098
0.004203030102
0.004203030106
0.004203030109
0.004203030111
0.004203030112
0.004203030113
0.004203030101
0.004203030102
0.004203030102
0.004203030102
0.004203030102
0.0042030301
0.004203030098
0.004203030096
0.004203030095
0.004203030097
0.004203030095
0.004203030093
0.004203030089
0.004203030084
0.004203030078
0.004203030073
0.004203030068
0.004203030066
0.00420303008
0.004203030076
0.00420303007
0.004203030063
0.004203030055
0.004203030045
0.004203030037
0.00420303003
0.004203030026
0.00420303005
0.004203030045
0.004203030037
0.004203030026
0.004203030014
0.004203030001
0.00420302999
0.00420302998
0.004203029975
0.00420303001
0.004203030003
0.004203029992
0.004203029978
0.004203029963
0.004203029947
0.004203029932
0.00420302992
0.004203029914
0.004203029959
0.004203029949
0.004203029936
0.00420302992
0.004203029901
0.004203029882
0.004203029864
0.00420302985
0.004203029842
0.004203029896
0.004203029886
0.00420302987
0.00420302985
0.004203029828
0.004203029805
0.004203029785
0.004203029768
0.00420302976
0.004203029824
0.004203029811
0.004203029793
0.00420302977
0.004203029744
0.004203029718
0.004203029694
0.004203029675
0.004203029665
0.004203029739
0.004203029725
0.004203029704
0.004203029678
0.004203029649
0.004203029619
0.004203029592
0.00420302957
0.004203029559
0.004203029644
0.004203029627
0.004203029603
0.004203029574
0.004203029541
0.004203029507
0.004203029476
0.004203029452
0.004203029439
0.004203029535
0.004203029517
0.00420302949
0.004203029457
0.00420302942
0.004203029382
0.004203029347
0.00420302932
0.004203029306
0.004203029414
0.004203029393
0.004203029363
0.004203029326
0.004203029284
0.004203029242
0.004203029203
0.004203029173
0.004203029157
0.004203029278
0.004203029255
0.004203029221
0.00420302918
0.004203029134
0.004203029087
0.004203029044
0.00420302901
0.004203028992
0.004203029127
0.004203029101
0.004203029064
0.004203029018
0.004203028966
0.004203028914
0.004203028867
0.00420302883
0.00420302881
0.004203028959
0.00420302893
0.004203028889
0.004203028838
0.004203028781
0.004203028724
0.004203028671
0.00420302863
0.004203028608
0.004203028773
0.004203028742
0.004203028696
0.004203028639
0.004203028577
0.004203028513
0.004203028454
0.004203028409
0.004203028385
0.004203028568
0.004203028533
0.004203028482
0.00420302842
0.004203028351
0.00420302828
0.004203028216
0.004203028166
0.004203028139
0.004203028341
0.004203028303
0.004203028247
0.004203028178
0.004203028102
0.004203028024
0.004203027953
0.004203027898
0.004203027868
0.004203028092
0.004203028049
0.004203027987
0.004203027912
0.004203027828
0.004203027742
0.004203027664
0.004203027603
0.004203027571
0.004203027817
0.00420302777
0.004203027702
0.004203027619
0.004203027526
0.004203027432
0.004203027346
0.004203027279
0.004203027244
0.004203027514
0.004203027463
0.004203027388
0.004203027297
0.004203027195
0.004203027092
0.004203026998
0.004203026924
0.004203026885
0.004203027182
0.004203027126
0.004203027044
0.004203026944
0.004203026832
0.004203026719
0.004203026615
0.004203026535
0.004203026492
0.004203026818
0.004203026756
0.004203026666
0.004203026556
0.004203026434
0.004203026309
0.004203026196
0.004203026108
0.004203026061
0.004203026419
0.004203026351
0.004203026253
0.004203026132
0.004203025997
0.004203025861
0.004203025737
0.00420302564
0.004203025589
0.004203025981
0.004203025907
0.004203025799
0.004203025667
0.00420302552
0.004203025371
0.004203025235
0.004203025129
0.004203025073
0.004203025503
0.004203025421
0.004203025303
0.004203025159
0.004203024998
0.004203024835
0.004203024686
0.004203024571
0.004203024509
0.004203024979
0.00420302489
0.004203024761
0.004203024603
0.004203024428
0.00420302425
0.004203024087
0.004203023961
0.004203023893
0.004203024407
0.00420302431
0.004203024169
0.004203023997
0.004203023805
0.00420302361
0.004203023433
0.004203023295
0.004203023222
0.004203023783
0.004203023676
0.004203023523
0.004203023335
0.004203023125
0.004203022913
0.00420302272
0.004203022569
0.004203022489
0.004203023102
0.004203022986
0.004203022819
0.004203022613
0.004203022385
0.004203022153
0.004203021942
0.004203021778
0.004203021691
0.004203022359
0.004203022233
0.004203022051
0.004203021827
0.004203021578
0.004203021326
0.004203021096
0.004203020917
0.004203020822
0.004203021551
0.004203021413
0.004203021215
0.004203020971
0.0042030207
0.004203020425
0.004203020175
0.004203019981
0.004203019877
0.004203020671
0.004203020521
0.004203020305
0.00420302004
0.004203019745
0.004203019446
0.004203019174
0.004203018962
0.00420301885
0.004203019714
0.004203019551
0.004203019316
0.004203019027
0.004203018707
0.004203018382
0.004203018086
0.004203017856
0.004203017734
0.004203018674
0.004203018497
0.004203018242
0.004203017928
0.00420301758
0.004203017227
0.004203016905
0.004203016655
0.004203016523
0.004203017545
0.004203017352
0.004203017076
0.004203016735
0.004203016357
0.004203015973
0.004203015624
0.004203015353
0.004203015209
0.00420301632
0.004203016111
0.00420301581
0.00420301544
0.00420301503
0.004203014614
0.004203014235
0.004203013941
0.004203013784
0.004203014991
0.004203014765
0.004203014439
0.004203014038
0.004203013592
0.004203013142
0.00420301273
0.004203012411
0.004203012242
0.004203013552
0.004203013306
0.004203012953
0.004203012518
0.004203012036
0.004203011547
0.004203011101
0.004203010755
0.004203010572
0.004203011994
0.004203011728
0.004203011345
0.004203010874
0.004203010351
0.004203009822
0.004203009339
0.004203008964
0.004203008765
0.004203010308
0.00420301002
0.004203009605
0.004203009095
0.00420300853
0.004203007956
0.004203007434
0.004203007027
0.004203006812
0.004203008485
0.004203008173
0.004203007725
0.004203007173
0.004203006561
0.004203005941
0.004203005375
0.004203004935
0.004203004702
0.004203006515
0.004203006178
0.004203005694
0.004203005097
0.004203004435
0.004203003764
0.004203003152
0.004203002676
0.004203002423
0.004203004389
0.004203004025
0.004203003501
0.004203002856
0.00420300214
0.004203001415
0.004203000752
0.004203000238
0.004202999965
0.004203002094
0.004203001701
0.004203001135
0.004203000438
0.004202999665
0.004202998881
0.004202998165
0.004202997608
0.004202997313
0.00420299962
0.004202999195
0.004202998585
0.004202997832