/*--------------------------------*- C++ -*----------------------------------*\
| =========                 |                                                 |
| \\      /  F ield         | OpenFOAM: The Open Source CFD Toolbox           |
|  \\    /   O peration     | Version:  2212                                  |
|   \\  /    A nd           | Website:  www.openfoam.com                      |
|    \\/     M anipulation  |                                                 |
\*---------------------------------------------------------------------------*/
FoamFile
{
    version     2.0;
    format      ascii;
    arch        "LSB;label=32;scalar=64";
    class       volScalarField;
    location    "20.00000000";
    object      H2;
}
// * * * * * * * * * * * * * * * * * * * * * * * * * * * * * * * * * * * * * //

dimensions      [0 0 0 0 0 0 0];

internalField   nonuniform List<scalar> 
3000
(
4.627562839e-21
5.198205005e-21
6.05923878e-21
7.206544754e-21
8.628433815e-21
1.028632428e-20
1.208041761e-20
1.379248247e-20
1.50030459e-20
1.737377983e-20
1.959483761e-20
2.294471486e-20
2.741822299e-20
3.301082081e-20
3.969185326e-20
4.734553615e-20
5.558791383e-20
6.288757115e-20
3.891725919e-20
4.423743807e-20
5.233811454e-20
6.333609688e-20
7.742872008e-20
9.482090518e-20
1.154438201e-19
1.381425955e-19
1.575363644e-19
7.412797197e-20
8.514459487e-20
1.021651558e-19
1.257648376e-19
1.56779165e-19
1.959968374e-19
2.432036765e-19
2.946266298e-19
3.361283715e-19
1.316366686e-19
1.530569073e-19
1.866725259e-19
2.341904043e-19
2.978448348e-19
3.794210113e-19
4.775553097e-19
5.817761575e-19
6.617789262e-19
2.263664762e-19
2.665719442e-19
3.305734332e-19
4.224550894e-19
5.471176629e-19
7.077001239e-19
8.994051392e-19
1.098061795e-18
1.245031618e-18
3.843051176e-19
4.581596594e-19
5.770953794e-19
7.497683455e-19
9.857907966e-19
1.289853971e-18
1.649376862e-18
2.01465376e-18
2.278215352e-18
6.504008875e-19
7.840516411e-19
1.001194973e-18
1.31888135e-18
1.75481774e-18
2.315271009e-18
2.972110987e-18
3.629729226e-18
4.096303783e-18
1.102554769e-18
1.341849862e-18
1.733139842e-18
2.308490642e-18
3.099380585e-18
4.113383293e-18
5.293197698e-18
6.462113938e-18
7.28230626e-18
1.875711068e-18
2.300787986e-18
2.999029117e-18
4.029008833e-18
5.445673856e-18
7.257190291e-18
9.353253913e-18
1.141477911e-17
1.28506116e-17
3.203893411e-18
3.954629761e-18
5.191700426e-18
7.0201575e-18
9.535091735e-18
1.274373488e-17
1.644113931e-17
2.005924752e-17
2.256694053e-17
5.49323901e-18
6.813598568e-18
8.994044631e-18
1.222084628e-17
1.665800229e-17
2.230868796e-17
2.880043758e-17
3.513081401e-17
3.950496463e-17
9.449096279e-18
1.176451704e-17
1.559400115e-17
2.126549424e-17
2.90614552e-17
3.897427528e-17
5.033512176e-17
6.138489316e-17
6.901461755e-17
1.629664904e-17
2.034889867e-17
2.705828344e-17
3.700008622e-17
5.066103637e-17
6.800680308e-17
8.783322827e-17
1.07052847e-16
1.204074643e-16
2.816301829e-17
3.524457704e-17
4.698001888e-17
6.437837146e-17
8.828316622e-17
1.186014825e-16
1.531312561e-16
1.862964795e-16
2.099482881e-16
4.873779683e-17
6.10969144e-17
8.159336601e-17
1.119991444e-16
1.538023808e-16
2.069063703e-16
2.677327175e-16
3.270129921e-16
3.669444772e-16
8.441646294e-17
1.059549144e-16
1.41689192e-16
1.947092224e-16
2.675878831e-16
3.600833437e-16
4.657577073e-16
5.681030233e-16
6.381025531e-16
1.462895338e-16
1.837783363e-16
2.459890671e-16
3.382930921e-16
4.651319029e-16
6.260082829e-16
8.096173558e-16
9.872424501e-16
1.108947705e-15
2.535989458e-16
3.187929518e-16
4.269944917e-16
5.875357538e-16
8.08100848e-16
1.087757738e-15
1.406792399e-15
1.715303133e-15
1.926660954e-15
4.397402636e-16
5.530509904e-16
7.411332748e-16
1.020201198e-15
1.403570192e-15
1.889549375e-15
2.443813132e-15
2.979644254e-15
3.346644245e-15
7.626845932e-16
9.595578871e-16
1.286376243e-15
1.771309024e-15
2.437446237e-15
3.281760663e-15
4.244522649e-15
5.175060362e-15
5.812270595e-15
1.323076204e-15
1.665066795e-15
2.232829455e-15
3.075294925e-15
4.232510444e-15
5.699089049e-15
7.371136741e-15
8.986914219e-15
1.009319558e-14
2.295664384e-15
2.889668429e-15
3.875866338e-15
5.339230115e-15
7.349212176e-15
9.896253132e-15
1.279968568e-14
1.56049267e-14
1.752540592e-14
3.983899425e-15
5.01555696e-15
6.728411714e-15
9.269981162e-15
1.276068673e-14
1.718358265e-14
2.222455579e-14
2.709432476e-14
3.042780943e-14
6.914767816e-15
8.706477029e-15
1.168122121e-14
1.609500395e-14
2.215652927e-14
2.983574985e-14
3.858667725e-14
4.703905016e-14
5.282439437e-14
1.200348634e-14
1.511514008e-14
2.028114918e-14
2.794556639e-14
3.846982347e-14
5.180042537e-14
6.698837041e-14
8.165527676e-14
9.169289705e-14
2.083949038e-14
2.624337548e-14
3.521422295e-14
4.852176755e-14
6.679123928e-14
8.992665899e-14
1.162781923e-13
1.417186707e-13
1.591254269e-13
3.618289474e-14
4.556730386e-14
6.114397015e-14
8.424594178e-14
1.159529975e-13
1.560911968e-13
2.017914414e-13
2.458945437e-13
2.760604235e-13
6.282547607e-14
7.912132383e-14
1.061643498e-13
1.462602465e-13
2.012694328e-13
2.708725151e-13
3.500778423e-13
4.264729624e-13
4.787004591e-13
1.090822119e-13
1.373754993e-13
1.843146229e-13
2.53880775e-13
3.492691188e-13
4.698834905e-13
6.070339876e-13
7.39215314e-13
8.295168387e-13
1.893709279e-13
2.384812423e-13
3.199235067e-13
4.405560207e-13
6.058422902e-13
8.146489101e-13
1.051836207e-12
1.280181822e-12
1.436021999e-12
3.286638959e-13
4.138687337e-13
5.550921166e-13
7.641118982e-13
1.050215455e-12
1.411206985e-12
1.820687751e-12
2.214320237e-12
2.482589017e-12
5.701478566e-13
7.178695666e-13
9.625370665e-13
1.324293282e-12
1.818803075e-12
2.441737277e-12
3.147027644e-12
3.823679741e-12
4.283962023e-12
9.883579031e-13
1.244193226e-12
1.667532354e-12
2.292639161e-12
3.145666467e-12
4.217955401e-12
5.429063619e-12
6.587996673e-12
7.374389587e-12
1.711599914e-12
2.154001912e-12
2.885185737e-12
3.963032061e-12
5.430626715e-12
7.270479264e-12
9.342101971e-12
1.131796492e-11
1.265444339e-11
2.960036243e-12
3.723471204e-12
4.983341104e-12
6.836562743e-12
9.352906757e-12
1.249688341e-11
1.602328642e-11
1.937295551e-11
2.162978681e-11
5.109997156e-12
6.423818203e-12
8.587890597e-12
1.176270958e-11
1.605876561e-11
2.140412349e-11
2.737154246e-11
3.301186254e-11
3.679403058e-11
8.801854956e-12
1.105492546e-11
1.475750619e-11
2.017176474e-11
2.746765434e-11
3.650030436e-11
4.65277164e-11
5.595013533e-11
6.22333881e-11
1.511962268e-11
1.896652829e-11
2.527062942e-11
3.445305016e-11
4.676526425e-11
6.191880223e-11
7.863159117e-11
9.42304562e-11
1.045667149e-10
2.588750357e-11
3.242085105e-11
4.309161279e-11
5.856259364e-11
7.918644238e-11
1.043976171e-10
1.319968228e-10
1.575622241e-10
1.74384078e-10
4.415511644e-11
5.518095936e-11
7.311877607e-11
9.898632508e-11
1.332401667e-10
1.747924838e-10
2.199060185e-10
2.613504129e-10
2.884148684e-10
7.498359405e-11
9.345461585e-11
1.233696254e-10
1.662453918e-10
2.22597596e-10
2.903789404e-10
3.633118213e-10
4.297236228e-10
4.727491122e-10
1.267054404e-10
1.573903758e-10
2.068338976e-10
2.772152589e-10
3.689592685e-10
4.783034214e-10
5.948439208e-10
6.999929225e-10
7.675621846e-10
2.129202422e-10
2.634192807e-10
3.443316705e-10
4.58648299e-10
6.063478745e-10
7.806865901e-10
9.64677637e-10
1.129139591e-09
1.233966304e-09
3.556167261e-10
4.378723911e-10
5.688622467e-10
7.524519326e-10
9.874512473e-10
1.26207772e-09
1.549032797e-09
1.803157906e-09
1.963849343e-09
5.899925647e-10
7.224950056e-10
9.321339512e-10
1.223496497e-09
1.592883717e-09
2.020226503e-09
2.462363361e-09
2.850391236e-09
3.093885874e-09
9.717931752e-10
1.182739843e-09
1.514244002e-09
1.971029852e-09
2.544566454e-09
3.201504478e-09
3.874696965e-09
4.460425724e-09
4.825347718e-09
1.588329971e-09
1.92007584e-09
2.437855991e-09
3.14518741e-09
4.024880411e-09
5.022806813e-09
6.036126391e-09
6.910685216e-09
7.451942465e-09
2.574793396e-09
3.090025572e-09
3.88873315e-09
4.970643817e-09
6.303859897e-09
7.802441237e-09
9.311190388e-09
1.060365549e-08
1.139872266e-08
4.138081755e-09
4.928281597e-09
6.145171778e-09
7.780203724e-09
9.777523005e-09
1.20034218e-08
1.42268725e-08
1.611872425e-08
1.727620785e-08
6.591171479e-09
7.788102242e-09
9.619797423e-09
1.206213444e-08
1.502154235e-08
1.829380299e-08
2.153927465e-08
2.428404901e-08
2.595534153e-08
1.040212372e-08
1.21933212e-08
1.491841048e-08
1.852637841e-08
2.286592324e-08
2.76302964e-08
3.232577687e-08
3.627575425e-08
3.867089654e-08
1.626324153e-08
1.891281862e-08
2.292219642e-08
2.819654036e-08
3.449825804e-08
4.137348462e-08
4.811177165e-08
5.375422163e-08
5.71635613e-08
2.518776157e-08
2.906434245e-08
3.490181108e-08
4.253686174e-08
5.160555511e-08
6.144551023e-08
7.104386003e-08
7.905033802e-08
8.387420729e-08
3.864167055e-08
4.425525289e-08
5.267165016e-08
6.362424459e-08
7.65672466e-08
9.054546341e-08
1.041263096e-07
1.154191988e-07
1.222077618e-07
5.872468183e-08
6.677610041e-08
7.880196366e-08
9.43836043e-08
1.127169679e-07
1.324390024e-07
1.515377608e-07
1.673792858e-07
1.768859917e-07
8.841662443e-08
9.986310458e-08
1.169047649e-07
1.389036161e-07
1.646930098e-07
1.923457446e-07
2.190537096e-07
2.411632687e-07
2.544147882e-07
1.319074147e-07
1.480490034e-07
1.720153542e-07
2.02857209e-07
2.389037049e-07
2.774518448e-07
3.146037876e-07
3.453123474e-07
3.637017316e-07
1.950350746e-07
2.176277566e-07
2.510960823e-07
2.940546785e-07
3.441370314e-07
3.975790733e-07
4.489989181e-07
4.91454573e-07
5.168678555e-07
2.858594221e-07
3.172614279e-07
3.636915483e-07
4.231596166e-07
4.923463766e-07
5.660462607e-07
6.368696819e-07
6.953101443e-07
7.302935162e-07
4.154001481e-07
4.587581335e-07
5.227646176e-07
6.045988164e-07
6.996481357e-07
8.007646086e-07
8.978580246e-07
9.779613984e-07
1.025934189e-06
5.985653626e-07
6.580479112e-07
7.457426631e-07
8.577008363e-07
9.875711107e-07
1.125605449e-06
1.258095084e-06
1.367418756e-06
1.43293815e-06
8.552963899e-07
9.363857094e-07
1.055808062e-06
1.208099457e-06
1.384588393e-06
1.572062926e-06
1.751985523e-06
1.90050363e-06
1.98958804e-06
1.211961894e-06
1.321814669e-06
1.483461408e-06
1.689419108e-06
1.927937867e-06
2.181213595e-06
2.424298803e-06
2.625048339e-06
2.745564735e-06
1.703022145e-06
1.850900262e-06
2.068353986e-06
2.34522743e-06
2.665709336e-06
3.005945042e-06
3.332534373e-06
3.602373913e-06
3.764492956e-06
2.372943436e-06
2.570706857e-06
2.861352423e-06
3.231207661e-06
3.659140535e-06
4.113382456e-06
4.549473394e-06
4.909947811e-06
5.126664715e-06
3.278313291e-06
3.540960061e-06
3.926767892e-06
4.417471046e-06
4.985020156e-06
5.587383691e-06
6.165762195e-06
6.64404344e-06
6.931747887e-06
4.490084834e-06
4.836316749e-06
5.344658535e-06
5.990890321e-06
6.738047439e-06
7.530917456e-06
8.292301889e-06
8.922137148e-06
9.301189156e-06
6.095865238e-06
6.548641232e-06
7.213079442e-06
8.057303577e-06
9.032964538e-06
1.006809873e-05
1.106217012e-05
1.188472085e-05
1.237995555e-05
8.202129511e-06
8.789158195e-06
9.650134881e-06
1.074341851e-05
1.200626101e-05
1.334564551e-05
1.463180212e-05
1.569622428e-05
1.63372869e-05
1.093621715e-05
1.169032856e-05
1.279566252e-05
1.419822796e-05
1.581724275e-05
1.753353654e-05
1.918121153e-05
2.054484796e-05
2.136629232e-05
1.444792491e-05
1.540725139e-05
1.68123399e-05
1.859371491e-05
2.06482386e-05
2.282465558e-05
2.491308008e-05
2.664123289e-05
2.768249604e-05
1.891044815e-05
2.011833645e-05
2.188594874e-05
2.412457631e-05
2.670367438e-05
2.943315732e-05
3.205046699e-05
3.421577331e-05
3.552091558e-05
2.452036531e-05
2.602494152e-05
2.822449479e-05
3.100667304e-05
3.420772603e-05
3.759124519e-05
4.083271978e-05
4.351285109e-05
4.512742562e-05
3.149634218e-05
3.334966696e-05
3.605590562e-05
3.947397559e-05
4.340043544e-05
4.754450905e-05
5.150890228e-05
5.478213457e-05
5.675184231e-05
4.00762816e-05
4.233306428e-05
4.562411675e-05
4.977386939e-05
5.453226965e-05
5.95439919e-05
6.432833079e-05
6.827122935e-05
7.064062484e-05
5.051276855e-05
5.322864313e-05
5.718361071e-05
6.216088234e-05
6.785446297e-05
7.383592991e-05
7.953160787e-05
8.421484665e-05
8.702412247e-05
6.306709106e-05
6.629623261e-05
7.099033826e-05
7.688429274e-05
8.360847758e-05
9.065207499e-05
9.73394993e-05
0.0001028235528
0.0001061061099
7.799769557e-05
8.178874083e-05
8.728922417e-05
9.417845001e-05
0.0001020146918
0.000110197051
0.0001179405441
0.0001242713862
0.0001280513204
9.554806512e-05
9.994176329e-05
0.000106303714
0.0001142504422
0.0001232608743
0.0001326368031
0.0001414786746
0.0001486834481
0.0001529731605
0.0001159352581
0.0001209612011
0.0001282230723
0.0001372678042
0.0001474888025
0.000158085258
0.0001680408699
0.0001761241482
0.000180922344
0.000139336174
0.0001450094984
0.0001531882912
0.0001633448766
0.0001747817911
0.0001865931169
0.0001976463228
0.0002065870902
0.0002118773017
0.000165873656
0.0001721923007
0.0001812801811
0.0001925306979
0.000205153236
0.0002181369494
0.0002302374085
0.0002399871864
0.0002457369266
0.0001956031322
0.0002025455668
0.0002125067076
0.000224798989
0.0002385383395
0.0002526124909
0.0002656737865
0.0002761555029
0.0002823156851
0.0002285010831
0.0002360250207
0.0002467940696
0.0002600399467
0.0002747878162
0.0002898307783
0.0003037299421
0.0003148368361
0.0003213397528
0.0002644564287
0.0002724988216
0.0002839812588
0.0002980575798
0.0003136678076
0.0003295200486
0.0003440985176
0.000355692114
0.0003624400144
0.0003032657435
0.0003117442847
0.0003238189719
0.0003385714113
0.0003548651244
0.0003713352194
0.0003864047702
0.0003983319883
0.0004052607924
0.0003446326936
0.0003534488825
0.0003659727792
0.0003812223541
0.0003979973244
0.0004148737862
0.0004302626565
0.0004424126017
0.0004494571166
0.0003881712778
0.0003972150822
0.0004100296823
0.0004255794834
0.0004426322555
0.0004597471573
0.0004753117697
0.0004875718164
0.0004946673985
0.0004334113097
0.0004425691179
0.000455525141
0.0004712196052
0.0004883901137
0.0005055817833
0.0005211791249
0.0005334393659
0.0005405239189
0.0004798980518
0.0004890827416
0.0005020588381
0.0005177500025
0.0005348809875
0.0005519957906
0.000567491036
0.0005796491717
0.000586665551
0.0005272134352
0.0005363412909
0.00054922114
0.0005647710608
0.0005817168292
0.0005986147452
0.0006138866067
0.0006258517343
0.0006327496697
0.0005749349129
0.0005839295597
0.0005966079104
0.0006118936135
0.0006285258426
0.0006450852842
0.000660029876
0.0006717250996
0.0006784624771
0.000622654204
0.0006314496802
0.0006438364284
0.0006587539313
0.0006749655638
0.0006910865768
0.0007056197497
0.0007169836133
0.0007235271135
0.0006699939469
0.0006785366678
0.0006905593097
0.0007050260192
0.0007207333174
0.0007363390463
0.0007503972259
0.0007613840435
0.0007677091902
0.0007166209757
0.0007248705914
0.0007364751642
0.0007504305963
0.000765573458
0.0007806100059
0.0007941496979
0.0008047289357
0.0008108196504
0.000762255473
0.0007701847279
0.000781335413
0.0007947404201
0.0008092812076
0.0008237161629
0.0008367123921
0.0008468673165
0.0008527151005
0.0008066757371
0.0008142695188
0.0008249471775
0.0008377820061
0.0008517032406
0.0008655232114
0.0008779671935
0.0008876930166
0.0008932958918
0.0008497187576
0.0008569725527
0.0008671724977
0.0008794340392
0.0008927353622
0.0009059429477
0.0009178393779
0.0009271411726
0.0009325025143
0.0008912772087
0.0008981952621
0.0009079246683
0.0009196233574
0.0009323181994
0.0009449287368
0.0009562929401
0.0009651834985
0.000970310858
0.000931293967
0.0009378873256
0.0009471625199
0.0009583191491
0.0009704313802
0.0009824697499
0.0009933249398
0.001001822741
0.001006726739
0.0009697548857
0.0009760395192
0.0009848834028
0.0009955261317
0.001007086961
0.001018584669
0.001028959474
0.00103708687
0.001041780213
0.001006680827
0.001012675948
0.001021115709
0.001031277435
0.00104232271
0.001053315377
0.001063241729
0.001071023405
0.001075520054
0.00104211971
0.001047846361
0.001055911563
0.001065627736
0.001076195723
0.001086721026
0.001096232442
0.00110369417
0.001108008664
0.00107613913
0.001081619062
0.001089340126
0.001098647029
0.001108776667
0.001118872739
0.001128002993
0.001135170662
0.001139317597
0.001108819887
0.001114074707
0.001121481775
0.001130415239
0.00114014485
0.001149849087
0.001158631212
0.001165530122
0.001169523771
0.001140250567
0.001145301144
0.001152423273
0.001161017758
0.001170384101
0.001179732347
0.001188197986
0.001194852357
0.001198706385
0.001170523185
0.001175389235
0.001182253852
0.001190541866
0.001199579612
0.001208605625
0.001216784558
0.001223217189
0.001226944475
0.001199729862
0.001204429723
0.001211062335
0.001219074091
0.001227815445
0.001236550577
0.001244470462
0.001250702541
0.001254315069
0.001227960416
0.00123251093
0.00123893496
0.001246698205
0.001255172738
0.001263645782
0.001271332035
0.001277383048
0.001280891858
0.001255300647
0.00125971713
0.00126595388
0.001273493848
0.001281728461
0.001289965624
0.001297441394
0.001303329111
0.001306744282
0.001281831227
0.001286127491
0.001292196177
0.001299535639
0.001307554619
0.001315579576
0.001322865794
0.001328606297
0.001331936965
0.001307627034
0.001311815454
0.001317733296
0.001324892666
0.001332717798
0.0013405518
0.001347667268
0.001353275022
0.001356529414
0.001332756837
0.001336848439
0.001342630782
0.00134962826
0.001357278975
0.001364940987
0.001371902503
0.00137739044
0.00138057592
0.001357283241
0.001361287796
0.001366948247
0.001373799974
0.001381293516
0.001388800382
0.001395622871
0.001401002493
0.001404125615
0.001381262798
0.00138518893
0.001390739496
0.001397459724
0.001404811324
0.001412177928
0.001418874588
0.001424156073
0.001427222644
0.001404746249
0.001408601533
0.001414052766
0.001420654023
0.001427877072
0.001435116507
0.001441698954
0.001446891264
0.001449906401
0.001427778845
0.001431569909
0.001436931042
0.001443424289
0.001450530511
0.001457654241
0.00146413265
0.00146924364
0.001472211828
0.00145040071
0.001454133327
0.001459412404
0.001465807195
0.001472806805
0.001479824821
0.001486208062
0.001491244582
0.001494169737
0.001472647234
0.001476326413
0.001481530411
0.001487835031
0.001494736893
0.001501657865
0.001507953635
0.00151292163
0.00151580715
0.001494549476
0.001498179541
0.001503314487
0.001509536091
0.001516347855
0.001523179268
0.001529394212
0.001534298818
0.00153714764
0.001516134558
0.001519719226
0.001524790297
0.001530935034
0.001537663275
0.001544411559
0.001550551388
0.001555397016
0.001558211664
0.00153742605
0.001540968503
0.001545980127
0.001552053254
0.001558703593
0.001565374245
0.001571443839
0.00157623426
0.001579016892
0.001558444343
0.001561947285
0.001566903231
0.001572909219
0.001579486436
0.00158608413
0.001592087638
0.001596826058
0.001599578511
0.00157920699
0.001582672712
0.001587576168
0.001593518799
0.001600026937
0.001606555625
0.001612496555
0.001617185687
0.001619909512
0.001599729032
0.00160315946
0.001608013109
0.001613895568
0.001620338027
0.001626801032
0.001632682335
0.001637324458
0.001640020963
0.001620023299
0.001623420048
0.001628226134
0.001634051082
0.001640430707
0.001646830808
0.001652654949
0.00165725197
0.001659922246
0.001640100695
0.001643465104
0.001648225494
0.001653995144
0.001660314295
0.0016666538
0.001672422828
0.001676976331
0.001679621288
0.001659970437
0.001663303615
0.001668019849
0.001673736026
0.001679996654
0.001686277469
0.001691993077
0.001696504372
0.001699124761
0.001679640286
0.001682943141
0.001687616483
0.001693280687
0.001699484392
0.001705708081
0.001711371658
0.001715841822
0.001718438261
0.001699116752
0.001702390025
0.001707021505
0.001712634957
0.001718783044
0.001724950883
0.001730563564
0.001734993476
0.001737566472
0.001718405277
0.001721649567
0.00172624002
0.001731803709
0.001737897236
0.00174401026
0.001749572966
0.00175396334
0.001756513305
0.001737510394
0.001740726184
0.001745276281
0.001750791003
0.001756830822
0.001762889866
0.001768403341
0.001772754757
0.001775282027
0.001756435876
0.001759623551
0.001764133828
0.001769600222
0.001775587016
0.001781592751
0.001787057595
0.00179137052
0.001793875366
0.001775184854
0.00177834472
0.001782815606
0.00178823418
0.001794168495
0.001800121459
0.001805538154
0.001809812967
0.001812295607
0.001793759931
0.001796892233
0.001801324066
0.001806695226
0.001812577499
0.001818478122
0.001823847056
0.001828084061
0.001830544675
0.001812163278
0.001815268207
0.001819661258
0.001824985327
0.001830815906
0.001836664536
0.001841986023
0.00184618547
0.001848624203
0.001830396707
0.001833474418
0.001837828903
0.001843106139
0.001848885308
0.001854682227
0.001859956524
0.001864118616
0.00186653559
0.00184846175
0.001851512367
0.001855828459
0.001861059075
0.001866787064
0.001872532504
0.001877759826
0.001881884735
0.001884280053
0.001866359711
0.001869383335
0.00187366118
0.001878845351
0.001884522355
0.001890216514
0.001895397043
0.001899484918
0.001901858667
0.001884091719
0.001887088437
0.001891328158
0.001896466035
0.001902092222
0.001907735273
0.00191286917
0.001916920142
0.001919272402
0.001901658768
0.001904628656
0.001908830363
0.001913922081
0.001919497603
0.001925089702
0.001930177115
0.001934191306
0.001936522151
0.001919061754
0.001922004881
0.001926168675
0.001931214361
0.001936739359
0.001942280655
0.001947321725
0.001951299249
0.001953608749
0.001936301497
0.001939217933
0.001943343912
0.001948343688
0.001953818302
0.00195930894
0.001964303804
0.001968244776
0.001970533
0.001953378774
0.001956268587
0.001960356849
0.001965310838
0.001970735209
0.001976175335
0.001981124133
0.001985028669
0.001987295685
0.001970294329
0.001973157588
0.001977208236
0.001982116566
0.001987490838
0.001992880605
0.001997783481
0.002001651698
0.00200389758
0.001987048892
0.001989885672
0.001993898813
0.001998761618
0.002004085944
0.002009425511
0.002014282616
0.002018114638
0.00202033946
0.002003643188
0.002006453568
0.002010429317
0.002015246741
0.002020521284
0.002025810818
0.002030622311
0.002034418269
0.00203662211
0.002020077952
0.002022862017
0.002026800496
0.002031572691
0.002036797623
0.002042037304
0.002046803354
0.002050563385
0.002052746327
0.002036353927
0.002039111768
0.00204301311
0.002047740239
0.002052915744
0.002058105763
0.002062826548
0.002066550798
0.002068712927
0.002052471877
0.002055203593
0.002059067937
0.002063750175
0.002068876449
0.002074017007
0.002078692717
0.002082381338
0.002084522746
0.002068432585
0.00207113828
0.002074965778
0.002079603311
0.002084680561
0.002089771873
0.002094402706
0.00209805586
0.002100176643
0.00208423686
0.002086916645
0.002090707456
0.002095300479
0.002100328926
0.002105371216
0.002109957384
0.00211357524
0.002115675497
0.002099885534
0.002102539527
0.002106293817
0.00211084254
0.002115822414
0.00212081592
0.00212535764
0.002128940375
0.002131020212
0.002115379463
0.002118007787
0.002121725736
0.002126230374
0.002131161919
0.002136106887
0.00214060439
0.002144152188
0.002146211712
0.002130719531
0.002133322316
0.002137004108
0.00214146489
0.002146348357
0.002151245045
0.002155698569
0.002159211621
0.002161250946
0.002145906644
0.002148484026
0.002152129854
0.002156547016
0.002161382668
0.002166231344
0.002170641136
0.002174119639
0.00217613888
0.002160941734
0.002163493853
0.002167103917
0.002171477704
0.002176265813
0.002181066753
0.002185433066
0.002188877224
0.002190876501
0.002175825754
0.002178352754
0.002181927262
0.002186257926
0.002190998773
0.00219575226
0.002200075357
0.002203485379
0.002205464815
0.002190559676
0.002193061708
0.002196600872
0.002200888675
0.002205582546
0.002210288873
0.002214569022
0.002217945122
0.002219904841
0.002205144495
0.002207621712
0.00221112575
0.002215370958
0.002220018149
0.002224677613
0.002228915089
0.002232257484
0.002234197616
0.00221958122
0.002222033779
0.002225502915
0.002229705801
0.002234306611
0.002238919518
0.002243114599
0.002246423513
0.002248344187
0.002233870878
0.00223629894
0.002239733401
0.002243894241
0.002248448978
0.002253015636
0.002257168607
0.002260444265
0.002262345612
0.002248014508
0.002250418234
0.002253818252
0.002257937329
0.002262446304
0.002266967027
0.002271078174
0.002274320805
0.00227620296
0.00226201316
0.002264392716
0.002267758525
0.002271836125
0.002276299651
0.002280774757
0.002284844371
0.002288054205
0.002289917302
0.002275867894
0.002278223447
0.002281555284
0.002285591694
0.002290010088
0.002294439897
0.002298468271
0.002301645541
0.002303489715
0.002289579775
0.002291911493
0.002295209597
0.002299205108
0.002303578689
0.002307963522
0.002311950951
0.002315095888
0.002316921276
0.002303149872
0.002305457925
0.002308722534
0.002312677437
0.002317006526
0.002321346705
0.002325293481
0.00232840632
0.002330213057
0.002316579255
0.00231886381
0.002322095165
0.002326009751
0.002330294667
0.002334590514
0.002338496931
0.002341577903
0.002343366125
0.002329868987
0.002332130214
0.002335328553
0.002339203111
0.002343444171
0.002347696005
0.002351562355
0.00235461169
0.00235638153
0.002343020125
0.00234525819
0.002348423749
0.002352258566
0.002356456086
0.002360664221
0.00236449079
0.002367508716
0.002369260306
0.002356033709
0.002358248776
0.002361381789
0.002365177146
0.002369331433
0.002373496179
0.002377283249
0.002380269986
0.002382003454
0.002368910756
0.002371102987
0.00237420368
0.002377959853
0.002382071207
0.002386192864
0.002389940706
0.002392896469
0.00239461194
0.002381652254
0.002383821804
0.002386890396
0.002390607649
0.002394676358
0.002398755215
0.002402464089
0.002405389082
0.002407086674
0.002394259143
0.00239640616
0.00239944286
0.002403121444
0.002407147781
0.002411184108
0.002414854258
0.002417748672
0.002419428494
0.002406732305
0.002408856927
0.00241186193
0.002415502077
0.002419486294
0.002423480339
0.002427111989
0.002429975996
0.002431638148
0.002419072544
0.002421174896
0.002424148375
0.002427750294
0.002431692614
0.002435644596
0.00243923794
0.00244207169
0.002443716257
0.002431280559
0.002433360748
0.002436302853
0.00243986672
0.00244376733
0.00244767743
0.002451232625
0.002454036238
0.002455663286
0.002443356912
0.002445415025
0.002448325871
0.002451851822
0.002455710862
0.002459579211
0.002463096367
0.002465869923
0.002467479496
0.002455301997
0.002457338088
0.002460217751
0.002463705867
0.002467523415
0.002471350079
0.002474829246
0.002477572776
0.002479164886
0.002467115983
0.00246913007
0.00247197857
0.002475428865
0.002479204923
0.002482989888
0.002486431038
0.002489144506
0.00249071913
0.002478798762
0.002480790818
0.002483608106
0.002487020507
0.002490754978
0.002494498126
0.002497901132
0.002500584426
0.002502141489
0.00249034988
0.002492319817
0.002495105758
0.002498480085
0.002502172748
0.002505873833
0.002509238448
0.002511891353
0.002513430722
0.002501768455
0.00250371611
0.002506470463
0.002509806401
0.002513456884
0.0025171155
0.002520441323
0.002523063501
0.002524584968
0.002513053082
0.002514978204
0.002517700594
0.002520997664
0.002524605405
0.00252822095
0.002531507397
0.002534098358
0.002535601623
0.002524201728
0.002526103953
0.002528793846
0.002532051368
0.002535615579
0.002539187215
0.002542433475
0.002544992545
0.002546477201
0.002535211612
0.002537090442
0.002539747112
0.002542964165
0.002546483786
0.002550010389
0.002553215386
0.002555741672
0.002557207179
0.002546079074
0.002547933855
0.002550556345
0.002553731723
0.002557205372
0.002560685484
0.002563847824
0.002566340176
0.00256778584
0.002556799437
0.002558629328
0.002561216416
0.002564348582
0.002567774499
0.002571206273
0.002574324197
0.002576781167
0.002578206115
0.002567366866
0.002569170815
0.002571720971
0.002574808004
0.002578184
0.002581565144
0.002584636474
0.002587056271
0.00258845943
0.00257777423
0.00257955094
0.002582062285
0.002585101834
0.002588425235
0.002591752955
0.002594775042
0.002597155498
0.002598535566
0.002588012967
0.002589760874
0.002592231141
0.002595220375
0.002598487969
0.002601758917
0.002604728599
0.002607067125
0.002608422552
0.002598072974
0.002599790217
0.002602216718
0.002605152284
0.002608360275
0.002611570508
0.002614484064
0.002616777625
0.002618106597
0.002607942512
0.002609626918
0.002612006514
0.002614884506
0.002618028484
0.002621173426
0.002624026553
0.002626271644
0.002627572069
0.002617608164
0.002619257231
0.002621586316
0.002624402257
0.002627477175
0.002630551608
0.002633339408
0.002635532048
0.002636801555
0.00262705483
0.002628665724
0.002630940221
0.002633689058
0.00263668924
0.002639687306
0.002642404296
0.00264454004
0.002645775986
0.002636265787
0.002637835351
0.002640050727
0.002642726856
0.002645646018
0.002648561255
0.002651201403
0.002653275375
0.002654474867
0.002645222823
0.0026467476
0.002648898897
0.002651496205
0.002654327518
0.002657152924
0.002659709715
0.002661716665
0.002662876596
0.002653906442
0.002655382713
0.002657464611
0.002659976558
0.002662712735
0.002665440867
0.002667907404
0.002669841791
0.002670958891
0.002662296161
0.002663720003
0.002665726905
0.002668146626
0.002670780054
0.002673403166
0.002675772302
0.002677628408
0.002678699316
0.002670370894
0.002671738256
0.002673664394
0.00267598485
0.002678507749
0.002681017968
0.002683282474
0.002685054548
0.002686075897
0.002678109415
0.002679416212
0.00268125579
0.002683469934
0.002685874562
0.002688264098
0.002690416868
0.002692099289
0.002693067809
0.002685490903
0.002686733127
0.002688480483
0.002690581465
0.002692860347
0.002695121733
0.00269715601
0.002698743476
0.002699656105
0.002692495549
0.002693669395
0.002695319178
0.002697300572
0.002699446749
0.002701573105
0.002703482729
0.002704970461
0.002705824465
0.002699105195
0.002700207196
0.002701754563
0.002703610602
0.002705617905
0.00270760321
0.002709382872
0.002710766816
0.002711559915
0.002705304003
0.002706331168
0.002707771977
0.002709497798
0.00271136111
0.002713200475
0.002714845966
0.002716122993
0.002716853472
0.002711079095
0.002712029043
0.00271336005
0.002714951922
0.002716667433
0.002718357352
0.002719865791
0.002721033873
0.00272170069
0.002716421149
0.002717292236
0.002718511263
0.002719966799
0.002721532226
0.002723070793
0.00272444082
0.00272549918
0.002726102042
0.002721324912
0.002722116332
0.002723222417
0.002724540736
0.002725955504
0.002727342581
0.002728574496
0.002729523709
0.002730063133
0.002725789587
0.002726501455
0.002727494953
0.002728676807
0.002729942161
0.002731179477
0.00273227532
0.00273311737
0.002733594711
0.00272981909