/*--------------------------------*- C++ -*----------------------------------*\
| =========                 |                                                 |
| \\      /  F ield         | OpenFOAM: The Open Source CFD Toolbox           |
|  \\    /   O peration     | Version:  2212                                  |
|   \\  /    A nd           | Website:  www.openfoam.com                      |
|    \\/     M anipulation  |                                                 |
\*---------------------------------------------------------------------------*/
FoamFile
{
    version     2.0;
    format      ascii;
    arch        "LSB;label=32;scalar=64";
    class       volScalarField;
    location    "20.00000000";
    object      I-C4H51;
}
// * * * * * * * * * * * * * * * * * * * * * * * * * * * * * * * * * * * * * //

dimensions      [0 0 0 0 0 0 0];

internalField   nonuniform List<scalar> 
3000
(
7.732959493e-24
8.686540713e-24
1.012538574e-23
1.204261081e-23
1.441868268e-23
1.718912882e-23
2.018717921e-23
2.304815463e-23
2.507108756e-23
2.903272469e-23
3.274426118e-23
3.834213079e-23
4.581766323e-23
5.516327006e-23
6.632772481e-23
7.911754426e-23
9.289111235e-23
1.05089331e-22
6.503330321e-23
7.39236804e-23
8.746045665e-23
1.05838827e-22
1.293885523e-22
1.584520699e-22
1.929143568e-22
2.308455478e-22
2.632538494e-22
1.238727526e-22
1.422822753e-22
1.707247859e-22
2.101614552e-22
2.619885034e-22
3.275239023e-22
4.064097462e-22
4.92341007e-22
5.616932487e-22
2.199736548e-22
2.557683323e-22
3.119423222e-22
3.913479395e-22
4.977188428e-22
6.340382159e-22
7.980273516e-22
9.721875348e-22
1.105877652e-21
3.782735944e-22
4.454596849e-22
5.524105602e-22
7.059511132e-22
9.142708392e-22
1.182615178e-21
1.50296746e-21
1.834936424e-21
2.080533139e-21
6.421998713e-22
7.65615896e-22
9.643656809e-22
1.25291412e-21
1.647323939e-21
2.15543453e-21
2.756222168e-21
3.366625175e-21
3.807054877e-21
1.086864236e-21
1.310203894e-21
1.673065441e-21
2.203941403e-21
2.932421372e-21
3.868977737e-21
4.966603041e-21
6.065528924e-21
6.845207545e-21
1.842444711e-21
2.242323449e-21
2.896196237e-21
3.857647514e-21
5.179279792e-21
6.873749161e-21
8.845301571e-21
1.079864249e-20
1.216924139e-20
3.134442775e-21
3.844776004e-21
5.011585782e-21
6.732754053e-21
9.100100728e-21
1.212727203e-20
1.562994193e-20
1.907489592e-20
2.147427343e-20
5.353928547e-21
6.608461736e-21
8.675693871e-21
1.173117455e-20
1.593380732e-20
2.129567713e-20
2.747430213e-20
3.352041795e-20
3.771095138e-20
9.179586339e-21
1.138600048e-20
1.502968022e-20
2.042189468e-20
2.783669781e-20
3.72793961e-20
4.812757307e-20
5.870608446e-20
6.601560311e-20
1.579010389e-20
1.965933648e-20
2.605867695e-20
3.553614623e-20
4.856375391e-20
6.512878581e-20
8.411357442e-20
1.025785343e-19
1.153283519e-19
2.723285119e-20
3.400444929e-20
4.521631035e-20
6.18297738e-20
8.465820022e-20
1.136442205e-19
1.46775597e-19
1.788929572e-19
2.01209484e-19
4.706239998e-20
5.889619077e-20
7.850695367e-20
1.075808469e-19
1.475274724e-19
1.981915503e-19
2.558932716e-19
3.113147736e-19
3.508386037e-19
8.144432479e-20
1.020972948e-19
1.363483331e-19
1.871585672e-19
2.570147716e-19
3.457553488e-19
4.474005416e-19
5.464620944e-19
6.131905092e-19
1.410659302e-19
1.770582258e-19
2.367727651e-19
3.253730376e-19
4.471585064e-19
6.017250568e-19
7.783145063e-19
9.493408778e-19
1.066315114e-18
2.444602697e-19
3.071067481e-19
4.110653437e-19
5.65311996e-19
7.772687576e-19
1.046104745e-18
1.3529287e-18
1.649753003e-18
1.853131235e-18
4.237820065e-19
5.327258736e-19
7.135384214e-19
9.818144101e-19
1.350394542e-18
1.81772132e-18
2.350851195e-18
2.866394837e-18
3.219588972e-18
7.348375363e-19
9.241879101e-19
1.238486937e-18
1.704829518e-18
2.345466702e-18
3.157572907e-18
4.083787563e-18
4.979199967e-18
5.592483395e-18
1.274500756e-18
1.603490203e-18
2.149627208e-18
2.959984809e-18
4.073148078e-18
5.484058319e-18
7.092902982e-18
8.647898573e-18
9.712722809e-18
2.210955496e-18
2.782446411e-18
3.731218725e-18
5.139039237e-18
7.072829783e-18
9.523588361e-18
1.231770062e-17
1.501778131e-17
1.686645725e-17
3.836220414e-18
4.82884399e-18
6.476851792e-18
8.922238177e-18
1.228106315e-17
1.65373523e-17
2.138919754e-17
2.607695766e-17
2.9286217e-17
6.657382819e-18
8.381356954e-18
1.124366078e-17
1.549080666e-17
2.132402749e-17
2.871500572e-17
3.713883562e-17
4.527657103e-17
5.084706453e-17
1.155507508e-17
1.454915042e-17
1.952016257e-17
2.689591201e-17
3.702515829e-17
4.985769016e-17
6.448112159e-17
7.860564695e-17
8.827337485e-17
2.005869027e-17
2.525848818e-17
3.389126217e-17
4.669905652e-17
6.428584985e-17
8.656224814e-17
1.119424011e-16
1.364518609e-16
1.532254493e-16
3.482428893e-17
4.385457085e-17
5.884550439e-17
8.108337207e-17
1.116129785e-16
1.502739358e-16
1.943092515e-16
2.368221288e-16
2.659100761e-16
6.04642201e-17
7.614624475e-17
1.021759782e-16
1.407810406e-16
1.937658206e-16
2.608396512e-16
3.372080622e-16
4.109075335e-16
4.613168987e-16
1.049858827e-16
1.322174194e-16
1.774082669e-16
2.444114045e-16
3.363357276e-16
4.526475074e-16
5.850053344e-16
7.126671031e-16
7.99943026e-16
1.822841886e-16
2.2956431e-16
3.080029695e-16
4.242530291e-16
5.836538397e-16
7.852091711e-16
1.014397568e-15
1.235282125e-15
1.386182503e-15
3.164523209e-16
3.98519188e-16
5.346150752e-16
7.362007021e-16
1.012405988e-15
1.361336939e-15
1.757694065e-15
2.13927611e-15
2.399696319e-15
5.492206287e-16
6.916040214e-16
9.275984361e-16
1.276885531e-15
1.754985203e-15
2.358228123e-15
3.042500099e-15
3.700288471e-15
4.148585013e-15
9.527569497e-16
1.199610462e-15
1.608467348e-15
2.212987928e-15
3.039349367e-15
4.080317359e-15
5.258908546e-15
6.389643163e-15
7.158808151e-15
1.651613942e-15
2.079132849e-15
2.786562571e-15
3.831160611e-15
5.256630345e-15
7.048502299e-15
9.072351537e-15
1.100901243e-14
1.232313179e-14
2.860197719e-15
3.599482257e-15
4.82134164e-15
6.622498885e-15
9.074953849e-15
1.214947907e-14
1.561130951e-14
1.891311881e-14
2.114647048e-14
4.946409542e-15
6.222161182e-15
8.327490092e-15
1.14243518e-14
1.562933886e-14
2.08831462e-14
2.677601682e-14
3.237355315e-14
3.61448791e-14
8.539109234e-15
1.073458967e-14
1.435089737e-14
1.965623276e-14
2.683523529e-14
3.576769811e-14
4.57396723e-14
5.516504285e-14
6.148530978e-14
1.470836659e-14
1.84733837e-14
2.466062483e-14
3.37081937e-14
4.590009883e-14
6.099425603e-14
7.775073611e-14
9.34962345e-14
1.039959704e-13
2.526554955e-14
3.169393359e-14
4.222843315e-14
5.757278238e-14
7.81472215e-14
1.034697093e-13
1.313978204e-13
1.574644973e-13
1.747370188e-13
4.32587981e-14
5.417629456e-14
7.200760725e-14
9.786033966e-14
1.323238119e-13
1.744529901e-13
2.205727253e-13
2.632938576e-13
2.914040252e-13
7.378368072e-14
9.22081269e-14
1.221826953e-13
1.654081416e-13
2.226474417e-13
2.920828338e-13
3.674691823e-13
4.367242041e-13
4.819497394e-13
1.252963906e-13
1.561613952e-13
2.061493466e-13
2.777948551e-13
3.71959693e-13
4.852227985e-13
6.070941052e-13
7.180683845e-13
7.89963761e-13
2.117181133e-13
2.629912133e-13
3.456091577e-13
4.632134807e-13
6.165140311e-13
7.992236213e-13
9.939574952e-13
1.169655755e-12
1.282559413e-12
3.557680113e-13
4.401462912e-13
5.753419209e-13
7.663522438e-13
1.0131413e-12
1.304440109e-12
1.611864546e-12
1.886655474e-12
2.061802516e-12
5.941763954e-13
7.316084628e-13
9.504645471e-13
1.257202211e-12
1.649830948e-12
2.10866208e-12
2.588083406e-12
3.012646193e-12
3.281104351e-12
9.857313696e-13
1.207096076e-12
1.557325279e-12
2.044077626e-12
2.661166667e-12
3.375056589e-12
4.113636655e-12
4.761804217e-12
5.168524891e-12
1.623529268e-12
1.975901165e-12
2.529644093e-12
3.292633514e-12
4.250598208e-12
5.347811057e-12
6.472104811e-12
7.45026146e-12
8.059634644e-12
2.653366853e-12
3.20742076e-12
4.072136252e-12
5.253339754e-12
6.722264781e-12
8.388463907e-12
1.008018686e-11
1.154008908e-11
1.244351604e-11
4.300978815e-12
5.161239289e-12
6.494701079e-12
8.300780578e-12
1.052607078e-11
1.302697289e-11
1.554439806e-11
1.770055443e-11
1.902671059e-11
6.911855015e-12
8.230693683e-12
1.026139843e-11
1.298937213e-11
1.632103087e-11
2.00329797e-11
2.373977643e-11
2.689285425e-11
2.882151071e-11
1.100876869e-11
1.300531028e-11
1.605997841e-11
2.013173532e-11
2.506365303e-11
3.051458441e-11
3.591841504e-11
4.048654679e-11
4.326704564e-11
1.737406318e-11
2.035950212e-11
2.489983578e-11
3.090818127e-11
3.813045945e-11
4.605437703e-11
5.385815952e-11
6.041849496e-11
6.439426047e-11
2.716641263e-11
3.157770568e-11
3.824917944e-11
4.701879685e-11
5.748686498e-11
6.889567478e-11
8.006510708e-11
8.940848662e-11
9.50493139e-11
4.208553141e-11
4.853014273e-11
5.82263978e-11
7.089388693e-11
8.591889776e-11
1.021961444e-10
1.180478607e-10
1.312502139e-10
1.391944943e-10
6.459995992e-11
7.391416737e-11
8.786152624e-11
1.059811082e-10
1.273495749e-10
1.503739713e-10
1.726901879e-10
1.91204417e-10
2.023127639e-10
9.826631271e-11
1.115926445e-10
1.314619745e-10
1.571440416e-10
1.872727947e-10
2.195766837e-10
2.507519599e-10
2.765252632e-10
2.919492789e-10
1.481767047e-10
1.670660804e-10
1.951193733e-10
2.312111186e-10
2.733483084e-10
3.183218983e-10
3.615505055e-10
3.97172679e-10
4.184410331e-10
2.215825361e-10
2.481303281e-10
2.874153668e-10
3.377394378e-10
3.96228074e-10
4.58384324e-10
5.178996195e-10
5.667886584e-10
5.959117222e-10
3.287673823e-10
3.6579885e-10
4.204141538e-10
4.900924571e-10
5.70725704e-10
6.560529561e-10
7.374383948e-10
8.040715148e-10
8.436635828e-10
4.842700448e-10
5.356033623e-10
6.110752519e-10
7.06991109e-10
8.175190019e-10
9.339786849e-10
1.044594431e-09
1.134807666e-09
1.188230242e-09
7.085957697e-10
7.794365474e-10
8.832908419e-10
1.014798717e-09
1.165715167e-09
1.324019465e-09
1.473667053e-09
1.595111147e-09
1.666673872e-09
1.030592166e-09
1.12816119e-09
1.270850331e-09
1.450956617e-09
1.656851869e-09
1.871856604e-09
2.07403189e-09
2.23708447e-09
2.332475765e-09
1.490683288e-09
1.625260511e-09
1.821749058e-09
2.069215643e-09
2.351323897e-09
2.644848723e-09
2.91952186e-09
3.13956853e-09
3.267129324e-09
2.145110349e-09
2.331810351e-09
2.604371701e-09
2.947625482e-09
3.338889503e-09
3.745807576e-09
4.126054427e-09
4.429618285e-09
4.604298992e-09
3.071215005e-09
3.333008278e-09
3.716180565e-09
4.200634684e-09
4.755860137e-09
5.337316639e-09
5.885046308e-09
6.325786139e-09
6.580591414e-09
4.373703411e-09
4.746449067e-09
5.295632704e-09
5.997089768e-09
6.81275327e-09
7.683820722e-09
8.525179421e-09
9.222673308e-09
9.63857262e-09
6.192018773e-09
6.732550271e-09
7.538349436e-09
8.586459433e-09
9.837327215e-09
1.122116662e-08
1.262002614e-08
1.384507404e-08
1.462078249e-08
8.710143832e-09
9.50873365e-09
1.071971894e-08
1.233659007e-08
1.43384569e-08
1.666306176e-08
1.9157973e-08
2.149870295e-08
2.309326492e-08
1.217352432e-08
1.337243639e-08
1.522939717e-08
1.778847728e-08
2.109528181e-08
2.514571923e-08
2.976965431e-08
3.440499091e-08
3.778169932e-08
1.692454725e-08
1.874506676e-08
2.16298994e-08
2.5737677e-08
3.127164964e-08
3.838619835e-08
4.69386546e-08
5.596726213e-08
6.288844984e-08
2.347783471e-08
2.62592323e-08
3.076100689e-08
3.735668616e-08
4.654388335e-08
5.877177903e-08
7.395282376e-08
9.04240505e-08
1.033411105e-07
3.266540899e-08
3.691936949e-08
4.391639699e-08
5.436843852e-08
6.920105546e-08
8.919827281e-08
1.140410186e-07
1.403771595e-07
1.591377271e-07
4.58775865e-08
5.235440706e-08
6.309381327e-08
7.92340839e-08
1.021004669e-07
1.323708947e-07
1.679985014e-07
2.001938772e-07
2.164475072e-07
6.5381657e-08
7.51128347e-08
9.120523898e-08
1.151239289e-07
1.480415694e-07
1.888567585e-07
2.295971131e-07
2.594538077e-07
2.759813045e-07
9.455832909e-08
1.087503881e-07
1.318157677e-07
1.649109988e-07
2.070462622e-07
2.507091431e-07
2.893710184e-07
3.2035567e-07
3.388361044e-07
1.374911059e-07
1.569274723e-07
1.871416117e-07
2.274047392e-07
2.683428045e-07
3.102630074e-07
3.502474707e-07
3.840283142e-07
4.051897245e-07
1.960780869e-07
2.192141651e-07
2.496719941e-07
2.864111802e-07
3.27395312e-07
3.70842324e-07
4.13551763e-07
4.505219294e-07
4.74373043e-07
2.582281632e-07
2.790998869e-07
3.087149129e-07
3.45651254e-07
3.881348593e-07
4.33868431e-07
4.793472235e-07
5.190624542e-07
5.451176926e-07
3.181880655e-07
3.390752378e-07
3.693230995e-07
4.074408894e-07
4.516288325e-07
4.993170936e-07
5.467912635e-07
5.88296495e-07
6.157611638e-07
3.805378577e-07
4.019414979e-07
4.330174265e-07
4.721524043e-07
5.174557982e-07
5.661559963e-07
6.144116965e-07
6.564795846e-07
6.844038129e-07
4.462218063e-07
4.67950793e-07
4.993643594e-07
5.388648137e-07
5.842935937e-07
6.328445099e-07
6.80366345e-07
7.216488718e-07
7.490463768e-07
5.144480373e-07
5.360735423e-07
5.672222538e-07
6.059701783e-07
6.502321312e-07
6.971030127e-07
7.425477562e-07
7.817695513e-07
8.077241417e-07
5.834956665e-07
6.044301471e-07
6.344269082e-07
6.714995207e-07
7.132947288e-07
7.569423881e-07
7.989460874e-07
8.349383688e-07
8.586559373e-07
6.511867862e-07
6.707968633e-07
6.987108779e-07
7.328972501e-07
7.709893756e-07
8.102836275e-07
8.476951611e-07
8.794734481e-07
9.003044386e-07
7.151660554e-07
7.328544233e-07
7.578411948e-07
7.881249223e-07
8.214428178e-07
8.553365048e-07
8.871517281e-07
9.138056083e-07
9.3107092e-07
7.731142391e-07
7.883703955e-07
8.097251174e-07
8.352783265e-07
8.629337843e-07
8.904861322e-07
9.156069586e-07
9.355964695e-07
9.465748361e-07
8.229292398e-07
8.353550224e-07
8.525267516e-07
8.726832364e-07
8.938730937e-07
9.140012104e-07
9.303928921e-07
9.420443121e-07
9.487758025e-07
8.628046124e-07
8.720876146e-07
8.845856781e-07
8.986493846e-07
9.122366993e-07
9.22940358e-07
9.313673649e-07
9.375511616e-07
9.412776411e-07
8.909335251e-07
8.967133673e-07
9.036455733e-07
9.098748259e-07
9.152705391e-07
9.193492354e-07
9.222733717e-07
9.243337335e-07
9.256712602e-07
9.033962638e-07
9.049819543e-07
9.065478649e-07
9.074294707e-07
9.074157241e-07
9.065292754e-07
9.051506933e-07
9.038703509e-07
9.032269308e-07
9.014742451e-07
9.003691983e-07
8.983551205e-07
8.952471807e-07
8.911051783e-07
8.862742289e-07
8.814095989e-07
8.773887811e-07
8.751060065e-07
8.893761687e-07
8.862776746e-07
8.815541406e-07
8.753217879e-07
8.679095457e-07
8.599240409e-07
8.522598179e-07
8.460328545e-07
8.424263e-07
8.692245553e-07
8.645866356e-07
8.577594897e-07
8.490864829e-07
8.391201688e-07
8.286762018e-07
8.188367584e-07
8.108988167e-07
8.062643801e-07
8.425460427e-07
8.36740027e-07
8.283208698e-07
8.178087751e-07
8.059314033e-07
7.936626392e-07
7.822203306e-07
7.7302693e-07
7.676375698e-07
8.106964413e-07
8.04050269e-07
7.944946995e-07
7.826837448e-07
7.694744561e-07
7.559517963e-07
7.434217139e-07
7.333823707e-07
7.274835193e-07
7.749532309e-07
7.67757242e-07
7.574685747e-07
7.448364839e-07
7.308060385e-07
7.165312961e-07
7.033647508e-07
6.928375149e-07
6.866436737e-07
7.365127046e-07
7.290181966e-07
7.183446409e-07
7.05302446e-07
6.908885209e-07
6.762901382e-07
6.628709972e-07
6.521596602e-07
6.45852679e-07
6.964669129e-07
6.888848856e-07
6.781178755e-07
6.65008104e-07
6.505734536e-07
6.360039847e-07
6.22647111e-07
6.120004931e-07
6.057294699e-07
6.557800099e-07
6.482806712e-07
6.376545124e-07
6.247513955e-07
6.105852793e-07
5.96325378e-07
5.832804024e-07
5.728953023e-07
5.667781264e-07
6.15272065e-07
6.079877147e-07
5.976838209e-07
5.851986106e-07
5.715225636e-07
5.577858023e-07
5.452418237e-07
5.352669193e-07
5.293926677e-07
5.756171952e-07
5.686455314e-07
5.587972051e-07
5.468841119e-07
5.338586275e-07
5.207985353e-07
5.088906215e-07
4.994317108e-07
4.938637872e-07
5.373450781e-07
5.30753458e-07
5.214519429e-07
5.102155016e-07
4.979481382e-07
4.85666393e-07
4.744830773e-07
4.656090737e-07
4.60388789e-07
5.008494393e-07
4.946796019e-07
4.85980726e-07
4.754837835e-07
4.640378359e-07
4.52592901e-07
4.421840236e-07
4.339332019e-07
4.290835047e-07
4.664015199e-07
4.606743678e-07
4.526052251e-07
4.4287691e-07
4.322799892e-07
4.216955948e-07
4.120799657e-07
4.044660532e-07
3.9999517e-07
4.341666104e-07
4.288867425e-07
4.214519985e-07
4.124952014e-07
4.027472435e-07
3.93020267e-07
3.841927622e-07
3.772105754e-07
3.731153844e-07
4.042219138e-07
3.993817017e-07
3.925692474e-07
3.843673031e-07
3.754476925e-07
3.665551518e-07
3.58493005e-07
3.521234328e-07
3.483924443e-07
3.765743005e-07
3.721573929e-07
3.65943197e-07
3.584656121e-07
3.503392948e-07
3.422442891e-07
3.349124012e-07
3.291266357e-07
3.257425492e-07
3.511769168e-07
3.471611511e-07
3.415132722e-07
3.347204193e-07
3.273428383e-07
3.199994197e-07
3.1335476e-07
3.081177895e-07
3.050595815e-07
3.279438875e-07
3.243035844e-07
3.191853341e-07
3.130321794e-07
3.063532612e-07
2.997103059e-07
2.937053713e-07
2.889787235e-07
2.862232996e-07
3.067627793e-07
3.034705138e-07
2.988429007e-07
2.93281871e-07
2.87249053e-07
2.812532101e-07
2.758386622e-07
2.715824959e-07
2.691059518e-07
2.875047957e-07
2.845327061e-07
2.803562381e-07
2.753393296e-07
2.698997854e-07
2.644976389e-07
2.596242359e-07
2.557988729e-07
2.535774171e-07
2.700327815e-07
2.673534966e-07
2.635894539e-07
2.590697175e-07
2.5417192e-07
2.493115043e-07
2.449314506e-07
2.414984434e-07
2.39509041e-07
2.542072698e-07
2.517945307e-07
2.484058168e-07
2.443383487e-07
2.399331075e-07
2.355649073e-07
2.316327413e-07
2.285555732e-07
2.267763669e-07
2.398908611e-07
2.377199082e-07
2.346715776e-07
2.310141275e-07
2.270552221e-07
2.231327778e-07
2.196059039e-07
2.168504055e-07
2.152609658e-07
2.269512393e-07
2.249990241e-07
2.222585677e-07
2.189718648e-07
2.154163768e-07
2.118965963e-07
2.087355533e-07
2.062701092e-07
2.048515567e-07
2.152631113e-07
2.13508383e-07
2.110458407e-07
2.080937154e-07
2.049021458e-07
2.017454057e-07
1.98913947e-07
1.967095523e-07
1.954445899e-07
2.047093297e-07
2.031326336e-07
2.009205866e-07
1.982699524e-07
1.954061903e-07
1.92576293e-07
1.900413374e-07
1.880715516e-07
1.869444347e-07
1.951814106e-07
1.9376503e-07
1.917785147e-07
1.89399258e-07
1.868304527e-07
1.8429449e-07
1.820259889e-07
1.802668242e-07
1.792632903e-07
1.865796249e-07
1.853074879e-07
1.835238616e-07
1.813886755e-07
1.790850498e-07
1.768132102e-07
1.747839657e-07
1.732137357e-07
1.723209116e-07
1.788127996e-07
1.776703659e-07
1.760691465e-07
1.741533352e-07
1.720879686e-07
1.70053315e-07
1.682387723e-07
1.668379215e-07
1.660442179e-07
1.717979335e-07
1.707720736e-07
1.693347685e-07
1.676160392e-07
1.657646389e-07
1.639428767e-07
1.623209077e-07
1.610718343e-07
1.603668377e-07
1.654597032e-07
1.645385777e-07
1.632485125e-07
1.61706768e-07
1.60047441e-07
1.584166871e-07
1.569673766e-07
1.558542588e-07
1.552286243e-07
1.597299169e-07
1.589028586e-07
1.577450118e-07
1.563621508e-07
1.54875185e-07
1.534157473e-07
1.521211892e-07
1.511298182e-07
1.505751682e-07
1.545469502e-07
1.538043544e-07
1.527652021e-07
1.515249318e-07
1.501925909e-07
1.488867612e-07
1.47730867e-07
1.468484919e-07
1.463573211e-07
1.498551918e-07
1.491884142e-07
1.482557869e-07
1.471434496e-07
1.459497838e-07
1.44781647e-07
1.437499696e-07
1.429651546e-07
1.425307427e-07
1.456045133e-07
1.45005777e-07
1.441687281e-07
1.431711429e-07
1.421018156e-07
1.410570751e-07
1.401366484e-07
1.394391424e-07
1.390554752e-07
1.417497696e-07
1.412120805e-07
1.404607674e-07
1.395660866e-07
1.386082174e-07
1.376740376e-07
1.368532308e-07
1.362338489e-07
1.358955463e-07
1.38250336e-07
1.37767407e-07
1.37092984e-07
1.362905636e-07
1.354325868e-07
1.345974495e-07
1.338658348e-07
1.33316352e-07
1.330186032e-07
1.350696847e-07
1.346358667e-07
1.340303879e-07
1.333106707e-07
1.325422063e-07
1.317957818e-07
1.311440155e-07
1.306570701e-07
1.303955756e-07
1.321749959e-07
1.317852161e-07
1.312415481e-07
1.305959571e-07
1.299076953e-07
1.29240725e-07
1.286604399e-07
1.282294467e-07
1.280003655e-07
1.295368033e-07
1.291865088e-07
1.286982513e-07
1.281190946e-07
1.275026907e-07
1.269068819e-07
1.263905897e-07
1.260096614e-07
1.258095642e-07
1.271286708e-07
1.268137783e-07
1.263751926e-07
1.258555763e-07
1.253035559e-07
1.247714855e-07
1.243124892e-07
1.239763655e-07
1.238021915e-07
1.249268983e-07
1.246437479e-07
1.242496922e-07
1.237834424e-07
1.232891148e-07
1.228141429e-07
1.224064562e-07
1.221104397e-07
1.219594587e-07
1.229102541e-07
1.226555676e-07
1.223014382e-07
1.218830289e-07
1.214404094e-07
1.210166e-07
1.206548755e-07
1.203947733e-07
1.202645508e-07
1.210597305e-07
1.208305741e-07
1.205122513e-07
1.2013674e-07
1.197404781e-07
1.193625278e-07
1.190419909e-07
1.188140624e-07
1.187024281e-07
1.193583223e-07
1.191520713e-07
1.188658712e-07
1.185288396e-07
1.181741547e-07
1.178373273e-07
1.175537169e-07
1.173546257e-07
1.172596456e-07
1.177908243e-07
1.176051321e-07
1.173477618e-07
1.170452622e-07
1.167278846e-07
1.164279523e-07
1.161774665e-07
1.160042376e-07
1.159241882e-07
1.163436471e-07
1.161764168e-07
1.159449342e-07
1.156734406e-07
1.153895583e-07
1.151227478e-07
1.149019952e-07
1.147519762e-07
1.146853217e-07
1.150046506e-07
1.148540086e-07
1.146457858e-07
1.144021496e-07
1.141483597e-07
1.139113042e-07
1.137172596e-07
1.135880855e-07
1.13533457e-07
1.137629917e-07
1.136272647e-07
1.134399549e-07
1.132213649e-07
1.129946299e-07
1.127843248e-07
1.126142897e-07
1.125038513e-07
1.124600284e-07
1.126089878e-07
1.124866809e-07
1.123181884e-07
1.121221344e-07
1.119197428e-07
1.117335068e-07
1.115850732e-07
1.114914888e-07
1.114573831e-07
1.115339922e-07
1.114237704e-07
1.112722231e-07
1.110964636e-07
1.109159942e-07
1.107514334e-07
1.106224518e-07
1.105440421e-07
1.105186822e-07
1.105302829e-07
1.10430953e-07
1.102946785e-07
1.101372109e-07
1.099765013e-07
1.098314775e-07
1.097200283e-07
1.096552936e-07
1.096378119e-07
1.095909615e-07
1.095014573e-07
1.093789607e-07
1.092379954e-07
1.090951127e-07
1.089677152e-07
1.088720829e-07
1.088196827e-07
1.08809304e-07
1.087098637e-07
1.086292315e-07
1.085191761e-07
1.083931125e-07
1.082663285e-07
1.081548485e-07
1.080734988e-07
1.080322341e-07
1.080282645e-07
1.078814779e-07
1.078088644e-07
1.07710054e-07
1.0759746e-07
1.074852279e-07
1.073881361e-07
1.073196954e-07
1.072884928e-07
1.072903111e-07
1.07100874e-07
1.070355149e-07
1.069468781e-07
1.06846471e-07
1.067474054e-07
1.066633316e-07
1.066065694e-07
1.065844667e-07
1.065915158e-07
1.063636381e-07
1.063048486e-07
1.062254252e-07
1.061360551e-07
1.060489139e-07
1.059766297e-07
1.05930442e-07
1.05916576e-07
1.059283558e-07
1.056658162e-07
1.056129817e-07
1.055419103e-07
1.054625455e-07
1.05386214e-07
1.053246164e-07
1.052880122e-07
1.052816071e-07
1.052976682e-07
1.050038626e-07
1.049564314e-07
1.048929383e-07
1.048226521e-07
1.047561289e-07
1.047042269e-07
1.04676315e-07
1.046766734e-07
1.046966112e-07
1.043745956e-07
1.043320717e-07
1.042754613e-07
1.042134204e-07
1.041558047e-07
1.041127067e-07
1.04092685e-07
1.040991787e-07
1.041226288e-07
1.037751567e-07
1.037370938e-07
1.036867401e-07
1.036321944e-07
1.035826752e-07
1.035475779e-07
1.035347237e-07
1.035467863e-07
1.035734197e-07
1.032029756e-07
1.031689715e-07
1.031243105e-07
1.03076584e-07
1.030344301e-07
1.030066092e-07
1.030002704e-07
1.030173906e-07
1.030469102e-07
1.026557386e-07
1.026254308e-07
1.025859536e-07
1.025444363e-07
1.02508988e-07
1.024877895e-07
1.024873769e-07
1.025090924e-07
1.025412293e-07
1.021313609e-07
1.021044218e-07
1.020696691e-07
1.020338101e-07
1.020044711e-07
1.019893038e-07
1.019942847e-07
1.020201771e-07
1.020546879e-07
1.016279619e-07
1.016040956e-07
1.015736519e-07
1.01542953e-07
1.015191839e-07
1.015095128e-07
1.015194047e-07
1.01549095e-07
1.015857588e-07
1.011438434e-07
1.01122782e-07
1.010962714e-07
1.010702816e-07
1.010515939e-07
1.010469343e-07
1.010612998e-07
1.010944441e-07
1.011330604e-07
1.006774702e-07
1.006589712e-07
1.00636053e-07
1.006143634e-07
1.006003144e-07
1.006002266e-07
1.006186688e-07
1.006549548e-07
1.006953413e-07
1.002274532e-07
1.002112965e-07
1.001916618e-07
1.001739016e-07
1.001640894e-07
1.001681741e-07
1.001903324e-07
1.002294761e-07
1.00271467e-07
9.979253386e-08
9.977851974e-08
9.976188804e-08
9.97477205e-08
9.974177981e-08
9.974967424e-08
9.977522065e-08
9.981696379e-08
9.986040793e-08
9.937157106e-08
9.935951805e-08
9.934563441e-08
9.933475334e-08
9.933235219e-08
9.934372623e-08
9.937236223e-08
9.941646932e-08
9.946122899e-08
9.896352893e-08
9.895327198e-08
9.894190451e-08
9.893403134e-08
9.893486751e-08
9.894942054e-08
9.898087413e-08
9.902713055e-08
9.907308003e-08
9.856746629e-08
9.855885516e-08
9.854979274e-08
9.854467378e-08
9.854847197e-08
9.856593002e-08
9.859995315e-08
9.864816305e-08
9.869518754e-08
9.818252719e-08
9.817542501e-08
9.816847528e-08
9.816587933e-08
9.817238853e-08
9.819250173e-08
9.822886806e-08
9.827885258e-08
9.832684714e-08
9.780793255e-08
9.780221455e-08
9.779720211e-08
9.779691831e-08
9.780590953e-08
9.782844981e-08
9.786695265e-08
9.791854836e-08
9.796741702e-08
9.744297272e-08
9.743852508e-08
9.743528991e-08
9.743712583e-08
9.744839003e-08
9.747314913e-08
9.751359961e-08
9.75666571e-08
9.761631206e-08
9.708700092e-08
9.708371976e-08
9.708211578e-08
9.708589575e-08
9.709924203e-08
9.712602968e-08
9.716825519e-08
9.72226378e-08
9.727299869e-08
9.673942748e-08
9.673721796e-08
9.673711182e-08
9.674267539e-08
9.675792937e-08
9.678657169e-08
9.683041442e-08
9.688599713e-08
9.693699037e-08
9.639971482e-08
9.639849036e-08
9.639976027e-08
9.640696093e-08
9.642396333e-08
9.645430146e-08
9.649961713e-08
9.65562856e-08
9.660784381e-08
9.606737319e-08
9.606705478e-08
9.60695896e-08
9.607829362e-08
9.6096899e-08
9.612878784e-08
9.617544464e-08
9.62330943e-08
9.628515582e-08
9.574195716e-08
9.574247277e-08
9.574617119e-08
9.575625662e-08
9.577633237e-08
9.580963955e-08
9.585751714e-08
9.591605244e-08
9.596856086e-08
9.542306297e-08
9.542434706e-08
9.542911689e-08
9.54404728e-08
9.546189822e-08
9.549650323e-08
9.554549199e-08
9.560482577e-08
9.565772952e-08
9.511032673e-08
9.511231991e-08
9.51180776e-08
9.513060342e-08
9.515326912e-08
9.518906266e-08
9.523906304e-08
9.529911604e-08
9.535236805e-08
9.480342379e-08
9.480607257e-08
9.48127429e-08
9.482634811e-08
9.485015555e-08
9.488703912e-08
9.493796128e-08
9.499866171e-08
9.505221917e-08
9.450206946e-08
9.45053262e-08
9.451284219e-08
9.452744619e-08
9.455230766e-08
9.459019349e-08
9.464195715e-08
9.470324055e-08
9.475706469e-08
9.420602136e-08
9.420984442e-08
9.42181476e-08
9.423368006e-08
9.425951899e-08
9.429833034e-08
9.435086504e-08
9.441267441e-08
9.446673048e-08
9.391508393e-08
9.391943815e-08
9.392847916e-08
9.394488084e-08
9.397163276e-08
9.401130487e-08
9.406455078e-08
9.412683705e-08
9.418109447e-08
9.362911559e-08
9.36339731e-08
9.364371298e-08
9.366093723e-08
9.368855147e-08
9.372903331e-08
9.378294273e-08
9.38456659e-08
9.390009876e-08
9.334803926e-08
9.335338084e-08
9.336379294e-08
9.338180819e-08
9.341025066e-08
9.345150775e-08
9.350604777e-08
9.356917885e-08
9.362376695e-08
9.307185695e-08
9.307767403e-08
9.3088747e-08
9.310754044e-08
9.313679784e-08
9.317881666e-08
9.323397318e-08
9.329749742e-08
9.335222795e-08
9.280066933e-08
9.280696692e-08
9.281870889e-08
9.283829179e-08
9.286837772e-08
9.291117208e-08
9.296695587e-08
9.303087761e-08
9.308574805e-08
9.253470128e-08
9.254150192e-08
9.255394633e-08
9.257436144e-08
9.260532485e-08
9.26489449e-08
9.270540024e-08
9.276975009e-08
9.282477248e-08
9.227433418e-08
9.228168332e-08
9.229489677e-08
9.231622822e-08
9.234816496e-08
9.239270945e-08
9.244992607e-08
9.2514771e-08
9.256997821e-08
9.202014607e-08
9.202811901e-08
9.204221149e-08
9.206459784e-08
9.209766583e-08
9.214329844e-08
9.220142756e-08
9.226688467e-08
9.23223392e-08
9.177296021e-08
9.178167102e-08
9.179680898e-08
9.182045994e-08
9.185489861e-08
9.190186902e-08
9.196114427e-08
9.202739902e-08
9.208320487e-08
9.153390269e-08
9.154351532e-08
9.155993798e-08
9.158515521e-08
9.162130992e-08
9.166998035e-08
9.173074436e-08
9.179807402e-08
9.185439215e-08
9.130446924e-08
9.131521097e-08
9.133325019e-08
9.136045269e-08
9.139880461e-08
9.144968244e-08
9.151241962e-08
9.158122253e-08
9.163829056e-08
9.108660097e-08
9.109877846e-08
9.111888228e-08
9.114863671e-08
9.118983837e-08
9.124361513e-08
9.130899129e-08
9.137982239e-08
9.143797875e-08
9.088276814e-08
9.089678603e-08
9.091954613e-08
9.09526019e-08
9.099751864e-08
9.10551156e-08
9.112402428e-08
9.119763716e-08
9.125735002e-08
9.069606069e-08
9.071244269e-08
9.073862542e-08
9.077595454e-08
9.082571154e-08
9.088833152e-08
9.096194711e-08
9.103934237e-08
9.110124321e-08
9.053028334e-08
9.054969554e-08
9.058027623e-08
9.062311736e-08
9.067915164e-08
9.074833653e-08
9.082817327e-08
9.09106529e-08
9.097557466e-08
9.03900526e-08
9.041332854e-08
9.044952843e-08
9.049943423e-08
9.056355071e-08
9.064124353e-08
9.072921973e-08
9.081844647e-08
9.088746574e-08
9.028089231e-08
9.030905926e-08
9.03523841e-08
9.041127081e-08
9.048570096e-08
9.057431117e-08
9.067281709e-08
9.077087799e-08
9.084536066e-08
9.020932395e-08
9.024362949e-08
9.029590869e-08
9.036610646e-08
9.045356808e-08
9.055603833e-08
9.066800614e-08
9.077747897e-08
9.085912884e-08
9.018294748e-08
9.022488552e-08
9.02883105e-08
9.037261268e-08
9.047636872e-08
9.059624118e-08
9.072521556e-08
9.084923683e-08
9.094014655e-08
9.021050836e-08
9.026184361e-08
9.033900378e-08
9.044071346e-08
9.056462794e-08
9.070610825e-08
9.085631568e-08
9.099864943e-08
9.110135355e-08
9.030194641e-08
9.036473608e-08
9.045865101e-08
9.058162289e-08
9.073021199e-08
9.089822885e-08
9.10746444e-08
9.123975105e-08
9.135728135e-08
9.046842237e-08
9.054503413e-08
9.065918032e-08
9.080785617e-08
9.098633256e-08
9.11865917e-08
9.139500235e-08
9.158810752e-08
9.17240513e-08
9.072231853e-08
9.081544368e-08
9.095377466e-08
9.113321081e-08
9.134751995e-08
9.15865512e-08
9.18336155e-08
9.206077963e-08
9.221934241e-08
9.107721048e-08
9.118987158e-08
9.135683015e-08
9.157271593e-08
9.182956335e-08
9.211476065e-08
9.240806521e-08
9.267625564e-08
9.286233032e-08
9.154780784e-08
9.168336017e-08
9.18838823e-08
9.214254884e-08
9.244941819e-08
9.278907294e-08
9.313718736e-08
9.34543555e-08
9.367360109e-08
9.214986306e-08
9.231198978e-08
9.255149985e-08
9.28599194e-08
9.322508203e-08
9.362841137e-08
9.404094417e-08
9.441611139e-08
9.467504501e-08
9.290004857e-08
9.309274978e-08
9.337714784e-08
9.374292466e-08
9.417544235e-08
9.465261506e-08
9.514027439e-08
9.558363139e-08
9.588973782e-08
9.38158041e-08
9.404338073e-08
9.437902313e-08