/*--------------------------------*- C++ -*----------------------------------*\
| =========                 |                                                 |
| \\      /  F ield         | OpenFOAM: The Open Source CFD Toolbox           |
|  \\    /   O peration     | Version:  2212                                  |
|   \\  /    A nd           | Website:  www.openfoam.com                      |
|    \\/     M anipulation  |                                                 |
\*---------------------------------------------------------------------------*/
FoamFile
{
    version     2.0;
    format      ascii;
    arch        "LSB;label=32;scalar=64";
    class       volScalarField;
    location    "20.00000000";
    object      I-C4H3_0;
}
// * * * * * * * * * * * * * * * * * * * * * * * * * * * * * * * * * * * * * //

dimensions      [0 0 0 0 0 0 0];

internalField   nonuniform List<scalar> 
3000
(
1.82459374e-22
2.049591649e-22
2.389087645e-22
2.841457149e-22
3.402090681e-22
4.055775317e-22
4.763161558e-22
5.438204202e-22
5.915511738e-22
6.850277567e-22
7.726015717e-22
9.046833965e-22
1.081068486e-21
1.301577526e-21
1.565001573e-21
1.866775349e-21
2.191760271e-21
2.479575231e-21
1.534461735e-21
1.744230279e-21
2.063630412e-21
2.497267299e-21
3.052920952e-21
3.73867052e-21
4.551801898e-21
5.44678087e-21
6.211448731e-21
2.922778436e-21
3.357151065e-21
4.028251535e-21
4.958757824e-21
6.181612499e-21
7.727911945e-21
9.589211269e-21
1.161674552e-20
1.325310163e-20
5.190278585e-21
6.034853912e-21
7.360278575e-21
9.2338521e-21
1.174366901e-20
1.49601168e-20
1.882943015e-20
2.293873009e-20
2.609314385e-20
8.925365256e-21
1.051062174e-20
1.303412876e-20
1.665691974e-20
2.157222629e-20
2.790381588e-20
3.546253738e-20
4.32953598e-20
4.90902288e-20
1.515270821e-20
1.806471239e-20
2.275421918e-20
2.956252911e-20
3.886864434e-20
5.08575379e-20
6.5033156e-20
7.943565332e-20
8.982762038e-20
2.564457464e-20
3.091428154e-20
3.947601241e-20
5.200204973e-20
6.919056158e-20
9.128864453e-20
1.171871545e-19
1.431163476e-19
1.615128837e-19
4.347252054e-20
5.290767011e-20
6.833581161e-20
9.10212655e-20
1.222051818e-19
1.621861722e-19
2.087049097e-19
2.547939189e-19
2.871331261e-19
7.395724572e-20
9.071755115e-20
1.182483952e-19
1.588592763e-19
2.147166521e-19
2.861424695e-19
3.687875397e-19
4.500707279e-19
5.066836383e-19
1.263260025e-19
1.559266165e-19
2.047027424e-19
2.767963948e-19
3.759568053e-19
5.024690149e-19
6.482521747e-19
7.909087068e-19
8.897831637e-19
2.165922405e-19
2.686522491e-19
3.546242146e-19
4.818523578e-19
6.56802717e-19
8.796002393e-19
1.135559415e-18
1.385156207e-18
1.557621314e-18
3.72566972e-19
4.638607573e-19
6.148517797e-19
8.384701901e-19
1.14585235e-18
1.536698451e-18
1.984640628e-18
2.420316618e-18
2.721142222e-18
6.42557863e-19
8.023323963e-19
1.066873787e-18
1.458863983e-18
1.997493906e-18
2.681416646e-18
3.463155646e-18
4.220883084e-18
4.747516357e-18
1.110435141e-18
1.389651548e-18
1.852364078e-18
2.538357272e-18
3.480894907e-18
4.676319212e-18
6.037620136e-18
7.343290033e-18
8.277870641e-18
1.921675643e-18
2.408980384e-18
3.217130356e-18
4.415992826e-18
6.0642391e-18
8.15805802e-18
1.055654567e-17
1.289585247e-17
1.446832642e-17
3.328445875e-18
4.177681848e-18
5.586643149e-18
7.677163281e-18
1.055068761e-17
1.419766993e-17
1.836427634e-17
2.239976021e-17
2.515964672e-17
5.768031768e-18
7.246172719e-18
9.699071442e-18
1.333851576e-17
1.833963042e-17
2.468280889e-17
3.192230374e-17
3.892586232e-17
4.372457042e-17
9.999119689e-18
1.256964584e-17
1.683591046e-17
2.316587126e-17
3.186250454e-17
4.288906132e-17
5.546823715e-17
6.763246313e-17
7.596606188e-17
1.733845746e-17
2.180617081e-17
2.92220416e-17
4.022537215e-17
5.534117436e-17
7.45027782e-17
9.635676314e-17
1.174839682e-16
1.319543549e-16
3.007177908e-17
3.783426785e-17
5.072034156e-17
6.984068532e-17
9.610571092e-17
1.293960579e-16
1.673566544e-16
2.040466834e-16
2.291711475e-16
5.216737283e-17
6.565166881e-17
8.803789781e-17
1.212553421e-16
1.668830179e-16
2.247085226e-16
2.906354356e-16
3.54343678e-16
3.979630759e-16
9.051540259e-17
1.13936298e-16
1.528209457e-16
2.105196935e-16
2.897709698e-16
3.901978586e-16
5.046768564e-16
6.152842745e-16
6.910065555e-16
1.570805639e-16
1.977576312e-16
2.652935199e-16
3.655046734e-16
5.031391693e-16
6.775288556e-16
8.762886132e-16
1.068297987e-15
1.199733443e-15
2.726413258e-16
3.432863539e-16
4.605770869e-16
6.346074507e-16
8.736064037e-16
1.176389214e-15
1.521428188e-15
1.854695501e-15
2.082804949e-15
4.7328363e-16
5.95972548e-16
7.996623285e-16
1.101861459e-15
1.516820776e-15
2.04243103e-15
2.64127418e-15
3.219573375e-15
3.615345163e-15
8.216770796e-16
1.034746035e-15
1.388456203e-15
1.913157334e-15
2.633501527e-15
3.545704433e-15
4.584714986e-15
5.587803692e-15
6.274132008e-15
1.426649818e-15
1.796666242e-15
2.410836223e-15
3.32172031e-15
4.571892934e-15
6.154495819e-15
7.95640373e-15
9.695338164e-15
1.0884744e-14
2.477136074e-15
3.119662549e-15
4.185937863e-15
5.766872806e-15
7.935821551e-15
1.068019077e-14
1.380316543e-14
1.681533687e-14
1.88746068e-14
4.300985833e-15
5.416557506e-15
7.267312996e-15
1.001022611e-14
1.377127845e-14
1.852696396e-14
2.393464981e-14
2.9146407e-14
3.270689193e-14
7.466677365e-15
9.403040395e-15
1.261421493e-14
1.737061579e-14
2.38876627e-14
3.212066682e-14
4.147268826e-14
5.047609242e-14
5.66206908e-14
1.295883866e-14
1.631836712e-14
2.188664221e-14
3.012805109e-14
4.140878429e-14
5.564226383e-14
7.178761803e-14
8.730809282e-14
9.788562133e-14
2.24802734e-14
2.830477006e-14
3.795172742e-14
5.221535775e-14
7.171330844e-14
9.627488544e-14
1.240836709e-13
1.507632825e-13
1.689116819e-13
3.896981525e-14
4.905710709e-14
6.57488808e-14
9.039612133e-14
1.240300041e-13
1.663091198e-13
2.140617195e-13
2.597571127e-13
2.907636781e-13
6.748641963e-14
8.49298206e-14
1.13759556e-13
1.562577938e-13
2.141233583e-13
2.866666217e-13
3.683483146e-13
4.462543103e-13
4.989501144e-13
1.167108414e-13
1.468122027e-13
1.964874214e-13
2.695578142e-13
3.687743562e-13
4.927377275e-13
6.317797275e-13
7.63853312e-13
8.528375652e-13
2.014813692e-13
2.532838216e-13
3.386107044e-13
4.637901578e-13
6.331786908e-13
8.4393998e-13
1.079228415e-12
1.301619718e-12
1.450746233e-12
3.470472016e-13
4.358831835e-13
5.818716824e-13
7.95349658e-13
1.083018163e-12
1.439165112e-12
1.834534365e-12
2.206049434e-12
2.453790817e-12
5.961498828e-13
7.478289625e-13
9.963924279e-13
1.358444698e-12
1.843901072e-12
2.44138752e-12
3.10035339e-12
3.715398516e-12
4.122945192e-12
1.02071609e-12
1.278318523e-12
1.699054425e-12
2.309057373e-12
3.122231846e-12
4.116279145e-12
5.204483618e-12
6.21249751e-12
6.875763551e-12
1.740990022e-12
2.1757265e-12
2.882994112e-12
3.902921749e-12
5.253510896e-12
6.891870083e-12
8.670643607e-12
1.03047471e-11
1.137186659e-11
2.956529756e-12
3.684821401e-12
4.864336199e-12
6.554878171e-12
8.776779565e-12
1.144931754e-11
1.432497363e-11
1.694351092e-11
1.863995409e-11
4.995885787e-12
6.20575889e-12
8.155261115e-12
1.093031667e-11
1.454767399e-11
1.885898116e-11
2.345402913e-11
2.759992312e-11
3.026409471e-11
8.395299917e-12
1.038642269e-11
1.357670783e-11
1.808407909e-11
2.390769348e-11
3.078164869e-11
3.803617638e-11
4.452069362e-11
4.86538717e-11
1.402183171e-11
1.726508797e-11
2.242987393e-11
2.966859775e-11
3.893432171e-11
4.976247194e-11
6.10767038e-11
7.10964861e-11
7.743231323e-11
2.326346941e-11
2.848791421e-11
3.675375252e-11
4.824182228e-11
6.280625389e-11
7.965573388e-11
9.708847107e-11
1.1238775e-10
1.219883238e-10
3.831867423e-11
4.663612498e-11
5.970698928e-11
7.771746753e-11
1.003311282e-10
1.262330167e-10
1.527756532e-10
1.75869691e-10
1.902577733e-10
6.263128101e-11
7.571180589e-11
9.612736502e-11
1.24016446e-10
1.587011069e-10
1.980470647e-10
2.37999579e-10
2.724809169e-10
2.938210905e-10
1.015348458e-10
1.218502752e-10
1.53342587e-10
1.960005697e-10
2.485660919e-10
3.076504565e-10
3.671347558e-10
4.180912302e-10
4.49437264e-10
1.631949413e-10
1.943526565e-10
2.423336941e-10
3.067997875e-10
3.855475359e-10
4.733045388e-10
5.609625015e-10
6.355458652e-10
6.811774812e-10
2.599707815e-10
3.071670197e-10
3.79389855e-10
4.75685163e-10
5.923607007e-10
7.213631201e-10
8.493027235e-10
9.57499996e-10
1.023379923e-09
4.103621487e-10
4.809937397e-10
5.884443628e-10
7.306953075e-10
9.017737767e-10
1.089581463e-09
1.274655672e-09
1.43033313e-09
1.524726341e-09
6.417684456e-10
7.462556124e-10
9.043514458e-10
1.112299356e-09
1.360713795e-09
1.631689323e-09
1.89722132e-09
2.119535041e-09
2.253847865e-09
9.94369599e-10
1.147263656e-09
1.377461195e-09
1.678483449e-09
2.035938851e-09
2.423683119e-09
2.801790688e-09
3.117094015e-09
3.307013278e-09
1.526463295e-09
1.747915346e-09
2.079862467e-09
2.511704676e-09
3.021826603e-09
3.57249633e-09
4.107236789e-09
4.551649856e-09
4.818665762e-09
2.321875662e-09
2.639621958e-09
3.11406802e-09
3.728522624e-09
4.451076289e-09
5.22782251e-09
5.979423477e-09
6.602305398e-09
6.975786547e-09
3.50019657e-09
3.952220219e-09
4.624909625e-09
5.492743764e-09
6.509303786e-09
7.598257867e-09
8.648835185e-09
9.517485176e-09
1.003748946e-08
5.230742638e-09
5.868844252e-09
6.815746835e-09
8.033333832e-09
9.454931191e-09
1.097329996e-08
1.243461067e-08
1.36406564e-08
1.436175222e-08
7.751525643e-09
8.646121567e-09
9.970473638e-09
1.166874278e-08
1.364621828e-08
1.575328088e-08
1.7777282e-08
1.944539663e-08
2.044189554e-08
1.139485923e-08
1.26414472e-08
1.448326305e-08
1.683983009e-08
1.957791778e-08
2.249002795e-08
2.528332206e-08
2.75832102e-08
2.895641056e-08
1.662170984e-08
1.834961325e-08
2.089858439e-08
2.415425404e-08
2.793079469e-08
3.194191972e-08
3.578566145e-08
3.894872147e-08
4.083706155e-08
2.406745907e-08
2.645167294e-08
2.996467775e-08
3.444589953e-08
3.9638097e-08
4.514811093e-08
5.042571534e-08
5.476846332e-08
5.736192588e-08
3.460220079e-08
3.787937701e-08
4.270417001e-08
4.885358401e-08
5.59740544e-08
6.352803056e-08
7.076408964e-08
7.672141636e-08
8.028217781e-08
4.940872158e-08
5.389862978e-08
6.05058456e-08
6.892394657e-08
7.867044757e-08
8.901350793e-08
9.89287869e-08
1.071015317e-07
1.119938218e-07
7.008107056e-08
7.621534801e-08
8.524170194e-08
9.674361983e-08
1.100675965e-07
1.242214878e-07
1.378107959e-07
1.490340885e-07
1.557676253e-07
9.874596243e-08
1.071063018e-07
1.194123711e-07
1.351045543e-07
1.533048031e-07
1.726740643e-07
1.913160158e-07
2.06757254e-07
2.160504827e-07
1.382069084e-07
1.495748141e-07
1.663208187e-07
1.877025439e-07
2.125508369e-07
2.390674662e-07
2.646767587e-07
2.859741821e-07
2.988453977e-07
1.921064863e-07
2.075260149e-07
2.302680128e-07
2.59361526e-07
2.93265685e-07
3.29579821e-07
3.648115442e-07
3.942638322e-07
4.12158401e-07
2.650955276e-07
2.859488667e-07
3.167552373e-07
3.562645108e-07
4.024693002e-07
4.521869642e-07
5.006949535e-07
5.415048889e-07
5.664618048e-07
3.629911698e-07
3.910838557e-07
4.326668997e-07
4.86157506e-07
5.489730812e-07
6.169277424e-07
6.836613611e-07
7.402180409e-07
7.750654618e-07
4.929007813e-07
5.305489255e-07
5.863989271e-07
6.584800197e-07
7.435109908e-07
8.360330658e-07
9.275290041e-07
1.005684534e-06
1.054233771e-06
6.632898185e-07
7.133961916e-07
7.87895875e-07
8.843707719e-07
9.986981974e-07
1.123819491e-06
1.248414514e-06
1.355685333e-06
1.422888631e-06
8.839802251e-07
9.500801387e-07
1.048567562e-06
1.17650475e-06
1.328753612e-06
1.49625984e-06
1.664127369e-06
1.809740083e-06
1.901753799e-06
1.166078405e-06
1.252331251e-06
1.381071583e-06
1.548738648e-06
1.74895382e-06
1.970191871e-06
2.19309722e-06
2.387682096e-06
2.511478064e-06
1.521838707e-06
1.632939006e-06
1.798965142e-06
2.015572974e-06
2.274846663e-06
2.562236384e-06
2.852871891e-06
3.107641591e-06
3.270542428e-06
1.964460974e-06
2.105447495e-06
2.316242368e-06
2.591473205e-06
2.92131754e-06
3.287426544e-06
3.65828695e-06
3.984160394e-06
4.193297635e-06
2.50780713e-06
2.683764711e-06
2.946800456e-06
3.290137841e-06
3.70139347e-06
4.157681871e-06
4.619853349e-06
5.026252482e-06
5.287668706e-06
3.166045071e-06
3.381706388e-06
3.70370104e-06
4.12333167e-06
4.625046692e-06
5.180617559e-06
5.742418985e-06
6.236079169e-06
6.553973805e-06
3.952830488e-06
4.211948783e-06
4.59806868e-06
5.099962347e-06
5.69817408e-06
6.358491873e-06
7.024294457e-06
7.608242612e-06
7.98432332e-06
4.88015389e-06
5.18503616e-06
5.638160646e-06
6.225104666e-06
6.921866962e-06
7.687730342e-06
8.45698363e-06
9.129795891e-06
9.562827029e-06
5.957190863e-06
6.308236107e-06
6.828333886e-06
7.499221837e-06
8.291832889e-06
9.15870148e-06
1.002543871e-05
1.078088793e-05
1.126648542e-05
7.188978767e-06
7.584358746e-06
8.168064078e-06
8.91751459e-06
9.798205355e-06
1.075604823e-05
1.17087908e-05
1.253587867e-05
1.306655164e-05
8.575237714e-06
9.010782449e-06
9.651326693e-06
1.046962589e-05
1.142565237e-05
1.24591487e-05
1.348130846e-05
1.436463955e-05
1.493003558e-05
1.010954603e-05
1.057882154e-05
1.126618084e-05
1.213960495e-05
1.315371761e-05
1.424284877e-05
1.531330804e-05
1.623356908e-05
1.682073827e-05
1.177898155e-05
1.227354693e-05
1.299485318e-05
1.390620867e-05
1.495728601e-05
1.607795574e-05
1.717146432e-05
1.810538195e-05
1.869823415e-05
1.356415539e-05
1.407391464e-05
1.481396668e-05
1.574320746e-05
1.68068483e-05
1.793118327e-05
1.901789675e-05
1.993613715e-05
2.050749301e-05
1.54393968e-05
1.595294222e-05
1.669466185e-05
1.761937603e-05
1.866825265e-05
1.97643888e-05
2.080769917e-05
2.167620301e-05
2.221676345e-05
1.737253378e-05
1.7877327e-05
1.860186202e-05
1.949723797e-05
2.050103559e-05
2.153169351e-05
2.250570273e-05
2.33141625e-05
2.381573599e-05
1.932291173e-05
1.98051198e-05
2.04908045e-05
2.132605484e-05
2.22547894e-05
2.32066084e-05
2.410037408e-05
2.483736861e-05
2.529175923e-05
2.123253763e-05
2.167629946e-05
2.230560998e-05
2.307142668e-05
2.391749392e-05
2.477841292e-05
2.557964871e-05
2.623407844e-05
2.663387703e-05
2.306295831e-05
2.346543879e-05
2.403384123e-05
2.472161885e-05
2.547503038e-05
2.623374618e-05
2.693142787e-05
2.749397109e-05
2.783327921e-05
2.480050951e-05
2.515759922e-05
2.565893429e-05
2.626045091e-05
2.6911997e-05
2.755914531e-05
2.814478568e-05
2.860877111e-05
2.888364742e-05
2.64259391e-05
2.673362546e-05
2.716224085e-05
2.767074302e-05
2.821340335e-05
2.874250216e-05
2.92108512e-05
2.957269216e-05
2.978134709e-05
2.791852314e-05
2.817369663e-05
2.852546784e-05
2.893646935e-05
2.936612882e-05
2.977406796e-05
3.012339353e-05
3.038268857e-05
3.052547538e-05
2.925887505e-05
2.945974475e-05
2.973256018e-05
3.00442412e-05
3.035996867e-05
3.064712163e-05
3.087916133e-05
3.103853458e-05
3.111778046e-05
3.043082304e-05
3.057707959e-05
3.077099965e-05
3.098428551e-05
3.118828868e-05
3.135832035e-05
3.147796998e-05
3.154270971e-05
3.15624297e-05
3.142257049e-05
3.151536789e-05
3.163254894e-05
3.175093764e-05
3.184826417e-05
3.190765787e-05
3.192242773e-05
3.189997646e-05
3.186553366e-05
3.222714871e-05
3.226892088e-05
3.231332674e-05
3.234250964e-05
3.234066622e-05
3.229862476e-05
3.221849801e-05
3.21181612e-05
3.203592179e-05
3.284305508e-05
3.28376723e-05
3.281524092e-05
3.276318895e-05
3.267195824e-05
3.253950713e-05
3.237588914e-05
3.220797229e-05
3.208483808e-05
3.327562947e-05
3.322780989e-05
3.314560738e-05
3.302153491e-05
3.285190066e-05
3.264113443e-05
3.240621649e-05
3.218147712e-05
3.202450978e-05
3.353461217e-05
3.34496522e-05
3.33154833e-05
3.312936824e-05
3.289297447e-05
3.261644882e-05
3.232262333e-05
3.205178104e-05
3.186789326e-05
3.363348145e-05
3.351697955e-05
3.333899562e-05
3.310110202e-05
3.280972416e-05
3.247991142e-05
3.213926737e-05
3.183259706e-05
3.162830753e-05
3.35885473e-05
3.344614656e-05
3.323248547e-05
3.295293374e-05
3.261801659e-05
3.224685134e-05
3.187077104e-05
3.153779228e-05
3.131904808e-05
3.341794954e-05
3.325511711e-05
3.301359953e-05
3.270201244e-05
3.233430158e-05
3.193283348e-05
3.153169963e-05
3.118096476e-05
3.095302913e-05
3.314067744e-05
3.296253121e-05
3.270042646e-05
3.236566388e-05
3.197494038e-05
3.155309764e-05
3.113610851e-05
3.077508277e-05
3.054248149e-05
3.277569512e-05
3.258688102e-05
3.23107457e-05
3.196072917e-05
3.155564468e-05
3.112210125e-05
3.069718302e-05
3.033220369e-05
3.009871907e-05
3.234122422e-05
3.214584186e-05
3.186142675e-05
3.150304684e-05
3.109104995e-05
3.065318083e-05
3.022697786e-05
2.986327551e-05
2.963197827e-05
3.185420753e-05
3.165577905e-05
3.136799542e-05
3.100708761e-05
3.059441892e-05
3.01583256e-05
2.973625426e-05
2.937802146e-05
2.915132717e-05
3.132994938e-05
3.113142137e-05
3.084435268e-05
3.048572704e-05
3.007747371e-05
2.964806194e-05
2.923440586e-05
2.888489451e-05
2.866463528e-05
3.078191531e-05
3.058568665e-05
3.030263546e-05
2.995014565e-05
2.955033292e-05
2.913142363e-05
2.872945446e-05
2.839108938e-05
2.817859244e-05
3.022166629e-05
3.00296333e-05
2.975319067e-05
2.940982704e-05
2.902153235e-05
2.861599047e-05
2.822810042e-05
2.790259818e-05
2.769876488e-05
2.965889545e-05
2.947250691e-05
2.920463415e-05
2.887262919e-05
2.849810616e-05
2.810797534e-05
2.773581084e-05
2.742429586e-05
2.72296768e-05
2.910153699e-05
2.892185327e-05
2.866396811e-05
2.834490496e-05
2.798570793e-05
2.761234222e-05
2.725693136e-05
2.696004392e-05
2.67749073e-05
2.855592073e-05
2.838367268e-05
2.813673397e-05
2.783165149e-05
2.748875378e-05
2.713294044e-05
2.679480942e-05
2.651280253e-05
2.633719434e-05
2.802695046e-05
2.786259511e-05
2.762718225e-05
2.733667222e-05
2.701057416e-05
2.667264404e-05
2.635192019e-05
2.608474392e-05
2.591853948e-05
2.751828976e-05
2.736206095e-05
2.713844558e-05
2.686273978e-05
2.655356427e-05
2.623348822e-05
2.592998888e-05
2.567736194e-05
2.552030901e-05
2.703254343e-05
2.68844966e-05
2.66727056e-05
2.641175157e-05
2.611932658e-05
2.581679784e-05
2.553010515e-05
2.529157448e-05
2.514332868e-05
2.657142731e-05
2.643147808e-05
2.623134761e-05
2.598487337e-05
2.570880165e-05
2.54233047e-05
2.515282766e-05
2.492781714e-05
2.478797044e-05
2.613592218e-05
2.600387902e-05
2.581510009e-05
2.558266821e-05
2.532238526e-05
2.505325264e-05
2.479827756e-05
2.458612719e-05
2.445423062e-05
2.572641003e-05
2.560200143e-05
2.542415765e-05
2.520520997e-05
2.496003151e-05
2.470648989e-05
2.446622102e-05
2.426621807e-05
2.414179937e-05
2.534279256e-05
2.52256894e-05
2.505828792e-05
2.485218187e-05
2.46213423e-05
2.438254948e-05
2.415614122e-05
2.396754464e-05
2.385012197e-05
2.49845928e-05
2.487442651e-05
2.471692306e-05
2.452296103e-05
2.430564414e-05
2.408071844e-05
2.386730071e-05
2.368935999e-05
2.357845236e-05
2.465104143e-05
2.454741858e-05
2.439923758e-05
2.42166903e-05
2.401205369e-05
2.380009701e-05
2.359879486e-05
2.343076454e-05
2.332589957e-05
2.434114939e-05
2.424366337e-05
2.410421387e-05
2.393233891e-05
2.373953314e-05
2.353964891e-05
2.334959766e-05
2.319074818e-05
2.309146789e-05
2.405376861e-05
2.396200883e-05
2.383069711e-05
2.366875341e-05
2.348693687e-05
2.329824382e-05
2.311860044e-05
2.296822624e-05
2.287409114e-05
2.378764257e-05
2.370120168e-05
2.357744107e-05
2.342470012e-05
2.325305041e-05
2.3074693e-05
2.290464457e-05
2.276206989e-05
2.267266187e-05
2.35414479e-05
2.345992738e-05
2.334314575e-05
2.319890013e-05
2.303662266e-05
2.286777878e-05
2.270654864e-05
2.257113159e-05
2.248605573e-05
2.331382848e-05
2.323684286e-05
2.312648834e-05
2.299005815e-05
2.283639247e-05
2.267627899e-05
2.252313092e-05
2.23942661e-05
2.231315179e-05
2.310342322e-05
2.303060325e-05
2.292614844e-05
2.279688589e-05
2.265111011e-05
2.249898665e-05
2.235322758e-05
2.223034758e-05
2.2152849e-05
2.29088884e-05
2.283988328e-05
2.274082813e-05
2.261812072e-05
2.247955445e-05
2.233472567e-05
2.219570717e-05
2.207828316e-05
2.200407927e-05
2.272891511e-05
2.2663394e-05
2.256926776e-05
2.245254022e-05
2.232054627e-05
2.218236303e-05
2.20494818e-05
2.193702345e-05
2.186581759e-05
2.256224275e-05
2.249989565e-05
2.241025792e-05
2.229897327e-05
2.217295834e-05
2.204081792e-05
2.191351548e-05
2.180557028e-05
2.173708951e-05
2.240766904e-05
2.234820718e-05
2.226264836e-05
2.215630806e-05
2.203572261e-05
2.190906817e-05
2.178682993e-05
2.168298211e-05
2.161697631e-05
2.226405707e-05
2.220721292e-05
2.212535398e-05
2.202349757e-05
2.190783505e-05
2.178615448e-05
2.166850834e-05
2.156837738e-05
2.150461822e-05
2.213033988e-05
2.20758668e-05
2.199735872e-05
2.189956283e-05
2.178835838e-05
2.16711827e-05
2.155769727e-05
2.146093622e-05
2.139921595e-05
2.200552291e-05
2.195319453e-05
2.187771734e-05
2.178359437e-05
2.167642315e-05
2.156332456e-05
2.145360708e-05
2.13599007e-05
2.130003092e-05
2.188868477e-05
2.183829418e-05
2.176555572e-05
2.167475225e-05
2.157122744e-05
2.146181709e-05
2.135551119e-05
2.126457395e-05
2.120638431e-05
2.177897651e-05
2.173033535e-05
2.166006986e-05
2.157226476e-05
2.14720354e-05
2.136596101e-05
2.126274438e-05
2.117431843e-05
2.111765531e-05
2.167561992e-05
2.162855729e-05
2.156052384e-05
2.147542632e-05
2.137817501e-05
2.127511843e-05
2.117470038e-05
2.108855349e-05
2.103327871e-05
2.157790487e-05
2.153226623e-05
2.146624712e-05
2.138359467e-05
2.128903518e-05
2.118870987e-05
2.109082892e-05
2.100675245e-05
2.095274203e-05
2.148518609e-05
2.14408321e-05
2.137663117e-05
2.129618747e-05
2.120406241e-05
2.110621096e-05
2.101063248e-05
2.092843943e-05
2.087558231e-05
2.13968795e-05
2.135368487e-05
2.129112585e-05
2.121267871e-05
2.112275716e-05
2.102714889e-05
2.093366282e-05
2.085318589e-05
2.080138282e-05
2.131245826e-05
2.127031063e-05
2.120923551e-05
2.113259484e-05
2.104467013e-05
2.095109874e-05
2.085951735e-05
2.078060717e-05
2.072976957e-05
2.123144875e-05
2.119024756e-05
2.113051502e-05
2.105551092e-05
2.096939843e-05
2.087767978e-05
2.078783565e-05
2.071035905e-05
2.0660408e-05
2.115342646e-05
2.111308192e-05
2.105456581e-05
2.09810467e-05
2.089658186e-05
2.080655187e-05
2.071829589e-05
2.064213436e-05
2.059299963e-05
2.107801201e-05
2.103844409e-05
2.098103203e-05
2.090886293e-05
2.082589922e-05
2.073741194e-05
2.065061154e-05
2.057565972e-05
2.052727887e-05
2.100486724e-05
2.096600474e-05
2.090959676e-05
2.083865767e-05
2.075706492e-05
2.066999069e-05
2.058452813e-05
2.051069246e-05
2.046301007e-05
2.093369152e-05
2.08954712e-05
2.083997854e-05
2.077016294e-05
2.068982561e-05
2.060404941e-05
2.051982026e-05
2.044701775e-05
2.039998463e-05
2.086421828e-05
2.082658404e-05
2.0771928e-05
2.070314145e-05
2.062395716e-05
2.053937705e-05
2.045628877e-05
2.038444589e-05
2.033801841e-05
2.079621168e-05
2.075911386e-05
2.070522474e-05
2.063738363e-05
2.055926175e-05
2.047578752e-05
2.039375817e-05
2.032280978e-05
2.02769493e-05
2.072946366e-05
2.069285832e-05
2.063967449e-05
2.057270489e-05
2.049556527e-05
2.041311713e-05
2.033207426e-05
2.026196271e-05
2.021663499e-05
2.066379108e-05
2.062763941e-05
2.057510643e-05
2.050894304e-05
2.04327149e-05
2.035122236e-05
2.027110191e-05
2.020177619e-05
2.01569509e-05
2.05990332e-05
2.056330096e-05
2.051137079e-05
2.044595601e-05
2.037057687e-05
2.02899777e-05
2.02107231e-05
2.014213812e-05
2.00977884e-05
2.053504932e-05
2.049970634e-05
2.044833667e-05
2.038361971e-05
2.03090345e-05
2.022927382e-05
2.015083509e-05
2.008295098e-05
2.003905304e-05
2.047171669e-05
2.043673641e-05
2.038588998e-05
2.032182614e-05
2.024798635e-05
2.016901576e-05
2.009134882e-05
2.002413034e-05
1.998066311e-05
2.040892856e-05
2.037428764e-05
2.032393169e-05
2.026048165e-05
2.018734458e-05
2.010912146e-05
2.003218742e-05
1.996560341e-05
1.992254821e-05
2.034659247e-05
2.031227042e-05
2.026237618e-05
2.019950539e-05
2.012703349e-05
2.004952032e-05
1.997328487e-05
1.990730781e-05
1.986464808e-05
2.028462868e-05
2.025060752e-05
2.020114976e-05
2.013882788e-05
2.006698818e-05
1.999015192e-05
1.991458482e-05
1.984919036e-05
1.980691142e-05
2.022296876e-05
2.018923276e-05
2.014018936e-05
2.007838981e-05
2.000715333e-05
1.993096496e-05
1.985603955e-05
1.979120615e-05
1.974929494e-05
2.016155434e-05
2.012808974e-05
2.007944136e-05
2.001814084e-05
1.994748219e-05
1.987191616e-05
1.979760893e-05
1.973331754e-05
1.969176247e-05
2.0100336e-05
2.006713077e-05
2.001886051e-05
1.995803864e-05
1.988793554e-05
1.981296943e-05
1.973925965e-05
1.96754934e-05
1.963428415e-05
2.003927221e-05
2.000631589e-05
1.995840899e-05
1.989804796e-05
1.982848091e-05
1.9754095e-05
1.968096441e-05
1.961770834e-05
1.95768357e-05
1.997832848e-05
1.994561194e-05
1.989805554e-05
1.983813981e-05
1.976909176e-05
1.969526876e-05
1.962270122e-05
1.955994207e-05
1.951939782e-05
1.991747652e-05
1.988499184e-05
1.983777477e-05
1.977829078e-05
1.97097468e-05
1.963647153e-05
1.956445283e-05
1.950217883e-05
1.946195562e-05
1.985669351e-05
1.982443383e-05
1.977754638e-05
1.971848236e-05
1.965042944e-05
1.957768857e-05
1.950620616e-05
1.944440684e-05
1.940449809e-05
1.979596149e-05
1.976392089e-05
1.971735466e-05
1.965870037e-05
1.959112715e-05
1.951890902e-05
1.944795184e-05
1.93866179e-05
1.934701769e-05
1.973526677e-05
1.970344013e-05
1.965718788e-05
1.959893447e-05
1.953183108e-05
1.946012548e-05
1.938968376e-05
1.932880692e-05
1.928950995e-05
1.967459936e-05
1.964298232e-05
1.959703783e-05
1.953917765e-05
1.947253555e-05
1.940133357e-05
1.933139874e-05
1.927097165e-05
1.923197314e-05
1.961395259e-05
1.958254141e-05
1.953689937e-05
1.947942589e-05
1.94132377e-05
1.934253161e-05
1.927309614e-05
1.921311228e-05
1.917440798e-05
1.955332257e-05
1.952211412e-05
1.947677004e-05
1.94196777e-05
1.935393713e-05
1.928372026e-05
1.921477761e-05
1.915523125e-05
1.911681733e-05
1.949270783e-05
1.946169951e-05
1.941664964e-05
1.93599338e-05
1.929463554e-05
1.922490224e-05
1.915644679e-05
1.909733294e-05
1.905920604e-05
1.943210887e-05
1.940129857e-05
1.935653987e-05
1.930019672e-05
1.923533641e-05
1.916608197e-05
1.909810898e-05
1.903942339e-05
1.900158061e-05
1.937152769e-05
1.934091375e-05
1.929644383e-05
1.924047038e-05
1.917604455e-05
1.910726522e-05
1.903977087e-05
1.898151005e-05
1.894394894e-05
1.931096727e-05
1.928054846e-05
1.923636555e-05
1.918075958e-05
1.911676567e-05
1.904845864e-05
1.898144005e-05
1.89236013e-05
1.888631995e-05
1.925043088e-05
1.922020637e-05
1.917630931e-05
1.912106936e-05
1.905750569e-05
1.898966911e-05
1.892312437e-05
1.886570588e-05
1.882870296e-05
1.918992118e-05
1.915989054e-05
1.91162787e-05
1.906140405e-05
1.899826981e-05
1.893090284e-05
1.886483107e-05
1.880783198e-05
1.87711068e-05
1.912943913e-05
1.909960222e-05
1.905627548e-05
1.900176604e-05
1.893906127e-05
1.887216403e-05
1.880656541e-05
1.874998586e-05
1.871353844e-05
1.906898229e-05
1.903933923e-05
1.899629782e-05
1.894215405e-05
1.887987944e-05
1.881345292e-05
1.874832862e-05
1.869216977e-05
1.86560009e-05
1.900854278e-05
1.897909372e-05
1.893633803e-05
1.888256061e-05
1.882071729e-05
1.875476308e-05
1.869011507e-05
1.863437896e-05
1.859849015e-05
1.894810431e-05
1.891884924e-05
1.887637939e-05
1.882296881e-05
1.87615578e-05
1.869607759e-05
1.863190818e-05
1.857659743e-05
1.854099073e-05
1.888763851e-05
1.885857677e-05
1.881639205e-05
1.876334783e-05
1.87023692e-05
1.863736387e-05
1.857367492e-05
1.851879204e-05
1.848346973e-05
1.882709996e-05
1.879822968e-05
1.875632762e-05
1.870364715e-05
1.864309866e-05
1.857856692e-05
1.851535843e-05
1.846090475e-05
1.842586862e-05
1.876642007e-05
1.873773722e-05
1.869611227e-05
1.864378911e-05
1.858366428e-05
1.851960049e-05
1.845686857e-05
1.840284243e-05
1.836809271e-05
1.87054994e-05
1.867699656e-05
1.863563824e-05
1.858365978e-05
1.852394505e-05
1.846033621e-05
1.839807001e-05
1.834446418e-05
1.830999791e-05
1.864419833e-05
1.861586304e-05
1.857475345e-05
1.852309766e-05
1.846376863e-05
1.840059019e-05
1.833876775e-05
1.828556578e-05
1.825137441e-05
1.858232612e-05
1.855413865e-05
1.851324925e-05
1.846188052e-05
1.840289693e-05
1.83401073e-05
1.827868998e-05
1.822586127e-05
1.819192752e-05
1.851962806e-05
1.849155872e-05
1.845084621e-05
1.839971002e-05
1.834100942e-05
1.827854295e-05
1.821746831e-05
1.816496181e-05
1.813125552e-05
1.845577112e-05
1.842777683e-05
1.838717819e-05
1.833619457e-05
1.827768454e-05
1.821544286e-05
1.815461582e-05
1.810235216e-05
1.806882506e-05
1.839032803e-05
1.836234835e-05
1.832177476e-05
1.827083054e-05
1.821237936e-05
1.815022103e-05
1.808950333e-05
1.803736536e-05
1.800394485e-05
1.832276022e-05
1.829471264e-05
1.825404264e-05
1.820298238e-05
1.814440824e-05
1.808213676e-05
1.80213347e-05
1.796915653e-05
1.793573833e-05
1.825240008e-05
1.82241748e-05
1.818324637e-05
1.813186222e-05
1.80729211e-05
1.801027146e-05
1.794912215e-05
1.789667679e-05
1.786311677e-05
1.817843298e-05
1.814988712e-05
1.810848918e-05
1.805650979e-05
1.799688226e-05
1.793350629e-05
1.787166277e-05
1.781864888e-05
1.778475416e-05
1.809987987e-05
1.807083132e-05
1.802869461e-05
1.797577342e-05
1.791505078e-05
1.785050189e-05
1.778751762e-05
1.773354568e-05
1.769906552e-05
1.801558106e-05
1.79858022e-05
1.794259e-05
1.78882933e-05
1.782596349e-05
1.775968135e-05
1.769499488e-05
1.763957361e-05
1.760419042e-05
1.792418197e-05
1.789339346e-05
1.78486925e-05
1.779248785e-05
1.772792203e-05
1.765921799e-05
1.759213851e-05
1.753466238e-05
1.749798365e-05
1.782412175e-05
1.779198671e-05
1.774529875e-05
1.76865444e-05
1.761898482e-05
1.75470292e-05
1.747672426e-05
1.74164631e-05
1.737801484e-05
1.77136255e-05
1.767974451e-05
1.763047912e-05
1.756841524e-05
1.749696554e-05
1.742077779e-05
1.734626436e-05
1.728235635e-05
1.724157905e-05
1.75907012e-05
1.755460841e-05
1.75020777e-05
1.743582021e-05
1.735943916e-05
1.727788233e-05
1.719802272e-05
1.712947211e-05
1.708572013e-05
1.745314204e-05
1.741430305e-05
1.735771901e-05
1.728625713e-05
1.720375718e-05
1.711553811e-05
1.702904218e-05
1.695472319e-05
1.690726857e-05
1.72985355e-05
1.725634744e-05
1.719482277e-05
1.711702141e-05
1.702707329e-05
1.693075014e-05
1.68361856e-05
1.675485406e-05
1.670289587e-05
1.712428035e-05
1.707807484e-05
1.701062829e-05
1.692523639e-05
1.682638146e-05
1.672038018e-05
1.661619253e-05
1.652650668e-05
1.646918677e-05
1.692761328e-05
1.687666297e-05
1.680223001e-05
1.670789637e-05
1.659856801e-05
1.648120945e-05
1.636575325e-05
1.626630496e-05
1.620273088e-05
1.670564697e-05
1.664917633e-05
1.656662644e-05
1.646192412e-05
1.634047979e-05
1.62100188e-05
1.608160139e-05
1.597095873e-05
1.590023421e-05
1.645542194e-05
1.639262305e-05
1.630078441e-05
1.618424489e-05