/*--------------------------------*- C++ -*----------------------------------*\
| =========                 |                                                 |
| \\      /  F ield         | OpenFOAM: The Open Source CFD Toolbox           |
|  \\    /   O peration     | Version:  2212                                  |
|   \\  /    A nd           | Website:  www.openfoam.com                      |
|    \\/     M anipulation  |                                                 |
\*---------------------------------------------------------------------------*/
FoamFile
{
    version     2.0;
    format      ascii;
    arch        "LSB;label=32;scalar=64";
    class       volScalarField;
    location    "20.00000000";
    object      I-C4H51_0;
}
// * * * * * * * * * * * * * * * * * * * * * * * * * * * * * * * * * * * * * //

dimensions      [0 0 0 0 0 0 0];

internalField   nonuniform List<scalar> 
3000
(
7.732968929e-24
8.686552635e-24
1.012540089e-23
1.204262836e-23
1.441869912e-23
1.71891378e-23
2.01871737e-23
2.304813113e-23
2.507104992e-23
2.903275557e-23
3.274429931e-23
3.834217652e-23
4.581770947e-23
5.516329802e-23
6.632770439e-23
7.911744318e-23
9.289091293e-23
1.050890497e-22
6.503335425e-23
7.392374059e-23
8.746051996e-23
1.058388672e-22
1.293885129e-22
1.584518651e-22
1.929138943e-22
2.308447758e-22
2.632528281e-22
1.238728094e-22
1.422823382e-22
1.707248374e-22
2.101614408e-22
2.619883144e-22
3.275233792e-22
4.064087238e-22
4.923394128e-22
5.61691241e-22
2.199737024e-22
2.557683907e-22
3.119423761e-22
3.913479375e-22
4.977186847e-22
6.340377698e-22
7.980265193e-22
9.721863503e-22
1.10587632e-21
3.782736636e-22
4.454598121e-22
5.524107817e-22
7.059514741e-22
9.142714096e-22
1.182616091e-21
1.502968942e-21
1.834938721e-21
2.080536207e-21
6.422001443e-22
7.656163699e-22
9.643665121e-22
1.252915541e-21
1.647326295e-21
2.155438296e-21
2.75622786e-21
3.366633036e-21
3.807064357e-21
1.086865232e-21
1.310205396e-21
1.673067791e-21
2.203945047e-21
2.932426885e-21
3.86898576e-21
4.966614063e-21
6.065542853e-21
6.845223292e-21
1.842447418e-21
2.242327051e-21
2.896201145e-21
3.857654055e-21
5.179288145e-21
6.873759198e-21
8.845312649e-21
1.07986535e-20
1.216925135e-20
3.134448301e-21
3.844782193e-21
5.011592206e-21
6.732759348e-21
9.100102305e-21
1.212726584e-20
1.562992298e-20
1.907486098e-20
2.147422512e-20
5.353936746e-21
6.608467736e-21
8.675693786e-21
1.173116141e-20
1.593377021e-20
2.129560065e-20
2.747417078e-20
3.352022824e-20
3.771071733e-20
9.179593743e-21
1.138599717e-20
1.502965442e-20
2.042182743e-20
2.783655898e-20
3.72791441e-20
4.812718247e-20
5.870557046e-20
6.601497131e-20
1.579010385e-20
1.965931026e-20
2.605859996e-20
3.553597693e-20
4.856342044e-20
6.512822217e-20
8.411286045e-20
1.025776336e-19
1.153272001e-19
2.723283993e-20
3.400439263e-20
4.521616574e-20
6.18294625e-20
8.465762777e-20
1.136435702e-19
1.467751332e-19
1.788890176e-19
2.012087868e-19
4.706238611e-20
5.889611742e-20
7.850676818e-20
1.075804823e-19
1.475270373e-19
1.98191392e-19
2.558858219e-19
3.112221942e-19
3.508319433e-19
8.144433553e-20
1.02097257e-19
1.363482228e-19
1.87158345e-19
2.57014233e-19
3.457543799e-19
4.474070777e-19
5.465518967e-19
6.131960525e-19
1.410659978e-19
1.77058274e-19
2.36772802e-19
3.253731265e-19
4.471587076e-19
6.017249723e-19
7.783139582e-19
9.493457512e-19
1.066315089e-18
2.444604062e-19
3.071069083e-19
4.110655515e-19
5.653123214e-19
7.772693526e-19
1.046105688e-18
1.352929681e-18
1.649754233e-18
1.853132878e-18
4.237821772e-19
5.32726106e-19
7.135387531e-19
9.818148897e-19
1.35039525e-18
1.817722343e-18
2.350852484e-18
2.866396239e-18
3.219590498e-18
7.348376722e-19
9.241881175e-19
1.238487257e-18
1.70482998e-18
2.345467326e-18
3.157573695e-18
4.083788469e-18
4.979200895e-18
5.592484297e-18
1.274500797e-18
1.603490298e-18
2.149627385e-18
2.959985083e-18
4.073148439e-18
5.484058733e-18
7.092903391e-18
8.647898926e-18
9.712723099e-18
2.210955423e-18
2.782446364e-18
3.731218719e-18
5.139039274e-18
7.072829847e-18
9.523588422e-18
1.231770064e-17
1.501778126e-17
1.686645716e-17
3.836220255e-18
4.828843832e-18
6.476851646e-18
8.92223804e-18
1.228106301e-17
1.653735215e-17
2.138919736e-17
2.607695745e-17
2.928621679e-17
6.657382628e-18
8.381356748e-18
1.124366058e-17
1.549080645e-17
2.132402729e-17
2.871500552e-17
3.713883542e-17
4.527657082e-17
5.084706433e-17
1.155507491e-17
1.454915022e-17
1.952016236e-17
2.689591181e-17
3.702515809e-17
4.985768997e-17
6.448112141e-17
7.860564677e-17
8.827337467e-17
2.005869014e-17
2.525848802e-17
3.389126201e-17
4.669905635e-17
6.428584969e-17
8.656224795e-17
1.119424009e-16
1.364518606e-16
1.532254491e-16
3.482428884e-17
4.385457073e-17
5.884550427e-17
8.108337193e-17
1.116129783e-16
1.502739355e-16
1.943092512e-16
2.368221283e-16
2.659100757e-16
6.046422004e-17
7.614624463e-17
1.021759781e-16
1.407810404e-16
1.937658202e-16
2.608396508e-16
3.372080616e-16
4.109075327e-16
4.613168979e-16
1.049858826e-16
1.322174192e-16
1.774082666e-16
2.44411404e-16
3.36335727e-16
4.526475065e-16
5.850053331e-16
7.126671016e-16
7.999430244e-16
1.822841884e-16
2.295643096e-16
3.08002969e-16
4.242530283e-16
5.836538385e-16
7.852091695e-16
1.014397566e-15
1.235282122e-15
1.386182501e-15
3.164523205e-16
3.98519187e-16
5.346150741e-16
7.362007006e-16
1.012405986e-15
1.361336936e-15
1.757694061e-15
2.139276105e-15
2.399696314e-15
5.492206278e-16
6.916040195e-16
9.275984342e-16
1.276885529e-15
1.7549852e-15
2.358228117e-15
3.042500092e-15
3.700288462e-15
4.148585003e-15
9.527569478e-16
1.199610459e-15
1.608467344e-15
2.212987923e-15
3.03934936e-15
4.080317349e-15
5.258908533e-15
6.389643147e-15
7.158808134e-15
1.651613939e-15
2.079132844e-15
2.786562564e-15
3.831160602e-15
5.256630332e-15
7.048502281e-15
9.072351514e-15
1.10090124e-14
1.232313176e-14
2.860197713e-15
3.599482248e-15
4.821341628e-15
6.622498868e-15
9.074953826e-15
1.214947904e-14
1.561130947e-14
1.891311876e-14
2.114647043e-14
4.94640953e-15
6.222161165e-15
8.327490071e-15
1.142435177e-14
1.562933882e-14
2.088314615e-14
2.677601675e-14
3.237355305e-14
3.6144879e-14
8.539109212e-15
1.073458964e-14
1.435089733e-14
1.965623271e-14
2.683523522e-14
3.576769802e-14
4.573967218e-14
5.516504268e-14
6.148530961e-14
1.470836655e-14
1.847338365e-14
2.466062475e-14
3.37081936e-14
4.59000987e-14
6.099425586e-14
7.775073588e-14
9.349623421e-14
1.039959701e-13
2.526554948e-14
3.169393349e-14
4.222843302e-14
5.757278222e-14
7.814722128e-14
1.03469709e-13
1.3139782e-13
1.574644968e-13
1.747370183e-13
4.325879798e-14
5.417629438e-14
7.200760702e-14
9.786033936e-14
1.323238115e-13
1.744529896e-13
2.205727246e-13
2.632938567e-13
2.914040243e-13
7.37836805e-14
9.220812657e-14
1.221826949e-13
1.654081411e-13
2.22647441e-13
2.920828329e-13
3.674691811e-13
4.367242025e-13
4.819497379e-13
1.252963902e-13
1.561613946e-13
2.061493459e-13
2.777948542e-13
3.719596918e-13
4.852227968e-13
6.070941031e-13
7.180683819e-13
7.899637585e-13
2.117181126e-13
2.629912123e-13
3.456091566e-13
4.632134792e-13
6.165140291e-13
7.992236186e-13
9.939574916e-13
1.169655751e-12
1.282559409e-12
3.557680102e-13
4.401462895e-13
5.75341919e-13
7.663522412e-13
1.013141296e-12
1.304440104e-12
1.61186454e-12
1.886655466e-12
2.061802509e-12
5.941763935e-13
7.316084601e-13
9.504645437e-13
1.257202207e-12
1.649830942e-12
2.108662072e-12
2.588083396e-12
3.012646181e-12
3.28110434e-12
9.857313663e-13
1.207096072e-12
1.557325273e-12
2.044077618e-12
2.661166656e-12
3.375056575e-12
4.113636638e-12
4.761804197e-12
5.168524873e-12
1.623529262e-12
1.975901158e-12
2.529644083e-12
3.2926335e-12
4.250598191e-12
5.347811035e-12
6.472104783e-12
7.450261428e-12
8.059634616e-12
2.653366843e-12
3.207420748e-12
4.072136235e-12
5.253339733e-12
6.722264753e-12
8.388463872e-12
1.008018681e-11
1.154008903e-11
1.244351599e-11
4.300978797e-12
5.161239269e-12
6.494701053e-12
8.300780543e-12
1.052607074e-11
1.302697283e-11
1.554439799e-11
1.770055436e-11
1.902671052e-11
6.911854987e-12
8.230693648e-12
1.026139838e-11
1.298937207e-11
1.63210308e-11
2.003297962e-11
2.373977632e-11
2.689285413e-11
2.88215106e-11
1.100876864e-11
1.300531022e-11
1.605997834e-11
2.013173524e-11
2.506365291e-11
3.051458428e-11
3.591841488e-11
4.048654661e-11
4.326704549e-11
1.73740631e-11
2.035950202e-11
2.489983566e-11
3.090818113e-11
3.813045928e-11
4.605437682e-11
5.385815927e-11
6.041849469e-11
6.439426023e-11
2.716641251e-11
3.157770553e-11
3.824917926e-11
4.701879663e-11
5.748686471e-11
6.889567445e-11
8.00651067e-11
8.940848622e-11
9.504931355e-11
4.208553122e-11
4.853014249e-11
5.822639752e-11
7.089388659e-11
8.591889735e-11
1.021961439e-10
1.180478602e-10
1.312502133e-10
1.391944938e-10
6.459995962e-11
7.391416701e-11
8.78615258e-11
1.059811077e-10
1.273495743e-10
1.503739705e-10
1.72690187e-10
1.912044161e-10
2.023127632e-10
9.826631225e-11
1.115926439e-10
1.314619738e-10
1.571440408e-10
1.872727937e-10
2.195766826e-10
2.507519586e-10
2.765252619e-10
2.919492778e-10
1.48176704e-10
1.670660795e-10
1.951193723e-10
2.312111174e-10
2.73348307e-10
3.183218967e-10
3.615505037e-10
3.971726772e-10
4.184410315e-10
2.21582535e-10
2.481303269e-10
2.874153654e-10
3.377394361e-10
3.96228072e-10
4.583843217e-10
5.178996168e-10
5.667886557e-10
5.9591172e-10
3.287673807e-10
3.657988482e-10
4.204141517e-10
4.900924546e-10
5.707257011e-10
6.560529527e-10
7.374383911e-10
8.04071511e-10
8.436635796e-10
4.842700425e-10
5.356033595e-10
6.110752487e-10
7.069911053e-10
8.175189976e-10
9.3397868e-10
1.044594425e-09
1.134807661e-09
1.188230238e-09
7.085957663e-10
7.794365434e-10
8.832908372e-10
1.014798711e-09
1.165715161e-09
1.324019458e-09
1.473667046e-09
1.595111139e-09
1.666673866e-09
1.030592161e-09
1.128161184e-09
1.270850324e-09
1.45095661e-09
1.65685186e-09
1.871856594e-09
2.074031879e-09
2.237084459e-09
2.332475756e-09
1.490683281e-09
1.625260502e-09
1.821749049e-09
2.069215632e-09
2.351323884e-09
2.644848709e-09
2.919521845e-09
3.139568515e-09
3.267129312e-09
2.145110338e-09
2.331810338e-09
2.604371687e-09
2.947625465e-09
3.338889485e-09
3.745807555e-09
4.126054405e-09
4.429618263e-09
4.604298975e-09
3.07121499e-09
3.33300826e-09
3.716180545e-09
4.200634661e-09
4.755860111e-09
5.337316608e-09
5.885046275e-09
6.325786107e-09
6.580591388e-09
4.37370339e-09
4.746449041e-09
5.295632675e-09
5.997089734e-09
6.81275323e-09
7.683820676e-09
8.52517937e-09
9.222673258e-09
9.638572577e-09
6.192018744e-09
6.732550235e-09
7.538349393e-09
8.586459383e-09
9.837327155e-09
1.122116655e-08
1.262002606e-08
1.384507396e-08
1.462078242e-08
8.710143792e-09
9.508733599e-09
1.071971887e-08
1.233659e-08
1.433845681e-08
1.666306165e-08
1.915797286e-08
2.149870281e-08
2.30932648e-08
1.217352426e-08
1.337243631e-08
1.522939709e-08
1.778847717e-08
2.109528167e-08
2.514571905e-08
2.976965409e-08
3.440499067e-08
3.77816991e-08
1.692454717e-08
1.874506666e-08
2.162989927e-08
2.573767683e-08
3.127164942e-08
3.838619806e-08
4.693865423e-08
5.596726173e-08
6.288844946e-08
2.347783459e-08
2.625923215e-08
3.07610067e-08
3.735668591e-08
4.654388301e-08
5.877177858e-08
7.395282318e-08
9.042404987e-08
1.033411099e-07
3.266540883e-08
3.691936927e-08
4.391639671e-08
5.436843815e-08
6.920105495e-08
8.919827213e-08
1.140410177e-07
1.403771586e-07
1.591377263e-07
4.587758626e-08
5.235440674e-08
6.309381285e-08
7.923408336e-08
1.021004662e-07
1.323708937e-07
1.679985003e-07
2.001938761e-07
2.164475063e-07
6.538165664e-08
7.511283423e-08
9.120523838e-08
1.151239281e-07
1.480415685e-07
1.888567573e-07
2.295971117e-07
2.594538065e-07
2.759813035e-07
9.455832855e-08
1.087503874e-07
1.318157668e-07
1.649109977e-07
2.07046261e-07
2.507091417e-07
2.89371017e-07
3.203556687e-07
3.388361034e-07
1.374911051e-07
1.569274714e-07
1.871416105e-07
2.274047379e-07
2.683428031e-07
3.102630059e-07
3.502474693e-07
3.84028313e-07
4.051897235e-07
1.960780859e-07
2.192141639e-07
2.496719927e-07
2.864111788e-07
3.273953106e-07
3.708423226e-07
4.135517616e-07
4.505219281e-07
4.74373042e-07
2.582281621e-07
2.790998856e-07
3.087149116e-07
3.456512526e-07
3.881348578e-07
4.338684295e-07
4.793472221e-07
5.190624529e-07
5.451176916e-07
3.181880643e-07
3.390752364e-07
3.693230981e-07
4.07440888e-07
4.51628831e-07
4.993170921e-07
5.467912621e-07
5.882964937e-07
6.157611628e-07
3.805378565e-07
4.019414965e-07
4.330174251e-07
4.721524029e-07
5.174557967e-07
5.661559948e-07
6.144116951e-07
6.564795834e-07
6.84403812e-07
4.46221805e-07
4.679507916e-07
4.99364358e-07
5.388648122e-07
5.842935923e-07
6.328445084e-07
6.803663437e-07
7.216488707e-07
7.49046376e-07
5.14448036e-07
5.360735409e-07
5.672222524e-07
6.059701769e-07
6.502321298e-07
6.971030114e-07
7.42547755e-07
7.817695503e-07
8.07724141e-07
5.834956653e-07
6.044301458e-07
6.344269068e-07
6.714995193e-07
7.132947275e-07
7.569423869e-07
7.989460863e-07
8.349383679e-07
8.586559367e-07
6.51186785e-07
6.70796862e-07
6.987108766e-07
7.328972489e-07
7.709893745e-07
8.102836264e-07
8.476951602e-07
8.794734473e-07
9.003044381e-07
7.151660544e-07
7.328544221e-07
7.578411937e-07
7.881249212e-07
8.214428168e-07
8.553365039e-07
8.871517274e-07
9.138056077e-07
9.310709197e-07
7.731142382e-07
7.883703945e-07
8.097251165e-07
8.352783256e-07
8.629337837e-07
8.904861316e-07
9.156069581e-07
9.355964691e-07
9.465748359e-07
8.22929239e-07
8.353550216e-07
8.52526751e-07
8.72683237e-07
8.938731022e-07
9.140012103e-07
9.303928918e-07
9.420443119e-07
9.487758024e-07
8.628046117e-07
8.72087614e-07
8.84585679e-07
8.986494048e-07
9.122369262e-07
9.229403758e-07
9.31367366e-07
9.375511617e-07
9.412776412e-07
8.909335247e-07
8.967133668e-07
9.036455728e-07
9.098748262e-07
9.152705528e-07
9.193492371e-07
9.22273372e-07
9.243337337e-07
9.256712604e-07
9.033962635e-07
9.049819541e-07
9.065478647e-07
9.074294706e-07
9.074157249e-07
9.065292757e-07
9.051506936e-07
9.038703513e-07
9.032269311e-07
9.01474245e-07
9.003691983e-07
8.983551206e-07
8.952471809e-07
8.911051787e-07
8.862742293e-07
8.814095994e-07
8.773887815e-07
8.751060069e-07
8.893761688e-07
8.862776748e-07
8.815541409e-07
8.753217883e-07
8.679095461e-07
8.599240415e-07
8.522598185e-07
8.460328551e-07
8.424263004e-07
8.692245555e-07
8.645866359e-07
8.577594901e-07
8.490864833e-07
8.391201693e-07
8.286762024e-07
8.188367591e-07
8.108988173e-07
8.062643806e-07
8.425460431e-07
8.367400274e-07
8.283208703e-07
8.178087757e-07
8.059314039e-07
7.936626399e-07
7.822203314e-07
7.730269307e-07
7.676375704e-07
8.106964418e-07
8.040502695e-07
7.944947001e-07
7.826837454e-07
7.694744568e-07
7.559517971e-07
7.434217146e-07
7.333823713e-07
7.274835199e-07
7.749532314e-07
7.677572426e-07
7.574685754e-07
7.448364847e-07
7.308060393e-07
7.165312969e-07
7.033647516e-07
6.928375156e-07
6.866436743e-07
7.365127051e-07
7.290181972e-07
7.183446416e-07
7.053024467e-07
6.908885217e-07
6.76290139e-07
6.62870998e-07
6.521596609e-07
6.458526796e-07
6.964669135e-07
6.888848863e-07
6.781178762e-07
6.650081048e-07
6.505734544e-07
6.360039855e-07
6.226471119e-07
6.120004938e-07
6.057294705e-07
6.557800105e-07
6.482806719e-07
6.376545132e-07
6.247513962e-07
6.105852801e-07
5.963253789e-07
5.832804032e-07
5.72895303e-07
5.66778127e-07
6.152720656e-07
6.079877154e-07
5.976838216e-07
5.851986114e-07
5.715225644e-07
5.577858031e-07
5.452418244e-07
5.352669199e-07
5.293926682e-07
5.756171957e-07
5.686455321e-07
5.587972059e-07
5.468841126e-07
5.338586282e-07
5.207985361e-07
5.088906223e-07
4.994317115e-07
4.938637877e-07
5.373450787e-07
5.307534587e-07
5.214519436e-07
5.102155023e-07
4.97948139e-07
4.856663938e-07
4.74483078e-07
4.656090743e-07
4.603887895e-07
5.008494399e-07
4.946796025e-07
4.859807267e-07
4.754837842e-07
4.640378366e-07
4.525929017e-07
4.421840243e-07
4.339332025e-07
4.290835052e-07
4.664015204e-07
4.606743684e-07
4.526052257e-07
4.428769106e-07
4.322799898e-07
4.216955955e-07
4.120799663e-07
4.044660538e-07
3.999951704e-07
4.341666108e-07
4.28886743e-07
4.214519991e-07
4.12495202e-07
4.027472441e-07
3.930202676e-07
3.841927628e-07
3.772105759e-07
3.731153848e-07
4.042219142e-07
3.993817022e-07
3.92569248e-07
3.843673037e-07
3.75447693e-07
3.665551524e-07
3.584930056e-07
3.521234333e-07
3.483924446e-07
3.765743009e-07
3.721573934e-07
3.659431975e-07
3.584656126e-07
3.503392953e-07
3.422442896e-07
3.349124017e-07
3.291266361e-07
3.257425495e-07
3.511769172e-07
3.471611515e-07
3.415132726e-07
3.347204197e-07
3.273428387e-07
3.199994201e-07
3.133547605e-07
3.081177899e-07
3.050595818e-07
3.279438878e-07
3.243035848e-07
3.191853345e-07
3.130321799e-07
3.063532616e-07
2.997103063e-07
2.937053717e-07
2.889787238e-07
2.862232998e-07
3.067627796e-07
3.034705141e-07
2.98842901e-07
2.932818713e-07
2.872490534e-07
2.812532104e-07
2.758386625e-07
2.715824962e-07
2.69105952e-07
2.875047959e-07
2.845327064e-07
2.803562384e-07
2.753393299e-07
2.698997857e-07
2.644976393e-07
2.596242362e-07
2.557988731e-07
2.535774173e-07
2.700327817e-07
2.673534969e-07
2.635894541e-07
2.590697178e-07
2.541719203e-07
2.493115046e-07
2.449314509e-07
2.414984436e-07
2.395090411e-07
2.5420727e-07
2.517945309e-07
2.484058171e-07
2.44338349e-07
2.399331078e-07
2.355649076e-07
2.316327416e-07
2.285555734e-07
2.267763671e-07
2.398908613e-07
2.377199084e-07
2.346715778e-07
2.310141278e-07
2.270552223e-07
2.23132778e-07
2.196059041e-07
2.168504057e-07
2.152609659e-07
2.269512394e-07
2.249990243e-07
2.222585679e-07
2.18971865e-07
2.15416377e-07
2.118965965e-07
2.087355535e-07
2.062701094e-07
2.048515569e-07
2.152631115e-07
2.135083831e-07
2.110458408e-07
2.080937156e-07
2.04902146e-07
2.017454059e-07
1.989139472e-07
1.967095524e-07
1.954445901e-07
2.047093299e-07
2.031326337e-07
2.009205867e-07
1.982699526e-07
1.954061905e-07
1.925762932e-07
1.900413375e-07
1.880715517e-07
1.869444348e-07
1.951814107e-07
1.937650302e-07
1.917785149e-07
1.893992582e-07
1.868304528e-07
1.842944901e-07
1.82025989e-07
1.802668243e-07
1.792632904e-07
1.86579625e-07
1.85307488e-07
1.835238617e-07
1.813886757e-07
1.7908505e-07
1.768132103e-07
1.747839659e-07
1.732137358e-07
1.723209117e-07
1.788127997e-07
1.77670366e-07
1.760691466e-07
1.741533353e-07
1.720879687e-07
1.700533151e-07
1.682387725e-07
1.668379216e-07
1.66044218e-07
1.717979335e-07
1.707720737e-07
1.693347687e-07
1.676160393e-07
1.657646391e-07
1.639428768e-07
1.623209078e-07
1.610718344e-07
1.603668377e-07
1.654597033e-07
1.645385778e-07
1.632485126e-07
1.617067681e-07
1.600474411e-07
1.584166872e-07
1.569673767e-07
1.558542589e-07
1.552286244e-07
1.597299169e-07
1.589028587e-07
1.577450119e-07
1.563621509e-07
1.548751851e-07
1.534157474e-07
1.521211893e-07
1.511298183e-07
1.505751683e-07
1.545469503e-07
1.538043545e-07
1.527652022e-07
1.515249319e-07
1.50192591e-07
1.488867613e-07
1.477308671e-07
1.46848492e-07
1.463573211e-07
1.498551919e-07
1.491884142e-07
1.48255787e-07
1.471434496e-07
1.459497839e-07
1.447816471e-07
1.437499697e-07
1.429651547e-07
1.425307428e-07
1.456045134e-07
1.45005777e-07
1.441687282e-07
1.431711429e-07
1.421018156e-07
1.410570751e-07
1.401366485e-07
1.394391424e-07
1.390554753e-07
1.417497697e-07
1.412120806e-07
1.404607675e-07
1.395660866e-07
1.386082175e-07
1.376740377e-07
1.368532309e-07
1.362338489e-07
1.358955463e-07
1.382503361e-07
1.37767407e-07
1.37092984e-07
1.362905637e-07
1.354325868e-07
1.345974496e-07
1.338658349e-07
1.33316352e-07
1.330186033e-07
1.350696847e-07
1.346358667e-07
1.34030388e-07
1.333106708e-07
1.325422063e-07
1.317957819e-07
1.311440156e-07
1.306570701e-07
1.303955756e-07
1.321749959e-07
1.317852161e-07
1.312415481e-07
1.305959571e-07
1.299076953e-07
1.292407251e-07
1.2866044e-07
1.282294467e-07
1.280003656e-07
1.295368033e-07
1.291865089e-07
1.286982513e-07
1.281190946e-07
1.275026907e-07
1.269068819e-07
1.263905898e-07
1.260096614e-07
1.258095642e-07
1.271286708e-07
1.268137783e-07
1.263751926e-07
1.258555764e-07
1.253035559e-07
1.247714856e-07
1.243124892e-07
1.239763655e-07
1.238021915e-07
1.249268984e-07
1.246437479e-07
1.242496923e-07
1.237834424e-07
1.232891149e-07
1.228141429e-07
1.224064563e-07
1.221104397e-07
1.219594588e-07
1.229102541e-07
1.226555677e-07
1.223014383e-07
1.21883029e-07
1.214404094e-07
1.210166e-07
1.206548755e-07
1.203947734e-07
1.202645509e-07
1.210597305e-07
1.208305741e-07
1.205122513e-07
1.201367401e-07
1.197404781e-07
1.193625278e-07
1.190419909e-07
1.188140624e-07
1.187024282e-07
1.193583224e-07
1.191520713e-07
1.188658712e-07
1.185288396e-07
1.181741547e-07
1.178373273e-07
1.175537169e-07
1.173546257e-07
1.172596456e-07
1.177908243e-07
1.176051322e-07
1.173477618e-07
1.170452622e-07
1.167278847e-07
1.164279523e-07
1.161774665e-07
1.160042376e-07
1.159241883e-07
1.163436472e-07
1.161764168e-07
1.159449342e-07
1.156734406e-07
1.153895583e-07
1.151227478e-07
1.149019952e-07
1.147519762e-07
1.146853217e-07
1.150046506e-07
1.148540086e-07
1.146457859e-07
1.144021497e-07
1.141483597e-07
1.139113042e-07
1.137172597e-07
1.135880855e-07
1.13533457e-07
1.137629917e-07
1.136272647e-07
1.13439955e-07
1.132213649e-07
1.129946299e-07
1.127843248e-07
1.126142897e-07
1.125038513e-07
1.124600284e-07
1.126089878e-07
1.124866809e-07
1.123181884e-07
1.121221345e-07
1.119197428e-07
1.117335068e-07
1.115850732e-07
1.114914888e-07
1.114573831e-07
1.115339922e-07
1.114237704e-07
1.112722231e-07
1.110964636e-07
1.109159942e-07
1.107514334e-07
1.106224518e-07
1.105440422e-07
1.105186822e-07
1.105302829e-07
1.10430953e-07
1.102946785e-07
1.101372109e-07
1.099765013e-07
1.098314775e-07
1.097200283e-07
1.096552936e-07
1.096378119e-07
1.095909615e-07
1.095014573e-07
1.093789607e-07
1.092379954e-07
1.090951127e-07
1.089677152e-07
1.088720829e-07
1.088196828e-07
1.08809304e-07
1.087098637e-07
1.086292315e-07
1.085191761e-07
1.083931126e-07
1.082663285e-07
1.081548486e-07
1.080734988e-07
1.080322342e-07
1.080282645e-07
1.07881478e-07
1.078088644e-07
1.07710054e-07
1.0759746e-07
1.074852279e-07
1.073881361e-07
1.073196954e-07
1.072884928e-07
1.072903111e-07
1.07100874e-07
1.070355149e-07
1.069468781e-07
1.06846471e-07
1.067474054e-07
1.066633317e-07
1.066065694e-07
1.065844668e-07
1.065915158e-07
1.063636381e-07
1.063048486e-07
1.062254252e-07
1.061360551e-07
1.060489139e-07
1.059766297e-07
1.059304421e-07
1.05916576e-07
1.059283558e-07
1.056658162e-07
1.056129817e-07
1.055419103e-07
1.054625455e-07
1.05386214e-07
1.053246164e-07
1.052880122e-07
1.052816071e-07
1.052976682e-07
1.050038626e-07
1.049564315e-07
1.048929383e-07
1.048226521e-07
1.047561289e-07
1.047042269e-07
1.04676315e-07
1.046766734e-07
1.046966112e-07
1.043745956e-07
1.043320717e-07
1.042754613e-07
1.042134204e-07
1.041558047e-07
1.041127067e-07
1.04092685e-07
1.040991787e-07
1.041226288e-07
1.037751567e-07
1.037370938e-07
1.036867401e-07
1.036321944e-07
1.035826752e-07
1.035475779e-07
1.035347237e-07
1.035467863e-07
1.035734197e-07
1.032029756e-07
1.031689715e-07
1.031243105e-07
1.03076584e-07
1.030344302e-07
1.030066092e-07
1.030002704e-07
1.030173906e-07
1.030469102e-07
1.026557386e-07
1.026254308e-07
1.025859536e-07
1.025444363e-07
1.02508988e-07
1.024877895e-07
1.024873769e-07
1.025090924e-07
1.025412293e-07
1.021313609e-07
1.021044218e-07
1.020696691e-07
1.020338101e-07
1.020044711e-07
1.019893038e-07
1.019942847e-07
1.020201771e-07
1.020546879e-07
1.016279619e-07
1.016040956e-07
1.015736519e-07
1.01542953e-07
1.015191839e-07
1.015095128e-07
1.015194047e-07
1.01549095e-07
1.015857588e-07
1.011438434e-07
1.011227821e-07
1.010962714e-07
1.010702816e-07
1.010515939e-07
1.010469343e-07
1.010612998e-07
1.010944441e-07
1.011330604e-07
1.006774702e-07
1.006589712e-07
1.00636053e-07
1.006143634e-07
1.006003144e-07
1.006002266e-07
1.006186688e-07
1.006549548e-07
1.006953413e-07
1.002274532e-07
1.002112965e-07
1.001916618e-07
1.001739016e-07
1.001640894e-07
1.001681741e-07
1.001903324e-07
1.002294761e-07
1.00271467e-07
9.979253386e-08
9.977851975e-08
9.976188805e-08
9.974772051e-08
9.974177982e-08
9.974967425e-08
9.977522066e-08
9.98169638e-08
9.986040794e-08
9.937157107e-08
9.935951806e-08
9.934563442e-08
9.933475335e-08
9.93323522e-08
9.934372624e-08
9.937236223e-08
9.941646933e-08
9.9461229e-08
9.896352894e-08
9.895327199e-08
9.894190452e-08
9.893403135e-08
9.893486752e-08
9.894942055e-08
9.898087413e-08
9.902713056e-08
9.907308004e-08
9.85674663e-08
9.855885517e-08
9.854979275e-08
9.854467379e-08
9.854847197e-08
9.856593003e-08
9.859995316e-08
9.864816306e-08
9.869518754e-08
9.81825272e-08
9.817542502e-08
9.816847529e-08
9.816587934e-08
9.817238854e-08
9.819250174e-08
9.822886807e-08
9.827885259e-08
9.832684714e-08
9.780793255e-08
9.780221456e-08
9.779720212e-08
9.779691832e-08
9.780590953e-08
9.782844982e-08
9.786695265e-08
9.791854837e-08
9.796741703e-08
9.744297272e-08
9.743852509e-08
9.743528991e-08
9.743712584e-08
9.744839004e-08
9.747314914e-08
9.751359962e-08
9.756665711e-08
9.761631207e-08
9.708700093e-08
9.708371977e-08
9.708211579e-08
9.708589576e-08
9.709924204e-08
9.712602969e-08
9.71682552e-08
9.722263781e-08
9.727299869e-08
9.673942749e-08
9.673721797e-08
9.673711182e-08
9.674267539e-08
9.675792937e-08
9.67865717e-08
9.683041442e-08
9.688599714e-08
9.693699037e-08
9.639971483e-08
9.639849037e-08
9.639976028e-08
9.640696094e-08
9.642396334e-08
9.645430147e-08
9.649961714e-08
9.655628561e-08
9.660784382e-08
9.60673732e-08
9.606705479e-08
9.606958961e-08
9.607829363e-08
9.609689901e-08
9.612878785e-08
9.617544465e-08
9.62330943e-08
9.628515583e-08
9.574195717e-08
9.574247278e-08
9.57461712e-08
9.575625663e-08
9.577633238e-08
9.580963956e-08
9.585751715e-08
9.591605244e-08
9.596856086e-08
9.542306298e-08
9.542434707e-08
9.54291169e-08
9.544047281e-08
9.546189823e-08
9.549650324e-08
9.554549199e-08
9.560482578e-08
9.565772953e-08
9.511032673e-08
9.511231991e-08
9.511807761e-08
9.513060343e-08
9.515326913e-08
9.518906267e-08
9.523906305e-08
9.529911604e-08
9.535236806e-08
9.48034238e-08
9.480607258e-08
9.481274291e-08
9.482634812e-08
9.485015556e-08
9.488703913e-08
9.493796129e-08
9.499866172e-08
9.505221918e-08
9.450206947e-08
9.45053262e-08
9.45128422e-08
9.45274462e-08
9.455230767e-08
9.45901935e-08
9.464195716e-08
9.470324056e-08
9.47570647e-08
9.420602137e-08
9.420984443e-08
9.42181476e-08
9.423368007e-08
9.4259519e-08
9.429833035e-08
9.435086505e-08
9.441267442e-08
9.446673049e-08
9.391508394e-08
9.391943816e-08
9.392847917e-08
9.394488085e-08
9.397163277e-08
9.401130488e-08
9.406455079e-08
9.412683706e-08
9.418109448e-08
9.36291156e-08
9.363397311e-08
9.364371299e-08
9.366093724e-08
9.368855148e-08
9.372903332e-08
9.378294275e-08
9.384566591e-08
9.390009877e-08
9.334803927e-08
9.335338085e-08
9.336379295e-08
9.33818082e-08
9.341025067e-08
9.345150776e-08
9.350604779e-08
9.356917886e-08
9.362376696e-08
9.307185696e-08
9.307767404e-08
9.308874701e-08
9.310754045e-08
9.313679786e-08
9.317881667e-08
9.32339732e-08
9.329749743e-08
9.335222796e-08
9.280066934e-08
9.280696693e-08
9.28187089e-08
9.283829181e-08
9.286837773e-08
9.291117209e-08
9.296695588e-08
9.303087762e-08
9.308574806e-08
9.253470129e-08
9.254150194e-08
9.255394635e-08
9.257436146e-08
9.260532487e-08
9.264894491e-08
9.270540025e-08
9.27697501e-08
9.282477249e-08
9.227433419e-08
9.228168333e-08
9.229489678e-08
9.231622823e-08
9.234816498e-08
9.239270947e-08
9.244992608e-08
9.251477101e-08
9.256997823e-08
9.202014609e-08
9.202811902e-08
9.20422115e-08
9.206459786e-08
9.209766585e-08
9.214329846e-08
9.220142758e-08
9.226688468e-08
9.232233922e-08
9.177296022e-08
9.178167104e-08
9.1796809e-08
9.182045996e-08
9.185489862e-08
9.190186903e-08
9.196114429e-08
9.202739904e-08
9.208320488e-08
9.15339027e-08
9.154351533e-08
9.1559938e-08
9.158515522e-08
9.162130993e-08
9.166998037e-08
9.173074437e-08
9.179807404e-08
9.185439216e-08
9.130446926e-08
9.131521099e-08
9.13332502e-08
9.136045271e-08
9.139880463e-08
9.144968246e-08
9.151241964e-08
9.158122255e-08
9.163829058e-08
9.108660099e-08
9.109877848e-08
9.11188823e-08
9.114863673e-08
9.118983839e-08
9.124361515e-08
9.130899131e-08
9.137982241e-08
9.143797877e-08
9.088276816e-08
9.089678605e-08
9.091954615e-08
9.095260192e-08
9.099751866e-08
9.105511562e-08
9.112402431e-08
9.119763718e-08
9.125735004e-08
9.069606071e-08
9.071244271e-08
9.073862544e-08
9.077595456e-08
9.082571156e-08
9.088833155e-08
9.096194713e-08
9.10393424e-08
9.110124324e-08
9.053028336e-08
9.054969556e-08
9.058027625e-08
9.062311738e-08
9.067915167e-08
9.074833656e-08
9.082817329e-08
9.091065292e-08
9.097557469e-08
9.039005262e-08
9.041332857e-08
9.044952845e-08
9.049943425e-08
9.056355074e-08
9.064124356e-08
9.072921976e-08
9.08184465e-08
9.088746576e-08
9.028089233e-08
9.030905929e-08
9.035238412e-08
9.041127084e-08
9.048570099e-08
9.05743112e-08
9.067281712e-08
9.077087802e-08
9.084536069e-08
9.020932398e-08
9.024362952e-08
9.029590872e-08
9.036610649e-08
9.045356811e-08
9.055603836e-08
9.066800617e-08
9.0777479e-08
9.085912887e-08
9.018294751e-08
9.022488555e-08
9.028831053e-08
9.037261271e-08
9.047636875e-08
9.059624122e-08
9.07252156e-08
9.084923686e-08
9.094014658e-08
9.02105084e-08
9.026184365e-08
9.033900381e-08
9.044071349e-08
9.056462798e-08
9.070610829e-08
9.085631571e-08
9.099864947e-08
9.110135359e-08
9.030194645e-08
9.036473612e-08
9.045865105e-08
9.058162293e-08
9.073021202e-08
9.089822889e-08
9.107464444e-08
9.123975109e-08
9.135728139e-08
9.046842241e-08
9.054503417e-08
9.065918036e-08
9.080785621e-08
9.09863326e-08
9.118659174e-08
9.139500239e-08
9.158810756e-08
9.172405135e-08
9.072231857e-08
9.081544373e-08
9.09537747e-08
9.113321085e-08
9.134751999e-08
9.158655125e-08
9.183361555e-08
9.206077968e-08
9.221934246e-08
9.107721053e-08
9.118987163e-08
9.13568302e-08
9.157271598e-08
9.18295634e-08
9.21147607e-08
9.240806526e-08
9.26762557e-08
9.286233037e-08
9.154780789e-08
9.168336022e-08
9.188388235e-08
9.214254889e-08
9.244941824e-08
9.278907299e-08
9.313718741e-08
9.345435556e-08
9.367360115e-08
9.214986312e-08
9.231198983e-08
9.25514999e-08
9.285991946e-08
9.322508208e-08
9.362841143e-08
9.404094422e-08
9.441611145e-08
9.467504508e-08
9.290004863e-08
9.309274984e-08
9.33771479e-08
9.374292472e-08
9.417544241e-08
9.465261512e-08
9.514027445e-08
9.558363146e-08
9.588973789e-08
9.381580416e-08
9.404338079e-08
9.437902319e-08