/*--------------------------------*- C++ -*----------------------------------*\
| =========                 |                                                 |
| \\      /  F ield         | OpenFOAM: The Open Source CFD Toolbox           |
|  \\    /   O peration     | Version:  2212                                  |
|   \\  /    A nd           | Website:  www.openfoam.com                      |
|    \\/     M anipulation  |                                                 |
\*---------------------------------------------------------------------------*/
FoamFile
{
    version     2.0;
    format      ascii;
    arch        "LSB;label=32;scalar=64";
    class       volScalarField;
    location    "20.00000000";
    object      p_0;
}
// * * * * * * * * * * * * * * * * * * * * * * * * * * * * * * * * * * * * * //

dimensions      [1 -1 -2 0 0 0 0];

internalField   nonuniform List<scalar> 
3000
(
10000.16776
10000.16778
10000.16783
10000.16789
10000.16799
10000.16813
10000.16838
10000.16865
10000.16957
10000.16775
10000.16775
10000.16778
10000.16781
10000.16785
10000.16789
10000.16797
10000.16798
10000.16807
10000.16772
10000.16772
10000.16774
10000.16776
10000.16779
10000.16783
10000.16787
10000.16787
10000.16791
10000.16762
10000.16761
10000.16762
10000.16762
10000.16763
10000.16763
10000.16763
10000.16762
10000.1676
10000.16754
10000.16753
10000.16753
10000.16753
10000.16753
10000.16752
10000.16752
10000.16751
10000.16749
10000.16742
10000.16741
10000.16741
10000.1674
10000.1674
10000.16739
10000.16738
10000.16738
10000.16736
10000.16732
10000.16731
10000.16731
10000.1673
10000.1673
10000.16729
10000.16729
10000.16728
10000.16728
10000.16722
10000.16721
10000.16721
10000.1672
10000.1672
10000.16719
10000.16719
10000.16719
10000.16718
10000.16712
10000.16712
10000.16712
10000.16711
10000.16711
10000.16711
10000.1671
10000.1671
10000.1671
10000.16703
10000.16703
10000.16702
10000.16702
10000.16702
10000.16702
10000.16701
10000.16701
10000.16701
10000.16694
10000.16694
10000.16694
10000.16694
10000.16693
10000.16693
10000.16693
10000.16693
10000.16693
10000.16686
10000.16685
10000.16685
10000.16685
10000.16685
10000.16685
10000.16685
10000.16685
10000.16685
10000.16677
10000.16677
10000.16677
10000.16677
10000.16677
10000.16677
10000.16677
10000.16677
10000.16676
10000.16669
10000.16669
10000.16669
10000.16669
10000.16669
10000.16669
10000.16669
10000.16669
10000.16668
10000.16661
10000.16661
10000.16661
10000.16661
10000.16661
10000.16661
10000.16661
10000.1666
10000.1666
10000.16653
10000.16653
10000.16653
10000.16653
10000.16653
10000.16653
10000.16653
10000.16652
10000.16652
10000.16645
10000.16645
10000.16645
10000.16645
10000.16645
10000.16645
10000.16645
10000.16645
10000.16644
10000.16637
10000.16637
10000.16637
10000.16637
10000.16637
10000.16637
10000.16637
10000.16637
10000.16637
10000.16629
10000.16629
10000.16629
10000.16629
10000.16629
10000.16629
10000.16629
10000.16629
10000.16629
10000.16621
10000.16621
10000.16621
10000.16621
10000.16621
10000.16621
10000.16621
10000.16621
10000.16621
10000.16613
10000.16613
10000.16613
10000.16613
10000.16613
10000.16613
10000.16613
10000.16613
10000.16613
10000.16605
10000.16605
10000.16605
10000.16605
10000.16605
10000.16605
10000.16605
10000.16605
10000.16605
10000.16597
10000.16597
10000.16597
10000.16597
10000.16597
10000.16597
10000.16597
10000.16597
10000.16597
10000.16589
10000.16589
10000.16589
10000.16589
10000.16589
10000.16589
10000.16589
10000.16589
10000.16589
10000.16581
10000.16581
10000.16581
10000.16581
10000.16581
10000.16581
10000.16581
10000.16581
10000.16581
10000.16573
10000.16573
10000.16573
10000.16573
10000.16573
10000.16573
10000.16573
10000.16573
10000.16573
10000.16565
10000.16565
10000.16565
10000.16565
10000.16565
10000.16565
10000.16565
10000.16565
10000.16565
10000.16557
10000.16557
10000.16557
10000.16557
10000.16557
10000.16557
10000.16557
10000.16557
10000.16557
10000.16549
10000.16549
10000.16549
10000.16549
10000.16549
10000.16549
10000.16549
10000.16549
10000.16549
10000.16541
10000.16541
10000.16541
10000.16541
10000.16541
10000.16541
10000.16541
10000.16541
10000.16541
10000.16533
10000.16533
10000.16533
10000.16533
10000.16533
10000.16533
10000.16533
10000.16533
10000.16533
10000.16525
10000.16525
10000.16525
10000.16525
10000.16525
10000.16525
10000.16525
10000.16525
10000.16525
10000.16517
10000.16517
10000.16517
10000.16517
10000.16517
10000.16517
10000.16517
10000.16517
10000.16517
10000.16508
10000.16508
10000.16508
10000.16509
10000.16509
10000.16509
10000.16509
10000.16508
10000.16508
10000.165
10000.165
10000.165
10000.165
10000.165
10000.165
10000.165
10000.165
10000.16499
10000.16491
10000.16491
10000.16491
10000.16491
10000.16491
10000.16491
10000.16491
10000.16491
10000.1649
10000.16481
10000.16482
10000.16482
10000.16482
10000.16482
10000.16482
10000.16482
10000.16482
10000.16481
10000.16472
10000.16472
10000.16472
10000.16472
10000.16472
10000.16472
10000.16472
10000.16472
10000.16471
10000.16462
10000.16462
10000.16462
10000.16462
10000.16462
10000.16462
10000.16462
10000.16461
10000.1646
10000.16451
10000.16451
10000.16451
10000.16451
10000.16451
10000.16451
10000.16451
10000.16451
10000.16449
10000.1644
10000.1644
10000.1644
10000.1644
10000.1644
10000.1644
10000.16439
10000.16439
10000.16437
10000.16427
10000.16427
10000.16428
10000.16428
10000.16428
10000.16427
10000.16427
10000.16426
10000.16425
10000.16414
10000.16414
10000.16415
10000.16415
10000.16414
10000.16414
10000.16413
10000.16413
10000.16411
10000.164
10000.164
10000.164
10000.164
10000.164
10000.164
10000.16399
10000.16398
10000.16396
10000.16385
10000.16385
10000.16385
10000.16385
10000.16385
10000.16384
10000.16383
10000.16383
10000.1638
10000.16369
10000.16369
10000.16369
10000.16368
10000.16368
10000.16367
10000.16366
10000.16365
10000.16362
10000.16351
10000.16351
10000.16351
10000.1635
10000.1635
10000.16349
10000.16348
10000.16347
10000.16344
10000.16332
10000.16331
10000.16331
10000.16331
10000.1633
10000.16329
10000.16328
10000.16327
10000.16323
10000.16311
10000.1631
10000.1631
10000.16309
10000.16308
10000.16307
10000.16306
10000.16305
10000.16301
10000.16288
10000.16287
10000.16287
10000.16286
10000.16285
10000.16284
10000.16282
10000.16281
10000.16277
10000.16263
10000.16263
10000.16262
10000.16261
10000.1626
10000.16259
10000.16257
10000.16255
10000.16251
10000.16236
10000.16236
10000.16235
10000.16234
10000.16233
10000.16231
10000.16229
10000.16228
10000.16223
10000.16208
10000.16207
10000.16206
10000.16205
10000.16203
10000.16202
10000.16199
10000.16198
10000.16194
10000.16177
10000.16176
10000.16175
10000.16173
10000.16172
10000.1617
10000.16168
10000.16166
10000.16162
10000.16143
10000.16143
10000.16141
10000.1614
10000.16138
10000.16136
10000.16134
10000.16132
10000.16127
10000.16108
10000.16107
10000.16106
10000.16104
10000.16102
10000.161
10000.16098
10000.16096
10000.16091
10000.1607
10000.16069
10000.16068
10000.16066
10000.16064
10000.16062
10000.16059
10000.16057
10000.16052
10000.1603
10000.16029
10000.16027
10000.16025
10000.16023
10000.16021
10000.16018
10000.16016
10000.16012
10000.15987
10000.15986
10000.15984
10000.15982
10000.1598
10000.15978
10000.15975
10000.15973
10000.15969
10000.15942
10000.15941
10000.15939
10000.15937
10000.15935
10000.15932
10000.1593
10000.15928
10000.15923
10000.15895
10000.15894
10000.15892
10000.1589
10000.15887
10000.15885
10000.15882
10000.1588
10000.15876
10000.15845
10000.15844
10000.15842
10000.1584
10000.15838
10000.15835
10000.15832
10000.1583
10000.15826
10000.15793
10000.15792
10000.1579
10000.15788
10000.15785
10000.15783
10000.1578
10000.15778
10000.15774
10000.15739
10000.15738
10000.15736
10000.15734
10000.15731
10000.15729
10000.15726
10000.15724
10000.1572
10000.15682
10000.15681
10000.15679
10000.15677
10000.15675
10000.15672
10000.1567
10000.15668
10000.15664
10000.15624
10000.15623
10000.15621
10000.15619
10000.15616
10000.15614
10000.15611
10000.15609
10000.15605
10000.15563
10000.15562
10000.1556
10000.15558
10000.15556
10000.15554
10000.15551
10000.15549
10000.15545
10000.15501
10000.155
10000.15498
10000.15496
10000.15494
10000.15491
10000.15489
10000.15487
10000.15483
10000.15436
10000.15435
10000.15434
10000.15432
10000.15429
10000.15427
10000.15425
10000.15423
10000.15419
10000.1537
10000.15369
10000.15368
10000.15366
10000.15363
10000.15361
10000.15359
10000.15357
10000.15354
10000.15302
10000.15301
10000.153
10000.15298
10000.15296
10000.15293
10000.15291
10000.15289
10000.15286
10000.15233
10000.15232
10000.1523
10000.15228
10000.15226
10000.15224
10000.15222
10000.1522
10000.15217
10000.15162
10000.15161
10000.15159
10000.15157
10000.15155
10000.15153
10000.15151
10000.15149
10000.15147
10000.15089
10000.15088
10000.15087
10000.15085
10000.15083
10000.15081
10000.15079
10000.15077
10000.15075
10000.15015
10000.15014
10000.15013
10000.15011
10000.15009
10000.15007
10000.15005
10000.15004
10000.15001
10000.1494
10000.14939
10000.14937
10000.14936
10000.14934
10000.14932
10000.1493
10000.14929
10000.14927
10000.14863
10000.14862
10000.14861
10000.14859
10000.14858
10000.14856
10000.14854
10000.14853
10000.14851
10000.14785
10000.14785
10000.14783
10000.14782
10000.1478
10000.14778
10000.14777
10000.14775
10000.14773
10000.14706
10000.14706
10000.14704
10000.14703
10000.14701
10000.147
10000.14698
10000.14697
10000.14695
10000.14627
10000.14626
10000.14625
10000.14623
10000.14622
10000.1462
10000.14619
10000.14618
10000.14616
10000.14546
10000.14545
10000.14544
10000.14543
10000.14541
10000.1454
10000.14538
10000.14537
10000.14535
10000.14464
10000.14463
10000.14462
10000.14461
10000.1446
10000.14458
10000.14457
10000.14456
10000.14454
10000.14381
10000.14381
10000.1438
10000.14378
10000.14377
10000.14376
10000.14374
10000.14373
10000.14372
10000.14298
10000.14297
10000.14296
10000.14295
10000.14294
10000.14293
10000.14291
10000.1429
10000.14289
10000.14214
10000.14213
10000.14212
10000.14211
10000.1421
10000.14209
10000.14207
10000.14207
10000.14205
10000.14129
10000.14128
10000.14127
10000.14126
10000.14125
10000.14124
10000.14123
10000.14122
10000.14121
10000.14043
10000.14043
10000.14042
10000.14041
10000.1404
10000.14039
10000.14038
10000.14037
10000.14036
10000.13957
10000.13957
10000.13956
10000.13955
10000.13954
10000.13953
10000.13952
10000.13951
10000.1395
10000.1387
10000.1387
10000.13869
10000.13868
10000.13867
10000.13866
10000.13866
10000.13865
10000.13864
10000.13783
10000.13783
10000.13782
10000.13781
10000.1378
10000.1378
10000.13779
10000.13778
10000.13777
10000.13696
10000.13695
10000.13695
10000.13694
10000.13693
10000.13692
10000.13692
10000.13691
10000.1369
10000.13608
10000.13607
10000.13607
10000.13606
10000.13605
10000.13604
10000.13604
10000.13603
10000.13603
10000.13519
10000.13519
10000.13518
10000.13518
10000.13517
10000.13516
10000.13516
10000.13515
10000.13515
10000.13431
10000.1343
10000.1343
10000.13429
10000.13429
10000.13428
10000.13427
10000.13427
10000.13427
10000.13342
10000.13341
10000.13341
10000.1334
10000.1334
10000.13339
10000.13339
10000.13339
10000.13338
10000.13252
10000.13252
10000.13252
10000.13251
10000.13251
10000.1325
10000.1325
10000.1325
10000.13249
10000.13163
10000.13163
10000.13162
10000.13162
10000.13162
10000.13161
10000.13161
10000.13161
10000.1316
10000.13073
10000.13073
10000.13073
10000.13073
10000.13072
10000.13072
10000.13072
10000.13071
10000.13071
10000.12984
10000.12984
10000.12983
10000.12983
10000.12983
10000.12982
10000.12982
10000.12982
10000.12982
10000.12894
10000.12894
10000.12894
10000.12893
10000.12893
10000.12893
10000.12893
10000.12892
10000.12892
10000.12804
10000.12804
10000.12804
10000.12803
10000.12803
10000.12803
10000.12803
10000.12803
10000.12802
10000.12714
10000.12714
10000.12714
10000.12714
10000.12713
10000.12713
10000.12713
10000.12713
10000.12713
10000.12624
10000.12624
10000.12624
10000.12624
10000.12623
10000.12623
10000.12623
10000.12623
10000.12623
10000.12534
10000.12534
10000.12534
10000.12534
10000.12533
10000.12533
10000.12533
10000.12533
10000.12533
10000.12444
10000.12444
10000.12444
10000.12443
10000.12443
10000.12443
10000.12443
10000.12443
10000.12443
10000.12353
10000.12353
10000.12353
10000.12353
10000.12353
10000.12353
10000.12353
10000.12353
10000.12353
10000.12263
10000.12263
10000.12263
10000.12263
10000.12263
10000.12263
10000.12263
10000.12263
10000.12263
10000.12173
10000.12173
10000.12173
10000.12173
10000.12173
10000.12173
10000.12173
10000.12173
10000.12173
10000.12083
10000.12083
10000.12083
10000.12083
10000.12083
10000.12083
10000.12083
10000.12083
10000.12082
10000.11992
10000.11992
10000.11992
10000.11992
10000.11992
10000.11992
10000.11992
10000.11992
10000.11992
10000.11902
10000.11902
10000.11902
10000.11902
10000.11902
10000.11902
10000.11902
10000.11902
10000.11902
10000.11812
10000.11812
10000.11812
10000.11812
10000.11812
10000.11812
10000.11812
10000.11812
10000.11812
10000.11722
10000.11722
10000.11722
10000.11722
10000.11722
10000.11722
10000.11722
10000.11722
10000.11722
10000.11631
10000.11631
10000.11631
10000.11631
10000.11631
10000.11631
10000.11631
10000.11631
10000.11631
10000.11541
10000.11541
10000.11541
10000.11541
10000.11541
10000.11541
10000.11541
10000.11541
10000.11541
10000.11451
10000.11451
10000.11451
10000.11451
10000.11451
10000.11451
10000.11451
10000.11451
10000.11451
10000.1136
10000.1136
10000.1136
10000.1136
10000.1136
10000.1136
10000.1136
10000.1136
10000.1136
10000.1127
10000.1127
10000.1127
10000.1127
10000.1127
10000.1127
10000.1127
10000.1127
10000.1127
10000.1118
10000.1118
10000.1118
10000.1118
10000.1118
10000.1118
10000.1118
10000.1118
10000.1118
10000.11089
10000.11089
10000.11089
10000.11089
10000.11089
10000.11089
10000.11089
10000.11089
10000.11089
10000.10999
10000.10999
10000.10999
10000.10999
10000.10999
10000.10999
10000.10999
10000.10999
10000.10999
10000.10909
10000.10909
10000.10909
10000.10909
10000.10909
10000.10909
10000.10909
10000.10909
10000.10909
10000.10818
10000.10818
10000.10818
10000.10818
10000.10819
10000.10819
10000.10819
10000.10819
10000.10819
10000.10728
10000.10728
10000.10728
10000.10728
10000.10728
10000.10728
10000.10728
10000.10728
10000.10728
10000.10638
10000.10638
10000.10638
10000.10638
10000.10638
10000.10638
10000.10638
10000.10638
10000.10638
10000.10548
10000.10548
10000.10548
10000.10548
10000.10548
10000.10548
10000.10548
10000.10548
10000.10548
10000.10457
10000.10457
10000.10457
10000.10457
10000.10457
10000.10457
10000.10457
10000.10457
10000.10457
10000.10367
10000.10367
10000.10367
10000.10367
10000.10367
10000.10367
10000.10367
10000.10367
10000.10367
10000.10277
10000.10277
10000.10277
10000.10277
10000.10277
10000.10277
10000.10277
10000.10277
10000.10277
10000.10187
10000.10187
10000.10187
10000.10187
10000.10187
10000.10187
10000.10187
10000.10187
10000.10187
10000.10096
10000.10096
10000.10096
10000.10096
10000.10096
10000.10097
10000.10097
10000.10097
10000.10097
10000.10006
10000.10006
10000.10006
10000.10006
10000.10006
10000.10006
10000.10006
10000.10006
10000.10006
10000.09916
10000.09916
10000.09916
10000.09916
10000.09916
10000.09916
10000.09916
10000.09916
10000.09916
10000.09826
10000.09826
10000.09826
10000.09826
10000.09826
10000.09826
10000.09826
10000.09826
10000.09826
10000.09736
10000.09736
10000.09736
10000.09736
10000.09736
10000.09736
10000.09736
10000.09736
10000.09736
10000.09646
10000.09646
10000.09646
10000.09646
10000.09646
10000.09646
10000.09646
10000.09646
10000.09646
10000.09556
10000.09556
10000.09556
10000.09556
10000.09556
10000.09556
10000.09556
10000.09556
10000.09556
10000.09466
10000.09466
10000.09466
10000.09466
10000.09466
10000.09466
10000.09466
10000.09466
10000.09466
10000.09376
10000.09376
10000.09376
10000.09376
10000.09376
10000.09376
10000.09376
10000.09376
10000.09376
10000.09285
10000.09285
10000.09285
10000.09286
10000.09286
10000.09286
10000.09286
10000.09286
10000.09286
10000.09195
10000.09195
10000.09195
10000.09196
10000.09196
10000.09196
10000.09196
10000.09196
10000.09196
10000.09105
10000.09106
10000.09106
10000.09106
10000.09106
10000.09106
10000.09106
10000.09106
10000.09106
10000.09016
10000.09016
10000.09016
10000.09016
10000.09016
10000.09016
10000.09016
10000.09016
10000.09016
10000.08926
10000.08926
10000.08926
10000.08926
10000.08926
10000.08926
10000.08926
10000.08926
10000.08926
10000.08836
10000.08836
10000.08836
10000.08836
10000.08836
10000.08836
10000.08836
10000.08836
10000.08836
10000.08746
10000.08746
10000.08746
10000.08746
10000.08746
10000.08746
10000.08746
10000.08746
10000.08746
10000.08656
10000.08656
10000.08656
10000.08656
10000.08656
10000.08656
10000.08656
10000.08656
10000.08656
10000.08566
10000.08566
10000.08566
10000.08566
10000.08566
10000.08566
10000.08566
10000.08566
10000.08566
10000.08476
10000.08476
10000.08476
10000.08476
10000.08476
10000.08476
10000.08476
10000.08476
10000.08476
10000.08387
10000.08387
10000.08387
10000.08387
10000.08387
10000.08387
10000.08387
10000.08387
10000.08387
10000.08297
10000.08297
10000.08297
10000.08297
10000.08297
10000.08297
10000.08297
10000.08297
10000.08297
10000.08207
10000.08207
10000.08207
10000.08207
10000.08207
10000.08207
10000.08207
10000.08207
10000.08207
10000.08117
10000.08117
10000.08117
10000.08117
10000.08117
10000.08117
10000.08117
10000.08117
10000.08118
10000.08028
10000.08028
10000.08028
10000.08028
10000.08028
10000.08028
10000.08028
10000.08028
10000.08028
10000.07938
10000.07938
10000.07938
10000.07938
10000.07938
10000.07938
10000.07938
10000.07938
10000.07938
10000.07848
10000.07848
10000.07848
10000.07848
10000.07848
10000.07848
10000.07848
10000.07848
10000.07849
10000.07759
10000.07759
10000.07759
10000.07759
10000.07759
10000.07759
10000.07759
10000.07759
10000.07759
10000.07669
10000.07669
10000.07669
10000.07669
10000.07669
10000.07669
10000.07669
10000.07669
10000.07669
10000.0758
10000.0758
10000.0758
10000.0758
10000.0758
10000.0758
10000.0758
10000.0758
10000.0758
10000.0749
10000.0749
10000.0749
10000.0749
10000.0749
10000.0749
10000.0749
10000.0749
10000.0749
10000.07401
10000.07401
10000.07401
10000.07401
10000.07401
10000.07401
10000.07401
10000.07401
10000.07401
10000.07311
10000.07311
10000.07311
10000.07311
10000.07311
10000.07311
10000.07311
10000.07311
10000.07311
10000.07222
10000.07222
10000.07222
10000.07222
10000.07222
10000.07222
10000.07222
10000.07222
10000.07222
10000.07132
10000.07132
10000.07132
10000.07132
10000.07132
10000.07132
10000.07132
10000.07132
10000.07132
10000.07043
10000.07043
10000.07043
10000.07043
10000.07043
10000.07043
10000.07043
10000.07043
10000.07043
10000.06953
10000.06953
10000.06953
10000.06953
10000.06953
10000.06953
10000.06954
10000.06954
10000.06954
10000.06864
10000.06864
10000.06864
10000.06864
10000.06864
10000.06864
10000.06864
10000.06864
10000.06864
10000.06775
10000.06775
10000.06775
10000.06775
10000.06775
10000.06775
10000.06775
10000.06775
10000.06775
10000.06685
10000.06685
10000.06685
10000.06685
10000.06685
10000.06685
10000.06686
10000.06686
10000.06686
10000.06596
10000.06596
10000.06596
10000.06596
10000.06596
10000.06596
10000.06596
10000.06596
10000.06596
10000.06507
10000.06507
10000.06507
10000.06507
10000.06507
10000.06507
10000.06507
10000.06507
10000.06507
10000.06418
10000.06418
10000.06418
10000.06418
10000.06418
10000.06418
10000.06418
10000.06418
10000.06418
10000.06328
10000.06328
10000.06328
10000.06328
10000.06328
10000.06329
10000.06329
10000.06329
10000.06329
10000.06239
10000.06239
10000.06239
10000.06239
10000.06239
10000.06239
10000.06239
10000.06239
10000.06239
10000.0615
10000.0615
10000.0615
10000.0615
10000.0615
10000.0615
10000.0615
10000.0615
10000.0615
10000.06061
10000.06061
10000.06061
10000.06061
10000.06061
10000.06061
10000.06061
10000.06061
10000.06061
10000.05972
10000.05972
10000.05972
10000.05972
10000.05972
10000.05972
10000.05972
10000.05972
10000.05972
10000.05883
10000.05883
10000.05883
10000.05883
10000.05883
10000.05883
10000.05883
10000.05883
10000.05883
10000.05794
10000.05794
10000.05794
10000.05794
10000.05794
10000.05794
10000.05794
10000.05794
10000.05794
10000.05705
10000.05705
10000.05705
10000.05705
10000.05705
10000.05705
10000.05705
10000.05705
10000.05705
10000.05616
10000.05616
10000.05616
10000.05616
10000.05616
10000.05616
10000.05616
10000.05616
10000.05616
10000.05527
10000.05527
10000.05527
10000.05527
10000.05527
10000.05527
10000.05527
10000.05527
10000.05527
10000.05438
10000.05438
10000.05438
10000.05438
10000.05438
10000.05438
10000.05438
10000.05438
10000.05438
10000.05349
10000.05349
10000.05349
10000.05349
10000.05349
10000.05349
10000.05349
10000.05349
10000.05349
10000.0526
10000.0526
10000.0526
10000.0526
10000.0526
10000.0526
10000.0526
10000.0526
10000.0526
10000.05171
10000.05171
10000.05171
10000.05171
10000.05171
10000.05171
10000.05171
10000.05171
10000.05171
10000.05082
10000.05082
10000.05082
10000.05082
10000.05082
10000.05082
10000.05082
10000.05082
10000.05082
10000.04993
10000.04993
10000.04993
10000.04993
10000.04993
10000.04993
10000.04993
10000.04993
10000.04993
10000.04904
10000.04904
10000.04904
10000.04904
10000.04904
10000.04904
10000.04904
10000.04904
10000.04905
10000.04816
10000.04816
10000.04816
10000.04816
10000.04816
10000.04816
10000.04816
10000.04816
10000.04816
10000.04727
10000.04727
10000.04727
10000.04727
10000.04727
10000.04727
10000.04727
10000.04727
10000.04727
10000.04638
10000.04638
10000.04638
10000.04638
10000.04638
10000.04638
10000.04638
10000.04638
10000.04638
10000.04549
10000.04549
10000.04549
10000.0455
10000.0455
10000.0455
10000.0455
10000.0455
10000.0455
10000.04461
10000.04461
10000.04461
10000.04461
10000.04461
10000.04461
10000.04461
10000.04461
10000.04461
10000.04372
10000.04372
10000.04372
10000.04372
10000.04372
10000.04373
10000.04373
10000.04373
10000.04373
10000.04284
10000.04284
10000.04284
10000.04284
10000.04284
10000.04284
10000.04284
10000.04284
10000.04285
10000.04196
10000.04196
10000.04196
10000.04196
10000.04196
10000.04196
10000.04196
10000.04196
10000.04196
10000.04107
10000.04107
10000.04108
10000.04108
10000.04108
10000.04108
10000.04108
10000.04108
10000.04108
10000.04019
10000.04019
10000.04019
10000.0402
10000.0402
10000.0402
10000.0402
10000.0402
10000.0402
10000.03932
10000.03932
10000.03932
10000.03932
10000.03932
10000.03932
10000.03932
10000.03932
10000.03933
10000.03844
10000.03844
10000.03844
10000.03844
10000.03844
10000.03844
10000.03844
10000.03845
10000.03845
10000.03757
10000.03757
10000.03757
10000.03757
10000.03757
10000.03757
10000.03757
10000.03757
10000.03758
10000.0367
10000.0367
10000.0367
10000.0367
10000.0367
10000.0367
10000.0367
10000.0367
10000.03671
10000.03583
10000.03583
10000.03583
10000.03583
10000.03583
10000.03583
10000.03583
10000.03584
10000.03584
10000.03496
10000.03496
10000.03496
10000.03497
10000.03497
10000.03497
10000.03497
10000.03497
10000.03498
10000.0341
10000.0341
10000.03411
10000.03411
10000.03411
10000.03411
10000.03411
10000.03412
10000.03413
10000.03325
10000.03325
10000.03325
10000.03325
10000.03325
10000.03326
10000.03326
10000.03326
10000.03327
10000.0324
10000.0324
10000.0324
10000.0324
10000.0324
10000.03241
10000.03241
10000.03242
10000.03243
10000.03156
10000.03156
10000.03156
10000.03156
10000.03156
10000.03157
10000.03157
10000.03158
10000.03159
10000.03072
10000.03072
10000.03072
10000.03072
10000.03073
10000.03073
10000.03074
10000.03074
10000.03076
10000.02989
10000.02989
10000.02989
10000.0299
10000.0299
10000.0299
10000.02991
10000.02991
10000.02993
10000.02907
10000.02907
10000.02907
10000.02908
10000.02908
10000.02908
10000.02909
10000.0291
10000.02911
10000.02826
10000.02826
10000.02826
10000.02826
10000.02827
10000.02827
10000.02828
10000.02829
10000.02831
10000.02746
10000.02746
10000.02746
10000.02746
10000.02747
10000.02747
10000.02748
10000.02749
10000.02751
10000.02667
10000.02667
10000.02667
10000.02667
10000.02667
10000.02668
10000.02669
10000.0267
10000.02672
10000.02588
10000.02589
10000.02589
10000.02589
10000.02589
10000.0259
10000.02591
10000.02592
10000.02594
10000.02511
10000.02512
10000.02512
10000.02512
10000.02512
10000.02513
10000.02514
10000.02515
10000.02517
10000.02436
10000.02436
10000.02436
10000.02436
10000.02437
10000.02437
10000.02438
10000.02439
10000.02442
10000.02361
10000.02361
10000.02361
10000.02362
10000.02362
10000.02363
10000.02364
10000.02365
10000.02368
10000.02288
10000.02288
10000.02288
10000.02289
10000.02289
10000.0229
10000.02291
10000.02292
10000.02295
10000.02216
10000.02216
10000.02216
10000.02217
10000.02217
10000.02218
10000.02219
10000.0222
10000.02223
10000.02146
10000.02146
10000.02146
10000.02146
10000.02147
10000.02148
10000.02149
10000.0215
10000.02153
10000.02077
10000.02077
10000.02077
10000.02077
10000.02078
10000.02079
10000.0208
10000.02081
10000.02085
10000.02009
10000.02009
10000.02009
10000.0201
10000.02011
10000.02011
10000.02013
10000.02014
10000.02017
10000.01943
10000.01943
10000.01944
10000.01944
10000.01945
10000.01946
10000.01947
10000.01948
10000.01952
10000.01879
10000.01879
10000.01879
10000.0188
10000.0188
10000.01881
10000.01883
10000.01884
10000.01887
10000.01816
10000.01816
10000.01816
10000.01817
10000.01817
10000.01818
10000.0182
10000.01821
10000.01825
10000.01754
10000.01755
10000.01755
10000.01755
10000.01756
10000.01757
10000.01759
10000.0176
10000.01763
10000.01695
10000.01695
10000.01695
10000.01696
10000.01697
10000.01698
10000.01699
10000.017
10000.01704
10000.01637
10000.01637
10000.01637
10000.01638
10000.01639
10000.01639
10000.01641
10000.01642
10000.01646
10000.0158
10000.0158
10000.01581
10000.01581
10000.01582
10000.01583
10000.01584
10000.01586
10000.01589
10000.01525
10000.01525
10000.01526
10000.01526
10000.01527
10000.01528
10000.0153
10000.01531
10000.01535
10000.01472
10000.01472
10000.01472
10000.01473
10000.01474
10000.01475
10000.01476
10000.01478
10000.01481
10000.0142
10000.0142
10000.01421
10000.01421
10000.01422
10000.01423
10000.01425
10000.01426
10000.0143
10000.0137
10000.0137
10000.01371
10000.01371
10000.01372
10000.01373
10000.01375
10000.01376
10000.01379
10000.01321
10000.01322
10000.01322
10000.01323
10000.01323
10000.01325
10000.01326
10000.01327
10000.01331
10000.01274
10000.01274
10000.01275
10000.01276
10000.01276
10000.01277
10000.01279
10000.0128
10000.01284
10000.01229
10000.01229
10000.01229
10000.0123
10000.01231
10000.01232
10000.01233
10000.01235
10000.01238
10000.01184
10000.01185
10000.01185
10000.01186
10000.01187
10000.01188
10000.01189
10000.0119
10000.01194
10000.01142
10000.01142
10000.01142
10000.01143
10000.01144
10000.01145
10000.01146
10000.01148
10000.01151
10000.011
10000.01101
10000.01101
10000.01102
10000.01103
10000.01104
10000.01105
10000.01106
10000.0111
10000.01061
10000.01061
10000.01061
10000.01062
10000.01063
10000.01064
10000.01065
10000.01066
10000.01069
10000.01022
10000.01022
10000.01023
10000.01023
10000.01024
10000.01025
10000.01026
10000.01028
10000.01031
10000.00985
10000.00985
10000.00985
10000.00986
10000.00987
10000.00988
10000.00989
10000.0099
10000.00993
10000.00949
10000.00949
10000.00949
10000.0095
10000.00951
10000.00952
10000.00953
10000.00954
10000.00957
10000.00914
10000.00914
10000.00915
10000.00915
10000.00916
10000.00917
10000.00918
10000.00919
10000.00922
10000.0088
10000.00881
10000.00881
10000.00882
10000.00882
10000.00883
10000.00885
10000.00886
10000.00888
10000.00848
10000.00848
10000.00849
10000.00849
10000.0085
10000.00851
10000.00852
10000.00853
10000.00856
10000.00817
10000.00817
10000.00817
10000.00818
10000.00819
10000.00819
10000.00821
10000.00822
10000.00824
10000.00786
10000.00787
10000.00787
10000.00788
10000.00788
10000.00789
10000.0079
10000.00791
10000.00794
10000.00757
10000.00757
10000.00758
10000.00758
10000.00759
10000.0076
10000.00761
10000.00762
10000.00764
10000.00729
10000.00729
10000.0073
10000.0073
10000.00731
10000.00732
10000.00733
10000.00734
10000.00736
10000.00702
10000.00702
10000.00702
10000.00703
10000.00703
10000.00704
10000.00705
10000.00706
10000.00709
10000.00675
10000.00676
10000.00676
10000.00676
10000.00677
10000.00678
10000.00679
10000.0068
10000.00682
10000.0065
10000.0065
10000.0065
10000.00651
10000.00652
10000.00652
10000.00653
10000.00654
10000.00656
10000.00625
10000.00625
10000.00626
10000.00626
10000.00627
10000.00628
10000.00629
10000.00629
10000.00632
10000.00601
10000.00602
10000.00602
10000.00603
10000.00603
10000.00604
10000.00605
10000.00606
10000.00608
10000.00578
10000.00579
10000.00579
10000.00579
10000.0058
10000.00581
10000.00582
10000.00582
10000.00584
10000.00556
10000.00556
10000.00557
10000.00557
10000.00558
10000.00558
10000.00559
10000.0056
10000.00562
10000.00535
10000.00535
10000.00535
10000.00536
10000.00536
10000.00537
10000.00538
10000.00538
10000.0054
10000.00514
10000.00514
10000.00514
10000.00515
10000.00515
10000.00516
10000.00517
10000.00517
10000.00519
10000.00493
10000.00494
10000.00494
10000.00494
10000.00495
10000.00496
10000.00496
10000.00497
10000.00499
10000.00474
10000.00474
10000.00474
10000.00475
10000.00475
10000.00476
10000.00477
10000.00477
10000.00479
10000.00455
10000.00455
10000.00455
10000.00456
10000.00456
10000.00457
10000.00458
10000.00458
10000.0046
10000.00436
10000.00437
10000.00437
10000.00437
10000.00438
10000.00438
10000.00439
10000.0044
10000.00441
10000.00419
10000.00419
10000.00419
10000.00419
10000.0042
10000.0042
10000.00421
10000.00422
10000.00423
10000.00401
10000.00401
10000.00402
10000.00402
10000.00402
10000.00403
10000.00404
10000.00404
10000.00406
10000.00384
10000.00384
10000.00385
10000.00385
10000.00386
10000.00386
10000.00387
10000.00387
10000.00388
10000.00368
10000.00368
10000.00368
10000.00369
10000.00369
10000.0037
10000.0037
10000.00371
10000.00372
10000.00352
10000.00352
10000.00352
10000.00353
10000.00353
10000.00354
10000.00354
10000.00355
10000.00356
10000.00336
10000.00337
10000.00337
10000.00337
10000.00338
10000.00338
10000.00339
10000.00339
10000.0034
10000.00321
10000.00321
10000.00322
10000.00322
10000.00322
10000.00323