/*--------------------------------*- C++ -*----------------------------------*\
| =========                 |                                                 |
| \\      /  F ield         | OpenFOAM: The Open Source CFD Toolbox           |
|  \\    /   O peration     | Version:  2212                                  |
|   \\  /    A nd           | Website:  www.openfoam.com                      |
|    \\/     M anipulation  |                                                 |
\*---------------------------------------------------------------------------*/
FoamFile
{
    version     2.0;
    format      ascii;
    arch        "LSB;label=32;scalar=64";
    class       volScalarField;
    location    "20.00000000";
    object      PC3H4;
}
// * * * * * * * * * * * * * * * * * * * * * * * * * * * * * * * * * * * * * //

dimensions      [0 0 0 0 0 0 0];

internalField   nonuniform List<scalar> 
3000
(
2.215620945e-20
2.488837172e-20
2.901089203e-20
3.450404732e-20
4.131187206e-20
4.924964269e-20
5.783953685e-20
6.603668999e-20
7.183271713e-20
8.318354855e-20
9.381769065e-20
1.098564766e-19
1.312750648e-19
1.580517147e-19
1.900396566e-19
2.266845319e-19
2.661480082e-19
3.010978577e-19
1.863310897e-19
2.118034269e-19
2.505884316e-19
3.03245369e-19
3.70719059e-19
4.539906434e-19
5.527305655e-19
6.61409453e-19
7.542643822e-19
3.549156135e-19
4.076617875e-19
4.891540439e-19
6.021462865e-19
7.506389062e-19
9.384081017e-19
1.164428415e-18
1.410634942e-18
1.609339958e-18
6.302599879e-19
7.328173014e-19
8.937644974e-19
1.121273887e-18
1.426042966e-18
1.816618999e-18
2.286473115e-18
2.785468777e-18
3.168511411e-18
1.08381406e-18
1.276312503e-18
1.582743103e-18
2.02266017e-18
2.619527795e-18
3.388374885e-18
4.306232396e-18
5.25737324e-18
5.961044474e-18
1.840003282e-18
2.193608775e-18
2.76305673e-18
3.589791119e-18
4.719833891e-18
6.175645902e-18
7.896990926e-18
9.645884968e-18
1.090778028e-17
3.114033354e-18
3.753934448e-18
4.793586156e-18
6.314623505e-18
8.40182471e-18
1.108519437e-17
1.423004907e-17
1.737862937e-17
1.961251998e-17
5.278882236e-18
6.424592716e-18
8.298032591e-18
1.105272861e-17
1.483939403e-17
1.969428989e-17
2.534306688e-17
3.093966433e-17
3.486662303e-17
8.980642417e-18
1.101584824e-17
1.435892393e-17
1.929031465e-17
2.607309685e-17
3.474636835e-17
4.478200885e-17
5.465228412e-17
6.152683592e-17
1.533978299e-17
1.8934197e-17
2.485710745e-17
3.36114882e-17
4.565261969e-17
6.10151267e-17
7.871775078e-17
9.604071681e-17
1.080471796e-16
2.630082676e-17
3.262251109e-17
4.306216203e-17
5.851160889e-17
7.97560543e-17
1.068107024e-16
1.378922432e-16
1.682011525e-16
1.891439407e-16
4.524087336e-17
5.632676116e-17
7.466175936e-17
1.018160241e-16
1.391419288e-16
1.866030472e-16
2.409971014e-16
2.939017625e-16
3.304317574e-16
7.80259116e-17
9.742747178e-17
1.295509967e-16
1.771508563e-16
2.425574427e-16
3.256063799e-16
4.205322947e-16
5.125529075e-16
5.76492821e-16
1.348402609e-16
1.687456841e-16
2.249331915e-16
3.082338544e-16
4.226863677e-16
5.678457942e-16
7.331689664e-16
8.919594399e-16
1.005200083e-15
2.333491076e-16
2.925226532e-16
3.906564944e-16
5.362346504e-16
7.363820546e-16
9.906357195e-16
1.281862806e-15
1.565686922e-15
1.756873137e-15
4.041729936e-16
5.072957376e-16
6.783858752e-16
9.322374787e-16
1.281169057e-15
1.724022758e-15
2.229974994e-15
2.719988211e-15
3.055134832e-15
7.004115692e-16
8.79902066e-16
1.177757263e-15
1.619694402e-15
2.226978624e-15
2.997229314e-15
3.876320523e-15
4.726761393e-15
5.309466878e-15
1.214192185e-15
1.526330807e-15
2.044382708e-15
2.813028921e-15
3.869059734e-15
5.208012689e-15
6.735500157e-15
8.212600716e-15
9.224548498e-15
2.105407499e-15
2.647921355e-15
3.548429596e-15
4.88456266e-15
6.720072714e-15
9.046864063e-15
1.17005911e-14
1.426606556e-14
1.602320332e-14
3.651613925e-15
4.594212089e-15
6.158966612e-15
8.480747912e-15
1.167010725e-14
1.571255076e-14
2.032210233e-14
2.477736913e-14
2.78282305e-14
6.334680167e-15
7.972076882e-15
1.069043441e-14
1.472402534e-14
2.026458945e-14
2.728633475e-14
3.52918333e-14
4.30279189e-14
4.832461806e-14
1.099127795e-14
1.383527496e-14
1.855703384e-14
2.556338697e-14
3.51868614e-14
4.738168826e-14
6.128286122e-14
7.471390859e-14
8.390885728e-14
1.907427886e-14
2.401369105e-14
3.22145671e-14
4.438319713e-14
6.109613964e-14
8.227226098e-14
1.064076374e-13
1.297233153e-13
1.456835087e-13
3.310681015e-14
4.168522861e-14
5.592783004e-14
7.706031876e-14
1.060819363e-13
1.428488207e-13
1.847468663e-13
2.252154803e-13
2.52914786e-13
5.747078374e-14
7.23688861e-14
9.710291444e-14
1.337989225e-13
1.841873877e-13
2.480121842e-13
3.207296431e-13
3.909524516e-13
4.390109766e-13
9.977616263e-14
1.256491031e-13
1.686000905e-13
2.323144921e-13
3.197858091e-13
4.305545087e-13
5.567214468e-13
6.785263986e-13
7.618671707e-13
1.73237936e-13
2.181689902e-13
2.92747584e-13
4.033561393e-13
5.551644641e-13
7.473397588e-13
9.661452383e-13
1.177303855e-12
1.321733274e-12
3.007983655e-13
3.78820285e-13
5.082979792e-13
7.002707355e-13
9.636459425e-13
1.296894394e-12
1.676116862e-12
2.041884506e-12
2.291941425e-12
5.222682365e-13
6.57731982e-13
8.824690161e-13
1.215540652e-12
1.67224482e-12
2.249727185e-12
2.906381877e-12
3.539244973e-12
3.971594262e-12
9.066777965e-13
1.141810145e-12
1.531742711e-12
2.109311938e-12
2.900676219e-12
3.900408992e-12
5.036023915e-12
6.12930628e-12
6.875444173e-12
1.573590296e-12
1.981537463e-12
2.657692484e-12
3.658445842e-12
5.028264016e-12
6.75663385e-12
8.717162412e-12
1.060181194e-11
1.188624004e-11
2.729776955e-12
3.43704493e-12
4.608473876e-12
6.340504908e-12
8.708138883e-12
1.169064844e-11
1.506746617e-11
1.830716843e-11
2.051092655e-11
4.732099893e-12
5.956998596e-12
7.98387879e-12
1.097679044e-11
1.506094907e-11
2.01948974e-11
2.59934903e-11
3.154227685e-11
3.530740065e-11
8.194867148e-12
1.031301733e-11
1.381380882e-11
1.897436506e-11
2.600097414e-11
3.480989463e-11
4.472849367e-11
5.418861024e-11
6.058745596e-11
1.417218082e-11
1.782738562e-11
2.385944173e-11
3.273237134e-11
4.478022514e-11
5.983308391e-11
7.671693912e-11
9.275462049e-11
1.035599688e-10
2.44658498e-11
3.075621543e-11
4.111744894e-11
5.631797601e-11
7.688680734e-11
1.024795287e-10
1.310505793e-10
1.580555327e-10
1.761639503e-10
4.214187335e-11
5.29292157e-11
7.065658201e-11
9.657918905e-11
1.315107459e-10
1.747576351e-10
2.227672863e-10
2.67880327e-10
2.9796354e-10
7.239032939e-11
9.080870035e-11
1.209917322e-10
1.649557005e-10
2.239046214e-10
2.964573494e-10
3.764755229e-10
4.511604059e-10
5.006487671e-10
1.239452011e-10
1.552258282e-10
2.06315737e-10
2.803883326e-10
3.791320421e-10
4.99839141e-10
6.319797527e-10
7.54382832e-10
8.349231948e-10
2.114075442e-10
2.641975254e-10
3.500809407e-10
4.739306595e-10
6.379326224e-10
8.368785341e-10
1.052874993e-09
1.251304187e-09
1.380884509e-09
3.590091579e-10
4.474454741e-10
5.906737957e-10
7.959561833e-10
1.065761643e-09
1.390288038e-09
1.739479184e-09
2.057448424e-09
2.263447677e-09
6.066444583e-10
7.535590589e-10
9.902868283e-10
1.327261719e-09
1.766517672e-09
2.290040407e-09
2.848018147e-09
3.351455159e-09
3.674966216e-09
1.019425278e-09
1.261206674e-09
1.648602486e-09
2.19593271e-09
2.903095481e-09
3.737802508e-09
4.618723493e-09
5.40614214e-09
5.908036313e-09
1.702627813e-09
2.09645493e-09
2.723613968e-09
3.602613311e-09
4.727754696e-09
6.04262548e-09
7.416524072e-09
8.633237576e-09
9.402604249e-09
2.824766452e-09
3.459167195e-09
4.462886283e-09
5.857886948e-09
7.626460033e-09
9.672517755e-09
1.178940843e-08
1.364723274e-08
1.481305119e-08
4.652723829e-09
5.662702958e-09
7.249894969e-09
9.436921375e-09
1.218293959e-08
1.532827832e-08
1.855144497e-08
2.135584628e-08
2.310304925e-08
7.604486622e-09
9.192832022e-09
1.167188726e-08
1.505849918e-08
1.927037308e-08
2.404835272e-08
2.89000461e-08
3.308736864e-08
3.567886609e-08
1.232720571e-08
1.479404885e-08
1.861814516e-08
2.379821375e-08
3.018155442e-08
3.735670545e-08
4.458058391e-08
5.076891893e-08
5.457570875e-08
1.981118071e-08
2.359450286e-08
2.942079213e-08
3.724918259e-08
4.681231467e-08
5.747004576e-08
6.811620744e-08
7.717473214e-08
8.271700091e-08
3.155418565e-08
3.728479046e-08
4.605463319e-08
5.774838735e-08
7.191823253e-08
8.758652256e-08
1.031270442e-07
1.162704448e-07
1.242736514e-07
4.979561311e-08
5.837121149e-08
7.141828806e-08
8.869302819e-08
1.094715311e-07
1.322855503e-07
1.547712476e-07
1.736883318e-07
1.851599259e-07
7.784663343e-08
9.053123818e-08
1.097265341e-07
1.34979493e-07
1.651538876e-07
1.980779891e-07
2.303507993e-07
2.573797378e-07
2.737146225e-07
1.205514732e-07
1.391086374e-07
1.670541402e-07
2.036083766e-07
2.470320546e-07
2.941573338e-07
3.401369477e-07
3.785034486e-07
4.016284379e-07
1.849160429e-07
2.117842836e-07
2.520705448e-07
3.045029066e-07
3.664750583e-07
4.334218626e-07
4.984901443e-07
5.52623615e-07
5.851853211e-07
2.809716264e-07
3.194992599e-07
3.770500989e-07
4.516278221e-07
5.393953498e-07
6.338417083e-07
7.253437159e-07
8.012803455e-07
8.468759441e-07
4.229534137e-07
4.777090774e-07
5.59235851e-07
6.644910546e-07
7.879068804e-07
9.20274769e-07
1.048154731e-06
1.154032767e-06
1.217486728e-06
6.308850309e-07
7.080662583e-07
8.226644683e-07
9.701449449e-07
1.142519451e-06
1.326847344e-06
1.504445725e-06
1.651139191e-06
1.738886919e-06
9.326912426e-07
1.040656655e-06
1.200579047e-06
1.405811876e-06
1.644991585e-06
1.900034904e-06
2.145125439e-06
2.347124078e-06
2.467762969e-06
1.366966165e-06
1.516914531e-06
1.738549851e-06
2.022251548e-06
2.351979536e-06
2.702648434e-06
3.03885952e-06
3.315471903e-06
3.480478803e-06
1.986493716e-06
2.193307529e-06
2.498397209e-06
2.888001343e-06
3.339702599e-06
3.819017151e-06
4.277739911e-06
4.654653481e-06
4.879308443e-06
2.862562687e-06
3.145858189e-06
3.563047868e-06
4.094723555e-06
4.709910384e-06
5.361582642e-06
5.984429423e-06
6.495723955e-06
6.8003013e-06
4.090185142e-06
4.475682471e-06
5.042579398e-06
5.763901135e-06
6.597276828e-06
7.478992217e-06
8.320943697e-06
9.011688407e-06
9.423031813e-06
5.794482004e-06
6.315780022e-06
7.081572192e-06
8.054846958e-06
9.178156881e-06
1.036568091e-05
1.149906941e-05
1.242868904e-05
1.298225762e-05
8.138231822e-06
8.838939989e-06
9.867522623e-06
1.117378372e-05
1.26804549e-05
1.427265315e-05
1.579213981e-05
1.703864584e-05
1.778112257e-05
1.133016955e-05
1.226634856e-05
1.363990793e-05
1.538347446e-05
1.739402567e-05
1.951879685e-05
2.154727432e-05
2.32123533e-05
2.420482433e-05
1.563354909e-05
1.687631519e-05
1.869918315e-05
2.101267926e-05
2.368064153e-05
2.650139212e-05
2.919647085e-05
3.141112372e-05
3.273264309e-05
2.137425149e-05
2.301243825e-05
2.541499532e-05
2.846429843e-05
3.198199381e-05
3.570390533e-05
3.926414584e-05
4.219409293e-05
4.39451172e-05
2.894791646e-05
3.10903921e-05
3.423239067e-05
3.822074167e-05
4.282390481e-05
4.769873125e-05
5.236820712e-05
5.621770497e-05
5.852248374e-05
3.882498385e-05
4.160215815e-05
4.567473198e-05
5.084494672e-05
5.681480927e-05
6.314253822e-05
6.921190186e-05
7.422425555e-05
7.723102936e-05
5.155250392e-05
5.511642506e-05
6.034186046e-05
6.697539493e-05
7.463669334e-05
8.276234089e-05
9.056467224e-05
9.701804005e-05
0.0001008962795
6.775117962e-05
7.227354637e-05
7.890181665e-05
8.731342062e-05
9.702691469e-05
0.0001073311111
0.0001172316002
0.000125429962
0.0001303654816
8.810568771e-05
9.377311666e-05
0.0001020742581
0.0001126011511
0.000124749618
0.0001376322063
0.0001500113853
0.0001602713059
0.000166459452
0.0001133461671
0.0001203522484
0.0001306040096
0.0001435890588
0.0001585563653
0.0001744124286
0.0001896420994
0.0002022660753
0.0002098811474
0.0001442193766
0.000152753529
0.0001652245219
0.0001809940642
0.0001991386099
0.0002183300962
0.0002367355333
0.0002519681509
0.0002611469078
0.000181449766
0.0001916836057
0.0002066132511
0.000225451112
0.0002470769991
0.0002698872555
0.0002916997053
0.0003097066268
0.0003205388077
0.0002256929996
0.000237765474
0.0002553439344
0.0002774639309
0.0003027679771
0.0003293569692
0.0003546869445
0.0003755276787
0.0003880341607
0.0002774894689
0.0002914897196
0.000311820646
0.0003373150988
0.0003663594675
0.0003967407268
0.000425552406
0.0004491624526
0.0004632872494
0.0003371798478
0.0003531186151
0.0003761963828
0.0004050227142
0.0004377091175
0.0004717296016
0.0005038302425
0.0005300139698
0.0005456217207
0.0004048347357
0.0004226402254
0.0004483388815
0.0004803032238
0.0005163672985
0.0005537006088
0.0005887354683
0.0006171681788
0.0006340478313
0.0004802223179
0.0004997350164
0.000527803922
0.0005625595991
0.0006015685031
0.0006417202315
0.0006791851787
0.0007094265179
0.0007273012859
0.0005627830663
0.0005837564075
0.0006138217726
0.0006508803073
0.0006922488036
0.0007345791996
0.0007738417717
0.0008053574954
0.0008238996526
0.0006516268592
0.0006737364722
0.0007053190863
0.0007440657019
0.0007870816535
0.0008308351133
0.0008711700986
0.0009033616748
0.0009222110447
0.0007455524169
0.000768410518
0.0008009466033
0.0008406751473
0.0008845365895
0.0009288804373
0.0009695084524
0.001001746363
0.001020530836
0.0008430893937
0.0008662644448
0.0008991347589
0.0009390824687
0.0009829409156
0.001027013599
0.001067145346
0.001098805889
0.001117164674
0.0009425596481
0.000965599377
0.000998162552
0.001037551779
0.001080558656
0.001123517357
0.00116239996
0.001192906934
0.001210529838
0.001042153318
0.001064609067
0.001096236178
0.001134316366
0.001175668953
0.001216736516
0.001253700194
0.001282553622
0.001299136489
0.001140015602
0.001161466274
0.001191574445
0.001227662164
0.001266645486
0.001305152093
0.00133959854
0.001366323063
0.001381602611
0.001234342165
0.001254416397
0.001282500625
0.00131602026
0.001352029031
0.001387363263
0.001418764515
0.001442973656
0.001456740506
0.001323487917
0.001341881893
0.001367518162
0.001397954593
0.001430452755
0.001462126068
0.001490077781
0.001511483939
0.001523587239
0.001405946403
0.001422393755
0.001445224166
0.001472180454
0.001500773799
0.001528437597
0.001552665584
0.001571084789
0.001581434063
0.001480371626
0.001494683582
0.001514461466
0.001537672426
0.001562112772
0.001585564234
0.001605926225
0.001621277446
0.001629841082
0.001545700598
0.001557768294
0.001574359533
0.001593694457
0.001613878918
0.001633057912
0.001649537987
0.001661836727
0.001668637261
0.001601187323
0.001610980233
0.001624359756
0.001639816814
0.001655779119
0.001670756992
0.001683453149
0.00169280009
0.0016979069
0.001646420273
0.001653980209
0.001664222501
0.001675915789
0.001687810221
0.001698771873
0.001707878241
0.001714444286
0.001717964545
0.001681319599
0.001686750814
0.001694015243
0.00170215605
0.001710235854
0.001717457146
0.001723242824
0.001727252142
0.00172932095
0.001706114245
0.001709570752
0.00171408335
0.001718957757
0.001723550375
0.001727373254
0.00173015988
0.001731872541
0.001732643108
0.001721301859
0.001722973335
0.001725006976
0.001726952112
0.001728433695
0.001729241395
0.001729381432
0.001729077027
0.001728711612
0.001727596332
0.001727694048
0.001727548958
0.001726930119
0.001725701512
0.001723895666
0.001721752837
0.001719716067
0.001718378179
0.001725868801
0.001724612667
0.001722598721
0.001719788949
0.001716254698
0.00171223585
0.001708168858
0.001704677787
0.001702525926
0.001717087568
0.001714695226
0.001711117225
0.001706480595
0.001701032097
0.001695184354
0.001689534332
0.001684851524
0.001682034557
0.001702262388
0.00169894078
0.001694087199
0.001687966259
0.001680969354
0.001673649349
0.001666731063
0.00166109752
0.001657751572
0.001682396601
0.001678336075
0.001672471327
0.001665178646
0.001656965488
0.001648495382
0.001640591852
0.001634223442
0.001630470133
0.001658449144
0.001653819921
0.001647179823
0.00163899321
0.001629857888
0.001620521832
0.001611881822
0.001604967766
0.001600913532
0.001631307085
0.001626257704
0.001619047604
0.001610208331
0.001600405511
0.00159044885
0.001581286598
0.001573989546
0.001569725786
0.001601768113
0.001596425391
0.001588820326
0.001579533629
0.00156927944
0.001558909939
0.001549406516
0.001541863732
0.001537467537
0.001570531658
0.001565001731
0.001557148007
0.001547585156
0.001537059647
0.001526450032
0.001516755712
0.001509080994
0.001504616264
0.001538196993
0.00153256705
0.001524584715
0.001514886021
0.001504236418
0.001493527707
0.001483765004
0.001476051037
0.001471569804
0.001505266436
0.00149960678
0.001491592519
0.001481870817
0.001471215322
0.001460520534
0.001450787482
0.001443108344
0.001438652175
0.001472152022
0.001466518265
0.00145854846
0.001448892745
0.001438324403
0.001427732315
0.001418105766
0.00141051943
0.001406120828
0.00143918431
0.001433619526
0.001425753248
0.001416232197
0.001405822628
0.001395401382
0.001385940151
0.001378490877
0.001374174614
0.001406622185
0.001401158923
0.001393440713
0.00138410596
0.001373908814
0.001363709243
0.001354457023
0.001347177557
0.001342961912
0.001374662851
0.001369324951
0.00136178733
0.001352676408
0.001342730471
0.001332789095
0.00132377706
0.001316690622
0.001312588493
0.00134345145
0.001338255638
0.00133092131
0.00132206024
0.001312392167
0.001302733818
0.001293982932
0.001287104962
0.001283124853
0.001313089957
0.001308047224
0.001300930979
0.001292336508
0.001282963177
0.001273603283
0.001265126286
0.001258465967
0.001254612841
0.001283645165
0.001278761937
0.001271872272
0.00126355377
0.001254484298
0.001245430819
0.001237233935
0.001230795489
0.001227071511
0.001255155686
0.001250434807
0.001243775285
0.001235736347
0.001226973778
0.001218228844
0.001210313215
0.001204097008
0.00120050216
0.001227637955
0.001223079507
0.001216649885
0.001208889663
0.001200432379
0.001191993654
0.001184356542
0.001178359995
0.001174892607
0.001201091312
0.001196693285
0.00119049045
0.001183004746
0.001174847628
0.001166709438
0.001159345211
0.001153563566
0.00115022074
0.001175502225
0.001171261067
0.001165279789
0.001158061955
0.001150197332
0.001142351579
0.001135252525
0.001129679459
0.001126457421
0.001150847749
0.001146758808
0.001140992362
0.001134034016
0.001126452431
0.001118889338
0.001112046312
0.001106674439
0.00110356883
0.001127098332
0.001123156213
0.001117596863
0.001110888475
0.001103579294
0.001096287997
0.001089690941
0.001084512209
0.001081518302
0.001104220047
0.001100418893
0.001095058284
0.001088589625
0.001081541522
0.001074510533
0.001068148886
0.001063154888
0.001060267771
0.001082176349
0.001078510057
0.001073339517
0.001067100019
0.001060301351
0.00105351892
0.001047381932
0.001042564146
0.001039778853
0.001060929433
0.001057391824
0.001052402596
0.001046381622
0.001039820712
0.0010332751
0.00102735207
0.001022702039
0.001020013654
0.001040441265
0.001037026213
0.001032209629
0.001026396674
0.001020062024
0.001013741705
0.001008022158
0.001003531623
0.001000935355
0.001020674343
0.001017375864
0.001012723469
0.001007108311
0.001000988756
0.0009948825661
0.0009893563758
0.0009850173703
0.0009825086037
0.001001592232
0.0009984045529
0.0009939082016
0.0009884810049
0.0009825658218
0.0009766630565
0.000971320532
0.0009671254436
0.0009646997736
0.0009831599552
0.0009800775566
0.0009757294696
0.0009704808524
0.0009647598269
0.0009590503062
0.0009538822447
0.0009498238537
0.0009474771071
0.0009653442284
0.0009623618735
0.0009581546736
0.0009530757485
0.000947539216
0.0009420133194
0.0009370110342
0.0009330825333
0.0009308107788
0.0009481136017
0.0009452263485
0.0009411530792
0.0009362354723
0.0009308743351
0.0009255230155
0.0009206783458
0.0009168733455
0.0009146728955
0.0009314385162
0.0009286417222
0.0009246958518
0.0009199317057
0.0009147374339
0.0009095522156
0.0009048575221
0.0009011700453
0.0008990374525
0.000915291305
0.0009125806239
0.0009087560397
0.0009041380049
0.0008991026249
0.0008940755898
0.0008895237404
0.0008859482101
0.000883880259
0.0008996461519
0.0008970175247
0.0008933085199
0.0008888297377
0.0008839458115
0.0008790695775
0.0008746539256
0.0008711851466
0.0008691788434
0.0008844790197
0.0008819286623
0.0008783299178
0.0008739839973
0.0008692445969
0.0008645122897
0.0008602266487
0.0008568597869
0.0008549123462
0.0008697675598
0.0008672919482
0.0008637985111
0.0008595795027
0.0008549781797
0.000850383403
0.0008462220172
0.0008429525764
0.0008410614081
0.0008554910095
0.0008530868634
0.0008496941238
0.0008455964906
0.0008411272447
0.0008366640473
0.0008326215625
0.0008294453603
0.0008276080556
0.0008416300833
0.0008392943493
0.0008359980165
0.0008320166049
0.0008276738515
0.0008233366946
0.0008194081279
0.0008163212723
0.0008145355893
0.0008281668633
0.0008258966979
0.0008226927759
0.0008188227866
0.0008146013246
0.0008103850499
0.0008065657602
0.0008035646259
0.0008018284766
0.0008150846902
0.0008128774433
0.0008097622078
0.0008059991671
0.0008018941481
0.0007977939461
0.000794079606
0.0007911608125
0.0007894722496
0.0008023680592
0.0008002212581
0.0007971912338
0.0007935309666
0.000789537865
0.000785549246
0.0007819358149
0.0007790962052
0.0007774534101
0.0007900025202
0.0007879138546
0.000784965794
0.0007814043982
0.0007775189835
0.0007736377496
0.0007701214486
0.0007673580699
0.000765759341
0.0007779745851
0.0007759418929
0.0007730727563
0.000769606579
0.0007658248899
0.0007620471091
0.0007586243982
0.0007559344831
0.0007543782258
0.0007662716411
0.0007642928954
0.0007614998329
0.0007581254481
0.0007544437685
0.0007507657512
0.0007474333072
0.0007448142576
0.0007432989744
0.0007548818712
0.0007529551684
0.0007502355025
0.0007469496912
0.0007433645281
0.0007397828053
0.0007365375029
0.0007339868745
0.0007325111562
0.0007437941818
0.0007419177303
0.0007392689409
0.0007360686721
0.0007325767359
0.0007290880392
0.0007259269329
0.0007234424215
0.0007220049393
0.0007329981362
0.0007311702465
0.0007285899566
0.0007254723709
0.000722070557
0.000718671801
0.0007155921091
0.0007131715378
0.0007117710362
0.000722483895
0.0007207029707
0.0007181889339
0.000715151328
0.0007118367004
0.0007085249661
0.0007055240561
0.0007031653643
0.0007018006543
0.0007122421618
0.0007105066915
0.0007080567803
0.0007050965933
0.0007018663699
0.0006986388903
0.0006957142661
0.000693415499
0.0006920854527
0.000702264135
0.0007005726847
0.0006981848802
0.0006952996815
0.0006921512206
0.0006890053677
0.0006861546574
0.0006839139573
0.0006826175023
0.0006925414641
0.0006908926707
0.0006885650535
0.0006857525314
0.00068268332
0.0006796165926
0.0006768375383
0.0006746531361
0.0006733892509
0.0006830662107
0.0006814587759
0.0006791895176
0.0006764474695
0.0006734551124
0.0006704651259
0.0006677555742
0.0006656257821
0.0006643934922
0.0006738308135
0.0006722634987
0.0006700508544
0.0006673771779
0.0006644593881
0.0006615438651
0.0006589017586
0.0006568249637
0.0006556233374
0.0006648280572
0.0006632996786
0.0006611419804
0.0006585346653
0.0006556892555
0.0006528460171
0.0006502693869
0.0006482440453
0.0006470721906
0.0006560510447
0.0006545604691
0.0006524561201
0.0006499132411
0.000647138116
0.0006443650744
0.0006418520334
0.0006398766649
0.0006387337266
0.0006474931724
0.0006460393132
0.0006439867819
0.0006415064927
0.0006387996422
0.0006360947937
0.0006336435306
0.000631716714
0.0006306018706
0.0006391481075
0.0006377299215
0.0006357277376
0.0006333082645
0.0006306677574
0.0006280291768
0.0006256379504
0.0006237583195
0.0006226707815
0.000631009769
0.0006296262532
0.0006276730025
0.00062531264
0.0006227366186
0.0006201624535
0.0006178295883
0.0006159958279
0.0006149348348
0.0006230723091
0.0006217224981
0.0006198168193
0.000617513925
0.0006150006002
0.0006124890662
0.0006102129477
0.0006084237906
0.0006073886095
0.0006153300981
0.0006140130615
0.0006121536425
0.0006099066332
0.0006074542801
0.0006050036563
0.0006027827275
0.0006010369509
0.000600026875
0.0006077777098
0.00060649255
0.000604678125
0.000602485473
0.0006000924268
0.0005977010521
0.0005955338096
0.0005938302331
0.0005928445795
0.000600409909
0.0005991557592
0.0005973851057
0.0005952453356
0.0005929099881
0.0005905762577
0.0005884612487
0.0005867987314
0.0005858368401
0.0005932216398
0.0005919976625
0.0005902695989
0.0005881812843
0.0005859020807
0.0005836244428
0.0005815602625
0.0005799377007
0.0005789989335
0.0005862080159
0.0005850134008
0.0005833267842
0.0005812885452
0.0005790639813
0.0005768409341
0.000574826223
0.0005732425487
0.0005723262875
0.0005793643105
0.0005781982736
0.0005765519976
0.0005745624985
0.0005723911178
0.0005702212075
0.0005682546488
0.0005667088275
0.0005658144739
0.000572685949
0.0005715477307
0.0005699407238
0.0005679986706
0.0005658790622
0.0005637608801
0.000561841198
0.0005603322273
0.0005594592012
0.0005661685006
0.000565057365
0.0005634885887
0.0005615927275
0.0005595235239
0.0005574557042
0.000555581662
0.0005541085701
0.0005532563092
0.0005598076722
0.0005587229057
0.0005571913531
0.0005553404679
0.0005533203429
0.0005513015615
0.0005494719596
0.0005480338038
0.0005472017626
0.0005535993016
0.0005525402122
0.0005510449068
0.000549237818
0.0005472654852
0.0005452944573
0.0005435081319
0.0005421039976
0.0005412916469
0.0005475393528
0.000546505269
0.0005450452631
0.0005432808264
0.0005413550373
0.0005394305162
0.0005376863379
0.0005363153375
0.0005355221636
0.0005416239107
0.0005406141808
0.0005391885547
0.0005374656591
0.0005355852022
0.0005337059777
0.0005320028502
0.0005306641221
0.0005298896263
0.0005358491766
0.000534863168
0.000533471029
0.0005317885963
0.0005299522953
0.0005281171926
0.0005264540516
0.0005251467593
0.0005243904576
0.000530211465
0.0005292485636
0.000527889045
0.0005262460283
0.0005244527414
0.00052266062
0.0005210364324
0.0005197597639
0.0005190211864
0.0005247072
0.0005237668096
0.0005224390701
0.0005208344533
0.0005190830721
0.0005173328249
0.0005157465878
0.000514499755
0.0005137784456
0.0005193329129
0.000518414455
0.000517117678
0.0005155504748
0.0005138399236
0.0005121304763
0.0005105812166
0.0005093634546
0.0005086589707
0.0005140852405
0.0005131881536
0.0005119215469
0.0005103908006
0.0005087200357
0.0005070503463
0.0005055371199
0.0005043476871
0.0005036595995
0.0005089609237
0.0005080846635
0.0005068474589
0.0005053522417
0.0005037202516
0.0005020893098
0.0005006112019
0.0004994493794
0.0004987772722
0.0005039568076
0.0005031008465
0.0005018922998
0.000500431713
0.0004988375178
0.0004972443454
0.0004958004702
0.0004946655621
0.0004940090327
0.0004990698417
0.0004982336692
0.0004970530601
0.0004956262344
0.0004940688862
0.0004925125371
0.0004911020382
0.0004899933718
0.0004893520311
0.0004942970817
0.0004934802046
0.0004923268374
0.000490932933
0.0004894115166
0.0004878910777
0.0004865131287
0.000485430055
0.0004848035277
0.0004896356924
0.0004888376351
0.0004877108391
0.0004863490467
0.0004848626806
0.0004833772727
0.0004820310782
0.000480972973
0.0004803608983
0.0004850829512
0.0004843032564
0.000483202387
0.0004818719293
0.000480419767
0.0004789685463
0.0004776533435
0.0004766196085
0.0004760216403
0.0004806362534
0.0004798744831
0.0004787989231
0.0004774990561
0.0004760802882
0.0004746624484
0.000473377509
0.0004723675731
0.0004717833817
0.0004762931188
0.0004755488554
0.0004744980166
0.0004732280319
0.0004718418882
0.0004704566633
0.0004692012958
0.0004682146175
0.0004676438905
0.0004720511984
0.0004713240461
0.0004702973717
0.0004690565991
0.0004677023521
0.0004663490189
0.0004651225718
0.0004641586417
0.0004636010852
0.0004679082837
0.0004671978704
0.000466194837
0.0004649826477
0.0004636596155
0.0004623374979
0.0004611393633
0.0004601977068
0.0004596530478
0.0004638623158
0.0004631682948
0.0004621884156
0.0004610042255
0.0004597117764
0.0004584202494
0.0004572498667
0.0004563300475
0.0004557980357
0.0004599113954
0.0004592334479
0.0004582762756
0.0004571195496
0.0004558571064
0.0004545956007
0.0004534524613
0.0004525540852
0.0004520344952
0.0004560537935
0.0004553916306
0.0004544567615
0.0004533270173
0.0004520940621
0.0004508620695
0.0004497457216
0.0004488684406
0.0004483610745
0.0004522879618
0.0004516413276
0.0004507284044
0.0004496252179
0.0004484212971
0.0004472183757
0.0004461284297
0.000445271946
0.0004447766365
0.0004486125431
0.0004479812169
0.0004470899332
0.0004460129425
0.0004448376728
0.0004436634525
0.0004425995861
0.0004417636571
0.0004412802696
0.0004450263807
0.0004444101801
0.0004435402843
0.000442489195
0.0004413422683
0.0004401964568
0.0004391584205
0.0004383428629
0.000437871299
0.0004415285282
0.0004409273114
0.0004400786104
0.0004390532007
0.0004379343903
0.0004368167786
0.000435804401
0.0004350090954
0.0004345492952
0.0004381182588
0.0004375319274
0.0004367042902
0.0004357044148
0.0004346135798
0.000433524048
0.0004325372418
0.0004317621374
0.0004313140827
0.0004347950722
0.0004342235741
0.0004334169358
0.000432442531
0.000431379622
0.0004303181444
0.0004293569106
0.0004286020296
0.0004281657463
0.0004315587029
0.0004310020347
0.0004302164001
0.0004292674884
0.0004282325524
0.000427199203
0.0004262636367
0.000425529078
0.0004251046392
0.0004284091272
0.0004278673368
0.0004271027846
0.0004261794791
0.0004251726652
0.0004241676233
0.0004232579182
0.0004225438622
0.0004221313899
0.000425346572
0.0004248197612
0.0004240764474
0.0004231789573
0.0004222005219
0.0004212240773
0.0004203405314
0.0004196472437
0.0004192469115
0.0004223715235
0.0004218598512
0.0004211380134
0.0004202666486
0.0004193169611
0.0004183695203
0.0004175125411
0.0004168403761
0.0004164524114
0.0004194847384
0.0004189884232
0.000418288385
0.0004174435613
0.0004165231101
0.000415605202
0.0004147753113
0.0004141247166
0.0004137494022
0.0004166872559
0.0004162065794
0.0004155287547
0.0004147109995
0.0004138203974
0.0004129326789
0.0004121305175
0.0004115020365
0.0004111397116
0.0004139804111
0.0004135157209
0.0004128606179
0.0004120705749
0.0004112105647
0.0004103538248
0.0004095801558
0.0004089744291
0.0004086254893
0.0004113658477
0.0004109175598
0.0004102857845
0.0004095242172
0.0004086956742
0.0004078708367
0.0004071265461
0.0004065443104
0.0004062092056
0.0004088455274
0.0004084141274
0.000407806385
0.0004070741777
0.00040627811
0.000405486231
0.000404772323
0.0004042144056
0.0004038936355
0.0004064217329
0.0004060077752
0.0004054248677
0.0004047230213
0.0004039605629
0.0004032028214
0.0004025204076
0.0004019877139
0.0004016818183
0.0004040970572
0.0004037011599
0.0004031439783
0.0004024735987
0.0004017459936
0.0004010236717
0.0004003739475
0.0003998674391