/*--------------------------------*- C++ -*----------------------------------*\
| =========                 |                                                 |
| \\      /  F ield         | OpenFOAM: The Open Source CFD Toolbox           |
|  \\    /   O peration     | Version:  2212                                  |
|   \\  /    A nd           | Website:  www.openfoam.com                      |
|    \\/     M anipulation  |                                                 |
\*---------------------------------------------------------------------------*/
FoamFile
{
    version     2.0;
    format      ascii;
    arch        "LSB;label=32;scalar=64";
    class       surfaceScalarField;
    location    "20.00000000";
    object      phi_0;
}
// * * * * * * * * * * * * * * * * * * * * * * * * * * * * * * * * * * * * * //

dimensions      [1 0 -1 0 0 0 0];

oriented        oriented;

internalField   nonuniform List<scalar> 
5690
(
-5.465404645e-11
8.582855329e-10
1.327474469e-11
-1.341629359e-10
1.421119922e-09
-2.675342503e-10
1.983836095e-09
-4.777855907e-10
2.554088013e-09
-7.885404653e-10
3.132843219e-09
-1.1973595e-09
3.69439304e-09
-1.609654883e-09
4.146935668e-09
-1.626088357e-09
4.186059337e-09
2.964773633e-09
-1.15493e-10
9.453262987e-10
2.845222303e-11
-2.66243586e-10
1.571870339e-09
-4.845301661e-10
2.202122747e-09
-7.645768971e-10
2.834134843e-09
-1.073693132e-09
3.441959647e-09
-1.32347469e-09
3.944174602e-09
-1.353227228e-09
4.176688006e-09
-9.104394074e-10
3.743270978e-09
2.054334268e-09
-1.516694176e-10
1.058768726e-09
3.822695887e-11
-3.351476998e-10
1.755348449e-09
-5.76744045e-10
2.443718877e-09
-8.452688942e-10
3.102659297e-09
-1.078211899e-09
3.674902436e-09
-1.179180045e-09
4.045142926e-09
-1.024758306e-09
4.022266336e-09
-5.517375542e-10
3.270250089e-09
1.502596491e-09
-1.482455477e-10
1.168970776e-09
3.804348118e-11
-3.173396595e-10
1.924442635e-09
-5.212294751e-10
2.647608894e-09
-7.177687999e-10
3.299198672e-09
-8.456257907e-10
3.802759423e-09
-8.310237414e-10
4.030540981e-09
-6.195915056e-10
3.810834196e-09
-2.73016198e-10
2.923674772e-09
1.229580268e-09
-1.31569233e-10
1.266284399e-09
3.425557906e-11
-2.743524014e-10
2.067225533e-09
-4.336137213e-10
2.806870052e-09
-5.675340925e-10
3.43311885e-09
-6.265198373e-10
3.861744922e-09
-5.682789127e-10
3.97229981e-09
-3.843655518e-10
3.626920587e-09
-1.474391578e-10
2.686748065e-09
1.08214102e-09
-1.070043361e-10
1.345014345e-09
2.827441625e-11
-2.180511144e-10
2.178272458e-09
-3.334725286e-10
2.922291482e-09
-4.182075289e-10
3.517853906e-09
-4.377893289e-10
3.881326705e-09
-3.729223397e-10
3.907432874e-09
-2.3482812e-10
3.488826378e-09
-8.201218954e-11
2.533931914e-09
1.000128722e-09
-8.368527043e-11
1.406347589e-09
2.235201532e-11
-1.674175203e-10
2.262004627e-09
-2.493556828e-10
3.004229562e-09
-3.023914006e-10
3.570889521e-09
-3.041271162e-10
3.883062488e-09
-2.474062624e-10
3.850711962e-09
-1.47964115e-10
3.389384124e-09
-4.784283911e-11
2.43381069e-09
9.522859524e-10
-6.330528463e-11
1.452563657e-09
1.708922481e-11
-1.246522089e-10
2.323351349e-09
-1.816302184e-10
3.061207525e-09
-2.143860912e-10
3.603645513e-09
-2.090421613e-10
3.877718688e-09
-1.644814036e-10
3.806150988e-09
-9.52477456e-11
3.320150136e-09
-2.983493197e-11
2.36839772e-09
9.224509651e-10
-4.711964033e-11
1.486867493e-09
1.28157662e-11
-9.16372381e-11
2.367868762e-09
-1.312450584e-10
3.100815442e-09
-1.517373755e-10
3.624137907e-09
-1.445966069e-10
3.870578059e-09
-1.11072468e-10
3.772626958e-09
-6.279537113e-11
3.271873083e-09
-1.900436957e-11
2.324606506e-09
9.034465103e-10
-3.466697516e-11
1.51203886e-09
9.495550094e-12
-6.673136284e-11
2.399933006e-09
-9.427871789e-11
3.128362903e-09
-1.072892779e-10
3.637148371e-09
-1.005547449e-10
3.863843294e-09
-7.603115096e-11
3.748103319e-09
-4.246730174e-11
3.238309265e-09
-1.280017415e-11
2.29493933e-09
8.906463802e-10
-2.538424794e-11
1.530436926e-09
6.986126237e-12
-4.848798198e-11
2.423036629e-09
-6.780579627e-11
3.14768094e-09
-7.627541105e-11
3.645618123e-09
-7.065168954e-11
3.858219493e-09
-5.28410401e-11
3.730292563e-09
-2.924050662e-11
3.214708632e-09
-8.706727556e-12
2.274405366e-09
8.819395389e-10
-1.855503193e-11
1.543863783e-09
5.12813789e-12
-3.523083663e-11
2.439712248e-09
-4.889324727e-11
3.16134334e-09
-5.455185936e-11
3.651276679e-09
-5.014071301e-11
3.853808337e-09
-3.727305845e-11
3.717424906e-09
-2.057039166e-11
3.198006216e-09
-6.156278608e-12
2.259991264e-09
8.757831857e-10
-1.357767082e-11
1.553679044e-09
3.762408098e-12
-2.56717798e-11
2.451806349e-09
-3.543857569e-11
3.171110142e-09
-3.932297089e-11
3.655160886e-09
-3.596571163e-11
3.850450889e-09
-2.663792645e-11
3.708096846e-09
-1.467146804e-11
3.186039674e-09
-4.38112444e-12
2.249701166e-09
8.714022994e-10
-9.963023944e-12
1.560875386e-09
2.766673776e-12
-1.878099903e-11
2.460624164e-09
-2.583437397e-11
3.178163673e-09
-2.85691603e-11
3.657895743e-09
-2.606290815e-11
3.847944965e-09
-1.928300172e-11
3.701316896e-09
-1.063600484e-11
3.177392359e-09
-3.196300338e-12
2.242260971e-09
8.682055661e-10
-7.338530583e-12
1.566173809e-09
2.040097767e-12
-1.380847901e-11
2.467093679e-09
-1.895464071e-11
3.183309814e-09
-2.092395641e-11
3.659864872e-09
-1.906989619e-11
3.846090941e-09
-1.411300013e-11
3.696360312e-09
-7.800112014e-12
3.17107978e-09
-2.341402671e-12
2.236803077e-09
8.658643992e-10
-5.43070877e-12
1.570093623e-09
1.510908655e-12
-1.020787688e-11
2.471870654e-09
-1.399839979e-11
3.187100587e-09
-1.54457426e-11
3.661312054e-09
-1.408471543e-11
3.844729619e-09
-1.044724293e-11
3.692722585e-09
-5.805558713e-12
3.166437559e-09
-1.737720068e-12
2.232734796e-09
8.641266372e-10
-4.038627529e-12
1.573008435e-09
1.123784097e-12
-7.588566185e-12
2.475420376e-09
-1.040495462e-11
3.189917161e-09
-1.148533748e-11
3.662392545e-09
-1.048704384e-11
3.843731421e-09
-7.800497693e-12
3.690036189e-09
-4.357660539e-12
3.162994904e-09
-1.295688672e-12
2.229672819e-09
8.628309161e-10
-3.018798719e-12
1.575187229e-09
8.399989038e-13
-5.672538054e-12
2.478073827e-09
-7.780520499e-12
3.192025159e-09
-8.595537699e-12
3.663207592e-09
-7.860628144e-12
3.842996322e-09
-5.861653643e-12
3.688037074e-09
-3.287529056e-12
3.160420827e-09
-9.778204604e-13
2.227363286e-09
8.618531156e-10
-2.268218759e-12
1.576824446e-09
6.310134062e-13
-4.263236758e-12
2.480068716e-09
-5.850622661e-12
3.193612552e-09
-6.469108273e-12
3.663826038e-09
-5.923154549e-12
3.842450221e-09
-4.423551284e-12
3.686537294e-09
-2.484919451e-12
3.158482077e-09
-7.380907715e-13
2.225616424e-09
8.611149875e-10
-1.713473491e-12
1.578061345e-09
4.765782383e-13
-3.221405839e-12
2.481576552e-09
-4.422463943e-12
3.194813758e-09
-4.89177567e-12
3.66429548e-09
-4.479392947e-12
3.842037977e-09
-3.343061948e-12
3.685401065e-09
-1.872773542e-12
3.157011674e-09
-5.57133818e-13
2.22430087e-09
8.605578915e-10
-1.302610025e-12
1.579001683e-09
3.621839031e-13
-2.449020915e-12
2.4827226e-09
-3.360959568e-12
3.195725673e-09
-3.713866244e-12
3.664648145e-09
-3.39206137e-12
3.841716124e-09
-2.516280029e-12
3.68452529e-09
-1.389621947e-12
3.15588488e-09
-4.146209261e-13
2.22332572e-09
8.601433729e-10
-9.992089377e-13
1.579722979e-09
2.77949816e-13
-1.877365231e-12
2.483600646e-09
-2.572630867e-12
3.196421063e-09
-2.833383333e-12
3.664908793e-09
-2.570059834e-12
3.841452679e-09
-1.876715092e-12
3.683831997e-09
-9.980329597e-13
3.155006194e-09
-2.975389668e-13
2.222624911e-09
8.598456964e-10
-7.798502503e-13
1.580285833e-09
2.170173735e-13
-1.463606065e-12
2.484284155e-09
-1.999480675e-12
3.196957162e-09
-2.186925477e-12
3.665096397e-09
-1.954659613e-12
3.841220337e-09
-1.377332037e-12
3.68325483e-09
-6.66215568e-13
3.154295266e-09
-1.952425709e-13
2.222153937e-09
8.596502788e-10
-6.277969716e-13
1.580738815e-09
1.748151104e-13
-1.176730034e-12
2.484832603e-09
-1.602033726e-12
3.197382558e-09
-1.741449616e-12
3.665235863e-09
-1.539497736e-12
3.841018325e-09
-1.054978506e-12
3.682770074e-09
-4.687325698e-13
3.153708975e-09
-9.65885317e-14
2.221781786e-09
8.595536349e-10
-5.418948429e-13
1.581130051e-09
1.506308513e-13
-1.019395753e-12
2.48530987e-09
-1.394058271e-12
3.197757293e-09
-1.519073138e-12
3.665361066e-09
-1.340617385e-12
3.840839998e-09
-9.181122709e-13
3.682347405e-09
-4.146007151e-13
3.153205323e-09
-5.474089946e-14
2.221421627e-09
8.594987549e-10
-5.17882793e-13
1.5815046e-09
1.432749936e-13
-9.826734546e-13
2.485774519e-09
-1.360111688e-12
3.19813478e-09
-1.501592501e-12
3.665502582e-09
-1.334157805e-12
3.840672739e-09
-9.173594582e-13
3.681930696e-09
-4.227865301e-13
3.15271078e-09
-6.509408639e-14
2.221063795e-09
8.594336214e-10
-5.492323518e-13
1.581902549e-09
1.512569615e-13
-1.05085367e-12
2.486275993e-09
-1.471202897e-12
3.198555266e-09
-1.651464467e-12
3.665682713e-09
-1.506702818e-12
3.840527869e-09
-1.073605275e-12
3.681497465e-09
-5.226822568e-13
3.152159702e-09
-8.714953632e-14
2.220628214e-09
8.593464887e-10
-6.493534722e-13
1.582374141e-09
1.777377398e-13
-1.255743204e-12
2.486882185e-09
-1.784684211e-12
3.199084444e-09
-2.043858908e-12
3.665941775e-09
-1.920911651e-12
3.840404898e-09
-1.425697225e-12
3.681002228e-09
-7.362759838e-13
3.151470187e-09
-1.421405649e-13
2.220033968e-09
8.592043147e-10
-8.29859393e-13
1.582978211e-09
2.257617312e-13
-1.621599471e-12
2.48767362e-09
-2.339857577e-12
3.199802707e-09
-2.73293239e-12
3.666334652e-09
-2.629841063e-12
3.840301806e-09
-2.012886327e-12
3.680385398e-09
-1.089485909e-12
3.150546802e-09
-2.427149482e-13
2.219187204e-09
8.589616538e-10
-1.104263484e-12
1.583783523e-09
2.98948265e-13
-2.175177479e-12
2.488744265e-09
-3.175344688e-12
3.200802902e-09
-3.765270863e-12
3.666924504e-09
-3.69454313e-12
3.840230948e-09
-2.904913209e-12
3.679595628e-09
-1.639446445e-12
3.149281177e-09
-4.128238552e-13
2.217960653e-09
8.585488728e-10
-1.48757398e-12
1.58486987e-09
4.012162704e-13
-2.947098512e-12
2.490203451e-09
-4.33823103e-12
3.202194254e-09
-5.201334085e-12
3.667787744e-09
-5.178181921e-12
3.84020772e-09
-4.155506526e-12
3.678572748e-09
-2.420805244e-12
3.147546348e-09
-6.657746554e-13
2.216205659e-09
8.578830046e-10
-1.993540487e-12
1.58632715e-09
5.3622416e-13
-3.964496169e-12
2.492174007e-09
-5.869000725e-12
3.204098829e-09
-7.090349066e-12
3.669009057e-09
-7.131129592e-12
3.840248417e-09
-5.807415819e-12
3.677248961e-09
-3.461496543e-12
3.14520039e-09
-1.012693055e-12
2.213756841e-09
8.568702839e-10
-2.632904335e-12
1.588253039e-09
7.069940785e-13
-5.247651914e-12
2.494788601e-09
-7.795716413e-12
3.206646864e-09
-9.463081008e-12
3.670676262e-09
-9.580479847e-12
3.840365711e-09
-7.879528003e-12
3.67554788e-09
-4.771193757e-12
3.142091874e-09
-1.45713617e-12
2.210442651e-09
8.554132405e-10
-3.410160936e-12
1.590748371e-09
9.148283796e-13
-6.803782691e-12
2.498182169e-09
-1.012450162e-11
3.209967659e-09
-1.231996703e-11
3.672871725e-09
-1.251821676e-11
3.840563911e-09
-1.035719482e-11
3.67338678e-09
-6.335538523e-12
3.138070155e-09
-1.993173394e-12
2.206100171e-09
8.53420004e-10
-4.321074201e-12
1.59391068e-09
1.158754141e-12
-8.621242238e-12
2.502482134e-09
-1.283125265e-11
3.214177759e-09
-1.562110012e-11
3.675661525e-09
-1.589063309e-11
3.840833321e-09
-1.318335319e-11
3.670679565e-09
-8.111005481e-12
3.132997997e-09
-2.603902336e-12
2.200593031e-09
8.508159036e-10
-5.350244229e-12
1.597825906e-09
1.434990204e-12
-1.06646776e-11
2.507796357e-09
-1.585449104e-11
3.219367625e-09
-1.927781854e-11
3.679084712e-09
-1.959089189e-11
3.841146265e-09
-1.625387353e-11
3.667342543e-09
-1.002302989e-11
3.126767163e-09
-3.260865612e-12
2.193830783e-09
8.475549468e-10
-6.469050804e-12
1.602558653e-09
1.736261361e-12
-1.287188713e-11
2.514199051e-09
-1.909126028e-11
3.225587047e-09
-2.314934891e-11
3.683142796e-09
-2.34581758e-11
3.841455118e-09
-1.941916334e-11
3.663303413e-09
-1.196847638e-11
3.119316248e-09
-3.92537509e-12
2.185787567e-09
8.436295565e-10
-7.634779334e-12
1.608141871e-09
2.051534659e-12
-1.515259714e-11
2.521716651e-09
-2.239698745e-11
3.232831448e-09
-2.704559738e-11
3.687791438e-09
-2.728394697e-11
3.841693548e-09
-2.249293999e-11
3.658512344e-09
-1.382398728e-11
3.11064716e-09
-4.552667902e-12
2.17651614e-09
8.390768369e-10
-8.791364912e-12
1.614567046e-09
2.366180799e-12
-1.739055067e-11
2.530315603e-09
-2.559094857e-11
3.241031841e-09
-3.073705199e-11
3.692937484e-09
-3.082614805e-11
3.841782634e-09
-2.526827985e-11
3.652954479e-09
-1.545885875e-11
3.100837674e-09
-5.097235762e-12
2.166154359e-09
8.339795554e-10
-9.871657905e-12
1.621776253e-09
2.662432334e-12
-1.944967486e-11
2.539893439e-09
-2.846788074e-11
3.250050117e-09
-3.397262889e-11
3.698442183e-09
-3.383149792e-11
3.841641467e-09
-2.753944381e-11
3.64666238e-09
-1.674994599e-11
3.090048077e-09
-5.518209024e-12
2.154922484e-09
8.28461361e-10
-1.080178516e-11
1.629657537e-09
2.920464383e-12
-2.118409363e-11
2.550275553e-09
-3.081534063e-11
3.259681473e-09
-3.650399002e-11
3.704130842e-09
-3.606301962e-11
3.841200468e-09
-2.912591775e-11
3.639725198e-09
-1.759661546e-11
3.078518723e-09
-5.784444837e-12
2.143110319e-09
8.226768871e-10
-1.150756876e-11
1.638044995e-09
3.120075389e-12
-2.245166668e-11
2.561219449e-09
-3.243538092e-11
3.269665287e-09
-3.811323318e-11
3.709808696e-09
-3.732811209e-11
3.840415292e-09
-2.989449298e-11
3.632291507e-09
-1.793295754e-11
3.066557183e-09
-5.87818336e-12
2.131055548e-09
8.167986113e-10
-1.192223069e-11
1.646724535e-09
3.242671979e-12
-2.312978322e-11
2.57242683e-09
-3.316790197e-11
3.27970351e-09
-3.863970089e-11
3.715280492e-09
-3.750253394e-11
3.83927805e-09
-2.977522386e-11
3.624564115e-09
-1.773460544e-11
3.054516485e-09
-5.796036416e-12
2.119116879e-09
8.110025037e-10
-1.199453132e-11
1.655445607e-09
3.2734464e-12
-2.313090613e-11
2.583563034e-09
-3.291162094e-11
3.289484304e-09
-3.800110033e-11
3.720369937e-09
-3.6545755e-11
3.837822584e-09
-2.87681196e-11
3.61678639e-09
-1.701899626e-11
3.042767269e-09
-5.547964226e-12
2.107645757e-09
8.054545239e-10
-1.169605127e-11
1.66393817e-09
3.203477855e-12
-2.241514106e-11
2.594281982e-09
-3.163857003e-11
3.298707732e-09
-3.620440596e-11
3.724935691e-09
-3.450424103e-11
3.836122336e-09
-2.693954754e-11
3.609221632e-09
-1.583998607e-11
3.031667646e-09
-5.15481971e-12
2.096960535e-09
8.002997088e-10
-1.102606265e-11
1.671932985e-09
3.031240742e-12
-2.099726049e-11
2.604253105e-09
-2.939895469e-11
3.307109334e-09
-3.334421163e-11
3.728880904e-09
-3.150268529e-11
3.834280821e-09
-2.441014063e-11
3.60212903e-09
-1.427842985e-11
3.021535871e-09
-4.64484495e-12
2.087326891e-09
7.956548868e-10
-1.001279927e-11
1.679182611e-09
2.763177091e-12
-1.894615039e-11
2.61318645e-09
-2.631490839e-11
3.314478009e-09
-2.958903622e-11
3.732155012e-09
-2.772522325e-11
3.832416994e-09
-2.133686775e-11
3.59574062e-09
-1.243063595e-11
3.012629582e-09
-4.049981889e-12
2.078946207e-09
7.916049247e-10
-8.710615339e-12
1.685480071e-09
2.413152622e-12
-1.637655375e-11
2.620852415e-09
-2.256463516e-11
3.320666056e-09
-2.515861716e-11
3.734748905e-09
-2.339090079e-11
3.830649195e-09
-1.789339461e-11
3.590243102e-09
-1.039767146e-11
3.005133875e-09
-3.404540915e-12
2.07195309e-09
7.882003591e-10
-7.193340921e-12
1.690672544e-09
2.000851235e-12
-1.343461542e-11
2.627093708e-09
-1.835975932e-11
3.325591178e-09
-2.02967134e-11
3.73668576e-09
-1.872851959e-11
3.829080919e-09
-1.425214493e-11
3.585766751e-09
-8.276226803e-12
2.999157998e-09
-2.743240944e-12
2.066420119e-09
7.854570664e-10
-5.545280214e-12
1.694668409e-09
1.549401584e-12
-1.028028471e-11
2.631828667e-09
-1.392068481e-11
3.32923157e-09
-1.524491935e-11
3.738009988e-09
-1.395454596e-11
3.827790526e-09
-1.056880858e-11
3.582380967e-09
-6.150513635e-12
2.994739696e-09
-2.076924309e-12
2.06234654e-09
7.833800934e-10
-3.851395147e-12
1.697437211e-09
1.082588848e-12
-7.069458382e-12
2.635046626e-09
-9.453897204e-12
3.331616023e-09
-1.022054827e-11
3.738776689e-09
-9.25592218e-12
3.826825896e-09
-6.97217222e-12
3.580097132e-09
-4.087108109e-12
2.991854575e-09
-1.416391878e-12
2.059675783e-09
7.81963687e-10
-2.189017831e-12
1.699003787e-09
6.224338976e-13
-3.940232845e-12
2.636797748e-09
-5.136500549e-12
3.332812327e-09
-5.404057599e-12
3.739044244e-09
-4.783582614e-12
3.826205434e-09
-3.567298761e-12
3.578880811e-09
-2.123950828e-12
2.990411153e-09
-7.970636112e-13
2.058348809e-09
7.811666146e-10
-6.221106316e-13
1.699438442e-09
1.874458704e-13
-1.003937506e-12
2.637179509e-09
-1.106887392e-12
3.3329153e-09
-9.322503319e-13
3.738869579e-09
-6.475318544e-13
3.825920741e-09
-4.448331747e-13
3.578678149e-09
-2.93508306e-13
2.990259785e-09
-2.279844395e-13
2.058283195e-09
7.809386126e-10
8.021434725e-13
1.698844919e-09
-2.086224629e-13
1.658056536e-12
2.63632355e-09
2.535555038e-12
3.332037806e-09
3.100878675e-12
3.73830424e-09
3.074319502e-12
3.825947295e-09
2.394051548e-12
3.579358453e-09
1.307819365e-12
2.991346018e-09
2.8847044e-13
2.059302507e-09
7.812270452e-10
2.052012235e-12
1.697349509e-09
-5.565968023e-13
3.99106054e-12
2.6343845e-09
5.724395872e-12
3.330304473e-09
6.630473606e-12
3.737398178e-09
6.334137799e-12
3.826243582e-09
4.870200658e-12
3.58082238e-09
2.707176081e-12
2.993509063e-09
7.449860893e-13
2.061264663e-09
7.819719943e-10
3.113064264e-12
1.695088462e-09
-8.520186507e-13
5.973079112e-12
2.631524526e-09
8.437987238e-12
3.327839543e-09
9.642535338e-12
3.736193663e-09
9.128252012e-12
3.82675784e-09
7.004024735e-12
3.58294656e-09
3.946113892e-12
2.996566948e-09
1.145129838e-12
2.064065597e-09
7.831170803e-10
3.984554618e-12
1.692198291e-09
-1.094388933e-12
7.605217405e-12
2.62790392e-09
1.068105631e-11
3.324763673e-09
1.214474816e-11
3.734729997e-09
1.146390079e-11
3.827438703e-09
8.801264445e-12
3.585609138e-09
5.00025561e-12
3.000367902e-09
1.487477789e-12
2.067578348e-09
7.846045199e-10
4.675585743e-12
1.688808829e-09
-1.286123433e-12
8.905204663e-12
2.623674333e-09
1.247848992e-11
3.321190367e-09
1.416452683e-11
3.73304393e-09
1.336488043e-11
3.828238358e-09
1.027742049e-11
3.588696541e-09
5.873627063e-12
3.004771632e-09
1.773170537e-12
2.071678808e-09
7.863776907e-10
5.20143101e-12
1.685038885e-09
-1.431482718e-12
9.901079955e-12
2.618974696e-09
1.386743808e-11
3.317223995e-09
1.574125893e-11
3.731170058e-09
1.486556126e-11
3.829114039e-09
1.145697388e-11
3.592105116e-09
6.580274553e-12
3.009648279e-09
2.011544026e-12
2.076247526e-09
7.883892718e-10
5.580695293e-12
1.680993921e-09
-1.535733816e-12
1.06264229e-11
2.613928956e-09
1.48917283e-11
3.312958674e-09
1.692073266e-11
3.729141006e-09
1.600551506e-11
3.830029234e-09
1.236763678e-11
3.595743032e-09
7.135265144e-12
3.014880641e-09
2.206783515e-12
2.08117596e-09
7.905960904e-10
5.833205211e-12
1.676765227e-09
-1.604517425e-12
1.111684232e-11
2.608645291e-09
1.559764967e-11
3.308477841e-09
1.775120025e-11
3.726987433e-09
1.682635038e-11
3.830954039e-09
1.303843398e-11
3.59953098e-09
7.553617343e-12
3.020365494e-09
2.355356057e-12
2.086374195e-09
7.929514376e-10
5.978556677e-12
1.672430073e-09
-1.643417646e-12
1.140759327e-11
2.603216229e-09
1.603117991e-11
3.303854229e-09
1.828083055e-11
3.724737777e-09
1.737006612e-11
3.831864749e-09
1.349943345e-11
3.603401585e-09
7.851739319e-12
3.026013235e-09
2.464905659e-12
2.091761065e-09
7.954163115e-10
6.035188436e-12
1.668052541e-09
-1.657673449e-12
1.153197331e-11
2.597719434e-09
1.623594106e-11
3.299150225e-09
1.855560336e-11
3.722418117e-09
1.767693501e-11
3.832743388e-09
1.377961397e-11
3.607298826e-09
8.045462729e-12
3.03174738e-09
2.541042121e-12
2.097265551e-09
7.979573395e-10
6.019880276e-12
1.663684676e-09
-1.652026866e-12
1.152047063e-11
2.592218861e-09
1.625219004e-11
3.294418456e-09
1.861829433e-11
3.720052006e-09
1.778470299e-11
3.833576986e-09
1.390631237e-11
3.611177164e-09
8.149737429e-12
3.037503898e-09
2.588368088e-12
2.102826939e-09
8.005457189e-10
5.947534683e-12
1.659367811e-09
-1.630669767e-12
1.140034361e-11
2.586766099e-09
1.611624217e-11
3.289702514e-09
1.850786998e-11
3.717660336e-09
1.772810629e-11
3.834356769e-09
1.390489074e-11
3.615000393e-09
8.178572386e-12
3.043230172e-09
2.61114866e-12
2.108394308e-09
8.03156873e-10
5.831133519e-12
1.655133934e-09
-1.597249227e-12
1.119549957e-11
2.58140178e-09
1.586023644e-11
3.285037762e-09
1.825921431e-11
3.715261313e-09
1.753859602e-11
3.835077378e-09
1.379855039e-11
3.618740491e-09
8.144866358e-12
3.048883855e-09
2.613328111e-12
2.113925774e-09
8.057701741e-10
5.681798388e-12
1.65100702e-09
-1.554879341e-12
1.092659256e-11
2.57615699e-09
1.551219518e-11
3.280452174e-09
1.790305272e-11
3.712870444e-09
1.724423759e-11
3.835736164e-09
1.360825828e-11
3.622376486e-09
8.060403722e-12
3.05443173e-09
2.59850785e-12
2.11938763e-09
8.083686471e-10
5.50890247e-12
1.647004279e-09
-1.506164831e-12
1.061121055e-11
2.571054649e-09
1.50961897e-11
3.275967212e-09
1.746604752e-11
3.710500617e-09
1.686965957e-11
3.836332531e-09
1.335269809e-11
3.625893405e-09
7.935853317e-12
3.059848571e-09
2.57001326e-12
2.124753473e-09
8.109386469e-10
5.320249693e-12
1.643137282e-09
-1.453260074e-12
1.026411443e-11
2.56611076e-09
1.46326492e-11
3.271598678e-09
1.697106235e-11
3.708162245e-09
1.643621625e-11
3.836867387e-09
1.304831158e-11
3.629281264e-09
7.780821648e-12
3.065116035e-09
2.530967159e-12
2.130003332e-09
8.134696139e-10
5.122218025e-12
1.639412977e-09
-1.397917281e-12
9.897412102e-12
2.561335581e-09
1.413848202e-11
3.267357594e-09
1.64371559e-11
3.705863578e-09
1.596173183e-11
3.837342842e-09
1.270869787e-11
3.632534295e-09
7.602916343e-12
3.070221799e-09
2.483387177e-12
2.135122853e-09
8.15953e-10
4.920040984e-12
1.635834512e-09
-1.341573842e-12
9.52110966e-12
2.556734556e-09
1.362785658e-11
3.263250846e-09
1.588061134e-11
3.703610809e-09
1.546171162e-11
3.837761757e-09
1.234579372e-11
3.635650233e-09
7.408797538e-12
3.075158789e-09
2.430836753e-12
2.140100804e-09
8.183838356e-10
4.717853963e-12
1.632402019e-09
-1.28535404e-12
9.143194526e-12
2.552309248e-09
1.311212264e-11
3.259281939e-09
1.531442586e-11
3.701408497e-09
1.494821633e-11
3.838127962e-09
1.197200612e-11
3.638626452e-09
7.209561116e-12
3.079921233e-09
2.375860252e-12
2.144934505e-09
8.207597086e-10
4.519215532e-12
1.62911302e-09
-1.230208029e-12
8.770712316e-12
2.54805776e-09
1.26015297e-11
3.255451137e-09
1.475096863e-11
3.69925907e-09
1.443914328e-11
3.838439778e-09
1.159729587e-11
3.641468298e-09
7.007338321e-12
3.084511192e-09
2.318215833e-12
2.149623632e-09
8.230779439e-10
4.326600984e-12
1.625963223e-09
-1.17679665e-12
8.408625761e-12
2.543975741e-09
1.210351266e-11
3.251756242e-09
1.420488498e-11
3.697157714e-09
1.394102668e-11
3.838703644e-09
1.122708298e-11
3.644182252e-09
6.803751044e-12
3.088934548e-09
2.260090832e-12
2.154167305e-09
8.253380388e-10
4.142622294e-12
1.62294582e-09
-1.125213179e-12
8.063714223e-12
2.540054672e-09
1.16310088e-11
3.24818892e-09
1.367983962e-11
3.695108885e-09
1.345579357e-11
3.838927705e-09
1.086718173e-11
3.646770885e-09
6.606512897e-12
3.093195253e-09
2.203579802e-12
2.158570263e-09
8.275416076e-10
3.968885879e-12
1.62005472e-09
-1.077783858e-12
7.735851309e-12
2.536287742e-09
1.11794922e-11
3.244745268e-09
1.317372584e-11
3.693114642e-09
1.299135735e-11
3.83911008e-09
1.052184062e-11
3.649240406e-09
6.416870793e-12
3.09730024e-09
2.149114413e-12
2.162838049e-09
8.2969072e-10
3.804789234e-12
1.617283017e-09
-1.03309005e-12
7.42480358e-12
2.532667737e-09
1.074772401e-11
3.241422364e-09
1.269478202e-11
3.691167583e-09
1.255143216e-11
3.839253433e-09
1.019453526e-11
3.651597294e-09
6.237248657e-12
3.101257515e-09
2.097665311e-12
2.166977648e-09
8.317884028e-10
3.651230341e-12
1.614621865e-09
-9.900843661e-13
7.135094658e-12
2.529183839e-09
1.034682484e-11
3.238210654e-09
1.224790692e-11
3.689266504e-09
1.214007904e-11
3.839361269e-09
9.888428757e-12
3.653848948e-09
6.069621015e-12
3.105076314e-09
2.049958137e-12
2.170997317e-09
8.338383864e-10
3.508937628e-12
1.612063706e-09
-9.507834428e-13
6.865891617e-12
2.525826837e-09
9.973881093e-12
3.23510267e-09
1.183191146e-11
3.687408474e-09
1.17571582e-11
3.83943603e-09
9.603786932e-12
3.656002343e-09
5.914205978e-12
3.108765917e-09
2.006044129e-12
2.174905498e-09
8.358444491e-10
3.377190378e-12
1.609600908e-09
-9.143934755e-13
6.616541119e-12
2.522587465e-09
9.628231749e-12
3.232090979e-09
1.144610606e-11
3.685590595e-09
1.140194486e-11
3.839480198e-09
9.339869865e-12
3.658064449e-09
5.770373373e-12
3.112335456e-09
1.965619272e-12
2.178710285e-09
8.378100817e-10
3.255224818e-12
1.607226419e-09
-8.807361039e-13
6.385448306e-12
2.51945725e-09
9.307451127e-12
3.229168989e-09
1.108748614e-11
3.683810564e-09
1.107117344e-11
3.839496517e-09
9.093652341e-12
3.660041993e-09
5.6359188e-12
3.115793229e-09
1.927758015e-12
2.182418487e-09
8.397378512e-10
3.141749061e-12
1.60493413e-09
-8.494586049e-13
6.169995206e-12
2.516429013e-09
9.007550866e-12
3.226331466e-09
1.075093223e-11
3.682067201e-09
1.075920152e-11
3.839488259e-09
8.859908419e-12
3.661941297e-09
5.507125089e-12
3.119146037e-09
1.890955564e-12
2.186034689e-09
8.416288186e-10
3.034927592e-12
1.602719277e-09
-8.200713366e-13
5.966454529e-12
2.51349747e-09
8.722781108e-12
3.223575175e-09
1.042907003e-11
3.680360945e-09
1.04579364e-11
3.839459416e-09
8.631169944e-12
3.663768072e-09
5.378712314e-12
3.122398502e-09
1.853096526e-12
2.189560327e-09
8.434819227e-10
2.932400165e-12
1.600578824e-09
-7.919395824e-13
5.770073678e-12
2.510659776e-09
8.445804845e-12
3.220899458e-09
1.011252199e-11
3.678694257e-09
1.015715958e-11
3.839414808e-09
8.398107429e-12
3.665527137e-09
5.244104191e-12
3.12555251e-09
1.811510949e-12
2.192992934e-09
8.452934354e-10
2.831375201e-12
1.598511771e-09
-7.643138648e-13
5.575241462e-12
2.507915928e-09
8.168108311e-12
3.218306586e-09
9.790542796e-12
3.67707183e-09
9.84534313e-12
3.839360022e-09
8.150378795e-12
3.667222112e-09
5.096081286e-12
3.128606812e-09
1.763225825e-12
2.196325793e-09
8.470566652e-10
2.72878584e-12
1.596519376e-09
-7.363816586e-13
5.375775108e-12
2.505268998e-09
7.880440745e-12
3.215801918e-09
9.451712062e-12
3.675500554e-09
9.510567615e-12
3.839301164e-09
7.877490374e-12
3.668855196e-09
4.927163209e-12
3.131557143e-09
1.704954871e-12
2.199547994e-09
8.487616204e-10
2.621314489e-12
1.594605328e-09
-7.072599235e-13
5.165028525e-12
2.502725338e-09
7.57290362e-12
3.213394054e-09
9.083752758e-12
3.673989706e-09
9.139665463e-12
3.83924524e-09
7.567101096e-12
3.670427765e-09
4.729560883e-12
3.134394691e-09
1.635062068e-12
2.202642487e-09
8.503966733e-10
2.505711839e-12
1.592775715e-09
-6.76094027e-13
4.936470908e-12
2.500294589e-09
7.235463274e-12
3.211095069e-09
8.673485264e-12
3.672551697e-09
8.718444449e-12
3.839200281e-09
7.209948592e-12
3.671936255e-09
4.500679339e-12
3.13710397e-09
1.554079726e-12
2.205589096e-09
8.519507422e-10
2.378324264e-12
1.591039303e-09
-6.419092856e-13
4.682631444e-12
2.497990271e-09
6.857288684e-12
3.208920394e-09
8.211185289e-12
3.671197816e-09
8.24312643e-12
3.839168352e-09
6.807948295e-12
3.673371427e-09
4.243860565e-12
3.139668057e-09
1.462999529e-12
2.208369972e-09
8.534137389e-10
2.237052934e-12
1.589406251e-09
-6.040005862e-13
4.401322723e-12
2.495826014e-09
6.438984247e-12
3.206882698e-09
7.701791027e-12
3.66993501e-09
7.722227412e-12
3.839147935e-09
6.368276213e-12
3.674725381e-09
3.962757365e-12
3.142073566e-09
1.362996932e-12
2.210969729e-09
8.547767422e-10
2.084422187e-12
1.587884827e-09
-5.630022073e-13
4.098379598e-12
2.4938121e-09
5.990211374e-12
3.204990836e-09
7.155927575e-12
3.668769278e-09
7.163574867e-12
3.839140295e-09
5.896221743e-12
3.675992746e-09
3.660512718e-12
3.144309267e-09
1.25522592e-12
2.213374999e-09
8.560319689e-10
1.923496457e-12
1.586481117e-09
-5.197929213e-13
3.778735855e-12
2.491956895e-09
5.51628332e-12
3.203253276e-09
6.579152168e-12
3.66770639e-09
6.572962685e-12
3.839146472e-09
5.396946242e-12
3.677168766e-09
3.34070236e-12
3.146365511e-09
1.1410995e-12
2.21557459e-09
8.571730586e-10
1.755780215e-12
1.585200089e-09
-4.74758556e-13
3.445573078e-12
2.490267101e-09
5.02231296e-12
3.201676531e-09
5.978131247e-12
3.666750559e-09
5.957786225e-12
3.839166796e-09
4.877229108e-12
3.678249308e-09
3.008051305e-12
3.148234686e-09
1.022473861e-12
2.217560164e-09
8.581955193e-10
1.58330095e-12
1.584045221e-09
-4.284405305e-13
3.103086246e-12
2.488747288e-09
4.514833623e-12
3.200264773e-09
5.36127822e-12
3.665904108e-09
5.327241586e-12
3.839200818e-09
4.345404505e-12
3.679231123e-09
2.668292653e-12
3.149911783e-09
9.015646505e-13
2.219326887e-09
8.590970669e-10
1.40853257e-12
1.583018167e-09
-3.814840331e-13
2.756375489e-12
2.487399416e-09
4.001730038e-12
3.199019402e-09
4.738621878e-12
3.665167203e-09
4.692089983e-12
3.839247343e-09
3.811020104e-12
3.680112173e-09
2.327865284e-12
3.151394913e-09
7.808086231e-13
2.220873922e-09
8.598778576e-10
1.234348822e-12
1.582118467e-09
-3.346544164e-13
2.411245348e-12
2.486222503e-09
3.491837756e-12
3.197938799e-09
4.121216311e-12
3.66453781e-09
4.063961795e-12
3.839304587e-09
3.284183961e-12
3.680891932e-09
1.993435717e-12
3.152685626e-09
6.626816082e-13
2.222204638e-09
8.605405236e-10
1.063791961e-12
1.581343436e-09
-2.887667506e-13
2.07377182e-12
2.485212505e-09
2.99426963e-12
3.197018306e-09
3.520280539e-12
3.664011784e-09
3.454473028e-12
3.839370381e-09
2.77480837e-12
3.681571575e-09
1.671420458e-12
3.153788978e-09
5.495136696e-13
2.223326504e-09
8.610900291e-10
8.998200439e-13
1.580688224e-09
-2.446123947e-13
1.749836167e-12
2.484362461e-09
2.51772348e-12
3.196250425e-09
2.946366391e-12
3.663583127e-09
2.874366595e-12
3.839442362e-09
2.29190298e-12
3.682154021e-09
1.367537329e-12
3.154713326e-09
4.433336742e-13
2.224250681e-09
8.615333619e-10
7.450860924e-13
1.580146039e-09
-2.029032086e-13
1.444675888e-12
2.483662843e-09
2.069868519e-12
3.195625245e-09
2.408637798e-12
3.663244342e-09
2.332815807e-12
3.839518159e-09
1.843010275e-12
3.682643813e-09
1.086458086e-12
3.15546988e-09
3.457526026e-13
2.224991388e-09
8.61879117e-10
6.01779898e-13
1.579708493e-09
-1.642343598e-13
1.162557419e-12
2.483102037e-09
1.6568703e-12
3.195130958e-09
1.914345788e-12
3.662986861e-09
1.836935751e-12
3.839595555e-09
1.433836414e-12
3.683046903e-09
8.316118959e-13
3.156072113e-09
2.579003765e-13
2.225565116e-09