/*--------------------------------*- C++ -*----------------------------------*\
| =========                 |                                                 |
| \\      /  F ield         | OpenFOAM: The Open Source CFD Toolbox           |
|  \\    /   O peration     | Version:  2212                                  |
|   \\  /    A nd           | Website:  www.openfoam.com                      |
|    \\/     M anipulation  |                                                 |
\*---------------------------------------------------------------------------*/
FoamFile
{
    version     2.0;
    format      ascii;
    arch        "LSB;label=32;scalar=64";
    class       volVectorField;
    location    "20.00000000";
    object      U;
}
// * * * * * * * * * * * * * * * * * * * * * * * * * * * * * * * * * * * * * //

dimensions      [0 1 -1 0 0 0 0];

internalField   nonuniform List<vector> 
3000
(
(0.06775079495 -0.001861352247 1.338503321e-11)
(0.06791533568 -0.003178191732 2.699443627e-11)
(0.06826698618 -0.004946367 5.496164023e-11)
(0.06886383971 -0.007257918953 1.189109385e-10)
(0.06974244354 -0.01016708563 2.835994628e-10)
(0.07080055354 -0.01402889107 9.132958773e-11)
(0.07110428409 -0.01721559331 3.337593412e-11)
(0.06717598548 -0.02083121148 1.460697321e-11)
(0.04596828118 -0.01014288968 3.561708523e-12)
(0.07324647451 -0.004016939737 5.916465409e-11)
(0.07420136856 -0.006579543584 1.133096524e-10)
(0.07551077552 -0.00949572321 1.955754532e-10)
(0.07718148629 -0.0124995443 3.256945789e-10)
(0.07887304644 -0.01528470686 5.337323556e-10)
(0.07944813553 -0.01743428672 2.539164988e-10)
(0.07680270552 -0.01696287445 1.212762292e-10)
(0.06576150521 -0.01428132061 5.073413119e-11)
(0.03741622371 -0.003946289125 1.391069001e-11)
(0.08202585128 -0.005379691564 1.098300508e-10)
(0.08300043223 -0.008500867059 2.019958779e-10)
(0.08414863943 -0.01169588192 3.290360584e-10)
(0.08502597963 -0.01442757627 5.008066003e-10)
(0.08471089177 -0.01624193026 7.158785703e-10)
(0.08156332358 -0.0164708679 3.781249978e-10)
(0.07318979376 -0.01417322914 1.882221216e-10)
(0.05480665365 -0.009351391031 8.899767761e-11)
(0.02361271109 -0.001724502317 2.517754661e-11)
(0.09163812713 -0.005332968719 1.211322529e-10)
(0.09225566444 -0.008214201312 2.261590697e-10)
(0.09265404429 -0.0108733674 3.945891562e-10)
(0.09207257055 -0.01269583412 5.91934305e-10)
(0.0893373931 -0.01328757468 8.287269365e-10)
(0.0827556957 -0.01232815435 4.570026326e-10)
(0.07029874863 -0.009241885223 2.498731295e-10)
(0.04940672425 -0.004898728205 1.23918073e-10)
(0.0195866918 -0.0006586090963 3.53758526e-11)
(0.100113357 -0.004786901309 -1.350207887e-10)
(0.09991478396 -0.007220255141 -3.846534081e-10)
(0.09895703944 -0.009256367041 1.892252762e-10)
(0.09633986836 -0.01031978536 4.483492846e-10)
(0.09090863941 -0.01019920324 5.429054439e-10)
(0.08121847585 -0.008741434815 4.050721484e-10)
(0.06599045236 -0.005993888267 2.571643663e-10)
(0.04419426675 -0.002758411742 1.377474548e-10)
(0.01627344194 -0.0002516459251 4.040254921e-11)
(0.107393736 -0.00393478816 -6.595283617e-11)
(0.10628603 -0.00581984892 -4.703273782e-11)
(0.1039286995 -0.007257139217 2.27487757e-10)
(0.09944304021 -0.007778909468 4.799523508e-10)
(0.09183846241 -0.007322579614 7.083697299e-10)
(0.08006937257 -0.005894040308 4.497877185e-10)
(0.06340227391 -0.003770040598 2.783665177e-10)
(0.04152690296 -0.001565538222 1.504687818e-10)
(0.0150039077 -0.0001161722224 4.451322363e-11)
(0.1129558083 -0.003102220735 -2.550453764e-10)
(0.1109377024 -0.0045190199 -5.237305374e-10)
(0.1072543398 -0.005509237539 4.975199667e-11)
(0.1011413268 -0.005721944127 3.462349776e-10)
(0.09182743528 -0.005186112808 4.783911052e-10)
(0.07861247819 -0.003985158332 3.926666839e-10)
(0.06113303516 -0.002421795213 2.751225695e-10)
(0.03942232817 -0.0009363008883 1.605262986e-10)
(0.01401848836 -4.677400869e-05 4.932579488e-11)
(0.1172815203 -0.002364128137 -1.429629183e-10)
(0.1144729004 -0.003396246449 -1.589960575e-10)
(0.1096866511 -0.004062321769 9.855905788e-11)
(0.102307526 -0.004111119125 3.723806446e-10)
(0.09177142714 -0.00361558906 6.960470768e-10)
(0.07763404074 -0.002683083093 4.620721697e-10)
(0.05974219644 -0.00157447616 3.417493492e-10)
(0.03824108672 -0.0005852781773 2.208984558e-10)
(0.01354890664 -2.831711565e-05 6.95407139e-11)
(0.1204266151 -0.001769253754 -1.662388033e-10)
(0.1169612053 -0.002515009754 -2.848966142e-10)
(0.1112882567 -0.002963017606 -4.794964427e-10)
(0.1029414795 -0.002938555085 -2.2428526e-10)
(0.09152878805 -0.002526141863 2.86925519e-10)
(0.07678285619 -0.001827837972 4.533854617e-10)
(0.05866709729 -0.001045916701 6.123801707e-10)
(0.03735733949 -0.000377295562 5.003507654e-10)
(0.01318555527 -1.385343356e-05 1.302573699e-10)
(0.1227665625 -0.001307848247 -1.309300225e-10)
(0.1187833986 -0.001842090373 -1.940842351e-10)
(0.1124305531 -0.002143837114 -2.130047828e-10)
(0.1033725635 -0.002092797837 -4.370398023e-11)
(0.0913490452 -0.00176875795 2.16779424e-10)
(0.07620909166 -0.001257545904 3.42060764e-10)
(0.05797512341 -0.0007089649503 3.716575757e-10)
(0.03681406782 -0.0002531767237 2.684567288e-10)
(0.01298060842 -1.023163136e-05 8.342743948e-11)
(0.1244430064 -0.0009608121247 1.988914304e-10)
(0.1200603069 -0.001344273751 5.663484607e-10)
(0.1131938601 -0.001549961932 1.95805565e-10)
(0.1036155112 -0.001495386313 2.575330545e-10)
(0.09116228425 -0.001248495398 5.550867275e-10)
(0.07575946156 -0.0008769839377 3.90018241e-10)
(0.05745932616 -0.0004893089586 3.044839884e-10)
(0.03641252449 -0.0001730407492 1.967651052e-10)
(0.01282332744 -6.162340599e-06 6.216077819e-11)
(0.1256678353 -0.0007042095073 1.851632439e-10)
(0.1209834682 -0.0009798575122 2.997126858e-10)
(0.1137359915 -0.001121820087 2.324975871e-10)
(0.1037814834 -0.001073102437 2.649100337e-10)
(0.09102723812 -0.0008884725376 3.608396467e-10)
(0.07544805773 -0.0006194786043 3.407676285e-10)
(0.05711028787 -0.0003440720559 2.995734572e-10)
(0.03614676726 -0.0001218155217 2.078091599e-10)
(0.0127235006 -4.8556718e-06 6.684391417e-11)
(0.1265448036 -0.0005161812061 2.242673979e-11)
(0.1216348748 -0.0007155596615 -6.946189668e-11)
(0.1141062531 -0.0008151239249 -4.455932507e-10)
(0.1038794206 -0.0007751640435 -2.547334671e-10)
(0.09091207012 -0.0006383058284 1.491299862e-10)
(0.07521174769 -0.0004430566413 3.408323992e-10)
(0.05685149227 -0.0002454282761 5.337130037e-10)
(0.03594977129 -8.682360789e-05 4.30799097e-10)
(0.01264739424 -3.326322983e-06 1.121240506e-10)
(0.1271818026 -0.0003792283319 -4.164679728e-11)
(0.1221046601 -0.0005242342065 -1.083449694e-10)
(0.1143698077 -0.0005951137458 -1.894972497e-10)
(0.1039461307 -0.0005638036079 -8.301840742e-11)
(0.09082733454 -0.000462820195 1.207187813e-10)
(0.07504287781 -0.0003206339684 2.370751403e-10)
(0.05666877294 -0.0001776923426 2.713195133e-10)
(0.03581201181 -6.314607673e-05 1.82506572e-10)
(0.01259519449 -2.615899225e-06 5.481826369e-11)
(0.1276396155 -0.0002794985758 -3.584964195e-11)
(0.1224389528 -0.0003857344214 -5.381577061e-11)
(0.1145529347 -0.0004369594032 -2.802115944e-11)
(0.1039864621 -0.0004130917038 1.186931998e-10)
(0.09075908385 -0.000338626443 4.063526904e-10)
(0.07491525415 -0.0002345031263 2.368609555e-10)
(0.05653236242 -0.0001301925891 1.151563308e-10)
(0.03570894228 -4.637591584e-05 -8.363425682e-11)
(0.01255547554 -1.839573658e-06 -1.174880104e-11)
(0.1279717181 -0.0002068994333 -1.178750636e-11)
(0.1226800591 -0.0002852398117 -2.963742105e-12)
(0.1146833301 -0.0003227573442 4.129819747e-11)
(0.1040130884 -0.0003048703926 1.306048338e-10)
(0.09070749051 -0.0002499331351 2.171400956e-10)
(0.07482142989 -0.0001732901826 1.694829808e-10)
(0.05643286593 -9.671059185e-05 9.395614333e-11)
(0.03563425214 -3.45960563e-05 1.976626047e-11)
(0.01252695323 -1.277542265e-06 4.082825211e-12)
(0.128211176 -0.0001538449157 7.812378623e-12)
(0.1228525232 -0.0002120340736 2.622038669e-11)
(0.1147746373 -0.0002398461181 6.378429382e-11)
(0.1040287401 -0.0002265672227 1.129593626e-10)
(0.09066646666 -0.0001859209115 1.43218171e-10)
(0.0747501317 -0.000129146385 1.217904056e-10)
(0.05635788004 -7.2478867e-05 7.840063022e-11)
(0.03557818502 -2.599665367e-05 3.628272282e-11)
(0.0125053273 -8.275172888e-07 9.780129692e-12)
(0.1283846188 -0.0001149718645 1.872594017e-11)
(0.122976644 -0.0001584532982 3.845475228e-11)
(0.1148392068 -0.0001792628556 6.595159014e-11)
(0.1040380189 -0.0001694393032 9.280664991e-11)
(0.09063453364 -0.0001392246815 1.036274465e-10)
(0.07469639539 -9.690399833e-05 8.958434192e-11)
(0.05630180127 -5.461130777e-05 6.201085775e-11)
(0.03553642345 -1.965481887e-05 3.325135078e-11)
(0.0124892952 -6.077702802e-07 9.544964083e-12)
(0.1285096464 -8.635042866e-05 2.289409916e-11)
(0.1230653319 -0.0001190402246 4.076077064e-11)
(0.1148841266 -0.0001347282718 5.993987449e-11)
(0.1040424248 -0.0001274393987 7.432976958e-11)
(0.09060887657 -0.0001048356142 7.660859296e-11)
(0.07465500123 -7.307619561e-05 6.484840463e-11)
(0.05625902192 -4.126559655e-05 4.515595794e-11)
(0.03550460015 -1.486289738e-05 2.461860956e-11)
(0.01247705502 -4.42625118e-07 7.041964003e-12)
(0.1285998517 -6.521788175e-05 2.247935448e-11)
(0.1231287419 -8.991826968e-05 3.686893006e-11)
(0.1149153218 -0.0001017993669 4.851573553e-11)
(0.1040438989 -9.634003096e-05 5.283397284e-11)
(0.09058840884 -7.927247355e-05 4.735200515e-11)
(0.07462323079 -5.52614273e-05 3.452770767e-11)
(0.05622658095 -3.113348226e-05 2.046276657e-11)
(0.03548065875 -1.11873596e-05 9.11570858e-12)
(0.0124678712 -3.559388248e-07 2.082456302e-12)
(0.1286647767 -4.956346715e-05 1.808881745e-11)
(0.1231738848 -6.835181488e-05 2.644032398e-11)
(0.1149367229 -7.737133006e-05 2.477394703e-11)
(0.1040434698 -7.318959301e-05 -6.824664308e-12)
(0.09057198067 -6.011337604e-05 -3.884936464e-11)
(0.07459873733 -4.176255564e-05 -5.366850087e-11)
(0.05620194896 -2.322319457e-05 -4.263723335e-11)
(0.03546265785 -8.236998505e-06 -2.670416183e-11)
(0.01246093707 -3.113032202e-07 -8.720917408e-12)
(0.128711772 -3.80203756e-05 5.675688059e-11)
(0.1232062219 -5.241113281e-05 1.230154709e-10)
(0.1149515105 -5.927213328e-05 2.58702168e-10)
(0.1040421885 -5.595631109e-05 -4.459242812e-10)
(0.09055905361 -4.572047462e-05 -6.134121601e-10)
(0.07458014356 -3.147328233e-05 -5.034120368e-10)
(0.05618365565 -1.692899913e-05 -2.247804468e-10)
(0.03544954096 -5.770152132e-06 -1.009321051e-10)
(0.01245584406 -2.95482644e-07 -2.773869892e-11)
(0.1287465974 -2.967853313e-05 3.21087269e-11)
(0.1232301661 -4.089081466e-05 3.667460004e-11)
(0.1149624583 -4.615387166e-05 -1.857060002e-11)
(0.1040413204 -4.338276996e-05 -2.814022127e-10)
(0.09054974995 -3.506682513e-05 -3.847051115e-10)
(0.07456684142 -2.364820596e-05 -3.403423227e-10)
(0.0561708996 -1.17659993e-05 -2.156337999e-10)
(0.03544026768 -3.574198606e-06 -1.12424981e-10)
(0.01245235375 -2.797983201e-07 -3.229477124e-11)
(0.128774131 -2.389619644e-05 -2.832977703e-12)
(0.1232495143 -3.290559217e-05 -2.817815872e-11)
(0.1149720305 -3.705907005e-05 -9.7034941e-11)
(0.1040420132 -3.466030384e-05 -2.147656924e-10)
(0.09054418197 -2.780790632e-05 -2.692746298e-10)
(0.07455841926 -1.841195346e-05 -2.444857065e-10)
(0.05616317789 -8.719893217e-06 -1.732200869e-10)
(0.03543454822 -2.023008778e-06 -9.64386147e-11)
(0.01245012362 2.981380881e-08 -2.850154164e-11)
(0.1287989889 -2.058219859e-05 -2.694165153e-11)
(0.1232682106 -2.8436177e-05 -6.027672854e-11)
(0.1149834607 -3.218163099e-05 -1.134462853e-10)
(0.1040471823 -3.021023333e-05 -1.721459607e-10)
(0.09054525944 -2.428753905e-05 -1.948584818e-10)
(0.07455754342 -1.591719908e-05 -1.759798389e-10)
(0.05616251127 -7.831017601e-06 -1.30529156e-10)
(0.03543494315 -1.383110669e-06 -7.677971204e-11)
(0.01245032904 -6.507295214e-08 -2.307387775e-11)
(0.1288268011 -1.958560908e-05 -3.881586365e-11)
(0.1232913542 -2.726078141e-05 -7.173399949e-11)
(0.1150009937 -3.118861771e-05 -1.108885489e-10)
(0.1040594598 -2.969110105e-05 -1.450804352e-10)
(0.09055380565 -2.41800099e-05 -1.572637226e-10)
(0.07456456282 -1.579437358e-05 -1.411526768e-10)
(0.05616937496 -8.043785131e-06 -1.052184913e-10)
(0.03544153261 -1.168200778e-06 -6.17034559e-11)
(0.01245409745 -7.248449728e-07 -1.853788146e-11)
(0.128863032 -2.068735029e-05 -4.209229964e-11)
(0.1233239088 -2.90020495e-05 -7.163332381e-11)
(0.1150291378 -3.351874365e-05 -1.004300334e-10)
(0.1040836302 -3.234223203e-05 -1.209994722e-10)
(0.0905747167 -2.697155765e-05 -1.254925522e-10)
(0.07458356144 -1.812482019e-05 -1.108495074e-10)
(0.05618702274 -9.881084536e-06 -8.240085136e-11)
(0.03545601192 -1.340179424e-06 -4.831124205e-11)
(0.01246136464 -1.337589849e-06 -1.454971651e-11)
(0.1289144365 -2.433850593e-05 -4.056216655e-11)
(0.1233722103 -3.442566259e-05 -6.604707169e-11)
(0.1150736532 -4.033234997e-05 -8.771949125e-11)
(0.104124673 -3.957524077e-05 -1.009999931e-10)
(0.09061314222 -3.390967245e-05 -1.012327292e-10)
(0.0746193772 -2.359147676e-05 -8.803460127e-11)
(0.05621905111 -1.369448837e-05 -6.532990095e-11)
(0.03548055662 -2.033518705e-06 -3.846632301e-11)
(0.0124728109 -2.269694628e-06 -1.163379134e-11)
(0.1289902968 -3.096420225e-05 -3.551939824e-11)
(0.1234453636 -4.417576997e-05 -5.58792331e-11)
(0.1151433934 -5.243632301e-05 -7.309446984e-11)
(0.1041910425 -5.240033709e-05 -9.606674848e-11)
(0.09067615311 -4.594739554e-05 -9.327246711e-11)
(0.07467812615 -3.283638785e-05 -7.817724572e-11)
(0.05627094791 -1.990114997e-05 -5.684135116e-11)
(0.03551958521 -3.398458985e-06 -3.322472832e-11)
(0.01249044338 -3.693666888e-06 -1.004831886e-11)
(0.1291020631 -4.106993445e-05 2.319190508e-11)
(0.1235545922 -5.898577309e-05 7.299867595e-11)
(0.115249235 -7.072504699e-05 2.093707065e-10)
(0.1042931287 -7.167705298e-05 -3.561448836e-10)
(0.09077371005 -6.399423466e-05 -1.717326507e-10)
(0.07476885337 -4.684371835e-05 -1.001992326e-10)
(0.05635015928 -2.938374938e-05 -6.1219753e-11)
(0.03557817174 -5.833997045e-06 -3.321352219e-11)
(0.01251616753 -5.776702733e-06 -9.791995668e-12)
(0.129264403 -5.521546326e-05 2.736750188e-11)
(0.1237143744 -7.969288244e-05 4.488882294e-11)
(0.1154053317 -9.624881546e-05 2.923572294e-11)
(0.1044445716 -9.855696763e-05 -1.333241111e-10)
(0.09091858933 -8.916647275e-05 -1.205866727e-10)
(0.07490302211 -6.650238399e-05 -8.658955541e-11)
(0.05646613835 -4.276045725e-05 -5.641361868e-11)
(0.03566283677 -9.540780831e-06 -3.105144917e-11)
(0.0125524761 -8.664357029e-06 -9.168876119e-12)
(0.1294954541 -7.393310944e-05 1.425774881e-11)
(0.1239426768 -0.000107075021 1.373725733e-11)
(0.1156293371 -0.0001299621839 -1.210746822e-11)
(0.1046624561 -0.0001340465904 -7.158596896e-11)
(0.09112688153 -0.000122408927 -8.081137743e-11)
(0.0750950274 -9.257124846e-05 -6.723211176e-11)
(0.05663061357 -6.056755572e-05 -4.743486027e-11)
(0.03578152283 -1.469747555e-05 -2.72005809e-11)
(0.01260231506 -1.250123735e-05 -8.174548392e-12)
(0.129817347 -9.767500509e-05 2.452422863e-12)
(0.1242614592 -0.0001417697883 -4.295356684e-12)
(0.1159428477 -0.0001726158094 -2.37695752e-11)
(0.1049676618 -0.0001788970035 -5.040196702e-11)
(0.09141815905 -0.0001643741694 -5.913616285e-11)
(0.07536226715 -0.0001255257459 -5.368302118e-11)
(0.05685764891 -8.310390358e-05 -4.113778935e-11)
(0.03594366864 -2.137538854e-05 -2.527004829e-11)
(0.0126691344 -1.740904505e-05 -7.864772737e-12)
(0.130256449 -0.0001266919526 -5.121382818e-12)
(0.124696904 -0.0001841209088 -1.369925431e-11)
(0.116371616 -0.0002245712957 -2.821388429e-11)
(0.1053850437 -0.0002334053685 -4.39796579e-11)
(0.09181562465 -0.0002152389475 -5.245933567e-11)
(0.07572522779 -0.0001654202992 -5.340740682e-11)
(0.05716364686 -0.0001103467147 -4.80063805e-11)
(0.03616015239 -2.951280237e-05 -3.361948443e-11)
(0.01275684046 -2.347176792e-05 -1.046169402e-11)
(0.1308435306 -0.0001609549281 -1.573540334e-11)
(0.1252795479 -0.0002340443245 -2.666375632e-11)
(0.1169456386 -0.0002856339143 -3.970544558e-11)
(0.1059434639 -0.0002972429946 -5.488434348e-11)
(0.0923460794 -0.0002745427259 -7.135309507e-11)
(0.07620738779 -0.0002117637666 -9.016010817e-11)
(0.05756721445 -0.0001418716429 -1.064694034e-10)
(0.03644316773 -3.888727024e-05 -8.330987202e-11)
(0.01286974424 -3.0722901e-05 -1.821866321e-11)
(0.131613756 -0.0002000857484 -8.608677302e-10)
(0.1260442521 -0.0002909111393 -2.898926898e-10)
(0.1176990772 -0.000354901777 -1.454162751e-10)
(0.1066756506 -0.0003692973989 -1.189383588e-10)
(0.09303970988 -0.0003410523903 -1.474828853e-10)
(0.07683494409 -0.0002634264909 -2.296047576e-10)
(0.05808887648 -0.0001768007008 -4.062314962e-10)
(0.03680598959 -4.910610582e-05 -3.251109979e-10)
(0.01301246851 -3.91381614e-05 9.213188546e-12)
(0.1326065184 -0.0002432739316 -3.530283005e-10)
(0.1270300109 -0.0003534540452 -2.576001756e-10)
(0.1186700156 -0.000430669706 -1.796063225e-10)
(0.1076178801 -0.0004475877698 -1.546475749e-10)
(0.09392969101 -0.0004127039374 -1.670011508e-10)
(0.07763636156 -0.0003186108169 -1.983274299e-10)
(0.05875063655 -0.0002137995169 -2.194289077e-10)
(0.03726263577 -5.961520491e-05 -1.537081294e-10)
(0.01318981896 -4.863056443e-05 -3.533866486e-11)
(0.1338650992 -0.0002892278262 -1.92908932e-10)
(0.128279559 -0.0004197095654 -1.974944213e-10)
(0.1199000013 -0.0005103816003 -1.725657918e-10)
(0.1088094369 -0.0005292474963 -1.586540676e-10)
(0.09505157415 -0.0004866237631 -1.575591865e-10)
(0.07864172861 -0.0003749043027 -1.569259574e-10)
(0.05957538822 -0.0002511431692 -1.394838976e-10)
(0.03782743787 -6.973877098e-05 -9.066844185e-11)
(0.01340662623 -5.905365963e-05 -2.67775431e-11)
(0.1354361623 -0.0003361857502 -1.22836077e-10)
(0.1298388047 -0.0004870288808 -1.510593829e-10)
(0.1214333819 -0.0005906615691 -1.514213567e-10)
(0.1102918473 -0.0006105900368 -1.453610669e-10)
(0.09644244259 -0.0005592361852 -1.378255936e-10)
(0.07988190653 -0.000429405902 -1.243329379e-10)
(0.06058617625 -0.000286835639 -9.905098312e-11)
(0.03851453142 -7.874191785e-05 -6.118830248e-11)
(0.01366756744 -7.021263066e-05 -1.860996341e-11)
(0.1373690723 -0.0003819534063 -8.731554021e-11)
(0.1317560732 -0.0005521587528 -1.18263932e-10)
(0.1233164343 -0.0006674474489 -1.280476588e-10)
(0.1121078918 -0.0006872878684 -1.262093464e-10)
(0.0981398514 -0.000626475851 -1.170588186e-10)
(0.08138750201 -0.0004789269411 -1.005566598e-10)
(0.06180533948 -0.0003187699284 -7.611802248e-11)
(0.03933729169 -8.589732991e-05 -4.574249111e-11)
(0.01397697507 -8.187511537e-05 -1.38997045e-11)
(0.1397150156 -0.0004239891669 -6.672148387e-11)
(0.1340811183 -0.0006113936858 -9.52106287e-11)
(0.1255962464 -0.0007362153323 -1.082212506e-10)
(0.1143003761 -0.0007546521834 -1.095779676e-10)
(0.1001805687 -0.0006840907427 -1.018396723e-10)
(0.08318770873 -0.0005202545991 -8.766358026e-11)
(0.06325359457 -0.0003449162522 -6.598920842e-11)
(0.04030776295 -9.055079602e-05 -3.959144096e-11)
(0.01433864986 -9.378299279e-05 -1.208940264e-11)
(0.142525899 -0.000459562987 -5.64513958e-11)
(0.1368638944 -0.0006608091799 -8.535441233e-11)
(0.1283193477 -0.0007922881305 -1.057152324e-10)
(0.1169106727 -0.0008079858494 -1.171543846e-10)
(0.1025991485 -0.0007279937335 -1.0275391e-10)
(0.08530907005 -0.0005504347168 -1.030847258e-10)
(0.0649491184 -0.0003635075837 -7.712291779e-11)
(0.04143612286 -9.218152051e-05 -4.526018068e-11)
(0.01475569378 -0.0001056672513 -1.36858028e-11)
(0.1458529926 -0.0004859574455 -7.263766461e-11)
(0.1401530779 -0.0006965643141 -1.310803628e-10)
(0.1315301093 -0.0008312170881 -2.229763673e-10)
(0.1199770911 -0.0008429861078 -4.08756533e-10)
(0.1054264199 -0.000754625784 -6.252387845e-11)
(0.08777424922 -0.0005670351993 -2.605741178e-10)
(0.06690669431 -0.0003731938311 -1.375648281e-10)
(0.0427302198 -9.044297253e-05 -6.663999752e-11)
(0.01523037544 -0.0001172611448 -1.86288686e-11)
(0.1497452782 -0.0005006908642 -7.802277211e-11)
(0.1439943152 -0.0007152374938 -1.328801666e-10)
(0.1352689392 -0.000849191185 -1.89742227e-10)
(0.1235331465 -0.000856151851 -2.262960622e-10)
(0.1086879936 -0.0007612924868 -1.490729124e-10)
(0.09060090721 -0.000568363249 -1.588893694e-10)
(0.06913699682 -0.0003731459516 -1.091644977e-10)
(0.04419521909 -8.517831851e-05 -5.930299207e-11)
(0.01576403546 -0.0001283091882 -1.713917505e-11)
(0.1542474975 -0.0005017587854 -7.260928471e-11)
(0.1484282297 -0.0007141621129 -1.166614e-10)
(0.1395703445 -0.0008434145736 -1.506030838e-10)
(0.1276058341 -0.0008451299742 -1.61019221e-10)
(0.1124029027 -0.0007464170177 -1.360631878e-10)
(0.0938007838 -0.0005536020192 -1.165737646e-10)
(0.07164607206 -0.0003631004067 -8.309643055e-11)
(0.04583337889 -7.641519157e-05 -4.699195055e-11)
(0.01635703374 -0.0001385740831 -1.381975661e-11)
(0.1593979288 -0.0004878558083 -6.255315452e-11)
(0.1534882686 -0.0006917189291 -9.687354348e-11)
(0.14446098 -0.0008124063872 -1.190062758e-10)
(0.1322140413 -0.0008089494229 -1.233311272e-10)
(0.1165824871 -0.0007096697065 -1.099523801e-10)
(0.0973790467 -0.0005228498287 -8.997799189e-11)
(0.07443503754 -0.0003433465397 -6.404178208e-11)
(0.04764395666 -6.434693305e-05 -3.662502189e-11)
(0.01700873667 -0.0001478408783 -1.084801806e-11)
(0.1652260054 -0.0004585319788 -5.17573938e-11)
(0.1591985339 -0.0006475317607 -7.855157692e-11)
(0.1499578547 -0.0007561688961 -9.425811754e-11)
(0.1373672555 -0.0007481069095 -9.666147351e-11)
(0.1212296276 -0.0006519618395 -8.73771419e-11)
(0.1013339587 -0.0004770637498 -7.119843456e-11)
(0.07750001427 -0.0003146625902 -5.101189267e-11)
(0.04962325096 -4.930070068e-05 -2.956213034e-11)
(0.01771753441 -0.0001559185204 -8.842603212e-12)
(0.1717499391 -0.0004142641486 -4.219895265e-11)
(0.1655717612 -0.0005825298114 -6.353629345e-11)
(0.1560668412 -0.000676193076 -7.578018647e-11)
(0.1430646648 -0.0006644979179 -7.811293238e-11)
(0.126338372 -0.0005753155121 -7.212392837e-11)
(0.1056568557 -0.0004179258015 -6.05372916e-11)
(0.08083226319 -0.0002782144302 -4.525243389e-11)
(0.05176475036 -3.173080228e-05 -2.738541608e-11)
(0.01848090347 -0.0001626564544 -8.379475528e-12)
(0.1789746493 -0.000356426729 -3.647156149e-11)
(0.1726077253 -0.0004988603944 -5.469012417e-11)
(0.1627816942 -0.0005752955557 -6.580289585e-11)
(0.1492947761 -0.0005611985221 -7.005266311e-11)
(0.1318940042 -0.0004826305902 -6.899337687e-11)
(0.1103324509 -0.0003476584745 -6.394281122e-11)
(0.08441852798 -0.0002354377012 -5.404235422e-11)
(0.05405952452 -1.218661864e-05 -3.578928832e-11)
(0.01929529617 -0.0001679694703 -1.087174765e-11)
(0.1868902082 -0.0002871632583 -6.246521332e-11)
(0.180292218 -0.0003996739134 -7.212045559e-11)
(0.1700836427 -0.0004573246403 -7.70402693e-11)
(0.1560355325 -0.0004421415693 -8.222355033e-11)
(0.1378734834 -0.0003773892401 -8.93923494e-11)
(0.1153393503 -0.0002688220234 -9.873760413e-11)
(0.08824152218 -0.0001877403328 -1.038091836e-10)
(0.05649627632 8.2165191e-06 -7.42825098e-11)
(0.02015650367 -0.0001724126637 -1.669225913e-11)
(0.1954712164 -0.0002091639359 -7.479141121e-10)
(0.1885969039 -0.0002887979871 -2.824269381e-10)
(0.1779417398 -0.0003267639895 -1.576866102e-10)
(0.1632550055 -0.0003117188448 -1.297571806e-10)
(0.1442462516 -0.0002633399123 -1.427210601e-10)
(0.1206507755 -0.0001840119375 -1.908632652e-10)
(0.09228043858 -0.0001366333251 -2.901905606e-10)
(0.05906118107 2.845585572e-05 -2.148500311e-10)
(0.02106024814 -0.0001763602821 1.116311525e-11)
(0.2046769953 -0.0001254198704 -2.857195704e-10)
(0.1974798569 -0.0001703965997 -2.202201759e-10)
(0.1863137068 -0.0001883583115 -1.647349531e-10)
(0.1709123874 -0.0001744543269 -1.426979116e-10)
(0.1509751973 -0.000144266216 -1.429449522e-10)
(0.1262353175 -9.573992779e-05 -1.531486037e-10)
(0.09651164626 -8.408365616e-05 -1.552630113e-10)
(0.06173938602 4.842202968e-05 -1.042954417e-10)
(0.02200151756 -0.0001790594859 -2.402720692e-11)
(0.2144532183 -3.899137507e-05 -1.433902766e-10)
(0.2068873509 -4.864963928e-05 -1.542184693e-10)
(0.1951477621 -4.675959005e-05 -1.40833158e-10)
(0.1789597141 -3.46840766e-05 -1.289509584e-10)
(0.1580180547 -2.384086889e-05 -1.214601206e-10)
(0.1320587936 -6.026945307e-06 -1.127983987e-10)
(0.1009075297 -3.097405732e-05 -9.452964479e-11)
(0.06451595708 6.768885796e-05 -5.974158198e-11)
(0.02297462518 -0.0001805771521 -1.753024497e-11)
(0.22473394 4.725554555e-05 -8.540109999e-11)
(0.2167557716 7.251626444e-05 -1.084054852e-10)
(0.2043843107 9.369179408e-05 -1.10901652e-10)
(0.1873432018 0.0001034455032 -1.052203141e-10)
(0.1653286007 9.543202125e-05 -9.577274063e-11)
(0.1380834421 8.035538692e-05 -8.20815198e-11)
(0.1054416733 2.241017073e-05 -6.26049526e-11)
(0.06737349103 8.824808599e-05 -3.768746607e-11)
(0.02397386124 -0.0001816570698 -1.13194122e-11)
(0.2354434813 0.0001306955997 -5.606167672e-11)
(0.2270133684 0.0001894930907 -7.691007548e-11)
(0.2139575729 0.0002289509007 -8.337585171e-11)
(0.1960047949 0.0002362488142 -8.043056404e-11)
(0.1728580129 0.000209838339 -7.151301399e-11)
(0.1442700432 0.0001633862101 -5.826747106e-11)
(0.1100877611 7.499749926e-05 -4.189164036e-11)
(0.07029325477 0.0001082381061 -2.414675158e-11)
(0.02499330233 -0.0001819232234 -7.139220703e-12)
(0.2464996348 0.0002092201484 -3.793881286e-11)
(0.2375831677 0.0002994683253 -5.366290071e-11)
(0.2237980517 0.0003560107442 -5.924961843e-11)
(0.2048841178 0.0003610726275 -5.661153719e-11)
(0.1805560203 0.0003173955755 -4.833799933e-11)
(0.1505795885 0.0002419656414 -3.681107419e-11)
(0.1148160425 0.0001241976545 -2.403568029e-11)
(0.07325854198 0.0001263575137 -1.244539726e-11)
(0.02602713009 -0.0001809702307 -3.410652542e-12)
(0.2578173358 0.0002812743262 -2.414085669e-11)
(0.2483861232 0.0004003830671 -3.370754338e-11)
(0.2338349838 0.0004726475811 -3.549999689e-11)
(0.2139201504 0.0004758554598 -3.037629706e-11)
(0.1883721311 0.0004164469355 -2.103350415e-11)
(0.156972487 0.0003147275795 -1.124501673e-11)
(0.1195977596 0.0001696435218 -5.985953163e-13)
(0.07625305414 0.0001426837839 4.499264909e-12)
(0.02706968784 -0.0001790125552 2.198482405e-12)
(0.2693115968 0.0003458302868 -1.04317454e-11)
(0.2593436218 0.0004908784603 -1.159030957e-11)
(0.2439983907 0.0005773925015 -4.815307253e-12)
(0.223052921 0.0005792197732 9.870974204e-12)
(0.1962570695 0.0005058775366 2.704565839e-11)
(0.1634103981 0.0003807367834 2.47395139e-11)
(0.1244056077 0.0002109410433 4.524963961e-11)
(0.07926023789 0.0001571352237 4.427791547e-11)
(0.02811532787 -0.0001762234988 1.475581495e-11)
(0.2808998704 0.0004023156232 5.228965428e-12)
(0.2703794929 0.000570193057 1.626298595e-11)
(0.2542206697 0.0006694106936 4.129624065e-11)
(0.2322246729 0.0006703586287 9.094058456e-11)
(0.2041635152 0.0005850236923 1.784924348e-10)
(0.1698565819 0.0004394509686 2.669597441e-11)
(0.1292134495 0.0002479378933 1.639524774e-10)
(0.08226431737 0.000169462985 1.726189219e-10)
(0.02915881601 -0.000172985504 4.328194059e-11)
(0.2925040462 0.0004505363082 1.439391723e-11)
(0.2814217317 0.0006380619226 2.864255418e-11)
(0.2644379964 0.0007483987834 4.96276202e-11)
(0.2413809605 0.0007489494772 7.59437191e-11)
(0.2120469306 0.0006535977513 9.637059324e-11)
(0.1762765062 0.0004906135153 7.159679721e-11)
(0.1339967033 0.0002804986363 8.63458585e-11)
(0.08525033196 0.0001796792704 7.020659206e-11)
(0.03019544652 -0.0001693729796 2.191739283e-11)
(0.3040518997 0.0004905978147 1.715529839e-11)
(0.29240375 0.0006946167699 3.016113467e-11)
(0.2745913434 0.0008144833335 4.463329325e-11)
(0.2504714365 0.0008150690116 5.775570886e-11)
(0.2198661476 0.0007116295568 6.399070368e-11)
(0.1826382812 0.0005341992188 5.794664474e-11)
(0.1387326898 0.0003084897692 5.165607778e-11)
(0.08820467619 0.0001881824158 3.548439351e-11)
(0.0312206583 -0.000165066892 1.126905955e-11)
(0.3154780756 0.00052283197 1.62370966e-11)
(0.3032652391 0.0007402950758 2.680612117e-11)
(0.2846271957 0.0008681308799 3.644926538e-11)
(0.2594504145 0.0008691201156 4.324452026e-11)
(0.2275837858 0.000759423405 4.497215751e-11)
(0.1889129489 0.0005703905269 4.075697709e-11)
(0.1434008201 0.0003320101116 3.277630677e-11)
(0.09111512017 0.0001950221275 2.073674693e-11)
(0.03223018733 -0.00016017061 6.445970851e-12)
(0.326724641 0.0005477331727 1.381917545e-11)
(0.3139526654 0.000775757824 2.200389808e-11)
(0.2944979698 0.0009100597351 2.847240924e-11)
(0.2682772052 0.0009117476774 3.210535132e-11)
(0.2351665055 0.000797485696 3.205013784e-11)
(0.1950746514 0.0005995143248 2.828613043e-11)
(0.1479826854 0.0003512509677 2.171194014e-11)
(0.09397063949 0.0002002636038 1.320560192e-11)
(0.0332203485 -0.0001548026657 4.041239384e-12)
(0.3377412953 0.0005659064479 1.112589579e-11)
(0.3244194689 0.0008018238187 1.734012357e-11)
(0.3041621929 0.000941170958 2.17797343e-11)
(0.2769162721 0.0009437784009 2.380590929e-11)
(0.2425851388 0.0008264791336 2.313049501e-11)
(0.2011007356 0.0006220144086 1.997146998e-11)
(0.1524621444 0.0003664701619 1.497825479e-11)
(0.09676155071 0.0002039889754 8.948402686e-12)
(0.03418790608 -0.0001490710293 2.718708004e-12)
(0.3484852959 0.000578025206 8.758335659e-12)
(0.3346260091 0.0008194106479 1.34933353e-11)
(0.3135844699 0.0009624858849 1.668118223e-11)
(0.2853372116 0.0009661660376 1.79415755e-11)
(0.2498146775 0.0008471789392 1.720226777e-11)
(0.2069717467 0.000638422137 1.471230778e-11)
(0.1568253175 0.0003779775057 1.095908751e-11)
(0.09947951723 0.0002063068522 6.526906348e-12)
(0.03513007556 -0.0001430687112 1.984370767e-12)
(0.3589211689 0.0005847986293 7.049953922e-12)
(0.3445393189 0.0008294876063 1.08429799e-11)
(0.3227352887 0.000975091651 1.339412826e-11)
(0.2935146066 0.0009799394691 1.444091713e-11)
(0.2568341662 0.0008604335338 1.394330407e-11)
(0.2126713539 0.0006493295034 1.206159901e-11)
(0.1610605391 0.0003861183348 9.111500143e-12)
(0.1021175261 0.0002073441575 5.505005577e-12)
(0.03604451166 -0.000136875731 1.692188722e-12)
(0.3690202651 0.0005869420546 6.367199754e-12)
(0.3541327146 0.0008330378298 9.925707045e-12)
(0.3315906993 0.0009800981823 1.254660682e-11)
(0.3014277742 0.0009861600284 1.396785504e-11)
(0.2636265116 0.0008671291104 1.401552987e-11)
(0.2181862119 0.0006553646626 1.261481659e-11)
(0.165158265 0.0003912607224 9.877451623e-12)