/*--------------------------------*- C++ -*----------------------------------*\
| =========                 |                                                 |
| \\      /  F ield         | OpenFOAM: The Open Source CFD Toolbox           |
|  \\    /   O peration     | Version:  2212                                  |
|   \\  /    A nd           | Website:  www.openfoam.com                      |
|    \\/     M anipulation  |                                                 |
\*---------------------------------------------------------------------------*/
FoamFile
{
    version     2.0;
    format      ascii;
    arch        "LSB;label=32;scalar=64";
    class       volScalarField;
    location    "20.00000000";
    object      A1C2H_0;
}
// * * * * * * * * * * * * * * * * * * * * * * * * * * * * * * * * * * * * * //

dimensions      [0 0 0 0 0 0 0];

internalField   nonuniform List<scalar> 
3000
(
1.333131747e-32
1.653650569e-32
2.166117059e-32
2.901102493e-32
3.889966598e-32
5.144056335e-32
6.614852347e-32
8.126658261e-32
9.279535154e-32
5.618010447e-32
7.02017321e-32
9.261922323e-32
1.248357898e-31
1.685385397e-31
2.254111409e-31
2.965274263e-31
3.80627339e-31
4.631799077e-31
1.447665215e-31
1.831901072e-31
2.452738652e-31
3.362340763e-31
4.635496846e-31
6.369872572e-31
8.666408754e-31
1.153760267e-30
1.43587152e-30
3.163320961e-31
4.068387093e-31
5.559452493e-31
7.810402098e-31
1.108594714e-30
1.57457332e-30
2.2163916e-30
3.031280684e-30
3.800821277e-30
6.432886463e-31
8.438914034e-31
1.18245237e-30
1.710067824e-30
2.505401863e-30
3.674313392e-30
5.314245966e-30
7.370306167e-30
9.217730494e-30
1.266995761e-30
1.698581256e-30
2.44522014e-30
3.643289051e-30
5.501832007e-30
8.291710878e-30
1.222563183e-29
1.705784539e-29
2.121904751e-29
2.470509133e-30
3.386240538e-30
5.006625932e-30
7.671431433e-30
1.189470334e-29
1.831321632e-29
2.734762498e-29
3.822932514e-29
4.724145494e-29
4.821472754e-30
6.749437101e-30
1.022758495e-29
1.606088415e-29
2.544933768e-29
3.982140206e-29
5.999262053e-29
8.401994455e-29
1.039014874e-28
9.467756575e-30
1.350881449e-29
2.091485528e-29
3.352252396e-29
5.402553841e-29
8.550499293e-29
1.294418468e-28
1.810867815e-28
2.229424677e-28
1.87374722e-29
2.718137482e-29
4.285156306e-29
6.9828284e-29
1.140071475e-28
1.819076507e-28
2.762012068e-28
3.859841186e-28
4.739990544e-28
3.736972335e-29
5.49728918e-29
8.796325989e-29
1.452345881e-28
2.394739306e-28
3.8433212e-28
5.846549567e-28
8.162583428e-28
1.000553389e-27
7.503127033e-29
1.116583523e-28
1.808300628e-28
3.016684046e-28
5.011625184e-28
8.077232204e-28
1.230220642e-27
1.716113536e-27
2.100611535e-27
1.514754703e-28
2.27559808e-28
3.721109312e-28
6.25832021e-28
1.045674773e-27
1.69055467e-27
2.576883607e-27
3.592076144e-27
4.392049213e-27
3.07116565e-28
4.649338437e-28
7.661796289e-28
1.296855625e-27
2.176450412e-27
3.52686619e-27
5.378803132e-27
7.493283611e-27
9.154085291e-27
6.247203971e-28
9.516531385e-28
1.57803091e-27
2.684557183e-27
4.52086919e-27
7.338819607e-27
1.119642696e-26
1.558987179e-26
1.903177716e-26
1.273907985e-27
1.950421765e-27
3.250403294e-27
5.55192498e-27
9.374866918e-27
1.523898747e-26
2.325489722e-26
3.236567405e-26
3.948821072e-26
2.602490325e-27
4.001025305e-27
6.694802185e-27
1.147220258e-26
1.941318388e-26
3.158939312e-26
4.821320955e-26
6.707570848e-26
8.179599529e-26
5.323928069e-27
8.21263532e-27
1.378731137e-26
2.368756605e-26
4.015223283e-26
6.538891246e-26
9.980749151e-26
1.388047087e-25
1.691921913e-25
1.090206612e-26
1.686434435e-26
2.838816496e-26
4.887597486e-26
8.296095303e-26
1.351866098e-25
2.063463469e-25
2.868690213e-25
3.49529552e-25
2.234057004e-26
3.463851046e-26
5.84372976e-26
1.007843556e-25
1.712528818e-25
2.791844017e-25
4.261152745e-25
5.921810941e-25
7.212464098e-25
4.580213557e-26
7.115249752e-26
1.202586857e-25
2.076936296e-25
3.532083599e-25
5.75986434e-25
8.789949316e-25
1.221067101e-24
1.486595099e-24
9.39273928e-26
1.461517512e-25
2.473941127e-25
4.277423013e-25
7.278846569e-25
1.187158816e-24
1.811260757e-24
2.514980975e-24
3.060533909e-24
1.926322796e-25
3.001533874e-25
5.087176218e-25
8.803521249e-25
1.498743922e-24
2.444405234e-24
3.728145183e-24
5.17380131e-24
6.292984607e-24
3.950070632e-25
6.162198631e-25
1.045498879e-24
1.81051557e-24
3.08310317e-24
5.027704814e-24
7.664421859e-24
1.062939716e-23
1.292121731e-23
8.096993982e-25
1.264447288e-24
2.14714938e-24
3.720147873e-24
6.335578958e-24
1.032844636e-23
1.573507749e-23
2.180455821e-23
2.648757367e-23
1.658768962e-24
2.592696582e-24
4.405723694e-24
7.635892874e-24
1.300315047e-23
2.11876821e-23
3.225231466e-23
4.464904653e-23
5.419372959e-23
3.395309838e-24
5.31111553e-24
9.030086665e-24
1.565328964e-23
2.664864347e-23
4.339165854e-23
6.598290045e-23
9.123526003e-23
1.106295095e-22
6.941932251e-24
1.086636627e-23
1.848291131e-23
3.203906184e-23
5.451814061e-23
8.868842109e-23
1.346880887e-22
1.859650332e-22
2.252310868e-22
1.417267954e-23
2.219795457e-23
3.776746492e-23
6.545504509e-23
1.113007457e-22
1.808438392e-22
2.742055467e-22
3.779411019e-22
4.571054006e-22
2.888322016e-23
4.52608031e-23
7.701611484e-23
1.334245811e-22
2.266601357e-22
3.677313832e-22
5.565064108e-22
7.654624825e-22
9.24289733e-22
5.873575779e-23
9.207668356e-23
1.56672515e-22
2.712560543e-22
4.602359993e-22
7.453160255e-22
1.125349657e-21
1.544164946e-21
1.861054193e-21
1.19139666e-22
1.868193041e-22
3.178108665e-22
5.497676459e-22
9.31333098e-22
1.504899955e-21
2.266145522e-21
3.100858877e-21
3.72917217e-21
2.409548628e-22
3.77882785e-22
6.425632596e-22
1.110267095e-21
1.87726364e-21
3.025473631e-21
4.541708652e-21
6.194826263e-21
7.432015877e-21
4.856995506e-22
7.616751846e-22
1.294295928e-21
2.233098271e-21
3.767113936e-21
6.052722885e-21
9.053675459e-21
1.230479014e-20
1.472252179e-20
9.753974297e-22
1.529230956e-21
2.596079545e-21
4.470945946e-21
7.521749973e-21
1.20428982e-20
1.794112128e-20
2.428638172e-20
2.897276138e-20
1.950797517e-21
3.056913452e-21
5.18282272e-21
8.905981889e-21
1.493552916e-20
2.381714554e-20
3.532215319e-20
4.760522236e-20
5.661064394e-20
3.88421397e-21
6.081670655e-21
1.029392983e-20
1.764168153e-20
2.947719654e-20
4.679437945e-20
6.9053843e-20
9.2625484e-20
1.0977408e-19
7.696795651e-21
1.203719703e-20
2.033173628e-20
3.473514762e-20
5.779640877e-20
9.129085949e-20
1.339876186e-19
1.788129789e-19
2.11163249e-19
1.517407654e-20
2.369390724e-20
3.991822154e-20
6.794841575e-20
1.125299833e-19
1.767657668e-19
2.579284304e-19
3.423745341e-19
4.028205657e-19
2.975538195e-20
4.636801292e-20
7.78776343e-20
1.320077479e-19
2.174778525e-19
3.395800152e-19
4.924318066e-19
6.500026739e-19
7.618596388e-19
5.802322439e-20
9.018819711e-20
1.509244471e-19
2.546130195e-19
4.170564019e-19
6.4703378e-19
9.321716439e-19
1.223363626e-18
1.428373855e-18
1.124942153e-19
1.743121553e-19
2.904645845e-19
4.874152344e-19
7.933977138e-19
1.222516698e-18
1.749349312e-18
2.28231951e-18
2.654505825e-18
2.168131668e-19
3.347098932e-19
5.550311947e-19
9.258869809e-19
1.496988756e-18
2.29014628e-18
3.254267392e-18
4.220544539e-18
4.889982968e-18
4.153539448e-19
6.384210045e-19
1.05283209e-18
1.744970876e-18
2.801075974e-18
4.253289062e-18
6.00104472e-18
7.736719156e-18
8.930022813e-18
7.908453724e-19
1.209473417e-18
1.982295058e-18
3.262485719e-18
5.197435422e-18
7.831519809e-18
1.097062335e-17
1.406039503e-17
1.616917526e-17
1.496510843e-18
2.275651014e-18
3.704395197e-18
6.050975508e-18
9.563581213e-18
1.429762251e-17
1.988519401e-17
2.533805976e-17
2.903396167e-17
2.814275838e-18
4.252263161e-18
6.870680141e-18
1.11334625e-17
1.74524504e-17
2.588468171e-17
3.574463759e-17
4.528864997e-17
5.171552776e-17
5.259472287e-18
7.891113885e-18
1.264819657e-17
2.032348854e-17
3.159064193e-17
4.648052567e-17
6.373581995e-17
8.030974778e-17
9.140302546e-17
9.767903171e-18
1.454355056e-17
2.311182653e-17
3.681161464e-17
5.672952729e-17
8.280475473e-17
1.12764622e-16
1.413337294e-16
1.603486262e-16
1.802777829e-17
2.662174531e-17
4.192390908e-17
6.617020429e-17
1.010898399e-16
1.463917298e-16
1.980227059e-16
2.469258782e-16
2.793074649e-16
3.306470588e-17
4.840212173e-17
7.550367738e-17
1.180637574e-16
1.787986639e-16
2.569123922e-16
3.452651267e-16
4.284299879e-16
4.832409878e-16
6.026565072e-17
8.741544623e-17
1.350266697e-16
2.0914241e-16
3.1397668e-16
4.477085563e-16
5.979029507e-16
7.384742704e-16
8.30731022e-16
1.091591359e-16
1.568365104e-16
2.398224222e-16
3.679086387e-16
5.475541999e-16
7.749632265e-16
1.028704377e-15
1.264965005e-15
1.41945279e-15
1.964890602e-16
2.795658899e-16
4.231156595e-16
6.428601253e-16
9.485737783e-16
1.332793163e-15
1.758976982e-15
2.154012019e-15
2.411505665e-15
3.514860823e-16
4.951540473e-16
7.416060059e-16
1.115888149e-15
1.63269419e-15
2.277975681e-15
2.989966631e-15
3.647327726e-15
4.07468645e-15
6.24698227e-16
8.712535422e-16
1.291281393e-15
1.9244311e-15
2.792613904e-15
3.870217615e-15
5.053703807e-15
6.142756565e-15
6.849312957e-15
1.10284447e-15
1.522798439e-15
2.233565557e-15
3.297556947e-15
4.747231895e-15
6.537071983e-15
8.494901329e-15
1.029168689e-14
1.145575073e-14
1.93346186e-15
2.643462886e-15
3.837811571e-15
5.614257494e-15
8.02065135e-15
1.097783118e-14
1.420171042e-14
1.715446762e-14
1.906599607e-14
3.36528468e-15
4.556783157e-15
6.549761637e-15
9.49664394e-15
1.346776523e-14
1.832805616e-14
2.361237214e-14
2.844586324e-14
3.157469318e-14
5.813617394e-15
7.79824435e-15
1.110053315e-14
1.595721821e-14
2.247159315e-14
3.041711845e-14
3.903798137e-14
4.691806333e-14
5.202194954e-14
9.964791012e-15
1.324540019e-14
1.867792786e-14
2.662865841e-14
3.724941089e-14
5.016608942e-14
6.415983093e-14
7.694999161e-14
8.524348715e-14
1.694077803e-14
2.232133899e-14
3.119207355e-14
4.411747974e-14
6.132106351e-14
8.219363932e-14
1.047842705e-13
1.254397704e-13
1.388540479e-13
2.855491674e-14
3.730834494e-14
5.168151383e-14
7.254052674e-14
1.002147702e-13
1.337244084e-13
1.699697187e-13
2.031330323e-13
2.247082707e-13
4.770338339e-14
6.182441969e-14
8.492492957e-14
1.183266502e-13
1.62514344e-13
2.159286035e-13
2.736801892e-13
3.265638126e-13
3.610297108e-13
7.89556747e-14
1.015366022e-13
1.383489307e-13
1.913963459e-13
2.613881828e-13
3.45864233e-13
4.371679417e-13
5.208371113e-13
5.75453105e-13
1.294322847e-13
1.652131458e-13
2.233551919e-13
3.068708952e-13
4.167857385e-13
5.492451653e-13
6.92344974e-13
8.235428234e-13
9.092871197e-13
2.100906127e-13
2.662532135e-13
3.572321942e-13
4.875110641e-13
6.585425795e-13
8.643198826e-13
1.086469476e-12
1.290159824e-12
1.423374822e-12
3.375828655e-13
4.248797286e-13
5.658697633e-13
7.671452802e-13
1.030701976e-12
1.347218531e-12
1.688550141e-12
2.001387759e-12
2.206008392e-12
5.369045673e-13
6.71240555e-13
8.875605177e-13
1.195420331e-12
1.597441025e-12
2.079211625e-12
2.597960731e-12
3.072935474e-12
3.383446668e-12
8.451218112e-13
1.049737738e-12
1.378253682e-12
1.844296528e-12
2.451085484e-12
3.176425931e-12
3.95586384e-12
4.668404605e-12
5.133695324e-12
1.31655239e-12
1.624996992e-12
2.118726523e-12
2.816817384e-12
3.722813819e-12
4.802686917e-12
5.960173454e-12
7.016043156e-12
7.704349628e-12
2.029883689e-12
2.490003437e-12
3.224260845e-12
4.258815762e-12
5.596793327e-12
7.186310443e-12
8.884950371e-12
1.043031886e-11
1.143548172e-11
3.097842594e-12
3.777068985e-12
4.857561291e-12
6.374380005e-12
8.328667111e-12
1.064185901e-11
1.310533536e-11
1.533948996e-11
1.678879366e-11
4.680193885e-12
5.672466397e-12
7.245834116e-12
9.446101696e-12
1.226952957e-11
1.559812147e-11
1.912939561e-11
2.232064707e-11
2.438456999e-11
7.001037797e-12
8.435769506e-12
1.070316548e-11
1.386136932e-11
1.789679931e-11
2.263388099e-11
2.763860335e-11
3.214407674e-11
3.504836207e-11
1.037160826e-11
1.242518313e-11
1.565960325e-11
2.014626623e-11
2.585373051e-11
3.252341277e-11
3.953908883e-11
4.582926199e-11
4.986982657e-11
1.522004448e-11
1.813043402e-11
2.269866023e-11
2.900898172e-11
3.699969955e-11
4.629410107e-11
5.602631122e-11
6.471538116e-11
7.027671314e-11
2.212992245e-11
2.621512768e-11
3.260532092e-11
4.139504864e-11
5.247385846e-11
6.529907413e-11
7.866635126e-11
9.054976829e-11
9.812762259e-11
3.188968916e-11
3.757085346e-11
4.642704235e-11
5.855717042e-11
7.377524141e-11
9.130829598e-11
1.094976108e-10
1.255984087e-10
1.35827782e-10
4.555553534e-11
5.338573198e-11
6.555067928e-11
8.214287105e-11
1.028629127e-10
1.266220815e-10
1.511572465e-10
1.727830912e-10
1.864726312e-10
6.453066095e-11
7.523053138e-11
9.179871081e-11
1.143036611e-10
1.422802076e-10
1.742114551e-10
2.070370964e-10
2.358502426e-10
2.540244006e-10
9.066431495e-11
1.051659068e-10
1.275485708e-10
1.578298236e-10
1.953074964e-10
2.37890101e-10
2.81474125e-10
3.195766756e-10
3.435270251e-10
1.263744058e-10
1.45874721e-10
1.758792614e-10
2.163152551e-10
2.66148167e-10
3.225228327e-10
3.799804955e-10
4.30017486e-10
4.613646989e-10
1.747978687e-10
2.008237674e-10
2.40749752e-10
2.943570585e-10
3.601527004e-10
4.342755983e-10
5.095183844e-10
5.748012729e-10
6.155692804e-10
2.399733449e-10
2.744595604e-10
3.272139641e-10
3.977948308e-10
4.840859091e-10
5.809121898e-10
6.788247834e-10
7.634779958e-10
8.161819148e-10
3.270611143e-10
3.724432324e-10
4.416775159e-10
5.339949705e-10
6.464428281e-10
7.721433299e-10
8.987921654e-10
1.007925551e-09
1.075675112e-09
4.426057188e-10
5.01930108e-10
5.922019977e-10
7.121860537e-10
8.578196731e-10
1.020035008e-09
1.182912415e-09
1.322822991e-09
1.409443572e-09
5.948474532e-10
6.719003733e-10
7.888635856e-10
9.438526522e-10
1.131348001e-09
1.339485153e-09
1.547794168e-09
1.726201524e-09
1.836375545e-09
7.940900602e-10
8.935486116e-10
1.044174469e-09
1.243197078e-09
1.483202888e-09
1.748781046e-09
2.013767672e-09
2.240088921e-09
2.379521324e-09
1.053133696e-09
1.18074197e-09
1.373577964e-09
1.627681462e-09
1.933199462e-09
2.270254028e-09
2.605595926e-09
2.891267986e-09
3.066880653e-09
1.387784597e-09
1.550559362e-09
1.796031204e-09
2.118666032e-09
2.505496008e-09
2.931052201e-09
3.353315184e-09
3.712174008e-09
3.932335006e-09
1.817455742e-09
2.023927147e-09
2.334692531e-09
2.74216279e-09
3.229425107e-09
3.76405479e-09
4.293230226e-09
4.741957786e-09
5.016751869e-09
2.365875807e-09
2.626369689e-09
3.017733464e-09
3.529726086e-09
4.140475754e-09
4.808952029e-09
5.469088602e-09
6.027738183e-09
6.36928456e-09
3.061926139e-09
3.388895188e-09
3.87929636e-09
4.519501601e-09
5.281447685e-09
6.11351066e-09
6.933451931e-09
7.626059988e-09
8.048881701e-09
3.940626483e-09
4.349037355e-09
4.960617657e-09
5.757452047e-09
6.703793427e-09
7.735036499e-09
8.749270864e-09
9.60455904e-09
1.012600517e-08
5.0442887e-09
5.552070757e-09
6.311331926e-09
7.298770675e-09
8.46915336e-09
9.742032179e-09
1.099165409e-08
1.204381805e-08
1.268453563e-08
6.423852962e-09
7.052411328e-09
7.990963388e-09
9.209482401e-09
1.065107485e-08
1.221603111e-08
1.37498023e-08
1.503937553e-08
1.582382283e-08
8.140412238e-09
8.915203377e-09
1.007059927e-08
1.156821762e-08
1.333688942e-08
1.525356964e-08
1.712905776e-08
1.870382912e-08
1.966081666e-08
1.026691848e-08
1.121808067e-08
1.2634724e-08
1.446812678e-08
1.66297037e-08
1.896824074e-08
2.12530013e-08
2.316895649e-08
2.433219696e-08
1.289004839e-08
1.405307287e-08
1.578317609e-08
1.801888643e-08
2.06504427e-08
2.349275581e-08
2.626551353e-08
2.858776331e-08
2.999640795e-08
1.611218917e-08
1.752861128e-08
1.963317271e-08
2.234873102e-08
2.553986926e-08
2.898092944e-08
3.233270764e-08
3.513636054e-08
3.683549683e-08
2.005348747e-08
2.177157104e-08
2.43213314e-08
2.7606432e-08
3.146049354e-08
3.560949465e-08
3.964463738e-08
4.301557293e-08
4.505665796e-08
2.485388864e-08
2.692927286e-08
3.000560668e-08
3.396313668e-08
3.859828133e-08
4.357965565e-08
4.841668706e-08
5.245218617e-08
5.489339085e-08
3.067508178e-08
3.317135724e-08
3.686705231e-08
4.161397637e-08
4.716407085e-08
5.311828991e-08
5.889055896e-08
6.369975213e-08
6.660619413e-08
3.770225835e-08
4.069143922e-08
4.51113181e-08
5.077935541e-08
5.73946144e-08
6.447872203e-08
7.133478744e-08
7.703888756e-08
8.048273494e-08
4.614559139e-08
4.970845281e-08
5.496979478e-08
6.170584054e-08
6.95531724e-08
7.794100657e-08
8.604472679e-08
9.277702178e-08
9.68374541e-08
5.624134643e-08
6.046760105e-08
6.670032974e-08
7.466658321e-08
8.392960374e-08
9.381167594e-08
1.033419805e-07
1.112475705e-07
1.160105901e-07
6.825254631e-08
7.324083988e-08
8.058745108e-08
8.996122385e-08
1.00839915e-07
1.124229298e-07
1.235732617e-07
1.328085359e-07
1.38366628e-07
8.246912711e-08
8.83268406e-08
9.694205567e-08
1.079152469e-07
1.206252516e-07
1.341312641e-07
1.471086957e-07
1.578405556e-07
1.64292203e-07
9.920754178e-08
1.060503956e-07
1.16100537e-07
1.288787762e-07
1.436503357e-07
1.593155578e-07
1.743395965e-07
1.867444417e-07
1.941935091e-07
1.188097896e-07
1.267612536e-07
1.3842335e-07
1.532248198e-07
1.703013712e-07
1.883746492e-07
2.056757534e-07
2.199382444e-07
2.284932323e-07
1.41641873e-07
1.508323933e-07
1.642930326e-07
1.813469974e-07
2.009834622e-07
2.217244572e-07
2.415422877e-07
2.578538883e-07
2.676270129e-07
1.680917062e-07
1.786577675e-07
1.941117266e-07
2.136568042e-07
2.361176159e-07
2.597947472e-07
2.823762393e-07
3.009336744e-07
3.120399897e-07
1.985665207e-07
2.106495701e-07
2.282982572e-07
2.505804804e-07
2.761374007e-07
3.03025592e-07
3.286228394e-07
3.496263558e-07
3.621827974e-07
2.334898343e-07
2.472350939e-07
2.672848471e-07
2.92555569e-07
3.214853584e-07
3.518636765e-07
3.807317758e-07
4.043834387e-07
4.18507752e-07
2.732980604e-07
2.88853264e-07
3.115135511e-07
3.400272466e-07
3.726092352e-07
4.067584172e-07
4.391531753e-07
4.656551687e-07
4.814649166e-07
3.184368494e-07
3.359509355e-07
3.614325058e-07
3.934445374e-07
4.299581951e-07
4.681582302e-07
5.04333989e-07
5.338868052e-07
5.514983544e-07
3.69357256e-07
3.889790488e-07
4.174920766e-07
4.532564578e-07
4.939789288e-07
5.365065865e-07
5.767141626e-07
6.095149688e-07
6.290425376e-07
4.265118291e-07
4.483887404e-07
4.801410045e-07
5.199081913e-07
5.651119227e-07
6.122386309e-07
6.567232087e-07
6.929642772e-07
7.145190399e-07
4.903507201e-07
5.146274979e-07
5.498226075e-07
5.938373972e-07
6.437881152e-07
6.957777409e-07
7.44777015e-07
7.846442823e-07
8.083335501e-07
5.613178922e-07
5.881354161e-07
6.269711424e-07
6.754709457e-07
7.304255585e-07
7.875324914e-07
8.412749748e-07
8.849467536e-07
9.10873248e-07
6.398474817e-07
6.69341642e-07
7.120086367e-07
7.652216795e-07
8.254265024e-07
8.878939419e-07
9.465974822e-07
9.942433423e-07
1.022504567e-06
7.263603638e-07
7.586613406e-07
8.053417668e-07
8.634856093e-07
9.29174809e-07
9.972332927e-07
1.061103812e-06
1.11288364e-06
1.143571359e-06
8.212614429e-07
8.564927718e-07
9.073591995e-07
9.70639462e-07
1.042033749e-06
1.115899934e-06
1.185130401e-06
1.241193643e-06
1.274393463e-06
9.249369197e-07
9.632148139e-07
1.018429299e-06
1.087038618e-06
1.164344195e-06
1.244219891e-06
1.318989522e-06
1.379474608e-06
1.415265667e-06
1.037752051e-06
1.07918486e-06
1.138898221e-06
1.213015441e-06
1.2964232e-06
1.382494662e-06
1.462968348e-06
1.528002293e-06
1.566457053e-06
1.160049316e-06
1.204737122e-06
1.269088405e-06
1.348878002e-06
1.438562978e-06
1.531000428e-06
1.61732838e-06
1.687026551e-06
1.728210681e-06
1.29214698e-06
1.340181325e-06
1.409297466e-06
1.494909187e-06
1.591030233e-06
1.689987624e-06
1.782305216e-06
1.856771251e-06
1.900743602e-06
1.434338069e-06
1.485801811e-06
1.559797455e-06
1.651366164e-06
1.754065851e-06
1.859680827e-06
1.958108624e-06
2.037434496e-06
2.084247149e-06
1.586889708e-06
1.641856986e-06
1.720834479e-06
1.818480185e-06
1.927884894e-06
2.040278944e-06
2.14492289e-06
2.229189087e-06
2.278887477e-06
1.750042825e-06
1.808579134e-06
1.892628645e-06
1.996456699e-06
2.112676882e-06
2.231955654e-06
2.342907402e-06
2.43218322e-06
2.484806316e-06
1.924012173e-06
1.986174519e-06
2.075374293e-06
2.185475723e-06
2.308606317e-06
2.434860074e-06
2.552197437e-06
2.646541355e-06
2.70212189e-06
2.10898663e-06
2.174823773e-06
2.269240486e-06
2.385692459e-06
2.515813417e-06
2.649117606e-06
2.772905103e-06
2.872365238e-06
2.930929977e-06
2.305129763e-06
2.374682521e-06
2.474371719e-06
2.597238093e-06
2.734415024e-06
2.874830941e-06
3.005120423e-06
3.109735034e-06
3.171305076e-06
2.512580596e-06
2.585882192e-06
2.690888806e-06
2.820220768e-06
2.964505647e-06
3.112081172e-06
3.248912505e-06
3.358710544e-06
3.423301644e-06
2.731454548e-06
2.808531009e-06
2.918889916e-06
3.054726674e-06
3.206158617e-06
3.360928996e-06
3.504330787e-06
3.619332475e-06
3.686955382e-06
2.961844519e-06
3.042715098e-06
3.158451723e-06
3.300821239e-06
3.459427309e-06
3.621415976e-06
3.771406319e-06
3.891623742e-06
3.962284545e-06
3.203822077e-06
3.288499691e-06
3.409630629e-06
3.558550379e-06
3.724346421e-06
3.893565832e-06
4.050153071e-06
4.175590778e-06
4.249291254e-06
3.457438717e-06
3.545930396e-06
3.672464052e-06
3.827941795e-06
4.000933274e-06
4.177385743e-06
4.340569231e-06
4.471224831e-06
4.547962793e-06
3.72272717e-06
3.815034514e-06
3.946971736e-06
4.10900628e-06
4.289189114e-06
4.472867648e-06
4.642638493e-06
4.778503245e-06
4.858272875e-06
3.999702736e-06
4.095822359e-06
4.233157069e-06
4.401739026e-06
4.589100407e-06
4.779989514e-06
4.956331313e-06
5.097390692e-06
5.180182874e-06
4.288364615e-06
4.388288583e-06
4.531008392e-06
4.706120915e-06
4.900640101e-06
5.098716576e-06
5.281606119e-06
5.427840365e-06
5.513643002e-06
4.588697223e-06
4.692413479e-06
4.840500278e-06
5.022119771e-06
5.223768853e-06
5.429002531e-06
5.618410472e-06
5.769795118e-06
5.858593429e-06
4.900671481e-06
5.008164251e-06
5.161594781e-06
5.349691573e-06
5.558436202e-06
5.770790676e-06
5.966682176e-06
6.12318854e-06
6.214965347e-06
5.224246057e-06
5.335496235e-06
5.494242627e-06
5.688781618e-06
5.904581693e-06
6.124014989e-06
6.326350316e-06
6.487945971e-06
6.582681968e-06
5.559368559e-06
5.674354075e-06
5.838384353e-06
6.039325619e-06
6.262135935e-06
6.488601148e-06
6.697336245e-06
6.863985455e-06
6.961659454e-06
5.905976671e-06
6.024672829e-06
6.193951394e-06
6.401250746e-06
6.631021602e-06
6.864467488e-06
7.079554493e-06
7.25121862e-06
7.351807788e-06
6.263999225e-06
6.386379022e-06
6.560867088e-06
6.774476606e-06
7.011154362e-06
7.251525884e-06
7.472913625e-06
7.649551504e-06
7.753031576e-06
6.633357205e-06
6.759391627e-06
6.939047636e-06
7.158916149e-06
7.402443748e-06
7.649682586e-06
7.877317021e-06
8.058885307e-06
8.165230784e-06
7.013964689e-06
7.143622982e-06
7.328402979e-06
7.554476515e-06
7.804793957e-06
8.058838969e-06
8.292663605e-06
8.479117089e-06
8.58830142e-06
7.405729721e-06
7.538979639e-06
7.728837619e-06
7.961059812e-06
8.218104593e-06
8.478892244e-06
8.718848507e-06
8.910140407e-06
9.022136152e-06
7.808555115e-06
7.945363149e-06
8.140251372e-06
8.378563838e-06
8.642271344e-06
8.909736088e-06
9.155763668e-06
9.351845892e-06
9.466624876e-06
8.222339196e-06
8.362670781e-06
8.562540057e-06
8.806882732e-06
9.077186601e-06
9.351261235e-06
9.603298396e-06
9.804121779e-06
9.921655224e-06
8.646976481e-06
8.790796179e-06
8.995596131e-06
9.245907575e-06
9.522740024e-06
9.803356003e-06
1.006133986e-05
1.026685438e-05
1.038711303e-05
9.082358294e-06
9.229629967e-06
9.439309263e-06
9.695526938e-06
9.978819052e-06
1.026590678e-05
1.052977355e-05
1.073992852e-05
1.086288275e-05
9.52837333e-06
9.679060289e-06
9.893566851e-06
1.015562737e-05
1.044530937e-05
1.073879843e-05
1.100848367e-05
1.122322791e-05
1.134884783e-05
9.984908164e-06
1.013897331e-05
1.03582545e-05
1.062609384e-05
1.092209531e-05
1.122191474e-05
1.149735351e-05
1.171663552e-05
1.184489105e-05
1.045184771e-05
1.060925363e-05
1.083325643e-05
1.110681014e-05
1.140906025e-05
1.171513869e-05
1.199626579e-05
1.222003383e-05
1.23508948e-05
1.092907562e-05
1.108978474e-05
1.131845587e-05
1.159765924e-05
1.190608691e-05
1.221835282e-05
1.250510289e-05
1.273330519e-05
1.286674137e-05
1.141647469e-05
1.158044932e-05
1.18137354e-05
1.209852362e-05
1.241305769e-05
1.273143949e-05
1.302374718e-05
1.325633196e-05
1.339231318e-05
1.191392712e-05
1.208112958e-05
1.231897722e-05
1.260928549e-05
1.292985489e-05
1.325428109e-05
1.355208118e-05
1.37889968e-05
1.392749293e-05
1.242131488e-05
1.259170753e-05
1.283406345e-05
1.312982713e-05
1.345636095e-05
1.37867603e-05
1.408998779e-05
1.433118277e-05
1.447216384e-05
1.29385199e-05
1.311206523e-05
1.335887633e-05
1.366003103e-05
1.399245865e-05
1.432876021e-05
1.46373504e-05
1.488277357e-05
1.502620972e-05
1.346542432e-05
1.364208499e-05
1.389329845e-05
1.419978008e-05
1.453803128e-05
1.488016449e-05
1.519405307e-05
1.544365354e-05
1.558951514e-05
1.400191067e-05
1.418164957e-05
1.443721284e-05
1.474895772e-05
1.509296271e-05
1.54408575e-05
1.575998059e-05
1.601370781e-05
1.616196542e-05
1.4547862e-05
1.473064225e-05
1.499050318e-05
1.530744807e-05
1.565713755e-05
1.601072433e-05
1.63350185e-05
1.659282232e-05
1.674344671e-05
1.5103162e-05
1.528894701e-05
1.55530538e-05
1.587513594e-05
1.623044113e-05
1.658965083e-05
1.691905314e-05
1.718088376e-05
1.73338459e-05
1.566769513e-05
1.585644857e-05
1.612474982e-05
1.64519069e-05
1.681275952e-05
1.717752357e-05
1.751197152e-05
1.777777948e-05
1.793305057e-05
1.624134657e-05
1.643303239e-05
1.670547709e-05
1.703764723e-05
1.740397949e-05
1.777422977e-05
1.811366126e-05
1.838339739e-05
1.854094876e-05
1.682400227e-05
1.701858466e-05
1.729512212e-05
1.763224386e-05
1.800398832e-05
1.837965708e-05
1.872401025e-05
1.899762559e-05
1.915742867e-05
1.741554879e-05
1.761299213e-05
1.789357192e-05
1.823558406e-05
1.861267356e-05
1.899369322e-05
1.934290635e-05
1.962035195e-05
1.978237816e-05
1.801587311e-05
1.821614191e-05
1.850071374e-05
1.884755516e-05
1.922992258e-05
1.96162255e-05
1.997023673e-05
2.025146345e-05
2.041568408e-05
1.862486236e-05
1.882792112e-05
1.911643461e-05
1.946804407e-05
1.985562198e-05
2.024714012e-05
2.060588707e-05
2.089084528e-05
2.105723125e-05
1.924240332e-05
1.944821633e-05
1.97406208e-05
2.009693652e-05
2.048965678e-05
2.088632116e-05
2.124974042e-05
2.153837951e-05
2.170690109e-05
1.986838179e-05
2.00769129e-05
2.037315691e-05
2.073411607e-05
2.113190916e-05
2.153364918e-05
2.19016756e-05
2.219394338e-05
2.236456984e-05
2.050268159e-05
2.071389386e-05
2.101392473e-05
2.137946275e-05
2.178225695e-05
2.218899942e-05
2.256156512e-05
2.285740699e-05
2.303010603e-05
2.114518338e-05
2.135903857e-05
2.166280162e-05
2.203285122e-05
2.244057141e-05
2.285223928e-05
2.322927242e-05
2.352863025e-05
2.370336733e-05
2.179576287e-05
2.201222082e-05
2.23196584e-05
2.269414833e-05
2.310671452e-05
2.35232252e-05
2.390464826e-05
2.420745896e-05
2.438419641e-05
2.24542886e-05
2.267330639e-05
2.298435665e-05
2.336321002e-05
2.378053532e-05
2.420179851e-05
2.458752616e-05
2.489371983e-05
2.507241572e-05
2.312061904e-05
2.334214989e-05
2.365674511e-05
2.403987727e-05
2.446186541e-05
2.488778032e-05
2.527771667e-05
2.558721429e-05
2.576782096e-05
2.379459889e-05
2.401859075e-05
2.433665529e-05
2.472397113e-05
2.515051325e-05
2.558096513e-05
2.59750003e-05
2.62877108e-05
2.647017311e-05
2.447605438e-05
2.470244821e-05
2.502389589e-05
2.541528649e-05
2.584625715e-05
2.628111303e-05
2.667911896e-05
2.699493573e-05
2.717918886e-05
2.516478755e-05
2.539351515e-05
2.571824606e-05
2.611358456e-05
2.654883695e-05
2.698794042e-05
2.73897658e-05
2.77085624e-05
2.789452932e-05
2.586056922e-05
2.609155063e-05
2.641944725e-05
2.681858391e-05
2.725794405e-05
2.770110905e-05
2.810657335e-05
2.842819853e-05
2.861578694e-05
2.65631307e-05
2.679627103e-05
2.712719364e-05
2.752994994e-05
2.79732099e-05
2.842021351e-05
2.88291e-05
2.915337197e-05
2.934247083e-05
2.727215393e-05
2.750733974e-05
2.784112103e-05
2.824728292e-05
2.869419294e-05
2.914476714e-05
2.955681502e-05
2.988351494e-05
3.007399064e-05
2.798726025e-05
2.822435532e-05
2.856079433e-05
2.897010447e-05
2.942036424e-05
2.987418665e-05
3.028908234e-05
3.061794723e-05
3.080963932e-05
2.870799772e-05
2.89468384e-05
2.928569366e-05
2.969784294e-05
3.015109188e-05
3.060777582e-05
3.102514358e-05
3.13558588e-05
3.154857559e-05
2.943382728e-05
2.967421732e-05
3.001519948e-05
3.042981788e-05
3.088562495e-05
3.13447089e-05
3.17641012e-05
3.209629272e-05
3.22898068e-05
3.016410786e-05
3.040581306e-05
3.074857715e-05
3.116522426e-05
3.162307747e-05
3.208401458e-05
3.250490245e-05
3.283812938e-05
3.303217335e-05
3.089808123e-05
3.114082388e-05
3.148496157e-05
3.19031172e-05
3.236241341e-05
3.282456142e-05
3.324632565e-05
3.358007346e-05
3.377433614e-05
3.163485689e-05
3.187831051e-05
3.222334269e-05
3.26423981e-05
3.310243383e-05
3.35650463e-05
3.398696989e-05
3.432064499e-05
3.451476854e-05
3.237339819e-05
3.261718275e-05
3.296255303e-05
3.338180354e-05
3.384176742e-05
3.430398703e-05
3.472525002e-05
3.505817636e-05
3.525175469e-05
3.31125105e-05
3.335618864e-05
3.370125838e-05
3.411989803e-05
3.457886608e-05
3.503972103e-05
3.545939844e-05
3.57908169e-05
3.598339583e-05
3.385083278e-05
3.409390744e-05
3.443795307e-05
3.485507237e-05
3.531200683e-05
3.577041146e-05
3.618747543e-05
3.651654676e-05
3.67076264e-05
3.458683383e-05
3.482874793e-05
3.517096119e-05
3.558554875e-05
3.603930179e-05
3.649406221e-05
3.690738924e-05
3.723320131e-05
3.7422241e-05
3.531881458e-05
3.555895317e-05
3.589844516e-05
3.63093942e-05
3.675871715e-05
3.720854307e-05
3.761692704e-05
3.793850686e-05
3.8124933e-05
3.604491786e-05
3.628261322e-05
3.661842279e-05
3.702454321e-05
3.746810223e-05
3.79116254e-05
3.831379692e-05
3.863012778e-05
3.881334461e-05
3.676314646e-05
3.699768664e-05
3.732879365e-05
3.77288301e-05
3.816522865e-05
3.860102825e-05
3.899568031e-05
3.930572387e-05
3.948512718e-05
3.747139056e-05
3.770203137e-05
3.8027375e-05
3.842003113e-05
3.884783908e-05
3.927447372e-05
3.966029327e-05
3.996301609e-05
4.01380093e-05
3.81674644e-05
3.839344496e-05
3.871194685e-05
3.909591527e-05
3.951370415e-05
3.992974952e-05
4.030545373e-05
4.059985723e-05
4.076986929e-05
3.884915189e-05
3.906971325e-05
3.938030498e-05
3.975430208e-05
4.016068492e-05
4.056477562e-05
4.092915123e-05
4.121430337e-05
4.137880736e-05
3.951425982e-05
3.972866609e-05
4.003031973e-05
4.039312371e-05
4.078679784e-05
4.1177671e-05
4.152961435e-05
4.180468125e-05
4.196321256e-05
4.016067662e-05
4.036823753e-05
4.065999781e-05
4.1010488e-05