/*--------------------------------*- C++ -*----------------------------------*\
| =========                 |                                                 |
| \\      /  F ield         | OpenFOAM: The Open Source CFD Toolbox           |
|  \\    /   O peration     | Version:  2212                                  |
|   \\  /    A nd           | Website:  www.openfoam.com                      |
|    \\/     M anipulation  |                                                 |
\*---------------------------------------------------------------------------*/
FoamFile
{
    version     2.0;
    format      ascii;
    arch        "LSB;label=32;scalar=64";
    class       volScalarField;
    location    "20.00000000";
    object      A2_0;
}
// * * * * * * * * * * * * * * * * * * * * * * * * * * * * * * * * * * * * * //

dimensions      [0 0 0 0 0 0 0];

internalField   nonuniform List<scalar> 
3000
(
3.787378991e-34
4.697961296e-34
6.153859947e-34
8.24192685e-34
1.105125388e-33
1.461407739e-33
1.879255569e-33
2.308754173e-33
2.636282344e-33
1.596056423e-33
1.994405766e-33
2.631278546e-33
3.546539516e-33
4.788118822e-33
6.403848887e-33
8.424236943e-33
1.081348522e-32
1.315877405e-32
4.112764509e-33
5.204364641e-33
6.968141722e-33
9.55228845e-33
1.316927902e-32
1.809657821e-32
2.462095537e-32
3.277791489e-32
4.079259512e-32
8.986880611e-33
1.155814078e-32
1.57942038e-32
2.218907071e-32
3.149477693e-32
4.473306324e-32
6.296689331e-32
8.611760485e-32
1.079799824e-31
1.827559863e-32
2.397465074e-32
3.359304623e-32
4.858241259e-32
7.11775698e-32
1.043859335e-31
1.509758428e-31
2.093877956e-31
2.61872476e-31
3.59948941e-32
4.825608315e-32
6.946782667e-32
1.035045374e-31
1.56305084e-31
2.355645603e-31
3.473258771e-31
4.846073717e-31
6.028256406e-31
7.018627829e-32
9.620187965e-32
1.422364496e-31
2.17942624e-31
3.379242785e-31
5.20271959e-31
7.769363076e-31
1.086081497e-30
1.342112747e-30
1.369763145e-31
1.917490919e-31
2.90562029e-31
4.562839758e-31
7.230065889e-31
1.131311808e-30
1.704368927e-30
2.386976666e-30
2.951804327e-30
2.689755781e-31
3.837805885e-31
5.941835596e-31
9.523629195e-31
1.534846228e-30
2.429166267e-30
3.677396551e-30
5.14461065e-30
6.333715732e-30
5.323248874e-31
7.722131418e-31
1.217397586e-30
1.983796581e-30
3.238902287e-30
5.167931282e-30
7.846777451e-30
1.096567066e-29
1.346614347e-29
1.061660482e-30
1.561760201e-30
2.499004756e-30
4.126062694e-30
6.803368681e-30
1.091873797e-29
1.660983801e-29
2.318960723e-29
2.842536346e-29
2.131611554e-30
3.172173842e-30
5.137317367e-30
8.570291372e-30
1.423784766e-29
2.294712732e-29
3.495012756e-29
4.875417039e-29
5.967762059e-29
4.303363887e-30
6.464892653e-30
1.057153824e-29
1.777966341e-29
2.970724538e-29
4.802805177e-29
7.320833864e-29
1.02049594e-28
1.247765415e-28
8.725071554e-30
1.320860381e-29
2.176688843e-29
3.684320292e-29
6.183217482e-29
1.001970017e-28
1.528098644e-28
2.128814942e-28
2.600642724e-28
1.774808233e-29
2.703612404e-29
4.483129139e-29
7.626730489e-29
1.284362684e-28
2.084932255e-28
3.180864614e-28
4.429026463e-28
5.406859377e-28
3.619126817e-29
5.541078124e-29
9.234278854e-29
1.577281908e-28
2.663365939e-28
4.32934145e-28
6.606632505e-28
9.194971333e-28
1.12184583e-27
7.39358138e-29
1.136676886e-28
1.901969187e-28
3.259211409e-28
5.515215544e-28
8.974432632e-28
1.369719884e-27
1.905596663e-27
2.323794691e-27
1.512508782e-28
2.333180088e-28
3.916925427e-28
6.72955202e-28
1.140710435e-27
1.857675379e-27
2.835494759e-27
3.943391588e-27
4.806688968e-27
3.097237645e-28
4.791099341e-28
8.064975109e-28
1.388548778e-27
2.356890671e-27
3.840602669e-27
5.862225016e-27
8.149845011e-27
9.930007966e-27
6.346875213e-28
9.840675567e-28
1.660182481e-27
2.863247054e-27
4.865232339e-27
7.931527671e-27
1.210578045e-26
1.68236501e-26
2.049034884e-26
1.301222094e-27
2.021416686e-27
3.416505682e-27
5.900500707e-27
1.003452136e-26
1.636356551e-26
2.49719268e-26
3.469007277e-26
4.223362661e-26
2.66844318e-27
4.152118239e-27
7.02837695e-27
1.215200344e-26
2.067893861e-26
3.372675037e-26
5.145725934e-26
7.144969445e-26
8.694865455e-26
5.472613126e-27
8.527248696e-27
1.445248271e-26
2.501048366e-26
4.257876938e-26
6.944466266e-26
1.059152466e-25
1.469858099e-25
1.78781399e-25
1.122200703e-26
1.75065821e-26
2.970224253e-26
5.143608781e-26
8.758983734e-26
1.428352604e-25
2.177434289e-25
3.019772942e-25
3.670870672e-25
2.300326504e-26
3.592248671e-26
6.099973103e-26
1.056880439e-25
1.799914856e-25
2.934273892e-25
4.470278027e-25
6.194595297e-25
7.525022853e-25
4.712502127e-26
7.36575638e-26
1.251650015e-25
2.169329268e-25
3.694147517e-25
6.019342998e-25
9.162764596e-25
1.268463071e-24
1.539624019e-24
9.645951252e-26
1.508868514e-25
2.565414604e-25
4.44704232e-25
7.570782065e-25
1.232741129e-24
1.874550028e-24
2.591960302e-24
3.142943813e-24
1.972177567e-25
3.087094897e-25
5.250927432e-25
9.1021801e-25
1.548840393e-24
2.519605522e-24
3.826439192e-24
5.283198353e-24
6.398732509e-24
4.026406366e-25
6.306357568e-25
1.072959833e-24
1.859553823e-24
3.16201334e-24
5.137707074e-24
7.790078866e-24
1.073716784e-23
1.298619645e-23
8.205616971e-25
1.285842815e-24
2.187999557e-24
3.790543353e-24
6.439331177e-24
1.044711342e-23
1.581014248e-23
2.174650755e-23
2.625873123e-23
1.668661328e-24
2.615864774e-24
4.451008593e-24
7.706284786e-24
1.307513546e-23
2.117415401e-23
3.197076945e-23
4.386915741e-23
5.287186405e-23
3.384714163e-24
5.307467782e-24
9.028889854e-24
1.561869653e-23
2.645883041e-23
4.275365333e-23
6.438035905e-23
8.809425737e-23
1.05944406e-22
6.845439139e-24
1.0735511e-23
1.825498577e-23
3.154227932e-23
5.333236824e-23
8.595259022e-23
1.290282671e-22
1.759927275e-22
2.11140827e-22
1.379854584e-23
2.163891196e-23
3.677047096e-23
6.344149918e-23
1.070223178e-22
1.719556234e-22
2.572115762e-22
3.49574541e-22
4.182614019e-22
2.771068313e-23
4.344488964e-23
7.375366474e-23
1.270179272e-22
2.136901423e-22
3.421342909e-22
5.097006242e-22
6.899671211e-22
8.231054288e-22
5.542144373e-23
8.684579046e-23
1.472420895e-22
2.530156674e-22
4.243128763e-22
6.766363087e-22
1.003489309e-21
1.352446742e-21
1.608287421e-21
1.103491057e-22
1.727780437e-22
2.924467776e-22
5.011936942e-22
8.374363002e-22
1.329411048e-21
1.961794137e-21
2.631455682e-21
3.118640898e-21
2.18663194e-22
3.419724129e-22
5.776172345e-22
9.868128532e-22
1.641974764e-21
2.593539686e-21
3.806538715e-21
5.080010451e-21
5.999069506e-21
4.3109016e-22
6.731354726e-22
1.134062346e-21
1.930389908e-21
3.196935814e-21
5.021850588e-21
7.327651547e-21
9.726733634e-21
1.144398259e-20
8.453402803e-22
1.317299241e-21
2.212476307e-21
3.750293232e-21
6.178467569e-21
9.647344702e-21
1.398980674e-20
1.846633538e-20
2.164414908e-20
1.648421386e-21
2.562217274e-21
4.287713009e-21
7.233468517e-21
1.184842603e-20
1.838199804e-20
2.64826569e-20
3.475530915e-20
4.057957001e-20
3.195929474e-21
4.952157446e-21
8.252009665e-21
1.384731013e-20
2.254016323e-20
3.473127454e-20
4.969838699e-20
6.483986e-20
7.541352341e-20
6.159617393e-21
9.509030644e-21
1.576829336e-20
2.630418747e-20
4.252899173e-20
6.506230327e-20
9.245260442e-20
1.199041387e-19
1.389225986e-19
1.180017204e-20
1.813746157e-20
2.991078154e-20
4.957425057e-20
7.957785309e-20
1.208346888e-19
1.70487705e-19
2.197974369e-19
2.536986298e-19
2.246802702e-20
3.436121871e-20
5.63169775e-20
9.268692746e-20
1.476582885e-19
2.224916454e-19
3.116721636e-19
3.994509843e-19
4.593602521e-19
4.251665494e-20
6.465214982e-20
1.052428453e-19
1.719090045e-19
2.717013387e-19
4.061936669e-19
5.649336629e-19
7.198460773e-19
8.248439775e-19
7.995691523e-20
1.208109499e-19
1.952011761e-19
3.163074627e-19
4.958292022e-19
7.353856313e-19
1.01550054e-18
1.28663752e-18
1.469218447e-18
1.494338366e-19
2.242021565e-19
3.593554749e-19
5.774148302e-19
8.975157383e-19
1.320531349e-18
1.810738834e-18
2.281582107e-18
2.596723927e-18
2.775477082e-19
4.13235958e-19
6.566777686e-19
1.045906498e-18
1.611783904e-18
2.352570279e-18
3.203690544e-18
4.015277477e-18
4.555437783e-18
5.123042056e-19
7.564990741e-19
1.191291431e-18
1.880191628e-18
2.872299704e-18
4.159308304e-18
5.626038609e-18
7.01520061e-18
7.935002504e-18
9.397921758e-19
1.375655965e-18
2.145796941e-18
3.355136464e-18
5.080765432e-18
7.299955024e-18
9.809770657e-18
1.217197014e-17
1.372867006e-17
1.713440394e-18
2.485157661e-18
3.83836642e-18
5.944649213e-18
8.923497383e-18
1.272283962e-17
1.698910298e-17
2.098126145e-17
2.360084293e-17
3.105054265e-18
4.460732255e-18
6.820079754e-18
1.046100306e-17
1.556636186e-17
2.202733926e-17
2.923417811e-17
3.594223979e-17
4.032708152e-17
5.593386781e-18
7.956961448e-18
1.204020546e-17
1.828903924e-17
2.697941219e-17
3.789656338e-17
4.999972256e-17
6.121166126e-17
6.851543456e-17
1.001715483e-17
1.410820833e-17
2.112403179e-17
3.177431582e-17
4.647192718e-17
6.481039055e-17
8.502746059e-17
1.036748814e-16
1.157850291e-16
1.783417709e-17
2.486463195e-17
3.683646177e-17
5.487151819e-17
7.958067004e-17
1.102170667e-16
1.438187784e-16
1.746902386e-16
1.946841554e-16
3.156368558e-17
4.35632112e-17
6.385997479e-17
9.421629118e-17
1.355258389e-16
1.86447047e-16
2.420348825e-16
2.929251718e-16
3.258043623e-16
5.553500756e-17
7.58835809e-17
1.100851426e-16
1.608924581e-16
2.295976611e-16
3.138341692e-16
4.053962087e-16
4.889531826e-16
5.428221629e-16
9.714674443e-17
1.31443392e-16
1.887469001e-16
2.733353222e-16
3.870536486e-16
5.257890493e-16
6.759999275e-16
8.12685309e-16
9.006407745e-16
1.689750886e-16
2.264495824e-16
3.21946843e-16
4.620853209e-16
6.494635547e-16
8.770230962e-16
1.122528781e-15
1.345354858e-15
1.488506679e-15
2.922875399e-16
3.88086354e-16
5.464399726e-16
7.775466581e-16
1.085010036e-15
1.456845203e-15
1.856708457e-15
2.218800903e-15
2.451094156e-15
5.028732534e-16
6.617493857e-16
9.231095601e-16
1.302612836e-15
1.805166726e-15
2.410607979e-15
3.059778402e-15
3.64642937e-15
4.022327868e-15
8.606775291e-16
1.122928974e-15
1.552431326e-15
2.173154574e-15
2.991634771e-15
3.974219871e-15
5.024979027e-15
5.97282406e-15
6.579533802e-15
1.465660749e-15
1.896662515e-15
2.599637208e-15
3.611178776e-15
4.939745585e-15
6.529565096e-15
8.225611414e-15
9.753092758e-15
1.072997864e-14
2.483807683e-15
3.189274565e-15
4.335546628e-15
5.978361856e-15
8.128240993e-15
1.069331903e-14
1.342385858e-14
1.587954693e-14
1.744893279e-14
4.189636766e-15
5.340007465e-15
7.202642805e-15
9.862273457e-15
1.333122697e-14
1.745901338e-14
2.18444757e-14
2.578361556e-14
2.829957746e-14
7.035450373e-15
8.904763614e-15
1.192173099e-14
1.621494372e-14
2.179743408e-14
2.842386958e-14
3.545155738e-14
4.17571674e-14
4.578273708e-14
1.176379912e-14
1.479155612e-14
1.966368596e-14
2.657507697e-14
3.553670697e-14
4.615036058e-14
5.738885507e-14
6.746309014e-14
7.389226967e-14
1.958958776e-14
2.447901667e-14
3.232536717e-14
4.342367635e-14
5.777703196e-14
7.47415736e-14
9.267922277e-14
1.087454251e-13
1.189958116e-13
3.249410779e-14
4.036798828e-14
5.297187974e-14
7.075204228e-14
9.369232367e-14
1.207553261e-13
1.493340327e-13
1.749129889e-13
1.912295518e-13
5.369846957e-14
6.634583697e-14
8.654388774e-14
1.149671782e-13
1.515593295e-13
1.94654147e-13
2.401102364e-13
2.807703348e-13
3.067039958e-13
8.842378051e-14
1.086898976e-13
1.409862804e-13
1.863321316e-13
2.445933403e-13
3.131014508e-13
3.852888608e-13
4.498264505e-13
4.909872719e-13
1.451082987e-13
1.775101127e-13
2.290449765e-13
3.012524818e-13
3.938553958e-13
5.025912924e-13
6.170614326e-13
7.193560783e-13
7.84597336e-13
2.37350498e-13
2.890463275e-13
3.711201793e-13
4.858976818e-13
6.328466139e-13
8.051748192e-13
9.86441771e-13
1.148368748e-12
1.251646088e-12
3.870010399e-13
4.693155251e-13
5.997844928e-13
7.819215016e-13
1.014750828e-12
1.287473386e-12
1.574132465e-12
1.830128264e-12
1.993414435e-12
6.290654033e-13
7.598824604e-13
9.66914094e-13
1.255470332e-12
1.623818147e-12
2.054823781e-12
2.507560439e-12
2.911765891e-12
3.169611381e-12
1.019445644e-12
1.226953546e-12
1.554900699e-12
2.011315601e-12
2.593190774e-12
3.273396481e-12
3.987486238e-12
4.624893749e-12
5.031543597e-12
1.647106794e-12
1.975639846e-12
2.494196707e-12
3.214921218e-12
4.132685864e-12
5.204617052e-12
6.329367523e-12
7.333154644e-12
7.973612449e-12
2.653087792e-12
3.172199378e-12
3.990612212e-12
5.126698998e-12
6.571837215e-12
8.258404178e-12
1.002725034e-11
1.16055983e-11
1.261273662e-11
4.260005106e-12
5.078481978e-12
6.36748146e-12
8.15479173e-12
1.042606584e-11
1.307485462e-11
1.58516404e-11
1.832894285e-11
1.990977365e-11
6.817466898e-12
8.104822938e-12
1.01302282e-11
1.293565807e-11
1.649742516e-11
2.064830155e-11
2.499782996e-11
2.887742856e-11
3.135304725e-11
1.087129835e-11
1.289044504e-11
1.606417483e-11
2.045571285e-11
2.602614485e-11
3.251332837e-11
3.930767512e-11
4.536621393e-11
4.923176661e-11
1.726784978e-11
2.042420276e-11
2.538081536e-11
3.223242621e-11
4.091524894e-11
5.10193234e-11
6.159571648e-11
7.102287648e-11
7.703614754e-11
2.73090529e-11
3.22233406e-11
3.993325256e-11
5.057955514e-11
6.405765542e-11
7.972812687e-11
9.611920501e-11
1.107207395e-10
1.200304467e-10
4.297932923e-11
5.059378915e-11
6.252790848e-11
7.898820311e-11
9.980274435e-11
1.239772891e-10
1.492397106e-10
1.717257944e-10
1.860530298e-10
6.727174502e-11
7.900206458e-11
9.736642261e-11
1.226623438e-10
1.546061803e-10
1.916577353e-10
2.303293789e-10
2.647133348e-10
2.866011601e-10
1.04647421e-10
1.225953561e-10
1.506578453e-10
1.89252899e-10
2.379109082e-10
2.942568071e-10
3.529746544e-10
4.051077572e-10
4.382538913e-10
1.6166817e-10
1.889116812e-10
2.314452845e-10
2.898364805e-10
3.633063082e-10
4.482129063e-10
5.365212557e-10
6.14785971e-10
6.644708554e-10
2.478461889e-10
2.88824383e-10
3.52691108e-10
4.401812372e-10
5.500040142e-10
6.766137204e-10
8.079838886e-10
9.241592377e-10
9.977757978e-10
3.767544969e-10
4.377627472e-10
5.326585527e-10
6.623308005e-10
8.246509855e-10
1.011244877e-09
1.204311919e-09
1.374610087e-09
1.482292043e-09
5.674356592e-10
6.572411668e-10
7.966134008e-10
9.865168416e-10
1.223472648e-09
1.494960541e-09
1.774960065e-09
2.021213597e-09
2.176546868e-09
8.461324275e-10
9.767116952e-10
1.17884652e-09
1.453381497e-09
1.794702924e-09
2.184305324e-09
2.58466624e-09
2.935622451e-09
3.156410585e-09
1.248341396e-09
1.435728772e-09
1.724987303e-09
2.116455109e-09
2.601217738e-09
3.152273714e-09
3.71629454e-09
4.208951565e-09
4.517993562e-09
1.821160191e-09
2.08638179e-09
2.494542038e-09
3.044796518e-09
3.723249867e-09
4.491056303e-09
5.273568262e-09
5.954469694e-09
6.380299383e-09
2.625862472e-09
2.995914211e-09
3.563554342e-09
4.325668084e-09
5.261032327e-09
6.314598398e-09
7.383502786e-09
8.309898624e-09
8.887431098e-09
3.74059728e-09
4.249411927e-09
5.027252377e-09
6.067091482e-09
7.337200531e-09
8.760791091e-09
1.019835477e-08
1.143913781e-08
1.221017114e-08
5.263075424e-09
5.952413972e-09
7.002525094e-09
8.400117952e-09
1.009878381e-08
1.199312928e-08
1.389693207e-08
1.553327101e-08
1.654680039e-08
7.313081319e-09
8.233280789e-09
9.630061507e-09
1.148065091e-08
1.371863524e-08
1.620170362e-08
1.868515349e-08
2.081076527e-08
2.212308067e-08
1.003463875e-08
1.124515283e-08
1.307599521e-08
1.549067966e-08
1.839618262e-08
2.160343906e-08
2.479580246e-08
2.751683328e-08
2.919138784e-08
1.359766623e-08
1.516734681e-08
1.753292068e-08
2.063881804e-08
2.435742828e-08
2.844154488e-08
3.24874752e-08
3.592198869e-08
3.802904207e-08
1.819898192e-08
2.020606723e-08
2.322018568e-08
2.71600864e-08
3.185417535e-08
3.698419362e-08
4.204277636e-08
4.631987409e-08
4.893592992e-08
2.406255729e-08
2.659435359e-08
3.038341046e-08
3.531492451e-08
4.116250688e-08
4.752249231e-08
5.376585663e-08
5.902447877e-08
6.223154698e-08
3.143896734e-08
3.459123327e-08
3.929323401e-08
4.538747021e-08
5.258058765e-08
6.036784652e-08
6.797941676e-08
7.436688615e-08
7.825160886e-08
4.060403846e-08
4.448010122e-08
5.024333531e-08
5.768318039e-08
6.64258919e-08
7.58488424e-08
8.502131832e-08
9.269170029e-08
9.734438366e-08
5.185674535e-08
5.656639449e-08
6.354781775e-08
7.252590342e-08
8.303198352e-08
9.430778519e-08
1.052409461e-07
1.143532986e-07
1.198668932e-07
6.55164526e-08
7.117466767e-08
7.953807585e-08
9.025453322e-08
1.027449865e-07
1.160970348e-07
1.289954621e-07
1.397120474e-07
1.461811167e-07
8.191962866e-08
8.864520272e-08
9.855928253e-08
1.112193858e-07
1.259198851e-07
1.415752728e-07
1.566460771e-07
1.691305993e-07
1.766503124e-07
1.014161808e-07
1.093303013e-07
1.209666431e-07
1.357784394e-07
1.52916786e-07
1.711038229e-07
1.885544515e-07
2.029703736e-07
2.116355495e-07
1.243655664e-07
1.335904104e-07
1.471215589e-07
1.642935697e-07
1.84097261e-07
2.05043127e-07
2.250793128e-07
2.415882975e-07
2.514925259e-07
1.511328329e-07
1.61790226e-07
1.773878335e-07
1.971268986e-07
2.198208712e-07
2.43749463e-07
2.665733621e-07
2.853338683e-07
2.965687266e-07
1.820847238e-07
1.942949013e-07
2.12128034e-07
2.346373507e-07
2.604419488e-07
2.875719596e-07
3.133805047e-07
3.345465561e-07
3.472009178e-07
2.175859705e-07
2.314664696e-07
2.517001024e-07
2.771774975e-07
3.063066955e-07
3.368499501e-07
3.658334302e-07
3.895535455e-07
4.037129589e-07
2.579958648e-07
2.736605663e-07
2.964542877e-07
3.250907421e-07
3.577506441e-07
3.919107079e-07
4.242516028e-07
4.50667948e-07
4.664141984e-07
3.036651835e-07
3.21223511e-07
3.467304488e-07
3.787088841e-07
4.150964995e-07
4.53067553e-07
4.889395833e-07
5.181872576e-07
5.355980135e-07
3.549335099e-07
3.744897879e-07
4.02855754e-07
4.383500759e-07
4.786523688e-07
5.206183542e-07
5.601857896e-07
5.923923409e-07
6.115408358e-07
4.121269768e-07
4.337799422e-07
4.651427876e-07
5.043171731e-07
5.487103593e-07
5.948443369e-07
6.382614587e-07
6.735465748e-07
6.945014366e-07
4.75556435e-07
4.993988914e-07
5.33888057e-07
5.768964714e-07
6.255455677e-07
6.760093296e-07
7.234201478e-07
7.618953865e-07
7.847205266e-07
5.455160342e-07
5.716346347e-07
6.093708746e-07
6.563567823e-07
7.094153011e-07
7.64359125e-07
8.158973052e-07
8.576660298e-07
8.824206044e-07
6.222821954e-07
6.507573378e-07
6.918525976e-07
7.429488121e-07
8.005586742e-07
8.601214139e-07
9.159101951e-07
9.610675988e-07
9.878060316e-07
7.061129388e-07
7.370187586e-07
7.815761461e-07
8.369048529e-07
8.99196591e-07
9.635056801e-07
1.023658022e-06
1.07229124e-06
1.101063294e-06
7.972475285e-07
8.306519385e-07
8.787658164e-07
9.384388715e-07
1.005531726e-06
1.074703429e-06
1.139322236e-06
1.191510534e-06
1.222361425e-06
8.959063621e-07
9.318711587e-07
9.836274965e-07
1.047746586e-06
1.119748834e-06
1.193888562e-06
1.263066985e-06
1.318882004e-06
1.351852546e-06
1.00229107e-06
1.040872291e-06
1.096348845e-06
1.165005849e-06
1.242015183e-06
1.321217892e-06
1.39503969e-06
1.45454574e-06
1.489672517e-06
1.116585067e-06
1.15783311e-06
1.217099764e-06
1.290377156e-06
1.37248113e-06
1.45683176e-06
1.535371714e-06
1.598626095e-06
1.635941652e-06
1.238953971e-06
1.282913861e-06
1.346032988e-06
1.424004273e-06
1.51128078e-06
1.600854744e-06
1.68417909e-06
1.751232445e-06
1.790765485e-06
1.369546254e-06
1.416257918e-06
1.483284767e-06
1.56601495e-06
1.658532732e-06
1.753396416e-06
1.84156331e-06
1.91245998e-06
1.954235579e-06
1.508493975e-06
1.55799253e-06
1.628975628e-06
1.716521694e-06
1.814340862e-06
1.914552147e-06
2.007612127e-06
2.082390522e-06
2.126430338e-06
1.655913581e-06
1.708229625e-06
1.783211184e-06
1.875622584e-06
1.978795142e-06
2.084403924e-06
2.182400382e-06
2.261093347e-06
2.307415836e-06
1.81190675e-06
1.867066649e-06
1.946082969e-06
2.043402102e-06
2.151972472e-06
2.263021176e-06
2.365990823e-06
2.448626002e-06
2.497246627e-06
1.976561253e-06
2.034587428e-06
2.117669294e-06
2.219931983e-06
2.333937513e-06
2.450461601e-06
2.558434919e-06
2.645035111e-06
2.695966546e-06
2.149951827e-06
2.210863025e-06
2.298036093e-06
2.405272045e-06
2.524743507e-06
2.646771967e-06
2.759773651e-06
2.850357155e-06
2.903609484e-06
2.332141032e-06
2.3959526e-06
2.487237769e-06
2.599471019e-06
2.724433087e-06
2.851988905e-06
2.970038286e-06
3.06461923e-06
3.120200143e-06
2.523180107e-06
2.589904238e-06
2.685318007e-06
2.802567342e-06
2.933039046e-06
3.06613966e-06
3.189251113e-06
3.287839773e-06
3.345754745e-06
2.723109785e-06
2.792755766e-06
2.892310568e-06
3.014589929e-06
3.150585098e-06
3.289242824e-06
3.417426151e-06
3.520029254e-06
3.58028172e-06
2.931961087e-06
3.004535524e-06
3.10824005e-06
3.23555892e-06
3.377086586e-06
3.521309028e-06
3.654569826e-06
3.761190834e-06
3.823782357e-06
3.149756079e-06
3.225263116e-06
3.333122617e-06
3.465486374e-06
3.612551166e-06
3.762341601e-06
3.900681607e-06
4.011320988e-06
4.076251412e-06
3.376508594e-06
3.454950113e-06
3.566966682e-06
3.704376945e-06
3.856979454e-06
4.012337192e-06
4.155754609e-06
4.270410089e-06
4.337677688e-06
3.612224911e-06
3.693600726e-06
3.809773564e-06
3.952228508e-06
4.110365629e-06
4.271286354e-06
4.419776153e-06
4.53844296e-06
4.608044574e-06
3.856904404e-06
3.941212434e-06
4.0615381e-06
4.209032755e-06
4.37269801e-06
4.539174097e-06
4.692728305e-06
4.815399386e-06
4.887330551e-06
4.11054014e-06
4.197776577e-06
4.322249221e-06
4.474775748e-06
4.643959585e-06
4.815980396e-06
4.974588363e-06
5.101254595e-06
5.175509663e-06
4.373119448e-06
4.463278913e-06
4.59189049e-06
4.749438441e-06
4.924128514e-06
5.101680678e-06
5.265329322e-06
5.395979706e-06
5.472551959e-06
4.644624447e-06
4.737700131e-06
4.870440605e-06
5.032997166e-06
5.213178596e-06
5.39624626e-06
5.564920304e-06
5.699542145e-06
5.778423895e-06
4.92503254e-06
5.021016339e-06
5.157873868e-06
5.325424079e-06
5.511079695e-06
5.69964477e-06
5.873326949e-06
6.011906026e-06
6.093088718e-06
5.214316868e-06
5.313199508e-06
5.454160619e-06
5.626687585e-06
5.817798147e-06
6.011840526e-06
6.190511794e-06
6.333032512e-06
6.416506806e-06
5.51244674e-06
5.614217889e-06
5.759267637e-06
5.936752719e-06
6.133297129e-06
6.332794892e-06
6.516434602e-06
6.662880137e-06
6.748635999e-06
5.819388022e-06
5.924036397e-06
6.073158517e-06
6.25558151e-06
6.457537002e-06
6.662466608e-06
6.851052682e-06
7.001405115e-06
7.089431887e-06
6.135103502e-06
6.242616969e-06
6.39579401e-06
6.583133308e-06
6.790475626e-06
7.000812088e-06
7.194321175e-06
7.348561614e-06
7.438848087e-06
6.459553226e-06
6.569918888e-06
6.727132342e-06
6.919365092e-06
7.132068654e-06
7.347785698e-06
7.546193319e-06
7.704302012e-06
7.796836492e-06
6.792694807e-06
6.90589909e-06
7.067129509e-06
7.264231747e-06
7.482269795e-06
7.703340012e-06
7.906620694e-06
8.068577129e-06
8.163347495e-06
7.134483707e-06
7.250512437e-06
7.415739539e-06
7.61768632e-06
7.841031061e-06
8.067426042e-06
8.275553439e-06
8.441336444e-06
8.538330204e-06
7.484873501e-06
7.603711972e-06
7.772914744e-06
7.979680262e-06
8.208302991e-06
8.439993453e-06
8.652940458e-06
8.822528286e-06
8.921732625e-06
7.843816116e-06
7.965449157e-06
8.13860594e-06
8.350163636e-06
8.584034858e-06
8.820990759e-06
9.038729606e-06
9.212100015e-06
9.313501841e-06
8.211262044e-06
8.335674078e-06
8.512762657e-06
8.729085316e-06
8.968174849e-06
9.210365493e-06
9.432867853e-06
9.609998177e-06
9.713584166e-06
8.587160549e-06
8.714335649e-06
8.895333322e-06
9.116393168e-06
9.360670243e-06
9.608064375e-06
9.835301439e-06
1.001616866e-05
1.012192528e-05
8.971459845e-06
9.101381781e-06
9.286265436e-06
9.51203421e-06
9.761467558e-06
1.001403345e-05
1.024597601e-05
1.04305568e-05
1.053847038e-05
9.364107261e-06
9.496759548e-06
9.685505721e-06
9.915954761e-06
1.01705127e-05
1.042821823e-05
1.066483674e-05
1.085310755e-05
1.096316427e-05
9.765049393e-06
9.90041533e-06
1.009300026e-05
1.032810057e-05
1.058775106e-05
1.085056381e-05
1.109182846e-05
1.128376552e-05
1.139595146e-05
1.017423224e-05
1.031229495e-05
1.050869465e-05
1.074841695e-05
1.101312768e-05
1.128101494e-05
1.152689572e-05
1.172247514e-05
1.18367763e-05
1.059160132e-05
1.073234378e-05
1.093253406e-05
1.117684886e-05
1.144658732e-05
1.17195162e-05
1.196998293e-05
1.216918068e-05
1.228558301e-05
1.101710179e-05
1.116050688e-05
1.136446339e-05
1.161334104e-05
1.188807452e-05
1.216601199e-05
1.242103438e-05
1.262382639e-05
1.274231579e-05
1.145067855e-05
1.159672904e-05
1.180442734e-05
1.205783805e-05
1.233753374e-05
1.262044667e-05
1.287999436e-05
1.30863565e-05
1.320691887e-05
1.189227631e-05
1.204095492e-05
1.225237048e-05
1.251028439e-05
1.279490941e-05
1.308276461e-05
1.334680721e-05
1.355671533e-05
1.367933656e-05
1.234183968e-05
1.24931291e-05
1.270823733e-05
1.297062453e-05
1.326014596e-05
1.355291023e-05
1.382141733e-05
1.403484729e-05
1.415951329e-05
1.279931324e-05
1.295319613e-05
1.317197245e-05
1.343880301e-05
1.373318793e-05
1.403082805e-05
1.430376929e-05
1.452069698e-05
1.464739365e-05
1.326464161e-05
1.342110063e-05
1.364352042e-05
1.391476444e-05
1.421397994e-05
1.451646275e-05
1.479380778e-05
1.501420913e-05
1.514292243e-05
1.373776944e-05
1.389678726e-05
1.412282596e-05
1.439845354e-05
1.470246676e-05
1.500975915e-05
1.529147769e-05
1.551532869e-05
1.564604459e-05
1.421864152e-05
1.438020083e-05
1.460983389e-05
1.488981519e-05
1.519859332e-05
1.551066224e-05
1.579672408e-05
1.602400075e-05
1.615670528e-05
1.470720277e-05
1.487128628e-05
1.510448918e-05
1.538879441e-05
1.570230471e-05
1.601911717e-05
1.630949214e-05
1.654017059e-05
1.667484979e-05
1.520339826e-05
1.536998872e-05
1.560673699e-05
1.589533639e-05
1.621354616e-05
1.653506922e-05
1.682972723e-05
1.706378357e-05
1.720042351e-05
1.570717325e-05
1.58762534e-05
1.61165226e-05
1.640938646e-05
1.673226304e-05
1.705846379e-05
1.735737474e-05
1.759478511e-05
1.773337187e-05
1.621847306e-05
1.639002569e-05
1.663379138e-05
1.693088999e-05
1.725840071e-05
1.758924623e-05
1.789238002e-05
1.813312053e-05
1.827364015e-05
1.673724311e-05
1.691125098e-05
1.715848871e-05
1.745979234e-05
1.779190447e-05
1.812736177e-05
1.843468819e-05
1.867873486e-05
1.882117335e-05
1.72634288e-05
1.743987463e-05
1.769055987e-05
1.799603867e-05
1.833271936e-05
1.867275527e-05
1.898424395e-05
1.923157263e-05
1.937591586e-05
1.779697538e-05
1.79758418e-05
1.822994989e-05
1.853957381e-05
1.888078994e-05
1.922537099e-05
1.954099122e-05
1.979157748e-05
1.993781114e-05
1.833782778e-05
1.851909726e-05
1.877660329e-05
1.909034194e-05
1.943605998e-05
1.978515221e-05
2.010487276e-05
2.035869169e-05
2.050680118e-05
1.888593037e-05
1.906958512e-05
1.933046379e-05
1.964828626e-05
1.9998472e-05
2.035204069e-05
2.067582958e-05
2.093285561e-05
2.10828259e-05
1.944122656e-05
1.962724843e-05
1.989147383e-05
2.021334842e-05
2.05679667e-05
2.092597607e-05
2.12538002e-05
2.151400679e-05
2.166582224e-05
2.000365841e-05
2.019202866e-05
2.045957407e-05
2.078546796e-05
2.114448225e-05
2.150689497e-05
2.183871971e-05
2.210207898e-05
2.225572312e-05
2.057316597e-05
2.07638651e-05
2.10347026e-05
2.136458138e-05
2.172795328e-05
2.209472994e-05
2.243051855e-05
2.269700082e-05
2.285245603e-05
2.114968652e-05
2.134269396e-05
2.161679399e-05
2.195062116e-05
2.23183097e-05
2.268940806e-05
2.302912098e-05
2.329869414e-05
2.345594132e-05
2.17331536e-05
2.192844731e-05
2.220577815e-05
2.254351435e-05
2.291547516e-05
2.329084927e-05
2.363444326e-05
2.390707205e-05
2.406609013e-05
2.232349572e-05
2.252105174e-05
2.280157881e-05
2.314318095e-05
2.351936523e-05
2.389896429e-05
2.424639132e-05
2.45220364e-05
2.46828018e-05
2.292063484e-05
2.312042673e-05
2.340411172e-05
2.374953187e-05
2.412988513e-05
2.451365213e-05
2.486485806e-05
2.514347494e-05
2.530596091e-05
2.35244845e-05
2.372648261e-05
2.401328245e-05
2.436246654e-05
2.474692703e-05
2.513479715e-05
2.548972017e-05
2.577125791e-05
2.593543375e-05
2.413494756e-05
2.433911819e-05
2.462898381e-05
2.498187005e-05
2.537036699e-05
2.576226563e-05
2.612083444e-05
2.640523411e-05
2.657106427e-05
2.475191353e-05
2.495821795e-05
2.52510928e-05
2.560760984e-05
2.600006124e-05
2.639590186e-05
2.675803355e-05
2.704522653e-05
2.721266956e-05
2.537525547e-05
2.558364871e-05
2.587946711e-05
2.623953189e-05
2.663584221e-05
2.703552375e-05
2.740112139e-05
2.769102743e-05
2.786003484e-05
2.600482643e-05
2.6215256e-05
2.651394118e-05
2.687745654e-05
2.72775139e-05
2.768091796e-05
2.804986799e-05
2.834239304e-05
2.851290804e-05
2.664045542e-05
2.685285981e-05
2.715432178e-05
2.752117379e-05
2.792484699e-05
2.833183476e-05
2.870400409e-05
2.899903803e-05
2.917099418e-05
2.728194302e-05
2.749625007e-05
2.780038326e-05
2.817043834e-05
2.857757362e-05
2.898798255e-05
2.936321551e-05
2.96606297e-05
2.983394952e-05
2.792905658e-05
2.81451817e-05
2.845186249e-05
2.88249643e-05
2.923538194e-05
2.964902233e-05
3.002713753e-05
3.032678237e-05
3.050137587e-05
2.858152514e-05
2.879936953e-05
2.910845357e-05
2.948441989e-05
2.989791074e-05
3.031456225e-05
3.069534946e-05
3.099705192e-05
3.117281529e-05
2.923903424e-05
2.945848298e-05
2.976980266e-05
3.014842217e-05
3.056474422e-05
3.098415249e-05
3.136736966e-05
3.167093104e-05
3.18477453e-05
2.990122072e-05
3.012214097e-05
3.04355028e-05
3.08165321e-05
3.123540725e-05
3.165728079e-05
3.204265133e-05
3.23478452e-05
3.252557514e-05
3.056766775e-05
3.078990704e-05
3.110508933e-05
3.148825015e-05
3.190936137e-05
3.233336889e-05
3.27205794e-05
3.302714998e-05
3.320564326e-05
3.123790031e-05
3.146128504e-05
3.177803583e-05
3.216301277e-05
3.258600176e-05
3.301177007e-05
3.340046874e-05
3.370812983e-05
3.388721646e-05
3.191138134e-05
3.213571559e-05
3.245375117e-05
3.284018997e-05
3.326465561e-05
3.369176841e-05
3.408156414e-05
3.438999866e-05
3.456949089e-05
3.258750897e-05
3.281257374e-05
3.313157763e-05
3.351908432e-05
3.394458206e-05
3.437257964e-05
3.47630422e-05
3.507190256e-05
3.52515952e-05
3.326561493e-05
3.349116787e-05
3.381079069e-05
3.419893166e-05
3.462497393e-05
3.505335411e-05
3.544401535e-05
3.57529247e-05
3.593259596e-05
3.394496449e-05
3.417074028e-05
3.449060042e-05
3.48789036e-05
3.530496162e-05
3.573318189e-05
3.612353813e-05
3.643209257e-05
3.661150551e-05
3.462475826e-05
3.485046959e-05
3.517015493e-05
3.555811217e-05
3.598361894e-05
3.641110008e-05
3.680061577e-05
3.710838751e-05
3.7287292e-05
3.530413578e-05
3.552947514e-05
3.584854573e-05
3.623561647e-05
3.665997125e-05
3.708610221e-05
3.747421484e-05
3.778075632e-05
3.795889153e-05
3.598218123e-05
3.620682341e-05
3.652481524e-05
3.69104314e-05
3.733300552e-05
3.77571497e-05
3.814327583e-05
3.844812475e-05
3.862522214e-05
3.665793112e-05
3.688153645e-05