/*--------------------------------*- C++ -*----------------------------------*\
| =========                 |                                                 |
| \\      /  F ield         | OpenFOAM: The Open Source CFD Toolbox           |
|  \\    /   O peration     | Version:  2212                                  |
|   \\  /    A nd           | Website:  www.openfoam.com                      |
|    \\/     M anipulation  |                                                 |
\*---------------------------------------------------------------------------*/
FoamFile
{
    version     2.0;
    format      ascii;
    arch        "LSB;label=32;scalar=64";
    class       volScalarField;
    location    "20.00000000";
    object      A2CH3-2_0;
}
// * * * * * * * * * * * * * * * * * * * * * * * * * * * * * * * * * * * * * //

dimensions      [0 0 0 0 0 0 0];

internalField   nonuniform List<scalar> 
3000
(
6.170963771e-35
7.654620461e-35
1.002678797e-34
1.342897839e-34
1.80063535e-34
2.381143759e-34
3.06196384e-34
3.761767104e-34
4.295424914e-34
2.600533598e-34
3.249583839e-34
4.287272079e-34
5.778551926e-34
7.801518334e-34
1.043410703e-33
1.372602497e-33
1.761894509e-33
2.144023989e-33
6.701130392e-34
8.479728343e-34
1.135353735e-33
1.556401508e-33
2.145735625e-33
2.948564793e-33
4.011613761e-33
5.340667431e-33
6.646538837e-33
1.464276843e-33
1.883224947e-33
2.573427592e-33
3.615374805e-33
5.131599437e-33
7.288578761e-33
1.02595067e-32
1.403156641e-32
1.759371149e-32
2.977733525e-33
3.9063082e-33
5.47348083e-33
7.915772254e-33
1.159731274e-32
1.700811536e-32
2.459923927e-32
3.411658701e-32
4.266817483e-32
5.864825795e-33
7.86260182e-33
1.131873585e-32
1.68645051e-32
2.546755877e-32
3.838169645e-32
5.659151925e-32
7.895946977e-32
9.822135455e-32
1.143579677e-32
1.567464706e-32
2.317528669e-32
3.551046729e-32
5.505967037e-32
8.477047777e-32
1.265900658e-31
1.769606151e-31
2.186770995e-31
2.2318227e-32
3.124262589e-32
4.734270531e-32
7.434459989e-32
1.178030315e-31
1.843302159e-31
2.777012411e-31
3.889218899e-31
4.809519984e-31
4.382551846e-32
6.253126531e-32
9.681325965e-32
1.551731902e-31
2.500800701e-31
3.957960473e-31
5.991763676e-31
8.382368027e-31
1.031983563e-30
8.673432107e-32
1.258204982e-31
1.983565966e-31
3.232297668e-31
5.277303332e-31
8.420365468e-31
1.278514173e-30
1.786690836e-30
2.194105211e-30
1.729815818e-31
2.544652969e-31
4.071751775e-31
6.722797569e-31
1.108506434e-30
1.779043862e-30
2.706322877e-30
3.778397148e-30
4.63148475e-30
3.473139903e-31
5.16857939e-31
8.370484718e-31
1.396399868e-30
2.319842785e-30
3.738888701e-30
5.694596767e-30
7.943757592e-30
9.723569242e-30
7.011683157e-31
1.053356865e-30
1.722472898e-30
2.896928306e-30
4.840348101e-30
7.825447504e-30
1.192819592e-29
1.662744399e-29
2.033045771e-29
1.421618968e-30
2.152143006e-30
3.546586557e-30
6.003044882e-30
1.00746214e-29
1.632559199e-29
2.489806537e-29
3.46858325e-29
4.237355541e-29
2.891782645e-30
4.405129121e-30
7.304583562e-30
1.242660839e-29
2.092675508e-29
3.397083022e-29
5.182739703e-29
7.216431407e-29
8.809662835e-29
5.896821938e-30
9.028352057e-30
1.504586628e-29
2.569943258e-29
4.339553573e-29
7.054009697e-29
1.076451241e-28
1.498182061e-28
1.827878779e-28
1.204672704e-29
1.852043751e-29
3.098972267e-29
5.310394005e-29
8.986212888e-29
1.462248602e-28
2.231752209e-28
3.104882694e-28
3.786273381e-28
2.464405208e-29
3.80156547e-29
6.382039918e-29
1.096479124e-28
1.858615812e-28
3.026802181e-28
4.620011558e-28
6.425162541e-28
7.83177557e-28
5.046482158e-29
7.80637462e-29
1.314066199e-28
2.262431056e-28
3.840198295e-28
6.257683482e-28
9.551612549e-28
1.327894471e-27
1.617945208e-27
1.034127703e-28
1.603389839e-28
2.705017255e-28
4.66522974e-28
7.927163174e-28
1.292322949e-27
1.972454557e-27
2.741160343e-27
3.338593667e-27
2.120145379e-28
3.293593973e-28
5.566681328e-28
9.613977021e-28
1.63497409e-27
2.666196491e-27
4.068799282e-27
5.652224768e-27
6.881333225e-27
4.347826174e-28
6.765251173e-28
1.145168145e-27
1.979985896e-27
3.369321527e-27
5.495265894e-27
8.384185227e-27
1.164165135e-26
1.416697341e-26
8.916798663e-28
1.389386716e-27
2.354814337e-27
4.075081539e-27
6.937569037e-27
1.131496162e-26
1.725729386e-26
2.394912343e-26
2.912973568e-26
1.828456991e-27
2.852433824e-27
4.839532966e-27
8.380735641e-27
1.427144448e-26
2.32728539e-26
3.547801148e-26
4.920265086e-26
5.981130751e-26
3.748035501e-27
5.853028048e-27
9.938987225e-27
1.722027458e-26
2.932690104e-26
4.780957263e-26
7.283644602e-26
1.009315983e-25
1.22608911e-25
7.678312288e-27
1.200139038e-26
2.039375139e-26
3.534595235e-26
6.019056857e-26
9.807612601e-26
1.492934454e-25
2.066769479e-25
2.508585394e-25
1.571662441e-26
2.458473933e-26
4.179956617e-26
7.245785511e-26
1.233544883e-25
2.008565954e-25
3.054296866e-25
4.223208826e-25
5.12095345e-25
3.213366235e-26
5.029956061e-26
8.555595189e-26
1.483063121e-25
2.523602083e-25
4.10531761e-25
6.234606194e-25
8.608175779e-25
1.042577062e-24
6.560422587e-26
1.027525959e-25
1.748226404e-25
3.029862804e-25
5.152024365e-25
8.371119653e-25
1.269275989e-24
1.749459738e-24
2.115905065e-24
1.336981665e-25
2.095087149e-25
3.565015644e-25
6.176119325e-25
1.049192002e-24
1.702199738e-24
2.576024524e-24
3.543265773e-24
4.278464642e-24
2.71883224e-25
4.262157551e-25
7.252247923e-25
1.255623004e-24
2.130396333e-24
3.450009384e-24
5.209155207e-24
7.147818259e-24
8.614673668e-24
5.514881794e-25
8.647719131e-25
1.471121572e-24
2.544831286e-24
4.311067781e-24
6.966063669e-24
1.048980953e-23
1.435363197e-23
1.726204475e-23
1.115361174e-24
1.749189774e-24
2.974374897e-24
5.139339187e-24
8.689705872e-24
1.400467956e-23
2.10232121e-23
2.86753633e-23
3.440221654e-23
2.248265152e-24
3.525734682e-24
5.991194238e-24
1.033683644e-23
1.74376742e-23
2.8017578e-23
4.190875094e-23
5.695790441e-23
6.814939345e-23
4.51503831e-24
7.078690196e-24
1.201704843e-23
2.069565747e-23
3.481758901e-23
5.57456277e-23
8.304803692e-23
1.124197464e-22
1.341126276e-22
9.030089229e-24
1.415021305e-23
2.399087996e-23
4.122509075e-23
6.913538993e-23
1.102476913e-22
1.635034628e-22
2.203608185e-22
2.620462021e-22
1.797972414e-23
2.815157893e-23
4.7649796e-23
8.166196073e-23
1.364476269e-22
2.166074991e-22
3.196447948e-22
4.287560529e-22
5.08135543e-22
3.562787278e-23
5.5719252e-23
9.411402504e-23
1.607862854e-22
2.675350468e-22
4.225782125e-22
6.202181266e-22
8.277111571e-22
9.774579814e-22
7.023964606e-23
1.096772826e-22
1.847783714e-22
3.145279485e-22
5.208925192e-22
8.182348834e-22
1.193930405e-21
1.584824681e-21
1.864624523e-21
1.377354612e-22
2.146340623e-22
3.604896765e-22
6.110537721e-22
1.006688192e-21
1.57188945e-21
2.279428205e-21
3.008811092e-21
3.52658795e-21
2.685854263e-22
4.174746969e-22
6.986182266e-22
1.178584699e-21
1.930522485e-21
2.995069593e-21
4.31494989e-21
5.662853918e-21
6.611829462e-21
5.207285508e-22
8.068794353e-22
1.344540631e-21
2.256210528e-21
3.672579954e-21
5.658937839e-21
8.097603281e-21
1.056467815e-20
1.228749727e-20
1.003616839e-21
1.549353258e-21
2.569205799e-21
4.285870984e-21
6.929458355e-21
1.060092193e-20
1.506375877e-20
1.953657262e-20
2.263534409e-20
1.922660223e-21
2.955226059e-21
4.873511142e-21
8.077377121e-21
1.296601205e-20
1.968819175e-20
2.777840254e-20
3.581268034e-20
4.133636889e-20
3.660826443e-21
5.598642816e-21
9.176002872e-21
1.510193818e-20
2.405869313e-20
3.625166102e-20
5.078228267e-20
6.508451883e-20
7.484583129e-20
6.927448258e-21
1.05340936e-20
1.71477358e-20
2.800998189e-20
4.426963905e-20
6.618313738e-20
9.20474278e-20
1.172880715e-19
1.343958972e-19
1.30277745e-20
1.968432384e-20
3.180509027e-20
5.153753482e-20
8.07878972e-20
1.198200077e-19
1.654605113e-19
2.096381967e-19
2.393870076e-19
2.434799189e-20
3.653036298e-20
5.855155969e-20
9.40810459e-20
1.462366656e-19
2.151606853e-19
2.950326088e-19
3.717494255e-19
4.230970367e-19
4.522221667e-20
6.733057237e-20
1.069957472e-19
1.704147037e-19
2.626159004e-19
3.833158783e-19
5.219931012e-19
6.542289634e-19
7.422399463e-19
8.347225004e-20
1.232601242e-19
1.941029872e-19
3.063488939e-19
4.679979561e-19
6.776966153e-19
9.166782188e-19
1.143021236e-18
1.292889096e-18
1.531249715e-19
2.241424079e-19
3.496252749e-19
5.466689277e-19
8.278341668e-19
1.189417674e-18
1.598354316e-18
1.983239131e-18
2.236879928e-18
2.79179285e-19
4.049189837e-19
6.25403959e-19
9.685910014e-19
1.453949426e-18
2.072995e-18
2.768118337e-18
3.418580415e-18
3.845401751e-18
5.059217751e-19
7.268090706e-19
1.111229188e-18
1.704462775e-18
2.536304066e-18
3.58902299e-18
4.763268811e-18
5.856246409e-18
6.570690316e-18
9.113579949e-19
1.296466854e-18
1.961769917e-18
2.979923205e-18
4.395888532e-18
6.174673853e-18
8.146701337e-18
9.973517888e-18
1.116355775e-17
1.632144119e-18
2.298719584e-18
3.441842226e-18
5.17714547e-18
7.571899775e-18
1.055987615e-17
1.385394329e-17
1.689225978e-17
1.886542606e-17
2.905809418e-18
4.051315913e-18
6.001944955e-18
8.940485449e-18
1.29664694e-17
1.795820887e-17
2.34331021e-17
2.846314214e-17
3.17208502e-17
5.142823841e-18
7.097965156e-18
1.040501622e-17
1.535111993e-17
2.208188813e-17
3.037873245e-17
3.94359344e-17
4.772774257e-17
5.3084913e-17
9.048583261e-18
1.236407496e-17
1.793670188e-17
2.621498641e-17
3.740946335e-17
5.113453494e-17
6.605319446e-17
7.966755094e-17
8.844469469e-17
1.58285704e-17
2.141668733e-17
3.075342405e-17
4.453582686e-17
6.306451215e-17
8.566935955e-17
1.101439713e-16
1.324148122e-16
1.467458436e-16
2.75318642e-17
3.689645275e-17
5.245627381e-17
7.528970939e-17
1.058201603e-16
1.428975674e-16
1.828990495e-16
2.192052441e-16
2.42529709e-16
4.762362275e-17
6.323255664e-17
8.903384062e-17
1.266891414e-16
1.767856361e-16
2.373705875e-16
3.025223452e-16
3.615199467e-16
3.993686982e-16
8.19349865e-17
1.078213515e-16
1.504059113e-16
2.122401079e-16
2.941235976e-16
3.927711346e-16
4.985437963e-16
5.941299032e-16
6.553770003e-16
1.40232707e-16
1.829623443e-16
2.529428998e-16
3.540800063e-16
4.874387376e-16
6.475361142e-16
8.187416541e-16
9.73178935e-16
1.072033191e-15
2.388026955e-16
3.090271969e-16
4.235653293e-16
5.883797296e-16
8.048488431e-16
1.063885602e-15
1.340230796e-15
1.589110787e-15
1.748279183e-15
4.046867703e-16
5.19630056e-16
7.063952197e-16
9.740644083e-16
1.324352438e-15
1.742291682e-15
2.187190814e-15
2.587306468e-15
2.843011859e-15
6.826062125e-16
8.700368995e-16
1.173518578e-15
1.60685793e-15
2.172064832e-15
2.844619751e-15
3.559158946e-15
4.20097444e-15
4.610903861e-15
1.14623842e-15
1.450802436e-15
1.942354638e-15
2.641849408e-15
3.551412644e-15
4.631071557e-15
5.776105806e-15
6.803482362e-15
7.459361574e-15
1.916525103e-15
2.409821003e-15
3.203616933e-15
4.32967184e-15
5.789778838e-15
7.519054398e-15
9.350127774e-15
1.099148859e-14
1.203895113e-14
3.191304771e-15
3.987883646e-15
5.266213938e-15
7.074376527e-15
9.412881825e-15
1.217682039e-14
1.509928059e-14
1.771678799e-14
1.938673242e-14
5.293128368e-15
6.575855681e-15
8.629173797e-15
1.152580918e-14
1.526314122e-14
1.967213769e-14
2.432801227e-14
2.849507167e-14
3.115308869e-14
8.746180815e-15
1.080636464e-14
1.409656763e-14
1.87267197e-14
2.46876507e-14
3.170787894e-14
3.911263589e-14
4.573588521e-14
4.996006678e-14
1.439964007e-14
1.770040385e-14
2.296065305e-14
3.034647003e-14
3.983602371e-14
5.099455576e-14
6.275208396e-14
7.326313086e-14
7.996638383e-14
2.362486311e-14
2.890102742e-14
3.729290878e-14
4.905133961e-14
6.413116633e-14
8.183801619e-14
1.004780165e-13
1.171343153e-13
1.277563184e-13
3.862948292e-14
4.704464254e-14
6.040507881e-14
7.908953777e-14
1.030112822e-13
1.31064053e-13
1.605705328e-13
1.869266193e-13
2.037344837e-13
6.29558252e-14
7.634875369e-14
9.757697639e-14
1.272122933e-13
1.650955483e-13
2.094683979e-13
2.561056001e-13
2.977494065e-13
3.243074561e-13
1.022684489e-13
1.235384972e-13
1.572007757e-13
2.041183918e-13
2.640082845e-13
3.340819054e-13
4.076813717e-13
4.733813639e-13
5.152829354e-13
1.655925532e-13
1.993003466e-13
2.525717371e-13
3.267091577e-13
4.21220425e-13
5.316928291e-13
6.476518761e-13
7.51137639e-13
8.171406827e-13
2.672507072e-13
3.205504974e-13
4.046752839e-13
5.215893098e-13
6.704511679e-13
8.442931404e-13
1.026664048e-12
1.189377284e-12
1.293158094e-12
4.298726561e-13
5.139521471e-13
6.464971326e-13
8.304668337e-13
1.064441398e-12
1.337442973e-12
1.623681418e-12
1.879001564e-12
2.041846788e-12
6.890390302e-13
8.213294094e-13
1.029639085e-12
1.318418297e-12
1.685294883e-12
2.113012599e-12
2.561225968e-12
2.960914183e-12
3.215822282e-12
1.100386699e-12
1.307930279e-12
1.634385745e-12
2.086426639e-12
2.660119658e-12
3.328405801e-12
4.028323702e-12
4.652263285e-12
5.050136419e-12
1.750378069e-12
2.074915726e-12
2.584868477e-12
3.290201243e-12
4.184428356e-12
5.225232331e-12
6.31464088e-12
7.285403847e-12
7.904292788e-12
2.772448719e-12
3.278027706e-12
4.071644559e-12
5.168087623e-12
6.556704069e-12
8.171508994e-12
9.86057037e-12
1.136492573e-11
1.232365272e-11
4.370926868e-12
5.155143993e-12
6.38487756e-12
8.081887203e-12
1.022872004e-11
1.272282875e-11
1.532955585e-11
1.764975665e-11
1.912768233e-11
6.855986482e-12
8.066379823e-12
9.962378326e-12
1.257563143e-11
1.587759194e-11
1.970949375e-11
2.371064443e-11
2.726916089e-11
2.953436075e-11
1.069395852e-11
1.255154011e-11
1.54580221e-11
1.945874032e-11
2.450705693e-11
3.035823424e-11
3.646096112e-11
4.188319625e-11
4.533182203e-11
1.657855672e-11
1.94110192e-11
2.383742594e-11
2.99214337e-11
3.758695345e-11
4.645861065e-11
5.569921968e-11
6.389952805e-11
6.910956811e-11
2.552990617e-11
2.9817594e-11
3.650912032e-11
4.569157186e-11
5.72410753e-11
7.058520797e-11
8.446214472e-11
9.675899725e-11
1.045619057e-10
3.902956847e-11
4.546780621e-11
5.550058239e-11
6.924302874e-11
8.649418053e-11
1.063869081e-10
1.27035357e-10
1.453015423e-10
1.5687515e-10
5.920085219e-11
6.878256672e-11
8.368916289e-11
1.040659504e-10
1.29588616e-10
1.589535047e-10
1.893684965e-10
2.162216153e-10
2.332072476e-10
8.904434437e-11
1.031669855e-10
1.2509786e-10
1.550085365e-10
1.923794873e-10
2.352674542e-10
2.795809248e-10
3.186179782e-10
3.43263715e-10
1.327385416e-10
1.533389758e-10
1.852648252e-10
2.286980899e-10
2.828144208e-10
3.447445928e-10
4.085593507e-10
4.646369236e-10
4.999674568e-10
1.960144619e-10
2.257346967e-10
2.716932779e-10
3.340459567e-10
4.114997986e-10
4.998624374e-10
5.906425758e-10
6.70201124e-10
7.202128154e-10
2.866110284e-10
3.28996286e-10
3.943851576e-10
4.828367498e-10
5.923502199e-10
7.168687421e-10
8.443819896e-10
9.558093598e-10
1.025687078e-09
4.148148103e-10
4.745436574e-10
5.664575372e-10
6.903972857e-10
8.433123834e-10
1.016557025e-09
1.193360319e-09
1.347386276e-09
1.443736669e-09
5.940835371e-10
6.772276308e-10
8.048359307e-10
9.763354452e-10
1.187149242e-09
1.425090564e-09
1.667046277e-09
1.877156931e-09
2.008251201e-09
8.41747985e-10
9.560567217e-10
1.131013617e-09
1.365334281e-09
1.652265769e-09
1.974852494e-09
2.301659747e-09
2.584518689e-09
2.760536923e-09
1.179781809e-09
1.334985014e-09
1.571861509e-09
1.887982649e-09
2.273554476e-09
2.705297524e-09
3.141021134e-09
3.516883069e-09
3.750151746e-09
1.635624161e-09
1.843744178e-09
2.160469334e-09
2.581620786e-09
3.0932371e-09
3.663780367e-09
4.237359434e-09
4.730462062e-09
5.035676573e-09
2.243035937e-09
2.518699225e-09
2.936996296e-09
3.491177756e-09
4.1616787e-09
4.906337113e-09
5.652055835e-09
6.290976665e-09
6.685401386e-09
3.042967538e-09
3.403705334e-09
3.949508028e-09
4.669977479e-09
5.538151378e-09
6.498397917e-09
7.456302847e-09
8.274269207e-09
8.777908699e-09
4.084414352e-09
4.550941978e-09
5.254776477e-09
6.180490911e-09
7.291526749e-09
8.515412227e-09
9.731662417e-09
1.076680495e-08
1.140254114e-08
5.425235584e-09
6.021700683e-09
6.919020215e-09
8.095013629e-09
9.500878736e-09
1.104337076e-08
1.257050997e-08
1.386605213e-08
1.465974361e-08
7.132912682e-09
7.887103751e-09
9.018564259e-09
1.049625026e-08
1.225598097e-08
1.417921155e-08
1.607635452e-08
1.768073294e-08
1.866127385e-08
9.285225005e-09
1.022873308e-08
1.164040068e-08
1.34777898e-08
1.565768588e-08
1.80311004e-08
2.036402814e-08
2.233094081e-08
2.353027814e-08
1.197082252e-08
1.31391505e-08
1.488263386e-08
1.714445856e-08
1.981817561e-08
2.271857891e-08
2.555974072e-08
2.794812248e-08
2.940123156e-08
1.528967799e-08
1.672229394e-08
1.885479721e-08
2.161254067e-08
2.486107768e-08
2.837257648e-08
3.180099938e-08
3.467492576e-08
3.641974531e-08
1.935340429e-08
2.109373686e-08
2.367803133e-08
2.700985915e-08
3.092144199e-08
3.513528563e-08
3.923639432e-08
4.266491737e-08
4.47422461e-08
2.428542589e-08
2.638080188e-08
2.948511718e-08
3.347571406e-08
3.814557856e-08
4.315990339e-08
4.802525681e-08
5.208217835e-08
5.453553697e-08
3.022099761e-08
3.272252332e-08
3.642036131e-08
4.116067759e-08
4.669075867e-08
5.261024395e-08
5.833719706e-08
6.310078819e-08
6.597625485e-08
3.730706737e-08
4.026945715e-08
4.463933348e-08
5.022624816e-08
5.672478308e-08
6.366022669e-08
7.03515251e-08
7.590419925e-08
7.925023227e-08
4.570198428e-08
4.918334071e-08
5.430846078e-08
6.08443694e-08
6.842542336e-08
7.649324237e-08
8.42565441e-08
9.068444651e-08
9.45515696e-08
5.557505758e-08
5.96366092e-08
6.560448725e-08
7.319682574e-08
8.197975455e-08
9.130143355e-08
1.002488062e-07
1.076414471e-07
1.120820645e-07
6.710597602e-08
7.181177957e-08
7.871381053e-08
8.74745267e-08
9.75833867e-08
1.082848723e-07
1.185322161e-07
1.269819425e-07
1.32050143e-07
8.04841012e-08
8.590071595e-08
9.383171132e-08
1.038766985e-07
1.154396247e-07
1.276507105e-07
1.393172367e-07
1.489188268e-07
1.546700441e-07
9.590765126e-08
1.021037933e-07
1.111614914e-07
1.226099935e-07
1.357585435e-07
1.496121882e-07
1.628197196e-07
1.736700161e-07
1.801608077e-07
1.135827933e-07
1.206289785e-07
1.309135425e-07
1.43887554e-07
1.587560697e-07
1.743877978e-07
1.89260233e-07
2.014575749e-07
2.087453381e-07
1.337226635e-07
1.416908442e-07
1.533043527e-07
1.679280067e-07
1.846529332e-07
2.022000157e-07
2.188628676e-07
2.325066955e-07
2.406494205e-07
1.565463347e-07
1.655095382e-07
1.785554787e-07
1.949544282e-07
2.136735283e-07
2.33274606e-07
2.518543436e-07
2.670447541e-07
2.761007738e-07
1.822777525e-07
1.923097253e-07
2.068924857e-07
2.251931739e-07
2.460451694e-07
2.678395255e-07
2.884630464e-07
3.053003754e-07
3.153281266e-07
2.11144655e-07
2.223195063e-07
2.385437474e-07
2.58873126e-07
2.819969819e-07
3.061239734e-07
3.289180966e-07
3.475025267e-07
3.585603253e-07
2.433774779e-07
2.557691921e-07
2.737396966e-07
2.962245752e-07
3.217589501e-07
3.483574685e-07
3.734484592e-07
3.938796537e-07
4.060254856e-07
2.792080624e-07
2.928905637e-07
3.127116998e-07
3.374782657e-07
3.655609957e-07
3.947689684e-07
4.222820989e-07
4.446588655e-07
4.579501933e-07
3.188691119e-07
3.339157845e-07
3.556911157e-07
3.828644824e-07
4.136321075e-07
4.455860408e-07
4.75645191e-07
5.000651741e-07
5.145587614e-07
3.625930169e-07
3.790764607e-07
4.029083939e-07
4.326121916e-07
4.661995262e-07
5.010340937e-07
5.337613896e-07
5.603207938e-07
5.760725469e-07
4.106109525e-07
4.28602759e-07
4.545922314e-07
4.869482417e-07
5.23487992e-07
5.613356665e-07
5.968511591e-07
6.256445034e-07
6.427093301e-07
4.631520394e-07
4.82722591e-07
5.109687947e-07
5.460966284e-07
5.857190551e-07
6.267097864e-07
6.651311702e-07
6.962510723e-07
7.146827588e-07
5.204425737e-07
5.416608697e-07
5.722610114e-07
6.102778296e-07
6.531104566e-07
6.973713918e-07
7.388137615e-07
7.723507518e-07
7.922018561e-07
5.827053314e-07
6.056388379e-07
6.386879341e-07
6.797082103e-07
7.258755757e-07
7.735308231e-07
8.181064671e-07
8.541488312e-07
8.754705926e-07
6.501589478e-07
6.748734726e-07
7.10464178e-07
7.545994987e-07
8.042229483e-07
8.553933793e-07
9.032116087e-07
9.41845257e-07
9.646875214e-07
7.230173735e-07
7.495769628e-07
7.877994296e-07
8.351583324e-07
8.883558511e-07
9.431589409e-07
9.943259514e-07
1.035634314e-06
1.060045474e-06
8.014894042e-07
8.299562611e-07
8.708980278e-07
9.215858729e-07
9.784719524e-07
1.037021655e-06
1.091640419e-06
1.135704364e-06
1.161731312e-06
8.857782836e-07
9.162127052e-07
9.59958612e-07
1.014077486e-06
1.074763026e-06
1.137169682e-06
1.19533987e-06
1.242237644e-06
1.269925737e-06
9.760813745e-07
1.008541708e-06
1.055173836e-06
1.112822483e-06
1.177414722e-06
1.243784994e-06
1.305602922e-06
1.35541011e-06
1.384803149e-06
1.072589897e-06
1.107132509e-06
1.156730145e-06
1.218003925e-06
1.286606398e-06
1.357043235e-06
1.422601831e-06
1.475391336e-06
1.506531554e-06
1.175488725e-06
1.212167991e-06
1.264807606e-06
1.329798474e-06
1.402510998e-06
1.477113621e-06
1.546502418e-06
1.602344454e-06
1.635272511e-06
1.284956246e-06
1.323824544e-06
1.379579792e-06
1.448376304e-06
1.525294979e-06
1.604158886e-06
1.677464033e-06
1.736426134e-06
1.771181126e-06
1.401164261e-06
1.442271983e-06
1.501213719e-06
1.573901047e-06
1.655118281e-06
1.738335278e-06
1.815639563e-06
1.877786605e-06
1.914406073e-06
1.524277945e-06
1.567673518e-06
1.62986982e-06
1.706529788e-06
1.792134338e-06
1.879792576e-06
1.961175465e-06
2.0265697e-06
2.06508965e-06
1.654455842e-06
1.70018575e-06
1.765701964e-06
1.846413095e-06
1.936490116e-06
2.028674151e-06
2.114211842e-06
2.182912935e-06
2.223367866e-06
1.791849893e-06
1.839958716e-06
1.908857499e-06
1.993695076e-06
2.088326194e-06
2.185117048e-06
2.274882531e-06
2.346947616e-06
2.389370547e-06
1.936605512e-06
1.98713596e-06
2.059477341e-06
2.148513472e-06
2.247776855e-06
2.349252096e-06
2.443315227e-06
2.518798958e-06
2.56322146e-06
2.088861671e-06
2.141854635e-06
2.217696071e-06
2.310999771e-06
2.41497021e-06
2.521204038e-06
2.619631612e-06
2.698586229e-06
2.745038465e-06
2.248751026e-06
2.304245619e-06
2.38364207e-06
2.481279336e-06
2.590028341e-06
2.701091675e-06
2.803947512e-06
2.886422904e-06
2.934933665e-06
2.416400051e-06
2.474433664e-06
2.55743766e-06
2.659471562e-06
2.773067453e-06
2.889028028e-06
2.996373059e-06
3.082416836e-06
3.133013583e-06
2.591929198e-06
2.652537549e-06
2.739199265e-06
2.845690036e-06
2.964198041e-06
3.085120508e-06
3.197012865e-06
3.28667043e-06
3.339379336e-06
2.775453063e-06
2.838670255e-06
2.929037587e-06
3.040042714e-06
3.163525072e-06
3.289471097e-06
3.405966205e-06
3.499280824e-06
3.554126819e-06
2.967080569e-06
3.03293914e-06
3.127057786e-06
3.242632102e-06
3.371148165e-06
3.50217653e-06
3.623327203e-06
3.720340084e-06
3.777346896e-06
3.166915151e-06
3.235446134e-06
3.333359667e-06
3.453555448e-06
3.58716178e-06
3.723328492e-06
3.849185024e-06
3.949935388e-06
4.009125588e-06
3.375054948e-06
3.446287923e-06
3.548037873e-06
3.67290493e-06
3.811655415e-06
3.953013801e-06
4.083624062e-06
4.18814922e-06
4.249544266e-06
3.591593003e-06
3.665556155e-06
3.771182083e-06
3.900767854e-06
4.044713793e-06
4.191314609e-06
4.326724135e-06
4.435059558e-06
4.498679839e-06
3.816617458e-06
3.893337627e-06
4.002877202e-06
4.137226849e-06
4.286417061e-06
4.438308585e-06
4.578560673e-06
4.690740069e-06
4.756604946e-06
4.050211752e-06
4.129714487e-06
4.243203562e-06
4.382360054e-06
4.536840977e-06
4.694069113e-06
4.839204905e-06
4.955260288e-06
5.023388136e-06
4.292454815e-06
4.37476443e-06
4.492237111e-06
4.636241315e-06
4.796057099e-06
4.958665469e-06
5.108724046e-06
5.228685805e-06
5.299094056e-06
4.543421265e-06
4.628560882e-06
4.750049604e-06
4.898940372e-06
5.06413297e-06
5.232163011e-06
5.387181473e-06
5.511078439e-06
5.58378362e-06
4.803181593e-06
4.891173195e-06
5.016708786e-06
5.170523035e-06
5.3411323e-06
5.514623351e-06
5.6746369e-06
5.802496413e-06
5.877514183e-06
5.071802348e-06
5.162666827e-06
5.292278578e-06
5.45105137e-06
5.627115136e-06
5.806104525e-06
5.971146547e-06
6.102994518e-06
6.180339707e-06
5.349346318e-06
5.443103519e-06
5.576819243e-06
5.740583866e-06
5.922138033e-06
6.106661165e-06
6.276763303e-06
6.412624273e-06
6.492310917e-06
5.635872703e-06
5.732541465e-06
5.870387563e-06
6.039175599e-06
6.226254216e-06
6.416344648e-06
6.591536877e-06
6.731434077e-06
6.813475451e-06
5.93143728e-06
6.031035479e-06
6.173036997e-06
6.346878394e-06
6.539513732e-06
6.735203253e-06
6.915513948e-06
7.059469351e-06
7.143878001e-06
6.23609256e-06
6.33863715e-06
6.484817832e-06
6.663740973e-06
6.861963599e-06
7.063282299e-06
7.248738299e-06
7.396772674e-06
7.483560447e-06
6.549887943e-06
6.655394992e-06
6.805777333e-06
6.989809096e-06
7.19364794e-06
7.400624279e-06
7.591250948e-06
7.743383906e-06
7.832561978e-06
6.872869859e-06
6.981354583e-06
7.135959878e-06
7.325125693e-06
7.53460811e-06
7.747268976e-06
7.943090259e-06
8.099340293e-06
8.190919194e-06
7.205081896e-06
7.31655869e-06
7.475407079e-06
7.669730983e-06
7.884882809e-06
8.103253577e-06
8.304292047e-06
8.46467657e-06
8.558666201e-06
7.546564922e-06
7.66104739e-06
7.824157895e-06
8.023662574e-06
8.244508175e-06
8.468612749e-06
8.674889644e-06
8.839425021e-06
8.935834674e-06
7.897357182e-06
8.014858159e-06
8.18224872e-06
8.38695555e-06
8.613517855e-06
8.843378702e-06
9.054913956e-06
9.22361552e-06
9.322453888e-06
8.257494389e-06
8.378025958e-06
8.549713447e-06
8.759642516e-06
8.991943048e-06
9.227581218e-06
9.44439347e-06
9.61727553e-06
9.718550708e-06
8.627009802e-06
8.750583302e-06
8.926583535e-06
9.141753647e-06
9.379812515e-06
9.621247637e-06
9.843354224e-06
1.002043005e-05
1.012414952e-05
9.005934241e-06
9.132560266e-06
9.312888006e-06
9.533316674e-06
9.777152557e-06
1.00244028e-05
1.025181972e-05
1.04331015e-05
1.053927212e-05
9.394296094e-06
9.52398448e-06
9.7086534e-06
9.934356798e-06
1.018398688e-05
1.04370689e-05
1.06698107e-05
1.085530948e-05
1.09639374e-05
9.792121214e-06
9.924880997e-06
1.011390362e-05
1.034489651e-05
1.060033638e-05
1.085926515e-05
1.109734485e-05
1.128707038e-05
1.139816101e-05
1.019943279e-05
1.033527214e-05
1.052865975e-05
1.076495532e-05
1.10262188e-05
1.129100744e-05
1.153443626e-05
1.172839684e-05
1.184195467e-05
1.061625106e-05
1.075517719e-05
1.095293966e-05
1.119454933e-05
1.146164817e-05
1.173230764e-05
1.198109471e-05
1.217929686e-05
1.229532534e-05
1.104259295e-05
1.118461194e-05
1.138675749e-05
1.163369056e-05
1.190663408e-05
1.21831727e-05
1.243732456e-05
1.263977266e-05
1.275827388e-05
1.147847143e-05
1.162358801e-05
1.183012286e-05
1.208238607e-05
1.236118056e-05
1.264360336e-05
1.290312334e-05
1.3109819e-05
1.323079337e-05
1.192389466e-05
1.207211189e-05
1.228303975e-05
1.254063661e-05
1.282528452e-05
1.311359236e-05
1.337847965e-05
1.358942095e-05
1.371286666e-05
1.237886483e-05
1.253018362e-05
1.274550503e-05
1.30084349e-05
1.329893377e-05
1.359312209e-05
1.38633705e-05
1.40785509e-05
1.420446329e-05
1.284337645e-05
1.299779498e-05
1.321750637e-05
1.348576326e-05
1.378210421e-05
1.408216143e-05
1.435775773e-05
1.457716465e-05
1.470553528e-05
1.331741425e-05
1.347492713e-05
1.369901958e-05
1.39725905e-05
1.427475631e-05
1.458066164e-05
1.48615834e-05
1.508519637e-05
1.521601189e-05
1.380095023e-05
1.396154744e-05
1.419000511e-05
1.446886796e-05
1.477683052e-05
1.508855115e-05
1.537476398e-05
1.560255224e-05
1.573579288e-05
1.429394008e-05
1.445760557e-05
1.469040352e-05
1.497452441e-05
1.528824147e-05
1.560572905e-05
1.589718305e-05
1.612910253e-05
1.626474027e-05
1.479631839e-05
1.496302831e-05
1.520012996e-05
1.548945972e-05
1.580887082e-05
1.6132057e-05
1.642868237e-05
1.666467198e-05
1.680266822e-05
1.530799289e-05
1.547771339e-05
1.571906718e-05
1.601353712e-05
1.633855858e-05
1.666734953e-05
1.69690512e-05
1.720902827e-05
1.734933105e-05
1.582883728e-05
1.600152179e-05
1.624705715e-05
1.654657387e-05
1.687709263e-05
1.721136248e-05
1.751801365e-05
1.776186852e-05
1.790440922e-05
1.635868257e-05
1.653426853e-05
1.678389105e-05
1.708833023e-05
1.742419663e-05
1.776377962e-05
1.807521421e-05
1.832280387e-05
1.846749335e-05
1.689730694e-05
1.707571192e-05
1.732929762e-05
1.76384967e-05
1.797951598e-05
1.832419745e-05
1.864020134e-05
1.889134221e-05
1.903806645e-05
1.744442389e-05
1.762554106e-05
1.78829298e-05
1.819667959e-05
1.854260222e-05
1.889210837e-05
1.921240962e-05
1.946686947e-05
1.961548469e-05
1.799966875e-05
1.81833618e-05
1.84443498e-05
1.87623851e-05
1.911289601e-05
1.946688259e-05
1.979114074e-05
2.004862989e-05
2.019895737e-05
1.85625838e-05
1.874868128e-05
1.901301289e-05
1.933500219e-05
1.968970912e-05
2.004774934e-05
2.037554404e-05
2.063570628e-05
2.078752694e-05
1.91326021e-05
1.93208913e-05
1.958825026e-05
1.991378485e-05
2.027220613e-05
2.063377818e-05
2.096459768e-05
2.1227001e-05
2.138005008e-05
1.97090306e-05
1.989925118e-05
2.016925151e-05
2.049783438e-05
2.085938673e-05
2.122386144e-05
2.155709141e-05
2.182121934e-05
2.19751814e-05
2.029103297e-05
2.048287069e-05
2.075504775e-05
2.108608284e-05
2.145006967e-05
2.181669916e-05
2.215161264e-05
2.241685665e-05
2.257136142e-05
2.087761325e-05
2.107069395e-05
2.134449616e-05
2.16772786e-05
2.204287988e-05
2.241078792e-05
2.274653736e-05
2.301219117e-05
2.316681056e-05
2.146760111e-05
2.166148552e-05
2.193626736e-05
2.226997557e-05
2.263624004e-05
2.300441538e-05
2.334002768e-05
2.360528435e-05
2.375953131e-05
2.205964003e-05
2.225381992e-05
2.252883695e-05
2.286252757e-05
2.322836852e-05
2.359566228e-05
2.393003802e-05
2.419399067e-05
2.434732026e-05
2.26521798e-05
2.284607594e-05
2.312048274e-05
2.345308944e-05
2.381728516e-05
2.418241343e-05
2.451433145e-05
2.47759785e-05
2.492779187e-05
2.324347487e-05
2.34364375e-05
2.370928927e-05
2.403962632e-05
2.440082646e-05
2.476237932e-05
2.509050751e-05
2.534876333e-05
2.549841487e-05
2.383158984e-05
2.402290213e-05
2.429316085e-05
2.46199327e-05
2.497667136e-05
2.533312926e-05
2.565604253e-05
2.590975385e-05
2.605656189e-05
2.441441361e-05
2.46032987e-05
2.486984448e-05
2.51916618e-05
2.554237832e-05
2.589213641e-05
2.620834208e-05
2.645631057e-05
2.659957167e-05
2.498968315e-05
2.517531508e-05
2.543696315e-05
2.575236597e-05
2.609543361e-05
2.643683409e-05
2.674480483e-05
2.698581551e-05
2.712482205e-05
2.555501753e-05
2.57365362e-05
2.599205973e-05
2.629954766e-05
2.66333099e-05
2.696468212e-05
2.72628955e-05
2.749575024e-05
2.762981093e-05
2.610796216e-05
2.628449231e-05
2.65326507e-05
2.683071961e-05
2.715353338e-05
2.747324026e-05
2.776022374e-05
2.798377851e-05
2.811224071e-05
2.664604263e-05
2.681671627e-05
2.705628823e-05
2.734347227e-05
2.765375641e-05
2.796024537e-05
2.823462451e-05
2.844782849e-05
2.857010118e-05
2.716682653e-05
2.733080806e-05
2.756062808e-05