/*--------------------------------*- C++ -*----------------------------------*\
| =========                 |                                                 |
| \\      /  F ield         | OpenFOAM: The Open Source CFD Toolbox           |
|  \\    /   O peration     | Version:  2212                                  |
|   \\  /    A nd           | Website:  www.openfoam.com                      |
|    \\/     M anipulation  |                                                 |
\*---------------------------------------------------------------------------*/
FoamFile
{
    version     2.0;
    format      ascii;
    arch        "LSB;label=32;scalar=64";
    class       volScalarField;
    location    "20.00000000";
    object      C4H61;
}
// * * * * * * * * * * * * * * * * * * * * * * * * * * * * * * * * * * * * * //

dimensions      [0 0 0 0 0 0 0];

internalField   nonuniform List<scalar> 
3000
(
2.408913343e-33
2.988078013e-33
3.914084264e-33
5.242172761e-33
7.029008473e-33
9.295093785e-33
1.195275532e-32
1.468451741e-32
1.676770992e-32
1.015150911e-32
1.268516021e-32
1.673590839e-32
2.255730539e-32
3.045419922e-32
4.073081385e-32
5.358117897e-32
6.877760681e-32
8.3694431e-32
2.615869742e-32
3.310167855e-32
4.431994689e-32
6.075604805e-32
8.376136777e-32
1.151006396e-31
1.565977709e-31
2.084785643e-31
2.594543819e-31
5.715984985e-32
7.351399982e-32
1.004568735e-31
1.411304376e-31
2.003177877e-31
2.845173557e-31
4.004897177e-31
5.477345179e-31
6.86785209e-31
1.162394363e-31
1.524874379e-31
2.13663773e-31
3.090011165e-31
4.527132966e-31
6.639278053e-31
9.602515693e-31
1.331766892e-30
1.665586323e-30
2.289404523e-31
3.069259122e-31
4.418398361e-31
6.583243868e-31
9.941518409e-31
1.498264275e-30
2.209098334e-30
3.082262142e-30
3.834163567e-30
4.464097043e-31
6.118780003e-31
9.046736189e-31
1.386190035e-30
2.149311827e-30
3.30910181e-30
4.941585044e-30
6.907835492e-30
8.534921811e-30
8.712177386e-31
1.219591745e-30
1.848076345e-30
2.90212507e-30
4.598572197e-30
7.195531086e-30
1.084035607e-29
1.51820031e-29
1.877586076e-29
1.710779066e-30
2.440979018e-30
3.77921532e-30
6.057361096e-30
9.762159006e-30
1.54503493e-29
2.338953083e-29
3.272150627e-29
4.028464325e-29
3.385772111e-30
4.911544891e-30
7.743072885e-30
1.261763741e-29
2.060054767e-29
3.286984697e-29
4.990824693e-29
6.974549588e-29
8.564936863e-29
6.752529905e-30
9.93333765e-30
1.589453819e-29
2.624319123e-29
4.327178659e-29
6.944696413e-29
1.05644336e-28
1.474939499e-28
1.807951718e-28
1.355778912e-29
2.017612572e-29
3.26751191e-29
5.451002253e-29
9.055764282e-29
1.459516764e-28
2.22294912e-28
3.100933999e-28
3.795703204e-28
2.737088539e-29
4.111895637e-29
6.723864323e-29
1.130848129e-28
1.889483598e-28
3.054750243e-28
4.656303553e-28
6.4907071e-28
7.936219517e-28
5.549447541e-29
8.401129117e-29
1.384449408e-28
2.343355135e-28
3.93274013e-28
6.372875722e-28
9.719235607e-28
1.353999884e-27
1.654098655e-27
1.128839431e-28
1.71959099e-28
2.851425137e-28
4.850864226e-28
8.168990553e-28
1.326088958e-27
2.023139793e-27
2.817013836e-27
3.438949336e-27
2.301889774e-28
3.524317208e-28
5.873320449e-28
1.003205787e-27
1.693992736e-27
2.753610683e-27
4.202046411e-27
5.848319251e-27
7.135326799e-27
4.702573221e-28
7.22965766e-28
1.209718092e-27
2.072970998e-27
3.507867494e-27
5.708048937e-27
8.711891199e-27
1.212025239e-26
1.478013611e-26
9.62007817e-28
1.483983091e-27
2.491299779e-27
4.280227334e-27
7.255311975e-27
1.18154563e-26
1.803472477e-26
2.508133062e-26
3.05721996e-26
1.96995004e-27
3.047304507e-27
5.129602411e-27
8.831649184e-27
1.499063748e-26
2.442755726e-26
3.728577219e-26
5.183582374e-26
6.315827356e-26
4.036831569e-27
6.259009045e-27
1.055933302e-26
1.821123834e-26
3.094455462e-26
5.044724938e-26
7.699693503e-26
1.07004211e-25
1.303256779e-25
8.276221115e-27
1.285690687e-26
2.17301535e-26
3.752921751e-26
6.382301264e-26
1.040779129e-25
1.588300545e-25
2.206408085e-25
2.686204076e-25
1.697221803e-26
2.640890232e-26
4.470289806e-26
7.729092643e-26
1.315251692e-25
2.145137425e-25
3.27285881e-25
4.544446472e-25
5.530233658e-25
3.480770391e-26
5.423623741e-26
9.192276469e-26
1.590752834e-25
2.708156243e-25
4.416919466e-25
6.736574037e-25
9.348803096e-25
1.13711119e-24
7.137582641e-26
1.113478854e-25
1.889164799e-25
3.271512093e-25
5.571014863e-25
9.084813683e-25
1.384923068e-24
1.920679401e-24
2.334799933e-24
1.463086761e-25
2.284793665e-25
3.879792591e-25
6.722122857e-25
1.144807705e-24
1.866299024e-24
2.843250417e-24
3.939975428e-24
4.786173048e-24
2.997313287e-25
4.684874127e-25
7.960924063e-25
1.379767925e-24
2.349604689e-24
3.828508844e-24
5.827832892e-24
8.067860633e-24
9.792537337e-24
6.13515618e-25
9.596921738e-25
1.631691745e-24
2.82847154e-24
4.815277197e-24
7.840656571e-24
1.192278135e-23
1.648575678e-23
1.999020091e-23
1.25437258e-24
1.963498233e-24
3.339769918e-24
5.789298656e-24
9.851155946e-24
1.602555495e-23
2.433746507e-23
3.360295268e-23
4.069813228e-23
2.560932398e-24
4.01105946e-24
6.824392095e-24
1.182739928e-23
2.011148791e-23
3.267757673e-23
4.954756976e-23
6.829206505e-23
8.259665728e-23
5.219053125e-24
8.178400205e-24
1.391642571e-23
2.41091525e-23
4.095634926e-23
6.644721557e-23
1.005579155e-22
1.383152287e-22
1.670145155e-22
1.061325588e-23
1.663779331e-23
2.830993484e-23
4.901460346e-23
8.316232805e-23
1.346748536e-22
2.033450181e-22
2.79022833e-22
3.362831253e-22
2.152793517e-23
3.375730353e-23
5.742681654e-23
9.934023402e-23
1.68287183e-22
2.719278166e-22
4.094810471e-22
5.603095379e-22
6.738425805e-22
4.353931748e-23
6.828149671e-23
1.161079131e-22
2.0061962e-22
3.392120019e-22
5.466877232e-22
8.206637083e-22
1.119373692e-21
1.342927597e-21
8.776341632e-23
1.376307997e-22
2.338726419e-22
4.035094251e-22
6.806982227e-22
1.093696107e-21
1.635952965e-21
2.223412871e-21
2.660284717e-21
1.762492536e-22
2.76324107e-22
4.690981358e-22
8.078768267e-22
1.359141418e-21
2.176089702e-21
3.241868435e-21
4.38842463e-21
5.235229594e-21
3.524988318e-22
5.523681828e-22
9.365088666e-22
1.609264308e-21
2.698772162e-21
4.303634275e-21
6.382529898e-21
8.602017546e-21
1.022925128e-20
7.018565647e-22
1.098925254e-21
1.860058067e-21
3.187757862e-21
5.32637305e-21
8.455497343e-21
1.247766676e-20
1.67369408e-20
1.983560436e-20
1.39076836e-21
2.175055114e-21
3.673833131e-21
6.276451533e-21
1.044349753e-20
1.649576664e-20
2.421084662e-20
3.231055661e-20
3.815608454e-20
2.741868304e-21
4.281353361e-21
7.212995478e-21
1.227789498e-20
2.033353817e-20
3.194059506e-20
4.660625504e-20
6.186522396e-20
7.278751148e-20
5.376617225e-21
8.378420681e-21
1.40720232e-20
2.385301911e-20
3.929697712e-20
6.136015327e-20
8.897963761e-20
1.174518589e-19
1.376638379e-19
1.048442077e-20
1.629642686e-20
2.727108536e-20
4.600696923e-20
7.535950699e-20
1.169150719e-19
1.684378772e-19
2.210547006e-19
2.58098996e-19
2.032691234e-20
3.149698627e-20
5.248493676e-20
8.807260118e-20
1.433616479e-19
2.209007744e-19
3.160963185e-19
4.124010899e-19
4.796532439e-19
3.917645139e-20
6.047948195e-20
1.002898678e-19
1.673007569e-19
2.704947612e-19
4.138129413e-19
5.880235378e-19
7.626242573e-19
8.835883177e-19
7.505083894e-20
1.153571037e-19
1.902376035e-19
3.153012374e-19
5.0613086e-19
7.685346919e-19
1.084341964e-18
1.39796764e-18
1.613591287e-18
1.428980156e-19
2.185398631e-19
3.581809624e-19
5.8949879e-19
9.391258446e-19
1.415081506e-18
1.982292382e-18
2.540592828e-18
2.921637495e-18
2.704032276e-19
4.11184644e-19
6.693417667e-19
1.093341221e-18
1.728028941e-18
2.583419304e-18
3.593039377e-18
4.578327386e-18
5.246152792e-18
5.085068911e-19
7.683314495e-19
1.241442633e-18
2.011666804e-18
3.153418845e-18
4.677008985e-18
6.458580904e-18
8.183082418e-18
9.344365072e-18
9.503268875e-19
1.425823649e-18
2.285350575e-18
3.672144023e-18
5.707919696e-18
8.398259892e-18
1.151600288e-17
1.451066325e-17
1.651508052e-17
1.764974913e-18
2.627855758e-18
4.175986185e-18
6.651258983e-18
1.024998415e-17
1.496116779e-17
2.037420713e-17
2.553599645e-17
2.897159947e-17
3.257594793e-18
4.810395287e-18
7.575210015e-18
1.195595726e-17
1.826497641e-17
2.644960203e-17
3.577753763e-17
4.46125768e-17
5.046277187e-17
5.975275769e-18
8.746615325e-18
1.364345299e-17
2.133305632e-17
3.230586145e-17
4.641771162e-17
6.237853191e-17
7.740154247e-17
8.730239303e-17
1.089274951e-17
1.57989243e-17
2.440208419e-17
3.779339628e-17
5.673312759e-17
8.089102372e-17
1.080197566e-16
1.334075444e-16
1.500679059e-16
1.973610401e-17
2.83533644e-17
4.335073872e-17
6.64954518e-17
9.895114755e-17
1.400278259e-16
1.858506525e-16
2.285065598e-16
2.563922411e-16
3.554407726e-17
5.056466925e-17
7.651461026e-17
1.162293154e-16
1.714652315e-16
2.408610676e-16
3.178047829e-16
3.890920025e-16
4.355365554e-16
6.363669841e-17
8.962807842e-17
1.342028599e-16
2.01873168e-16
2.952677951e-16
4.118115003e-16
5.403124355e-16
6.588555865e-16
7.358530646e-16
1.132533899e-16
1.579030989e-16
2.339384527e-16
3.484909704e-16
5.054518719e-16
7.000923226e-16
9.136092372e-16
1.10981519e-15
1.236912508e-15
2.00344351e-16
2.765166283e-16
4.053662675e-16
5.98093825e-16
8.603953651e-16
1.183782637e-15
1.536879518e-15
1.860211624e-15
2.069157448e-15
3.522859007e-16
4.813816666e-16
6.983774978e-16
1.020763815e-15
1.456782702e-15
1.991473362e-15
2.572803451e-15
3.103451137e-15
3.445648642e-15
6.157919361e-16
8.332182484e-16
1.196524487e-15
1.732881596e-15
2.454069918e-15
3.334115216e-15
4.287217813e-15
5.1547652e-15
5.713189722e-15
1.070123163e-15
1.434158695e-15
2.039073412e-15
2.926879739e-15
4.114190519e-15
5.556479456e-15
7.112997656e-15
8.526210589e-15
9.434416669e-15
1.849029602e-15
2.455137974e-15
3.45710942e-15
4.919631925e-15
6.865780388e-15
9.220049116e-15
1.175264468e-14
1.404687588e-14
1.551923606e-14
3.177024039e-15
4.180877746e-15
5.83241983e-15
8.230875983e-15
1.140773069e-14
1.523613899e-14
1.934256745e-14
2.305501323e-14
2.543470934e-14
5.429070573e-15
7.083459749e-15
9.793171892e-15
1.370989051e-14
1.887564434e-14
2.507907514e-14
3.171544298e-14
3.770433033e-14
4.153934074e-14
9.228375434e-15
1.194218663e-14
1.636883403e-14
2.273947294e-14
3.110863877e-14
4.112666925e-14
5.181815301e-14
6.145107411e-14
6.76142209e-14
1.560594299e-14
2.003812676e-14
2.724019527e-14
3.756341684e-14
5.107583259e-14
6.720263437e-14
8.437596725e-14
9.982684957e-14
1.097050593e-13
2.625989478e-14
3.346876998e-14
4.514159943e-14
6.181079381e-14
8.355636043e-14
1.094386946e-13
1.369457374e-13
1.616622079e-13
1.77454327e-13
4.397537485e-14
5.565525778e-14
7.450615268e-14
1.013331033e-13
1.36221051e-13
1.776418255e-13
2.215825502e-13
2.61020185e-13
2.862048231e-13
7.330209816e-14
9.215745467e-14
1.224977626e-13
1.655376549e-13
2.213491583e-13
2.874581728e-13
3.57472192e-13
4.20246289e-13
4.60315675e-13
1.216439249e-13
1.519796829e-13
2.006574476e-13
2.695062171e-13
3.58547133e-13
4.637912211e-13
5.750817157e-13
6.747715826e-13
7.383812037e-13
2.01005201e-13
2.496561914e-13
3.275224878e-13
4.373533969e-13
5.79045198e-13
7.461909325e-13
9.226922072e-13
1.080664245e-12
1.181431763e-12
3.307803939e-13
4.085718257e-13
5.327819067e-13
7.075372183e-13
9.324726128e-13
1.197333651e-12
1.476662489e-12
1.726482327e-12
1.885799366e-12
5.421948461e-13
6.662325848e-13
8.638503655e-13
1.141234762e-12
1.497516304e-12
1.916336523e-12
2.357522127e-12
2.75184204e-12
3.003263943e-12
8.853475339e-13
1.082601898e-12
1.396234566e-12
1.835512924e-12
2.398642935e-12
3.059609345e-12
3.755143475e-12
4.376438499e-12
4.772527769e-12
1.440334061e-12
1.75323387e-12
2.249819434e-12
2.943967138e-12
3.832246767e-12
4.873407102e-12
5.967993435e-12
6.945265397e-12
7.568239766e-12
2.334730001e-12
2.829868455e-12
3.61434098e-12
4.708923656e-12
6.107365524e-12
7.744440359e-12
9.464091694e-12
1.099879037e-11
1.197704569e-11
3.770917376e-12
4.552549859e-12
5.789011119e-12
7.511413714e-12
9.708740638e-12
1.2278138e-11
1.497516758e-11
1.738126484e-11
1.891491509e-11
6.068509767e-12
7.299379835e-12
9.243741811e-12
1.194820011e-11
1.539381002e-11
1.941882048e-11
2.364105477e-11
2.740667426e-11
2.980681451e-11
9.729688014e-12
1.166295915e-11
1.471295364e-11
1.894948452e-11
2.43405778e-11
3.063255156e-11
3.722905985e-11
4.311057106e-11
4.68591839e-11
1.553884642e-11
1.856666987e-11
2.333783915e-11
2.995686672e-11
3.837055037e-11
4.818215167e-11
5.846324975e-11
6.762753258e-11
7.346796918e-11
2.471281804e-11
2.94394596e-11
3.687943125e-11
4.718889387e-11
6.028024844e-11
7.553489286e-11
9.151133975e-11
1.057481537e-10
1.148199932e-10
3.912428258e-11
4.647485883e-11
5.803299096e-11
7.403111002e-11
9.432601579e-11
1.179563352e-10
1.426914286e-10
1.647253376e-10
1.787620283e-10
6.162877656e-11
7.300851645e-11
9.088383672e-11
1.155984003e-10
1.469190906e-10
1.833572823e-10
2.21475349e-10
2.554147891e-10
2.770273205e-10
9.65347217e-11
1.140580955e-10
1.415550096e-10
1.795283958e-10
2.275993512e-10
2.834723295e-10
3.418764374e-10
3.938448202e-10
4.269187694e-10
1.502652747e-10
1.770788645e-10
2.191065831e-10
2.770735892e-10
3.503637676e-10
4.354539158e-10
5.243119606e-10
6.033097782e-10
6.535448421e-10
2.322691618e-10
2.729959565e-10
3.367526152e-10
4.245634536e-10
5.354252546e-10
6.639599567e-10
7.980180261e-10
9.170625316e-10
9.92681044e-10
3.562428874e-10
4.175775459e-10
5.13461597e-10
6.453024067e-10
8.114646762e-10
1.003790638e-09
1.204061593e-09
1.38163827e-09
1.49428012e-09
5.417261313e-10
6.332091094e-10
7.759963764e-10
9.719511213e-10
1.218409178e-09
1.503086882e-09
1.798936822e-09
2.060771821e-09
2.226576213e-09
8.161228957e-10
9.511145542e-10
1.161427004e-09
1.449404871e-09
1.810722065e-09
2.22703908e-09
2.658653226e-09
3.039777753e-09
3.280627544e-09
1.21718057e-09
1.414043171e-09
1.720113368e-09
2.138133253e-09
2.661125243e-09
3.261975089e-09
3.883129695e-09
4.430158961e-09
4.775033296e-09
1.795926265e-09
2.079401696e-09
2.519104976e-09
3.117884335e-09
3.864601729e-09
4.719612443e-09
5.600617188e-09
6.374114876e-09
6.860465391e-09
2.6200152e-09
3.022760316e-09
3.645847169e-09
4.491590518e-09
5.542454498e-09
6.741186976e-09
7.971803588e-09
9.048557872e-09
9.723599161e-09
3.777392791e-09
4.341605007e-09
5.212023639e-09
6.389253652e-09
7.846142624e-09
9.501125586e-09
1.119322577e-08
1.266823544e-08
1.359002833e-08
5.3801161e-09
6.159153567e-09
7.357313902e-09
8.971544733e-09
1.096058959e-08
1.320992781e-08
1.549963829e-08
1.748760607e-08
1.872581679e-08
7.568129234e-09
8.628007614e-09
1.025281077e-08
1.243283849e-08
1.51066699e-08
1.811596457e-08
2.116506595e-08
2.380122372e-08
2.543746432e-08
1.051274965e-08
1.193338634e-08
1.410383457e-08
1.700342078e-08
2.054263004e-08
2.450598787e-08
2.85023863e-08
3.194253117e-08
3.407022294e-08
1.441960607e-08
1.629568625e-08
1.915190164e-08
2.295065612e-08
2.756428171e-08
3.270425848e-08
3.786142733e-08
4.228111811e-08
4.500486456e-08
1.953077894e-08
2.197213728e-08
2.567565342e-08
3.057897769e-08
3.650390532e-08
4.307031921e-08
4.962569888e-08
5.521863853e-08
5.865313866e-08
2.612593274e-08
2.92573784e-08
3.399062296e-08
4.022865072e-08
4.772790477e-08
5.599555045e-08
6.42079825e-08
7.118367969e-08
7.545224961e-08
3.452229213e-08
3.848284792e-08
4.444779886e-08
5.227335036e-08
6.163334399e-08
7.189872527e-08
8.204506975e-08
9.062592305e-08
9.585871886e-08
4.507339381e-08
5.001496693e-08
5.743102991e-08
6.711667359e-08
7.864356151e-08
9.122082665e-08
1.035919596e-07
1.140099354e-07
1.203419814e-07
5.816663145e-08
6.425217642e-08
7.335338807e-08
8.518776342e-08
9.920309552e-08
1.144193987e-07
1.29315808e-07
1.418088893e-07
1.493780131e-07
7.421969174e-08
8.16209597e-08
9.265266271e-08
1.069362576e-07
1.2377216e-07
1.41962684e-07
1.596898779e-07
1.74498448e-07
1.834432147e-07
9.367604408e-08
1.02571034e-07
1.157861926e-07
1.328267841e-07
1.528208965e-07
1.743237613e-07
1.951876819e-07
2.125509834e-07
2.230087008e-07
1.169996896e-07
1.275699244e-07
1.432252528e-07
1.633332156e-07
1.868235976e-07
2.119748491e-07
2.362774501e-07
2.564302287e-07
2.685350812e-07
1.446693947e-07
1.570971409e-07
1.754492063e-07
1.989328707e-07
2.262530573e-07
2.55381897e-07
2.834170086e-07
3.065864223e-07
3.2046777e-07
1.771726306e-07
1.91638168e-07
2.129396069e-07
2.401008195e-07
2.715751711e-07
3.04999546e-07
3.370491146e-07
3.634519614e-07
3.792328306e-07
2.149994252e-07
2.316784518e-07
2.561744132e-07
2.873044191e-07
3.232438737e-07
3.612665124e-07
3.975972725e-07
4.27437571e-07
4.452333484e-07
2.586363009e-07
2.776975432e-07
3.056224426e-07
3.409981747e-07
3.816964777e-07
4.246014291e-07
4.654620456e-07
4.989289871e-07
5.188463263e-07
3.085604454e-07
3.30163521e-07
3.617381653e-07
4.016190004e-07
4.473494601e-07
4.953991691e-07
5.4101787e-07
5.782841577e-07
6.004201097e-07
3.652342286e-07
3.895277927e-07
4.249569129e-07
4.695819272e-07
5.205947209e-07
5.740276559e-07
6.246103703e-07
6.658309709e-07
6.902723904e-07
4.291001515e-07
4.562203443e-07
4.956905511e-07
5.452762828e-07
6.017963049e-07
6.608251103e-07
7.165540678e-07
7.61865363e-07
7.886888153e-07
5.005762936e-07
5.306454919e-07
5.743236543e-07
6.290623597e-07
6.912875726e-07
7.560976459e-07
8.171301649e-07
8.666486918e-07
8.959183803e-07
5.800523087e-07
6.131781806e-07
6.612102236e-07
7.212686285e-07
7.893689539e-07
8.601176228e-07
9.265857448e-07
9.804087e-07
1.012177451e-06
6.678860077e-07
7.041608624e-07
7.56670969e-07
8.221894859e-07
8.963061526e-07
9.731221593e-07
1.045132026e-06
1.103335697e-06
1.137645887e-06
7.644005554e-07
8.039009765e-07
8.609911832e-07
9.320835984e-07
1.012329038e-06
1.095312797e-06
1.172945665e-06
1.235586495e-06
1.272468918e-06
8.698822938e-07
9.126690401e-07
9.744191892e-07
1.051172729e-06
1.137630727e-06
1.226854259e-06
1.310165293e-06
1.377281676e-06
1.416756513e-06
9.845791934e-07
1.030697352e-06
1.097165407e-06
1.179641296e-06
1.272367912e-06
1.367876432e-06
1.456896352e-06
1.528507667e-06
1.570584551e-06
1.108699898e-06
1.158179246e-06
1.229401859e-06
1.317636068e-06
1.416660371e-06
1.518470966e-06
1.613208619e-06
1.689316875e-06
1.733995563e-06
1.242413338e-06
1.295268873e-06
1.371262179e-06
1.465266352e-06
1.570589729e-06
1.678696125e-06
1.779138481e-06
1.859729159e-06
1.907000085e-06
1.385848869e-06
1.442081482e-06
1.522841999e-06
1.622602797e-06
1.73420393e-06
1.848576509e-06
1.954690181e-06
2.039733314e-06
2.089578213e-06
1.539096865e-06
1.598694044e-06
1.684197857e-06
1.789682025e-06
1.90751704e-06
2.028104569e-06
2.139837356e-06
2.229288726e-06
2.281681309e-06
1.702209566e-06
1.76514425e-06
1.855352094e-06
1.966506576e-06
2.090510868e-06
2.21724229e-06
2.3345248e-06
2.428327184e-06
2.483233844e-06
1.875199597e-06
1.941435707e-06
2.036292941e-06
2.153046657e-06
2.283136768e-06
2.41592306e-06
2.538670365e-06
2.636754818e-06
2.694135345e-06
2.058047563e-06
2.127538586e-06
2.226976525e-06
2.34924211e-06
2.48531763e-06
2.62405368e-06
2.752166987e-06
2.854454113e-06
2.914262419e-06
2.250701456e-06
2.323391603e-06
2.42732898e-06
2.555004534e-06
2.696950004e-06
2.841516478e-06
2.974884773e-06
3.081285987e-06
3.143470807e-06
2.453078917e-06
2.528904223e-06
2.637248665e-06
2.770219515e-06
2.917906302e-06
3.068171467e-06
3.206673126e-06
3.317091877e-06
3.381597459e-06
2.665069615e-06
2.743959004e-06
2.856608496e-06
2.994748917e-06
3.148037043e-06
3.303858537e-06
3.44736287e-06
3.561695819e-06
3.628462583e-06
2.886537715e-06
2.968414026e-06
3.085258327e-06
3.228433202e-06
3.387173099e-06
3.548399624e-06
3.696768352e-06
3.814906489e-06
3.883871656e-06
3.117324387e-06
3.202105357e-06
3.323027351e-06
3.471093757e-06
3.63512793e-06
3.801600846e-06
3.954689494e-06
4.07651919e-06
4.147617371e-06
3.357250311e-06
3.444849502e-06
3.569726472e-06
3.722535168e-06
3.89169976e-06
4.063254584e-06
4.220913774e-06
4.346317766e-06
4.419481514e-06
3.606118146e-06
3.696445808e-06
3.82515063e-06
3.982547444e-06
4.156673685e-06
4.333141476e-06
4.495218132e-06
4.624076427e-06
4.699236748e-06
3.863714928e-06
3.956678805e-06
4.089081044e-06
4.250908151e-06
4.429823695e-06
4.611032325e-06
4.777370774e-06
4.909561483e-06
4.986648301e-06
4.129814381e-06
4.22532044e-06
4.361287356e-06
4.52738445e-06
4.710914592e-06
4.896689903e-06
5.067132875e-06
5.202532968e-06
5.281475553e-06
4.404179108e-06
4.502132209e-06
4.641529669e-06
4.811735016e-06
4.999703789e-06
5.189870642e-06
5.364260171e-06
5.502746158e-06
5.58347351e-06
4.686562662e-06
4.786867155e-06
4.929560452e-06
5.103711839e-06
5.295943002e-06
5.490326206e-06
5.668504437e-06
5.809952979e-06
5.892394172e-06
4.976711481e-06
5.079271739e-06
5.225126319e-06
5.403061896e-06
5.599379804e-06
5.797804946e-06
5.979614851e-06
6.123903296e-06
6.207987784e-06
5.274366677e-06
5.379087566e-06
5.52796967e-06
5.709528691e-06
5.909759063e-06
6.112053235e-06
6.297339235e-06
6.4443461e-06
6.530003983e-06
5.579265682e-06
5.686052974e-06
5.837830198e-06
6.022853665e-06
6.226824254e-06
6.432816684e-06
6.621425198e-06
6.77103057e-06
6.858192836e-06
5.891143753e-06
5.999904479e-06
6.154446256e-06
6.342777477e-06
6.550318642e-06
6.759841234e-06
6.951621146e-06
7.103707048e-06
7.192305767e-06
6.209735329e-06
6.320378082e-06
6.477556094e-06
6.669041156e-06
6.879986351e-06
7.092874151e-06
7.287677206e-06
7.442127892e-06
7.532096394e-06
6.534775252e-06
6.647210443e-06
6.806898967e-06
7.001387131e-06
7.215573315e-06
7.431664894e-06
7.629346032e-06
7.786048242e-06
7.87732126e-06
6.865999857e-06
6.980139924e-06
7.142216117e-06
7.339560149e-06
7.556828121e-06
7.775965893e-06
7.976383521e-06
8.13522669e-06
8.227740484e-06
7.203147928e-06
7.318907509e-06
7.483251641e-06
7.683308075e-06
7.903502747e-06
8.125533224e-06
8.328549438e-06
8.489425863e-06
8.583118314e-06
7.545961544e-06
7.663257611e-06
7.829753248e-06
8.032382592e-06
8.255353204e-06
8.480127194e-06
8.68560795e-06
8.848412923e-06
8.94322361e-06
7.894186801e-06
8.012938765e-06
8.181472907e-06
8.386539807e-06
8.612140082e-06
8.839512843e-06
9.047328085e-06
9.211959989e-06
9.30783025e-06
8.247574442e-06
8.367704229e-06
8.538167411e-06
8.745540759e-06
8.97362902e-06
9.203460362e-06
9.413484114e-06
9.579844497e-06
9.676717469e-06
8.60588038e-06
8.72731248e-06
8.89959884e-06
9.109151848e-06
9.339591093e-06
9.571745445e-06
9.783855866e-06
9.951849483e-06
1.004967013e-05
8.968866142e-06
9.091527638e-06
9.26553495e-06
9.477145191e-06
9.709803128e-06
9.944149572e-06
1.015822898e-05
1.032776382e-05
1.042647895e-05
9.336299222e-06
9.460119798e-06
9.635749489e-06
9.849298904e-06
1.008404796e-05
1.032046023e-05
1.053639512e-05
1.070738238e-05
1.080694065e-05
9.707953368e-06
9.832865305e-06
1.001002244e-05
1.022539732e-05
1.04621146e-05
1.070047107e-05
1.091815207e-05
1.10905062e-05
1.119085808e-05
1.00836088e-05
1.020954696e-05
1.03881402e-05
1.060523116e-05
1.084379844e-05
1.108398206e-05
1.13033039e-05
1.14769425e-05
1.157804033e-05
1.046305238e-05
1.058995415e-05
1.076989573e-05
1.098859763e-05
1.122890127e-05
1.147079952e-05
1.169166098e-05
1.186650482e-05
1.19683027e-05
1.08460777e-05
1.097388299e-05
1.115508863e-05
1.137530052e-05
1.161723138e-05
1.186073618e-05
1.208304001e-05
1.225901295e-05
1.236146676e-05
1.123248516e-05
1.13611363e-05
1.154352517e-05
1.176515019e-05
1.200860354e-05
1.225361117e-05
1.247726403e-05
1.265429294e-05
1.275736032e-05
1.162208196e-05
1.17515237e-05
1.19350183e-05
1.215796359e-05
1.240283902e-05
1.264925001e-05
1.287416236e-05
1.305217707e-05
1.315581734e-05
1.201468213e-05
1.214486153e-05
1.232938762e-05
1.255356422e-05
1.279976552e-05
1.304748452e-05
1.327357052e-05
1.345250377e-05
1.355667792e-05
1.241010642e-05
1.254097282e-05
1.272645933e-05
1.295178206e-05
1.319921708e-05
1.344815279e-05
1.36753302e-05
1.385511752e-05
1.395978813e-05
1.280818228e-05
1.29396872e-05
1.312606612e-05
1.335245347e-05
1.360103403e-05
1.385109903e-05
1.40792891e-05
1.425986874e-05
1.436499999e-05
1.320874373e-05
1.334084081e-05
1.352804711e-05
1.375542111e-05
1.400506283e-05
1.425617347e-05
1.448530085e-05
1.466661369e-05
1.477217127e-05
1.361163122e-05
1.374427615e-05
1.393224767e-05
1.416053377e-05
1.441115599e-05
1.466323226e-05
1.489322484e-05
1.507521432e-05
1.518116537e-05
1.401669156e-05
1.414984201e-05
1.433851933e-05
1.456764628e-05
1.481917185e-05
1.507213727e-05
1.53029261e-05
1.54855381e-05
1.559185119e-05
1.44237777e-05
1.455739321e-05
1.474671957e-05
1.497661931e-05
1.522897453e-05
1.548275597e-05
1.571427512e-05
1.589745789e-05
1.600410296e-05
1.483274859e-05
1.496679054e-05
1.515671173e-05
1.538731921e-05
1.564043367e-05
1.589496125e-05
1.612714768e-05
1.631085175e-05
1.641780003e-05
1.5243469e-05
1.537790051e-05
1.556836476e-05
1.579961787e-05
1.605342427e-05
1.63086312e-05
1.654142469e-05
1.672560272e-05
1.68328267e-05
1.565580933e-05
1.579059519e-05
1.598155306e-05
1.621339245e-05
1.646782651e-05
1.672364897e-05
1.695699191e-05
1.714159865e-05
1.724907202e-05
1.606964541e-05
1.620475198e-05
1.639615624e-05
1.662852524e-05
1.688352551e-05
1.713990247e-05
1.737373977e-05
1.755873193e-05
1.76664295e-05
1.648485824e-05
1.66202534e-05
1.681205893e-05
1.704490334e-05
1.730041107e-05
1.755728415e-05
1.779156307e-05
1.797689918e-05
1.808479681e-05
1.690133383e-05
1.703698685e-05
1.722915048e-05
1.746241846e-05
1.77183774e-05
1.797569067e-05
1.821036067e-05
1.839600095e-05
1.850407547e-05
1.731896282e-05
1.745484431e-05
1.764732471e-05
1.788096657e-05
1.813732278e-05
1.839502256e-05
1.863003508e-05
1.881594127e-05
1.892417037e-05
1.773764025e-05
1.7873722e-05
1.806647951e-05
1.830044752e-05
1.855714913e-05
1.881518374e-05
1.905049195e-05
1.92366271e-05
1.934498924e-05
1.815726513e-05
1.829352e-05
1.848651642e-05
1.872076456e-05
1.897776148e-05
1.923608091e-05
1.94716394e-05
1.965796765e-05
1.976644183e-05
1.857773992e-05
1.871414169e-05
1.890734004e-05
1.914182371e-05
1.939906726e-05
1.965762277e-05
1.989338719e-05
2.007987336e-05
2.018843898e-05
1.899897002e-05
1.913549315e-05
1.932885737e-05
1.956353294e-05
1.982097537e-05
2.007971901e-05
2.03156455e-05
2.05022547e-05
2.061089124e-05
1.942086291e-05
1.955748229e-05
1.975097686e-05
1.998580117e-05
2.024339504e-05
2.050227889e-05
2.073832343e-05
2.092502044e-05
2.103370709e-05
1.984332721e-05
1.998001782e-05
2.017360717e-05
2.040853685e-05
2.066623421e-05
2.092520951e-05
2.116132696e-05
2.134807543e-05
2.145679059e-05
2.026627135e-05
2.040300777e-05
2.059665563e-05
2.083164617e-05
2.108939742e-05
2.134841334e-05
2.158455626e-05
2.177131766e-05
2.18800383e-05
2.068960184e-05
2.082635764e-05
2.102002612e-05
2.125503067e-05
2.151278315e-05
2.177178519e-05
2.200790218e-05
2.219463443e-05
2.230333522e-05
2.111322106e-05
2.124996803e-05
2.144361639e-05
2.167858418e-05
2.193628027e-05
2.219520816e-05
2.243124184e-05
2.261789749e-05
2.272654966e-05
2.153702445e-05
2.167373152e-05
2.186731463e-05
2.210218891e-05
2.235976358e-05
2.261854862e-05
2.285443291e-05
2.304095686e-05
2.314952678e-05
2.196089679e-05
2.209752874e-05
2.229099507e-05
2.252571054e-05
2.278308825e-05
2.304164986e-05
2.327730657e-05
2.346363317e-05
2.357208056e-05
2.238470772e-05
2.252122344e-05
2.271451256e-05
2.294899205e-05
2.320608285e-05
2.346432433e-05
2.369965899e-05
2.388570843e-05
2.399398412e-05
2.280830605e-05
2.294465647e-05
2.313769589e-05
2.337184631e-05
2.362854102e-05
2.388634431e-05
2.412124098e-05
2.430691491e-05
2.441495819e-05
2.323151289e-05
2.336763839e-05
2.356033972e-05
2.379404711e-05
2.405021148e-05
2.430743087e-05
2.454174593e-05
2.472692228e-05
2.483465765e-05
2.365411337e-05
2.378994068e-05
2.398219505e-05
2.421531867e-05
2.447078649e-05
2.472724112e-05
2.496079608e-05
2.514532295e-05
2.525265646e-05
2.407584703e-05
2.421128555e-05
2.440295817e-05
2.463532359e-05
2.488988862e-05
2.514535393e-05
2.53779271e-05
2.556161585e-05
2.56684309e-05
2.449639659e-05
2.463133416e-05
2.482225817e-05
2.505364934e-05
2.530705622e-05
2.55612543e-05
2.579257152e-05
2.597518915e-05
2.608134189e-05
2.491537547e-05
2.504967361e-05
2.523964305e-05
2.54697936e-05
2.572172777e-05
2.597431683e-05
2.620404151e-05
2.63853025e-05
2.6490617e-05
2.533231405e-05
2.546580273e-05
2.565456502e-05
2.588314874e-05
2.613322582e-05
2.63837891e-05
2.661151187e-05
2.679106984e-05
2.689533316e-05
2.574664514e-05
2.587911725e-05
2.606636523e-05
2.629298632e-05
2.654074112e-05
2.678877581e-05
2.701400434e-05
2.7191444e-05
2.729440158e-05
2.615768912e-05
2.62888949e-05
2.647425889e-05
2.669844228e-05
2.694331831e-05
2.718822511e-05
2.741037478e-05
2.758520482e-05
2.768655649e-05
2.656463959e-05
2.669428127e-05
2.687732159e-05
2.709850412e-05
2.733984425e-05
2.758091847e-05
2.779930491e-05
2.797095259e-05
2.807034971e-05
2.696655046e-05
2.709427756e-05
2.727447821e-05
2.749200142e-05
2.772904073e-05
2.796546611e-05
2.817930057e-05
2.834710899e-05
2.844415335e-05
2.736232577e-05
2.748773163e-05
2.766449578e-05
2.787760133e-05
2.810946338e-05
2.834030988e-05
2.854869882e-05
2.87119279e-05
2.880617303e-05
2.775071355e-05
2.78733336e-05
2.804598193e-05
2.825381087e-05
2.847950865e-05
2.870373562e-05
2.890568581e-05
2.906351809e-05
2.915447353e-05
2.813030551e-05
2.824961802e-05
2.841739078e-05
2.861898776e-05
2.883743081e-05
2.905389694e-05
2.924832742e-05
2.939987979e-05
2.948701903e-05
2.849954402e-05
2.8614974e-05
2.877703783e-05
2.897136162e-05
2.91813705e-05
2.938885195e-05
2.957461398e-05
2.971895606e-05
2.980172862e-05
2.885673821e-05
2.89676651e-05
2.912312548e-05
2.930906668e-05
2.950939606e-05
2.970661368e-05
2.988251943e-05
3.001869934e-05
3.009654715e-05
2.920009038e-05
2.930586009e-05
2.945378019e-05
2.963018705e-05
2.981955787e-05
3.000521402e-05
3.017007436e-05
3.029715159e-05
3.036952962e-05
2.952773388e-05
2.962767545e-05
2.976710163e-05
2.993281414e-05
3.010995515e-05
3.02827798e-05
3.043545043e-05
3.055253531e-05
3.061893581e-05
2.983778258e-05
2.993122956e-05
3.00612235e-05
3.021511535e-05
3.037881292e-05
3.053761789e-05
3.06770523e-05
3.078335026e-05
3.084332955e-05
3.01283915e-05
3.021470752e-05
3.033438414e-05
3.047541132e-05
3.062456591e-05
3.076830472e-05
3.089361127e-05
3.098846951e-05
3.104167559e-05
3.039782682e-05
3.04764345e-05
3.058500413e-05
3.071225793e-05
3.084594421e-05
3.097377403e-05
3.108427336e-05
3.116722632e-05
3.12134251e-05
3.064454238e-05
3.071495419e-05
3.081176677e-05
3.092452797e-05
3.104205444e-05
3.11533956e-05
3.124867354e-05
3.131948308e-05
3.135858044e-05
3.086725873e-05
3.092910765e-05
3.101369586e-05
3.111148613e-05