/*--------------------------------*- C++ -*----------------------------------*\
| =========                 |                                                 |
| \\      /  F ield         | OpenFOAM: The Open Source CFD Toolbox           |
|  \\    /   O peration     | Version:  2212                                  |
|   \\  /    A nd           | Website:  www.openfoam.com                      |
|    \\/     M anipulation  |                                                 |
\*---------------------------------------------------------------------------*/
FoamFile
{
    version     2.0;
    format      ascii;
    arch        "LSB;label=32;scalar=64";
    class       volScalarField;
    location    "20.00000000";
    object      C8H8;
}
// * * * * * * * * * * * * * * * * * * * * * * * * * * * * * * * * * * * * * //

dimensions      [0 0 0 0 0 0 0];

internalField   nonuniform List<scalar> 
3000
(
2.779347717e-32
3.447574116e-32
4.51597809e-32
6.048295065e-32
8.109903861e-32
1.072445981e-31
1.37908076e-31
1.694265125e-31
1.934619064e-31
1.171257342e-31
1.463583992e-31
1.930949721e-31
2.602608772e-31
3.513733867e-31
4.699425763e-31
6.182071244e-31
7.935400238e-31
9.656469299e-31
3.01812941e-31
3.81919421e-31
5.113531678e-31
7.009890715e-31
9.664191415e-31
1.328004515e-30
1.806789067e-30
2.405378076e-30
2.993525729e-30
6.594970619e-31
8.481874322e-31
1.159048069e-30
1.628330331e-30
2.311220616e-30
3.28269656e-30
4.620760405e-30
6.319639257e-30
7.923976428e-30
1.341143784e-30
1.759364888e-30
2.465203491e-30
3.565184317e-30
5.223303739e-30
7.660251181e-30
1.107917225e-29
1.536563872e-29
1.921717745e-29
2.64146252e-30
3.541241041e-30
5.097847522e-30
7.595598203e-30
1.147030218e-29
1.728664387e-29
2.548809786e-29
3.556247646e-29
4.423774776e-29
5.150573811e-30
7.059709764e-30
1.043792014e-29
1.599354989e-29
2.479828198e-29
3.817968709e-29
5.701492234e-29
7.970107409e-29
9.847409535e-29
1.005191398e-29
1.407137532e-29
2.132269046e-29
3.348407042e-29
5.305730156e-29
8.302043906e-29
1.250736266e-28
1.751666039e-28
2.166316753e-28
1.973858601e-29
2.816347053e-29
4.360374356e-29
6.988848384e-29
1.126336202e-28
1.782626971e-28
2.698632103e-28
3.775334741e-28
4.647952801e-28
3.906428509e-29
5.666831338e-29
8.93378566e-29
1.455795039e-28
2.376845578e-28
3.792450215e-28
5.758303153e-28
8.04708114e-28
9.882034917e-28
7.790919357e-29
1.146086511e-28
1.833876678e-28
3.027881453e-28
4.992603272e-28
8.012637627e-28
1.218901075e-27
1.701752718e-27
2.085974901e-27
1.56426776e-28
2.327876864e-28
3.769983218e-28
6.289246363e-28
1.044834158e-27
1.683958353e-27
2.564789851e-27
3.577789546e-27
4.379399023e-27
3.157992454e-28
4.74421468e-28
7.757846801e-28
1.304747727e-27
2.180044696e-27
3.524503816e-27
5.372340952e-27
7.488835611e-27
9.156636211e-27
6.402830593e-28
9.693038277e-28
1.597347351e-27
2.703711781e-27
4.537509411e-27
7.352884498e-27
1.12138414e-26
1.562215456e-26
1.908462865e-26
1.302430178e-27
1.984026402e-27
3.289911893e-27
5.596821026e-27
9.425202728e-27
1.530012472e-26
2.334254523e-26
3.250209091e-26
3.967784722e-26
2.655870046e-27
4.066280131e-27
6.776508819e-27
1.157476938e-26
1.954491869e-26
3.177055984e-26
4.848229609e-26
6.747663407e-26
8.232584739e-26
5.425726293e-27
8.341421268e-27
1.395746363e-26
2.391748785e-26
4.047301166e-26
6.585822715e-26
1.00515907e-25
1.398408388e-25
1.705300002e-25
1.109943659e-26
1.712187383e-26
2.874407497e-26
4.938433276e-26
8.371021398e-26
1.363241707e-25
2.08080743e-25
2.893829555e-25
3.527354135e-25
2.272885531e-26
3.51591375e-26
5.918423939e-26
1.018976532e-25
1.729587272e-25
2.818398665e-25
4.301951711e-25
5.980705227e-25
7.287065039e-25
4.657608708e-26
7.221508996e-26
1.218312981e-25
2.101173281e-25
3.570315818e-25
5.820494654e-25
8.883740129e-25
1.234591496e-24
1.503669557e-24
9.548924837e-26
1.483402117e-25
2.50717817e-25
4.330040114e-25
7.363761549e-25
1.200828527e-24
1.832546958e-24
2.545706145e-24
3.099284447e-24
1.95821788e-25
3.04700219e-25
5.157724043e-25
8.917660665e-25
1.517509103e-24
2.475013437e-24
3.776154163e-24
5.243284728e-24
6.380664844e-24
4.016037926e-25
6.25766038e-25
1.060585098e-24
1.835376451e-24
3.124612546e-24
5.096146938e-24
7.772514708e-24
1.078644869e-23
1.311974532e-23
8.235189554e-25
1.284708006e-24
2.179677837e-24
3.774600559e-24
6.427717672e-24
1.048186364e-23
1.59789462e-23
2.216038838e-23
2.693842269e-23
1.688078166e-24
2.636146031e-24
4.476421721e-24
7.755841706e-24
1.320854684e-23
2.153295984e-23
3.280481685e-23
4.545859644e-23
5.522184442e-23
3.458236056e-24
5.405307787e-24
9.185144417e-24
1.59194683e-23
2.710923853e-23
4.41725202e-23
6.724029614e-23
9.308526034e-23
1.129842139e-22
7.078612586e-24
1.107272413e-23
1.882611246e-23
3.26343037e-23
5.555764587e-23
9.046383155e-23
1.37562522e-22
1.902091658e-22
2.306426998e-22
1.447268472e-23
2.265442633e-23
3.853355769e-23
6.679570197e-23
1.136605523e-22
1.848994627e-22
2.80800525e-22
3.877037634e-22
4.69566447e-22
2.954749695e-23
4.627875704e-23
7.873839563e-23
1.364620377e-22
2.320421062e-22
3.770269912e-22
5.716694167e-22
7.879394549e-22
9.529828273e-22
6.021633768e-23
9.436066269e-23
1.60564796e-22
2.781663374e-22
4.725457566e-22
7.666540206e-22
1.160216114e-21
1.595852067e-21
1.926978412e-21
1.224535284e-22
1.919633827e-22
3.266341129e-22
5.655202534e-22
9.595095633e-22
1.553850315e-21
2.346152311e-21
3.219307107e-21
3.879964377e-21
2.483848518e-22
3.894847662e-22
6.625786938e-22
1.146167e-21
1.941662568e-21
3.137446642e-21
4.724507178e-21
6.464734874e-21
7.774655443e-21
5.023477086e-22
7.878178834e-22
1.33962923e-21
2.314707887e-21
3.913758187e-21
6.30757017e-21
9.468648349e-21
1.291510217e-20
1.549442069e-20
1.012596536e-21
1.587956269e-21
2.698375053e-21
4.655609651e-21
7.853757309e-21
1.261884219e-20
1.887529024e-20
2.565328139e-20
3.069381832e-20
2.03352892e-21
3.188172572e-21
5.412360674e-21
9.321121057e-21
1.568150054e-20
2.510728398e-20
3.740402146e-20
5.063275156e-20
6.040301267e-20
4.067063563e-21
6.373117117e-21
1.0805257e-20
1.856737659e-20
3.113790179e-20
4.965447948e-20
7.364035721e-20
9.92483533e-20
1.180230418e-19
8.097891374e-21
1.267919507e-20
2.146100095e-20
3.67797467e-20
6.145467412e-20
9.755789551e-20
1.439648846e-19
1.931075272e-19
2.288592726e-19
1.604644456e-20
2.509540492e-20
4.238803463e-20
7.241656781e-20
1.204951649e-19
1.903250893e-19
2.793401727e-19
3.727930038e-19
4.402375089e-19
3.163524812e-20
4.939757345e-20
8.322236863e-20
1.416603083e-19
2.346048919e-19
3.685249845e-19
5.377345738e-19
7.137895341e-19
8.398086482e-19
6.2034702e-20
9.666907927e-20
1.623610208e-19
2.752126387e-19
4.534025128e-19
7.079636351e-19
1.026632177e-18
1.355139104e-18
1.588340744e-18
1.209682439e-19
1.880265146e-19
3.146508107e-19
5.308230177e-19
8.694884493e-19
1.348950069e-18
1.943411268e-18
2.550494086e-18
2.977903411e-18
2.345310332e-19
3.634105922e-19
6.055679373e-19
1.016175151e-18
1.65409411e-18
2.548730315e-18
3.647081443e-18
4.758227907e-18
5.534168848e-18
4.520191674e-19
6.978135095e-19
1.157145122e-18
1.930314352e-18
3.120960305e-18
4.7745517e-18
6.784569932e-18
8.799081735e-18
1.019473824e-17
8.659472153e-19
1.33100475e-18
2.194981581e-18
3.637971519e-18
5.839765006e-18
8.867369274e-18
1.251112152e-17
1.612968214e-17
1.86174978e-17
1.648799894e-18
2.521573345e-18
4.132781245e-18
6.80176457e-18
1.083579967e-17
1.632739384e-17
2.287184481e-17
2.931343337e-17
3.370983398e-17
3.120053e-18
4.744450405e-18
7.723169739e-18
1.261541896e-17
1.993861004e-17
2.980823705e-17
4.145726345e-17
5.282540601e-17
6.053060598e-17
5.867575232e-18
8.865618463e-18
1.432469131e-17
2.321199013e-17
3.638606811e-17
5.396575331e-17
7.45217981e-17
9.44190057e-17
1.078175867e-16
1.096607278e-17
1.64528881e-17
2.637101283e-17
4.237314054e-17
6.586352241e-17
9.690623887e-17
1.328797967e-16
1.674323315e-16
1.905588162e-16
2.036755887e-17
3.032492674e-17
4.818970878e-17
7.675296585e-17
1.18279482e-16
1.726416063e-16
2.35100547e-16
2.946583827e-16
3.342977408e-16
3.759479552e-17
5.551479891e-17
8.742164619e-17
1.379760309e-16
2.107811757e-16
3.052275049e-16
4.128627193e-16
5.148057088e-16
5.823049593e-16
6.896502374e-17
1.009503628e-16
1.574663332e-16
2.462126151e-16
3.728466331e-16
5.357006235e-16
7.198824358e-16
8.932317787e-16
1.007469865e-15
1.257364555e-16
1.823676708e-16
2.816710135e-16
4.362382647e-16
6.548387304e-16
9.336517559e-16
1.246730852e-15
1.539695749e-15
1.731934328e-15
2.278520447e-16
3.273352409e-16
5.004713132e-16
7.676552047e-16
1.142307559e-15
1.616444701e-15
2.145320769e-15
2.637597053e-15
2.959383332e-15
4.104346284e-16
5.83876759e-16
8.835133654e-16
1.342070996e-15
1.979804937e-15
2.780960629e-15
3.669164393e-15
4.491975127e-15
5.027981701e-15
7.350024801e-16
1.035199682e-15
1.550022009e-15
2.331558476e-15
3.410121752e-15
4.755899767e-15
6.239579793e-15
7.60809954e-15
8.496868823e-15
1.308447472e-15
1.824306676e-15
2.70276339e-15
4.026169473e-15
5.839396066e-15
8.087686305e-15
1.055370846e-14
1.281945826e-14
1.428692089e-14
2.315386385e-15
3.195769407e-15
4.68497304e-15
6.912395173e-15
9.943739831e-15
1.36807031e-14
1.776048382e-14
2.149579708e-14
2.390926033e-14
4.072810604e-15
5.565517708e-15
8.074618221e-15
1.180231677e-14
1.684377289e-14
2.302573131e-14
2.974628183e-14
3.588014712e-14
3.983509567e-14
7.121718927e-15
9.636977979e-15
1.383999739e-14
2.00452325e-14
2.838898095e-14
3.857056681e-14
4.959702972e-14
5.963309669e-14
6.609252048e-14
1.237985344e-14
1.659322943e-14
2.359520789e-14
3.387278751e-14
4.761901042e-14
6.43189399e-14
8.234307739e-14
9.870881765e-14
1.092264595e-13
2.139460251e-14
2.841300393e-14
4.001725202e-14
5.695895912e-14
7.95084847e-14
1.067941714e-13
1.361550021e-13
1.627596985e-13
1.798371167e-13
3.675884613e-14
4.838697661e-14
6.752296131e-14
9.532357109e-14
1.321633017e-13
1.765820363e-13
2.242543491e-13
2.673784488e-13
2.950347635e-13
6.27896449e-14
8.19553864e-14
1.133603384e-13
1.587809805e-13
2.187306436e-13
2.907868235e-13
3.679497876e-13
4.376575065e-13
4.823355253e-13
1.066270675e-13
1.380566141e-13
1.893552057e-13
2.632465916e-13
3.604276974e-13
4.769149057e-13
6.014294853e-13
7.138021392e-13
7.858027788e-13
1.799979538e-13
2.312803628e-13
3.146841173e-13
4.343801831e-13
5.913068209e-13
7.789675128e-13
9.792657876e-13
1.159911052e-12
1.275649643e-12
3.020208392e-13
3.852744416e-13
5.202374461e-13
7.13290083e-13
9.656862117e-13
1.266913201e-12
1.588058493e-12
1.877581174e-12
2.063107143e-12
5.036225795e-13
6.380824143e-13
8.554179185e-13
1.165376656e-12
1.569621731e-12
2.051263762e-12
2.564307048e-12
3.026755019e-12
3.323185808e-12
8.344197271e-13
1.050418974e-12
1.39862262e-12
1.893896085e-12
2.538422468e-12
3.305246286e-12
4.121516324e-12
4.857269582e-12
5.329077525e-12
1.373321317e-12
1.718357123e-12
2.273221735e-12
3.060522805e-12
4.0830724e-12
5.298106169e-12
6.590765813e-12
7.755947206e-12
8.503421473e-12
2.244675697e-12
2.792550652e-12
3.671623934e-12
4.916134641e-12
6.529570252e-12
8.444449879e-12
1.048056655e-11
1.231584729e-11
1.349354719e-11
3.642562143e-12
4.506999318e-12
5.891061441e-12
7.846295583e-12
1.037669576e-11
1.337629516e-11
1.656384011e-11
1.943651223e-11
2.128014261e-11
5.866875082e-12
7.22153997e-12
9.386094384e-12
1.243752106e-11
1.637959973e-11
2.104667507e-11
2.600230001e-11
3.046669725e-11
3.333157178e-11
9.376225016e-12
1.148377232e-11
1.484457588e-11
1.957242049e-11
2.566892148e-11
3.287624231e-11
4.052137418e-11
4.740412481e-11
5.181922301e-11
1.486444227e-11
1.811805199e-11
2.329597149e-11
3.056423556e-11
3.991784489e-11
5.095728986e-11
6.265198672e-11
7.317012504e-11
7.99126588e-11
2.336965875e-11
2.835153242e-11
3.626349172e-11
4.734409771e-11
6.157253574e-11
7.833281406e-11
9.605883763e-11
1.119803892e-10
1.221767091e-10
3.642756833e-11
4.398999753e-11
5.597442363e-11
7.271741436e-11
9.416459768e-11
1.193714689e-10
1.459779865e-10
1.698361245e-10
1.850956201e-10
5.628348364e-11
6.765932141e-11
8.564621132e-11
1.107089711e-10
1.427272769e-10
1.802621515e-10
2.197891413e-10
2.551621762e-10
2.777514257e-10
8.618109368e-11
1.03131656e-10
1.298690111e-10
1.670193054e-10
2.14339754e-10
2.696540529e-10
3.277495392e-10
3.796195862e-10
4.126842235e-10
1.307491573e-10
1.557586125e-10
1.951082994e-10
2.49617258e-10
3.188254926e-10
3.994687404e-10
4.83916053e-10
5.591189125e-10
6.069603278e-10
1.965103974e-10
2.330363741e-10
2.9035319e-10
3.694948174e-10
4.696306959e-10
5.859095868e-10
7.072795344e-10
8.150568094e-10
8.834696941e-10
2.925391255e-10
3.453293611e-10
4.27936878e-10
5.416098764e-10
6.849068571e-10
8.506900544e-10
1.023129853e-09
1.175791356e-09
1.272466119e-09
4.312950556e-10
5.067791769e-10
6.24554492e-10
7.860397362e-10
9.888166712e-10
1.222495542e-09
1.464661319e-09
1.678361245e-09
1.813352388e-09
6.296597496e-10
7.364235106e-10
9.025000495e-10
1.129362687e-09
1.413074884e-09
1.738683595e-09
2.074816255e-09
2.370440454e-09
2.556698201e-09
9.101985892e-10
1.059544939e-09
1.291137797e-09
1.60627653e-09
1.998725009e-09
2.447214541e-09
2.90834999e-09
3.312504307e-09
3.566462301e-09
1.302664659e-09
1.509261852e-09
1.828613829e-09
2.261451637e-09
2.798139697e-09
3.408789868e-09
4.034084633e-09
4.580166217e-09
4.9223734e-09
1.845751295e-09
2.128362999e-09
2.563801771e-09
3.151602591e-09
3.877217801e-09
4.699160174e-09
5.537303273e-09
6.266628854e-09
6.722409157e-09
2.589087506e-09
2.971373903e-09
3.558462215e-09
4.347747718e-09
5.317736232e-09
6.411549935e-09
7.522222564e-09
8.485180935e-09
9.085300795e-09
3.595455731e-09
4.106828339e-09
4.889580505e-09
5.937611123e-09
7.219801095e-09
8.659134485e-09
1.011447195e-08
1.13716632e-08
1.215298467e-08
4.943195508e-09
5.619702683e-09
6.651832964e-09
8.028108971e-09
9.704332038e-09
1.157749699e-08
1.346350341e-08
1.508682555e-08
1.609292229e-08
6.728741178e-09
7.613956559e-09
8.960119238e-09
1.074785202e-08
1.291550754e-08
1.532699099e-08
1.774485719e-08
1.981850235e-08
2.11002173e-08
9.069228302e-09
1.021511162e-08
1.195208952e-08
1.424959117e-08
1.702309788e-08
2.009493742e-08
2.31622166e-08
2.578354342e-08
2.739946999e-08
1.210509372e-08
1.357279279e-08
1.579059121e-08
1.871253268e-08
2.222461677e-08
2.609759384e-08
2.99491973e-08
3.32294532e-08
3.524632678e-08
1.600258929e-08
1.786315378e-08
2.066596071e-08
2.434445475e-08
2.874723185e-08
3.358184588e-08
3.837083133e-08
4.243570759e-08
4.492869907e-08
2.095612999e-08
2.329111204e-08
2.679809199e-08
3.138356644e-08
3.684938646e-08
4.282658602e-08
4.872472306e-08
5.371473462e-08
5.676764338e-08
2.719040349e-08
3.009232602e-08
3.443822419e-08
4.010006303e-08
4.682209977e-08
5.414375988e-08
6.134186883e-08
6.74125599e-08
7.11179085e-08
3.496217925e-08
3.853486037e-08
4.38704042e-08
5.079734587e-08
5.898992696e-08
6.787907441e-08
7.658714534e-08
8.390912941e-08
8.836816614e-08
4.45617701e-08
4.892049953e-08
5.541259513e-08
6.381289025e-08
7.371157484e-08
8.441237411e-08
9.485948137e-08
1.036183297e-07
1.089409478e-07
5.631411563e-08
6.158568651e-08
6.941741724e-08
7.951875791e-08
9.138017965e-08
1.041577005e-07
1.165917338e-07
1.269877301e-07
1.33292314e-07
7.057947401e-08
7.690207938e-08
8.627252157e-08
9.832176288e-08
1.12423263e-07
1.275630558e-07
1.422502926e-07
1.544980726e-07
1.61911282e-07
8.775372408e-08
9.527673218e-08
1.064006087e-07
1.206633086e-07
1.373023878e-07
1.551098956e-07
1.723344394e-07
1.866625349e-07
1.953190372e-07
1.082682932e-07
1.171519185e-07
1.302591146e-07
1.470189205e-07
1.665125405e-07
1.873123766e-07
2.073754866e-07
2.240257913e-07
2.340679512e-07
1.325897361e-07
1.430046248e-07
1.583395905e-07
1.778975024e-07
2.005812669e-07
2.247163854e-07
2.479357197e-07
2.671628928e-07
2.787404282e-07
1.612189985e-07
1.733457458e-07
1.911668108e-07
2.138403483e-07
2.400675908e-07
2.678983755e-07
2.94607167e-07
3.166779887e-07
3.299475996e-07
1.946904006e-07
2.087190182e-07
2.29297641e-07
2.554199394e-07
2.855607431e-07
3.174640357e-07
3.480102191e-07
3.732029091e-07
3.883278856e-07
2.335703807e-07
2.496997287e-07
2.733197005e-07
3.032385585e-07
3.376787292e-07
3.740468159e-07
4.087921194e-07
4.373956291e-07
4.545454437e-07
2.784560371e-07
2.968932344e-07
3.238498549e-07
3.579267519e-07
3.970667616e-07
4.383063326e-07
4.77625347e-07
5.099386335e-07
5.29288523e-07
3.29973505e-07
3.509333281e-07
3.815325677e-07
4.201416668e-07
4.643955834e-07
5.109266795e-07
5.552059144e-07
5.915372043e-07
6.132677441e-07
3.887762041e-07
4.12480485e-07
4.470381449e-07
4.90565294e-07
5.403597089e-07
5.926146656e-07
6.422516025e-07
6.829176511e-07
7.072143272e-07
4.555429898e-07
4.822200186e-07
5.210608994e-07
5.699026422e-07
6.256756082e-07
6.840980088e-07
7.395001602e-07
7.848255136e-07
8.118782926e-07
5.309762367e-07
5.60860177e-07
6.04317263e-07
6.588798696e-07
7.210798601e-07
7.861235111e-07
8.477075036e-07
8.980237834e-07
9.28026703e-07
6.157998815e-07
6.491302e-07
6.975438647e-07
7.582423851e-07
8.273272793e-07
8.994552154e-07
9.676459141e-07
1.023291179e-06
1.056442073e-06
7.107574466e-07
7.477783605e-07
8.01495594e-07
8.687529342e-07
9.451890131e-07
1.024872486e-06
1.100102035e-06
1.161419896e-06
1.197919544e-06
8.166100673e-07
8.575700107e-07
9.169436717e-07
9.911896974e-07
1.075450673e-06
1.163168191e-06
1.245875182e-06
1.313214279e-06
1.353266273e-06
9.341345418e-07
9.792856535e-07
1.044673751e-06
1.126344424e-06
1.218910497e-06
1.315146869e-06
1.405775393e-06
1.479488405e-06
1.52329897e-06
1.06412142e-06
1.113719054e-06
1.18548406e-06
1.275020615e-06
1.376377591e-06
1.481623085e-06
1.5806221e-06
1.661065298e-06
1.708842606e-06
1.207373149e-06
1.26167541e-06
1.340183607e-06
1.438031761e-06
1.548670168e-06
1.663419527e-06
1.771241699e-06
1.858774656e-06
1.910728619e-06
1.364702281e-06
1.423969588e-06
1.509590458e-06
1.61619969e-06
1.736614041e-06
1.861365844e-06
1.978467011e-06
2.073451599e-06
2.129793467e-06
1.536929762e-06
1.601424431e-06
1.694530069e-06
1.810352909e-06
1.941040805e-06
2.076296174e-06
2.203135063e-06
2.305935079e-06
2.366877142e-06
1.724883296e-06
1.794869152e-06
1.89583372e-06
2.021324987e-06
2.162786009e-06
2.309048776e-06
2.446085927e-06
2.557066539e-06
2.622821824e-06
1.929395807e-06
2.005137818e-06
2.114336933e-06
2.249952705e-06
2.40268865e-06
2.56046416e-06
2.708161381e-06
2.827688636e-06
2.898470615e-06
2.151303978e-06
2.233067825e-06
2.350877638e-06
2.497075625e-06
2.66158934e-06
2.831383882e-06
2.990203673e-06
3.118644041e-06
3.194666367e-06
2.391446798e-06
2.479498083e-06
2.606295834e-06
2.763534307e-06
2.940329159e-06
3.122649372e-06
3.293054392e-06
3.430774341e-06
3.512250602e-06
2.65066361e-06
2.74526875e-06
2.881431851e-06
3.050169192e-06
3.239748522e-06
3.435100853e-06
3.617553423e-06
3.764919031e-06
3.852062522e-06
2.92979441e-06
3.03121965e-06
3.177125302e-06
3.357819539e-06
3.560686155e-06
3.769576351e-06
3.964538e-06
4.121914594e-06
4.21493811e-06
3.22967805e-06
3.338189253e-06
3.494214084e-06
3.687322454e-06
3.903978159e-06
4.126910805e-06
4.334841849e-06
4.502593678e-06
4.601709322e-06
3.551151283e-06
3.667013709e-06
3.833533446e-06
4.039512e-06
4.270457168e-06
4.507935257e-06
4.729294416e-06
4.907784351e-06
5.013203361e-06
3.895047886e-06
4.018525986e-06
4.195915158e-06
4.4152184e-06
4.66095158e-06
4.913476131e-06
5.14872018e-06
5.338309443e-06
5.450242039e-06
4.26219787e-06
4.393555094e-06
4.582186757e-06
4.815267318e-06
5.076284885e-06
5.344354589e-06
5.593938047e-06
5.794985964e-06
5.913641206e-06
4.653426763e-06
4.792925384e-06
4.99317088e-06
5.240479222e-06
5.517275054e-06
5.801385961e-06
6.065760807e-06
6.278624596e-06
6.404210256e-06
5.069554983e-06
5.217455943e-06
5.429684675e-06
5.691668825e-06
5.984734019e-06
6.285379255e-06
6.564994678e-06
6.79002925e-06
6.922751706e-06
5.51139728e-06
5.667960045e-06
5.89253928e-06
6.169644592e-06
6.479467207e-06
6.797136725e-06
7.092438901e-06
7.32999669e-06
7.470060828e-06
5.979762248e-06
6.145244681e-06
6.382539372e-06
6.675208319e-06
7.00227315e-06
7.337453506e-06
7.648885405e-06
7.899316219e-06
8.046925349e-06
6.475451904e-06
6.650110156e-06
6.900482784e-06
7.209154769e-06
7.553943147e-06
7.907117308e-06
8.235118523e-06
8.498769417e-06
8.654125198e-06
6.99926133e-06
7.183349739e-06
7.447160177e-06
7.772271366e-06
8.135260987e-06
8.506908165e-06
8.851914763e-06
9.129129925e-06
9.292432305e-06
7.551978368e-06
7.745749369e-06
8.023354761e-06
8.365337947e-06
8.747002719e-06
9.137598224e-06
9.500042624e-06
9.791163284e-06
9.962610449e-06
8.134383365e-06
8.338087421e-06
8.629842077e-06
8.989126554e-06
9.389936471e-06
9.799951589e-06
1.018026246e-05
1.048562681e-05
1.066541514e-05
8.747248975e-06
8.961134508e-06
9.267389813e-06
9.644401275e-06
1.006482231e-05
1.04947242e-05
1.089332636e-05
1.121326949e-05
1.140159353e-05
9.391339989e-06
9.615653326e-06
9.936757672e-06
1.033191812e-05
1.077241213e-05
1.122266375e-05
1.163997812e-05
1.197483198e-05
1.21718844e-05
1.006741322e-05
1.030239855e-05
1.063869727e-05
1.105242496e-05
1.15134496e-05
1.198450963e-05
1.242095316e-05
1.27710465e-05
1.297701809e-05
1.07762174e-05
1.102211674e-05
1.137395205e-05
1.180666141e-05
1.228867013e-05
1.278099292e-05
1.323697856e-05
1.360263691e-05
1.381771657e-05
1.151849316e-05
1.17755463e-05
1.214325729e-05
1.259535889e-05
1.309880084e-05
1.361283638e-05
1.408877303e-05
1.447031871e-05
1.469469342e-05
1.229497294e-05
1.256341748e-05
1.294734004e-05
1.341924056e-05
1.394456057e-05
1.448075446e-05
1.4977047e-05
1.537479906e-05
1.56086539e-05
1.310638107e-05
1.338645234e-05
1.378691916e-05
1.427902138e-05
1.482665994e-05
1.538545339e-05
1.590250262e-05
1.63167769e-05
1.656029504e-05
1.395343371e-05
1.424536478e-05
1.466270537e-05
1.517540812e-05
1.57458014e-05
1.632763122e-05
1.686583389e-05
1.729694296e-05
1.755030568e-05
1.483683892e-05
1.514086062e-05
1.557540125e-05
1.610909947e-05
1.670267929e-05
1.730797786e-05
1.78677267e-05
1.831597993e-05
1.857936659e-05
1.575729673e-05
1.607363762e-05
1.652570136e-05
1.708078604e-05
1.769797989e-05
1.832717525e-05
1.890885894e-05
1.937456248e-05
1.964815059e-05
1.671549919e-05
1.704438559e-05
1.751429229e-05
1.809115052e-05
1.873238158e-05
1.938589739e-05
1.998990061e-05
2.047335744e-05
2.075732263e-05
1.771213045e-05
1.805378642e-05
1.854185275e-05
1.914086773e-05
1.98065549e-05
2.048481048e-05
2.111151395e-05
2.161302388e-05
2.190753993e-05
1.874786688e-05
1.910251423e-05
1.960905368e-05
2.023060474e-05
2.092116264e-05
2.162457302e-05
2.227435352e-05
2.279421322e-05
2.30994521e-05
1.982337711e-05
2.019123546e-05
2.071655836e-05
2.136102099e-05
2.207686002e-05
2.280583596e-05
2.347906636e-05
2.401756942e-05
2.433370126e-05
2.093932222e-05
2.132060895e-05
2.18650225e-05
2.253276838e-05
2.327429475e-05
2.402924278e-05
2.47262921e-05
2.528372904e-05
2.56109222e-05
2.209635577e-05
2.24912861e-05
2.305509439e-05
2.374649142e-05
2.451410719e-05
2.529542968e-05
2.601666309e-05
2.65933214e-05
2.693174248e-05
2.329512399e-05
2.370391094e-05
2.428741499e-05
2.500282733e-05
2.579693045e-05
2.660502562e-05
2.735080455e-05
2.794696874e-05
2.829678259e-05
2.453626583e-05
2.49591203e-05
2.556261808e-05
2.63024062e-05
2.712339055e-05
2.795865254e-05
2.872933467e-05
2.934528629e-05
2.970665604e-05
2.582041316e-05
2.625754389e-05
2.688133036e-05
2.764585106e-05
2.849410653e-05
2.935692543e-05
3.015286477e-05
3.078888247e-05
3.116196955e-05
2.71481908e-05
2.759980445e-05
2.82441716e-05
2.903377806e-05
2.990969056e-05
3.080045249e-05
3.162199942e-05
3.227835896e-05
3.266332313e-05
2.852021672e-05
2.898651787e-05
2.965175473e-05
3.046679658e-05
3.137074809e-05
3.228983523e-05
3.313733654e-05
3.381431087e-05
3.421131025e-05
2.993710214e-05
3.041829332e-05
3.1104686e-05
3.194550932e-05
3.287787797e-05
3.382566862e-05
3.469946756e-05
3.539732682e-05
3.580651791e-05
3.139945164e-05
3.189573332e-05
3.260356509e-05
3.347051248e-05
3.443167257e-05
3.54085412e-05
3.630897754e-05
3.702798911e-05
3.74495268e-05
3.290786326e-05
3.341943394e-05
3.41489852e-05
3.504239582e-05
3.603271788e-05
3.703903517e-05
3.796644523e-05
3.87068738e-05
3.91409114e-05
3.446292868e-05
3.498998485e-05
3.574153319e-05
3.66617428e-05
3.768159363e-05
3.871772653e-05
3.967244323e-05
4.043455078e-05
4.088124005e-05
3.606523325e-05
3.660796944e-05
3.738178971e-05
3.83291307e-05
3.937887342e-05
4.044518517e-05
4.142753807e-05
4.221158394e-05
4.26710751e-05
3.771535614e-05
3.827396496e-05
3.907032922e-05
4.004513066e-05
4.112512476e-05
4.222197495e-05
4.32322903e-05
4.40385312e-05
4.451097292e-05
3.941387043e-05
3.998854255e-05
4.080772019e-05
4.181030785e-05
4.29209092e-05
4.404865381e-05
4.508725452e-05
4.591594455e-05
4.640148402e-05
4.116134316e-05
4.175226737e-05
4.259452505e-05
4.362522143e-05
4.476678232e-05
4.592577372e-05
4.699297945e-05
4.784437012e-05
4.8343153e-05
4.295833539e-05
4.356569858e-05
4.443130031e-05
4.549042467e-05
4.666329379e-05
4.785388075e-05
4.895000788e-05
4.98243481e-05
5.033651853e-05
4.480540225e-05
4.542938941e-05
4.631859648e-05
4.740646482e-05
4.861098732e-05
4.9833515e-05
5.095887658e-05
5.185641264e-05
5.238211324e-05
4.670309301e-05
4.734388721e-05
4.825695822e-05
4.93738832e-05
5.061040057e-05
5.186521047e-05
5.302011621e-05
5.394109173e-05
5.448046355e-05
4.865195097e-05
4.930973336e-05
5.024692416e-05
5.139321512e-05
5.266206514e-05
5.394949497e-05
5.513425109e-05
5.607890689e-05
5.663208935e-05
5.065251347e-05
5.132746321e-05
5.228902682e-05
5.34649896e-05
5.476650617e-05
5.608688971e-05
5.730179878e-05
5.827037274e-05
5.883750353e-05
5.270531149e-05
5.339760568e-05
5.438379214e-05
5.558972896e-05
5.692424191e-05
5.827790874e-05
5.95232694e-05
6.051599626e-05
6.109721118e-05
5.481086938e-05
5.552068292e-05
5.653173914e-05
5.776794827e-05
5.913578302e-05
6.052305815e-05
6.179916476e-05
6.28162757e-05
6.341170845e-05
5.696970438e-05
5.769720977e-05
5.873337916e-05
6.000015456e-05
6.140163162e-05
6.282283492e-05
6.412997691e-05
6.517169913e-05
6.578148095e-05
5.91823258e-05
5.992769284e-05
6.098921491e-05
6.228684563e-05
6.372227986e-05
6.517772523e-05
6.651618634e-05
6.758274222e-05
6.82070015e-05
6.144923389e-05
6.221262929e-05
6.329973903e-05
6.462850833e-05
6.609820791e-05
6.758820215e-05
6.895825921e-05
7.00498654e-05
7.068872697e-05
6.377091834e-05
6.455250511e-05
6.566543204e-05
6.702561626e-05
6.85298813e-05
7.00547225e-05
7.145664384e-05
7.257350979e-05
7.322709406e-05
6.614785601e-05
6.694779267e-05
6.808675968e-05
6.947862659e-05
7.101774713e-05
7.257772251e-05
7.401176578e-05
7.515409188e-05
7.582251369e-05
6.858050806e-05
6.939894751e-05
7.056416917e-05
7.198797581e-05
7.356222922e-05
7.515761222e-05
7.662402146e-05
7.779199651e-05
7.84753635e-05
7.106931599e-05
7.190640406e-05
7.309808439e-05
7.455407414e-05
7.616372164e-05
7.779476805e-05
7.929376984e-05
8.048756774e-05
8.118597832e-05
7.361469646e-05
7.447056996e-05
7.568889952e-05
7.717729829e-05
7.882258035e-05
8.048952331e-05
8.202132176e-05
8.324109723e-05
8.395463792e-05
7.621703461e-05
7.709181878e-05
7.833697089e-05
7.985798217e-05
8.153911265e-05
8.324215618e-05
8.480692656e-05
8.605280969e-05
8.67815517e-05
7.887667553e-05
7.97704808e-05
8.104260667e-05
8.259640521e-05
8.431356387e-05
8.605287476e-05
8.765075544e-05
8.89228448e-05
8.966683984e-05
8.159391347e-05
8.250683135e-05
8.380605396e-05
8.53927779e-05
8.714610107e-05
8.892179869e-05
9.055288115e-05
9.185123538e-05
9.261051041e-05
8.436897856e-05
8.530107654e-05
8.662748307e-05
8.82472241e-05
9.003679318e-05
9.184893704e-05
9.351325368e-05
9.483788118e-05
9.561243213e-05
8.720202048e-05
8.815333574e-05
8.95069683e-05
9.11597598e-05
9.298558725e-05
9.483416201e-05
9.653167152e-05
9.788251816e-05
9.867230239e-05
9.009308888e-05
9.106362077e-05
9.24444652e-05
9.413026789e-05
9.599228065e-05
9.787717826e-05
9.96077483e-05
0.0001009846829
0.0001017896105
9.304211011e-05
9.403181111e-05
9.54397838e-05
9.715846893e-05
9.90564888e-05
0.0001009774877
0.0001027408748
0.0001041436726
0.0001049635959
9.604886004e-05
9.705762528e-05
9.849255771e-05
0.0001002438875
0.0001021776085
0.0001041343496
0.0001059301764
0.0001073584998
0.0001081932024
9.911293283e-05
0.000100140588
0.0001016022091
0.0001033858142
0.0001053547773
0.0001073467371
0.0001091744662
0.0001106278439
0.0001114770276
0.0001022337056
0.0001032799932
0.0001047679094
0.0001065832644
0.0001085868285
0.0001106132892
0.0001124721955
0.0001139499991
0.0001148132705
0.000105410299
0.0001064748633
0.0001079885366
0.000109834932
0.0001118722431
0.0001139322605
0.0001158214003
0.00011732282
0.0001181996756
0.0001086415347
0.0001097239051
0.0001112626292
0.000113139142
0.0001152090999
0.0001173014689
0.0001192196483
0.0001207436672
0.0001216334783
0.0001119258889
0.0001130254625
0.0001145883376
0.0001164938005
0.0001185950241
0.0001207182434
0.0001226639858
0.0001242093538
0.0001251113516
0.0001152614451
0.0001163774682
0.0001179633751
0.0001198963441
0.0001220271362
0.000124179373
0.0001261508868
0.0001277160953
0.0001286293562
0.0001186458445
0.0001197773944
0.000121384968
0.0001233436913
0.0001255020044
0.0001276810599
0.0001296762075
0.0001312594659
0.0001321828978
0.0001220762379
0.0001232222048
0.000124849809
0.0001268321966
0.0001290156
0.0001312188782
0.0001332351485
0.0001348343629
0.0001357666941
0.0001255492395
0.0001267083094
0.000128354014
0.0001303576099
0.0001325632612
0.0001347877411
0.0001368222265
0.0001384349831
0.0001393747527
0.0001290608847
0.0001302315248
0.0001318930846
0.0001339150439
0.0001361396654
0.00013838188
0.0001404312592
0.0001420548124
0.000143000365
0.0001326065946
0.000133787041
0.0001354618803
0.0001374989516
0.0001397388138
0.0001419948365
0.0001440553649
0.0001456866329
0.0001466361167
0.000136181149
0.0001373693986
0.0001390546006
0.0001411031161
0.0001433540296
0.0001456194701
0.0001476869804
0.0001493225475
0.000150273918
0.0001397786703
0.0001409724771
0.0001426647808
0.0001447206547
0.0001469779733
0.0001492479847
0.0001513178972
0.0001529540259
0.0001539050536
0.0001433926208
0.0001445894976
0.0001462853024
0.0001483440401
0.0001506026748
0.0001528719729
0.0001549393177
0.0001565719697
0.0001575202548
0.0001470158145
0.0001482130411
0.00014990842
0.0001519651386
0.0001542195846
0.0001564824804
0.0001585419322
0.0001601667992
0.0001611097905
0.0001506404455
0.0001518350833
0.0001535258066
0.0001555752662
0.0001578196429