/*--------------------------------*- C++ -*----------------------------------*\
| =========                 |                                                 |
| \\      /  F ield         | OpenFOAM: The Open Source CFD Toolbox           |
|  \\    /   O peration     | Version:  2212                                  |
|   \\  /    A nd           | Website:  www.openfoam.com                      |
|    \\/     M anipulation  |                                                 |
\*---------------------------------------------------------------------------*/
FoamFile
{
    version     2.0;
    format      ascii;
    arch        "LSB;label=32;scalar=64";
    class       volScalarField;
    location    "20.00000000";
    object      CH2CO_0;
}
// * * * * * * * * * * * * * * * * * * * * * * * * * * * * * * * * * * * * * //

dimensions      [0 0 0 0 0 0 0];

internalField   nonuniform List<scalar> 
3000
(
1.767156583e-28
2.192026157e-28
2.871335463e-28
3.845608796e-28
5.156415564e-28
6.818796859e-28
8.768436903e-28
1.077243819e-27
1.23006546e-27
7.447053965e-28
9.30571633e-28
1.227730761e-27
1.654783295e-27
2.234092967e-27
2.98797789e-27
3.930672409e-27
5.045473601e-27
6.139763657e-27
1.918978402e-27
2.428309189e-27
3.251271633e-27
4.457010998e-27
6.144665611e-27
8.443697709e-27
1.148791094e-26
1.529387119e-26
1.903344495e-26
4.193196211e-27
5.39292282e-27
7.369431086e-27
1.035321695e-26
1.469517244e-26
2.087203109e-26
2.937976041e-26
4.01816567e-26
5.038242778e-26
8.52722611e-27
1.11863514e-26
1.567420559e-26
2.266810336e-26
3.321078831e-26
4.870548819e-26
7.044387904e-26
9.769831214e-26
1.221871415e-25
1.67948842e-26
2.251584104e-26
3.241304189e-26
4.829424856e-26
7.293047536e-26
1.099121708e-25
1.620588929e-25
2.261130887e-25
2.812726265e-25
3.274826335e-26
4.488689941e-26
6.636619649e-26
1.016899794e-25
1.576722707e-25
2.427539394e-25
3.625110615e-25
5.067553631e-25
6.262168314e-25
6.391186499e-26
8.946832822e-26
1.355735139e-25
2.128978091e-25
3.373480558e-25
5.278594017e-25
7.952424084e-25
1.113740612e-24
1.377284167e-24
1.255014742e-25
1.7906841e-25
2.772404518e-25
4.443635611e-25
7.161447771e-25
1.133426078e-24
1.715838577e-24
2.400426846e-24
2.955252012e-24
2.483777701e-25
3.603073641e-25
5.680262206e-25
9.256207513e-25
1.51124122e-24
2.411307939e-24
3.661232284e-24
5.116478424e-24
6.283175419e-24
4.953607493e-25
7.287025509e-25
1.166012001e-24
1.925181855e-24
3.174387526e-24
5.094579952e-24
7.749993462e-24
1.082005162e-23
1.3263006e-23
9.945898001e-25
1.480106328e-24
2.397023723e-24
3.998816951e-24
6.643245167e-24
1.070691278e-23
1.630739934e-23
2.274823537e-23
2.78450141e-23
2.007908914e-24
3.016457815e-24
4.932579857e-24
8.295822989e-24
1.386112012e-23
2.240943545e-23
3.415831968e-23
4.761537732e-23
5.821955663e-23
4.07103596e-24
6.163009785e-24
1.015622461e-23
1.719069069e-23
2.885030925e-23
4.675097567e-23
7.129964132e-23
9.932849756e-23
1.213435372e-22
8.281087666e-24
1.261480032e-23
2.091785759e-23
3.558560512e-23
5.992715178e-23
9.728097364e-23
1.484161452e-22
2.066542016e-22
2.522789647e-22
1.688650434e-23
2.585414801e-23
4.308627465e-23
7.359448748e-23
1.242701457e-22
2.020029947e-22
3.082592522e-22
4.290287066e-22
5.234427049e-22
3.44977539e-23
5.303627261e-23
8.874409098e-23
1.520717358e-22
2.573347664e-22
4.187385825e-22
6.390984134e-22
8.891334816e-22
1.084260751e-21
7.057223558e-23
1.088639867e-22
1.827600549e-22
3.139945674e-22
5.322447631e-22
8.667738696e-22
1.323015208e-21
1.839949465e-21
2.242755918e-21
1.445141948e-22
2.235481897e-22
3.763041572e-22
6.478838119e-22
1.099703047e-21
1.791989139e-21
2.735259157e-21
3.802641187e-21
4.633248526e-21
2.961392324e-22
4.591566768e-22
7.746255546e-22
1.335964196e-21
2.270071752e-21
3.700776402e-21
5.64844362e-21
7.849757385e-21
9.560604667e-21
6.071380116e-22
9.431740534e-22
1.594109498e-21
2.753118294e-21
4.682013594e-21
7.63508631e-21
1.165166708e-20
1.618606301e-20
1.970581463e-20
1.245070558e-21
1.937339439e-21
3.279374812e-21
5.670010954e-21
9.648599087e-21
1.573658596e-20
2.400947558e-20
3.333775883e-20
4.05694287e-20
2.553470004e-21
3.978734368e-21
6.743393114e-21
1.166965759e-20
1.986685542e-20
3.240223008e-20
4.941906372e-20
6.858220483e-20
8.341772973e-20
5.23608343e-21
8.168407392e-21
1.385878854e-20
2.399959764e-20
4.086859942e-20
6.664559787e-20
1.015970499e-19
1.408997853e-19
1.712793978e-19
1.073310834e-20
1.676109649e-20
2.846190448e-20
4.931305405e-20
8.398234648e-20
1.369104808e-19
2.08579001e-19
2.89034037e-19
3.511105465e-19
2.198809464e-20
3.436793136e-20
5.84008212e-20
1.012188792e-19
1.72365477e-19
2.808569308e-19
4.275260533e-19
5.918530452e-19
7.183742181e-19
4.500710818e-20
7.040239701e-20
1.196998527e-19
2.074948485e-19
3.532456351e-19
5.751855248e-19
8.746475821e-19
1.209384538e-18
1.466468317e-18
9.201996606e-20
1.440409701e-19
2.450033809e-19
4.246992448e-19
7.226745047e-19
1.175624481e-18
1.785380916e-18
2.465091193e-18
2.985589059e-18
1.878683693e-19
2.942487703e-19
5.006330685e-19
8.676505067e-19
1.475366005e-18
2.397206335e-18
3.634778361e-18
5.009862695e-18
6.059238549e-18
3.82866448e-19
5.999622904e-19
1.020900238e-18
1.768632278e-18
3.004532065e-18
4.874526033e-18
7.376865589e-18
1.014671841e-17
1.22520801e-17
7.785818497e-19
1.220538175e-18
2.076799231e-18
3.59568087e-18
6.100736746e-18
9.87966363e-18
1.491726422e-17
2.046894166e-17
2.466952109e-17
1.579276152e-18
2.476415133e-18
4.212796122e-18
7.287538758e-18
1.234544466e-17
1.994845791e-17
3.00392783e-17
4.110396345e-17
4.943267741e-17
3.194018255e-18
5.009089675e-18
8.517606837e-18
1.471733478e-17
2.488438826e-17
4.010468156e-17
6.020339338e-17
8.211657567e-17
9.851635347e-17
6.438273156e-18
1.009651523e-17
1.715676033e-17
2.960121488e-17
4.993562114e-17
8.023290033e-17
1.200125389e-16
1.631082438e-16
1.951568978e-16
1.292954671e-17
2.027098145e-17
3.441277486e-17
5.926538624e-17
9.970583945e-17
1.59636691e-16
2.378215931e-16
3.219322749e-16
3.840533795e-16
2.585912807e-17
4.052143638e-17
6.87017892e-17
1.180547608e-16
1.979804536e-16
3.157122355e-16
4.68218828e-16
6.310391471e-16
7.504120487e-16
5.14878561e-17
8.061661735e-17
1.364529368e-16
2.338523131e-16
3.907400034e-16
6.202908801e-16
9.153550029e-16
1.227812917e-15
1.455129058e-15
1.020261688e-16
1.595610964e-16
2.69510773e-16
4.604376488e-16
7.661301372e-16
1.210121561e-15
1.776095765e-15
2.370286003e-15
2.799110543e-15
2.011424859e-16
3.140785403e-16
5.291426894e-16
9.007017032e-16
1.491660297e-15
2.343148752e-15
3.419014401e-15
4.538404261e-15
5.339657023e-15
3.944272583e-16
6.146387575e-16
1.03231984e-15
1.749850744e-15
2.882814346e-15
4.501360625e-15
6.527514054e-15
8.616222078e-15
1.009896151e-14
7.691356939e-16
1.19550371e-15
2.00060309e-15
3.375064377e-15
5.528360417e-15
8.576865534e-15
1.235656069e-14
1.621650767e-14
1.893405717e-14
1.491182423e-15
2.310619618e-15
3.850296541e-15
6.461008206e-15
1.051701103e-14
1.620527325e-14
2.318879831e-14
3.025368312e-14
3.518726807e-14
2.873990296e-15
4.436786454e-15
7.357287472e-15
1.227322415e-14
1.984355937e-14
3.035740103e-14
4.313749153e-14
5.594617016e-14
6.482004791e-14
5.505747939e-15
8.46263667e-15
1.395591245e-14
2.313065424e-14
3.713002485e-14
5.638010165e-14
7.954783642e-14
1.02555461e-13
1.183735861e-13
1.048302684e-14
1.603217008e-14
2.627636276e-14
4.324606459e-14
6.889506952e-14
1.038116692e-13
1.454227873e-13
1.86380113e-13
2.143337196e-13
1.983673323e-14
3.016457988e-14
4.910327522e-14
8.020846515e-14
1.267701934e-13
1.895231711e-13
2.635907725e-13
3.358732578e-13
3.848660099e-13
3.730344859e-14
5.636434399e-14
9.107231918e-14
1.475772917e-13
2.313388715e-13
3.431138165e-13
4.73815848e-13
6.003315909e-13
6.855278487e-13
6.971266774e-14
1.045949585e-13
1.676503736e-13
2.693879541e-13
4.187385532e-13
6.161134583e-13
8.448484972e-13
1.064557381e-12
1.211617942e-12
1.294645517e-13
1.927631738e-13
3.063323722e-13
4.879208602e-13
7.519355805e-13
1.097576587e-12
1.494725685e-12
1.873457351e-12
2.125547403e-12
2.389248187e-13
3.528264857e-13
5.55639868e-13
8.770059119e-13
1.339854802e-12
1.940344941e-12
2.624771098e-12
3.273090145e-12
3.702424836e-12
4.381658498e-13
6.414247273e-13
1.000596222e-12
1.564656566e-12
2.369633266e-12
3.405019151e-12
4.576231237e-12
5.678811002e-12
6.405600527e-12
7.985063608e-13
1.158260716e-12
1.789164238e-12
2.771331984e-12
4.16067486e-12
5.933166106e-12
7.924120723e-12
9.787842293e-12
1.101126613e-11
1.446027279e-12
2.077665641e-12
3.17712585e-12
4.874224682e-12
7.254702792e-12
1.026850859e-11
1.363190568e-11
1.676429803e-11
1.881302881e-11
2.602123745e-12
3.702443054e-12
5.603811978e-12
8.514674566e-12
1.256488136e-11
1.765611296e-11
2.330475333e-11
2.854189715e-11
3.195634314e-11
4.652939281e-12
6.555053931e-12
9.818235332e-12
1.477456818e-11
2.161946631e-11
3.016807559e-11
3.960320833e-11
4.831670474e-11
5.398224829e-11
8.265457781e-12
1.152811415e-11
1.708682828e-11
2.546730166e-11
3.696134178e-11
5.123232056e-11
6.691076684e-11
8.13416257e-11
9.07043843e-11
1.458240314e-11
2.013590489e-11
2.953608964e-11
4.361028365e-11
6.279133027e-11
8.648135963e-11
1.124034808e-10
1.361973847e-10
1.516110618e-10
2.554510161e-11
3.492607515e-11
5.070805356e-11
7.418591112e-11
1.059977649e-10
1.451032107e-10
1.877457554e-10
2.268030476e-10
2.520799709e-10
4.442194766e-11
6.014785497e-11
8.645358076e-11
1.253548879e-10
1.777865311e-10
2.419684171e-10
3.117494736e-10
3.755574479e-10
4.168287386e-10
7.666444839e-11
1.028252589e-10
1.463539689e-10
2.103710459e-10
2.962354085e-10
4.009444596e-10
5.14497362e-10
6.181862811e-10
6.85217444e-10
1.312786831e-10
1.744623861e-10
2.459597983e-10
3.505722538e-10
4.902563814e-10
6.60007227e-10
8.436650299e-10
1.011131187e-09
1.11930003e-09
2.229979728e-10
2.937236761e-10
4.102794283e-10
5.80003706e-10
8.056785088e-10
1.079036934e-09
1.374099241e-09
1.642681895e-09
1.815922387e-09
3.756855377e-10
4.90599635e-10
6.791555336e-10
9.524872346e-10
1.31447957e-09
1.751558733e-09
2.222138905e-09
2.649540735e-09
2.924700671e-09
6.276017132e-10
8.128077228e-10
1.115457504e-09
1.55230179e-09
2.128610369e-09
2.82216875e-09
3.566715687e-09
4.241138229e-09
4.674384358e-09
1.039462509e-09
1.335512021e-09
1.817409384e-09
2.510096307e-09
3.420377866e-09
4.51198052e-09
5.679960506e-09
6.734794832e-09
7.410915732e-09
1.7066189e-09
2.175890919e-09
2.9368726e-09
4.026213457e-09
5.451973622e-09
7.155134081e-09
8.97086769e-09
1.060571599e-08
1.165142145e-08
2.777205251e-09
3.514633643e-09
4.705993019e-09
6.404235375e-09
8.617426383e-09
1.125021615e-08
1.404646931e-08
1.655673919e-08
1.815933387e-08
4.478712694e-09
5.627066642e-09
7.475254973e-09
1.009821841e-08
1.350099221e-08
1.753128095e-08
2.179582044e-08
2.561359607e-08
2.804668807e-08
7.15606876e-09
8.927220985e-09
1.176658202e-08
1.577771565e-08
2.095672165e-08
2.706388068e-08
3.350271908e-08
3.925201306e-08
4.29101469e-08
1.132483169e-08
1.402865149e-08
1.834563181e-08
2.441526475e-08
3.221451405e-08
4.137188208e-08
5.099325976e-08
5.956297358e-08
6.500717255e-08
1.774346336e-08
2.182619123e-08
2.831786477e-08
3.740143778e-08
4.901810899e-08
6.260061708e-08
7.682376007e-08
8.946156922e-08
9.747763627e-08
2.750893645e-08
3.360316252e-08
4.325325982e-08
5.669250703e-08
7.379987622e-08
9.372082819e-08
1.145129784e-07
1.329427298e-07
1.446136799e-07
4.218026958e-08
5.116877317e-08
6.534434615e-08
8.499489644e-08
1.098957188e-07
1.387756395e-07
1.688195403e-07
1.953834356e-07
2.121765179e-07
6.393460503e-08
7.702997624e-08
9.760103494e-08
1.259886391e-07
1.618007008e-07
2.03169175e-07
2.460609347e-07
2.838856186e-07
3.077529601e-07
9.575940096e-08
1.146004184e-07
1.440833685e-07
1.845889604e-07
2.354619865e-07
2.939903216e-07
3.54464247e-07
4.076468971e-07
4.411368552e-07
1.416818962e-07
1.684462137e-07
2.101698174e-07
2.672408013e-07
3.38600309e-07
4.203586716e-07
5.045312841e-07
5.783379588e-07
6.247118765e-07
2.070334899e-07
2.445643709e-07
3.028542082e-07
3.822356458e-07
4.810447065e-07
5.937721803e-07
7.093924454e-07
8.104565604e-07
8.738029739e-07
2.987422843e-07
3.506848717e-07
4.31058861e-07
5.40033658e-07
6.750581791e-07
8.284283962e-07
9.851156446e-07
1.121619964e-06
1.206955713e-06
4.256418332e-07
4.965817865e-07
6.059453275e-07
7.535676311e-07
9.356250598e-07
1.141484277e-06
1.3509301e-06
1.532751696e-06
1.646097261e-06
5.987783188e-07
6.943727698e-07
8.411981715e-07
1.038499209e-06
1.280665388e-06
1.553215016e-06
1.829321486e-06
2.068116548e-06
2.216531771e-06
8.316925874e-07
9.587808481e-07
1.15325197e-06
1.413393599e-06
1.731138724e-06
2.087031402e-06
2.445956366e-06
2.755161374e-06
2.946728003e-06
1.140648671e-06
1.307327959e-06
1.561428601e-06
1.899777594e-06
2.311000929e-06
2.769319415e-06
3.229401262e-06
3.624129611e-06
3.867869246e-06
1.544777091e-06
1.760427774e-06
2.08795178e-06
2.522048355e-06
3.046983488e-06
3.629075715e-06
4.210615728e-06
4.707434858e-06
5.013155047e-06
2.066100987e-06
2.34134663e-06
2.757809684e-06
3.307207648e-06
3.968176346e-06
4.697328544e-06
5.422218804e-06
6.038802208e-06
6.416869523e-06
2.729416386e-06
3.076006724e-06
3.598444789e-06
4.284408346e-06
5.105411536e-06
6.006354105e-06
6.897552486e-06
7.652212928e-06
8.113259299e-06
3.562005355e-06
3.992615271e-06
4.63926262e-06
5.484316111e-06
6.490464657e-06
7.588721429e-06
8.669591148e-06
9.58071475e-06
1.013529128e-05
4.593172271e-06
5.121116723e-06
5.910967033e-06
6.938307714e-06
8.155112053e-06
9.476220967e-06
1.076976839e-05
1.185518202e-05
1.251338169e-05
5.853608208e-06
6.492481243e-06
7.44474717e-06
8.677546095e-06
1.013010031e-05
1.169874986e-05
1.322680834e-05
1.450312288e-05
1.527419892e-05
7.374605117e-06
8.137859588e-06
9.271358139e-06
1.073198814e-05
1.244409836e-05
1.428323676e-05
1.60656538e-05
1.754763167e-05
1.843964044e-05
9.187157903e-06
1.008765016e-05
1.142015125e-05
1.312939181e-05
1.512270827e-05
1.725268908e-05
1.930657717e-05
2.100657211e-05
2.202606833e-05
1.132100649e-05
1.23705358e-05
1.391811795e-05
1.589439242e-05
1.818760772e-05
2.062543483e-05
2.296454177e-05
2.489205316e-05
2.604386023e-05
1.380367923e-05
1.501255423e-05
1.678901314e-05
1.904771321e-05
2.165588481e-05
2.441461133e-05
2.704885513e-05
2.92102274e-05
3.049729793e-05
1.665960191e-05
1.803626509e-05
2.005261737e-05
2.260556264e-05
2.553960659e-05
2.862792758e-05
3.156312404e-05
3.396140721e-05
3.538477968e-05
1.990933261e-05
2.146006899e-05
2.372418494e-05
2.657925292e-05
2.984563928e-05
3.326769893e-05
3.650549133e-05
3.91404627e-05
4.069931069e-05
2.356897161e-05
2.52977201e-05
2.781410718e-05
3.097505272e-05
3.457571371e-05
3.833112748e-05
4.186910894e-05
4.473744134e-05
4.642920365e-05
2.764977969e-05
2.955805574e-05
3.232780026e-05
3.5794266e-05
3.972670888e-05
4.38107822e-05
4.764278507e-05
5.073833575e-05
5.255890985e-05
3.215801863e-05
3.424494689e-05
3.726580759e-05
4.103351028e-05
4.529111019e-05
4.969522054e-05
5.381173622e-05
5.712592344e-05
5.906990168e-05
3.709500875e-05
3.935745506e-05
4.262408965e-05
4.66851546e-05
5.125759033e-05
5.596969035e-05
6.03583771e-05
6.388060905e-05
6.594153659e-05
4.24573803e-05
4.489016545e-05
4.839446281e-05
5.273786946e-05
5.761165886e-05
6.261685445e-05
6.726309039e-05
7.098121302e-05
7.315184874e-05
4.823748305e-05
5.083365605e-05
5.456514165e-05
5.917724018e-05
6.433633044e-05
6.961748968e-05
7.450493242e-05
7.840566745e-05
8.06782323e-05
5.442390987e-05
5.717505728e-05
6.112133872e-05
6.59863983e-05
7.141277002e-05
7.695112452e-05
8.206224585e-05
8.613159709e-05
8.849799887e-05
6.100208844e-05
6.389865719e-05
6.804587927e-05
7.314663329e-05
7.882088394e-05
8.459659253e-05
8.991316509e-05
9.413677839e-05
9.658880611e-05
6.795489733e-05
7.098651163e-05
7.531979544e-05
8.063795622e-05
8.653983713e-05
9.253249095e-05
9.803601263e-05
0.0001023994815
0.0001049289665
7.526326961e-05
7.841902677e-05
8.292287369e-05
8.843959679e-05
9.454848689e-05
0.0001007375439
0.0001064095932
0.0001108987079
0.000113497652
8.29067553e-05
8.617549014e-05
9.083413804e-05
9.653042473e-05
0.0001028257322
0.0001091908765
0.000115013399
0.0001196143414
0.000122275014
9.086402357e-05
9.42345355e-05
9.903226101e-05
0.0001048892938
0.000111350784
0.000117872212
0.0001238277411
0.0001285272304
0.000131242239
9.911329469e-05
0.0001025745354
0.0001074959008
0.0001134953127
0.0001201033655
0.0001267620042
0.0001328338243
0.0001376192201
0.0001403815572
0.0001076326988
0.000111173922
0.0001162039689
0.0001223280515
0.0001290638548
0.0001358415205
0.0001420137804
0.0001468731506
0.0001496762235
0.0001164005647
0.0001200114399
0.0001251358363
0.0001313676927
0.0001382133812
0.0001450928884
0.0001513506748
0.0001562728359
0.0001591104817
0.0001253956452
0.0001290663416
0.0001342714857
0.0001405951378
0.0001475338859
0.0001544991165
0.0001608284972
0.0001658030363
0.0001686695312
0.0001345972871
0.0001383185303
0.000143591621
0.0001499920775
0.0001570081537
0.0001640440929
0.0001704321364
0.0001754494249
0.0001783395142
0.0001439855555
0.0001477486625
0.0001530777395
0.0001595410303
0.0001666198183
0.0001737125557
0.0001801473064
0.0001851984371
0.0001881071937
0.0001535413207
0.0001573382169
0.0001627121773
0.0001692253637
0.0001763533603
0.0001834900775
0.0001899605472
0.0001950373674
0.0001979602659
0.0001632463156
0.0001670695377
0.0001724781352
0.0001790292997
0.0001861940932
0.0001933630287
0.0001998591375
0.0002049541269
0.0002078870793
0.0001730831714
0.0001769258602
0.0001823596906
0.0001889379139
0.0001961281548
0.0002033185781
0.0002098311641
0.0002149374612
0.0002178767142
0.0001830354365
0.0001868913215
0.0001923417977
0.0001989371239
0.0002061424771
0.0002133446171
0.0002198653
0.0002249767359
0.0002279188908
0.0001930875825
0.0001969509614
0.0002024102837
0.0002090136838
0.0002162247952
0.000223429832
0.0002299510198
0.0002350619884
0.0002380039625
0.0002032250001
0.0002070907138
0.0002125518328
0.0002191551567
0.0002263635878
0.0002335634858
0.0002400783996
0.000245183861
0.0002481228747
0.0002134339871
0.0002172973913
0.0002227539663
0.0002293498857
0.0002365479728
0.0002437355966
0.0002502381528
0.0002553335871
0.0002582671428
0.0002237017297
0.0002275586638
0.0002330050147
0.0002395868867
0.0002467678537
0.0002539368311
0.0002604215987
0.0002655029684
0.0002684288295
0.000234016278
0.0002378630283
0.0002432940063
0.0002498559903
0.0002570138127
0.0002641584834
0.0002706206374
0.0002756843509
0.0002786005225
0.0002443665095
0.0002481996937
0.0002536108086
0.0002601477357
0.000267277088
0.0002743924502
0.0002808277253
0.0002858706029
0.0002887753132
0.0002547419863
0.0002585587162
0.0002639460198
0.0002704533455
0.0002775495473
0.0002846312056
0.0002910358517
0.0002960550925
0.0002989467751
0.0002651331657
0.0002689309062
0.0002742909454
0.0002807646979
0.0002878236609
0.0002948677768
0.000301238516
0.0003062316665
0.0003091089433
0.0002755312483
0.0002793077927
0.0002846375664
0.0002910742978
0.0002980924753
0.0003050957188
0.000311429705
0.0003163946293
0.0003192562951
0.0002859281444
0.0002896815872
0.0002949785075
0.0003013752473
0.0003083495859
0.0003153090906
0.0003216038708
0.0003265387224
0.0003293837295
0.0002963164387
0.0003000451493
0.0003053070038
0.0003116612157
0.0003185891102
0.0003255024302
0.0003317559084
0.000336659104
0.0003394865486
0.0003066893543
0.0003103919516
0.0003156168685
0.0003219264091
0.0003288056601
0.0003356707304
0.000341881134
0.0003467513289
0.0003495604378
0.0003170407171
0.0003207160453
0.0003259024606
0.0003321655416
0.0003389943158
0.000345809415
0.0003519752633
0.0003568113288
0.0003596014471
0.0003273649196
0.0003310120264
0.0003361586531
0.0003423738053
0.0003491505988
0.0003559143149
0.0003620343903
0.0003668353923
0.0003696059726
0.0003376568867
0.0003412750021
0.0003463808016
0.0003525468426
0.0003592704467
0.0003659816451
0.0003720549662
0.0003768201461
0.0003795707378
0.0003479120413
0.0003515005581
0.0003565647144
0.0003626807177
0.0003693501881
0.0003760079825
0.0003820337796
0.0003867625363
0.0003894927761
0.0003581262711
0.0003616847278
0.0003667066226
0.0003727718899
0.0003793865178
0.0003859902434
0.000391967936
0.0003966598095
0.0003993694129
0.000368295897
0.0003718239611
0.0003768031522
0.0003828171879
0.0003893764738
0.0003959256629
0.0004018548391
0.0004065094957
0.0004091982487
0.0003784176425
0.0003819150956
0.0003868512964
0.0003928137846
0.0003993174141
0.0004058117739
0.0004116921717
0.0004163093902
0.000418977142
0.0003884886043
0.000391955329
0.00039684839
0.0004027591729
0.0004092069957
0.0004156463878
0.0004214778782
0.0004260575375
0.0004287041937
0.0003985062247
0.0004019421919
0.0004067920845
0.0004126511434
0.0004190431529
0.0004254275754
0.0004312101467
0.0004357522145
0.0004383777313
0.0004084682652
0.0004118735231
0.0004166803241
0.0004224877623
0.0004288240784
0.0004351536489
0.0004408873929
0.0004453919154
0.0004479962937
0.0004183727814
0.0004217474457
0.0004265113238
0.0004322673509
0.0004385482035
0.0004448231445
0.0004505082437
0.0004549753365
0.0004575586171
0.0004282180998
0.0004315623447
0.0004362835483
0.0004419884659
0.0004482141811
0.000454434806
0.0004600715223
0.0004645013619
0.0004670636206
0.0004380027955
0.0004413168455
0.0004459956919
0.0004516498814
0.0004578208678
0.0004639875693
0.0004695762339
0.00047396905
0.0004765103936
0.0004477256718
0.0004510097944
0.0004556466598
0.0004612505709
0.0004673673085
0.0004734805477
0.0004790215515
0.0004833776201
0.0004858981829
0.0004573857404
0.0004606402401
0.0004652355509
0.0004707896915
0.0004768527213
0.0004829130175
0.0004884068031
0.0004927264407
0.0004952263804
0.0004669822039
0.000470207416
0.0004747616409
0.0004802665684
0.0004862764828
0.0004922844054
0.0004977314594
0.000502015017
0.0005044945123
0.0004765144384
0.0004797107241
0.0004842243674
0.0004896806803
0.0004956381152
0.0005015942754
0.000506995122
0.0005112429805
0.0005137022278
0.0004859819783
0.0004891497202
0.0004936233155
0.0004990316463
0.0005049372738
0.0005108423178
0.0005161975128
0.0005204100781
0.0005228492892
0.0004953845012
0.0004985240993
0.000502958204
0.0005083192134
0.0005141737348
0.0005200283379
0.000525338463
0.0005295161624
0.0005319355622
0.0005047218152
0.0005078336832
0.0005122288737
0.0005175432446
0.000523347385
0.0005291522458
0.0005344179042
0.0005385611826
0.000540961007
0.0005139938456
0.0005170784081
0.0005214352756
0.0005267037082
0.0005324582113
0.0005382140468
0.0005434358591
0.0005475451755
0.0005499256698
0.0005232006238
0.0005262583133
0.00053057746
0.0005358006675
0.0005415062911
0.0005472138326
0.0005523924325
0.0005564682577
0.0005588296746
0.0005323422765
0.0005353735311
0.0005396555669
0.0005448342718
0.0005504917836
0.0005561517727
0.0005612878044
0.0005653306179
0.0005676732162
0.000541419016
0.0005444242772
0.0005486698169
0.0005538047474
0.0005594149219
0.0005650281072
0.0005701222218
0.0005741325098
0.0005764565529
0.0005504311308
0.0005534108419
0.0005576205025
0.00056271239
0.0005682760048
0.0005738431392
0.0005788959922
0.0005828742455
0.0005851800006
0.0005593789776
0.0005623335818
0.0005665079808
0.0005715575567
0.0005770753905
0.0005825972279
0.0005876094773
0.0005915561896
0.0005938439261
0.0005682629736
0.0005711929129
0.0005753326655
0.0005803406597
0.0005858134896
0.0005912907833
0.0005962630871
0.000600178753
0.0006024487421
0.0005770835892
0.0005799893029
0.0005840950215
0.0005890621598
0.0005944907592
0.0005999242597
0.0006048572743
0.0006087423885
0.0006109949019
0.0005858413418
0.0005887232658
0.0005927955577
0.0005977225607
0.0006031076977
0.0006084981508
0.0006133925294
0.0006172475851
0.0006194828946
0.0005945367899
0.0005973953557
0.0006014348221
0.0006063224034
0.0006116648392
0.0006170129847
0.0006218693762
0.000625694864
0.0006279132405
0.0006031705275
0.0006060061615
0.0006100133967
0.0006148622619
0.0006201627495
0.0006254693198
0.0006302883672
0.0006340847741
0.0006362864873
0.0006117431795
0.0006145563022
0.0006185318926
0.0006233427381
0.0006286020211
0.0006338677402
0.0006386500799
0.0006424178886
0.0006446032064
0.0006202553969
0.0006230464226
0.0006269909458
0.0006317644581
0.0006369832699
0.0006422088522
0.0006469551128
0.0006506948009
0.0006528639891
0.0006287078527
0.0006314771888
0.0006353912134
0.0006401280681
0.0006453071309
0.0006504932807
0.0006552040824
0.0006589161219
0.0006610694432
0.0006371012384
0.0006398492853
0.0006437333699
0.0006484342312
0.0006535742556
0.0006587216659
0.0006633976198
0.0006670824762
0.0006692201905
0.0006454362601
0.0006481634107
0.0006520181037
0.000656683624
0.0006617853079
0.0006668946603
0.0006715363678
0.0006751944996
0.0006773168632
0.0006537136355
0.0006564202752
0.0006602461143
0.0006648769334
0.0006699409619
0.0006750129255
0.0006796209774
0.0006832528358
0.0006853601012
0.0006619340908
0.0006646205967
0.0006684181088
0.0006730148537
0.0006780418982
0.0006830771291
0.0006876521054
0.0006912581335
0.0006933505491
0.0006700983576
0.0006727650989
0.0006765347993
0.0006810980835
0.0006860888012
0.0006910879421
0.0006956304107
0.0006992110429
0.0007012888525
0.0006782071707
0.0006808545077
0.0006845968999
0.0006891273228
0.0006940823558
0.0006990460346
0.0007035565511
0.0007071122124
0.0007091756547
0.0006862612643
0.0006888895488
0.0006926051237
0.0006971032698
0.0007020232444
0.0007069520736
0.0007114311795
0.0007149622843
0.0007170115919
0.0006942613697
0.0006968709439
0.0007005601793
0.0007050266172
0.0007099121424
0.0007148067172
0.0007192549387
0.0007227618893
0.0007247972885
0.0007022082108
0.0007047994067
0.0007084627661
0.0007128980471
0.0007177497128
0.0007226106091
0.0007270284549
0.0007305116401
0.0007325333488
0.0007101024997
0.0007126756383
0.0007163135694
0.0007207182254
0.0007255365999
0.0007303643718
0.0007347523299
0.0007382121219
0.0007402203486
0.0007179449316
0.0007205003214
0.0007241132539
0.0007284877946
0.000733273421
0.0007380685963
0.0007424271303
0.000745863881
0.0007478588224
0.0007257361777
0.0007282741128
0.0007318624553
0.0007362073639
0.0007409607554
0.0007457238301
0.0007500533732
0.0007534674095
0.0007554492467
0.0007334768761
0.0007359976333
0.0007395617694
0.000743877497
0.0007485991297
0.0007533305606
0.0007576315075
0.0007610231243
0.0007629920191
0.0007411676204
0.0007436714552
0.0007472117373
0.0007514986957
0.0007561889992
0.0007608891931
0.0007651618899
0.0007685313409
0.0007704874298
0.0007488089438
0.0007512960857
0.0007548128274
0.0007590713781
0.0007637307235
0.0007684000235
0.0007726447538
0.0007759922394
0.0007779356261
0.0007564012997
0.0007588719451
0.0007623654108
0.0007665958519
0.0007712245351
0.0007758632024
0.0007800801687
0.0007834058205
0.0007853365661
0.0007639450365
0.0007663993397
0.000769869731
0.0007740722794
0.0007786705
0.0007832786908
0.0007874679914
0.0007907718521
0.0007926899626
0.0007714403652
0.0007738784267
0.0007773258656
0.0007815006342
0.0007860684684
0.0007906462042
0.0007948078041
0.0007980898024
0.0007999952132
0.0007788873198
0.000781309172
0.0007847336785
0.000788880648
0.0007934180155
0.0007979651464
0.0008020988407
0.0008053587606
0.0008072513174
0.0007862857082
0.0007886912971
0.0007920927622
0.0007962117464
0.0008007183686
0.0008052345284
0.0008093398987
0.0008125773421
0.0008144567783
0.0007936350527
0.0007960242157
0.0007994023693
0.0008034929724
0.000807968323
0.000812452876
0.0008165292375
0.0008197435804
0.00082160949
0.0008009345198
0.0008033069597
0.0008066613305
0.0008107228972
0.0008151661437
0.0008196181216
0.0008236644629
0.0008268548044
0.0008287066107
0.0008081828384
0.0008105380914
0.000813867962
0.0008178995194
0.0008223094554
0.0008267274856
0.0008307423988
0.0008339075032
0.0008357444248
0.0008153782051
0.0008177156062
0.0008210199605
0.0008250201515
0.0008293951208
0.0008337773457
0.0008377589496
0.0008408971838
0.0008427181958
0.0008225181801
0.0008248368225
0.0008281142873
0.0008320812977
0.0008364191101
0.0008407630999
0.0008447089574
0.0008478182224
0.0008496220169
0.0008295995723
0.0008318982635
0.0008351470457
0.0008390785248
0.0008433763674
0.0008476790272
0.0008515860587
0.0008546637209
0.0008564486655
0.0008366183176
0.0008388955336
0.0008421133527
0.0008460063315
0.0008502606762
0.0008545181529
0.0008583825506
0.0008614253731
0.0008631894719
0.0008435693542
0.0008458231915
0.000849007213
0.0008528580213
0.0008570645354
0.0008612721273
0.0008650892737
0.0008680933537
0.0008698342115
0.0008504464999
0.0008526746298
0.0008558213994
0.0008596255885
0.0008637790507
0.0008679311271
0.0008716955253
0.0008746562422
0.0008763710363
0.0008572423384
0.0008594419639
0.0008625473496
0.0008662996245
0.0008703938555
0.0008744837923
0.0008781890142
0.0008811009941
0.0008827864569
0.0008639481214
0.0008661159429
0.0008691750881
0.000872869256
0.0008768970702
0.0008809172111
0.0008845558715
0.0008874129754
0.0008890653921
0.0008705536984
0.0008726858893
0.0008756931841
0.0008793221273
0.0008832753138
0.000887216965
0.0008907807312
0.0008935760732
0.0008951912983
0.000877047482
0.0008791396812
0.0008820887567
0.0008856444372
0.00088951378
0.0008933672483
0.0008968468919
0.000899572895
0.0009011463921
0.0008834164615
0.000885463785
0.000888347539
0.0008918210422
0.0008955963877
0.0008993510701
0.0009027365709
0.0009053850657
0.0009069119734
0.0008896462747
0.0008916433521
0.0008944540101
0.0008978356368
0.000901506016
0.0009051505485
0.0009084312549
0.0009109936255
0.0009124688521
0.0008957213473
0.0008976623867
0.0009003916053
0.000903671015
0.000907224827
0.000910747297
0.000913912147
0.0009163795264
0.0009177978731
0.0009016251086
0.0009035039925
0.0009061430075
0.0009093094188
0.0009127346766
0.0009161229009
0.0009191607026
0.0009215242151
0.0009228805274
0.0009073402868
0.0009091507001
0.0009116905207
0.0009147329678
0.0009180176071
0.00092125947
0.0009241592373
0.0009264102827
0.0009276996236
0.0009128492835
0.0009145848732
0.0009170165207
0.0009199241621
0.0009230564043
0.0009261402492
0.0009288915805
0.0009310221488
0.0009322399889
0.0009181346227
0.000919789186
0.0009221039699
0.0009248664408
0.0009278351991
0.0009307502563
0.0009333437407
0.0009353467428
0.0009364891556
0.0009231794609
0.0009247471547
0.0009269369783
0.0009295447714
0.0009323400822
0.0009350769125
0.0009375045408
0.0009393741346
0.0009404379842
0.0009279681408