/*--------------------------------*- C++ -*----------------------------------*\
| =========                 |                                                 |
| \\      /  F ield         | OpenFOAM: The Open Source CFD Toolbox           |
|  \\    /   O peration     | Version:  2212                                  |
|   \\  /    A nd           | Website:  www.openfoam.com                      |
|    \\/     M anipulation  |                                                 |
\*---------------------------------------------------------------------------*/
FoamFile
{
    version     2.0;
    format      ascii;
    arch        "LSB;label=32;scalar=64";
    class       volScalarField;
    location    "20.00000000";
    object      CH3COCH2;
}
// * * * * * * * * * * * * * * * * * * * * * * * * * * * * * * * * * * * * * //

dimensions      [0 0 0 0 0 0 0];

internalField   nonuniform List<scalar> 
3000
(
1.484038735e-31
1.840791038e-31
2.411182714e-31
3.229233105e-31
4.329838421e-31
5.725621456e-31
7.362577234e-31
9.045160737e-31
1.032825958e-30
6.253826023e-31
7.814459545e-31
1.030953305e-30
1.389518799e-30
1.875915965e-30
2.508880492e-30
3.300362365e-30
4.236339762e-30
5.155097291e-30
1.611446868e-30
2.039091443e-30
2.730056594e-30
3.742385565e-30
5.159301424e-30
7.089485804e-30
9.645266837e-30
1.284055197e-29
1.598009326e-29
3.521031792e-30
4.528293844e-30
6.187693539e-30
8.692712923e-30
1.233790072e-29
1.752344248e-29
2.466566596e-29
3.373373788e-29
4.229711907e-29
7.159884612e-30
9.392281184e-30
1.315986124e-29
1.903114314e-29
2.788137533e-29
4.088837394e-29
5.913629282e-29
8.201429824e-29
1.02570749e-28
1.410080418e-29
1.890332767e-29
2.721146145e-29
4.0542483e-29
6.122211464e-29
9.22637812e-29
1.360339125e-28
1.897986638e-28
2.360958358e-28
2.749283194e-29
3.76819251e-29
5.571107385e-29
8.536009955e-29
1.323475556e-28
2.037571954e-28
3.042687775e-28
4.25327347e-28
5.255027589e-28
5.365046434e-29
7.510051512e-29
1.137965329e-28
1.786928331e-28
2.831376937e-28
4.430198127e-28
6.674083283e-28
9.346901195e-28
1.155931862e-27
1.053413373e-28
1.50296945e-28
2.326848161e-28
3.729335166e-28
6.010037143e-28
9.511627744e-28
1.439877263e-27
2.014314748e-27
2.479861151e-27
2.084580519e-28
3.023848619e-28
4.766893157e-28
7.767504612e-28
1.268134791e-27
2.023342644e-27
3.072071588e-27
4.29304178e-27
5.271895423e-27
4.157019353e-28
6.114931979e-28
9.784180748e-28
1.615379514e-27
2.663458011e-27
4.274440648e-27
6.502186067e-27
9.077728964e-27
1.112713718e-26
8.345607815e-28
1.241903347e-27
2.01116348e-27
3.354964664e-27
5.573394332e-27
8.982323255e-27
1.368031768e-26
1.908310063e-26
2.335835367e-26
1.684654413e-27
2.530725617e-27
4.138111443e-27
6.959354669e-27
1.16276215e-26
1.879785797e-26
2.865239695e-26
3.993938744e-26
4.883335902e-26
3.415262816e-27
5.170030925e-27
8.51947715e-27
1.441967514e-26
2.419890486e-26
3.921216303e-26
5.980045086e-26
8.330684163e-26
1.017693439e-25
6.946380881e-27
1.058114821e-26
1.754486767e-26
2.984618554e-26
5.025985679e-26
8.158501826e-26
1.244659765e-25
1.733019446e-25
2.115600993e-25
1.416324214e-26
2.168375445e-26
3.613464505e-26
6.171799459e-26
1.042117084e-25
1.693918256e-25
2.584864506e-25
3.597474531e-25
4.389085774e-25
2.893111366e-26
4.447631274e-26
7.441764967e-26
1.275166166e-25
2.157744425e-25
3.510989301e-25
5.358476542e-25
7.454702369e-25
9.09056019e-25
5.917786125e-26
9.128327333e-26
1.532389294e-25
2.632642281e-25
4.462358619e-25
7.266812421e-25
1.109149557e-24
1.542485082e-24
1.880142163e-24
1.211676034e-25
1.874255926e-25
3.154843074e-25
5.431476419e-25
9.218912047e-25
1.502189729e-24
2.292847245e-24
3.187512292e-24
3.883700795e-24
2.482687169e-25
3.849185552e-25
6.493531453e-25
1.119866198e-24
1.902806059e-24
3.101937888e-24
4.734306812e-24
6.579211007e-24
8.013027841e-24
5.089354912e-25
7.905862259e-25
1.336155315e-24
2.307523101e-24
3.924078366e-24
6.39888704e-24
9.764861181e-24
1.356467358e-23
1.651415313e-23
1.043560103e-24
1.623721516e-24
2.748391119e-24
4.751754821e-24
8.085715402e-24
1.318713452e-23
2.011918219e-23
2.793536449e-23
3.399466287e-23
2.139936952e-24
3.334247119e-24
5.650843733e-24
9.778582533e-24
1.664682102e-23
2.714958038e-23
4.140671275e-23
5.746166626e-23
6.989066821e-23
4.38754371e-24
6.844398609e-24
1.161196117e-23
2.0107944e-23
3.424035616e-23
5.583499044e-23
8.511468283e-23
1.180387428e-22
1.434873548e-22
8.992538009e-24
1.404244426e-23
2.38444439e-23
4.131132354e-23
7.035267237e-23
1.146875604e-22
1.747186009e-22
2.421078394e-22
2.941022034e-22
1.841969141e-23
2.878938188e-23
4.891945502e-23
8.478302701e-23
1.443722905e-22
2.35237476e-22
3.580746946e-22
4.95697648e-22
6.016565474e-22
3.769714484e-23
5.896576299e-23
1.002514879e-22
1.73776213e-22
2.958333061e-22
4.816894178e-22
7.324584216e-22
1.012761314e-21
1.228035396e-21
7.706097991e-23
1.206215525e-22
2.0516209e-22
3.556262473e-22
6.051232417e-22
9.843740672e-22
1.494908597e-21
2.064005441e-21
2.499793977e-21
1.572971275e-22
2.463598916e-22
4.191437965e-22
7.26403137e-22
1.23516114e-21
2.006882428e-21
3.042907953e-21
4.194041047e-21
5.072504838e-21
3.204900003e-22
5.022059853e-22
8.545396617e-22
1.480399151e-21
2.514850758e-21
4.080032884e-21
6.174484018e-21
8.492844139e-21
1.025502611e-20
6.515548032e-22
1.021391788e-21
1.737922887e-21
3.00894161e-21
5.105209043e-21
8.267496455e-21
1.248312279e-20
1.712901262e-20
2.064428342e-20
1.321159581e-21
2.071667073e-21
3.524257372e-21
6.09650314e-21
1.032789599e-20
1.668867992e-20
2.513108746e-20
3.438860564e-20
4.135721867e-20
2.670817176e-21
4.18862843e-21
7.122611541e-21
1.230728692e-20
2.081013228e-20
3.353981416e-20
5.035075448e-20
6.868062476e-20
8.239946489e-20
5.380563557e-21
8.438119951e-21
1.433934289e-20
2.474157792e-20
4.174041638e-20
6.707048204e-20
1.003321908e-19
1.363709867e-19
1.631744852e-19
1.079720385e-20
1.692900886e-20
2.874164094e-20
4.950331898e-20
8.329174542e-20
1.333731613e-19
1.987212934e-19
2.690363969e-19
3.209777769e-19
2.157227499e-20
3.380747626e-20
5.732602225e-20
9.852189708e-20
1.652523694e-19
2.63574025e-19
3.909766199e-19
5.270392195e-19
6.268235232e-19
4.289225881e-20
6.716862014e-20
1.137124203e-19
1.94923872e-19
3.257814824e-19
5.173264551e-19
7.636565895e-19
1.024641109e-18
1.214598922e-18
8.483059484e-20
1.326974312e-19
2.241968804e-19
3.831475594e-19
6.377733272e-19
1.007828796e-18
1.479902418e-18
1.975905312e-18
2.334135158e-18
1.668024348e-19
2.605326426e-19
4.39093189e-19
7.477597723e-19
1.239055155e-18
1.947606917e-18
2.843867933e-18
3.777525636e-18
4.446611878e-18
3.259160549e-19
5.080606666e-19
8.537231988e-19
1.447998135e-18
2.387338658e-18
3.73110397e-18
5.416051862e-18
7.156217971e-18
8.393752411e-18
6.324572199e-19
9.834705289e-19
1.646738397e-18
2.780253172e-18
4.558672413e-18
7.081308964e-18
1.021647625e-17
1.342691703e-17
1.569331543e-17
1.218267277e-18
1.888554168e-18
3.149058924e-18
5.289277909e-18
8.62081064e-18
1.330542975e-17
1.907609909e-17
2.493679921e-17
2.904573576e-17
2.328157869e-18
3.595447711e-18
5.966010467e-18
9.962753467e-18
1.613278699e-17
2.473168919e-17
3.52315227e-17
4.581155908e-17
5.318236926e-17
4.412140763e-18
6.782584622e-18
1.119061418e-17
1.856596594e-17
2.985247055e-17
4.543878047e-17
6.430542188e-17
8.31726847e-17
9.623936794e-17
8.289879038e-18
1.267360982e-17
2.077210759e-17
3.420957297e-17
5.458116934e-17
8.244564744e-17
1.158731792e-16
1.490437817e-16
1.718751345e-16
1.544427729e-17
2.345718003e-17
3.815128781e-17
6.230761511e-17
9.855402906e-17
1.476137652e-16
2.058804428e-16
2.631717381e-16
3.022833213e-16
2.855188142e-17
4.303370042e-17
6.9369283e-17
1.122113554e-16
1.757422924e-16
2.606701981e-16
3.602589304e-16
4.568892116e-16
5.21918244e-16
5.246383247e-17
7.83791835e-17
1.250611647e-16
2.000882963e-16
3.097917583e-16
4.541281768e-16
6.202943884e-16
7.779150869e-16
8.809322472e-16
9.607633159e-17
1.421261448e-16
2.241944047e-16
3.542551016e-16
5.411650045e-16
7.818237862e-16
1.051011678e-15
1.295928416e-15
1.446194948e-15
1.759966071e-16
2.57604806e-16
4.013490675e-16
6.255247417e-16
9.408832221e-16
1.334960277e-15
1.755891565e-15
2.110032179e-15
2.298172352e-15
3.238261577e-16
4.688289335e-16
7.21108658e-16
1.10762996e-15
1.637577055e-15
2.27347162e-15
2.905333886e-15
3.363806341e-15
3.528737092e-15
6.005436945e-16
8.60069795e-16
1.306035219e-15
1.976548277e-15
2.868918566e-15
3.884718564e-15
4.790118199e-15
5.280852531e-15
5.261391007e-15
1.124214994e-15
1.592967732e-15
2.388605382e-15
3.561478258e-15
5.070700666e-15
6.679254316e-15
7.904461104e-15
8.23256024e-15
7.733463654e-15
2.121324967e-15
2.973419959e-15
4.401225852e-15
6.460926109e-15
9.009390988e-15
1.151222972e-14
1.303268989e-14
1.282594032e-14
1.145163318e-14
4.017209272e-15
5.564621978e-15
8.118391619e-15
1.170720472e-14
1.593634268e-14
1.967374589e-14
2.127118848e-14
1.997881132e-14
1.736837899e-14
7.584098607e-15
1.036104894e-14
1.485523238e-14
2.095701622e-14
2.769408599e-14
3.284922248e-14
3.395430477e-14
3.10053647e-14
2.701684348e-14
1.416466166e-14
1.902988806e-14
2.669844238e-14
3.662935457e-14
4.665298035e-14
5.289321807e-14
5.260855069e-14
4.777257236e-14
4.256921258e-14
2.596417989e-14
3.418160029e-14
4.667692896e-14
6.184243415e-14
7.537230459e-14
8.159476061e-14
7.919461708e-14
7.287931245e-14
6.675764126e-14
4.633323506e-14
5.954447223e-14
7.869557962e-14
1.000188313e-13
1.161742287e-13
1.209458586e-13
1.167038637e-13
1.097621929e-13
1.026269113e-13
7.982079831e-14
9.979141635e-14
1.270339822e-13
1.542580204e-13
1.712814574e-13
1.742857974e-13
1.698213619e-13
1.627558394e-13
1.532988047e-13
1.316215768e-13
1.597401248e-13
1.954547092e-13
2.27221891e-13
2.44294868e-13
2.478151642e-13
2.453929161e-13
2.37152014e-13
2.221094358e-13
2.062021562e-13
2.431021001e-13
2.86847877e-13
3.227129293e-13
3.426744065e-13
3.515452661e-13
3.525647441e-13
3.39271886e-13
3.133075439e-13
3.058974406e-13
3.52240616e-13
4.051151841e-13
4.491192626e-13
4.795964748e-13
4.99446698e-13
5.024676826e-13
4.767293366e-13
4.330987725e-13
4.322540638e-13
4.914085961e-13
5.598994717e-13
6.22649614e-13
6.743197721e-13
7.088878241e-13
7.077239891e-13
6.591800201e-13
5.906930388e-13
5.925338172e-13
6.735280138e-13
7.71299572e-13
8.682245473e-13
9.51443653e-13
9.993954466e-13
9.8257599e-13
8.99596936e-13
7.9925932e-13
8.081357828e-13
9.255490726e-13
1.070973492e-12
1.218310774e-12
1.338985404e-12
1.391502972e-12
1.344186459e-12
1.215774703e-12
1.076924392e-12
1.117431314e-12
1.288092179e-12
1.499906303e-12
1.710076195e-12
1.865452946e-12
1.907064855e-12
1.814770426e-12
1.631795706e-12
1.447967101e-12
1.571669564e-12
1.811089354e-12
2.103982747e-12
2.380456903e-12
2.557939416e-12
2.571544566e-12
2.423746331e-12
2.179437538e-12
1.944256078e-12
2.227847613e-12
2.546925086e-12
2.926690014e-12
3.261325771e-12
3.443520203e-12
3.417201967e-12
3.209445606e-12
2.899601583e-12
2.606871608e-12
3.138605822e-12
3.540332461e-12
4.001520956e-12
4.379199844e-12
4.553603575e-12
4.485707793e-12
4.220411827e-12
3.843767776e-12
3.487784452e-12
4.340200732e-12
4.81962261e-12
5.35077615e-12
5.760806741e-12
5.928473478e-12
5.82962271e-12
5.516433838e-12
5.07535899e-12
4.651422874e-12
5.847424296e-12
6.398003889e-12
6.993388952e-12
7.440544401e-12
7.61984655e-12
7.512979964e-12
7.169327168e-12
6.670833247e-12
6.175920638e-12
7.662823889e-12
8.285956983e-12
8.95589721e-12
9.465110872e-12
9.691309715e-12
9.61129002e-12
9.263288821e-12
8.720261635e-12
8.15380222e-12
9.793936366e-12
1.050493556e-11
1.127904558e-11
1.189416862e-11
1.221748498e-11
1.221105465e-11
1.189464999e-11
1.132713661e-11
1.06918342e-11
1.226543908e-11
1.309360626e-11
1.401825603e-11
1.479858958e-11
1.528255486e-11
1.54086091e-11
1.517073491e-11
1.460713362e-11
1.390975836e-11
1.512110137e-11
1.610653264e-11
1.724064736e-11
1.825783396e-11
1.897823954e-11
1.930817355e-11
1.920760869e-11
1.868557279e-11
1.79376402e-11
1.841946779e-11
1.960963487e-11
2.102122281e-11
2.235710235e-11
2.340113951e-11
2.401884011e-11
2.412650029e-11
2.369337207e-11
2.291161997e-11
2.222825635e-11
2.367550248e-11
2.543928583e-11
2.718403015e-11
2.864927789e-11
2.965037674e-11
3.004878051e-11
2.976137943e-11
2.896795465e-11
2.661964668e-11
2.837943561e-11
3.057467141e-11
3.282504756e-11
3.481769017e-11
3.630779397e-11
3.708949593e-11
3.70131156e-11
3.623539251e-11
3.166638392e-11
3.379553252e-11
3.650409535e-11
3.93610282e-11
4.199305797e-11
4.408476926e-11
4.534963064e-11
4.555615343e-11
4.482612727e-11
3.743808395e-11
3.999316149e-11
4.329699697e-11
4.686226655e-11
5.024753202e-11
5.305620148e-11
5.490747642e-11
5.547259191e-11
5.482582281e-11
4.399780749e-11
4.703300247e-11
5.101092704e-11
5.53829296e-11
5.963206031e-11
6.327036429e-11
6.58097157e-11
6.680932889e-11
6.628345702e-11
5.139816588e-11
5.496274878e-11
5.968660816e-11
6.495529449e-11
7.01697082e-11
7.474131542e-11
7.806302729e-11
7.956905515e-11
7.92019604e-11
5.967714802e-11
6.381260046e-11
6.934295787e-11
7.558423029e-11
8.184960117e-11
8.744236256e-11
9.162716753e-11
9.370303419e-11
9.353076933e-11
6.885384521e-11
7.359083683e-11
7.99724939e-11
8.724248848e-11
9.462220523e-11
1.013014464e-10
1.064105121e-10
1.091067439e-10
1.091614184e-10
7.892439768e-11
8.427987017e-11
9.153762158e-11
9.986740862e-11
1.083966548e-10
1.161992403e-10
1.222689276e-10
1.256192984e-10
1.259271206e-10
8.985858096e-11
9.583324432e-11
1.039683205e-10
1.133596029e-10
1.230407218e-10
1.319705679e-10
1.390085644e-10
1.43027229e-10
1.436069167e-10
1.015974868e-10
1.081740403e-10
1.17161687e-10
1.275840471e-10
1.383837903e-10
1.484094096e-10
1.563927365e-10
1.61072709e-10
1.619344478e-10
1.140527256e-10
1.211950778e-10
1.309836507e-10
1.423737791e-10
1.542228773e-10
1.652773465e-10
1.741525464e-10
1.794657329e-10
1.806107971e-10
1.271074795e-10
1.347611577e-10
1.452729726e-10
1.575361212e-10
1.703313723e-10
1.823148425e-10
1.920003979e-10
1.978992017e-10
1.993202673e-10
1.406195676e-10
1.487133874e-10
1.5984738e-10
1.728610333e-10
1.864698091e-10
1.992543736e-10
2.096451283e-10
2.160654452e-10
2.177475294e-10
1.544264754e-10
1.628753949e-10
1.745114348e-10
1.881309278e-10
2.0239771e-10
2.158341509e-10
2.268072597e-10
2.336725042e-10
2.35594386e-10
1.683520629e-10
1.770610062e-10
1.890655074e-10
2.031310852e-10
2.178853943e-10
2.318111144e-10
2.432328695e-10
2.504585626e-10
2.525944835e-10
1.822144509e-10
1.910827643e-10
2.033150811e-10
2.176597287e-10
2.32724664e-10
2.469719928e-10
2.587048131e-10
2.662032249e-10
2.685246539e-10
1.95834422e-10
2.047605555e-10
2.170795681e-10
2.315368705e-10
2.467374472e-10
2.611415271e-10
2.730504358e-10
2.807348271e-10
2.832120951e-10
2.090435958e-10
2.179295869e-10
2.301998842e-10
2.446112169e-10
2.597817704e-10
2.741873536e-10
2.861454112e-10
2.939335286e-10
2.965371864e-10
2.216916594e-10
2.3044704e-10
2.425441911e-10
2.567646746e-10
2.717547859e-10
2.860214781e-10
2.97913836e-10
3.057304618e-10
3.08432283e-10
2.336520567e-10
2.421968985e-10
2.54011451e-10
2.679143e-10
2.825929274e-10
2.9659866e-10
3.083251135e-10
3.161036231e-10
3.18877237e-10
2.448257357e-10
2.530926709e-10
2.645326953e-10
2.780118181e-10
2.922695653e-10
3.059123099e-10
3.173884247e-10
3.250714315e-10
3.278926258e-10
2.551427911e-10
2.630779787e-10
2.740701578e-10
2.870410704e-10
3.00790735e-10
3.139886636e-10
3.251456918e-10
3.326849494e-10
3.355317141e-10
2.645620806e-10
2.721252024e-10
2.826146216e-10
2.950139083e-10
3.081896067e-10
3.208800253e-10
3.31663911e-10
3.390196844e-10
3.418720864e-10
2.730690969e-10
2.80232557e-10
2.901814549e-10
3.019651129e-10
3.145203665e-10
3.266578014e-10
3.370275998e-10
3.441677203e-10
3.470076902e-10
2.806725205e-10
2.874200683e-10
2.968058646e-10
3.079469116e-10
3.198520926e-10
3.314059044e-10
3.413319113e-10
3.482307045e-10
3.510418054e-10
2.873999458e-10
2.937249572e-10
3.025378757e-10
3.130235843e-10
3.242630883e-10
3.352149341e-10
3.446767698e-10
3.513139983e-10
3.540812233e-10
2.932932699e-10
2.991969003e-10
3.074374701e-10
3.172665401e-10
3.278359782e-10
3.381773674e-10
3.471621878e-10
3.535221051e-10
3.562317279e-10
2.984041735e-10
3.03893556e-10
3.115702143e-10
3.207501139e-10
3.306537353e-10
3.403838398e-10
3.488847785e-10
3.549553398e-10
3.575948265e-10
3.027900238e-10
3.078766369e-10
3.150035844e-10
3.235482123e-10
3.327966794e-10
3.419204846e-10
3.499353695e-10
3.55707612e-10
3.582655849e-10
3.065104156e-10
3.112086934e-10
3.178040879e-10
3.257318313e-10
3.343404032e-10
3.428672242e-10
3.503975726e-10
3.558651557e-10
3.583314004e-10
3.096244555e-10
3.1395067e-10
3.200351882e-10
3.27367396e-10
3.3535452e-10
3.432968758e-10
3.503471608e-10
3.555060773e-10
3.578716244e-10
3.121887993e-10
3.161602116e-10
3.21755965e-10
3.285158104e-10
3.359020929e-10
3.432749111e-10
3.498521042e-10
3.547006667e-10
3.569582711e-10
3.142563783e-10
3.178906282e-10
3.230203883e-10
3.292320614e-10
3.360395404e-10
3.428595951e-10
3.489728425e-10
3.535117688e-10
3.556574721e-10
3.158757038e-10
3.191903935e-10
3.238770601e-10
3.295652012e-10
3.358168005e-10
3.421021898e-10
3.477621507e-10
3.51992897e-10
3.54018989e-10
3.170906244e-10
3.20103052e-10
3.243693072e-10
3.295586322e-10
3.352778133e-10
3.410477551e-10
3.4626701e-10
3.501949283e-10
3.520951335e-10
3.179404127e-10
3.206674145e-10
3.245355097e-10
3.292505586e-10
3.344610205e-10
3.397353661e-10
3.445269412e-10
3.48154604e-10
3.499279677e-10
3.184600714e-10
3.209179425e-10
3.244095881e-10
3.286746041e-10
3.334002348e-10
3.381998904e-10
3.425801345e-10
3.459111864e-10
3.475559606e-10
3.186807649e-10
3.2088523e-10
3.240215394e-10
3.278603534e-10
3.321248911e-10
3.364704122e-10
3.404522579e-10
3.434959599e-10
3.45012142e-10
3.186303087e-10
3.205965387e-10
3.233980656e-10
3.268342361e-10
3.306618858e-10
3.345761867e-10
3.381728413e-10
3.409374564e-10
3.423257036e-10
3.183336591e-10
3.200763102e-10
3.225631102e-10
3.256200285e-10
3.290356076e-10
3.325354107e-10
3.357648794e-10
3.38260141e-10
3.395220904e-10
3.178133869e-10
3.19346681e-10
3.215384877e-10
3.242398148e-10
3.272616352e-10
3.303693455e-10
3.332492116e-10
3.354855168e-10
3.366235938e-10
3.170901515e-10
3.184280592e-10
3.203447672e-10
3.227074057e-10
3.253590563e-10
3.280964052e-10
3.306442116e-10
3.32632459e-10
3.336497498e-10
3.1618324e-10
3.173399075e-10
3.189945858e-10
3.210404674e-10
3.233445356e-10
3.257327797e-10
3.279660504e-10
3.297175222e-10
3.306176678e-10
3.151112311e-10
3.160939773e-10
3.175047218e-10
3.192545998e-10
3.212328792e-10
3.232928209e-10
3.252289856e-10
3.267552254e-10
3.275423205e-10
3.13883863e-10
3.147062454e-10
3.158901114e-10
3.173638242e-10
3.190373715e-10
3.207893154e-10
3.2244561e-10
3.237583017e-10
3.244367989e-10
3.12517519e-10
3.131913382e-10
3.141643698e-10
3.153808864e-10
3.167700075e-10
3.182336944e-10
3.196270605e-10
3.207379156e-10
3.213125357e-10
3.110264413e-10
3.115626158e-10
3.123399953e-10
3.133174382e-10
3.144416584e-10
3.156361998e-10
3.167831937e-10
3.177038499e-10
3.181795014e-10
3.094235793e-10
3.098323819e-10
3.104285092e-10
3.111841632e-10
3.12062199e-10
3.130060208e-10
3.139227352e-10
3.146646687e-10
3.150463754e-10
3.077208956e-10
3.080120298e-10
3.084405582e-10
3.089908744e-10
3.096406108e-10
3.103514075e-10
3.110534073e-10
3.116278585e-10
3.119206968e-10
3.059295058e-10
3.061121366e-10
3.063859933e-10
3.067465915e-10
3.071850668e-10
3.076797679e-10
3.081820396e-10
3.085999518e-10
3.088089967e-10
3.040597573e-10
3.041425301e-10
3.042739313e-10
3.044596059e-10
3.04703004e-10
3.049977515e-10
3.053146653e-10
3.055866357e-10
3.057169155e-10
3.021212837e-10
3.021123399e-10
3.021128061e-10
3.021375358e-10
3.022011868e-10
3.023113226e-10
3.024566062e-10
3.025928477e-10
3.026493054e-10
3.00123047e-10
3.000300393e-10
2.999104124e-10
2.997873749e-10
2.996857616e-10
2.996258244e-10
2.996125464e-10
2.996228595e-10
2.996103224e-10
2.980733737e-10
2.97903482e-10
2.976739452e-10
2.974155349e-10
2.971623066e-10
2.969460359e-10
2.967865989e-10
2.966803517e-10
2.966035064e-10
2.95979987e-10
2.957399358e-10
2.954100345e-10
2.950278853e-10
2.946358762e-10
2.942762237e-10
2.939823639e-10
2.937684801e-10
2.936318533e-10
2.938500377e-10
2.935461135e-10
2.931247793e-10
2.926297891e-10
2.921110411e-10
2.91620187e-10
2.912029811e-10
2.908899339e-10
2.90697878e-10
2.916901327e-10
2.91328203e-10
2.908237783e-10
2.902261367e-10
2.895919255e-10
2.889812994e-10
2.88451176e-10
2.880469876e-10
2.878036704e-10
2.895063635e-10
2.890918963e-10
2.885121599e-10
2.878213771e-10
2.870822412e-10
2.863625468e-10
2.85729302e-10
2.852415472e-10
2.849509453e-10
2.873043341e-10
2.868424167e-10
2.861946103e-10
2.854195481e-10
2.845853191e-10
2.83766561e-10
2.830393774e-10
2.824751913e-10
2.82141086e-10
2.850891875e-10
2.845845462e-10
2.838754014e-10
2.830243034e-10
2.821041384e-10
2.811956506e-10
2.803831193e-10
2.797492072e-10
2.793751836e-10
2.828656321e-10
2.823226517e-10
2.815584163e-10
2.806389398e-10
2.796413536e-10
2.786518302e-10
2.777619732e-10
2.770646237e-10
2.766540714e-10
2.806379676e-10
2.8006071e-10
2.79247175e-10
2.782664218e-10
2.771993199e-10
2.761368455e-10
2.751771412e-10
2.744222399e-10
2.739783554e-10
2.784101095e-10
2.778023327e-10
2.769448577e-10
2.759094051e-10
2.747801166e-10
2.736521973e-10
2.726296052e-10
2.718226506e-10
2.713484415e-10
2.761856133e-10
2.755507894e-10
2.746543282e-10
2.735702593e-10
2.723855686e-10
2.711991633e-10
2.7012015e-10
2.692662699e-10
2.687645597e-10
2.739676978e-10
2.733090303e-10
2.723781553e-10
2.712510882e-10
2.700172674e-10
2.687788182e-10
2.676493831e-10
2.667533514e-10
2.662267852e-10
2.717592669e-10
2.710797078e-10
2.701186338e-10
2.689537505e-10
2.676765895e-10
2.663920515e-10
2.652177525e-10
2.642840068e-10
2.63735058e-10
2.695629315e-10
2.688651973e-10
2.678778044e-10
2.666798777e-10
2.653647142e-10
2.640395849e-10
2.628255634e-10
2.61858222e-10
2.612891994e-10
2.673810295e-10
2.666676166e-10
2.656574717e-10
2.644308919e-10
2.6308264e-10
2.617219876e-10
2.60472993e-10
2.594758726e-10
2.588889269e-10
2.652156452e-10
2.644888447e-10
2.634592225e-10
2.622080224e-10
2.608312003e-10
2.594396905e-10
2.58160104e-10
2.571367363e-10
2.565338684e-10
2.630686277e-10
2.623305393e-10
2.61284442e-10
2.60012321e-10
2.586110769e-10
2.571929994e-10
2.558868573e-10
2.548405055e-10
2.542235736e-10
2.609416086e-10
2.601941538e-10
2.591343298e-10
2.578446768e-10
2.56422814e-10
2.549821072e-10
2.536531224e-10
2.525867981e-10
2.519575248e-10
2.588360181e-10
2.580809528e-10
2.570099148e-10
2.557058294e-10
2.542668301e-10
2.528071047e-10
2.514586887e-10
2.503751663e-10
2.497351468e-10
2.567531011e-10
2.559920273e-10
2.549120685e-10
2.535963818e-10
2.521434295e-10
2.506679914e-10
2.493032736e-10
2.482051065e-10
2.475558151e-10
2.546939313e-10
2.539283084e-10
2.528415187e-10
2.515168125e-10
2.500528133e-10
2.485646846e-10
2.471865319e-10
2.460760662e-10
2.454188638e-10
2.526594255e-10
2.518905807e-10
2.507988615e-10
2.494674862e-10
2.479950887e-10
2.464970281e-10
2.451080633e-10
2.439874515e-10
2.433235924e-10
2.506503565e-10
2.498794945e-10
2.487845726e-10
2.474486646e-10
2.459702788e-10
2.444648003e-10
2.43067419e-10
2.419386334e-10
2.41269272e-10
2.486673651e-10
2.478955773e-10
2.467990181e-10
2.454605156e-10
2.439783305e-10
2.424677219e-10
2.410641087e-10
2.399289537e-10
2.392551507e-10
2.467109715e-10
2.459392448e-10
2.448424645e-10
2.435031226e-10
2.42019123e-10
2.405054619e-10
2.390976062e-10
2.379577299e-10
2.372804584e-10
2.447815861e-10
2.440108109e-10
2.42915088e-10
2.415764925e-10
2.400924744e-10
2.385776447e-10
2.371673544e-10
2.360242599e-10
2.353444114e-10
2.428795193e-10
2.421104971e-10
2.410169829e-10
2.396805638e-10
2.38198149e-10
2.366838552e-10
2.352727707e-10
2.341278264e-10
2.334462162e-10
2.410049909e-10
2.40238441e-10
2.391481701e-10
2.378152135e-10
2.363358631e-10
2.348236441e-10
2.334132509e-10
2.322677006e-10
2.315850731e-10
2.391581384e-10
2.383947048e-10
2.373086041e-10
2.359802636e-10
2.345052907e-10
2.329965331e-10
2.315881735e-10
2.304431452e-10
2.297601789e-10
2.373390253e-10
2.365792825e-10
2.354981798e-10
2.341754876e-10
2.327060689e-10
2.312020187e-10
2.29796903e-10
2.28653418e-10
2.279707301e-10
2.355476481e-10
2.347921072e-10
2.337167393e-10
2.324006154e-10
2.309378027e-10
2.294395764e-10
2.280387931e-10
2.26897774e-10
2.262159249e-10
2.337839435e-10
2.330330571e-10
2.319640774e-10
2.306553393e-10
2.292000691e-10
2.277086644e-10
2.2631319e-10
2.25175468e-10
2.244949656e-10
2.320477944e-10
2.313019613e-10
2.302399468e-10
2.289393176e-10
2.274924211e-10
2.260087262e-10
2.24619434e-10
2.234857567e-10
2.228070599e-10
2.303390354e-10
2.295986057e-10
2.285440632e-10
2.272521798e-10
2.25814391e-10
2.243391941e-10
2.229568626e-10
2.218278998e-10
2.211514226e-10
2.286574584e-10
2.279227369e-10
2.268761091e-10
2.255935293e-10
2.241654936e-10
2.226994908e-10
2.213248112e-10
2.202011616e-10
2.195272762e-10
2.270028164e-10
2.262740671e-10
2.252357377e-10
2.239629468e-10
2.225452282e-10
2.210890309e-10
2.197226146e-10
2.186048109e-10
2.179338513e-10
2.253748275e-10
2.246522767e-10
2.236225756e-10
2.223599924e-10
2.209530801e-10
2.195072221e-10
2.181496065e-10
2.170381209e-10
2.163703851e-10
2.237731777e-10
2.230570169e-10
2.220362245e-10
2.207842065e-10
2.193885208e-10
2.179534641e-10
2.166051184e-10
2.15500367e-10
2.148361201e-10
2.221975224e-10
2.21487911e-10
2.204762617e-10
2.192351096e-10
2.178510067e-10
2.164271468e-10
2.150884766e-10
2.139908228e-10
2.133302986e-10
2.206474866e-10
2.199445542e-10
2.189422391e-10
2.177122003e-10
2.163399761e-10
2.14927645e-10
2.135989957e-10
2.12508753e-10
2.118521557e-10
2.191226632e-10
2.184265105e-10
2.174336798e-10
2.162149501e-10
2.148548422e-10
2.134543111e-10
2.121359691e-10
2.110534023e-10
2.104009068e-10
2.176226085e-10
2.169333081e-10
2.159500709e-10
2.147427954e-10
2.133949831e-10
2.120064612e-10
2.106986537e-10
2.096239774e-10
2.089757286e-10
2.161468341e-10
2.154644296e-10
2.144908531e-10
2.132951235e-10
2.119597249e-10
2.105833565e-10
2.092862467e-10
2.08219622e-10
2.075757317e-10
2.146947947e-10
2.140192984e-10
2.130554036e-10
2.118712536e-10
2.105483187e-10
2.091841742e-10
2.07897853e-10
2.06839379e-10
2.061999211e-10
2.13265869e-10
2.125972574e-10
2.11643013e-10
2.104704079e-10
2.091599067e-10
2.078079692e-10
2.0653244e-10
2.054821401e-10
2.048471409e-10
2.118593344e-10
2.11197541e-10
2.102528512e-10
2.090916736e-10
2.077934769e-10
2.064536197e-10
2.051887754e-10
2.041465762e-10
2.035160006e-10
2.104743308e-10
2.098192355e-10
2.088839243e-10
2.07733951e-10
2.064478027e-10
2.051197576e-10
2.038653464e-10
2.02831047e-10
2.022047784e-10
2.091098143e-10
2.084612279e-10
2.075350154e-10
2.063958868e-10
2.051213649e-10
2.038046772e-10
2.025602558e-10
2.015334848e-10
2.009112963e-10
2.07764497e-10
2.071221407e-10
2.062046116e-10
2.050757887e-10
2.038122533e-10
2.025062215e-10
2.01271092e-10
2.002512498e-10
1.996327667e-10
2.064367707e-10
2.058002489e-10
2.048908113e-10
2.037715207e-10
2.025180454e-10
2.012216432e-10
1.999947703e-10
1.989809547e-10
1.983656047e-10
2.051246141e-10
2.044933797e-10
2.035912121e-10
2.024803758e-10
2.01235661e-10
1.99947438e-10
1.98727346e-10
1.977182572e-10
1.971052081e-10
2.038254808e-10
2.031987919e-10
2.023027781e-10
2.011989258e-10
1.999611924e-10
1.986791525e-10
1.974637973e-10
1.964576227e-10
1.958457063e-10
2.025361676e-10
2.019130354e-10
2.010216848e-10
1.999228497e-10
1.986897104e-10
1.974111658e-10
1.961977835e-10
1.951920601e-10
1.945796811e-10
2.01252664e-10
2.006317905e-10
1.997431452e-10
1.986467403e-10
1.974150502e-10
1.961364522e-10
1.949213833e-10
1.939128385e-10
1.932978707e-10
1.999699833e-10
1.993496901e-10
1.984612177e-10
1.973638953e-10
1.961295818e-10
1.948463296e-10
1.936248215e-10
1.926091963e-10
1.919888658e-10
1.986819796e-10
1.980601278e-10
1.97168602e-10
1.960660981e-10
1.948239739e-10
1.93530206e-10
1.922961994e-10
1.912680571e-10
1.906388188e-10
1.973811541e-10
1.967550579e-10
1.958564296e-10
1.947433971e-10
1.934869621e-10
1.921753371e-10
1.909212438e-10
1.898737736e-10
1.892311838e-10
1.960584597e-10
1.954247951e-10
1.945140586e-10
1.933838959e-10
1.921051357e-10
1.907666133e-10
1.894830971e-10
1.884079232e-10
1.877465183e-10
1.947031111e-10
1.940578251e-10
1.931288857e-10
1.919735688e-10
1.90662762e-10
1.892863968e-10
1.879621728e-10
1.868491836e-10
1.861623743e-10
1.933024143e-10
1.926406389e-10
1.916861891e-10
1.904961201e-10
1.891416679e-10
1.877144349e-10
1.863361061e-10
1.851733213e-10
1.844533152e-10
1.918416285e-10
1.911576061e-10
1.901690223e-10
1.889329061e-10
1.875212027e-10
1.860278744e-10
1.845798281e-10
1.833533274e-10
1.825910952e-10
1.90303877e-10
1.895909059e-10
1.88558176e-10
1.872629435e-10
1.857783082e-10
1.842014073e-10
1.826657986e-10
1.813597337e-10
1.805450365e-10
1.886701264e-10
1.879205344e-10
1.868322316e-10
1.854630274e-10
1.838877199e-10
1.822075757e-10
1.805644249e-10
1.791611433e-10
1.782826378e-10
1.869192532e-10
1.861244103e-10
1.849677273e-10
1.835079809e-10
1.818223264e-10
1.800172605e-10
1.782446939e-10
1.767250001e-10
1.75770442e-10
1.850282181e-10
1.84178598e-10
1.829394578e-10
1.813710605e-10
1.795537069e-10
1.776003761e-10
1.756750378e-10
1.740186165e-10
1.729751766e-10
1.829723679e-10
1.820576692e-10
1.807209269e-10
1.790245321e-10
1.770528621e-10
1.749267828e-10
1.728244395e-10
1.710104609e-10
1.698651666e-10
1.807258817e-10
1.797352179e-10
1.782849678e-10
1.764404315e-10
1.742911479e-10
1.719674174e-10
1.69663773e-10
1.676716906e-10
1.664120004e-10
1.782623738e-10
1.771845399e-10
1.756045379e-10
1.735915106e-10
1.712414046e-10
1.6869563e-10
1.661673528e-10
1.63977895e-10
1.625924015e-10
1.755556618e-10
1.743794817e-10
1.726536874e-10
1.704523621e-10
1.678792662e-10
1.650886942e-10
1.62314647e-10
1.599109858e-10
1.58390235e-10
1.725806952e-10
1.712954506e-10
1.694086885e-10
1.670006984e-10
1.64184611e-10
1.611294398e-10
1.580920838e-10
1.554611479e-10
1.537985452e-10
1.693146329e-10
1.679105672e-10
1.658492958e-10
1.632187433e-10
1.601430981e-10
1.568079318e-10
1.534948537e-10
1.506287296e-10
1.488214884e-10
1.657380396e-10
1.64206925e-10
1.61960091e-10
1.590946737e-10
1.557477029e-10
1.521230815e-10
1.485285629e-10
1.45425889e-10
1.434759308e-10
1.618361624e-10
1.601719065e-10
1.577318455e-10