/*--------------------------------*- C++ -*----------------------------------*\
| =========                 |                                                 |
| \\      /  F ield         | OpenFOAM: The Open Source CFD Toolbox           |
|  \\    /   O peration     | Version:  2212                                  |
|   \\  /    A nd           | Website:  www.openfoam.com                      |
|    \\/     M anipulation  |                                                 |
\*---------------------------------------------------------------------------*/
FoamFile
{
    version     2.0;
    format      ascii;
    arch        "LSB;label=32;scalar=64";
    class       volScalarField;
    location    "20.00000000";
    object      CO;
}
// * * * * * * * * * * * * * * * * * * * * * * * * * * * * * * * * * * * * * //

dimensions      [0 0 0 0 0 0 0];

internalField   nonuniform List<scalar> 
3000
(
1.580950862e-30
1.961052096e-30
2.568782744e-30
3.440396825e-30
4.613083118e-30
6.100297179e-30
7.844499662e-30
9.637333762e-30
1.100451673e-29
6.662355559e-30
8.325170939e-30
1.098364526e-29
1.480418257e-29
1.998685224e-29
2.67313141e-29
3.516490832e-29
4.513820519e-29
5.492800036e-29
1.716774755e-29
2.172437177e-29
2.908683359e-29
3.987371837e-29
5.497193008e-29
7.553964962e-29
1.027738931e-28
1.368228532e-28
1.702778847e-28
3.751356099e-29
4.824666193e-29
6.592905968e-29
9.262280261e-29
1.314669993e-28
1.867265199e-28
2.628382782e-28
3.594738946e-28
4.507317812e-28
7.62870319e-29
1.000763129e-28
1.402258653e-28
2.027950221e-28
2.971122085e-28
4.357306494e-28
6.302056345e-28
8.740282573e-28
1.09311136e-27
1.502518305e-28
2.014330816e-28
2.899760421e-28
4.320531726e-28
6.524541267e-28
9.832992112e-28
1.4498141e-27
2.022864753e-27
2.516331845e-27
2.929752112e-28
4.015707714e-28
5.937302682e-28
9.097457662e-28
1.410576699e-27
2.171737906e-27
3.243124056e-27
4.533559063e-27
5.601403028e-27
5.717734354e-28
8.004086036e-28
1.212878194e-27
1.904642242e-27
3.01800742e-27
4.722371546e-27
7.114442144e-27
9.963831725e-27
1.232245315e-26
1.122771058e-27
1.601995662e-27
2.480269849e-27
3.975399409e-27
6.406829829e-27
1.013994549e-26
1.535036949e-26
2.147487351e-26
2.643850244e-26
2.222056119e-27
3.223409084e-27
5.081719194e-27
8.280858553e-27
1.351998149e-26
2.157222886e-26
3.275440068e-26
4.577343587e-26
5.621102635e-26
4.431633483e-27
6.51917328e-27
1.043146365e-26
1.722320568e-26
2.839894303e-26
4.55775128e-26
6.933357272e-26
9.679915642e-26
1.186544956e-25
8.897873209e-27
1.32414371e-26
2.144443134e-26
3.57745125e-26
5.943229206e-26
9.578697632e-26
1.458904637e-25
2.035119471e-25
2.491091249e-25
1.796330338e-26
2.698605804e-26
4.412821055e-26
7.421670468e-26
1.24005377e-25
2.004809471e-25
3.055896831e-25
4.25980206e-25
5.20848098e-25
3.642060281e-26
5.513597349e-26
9.086036689e-26
1.537926269e-25
2.581027676e-25
4.18247032e-25
6.378661185e-25
8.886199435e-25
1.085572518e-24
7.408487827e-26
1.128554585e-25
1.871368828e-25
3.183585695e-25
5.361247132e-25
8.703022349e-25
1.327771486e-24
1.848785092e-24
2.256956721e-24
1.510712927e-25
2.312982893e-25
3.85461614e-25
6.583964427e-25
1.111754763e-24
1.807174124e-24
2.757771712e-24
3.838208337e-24
4.682861831e-24
3.086263553e-25
4.744770218e-25
7.939289465e-25
1.360475406e-24
2.302187315e-24
3.746150073e-24
5.717549492e-24
7.954431716e-24
9.700093732e-24
6.31358551e-25
9.739270464e-25
1.635021518e-24
2.809081421e-24
4.761607467e-24
7.754396511e-24
1.183605653e-23
1.646069203e-23
2.006430893e-23
1.292863577e-24
1.999923348e-24
3.366520088e-24
5.796146089e-24
9.838244766e-24
1.603162583e-23
2.447037788e-23
3.401947001e-23
4.145031087e-23
2.649342708e-24
4.107741432e-24
6.930012452e-24
1.195190176e-23
2.030868392e-23
3.310815977e-23
5.053252443e-23
7.022608062e-23
8.553178926e-23
5.431623006e-24
8.437893515e-24
1.426134037e-23
2.463015067e-23
4.188657663e-23
6.830557443e-23
1.042390067e-22
1.448049554e-22
1.762936181e-22
1.113874239e-23
1.73319695e-23
2.933818571e-23
5.072547181e-23
8.631901163e-23
1.407838107e-22
2.147953486e-22
2.982487273e-22
3.62945228e-22
2.284404239e-23
3.559484799e-23
6.03282428e-23
1.04399955e-22
1.777343334e-22
2.898792309e-22
4.421164888e-22
6.135552017e-22
7.462778739e-22
4.684343732e-23
7.307681112e-23
1.239845205e-22
2.147069782e-22
3.656216918e-22
5.962297855e-22
9.089150563e-22
1.2605281e-21
1.532312441e-21
9.602132882e-23
1.499493629e-22
2.546279985e-22
4.411680979e-22
7.513290912e-22
1.224838689e-21
1.866004917e-21
2.585777723e-21
3.141131193e-21
1.967115213e-22
3.07464934e-22
5.224697542e-22
9.055318387e-22
1.542028805e-21
2.512623091e-21
3.824765268e-21
5.294879584e-21
6.426772681e-21
4.026459263e-22
6.298391419e-22
1.070867694e-21
1.856305794e-21
3.160232286e-21
5.145767381e-21
7.82483704e-21
1.081948561e-20
1.311942758e-20
8.232358412e-22
1.288630004e-21
2.191867409e-21
3.799475869e-21
6.465244231e-21
1.05174589e-20
1.597250712e-20
2.205338161e-20
2.67098982e-20
1.680721935e-21
2.632430166e-21
4.478800678e-21
7.762239297e-21
1.319902875e-20
2.144606506e-20
3.251772371e-20
4.481960514e-20
5.420760923e-20
3.425228215e-21
5.367427138e-21
9.133253426e-21
1.582266925e-20
2.687936758e-20
4.36088463e-20
6.599546203e-20
9.077532479e-20
1.096104677e-19
6.96540672e-21
1.091926918e-20
1.857961536e-20
3.216794694e-20
5.457886363e-20
8.838617961e-20
1.334539357e-19
1.831207642e-19
2.207002995e-19
1.41286376e-20
2.215468894e-20
3.768882938e-20
6.51963201e-20
1.104457331e-19
1.784643743e-19
2.687396203e-19
3.677273275e-19
4.422382862e-19
2.85745637e-20
4.481269043e-20
7.620084717e-20
1.316653135e-19
2.226225619e-19
3.587874792e-19
5.385960661e-19
7.346374032e-19
8.81354312e-19
5.759855954e-20
9.032619681e-20
1.534890863e-19
2.6482059e-19
4.46737765e-19
7.177855327e-19
1.073665086e-18
1.459211078e-18
1.745927124e-18
1.156712799e-19
1.813497706e-19
3.078661358e-19
5.302044161e-19
8.91995803e-19
1.428153635e-18
2.127617205e-18
2.880094422e-18
3.435846853e-18
2.313428869e-19
3.62515927e-19
6.146251044e-19
1.056150337e-18
1.771187514e-18
2.824448318e-18
4.188814097e-18
5.645449291e-18
6.713391979e-18
4.606246134e-19
7.212185348e-19
1.22074561e-18
2.092107197e-18
3.495667535e-18
5.549292618e-18
8.189017096e-18
1.098435115e-17
1.301798358e-17
9.127545716e-19
1.427477944e-18
2.411118091e-18
4.119202485e-18
6.854011451e-18
1.082608043e-17
1.588944053e-17
2.120522882e-17
2.504161031e-17
1.799477599e-18
2.809834999e-18
4.733858551e-18
8.057928135e-18
1.334480626e-17
2.096245523e-17
3.058744304e-17
4.060180961e-17
4.777003483e-17
3.528660709e-18
5.498734953e-18
9.23542702e-18
1.565465802e-17
2.579046283e-17
4.027042066e-17
5.839693983e-17
7.708308661e-17
9.034807352e-17
6.880921086e-18
1.069533276e-17
1.78979819e-17
3.019429959e-17
4.945828281e-17
7.673104169e-17
1.105452124e-16
1.450773268e-16
1.693892448e-16
1.334060464e-17
2.067153772e-17
3.444594323e-17
5.780212233e-17
9.408825927e-17
1.449769995e-16
2.074534623e-16
2.706577504e-16
3.147948614e-16
2.571177363e-17
3.969305876e-17
6.582078113e-17
1.098002303e-16
1.775266113e-16
2.715862787e-16
3.859202362e-16
5.00509798e-16
5.798976019e-16
4.925684349e-17
7.571026713e-17
1.248550373e-16
2.069352598e-16
3.321777849e-16
5.043941229e-16
7.116582241e-16
9.174893766e-16
1.059001436e-15
9.378708826e-17
1.434322247e-16
2.350810242e-16
3.86898259e-16
6.163624427e-16
9.287355836e-16
1.30099739e-15
1.667408177e-15
1.917484475e-15
1.774749095e-16
2.698739423e-16
4.393095766e-16
7.175907174e-16
1.134148835e-15
1.695553483e-15
2.358174056e-15
3.004817398e-15
3.44310503e-15
3.337593544e-16
5.042941258e-16
8.148172873e-16
1.320344987e-15
2.069713544e-15
3.069682196e-15
4.238952412e-15
5.370746672e-15
6.132885635e-15
6.237714589e-16
9.35872509e-16
1.50003546e-15
2.410269038e-15
3.746450117e-15
5.512223897e-15
7.558474477e-15
9.523894517e-15
1.083937709e-14
1.158544157e-15
1.724938787e-15
2.741123144e-15
4.365858938e-15
6.727972375e-15
9.820202991e-15
1.337299858e-14
1.676077386e-14
1.901554418e-14
2.13845396e-15
3.157777545e-15
4.972700839e-15
7.848335201e-15
1.198964153e-14
1.736194782e-14
2.348446982e-14
2.928320793e-14
3.312271159e-14
3.922820214e-15
5.742201967e-15
8.956934264e-15
1.400499603e-14
2.120820065e-14
3.047168862e-14
4.094836325e-14
5.080886969e-14
5.7306993e-14
7.151972385e-15
1.037323903e-14
1.60217772e-14
2.481385117e-14
3.724830214e-14
5.31078245e-14
7.091652662e-14
8.758110856e-14
9.85161252e-14
1.296010857e-14
1.861880812e-14
2.846701297e-14
4.366488869e-14
6.497591218e-14
9.19460266e-14
1.220299914e-13
1.500321477e-13
1.683363351e-13
2.334445494e-14
3.320984538e-14
5.025336603e-14
7.63367622e-14
1.12612468e-13
1.58184572e-13
2.087087888e-13
2.555135661e-13
2.860038849e-13
4.180231942e-14
5.887701579e-14
8.815979318e-14
1.326141871e-13
1.939653179e-13
2.705182263e-13
3.549174583e-13
4.327671741e-13
4.833264475e-13
7.44079017e-14
1.037474352e-13
1.537114559e-13
2.289861607e-13
3.321266585e-13
4.600209878e-13
6.003076684e-13
7.292067055e-13
8.126945098e-13
1.316446853e-13
1.817114908e-13
2.664065315e-13
3.930957208e-13
5.655248513e-13
7.781111339e-13
1.010221696e-12
1.222755107e-12
1.360093496e-12
2.314921579e-13
3.163662926e-13
4.590457911e-13
6.71048187e-13
9.578113394e-13
1.309508685e-12
1.69191956e-12
2.041021899e-12
2.266180504e-12
4.045789266e-13
5.475503933e-13
7.864949378e-13
1.139342686e-12
1.613918227e-12
2.193206527e-12
2.820792126e-12
3.392265646e-12
3.760330663e-12
7.027161825e-13
9.420865386e-13
1.339981939e-12
1.924218133e-12
2.70597382e-12
3.656218992e-12
4.682496057e-12
5.615180821e-12
6.215455183e-12
1.212894339e-12
1.611282313e-12
2.2702258e-12
3.232767143e-12
4.514810488e-12
6.067512877e-12
7.740258227e-12
9.258527236e-12
1.023587626e-11
2.079993265e-12
2.739143642e-12
3.824477324e-12
5.40249331e-12
7.495831163e-12
1.002343656e-11
1.27415167e-11
1.520757093e-11
1.679729092e-11
3.543181846e-12
4.627316712e-12
6.405147074e-12
8.979339781e-12
1.238235658e-11
1.6481571e-11
2.088513295e-11
2.488289235e-11
2.746763229e-11
5.993459026e-12
7.76570576e-12
1.066135085e-11
1.48388959e-11
2.034561083e-11
2.696766382e-11
3.408014871e-11
4.054895487e-11
4.475110624e-11
1.006322837e-11
1.294174522e-11
1.762966751e-11
2.437176793e-11
3.323851841e-11
4.389050061e-11
5.533981218e-11
6.578523227e-11
7.261508325e-11
1.67634063e-11
2.140663914e-11
2.894687601e-11
3.976215871e-11
5.396062077e-11
7.101227915e-11
8.937028364e-11
1.061913481e-10
1.172802491e-10
2.768949517e-11
3.512364751e-11
4.716549643e-11
6.439853003e-11
8.69935199e-11
1.141368892e-10
1.434312735e-10
1.704182502e-10
1.883765694e-10
4.53253604e-11
5.713169038e-11
7.621248765e-11
1.03466527e-10
1.391697407e-10
1.820944313e-10
2.285641445e-10
2.716373058e-10
3.005877755e-10
7.348203489e-11
9.206695482e-11
1.220420738e-10
1.64786464e-10
2.20751669e-10
2.881155402e-10
3.612989451e-10
4.295744068e-10
4.759204034e-10
1.179184407e-10
1.468953916e-10
1.935447076e-10
2.599695482e-10
3.46909609e-10
4.517010661e-10
5.65961711e-10
6.732418106e-10
7.46734272e-10
1.872009696e-10
2.319193069e-10
3.037846623e-10
4.059772145e-10
5.396968726e-10
7.010982763e-10
8.777029284e-10
1.044491398e-09
1.159654353e-09
2.938687202e-10
3.621308146e-10
4.716474708e-10
6.271747347e-10
8.306226859e-10
1.076490628e-09
1.346353218e-09
1.602485104e-09
1.780445547e-09
4.5598005e-10
5.589927022e-10
7.239840237e-10
9.579717568e-10
1.263918062e-09
1.633991262e-09
2.041180054e-09
2.429129396e-09
2.69987116e-09
6.991230584e-10
8.527321567e-10
1.098339143e-09
1.446136724e-09
1.900573362e-09
2.450498541e-09
3.056568589e-09
3.635451703e-09
4.040475737e-09
1.058976709e-09
1.285233606e-09
1.64634735e-09
2.15685745e-09
2.823197426e-09
3.62942454e-09
4.518581941e-09
5.368812227e-09
5.964140099e-09
1.584509338e-09
1.913612275e-09
2.437865798e-09
3.177595044e-09
4.141706235e-09
5.307245735e-09
6.592276012e-09
7.820752017e-09
8.680160455e-09
2.341895782e-09
2.81453832e-09
3.565892426e-09
4.623741975e-09
5.999794798e-09
7.660752643e-09
9.489557972e-09
1.123518776e-08
1.245351576e-08
3.41922126e-09
4.089360706e-09
5.15228485e-09
6.645047172e-09
8.582081503e-09
1.091479746e-08
1.34772948e-08
1.591658585e-08
1.761291881e-08
4.93201693e-09
5.870048184e-09
7.354251401e-09
9.432712763e-09
1.212174358e-08
1.535026285e-08
1.888530803e-08
2.223769319e-08
2.455820623e-08
7.029636033e-09
8.325920123e-09
1.037152992e-08
1.32270007e-08
1.69083909e-08
2.131190884e-08
2.611384173e-08
3.064637652e-08
3.376661567e-08
9.902428476e-09
1.167108165e-08
1.44541038e-08
1.832511728e-08
2.329585958e-08
2.921570593e-08
3.56400695e-08
4.167113133e-08
4.579752751e-08
1.378960497e-08
1.617240667e-08
1.991023173e-08
2.508907507e-08
3.17095543e-08
3.955523749e-08
4.802321623e-08
5.592486351e-08
6.129530988e-08
1.898760133e-08
2.215783219e-08
2.711449301e-08
3.395317199e-08
4.265293436e-08
5.290675743e-08
6.390791266e-08
7.410662041e-08
8.098999457e-08
2.585866428e-08
3.002464517e-08
3.651548205e-08
4.543068342e-08
5.671273063e-08
6.993252171e-08
8.402547103e-08
9.700104459e-08
1.056956185e-07
3.483929111e-08
4.024736618e-08
4.864273164e-08
6.011934247e-08
7.456249936e-08
9.13820731e-08
1.091928639e-07
1.254754352e-07
1.363061819e-07
4.644807675e-08
5.338477538e-08
6.411241452e-08
7.870519079e-08
9.696416816e-08
1.180912433e-07
1.403092971e-07
1.604744192e-07
1.737892895e-07
6.129246695e-08
7.008559283e-08
8.36313723e-08
1.019644206e-07
1.247673038e-07
1.509787392e-07
1.783503819e-07
2.030123482e-07
2.191776487e-07
8.007389409e-08
9.109232804e-08
1.079990557e-07
1.30762897e-07
1.589059294e-07
1.910402926e-07
2.243600255e-07
2.541636383e-07
2.735586876e-07
1.035907923e-07
1.172428556e-07
1.381070296e-07
1.660531466e-07
2.00392829e-07
2.39340466e-07
2.794402596e-07
3.150513554e-07
3.38062629e-07
1.327390525e-07
1.494693561e-07
1.749357984e-07
2.088687117e-07
2.503113987e-07
2.970023155e-07
3.447393136e-07
3.868344088e-07
4.138493998e-07
1.685095852e-07
1.887943773e-07
2.195488331e-07
2.603158996e-07
3.09805216e-07
3.651952038e-07
4.21438304e-07
4.70693759e-07
5.020947837e-07
2.119827978e-07
2.363239167e-07
2.730838218e-07
3.215630829e-07
3.800656085e-07
4.451211332e-07
5.107369534e-07
5.678180565e-07
6.039762234e-07
2.643199577e-07
2.932375792e-07
3.367413104e-07
3.93827829e-07
4.623175885e-07
5.380000177e-07
6.138387698e-07
6.793891274e-07
7.206586664e-07
3.267515834e-07
3.607760253e-07
4.117710327e-07
4.783622382e-07
5.578045882e-07
6.45054343e-07
7.319361161e-07
8.065676958e-07
8.532808117e-07
4.005631685e-07
4.402260678e-07
4.99456348e-07
5.764369521e-07
6.677724686e-07
7.674936682e-07
8.661955747e-07
9.50479696e-07
1.002942076e-06
4.870786883e-07
5.329038961e-07
6.010972904e-07
6.893243417e-07
7.934532891e-07
9.064994032e-07
1.017743975e-06
1.112203479e-06
1.170690546e-06
5.876424501e-07
6.401369956e-07
7.179927912e-07
8.182814093e-07
9.360493158e-07
1.063210262e-06
1.187655405e-06
1.292758164e-06
1.357512128e-06
7.035999219e-07
7.6324538e-07
8.514226585e-07
9.64532927e-07
1.09671771e-06
1.238708745e-06
1.376939458e-06
1.493093327e-06
1.564321051e-06
8.362782048e-07
9.035227675e-07
1.002629884e-06
1.129255303e-06
1.27655629e-06
1.434008933e-06
1.586530934e-06
1.714080164e-06
1.791951837e-06
9.869668074e-07
1.062218308e-06
1.17280381e-06
1.313561608e-06
1.476590694e-06
1.650045827e-06
1.817281112e-06
1.956504215e-06
2.041152783e-06
1.156899333e-06
1.240519411e-06
1.36306462e-06
1.518488132e-06
1.697763194e-06
1.88766638e-06
2.069950691e-06
2.221059673e-06
2.312580976e-06
1.347236617e-06
1.439536151e-06
1.574449542e-06
1.744982735e-06
1.940923353e-06
2.147622326e-06
2.345204424e-06
2.508345273e-06
2.606798807e-06
1.559051757e-06
1.660287619e-06
1.807901042e-06
1.993895211e-06
2.206820613e-06
2.43056482e-06
2.643607412e-06
2.818861713e-06
2.924271938e-06
1.793317359e-06
1.9036905e-06
2.064257215e-06
2.265969755e-06
2.496098855e-06
2.737040874e-06
2.965623009e-06
3.153010521e-06
3.265368617e-06
2.050895234e-06
2.17055004e-06
2.344244471e-06
2.561839571e-06
2.809292915e-06
3.067491518e-06
3.311612239e-06
3.511094265e-06
3.630360252e-06
2.332528641e-06
2.461553468e-06
2.648472517e-06
2.88202359e-06
3.146826947e-06
3.422251572e-06
3.681834595e-06
3.893317987e-06
4.019423121e-06
2.638837091e-06
2.777265856e-06
2.977431603e-06
3.226925193e-06
3.50901455e-06
3.801550907e-06
4.076450105e-06
4.29979173e-06
4.432641089e-06
2.970313645e-06
3.118128319e-06
3.33149189e-06
3.596832834e-06
3.896060517e-06
4.20551708e-06
4.49552255e-06
4.730534063e-06
4.870009237e-06
3.327324553e-06
3.484458419e-06
3.710904817e-06
3.991922396e-06
4.308064083e-06
4.634179279e-06
4.939023837e-06
5.185476619e-06
5.331438392e-06
3.710111041e-06
3.876452535e-06
4.115806229e-06
4.41226111e-06
4.745023562e-06
5.08747355e-06
5.406839746e-06
5.664470236e-06
5.816761318e-06
4.118792953e-06
4.294189953e-06
4.546220982e-06
4.857812671e-06
5.206841905e-06
5.565248842e-06
5.898776836e-06
6.167294109e-06
6.325747279e-06
4.553373973e-06
4.737638323e-06
5.002068659e-06
5.328443045e-06
5.693332254e-06
6.067271487e-06
6.414563967e-06
6.693649653e-06
6.858077251e-06
5.013748112e-06
5.206660258e-06
5.483170231e-06
5.823927131e-06
6.204224567e-06
6.593232203e-06
6.953861647e-06
7.243179073e-06
7.413382977e-06
5.499707218e-06
5.701020829e-06
5.98925549e-06
6.343956021e-06
6.739172531e-06
7.14275209e-06
7.516264707e-06
7.81545531e-06
7.991234156e-06
6.010949234e-06
6.220395738e-06
6.51997107e-06
6.888144868e-06
7.297761509e-06
7.715391827e-06
8.101317407e-06
8.410009681e-06
8.591153852e-06
6.547086991e-06
6.764379937e-06
7.074888789e-06
7.456040746e-06
7.879515269e-06
8.310654738e-06
8.708503714e-06
9.026323159e-06
9.212620125e-06
7.1076573e-06
7.332496527e-06
7.65351434e-06
8.047131369e-06
8.483905898e-06
8.928002165e-06
9.337274965e-06
9.663839341e-06
9.85507393e-06
7.692130091e-06
7.924205593e-06
8.255295605e-06
8.660852467e-06
9.110358626e-06
9.566843301e-06
9.98704133e-06
1.032196727e-05
1.05179239e-05
8.299917465e-06
8.538912913e-06
8.879630893e-06
9.296595196e-06
9.758251066e-06
1.022655999e-05
1.065718331e-05
1.100008821e-05
1.120055219e-05
8.930382492e-06
9.175978409e-06
9.525876653e-06
9.953705297e-06
1.042693548e-05
1.090650559e-05
1.134705686e-05
1.169756116e-05
1.190231983e-05
9.582847615e-06
9.834723932e-06
1.019334659e-05
1.063150535e-05
1.111573786e-05
1.160601113e-05
1.20559987e-05
1.241372787e-05
1.262257166e-05
1.025660211e-05
1.051443207e-05
1.088133414e-05
1.132929413e-05
1.182396414e-05
1.232439084e-05
1.278333131e-05
1.314791766e-05
1.336064096e-05
1.095089819e-05
1.121436862e-05
1.158911186e-05
1.204635288e-05
1.25509059e-05
1.306094727e-05
1.352836762e-05
1.389945176e-05
1.411585368e-05
1.166498041e-05
1.193378312e-05
1.231593801e-05
1.278195111e-05
1.329584543e-05
1.381497597e-05
1.429041537e-05
1.466764739e-05
1.488753236e-05
1.239808066e-05
1.267191452e-05
1.306106217e-05
1.353535172e-05
1.405806055e-05
1.458576978e-05
1.506878096e-05
1.545182139e-05
1.567499968e-05
1.314942415e-05
1.342799648e-05
1.382373028e-05
1.430581568e-05
1.483682874e-05
1.537262264e-05
1.586277301e-05
1.625129361e-05
1.647758168e-05
1.391823463e-05
1.420126227e-05
1.460318911e-05
1.509260616e-05
1.563143098e-05
1.617483308e-05
1.667170555e-05
1.706538981e-05
1.729461061e-05
1.470373897e-05
1.499094904e-05
1.539869031e-05
1.58949922e-05
1.644115505e-05
1.699170719e-05
1.749490075e-05
1.78934443e-05
1.812542745e-05
1.55051712e-05
1.579630164e-05
1.620949391e-05
1.671225195e-05
1.726529846e-05
1.78225613e-05
1.83316914e-05
1.873480223e-05
1.896938417e-05
1.632177596e-05
1.661657592e-05
1.703487137e-05
1.75436754e-05
1.810317096e-05
1.866672427e-05
1.918142298e-05
1.958882158e-05
1.982584557e-05
1.715281151e-05
1.745104152e-05
1.787410818e-05
1.838856682e-05
1.89540967e-05
1.952353941e-05
2.004345548e-05
2.045487481e-05
2.069419097e-05
1.79975522e-05
1.829898425e-05
1.872650607e-05
1.924624668e-05
1.981741601e-05
2.039236616e-05
2.091716489e-05
2.133235029e-05
2.157381555e-05
1.885529058e-05
1.915970806e-05
1.959138482e-05
2.011605338e-05
2.069248693e-05
2.127258144e-05
2.180194444e-05
2.222065347e-05
2.246413145e-05
1.972533907e-05
2.003253665e-05
2.046808369e-05
2.099734453e-05
2.157868639e-05
2.216358066e-05
2.269720559e-05
2.311920777e-05
2.336456868e-05
2.060703132e-05
2.09168147e-05
2.135596266e-05
2.188949802e-05
2.247541115e-05
2.306477867e-05
2.360237879e-05
2.402745534e-05
2.427457583e-05
2.149972318e-05
2.181190886e-05
2.225440323e-05
2.279191279e-05
2.338207848e-05
2.39756103e-05
2.451691405e-05
2.494485756e-05
2.519362053e-05
2.240279351e-05
2.271720838e-05
2.316280906e-05
2.370400939e-05
2.429812669e-05
2.489553084e-05
2.544028135e-05
2.587089538e-05
2.61211898e-05
2.331564459e-05
2.363212562e-05
2.40806064e-05
2.462523033e-05
2.522301538e-05
2.582401625e-05
2.637197081e-05
2.680506955e-05
2.705679024e-05
2.423770241e-05
2.455609625e-05
2.500724427e-05
2.555504026e-05
2.615622561e-05
2.676056331e-05
2.731149282e-05
2.774690066e-05
2.79999481e-05
2.516841678e-05
2.548857931e-05
2.594219446e-05
2.649292594e-05
2.709725987e-05
2.770468957e-05
2.825837796e-05
2.869592909e-05
2.895020919e-05
2.610726118e-05
2.642905713e-05
2.688495149e-05
2.743839615e-05
2.804564195e-05
2.865593319e-05
2.921217685e-05
2.965171485e-05
2.990713871e-05
2.705373257e-05
2.737703506e-05
2.783503232e-05
2.839098144e-05
2.900091667e-05
2.961385269e-05
3.017245993e-05
3.061383732e-05
3.087032105e-05
2.800735102e-05
2.833204115e-05
2.8791976e-05
2.935023376e-05
2.996264958e-05
3.057802666e-05
3.113881709e-05
3.158189494e-05
3.18393594e-05
2.896765927e-05
2.929362571e-05
2.975534325e-05
3.031572607e-05
3.093042651e-05
3.154805329e-05
3.21108573e-05
3.255550481e-05
3.281387539e-05
2.993422222e-05
3.026136076e-05
3.072471597e-05
3.128705183e-05
3.19038531e-05
3.252354996e-05
3.308820814e-05
3.353430225e-05
3.379350866e-05
3.090662631e-05
3.123483948e-05
3.169969664e-05
3.226382444e-05
3.288255429e-05
3.35041527e-05
3.407051532e-05
3.451794029e-05
3.477791636e-05
3.188447886e-05
3.221367554e-05
3.267990771e-05
3.324567668e-05
3.386617373e-05
3.448951563e-05
3.505744213e-05
3.550608918e-05
3.576677264e-05
3.286740744e-05
3.319750249e-05
3.366499098e-05
3.423226003e-05
3.485437317e-05
3.54793104e-05
3.604866887e-05
3.649843581e-05
3.675976808e-05
3.385505913e-05
3.4185973e-05
3.465460688e-05
3.522324408e-05
3.584683185e-05
3.64732256e-05
3.70438923e-05
3.749468315e-05
3.775660918e-05
3.484709977e-05
3.517875819e-05
3.564843384e-05
3.621831582e-05
3.684324585e-05
3.747096609e-05
3.804282501e-05
3.849454968e-05
3.875701773e-05
3.584321324e-05
3.617554689e-05
3.664616751e-05
3.721717898e-05
3.784332745e-05
3.847225243e-05
3.904519482e-05
3.949776879e-05
3.976073024e-05
3.684310072e-05
3.71760449e-05
3.764752012e-05
3.821955335e-05
3.884680446e-05
3.947682022e-05
4.005074418e-05
4.050408816e-05
4.076749739e-05
3.784647994e-05
3.817997428e-05
3.865221973e-05
3.92251741e-05
3.985341959e-05
4.048441948e-05
4.105922956e-05
4.15132692e-05
4.177708337e-05
3.885308444e-05
3.918707262e-05
3.966000956e-05
4.023379108e-05
4.086292978e-05
4.149481401e-05
4.207042084e-05
4.252508646e-05
4.278926537e-05
3.986266282e-05
4.019709233e-05
4.06706473e-05
4.124516821e-05
4.187510554e-05
4.250778081e-05
4.30841007e-05
4.353932699e-05
4.380383296e-05
4.087497807e-05
4.120979994e-05
4.168390439e-05
4.225908277e-05
4.28897304e-05
4.352310945e-05
4.410006407e-05
4.455578986e-05
4.482058753e-05
4.188980685e-05
4.222497542e-05
4.269956542e-05
4.327532479e-05
4.390660021e-05
4.454060144e-05
4.511811751e-05
4.55742855e-05
4.583934175e-05
4.290693881e-05
4.324241151e-05
4.371742743e-05
4.429369645e-05
4.492552257e-05
4.556006973e-05
4.613807869e-05
4.659463522e-05
4.6859919e-05
4.392617594e-05
4.42619131e-05
4.473729933e-05
4.531401139e-05
4.594631625e-05
4.658133807e-05
4.71597758e-05
4.761667065e-05
4.788215286e-05
4.494733192e-05
4.528329655e-05
4.575900124e-05
4.633609422e-05
4.696881061e-05
4.760424051e-05
4.818304701e-05
4.864023318e-05
4.890588658e-05
4.597023151e-05
4.630638916e-05
4.678236396e-05
4.735977988e-05
4.799284507e-05
4.862862081e-05
4.920774001e-05
4.96651735e-05
4.993097256e-05
4.699470997e-05
4.733102851e-05
4.780722833e-05
4.838491312e-05
4.901826852e-05
4.965433197e-05
5.023371142e-05
5.069135105e-05
5.095727187e-05
4.802061243e-05
4.835706192e-05
4.883344473e-05
4.941134792e-05
5.004493885e-05
5.068123566e-05
5.126082631e-05
5.171863354e-05
5.198465373e-05
4.904779338e-05
4.938434592e-05
4.98608725e-05
5.0438947e-05
5.107272236e-05
5.170920175e-05
5.22889577e-05
5.274689644e-05
5.3012995e-05
5.00761161e-05
5.041274565e-05
5.088937943e-05
5.146758125e-05
5.210149331e-05
5.273810776e-05
5.331798603e-05
5.377602244e-05
5.404217968e-05
5.110545207e-05
5.144213435e-05
5.191884116e-05
5.24971292e-05
5.313113328e-05
5.37678383e-05
5.434779858e-05
5.48059009e-05
5.507209832e-05
5.213568048e-05
5.247239277e-05
5.294914065e-05
5.352747645e-05
5.416153068e-05
5.479828449e-05
5.537828891e-05
5.583642723e-05
5.610264738e-05
5.316668766e-05
5.350340869e-05
5.398016766e-05
5.455851507e-05
5.519258009e-05
5.582934335e-05
5.640935615e-05
5.68675022e-05
5.713372855e-05
5.419836646e-05
5.453507623e-05
5.501181808e-05
5.559014303e-05
5.622418163e-05
5.686091705e-05
5.744090426e-05
5.789903111e-05
5.816524789e-05
5.523061565e-05
5.556729523e-05
5.604399323e-05
5.662226335e-05
5.725624008e-05
5.789291203e-05
5.847284106e-05
5.893092278e-05
5.919711475e-05
5.626333905e-05
5.659997038e-05
5.707659895e-05
5.765478318e-05
5.828866386e-05
5.892523783e-05
5.950507697e-05
5.99630882e-05
6.02292404e-05
5.729644467e-05
5.763301028e-05
5.81095446e-05
5.868761264e-05
5.932136378e-05
5.99578057e-05
6.053752343e-05
6.09954388e-05
6.126153618e-05
5.83298436e-05
5.866632626e-05
5.914274173e-05
5.97206634e-05
6.035425134e-05
6.099052672e-05
6.157009083e-05
6.20278842e-05
6.229391114e-05
5.936344861e-05
5.969983087e-05
6.017610245e-05
6.075384674e-05
6.138723662e-05
6.202330933e-05
6.260268575e-05
6.306032918e-05
6.332626887e-05
6.039717231e-05
6.073343591e-05
6.12095372e-05
6.178707115e-05
6.242022546e-05
6.305605619e-05
6.363520737e-05
6.409266978e-05
6.435850333e-05
6.143092489e-05
6.176704994e-05
6.224295198e-05
6.282023906e-05
6.345311577e-05
6.408865991e-05
6.466754275e-05
6.512478806e-05
6.53904934e-05
6.2464611e-05
6.280057497e-05
6.327624467e-05
6.38532427e-05
6.448579277e-05
6.512099764e-05
6.569956074e-05
6.61565455e-05
6.642209585e-05
6.349812595e-05
6.383390224e-05
6.43093003e-05
6.488595879e-05
6.551812285e-05
6.615292415e-05
6.673110414e-05
6.718777446e-05
6.74531364e-05
6.453135068e-05
6.486690687e-05
6.534198508e-05
6.591824164e-05
6.654994588e-05
6.718426301e-05
6.776197998e-05
6.821826747e-05
6.848339847e-05
6.556414546e-05
6.5899441e-05
6.637413883e-05
6.694991473e-05
6.758106547e-05
6.821479566e-05
6.879194729e-05
6.92477641e-05
6.951260936e-05
6.659634203e-05
6.693132531e-05
6.740556556e-05
6.798076007e-05
6.861123708e-05
6.924424807e-05
6.982070235e-05
7.027593493e-05
7.054042354e-05
6.762773384e-05
6.796233864e-05
6.843602204e-05
6.901050545e-05
6.964015371e-05
7.027227473e-05
7.084786106e-05
7.130236261e-05
7.156640284e-05
6.86580643e-05
6.89922053e-05
6.946520397e-05
7.003880911e-05
7.066742878e-05
7.129843973e-05
7.18729383e-05
7.232651972e-05
7.258999347e-05
6.968701265e-05
7.002058016e-05
7.04927297e-05
7.106524184e-05
7.169257643e-05
7.232219507e-05
7.289532437e-05
7.334774374e-05
7.361050007e-05
7.071417746e-05
7.104703114e-05
7.151812143e-05
7.208926641e-05
7.271498899e-05
7.334285624e-05
7.39142587e-05
7.436520932e-05
7.462705709e-05
7.173905766e-05
7.207101926e-05
7.254078381e-05
7.311021456e-05
7.373391211e-05
7.43595754e-05
7.492880144e-05
7.537789847e-05
7.563859831e-05
7.276103118e-05
7.309187639e-05
7.355998039e-05
7.412726184e-05
7.474841799e-05
7.537131305e-05
7.59378037e-05
7.638456989e-05
7.664382552e-05
7.37793315e-05
7.410878099e-05
7.457480827e-05
7.513940103e-05
7.575737747e-05
7.637680902e-05
7.693987774e-05
7.738372861e-05
7.764117803e-05
7.479302272e-05
7.51207325e-05
7.558417174e-05
7.614541497e-05
7.675943229e-05
7.73745544e-05
7.79333688e-05
7.837359802e-05
7.862880495e-05
7.580097374e-05
7.612652535e-05
7.658675603e-05
7.714385029e-05
7.775296904e-05
7.836276605e-05
7.891633069e-05
7.935209663e-05
7.960454278e-05
7.680183283e-05
7.712472372e-05
7.758100251e-05
7.813299344e-05
7.873609665e-05
7.933936619e-05
7.98865077e-05
8.031682231e-05
8.05659012e-05
7.779400401e-05
7.811363864e-05
7.856508726e-05
7.911085142e-05
7.970662996e-05
8.03019695e-05
8.084132574e-05
8.126504708e-05
8.151006047e-05
7.877562688e-05
7.909130948e-05
7.953690495e-05
8.00751392e-05
8.066208183e-05
8.124788074e-05
8.177789573e-05
8.219372594e-05
8.243388361e-05
7.974456213e-05
8.005549181e-05
8.049406061e-05
8.10232767e-05
8.159966665e-05
8.217410583e-05
8.269303261e-05
8.309952271e-05
8.333394675e-05
8.069838496e-05
8.100365426e-05
8.143387163e-05
8.195239783e-05
8.251631798e-05
8.307737917e-05
8.358329246e-05
8.397885583e-05
8.420659033e-05
8.163438885e-05
8.193298673e-05
8.235338271e-05
8.285937426e-05
8.340872293e-05
8.395420973e-05
8.444503022e-05
8.482796602e-05
8.504799298e-05
8.254960225e-05
8.284042239e-05
8.324939594e-05
8.374085591e-05
8.427337502e-05
8.48009472e-05
8.527447892e-05
8.564300646e-05
8.585426842e-05
8.344082007e-05
8.372267557e-05
8.411851786e-05
8.459332986e-05
8.510664661e-05
8.561386888e-05
8.606785024e-05
8.642015456e-05
8.662158396e-05
8.430465198e-05
8.457629683e-05
8.49572246e-05
8.541319788e-05
8.590488058e-05
8.638928572e-05
8.682145392e-05
8.715574208e-05
8.734629682e-05
8.513758808e-05
8.539774581e-05
8.576194477e-05
8.619687179e-05
8.666449919e-05
8.712366465e-05
8.753183198e-05
8.784639828e-05
8.802510217e-05
8.593608194e-05
8.618348106e-05
8.652915896e-05
8.694088409e-05
8.738212646e-05
8.781376191e-05
8.819590092e-05
8.848919817e-05
8.865518439e-05
8.669664932e-05
8.693006473e-05
8.725551234e-05
8.76420096e-05
8.805471837e-05
8.845676016e-05
8.881109347e-05
8.90818063e-05
8.9234361e-05
8.741597947e-05
8.763427827e-05
8.793793587e-05
8.829739193e-05
8.867969328e-05
8.905040055e-05
8.937548951e-05
8.962260458e-05
8.97612074e-05
8.809105446e-05
8.829324383e-05
8.857376962e-05
8.890466733e-05
8.925505376e-05