/*--------------------------------*- C++ -*----------------------------------*\
| =========                 |                                                 |
| \\      /  F ield         | OpenFOAM: The Open Source CFD Toolbox           |
|  \\    /   O peration     | Version:  2212                                  |
|   \\  /    A nd           | Website:  www.openfoam.com                      |
|    \\/     M anipulation  |                                                 |
\*---------------------------------------------------------------------------*/
FoamFile
{
    version     2.0;
    format      ascii;
    arch        "LSB;label=32;scalar=64";
    class       volScalarField;
    location    "20.00000000";
    object      CO_0;
}
// * * * * * * * * * * * * * * * * * * * * * * * * * * * * * * * * * * * * * //

dimensions      [0 0 0 0 0 0 0];

internalField   nonuniform List<scalar> 
3000
(
1.580946356e-30
1.961046193e-30
2.568774711e-30
3.440386047e-30
4.613069332e-30
6.100280759e-30
7.844481706e-30
9.637315747e-30
1.100449973e-29
6.662337088e-30
8.325146841e-30
1.098361299e-29
1.480414082e-29
1.998680244e-29
2.673126189e-29
3.516486361e-29
4.513817873e-29
5.492799579e-29
1.716770299e-29
2.172431444e-29
2.908675991e-29
3.987363194e-29
5.497184936e-29
7.553961723e-29
1.0277398e-28
1.368231409e-28
1.702783908e-28
3.751347493e-29
4.824655526e-29
6.592893586e-29
9.262269705e-29
1.314670161e-28
1.867268839e-28
2.62839364e-28
3.594760962e-28
4.507349992e-28
7.628688813e-29
1.000761471e-28
1.402257142e-28
2.027950339e-28
2.971127807e-28
4.357326217e-28
6.302102535e-28
8.740359296e-28
1.093119744e-27
1.502516145e-28
2.014328551e-28
2.899759171e-28
4.320535378e-28
6.52455981e-28
9.833044001e-28
1.449823343e-27
2.022869785e-27
2.516342049e-27
2.929749044e-28
4.015704584e-28
5.937301224e-28
9.09746354e-28
1.410579279e-27
2.171743238e-27
3.243123276e-27
4.53357206e-27
5.602308507e-27
5.717730086e-28
8.004081154e-28
1.212877716e-27
1.904642019e-27
3.018007993e-27
4.72237466e-27
7.114456299e-27
9.96382868e-27
1.232155998e-26
1.122770509e-27
1.60199497e-27
2.480268917e-27
3.975397985e-27
6.406827119e-27
1.013993982e-26
1.535036139e-26
2.147487543e-26
2.643849335e-26
2.222055494e-27
3.223408277e-27
5.081718025e-27
8.280856584e-27
1.351997761e-26
2.157222086e-26
3.275438621e-26
4.577341656e-26
5.621100733e-26
4.431632857e-27
6.5191725e-27
1.043146257e-26
1.722320396e-26
2.839893996e-26
4.55775072e-26
6.933356361e-26
9.679914462e-26
1.186544836e-25
8.897872661e-27
1.324143647e-26
2.144443058e-26
3.577451146e-26
5.943229049e-26
9.57869739e-26
1.458904604e-25
2.035119436e-25
2.491091221e-25
1.796330297e-26
2.698605765e-26
4.41282102e-26
7.421670438e-26
1.240053768e-25
2.00480947e-25
3.055896833e-25
4.259802069e-25
5.208480995e-25
3.642060259e-26
5.513597338e-26
9.086036696e-26
1.537926272e-25
2.581027685e-25
4.182470335e-25
6.378661207e-25
8.886199465e-25
1.085572522e-24
7.40848783e-26
1.128554587e-25
1.871368834e-25
3.183585706e-25
5.361247149e-25
8.703022377e-25
1.32777149e-24
1.848785097e-24
2.256956727e-24
1.510712932e-25
2.312982899e-25
3.854616153e-25
6.583964448e-25
1.111754766e-24
1.807174129e-24
2.757771718e-24
3.838208345e-24
4.682861841e-24
3.086263563e-25
4.744770233e-25
7.939289489e-25
1.360475409e-24
2.302187321e-24
3.746150081e-24
5.717549504e-24
7.954431733e-24
9.700093752e-24
6.313585528e-25
9.739270494e-25
1.635021521e-24
2.809081428e-24
4.761607478e-24
7.754396527e-24
1.183605656e-23
1.646069207e-23
2.006430897e-23
1.29286358e-24
1.999923354e-24
3.366520095e-24
5.796146102e-24
9.838244788e-24
1.603162587e-23
2.447037794e-23
3.401947008e-23
4.145031097e-23
2.649342715e-24
4.107741442e-24
6.93001247e-24
1.195190178e-23
2.030868397e-23
3.310815985e-23
5.053252455e-23
7.022608078e-23
8.553178946e-23
5.431623019e-24
8.437893538e-24
1.426134041e-23
2.463015073e-23
4.188657672e-23
6.83055746e-23
1.04239007e-22
1.448049558e-22
1.762936185e-22
1.113874241e-23
1.733196955e-23
2.93381858e-23
5.072547195e-23
8.631901184e-23
1.40783811e-22
2.147953491e-22
2.98248728e-22
3.629452289e-22
2.284404246e-23
3.559484811e-23
6.0328243e-23
1.043999553e-22
1.777343339e-22
2.898792316e-22
4.421164899e-22
6.135552032e-22
7.462778757e-22
4.684343747e-23
7.307681139e-23
1.239845209e-22
2.147069788e-22
3.656216928e-22
5.96229787e-22
9.089150584e-22
1.260528103e-21
1.532312445e-21
9.602132916e-23
1.499493635e-22
2.546279993e-22
4.411680991e-22
7.513290931e-22
1.224838692e-21
1.866004921e-21
2.585777729e-21
3.141131201e-21
1.96711522e-22
3.07464935e-22
5.224697558e-22
9.05531841e-22
1.542028809e-21
2.512623097e-21
3.824765278e-21
5.294879598e-21
6.426772698e-21
4.026459277e-22
6.298391437e-22
1.070867697e-21
1.856305799e-21
3.160232294e-21
5.145767394e-21
7.824837061e-21
1.081948564e-20
1.311942762e-20
8.232358438e-22
1.288630008e-21
2.191867415e-21
3.79947588e-21
6.46524425e-21
1.051745893e-20
1.597250717e-20
2.205338167e-20
2.670989828e-20
1.68072194e-21
2.632430174e-21
4.478800692e-21
7.762239322e-21
1.31990288e-20
2.144606513e-20
3.25177238e-20
4.481960528e-20
5.42076094e-20
3.425228226e-21
5.367427158e-21
9.133253457e-21
1.582266931e-20
2.687936767e-20
4.360884644e-20
6.599546224e-20
9.077532509e-20
1.096104681e-19
6.965406747e-21
1.091926922e-20
1.857961543e-20
3.216794706e-20
5.457886382e-20
8.838617993e-20
1.334539361e-19
1.831207648e-19
2.207003002e-19
1.412863766e-20
2.215468903e-20
3.768882954e-20
6.519632035e-20
1.104457336e-19
1.78464375e-19
2.687396212e-19
3.677273287e-19
4.422382876e-19
2.857456382e-20
4.481269063e-20
7.620084749e-20
1.31665314e-19
2.226225628e-19
3.587874805e-19
5.385960679e-19
7.346374056e-19
8.81354315e-19
5.759855977e-20
9.032619721e-20
1.534890869e-19
2.648205911e-19
4.467377667e-19
7.177855353e-19
1.07366509e-18
1.459211084e-18
1.74592713e-18
1.156712804e-19
1.813497714e-19
3.07866137e-19
5.302044181e-19
8.919958063e-19
1.428153641e-18
2.127617213e-18
2.880094433e-18
3.435846866e-18
2.313428879e-19
3.625159285e-19
6.14625107e-19
1.056150341e-18
1.77118752e-18
2.824448329e-18
4.188814114e-18
5.645449313e-18
6.713392005e-18
4.606246155e-19
7.212185378e-19
1.220745616e-18
2.092107205e-18
3.495667549e-18
5.549292641e-18
8.189017129e-18
1.098435119e-17
1.301798363e-17
9.127545756e-19
1.42747795e-18
2.411118101e-18
4.119202502e-18
6.854011481e-18
1.082608048e-17
1.58894406e-17
2.120522891e-17
2.504161042e-17
1.799477607e-18
2.809835011e-18
4.733858571e-18
8.057928171e-18
1.334480632e-17
2.096245532e-17
3.058744318e-17
4.060180979e-17
4.777003504e-17
3.528660724e-18
5.498734978e-18
9.235427059e-18
1.565465809e-17
2.579046295e-17
4.027042085e-17
5.83969401e-17
7.708308698e-17
9.034807394e-17
6.880921117e-18
1.06953328e-17
1.789798198e-17
3.019429973e-17
4.945828304e-17
7.673104206e-17
1.105452129e-16
1.450773274e-16
1.693892456e-16
1.33406047e-17
2.067153781e-17
3.44459434e-17
5.780212261e-17
9.408825971e-17
1.449770002e-16
2.074534632e-16
2.706577517e-16
3.147948629e-16
2.571177375e-17
3.969305896e-17
6.582078147e-17
1.098002308e-16
1.775266122e-16
2.7158628e-16
3.85920238e-16
5.005098005e-16
5.798976047e-16
4.925684372e-17
7.571026752e-17
1.248550379e-16
2.069352608e-16
3.321777865e-16
5.043941252e-16
7.116582275e-16
9.174893813e-16
1.059001441e-15
9.378708872e-17
1.434322254e-16
2.350810253e-16
3.86898261e-16
6.163624457e-16
9.28735588e-16
1.300997396e-15
1.667408186e-15
1.917484484e-15
1.774749104e-16
2.698739436e-16
4.393095788e-16
7.175907209e-16
1.13414884e-15
1.695553491e-15
2.358174067e-15
3.004817413e-15
3.443105047e-15
3.33759356e-16
5.042941282e-16
8.148172914e-16
1.320344993e-15
2.069713554e-15
3.06968221e-15
4.238952432e-15
5.370746699e-15
6.132885665e-15
6.237714618e-16
9.358725134e-16
1.500035468e-15
2.41026905e-15
3.746450134e-15
5.512223922e-15
7.558474513e-15
9.523894566e-15
1.083937714e-14
1.158544162e-15
1.724938795e-15
2.741123157e-15
4.365858959e-15
6.727972407e-15
9.820203037e-15
1.337299864e-14
1.676077395e-14
1.901554427e-14
2.138453971e-15
3.15777756e-15
4.972700863e-15
7.848335239e-15
1.198964159e-14
1.73619479e-14
2.348446993e-14
2.928320808e-14
3.312271175e-14
3.922820233e-15
5.742201995e-15
8.956934309e-15
1.40049961e-14
2.120820075e-14
3.047168877e-14
4.094836346e-14
5.080886996e-14
5.730699329e-14
7.151972421e-15
1.037323908e-14
1.602177729e-14
2.48138513e-14
3.724830232e-14
5.310782477e-14
7.091652698e-14
8.758110904e-14
9.851612571e-14
1.296010864e-14
1.861880822e-14
2.846701312e-14
4.366488893e-14
6.497591252e-14
9.194602709e-14
1.22029992e-13
1.500321485e-13
1.68336336e-13
2.334445507e-14
3.320984557e-14
5.025336632e-14
7.633676264e-14
1.126124686e-13
1.581845729e-13
2.0870879e-13
2.555135676e-13
2.860038865e-13
4.180231967e-14
5.887701616e-14
8.815979372e-14
1.326141879e-13
1.93965319e-13
2.705182279e-13
3.549174605e-13
4.32767177e-13
4.833264504e-13
7.440790216e-14
1.037474359e-13
1.537114569e-13
2.289861621e-13
3.321266605e-13
4.600209907e-13
6.003076723e-13
7.292067105e-13
8.126945148e-13
1.316446862e-13
1.81711492e-13
2.664065333e-13
3.930957234e-13
5.65524855e-13
7.781111389e-13
1.010221703e-12
1.222755115e-12
1.360093504e-12
2.314921595e-13
3.163662948e-13
4.590457943e-13
6.710481917e-13
9.578113459e-13
1.309508693e-12
1.691919572e-12
2.041021913e-12
2.266180519e-12
4.045789294e-13
5.475503972e-13
7.864949435e-13
1.139342694e-12
1.613918239e-12
2.193206542e-12
2.820792146e-12
3.392265671e-12
3.760330688e-12
7.027161875e-13
9.420865455e-13
1.339981949e-12
1.924218147e-12
2.70597384e-12
3.656219018e-12
4.682496091e-12
5.615180863e-12
6.215455224e-12
1.212894348e-12
1.611282325e-12
2.270225817e-12
3.232767166e-12
4.51481052e-12
6.06751292e-12
7.740258283e-12
9.258527304e-12
1.023587633e-11
2.07999328e-12
2.739143663e-12
3.824477353e-12
5.402493349e-12
7.495831215e-12
1.002343663e-11
1.274151679e-11
1.520757104e-11
1.679729103e-11
3.543181873e-12
4.627316747e-12
6.405147122e-12
8.979339846e-12
1.238235666e-11
1.648157111e-11
2.088513309e-11
2.488289253e-11
2.746763247e-11
5.99345907e-12
7.765705818e-12
1.066135093e-11
1.4838896e-11
2.034561097e-11
2.6967664e-11
3.408014895e-11
4.054895516e-11
4.475110653e-11
1.006322844e-11
1.294174531e-11
1.762966764e-11
2.43717681e-11
3.323851863e-11
4.38905009e-11
5.533981256e-11
6.578523274e-11
7.26150837e-11
1.676340641e-11
2.140663929e-11
2.894687621e-11
3.976215897e-11
5.396062112e-11
7.101227961e-11
8.937028424e-11
1.061913488e-10
1.172802499e-10
2.768949535e-11
3.512364775e-11
4.716549676e-11
6.439853045e-11
8.699352045e-11
1.141368899e-10
1.434312744e-10
1.704182514e-10
1.883765705e-10
4.53253607e-11
5.713169077e-11
7.621248817e-11
1.034665277e-10
1.391697416e-10
1.820944324e-10
2.28564146e-10
2.716373077e-10
3.005877773e-10
7.348203537e-11
9.206695546e-11
1.220420746e-10
1.647864651e-10
2.207516703e-10
2.88115542e-10
3.612989474e-10
4.295744097e-10
4.759204063e-10
1.179184415e-10
1.468953926e-10
1.935447089e-10
2.599695499e-10
3.469096112e-10
4.517010689e-10
5.659617147e-10
6.732418152e-10
7.467342765e-10
1.872009708e-10
2.319193084e-10
3.037846643e-10
4.059772172e-10
5.39696876e-10
7.010982806e-10
8.777029342e-10
1.044491405e-09
1.15965436e-09
2.938687221e-10
3.621308171e-10
4.71647474e-10
6.271747388e-10
8.306226911e-10
1.076490635e-09
1.346353227e-09
1.602485115e-09
1.780445558e-09
4.55980053e-10
5.58992706e-10
7.239840286e-10
9.57971763e-10
1.26391807e-09
1.633991273e-09
2.041180067e-09
2.429129412e-09
2.699871175e-09
6.99123063e-10
8.527321626e-10
1.098339151e-09
1.446136733e-09
1.900573374e-09
2.450498556e-09
3.056568608e-09
3.635451727e-09
4.04047576e-09
1.058976716e-09
1.285233615e-09
1.646347361e-09
2.156857463e-09
2.823197443e-09
3.629424562e-09
4.518581969e-09
5.368812261e-09
5.964140131e-09
1.584509348e-09
1.913612288e-09
2.437865813e-09
3.177595064e-09
4.14170626e-09
5.307245766e-09
6.592276053e-09
7.820752065e-09
8.680160501e-09
2.341895797e-09
2.814538338e-09
3.565892448e-09
4.623742003e-09
5.999794832e-09
7.660752687e-09
9.489558028e-09
1.123518782e-08
1.245351582e-08
3.419221281e-09
4.089360733e-09
5.152284882e-09
6.645047211e-09
8.582081551e-09
1.091479752e-08
1.347729488e-08
1.591658595e-08
1.76129189e-08
4.932016959e-09
5.870048221e-09
7.354251445e-09
9.432712816e-09
1.212174365e-08
1.535026293e-08
1.888530813e-08
2.223769331e-08
2.455820635e-08
7.029636074e-09
8.325920173e-09
1.037152998e-08
1.322700077e-08
1.690839099e-08
2.131190895e-08
2.611384187e-08
3.064637668e-08
3.376661583e-08
9.902428531e-09
1.167108172e-08
1.445410388e-08
1.832511737e-08
2.32958597e-08
2.921570607e-08
3.564006968e-08
4.167113155e-08
4.579752771e-08
1.378960505e-08
1.617240676e-08
1.991023183e-08
2.508907519e-08
3.170955445e-08
3.955523767e-08
4.802321646e-08
5.592486379e-08
6.129531014e-08
1.898760142e-08
2.215783231e-08
2.711449315e-08
3.395317215e-08
4.265293456e-08
5.290675766e-08
6.390791296e-08
7.410662077e-08
8.098999491e-08
2.585866441e-08
3.002464532e-08
3.651548223e-08
4.543068363e-08
5.671273088e-08
6.993252201e-08
8.402547141e-08
9.700104504e-08
1.05695619e-07
3.483929127e-08
4.024736637e-08
4.864273188e-08
6.011934274e-08
7.456249968e-08
9.138207348e-08
1.091928644e-07
1.254754357e-07
1.363061824e-07
4.644807696e-08
5.338477564e-08
6.411241483e-08
7.870519114e-08
9.696416856e-08
1.180912438e-07
1.403092977e-07
1.604744199e-07
1.737892902e-07
6.129246722e-08
7.008559317e-08
8.36313727e-08
1.01964421e-07
1.247673043e-07
1.509787398e-07
1.783503826e-07
2.03012349e-07
2.191776494e-07
8.007389444e-08
9.109232847e-08
1.079990562e-07
1.307628976e-07
1.5890593e-07
1.910402933e-07
2.243600264e-07
2.541636393e-07
2.735586885e-07
1.035907927e-07
1.172428562e-07
1.381070302e-07
1.660531473e-07
2.003928297e-07
2.393404669e-07
2.794402607e-07
3.150513566e-07
3.380626301e-07
1.32739053e-07
1.494693567e-07
1.749357991e-07
2.088687125e-07
2.503113996e-07
2.970023165e-07
3.447393149e-07
3.868344102e-07
4.138494011e-07
1.685095859e-07
1.887943781e-07
2.19548834e-07
2.603159006e-07
3.098052171e-07
3.65195205e-07
4.214383055e-07
4.706937607e-07
5.020947852e-07
2.119827986e-07
2.363239176e-07
2.730838229e-07
3.215630841e-07
3.800656097e-07
4.451211347e-07
5.107369552e-07
5.678180585e-07
6.039762252e-07
2.643199586e-07
2.932375803e-07
3.367413116e-07
3.938278303e-07
4.6231759e-07
5.380000194e-07
6.138387719e-07
6.793891296e-07
7.206586684e-07
3.267515846e-07
3.607760266e-07
4.117710341e-07
4.783622398e-07
5.5780459e-07
6.45054345e-07
7.319361184e-07
8.065676983e-07
8.53280814e-07
4.005631699e-07
4.402260694e-07
4.994563496e-07
5.764369539e-07
6.677724706e-07
7.674936705e-07
8.661955773e-07
9.504796989e-07
1.002942079e-06
4.870786899e-07
5.329038979e-07
6.010972923e-07
6.893243437e-07
7.934532913e-07
9.064994057e-07
1.017743978e-06
1.112203482e-06
1.170690549e-06
5.876424519e-07
6.401369977e-07
7.179927934e-07
8.182814116e-07
9.360493184e-07
1.063210265e-06
1.187655408e-06
1.292758168e-06
1.357512131e-06
7.03599924e-07
7.632453823e-07
8.514226609e-07
9.645329296e-07
1.096717713e-06
1.238708749e-06
1.376939462e-06
1.493093331e-06
1.564321054e-06
8.362782071e-07
9.035227702e-07
1.002629887e-06
1.129255306e-06
1.276556294e-06
1.434008937e-06
1.586530938e-06
1.714080168e-06
1.791951841e-06
9.8696681e-07
1.062218311e-06
1.172803813e-06
1.313561612e-06
1.476590698e-06
1.650045831e-06
1.817281117e-06
1.95650422e-06
2.041152787e-06
1.156899336e-06
1.240519415e-06
1.363064624e-06
1.518488136e-06
1.697763198e-06
1.887666384e-06
2.069950696e-06
2.221059678e-06
2.31258098e-06
1.347236621e-06
1.439536155e-06
1.574449547e-06
1.744982739e-06
1.940923358e-06
2.147622331e-06
2.34520443e-06
2.508345279e-06
2.606798812e-06
1.559051761e-06
1.660287624e-06
1.807901047e-06
1.993895216e-06
2.206820618e-06
2.430564825e-06
2.643607417e-06
2.818861719e-06
2.924271944e-06
1.793317363e-06
1.903690505e-06
2.064257221e-06
2.26596976e-06
2.496098861e-06
2.73704088e-06
2.965623015e-06
3.153010528e-06
3.265368623e-06
2.050895239e-06
2.170550046e-06
2.344244476e-06
2.561839577e-06
2.809292921e-06
3.067491524e-06
3.311612246e-06
3.511094272e-06
3.630360258e-06
2.332528647e-06
2.461553474e-06
2.648472523e-06
2.882023596e-06
3.146826953e-06
3.422251579e-06
3.681834603e-06
3.893317995e-06
4.019423128e-06
2.638837097e-06
2.777265862e-06
2.977431609e-06
3.2269252e-06
3.509014557e-06
3.801550914e-06
4.076450113e-06
4.299791739e-06
4.432641097e-06
2.970313651e-06
3.118128326e-06
3.331491898e-06
3.596832841e-06
3.896060524e-06
4.205517088e-06
4.495522559e-06
4.730534072e-06
4.870009246e-06
3.32732456e-06
3.484458426e-06
3.710904825e-06
3.991922404e-06
4.308064091e-06
4.634179287e-06
4.939023846e-06
5.185476629e-06
5.331438401e-06
3.710111048e-06
3.876452543e-06
4.115806237e-06
4.412261119e-06
4.74502357e-06
5.087473559e-06
5.406839756e-06
5.664470246e-06
5.816761327e-06
4.118792961e-06
4.294189962e-06
4.546220991e-06
4.857812679e-06
5.206841914e-06
5.565248851e-06
5.898776846e-06
6.167294119e-06
6.325747289e-06
4.553373981e-06
4.737638332e-06
5.002068668e-06
5.328443054e-06
5.693332263e-06
6.067271497e-06
6.414563977e-06
6.693649664e-06
6.85807726e-06
5.01374812e-06
5.206660267e-06
5.483170241e-06
5.823927141e-06
6.204224577e-06
6.593232212e-06
6.953861657e-06
7.243179084e-06
7.413382987e-06
5.499707226e-06
5.701020839e-06
5.9892555e-06
6.343956031e-06
6.739172541e-06
7.1427521e-06
7.516264718e-06
7.815455322e-06
7.991234167e-06
6.010949243e-06
6.220395749e-06
6.51997108e-06
6.888144878e-06
7.297761519e-06
7.715391837e-06
8.101317418e-06
8.410009693e-06
8.591153863e-06
6.547087001e-06
6.764379948e-06
7.074888799e-06
7.456040757e-06
7.879515279e-06
8.310654749e-06
8.708503726e-06
9.026323171e-06
9.212620136e-06
7.10765731e-06
7.332496539e-06
7.653514351e-06
8.04713138e-06
8.483905909e-06
8.928002176e-06
9.337274978e-06
9.663839354e-06
9.855073941e-06
7.692130102e-06
7.924205605e-06
8.255295617e-06
8.660852478e-06
9.110358637e-06
9.566843312e-06
9.987041343e-06
1.032196728e-05
1.051792391e-05
8.299917476e-06
8.538912925e-06
8.879630905e-06
9.296595208e-06
9.758251077e-06
1.022656001e-05
1.065718332e-05
1.100008823e-05
1.120055221e-05
8.930382504e-06
9.175978422e-06
9.525876666e-06
9.953705309e-06
1.04269355e-05
1.090650561e-05
1.134705688e-05
1.169756117e-05
1.190231984e-05
9.582847627e-06
9.834723944e-06
1.01933466e-05
1.063150536e-05
1.111573787e-05
1.160601114e-05
1.205599871e-05
1.241372789e-05
1.262257167e-05
1.025660213e-05
1.051443208e-05
1.088133415e-05
1.132929414e-05
1.182396416e-05
1.232439085e-05
1.278333132e-05
1.314791768e-05
1.336064097e-05
1.09508982e-05
1.121436863e-05
1.158911187e-05
1.20463529e-05
1.255090591e-05
1.306094728e-05
1.352836764e-05
1.389945178e-05
1.411585369e-05
1.166498042e-05
1.193378313e-05
1.231593802e-05
1.278195113e-05
1.329584545e-05
1.381497598e-05
1.429041539e-05
1.46676474e-05
1.488753237e-05
1.239808067e-05
1.267191453e-05
1.306106219e-05
1.353535174e-05
1.405806056e-05
1.458576979e-05
1.506878097e-05
1.545182141e-05
1.56749997e-05
1.314942417e-05
1.342799649e-05
1.382373029e-05
1.430581569e-05
1.483682875e-05
1.537262266e-05
1.586277302e-05
1.625129362e-05
1.64775817e-05
1.391823464e-05
1.420126228e-05
1.460318912e-05
1.509260617e-05
1.563143099e-05
1.61748331e-05
1.667170556e-05
1.706538982e-05
1.729461062e-05
1.470373898e-05
1.499094905e-05
1.539869032e-05
1.589499221e-05
1.644115507e-05
1.699170721e-05
1.749490076e-05
1.789344431e-05
1.812542747e-05
1.550517121e-05
1.579630166e-05
1.620949392e-05
1.671225196e-05
1.726529848e-05
1.782256132e-05
1.833169141e-05
1.873480225e-05
1.896938418e-05
1.632177598e-05
1.661657594e-05
1.703487138e-05
1.754367542e-05
1.810317098e-05
1.866672428e-05
1.918142299e-05
1.95888216e-05
1.982584558e-05
1.715281153e-05
1.745104154e-05
1.78741082e-05
1.838856683e-05
1.895409671e-05
1.952353942e-05
2.00434555e-05
2.045487483e-05
2.069419099e-05
1.799755222e-05
1.829898426e-05
1.872650609e-05
1.924624669e-05
1.981741602e-05
2.039236618e-05
2.091716491e-05
2.133235031e-05
2.157381556e-05
1.88552906e-05
1.915970807e-05
1.959138483e-05
2.011605339e-05
2.069248694e-05
2.127258145e-05
2.180194446e-05
2.222065349e-05
2.246413146e-05
1.972533909e-05
2.003253667e-05
2.046808371e-05
2.099734455e-05
2.157868641e-05
2.216358068e-05
2.269720561e-05
2.311920779e-05
2.33645687e-05
2.060703133e-05
2.091681472e-05
2.135596268e-05
2.188949803e-05
2.247541116e-05
2.306477869e-05
2.36023788e-05
2.402745536e-05
2.427457585e-05
2.14997232e-05
2.181190887e-05
2.225440324e-05
2.27919128e-05
2.338207849e-05
2.397561032e-05
2.451691407e-05
2.494485758e-05
2.519362054e-05
2.240279352e-05
2.271720839e-05
2.316280908e-05
2.37040094e-05
2.42981267e-05
2.489553085e-05
2.544028137e-05
2.58708954e-05
2.612118981e-05
2.33156446e-05
2.363212563e-05
2.408060642e-05
2.462523035e-05
2.522301539e-05
2.582401626e-05
2.637197083e-05
2.680506957e-05
2.705679026e-05
2.423770243e-05
2.455609626e-05
2.500724428e-05
2.555504028e-05
2.615622562e-05
2.676056333e-05
2.731149284e-05
2.774690068e-05
2.799994812e-05
2.516841679e-05
2.548857932e-05
2.594219448e-05
2.649292596e-05
2.709725988e-05
2.770468958e-05
2.825837797e-05
2.869592911e-05
2.89502092e-05
2.610726119e-05
2.642905714e-05
2.688495151e-05
2.743839617e-05
2.804564196e-05
2.86559332e-05
2.921217687e-05
2.965171487e-05
2.990713873e-05
2.705373258e-05
2.737703507e-05
2.783503233e-05
2.839098145e-05
2.900091668e-05
2.96138527e-05
3.017245995e-05
3.061383734e-05
3.087032107e-05
2.800735103e-05
2.833204117e-05
2.879197601e-05
2.935023377e-05
2.996264959e-05
3.057802667e-05
3.113881711e-05
3.158189496e-05
3.183935941e-05
2.896765929e-05
2.929362573e-05
2.975534327e-05
3.031572609e-05
3.093042652e-05
3.154805331e-05
3.211085732e-05
3.255550483e-05
3.28138754e-05
2.993422224e-05
3.026136078e-05
3.072471599e-05
3.128705185e-05
3.190385311e-05
3.252354998e-05
3.308820816e-05
3.353430227e-05
3.379350867e-05
3.090662632e-05
3.123483949e-05
3.169969665e-05
3.226382446e-05
3.288255431e-05
3.350415271e-05
3.407051534e-05
3.451794031e-05
3.477791638e-05
3.188447887e-05
3.221367556e-05
3.267990773e-05
3.324567669e-05
3.386617375e-05
3.448951564e-05
3.505744214e-05
3.55060892e-05
3.576677265e-05
3.286740746e-05
3.319750251e-05
3.366499099e-05
3.423226005e-05
3.485437318e-05
3.547931042e-05
3.604866889e-05
3.649843582e-05
3.67597681e-05
3.385505914e-05
3.418597302e-05
3.46546069e-05
3.52232441e-05
3.584683186e-05
3.647322561e-05
3.704389232e-05
3.749468317e-05
3.77566092e-05
3.484709978e-05
3.517875821e-05
3.564843385e-05
3.621831584e-05
3.684324586e-05
3.74709661e-05
3.804282503e-05
3.84945497e-05
3.875701774e-05
3.584321325e-05
3.617554691e-05
3.664616753e-05
3.7217179e-05
3.784332746e-05
3.847225245e-05
3.904519484e-05
3.949776881e-05
3.976073026e-05
3.684310074e-05
3.717604492e-05
3.764752013e-05
3.821955337e-05
3.884680448e-05
3.947682023e-05
4.00507442e-05
4.050408818e-05
4.07674974e-05
3.784647996e-05
3.81799743e-05
3.865221974e-05
3.922517411e-05
3.985341961e-05
4.048441949e-05
4.105922958e-05
4.151326922e-05
4.177708338e-05
3.885308445e-05
3.918707264e-05
3.966000958e-05
4.023379109e-05
4.086292979e-05
4.149481402e-05
4.207042085e-05
4.252508647e-05
4.278926538e-05
3.986266283e-05
4.019709235e-05
4.067064731e-05
4.124516822e-05
4.187510556e-05
4.250778083e-05
4.308410071e-05
4.353932701e-05
4.380383297e-05
4.087497808e-05
4.120979995e-05
4.168390441e-05
4.225908278e-05
4.288973042e-05
4.352310946e-05
4.410006408e-05
4.455578987e-05
4.482058754e-05
4.188980686e-05
4.222497543e-05
4.269956543e-05
4.327532481e-05
4.390660022e-05
4.454060145e-05
4.511811753e-05
4.557428551e-05
4.583934176e-05
4.290693883e-05
4.324241153e-05
4.371742745e-05
4.429369646e-05
4.492552258e-05
4.556006974e-05
4.613807871e-05
4.659463524e-05
4.685991901e-05
4.392617595e-05
4.426191311e-05
4.473729934e-05
4.53140114e-05
4.594631626e-05
4.658133809e-05
4.715977581e-05
4.761667067e-05
4.788215287e-05
4.494733193e-05
4.528329657e-05
4.575900126e-05
4.633609423e-05
4.696881063e-05
4.760424052e-05
4.818304703e-05
4.86402332e-05
4.890588659e-05
4.597023153e-05
4.630638918e-05
4.678236397e-05
4.73597799e-05
4.799284508e-05
4.862862082e-05
4.920774003e-05
4.966517352e-05
4.993097257e-05
4.699470998e-05
4.733102852e-05
4.780722834e-05
4.838491313e-05
4.901826854e-05
4.965433198e-05
5.023371144e-05
5.069135107e-05
5.095727189e-05
4.802061244e-05
4.835706194e-05
4.883344474e-05
4.941134793e-05
5.004493886e-05
5.068123567e-05
5.126082632e-05
5.171863356e-05
5.198465374e-05
4.904779339e-05
4.938434594e-05
4.986087252e-05
5.043894701e-05
5.107272238e-05
5.170920177e-05
5.228895772e-05
5.274689646e-05
5.301299502e-05
5.007611611e-05
5.041274567e-05
5.088937944e-05
5.146758126e-05
5.210149332e-05
5.273810777e-05
5.331798604e-05
5.377602245e-05
5.40421797e-05
5.110545208e-05
5.144213437e-05
5.191884117e-05
5.249712922e-05
5.313113329e-05
5.376783831e-05
5.43477986e-05
5.480590092e-05
5.507209833e-05
5.213568049e-05
5.247239279e-05
5.294914066e-05
5.352747646e-05
5.41615307e-05
5.479828451e-05
5.537828893e-05
5.583642725e-05
5.610264739e-05
5.316668767e-05
5.35034087e-05
5.398016768e-05
5.455851508e-05
5.51925801e-05
5.582934336e-05
5.640935616e-05
5.686750221e-05
5.713372856e-05
5.419836647e-05
5.453507624e-05
5.50118181e-05
5.559014304e-05
5.622418164e-05
5.686091706e-05
5.744090428e-05
5.789903113e-05
5.81652479e-05
5.523061566e-05
5.556729524e-05
5.604399325e-05
5.662226337e-05
5.725624009e-05
5.789291204e-05
5.847284108e-05
5.89309228e-05
5.919711477e-05
5.626333906e-05
5.659997039e-05
5.707659897e-05
5.765478319e-05
5.828866387e-05
5.892523784e-05
5.950507699e-05
5.996308822e-05
6.022924041e-05
5.729644468e-05
5.763301029e-05
5.810954462e-05
5.868761266e-05
5.932136379e-05
5.995780571e-05
6.053752345e-05
6.099543882e-05
6.126153619e-05
5.832984361e-05
5.866632627e-05
5.914274175e-05
5.972066341e-05
6.035425135e-05
6.099052673e-05
6.157009085e-05
6.202788421e-05
6.229391115e-05
5.936344862e-05
5.969983088e-05
6.017610246e-05
6.075384675e-05
6.138723663e-05
6.202330935e-05
6.260268577e-05
6.30603292e-05
6.332626888e-05
6.039717233e-05
6.073343592e-05
6.120953721e-05
6.178707116e-05
6.242022548e-05
6.305605621e-05
6.363520739e-05
6.409266979e-05
6.435850334e-05
6.14309249e-05
6.176704996e-05
6.2242952e-05
6.282023907e-05
6.345311579e-05
6.408865992e-05
6.466754277e-05
6.512478808e-05
6.539049341e-05
6.246461101e-05
6.280057498e-05
6.327624468e-05
6.385324272e-05
6.448579278e-05
6.512099765e-05
6.569956075e-05
6.615654552e-05
6.642209587e-05
6.349812596e-05
6.383390226e-05
6.430930031e-05
6.48859588e-05
6.551812287e-05
6.615292417e-05
6.673110416e-05
6.718777447e-05
6.745313642e-05
6.453135069e-05
6.486690689e-05
6.53419851e-05
6.591824166e-05
6.65499459e-05
6.718426302e-05
6.776198e-05
6.821826748e-05
6.848339849e-05
6.556414547e-05
6.589944101e-05
6.637413885e-05
6.694991474e-05
6.758106548e-05
6.821479567e-05
6.879194731e-05
6.924776411e-05
6.951260938e-05
6.659634204e-05
6.693132533e-05
6.740556558e-05
6.798076008e-05
6.86112371e-05
6.924424809e-05
6.982070237e-05
7.027593495e-05
7.054042356e-05
6.762773385e-05
6.796233866e-05
6.843602205e-05
6.901050546e-05
6.964015372e-05
7.027227474e-05
7.084786108e-05
7.130236262e-05
7.156640285e-05
6.865806431e-05
6.899220532e-05
6.946520398e-05
7.003880912e-05
7.06674288e-05
7.129843974e-05
7.187293831e-05
7.232651973e-05
7.258999348e-05
6.968701266e-05
7.002058018e-05
7.049272972e-05
7.106524185e-05
7.169257645e-05
7.232219509e-05
7.289532438e-05
7.334774376e-05
7.361050008e-05
7.071417747e-05
7.104703115e-05
7.151812145e-05
7.208926642e-05
7.2714989e-05
7.334285626e-05
7.391425871e-05
7.436520933e-05
7.462705711e-05
7.173905767e-05
7.207101927e-05
7.254078383e-05
7.311021457e-05
7.373391212e-05
7.435957541e-05
7.492880146e-05
7.537789849e-05
7.563859832e-05
7.276103119e-05
7.309187641e-05
7.355998041e-05
7.412726185e-05
7.4748418e-05
7.537131306e-05
7.593780372e-05
7.638456991e-05
7.664382553e-05
7.377933152e-05
7.4108781e-05
7.457480828e-05
7.513940104e-05
7.575737748e-05
7.637680903e-05
7.693987776e-05
7.738372862e-05
7.764117804e-05
7.479302274e-05
7.512073251e-05
7.558417176e-05
7.614541499e-05
7.675943231e-05
7.737455441e-05
7.793336881e-05
7.837359803e-05
7.862880497e-05
7.580097375e-05
7.612652537e-05
7.658675604e-05
7.71438503e-05
7.775296905e-05
7.836276606e-05
7.89163307e-05
7.935209665e-05
7.960454279e-05
7.680183284e-05
7.712472373e-05
7.758100253e-05
7.813299345e-05
7.873609666e-05
7.93393662e-05
7.988650772e-05
8.031682232e-05
8.056590121e-05
7.779400402e-05
7.811363865e-05
7.856508727e-05
7.911085143e-05
7.970662997e-05
8.030196951e-05
8.084132575e-05
8.126504709e-05
8.151006048e-05
7.87756269e-05
7.909130949e-05
7.953690497e-05
8.007513922e-05
8.066208185e-05
8.124788076e-05
8.177789575e-05
8.219372595e-05
8.243388362e-05
7.974456215e-05
8.005549183e-05
8.049406062e-05
8.102327671e-05
8.159966666e-05
8.217410584e-05
8.269303263e-05
8.309952272e-05
8.333394676e-05
8.069838497e-05
8.100365428e-05
8.143387164e-05
8.195239785e-05
8.2516318e-05
8.307737919e-05
8.358329247e-05
8.397885585e-05
8.420659034e-05
8.163438887e-05
8.193298674e-05
8.235338272e-05
8.285937427e-05
8.340872294e-05
8.395420974e-05
8.444503023e-05
8.482796604e-05
8.504799299e-05
8.254960226e-05
8.28404224e-05
8.324939595e-05
8.374085592e-05
8.427337503e-05
8.480094721e-05
8.527447894e-05
8.564300647e-05
8.585426843e-05
8.344082008e-05
8.372267558e-05
8.411851788e-05
8.459332987e-05
8.510664662e-05
8.561386889e-05
8.606785025e-05
8.642015457e-05
8.662158397e-05
8.430465199e-05
8.457629685e-05
8.495722461e-05
8.541319789e-05
8.590488059e-05
8.638928573e-05
8.682145393e-05
8.715574209e-05
8.734629683e-05
8.513758809e-05
8.539774582e-05
8.576194479e-05
8.61968718e-05
8.66644992e-05
8.712366466e-05
8.753183199e-05
8.784639829e-05
8.802510218e-05
8.593608195e-05
8.618348107e-05
8.652915898e-05
8.69408841e-05
8.738212647e-05
8.781376192e-05
8.819590093e-05
8.848919818e-05
8.86551844e-05
8.669664933e-05
8.693006474e-05
8.725551236e-05
8.764200961e-05
8.805471838e-05
8.845676017e-05
8.881109348e-05
8.908180631e-05
8.923436101e-05
8.741597948e-05
8.763427828e-05
8.793793588e-05
8.829739194e-05
8.867969329e-05
8.905040056e-05
8.937548952e-05
8.962260459e-05
8.97612074e-05
8.809105447e-05
8.829324384e-05
8.857376963e-05
8.890466734e-05