/*--------------------------------*- C++ -*----------------------------------*\
| =========                 |                                                 |
| \\      /  F ield         | OpenFOAM: The Open Source CFD Toolbox           |
|  \\    /   O peration     | Version:  2212                                  |
|   \\  /    A nd           | Website:  www.openfoam.com                      |
|    \\/     M anipulation  |                                                 |
\*---------------------------------------------------------------------------*/
FoamFile
{
    version     2.0;
    format      ascii;
    arch        "LSB;label=32;scalar=64";
    class       volScalarField;
    location    "20.00000000";
    object      H2_0;
}
// * * * * * * * * * * * * * * * * * * * * * * * * * * * * * * * * * * * * * //

dimensions      [0 0 0 0 0 0 0];

internalField   nonuniform List<scalar> 
3000
(
8.082887289e-28
8.411581893e-28
8.940265399e-28
9.703303121e-28
1.073473642e-27
1.204261791e-27
1.356059041e-27
1.507469157e-27
1.614205847e-27
2.132730622e-27
2.278720945e-27
2.514484181e-27
2.857752572e-27
3.331225872e-27
3.960303019e-27
4.76667415e-27
5.749901926e-27
6.749772563e-27
3.904265304e-27
4.320705743e-27
5.001734418e-27
6.014650282e-27
7.457058692e-27
9.458024344e-27
1.215449855e-26
1.558125671e-26
1.899362393e-26
6.5639478e-27
7.580016501e-27
9.270567751e-27
1.185217602e-26
1.565253769e-26
2.111523488e-26
2.870237825e-26
3.83952091e-26
4.758450974e-26
1.098007468e-26
1.328375822e-26
1.719706759e-26
2.33381271e-26
3.26529234e-26
4.640934155e-26
6.577200039e-26
9.009420659e-26
1.119676e-25
1.882937567e-26
2.384659056e-26
3.255830379e-26
4.658803152e-26
6.841544788e-26
1.012450889e-25
1.475870369e-25
2.045358855e-25
2.535799509e-25
3.34479303e-26
4.415540786e-26
6.313751711e-26
9.440740295e-26
1.440250231e-25
2.194856165e-25
3.257291621e-25
4.53698026e-25
5.596707779e-25
6.150673158e-26
8.410535089e-26
1.249092029e-25
1.933912756e-25
3.036594141e-25
4.724927876e-25
7.094539687e-25
9.916926425e-25
1.225209991e-24
1.164813455e-25
1.638907976e-25
2.50808813e-25
3.988130614e-25
6.395347419e-25
1.009136875e-24
1.524978948e-24
2.131275245e-24
2.622616666e-24
2.256924504e-25
3.247801682e-25
5.086909272e-25
8.253249813e-25
1.343877136e-24
2.140845519e-24
3.247547808e-24
4.535983626e-24
5.568905932e-24
4.447466031e-25
6.513198189e-25
1.038476464e-24
1.710590394e-24
2.81653436e-24
4.516469714e-24
6.867217967e-24
9.584958793e-24
1.174751512e-23
8.870640193e-25
1.316862617e-24
2.128558197e-24
3.546526937e-24
5.887439315e-24
9.484625041e-24
1.444211568e-23
2.014338122e-23
2.465486849e-23
1.784407337e-24
2.677170185e-24
4.373304343e-24
7.350388611e-24
1.227663091e-23
1.984325779e-23
3.024278109e-23
4.215418683e-23
5.154033226e-23
3.610947034e-24
5.462682723e-24
8.997303789e-24
1.522386033e-23
2.554428328e-23
4.138879947e-23
6.31175569e-23
8.79266157e-23
1.074126281e-22
7.337752745e-24
1.117369554e-23
1.852303064e-23
3.150591377e-23
5.305126911e-23
8.61139915e-23
1.313747441e-22
1.829222704e-22
2.233054819e-22
1.495494145e-23
2.289244301e-23
3.814501316e-23
6.514847859e-23
1.100024433e-22
1.788050607e-22
2.728540391e-22
3.797487215e-22
4.633157608e-22
3.054328331e-23
4.695207956e-23
7.855769089e-23
1.346099839e-22
2.277797894e-22
3.706404131e-22
5.656835839e-22
7.86992519e-22
9.597018506e-22
6.247361397e-23
9.636620661e-23
1.617726328e-22
2.779299788e-22
4.711058419e-22
7.672013527e-22
1.171025536e-21
1.628569524e-21
1.985097706e-21
1.279208181e-22
1.978747822e-22
3.330808901e-22
5.734591009e-22
9.733691966e-22
1.586118881e-21
2.421016852e-21
3.36576747e-21
4.100946336e-21
2.621260671e-22
4.064146086e-22
6.856395029e-22
1.182486207e-21
2.009274359e-21
3.275605431e-21
4.999505034e-21
6.94790954e-21
8.462197243e-21
5.373945517e-22
8.348235343e-22
1.410973134e-21
2.436823461e-21
4.144107828e-21
6.757901522e-21
1.03130164e-20
1.432645435e-20
1.744182065e-20
1.102035259e-21
1.714769366e-21
2.902618172e-21
5.018593716e-21
8.540080914e-21
1.392861725e-20
2.125103196e-20
2.950758561e-20
3.590840641e-20
2.260112659e-21
3.521628122e-21
5.968654553e-21
1.03289391e-20
1.758435825e-20
2.867953941e-20
4.374130291e-20
6.070278366e-20
7.383384952e-20
4.634520041e-21
7.22994843e-21
1.226655985e-20
2.12422879e-20
3.617320396e-20
5.898867341e-20
8.99245398e-20
1.247117686e-19
1.516010556e-19
9.499990012e-21
1.483542048e-20
2.519191838e-20
4.364747153e-20
7.433359563e-20
1.211807959e-19
1.846152916e-19
2.558268166e-19
3.107713313e-19
1.946188677e-20
3.041939933e-20
5.169114115e-20
8.958981569e-20
1.525623526e-19
2.485891801e-19
3.784074285e-19
5.238548265e-19
6.358399313e-19
3.983623659e-20
6.231385059e-20
1.059475019e-19
1.836556954e-19
3.126611155e-19
5.09102242e-19
7.741589832e-19
1.070437876e-18
1.297985197e-18
8.14477672e-20
1.274920568e-19
2.16854855e-19
3.75905388e-19
6.396461496e-19
1.040556521e-18
1.580257794e-18
2.181875886e-18
2.642573544e-18
1.662841039e-19
2.60442416e-19
4.431151366e-19
7.679657905e-19
1.305860608e-18
2.121790331e-18
3.217177214e-18
4.434277563e-18
5.363090212e-18
3.388787565e-19
5.310323639e-19
9.036085724e-19
1.565433367e-18
2.659340123e-18
4.314489735e-18
6.529334512e-18
8.980957867e-18
1.084443374e-17
6.891301902e-19
1.080309953e-18
1.838194801e-18
3.182571483e-18
5.399820463e-18
8.744584936e-18
1.320341365e-17
1.811725676e-17
2.183523005e-17
1.397832162e-18
2.191898405e-18
3.728785771e-18
6.450269871e-18
1.092707087e-17
1.765657094e-17
2.65880532e-17
3.638151269e-17
4.375333776e-17
2.827055022e-18
4.433591862e-18
7.539013663e-18
1.302645193e-17
2.202540832e-17
3.549703626e-17
5.328660001e-17
7.268216959e-17
8.719777174e-17
5.69857299e-18
8.936517066e-18
1.518560622e-17
2.620031075e-17
4.419848796e-17
7.101490144e-17
1.062242449e-16
1.443686727e-16
1.727352488e-16
1.144404993e-17
1.794202018e-17
3.045905144e-17
5.24563301e-17
8.825055964e-17
1.412959345e-16
2.104981544e-16
2.849453466e-16
3.3992935e-16
2.288810453e-17
3.586583899e-17
6.080851785e-17
1.044912831e-16
1.752342663e-16
2.79439806e-16
4.144249007e-16
5.58538802e-16
6.641969666e-16
4.557218653e-17
7.135427551e-17
1.207754557e-16
2.069844894e-16
3.458472329e-16
5.490249499e-16
8.101892038e-16
1.086748974e-15
1.287948906e-15
9.030359182e-17
1.412280969e-16
2.385453057e-16
4.075361815e-16
6.781073183e-16
1.071088501e-15
1.572038309e-15
2.097962793e-15
2.477520374e-15
1.78030482e-16
2.779904912e-16
4.68344707e-16
7.97213911e-16
1.320276203e-15
2.073937184e-15
3.026198405e-15
4.016984789e-15
4.726184512e-15
3.491019848e-16
5.44010476e-16
9.136998932e-16
1.548788789e-15
2.551582606e-15
3.984174682e-15
5.777550471e-15
7.626299406e-15
8.938698217e-15
6.807368143e-16
1.058109117e-15
1.770695427e-15
2.987227531e-15
4.893118744e-15
7.591383676e-15
1.093685624e-14
1.435338084e-14
1.675875395e-14
1.319748105e-15
2.045004017e-15
3.407733812e-15
5.718439266e-15
9.308402484e-15
1.43431486e-14
2.052443107e-14
2.677780121e-14
3.114472562e-14
2.543418477e-15
3.926539653e-15
6.51131706e-15
1.08622447e-14
1.75626598e-14
2.686858684e-14
3.818069675e-14
4.951838612e-14
5.737332338e-14
4.871933397e-15
7.488677639e-15
1.235018737e-14
2.047008725e-14
3.286047887e-14
4.989894079e-14
7.040600385e-14
9.077234575e-14
1.047751963e-13
9.274522491e-15
1.418469419e-14
2.324976072e-14
3.826722665e-14
6.096731535e-14
9.187224408e-14
1.287060521e-13
1.649646903e-13
1.897139335e-13
1.754453995e-14
2.668113844e-14
4.343680208e-14
7.095964418e-14
1.121645561e-13
1.677067546e-13
2.332750094e-13
2.972753039e-13
3.40663807e-13
3.297646214e-14
4.983249577e-14
8.052979049e-14
1.305145122e-13
2.046276721e-13
3.035545464e-13
4.192697796e-13
5.313198838e-13
6.068084207e-13
6.157730214e-14
9.240543738e-14
1.481440089e-13
2.381024116e-13
3.702108516e-13
5.448803333e-13
7.474157303e-13
9.420911443e-13
1.072509716e-12
1.142139222e-13
1.700994336e-13
2.703999108e-13
4.308451243e-13
6.642585688e-13
9.700696854e-13
1.321788644e-12
1.657604677e-12
1.88149744e-12
2.103797627e-13
3.107821155e-13
4.896412899e-13
7.732425202e-13
1.182075931e-12
1.713128216e-12
2.319361734e-12
2.894813502e-12
3.277018627e-12
3.847261198e-13
5.634569102e-13
8.794920694e-13
1.376295191e-12
2.086258732e-12
3.001127956e-12
4.038595859e-12
5.018635591e-12
5.667901148e-12
6.982423465e-13
1.013425232e-12
1.566656179e-12
2.429086846e-12
3.651454263e-12
5.21519864e-12
6.978373568e-12
8.637852449e-12
9.736072781e-12
1.257126065e-12
1.807560962e-12
2.766797724e-12
4.250192176e-12
6.336590699e-12
8.988402292e-12
1.196436806e-11
1.475868115e-11
1.660912527e-11
2.244147106e-12
3.195796307e-12
4.842703047e-12
7.370076413e-12
1.089951628e-11
1.535991791e-11
2.034763159e-11
2.502661183e-11
2.813256723e-11
3.969937464e-12
5.598072173e-12
8.396279476e-12
1.265921634e-11
1.857415031e-11
2.601362071e-11
3.431193313e-11
4.209985042e-11
4.729029763e-11
6.953804508e-12
9.708100781e-12
1.441064314e-11
2.152620268e-11
3.134229191e-11
4.363967461e-11
5.733628733e-11
7.021103115e-11
7.883729555e-11
1.205054433e-11
1.665517174e-11
2.446782379e-11
3.621490798e-11
5.233648432e-11
7.246797901e-11
9.487544112e-11
1.159911473e-10
1.302256696e-10
2.064436793e-11
2.824751872e-11
4.107162538e-11
6.024079783e-11
8.642580756e-11
1.190371938e-10
1.553342068e-10
1.896432077e-10
2.129188048e-10
3.493826567e-11
4.73309959e-11
6.81168561e-11
9.901652448e-11
1.410461751e-10
1.932742011e-10
2.514236904e-10
3.065637058e-10
3.441964845e-10
5.837628794e-11
7.830575256e-11
1.115555001e-10
1.607278003e-10
2.273482362e-10
3.099695843e-10
4.019954415e-10
4.895136824e-10
5.495530497e-10
9.624599262e-11
1.278538964e-10
1.803211787e-10
2.575312549e-10
3.617457376e-10
4.907417148e-10
6.344513996e-10
7.714359495e-10
8.657798458e-10
1.565192787e-10
2.059422205e-10
2.87584179e-10
4.071559856e-10
5.679547051e-10
7.66584549e-10
9.878222524e-10
1.199001029e-09
1.34480314e-09
2.510017809e-10
3.271757993e-10
4.524202662e-10
6.3499941e-10
8.796184613e-10
1.181091665e-09
1.516594649e-09
1.836943257e-09
2.058322505e-09
3.968740523e-10
5.12590697e-10
7.019873971e-10
9.768156406e-10
1.343615106e-09
1.794441789e-09
2.295350789e-09
2.773224677e-09
3.103267467e-09
6.187221991e-10
7.919873751e-10
1.074315354e-09
1.482100802e-09
2.02414276e-09
2.688220635e-09
3.424266532e-09
4.12504376e-09
4.608069181e-09
9.511717124e-10
1.206920646e-09
1.621823889e-09
2.218284038e-09
3.007673936e-09
3.971143089e-09
5.035501292e-09
6.045694422e-09
6.739736196e-09
1.442255548e-09
1.814476319e-09
2.415693891e-09
3.275834225e-09
4.408864523e-09
5.785731872e-09
7.300507906e-09
8.732281787e-09
9.711732529e-09
2.157663756e-09
2.691976229e-09
3.551220353e-09
4.774389073e-09
6.377496413e-09
8.316005621e-09
1.043829339e-08
1.243431501e-08
1.379268053e-08
3.186031886e-09
3.942756842e-09
5.154271885e-09
6.870004898e-09
9.106526881e-09
1.179622835e-08
1.472466903e-08
1.746321861e-08
1.931594221e-08
4.645421506e-09
5.703156939e-09
7.3889675e-09
9.763612909e-09
1.284130944e-08
1.652076724e-08
2.050253356e-08
2.420282076e-08
2.669015592e-08
6.691124614e-09
8.150826477e-09
1.046665996e-08
1.371074958e-08
1.789003122e-08
2.285508807e-08
2.819322332e-08
3.312087161e-08
3.641080103e-08
9.524890022e-09
1.151443774e-08
1.465628571e-08
1.903259435e-08
2.463537056e-08
3.124787747e-08
3.830892229e-08
4.478159827e-08
4.907280857e-08
1.340563153e-08
1.608483996e-08
2.029609239e-08
2.612828426e-08
3.354730748e-08
4.224420354e-08
5.146603414e-08
5.985919358e-08
6.538411146e-08
1.866162263e-08
2.222763061e-08
2.780666843e-08
3.548837524e-08
4.519691068e-08
5.649950017e-08
6.839926488e-08
7.915195174e-08
8.617982009e-08
2.570408351e-08
3.039700261e-08
3.770507178e-08
4.770918306e-08
6.027076996e-08
7.479397409e-08
8.997594014e-08
1.035964998e-07
1.12436418e-07
3.504191713e-08
4.115057111e-08
5.06196939e-08
6.350756169e-08
7.958553937e-08
9.804679228e-08
1.172097933e-07
1.342812441e-07
1.45285016e-07
4.729717297e-08
5.516470366e-08
6.730530552e-08
8.373546559e-08
1.041018115e-07
1.273291203e-07
1.512731323e-07
1.724577874e-07
1.860223185e-07
6.322062519e-08
7.324967953e-08
8.865751817e-08
1.093934036e-07
1.349362763e-07
1.638747833e-07
1.935059651e-07
2.195487259e-07
2.361176058e-07
8.370665203e-08
9.636379534e-08
1.1572567e-07
1.416416563e-07
1.733708628e-07
2.090870551e-07
2.454203998e-07
2.771499831e-07
2.972137909e-07
1.098064018e-07
1.256253271e-07
1.497229438e-07
1.818079208e-07
2.208573648e-07
2.645399103e-07
3.086985003e-07
3.470257497e-07
3.711205646e-07
1.427380519e-07
1.623210949e-07
1.92032362e-07
2.313899164e-07
2.790159714e-07
3.319720597e-07
3.851818564e-07
4.310942613e-07
4.597978603e-07
1.838928471e-07
2.079102647e-07
2.44207242e-07
2.920514858e-07
3.496262106e-07
4.13272299e-07
4.768514649e-07
5.314031124e-07
5.653284176e-07
2.348355501e-07
2.640220219e-07
3.079647607e-07
3.656108928e-07
4.346091203e-07
5.104551638e-07
5.857971516e-07
6.500935787e-07
6.898790904e-07
2.972980231e-07
3.324458931e-07
3.851715151e-07
4.540203907e-07
5.359999963e-07
6.25626606e-07
7.141766676e-07
7.893544757e-07
8.356516839e-07
3.731648842e-07
4.151137963e-07
4.778203909e-07
5.593367094e-07
6.559118184e-07
7.609403382e-07
8.641656815e-07
9.513672884e-07
1.004825376e-06
4.644505821e-07
5.140733833e-07
5.879986477e-07
6.836828549e-07
7.964903518e-07
9.185465239e-07
1.037901033e-06
1.138245509e-06
1.199494008e-06
5.732677905e-07
6.314528699e-07
7.178478684e-07
8.292024569e-07
9.598628573e-07
1.100535492e-06
1.237420617e-06
1.351972109e-06
1.421602483e-06
7.017877078e-07
7.694182867e-07
8.695172096e-07
9.980087345e-07
1.148083184e-06
1.308879944e-06
1.464603983e-06
1.594339671e-06
1.672887023e-06
8.521935987e-07
9.301248409e-07
1.045112143e-06
1.192130854e-06
1.363076615e-06
1.545379557e-06
1.721117938e-06
1.866897701e-06
1.954823931e-06
1.026629635e-06
1.115664762e-06
1.246641472e-06
1.413460907e-06
1.606588085e-06
1.811611866e-06
2.008371173e-06
2.170911144e-06
2.268590766e-06
1.227147685e-06
1.328014505e-06
1.475965756e-06
1.663704855e-06
1.880137214e-06
2.108892825e-06
2.327481075e-06
2.507332964e-06
2.61504263e-06
1.455655094e-06
1.568984417e-06
1.734750301e-06
1.944340533e-06
2.184983035e-06
2.438249494e-06
2.679254671e-06
2.876792224e-06
2.994704614e-06
1.713866538e-06
1.84017391e-06
2.024425554e-06
2.256585211e-06
2.522100354e-06
2.800406141e-06
3.064184235e-06
3.279597515e-06
3.407779844e-06
2.003262857e-06
2.142934754e-06
2.346157125e-06
2.601374338e-06
2.892168635e-06
3.195783727e-06
3.482456646e-06
3.715754112e-06
3.85417108e-06
2.325059168e-06
2.478344467e-06
2.700826842e-06
2.979352101e-06
3.295573117e-06
3.624511589e-06
3.933974443e-06
4.184992108e-06
4.333512732e-06
2.68018382e-06
2.847190885e-06
3.089025244e-06
3.390873423e-06
3.732416916e-06
4.086449178e-06
4.418385712e-06
4.686802157e-06
4.845209664e-06
3.069268819e-06
3.249968082e-06
3.511055057e-06
3.836016151e-06
4.202542087e-06
4.58121515e-06
4.93511957e-06
5.220475251e-06
5.388479063e-06
3.492651438e-06
3.686882921e-06
3.966944353e-06
4.314601557e-06
4.705557207e-06
5.108220938e-06
5.483424108e-06
5.785143279e-06
5.9623921e-06
3.950385883e-06
4.157870789e-06
4.456467547e-06
4.826220873e-06
5.240868894e-06
5.666706064e-06
6.062404023e-06
6.37981768e-06
6.565912788e-06
4.442263267e-06
4.662618564e-06
4.979172042e-06
5.37026554e-06
5.807714874e-06
6.255772853e-06
6.671055803e-06
7.003424275e-06
7.197932277e-06
4.967837774e-06
5.200592608e-06
5.534408296e-06
5.945958948e-06
6.405196551e-06
6.874418792e-06
7.308299016e-06
7.654833125e-06
7.857297629e-06
5.526456737e-06
5.771069586e-06
6.121361214e-06
6.552387818e-06
7.032309526e-06
7.521565361e-06
7.97300293e-06
8.332882992e-06
8.542834864e-06
6.117292504e-06
6.373168109e-06
6.739081107e-06
7.188531785e-06
7.687971035e-06
8.196082718e-06
8.664008258e-06
9.036400516e-06
9.253366555e-06
6.739374217e-06
7.005879544e-06
7.386512863e-06
7.85329019e-06
8.37104373e-06
8.896810117e-06
9.380144271e-06
9.764214608e-06
9.98772463e-06
7.391618066e-06
7.668096765e-06
8.062522407e-06
8.54550556e-06
9.080355678e-06
9.622572255e-06
1.012024178e-05
1.051516679e-05
1.074475921e-05
8.07285499e-06
8.358640031e-06
8.765919944e-06
9.263983579e-06
9.814716711e-06
1.037219202e-05
1.088314266e-05
1.128811829e-05
1.152334439e-05
8.781855226e-06
9.076279605e-06
9.495479843e-06
1.000750968e-05
1.057293151e-05
1.114450018e-05
1.166770664e-05
1.20819547e-05
1.23223817e-05
9.517349501e-06
9.819755022e-06
1.024995725e-05
1.07748626e-05
1.135380992e-05
1.193834268e-05
1.247281608e-05
1.289558892e-05
1.31408022e-05
1.02780469e-05
1.058779118e-05
1.102810175e-05
1.156482519e-05
1.2156175e-05
1.275258617e-05
1.329737942e-05
1.372796321e-05
1.397756765e-05
1.106264966e-05
1.137911154e-05
1.182866844e-05
1.237619318e-05
1.297886938e-05
1.358612229e-05
1.414033396e-05
1.457805104e-05
1.483167222e-05
1.18698652e-05
1.219244876e-05
1.265042671e-05
1.320778186e-05
1.382075996e-05
1.443787067e-05
1.500064788e-05
1.544485949e-05
1.57021476e-05
1.26984158e-05
1.302655317e-05
1.349216709e-05
1.405843104e-05
1.468074084e-05
1.53067796e-05
1.587731743e-05
1.632741963e-05
1.658803814e-05
1.354704618e-05
1.38801994e-05
1.435270657e-05
1.492700895e-05
1.555773595e-05
1.619182798e-05
1.676937058e-05
1.722479848e-05
1.748843119e-05
1.441452963e-05
1.47521916e-05
1.523089273e-05
1.581241524e-05
1.645070082e-05
1.709202556e-05
1.767586343e-05
1.813608289e-05
1.840243794e-05
1.529967263e-05
1.564136754e-05
1.61256071e-05
1.671358351e-05
1.735862473e-05
1.800641608e-05
1.859588899e-05
1.906040048e-05
1.932920285e-05
1.620131856e-05
1.654660178e-05
1.703576764e-05
1.762948305e-05
1.82805311e-05
1.893407391e-05
1.952856182e-05
1.9996905e-05
2.02678991e-05
1.711835057e-05
1.746680822e-05
1.796033096e-05
1.855912096e-05
1.921548086e-05
1.987411272e-05
2.047303852e-05
2.094478313e-05
2.121773062e-05
1.804969365e-05
1.840094181e-05
1.889829355e-05
1.950154254e-05
2.016257017e-05
2.082566983e-05
2.142850369e-05
2.190325146e-05
2.217793101e-05
1.899431611e-05
1.934799982e-05
1.984869263e-05
2.045583138e-05
2.112092401e-05
2.178792363e-05
2.239417506e-05
2.287155747e-05
2.31477639e-05
1.99512305e-05
2.030702253e-05
2.081060631e-05
2.142110252e-05
2.208971085e-05
2.276008663e-05
2.336930303e-05
2.38489796e-05
2.412652293e-05
2.091949405e-05
2.127709313e-05
2.178314636e-05
2.239651686e-05
2.306813565e-05
2.374140574e-05
2.435317033e-05
2.483482708e-05
2.51135317e-05
2.189820801e-05
2.225733007e-05
2.276547251e-05
2.338127412e-05
2.405543995e-05
2.473116208e-05
2.534509184e-05
2.58284397e-05
2.610814351e-05
2.28865076e-05
2.324690106e-05
2.375678532e-05
2.437461279e-05
2.505090156e-05
2.572867062e-05
2.634441422e-05
2.682918747e-05
2.710974107e-05
2.388358226e-05
2.424501694e-05
2.475632612e-05
2.537580964e-05
2.605383409e-05
2.67332797e-05
2.735051546e-05
2.783647027e-05
2.811773615e-05
2.488866461e-05
2.52509308e-05
2.576337635e-05
2.638417914e-05
2.706358631e-05
2.774437052e-05
2.836280437e-05
2.884971732e-05
2.91315691e-05
2.590102966e-05
2.626393682e-05
2.677725664e-05
2.739907261e-05
2.807954144e-05
2.876135643e-05
2.938072002e-05
2.98683867e-05
3.015070836e-05
2.691999376e-05
2.728336924e-05
2.779732573e-05
2.841987728e-05
2.910111629e-05
2.978368216e-05
3.040373097e-05
3.089196464e-05
3.117464984e-05
2.79449134e-05
2.830860109e-05
2.882297936e-05
2.944601523e-05
3.012776028e-05
3.0810823e-05
3.143133461e-05
3.191996489e-05
3.220291626e-05
2.897518377e-05
2.933904289e-05
2.9853649e-05
3.047694224e-05
3.115895446e-05
3.184228385e-05
3.246305625e-05
3.295192794e-05
3.323505647e-05
3.001023742e-05
3.037414125e-05
3.088880059e-05
3.151214663e-05
3.21942104e-05
3.287759828e-05
3.349844829e-05
3.398742023e-05
3.427064464e-05
3.10495427e-05
3.141337749e-05
3.192793316e-05
3.255114802e-05
3.323306907e-05
3.391632751e-05
3.453708932e-05
3.502603328e-05
3.530927947e-05
3.209260222e-05
3.245626609e-05
3.297057746e-05
3.3593496e-05
3.427509972e-05
3.495805936e-05
3.557858315e-05
3.606738285e-05
3.635058335e-05
3.313895135e-05
3.350235326e-05
3.401629459e-05
3.463876895e-05
3.531989867e-05
3.600240723e-05
3.662255782e-05
3.711110801e-05
3.739420148e-05
3.418815658e-05
3.455121544e-05
3.506467454e-05
3.568657265e-05
3.636708815e-05
3.704900897e-05
3.766866469e-05
3.815687024e-05
3.843980101e-05
3.523981403e-05
3.560245776e-05
3.611533486e-05
3.673653905e-05
3.741631512e-05
3.809752585e-05
3.871657738e-05
3.920435249e-05
3.948707012e-05
3.62935479e-05
3.665571264e-05
3.716791924e-05
3.778832496e-05
3.846725012e-05
3.914764146e-05
3.976599081e-05
4.025325825e-05
4.053571713e-05
3.734900893e-05
3.771063832e-05
3.822209618e-05
3.884161083e-05
3.951958607e-05
4.019906068e-05
4.081662023e-05
4.130331063e-05
4.158546958e-05
3.840587301e-05
3.876691743e-05
3.927755763e-05
3.989609947e-05
4.057303716e-05
4.125150858e-05
4.186820019e-05
4.235425141e-05
4.263607337e-05
3.946383967e-05
3.982425569e-05
4.033401775e-05
4.095151488e-05
4.162733775e-05
4.230472944e-05
4.292048366e-05
4.340584018e-05
4.368729183e-05
4.052263079e-05
4.08823805e-05
4.13912116e-05
4.20076011e-05
4.268224125e-05
4.335848574e-05
4.397324101e-05
4.445785336e-05
4.473890488e-05
4.158198921e-05
4.194103976e-05
4.244889398e-05
4.306412102e-05
4.373751912e-05
4.441255713e-05
4.502625914e-05
4.551008343e-05
4.579070816e-05
4.264167749e-05
4.300000054e-05
4.350683827e-05
4.412085533e-05
4.479295977e-05
4.546673954e-05
4.607934056e-05
4.656233798e-05
4.68425122e-05
4.370147669e-05
4.405904802e-05
4.456483525e-05
4.517760149e-05
4.584836768e-05
4.652084422e-05
4.713230254e-05
4.761443892e-05
4.789414161e-05
4.476118521e-05
4.511798428e-05
4.562269211e-05
4.623417267e-05
4.690356238e-05
4.757469688e-05
4.818497625e-05
4.866622168e-05
4.894543428e-05
4.582061766e-05
4.617662725e-05
4.66802314e-05
4.729039682e-05
4.795837755e-05
4.862813682e-05
4.923720597e-05
4.971753443e-05
4.999624063e-05
4.687960385e-05
4.723480972e-05
4.773729002e-05
4.834611573e-05
4.901266019e-05
4.96810161e-05
5.02888483e-05
5.07682373e-05
5.104642288e-05
4.793798775e-05
4.829237834e-05
4.879371835e-05
4.940118417e-05
5.006626976e-05
5.073319878e-05
5.133977141e-05
5.181820169e-05
5.209585432e-05
4.899562657e-05
4.934919274e-05
4.984937935e-05
5.045546906e-05
5.111907741e-05
5.178456016e-05
5.238985433e-05
5.286730958e-05
5.314441866e-05
5.005238986e-05
5.04051246e-05
5.090414771e-05
5.150884864e-05
5.217096519e-05
5.283498606e-05
5.343898626e-05
5.391545286e-05
5.419200939e-05
5.110815865e-05
5.14600569e-05
5.195790907e-05
5.256121176e-05
5.322182537e-05
5.388437213e-05
5.448706594e-05
5.496253271e-05
5.523852911e-05
5.216282469e-05
5.251388309e-05
5.301055929e-05
5.361245712e-05
5.427155975e-05
5.493262325e-05
5.553400102e-05
5.600845896e-05
5.628388901e-05
5.321628967e-05
5.356650639e-05
5.406200374e-05
5.466249266e-05
5.532007903e-05
5.597965285e-05
5.657970744e-05
5.70531496e-05
5.732800824e-05
5.426846452e-05
5.461783911e-05
5.511215663e-05
5.571123485e-05
5.636730217e-05
5.702538239e-05
5.762410891e-05
5.809653015e-05
5.837081346e-05
5.531926875e-05
5.566780196e-05
5.616094037e-05
5.675860818e-05
5.741315586e-05
5.806974077e-05
5.86671364e-05
5.913853321e-05
5.941223823e-05
5.636862983e-05
5.671632349e-05
5.720828501e-05
5.780454449e-05
5.845757394e-05
5.911266383e-05
5.970872757e-05
6.017909795e-05
6.045222264e-05
5.741648261e-05
5.776333949e-05
5.825412769e-05
5.884898254e-05
5.950049692e-05
6.015409387e-05
6.074882636e-05
6.121816964e-05
6.149071278e-05
5.846276876e-05
5.880879247e-05
5.929841209e-05
5.989186743e-05
6.054187148e-05
6.119397914e-05
6.178738253e-05
6.225569926e-05
6.252766036e-05
5.950743628e-05
5.985263117e-05
6.034108798e-05
6.093315019e-05
6.158165003e-05
6.223227347e-05
6.282435121e-05
6.329164302e-05
6.356302226e-05
6.0550439e-05
6.089481003e-05
6.138211073e-05
6.19727873e-05
6.261979028e-05
6.326893583e-05
6.385969256e-05
6.432596205e-05
6.459676022e-05
6.159173613e-05
6.193528886e-05
6.24214409e-05
6.30107403e-05
6.365625484e-05
6.430392994e-05
6.489337133e-05
6.535862198e-05
6.562884039e-05
6.263129186e-05
6.29740323e-05
6.345904386e-05
6.404697538e-05
6.469101084e-05
6.53372239e-05
6.592535655e-05
6.638959259e-05
6.665923305e-05
6.366907496e-05
6.401100955e-05
6.449488938e-05
6.508146303e-05
6.572402959e-05
6.636878987e-05
6.695562117e-05
6.741884753e-05
6.768791227e-05
6.470505841e-05
6.504619391e-05
6.552895125e-05
6.611417768e-05
6.675528622e-05
6.739860369e-05
6.798414176e-05
6.844636395e-05
6.871485556e-05
6.573921901e-05
6.60795625e-05
6.656120702e-05
6.714509739e-05
6.778475936e-05
6.842664463e-05
6.901089817e-05
6.947212218e-05
6.97400436e-05
6.67715371e-05
6.711109589e-05
6.759163759e-05
6.817420348e-05
6.881243083e-05
6.945289499e-05
7.003587319e-05
7.049610547e-05
7.076345988e-05
6.78019962e-05
6.814077776e-05
6.862022692e-05
6.920148023e-05
6.983828527e-05
7.047733982e-05
7.105905225e-05
7.151829957e-05
7.178509038e-05
6.883058267e-05
6.916859462e-05
6.964696166e-05
7.022691453e-05
7.086230984e-05
7.149996655e-05
7.208042305e-05
7.25386924e-05
7.280492317e-05
6.985728547e-05
7.019453546e-05
7.067183092e-05
7.125049556e-05
7.188449383e-05
7.25207646e-05
7.309997514e-05
7.355727364e-05
7.382294803e-05
7.088209577e-05
7.121859145e-05
7.169482583e-05
7.227221447e-05
7.290482834e-05
7.353972503e-05
7.411769953e-05
7.457403427e-05
7.483915591e-05
7.19050066e-05
7.224075554e-05
7.27159392e-05
7.329206385e-05
7.392330575e-05
7.455683995e-05
7.51335881e-05
7.558896594e-05
7.585353834e-05
7.292601235e-05
7.326102191e-05
7.373516493e-05
7.431003722e-05
7.49399191e-05
7.557210189e-05
7.614763282e-05
7.660206019e-05
7.68660866e-05
7.394510831e-05
7.427938551e-05
7.475249746e-05
7.532612834e-05
7.595466136e-05
7.658550292e-05
7.715982489e-05
7.761330743e-05
7.78767906e-05
7.496229001e-05
7.529584136e-05
7.576793101e-05
7.634033042e-05
7.696752447e-05
7.75970336e-05
7.817015345e-05
7.862269561e-05
7.888563754e-05
7.59775524e-05
7.631038364e-05
7.678145861e-05
7.735263494e-05
7.797849807e-05
7.860668149e-05
7.917860399e-05
7.963020838e-05
7.989260995e-05
7.699088882e-05
7.732300458e-05
7.779307081e-05
7.836303025e-05
7.898756783e-05
7.961442929e-05
8.01851562e-05
8.063582285e-05
8.08976833e-05
7.800228964e-05
7.833369297e-05
7.880275404e-05
7.937149964e-05
7.999471328e-05
8.062025234e-05
8.118978117e-05
8.163950644e-05
8.190082271e-05
7.901174047e-05
7.934243226e-05
7.981048845e-05
8.037801894e-05
8.099990501e-05
8.16241154e-05
8.219243781e-05
8.264121297e-05
8.290197881e-05
8.001921987e-05
8.034919801e-05
8.081624511e-05
8.138255329e-05
8.200310102e-05
8.262596853e-05
8.319306821e-05
8.364087763e-05
8.390108247e-05
8.102469643e-05
8.135395477e-05
8.181998249e-05
8.238505316e-05
8.300424215e-05
8.362574192e-05
8.419159184e-05
8.463841065e-05
8.489803815e-05
8.202812504e-05
8.235665205e-05
8.282164196e-05
8.338544928e-05
8.400324635e-05
8.462333939e-05
8.518789839e-05
8.563368953e-05
8.589271573e-05
8.302944223e-05
8.335721926e-05
8.382114228e-05
8.438364641e-05
8.500000166e-05
8.561863053e-05
8.618183901e-05
8.662654958e-05
8.688494066e-05
8.402856042e-05
8.435555958e-05
8.481837276e-05
8.537951577e-05
8.599435767e-05
8.661144117e-05
8.717321588e-05
8.761677273e-05
8.787448225e-05
8.502536097e-05
8.535154248e-05
8.58131851e-05
8.637288592e-05
8.698611542e-05
8.760154221e-05
8.816176999e-05
8.860407439e-05
8.886104008e-05
8.601968577e-05
8.634499483e-05
8.680538376e-05
8.736353218e-05
8.797501567e-05
8.85886367e-05
8.914716709e-05
8.958808858e-05
8.984422851e-05
8.701132747e-05
8.73356905e-05
8.779471465e-05
8.835116429e-05
8.896072541e-05
8.957234516e-05
9.012898196e-05
9.056835124e-05
9.082355957e-05
8.800001812e-05
8.832333845e-05
8.878085243e-05
8.933541264e-05
8.994282295e-05
9.055218951e-05
9.11066812e-05
9.154428224e-05
9.179842439e-05
8.898541637e-05
8.93075693e-05
8.976338622e-05
9.031581301e-05
9.092078154e-05
9.152757562e-05
9.207960494e-05
9.251516638e-05
9.27680739e-05
8.996709324e-05
9.028792059e-05
9.074180413e-05
9.12917902e-05
9.189395213e-05
9.24977753e-05
9.304694805e-05
9.348013412e-05
9.373159929e-05
9.094451684e-05
9.126382104e-05
9.171547692e-05
9.226264106e-05
9.286154578e-05
9.346190809e-05
9.400774173e-05
9.443814302e-05
9.46879134e-05
9.19170362e-05
9.223457409e-05
9.268364119e-05
9.322751734e-05
9.382261632e-05
9.4418924e-05
9.49608363e-05
9.538796086e-05
9.563573415e-05
9.288386491e-05
9.319934149e-05
9.364538294e-05
9.418540943e-05
9.477604437e-05
9.536758813e-05
9.590488669e-05
9.632815189e-05
9.657357133e-05
9.38440652e-05
9.415712756e-05
9.45996223e-05
9.51351317e-05
9.572052384e-05
9.630646847e-05
9.683834177e-05
9.72570677e-05
9.749971849e-05
9.479653324e-05
9.510676512e-05
9.554510034e-05
9.607531081e-05
9.665455201e-05
9.72339283e-05
9.775943921e-05
9.817284432e-05
9.841225149e-05
9.57399868e-05
9.604690408e-05
9.648036933e-05
9.700437816e-05
9.757642487e-05
9.814812478e-05
9.866620749e-05
9.907340723e-05
9.930903545e-05
9.667295632e-05
9.697600406e-05
9.740378761e-05
9.792056783e-05
9.848423884e-05
9.904701504e-05
9.955647642e-05
9.995648573e-05
0.0001001877415
9.759378067e-05
9.789233213e-05
9.831352039e-05
9.882192145e-05
9.937590057e-05
9.992837135e-05
0.0001004278976
0.0001008196381
0.0001010458749
9.85006089e-05
9.879396706e-05
9.92075478e-05
9.970630118e-05
0.0001002491457
0.0001007898062
0.0001012779761
0.0001016602882
0.0001018808148
9.939140913e-05
9.967881128e-05
0.0001000836813
0.0001005714118
0.0001011015677
0.0001016288085
0.0001021041127
0.0001024757741
0.000102689866
0.0001002639857
0.0001005446114
0.0001009395891
0.0001014148327
0.0001019306571
0.0001024427899
0.0001029036583
0.0001032634074
0.0001034703223
0.0001011160055
0.0001013889883
0.0001017728319
0.0001022340598
0.0001027338506
0.000103229142
0.0001036739776
0.0001040205428
0.0001042195385
0.0001019450332
0.0001022094761
0.000102580907
0.0001030265566
0.00010350859
0.0001039853018
0.0001044125207
0.0001047446547
0.0001049350101
0.0001027485764
0.0001030035711
0.0001033613025
0.0001037898144
0.0001042523875
0.0001047088239
0.0001051169003
0.000105433417
0.0001056144548
0.0001035241388
0.000103768788
0.0001041115577
0.0001045214175
0.0001049628972
0.0001053974546
0.0001057849693
0.0001060847836
0.0001062558934
0.0001042692807
0.0001045027229