/*--------------------------------*- C++ -*----------------------------------*\
| =========                 |                                                 |
| \\      /  F ield         | OpenFOAM: The Open Source CFD Toolbox           |
|  \\    /   O peration     | Version:  2212                                  |
|   \\  /    A nd           | Website:  www.openfoam.com                      |
|    \\/     M anipulation  |                                                 |
\*---------------------------------------------------------------------------*/
FoamFile
{
    version     2.0;
    format      ascii;
    arch        "LSB;label=32;scalar=64";
    class       volScalarField;
    location    "20.00000000";
    object      H_0;
}
// * * * * * * * * * * * * * * * * * * * * * * * * * * * * * * * * * * * * * //

dimensions      [0 0 0 0 0 0 0];

internalField   nonuniform List<scalar> 
3000
(
8.71418414e-37
1.080599928e-36
1.414654042e-36
1.89270828e-36
2.533142239e-36
3.338389255e-36
4.265022698e-36
5.173398866e-36
5.769213392e-36
3.665326946e-36
4.576229793e-36
6.028344272e-36
8.104591606e-36
1.089650516e-35
1.447569306e-35
1.883745452e-35
2.377184753e-35
2.824466551e-35
9.41992768e-36
1.190216267e-35
1.589493759e-35
2.170214622e-35
2.973905068e-35
4.050493274e-35
5.441844162e-35
7.122953999e-35
8.692158931e-35
2.051923788e-35
2.633414762e-35
3.586093276e-35
5.012127607e-35
7.062438994e-35
9.932238465e-35
1.380260394e-34
1.858660953e-34
2.293499369e-34
4.158632236e-35
5.441143727e-35
7.5923764e-35
1.091504744e-34
1.586425346e-34
2.302919591e-34
3.289800265e-34
4.499667786e-34
5.552742776e-34
8.162195297e-35
1.090964292e-34
1.563218159e-34
2.314210135e-34
3.465847181e-34
5.170580622e-34
7.535268875e-34
1.03837354e-33
1.276908727e-33
1.586015175e-34
2.166773048e-34
3.187719513e-34
4.851840875e-34
7.460195712e-34
1.137318915e-33
1.679986883e-33
2.322332328e-33
2.840944639e-33
3.084731737e-34
4.30332754e-34
6.487414749e-34
1.011867766e-33
1.590169044e-33
2.464795767e-33
3.675867304e-33
5.096126549e-33
6.245678617e-33
6.037313429e-34
8.583645293e-34
1.32202781e-33
2.104707374e-33
3.364803524e-33
5.277762487e-33
7.914837703e-33
1.097103166e-32
1.340212e-32
1.191016319e-33
1.721560807e-33
2.699943886e-33
4.370595638e-33
7.080601659e-33
1.120201823e-32
1.686046095e-32
2.336414289e-32
2.849654894e-32
2.368063938e-33
3.471160548e-33
5.525842837e-33
9.06500968e-33
1.483638823e-32
2.36208911e-32
3.564171803e-32
4.937711809e-32
6.015830261e-32
4.740712051e-33
7.030253763e-33
1.132862872e-32
1.878184332e-32
3.098242039e-32
4.956015112e-32
7.491691549e-32
1.037661795e-31
1.263129067e-31
9.544117437e-33
1.42891951e-32
2.325331897e-32
3.887669102e-32
6.452448482e-32
1.035874402e-31
1.568017724e-31
2.171554722e-31
2.641343867e-31
1.929999025e-32
2.912165906e-32
4.776880027e-32
8.040010989e-32
1.340881359e-31
2.158763665e-31
3.271414063e-31
4.530481481e-31
5.506535e-31
3.916271196e-32
5.947032298e-32
9.818129442e-32
1.661442301e-31
2.781680142e-31
4.488762914e-31
6.809065577e-31
9.431031993e-31
1.146155381e-30
7.967783891e-32
1.216290221e-31
2.018626651e-31
3.431065286e-31
5.762913811e-31
9.317870093e-31
1.414784507e-30
1.960178118e-30
2.382450596e-30
1.624385853e-31
2.490393082e-31
4.151277039e-31
7.081906413e-31
1.192735795e-30
1.931898163e-30
2.936211098e-30
4.070174867e-30
4.948662253e-30
3.316910681e-31
5.103682376e-31
8.538661713e-31
1.461227586e-30
2.466902904e-30
4.002382443e-30
6.089779089e-30
8.448082947e-30
1.027782032e-29
6.781578018e-31
1.046680669e-30
1.756651906e-30
3.014443326e-30
5.100340908e-30
8.288954481e-30
1.262843871e-29
1.753794648e-29
2.135701988e-29
1.387969846e-30
2.147919664e-30
3.614858249e-30
6.218699227e-30
1.054436063e-29
1.716755376e-29
2.619713481e-29
3.643649965e-29
4.44331143e-29
2.843230616e-30
4.410376697e-30
7.441183688e-30
1.283170364e-29
2.180494566e-29
3.557400922e-29
5.439385553e-29
7.580820419e-29
9.262553503e-29
5.828811257e-30
9.061172747e-30
1.532446677e-29
2.648867168e-29
4.511837641e-29
7.378611388e-29
1.131081293e-28
1.580628595e-28
1.936329979e-28
1.195793357e-29
1.862765338e-29
3.157795016e-29
5.47194375e-29
9.345101321e-29
1.532700305e-28
2.357037154e-28
3.305369804e-28
4.06307503e-28
2.454834529e-29
3.831908831e-29
6.511795759e-29
1.131469601e-28
1.938292443e-28
3.190214706e-28
4.925774841e-28
6.938394976e-28
8.56622751e-28
5.042825172e-29
7.888366691e-29
1.344043307e-28
2.342582388e-28
4.027639012e-28
6.657623201e-28
1.033106436e-27
1.463326092e-27
1.816503232e-27
1.036630811e-28
1.625265695e-28
2.777284512e-28
4.85794929e-28
8.388693888e-28
1.393909154e-27
2.176312825e-27
3.103644958e-27
3.878381863e-27
2.132545972e-28
3.351884265e-28
5.746882301e-28
1.009449623e-27
1.752193624e-27
2.929971135e-27
4.608509263e-27
6.626084011e-27
8.345843355e-27
4.390735159e-28
6.920822545e-28
1.191171821e-27
2.102679116e-27
3.672479078e-27
6.187449663e-27
9.817885412e-27
1.425218396e-26
1.811714922e-26
9.048946795e-28
1.430947743e-27
2.473937627e-27
4.392553121e-27
7.728289251e-27
1.313671603e-26
2.105872629e-26
3.090925806e-26
3.970382632e-26
1.867060698e-27
2.963465288e-27
5.150332909e-27
9.207251747e-27
1.633869473e-26
2.805989299e-26
4.5509979e-26
6.763238579e-26
8.788588742e-26
3.857622925e-27
6.149223954e-27
1.075208078e-26
1.937478719e-26
3.472345604e-26
6.033692223e-26
9.914958265e-26
1.493703142e-25
1.96536394e-25
7.983816263e-27
1.27891999e-26
2.25194022e-26
4.095152191e-26
7.422506169e-26
1.306811589e-25
2.178506631e-25
3.330326547e-25
4.439625119e-25
1.655730503e-26
2.66718137e-26
4.734141629e-26
8.698870208e-26
1.59671661e-25
2.852029736e-25
4.828244087e-25
7.494760981e-25
1.012529536e-24
3.442304896e-26
5.580296546e-26
9.994754562e-26
1.857985355e-25
3.458169911e-25
6.27352422e-25
1.079313907e-24
1.701635951e-24
2.329374282e-24
7.17822852e-26
1.171905476e-25
2.120240505e-25
3.992264882e-25
7.543061017e-25
1.390919058e-24
2.432628003e-24
3.894520043e-24
5.398784046e-24
1.502305131e-25
2.471824708e-25
4.52188388e-25
8.633341159e-25
1.657334662e-24
3.107710006e-24
5.524398629e-24
8.974684722e-24
1.258626773e-23
3.157726364e-25
5.239789045e-25
9.700888892e-25
1.879619268e-24
3.66808249e-24
6.994181309e-24
1.262885159e-23
2.079410992e-23
2.946171452e-23
6.671253285e-25
1.117074325e-24
2.094545306e-24
4.120953773e-24
8.176371322e-24
1.584519542e-23
2.902638858e-23
4.836195392e-23
6.910854354e-23
1.417874439e-24
2.396856519e-24
4.553763955e-24
9.099582133e-24
1.834954659e-23
3.610277301e-23
6.698442347e-23
1.127052852e-22
1.621262371e-22
3.03450859e-24
5.180034401e-24
9.97376387e-24
2.023754867e-23
4.144018613e-23
8.264600079e-23
1.549771044e-22
2.627186685e-22
3.796543226e-22
6.546789076e-24
1.128539247e-23
2.201692292e-23
4.533109109e-23
9.412440415e-23
1.898783267e-22
3.589586479e-22
6.115323046e-22
8.858932414e-22
1.425539133e-23
2.480786524e-23
4.900889592e-23
1.022640825e-22
2.148935728e-22
4.373861984e-22
8.312684621e-22
1.419407147e-21
2.056858851e-21
3.1370418e-23
5.507953412e-23
1.100672663e-22
2.323591548e-22
4.929436548e-22
1.009361546e-21
1.922763314e-21
3.281646156e-21
4.746881197e-21
6.986982174e-23
1.236552481e-22
2.495785817e-22
5.318675014e-22
1.135925308e-21
2.332577824e-21
4.439819649e-21
7.553302068e-21
1.088379488e-20
1.577492625e-22
2.810611818e-22
5.718682382e-22
1.22705643e-21
2.63011875e-21
5.398514622e-21
1.023521992e-20
1.731021027e-20
2.479795932e-20
3.616005354e-22
6.476194068e-22
1.325441269e-21
2.855479888e-21
6.123074617e-21
1.252208579e-20
2.357724945e-20
3.953893917e-20
5.620966889e-20
8.42658952e-22
1.514520414e-21
3.11057523e-21
6.70921114e-21
1.43487325e-20
2.915029729e-20
5.4362758e-20
9.01985711e-20
1.270509091e-19
1.997863926e-21
3.597280226e-21
7.396964965e-21
1.593096575e-20
3.389075401e-20
6.823312875e-20
1.257870316e-19
2.061756136e-19
2.874553711e-19
4.818019158e-21
8.676378746e-21
1.782388334e-20
3.82450213e-20
8.07701416e-20
1.609209079e-19
2.929973276e-19
4.742885092e-19
6.545803676e-19
1.179905261e-20
2.121831128e-20
4.346737284e-20
9.276779354e-20
1.942852845e-19
3.829602526e-19
6.892012504e-19
1.103600626e-18
1.510561571e-18
2.924690572e-20
5.244857715e-20
1.069864684e-19
2.268685345e-19
4.711292592e-19
9.19867919e-19
1.640710804e-18
2.609470163e-18
3.557494135e-18
7.302463127e-20
1.304257775e-19
2.64598323e-19
5.572341047e-19
1.148339535e-18
2.226507976e-18
3.953952524e-18
6.286298071e-18
8.59004517e-18
1.825654476e-19
3.243698884e-19
6.538480536e-19
1.367434214e-18
2.800509137e-18
5.411110458e-18
9.624093884e-18
1.541589706e-17
2.127234146e-17
4.540537877e-19
8.016338115e-19
1.604288202e-18
3.332578298e-18
6.795131753e-18
1.313608642e-17
2.35474585e-17
3.829171428e-17
5.371284166e-17
1.116357078e-18
1.9565021e-18
3.884466849e-18
8.017136502e-18
1.630703722e-17
3.166445087e-17
5.751975883e-17
9.548426369e-17
1.366552881e-16
2.69773066e-18
4.689329913e-18
9.232350802e-18
1.894243536e-17
3.851006236e-17
7.535485064e-17
1.391904991e-16
2.362971453e-16
3.447849344e-16
6.379577387e-18
1.099394481e-17
2.146382877e-17
4.381688104e-17
8.919681917e-17
1.762302262e-16
3.311844615e-16
5.733385509e-16
8.481530377e-16
1.472630372e-17
2.516451627e-17
4.87496041e-17
9.914299714e-17
2.023899701e-16
4.039186816e-16
7.700882888e-16
1.349180767e-15
2.003743872e-15
3.317039839e-17
5.626307566e-17
1.083111801e-16
2.198234149e-16
4.504577063e-16
9.067327405e-16
1.742740275e-15
3.05431179e-15
4.49713797e-15
7.305106923e-17
1.232329547e-16
2.362925289e-16
4.794916146e-16
9.864861122e-16
1.995302527e-15
3.829749352e-15
6.621162914e-15
9.541124848e-15
1.579824284e-16
2.657640189e-16
5.089093903e-16
1.034107048e-15
2.133107891e-15
4.308209458e-15
8.162169572e-15
1.372699279e-14
1.916034808e-14
3.376825292e-16
5.679724411e-16
1.088467688e-15
2.214985865e-15
4.563597457e-15
9.122758137e-15
1.684872828e-14
2.725253652e-14
3.665066131e-14
7.188890011e-16
1.210915015e-15
2.323243464e-15
4.722431674e-15
9.652464635e-15
1.889384869e-14
3.363075329e-14
5.197646351e-14
6.736382569e-14
1.536021646e-15
2.58925366e-15
4.959849404e-15
1.001075005e-14
2.0106249e-14
3.810522186e-14
6.482978645e-14
9.565744923e-14
1.200000454e-13
3.312133456e-15
5.565026491e-15
1.057577746e-14
2.100324011e-14
4.099779533e-14
7.450037212e-14
1.207197137e-13
1.707478708e-13
2.086234641e-13
7.213842032e-15
1.199371858e-14
2.240134246e-14
4.330146613e-14
8.129188326e-14
1.40774316e-13
2.175913466e-13
2.970443543e-13
3.556877267e-13
1.578406619e-14
2.573115493e-14
4.673348115e-14
8.700423233e-14
1.558910692e-13
2.569300452e-13
3.808899105e-13
5.056146169e-13
5.964562632e-13
3.430651685e-14
5.435069292e-14
9.5069693e-14
1.691197189e-13
2.882751048e-13
4.536997806e-13
6.498148758e-13
8.443875464e-13
9.852810691e-13
7.300653724e-14
1.11658486e-13
1.868774869e-13
3.164922788e-13
5.140522557e-13
7.775078812e-13
1.083733698e-12
1.385836332e-12
1.604222324e-12
1.50005771e-13
2.207797173e-13
3.527635485e-13
5.69413042e-13
8.859822795e-13
1.29733483e-12
1.770739132e-12
2.237162051e-12
2.574419847e-12
2.945743253e-13
4.174395962e-13
6.380951045e-13
9.865178806e-13
1.480940102e-12
2.113686854e-12
2.838622198e-12
3.553244477e-12
4.070440007e-12
5.50355536e-13
7.535607905e-13
1.107760203e-12
1.651620836e-12
2.408956472e-12
3.369763787e-12
4.468365756e-12
5.552357133e-12
6.337487393e-12
9.791452883e-13
1.302107784e-12
1.852896241e-12
2.68263944e-12
3.824221668e-12
5.264745684e-12
6.909922033e-12
8.534211672e-12
9.710876811e-12
1.666442922e-12
2.164073622e-12
2.999742677e-12
4.24230224e-12
5.937778656e-12
8.068813616e-12
1.049961036e-11
1.28993272e-11
1.463651642e-11
2.729311453e-12
3.477544353e-12
4.720107376e-12
6.550151767e-12
9.031382625e-12
1.213902124e-11
1.567784051e-11
1.916802101e-11
2.169040001e-11
4.325981764e-12
5.428095043e-12
7.242767736e-12
9.895197584e-12
1.347157115e-11
1.793465499e-11
2.300523274e-11
2.799657738e-11
3.159433426e-11
6.666311504e-12
8.25973737e-12
1.086507789e-11
1.46482788e-11
1.972251575e-11
2.60300475e-11
3.317452749e-11
4.018746535e-11
4.522445893e-11
1.002235185e-11
1.228566198e-11
1.596385543e-11
2.127262833e-11
2.835574088e-11
3.712231934e-11
4.701515385e-11
5.669000662e-11
6.360872061e-11
1.47382605e-11
1.789783128e-11
2.300401396e-11
3.033099527e-11
4.005434379e-11
5.203114234e-11
6.548707872e-11
7.85878145e-11
8.790951829e-11
2.123844147e-11
2.557386844e-11
3.254353733e-11
4.248711081e-11
5.560915795e-11
7.168758313e-11
8.966077171e-11
1.070698154e-10
1.193884303e-10
3.003241928e-11
3.587999369e-11
4.523272455e-11
5.849931612e-11
7.590441907e-11
9.710951835e-11
1.206809418e-10
1.433828649e-10
1.59351383e-10
4.171513563e-11
4.946801713e-11
6.180583677e-11
7.920436686e-11
1.018910579e-10
1.293621254e-10
1.5971321e-10
1.887659246e-10
2.09074846e-10
5.696073633e-11
6.706475455e-11
8.306352434e-11
1.054900558e-10
1.345468217e-10
1.695035645e-10
2.078750383e-10
2.443683641e-10
2.697164861e-10
7.650842395e-11
8.945252848e-11
1.09845064e-10
1.382563562e-10
1.748239891e-10
2.185180726e-10
2.661548281e-10
3.111578991e-10
3.422168235e-10
1.011393381e-10
1.174401102e-10
1.429904596e-10
1.783662318e-10
2.23587351e-10
2.772410225e-10
3.353257467e-10
3.898264737e-10
4.272012605e-10
1.316442306e-10
1.518244794e-10
1.832937852e-10
2.265889259e-10
2.815470984e-10
3.462826589e-10
4.158630174e-10
4.807044415e-10
5.248937377e-10
1.687828016e-10
1.933450474e-10
2.314506208e-10
2.835401738e-10
3.491929289e-10
4.259587321e-10
5.07874549e-10
5.836940725e-10
6.350535896e-10
2.132368434e-10
2.426333393e-10
2.880038061e-10
3.496250615e-10
4.267366468e-10
5.162366501e-10
6.11054433e-10
6.982323024e-10
7.569455354e-10
2.655606253e-10
3.001623414e-10
3.532927503e-10
4.249898506e-10
5.140704624e-10
6.167047904e-10
7.246668167e-10
8.23289659e-10
8.893491563e-10
3.261329966e-10
3.66200529e-10
4.274119044e-10
5.094887818e-10
6.107469474e-10
7.265702364e-10
8.475641267e-10
9.574078126e-10
1.030609169e-09
3.951162518e-10
4.407757692e-10
5.10183571e-10
6.026705742e-10
7.159842586e-10
8.446867447e-10
9.782391573e-10
1.098772988e-09
1.178722208e-09
4.724266788e-10
5.236537131e-10
6.011489464e-10
7.037871893e-10
8.286971596e-10
9.696108091e-10
1.114905952e-09
1.245317542e-09
1.331450778e-09
5.577208274e-10
6.143339388e-10
6.995793113e-10
8.118247603e-10
9.475510826e-10
1.099680002e-09
1.255600618e-09
1.394838345e-09
1.486451579e-09
6.503999314e-10
7.120651525e-10
8.045069061e-10
9.255538443e-10
1.071033587e-09
1.233105044e-09
1.398290932e-09
1.545118925e-09
1.641404148e-09
7.496328283e-10
8.158784903e-10
9.147726436e-10
1.043593841e-09
1.197535606e-09
1.368065757e-09
1.540983193e-09
1.694042793e-09
1.794126836e-09
8.543954709e-10
9.246357791e-10
1.029085839e-09
1.164484911e-09
1.325434124e-09
1.502801347e-09
1.68181617e-09
1.839687786e-09
1.942670148e-09
9.635231139e-10
1.037087873e-09
1.146089898e-09
1.28676025e-09
1.453168488e-09
1.635687109e-09
1.819134788e-09
1.98039488e-09
2.085381579e-09
1.075769834e-09
1.151937195e-09
1.264427589e-09
1.409012162e-09
1.579304103e-09
1.765292285e-09
1.95153961e-09
2.114808975e-09
2.220940421e-09
1.189869435e-09
1.267898487e-09
1.3828001e-09
1.529946752e-09
1.702579525e-09
1.8904167e-09
2.077911622e-09
2.241892831e-09
2.348364777e-09
1.304592069e-09
1.383752517e-09
1.500015399e-09
1.648424008e-09
1.821935409e-09
2.010106602e-09
2.197414704e-09
2.360918133e-09
2.466995677e-09
1.418791962e-09
1.498388842e-09
1.615023165e-09
1.763482103e-09
1.936525975e-09
2.123652296e-09
2.309480072e-09
2.471439274e-09
2.576464619e-09
1.531443188e-09
1.610835474e-09
1.726935423e-09
1.874346609e-09
2.045715373e-09
2.230571499e-09
2.413777923e-09
2.573255967e-09
2.67665105e-09
1.641662219e-09
1.72027504e-09
1.835033646e-09
1.980426758e-09
2.149062381e-09
2.330582973e-09
2.510181592e-09
2.6663704e-09
2.767635693e-09
1.74871765e-09
1.826048555e-09
1.938764408e-09
2.081301757e-09
2.246297264e-09
2.423574793e-09
2.598728853e-09
2.750943646e-09
2.849654372e-09
1.852028785e-09
1.927649019e-09
2.037726356e-09
2.176700487e-09
2.337294473e-09
2.509571048e-09
2.679584053e-09
2.827254784e-09
2.923055619e-09
1.951155642e-09
2.024707627e-09
2.13165157e-09
2.266477774e-09
2.422044309e-09
2.588699856e-09
2.753003598e-09
2.895664879e-09
2.988263977e-09
2.045783237e-09
2.116975508e-09
2.220384182e-09
2.350589945e-09
2.500625958e-09
2.661164658e-09
2.819306258e-09
2.95658686e-09
3.045749755e-09
2.135702921e-09
2.204303654e-09
2.303858702e-09
2.429071774e-09
2.573183552e-09
2.72721993e-09
2.87884894e-09
3.01046151e-09
3.096005206e-09
2.220793135e-09
2.286623182e-09
2.382079869e-09
2.502016254e-09
2.639906289e-09
2.787152028e-09
2.932008355e-09
3.057739753e-09
3.139527072e-09
2.30100134e-09
2.363927436e-09
2.455105214e-09
2.56955801e-09
2.701013165e-09
2.841265701e-09
2.979169794e-09
3.098873986e-09
3.176810192e-09
2.376328185e-09
2.436256732e-09
2.523030708e-09
2.631860225e-09
2.756741625e-09
2.889875336e-09
3.020723477e-09
3.13432809e-09
3.208402381e-09
2.446814381e-09
2.503685907e-09
2.585979216e-09
2.68910393e-09
2.807336922e-09
2.933291629e-09
3.057039159e-09
3.16450601e-09
3.234652166e-09
2.512530356e-09
2.566314689e-09
2.644091822e-09
2.741480475e-09
2.853046271e-09
2.971820254e-09
3.088483721e-09
3.189857046e-09
3.256038802e-09
2.573568501e-09
2.624260625e-09
2.697521659e-09
2.789186287e-09
2.894113864e-09
3.005752826e-09
3.115383356e-09
3.210676402e-09
3.272950884e-09
2.63003764e-09
2.6776542e-09
2.74642997e-09
2.832420386e-09
2.930781878e-09
3.035381892e-09
3.138109211e-09
3.2273647e-09
3.285778603e-09
2.682059259e-09
2.726635586e-09
2.790983486e-09
2.87138179e-09
2.963283629e-09
3.06096548e-09
3.156882722e-09
3.240246234e-09
3.29487572e-09
2.729765092e-09
2.77135288e-09
2.831354031e-09
2.906273073e-09
2.99186227e-09
3.082813318e-09
3.172035583e-09
3.249643847e-09
3.300575924e-09
2.773295602e-09
2.811961075e-09
2.86771825e-09
2.937300398e-09
3.016765369e-09
3.101093449e-09
3.183831318e-09
3.255851182e-09
3.303187763e-09
2.812799315e-09
2.848622364e-09
2.900260341e-09
2.964682967e-09
3.038131142e-09
3.11606016e-09
3.192529743e-09
3.259143771e-09
3.302997916e-09
2.848433395e-09
2.881508893e-09
2.929181095e-09
2.988535932e-09
3.056186348e-09
3.127947169e-09
3.198375817e-09
3.259778925e-09
3.300272396e-09
2.8803668e-09
2.910811126e-09
2.95457998e-09
3.00906533e-09
3.071141124e-09
3.136973851e-09
3.201599439e-09
3.2579963e-09
3.295257573e-09
2.908787906e-09
2.936619058e-09
2.976649689e-09
3.026464333e-09
3.083194895e-09
3.143347791e-09
3.202416382e-09
3.254018817e-09
3.288181271e-09
2.933763571e-09
2.959115687e-09
2.99557215e-09
3.040918376e-09
3.092538663e-09
3.147265964e-09
3.201029136e-09
3.248053617e-09
3.279253872e-09
2.955489959e-09
2.978479189e-09
3.011524395e-09
3.052607263e-09
3.09935592e-09
3.148915358e-09
3.197627611e-09
3.240292971e-09
3.268669397e-09
2.97414367e-09
2.994882528e-09
3.024679517e-09
3.061705635e-09
3.103822935e-09
3.14847336e-09
3.192389754e-09
3.230915151e-09
3.25660655e-09
2.989894753e-09
3.008495001e-09
3.035206806e-09
3.068382908e-09
3.106108786e-09
3.146108028e-09
3.185482103e-09
3.220085251e-09
3.243229719e-09
3.002909884e-09
3.019482691e-09
3.043271534e-09
3.072803034e-09
3.106375328e-09
3.141978324e-09
3.17706032e-09
3.207955978e-09
3.228689926e-09
3.013352797e-09
3.028008242e-09
3.049034573e-09
3.07512423e-09
3.104777136e-09
3.136234346e-09
3.167269697e-09
3.194668407e-09
3.213125748e-09
3.021383923e-09
3.034230396e-09
3.05265196e-09
3.075498714e-09
3.101461488e-09
3.129017566e-09
3.156245662e-09
3.180352709e-09
3.19666418e-09
3.02715983e-09
3.038303473e-09
3.054274505e-09
3.074072481e-09
3.09656836e-09
3.120461079e-09
3.144114269e-09
3.165128843e-09
3.179421464e-09
3.030832674e-09
3.040376892e-09
3.054047438e-09
3.070985143e-09
3.090230475e-09
3.110689868e-09
3.130992674e-09
3.149107222e-09
3.161503866e-09
3.032549702e-09
3.04059477e-09
3.052110133e-09
3.066369809e-09
3.082573381e-09
3.099821087e-09
3.116989615e-09
3.13238935e-09
3.143008416e-09
3.032452842e-09
3.039095589e-09
3.048595905e-09
3.060353038e-09
3.073715566e-09
3.087964352e-09
3.102205865e-09
3.115068417e-09
3.124023599e-09
3.030678386e-09
3.036011955e-09
3.043631871e-09
3.053054833e-09
3.063768609e-09
3.075222043e-09
3.086734686e-09
3.097229876e-09
3.104630005e-09
3.027356752e-09
3.031470431e-09
3.037338883e-09
3.044588691e-09
3.052837353e-09
3.061689615e-09
3.070662262e-09
3.078951982e-09
3.084900933e-09
3.022612326e-09
3.025591437e-09
3.029831509e-09
3.035061686e-09
3.041020106e-09
3.04745591e-09
3.054068118e-09
3.060306298e-09
3.064902963e-09
3.01656338e-09
3.018489214e-09
3.021218075e-09
3.024574601e-09
3.028408865e-09
3.032603474e-09
3.037025526e-09
3.041358177e-09
3.044696476e-09
3.009322044e-09
3.01027185e-09
3.011600744e-09
3.013222074e-09
3.015089544e-09
3.01720887e-09
3.019601893e-09
3.02216721e-09
3.024336151e-09
3.000994339e-09
3.001041342e-09
3.001075637e-09
3.001092788e-09
3.001142225e-09
3.00134299e-09
3.00185913e-09
3.002787651e-09
3.00387141e-09
2.991680252e-09
2.990893705e-09
2.98973298e-09
2.988269662e-09
2.986641409e-09
2.985071361e-09
2.983854012e-09
2.983268807e-09
2.983346852e-09
2.98147385e-09
2.979919109e-09
2.977657281e-09
2.974830073e-09
2.971656274e-09
2.968454445e-09
2.965638509e-09
2.963655409e-09
2.962802629e-09
2.970463425e-09
2.96820205e-09
2.964927521e-09
2.960846077e-09
2.956250935e-09
2.951547929e-09
2.947260112e-09
2.943987961e-09
2.942274819e-09
2.958731668e-09
2.955821533e-09
2.951617366e-09
2.946384646e-09
2.940484703e-09
2.934403011e-09
2.928762135e-09
2.924303056e-09
2.921795754e-09
2.946355854e-09
2.942851275e-09
2.937795384e-09
2.931507903e-09
2.924412344e-09
2.917066672e-09
2.910184005e-09
2.904633679e-09
2.901394327e-09
2.933408053e-09
2.92935992e-09
2.923525272e-09
2.916273366e-09
2.908084325e-09
2.899581939e-09
2.891561531e-09
2.885009489e-09
2.881096283e-09
2.919955341e-09
2.915411264e-09
2.908866089e-09
2.900734183e-09
2.891547069e-09
2.881988139e-09
2.872927166e-09
2.865457077e-09
2.860924481e-09
2.906060028e-09
2.901064479e-09
2.893872483e-09
2.884939371e-09
2.874843189e-09
2.86432114e-09
2.854310246e-09
2.846000208e-09
2.840899133e-09
2.891779881e-09
2.886374342e-09
2.87859493e-09
2.868934049e-09
2.858011723e-09
2.846613584e-09
2.835737222e-09
2.826660052e-09
2.821038036e-09
2.877168355e-09
2.871391469e-09
2.863079956e-09
2.852759666e-09
2.841088361e-09
2.828895103e-09
2.817231871e-09
2.807455391e-09
2.801356776e-09
2.862274821e-09
2.856162536e-09
2.847370368e-09
2.836454221e-09
2.824105656e-09
2.811192535e-09
2.7988155e-09
2.788402813e-09
2.781868921e-09
2.84714479e-09
2.840730507e-09
2.831505468e-09
2.820052478e-09
2.807093237e-09
2.793530117e-09
2.780507136e-09
2.769516897e-09
2.762586199e-09
2.831820136e-09
2.825134849e-09
2.815521271e-09
2.803586174e-09
2.790078002e-09
2.775929672e-09
2.762323701e-09
2.750810381e-09
2.74351866e-09
2.816339309e-09
2.809411747e-09
2.799450711e-09
2.787084215e-09
2.773084308e-09
2.758410793e-09
2.744280184e-09
2.732294318e-09
2.724674829e-09
2.800737549e-09
2.793594306e-09
2.783323834e-09
2.770572868e-09
2.756134154e-09
2.740991005e-09
2.726389789e-09
2.713978221e-09
2.706061841e-09
2.785047085e-09
2.777712752e-09
2.767167999e-09
2.754075941e-09
2.739247345e-09
2.723685922e-09
2.708664084e-09
2.695870198e-09
2.687685578e-09
2.769297331e-09
2.761794622e-09
2.75100805e-09
2.737614958e-09
2.722441656e-09
2.7065094e-09
2.691113138e-09
2.67797708e-09
2.669550777e-09
2.753515073e-09
2.745864941e-09
2.734866497e-09
2.721209318e-09
2.705732984e-09
2.68947367e-09
2.673745644e-09
2.66030453e-09
2.651661146e-09
2.737724648e-09
2.729946401e-09
2.718763677e-09
2.704876454e-09
2.689135492e-09
2.672589472e-09
2.656569039e-09
2.642857155e-09
2.634019462e-09
2.721948113e-09
2.714059522e-09
2.702717914e-09
2.688631979e-09
2.672661739e-09
2.655866175e-09
2.63958961e-09
2.625638602e-09
2.61662766e-09
2.706205406e-09
2.69822281e-09
2.686745664e-09
2.672489823e-09
2.65632281e-09
2.639311894e-09
2.622812598e-09
2.608651651e-09
2.599486925e-09
2.690514503e-09
2.682452902e-09
2.670861654e-09
2.656462359e-09
2.640128434e-09
2.622933588e-09
2.606242294e-09
2.591898297e-09
2.58259776e-09
2.674891555e-09
2.666764709e-09
2.655079018e-09
2.640560533e-09
2.624087091e-09
2.606737166e-09
2.589882117e-09
2.575379828e-09
2.565960066e-09
2.659351031e-09
2.651171539e-09
2.639409414e-09
2.624793966e-09
2.608206117e-09
2.590727571e-09
2.573734702e-09
2.559096891e-09
2.549573198e-09
2.643905837e-09
2.635685225e-09
2.62386314e-09
2.609171068e-09
2.592491796e-09
2.574908868e-09
2.557801968e-09
2.543049561e-09
2.533436027e-09
2.628567439e-09
2.620316236e-09
2.608449238e-09
2.593699126e-09
2.576949443e-09
2.559284314e-09
2.542085178e-09
2.527237389e-09
2.517546985e-09
2.613345969e-09
2.605073774e-09
2.593175589e-09
2.578384394e-09
2.561583484e-09
2.543856421e-09
2.526585e-09
2.511659451e-09
2.501904109e-09
2.598250319e-09
2.589965873e-09
2.578048999e-09
2.563232165e-09
2.546397513e-09
2.528627013e-09
2.511301541e-09
2.496314377e-09
2.486505064e-09
2.583288223e-09
2.574999467e-09
2.563075261e-09
2.54824683e-09
2.531394345e-09
2.513597254e-09
2.496234371e-09
2.481200366e-09
2.471347152e-09
2.568466326e-09
2.560180455e-09
2.548259211e-09
2.533431916e-09
2.516576033e-09
2.498767662e-09
2.481382525e-09
2.466315175e-09
2.456427294e-09
2.553790228e-09
2.545513738e-09
2.533604751e-09
2.518790096e-09
2.501943874e-09
2.484138091e-09
2.46674446e-09
2.451656063e-09
2.441741967e-09
2.5392645e-09
2.531003227e-09
2.51911485e-09
2.504323174e-09
2.487498357e-09
2.469707661e-09
2.452317973e-09
2.437219687e-09
2.427287088e-09
2.524892669e-09
2.516651813e-09
2.504791487e-09
2.490032005e-09
2.473239071e-09
2.455474629e-09
2.438100034e-09
2.423001915e-09
2.413057811e-09
2.510677146e-09
2.502461281e-09
2.490635547e-09
2.475916359e-09
2.459164519e-09
2.441436169e-09
2.424086527e-09
2.408997525e-09
2.399048199e-09
2.496619093e-09
2.488432155e-09
2.476646634e-09
2.461974689e-09
2.445271842e-09
2.42758803e-09
2.410271845e-09
2.395199745e-09
2.385250732e-09
2.482718205e-09
2.474563449e-09
2.462822775e-09
2.448203776e-09
2.43155639e-09
2.413924032e-09
2.396648305e-09
2.381599594e-09
2.371655596e-09
2.468972374e-09
2.460852295e-09
2.449159989e-09
2.434598231e-09
2.418011124e-09
2.400435356e-09
2.383205319e-09
2.36818495e-09
2.358249676e-09
2.455377219e-09
2.447293424e-09
2.435651695e-09
2.421149781e-09
2.404625786e-09
2.387109568e-09
2.369928271e-09
2.354939276e-09
2.345015191e-09
2.441925439e-09
2.433878447e-09
2.42228789e-09
2.407846333e-09
2.391385791e-09
2.373929327e-09
2.356797022e-09
2.341839953e-09
2.331927892e-09
2.428605945e-09
2.420594911e-09
2.409054084e-09
2.394670736e-09
2.37827079e-09
2.360870711e-09
2.343783989e-09
2.328856114e-09
2.318954735e-09
2.41540275e-09
2.407425089e-09
2.395929933e-09
2.381599211e-09
2.365252847e-09
2.34790111e-09
2.330851732e-09
2.315945948e-09
2.306050982e-09
2.402293558e-09
2.394344445e-09
2.38288753e-09
2.368599399e-09
2.352294198e-09
2.334976642e-09
2.317950006e-09
2.303053415e-09
2.293156673e-09
2.389248036e-09
2.381319765e-09
2.369889319e-09
2.355628004e-09
2.339344545e-09
2.322039061e-09
2.305012262e-09
2.290104352e-09
2.280192464e-09
2.376225722e-09
2.368306916e-09
2.35688562e-09
2.342628002e-09
2.326337898e-09
2.309012171e-09
2.291951609e-09
2.277002018e-09
2.267054854e-09
2.363173575e-09
2.355248219e-09
2.343811753e-09
2.329525436e-09
2.313188969e-09
2.295797772e-09
2.278656289e-09
2.263622129e-09
2.253610928e-09
2.350023164e-09
2.342069465e-09
2.330584785e-09
2.316225834e-09
2.299789192e-09
2.282271242e-09
2.264984808e-09
2.249807564e-09
2.239692748e-09
2.336687528e-09
2.328676599e-09
2.317099976e-09
2.302610328e-09
2.286002475e-09
2.268276892e-09
2.250760885e-09
2.235362957e-09
2.225091695e-09
2.323057767e-09
2.314952167e-09
2.303226994e-09
2.28853161e-09
2.271660862e-09
2.253623317e-09
2.235768521e-09
2.220049507e-09
2.209553108e-09
2.308999474e-09
2.30075162e-09
2.288806073e-09
2.273809907e-09
2.256560329e-09
2.238079045e-09
2.219747526e-09
2.20358044e-09
2.192771704e-09
2.294349155e-09
2.285899682e-09
2.273644305e-09
2.258229228e-09
2.240457028e-09
2.221368853e-09
2.20238998e-09
2.185617651e-09
2.174388366e-09
2.278910829e-09
2.270186971e-09
2.257512332e-09
2.241534194e-09
2.223064374e-09
2.203171217e-09
2.183338168e-09
2.165770155e-09
2.153989004e-09
2.262453069e-09
2.253367175e-09
2.240141766e-09
2.22342785e-09
2.204051411e-09
2.183117441e-09
2.162184615e-09
2.14359508e-09
2.13110625e-09
2.244706798e-09
2.235155126e-09
2.221223721e-09
2.203570879e-09
2.183042984e-09
2.160793047e-09
2.138474914e-09
2.118601939e-09
2.105224828e-09
2.225364198e-09
2.215226156e-09
2.200408896e-09
2.18158274e-09
2.159622279e-09
2.135742071e-09
2.111714029e-09
2.090260958e-09
2.075791373e-09
2.204079147e-09
2.193217177e-09
2.177309685e-09
2.157045224e-09
2.133336287e-09
2.107474868e-09
2.081376739e-09
2.058016131e-09
2.042229416e-09
2.180469621e-09
2.168729945e-09
2.151504788e-09
2.129508954e-09
2.103704733e-09
2.075479958e-09
2.046922738e-09
2.021303499e-09
2.003959993e-09
2.154122519e-09
2.141336966e-09
2.122546803e-09
2.098503273e-09
2.07023288e-09
2.039240298e-09
2.007816682e-09
1.97957485e-09
1.960427991e-09
2.124601307e-09
2.110590443e-09
2.089973156e-09
2.06354986e-09
2.032428487e-09
1.998254104e-09
1.963553163e-09
1.932326625e-09
1.911133861e-09
2.091456856e-09
2.076034577e-09
2.053320638e-09
2.024180215e-09
1.989822884e-09
1.95206e-09
1.913686101e-09
1.879133225e-09
1.855669666e-09
2.054241649e-09
2.037221376e-09
2.012143576e-09
1.979956901e-09
1.941995832e-09
1.900265832e-09
1.857861525e-09
1.819683301e-09
1.793757738e-09
2.012527409e-09
1.993729888e-09
1.966035419e-09
1.930498063e-09
1.888603383e-09
1.842579973e-09
1.795852086e-09
1.753816891e-09
1.725289421e-09
1.965925858e-09
1.945188472e-09
1.914653124e-09
1.875504351e-09
1.829407461e-09
1.778843369e-09
1.727591053e-09
1.681560602e-09
1.650360708e-09
1.914112039e-09
1.891299339e-09
1.857743339e-09
1.814786865e-09
1.76430536e-09
1.709060022e-09
1.653202934e-09
1.603157485e-09
1.569300987e-09
1.856849195e-09
1.831864191e-09
1.795168868e-09
1.748294192e-09
1.693356716e-09
1.633422913e-09
1.573027174e-09
1.519087494e-09
1.482690175e-09
1.794013842e-09
1.766809326e-09
1.726933451e-09
1.676136061e-09