/*--------------------------------*- C++ -*----------------------------------*\
| =========                 |                                                 |
| \\      /  F ield         | OpenFOAM: The Open Source CFD Toolbox           |
|  \\    /   O peration     | Version:  2212                                  |
|   \\  /    A nd           | Website:  www.openfoam.com                      |
|    \\/     M anipulation  |                                                 |
\*---------------------------------------------------------------------------*/
FoamFile
{
    version     2.0;
    format      ascii;
    arch        "LSB;label=32;scalar=64";
    class       volScalarField;
    location    "20.00000000";
    object      I-C4H51;
}
// * * * * * * * * * * * * * * * * * * * * * * * * * * * * * * * * * * * * * //

dimensions      [0 0 0 0 0 0 0];

internalField   nonuniform List<scalar> 
3000
(
3.623977384e-33
4.495274758e-33
5.88836192e-33
7.886343243e-33
1.057446587e-32
1.398357382e-32
1.798177103e-32
2.209144577e-32
2.522540987e-32
1.527196537e-32
1.908359937e-32
2.517756024e-32
3.393529282e-32
4.581541249e-32
6.127559601e-32
8.060774319e-32
1.034693195e-31
1.259102593e-31
3.935323806e-32
4.979828577e-32
6.667509383e-32
9.140163402e-32
1.260109404e-31
1.731578904e-31
2.355863834e-31
3.136361198e-31
3.903244107e-31
8.599149257e-32
1.105947435e-31
1.511277193e-31
2.123172162e-31
3.013589587e-31
4.280292388e-31
6.024987255e-31
8.240146938e-31
1.033203419e-30
1.748710676e-31
2.29402721e-31
3.214366826e-31
4.648626538e-31
6.810640299e-31
9.988163794e-31
1.44460775e-30
2.003517941e-30
2.505718224e-30
3.444189697e-31
4.617406557e-31
6.647058143e-31
9.903862848e-31
1.495606973e-30
2.253996772e-30
3.323380189e-30
4.636973776e-30
5.768139307e-30
6.715807054e-31
9.20511994e-31
1.360995153e-30
2.085390902e-30
3.233435406e-30
4.978229967e-30
7.434147157e-30
1.039218545e-29
1.283998705e-29
1.310663915e-30
1.834759442e-30
2.780254733e-30
4.36597084e-30
6.918114358e-30
1.082499228e-29
1.630828503e-29
2.283988001e-29
2.824649241e-29
2.57370404e-30
3.672220408e-30
5.685469664e-30
9.11272339e-30
1.468623961e-29
2.324358095e-29
3.518732417e-29
4.922639301e-29
6.060441286e-29
5.093571868e-30
7.388952008e-30
1.164871683e-29
1.898203606e-29
3.099156625e-29
4.944956161e-29
7.508221595e-29
1.04925473e-28
1.288513397e-28
1.015853925e-29
1.494376246e-29
2.391182272e-29
3.948038895e-29
6.509829464e-29
1.044763656e-28
1.589318777e-28
2.218906526e-28
2.719891832e-28
2.039640596e-29
3.035306539e-29
4.91566152e-29
8.200515643e-29
1.362353829e-28
2.195704546e-28
3.344216161e-28
4.665061202e-28
5.710275636e-28
4.117689942e-29
6.185956861e-29
1.011541613e-28
1.701253782e-28
2.842548955e-28
4.595582221e-28
7.004967469e-28
9.76465387e-28
1.193929042e-27
8.348617541e-29
1.263870226e-28
2.082772915e-28
3.525355752e-28
5.916434963e-28
9.587387929e-28
1.46216696e-27
2.036964626e-27
2.488434827e-27
1.698231945e-28
2.586961724e-28
4.289699039e-28
7.297665888e-28
1.228947293e-27
1.994975324e-27
3.043622363e-27
4.237930774e-27
5.173573918e-27
3.462975168e-28
5.302001561e-28
8.835854689e-28
1.509228174e-27
2.54845181e-27
4.142546821e-27
6.321581446e-27
8.79824333e-27
1.073442456e-26
7.074576365e-28
1.087633592e-27
1.819906444e-27
3.118588839e-27
5.277255007e-27
8.587220097e-27
1.310621701e-26
1.823377449e-26
2.223531835e-26
1.447249781e-27
2.232512252e-27
3.747925035e-27
6.439197552e-27
1.091493142e-26
1.777523799e-26
2.713154028e-26
3.773249366e-26
4.599298786e-26
2.963603662e-27
4.584381717e-27
7.717002308e-27
1.328638222e-26
2.255199885e-26
3.674895423e-26
5.609292559e-26
7.798210579e-26
9.501566377e-26
6.073031863e-27
9.416088172e-27
1.588551986e-26
2.739708962e-26
4.65531631e-26
7.58931285e-26
1.158346278e-25
1.609777463e-25
1.960626954e-25
1.245079365e-26
1.93420034e-26
3.269096638e-26
5.645916895e-26
9.601570581e-26
1.565754104e-25
2.389448499e-25
3.319333076e-25
4.041140962e-25
2.553310158e-26
3.972970388e-26
6.725129696e-26
1.162769161e-25
1.978672272e-25
3.227157224e-25
4.923707892e-25
6.836691854e-25
8.319715911e-25
5.236491077e-26
8.159331007e-26
1.382891426e-25
2.393137866e-25
4.074166149e-25
6.644839658e-25
1.013454177e-24
1.406439472e-24
1.710676815e-24
1.073782108e-25
1.675124129e-25
2.842070667e-25
4.921682167e-25
8.381067871e-25
1.366724787e-24
2.083486544e-24
2.889481599e-24
3.512487028e-24
2.201076398e-25
3.437257191e-25
5.836783163e-25
1.011280195e-24
1.722255603e-24
2.80767152e-24
4.27740314e-24
5.927322934e-24
7.200347802e-24
4.509176135e-25
7.047952917e-25
1.19764624e-24
2.075731256e-24
3.534759625e-24
5.759632123e-24
8.767427534e-24
1.213733909e-23
1.473195339e-23
9.229766418e-25
1.443766786e-24
2.454727092e-24
4.255170029e-24
7.244132797e-24
1.179553236e-23
1.793670634e-23
2.480127509e-23
3.007338277e-23
1.887085895e-24
2.953898966e-24
5.02437072e-24
8.709457149e-24
1.482014084e-23
2.410894567e-23
3.661343578e-23
5.055249399e-23
6.122652715e-23
3.852682895e-24
6.034263277e-24
1.026665883e-23
1.779321479e-23
3.02558507e-23
4.91603552e-23
7.453968086e-23
1.027390198e-22
1.242589402e-22
7.851577241e-24
1.23036382e-23
2.093596104e-23
3.626996549e-23
6.16149979e-23
9.996362305e-23
1.512799819e-22
2.080823296e-22
2.512577234e-22
1.59666525e-23
2.503000661e-23
4.258965381e-23
7.373789473e-23
1.251099581e-22
2.026057429e-22
3.059135925e-22
4.197637971e-22
5.059065587e-22
3.238677295e-23
5.078471817e-23
8.639329487e-23
1.494481253e-22
2.531723831e-22
4.090900534e-22
6.160260603e-22
8.429334546e-22
1.013733324e-21
6.550085919e-23
1.027231684e-22
1.74673566e-22
3.018135705e-22
5.103129166e-22
8.224408299e-22
1.234612188e-21
1.683993529e-21
2.020309544e-21
1.320319413e-22
2.070528011e-22
3.51839735e-22
6.070425477e-22
1.024047376e-21
1.645364343e-21
2.461139387e-21
3.344918166e-21
4.002151185e-21
2.651507899e-22
4.157041818e-22
7.057149246e-22
1.215376181e-21
2.04470279e-21
3.273725845e-21
4.877091122e-21
6.601978436e-21
7.875917757e-21
5.303023267e-22
8.309874637e-22
1.408891904e-21
2.420990686e-21
4.060055002e-21
6.474422044e-21
9.601928305e-21
1.294094174e-20
1.538896373e-20
1.055879894e-21
1.653233727e-21
2.79828888e-21
4.795692262e-21
8.013043358e-21
1.272052383e-20
1.877150727e-20
2.517919116e-20
2.984084286e-20
2.092287663e-21
3.272176953e-21
5.52695405e-21
9.442359051e-21
1.57113026e-20
2.481639053e-20
3.642302148e-20
4.860828805e-20
5.740234237e-20
4.124903769e-21
6.440924242e-21
1.08513219e-20
1.847101482e-20
3.059001128e-20
4.805178328e-20
7.01149346e-20
9.307065031e-20
1.095022178e-19
8.088673024e-21
1.26046317e-20
2.117017021e-20
3.588483468e-20
5.911892077e-20
9.23110146e-20
1.338620418e-19
1.766958911e-19
2.071029329e-19
1.57729876e-20
2.451668116e-20
4.102715818e-20
6.921374127e-20
1.133721529e-19
1.758889069e-19
2.534003968e-19
3.32557613e-19
3.882872949e-19
3.058038261e-20
4.738492248e-20
7.895969483e-20
1.32498559e-19
2.156764844e-19
3.323276391e-19
4.755410772e-19
6.204228922e-19
7.215974316e-19
5.893855331e-20
9.098755283e-20
1.508795678e-19
2.516927086e-19
4.069404238e-19
6.22551355e-19
8.846365956e-19
1.147307749e-18
1.32928668e-18
1.129104355e-19
1.735490542e-19
2.862025572e-19
4.743532815e-19
7.61444007e-19
1.156211768e-18
1.631318736e-18
2.103140976e-18
2.427525967e-18
2.149862537e-19
3.28786756e-19
5.388713539e-19
8.868787458e-19
1.412874523e-18
2.128920647e-18
2.982248193e-18
3.822163539e-18
4.3954079e-18
4.068224001e-19
6.186268148e-19
1.007020595e-18
1.644918551e-18
2.599785713e-18
3.886681238e-18
5.405591603e-18
6.887877596e-18
7.892554456e-18
7.650711422e-19
1.155984707e-18
1.867790742e-18
3.026601383e-18
4.744362763e-18
7.036568616e-18
9.716860004e-18
1.23112457e-17
1.405827905e-17
1.429864127e-18
2.145288002e-18
3.438508314e-18
5.525018571e-18
8.587917755e-18
1.263556062e-17
1.732613177e-17
2.18314156e-17
2.48468635e-17
2.655727578e-18
3.954066505e-18
6.283450018e-18
1.000780189e-17
1.542242409e-17
2.251067007e-17
3.065465042e-17
3.84203543e-17
4.358890103e-17
4.902006593e-18
7.23859608e-18
1.139892594e-17
1.799069752e-17
2.748372636e-17
3.979852287e-17
5.383299351e-17
6.712524815e-17
7.592641095e-17
8.992448402e-18
1.316303127e-17
2.053216021e-17
3.210377913e-17
4.861553461e-17
6.984994389e-17
9.386521842e-17
1.164680202e-16
1.313633663e-16
1.639515059e-17
2.377936536e-17
3.672760794e-17
5.688167111e-17
8.538490959e-17
1.217390734e-16
1.625609835e-16
2.007601049e-16
2.258256693e-16
2.971091949e-17
4.268279848e-17
6.525833693e-17
1.000966863e-16
1.489475364e-16
2.10769657e-16
2.797285574e-16
3.439148724e-16
3.858713727e-16
5.352080041e-17
7.613681615e-17
1.152075763e-16
1.749998673e-16
2.581540889e-16
3.626152566e-16
4.784247042e-16
5.857064214e-16
6.555927356e-16
9.585032636e-17
1.349959021e-16
2.02127309e-16
3.040351845e-16
4.446699563e-16
6.201421374e-16
8.135895672e-16
9.920175761e-16
1.107893538e-15
1.706493987e-16
2.379210785e-16
3.524746535e-16
5.250444067e-16
7.614751445e-16
1.054620253e-15
1.376138235e-15
1.671531137e-15
1.862842154e-15
3.020254421e-16
4.168448291e-16
6.110571161e-16
9.015244989e-16
1.296797241e-15
1.784037423e-15
2.315927769e-15
2.802867622e-15
3.117468401e-15
5.314096297e-16
7.261199888e-16
1.05338456e-15
1.539541635e-15
2.196952351e-15
3.00296885e-15
3.879072052e-15
4.678572543e-15
5.194004258e-15
9.296119152e-16
1.257792919e-15
1.806120013e-15
2.615523388e-15
3.703649335e-15
5.031134957e-15
6.468400954e-15
7.776229056e-15
8.617786968e-15
1.617011505e-15
2.166992944e-15
3.080808765e-15
4.421775862e-15
6.214737796e-15
8.392129506e-15
1.074117376e-14
1.287315044e-14
1.424276657e-14
2.7972205e-15
3.713970991e-15
5.229315021e-15
7.440804394e-15
1.038286588e-14
1.394074932e-14
1.776663957e-14
2.123095114e-14
2.345327418e-14
4.812974251e-15
6.333447113e-15
8.834644903e-15
1.246632674e-14
1.727531054e-14
2.306846963e-14
2.927957276e-14
3.489198332e-14
3.848775833e-14
8.238555457e-15
1.074861e-14
1.485930045e-14
2.079980855e-14
2.863233034e-14
3.803436223e-14
4.808749649e-14
5.715461233e-14
6.295733869e-14
1.403205756e-14
1.81579043e-14
2.488693027e-14
3.456889627e-14
4.728392331e-14
6.24970957e-14
7.872372404e-14
9.333411656e-14
1.0267526e-13
2.378531517e-14
3.054010892e-14
4.15148938e-14
5.72421963e-14
7.782085777e-14
1.023688699e-13
1.284932265e-13
1.519794849e-13
1.669822945e-13
4.013264746e-14
5.115102943e-14
6.899027376e-14
9.445962566e-14
1.276731805e-13
1.671841675e-13
2.091458305e-13
2.468177379e-13
2.708633793e-13
6.74167497e-14
8.532941235e-14
1.142373553e-13
1.553686353e-13
2.088404204e-13
2.72290679e-13
3.395506087e-13
3.998593008e-13
4.383273119e-13
1.127688449e-13
1.417995759e-13
1.885120513e-13
2.547686229e-13
3.406613037e-13
4.423508366e-13
5.499666576e-13
6.463563177e-13
7.078041533e-13
1.878519765e-13
2.347672447e-13
3.100550678e-13
4.165405382e-13
5.542352346e-13
7.169265778e-13
8.888548244e-13
1.042716303e-12
1.140766733e-12
3.116573291e-13
3.872723876e-13
5.083248033e-13
6.791070871e-13
8.994537306e-13
1.159360346e-12
1.4337203e-12
1.679119441e-12
1.835497817e-12
5.14955684e-13
6.365144194e-13
8.307054527e-13
1.104073017e-12
1.456122779e-12
1.870834995e-12
2.308312038e-12
2.699586516e-12
2.949037215e-12
8.473172459e-13
1.042233446e-12
1.353045991e-12
1.789787075e-12
2.351426025e-12
3.012486468e-12
3.709752287e-12
4.333746275e-12
4.732025665e-12
1.388054418e-12
1.6997526e-12
2.19603626e-12
2.892404664e-12
3.787069488e-12
4.839856533e-12
5.950959675e-12
6.946719192e-12
7.583600307e-12
2.26304289e-12
2.759993802e-12
3.550306179e-12
4.658161186e-12
6.080922738e-12
7.755888047e-12
9.526162318e-12
1.111648783e-11
1.213681947e-11
3.670152749e-12
4.459687865e-12
5.714257264e-12
7.472002327e-12
9.729836911e-12
1.239108198e-11
1.521035843e-11
1.775182384e-11
1.938923983e-11
5.91695876e-12
7.166085692e-12
9.149961218e-12
1.192939123e-11
1.550246639e-11
1.972217964e-11
2.420700559e-11
2.82679132e-11
3.089777094e-11
9.475429058e-12
1.144164723e-11
1.456385219e-11
1.893981767e-11
2.457303447e-11
3.124333093e-11
3.836131632e-11
4.484032848e-11
4.906066237e-11
1.505926651e-11
1.81352449e-11
2.302012229e-11
2.987186504e-11
3.870845598e-11
4.920526049e-11
6.045802502e-11
7.075924501e-11
7.751043445e-11
2.373025096e-11
2.850705015e-11
3.609525908e-11
4.674999807e-11
6.052110416e-11
7.693705678e-11
9.462043987e-11
1.109023006e-10
1.216368714e-10
3.70399589e-11
4.439403393e-11
5.60814288e-11
7.251164301e-11
9.379652097e-11
1.192601027e-10
1.468196179e-10
1.723333104e-10
1.892455517e-10
5.72122088e-11
6.842138422e-11
8.624370598e-11
1.113286585e-10
1.438981586e-10
1.82992531e-10
2.254863599e-10
2.650126159e-10
2.913321233e-10
8.73690917e-11
1.042616293e-10
1.311308344e-10
1.689891079e-10
2.182387783e-10
2.775242839e-10
3.421933487e-10
4.025724151e-10
4.429152385e-10
1.317992108e-10
1.569375355e-10
1.969309389e-10
2.53323051e-10
3.267903531e-10
4.154178555e-10
5.123415893e-10
6.030696748e-10
6.638254755e-10
1.962607293e-10
2.331569631e-10
2.918526365e-10
3.746405671e-10
4.825827795e-10
6.129611173e-10
7.55749415e-10
8.89587533e-10
9.793027395e-10
2.883043134e-10
3.416583763e-10
4.264993967e-10
5.461334326e-10
7.021200248e-10
8.905722417e-10
1.097012654e-09
1.290525374e-09
1.420224479e-09
4.175927453e-10
4.935357371e-10
6.141927493e-10
7.841771975e-10
1.005626054e-09
1.272941014e-09
1.565492579e-09
1.839412208e-09
2.022787371e-09
5.961858782e-10
7.025026992e-10
8.711907195e-10
1.108462145e-09
1.417028439e-09
1.788794568e-09
2.194804864e-09
2.574109666e-09
2.827508244e-09
8.38752937e-10
9.850502402e-10
1.216744613e-09
1.541884014e-09
1.963600508e-09
2.470205053e-09
3.02173377e-09
3.535344145e-09
3.877498665e-09
1.162670223e-09
1.360450929e-09
1.672942403e-09
2.110141258e-09
2.675215616e-09
3.351412539e-09
4.084578214e-09
4.764614792e-09
5.216090464e-09
1.587962341e-09
1.850568342e-09
2.26430171e-09
2.841015147e-09
3.583217249e-09
4.4672113e-09
5.421036443e-09
6.301644564e-09
6.884021383e-09
2.137050296e-09
2.479442443e-09
3.01709923e-09
3.763349059e-09
4.71896828e-09
5.851027336e-09
7.065831895e-09
8.181646795e-09
8.916498122e-09
2.834281312e-09
3.272640863e-09
3.958453902e-09
4.90578745e-09
6.112200069e-09
7.532881009e-09
9.048350025e-09
1.043274075e-08
1.134050751e-08
3.705233423e-09
4.256390854e-09
5.115214196e-09
6.295375186e-09
7.789324408e-09
9.537464458e-09
1.139057537e-08
1.307384784e-08
1.417272795e-08
4.775812562e-09
5.456534774e-09
6.512730333e-09
7.95614594e-09
9.771888278e-09
1.188255861e-08
1.410558291e-08
1.611333309e-08
1.741830467e-08
6.071188697e-09
6.897379736e-09
8.173614815e-09
9.907838228e-09
1.20753385e-08
1.457796931e-08
1.719675518e-08
1.954854012e-08
2.107061468e-08
7.614646543e-09
8.600534739e-09
1.01166048e-08
1.216486685e-08
1.470822293e-08
1.762508637e-08
2.065778575e-08
2.336622951e-08
2.511199433e-08
9.4264496e-09
1.058384114e-08
1.235563472e-08
1.473564753e-08
1.767189523e-08
2.101707993e-08
2.447341633e-08
2.754380197e-08
2.951526756e-08
1.152282735e-08
1.286050056e-08
1.489920668e-08
1.762232895e-08
2.096072375e-08
2.473966433e-08
2.862076146e-08
3.205109418e-08
3.424582321e-08
1.391518975e-08
1.543848633e-08
1.775011249e-08
2.082093628e-08
2.456274373e-08
2.877229552e-08
3.307101726e-08
3.685248991e-08
3.926395424e-08
1.660964933e-08
1.832029237e-08
2.090551934e-08
2.432188311e-08
2.846064633e-08
3.308963339e-08
3.779133428e-08
4.190909257e-08
4.452718959e-08
1.960689288e-08
2.150303142e-08
2.435738847e-08
2.811077087e-08
3.263297313e-08
3.766309572e-08
4.274665403e-08
4.718074665e-08
4.999240385e-08
2.290239862e-08
2.497885174e-08
2.809316052e-08
3.216937194e-08
3.705538164e-08
4.246235138e-08
4.790135325e-08
5.262775912e-08
5.561756417e-08
2.648695115e-08
2.873560472e-08
3.209661692e-08
3.647668697e-08
4.170186316e-08
4.745663791e-08
5.322059645e-08
5.821224093e-08
6.136304928e-08
3.034737328e-08
3.275767298e-08
3.634881864e-08
4.100997617e-08
4.654582206e-08
5.261583309e-08
5.867135306e-08
6.389905104e-08
6.719253959e-08
3.446737723e-08
3.702686147e-08
4.082903001e-08
4.574568572e-08
5.156096001e-08
5.791125277e-08
6.422308211e-08
6.965637182e-08
7.307352257e-08
3.88284387e-08
4.152326359e-08
4.551555433e-08
5.066021786e-08
5.672194197e-08
6.331618265e-08
6.984812072e-08
7.545597374e-08
7.897748343e-08
4.34106132e-08
4.622603448e-08
5.038643326e-08
5.573052235e-08
6.200484954e-08
6.88061769e-08
7.552183175e-08
8.127324066e-08
8.487986002e-08
4.81932395e-08
5.111403084e-08
5.541998967e-08
6.093451257e-08
6.738744975e-08
7.435917297e-08
8.122257606e-08
8.708702975e-08
9.075983999e-08
5.315550292e-08
5.616630338e-08
6.059521787e-08
6.625133041e-08
7.284932281e-08
7.995548419e-08
8.6931585e-08
9.287945056e-08
9.660008546e-08
5.827685606e-08
6.136244932e-08
6.58920416e-08
7.166149425e-08
7.837189842e-08
8.557773878e-08
9.263283248e-08
9.863570847e-08
1.023865709e-07
6.353731105e-08
6.668284433e-08
7.129146382e-08
7.714695554e-08
8.393842223e-08
9.121078302e-08
9.831295606e-08
1.043442703e-07
1.081096097e-07
6.891762692e-08
7.210877761e-08
7.677562835e-08
8.269106753e-08
8.953380188e-08
9.684132647e-08
1.039604589e-07
1.099948613e-07
1.137582845e-07
7.439942038e-08
7.762252066e-08
8.232783081e-08
8.827853058e-08
9.514449881e-08
1.024578654e-07
1.095660334e-07
1.155806158e-07
1.193267463e-07
7.996522768e-08
8.320735654e-08
8.79325023e-08
9.389531843e-08
1.007583713e-07
1.080503285e-07
1.151214637e-07
1.210938311e-07
1.248096545e-07
8.559854064e-08
8.884759291e-08
9.357519369e-08
9.952864111e-08
1.063646722e-07
1.136103715e-07
1.206213853e-07
1.265308669e-07
1.302039738e-07
9.128383214e-08
9.452856965e-08
9.924255438e-08
1.051668658e-07
1.119537837e-07
1.191303471e-07
1.260589856e-07
1.318882942e-07
1.355077455e-07
9.700658312e-08
1.002366799e-07
1.049223609e-07
1.107996202e-07
1.17517674e-07
1.246052282e-07
1.314312276e-07
1.37164363e-07
1.40720312e-07
1.027533091e-07
1.059593851e-07
1.106035058e-07
1.164176965e-07
1.230494543e-07
1.300281462e-07
1.367349447e-07
1.42358079e-07
1.458419219e-07
1.085115933e-07
1.116852445e-07
1.162760277e-07
1.220131015e-07
1.285409796e-07
1.353950806e-07
1.419681334e-07
1.474693188e-07
1.508736295e-07
1.142701347e-07
1.174039709e-07
1.219311934e-07
1.275766007e-07
1.339869258e-07
1.407027917e-07
1.471296066e-07
1.524986794e-07
1.558171517e-07
1.200188177e-07
1.231065143e-07
1.275589989e-07
1.331017708e-07
1.393827514e-07
1.459487669e-07
1.522188396e-07
1.574473345e-07
1.606747267e-07
1.257487613e-07
1.287824814e-07
1.331522827e-07
1.385830046e-07
1.447246622e-07
1.5113115e-07
1.572358642e-07
1.623169176e-07
1.654489899e-07
1.314490333e-07
1.344243032e-07
1.387047169e-07
1.440154804e-07
1.500095608e-07
1.562486712e-07
1.621811786e-07
1.671094206e-07
1.70142868e-07
1.371126526e-07
1.400254418e-07
1.442108332e-07
1.493951327e-07
1.552349953e-07
1.613005797e-07
1.670556691e-07
1.718271083e-07
1.747594884e-07
1.427333232e-07
1.455802188e-07
1.496659672e-07
1.547186038e-07
1.603991027e-07
1.662865794e-07
1.718605397e-07
1.764724442e-07
1.793021035e-07
1.483055282e-07
1.510837575e-07
1.550662023e-07
1.599831884e-07
1.655005505e-07
1.712067672e-07
1.76597249e-07
1.810480271e-07
1.837740266e-07
1.538245351e-07
1.565319406e-07
1.604083165e-07
1.651867772e-07
1.705384797e-07
1.760615768e-07
1.812674551e-07
1.855565372e-07
1.881785792e-07
1.592863654e-07
1.619213636e-07
1.656897287e-07
1.70327802e-07
1.755124505e-07
1.808517263e-07
1.858729668e-07
1.900006917e-07
1.925190491e-07
1.646877504e-07
1.672492836e-07
1.709084443e-07
1.754051815e-07
1.804223904e-07
1.855781713e-07
1.904157028e-07
1.943832084e-07
1.967986562e-07
1.700260783e-07
1.72513565e-07
1.760630011e-07
1.804182688e-07
1.852685467e-07
1.902420633e-07
1.948976562e-07
1.987067762e-07
2.010205275e-07
1.752993383e-07
1.77712624e-07
1.811524154e-07
1.853668017e-07
1.90051442e-07
1.948447122e-07
1.993208643e-07
2.029740323e-07
2.051876776e-07
1.80506065e-07
1.828453742e-07
1.861761307e-07
1.902508561e-07
1.947718341e-07
1.993875538e-07
2.03687385e-07
2.071875441e-07
2.093029955e-07
1.856452829e-07
1.879111735e-07
1.911339685e-07
1.950708022e-07
1.994306793e-07
2.038721211e-07
2.079992754e-07
2.113497965e-07
2.133692361e-07
1.907164537e-07
1.92909774e-07
1.960260821e-07
1.998272641e-07
2.040290993e-07
2.083000198e-07
2.122585763e-07
2.154631826e-07
2.173890148e-07
1.957194256e-07
1.978412745e-07
2.008529136e-07
2.045210829e-07
2.085683515e-07
2.126729065e-07
2.164672981e-07
2.19529997e-07
2.213648058e-07
2.006543866e-07
2.027060764e-07
2.056151545e-07
2.091532834e-07
2.130498031e-07
2.169924705e-07
2.206274109e-07
2.235524323e-07
2.252989427e-07
2.055218202e-07
2.075048425e-07
2.103137095e-07
2.137250432e-07
2.174749069e-07
2.212604179e-07
2.247408358e-07
2.275325772e-07
2.2919362e-07
2.103224653e-07
2.122384601e-07
2.149496625e-07
2.182376656e-07
2.21845181e-07
2.25478458e-07
2.288094387e-07
2.314724161e-07
2.330508974e-07
2.150572787e-07
2.169080057e-07
2.195242476e-07
2.226925545e-07
2.261621906e-07
2.296482919e-07
2.328350253e-07
2.353738301e-07
2.368727033e-07
2.19727401e-07
2.215147147e-07
2.240388208e-07
2.270911924e-07
2.304275311e-07
2.337716026e-07
2.368193376e-07
2.392385983e-07
2.406608403e-07
2.243341261e-07
2.260599523e-07
2.284948361e-07
2.31435121e-07
2.346428147e-07
2.378500465e-07
2.407640513e-07
2.430684004e-07
2.444169907e-07
2.288788724e-07
2.30545188e-07
2.328938232e-07
2.35725923e-07
2.388096574e-07
2.418852468e-07
2.44670774e-07
2.468648195e-07
2.481427217e-07
2.333631583e-07
2.349719729e-07
2.372373677e-07
2.39965207e-07
2.429296685e-07
2.458787876e-07
2.485410446e-07
2.506293451e-07
2.518394912e-07
2.377885786e-07
2.393419187e-07
2.415270937e-07
2.441545936e-07
2.470044413e-07
2.49832209e-07
2.523763322e-07
2.543633763e-07
2.555086534e-07
2.421567848e-07
2.436566794e-07
2.457646481e-07
2.482957036e-07
2.510355445e-07
2.53747003e-07
2.561780368e-07
2.580682253e-07
2.591514645e-07
2.464694665e-07
2.479179353e-07
2.49951687e-07
2.52390147e-07
2.55024516e-07
2.576246107e-07
2.599474895e-07
2.617451209e-07
2.627690879e-07
2.507283357e-07
2.521273779e-07
2.540898637e-07
2.564395145e-07
2.589728567e-07
2.614664198e-07
2.63685953e-07
2.653952117e-07
2.663625994e-07
2.549351124e-07
2.56286698e-07
2.581808181e-07
2.604453693e-07
2.62882026e-07
2.652737626e-07
2.673946233e-07
2.690195701e-07
2.699329924e-07
2.590915122e-07
2.603975743e-07
2.622261679e-07
2.644092407e-07
2.667534372e-07
2.690479152e-07
2.710746304e-07
2.726191952e-07
2.734811823e-07
2.631992361e-07
2.644616644e-07
2.662275011e-07
2.683326189e-07
2.705884553e-07
2.727900961e-07
2.747270402e-07
2.761950167e-07
2.770080117e-07
2.672599607e-07
2.684805961e-07
2.701863689e-07
2.722169496e-07
2.743883937e-07
2.765014666e-07
2.78352856e-07
2.797478979e-07
2.805142544e-07
2.712753306e-07
2.724559613e-07
2.741042811e-07
2.760636314e-07
2.78154513e-07
2.801831305e-07
2.819530204e-07
2.832786391e-07
2.840006196e-07
2.752469521e-07
2.763893097e-07
2.779827013e-07
2.798740122e-07
2.818880196e-07
2.838361346e-07
2.855284174e-07
2.867879808e-07
2.874677562e-07
2.791763872e-07
2.802821448e-07
2.818230435e-07
2.836493874e-07
2.855900649e-07
2.874614695e-07
2.890798743e-07
2.902766071e-07
2.909162564e-07
2.8306515e-07
2.841359199e-07
2.856266696e-07
2.873909984e-07
2.892617455e-07
2.910600707e-07
2.926081638e-07
2.937451483e-07
2.943466594e-07
2.869147027e-07
2.879520355e-07
2.893948872e-07
2.911000319e-07
2.92904103e-07
2.946328198e-07
2.961140066e-07
2.971941844e-07
2.977594552e-07
2.907264531e-07
2.91731837e-07
2.931289489e-07
2.94777619e-07
2.965181246e-07
2.981805457e-07
2.99598073e-07
3.006242475e-07
3.011550874e-07
2.94501753e-07
2.954766137e-07
2.968300507e-07
2.984248359e-07
3.001047441e-07
3.017040267e-07
3.030609858e-07
3.040358251e-07
3.04533957e-07
2.982418967e-07
2.991875976e-07
3.004993326e-07
3.020427036e-07
3.036648428e-07
3.052039917e-07
3.065033222e-07
3.074293627e-07
3.078964246e-07
3.019481206e-07
3.028659634e-07
3.041378785e-07
3.056321894e-07
3.071992511e-07
3.086811224e-07
3.099256162e-07
3.108052659e-07
3.11242814e-07
3.056216028e-07
3.065128288e-07
3.077467166e-07
3.091942073e-07
3.107087494e-07
3.121360549e-07
3.133283606e-07
3.141639036e-07
3.145734143e-07
3.092634634e-07
3.101292543e-07
3.113268201e-07
3.127296194e-07
3.141940702e-07
3.155693814e-07
3.167120092e-07
3.175056096e-07
3.178884827e-07
3.128747654e-07
3.137162448e-07
3.148791088e-07
3.16239237e-07
3.176558991e-07
3.189816521e-07
3.200769785e-07
3.20830685e-07
3.211882459e-07
3.164565147e-07
3.172747495e-07
3.184044493e-07
3.19723822e-07
3.210948762e-07
3.223733768e-07
3.234236496e-07
3.241393995e-07
3.244729022e-07
3.200096612e-07
3.208056635e-07
3.219036562e-07
3.231840876e-07
3.245115973e-07
3.257450253e-07
3.267523685e-07
3.274319923e-07
3.277426225e-07
3.235350992e-07
3.243098277e-07
3.25377493e-07
3.266206988e-07
3.279066141e-07
3.29097028e-07
3.300634465e-07
3.30708672e-07
3.309975494e-07
3.270336678e-07
3.277880292e-07
3.28826671e-07
3.300342721e-07
3.312804336e-07
3.324297748e-07
3.333571589e-07
3.339696151e-07
3.342377959e-07
3.305061496e-07
3.312410002e-07
3.322518492e-07
3.334253738e-07
3.346335157e-07
3.357436123e-07
3.366337409e-07
3.372149613e-07
3.374634407e-07
3.339532687e-07
3.346694153e-07
3.356536302e-07
3.36794516e-07
3.379662682e-07
3.390388374e-07
3.39893381e-07
3.404448057e-07
3.406745192e-07
3.373756866e-07
3.380738866e-07
3.390325545e-07
3.401421492e-07
3.412790382e-07
3.423156865e-07
3.431362078e-07
3.436591844e-07
3.438710085e-07
3.407739933e-07
3.414549545e-07
3.423890899e-07
3.434686496e-07
3.445720964e-07
3.455743181e-07
3.463622697e-07
3.468580516e-07
3.470528027e-07
3.44148695e-07
3.44813073e-07
3.457236146e-07
3.467742995e-07
3.478456141e-07
3.488147844e-07
3.495715022e-07
3.50041243e-07
3.502196746e-07
3.475001936e-07
3.481485877e-07
3.490363915e-07
3.500592566e-07
3.510996264e-07
3.520369891e-07
3.527636795e-07
3.532084216e-07
3.533712167e-07
3.508287568e-07
3.514617021e-07
3.523275295e-07
3.533235088e-07
3.543339798e-07
3.552406247e-07
3.559383421e-07
3.56358997e-07
3.565067559e-07
3.541344735e-07
3.547524288e-07
3.555969285e-07
3.5656681e-07
3.575482553e-07
3.584250837e-07
3.590946943e-07
3.594920107e-07
3.596252308e-07
3.574171921e-07
3.580205215e-07
3.588442003e-07
3.597885882e-07
3.60741662e-07
3.615893336e-07
3.62231461e-07
3.626059766e-07
3.62725021e-07
3.606764341e-07
3.612653795e-07
3.62068562e-07
3.629878213e-07
3.639128909e-07
3.64731747e-07
3.653466926e-07
3.656986631e-07
3.65803715e-07
3.639112772e-07
3.644859206e-07
3.652686902e-07
3.661628695e-07
3.6705992e-07
3.678498751e-07
3.684375065e-07
3.687668054e-07
3.688578024e-07
3.671202009e-07
3.676804117e-07
3.684425313e-07
3.693112559e-07
3.701797597e-07
3.709401537e-07
3.714997511e-07
3.718057323e-07
3.718822765e-07
3.703008854e-07
3.708462498e-07
3.715870548e-07
3.724293846e-07
3.732681278e-07
3.739975284e-07
3.745275807e-07
3.748088952e-07
3.748701327e-07
3.734499559e-07
3.739796851e-07
3.746979434e-07
3.755121877e-07
3.763190433e-07
3.770149902e-07
3.775129301e-07
3.777672882e-07
3.778117526e-07
3.76562664e-07
3.770754759e-07
3.777692099e-07
3.785526909e-07
3.793243315e-07
3.799830118e-07
3.804448814e-07
3.806687524e-07
3.806941662e-07
3.79632498e-07
3.801264695e-07
3.807927336e-07
3.815414929e-07
3.822730346e-07
3.828888826e-07
3.833089214e-07
3.834971643e-07
3.83500196e-07
3.826507173e-07
3.831231045e-07
3.837577134e-07
3.844661557e-07
3.851507286e-07
3.857159442e-07
3.86086096e-07
3.862315195e-07
3.862074931e-07
3.856058085e-07
3.860528309e-07
3.866500382e-07
3.873105101e-07
3.87938752e-07
3.884427387e-07
3.887520791e-07
3.888449316e-07
3.88787492e-07
3.884828649e-07
3.888994557e-07
3.894515807e-07
3.900538865e-07
3.906133665e-07
3.910420944e-07
3.91276187e-07
3.913035887e-07
3.912043301e-07
3.912628987e-07
3.916424222e-07
3.921394316e-07
3.926702937e-07
3.931448757e-07
3.934801864e-07
3.936203881e-07
3.935657238e-07
3.934137958e-07
3.939221014e-07
3.942560446e-07
3.946850989e-07
3.951275791e-07
3.95496748e-07
3.957156296e-07
3.957383778e-07
3.95580683e-07
3.95362398e-07
3.964310815e-07
3.967087301e-07
3.970537122e-07
3.973866199e-07
3.976248046e-07
3.976986802e-07
3.975748099e-07
3.972881986e-07
3.969866743e-07
3.987541156e-07
3.989622314e-07
3.99203285e-07
3.994006088e-07
3.994765525e-07
3.993706416e-07
3.990648008e-07
3.986180003e-07
3.982128838e-07
4.008484687e-07
4.009709918e-07
4.010841046e-07
4.011145202e-07
4.009907629e-07
4.006635967e-07
4.001338464e-07
3.994899212e-07
3.98957253e-07
4.026638497e-07
4.026816555e-07
4.026383364e-07
4.024648549e-07
4.020974127e-07
4.015005996e-07
4.006983054e-07
3.998146724e-07
3.991269603e-07
4.041420859e-07
4.040328356e-07
4.037999442e-07
4.033797809e-07
4.027181201e-07
4.01796479e-07
4.006666163e-07
3.994954627e-07
3.986220438e-07
4.052171143e-07
4.049552434e-07
4.044950392e-07
4.037797953e-07
4.027672139e-07
4.014593999e-07
3.999414038e-07
3.984306288e-07
3.973383993e-07
4.058153957e-07
4.053722915e-07
4.046427806e-07
4.035790336e-07
4.021535676e-07
4.003933187e-07
3.984226073e-07
3.96517397e-07
3.951719829e-07
4.058568665e-07
4.052012868e-07
4.041569408e-07
4.02687344e-07
4.007833078e-07
3.98501429e-07
3.960117052e-07
3.936568275e-07
3.920242461e-07
4.052565341e-07
4.043553174e-07
4.029482377e-07
4.010132115e-07
3.985634636e-07
3.956906275e-07
3.926170245e-07
3.897598812e-07
3.878087072e-07
4.039268061e-07
4.02745916e-07
4.009274967e-07
3.984675711e-07
3.954065514e-07
3.918769434e-07
3.881600053e-07
3.847544034e-07
3.824583945e-07
4.017806119e-07
4.002865381e-07
3.980096537e-07
3.949684733e-07
3.912359979e-07
3.869917457e-07
3.825821386e-07
3.785926448e-07
3.759337103e-07
3.987353174e-07
3.968968322e-07
3.94118532e-07
3.904464732e-07
3.859921842e-07
3.809884068e-07
3.758521328e-07
3.712587541e-07
3.682300609e-07
3.947173641e-07
3.925075961e-07
3.891922273e-07
3.848504954e-07
3.79638758e-07
3.738489441e-07
3.679726956e-07
3.627755024e-07
3.593844271e-07
3.896674693e-07
3.870662084e-07
3.831888223e-07
3.781537993e-07
3.721687235e-07
3.655900173e-07
3.589861776e-07
3.532093681e-07
3.494799219e-07
3.835461178e-07
3.805422161e-07
3.760920311e-07
3.703595441e-07
3.636096882e-07
3.56267537e-07
3.489782172e-07
3.426730272e-07
3.38647313e-07
3.763389726e-07
3.729326503e-07
3.679162668e-07