/*--------------------------------*- C++ -*----------------------------------*\
| =========                 |                                                 |
| \\      /  F ield         | OpenFOAM: The Open Source CFD Toolbox           |
|  \\    /   O peration     | Version:  2212                                  |
|   \\  /    A nd           | Website:  www.openfoam.com                      |
|    \\/     M anipulation  |                                                 |
\*---------------------------------------------------------------------------*/
FoamFile
{
    version     2.0;
    format      ascii;
    arch        "LSB;label=32;scalar=64";
    class       volScalarField;
    location    "20.00000000";
    object      I-C4H3_0;
}
// * * * * * * * * * * * * * * * * * * * * * * * * * * * * * * * * * * * * * //

dimensions      [0 0 0 0 0 0 0];

internalField   nonuniform List<scalar> 
3000
(
2.999250838e-31
3.720347287e-31
4.873283568e-31
6.526838317e-31
8.751563992e-31
1.157298872e-30
1.488195463e-30
1.828318369e-30
2.087690178e-30
1.26392781e-30
1.579383422e-30
2.08372741e-30
2.808528946e-30
3.791744224e-30
5.071252031e-30
6.671211214e-30
8.563273262e-30
1.042052347e-29
3.256925912e-30
4.121371629e-30
5.518118937e-30
7.564522615e-30
1.042884233e-29
1.433080416e-29
1.949750254e-29
2.595705357e-29
3.23039325e-29
7.116771339e-30
9.152970015e-30
1.250753749e-29
1.757167635e-29
2.494092814e-29
3.542441559e-29
4.986390608e-29
6.819710625e-29
8.551006587e-29
1.447256969e-29
1.898568808e-29
2.6602561e-29
3.847274141e-29
5.63659969e-29
8.266391793e-29
1.195587688e-28
1.65815571e-28
2.07378532e-28
2.850459868e-29
3.821431751e-29
5.501204036e-29
8.196593912e-29
1.237790405e-28
1.865451367e-28
2.750496493e-28
3.837637761e-28
4.773816494e-28
5.558098452e-29
7.618291466e-29
1.126379997e-28
1.725902244e-28
2.676044917e-28
4.12006824e-28
6.152610377e-28
8.600752704e-28
1.062827603e-27
1.0847246e-28
1.518473904e-28
2.300980178e-28
3.613343362e-28
5.72553754e-28
8.95893378e-28
1.349701111e-27
1.890262645e-27
2.337553984e-27
2.130035572e-28
3.039184142e-28
4.705379363e-28
7.541825698e-28
1.215455003e-27
1.923673034e-27
2.91215496e-27
4.074051612e-27
5.015711838e-27
4.215516326e-28
6.115207469e-28
9.640652887e-28
1.570981784e-27
2.5649084e-27
4.092519392e-27
6.213915638e-27
8.68378809e-27
1.066392927e-26
8.407360281e-28
1.236768344e-27
1.978978584e-27
3.267456668e-27
5.387633228e-27
8.646621775e-27
1.315344209e-26
1.836400551e-26
2.251023603e-26
1.68803745e-27
2.512065701e-27
4.06827604e-27
6.786871194e-27
1.127504708e-26
1.817198416e-26
2.767724076e-26
3.860875514e-26
4.725910887e-26
3.407862703e-27
5.119591851e-27
8.371672095e-27
1.407983489e-26
2.352536732e-26
3.803373728e-26
5.797417614e-26
8.081376072e-26
9.881138375e-26
6.909442758e-27
1.045998213e-26
1.723734537e-26
2.917638043e-26
4.896531583e-26
7.934668122e-26
1.210111625e-25
1.685822922e-25
2.059466533e-25
1.405482585e-26
2.141008874e-26
3.55022019e-26
6.039659337e-26
1.017095483e-25
1.651071942e-25
2.518948198e-25
3.507376023e-25
4.281728536e-25
2.86601094e-26
4.388017176e-26
7.312687827e-26
1.249060211e-25
2.109137516e-25
3.428434823e-25
5.231837066e-25
7.281560164e-25
8.883973241e-25
5.855027086e-26
9.001421188e-26
1.506182283e-25
2.580991612e-25
4.367536614e-25
7.106914148e-25
1.084690484e-24
1.509054955e-24
1.840228822e-24
1.197765956e-25
1.847661139e-25
3.101839844e-25
5.329177985e-25
9.033363536e-25
1.47110578e-24
2.245447618e-24
3.12279868e-24
3.806449772e-24
2.452723535e-25
3.794104151e-25
6.386708692e-25
1.099601239e-24
1.866437797e-24
3.041399468e-24
4.642336031e-24
6.453917963e-24
7.863641199e-24
5.026133712e-25
7.792898075e-25
1.314709837e-24
2.267424902e-24
3.852810756e-24
6.281031039e-24
9.586650438e-24
1.332276379e-23
1.62264477e-23
1.030446662e-24
1.60077369e-24
2.705554226e-24
4.672646922e-24
7.946406253e-24
1.29584198e-23
1.977544028e-23
2.747130693e-23
3.344509915e-23
2.113158422e-24
3.288090886e-24
5.565819919e-24
9.623254963e-24
1.63757936e-23
2.67084456e-23
4.074935785e-23
5.658150511e-23
6.885523858e-23
4.333799894e-24
6.752786824e-24
1.144502045e-23
1.980597417e-23
3.371842083e-23
5.499370721e-23
8.387501463e-23
1.163990777e-22
1.415782247e-22
8.88678458e-24
1.386358294e-23
2.352141063e-23
4.073259288e-23
6.936299715e-23
1.1311223e-22
1.724325275e-22
2.391379092e-22
2.9069879e-22
1.821644424e-23
2.844726523e-23
4.830610856e-23
8.369509302e-23
1.425365036e-22
2.323671826e-22
3.540044164e-22
4.905542988e-22
5.959117817e-22
3.731863016e-23
5.832993451e-23
9.911903169e-23
1.717906888e-22
2.925421054e-22
4.766759522e-22
7.256056958e-22
1.004504725e-21
1.219238969e-21
7.63869564e-23
1.194883442e-22
2.031569636e-22
3.521643716e-22
5.995354971e-22
9.762162796e-22
1.484469223e-21
2.052591424e-21
2.488919113e-21
1.561781112e-22
2.444691909e-22
4.158245969e-22
7.208079811e-22
1.226537502e-21
1.995293187e-21
3.030183902e-21
4.183801668e-21
5.06720097e-21
3.188539224e-22
4.994048489e-22
8.496843735e-22
1.47259365e-21
2.504020449e-21
4.068586142e-21
6.169017936e-21
8.502838346e-21
1.028385986e-20
6.498085303e-22
1.018267901e-21
1.732692136e-21
3.001757788e-21
5.099351423e-21
8.273142284e-21
1.252016262e-20
1.722121179e-20
2.079447343e-20
1.321424564e-21
2.071521608e-21
3.524784861e-21
6.102660912e-21
1.035429145e-20
1.676796114e-20
2.531787681e-20
3.474029393e-20
4.186960069e-20
2.680378833e-21
4.203020916e-21
7.150041187e-21
1.23685554e-20
2.095293367e-20
3.385691864e-20
5.098325924e-20
6.976246248e-20
8.389812111e-20
5.420951228e-21
8.501526474e-21
1.445625144e-20
2.497855275e-20
4.223427772e-20
6.806646158e-20
1.021783942e-19
1.393698821e-19
1.672039105e-19
1.092716525e-20
1.713600637e-20
2.911879455e-20
5.023976989e-20
8.475172785e-20
1.361728715e-19
2.036876636e-19
2.768305493e-19
3.312241611e-19
2.194428442e-20
3.440431344e-20
5.840604626e-20
1.00586392e-19
1.692227321e-19
2.709385629e-19
4.036355304e-19
5.463898487e-19
6.518230204e-19
4.388862985e-20
6.877379158e-20
1.166020472e-19
2.003648916e-19
3.36016365e-19
5.358330817e-19
7.946702957e-19
1.071012171e-18
1.273614227e-18
8.738622816e-20
1.36824144e-19
2.315906593e-19
3.968988199e-19
6.631717251e-19
1.052770027e-18
1.553558702e-18
2.083868462e-18
2.469673919e-18
1.731609014e-19
2.708103384e-19
4.574191338e-19
7.814640391e-19
1.300291409e-18
2.053842452e-18
3.014425056e-18
4.022896457e-18
4.750705929e-18
3.413832501e-19
5.330606234e-19
8.980718491e-19
1.528689266e-18
2.53167596e-18
3.976839001e-18
5.802819336e-18
7.702669746e-18
9.062571628e-18
6.694306084e-19
1.043178162e-18
1.752075101e-18
2.969883112e-18
4.892771572e-18
7.639800189e-18
1.107862722e-17
1.462362283e-17
1.714015675e-17
1.305395363e-18
2.029036466e-18
3.395468297e-18
5.728232487e-18
9.382849856e-18
1.455683234e-17
2.097180305e-17
2.752297739e-17
3.213525296e-17
2.530874987e-18
3.921643156e-18
6.534817781e-18
1.096577402e-17
1.784970493e-17
2.750393342e-17
3.935650011e-17
5.134714684e-17
5.972051208e-17
4.877830153e-18
7.530249988e-18
1.248699832e-17
2.083044073e-17
3.36789737e-17
5.152326491e-17
7.321385074e-17
9.495293604e-17
1.100138081e-16
9.344590295e-18
1.436312011e-17
2.368647426e-17
3.925809089e-17
6.301813958e-17
9.568972448e-17
1.350103365e-16
1.740591263e-16
2.009057791e-16
1.779242211e-17
2.721067517e-17
4.459752381e-17
7.339906403e-17
1.169312164e-16
1.761922922e-16
2.468150901e-16
3.163279589e-16
3.637707124e-16
3.366867839e-17
5.119776786e-17
8.334158683e-17
1.36134723e-16
2.15160788e-16
3.216662463e-16
4.47373935e-16
5.700508011e-16
6.531999439e-16
6.331658396e-17
9.566863836e-17
1.545779988e-16
2.504820562e-16
3.926459809e-16
5.823525248e-16
8.041786712e-16
1.01889596e-15
1.163484852e-15
1.183315995e-16
1.775393923e-16
2.845657225e-16
4.572456911e-16
7.107339484e-16
1.045723431e-15
1.433925991e-15
1.806796466e-15
2.056365061e-15
2.197721748e-16
3.272189899e-16
5.199941837e-16
8.282183835e-16
1.276334767e-15
1.86297033e-15
2.536990719e-15
3.179712406e-15
3.60748676e-15
4.056339204e-16
5.989956227e-16
9.432852395e-16
1.488802665e-15
2.274441755e-15
3.293638549e-15
4.455191773e-15
5.555343346e-15
6.283796949e-15
7.440282339e-16
1.089135851e-15
1.698936432e-15
2.656535493e-15
4.023016678e-15
5.780426582e-15
7.768090308e-15
9.638935975e-15
1.087187666e-14
1.356266138e-15
1.967222297e-15
3.038593396e-15
4.706310325e-15
7.065105242e-15
1.007388308e-14
1.345274426e-14
1.661479684e-14
1.868983488e-14
2.457029714e-15
3.530079886e-15
5.397722655e-15
8.280191666e-15
1.232261031e-14
1.743923125e-14
2.314749656e-14
2.846160092e-14
3.193581014e-14
4.423823989e-15
6.294009262e-15
9.525348296e-15
1.447141724e-14
2.135165394e-14
2.99972489e-14
3.958500894e-14
4.846962377e-14
5.425923428e-14
7.916274758e-15
1.115151252e-14
1.670092169e-14
2.512773716e-14
3.676145932e-14
5.128383887e-14
6.730247516e-14
8.208623729e-14
9.169370022e-14
1.407638514e-14
1.963107381e-14
2.909311e-14
4.335410492e-14
6.290468282e-14
8.716359428e-14
1.137947816e-13
1.382883639e-13
1.541724894e-13
2.486613821e-14
3.433323237e-14
5.035452128e-14
7.433362064e-14
1.069960732e-13
1.473069668e-13
1.913780392e-13
2.317997772e-13
2.579786817e-13
4.362909332e-14
5.964772732e-14
8.659090307e-14
1.266576939e-13
1.809157681e-13
2.47562313e-13
3.201763408e-13
3.866453273e-13
4.29677512e-13
7.601285849e-14
1.029220746e-13
1.479270454e-13
2.144590252e-13
3.040851811e-13
4.137259855e-13
5.328623019e-13
6.417940359e-13
7.12368198e-13
1.314664301e-13
1.763430009e-13
2.510066914e-13
3.607923646e-13
5.080008603e-13
6.874660223e-13
8.820950214e-13
1.060015071e-12
1.175505764e-12
2.256385313e-13
2.99926283e-13
4.229323824e-13
6.029244981e-13
8.432904202e-13
1.135508725e-12
1.452035358e-12
1.741585494e-12
1.930114725e-12
3.84165176e-13
5.062020845e-13
7.073888931e-13
1.000496702e-12
1.390538464e-12
1.863678448e-12
2.375904165e-12
2.845173697e-12
3.151972505e-12
6.485632482e-13
8.474501205e-13
1.174021244e-12
1.647932363e-12
2.276642714e-12
3.038011344e-12
3.862302928e-12
4.61909133e-12
5.116286305e-12
1.08526235e-12
1.406703656e-12
1.932578317e-12
2.69300309e-12
3.699122784e-12
4.915959641e-12
6.23394745e-12
7.447157675e-12
8.248501154e-12
1.799234006e-12
2.314228596e-12
3.153910928e-12
4.364161273e-12
5.9616332e-12
7.891674267e-12
9.983577162e-12
1.191463712e-11
1.319712405e-11
2.954244063e-12
3.771821719e-12
5.100654269e-12
7.010115253e-12
9.524940596e-12
1.256050872e-11
1.585309293e-11
1.890106371e-11
2.093579538e-11
4.802491652e-12
6.088088177e-12
8.171350648e-12
1.115617938e-11
1.507882484e-11
1.980923976e-11
2.494343516e-11
2.970823339e-11
3.290326463e-11
7.727333122e-12
9.728873798e-12
1.296289371e-11
1.758318932e-11
2.364178059e-11
3.094006945e-11
3.886433671e-11
4.623323403e-11
5.119145517e-11
1.230393436e-11
1.538825086e-11
2.03575115e-11
2.743626379e-11
3.66970731e-11
4.783827445e-11
5.993489898e-11
7.119815638e-11
7.879352033e-11
1.938404686e-11
2.408689456e-11
3.164208748e-11
4.23724791e-11
5.637567912e-11
7.319542363e-11
9.144801639e-11
1.084501987e-10
1.199258562e-10
3.021268111e-11
3.730639157e-11
4.866952686e-11
6.475866279e-11
8.569892481e-11
1.108024413e-10
1.380141072e-10
1.633483875e-10
1.804406341e-10
4.658635765e-11
5.717010657e-11
7.407418586e-11
9.79329909e-11
1.288962029e-10
1.659294901e-10
2.060024672e-10
2.432561969e-10
2.683486754e-10
7.10649906e-11
8.668376101e-11
1.115560379e-10
1.465467901e-10
1.918159715e-10
2.458126463e-10
3.041017954e-10
3.581629034e-10
3.944763426e-10
1.07252247e-10
1.30051692e-10
1.662510464e-10
2.17005759e-10
2.824511561e-10
3.602704172e-10
4.440247743e-10
5.214601791e-10
5.732840805e-10
1.601620929e-10
1.930875364e-10
2.452079065e-10
3.180324819e-10
4.116027095e-10
5.224757678e-10
6.413842679e-10
7.509032533e-10
8.238771994e-10
2.366918204e-10
2.837405258e-10
3.579935788e-10
4.613741099e-10
5.937067054e-10
7.499105212e-10
9.167694515e-10
1.069786304e-09
1.17123953e-09
3.462238518e-10
4.127602981e-10
5.174512747e-10
6.62679566e-10
8.478497959e-10
1.065527183e-09
1.297046945e-09
1.508357079e-09
1.647714903e-09
5.013795257e-10
5.945234247e-10
7.406338047e-10
9.425683264e-10
1.19899354e-09
1.499136346e-09
1.816902171e-09
2.105483003e-09
2.29474665e-09
7.18947001e-10
8.480426614e-10
1.049931161e-09
1.327906261e-09
1.679417993e-09
2.089023373e-09
2.520616827e-09
2.910557001e-09
3.164858126e-09
1.021001192e-09
1.198173943e-09
1.474402534e-09
1.853291274e-09
2.330377052e-09
2.883773827e-09
3.464047177e-09
3.985593709e-09
4.323815521e-09
1.436225018e-09
1.677025161e-09
2.051307985e-09
2.562731209e-09
3.203930853e-09
3.944251895e-09
4.716724272e-09
5.407415722e-09
5.852858561e-09
2.001427072e-09
2.325553304e-09
2.827812815e-09
3.511467821e-09
4.364884055e-09
5.345630877e-09
6.363943565e-09
7.269768943e-09
7.850820058e-09
2.763229894e-09
3.195312242e-09
3.862808156e-09
4.76786451e-09
5.892715248e-09
7.179323926e-09
8.508654256e-09
9.685144759e-09
1.043589195e-08
3.779875694e-09
4.350282675e-09
5.228755926e-09
6.415234943e-09
7.883337449e-09
9.554614596e-09
1.127290907e-08
1.278603819e-08
1.374674861e-08
5.123063459e-09
5.868680652e-09
7.013428679e-09
8.553450423e-09
1.045049079e-08
1.259975169e-08
1.479860716e-08
1.672535174e-08
1.794272527e-08
6.879696132e-09
7.844605705e-09
9.321380753e-09
1.130013374e-08
1.372654665e-08
1.646226393e-08
1.924727044e-08
2.167567943e-08
2.320278618e-08
9.153383645e-09
1.038936001e-08
1.227496397e-08
1.479123537e-08
1.786250766e-08
2.130827798e-08
2.479864769e-08
2.78272834e-08
2.972311015e-08
1.206552363e-08
1.363225314e-08
1.601469676e-08
1.91808021e-08
2.302702741e-08
2.73206927e-08
3.164804139e-08
3.538470357e-08
3.771326624e-08
1.575577368e-08
1.772071026e-08
2.069881623e-08
2.46397933e-08
2.94043486e-08
3.46961701e-08
4.000239068e-08
4.456210314e-08
4.739112814e-08
2.038174359e-08
2.281952936e-08
2.650189136e-08
3.135387422e-08
3.719116137e-08
4.364103411e-08
5.007529716e-08
5.557762119e-08
5.897685077e-08
2.611777611e-08
2.910918814e-08
3.361244926e-08
3.952021209e-08
4.659250082e-08
5.436630111e-08
6.208132073e-08
6.864714436e-08
7.268637063e-08
3.315275081e-08
3.678317769e-08
4.2229658e-08
4.934340472e-08
5.781691386e-08
6.708217587e-08
7.622997161e-08
8.39779924e-08
8.872496181e-08
4.168693026e-08
4.604443152e-08
5.25592049e-08
6.103076654e-08
7.107121102e-08
8.199241151e-08
9.271986143e-08
1.017630207e-07
1.072813675e-07
5.192796149e-08
5.710101018e-08
6.480859477e-08
7.478726708e-08
8.655516325e-08
9.928894125e-08
1.117334455e-07
1.221755753e-07
1.285229364e-07
6.408623368e-08
7.01612803e-08
7.918215335e-08
9.081045008e-08
1.044564994e-07
1.191471419e-07
1.33432697e-07
1.453656085e-07
1.525920472e-07
7.836986189e-08
8.54288793e-08
9.587604764e-08
1.092856534e-07
1.249465109e-07
1.417219975e-07
1.579559258e-07
1.714571091e-07
1.796039309e-07
9.497960408e-08
1.030977749e-07
1.150736241e-07
1.303818034e-07
1.481764884e-07
1.671453164e-07
1.854158109e-07
2.005468416e-07
2.096458423e-07
1.141040199e-07
1.233477101e-07
1.369413212e-07
1.542479854e-07
1.742751119e-07
1.955240333e-07
2.158985915e-07
2.327042626e-07
2.427774011e-07
1.359151455e-07
1.463402737e-07
1.616253414e-07
1.810109e-07
2.033468212e-07
2.269395289e-07
2.494642593e-07
2.67972393e-07
2.79031848e-07
1.605648943e-07
1.722157647e-07
1.89249189e-07
2.107732347e-07
2.354711037e-07
2.614478234e-07
2.861475418e-07
3.063693886e-07
3.184179316e-07
1.881823158e-07
2.010909352e-07
2.19912094e-07
2.436128968e-07
2.707025785e-07
2.99080457e-07
3.259594451e-07
3.47890548e-07
3.609221569e-07
2.188717591e-07
2.330576194e-07
2.536882775e-07
2.795830056e-07
3.090717188e-07
3.398458651e-07
3.688891379e-07
3.925105343e-07
4.065111693e-07
2.527119121e-07
2.681821872e-07
2.906269559e-07
3.187125055e-07
3.50586048e-07
3.83731063e-07
4.149059932e-07
4.401856314e-07
4.551341041e-07
2.897556315e-07
3.065057172e-07
3.307529575e-07
3.610072509e-07
3.952316502e-07
4.307034887e-07
4.639616466e-07
4.908559123e-07
5.0672479e-07
3.30030438e-07
3.480447527e-07
3.740678067e-07
4.064514213e-07
4.429748635e-07
4.807128863e-07
5.159919776e-07
5.444472453e-07
5.612037466e-07
3.735395352e-07
3.927925033e-07
4.205511428e-07
4.550091433e-07
4.937640487e-07
5.336931491e-07
5.709189572e-07
6.008731044e-07
6.184799568e-07
4.202632138e-07
4.407203577e-07
4.701623536e-07
5.06626218e-07
5.475313615e-07
5.895640751e-07
6.286523409e-07
6.60036184e-07
6.784524226e-07
4.701605149e-07
4.917795949e-07
5.228423279e-07
5.612318852e-07
6.041944807e-07
6.482330165e-07
6.89091212e-07
7.218298349e-07
7.41011532e-07
5.231710479e-07
5.459032039e-07
5.785152578e-07
6.187405752e-07
6.63658274e-07
7.095964295e-07
7.521254012e-07
7.861393644e-07
8.060402778e-07
5.792168822e-07
6.030077424e-07
6.370904379e-07
6.790536196e-07
7.258163962e-07
7.735413476e-07
8.176368421e-07
8.528432889e-07
8.734154184e-07
6.382044487e-07
6.629951816e-07
6.984640221e-07
7.420608915e-07
7.905527952e-07
8.399467645e-07
8.855008837e-07
9.218146866e-07
9.430089316e-07
7.000264083e-07
7.257546986e-07
7.625207023e-07
8.076423349e-07
8.577430584e-07
9.086847552e-07
9.55587132e-07
9.92921723e-07
1.014688566e-06
7.645634565e-07
7.911643961e-07
8.291353035e-07
8.756694034e-07
9.272556734e-07
9.796215541e-07
1.027760345e-06
1.066028256e-06
1.088317791e-06
8.316860502e-07
8.590929405e-07
8.981742976e-07
9.460064261e-07
9.989532435e-07
1.052618647e-06
1.101881506e-06
1.140995322e-06
1.163757498e-06
9.01256046e-07
9.294011138e-07
9.694972343e-07
1.018511898e-06
1.072693626e-06
1.127533755e-06
1.177808544e-06
1.217681276e-06
1.240866466e-06
9.731282499e-07
1.00194328e-06
1.042958094e-06
1.0930397e-06
1.148331026e-06
1.204221822e-06
1.255397507e-06
1.295943012e-06
1.319502186e-06
1.047151871e-06
1.076568759e-06
1.118406556e-06
1.169440243e-06
1.225717e-06
1.282535835e-06
1.33450294e-06
1.37563652e-06
1.399521504e-06
1.12317188e-06
1.153123111e-06
1.195689173e-06
1.247561523e-06
1.304701347e-06
1.362327795e-06
1.414978903e-06
1.45661761e-06
1.480781266e-06
1.201030269e-06
1.231449324e-06
1.274650468e-06
1.327250058e-06
1.385133109e-06
1.44344933e-06
1.496679573e-06
1.538742531e-06
1.563138922e-06
1.280567211e-06
1.311388909e-06
1.355133895e-06
1.408351906e-06
1.466861245e-06
1.525752489e-06
1.579459916e-06
1.621868572e-06
1.646453089e-06
1.361622112e-06
1.392782856e-06
1.43698284e-06
1.49071339e-06
1.549735438e-06
1.609090432e-06
1.663176293e-06
1.705854617e-06
1.73058409e-06
1.444034537e-06
1.475472586e-06
1.520041386e-06
1.57418191e-06
1.633606806e-06
1.693318041e-06
1.747687017e-06
1.790561659e-06
1.815394439e-06
1.527645051e-06
1.559300736e-06
1.604155117e-06
1.658606665e-06
1.71832852e-06
1.778292477e-06
1.832852854e-06
1.875853269e-06
1.900749297e-06
1.612296075e-06
1.64411195e-06
1.689171829e-06
1.743839267e-06
1.803756365e-06
1.863873684e-06
1.918537489e-06
1.961596029e-06
1.986516882e-06
1.697832626e-06
1.729753569e-06
1.774942148e-06
1.829734307e-06
1.889749247e-06
1.949924848e-06
2.004607941e-06
2.047659916e-06
2.072568846e-06
1.784102911e-06
1.816076202e-06
1.861320065e-06
1.916149848e-06
1.976169638e-06
2.036312798e-06
2.090934931e-06
2.133918653e-06
2.158780606e-06
1.870958863e-06
1.902934233e-06
1.948163408e-06
2.00294785e-06
2.062883964e-06
2.122908365e-06
2.17739321e-06
2.220250015e-06
2.245031644e-06
1.958256595e-06
1.990186252e-06
2.035334245e-06
2.089994547e-06
2.149762948e-06
2.209586688e-06
2.263861848e-06
2.306536095e-06
2.331205766e-06
2.04585679e-06
2.07769543e-06
2.122699235e-06
2.177160764e-06
2.236681899e-06
2.296227481e-06
2.350224477e-06
2.392663538e-06
2.417191323e-06
2.133625031e-06
2.165329833e-06
2.210129914e-06
2.264322183e-06
2.323520955e-06
2.382715256e-06
2.436369491e-06
2.478523733e-06
2.502881399e-06
2.221432075e-06
2.252962676e-06
2.297502939e-06
2.351359566e-06
2.410165285e-06
2.468939505e-06
2.522190226e-06
2.564012971e-06
2.588173961e-06
2.309154065e-06
2.340472531e-06
2.384700277e-06
2.438158926e-06
2.496505247e-06
2.554794846e-06
2.607585081e-06
2.649032569e-06
2.672971983e-06
2.396672704e-06
2.427743492e-06
2.471609358e-06
2.524611668e-06
2.582436512e-06
2.640181131e-06
2.692457628e-06
2.733488962e-06
2.757183529e-06
2.483875383e-06
2.514665285e-06
2.558123178e-06
2.610614684e-06
2.667860148e-06
2.725003528e-06
2.776716673e-06
2.817293768e-06
2.840721817e-06
2.570655259e-06
2.601133358e-06
2.644140377e-06
2.696070415e-06
2.752682678e-06
2.809172562e-06
2.860276302e-06
2.900363818e-06
2.923505243e-06
2.656911313e-06
2.687048916e-06
2.729565272e-06
2.780886886e-06
2.836816103e-06
2.892604133e-06
2.943055885e-06
2.982621167e-06
3.00545739e-06
2.74254836e-06
2.772318942e-06
2.814307868e-06
2.864977705e-06
2.920177898e-06
2.975219511e-06
3.024980069e-06
3.063993071e-06
3.086507006e-06
2.827477042e-06
2.856856176e-06
2.898283841e-06
2.948262042e-06
3.002690984e-06
3.056945299e-06
3.105978737e-06
3.14441195e-06
3.166587962e-06
2.911613784e-06
2.940579077e-06
2.98141449e-06
3.030664579e-06
3.084283677e-06
3.137713383e-06
3.185986951e-06
3.223815328e-06
3.245639187e-06
2.994880734e-06
3.023411757e-06
3.06362667e-06
3.112115444e-06
3.164889616e-06
3.21746085e-06
3.264944875e-06
3.30214575e-06
3.323604591e-06
3.077205676e-06
3.105283897e-06
3.144852709e-06
3.192550119e-06
3.244447673e-06
3.296129901e-06
3.342797678e-06
3.379350685e-06
3.400432958e-06
3.158521934e-06
3.186130642e-06
3.225030303e-06
3.271909338e-06
3.322901843e-06
3.37366774e-06
3.419495424e-06
3.455382414e-06
3.476077842e-06
3.238768246e-06
3.265892486e-06
3.304102393e-06
3.350138962e-06
3.400201128e-06
3.450026452e-06
3.494992948e-06
3.530197907e-06
3.550497435e-06
3.317888634e-06
3.344515132e-06
3.382017035e-06
3.42718985e-06
3.476299397e-06
3.525162866e-06
3.56924972e-06
3.603758681e-06
3.623654428e-06
3.395832261e-06
3.421949354e-06
3.458727254e-06
3.503017711e-06
3.551155242e-06
3.599038409e-06
3.642229697e-06
3.676030657e-06
3.695515867e-06
3.47255327e-06
3.498150836e-06
3.534190886e-06
3.577582948e-06
3.624731824e-06
3.671618953e-06
3.713901169e-06
3.746983999e-06
3.766052993e-06
3.548010623e-06
3.573080011e-06
3.608370418e-06
3.650850497e-06
3.69699671e-06
3.742874649e-06
3.784236596e-06
3.816592958e-06
3.835241084e-06
3.622167927e-06
3.646701886e-06
3.681232815e-06
3.722789655e-06
3.767921702e-06
3.812779765e-06
3.853212439e-06
3.884835698e-06
3.903059282e-06
3.694993256e-06
3.718985867e-06
3.752749344e-06
3.793373906e-06
3.837482666e-06
3.881312502e-06
3.920808988e-06
3.951694129e-06
3.969490423e-06
3.766458969e-06
3.789905578e-06
3.822895393e-06
3.862580742e-06
3.905659349e-06
3.948454829e-06
3.987010187e-06
4.017153726e-06
4.034520864e-06
3.836541525e-06
3.859438673e-06
3.891650289e-06
3.930391478e-06
3.972435206e-06
4.014192294e-06
4.051803455e-06
4.081203357e-06
4.098140302e-06
3.905221291e-06
3.927566652e-06
3.958997107e-06
3.996791071e-06
4.037797209e-06
4.07851385e-06
4.115179506e-06
4.143835102e-06
4.160341601e-06
3.972482355e-06
3.994274668e-06
4.024922493e-06
4.061767937e-06
4.101735671e-06
4.141411673e-06
4.177132173e-06
4.20504408e-06
4.221120614e-06
4.038312339e-06
4.059551346e-06
4.089416467e-06
4.125313761e-06
4.164244062e-06
4.202880979e-06
4.237658229e-06
4.264828264e-06
4.280476004e-06
4.102702204e-06
4.123388588e-06
4.152472245e-06
4.187423318e-06
4.225318826e-06
4.262919849e-06
4.296757208e-06
4.323188315e-06
4.338409078e-06
4.165646067e-06
4.185781391e-06
4.21408605e-06
4.248094289e-06
4.284959206e-06
4.321529051e-06
4.354431235e-06
4.380127404e-06
4.394923604e-06
4.227141015e-06
4.246727664e-06
4.274256935e-06
4.307327084e-06
4.343167062e-06
4.378711867e-06
4.410684852e-06
4.435651047e-06
4.450025656e-06
4.28718692e-06
4.306228041e-06
4.332986598e-06
4.365124665e-06
4.399946704e-06
4.434473922e-06
4.465524849e-06
4.489766935e-06
4.503723438e-06
4.345786261e-06
4.364285711e-06
4.390279213e-06
4.421492371e-06
4.455304718e-06
4.488823017e-06
4.518960105e-06
4.542484776e-06
4.556027132e-06
4.402943949e-06
4.420906238e-06
4.446141254e-06
4.476437755e-06
4.509249802e-06
4.541768969e-06
4.571001424e-06
4.593816133e-06
4.606948736e-06
4.458667155e-06
4.476097395e-06
4.500581328e-06
4.529970411e-06
4.561792605e-06
4.593323449e-06
4.621661381e-06
4.643774277e-06
4.656501914e-06
4.512965142e-06
4.529868996e-06
4.553610014e-06
4.582101823e-06
4.612945569e-06
4.643499832e-06
4.670954172e-06
4.692374032e-06
4.704701851e-06
4.565849104e-06
4.582232736e-06
4.605239705e-06
4.632845202e-06
4.662722778e-06
4.692313045e-06
4.718895465e-06
4.739631636e-06
4.751565106e-06
4.617332005e-06
4.633202035e-06
4.655484449e-06
4.682215341e-06
4.711139806e-06
4.739779421e-06
4.76550226e-06
4.785564595e-06
4.797109473e-06
4.667428428e-06
4.682791885e-06
4.704359805e-06
4.730228461e-06
4.758213576e-06
4.785916558e-06
4.810792742e-06
4.830191544e-06
4.84135384e-06
4.716154423e-06
4.731018701e-06
4.75188269e-06
4.776902069e-06
4.803962215e-06
4.830743175e-06
4.854786148e-06
4.873532109e-06
4.884318053e-06
4.763527358e-06
4.777900173e-06
4.798071235e-06
4.822254811e-06
4.848404909e-06
4.874278971e-06
4.897502617e-06
4.915606763e-06
4.926022773e-06
4.80956578e-06
4.823455124e-06
4.842944645e-06
4.866306332e-06
4.891561756e-06
4.916544476e-06
4.938963049e-06
4.956436677e-06
4.966489319e-06
4.85428926e-06
4.86770336e-06
4.886523044e-06
4.909077121e-06
4.93345362e-06
4.957560898e-06
4.979188939e-06
4.996043556e-06
5.00573951e-06
4.897718246e-06
4.910665518e-06
4.928827321e-06
4.950588353e-06
4.974101958e-06
4.997349948e-06
5.018202198e-06
5.034449448e-06
5.043795464e-06
4.939873894e-06
4.952362894e-06
4.969878958e-06
4.990861706e-06
5.013528632e-06
5.035933635e-06
5.056024936e-06
5.071676519e-06
5.080679368e-06
4.980777895e-06
4.992817264e-06
5.009699831e-06
5.029919152e-06
5.051755683e-06
5.073334024e-06
5.092679203e-06
5.107746773e-06
5.116413183e-06
5.020452266e-06
5.032050664e-06
5.048311984e-06
5.06778271e-06
5.088805053e-06
5.109572931e-06
5.128186644e-06
5.142681684e-06
5.151018265e-06
5.058919102e-06
5.070085133e-06
5.085737346e-06
5.104474132e-06
5.124698242e-06
5.144671531e-06
5.162568074e-06
5.176501728e-06
5.184514866e-06
5.096200278e-06
5.106942384e-06
5.121997374e-06
5.140014505e-06
5.159455851e-06
5.178649849e-06
5.195842903e-06
5.209225759e-06
5.21692148e-06
5.132317064e-06
5.142643401e-06
5.157112598e-06
5.174423735e-06
5.193097002e-06
5.211526096e-06
5.22802839e-06
5.24087019e-06
5.248253978e-06
5.167289641e-06
5.177207911e-06
5.191102042e-06
5.207719892e-06
5.225638578e-06
5.2433158e-06
5.259138671e-06
5.271447925e-06
5.278524482e-06
5.201136479e-06
5.210653706e-06
5.223982464e-06
5.239918344e-06
5.25709424e-06
5.274030692e-06
5.289183497e-06
5.300966981e-06
5.307739907e-06
5.233873536e-06
5.242995784e-06
5.255767394e-06
5.271030668e-06
5.287473176e-06
5.303677269e-06
5.318166628e-06
5.329428723e-06
5.335900108e-06
5.265513243e-06
5.274245244e-06
5.28646591e-06
5.301063253e-06
5.316778506e-06
5.332254993e-06
5.346083815e-06
5.356825667e-06
5.362995561e-06
5.296063229e-06
5.304407908e-06
5.316081099e-06
5.330015566e-06
5.345005313e-06
5.359754053e-06
5.372920301e-06
5.383138763e-06
5.389004514e-06
5.325524718e-06
5.333482597e-06
5.34460815e-06
5.357878009e-06
5.372138219e-06
5.386152642e-06
5.398647808e-06
5.408334123e-06
5.41388956e-06
5.35389058e-06
5.361459036e-06
5.372032049e-06
5.384629334e-06
5.398148476e-06
5.411413708e-06
5.423220943e-06
5.432359156e-06
5.4375936e-06
5.381142967e-06
5.388315323e-06
5.398324804e-06
5.410233566e-06
5.422990543e-06
5.435481146e-06
5.446573041e-06
5.455138103e-06
5.460035201e-06
5.407250509e-06
5.414014952e-06
5.423442208e-06
5.434636437e-06
5.446598137e-06
5.458275465e-06
5.468611449e-06
5.476567024e-06
5.481103393e-06
5.432165052e-06
5.438503359e-06
5.447320115e-06
5.457761322e-06
5.468879793e-06
5.479688952e-06
5.489212339e-06
5.496508319e-06
5.50065203e-06
5.455817945e-06
5.461704021e-06
5.469870268e-06
5.479504745e-06
5.489714011e-06
5.499580468e-06
5.508215176e-06
5.514784955e-06
5.518493878e-06
5.478115905e-06
5.483514148e-06
5.490975747e-06
5.499731537e-06
5.508944114e-06
5.517770021e-06
5.525417062e-06
5.531174638e-06
5.534394699e-06
5.498936539e-06
5.503800061e-06
5.51048616e-06
5.518269813e-06
5.526373024e-06
5.534033372e-06
5.540567237e-06
5.545404273e-06
5.548067706e-06
5.518123657e-06
5.522392414e-06
5.528212752e-06
5.534905983e-06
5.541758214e-06
5.54809701e-06
5.553362125e-06
5.557145127e-06
5.55916883e-06
5.535482547e-06
5.539081451e-06
5.543923671e-06
5.549380093e-06
5.554807204e-06
5.559633887e-06
5.5634414e-06
5.566009234e-06
5.567293364e-06
5.550775455e-06
5.553612585e-06
5.557339726e-06
5.56138186e-06
5.565174019e-06
5.568260425e-06
5.570385624e-06
5.571547644e-06
5.57197462e-06
5.563717603e-06
5.565682636e-06
5.568130999e-06
5.570547848e-06
5.572457105e-06
5.573535357e-06
5.573716085e-06
5.573251172e-06
5.572685289e-06
5.573974096e-06
5.574937135e-06
5.575914775e-06
5.57646027e-06
5.576199271e-06
5.57496099e-06
5.572897467e-06
5.570554345e-06
5.568842204e-06
5.581158169e-06
5.580969148e-06
5.580255274e-06
5.57864797e-06
5.575890219e-06
5.571987519e-06
5.567344009e-06
5.562843188e-06
5.55981516e-06
5.584831247e-06
5.58332013e-06
5.580665719e-06
5.576590108e-06
5.570972217e-06
5.564020945e-06
5.556429692e-06
5.549467372e-06
5.544940304e-06
5.584505306e-06
5.581483289e-06
5.576613218e-06
5.569723054e-06
5.560849411e-06
5.550435036e-06
5.539502839e-06
5.529757083e-06
5.523538388e-06
5.579648021e-06
5.574909949e-06
5.567526936e-06
5.557450902e-06
5.544901097e-06
5.530587587e-06
5.515905286e-06
5.503044617e-06
5.494937849e-06
5.569691108e-06
5.563019271e-06
5.552809856e-06
5.539159827e-06
5.522499084e-06
5.503840954e-06
5.484995926e-06
5.46869038e-06
5.458502262e-06
5.554042156e-06
5.545211585e-06
5.531854289e-06
5.514236315e-06
5.493028976e-06
5.469586466e-06
5.446178001e-06
5.426112445e-06
5.413661193e-06
5.532100078e-06
5.520885371e-06
5.504061023e-06
5.482088955e-06
5.455914852e-06
5.427271922e-06
5.398929055e-06
5.374818326e-06
5.359942948e-06
5.50327405e-06
5.489457631e-06
5.468861702e-06
5.442173154e-06
5.410646371e-06
5.376430894e-06
5.342831959e-06
5.314437099e-06
5.297007176e-06
5.467005533e-06
5.450387125e-06
5.425743659e-06
5.394017713e-06
5.356806966e-06
5.316712113e-06
5.277604933e-06
5.244749527e-06
5.224674794e-06
5.422792644e-06
5.403199558e-06