/*--------------------------------*- C++ -*----------------------------------*\
| =========                 |                                                 |
| \\      /  F ield         | OpenFOAM: The Open Source CFD Toolbox           |
|  \\    /   O peration     | Version:  2212                                  |
|   \\  /    A nd           | Website:  www.openfoam.com                      |
|    \\/     M anipulation  |                                                 |
\*---------------------------------------------------------------------------*/
FoamFile
{
    version     2.0;
    format      ascii;
    arch        "LSB;label=32;scalar=64";
    class       volScalarField;
    location    "20.00000000";
    object      p;
}
// * * * * * * * * * * * * * * * * * * * * * * * * * * * * * * * * * * * * * //

dimensions      [1 -1 -2 0 0 0 0];

internalField   nonuniform List<scalar> 
3000
(
10000.22018
10000.22022
10000.2203
10000.2204
10000.22058
10000.22081
10000.22127
10000.2217
10000.22336
10000.22012
10000.22013
10000.22017
10000.22022
10000.22029
10000.22034
10000.22049
10000.22047
10000.22066
10000.22005
10000.22006
10000.2201
10000.22013
10000.22018
10000.22023
10000.22031
10000.22028
10000.22036
10000.21986
10000.21984
10000.21985
10000.21984
10000.21985
10000.21983
10000.21983
10000.2198
10000.21976
10000.21969
10000.21967
10000.21967
10000.21966
10000.21965
10000.21964
10000.21963
10000.2196
10000.21957
10000.21947
10000.21944
10000.21943
10000.21941
10000.2194
10000.21937
10000.21936
10000.21934
10000.21931
10000.21927
10000.21925
10000.21924
10000.21923
10000.21921
10000.21919
10000.21918
10000.21917
10000.21915
10000.21907
10000.21905
10000.21904
10000.21902
10000.21901
10000.219
10000.21899
10000.21898
10000.21897
10000.21889
10000.21887
10000.21887
10000.21885
10000.21884
10000.21883
10000.21883
10000.21882
10000.21881
10000.21871
10000.21869
10000.21869
10000.21868
10000.21867
10000.21867
10000.21866
10000.21866
10000.21865
10000.21854
10000.21853
10000.21853
10000.21852
10000.21852
10000.21851
10000.21851
10000.2185
10000.2185
10000.21838
10000.21837
10000.21837
10000.21836
10000.21836
10000.21836
10000.21835
10000.21835
10000.21835
10000.21822
10000.21822
10000.21822
10000.21821
10000.21821
10000.21821
10000.21821
10000.2182
10000.2182
10000.21807
10000.21807
10000.21807
10000.21806
10000.21806
10000.21806
10000.21806
10000.21806
10000.21806
10000.21793
10000.21792
10000.21792
10000.21792
10000.21792
10000.21792
10000.21792
10000.21792
10000.21791
10000.21778
10000.21778
10000.21778
10000.21778
10000.21778
10000.21777
10000.21777
10000.21777
10000.21777
10000.21764
10000.21764
10000.21764
10000.21763
10000.21763
10000.21763
10000.21763
10000.21763
10000.21763
10000.2175
10000.21749
10000.21749
10000.21749
10000.21749
10000.21749
10000.21749
10000.21749
10000.21749
10000.21736
10000.21735
10000.21735
10000.21735
10000.21735
10000.21735
10000.21735
10000.21735
10000.21735
10000.21722
10000.21721
10000.21721
10000.21721
10000.21721
10000.21721
10000.21721
10000.21721
10000.21721
10000.21708
10000.21707
10000.21708
10000.21708
10000.21708
10000.21708
10000.21708
10000.21708
10000.21707
10000.21694
10000.21694
10000.21694
10000.21694
10000.21694
10000.21694
10000.21694
10000.21694
10000.21693
10000.2168
10000.2168
10000.2168
10000.2168
10000.2168
10000.2168
10000.2168
10000.2168
10000.2168
10000.21666
10000.21666
10000.21666
10000.21666
10000.21666
10000.21666
10000.21666
10000.21666
10000.21665
10000.21651
10000.21651
10000.21651
10000.21652
10000.21652
10000.21652
10000.21652
10000.21652
10000.21651
10000.21637
10000.21637
10000.21637
10000.21637
10000.21637
10000.21637
10000.21637
10000.21637
10000.21637
10000.21623
10000.21623
10000.21623
10000.21623
10000.21623
10000.21623
10000.21623
10000.21623
10000.21623
10000.21608
10000.21608
10000.21608
10000.21608
10000.21608
10000.21609
10000.21608
10000.21608
10000.21608
10000.21593
10000.21593
10000.21593
10000.21593
10000.21593
10000.21594
10000.21594
10000.21594
10000.21593
10000.21578
10000.21578
10000.21578
10000.21578
10000.21578
10000.21578
10000.21578
10000.21578
10000.21577
10000.21562
10000.21562
10000.21562
10000.21562
10000.21563
10000.21563
10000.21563
10000.21563
10000.21562
10000.21546
10000.21546
10000.21546
10000.21546
10000.21547
10000.21547
10000.21546
10000.21546
10000.21545
10000.21529
10000.21529
10000.21529
10000.2153
10000.2153
10000.2153
10000.2153
10000.2153
10000.21528
10000.21512
10000.21512
10000.21512
10000.21512
10000.21513
10000.21513
10000.21512
10000.21512
10000.21511
10000.21494
10000.21494
10000.21494
10000.21494
10000.21495
10000.21495
10000.21494
10000.21494
10000.21492
10000.21475
10000.21475
10000.21475
10000.21475
10000.21476
10000.21476
10000.21475
10000.21475
10000.21473
10000.21455
10000.21455
10000.21455
10000.21456
10000.21456
10000.21456
10000.21456
10000.21455
10000.21453
10000.21434
10000.21434
10000.21435
10000.21435
10000.21435
10000.21435
10000.21435
10000.21434
10000.21432
10000.21413
10000.21413
10000.21413
10000.21413
10000.21413
10000.21413
10000.21413
10000.21412
10000.2141
10000.2139
10000.2139
10000.2139
10000.2139
10000.2139
10000.2139
10000.21389
10000.21389
10000.21386
10000.21365
10000.21365
10000.21366
10000.21366
10000.21366
10000.21366
10000.21365
10000.21364
10000.21361
10000.2134
10000.2134
10000.2134
10000.2134
10000.2134
10000.2134
10000.21339
10000.21338
10000.21335
10000.21313
10000.21313
10000.21313
10000.21313
10000.21313
10000.21313
10000.21311
10000.21311
10000.21307
10000.21284
10000.21284
10000.21284
10000.21284
10000.21284
10000.21284
10000.21282
10000.21281
10000.21278
10000.21254
10000.21254
10000.21254
10000.21254
10000.21254
10000.21253
10000.21252
10000.21251
10000.21247
10000.21222
10000.21222
10000.21222
10000.21222
10000.21221
10000.2122
10000.21219
10000.21218
10000.21214
10000.21188
10000.21188
10000.21188
10000.21188
10000.21187
10000.21186
10000.21185
10000.21183
10000.21179
10000.21153
10000.21153
10000.21152
10000.21152
10000.21151
10000.2115
10000.21148
10000.21147
10000.21143
10000.21115
10000.21115
10000.21114
10000.21114
10000.21113
10000.21112
10000.2111
10000.21108
10000.21104
10000.21075
10000.21075
10000.21075
10000.21074
10000.21073
10000.21071
10000.21069
10000.21068
10000.21064
10000.21034
10000.21033
10000.21033
10000.21032
10000.2103
10000.21029
10000.21027
10000.21025
10000.21021
10000.2099
10000.20989
10000.20988
10000.20987
10000.20986
10000.20984
10000.20982
10000.20981
10000.20976
10000.20944
10000.20943
10000.20942
10000.20941
10000.20939
10000.20938
10000.20935
10000.20934
10000.20929
10000.20895
10000.20895
10000.20894
10000.20892
10000.2089
10000.20889
10000.20886
10000.20885
10000.2088
10000.20845
10000.20844
10000.20843
10000.20841
10000.20839
10000.20837
10000.20835
10000.20833
10000.20829
10000.20792
10000.20791
10000.2079
10000.20788
10000.20786
10000.20784
10000.20782
10000.2078
10000.20775
10000.20737
10000.20736
10000.20734
10000.20733
10000.20731
10000.20728
10000.20726
10000.20724
10000.2072
10000.20679
10000.20678
10000.20677
10000.20675
10000.20673
10000.2067
10000.20668
10000.20666
10000.20662
10000.2062
10000.20619
10000.20617
10000.20615
10000.20613
10000.2061
10000.20608
10000.20606
10000.20602
10000.20558
10000.20557
10000.20555
10000.20553
10000.20551
10000.20548
10000.20546
10000.20544
10000.20539
10000.20494
10000.20493
10000.20491
10000.20489
10000.20486
10000.20484
10000.20481
10000.20479
10000.20475
10000.20428
10000.20426
10000.20425
10000.20422
10000.2042
10000.20417
10000.20415
10000.20413
10000.20409
10000.20359
10000.20358
10000.20356
10000.20354
10000.20351
10000.20349
10000.20346
10000.20344
10000.2034
10000.20289
10000.20288
10000.20286
10000.20283
10000.20281
10000.20278
10000.20275
10000.20273
10000.2027
10000.20216
10000.20215
10000.20213
10000.20211
10000.20208
10000.20206
10000.20203
10000.20201
10000.20197
10000.20142
10000.20141
10000.20139
10000.20136
10000.20134
10000.20131
10000.20128
10000.20126
10000.20123
10000.20066
10000.20064
10000.20062
10000.2006
10000.20057
10000.20055
10000.20052
10000.2005
10000.20047
10000.19987
10000.19986
10000.19984
10000.19982
10000.19979
10000.19976
10000.19974
10000.19972
10000.19969
10000.19907
10000.19906
10000.19904
10000.19902
10000.19899
10000.19897
10000.19894
10000.19892
10000.19889
10000.19826
10000.19824
10000.19822
10000.1982
10000.19817
10000.19815
10000.19812
10000.19811
10000.19807
10000.19742
10000.19741
10000.19739
10000.19737
10000.19734
10000.19732
10000.19729
10000.19727
10000.19724
10000.19657
10000.19656
10000.19654
10000.19652
10000.19649
10000.19647
10000.19644
10000.19643
10000.1964
10000.19571
10000.19569
10000.19567
10000.19565
10000.19563
10000.1956
10000.19558
10000.19556
10000.19553
10000.19482
10000.19481
10000.19479
10000.19477
10000.19475
10000.19472
10000.1947
10000.19469
10000.19466
10000.19393
10000.19392
10000.1939
10000.19388
10000.19385
10000.19383
10000.19381
10000.19379
10000.19377
10000.19302
10000.19301
10000.19299
10000.19297
10000.19295
10000.19293
10000.1929
10000.19289
10000.19286
10000.1921
10000.19209
10000.19207
10000.19205
10000.19203
10000.19201
10000.19199
10000.19197
10000.19195
10000.19117
10000.19115
10000.19114
10000.19112
10000.1911
10000.19108
10000.19106
10000.19104
10000.19102
10000.19022
10000.19021
10000.19019
10000.19017
10000.19015
10000.19013
10000.19011
10000.1901
10000.19008
10000.18926
10000.18925
10000.18924
10000.18922
10000.1892
10000.18918
10000.18916
10000.18915
10000.18912
10000.18829
10000.18828
10000.18827
10000.18825
10000.18823
10000.18821
10000.18819
10000.18818
10000.18816
10000.18732
10000.18731
10000.18729
10000.18727
10000.18726
10000.18724
10000.18722
10000.18721
10000.18719
10000.18633
10000.18632
10000.1863
10000.18629
10000.18627
10000.18625
10000.18624
10000.18622
10000.18621
10000.18533
10000.18532
10000.18531
10000.18529
10000.18527
10000.18526
10000.18524
10000.18523
10000.18521
10000.18432
10000.18432
10000.1843
10000.18429
10000.18427
10000.18425
10000.18424
10000.18423
10000.18421
10000.18331
10000.1833
10000.18329
10000.18327
10000.18326
10000.18324
10000.18323
10000.18322
10000.1832
10000.18229
10000.18228
10000.18227
10000.18225
10000.18224
10000.18222
10000.18221
10000.1822
10000.18218
10000.18126
10000.18125
10000.18124
10000.18122
10000.18121
10000.1812
10000.18118
10000.18117
10000.18116
10000.18022
10000.18021
10000.1802
10000.18019
10000.18017
10000.18016
10000.18015
10000.18014
10000.18013
10000.17917
10000.17917
10000.17916
10000.17915
10000.17913
10000.17912
10000.17911
10000.1791
10000.17909
10000.17812
10000.17812
10000.17811
10000.1781
10000.17808
10000.17807
10000.17806
10000.17805
10000.17804
10000.17707
10000.17706
10000.17705
10000.17704
10000.17703
10000.17702
10000.17701
10000.177
10000.17699
10000.17601
10000.176
10000.17599
10000.17598
10000.17597
10000.17596
10000.17595
10000.17594
10000.17593
10000.17494
10000.17493
10000.17493
10000.17492
10000.1749
10000.17489
10000.17488
10000.17488
10000.17487
10000.17387
10000.17386
10000.17385
10000.17384
10000.17383
10000.17382
10000.17382
10000.17381
10000.1738
10000.17279
10000.17279
10000.17278
10000.17277
10000.17276
10000.17275
10000.17274
10000.17273
10000.17273
10000.17171
10000.1717
10000.1717
10000.17169
10000.17168
10000.17167
10000.17166
10000.17166
10000.17165
10000.17062
10000.17062
10000.17061
10000.1706
10000.17059
10000.17059
10000.17058
10000.17057
10000.17056
10000.16953
10000.16953
10000.16952
10000.16951
10000.16951
10000.1695
10000.16949
10000.16949
10000.16948
10000.16844
10000.16844
10000.16843
10000.16842
10000.16841
10000.16841
10000.1684
10000.16839
10000.16839
10000.16734
10000.16734
10000.16733
10000.16733
10000.16732
10000.16731
10000.1673
10000.1673
10000.16729
10000.16624
10000.16624
10000.16623
10000.16623
10000.16622
10000.16621
10000.16621
10000.1662
10000.1662
10000.16514
10000.16514
10000.16513
10000.16512
10000.16512
10000.16511
10000.1651
10000.1651
10000.16509
10000.16403
10000.16403
10000.16402
10000.16402
10000.16401
10000.16401
10000.164
10000.164
10000.16399
10000.16292
10000.16292
10000.16292
10000.16291
10000.1629
10000.1629
10000.16289
10000.16289
10000.16288
10000.16181
10000.16181
10000.1618
10000.1618
10000.16179
10000.16179
10000.16178
10000.16178
10000.16177
10000.1607
10000.16069
10000.16069
10000.16068
10000.16068
10000.16067
10000.16067
10000.16067
10000.16066
10000.15958
10000.15958
10000.15957
10000.15957
10000.15956
10000.15956
10000.15955
10000.15955
10000.15955
10000.15846
10000.15846
10000.15846
10000.15845
10000.15845
10000.15844
10000.15844
10000.15843
10000.15843
10000.15734
10000.15734
10000.15733
10000.15733
10000.15733
10000.15732
10000.15732
10000.15732
10000.15731
10000.15622
10000.15622
10000.15621
10000.15621
10000.1562
10000.1562
10000.1562
10000.15619
10000.15619
10000.15509
10000.15509
10000.15509
10000.15508
10000.15508
10000.15508
10000.15507
10000.15507
10000.15507
10000.15397
10000.15397
10000.15396
10000.15396
10000.15396
10000.15395
10000.15395
10000.15395
10000.15394
10000.15284
10000.15284
10000.15284
10000.15283
10000.15283
10000.15283
10000.15282
10000.15282
10000.15282
10000.15171
10000.15171
10000.15171
10000.1517
10000.1517
10000.1517
10000.15169
10000.15169
10000.15169
10000.15058
10000.15058
10000.15058
10000.15057
10000.15057
10000.15057
10000.15056
10000.15056
10000.15056
10000.14945
10000.14945
10000.14944
10000.14944
10000.14944
10000.14944
10000.14943
10000.14943
10000.14943
10000.14832
10000.14831
10000.14831
10000.14831
10000.14831
10000.1483
10000.1483
10000.1483
10000.1483
10000.14718
10000.14718
10000.14718
10000.14718
10000.14717
10000.14717
10000.14717
10000.14717
10000.14716
10000.14605
10000.14605
10000.14604
10000.14604
10000.14604
10000.14604
10000.14603
10000.14603
10000.14603
10000.14491
10000.14491
10000.14491
10000.14491
10000.1449
10000.1449
10000.1449
10000.1449
10000.1449
10000.14377
10000.14377
10000.14377
10000.14377
10000.14377
10000.14376
10000.14376
10000.14376
10000.14376
10000.14264
10000.14263
10000.14263
10000.14263
10000.14263
10000.14263
10000.14263
10000.14262
10000.14262
10000.1415
10000.1415
10000.14149
10000.14149
10000.14149
10000.14149
10000.14149
10000.14149
10000.14149
10000.14036
10000.14036
10000.14036
10000.14035
10000.14035
10000.14035
10000.14035
10000.14035
10000.14035
10000.13922
10000.13922
10000.13922
10000.13921
10000.13921
10000.13921
10000.13921
10000.13921
10000.13921
10000.13808
10000.13808
10000.13808
10000.13807
10000.13807
10000.13807
10000.13807
10000.13807
10000.13807
10000.13694
10000.13694
10000.13693
10000.13693
10000.13693
10000.13693
10000.13693
10000.13693
10000.13693
10000.13579
10000.13579
10000.13579
10000.13579
10000.13579
10000.13579
10000.13579
10000.13579
10000.13579
10000.13465
10000.13465
10000.13465
10000.13465
10000.13465
10000.13465
10000.13465
10000.13464
10000.13464
10000.13351
10000.13351
10000.13351
10000.13351
10000.13351
10000.1335
10000.1335
10000.1335
10000.1335
10000.13237
10000.13237
10000.13236
10000.13236
10000.13236
10000.13236
10000.13236
10000.13236
10000.13236
10000.13122
10000.13122
10000.13122
10000.13122
10000.13122
10000.13122
10000.13122
10000.13122
10000.13122
10000.13008
10000.13008
10000.13008
10000.13008
10000.13008
10000.13007
10000.13007
10000.13007
10000.13007
10000.12893
10000.12893
10000.12893
10000.12893
10000.12893
10000.12893
10000.12893
10000.12893
10000.12893
10000.12779
10000.12779
10000.12779
10000.12779
10000.12779
10000.12779
10000.12778
10000.12778
10000.12778
10000.12664
10000.12664
10000.12664
10000.12664
10000.12664
10000.12664
10000.12664
10000.12664
10000.12664
10000.1255
10000.1255
10000.1255
10000.1255
10000.1255
10000.1255
10000.1255
10000.12549
10000.12549
10000.12435
10000.12435
10000.12435
10000.12435
10000.12435
10000.12435
10000.12435
10000.12435
10000.12435
10000.12321
10000.12321
10000.12321
10000.12321
10000.12321
10000.12321
10000.1232
10000.1232
10000.1232
10000.12206
10000.12206
10000.12206
10000.12206
10000.12206
10000.12206
10000.12206
10000.12206
10000.12206
10000.12092
10000.12092
10000.12092
10000.12091
10000.12091
10000.12091
10000.12091
10000.12091
10000.12091
10000.11977
10000.11977
10000.11977
10000.11977
10000.11977
10000.11977
10000.11977
10000.11977
10000.11977
10000.11862
10000.11862
10000.11862
10000.11862
10000.11862
10000.11862
10000.11862
10000.11862
10000.11862
10000.11748
10000.11748
10000.11748
10000.11748
10000.11748
10000.11747
10000.11747
10000.11747
10000.11747
10000.11633
10000.11633
10000.11633
10000.11633
10000.11633
10000.11633
10000.11633
10000.11633
10000.11633
10000.11518
10000.11518
10000.11518
10000.11518
10000.11518
10000.11518
10000.11518
10000.11518
10000.11518
10000.11404
10000.11404
10000.11404
10000.11404
10000.11404
10000.11403
10000.11403
10000.11403
10000.11403
10000.11289
10000.11289
10000.11289
10000.11289
10000.11289
10000.11289
10000.11289
10000.11289
10000.11289
10000.11174
10000.11174
10000.11174
10000.11174
10000.11174
10000.11174
10000.11174
10000.11174
10000.11174
10000.1106
10000.1106
10000.1106
10000.11059
10000.11059
10000.11059
10000.11059
10000.11059
10000.11059
10000.10945
10000.10945
10000.10945
10000.10945
10000.10945
10000.10945
10000.10945
10000.10945
10000.10945
10000.1083
10000.1083
10000.1083
10000.1083
10000.1083
10000.1083
10000.1083
10000.1083
10000.1083
10000.10715
10000.10715
10000.10715
10000.10715
10000.10715
10000.10715
10000.10715
10000.10715
10000.10715
10000.10601
10000.10601
10000.10601
10000.10601
10000.10601
10000.10601
10000.10601
10000.10601
10000.10601
10000.10486
10000.10486
10000.10486
10000.10486
10000.10486
10000.10486
10000.10486
10000.10486
10000.10486
10000.10371
10000.10371
10000.10371
10000.10371
10000.10371
10000.10371
10000.10371
10000.10371
10000.10371
10000.10256
10000.10256
10000.10256
10000.10256
10000.10256
10000.10256
10000.10256
10000.10256
10000.10256
10000.10142
10000.10142
10000.10142
10000.10142
10000.10142
10000.10142
10000.10142
10000.10142
10000.10142
10000.10027
10000.10027
10000.10027
10000.10027
10000.10027
10000.10027
10000.10027
10000.10027
10000.10027
10000.09912
10000.09912
10000.09912
10000.09912
10000.09912
10000.09912
10000.09912
10000.09912
10000.09912
10000.09798
10000.09798
10000.09798
10000.09798
10000.09798
10000.09798
10000.09798
10000.09798
10000.09798
10000.09683
10000.09683
10000.09683
10000.09683
10000.09683
10000.09683
10000.09683
10000.09683
10000.09683
10000.09568
10000.09568
10000.09568
10000.09568
10000.09568
10000.09568
10000.09568
10000.09568
10000.09568
10000.09453
10000.09453
10000.09453
10000.09453
10000.09453
10000.09453
10000.09453
10000.09453
10000.09453
10000.09339
10000.09339
10000.09339
10000.09339
10000.09339
10000.09339
10000.09339
10000.09339
10000.09339
10000.09224
10000.09224
10000.09224
10000.09224
10000.09224
10000.09224
10000.09224
10000.09224
10000.09224
10000.09109
10000.09109
10000.09109
10000.09109
10000.09109
10000.09109
10000.09109
10000.09109
10000.09109
10000.08995
10000.08995
10000.08995
10000.08995
10000.08995
10000.08995
10000.08995
10000.08995
10000.08995
10000.0888
10000.0888
10000.0888
10000.0888
10000.0888
10000.0888
10000.0888
10000.0888
10000.0888
10000.08765
10000.08765
10000.08765
10000.08765
10000.08765
10000.08765
10000.08765
10000.08765
10000.08765
10000.0865
10000.0865
10000.0865
10000.0865
10000.0865
10000.0865
10000.0865
10000.0865
10000.0865
10000.08536
10000.08536
10000.08536
10000.08536
10000.08536
10000.08536
10000.08536
10000.08536
10000.08536
10000.08421
10000.08421
10000.08421
10000.08421
10000.08421
10000.08421
10000.08421
10000.08421
10000.08421
10000.08306
10000.08306
10000.08306
10000.08306
10000.08306
10000.08306
10000.08306
10000.08306
10000.08306
10000.08192
10000.08192
10000.08192
10000.08192
10000.08192
10000.08192
10000.08192
10000.08192
10000.08192
10000.08077
10000.08077
10000.08077
10000.08077
10000.08077
10000.08077
10000.08077
10000.08077
10000.08077
10000.07963
10000.07963
10000.07963
10000.07963
10000.07963
10000.07963
10000.07963
10000.07963
10000.07963
10000.07848
10000.07848
10000.07848
10000.07848
10000.07848
10000.07848
10000.07848
10000.07848
10000.07848
10000.07733
10000.07733
10000.07733
10000.07733
10000.07733
10000.07733
10000.07733
10000.07733
10000.07733
10000.07619
10000.07619
10000.07619
10000.07619
10000.07619
10000.07619
10000.07619
10000.07619
10000.07619
10000.07504
10000.07504
10000.07504
10000.07504
10000.07504
10000.07504
10000.07504
10000.07504
10000.07504
10000.07389
10000.07389
10000.07389
10000.07389
10000.07389
10000.07389
10000.07389
10000.07389
10000.07389
10000.07275
10000.07275
10000.07275
10000.07275
10000.07275
10000.07275
10000.07275
10000.07275
10000.07275
10000.0716
10000.0716
10000.0716
10000.0716
10000.0716
10000.0716
10000.0716
10000.0716
10000.0716
10000.07046
10000.07046
10000.07046
10000.07046
10000.07046
10000.07046
10000.07046
10000.07046
10000.07046
10000.06931
10000.06931
10000.06931
10000.06931
10000.06931
10000.06931
10000.06931
10000.06931
10000.06931
10000.06817
10000.06817
10000.06817
10000.06817
10000.06817
10000.06817
10000.06817
10000.06817
10000.06817
10000.06702
10000.06702
10000.06702
10000.06702
10000.06702
10000.06702
10000.06702
10000.06702
10000.06702
10000.06588
10000.06588
10000.06588
10000.06588
10000.06588
10000.06588
10000.06588
10000.06588
10000.06588
10000.06473
10000.06473
10000.06473
10000.06473
10000.06473
10000.06473
10000.06473
10000.06474
10000.06474
10000.06359
10000.06359
10000.06359
10000.06359
10000.06359
10000.06359
10000.06359
10000.06359
10000.06359
10000.06245
10000.06245
10000.06245
10000.06245
10000.06245
10000.06245
10000.06245
10000.06245
10000.06245
10000.06131
10000.06131
10000.06131
10000.06131
10000.06131
10000.06131
10000.06131
10000.06131
10000.06131
10000.06017
10000.06017
10000.06017
10000.06017
10000.06017
10000.06017
10000.06017
10000.06017
10000.06017
10000.05903
10000.05903
10000.05903
10000.05903
10000.05903
10000.05903
10000.05903
10000.05903
10000.05903
10000.05789
10000.05789
10000.05789
10000.05789
10000.05789
10000.05789
10000.05789
10000.0579
10000.0579
10000.05676
10000.05676
10000.05676
10000.05676
10000.05676
10000.05676
10000.05676
10000.05676
10000.05677
10000.05563
10000.05563
10000.05563
10000.05563
10000.05563
10000.05563
10000.05563
10000.05563
10000.05563
10000.0545
10000.0545
10000.0545
10000.0545
10000.0545
10000.0545
10000.0545
10000.0545
10000.05451
10000.05337
10000.05337
10000.05337
10000.05337
10000.05337
10000.05337
10000.05337
10000.05337
10000.05338
10000.05225
10000.05225
10000.05225
10000.05225
10000.05225
10000.05225
10000.05225
10000.05225
10000.05226
10000.05113
10000.05113
10000.05113
10000.05113
10000.05113
10000.05113
10000.05113
10000.05114
10000.05114
10000.05002
10000.05002
10000.05002
10000.05002
10000.05002
10000.05002
10000.05002
10000.05002
10000.05003
10000.04891
10000.04891
10000.04891
10000.04891
10000.04891
10000.04891
10000.04891
10000.04892
10000.04893
10000.04781
10000.04781
10000.04781
10000.04781
10000.04781
10000.04781
10000.04781
10000.04782
10000.04783
10000.04671
10000.04671
10000.04671
10000.04671
10000.04671
10000.04671
10000.04672
10000.04672
10000.04674
10000.04563
10000.04563
10000.04562
10000.04562
10000.04562
10000.04563
10000.04563
10000.04564
10000.04565
10000.04455
10000.04455
10000.04454
10000.04454
10000.04454
10000.04455
10000.04455
10000.04456
10000.04457
10000.04348
10000.04347
10000.04347
10000.04347
10000.04347
10000.04348
10000.04348
10000.04349
10000.04351
10000.04241
10000.04241
10000.04241
10000.04241
10000.04241
10000.04242
10000.04242
10000.04243
10000.04245
10000.04136
10000.04136
10000.04136
10000.04136
10000.04136
10000.04137
10000.04137
10000.04138
10000.0414
10000.04032
10000.04032
10000.04032
10000.04032
10000.04032
10000.04033
10000.04033
10000.04034
10000.04036
10000.03929
10000.03929
10000.03929
10000.03929
10000.03929
10000.0393
10000.0393
10000.03931
10000.03934
10000.03828
10000.03828
10000.03828
10000.03828
10000.03828
10000.03828
10000.03829
10000.0383
10000.03833
10000.03727
10000.03727
10000.03727
10000.03727
10000.03728
10000.03728
10000.03729
10000.0373
10000.03733
10000.03628
10000.03628
10000.03628
10000.03628
10000.03629
10000.03629
10000.0363
10000.03631
10000.03634
10000.03531
10000.03531
10000.03531
10000.03531
10000.03531
10000.03532
10000.03533
10000.03534
10000.03537
10000.03435
10000.03435
10000.03435
10000.03435
10000.03435
10000.03436
10000.03437
10000.03438
10000.03441
10000.0334
10000.0334
10000.0334
10000.0334
10000.03341
10000.03341
10000.03342
10000.03344
10000.03347
10000.03247
10000.03247
10000.03247
10000.03247
10000.03248
10000.03248
10000.0325
10000.03251
10000.03254
10000.03156
10000.03156
10000.03156
10000.03156
10000.03157
10000.03157
10000.03158
10000.0316
10000.03163
10000.03066
10000.03066
10000.03066
10000.03067
10000.03067
10000.03068
10000.03069
10000.0307
10000.03074
10000.02978
10000.02979
10000.02979
10000.02979
10000.02979
10000.0298
10000.02981
10000.02983
10000.02986
10000.02892
10000.02892
10000.02892
10000.02893
10000.02893
10000.02894
10000.02895
10000.02897
10000.02901
10000.02808
10000.02808
10000.02808
10000.02808
10000.02809
10000.0281
10000.02811
10000.02812
10000.02816
10000.02725
10000.02725
10000.02726
10000.02726
10000.02726
10000.02727
10000.02729
10000.0273
10000.02734
10000.02644
10000.02645
10000.02645
10000.02645
10000.02646
10000.02647
10000.02648
10000.02649
10000.02653
10000.02565
10000.02566
10000.02566
10000.02566
10000.02567
10000.02568
10000.02569
10000.02571
10000.02575
10000.02488
10000.02489
10000.02489
10000.02489
10000.0249
10000.02491
10000.02492
10000.02494
10000.02498
10000.02413
10000.02413
10000.02413
10000.02414
10000.02415
10000.02415
10000.02417
10000.02418
10000.02423
10000.0234
10000.0234
10000.0234
10000.0234
10000.02341
10000.02342
10000.02344
10000.02345
10000.02349
10000.02268
10000.02268
10000.02268
10000.02269
10000.0227
10000.02271
10000.02272
10000.02274
10000.02278
10000.02198
10000.02198
10000.02199
10000.02199
10000.022
10000.02201
10000.02202
10000.02204
10000.02208
10000.0213
10000.0213
10000.02131
10000.02131
10000.02132
10000.02133
10000.02134
10000.02136
10000.0214
10000.02064
10000.02064
10000.02064
10000.02065
10000.02066
10000.02067
10000.02068
10000.0207
10000.02074
10000.01999
10000.01999
10000.02
10000.02
10000.02001
10000.02002
10000.02004
10000.02005
10000.02009
10000.01936
10000.01937
10000.01937
10000.01938
10000.01938
10000.01939
10000.01941
10000.01942
10000.01947
10000.01875
10000.01876
10000.01876
10000.01876
10000.01877
10000.01878
10000.0188
10000.01881
10000.01885
10000.01816
10000.01816
10000.01817
10000.01817
10000.01818
10000.01819
10000.01821
10000.01822
10000.01826
10000.01758
10000.01758
10000.01759
10000.01759
10000.0176
10000.01761
10000.01763
10000.01764
10000.01768
10000.01702
10000.01702
10000.01703
10000.01703
10000.01704
10000.01705
10000.01707
10000.01708
10000.01712
10000.01647
10000.01648
10000.01648
10000.01649
10000.01649
10000.01651
10000.01652
10000.01653
10000.01657
10000.01594
10000.01595
10000.01595
10000.01596
10000.01596
10000.01597
10000.01599
10000.016
10000.01604
10000.01543
10000.01543
10000.01543
10000.01544
10000.01545
10000.01546
10000.01547
10000.01549
10000.01552
10000.01493
10000.01493
10000.01493
10000.01494
10000.01495
10000.01496
10000.01497
10000.01499
10000.01502
10000.01444
10000.01444
10000.01445
10000.01445
10000.01446
10000.01447
10000.01449
10000.0145
10000.01453
10000.01397
10000.01397
10000.01397
10000.01398
10000.01399
10000.014
10000.01401
10000.01402
10000.01406
10000.01351
10000.01351
10000.01351
10000.01352
10000.01353
10000.01354
10000.01355
10000.01356
10000.0136
10000.01306
10000.01306
10000.01307
10000.01307
10000.01308
10000.01309
10000.0131
10000.01312
10000.01315
10000.01262
10000.01263
10000.01263
10000.01264
10000.01265
10000.01266
10000.01267
10000.01268
10000.01271
10000.0122
10000.01221
10000.01221
10000.01222
10000.01222
10000.01223
10000.01225
10000.01226
10000.01229
10000.01179
10000.01179
10000.0118
10000.01181
10000.01181
10000.01182
10000.01184
10000.01185
10000.01188
10000.01139
10000.0114
10000.0114
10000.01141
10000.01141
10000.01142
10000.01144
10000.01145
10000.01148
10000.011
10000.01101
10000.01101
10000.01102
10000.01103
10000.01103
10000.01105
10000.01106
10000.01109
10000.01063
10000.01063
10000.01063
10000.01064
10000.01065
10000.01066
10000.01067
10000.01068
10000.01071
10000.01026
10000.01026
10000.01027
10000.01027
10000.01028
10000.01029
10000.0103
10000.01031
10000.01034
10000.0099
10000.0099
10000.00991
10000.00991
10000.00992
10000.00993
10000.00994
10000.00995
10000.00998
10000.00955
10000.00956
10000.00956
10000.00957
10000.00957
10000.00958
10000.00959
10000.0096
10000.00963
10000.00921
10000.00922
10000.00922
10000.00923
10000.00923
10000.00924
10000.00925
10000.00926
10000.00929
10000.00888
10000.00888
10000.00889
10000.00889
10000.0089
10000.00891
10000.00892
10000.00893
10000.00895
10000.00856
10000.00856
10000.00857
10000.00857
10000.00858
10000.00859
10000.0086
10000.00861
10000.00863
10000.00825
10000.00825
10000.00825
10000.00826
10000.00826
10000.00827
10000.00828
10000.00829
10000.00831
10000.00794
10000.00794
10000.00795
10000.00795
10000.00796
10000.00797
10000.00798
10000.00798
10000.008
10000.00764
10000.00764
10000.00765
10000.00765
10000.00766
10000.00767
10000.00768
10000.00768
10000.0077
10000.00735
10000.00735
10000.00735
10000.00736
10000.00737
10000.00737
10000.00738
10000.00739
10000.00741
10000.00706
10000.00706
10000.00707
10000.00707
10000.00708
10000.00709
10000.0071
10000.0071
10000.00712
10000.00678
10000.00679
10000.00679
10000.00679
10000.0068
10000.00681
10000.00682
10000.00682
10000.00684
10000.00651
10000.00651
10000.00652
10000.00652
10000.00653
10000.00653
10000.00654
10000.00655
10000.00657
10000.00624
10000.00625
10000.00625
10000.00626
10000.00626
10000.00627
10000.00628
10000.00628
10000.0063
10000.00598
10000.00599
10000.00599
10000.00599
10000.006
10000.00601
10000.00602
10000.00602
10000.00604
10000.00573
10000.00573
10000.00573
10000.00574
10000.00574
10000.00575