/*--------------------------------*- C++ -*----------------------------------*\
| =========                 |                                                 |
| \\      /  F ield         | OpenFOAM: The Open Source CFD Toolbox           |
|  \\    /   O peration     | Version:  2212                                  |
|   \\  /    A nd           | Website:  www.openfoam.com                      |
|    \\/     M anipulation  |                                                 |
\*---------------------------------------------------------------------------*/
FoamFile
{
    version     2.0;
    format      ascii;
    arch        "LSB;label=32;scalar=64";
    class       volScalarField;
    location    "20.00000000";
    object      PC3H4_0;
}
// * * * * * * * * * * * * * * * * * * * * * * * * * * * * * * * * * * * * * //

dimensions      [0 0 0 0 0 0 0];

internalField   nonuniform List<scalar> 
3000
(
8.834549898e-29
1.095860134e-28
1.435467393e-28
1.922536084e-28
2.577848009e-28
3.408922662e-28
4.383606639e-28
5.385467437e-28
6.149468992e-28
3.723007363e-28
4.652208865e-28
6.137797172e-28
8.272761869e-28
1.116890599e-27
1.493780453e-27
1.965061924e-27
2.522384718e-27
3.069453373e-27
9.593552992e-28
1.213985154e-27
1.625408951e-27
2.228194495e-27
3.071904023e-27
4.221259612e-27
5.743153737e-27
7.645868186e-27
9.515394017e-27
2.096305498e-27
2.696085082e-27
3.68420128e-27
5.175885966e-27
7.346560636e-27
1.043455875e-26
1.46878294e-26
2.00880233e-26
2.518769653e-26
4.263017966e-27
5.592395022e-27
7.836008881e-27
1.133246955e-26
1.660307599e-26
2.434934399e-26
3.521702128e-26
4.884233431e-26
6.108503872e-26
8.396269929e-27
1.125634901e-26
1.620425855e-26
2.414375314e-26
3.646014634e-26
5.494841147e-26
8.101813052e-26
1.130407552e-25
1.40616674e-25
1.637184583e-26
2.244031647e-26
3.317846546e-26
5.083789064e-26
7.882512732e-26
1.213600204e-25
1.812302192e-25
2.53342302e-25
3.130646886e-25
3.195147096e-26
4.472791834e-26
6.777729218e-26
1.064340409e-25
1.686504747e-25
2.63892845e-25
3.975656772e-25
5.56792535e-25
6.885459172e-25
6.274197529e-26
8.952170305e-26
1.386008692e-25
2.221507545e-25
3.580223849e-25
5.666338976e-25
8.577994782e-25
1.200045807e-24
1.477419644e-24
1.241715432e-25
1.801285244e-25
2.839734478e-25
4.627457422e-25
7.555150814e-25
1.205485586e-24
1.830360471e-24
2.557881913e-24
3.141148932e-24
2.476457855e-25
3.643003913e-25
5.82924577e-25
9.62456487e-25
1.586972082e-24
2.546934191e-24
3.874455491e-24
5.409270153e-24
6.630576724e-24
4.972254463e-25
7.399498026e-25
1.198344464e-24
1.999129207e-24
3.321158623e-24
5.352708611e-24
8.152560721e-24
1.137252887e-23
1.392056224e-23
1.003814232e-24
1.508018243e-24
2.465945434e-24
4.147332093e-24
6.929591941e-24
1.120315252e-23
1.707677398e-23
2.380436281e-23
2.910571175e-23
2.035233653e-24
3.081074447e-24
5.077402942e-24
8.594144623e-24
1.442313946e-23
2.337222226e-23
3.564484025e-23
4.965731041e-23
6.066329233e-23
4.13996543e-24
6.30651904e-24
1.045746768e-23
1.779031683e-23
2.995938976e-23
4.863369124e-23
7.419770475e-23
1.033126644e-22
1.261218586e-22
8.442072632e-24
1.292526802e-23
2.154012754e-23
3.679210267e-23
6.212639151e-23
1.009873855e-22
1.541080907e-22
2.144843804e-22
2.616847832e-22
1.724646708e-23
2.651443131e-23
4.436584585e-23
7.602524395e-23
1.28649405e-22
2.093400362e-22
3.195045555e-22
4.445046198e-22
5.420546209e-22
3.528118756e-23
5.442438783e-23
9.136725899e-23
1.569753461e-22
2.660851947e-22
4.333263738e-22
6.614151641e-22
9.19846172e-22
1.121221252e-21
7.224700084e-23
1.117584761e-22
1.881257865e-22
3.238966376e-22
5.497746843e-22
8.958693556e-22
1.367438451e-21
1.901054878e-21
2.316300505e-21
1.480489248e-22
2.295462561e-22
3.872586509e-22
6.678887462e-22
1.134877249e-21
1.850129595e-21
2.823827095e-21
3.924330142e-21
4.779634221e-21
3.035265817e-22
4.715211202e-22
7.969433539e-22
1.376366756e-21
2.340679606e-21
3.817009586e-21
5.825019261e-21
8.091900324e-21
9.85153014e-21
6.224482728e-22
9.685343335e-22
1.639458229e-21
2.834609223e-21
4.823625228e-21
7.867193168e-21
1.200305977e-20
1.666654941e-20
2.028187889e-20
1.27655655e-21
1.98908912e-21
3.371225265e-21
5.834013191e-21
9.932039168e-21
1.619885032e-20
2.470607772e-20
3.42863088e-20
4.170303427e-20
2.617675758e-21
4.083632781e-21
6.928425612e-21
1.199812134e-20
2.043144309e-20
3.331814047e-20
5.079142333e-20
7.044004361e-20
8.562772623e-20
5.365803956e-21
8.379376663e-21
1.422896274e-20
2.465307995e-20
4.19853026e-20
6.844566974e-20
1.042749197e-19
1.444968132e-19
1.755307282e-19
1.099251028e-20
1.718156319e-20
2.919632801e-20
5.060236362e-20
8.617068857e-20
1.404088306e-19
2.137331379e-19
2.958851451e-19
3.591368859e-19
2.250040763e-20
3.519627656e-20
5.984155777e-20
1.037329174e-19
1.765981202e-19
2.875525475e-19
4.372626382e-19
6.046077117e-19
7.331316261e-19
4.600354917e-20
7.20104138e-20
1.224845597e-19
2.123199268e-19
3.612867212e-19
5.877300374e-19
8.925656175e-19
1.232373227e-18
1.492585764e-18
9.392104759e-20
1.471038089e-19
2.502815256e-19
4.337645788e-19
7.375798299e-19
1.198435529e-18
1.817134997e-18
2.504581002e-18
3.029195544e-18
1.914064473e-19
2.999391849e-19
5.103787185e-19
8.841924423e-19
1.502055897e-18
2.436922094e-18
3.68791686e-18
5.072649552e-18
6.125183151e-18
3.892364627e-19
6.101837099e-19
1.038254342e-18
1.797588914e-18
3.049941622e-18
4.939140731e-18
7.457588655e-18
1.023303906e-17
1.233303496e-17
7.895275796e-19
1.238034301e-18
2.106103308e-18
3.643259503e-18
6.171858589e-18
9.972833302e-18
1.501753756e-17
2.05491061e-17
2.471288045e-17
1.596785589e-18
2.504194271e-18
4.258207311e-18
7.357637412e-18
1.244045268e-17
2.004953428e-17
3.009748387e-17
4.105254183e-17
4.925128337e-17
3.218685821e-18
5.047550744e-18
8.577179019e-18
1.479853513e-17
2.496431485e-17
4.011083383e-17
5.999786907e-17
8.154270574e-17
9.756479024e-17
6.463867712e-18
1.013407087e-17
1.720397709e-17
2.962854224e-17
4.98459369e-17
7.980716643e-17
1.18894144e-16
1.609435976e-16
1.919998025e-16
1.292775172e-17
2.025787827e-17
3.434607976e-17
5.901910714e-17
9.897635357e-17
1.578339972e-16
2.340766127e-16
3.154753723e-16
3.751534674e-16
2.574031715e-17
4.030265468e-17
6.821689821e-17
1.169097558e-16
1.953426005e-16
3.101019477e-16
4.576133328e-16
6.138204037e-16
7.274625589e-16
5.100592399e-17
7.97693483e-17
1.347364672e-16
2.301865017e-16
3.830112898e-16
6.04975849e-16
8.879232581e-16
1.184976731e-15
1.399358965e-15
1.005571174e-16
1.570172062e-16
2.645341622e-16
4.502875494e-16
7.457253098e-16
1.17140971e-15
1.709266988e-15
2.268883382e-15
2.669453603e-15
1.971859235e-16
3.072761753e-16
5.160873119e-16
8.748022373e-16
1.441204254e-15
2.250363444e-15
3.263297606e-15
4.307504822e-15
5.04877047e-15
3.845138653e-16
5.976678393e-16
1.00016077e-15
1.687294438e-15
2.763790444e-15
4.287827757e-15
6.177408584e-15
8.107109961e-15
9.465693469e-15
7.454868756e-16
1.155147759e-15
1.924877591e-15
3.230048876e-15
5.257763079e-15
8.101490893e-15
1.159275808e-14
1.51246997e-14
1.759114305e-14
1.436795563e-15
2.218083881e-15
3.678128573e-15
6.135749091e-15
9.920378878e-15
1.517655002e-14
2.156568148e-14
2.796910378e-14
3.240540761e-14
2.75249754e-15
4.230735971e-15
6.976988899e-15
1.156371189e-14
1.856240016e-14
2.818605572e-14
3.976824559e-14
5.127038128e-14
5.917828635e-14
5.240817771e-15
8.015010308e-15
1.313639928e-14
2.162006206e-14
3.444273921e-14
5.189850935e-14
7.270099746e-14
9.317658331e-14
1.071512533e-13
9.917119814e-15
1.508036497e-14
2.454844671e-14
4.009891209e-14
6.337649303e-14
9.474840239e-14
1.317765876e-13
1.679121235e-13
1.924044719e-13
1.864959451e-14
2.817888257e-14
4.553069736e-14
7.377950226e-14
1.156545487e-13
1.71533866e-13
2.368746304e-13
3.001217419e-13
3.427119775e-13
3.485297632e-14
5.229228498e-14
8.381651864e-14
1.346793247e-13
2.093450463e-13
3.080184026e-13
4.223673562e-13
5.322011716e-13
6.057153264e-13
6.472772945e-14
9.637452942e-14
1.531542768e-13
2.439398567e-13
3.759326103e-13
5.487301286e-13
7.472719187e-13
9.365980908e-13
1.062609352e-12
1.194582816e-13
1.764067876e-13
2.778086632e-13
4.384821404e-13
6.698882661e-13
9.701001964e-13
1.312259213e-12
1.636344947e-12
1.850943114e-12
2.190852473e-13
3.207159049e-13
5.003028107e-13
7.823314344e-13
1.184808553e-12
1.702467025e-12
2.287997366e-12
2.839163927e-12
3.202431149e-12
3.992780729e-13
5.791693679e-13
8.946453175e-13
1.385762766e-12
2.08046753e-12
2.966720081e-12
3.962136617e-12
4.893845495e-12
5.505380511e-12
7.23095807e-13
1.038963351e-12
1.588780704e-12
2.437465539e-12
3.627882394e-12
5.134966905e-12
6.816780938e-12
8.382987351e-12
9.407324163e-12
1.301259814e-12
1.8515426e-12
2.802456142e-12
4.258263049e-12
6.283912939e-12
8.830225687e-12
1.165534478e-11
1.427483307e-11
1.598302916e-11
2.326841279e-12
3.278155981e-12
4.910241617e-12
7.389261493e-12
1.081305625e-11
1.508933392e-11
1.980973092e-11
2.417054254e-11
2.700792174e-11
4.133197396e-12
5.764960344e-12
8.545200752e-12
1.273707278e-11
1.848693229e-11
2.562720389e-11
3.347450906e-11
4.070287901e-11
4.539914517e-11
7.291106107e-12
1.006835701e-11
1.476963283e-11
2.180928455e-11
3.140502432e-11
4.326047772e-11
5.624189415e-11
6.817336598e-11
7.591953549e-11
1.276941338e-11
1.745980939e-11
2.535138404e-11
3.709304975e-11
5.30072277e-11
7.258103892e-11
9.394882056e-11
1.135578364e-10
1.262853027e-10
2.219750442e-11
3.005766897e-11
4.320743093e-11
6.265779813e-11
8.888436412e-11
1.210153165e-10
1.560027743e-10
1.880720058e-10
2.088819802e-10
3.828968096e-11
5.135918095e-11
7.310873994e-11
1.051052758e-10
1.480472147e-10
2.004730722e-10
2.574328257e-10
3.095767547e-10
3.433860219e-10
6.552390298e-11
8.70845922e-11
1.227890504e-10
1.75052436e-10
2.448936774e-10
3.298862369e-10
4.22024806e-10
5.062283963e-10
5.607287805e-10
1.112157545e-10
1.465026059e-10
2.046715873e-10
2.894226356e-10
4.02225572e-10
5.390720114e-10
6.870523157e-10
8.219541565e-10
9.090375916e-10
1.871995376e-10
2.444899264e-10
3.385298587e-10
4.749468423e-10
6.558188479e-10
8.745302344e-10
1.110315665e-09
1.32456775e-09
1.46244364e-09
3.124315418e-10
4.046967584e-10
5.555412261e-10
7.73446729e-10
1.061247706e-09
1.408006897e-09
1.78046101e-09
2.117642471e-09
2.333956903e-09
5.169759198e-10
6.643546436e-10
9.0438206e-10
1.249688009e-09
1.703902928e-09
2.248929241e-09
2.831884483e-09
3.357625409e-09
3.693982448e-09
8.480311308e-10
1.081478992e-09
1.460250312e-09
2.002846939e-09
2.71342167e-09
3.562151525e-09
4.465921462e-09
5.278084637e-09
5.796481434e-09
1.378904537e-09
1.745478502e-09
2.337968074e-09
3.182906788e-09
4.284058819e-09
5.592840811e-09
6.980432782e-09
8.223399634e-09
9.01522012e-09
2.222121117e-09
2.792455606e-09
3.710579599e-09
5.013580434e-09
6.702882894e-09
8.700728947e-09
1.081026494e-08
1.269457844e-08
1.389292358e-08
3.548104474e-09
4.426716183e-09
5.835095417e-09
7.823650685e-09
1.03880418e-08
1.340626018e-08
1.658131505e-08
1.94101158e-08
2.120634869e-08
5.611040807e-09
6.950184456e-09
9.087266142e-09
1.208893201e-08
1.593959784e-08
2.045127648e-08
2.518097573e-08
2.938476129e-08
3.205017564e-08
8.783664941e-09
1.08016093e-08
1.400753879e-08
1.848727544e-08
2.420542311e-08
3.087672283e-08
3.784742763e-08
4.402858824e-08
4.794202995e-08
1.360293072e-08
1.660771688e-08
2.136054146e-08
2.796894482e-08
3.636428817e-08
4.611930583e-08
5.627943867e-08
6.526769728e-08
7.094972576e-08
2.082883048e-08
2.524862222e-08
3.221026564e-08
4.184415641e-08
5.402750749e-08
6.812795388e-08
8.276686248e-08
9.568610954e-08
1.038398433e-07
3.151860747e-08
3.793946499e-08
4.801239478e-08
6.188859753e-08
7.935922133e-08
9.949920968e-08
1.203398844e-07
1.386858595e-07
1.502439712e-07
4.711788351e-08
5.632926015e-08
7.072404016e-08
9.046628917e-08
1.152134989e-07
1.436282503e-07
1.72932144e-07
1.986590064e-07
2.14835426e-07
6.956893161e-08
8.261654763e-08
1.029295388e-07
1.306671595e-07
1.652839294e-07
2.048692727e-07
2.455494177e-07
2.811614668e-07
3.035052488e-07
1.014347092e-07
1.196796597e-07
1.479788889e-07
1.86454184e-07
2.342583882e-07
2.886955116e-07
3.444317668e-07
3.930745746e-07
4.235221865e-07
1.460353025e-07
1.712172347e-07
2.101328842e-07
2.628119529e-07
3.279684526e-07
4.018457255e-07
4.771934694e-07
5.42736677e-07
5.836578098e-07
2.075910763e-07
2.418920442e-07
2.94706061e-07
3.658857338e-07
4.535198726e-07
5.524409716e-07
6.52922257e-07
7.400245628e-07
7.942556435e-07
2.913641056e-07
3.37468316e-07
4.081961329e-07
5.030972973e-07
6.193881205e-07
7.500535727e-07
8.822180789e-07
9.963638801e-07
1.067223004e-06
4.037868372e-07
4.649306175e-07
5.583860801e-07
6.83222035e-07
8.354619337e-07
1.005710002e-06
1.17715253e-06
1.324649638e-06
1.415926842e-06
5.525650516e-07
6.325701663e-07
7.54403872e-07
9.164114338e-07
1.11301847e-06
1.331811546e-06
1.55113373e-06
1.739062882e-06
1.854980741e-06
7.467405126e-07
8.500238258e-07
1.006724915e-06
1.214146353e-06
1.464616663e-06
1.74196137e-06
2.018668014e-06
2.254777743e-06
2.399919197e-06
9.966988989e-07
1.128251793e-06
1.327104264e-06
1.589110058e-06
1.903900737e-06
2.250693974e-06
2.59501902e-06
2.887563716e-06
3.066766862e-06
1.314110238e-06
1.479442566e-06
1.728429556e-06
2.054975582e-06
2.445313322e-06
2.873112357e-06
3.295775704e-06
3.653300153e-06
3.871523064e-06
1.711792598e-06
1.916838265e-06
2.224491477e-06
2.626109376e-06
3.103726601e-06
3.624448577e-06
4.136352099e-06
4.567431739e-06
4.829593916e-06
2.203495103e-06
2.454479543e-06
2.829675753e-06
3.317201548e-06
3.894009153e-06
4.519573126e-06
5.131451499e-06
5.64440325e-06
5.955213476e-06
2.803603108e-06
3.106876584e-06
3.558588603e-06
4.142841288e-06
4.830554458e-06
5.572486284e-06
6.294534344e-06
6.897117298e-06
7.260899929e-06
3.526775821e-06
3.888620318e-06
4.425635005e-06
5.117063005e-06
5.9268028e-06
6.795828671e-06
7.637331094e-06
8.336458692e-06
8.756991332e-06
4.387534003e-06
4.813954787e-06
5.444575164e-06
6.252893202e-06
7.194790702e-06
8.200447873e-06
9.169438098e-06
9.97092324e-06
1.045129806e-05
5.399821439e-06
5.896336774e-06
6.628088039e-06
7.561929336e-06
8.64476024e-06
9.795052981e-06
1.089802622e-05
1.180637788e-05
1.234889667e-05
6.576567851e-06
7.148011322e-06
7.987371226e-06
9.053979486e-06
1.028485501e-05
1.158597995e-05
1.282768001e-05
1.384596492e-05
1.445207446e-05
7.929281978e-06
8.579631242e-06
9.531803612e-06
1.073678601e-05
1.212092078e-05
1.357707914e-05
1.496037159e-05
1.609014783e-05
1.67604182e-05
9.467701563e-06
1.019994511e-05
1.126869146e-05
1.261584816e-05
1.415641853e-05
1.576972438e-05
1.729555997e-05
1.85368826e-05
1.927102678e-05
1.1199522e-05
1.2015572e-05
1.320311073e-05
1.469434932e-05
1.639244686e-05
1.816293146e-05
1.983039568e-05
2.118188792e-05
2.197881762e-05
1.31302182e-05
1.403087326e-05
1.533784976e-05
1.697318505e-05
1.882786172e-05
2.07535659e-05
2.256000354e-05
2.401898208e-05
2.487689204e-05
1.526296579e-05
1.624792289e-05
1.767344756e-05
1.945108037e-05
2.14594744e-05
2.353661444e-05
2.547781294e-05
2.704045309e-05
2.795692487e-05
1.759865922e-05
1.866657023e-05
2.020831624e-05
2.212477867e-05
2.428230495e-05
2.650549342e-05
2.857590645e-05
3.023743155e-05
3.120954768e-05
2.013601664e-05
2.128458158e-05
2.29389303e-05
2.498928145e-05
2.728986748e-05
2.965236872e-05
3.184536137e-05
3.360024175e-05
3.462470182e-05
2.287175595e-05
2.409784338e-05
2.586006324e-05
2.803811768e-05
3.047446536e-05
3.296846635e-05
3.527656476e-05
3.711871359e-05
3.819194556e-05
2.580082277e-05
2.710060682e-05
2.89650511e-05
3.126362283e-05
3.382747803e-05
3.644435761e-05
3.885948905e-05
4.078244548e-05
4.190070721e-05
2.891665014e-05
3.028575444e-05
3.22460645e-05
3.465721112e-05
3.73396258e-05
4.007020879e-05
4.258392205e-05
4.458101475e-05
4.574048266e-05
3.221143104e-05
3.36450708e-05
3.569437351e-05
3.82096283e-05
4.10012036e-05
4.38359906e-05
4.643964998e-05
4.850413758e-05
4.970098108e-05
3.567638719e-05
3.716950295e-05
3.930059367e-05
4.191117681e-05
4.480227956e-05
4.773164661e-05
5.041659642e-05
5.25417837e-05
5.377222529e-05
3.930202184e-05
4.084939996e-05
4.305490549e-05
4.575190896e-05
4.873285741e-05
5.174722353e-05
5.450492267e-05
5.668425315e-05
5.794461516e-05
4.307834765e-05
4.4674725e-05
4.694724351e-05
4.972178734e-05
5.278300514e-05
5.587296801e-05
5.869509621e-05
6.092222326e-05
6.220896274e-05
4.699508531e-05
4.863523702e-05
5.096745405e-05
5.381081397e-05
5.694295345e-05
6.009939556e-05
6.297793431e-05
6.524677356e-05
6.65565072e-05
5.104183106e-05
5.272064176e-05
5.510542331e-05
5.80091316e-05
6.120316919e-05
6.441733793e-05
6.734462956e-05
6.964939602e-05
7.097891708e-05
5.520819448e-05
5.692071409e-05
5.935117876e-05
6.230710103e-05
6.555440842e-05
6.881797414e-05
7.178676345e-05
7.412199684e-05
7.546828674e-05
5.948390883e-05
6.122539471e-05
6.369496747e-05
6.669535878e-05
6.998775351e-05
7.329284964e-05
7.629631219e-05
7.865689565e-05
8.001713648e-05
6.385891746e-05
6.562486468e-05
6.812731468e-05
7.116485779e-05
7.44946359e-05
7.783388273e-05
8.086564057e-05
8.324681625e-05
8.461843277e-05
6.832343996e-05
7.010960145e-05
7.263906629e-05
7.570689428e-05
7.906684617e-05
8.243335511e-05
8.548746147e-05
8.788477227e-05
8.926525344e-05
7.286802172e-05
7.467042028e-05
7.722141948e-05
8.031312698e-05
8.369654424e-05
8.708392239e-05
9.015487785e-05
9.256424351e-05
9.395126423e-05
7.74835706e-05
7.929850421e-05
8.186594412e-05
8.497558885e-05
8.837625971e-05
9.177859427e-05
9.48613012e-05
9.727886932e-05
9.867036536e-05
8.21613833e-05
8.398542564e-05
8.656459819e-05
8.968669722e-05
9.309890224e-05
9.651076665e-05
9.960058742e-05
0.0001020228084
0.0001034168454
8.689316411e-05
8.872316113e-05
9.130973735e-05
9.443925569e-05
9.785774616e-05
0.0001012741481
0.0001043667492
0.000106790466
0.0001081852907
9.167103751e-05
9.350410182e-05
9.609412382e-05
9.922646674e-05
0.0001026464675
0.0001060628942
0.0001091543086
0.0001115766045
0.0001129706101
9.64875551e-05
9.832105753e-05
0.0001009109256
0.0001040419206
0.0001074590993
0.0001108713208
0.0001139580344
0.0001163762784
0.0001177680082
0.0001013356977
0.0001031672568
0.0001057537137
0.0001088795871
0.0001122898934
0.0001156941946
0.0001187730268
0.0001211848447
0.0001225729818
0.0001062088737
0.0001080363432
0.0001106164546
0.0001137336746
0.0001171335691
0.0001205266084
0.000123594699
0.0001259979553
0.0001273813131
0.0001111009129
0.0001129223664
0.0001154933669
0.0001185988724
0.0001219851866
0.0001253639747
0.0001284187648
0.0001308115476
0.0001321890613
0.0001160060518
0.0001178196348
0.0001203791624
0.0001234702263
0.0001268401399
0.0001302020173
0.0001332412296
0.0001356218353
0.0001369925534
0.0001209187489
0.000122722952
0.0001252689201
0.0001283431295
0.0001316941472
0.0001350367609
0.0001380583801
0.0001404252987
0.0001417883754
0.000125834029
0.0001276275105
0.0001301580811
0.0001332133129
0.0001365432403
0.0001398645216
0.0001428667745
0.0001452186753
0.0001465733626
0.0001307472905
0.0001325288713
0.0001350424352
0.0001380768332
0.0001413837535
0.0001446818954
0.0001476632323
0.0001499989499
0.0001513445901
0.000135654295
0.0001374229484
0.000139918107
0.0001429300605
0.0001462123113
0.0001494857475
0.000152444824
0.0001547633447
0.0001560993633
0.0001405511524
0.0001423059928
0.0001447815411
0.0001477696637
0.0001510258161
0.0001542732002
0.0001572088596
0.0001595093092
0.0001608352081
0.000145434306
0.0001471745766
0.0001496294866
0.0001525925972
0.0001558214348
0.0001590416213
0.0001619528785
0.0001642345098
0.0001655498608
0.000150300515
0.000152025577
0.0001544589817
0.0001573960859
0.0001605965859
0.0001637886119
0.0001666746375
0.0001689368192
0.0001702412581
0.0001551468386
0.0001568561599
0.0001592673387
0.0001621776114
0.0001653489264
0.0001685119943
0.0001713721004
0.0001736143066
0.0001749075272
0.0001599706183
0.0001616637637
0.0001640521281
0.000166934897
0.0001700763378
0.0001732097996
0.0001760434264
0.0001782652265
0.0001795469756
0.0001647694613
0.0001664460827
0.0001688111632
0.0001716658937
0.000174776914
0.0001778802564
0.0001806869593
0.0001828880089
0.0001841580813
0.0001695412239
0.0001712010514
0.0001735424854
0.0001763687665
0.0001794489477
0.0001825217784
0.0001853012166
0.000187481249
0.0001887394831
0.0001742839951
0.0001759268285
0.0001782443491
0.0001810418801
0.0001840909183
0.0001871329532
0.000189884879
0.0001920436975
0.0001932899705
0.0001789960804
0.0001806217823
0.0001829152073
0.0001856837861
0.0001887014795
0.0001917125311
0.00019443678
0.0001965742505
0.0001978084749
0.0001836759871
0.000185284475
0.0001875536982
0.0001902932099
0.0001932794473
0.0001962594143
0.0001989558959
0.0002010719403
0.0002022940604
0.0001883224092
0.0001899136497
0.0001921586313
0.0001948690386
0.0001978237892
0.0002007726464
0.0002034413363
0.0002055359264
0.0002067459147
0.0001929342135
0.000194508216
0.0001967289753
0.0001994103089
0.0002023336127
0.0002052514023
0.0002078923343
0.0002099654862
0.0002111633406
0.0001975104257
0.0001990672378
0.0002012638456
0.000203916196
0.0002068081552
0.0002096949787
0.0002123082383
0.0002143600074
0.0002155457481
0.0002020502187
0.0002035899205
0.0002057624927
0.0002083860027
0.0002112467741
0.0002141027848
0.0002166885026
0.0002187189791
0.0002198926464
0.0002065528996
0.0002080756
0.0002102242917
0.0002128191495
0.0002156489371
0.0002184743338
0.0002210326801
0.0002230419846
0.0002242036364
0.000211017899
0.0002125237317
0.0002146487317
0.0002172151648
0.0002200142137
0.0002228092345
0.000225340414
0.0002273286938
0.0002284784036
0.0002154447603
0.0002169338801
0.0002190354062
0.0002215736759
0.0002243422665
0.0002271071835
0.0002296114308
0.0002315788564
0.0002327167112
0.0002198331298
0.0002213057094
0.0002233840043
0.0002258944005
0.0002286328435
0.0002313679578
0.0002338455334
0.0002357922953
0.0002369183941
0.0002241827472
0.0002256389748
0.0002276943019
0.000230177139
0.0002328857706
0.0002355914079
0.0002380425941
0.0002399689003
0.0002410833523
0.0002284934372
0.0002299335135
0.0002319661539
0.0002344217666
0.0002371009445
0.0002397774516
0.0002422025493
0.0002441086223
0.0002452115456
0.0002327651016
0.0002341892379
0.0002361994869
0.0002386282268
0.0002412783264
0.0002439260673
0.0002463253931
0.000248211468
0.0002493029883
0.0002369977115
0.0002384061277
0.0002403942923
0.0002427965246
0.0002454179359
0.0002480372889
0.0002504111722
0.0002522774945
0.0002533577439
0.0002411913008
0.0002425842232
0.0002445506198
0.0002469267207
0.0002495198453
0.0002521112001
0.0002544599807
0.0002563068046
0.0002573759205
0.0002453459593
0.0002467236198
0.0002486685719
0.000251018926
0.0002535841745
0.0002561479297
0.0002584719559
0.0002602995423
0.0002613576666
0.0002494618274
0.0002508244615
0.000252748298
0.0002550732962
0.0002576110858
0.0002601476469
0.0002624472734
0.0002642558887
0.0002653031668
0.0002535390905
0.0002548869364
0.0002567899896
0.0002590900271
0.0002616007799
0.0002641105573
0.0002663861432
0.0002681760581
0.0002692126382
0.0002575779737
0.0002589112713
0.0002607938758
0.0002630693503
0.0002655534914
0.0002680368984
0.0002702888064
0.0002720602944
0.0002730863268
0.0002615787377
0.0002628977273
0.0002647602188
0.0002670115294
0.000269469485
0.0002719269368
0.0002741555312
0.0002759088676
0.0002769245043
0.0002655416743
0.0002668465962
0.00026868931
0.0002709168554
0.0002733490521
0.0002757809639
0.0002779866098
0.0002797220713
0.000280727465
0.0002694671026
0.0002707581962
0.0002725814666
0.0002747856445
0.0002771925073
0.0002795992938
0.0002817823557
0.0002835002189
0.000284495523
0.0002733553656
0.000274632869
0.0002764370282
0.0002786182339
0.0002810001858
0.0002833822596
0.0002855431011
0.0002872436421
0.00028822901
0.0002772068269
0.000278470976
0.0002802563537
0.0002824149795
0.0002847724405
0.0002871302114
0.0002892691937
0.0002909526876
0.0002919282722
0.0002810218677
0.0002822728963
0.0002840398187
0.000286176253
0.0002885096391
0.0002908435136
0.0002929609953
0.0002946277152
0.0002955936692
0.0002848008845
0.0002860390234
0.000287787813
0.0002899024399
0.0002922121625
0.0002945225426
0.0002966188791
0.0002982690961
0.0002992255708
0.0002885442861
0.000289769763
0.0002915007382
0.0002935939367
0.0002958804021
0.0002981676854
0.0003002432279
0.0003018772105
0.0003028243562
0.0002922524919
0.0002934655314
0.0002951790056
0.0002972511494
0.0002995147584
0.0003017793371
0.0003038344326
0.0003054524462
0.0003063904117
0.0002959259297
0.0002971267525
0.0002988230345
0.0003008744915
0.0003031156387
0.0003053578992
0.0003073928901
0.0003089951967
0.0003099241292
0.0002995650337
0.0003007538569
0.0003024332501
0.0003044643821
0.0003066834559
0.0003089037787
0.0003109190021
0.0003125058602
0.000313425905
0.0003031702432
0.0003043472799
0.0003060100823
0.0003080212446
0.0003102186266
0.0003124173858
0.0003144131733
0.0003159848375
0.0003168961378
0.0003067420005
0.0003079074597
0.0003095539636
0.0003115455051
0.0003137215698
0.0003158991327
0.0003178758104
0.0003194325307
0.0003203352276
0.0003102807497
0.0003114348363
0.0003130653283
0.0003150375907
0.0003171927052
0.0003193494321
0.0003213073198
0.0003228493421
0.0003237435743
0.0003137869356
0.00031492985
0.0003165446103
0.0003184979281
0.0003206324521
0.0003227686957
0.0003247081067
0.0003262356718
0.0003271215752
0.0003172610017
0.0003183929397
0.0003199922424
0.0003219269427
0.0003240412274
0.0003261573326
0.0003280785732
0.0003295919166
0.0003304696242
0.0003207033892
0.000321824542
0.0003234086543
0.000325325056
0.0003274194441
0.0003295157472
0.0003314191158
0.0003329184671
0.0003337881086
0.0003241145348
0.0003252250885
0.0003267942707
0.0003286926841
0.0003307675088
0.0003328443366
0.0003347301234
0.0003362157053
0.0003370774066
0.0003274948693
0.0003285950045
0.000330149509
0.000332030235
0.0003340858191
0.0003361434878
0.0003380119729
0.0003394840006
0.0003403378829
0.0003308448149
0.0003319347061
0.0003334747768
0.0003353381056
0.0003373747601
0.0003394135736
0.0003412650259
0.0003427237052
0.0003435698844
0.0003341647822
0.0003352445972
0.0003367704681
0.0003386166779
0.0003406346999
0.0003426549477
0.0003444896223
0.0003459351476
0.0003467737329
0.0003374551671
0.0003385250659
0.0003400369594
0.0003418663137
0.0003438659836
0.0003458679378
0.000347686073
0.000349118625
0.0003499497169
0.0003407163453
0.0003417764783
0.0003432746034
0.0003450873482
0.0003470689263
0.0003490528372
0.0003508546503
0.0003522743919
0.0003530980805
0.0003439486669
0.0003449991731
0.0003464837215
0.0003482800814
0.0003502438028
0.0003522098938
0.0003539955756
0.0003554026474
0.0003562190089
0.0003471524478
0.0003481934521
0.0003496645947
0.0003514447675
0.0003533908356
0.0003553392956
0.0003571090034
0.0003585035177
0.0003593126106
0.0003503279602
0.0003513595698
0.0003528174514
0.0003545816007
0.0003565101792
0.0003584411541
0.0003601950022
0.0003615770349
0.0003623788956
0.0003534754198
0.0003544977196
0.000355942452
0.0003576906991
0.000359601901
0.0003615154817
0.0003632535306
0.0003646231114
0.0003654177476
0.00035659497
0.0003576080173
0.0003590396707
0.0003607720829
0.0003626659582
0.0003645621664
0.0003662844082
0.0003676415089
0.0003684288928
0.0003596866633
0.0003606904801
0.0003621090729
0.0003638256505
0.0003657021692
0.0003675809404
0.000369287282
0.0003706318022
0.000371411861
0.0003627504376
0.0003637450027
0.0003651504885
0.0003668511481
0.0003687101819
0.0003705713443
0.0003722615874
0.0003735933372
0.0003743659435
0.0003657860896
0.000366771328
0.0003681635807
0.0003698481361
0.0003716894355
0.0003735326862
0.0003752065037
0.0003765251846
0.0003772901443
0.0003687932428
0.0003697690138
0.0003711478101
0.0003728159498
0.0003746391185
0.0003764639961
0.0003781209058
0.0003794260888
0.0003801831279
0.000371771312
0.0003727373957
0.000374102395
0.0003757536573
0.0003775581228
0.0003793639767
0.0003810033124
0.000382294414
0.0003830431641
0.000374719463
0.000375675545
0.0003770262675
0.0003786600122
0.0003804449946
0.000382230952
0.000383851832
0.0003851280889
0.0003858680726
0.0003776365695
0.0003785822244
0.0003799180269
0.0003815334059
0.0003832978841
0.0003850628153
0.0003866641104
0.0003879245534
0.0003886551692
0.0003805211672
0.0003814558412
0.0003827758923
0.0003843718186
0.0003861144959
0.0003878569795
0.0003894372809
0.0003906807103
0.0003914012176
0.0003833714077
0.0003842944006
0.0003855976553
0.0003871727725
0.0003888920433
0.000390610333
0.0003921679225
0.0003933928845
0.0003941023912
0.0003861850122
0.0003870954607
0.0003883806365
0.00038993329
0.0003916272089
0.0003933192039
0.0003948520288
0.0003960567973
0.0003967542494
0.0003889592304
0.0003898560921
0.0003911216475
0.0003926498599
0.000394316117
0.0003959793391
0.0003974849934
0.0003986675575
0.0003993517336
0.0003916908052
0.0003925728461
0.000393816964
0.0003953184165
0.00039695432
0.0003985859
0.0004000616163
0.0004012196769
0.0004018891879
0.0003943759475
0.0003952417337
0.000396462311
0.0003979343347
0.0003995368049
0.0004011334821
0.0004025761363
0.000403707114
0.0004043604094
0.0003970103252
0.0003978582204
0.0003990528673
0.0004004924456
0.0004020580239
0.0004036161614
0.0004050222931
0.0004061233498
0.0004067587338
0.0003995890704
0.0004004172409
0.0004015832909
0.0004029870771
0.0004045119523
0.0004060275717
0.0004073934238
0.0004084615003
0.0004090771562
0.0004021068075
0.0004029132367
0.0004040477705
0.0004054121229
0.0004068921775
0.0004083610152
0.0004096825944
0.0004107144651
0.000411308491
0.0004045577074
0.0004053402203
0.0004064401047
0.0004077611409
0.0004091920205
0.000410609607
0.0004118827666
0.0004128751121
0.0004134455664
0.000406935569
0.0004076918681
0.0004087538121
0.0004100274841
0.000411404689
0.0004127664531
0.0004139869968
0.0004149364941
0.0004154814515
0.0004092339301
0.0004099616437
0.000410982271
0.0004122044606
0.0004135234611
0.0004148248549
0.0004159886619
0.0004168920889
0.0004174097043
0.0004114462075
0.0004121429493
0.0004131188867
0.0004142855212
0.0004155418919
0.0004167785367
0.0004178817012
0.0004187360535
0.0004192246319
0.0004135658643
0.0004142293032
0.0004151572844
0.0004162644668
0.0004174540382
0.0004186218827
0.0004196608646
0.0004204634773
0.0004209215454
0.0004155866002
0.0004162145387
0.0004170915173
0.0004181356687
0.0004192546877
0.0004203501733
0.0004213219504
0.0004220706175
0.0004224969913
0.000417502558
0.0004180930152