/*--------------------------------*- C++ -*----------------------------------*\
| =========                 |                                                 |
| \\      /  F ield         | OpenFOAM: The Open Source CFD Toolbox           |
|  \\    /   O peration     | Version:  2212                                  |
|   \\  /    A nd           | Website:  www.openfoam.com                      |
|    \\/     M anipulation  |                                                 |
\*---------------------------------------------------------------------------*/
FoamFile
{
    version     2.0;
    format      ascii;
    arch        "LSB;label=32;scalar=64";
    class       surfaceScalarField;
    location    "20.00000000";
    object      phi;
}
// * * * * * * * * * * * * * * * * * * * * * * * * * * * * * * * * * * * * * //

dimensions      [1 0 -1 0 0 0 0];

oriented        oriented;

internalField   nonuniform List<scalar> 
5690
(
-6.446182679e-11
1.439926759e-09
1.549073879e-11
-1.621242796e-10
2.382039399e-09
-3.344594004e-10
3.323142947e-09
-6.241993469e-10
4.280618357e-09
-1.084102114e-09
5.265105903e-09
-1.732056099e-09
6.242339773e-09
-2.449096068e-09
7.076056351e-09
-2.575314668e-09
7.225889471e-09
5.241599401e-09
-1.394715957e-10
1.54552824e-09
3.387018279e-11
-3.304940728e-10
2.573062151e-09
-6.245962198e-10
3.617244878e-09
-1.032614557e-09
4.688636849e-09
-1.526199553e-09
5.758690783e-09
-1.984861789e-09
6.701001886e-09
-2.146040893e-09
7.237235054e-09
-1.52803402e-09
6.607883744e-09
3.713565073e-09
-2.003861953e-10
1.696128417e-09
4.978621118e-11
-4.544901116e-10
2.827166062e-09
-8.101159721e-10
3.972870557e-09
-1.235291585e-09
5.113813065e-09
-1.645078391e-09
6.168477385e-09
-1.884176904e-09
6.94010071e-09
-1.716795666e-09
7.069853058e-09
-9.762234034e-10
5.867311846e-09
2.737341909e-09
-2.086013685e-10
1.851963728e-09
5.276615236e-11
-4.580686998e-10
3.076633517e-09
-7.772984851e-10
4.29209983e-09
-1.111388361e-09
5.447903185e-09
-1.36538332e-09
6.422472602e-09
-1.399078403e-09
6.97379547e-09
-1.082880887e-09
6.75365562e-09
-4.899968764e-10
5.274427777e-09
2.24734534e-09
-1.986697448e-10
1.999620488e-09
5.10129194e-11
-4.239325504e-10
3.30189657e-09
-6.903228544e-10
4.558490248e-09
-9.359461486e-10
5.693526128e-09
-1.072085647e-09
6.55861251e-09
-1.007590323e-09
6.909299943e-09
-6.997516284e-10
6.445817216e-09
-2.740228926e-10
4.848699027e-09
1.973322582e-09
-1.729084545e-10
2.127441072e-09
4.508777865e-11
-3.600301924e-10
3.489018118e-09
-5.663716759e-10
4.764832414e-09
-7.334643897e-10
5.860618796e-09
-7.928572609e-10
6.618005535e-09
-6.949763743e-10
6.811419246e-09
-4.458001174e-10
6.196641133e-09
-1.569473848e-10
4.559846448e-09
1.816375126e-09
-1.45484778e-10
2.234553029e-09
3.837306191e-11
-2.969074763e-10
3.640440638e-09
-4.537037412e-10
4.921628641e-09
-5.660435319e-10
5.972958364e-09
-5.850042812e-10
6.636966489e-09
-4.869023955e-10
6.713317163e-09
-2.951960586e-10
6.004934857e-09
-9.603821174e-11
4.360688692e-09
1.720337008e-09
-1.18810629e-10
2.321669196e-09
3.16944563e-11
-2.382308206e-10
3.759860906e-09
-3.55204109e-10
5.038601592e-09
-4.297512367e-10
6.047505589e-09
-4.286915078e-10
6.6359069e-09
-3.434369955e-10
6.628062476e-09
-2.009351293e-10
5.862433037e-09
-6.32478221e-11
4.223001347e-09
1.657089408e-09
-9.597546214e-11
2.391828145e-09
2.581642835e-11
-1.897099819e-10
3.85359533e-09
-2.772810652e-10
5.126172886e-09
-3.274644611e-10
6.097689038e-09
-3.180648531e-10
6.626507224e-09
-2.479557046e-10
6.557953568e-09
-1.414863827e-10
5.755963707e-09
-4.314023019e-11
4.124655214e-09
1.613949342e-09
-7.699060699e-11
2.447946203e-09
2.087252405e-11
-1.503475755e-10
3.926952161e-09
-2.162126639e-10
5.192038347e-09
-2.505605634e-10
6.13203673e-09
-2.386273246e-10
6.614573975e-09
-1.82684301e-10
6.502010692e-09
-1.029434311e-10
5.67622292e-09
-3.133083838e-11
4.05304288e-09
1.582618573e-09
-6.175986704e-11
2.492868374e-09
1.683761796e-11
-1.194615764e-10
3.984653723e-09
-1.696443583e-10
5.24222127e-09
-1.938254598e-10
6.156217696e-09
-1.82022995e-10
6.602771505e-09
-1.376593391e-10
6.457647015e-09
-7.688869504e-11
5.615452531e-09
-2.317700987e-11
3.999331135e-09
1.559441852e-09
-4.964900377e-11
2.528914184e-09
1.360318346e-11
-9.530074811e-11
4.030305325e-09
-1.340260167e-10
5.280946529e-09
-1.515459731e-10
6.173737773e-09
-1.409718906e-10
6.592197576e-09
-1.058707681e-10
6.422546076e-09
-5.899369123e-11
5.568575533e-09
-1.789400808e-11
3.958231253e-09
1.541548231e-09
-4.008961281e-11
2.557982254e-09
1.102159087e-11
-7.651138483e-11
4.066726918e-09
-1.068378713e-10
5.311273155e-09
-1.199264085e-10
6.186826524e-09
-1.108670589e-10
6.583138364e-09
-8.291546808e-11
6.394594783e-09
-4.612508611e-11
5.531785179e-09
-1.396466061e-11
3.926071113e-09
1.527583661e-09
-3.254037005e-11
2.581551432e-09
8.971235934e-12
-6.183553289e-11
4.096021889e-09
-8.590731333e-11
5.335345243e-09
-9.596660875e-11
6.196885762e-09
-8.840108266e-11
6.575572898e-09
-6.601997469e-11
6.372213651e-09
-3.678780279e-11
5.502553228e-09
-1.12215518e-11
3.900505246e-09
1.516362072e-09
-2.656744722e-11
2.600781298e-09
7.337563813e-12
-5.033575691e-11
4.119790132e-09
-6.96976009e-11
5.354707211e-09
-7.763337359e-11
6.204821645e-09
-7.139173832e-11
6.569331218e-09
-5.331741053e-11
6.35413922e-09
-2.976683786e-11
5.47900293e-09
-9.114579878e-12
3.879852955e-09
1.507247661e-09
-2.182689414e-11
2.616572076e-09
6.036073755e-12
-4.127373081e-11
4.139237048e-09
-5.70380234e-11
5.370471579e-09
-6.344641829e-11
6.211230241e-09
-5.833513053e-11
6.564219869e-09
-4.362548649e-11
6.339429814e-09
-2.443290186e-11
5.459810547e-09
-7.524374718e-12
3.862944314e-09
1.499723466e-09
-1.805576908e-11
2.629631656e-09
4.996218138e-12
-3.410998304e-11
4.15529137e-09
-4.710369999e-11
5.38346544e-09
-5.239490229e-11
6.216521431e-09
-4.822555505e-11
6.560050551e-09
-3.614748925e-11
6.327352021e-09
-2.031129188e-11
5.443974449e-09
-6.272474016e-12
3.848905689e-09
1.493450928e-09
-1.505566058e-11
2.640520574e-09
4.166776128e-12
-2.843963541e-11
4.168675417e-09
-3.928991037e-11
5.394315776e-09
-4.375980101e-11
6.220991246e-09
-4.037595763e-11
6.55666678e-09
-3.037360391e-11
6.317349663e-09
-1.714610144e-11
5.430747009e-09
-5.320023629e-12
3.83707991e-09
1.488130823e-09
-1.267798577e-11
2.649691288e-09
3.507279384e-12
-2.396850572e-11
4.179965947e-09
-3.316758933e-11
5.403514742e-09
-3.704122686e-11
6.224864945e-09
-3.431286494e-11
6.553938501e-09
-2.594631376e-11
6.308983095e-09
-1.473198852e-11
5.419532701e-09
-4.589060054e-12
3.826937243e-09
1.483541951e-09
-1.08104801e-11
2.65751395e-09
2.987849006e-12
-2.047629464e-11
4.189631722e-09
-2.842256671e-11
5.411460926e-09
-3.188508047e-11
6.228327615e-09
-2.971729567e-11
6.551770792e-09
-2.263874819e-11
6.301904744e-09
-1.296009753e-11
5.409854116e-09
-4.064399119e-12
3.818041618e-09
1.479477868e-09
-9.375147794e-12
2.664302279e-09
2.586847883e-12
-1.781243751e-11
4.198068915e-09
-2.484068339e-11
5.418489316e-09
-2.804328684e-11
6.231530362e-09
-2.635022053e-11
6.550077742e-09
-2.028788239e-11
6.295842673e-09
-1.174200597e-11
5.401308448e-09
-3.710266561e-12
3.810009686e-09
1.47576772e-09
-8.299497387e-12
2.670316821e-09
2.284958147e-12
-1.583412806e-11
4.205603464e-09
-2.22143985e-11
5.424869809e-09
-2.527475634e-11
6.234590764e-09
-2.396570988e-11
6.548768636e-09
-1.866219086e-11
6.290539288e-09
-1.097703739e-11
5.393623569e-09
-3.518499623e-12
3.802550914e-09
1.472249104e-09
-7.565165714e-12
2.67580648e-09
2.075495237e-12
-1.452589568e-11
4.212564225e-09
-2.057428944e-11
5.4309183e-09
-2.37100204e-11
6.237726548e-09
-2.283462393e-11
6.547893248e-09
-1.798596694e-11
6.285690574e-09
-1.066556872e-11
5.386303365e-09
-3.43533358e-12
3.795320803e-09
1.468813602e-09
-7.123569474e-12
2.680984006e-09
1.94611532e-12
-1.378219359e-11
4.219222912e-09
-1.973392776e-11
5.436870054e-09
-2.305631724e-11
6.241049082e-09
-2.256247245e-11
6.547399441e-09
-1.808827679e-11
6.28121624e-09
-1.085198795e-11
5.379067058e-09
-3.512307151e-12
3.787981496e-09
1.465301225e-09
-6.935595253e-12
2.68603309e-09
1.886634025e-12
-1.351943209e-11
4.225806743e-09
-1.9554681e-11
5.44290544e-09
-2.31191476e-11
6.244613626e-09
-2.292838215e-11
6.547208739e-09
-1.872553685e-11
6.277013328e-09
-1.149226914e-11
5.371833549e-09
-3.810755821e-12
3.780300074e-09
1.461490597e-09
-6.996808697e-12
2.691135111e-09
1.894873222e-12
-1.37427412e-11
4.232552683e-09
-2.00812498e-11
5.449244124e-09
-2.402950063e-11
6.248561792e-09
-2.414219992e-11
6.54732158e-09
-1.996069983e-11
6.272831877e-09
-1.242310697e-11
5.364295738e-09
-4.175586239e-12
3.772052344e-09
1.457315264e-09
-7.287433197e-12
2.696457091e-09
1.965471493e-12
-1.44126349e-11
4.23967797e-09
-2.125306496e-11
5.45608464e-09
-2.57013892e-11
6.253009999e-09
-2.611076231e-11
6.54773098e-09
-2.181751693e-11
6.268538714e-09
-1.369114972e-11
5.356169467e-09
-4.632792045e-12
3.762993895e-09
1.452682743e-09
-7.794809445e-12
2.702156943e-09
2.0950089e-12
-1.550367325e-11
4.24738683e-09
-2.302846806e-11
5.463609568e-09
-2.80725569e-11
6.258054056e-09
-2.874717578e-11
6.548405463e-09
-2.418901692e-11
6.263980606e-09
-1.526482921e-11
5.347245531e-09
-5.192781506e-12
3.75292206e-09
1.447490178e-09
-8.502240699e-12
2.708380133e-09
2.279127628e-12
-1.698081581e-11
4.255865158e-09
-2.535155491e-11
5.471980541e-09
-3.106949009e-11
6.263771975e-09
-3.197132079e-11
6.549307231e-09
-2.700752309e-11
6.259016835e-09
-1.708925715e-11
5.337327511e-09
-5.830451874e-12
3.741663537e-09
1.441659867e-09
-9.391182185e-12
2.715258354e-09
2.512988159e-12
-1.880411862e-11
4.265277743e-09
-2.815691745e-11
5.481333512e-09
-3.460204467e-11
6.270217087e-09
-3.567787563e-11
6.550383102e-09
-3.016952612e-11
6.253508539e-09
-1.908983593e-11
5.3262481e-09
-6.51646109e-12
3.729090207e-09
1.435143511e-09
-1.043889934e-11
2.722906451e-09
2.790795332e-12
-2.092477326e-11
4.275763386e-09
-3.136458923e-11
5.491773392e-09
-3.856138382e-11
6.277413957e-09
-3.974219939e-11
6.551563917e-09
-3.355770852e-11
6.247324178e-09
-2.11840128e-11
5.313874602e-09
-7.219454684e-12
3.715125558e-09
1.427924183e-09
-1.161781168e-11
2.731418799e-09
3.105470624e-12
-2.328382792e-11
4.28742929e-09
-3.487806658e-11
5.503367663e-09
-4.281709435e-11
6.285353064e-09
-4.401629704e-11
6.552763169e-09
-3.70356044e-11
6.240343585e-09
-2.327900082e-11
5.300117968e-09
-7.905236841e-12
3.699751815e-09
1.420019094e-09
-1.289491439e-11
2.740865259e-09
3.448483505e-12
-2.581096737e-11
4.300345302e-09
-3.858377646e-11
5.516140452e-09
-4.721818338e-11
6.293987458e-09
-4.833327741e-11
6.553878384e-09
-4.04543814e-11
6.232464639e-09
-2.527755329e-11
5.284940999e-09
-8.539994128e-12
3.683014376e-09
1.411479267e-09
-1.423151798e-11
2.75128702e-09
3.809803e-12
-2.842450619e-11
4.314538349e-09
-4.23517241e-11
5.530067643e-09
-5.159556264e-11
6.30323118e-09
-5.251176802e-11
6.554794617e-09
-4.36579781e-11
6.223610823e-09
-2.70821546e-11
5.268365152e-09
-9.091261934e-12
3.665023492e-09
1.402388217e-09
-1.558345867e-11
2.762692602e-09
4.177935e-12
-3.103248567e-11
4.329987471e-09
-4.603836127e-11
5.545073597e-09
-5.576752781e-11
6.312960255e-09
-5.636352581e-11
6.555390498e-09
-4.64917829e-11
6.213739219e-09
-2.860156298e-11
5.250475098e-09
-9.530452605e-12
3.645952316e-09
1.392857892e-09
-1.690183131e-11
2.775054433e-09
4.540045723e-12
-3.353460837e-11
4.346620258e-09
-4.949093044e-11
5.561030093e-09
-5.954704993e-11
6.323016386e-09
-5.970286156e-11
6.555546129e-09
-4.881148119e-11
6.202848057e-09
-2.975616064e-11
5.231420034e-09
-9.834685433e-12
3.626030785e-09
1.383023223e-09
-1.813427953e-11
2.78830645e-09
4.882276825e-12
-3.582541722e-11
4.364311328e-09
-5.25534518e-11
5.577758251e-09
-6.275075145e-11
6.333213761e-09
-6.235728139e-11
6.555152557e-09
-5.049208521e-11
6.190983011e-09
-3.048310156e-11
5.211411218e-09
-9.988192097e-12
3.605535834e-09
1.37303507e-09
-1.922675174e-11
2.802343069e-09
5.19014113e-12
-3.779863586e-11
4.38288317e-09
-5.507406486e-11
5.595033691e-09
-6.520884677e-11
6.343348685e-09
-6.417798794e-11
6.554121772e-09
-5.143587448e-11
6.178240922e-09
-3.074000078e-11
5.190715323e-09
-9.982752657e-12
3.584778638e-09
1.363052468e-09
-2.012573243e-11
2.817019786e-09
5.44902297e-12
-3.93522161e-11
4.402109643e-09
-5.691323079e-11
5.612594766e-09
-6.677543295e-11
6.353211033e-09
-6.50493721e-11
6.552395887e-09
-5.157843719e-11
6.164770009e-09
-3.050691791e-11
5.169643815e-09
-9.817843249e-12
3.564089752e-09
1.353234777e-09
-2.078086378e-11
2.83215574e-09
5.644918415e-12
-4.039369798e-11
4.421722422e-09
-5.795219862e-11
5.630153489e-09
-6.733782701e-11
6.362596782e-09
-6.489620123e-11
6.549954357e-09
-5.089198317e-11
6.150765923e-09
-2.97867316e-11
5.148538775e-09
-9.500246269e-12
3.543803455e-09
1.343734674e-09
-2.114781785e-11
2.847538351e-09
5.765217351e-12
-4.084576883e-11
4.44142028e-09
-5.810065714e-11
5.647408661e-09
-6.68241033e-11
6.371320319e-09
-6.368803404e-11
6.546818268e-09
-4.938577826e-11
6.136463877e-09
-2.860341886e-11
5.12775672e-09
-9.042719078e-12
3.524242771e-09
1.334692157e-09
-2.119107507e-11
2.862930019e-09
5.799408391e-12
-4.065160808e-11
4.460880738e-09
-5.73029905e-11
5.66406023e-09
-6.520781922e-11
6.379225311e-09
-6.144040346e-11
6.543050859e-09
-4.710380528e-11
6.122127435e-09
-2.69987816e-11
5.107651919e-09
-8.462401021e-12
3.505706332e-09
1.326229941e-09
-2.088639011e-11
2.878076694e-09
5.73975516e-12
-3.977910231e-11
4.479773418e-09
-5.554235639e-11
5.67982352e-09
-6.250953419e-11
6.386192709e-09
-5.821252969e-11
6.538753933e-09
-4.411987395e-11
6.108034892e-09
-2.502822826e-11
5.088560408e-09
-7.779489254e-12
3.488457684e-09
1.318450506e-09
-2.022295009e-11
2.892717778e-09
5.581951186e-12
-3.822374422e-11
4.49777416e-09
-5.284240371e-11
5.694442182e-09
-5.879490027e-11
6.39214535e-09
-5.410166982e-11
6.534060742e-09
-4.053109056e-11
6.09446445e-09
-2.275640485e-11
5.070785846e-09
-7.015926529e-12
3.472717473e-09
1.311434528e-09
-1.920463737e-11
2.906596857e-09
5.325629541e-12
-3.600951075e-11
4.514578955e-09
-4.926597316e-11
5.70769872e-09
-5.416943033e-11
6.397048811e-09
-4.923502542e-11
6.529126265e-09
-3.645027948e-11
6.08167981e-09
-2.025271985e-11
5.054588378e-09
-6.193908384e-12
3.458658901e-09
1.30524055e-09
-1.78503119e-11
2.91947259e-09
4.974581359e-12
-3.318801175e-11
4.52991658e-09
-4.491102745e-11
5.719421865e-09
-4.877088959e-11
6.400908646e-09
-4.376073829e-11
6.52411598e-09
-3.199854906e-11
6.069917654e-09
-1.75874002e-11
5.04017723e-09
-5.334863393e-12
3.446406378e-09
1.29990566e-09
-1.619295193e-11
2.931128877e-09
4.536656594e-12
-2.983537243e-11
4.543558896e-09
-3.990369593e-11
5.729490266e-09
-4.275950298e-11
6.403764461e-09
-3.783792373e-11
6.519194288e-09
-2.729801529e-11
6.059377758e-09
-1.482790286e-11
5.027706978e-09
-4.458831582e-12
3.436037148e-09
1.295446851e-09
-1.427802794e-11
2.941383514e-09
4.023384376e-12
-2.604760518e-11
4.555328302e-09
-3.439014341e-11
5.737832766e-09
-3.630788896e-11
6.405682179e-09
-3.162773851e-11
6.514514107e-09
-2.246635551e-11
6.050216375e-09
-1.203687087e-11
5.017277239e-09
-3.586076311e-12
3.427586227e-09
1.291860788e-09
-1.216059865e-11
2.950094785e-09
3.449306765e-12
-2.193425733e-11
4.565101755e-09
-2.852695368e-11
5.744425361e-09
-2.959008452e-11
6.406745242e-09
-2.528424566e-11
6.510208255e-09
-1.761093789e-11
6.04254296e-09
-9.26960355e-12
5.008935674e-09
-2.738894021e-12
3.421055446e-09
1.289121831e-09
-9.901755084e-12
2.957165437e-09
2.831076676e-12
-1.761161708e-11
4.572811412e-09
-2.247235515e-11
5.749286055e-09
-2.277380077e-11
6.407046632e-09
-1.894994489e-11
6.506384271e-09
-1.282711362e-11
6.036419917e-09
-6.575201453e-12
5.002683659e-09
-1.920123622e-12
3.416400296e-09
1.287201586e-09
-7.56524011e-12
2.962544143e-09
2.186490688e-12
-1.319622575e-11
4.578442217e-09
-1.637743865e-11
5.752467335e-09
-1.60108081e-11
6.406679935e-09
-1.274570953e-11
6.503118911e-09
-8.185504682e-12
6.031859485e-09
-3.980221845e-12
4.998478411e-09
-1.114283804e-12
3.413534198e-09
1.286087199e-09
-5.212295475e-12
2.966223303e-09
1.533055723e-12
-8.796101695e-12
4.582025968e-09
-1.03771112e-11
5.754048422e-09
-9.432971089e-12
6.405735651e-09
-6.774181006e-12
6.500459837e-09
-3.76232031e-12
6.028847413e-09
-1.475137867e-12
4.996191268e-09
-3.602868417e-13
3.41241909e-09
1.285726842e-09
-2.902465926e-12
2.9682377e-09
8.880168539e-13
-4.514381989e-12
4.583638009e-09
-4.59570417e-12
5.754129752e-09
-3.158021147e-12
6.404297837e-09
-1.126379166e-12
6.498428049e-09
3.478192541e-13
6.027373067e-09
8.377704596e-13
4.995701251e-09
3.312338992e-13
3.412925379e-09
1.28605801e-09
-6.828471838e-13
2.968654682e-09
2.658962172e-13
-4.248848883e-13
4.583380137e-09
8.816285442e-13
5.752823161e-09
2.739534844e-12
6.402439894e-09
4.132609465e-12
6.497035048e-09
4.226404467e-12
6.027279171e-09
2.889810242e-12
4.997037557e-09
9.746132832e-13
3.414840432e-09
1.287032581e-09
1.402976186e-12
2.967572615e-09
-3.208386461e-13
3.394033885e-12
4.581389006e-09
5.957303004e-12
5.750259817e-09
8.16236316e-12
6.400234735e-09
8.943627018e-12
6.496253875e-09
7.729168677e-12
6.028493595e-09
4.812254437e-12
4.999954145e-09
1.553859443e-12
3.418098767e-09
1.288586468e-09
3.31425526e-12
2.965119132e-09
-8.60747497e-13
6.872020017e-12
4.577831132e-09
1.055438152e-11
5.746577474e-09
1.305527489e-11
6.3977337e-09
1.327661404e-11
6.49603247e-09
1.087862595e-11
6.030891581e-09
6.554650977e-12
5.004278032e-09
2.080879042e-12
3.422572534e-09
1.290667404e-09
5.024219413e-12
2.961440059e-09
-1.345190213e-12
9.973340011e-12
4.572882026e-09
1.464143125e-11
5.741909388e-09
1.739700309e-11
6.394978079e-09
1.711951545e-11
6.496309831e-09
1.367582339e-11
6.034335319e-09
8.101225973e-12
5.009852866e-09
2.563689798e-12
3.428110105e-09
1.293231149e-09
6.520239245e-12
2.95668947e-09
-1.769721594e-12
1.268184108e-11
4.566720552e-09
1.820640915e-11
5.736384767e-09
2.118327251e-11
6.392001345e-09
2.047338589e-11
6.497019674e-09
1.612126295e-11
6.038687513e-09
9.455077097e-12
5.016519359e-09
2.979515109e-12
3.434585785e-09
1.2962107e-09
7.799986775e-12
2.951022554e-09
-2.133082253e-12
1.499824762e-11
4.559522478e-09
2.125679145e-11
5.730126134e-09
2.442758378e-11
6.388830767e-09
2.335400293e-11
6.498093299e-09
1.822848944e-11
6.043813089e-09
1.062552123e-11
5.024122437e-09
3.338255154e-12
3.441873176e-09
1.299548987e-09
8.868649609e-12
2.944590347e-09
-2.436411934e-12
1.693486963e-11
4.551456411e-09
2.381246795e-11
5.72324851e-09
2.71539296e-11
6.385489425e-09
2.578424769e-11
6.49946303e-09
2.001485862e-11
6.04958256e-09
1.162318175e-11
5.032514024e-09
3.646229144e-12
3.449850174e-09
1.303195244e-09
9.73701295e-12
2.937535958e-09
-2.682591955e-12
1.8512615e-11
4.542680835e-09
2.590240557e-11
5.715858774e-09
2.939407841e-11
6.381997714e-09
2.779239881e-11
6.501064673e-09
2.150055755e-11
6.055874498e-09
1.245902374e-11
5.041555466e-09
3.906860681e-12
3.458402344e-09
1.307102117e-09
1.041956269e-11
2.929992066e-09
-2.875659103e-12
1.975801158e-11
4.533342309e-09
2.756137374e-11
5.708055492e-09
3.118450171e-11
6.378374466e-09
2.940992235e-11
6.502839131e-09
2.270755396e-11
6.062576913e-09
1.314460043e-11
5.051118428e-09
4.123400097e-12
3.467423583e-09
1.31122553e-09
1.093303123e-11
2.922079407e-09
-3.020370271e-12
2.070086197e-11
4.52357439e-09
2.882748924e-11
5.699928899e-09
3.256419611e-11
6.374637678e-09
3.066985812e-11
6.504733393e-09
2.365864764e-11
6.06958805e-09
1.369169381e-11
5.061085409e-09
4.299028925e-12
3.476816296e-09
1.315524633e-09
1.129521468e-11
2.91390605e-09
-3.121867648e-12
2.137236746e-11
4.513497188e-09
2.97402038e-11
5.691561009e-09
3.357296623e-11
6.370804932e-09
3.16054715e-11
6.506700968e-09
2.43766582e-11
6.076816715e-09
1.411207496e-11
5.071349938e-09
4.437009629e-12
3.486491392e-09
1.319961759e-09
1.152406761e-11
2.905567354e-09
-3.185372293e-12
2.180377503e-11
4.503217474e-09
3.033881067e-11
5.683025864e-09
3.425019736e-11
6.366893606e-09
3.224940496e-11
6.508701915e-09
2.488384993e-11
6.084182191e-09
1.441724589e-11
5.081816453e-09
4.540551273e-12
3.496368097e-09
1.324502354e-09
1.163699468e-11
2.897146335e-09
-3.215946826e-12
2.202536635e-11
4.492829142e-09
3.066129896e-11
5.674389898e-09
3.463394094e-11
6.362920964e-09
3.263324832e-11
6.510702681e-09
2.520165491e-11
6.091613823e-09
1.461821026e-11
5.092399871e-09
4.612658976e-12
3.506373623e-09
1.329114919e-09
1.165042309e-11
2.88871432e-09
-3.218375306e-12
2.206578534e-11
4.48241387e-09
3.074352179e-11
5.665712273e-09
3.476028895e-11
6.358904181e-09
3.278713339e-11
6.51267579e-09
2.535053311e-11
6.099050478e-09
1.472540575e-11
5.103025035e-09
4.656157985e-12
3.516442799e-09
1.333770931e-09
1.157957643e-11
2.880331841e-09
-3.197071625e-12
2.195163751e-11
4.472041947e-09
3.061884325e-11
5.657045235e-09
3.466292521e-11
6.354860167e-09
3.273931913e-11
6.514599344e-09
2.534983916e-11
6.106439964e-09
1.474875555e-11
5.113626174e-09
4.673809242e-12
3.526517674e-09
1.338444672e-09
1.143829624e-11
2.872049603e-09
-3.156012206e-12
2.170722865e-11
4.461773193e-09
3.031801629e-11
5.648434532e-09
3.437299146e-11
6.350805328e-09
3.251601565e-11
6.516456381e-09
2.521769554e-11
6.113738279e-09
1.469766837e-11
5.124146236e-09
4.668294567e-12
3.536547045e-09
1.343113027e-09
1.12389654e-11
2.863909458e-09
-3.098749509e-12
2.135444843e-11
4.451657908e-09
2.986907556e-11
5.639919907e-09
3.391910835e-11
6.346755406e-09
3.21414188e-11
6.518234221e-09
2.497094577e-11
6.120908807e-09
1.45810055e-11
5.134536196e-09
4.642150214e-12
3.546485975e-09
1.347755335e-09
1.099257496e-11
2.855945407e-09
-3.028463676e-12
2.091285371e-11
4.441737825e-09
2.929724839e-11
5.631535524e-09
3.332733444e-11
6.342725338e-09
3.16377902e-11
6.519923897e-09
2.462517743e-11
6.127921567e-09
1.440704406e-11
5.14475439e-09
4.597755701e-12
3.556295379e-09
1.352353277e-09
1.070881506e-11
2.848184571e-09
-2.947940761e-12
2.039979066e-11
4.432047015e-09
2.862499503e-11
5.623310364e-09
3.262116676e-11
6.338729113e-09
3.102550233e-11
6.521519624e-09
2.419476849e-11
6.1347525e-09
1.418344633e-11
5.154765888e-09
4.53734323e-12
3.565941635e-09
1.356890744e-09
1.039610439e-11
2.840648059e-09
-2.859552852e-12
1.983048138e-11
4.422612749e-09
2.787222656e-11
5.615268656e-09
3.1821667e-11
6.334779664e-09
3.032304879e-11
6.523018275e-09
2.369295081e-11
6.141382762e-09
1.391727431e-11
5.164541802e-09
4.462949662e-12
3.575396111e-09
1.361353694e-09
1.006168372e-11
2.833351745e-09
-2.765323545e-12
1.921817808e-11
4.413456294e-09
2.705654511e-11
5.607430314e-09
3.094758203e-11
6.330888746e-09
2.95470495e-11
6.524418873e-09
2.31317933e-11
6.147798082e-09
1.361504593e-11
5.174058697e-09
4.376461221e-12
3.584634779e-09
1.36573005e-09
9.711763073e-12
2.826307015e-09
-2.66700394e-12
1.857438153e-11
4.404593676e-09
2.61933966e-11
5.599811332e-09
3.001549595e-11
6.327066835e-09
2.871232429e-11
6.525722125e-09
2.252219897e-11
6.153988188e-09
1.328278222e-11
5.183298103e-09
4.279674305e-12
3.593637909e-09
1.370009625e-09
9.351661809e-12
2.819521446e-09
-2.566092218e-12
1.790898644e-11
4.396036378e-09
2.529619059e-11
5.592424173e-09
2.904002276e-11
6.323323122e-09
2.783211072e-11
6.526930082e-09
2.187401316e-11
6.159946271e-09
1.292604959e-11
5.192245987e-09
4.174315652e-12
3.602389657e-09
1.374183929e-09
8.985885627e-12
2.812999385e-09
-2.463839534e-12
1.723040019e-11
4.387791935e-09
2.437645674e-11
5.585278164e-09
2.803400734e-11
6.319665599e-09
2.691824792e-11
6.528045855e-09
2.119613004e-11
6.16566845e-09
1.254992242e-11
5.200892161e-09
4.061978958e-12
3.610877599e-09
1.378245969e-09
8.618198078e-12
2.806742448e-09
-2.361274371e-12
1.654573023e-11
4.379864491e-09
2.344408317e-11
5.578379834e-09
2.700863241e-11
6.316101054e-09
2.598121082e-11
6.529073321e-09
2.04965023e-11
6.171153295e-09
1.215892663e-11
5.20922977e-09
3.944104753e-12
3.619092374e-09
1.382190116e-09
8.251705606e-12
2.800749971e-09
-2.259239571e-12
1.586096289e-11
4.372255305e-09
2.250753112e-11
5.571733242e-09
2.597354466e-11
6.312635067e-09
2.503011924e-11
6.530016835e-09
1.97821337e-11
6.176401403e-09
1.175706951e-11
5.217254901e-09
3.821968021e-12
3.627027431e-09
1.386012073e-09
7.888964835e-12
2.79501942e-09
-2.158428254e-12
1.518109581e-11
4.364963223e-09
2.157397873e-11
5.565340295e-09
2.493699212e-11
6.309272065e-09
2.407284861e-11
6.530881049e-09
1.905920383e-11
6.181415082e-09
1.134796139e-11
5.22496621e-09
3.696707691e-12
3.634678722e-09
1.389708754e-09
7.532068855e-12
2.789546739e-09
-2.059414265e-12
1.451023541e-11
4.357985075e-09
2.064939702e-11
5.559201068e-09
2.390596894e-11
6.306015467e-09
2.311621361e-11
6.531670839e-09
1.833318109e-11
6.18619809e-09
1.093487583e-11
5.232364555e-09
3.56935334e-12
3.642044334e-09
1.393278088e-09
7.182704756e-12
2.784326657e-09
-1.962661422e-12
1.385172607e-11
4.351316026e-09
1.973869899e-11
5.553314053e-09
2.288635628e-11
6.302867767e-09
2.216605279e-11
6.532391187e-09
1.760878783e-11
6.190755339e-09
1.052068693e-11
5.239452645e-09
3.440830635e-12
3.649124199e-09
1.396718903e-09
6.842188312e-12
2.779352935e-09
-1.868516557e-12
1.320826679e-11
4.344949894e-09
1.884589896e-11
5.547676394e-09
2.188305393e-11
6.299830586e-09
2.122727149e-11
6.533047019e-09
1.688999306e-11
6.195092607e-09
1.010781521e-11
5.246234753e-09
3.31198651e-12
3.655919924e-09
1.400030878e-09
6.511516349e-12
2.774618599e-09
-1.777221543e-12
1.258195957e-11
4.338879434e-09
1.79742259e-11
5.542284117e-09
2.090005844e-11
6.29690476e-09
2.030393724e-11
6.533643133e-09
1.618014324e-11
6.199216348e-09
9.698333762e-12
5.252716476e-09
3.18358767e-12
3.662434578e-09
1.403214443e-09
6.191427641e-12
2.77011611e-09
-1.688953304e-12
1.197436677e-11
4.333096538e-09
1.712618085e-11
5.537132328e-09
1.994053493e-11
6.29409044e-09
1.939939952e-11
6.5341842e-09
1.548211133e-11
6.203133578e-09
9.294070675e-12
5.258904495e-09
3.056261256e-12
3.668672398e-09
1.406270627e-09
5.882440817e-12
2.765837529e-09
-1.603846345e-12
1.13866241e-11
4.327592446e-09
1.6303646e-11
5.532215377e-09
1.900695378e-11
6.291387177e-09
1.851638859e-11
6.534674727e-09
1.479830397e-11
6.20685168e-09
8.896554075e-12
5.264806283e-09
2.930461142e-12
3.67463853e-09
1.409200963e-09
5.584889967e-12
2.761774655e-09
-1.52198376e-12
1.081953209e-11
4.322357937e-09
1.550799518e-11
5.527527008e-09
1.810123496e-11
6.288793975e-09
1.76570491e-11
6.53511896e-09
1.41305991e-11
6.210378213e-09
8.506989188e-12
5.270429911e-09
2.80657012e-12
3.680338895e-09
1.412007448e-09
5.298954569e-12
2.75791914e-09
-1.443396857e-12
1.027357798e-11
4.317383469e-09
1.474017107e-11
5.523060501e-09
1.722480466e-11
6.286309379e-09
1.682298392e-11
6.535520865e-09
1.34804258e-11
6.213720831e-09
8.126349344e-12
5.275783964e-09
2.6850062e-12
3.685780111e-09
1.414692474e-09
5.024691962e-12
2.754262575e-09
-1.368088158e-12
9.748988132e-12
4.312659302e-09
1.400074532e-11
5.518808793e-09
1.637861201e-11
6.283931542e-09
1.601535903e-11
6.535884162e-09
1.284893245e-11
6.216887252e-09
7.755464034e-12
5.280877414e-09
2.566170521e-12
3.690969344e-09
1.417258728e-09
4.762054897e-12
2.750796591e-09
-1.296042748e-12
9.245794303e-12
4.308175633e-09
1.328999087e-11
5.514764605e-09
1.556322096e-11
6.281658318e-09
1.523501356e-11
6.536212351e-09
1.223704284e-11
6.219885187e-09
7.395032982e-12
5.285719465e-09
2.450336038e-12
3.695914103e-09
1.419709114e-09
4.510908797e-12
2.747512925e-09
-1.227218857e-12
8.763869275e-12
4.303922701e-09
1.260792937e-11
5.51092054e-09
1.477889578e-11
6.279487309e-09
1.448250154e-11
6.536508692e-09
1.164543127e-11
6.222722245e-09
7.045564299e-12
5.290319405e-09
2.337636836e-12
3.700622132e-09
1.422046736e-09
4.271042555e-12
2.744403455e-09
-1.161544937e-12
8.302927507e-12
4.299890822e-09
1.195434181e-11
5.507269126e-09
1.402565336e-11
6.277415908e-09
1.375810176e-11
6.536776198e-09
1.107449258e-11
6.225405882e-09
6.70737943e-12
5.294686565e-09
2.228183914e-12
3.705101395e-09
1.424274892e-09
4.042190138e-12
2.741460223e-09
-1.098934783e-12
7.862562342e-12
4.296070439e-09
1.132882335e-11
5.503802881e-09
1.330329861e-11
6.275441353e-09
1.306184197e-11
6.537017647e-09
1.052439803e-11
6.227943378e-09
6.38069621e-12
5.29883028e-09
2.122111302e-12
3.709360015e-09
1.426397017e-09
3.82405498e-12
2.738675484e-09
-1.039301548e-12
7.442299154e-12
4.292452179e-09
1.073084845e-11
5.500514357e-09
1.2611447e-11
6.273560748e-09
1.239355493e-11
6.537235584e-09
9.995175499e-12
6.230341811e-09
6.065650047e-12
5.302759808e-09
2.019539603e-12
3.713406175e-09
1.428416615e-09
3.616321573e-12
2.736041728e-09
-9.825502615e-13
7.041610465e-12
4.289026894e-09
1.015981589e-11
5.497396182e-09
1.194956059e-11
6.271771078e-09
1.175291094e-11
6.537432314e-09
9.486746921e-12
6.232608006e-09
5.762308642e-12
5.306484245e-09
1.920537584e-12
3.717248024e-09
1.430337218e-09
3.418650615e-12
2.733551681e-09
-9.285784984e-13
6.659911903e-12
4.285785664e-09
9.615047232e-12
5.49444108e-09
1.131698425e-11
6.270069225e-09
1.113945316e-11
6.537609908e-09
8.998931644e-12
6.234748544e-09
5.470682465e-12
5.310012523e-09
1.825127051e-12
3.72089366e-09
1.4321624e-09
3.230682326e-12
2.731198314e-09
-8.772840096e-13
6.296578327e-12
4.282719829e-09
9.095778863e-12
5.491641909e-09
1.071299995e-11
6.26845202e-09
1.055266787e-11
6.537770244e-09
8.531479302e-12
6.236769779e-09
5.190700892e-12
5.313353399e-09
1.733316627e-12
3.724351119e-09
1.433895751e-09
3.052052723e-12
2.728974857e-09
-8.285701666e-13
5.950958634e-12
4.279821011e-09
8.601188534e-12
5.488991705e-09
1.013686123e-11
6.266916318e-09
9.992029535e-12
6.53791506e-09
8.084078717e-12
6.238677814e-09
4.922220115e-12
5.3165154e-09
1.645081445e-12
3.727628317e-09
1.435540845e-09
2.882408413e-12
2.726874805e-09
-7.82336345e-13
5.622403808e-12
4.277081118e-09
8.130442837e-12
5.486483684e-09
9.587778094e-12
6.26545899e-09
9.456932677e-12
6.538045934e-09
7.656339709e-12
6.240478478e-09
4.66504205e-12
5.319506786e-09
1.560378499e-12
3.730733023e-09
1.437101241e-09
2.721393732e-12
2.72489191e-09
-7.384744315e-13
5.310274237e-12
4.274492331e-09
7.682732193e-12
5.484111227e-09
9.064896779e-12
6.264076879e-09
8.946647096e-12
6.538164249e-09
7.247786227e-12
6.242177337e-09
4.418975717e-12
5.322335584e-09
1.479182461e-12
3.733672869e-09
1.438580468e-09