/*--------------------------------*- C++ -*----------------------------------*\
| =========                 |                                                 |
| \\      /  F ield         | OpenFOAM: The Open Source CFD Toolbox           |
|  \\    /   O peration     | Version:  2212                                  |
|   \\  /    A nd           | Website:  www.openfoam.com                      |
|    \\/     M anipulation  |                                                 |
\*---------------------------------------------------------------------------*/
FoamFile
{
    version     2.0;
    format      ascii;
    arch        "LSB;label=32;scalar=64";
    class       volScalarField;
    location    "20.00000000";
    object      SC3H5;
}
// * * * * * * * * * * * * * * * * * * * * * * * * * * * * * * * * * * * * * //

dimensions      [0 0 0 0 0 0 0];

internalField   nonuniform List<scalar> 
3000
(
3.789239863e-30
4.700672108e-30
6.157988202e-30
8.248183285e-30
1.106049784e-29
1.462724699e-29
1.881045807e-29
2.311040949e-29
2.638953646e-29
1.596954877e-29
1.99571061e-29
2.633261673e-29
3.549543955e-29
4.792569205e-29
6.410246133e-29
8.433124515e-29
1.082534416e-28
1.317353307e-28
4.115591574e-29
5.208460691e-29
6.974377572e-29
9.561806998e-29
1.318359002e-28
1.81176446e-28
2.46511893e-28
3.281977641e-28
4.084594731e-28
8.994604958e-29
1.156933981e-28
1.581137184e-28
2.22156648e-28
3.153567311e-28
4.479503476e-28
6.305870669e-28
8.624809133e-28
1.081475495e-27
1.82952741e-28
2.400333743e-28
3.363757194e-28
4.86527269e-28
7.128839112e-28
1.045584535e-27
1.512375592e-27
2.097642836e-27
2.623545756e-27
3.604293613e-28
4.832676542e-28
6.957923533e-28
1.036841133e-27
1.565947386e-27
2.360255124e-27
3.48036454e-27
4.856349394e-27
6.041293402e-27
7.030062509e-28
9.637195693e-28
1.425088718e-27
2.183902894e-27
3.3866072e-27
5.214634779e-27
7.787911997e-27
1.088750938e-26
1.345258381e-26
1.372439443e-27
1.921516032e-27
2.912165317e-27
4.573775588e-27
7.248336167e-27
1.134300457e-26
1.709036761e-26
2.393706099e-26
2.960486838e-26
2.695947855e-27
3.847215282e-27
5.957336844e-27
9.549878317e-27
1.539281285e-26
2.436472212e-26
3.688827069e-26
5.161009701e-26
6.354228829e-26
5.337450636e-27
7.743908187e-27
1.221024265e-26
1.990002187e-26
3.249471922e-26
5.185416126e-26
7.874132991e-26
1.100479419e-25
1.351488221e-25
1.064894542e-26
1.566757234e-26
2.507400027e-26
4.140542901e-26
6.828172597e-26
1.095987156e-25
1.66741446e-25
2.328131017e-25
2.853925828e-25
2.138930259e-26
3.18355316e-26
5.156568353e-26
8.603696144e-26
1.429529653e-25
2.304252855e-25
3.509911662e-25
4.896609109e-25
5.994017668e-25
4.319832071e-26
6.490627034e-26
1.061531086e-25
1.785596096e-25
2.983882055e-25
4.824669285e-25
7.354939177e-25
1.025336317e-24
1.253750212e-24
8.761932443e-26
1.326643546e-25
2.186566871e-25
3.701595541e-25
6.213064118e-25
1.006930702e-24
1.535827522e-24
2.13976306e-24
2.614156604e-24
1.783018533e-25
2.716533974e-25
4.505270796e-25
7.665547892e-25
1.291077468e-24
2.096091663e-24
3.198231286e-24
4.453585566e-24
5.437130959e-24
3.637331534e-25
5.569798639e-25
9.283612468e-25
1.585946173e-24
2.678365412e-24
4.354262596e-24
6.64537329e-24
9.249676032e-24
1.128580501e-23
7.433778679e-25
1.143030393e-24
1.912902673e-24
3.278437884e-24
5.548515207e-24
9.029737319e-24
1.378308282e-23
1.917708177e-23
2.338689229e-23
1.521350775e-24
2.347175357e-24
3.941042037e-24
6.771998406e-24
1.14806353e-23
1.869881711e-23
2.854431532e-23
3.970064787e-23
4.839460047e-23
3.116619234e-24
4.821809458e-24
8.117946982e-24
1.397877493e-23
2.373051295e-23
3.867415127e-23
5.903781781e-23
8.20831474e-23
1.00017823e-22
6.389224981e-24
9.907831236e-24
1.671774206e-23
2.883667827e-23
4.900603443e-23
7.99017712e-23
1.219659566e-22
1.695129118e-22
2.064690594e-22
1.310449107e-23
2.036056533e-23
3.441787111e-23
5.945044592e-23
1.011165561e-22
1.649137754e-22
2.516964712e-22
3.496768179e-22
4.257385391e-22
2.688494063e-23
4.183943898e-23
7.083351296e-23
1.224886185e-22
2.08465976e-22
3.400435597e-22
5.188627897e-22
7.205142628e-22
8.76855203e-22
5.5160813e-23
8.596260906e-23
1.457170575e-22
2.522050677e-22
4.29421286e-22
7.004580068e-22
1.068432757e-21
1.482860038e-21
1.803722415e-21
1.13160358e-22
1.765588875e-22
2.996017632e-22
5.189033097e-22
8.837522994e-22
1.441333905e-21
2.197451432e-21
3.047783998e-21
3.705112124e-21
2.32062565e-22
3.624483251e-22
6.15565269e-22
1.066682002e-21
1.816849228e-21
2.962234117e-21
4.513337314e-21
6.254770807e-21
7.598508532e-21
4.756243627e-22
7.435216233e-22
1.263645246e-21
2.190433685e-21
3.730577655e-21
6.079419304e-21
9.255149011e-21
1.281354635e-20
1.555349104e-20
9.740047151e-22
1.523809575e-21
2.591208365e-21
4.492393448e-21
7.648984338e-21
1.245619191e-20
1.894320798e-20
2.619502145e-20
3.176495505e-20
1.992387515e-21
3.119181456e-21
5.306297075e-21
9.199452951e-21
1.565593155e-20
2.54714838e-20
3.868642799e-20
5.3418757e-20
6.470106693e-20
4.069750493e-21
6.375161282e-21
1.084826526e-20
1.880380825e-20
3.197830612e-20
5.196482034e-20
7.879939711e-20
1.08618237e-19
1.31375646e-19
8.29845357e-21
1.300576072e-20
2.213393761e-20
3.835060803e-20
6.515760602e-20
1.057225612e-19
1.600098334e-19
2.201055755e-19
2.657873042e-19
1.688521772e-20
2.647373914e-20
4.505275152e-20
7.801287766e-20
1.323791907e-19
2.144001223e-19
3.23750048e-19
4.442680032e-19
5.354614235e-19
3.427156824e-20
5.374778242e-20
9.144706681e-20
1.582113108e-19
2.680490071e-19
4.331719976e-19
6.523433383e-19
8.926832802e-19
1.073604261e-18
6.936060545e-20
1.087915929e-19
1.850187782e-19
3.197301885e-19
5.406679554e-19
8.714453309e-19
1.308275525e-18
1.784569874e-18
2.141044418e-18
1.399189874e-19
2.194522104e-19
3.729624467e-19
6.435682636e-19
1.085782837e-18
1.744712749e-18
2.609926278e-18
3.547308835e-18
4.244430688e-18
2.812300959e-19
4.409761795e-19
7.487235631e-19
1.289607082e-18
2.169814102e-18
3.474327877e-18
5.176259611e-18
7.00724286e-18
8.359572559e-18
5.630041196e-19
8.823600927e-19
1.49620577e-18
2.571348533e-18
4.312645492e-18
6.877744798e-18
1.020061272e-17
1.374824955e-17
1.634924272e-17
1.122223426e-18
1.757377928e-18
2.975005058e-18
5.099190232e-18
8.520994316e-18
1.352782968e-17
1.996369014e-17
2.67788877e-17
3.173694144e-17
2.226543271e-18
3.482710255e-18
5.883483655e-18
1.005277776e-17
1.672863884e-17
2.642500758e-17
3.878528268e-17
5.176134908e-17
6.112576771e-17
4.395897171e-18
6.865313723e-18
1.156830798e-17
1.969425652e-17
3.26192083e-17
5.124254551e-17
7.477271252e-17
9.925337705e-17
1.167753739e-16
8.634235914e-18
1.345759116e-17
2.260726162e-17
3.832703957e-17
6.314976296e-17
9.861176566e-17
1.430024824e-16
1.887600113e-16
2.212396211e-16
1.686822731e-17
2.622563643e-17
4.389757465e-17
7.407097213e-17
1.213460295e-16
1.882765972e-16
2.71257051e-16
3.559916581e-16
4.156416924e-16
3.277206781e-17
5.079688217e-17
8.467111777e-17
1.42119611e-16
2.31383558e-16
3.565779698e-16
5.102785137e-16
6.657588206e-16
7.743240948e-16
6.330704467e-17
9.777079906e-17
1.621931596e-16
2.706621678e-16
4.377387465e-16
6.698162201e-16
9.519424705e-16
1.234706003e-15
1.430601738e-15
1.215728774e-16
1.869616218e-16
3.084882013e-16
5.11546329e-16
8.215120984e-16
1.247891777e-15
1.761205155e-15
2.271104575e-15
2.62174878e-15
2.320434687e-16
3.551154795e-16
5.824471785e-16
9.592778519e-16
1.529246369e-15
2.30572659e-15
3.231779888e-15
4.14400588e-15
4.767129904e-15
4.40090445e-16
6.698024451e-16
1.091380438e-15
1.784486283e-15
2.823220947e-15
4.225045312e-15
5.882210135e-15
7.502431207e-15
8.60303893e-15
8.29128329e-16
1.254144392e-15
2.028922469e-15
3.292122141e-15
5.168083804e-15
7.677151349e-15
1.061957778e-14
1.347847761e-14
1.541315318e-14
1.551149542e-15
2.330317291e-15
3.740853289e-15
6.021298801e-15
9.377940419e-15
1.382972684e-14
1.901389844e-14
2.402728333e-14
2.741483457e-14
2.88053335e-15
4.295220693e-15
6.838021455e-15
1.091437967e-14
1.686261341e-14
2.468964519e-14
3.374898834e-14
4.248035584e-14
4.838015664e-14
5.307971212e-15
7.850818645e-15
1.238814797e-14
1.96004538e-14
3.003566219e-14
4.366455376e-14
5.935040285e-14
7.441287494e-14
8.453589963e-14
9.703166467e-15
1.422699643e-14
2.223937008e-14
3.486773656e-14
5.29873007e-14
7.648003818e-14
1.03356339e-13
1.289808823e-13
1.457600375e-13
1.759516891e-14
2.556077693e-14
3.956375091e-14
6.144809815e-14
9.259076315e-14
1.326690597e-13
1.781550758e-13
2.207226011e-13
2.481701862e-13
3.165418283e-14
4.554036248e-14
6.976884949e-14
1.073171182e-13
1.603124051e-13
2.279577438e-13
3.037319823e-13
3.727651291e-13
4.165362216e-13
5.652034443e-14
8.0500689e-14
1.220295079e-13
1.858456811e-13
2.751233993e-13
3.878053383e-13
5.105526901e-13
6.200063859e-13
6.868768612e-13
1.002360452e-13
1.412974647e-13
2.118637271e-13
3.193463766e-13
4.681056758e-13
6.518424063e-13
8.45956773e-13
1.012789809e-12
1.107498029e-12
1.766955027e-13
2.4647121e-13
3.654679956e-13
5.450253891e-13
7.900484685e-13
1.081225577e-12
1.379215648e-12
1.618584668e-12
1.735329217e-12
3.09912405e-13
4.277006429e-13
6.268782203e-13
9.235120482e-13
1.316294509e-12
1.769166756e-12
2.207775162e-12
2.519667168e-12
2.624675506e-12
5.414650049e-13
7.392253283e-13
1.070270111e-12
1.553180489e-12
2.169457921e-12
2.853518265e-12
3.461207846e-12
3.804307359e-12
3.809585434e-12
9.430595101e-13
1.273032661e-12
1.817665062e-12
2.583124672e-12
3.533603578e-12
4.528473069e-12
5.298868252e-12
5.551684784e-12
5.290703569e-12
1.63640488e-12
2.179766537e-12
3.050690733e-12
4.249394217e-12
5.678085287e-12
7.050940705e-12
7.895723343e-12
7.815274253e-12
7.043626637e-12
2.821492211e-12
3.692000426e-12
5.065510221e-12
6.904173394e-12
8.974116557e-12
1.072900576e-11
1.141110408e-11
1.061383152e-11
9.052935878e-12
4.798584179e-12
6.177690534e-12
8.307058324e-12
1.104464762e-11
1.389102519e-11
1.587953989e-11
1.594594543e-11
1.394178986e-11
1.135013619e-11
8.057671636e-12
1.020039132e-11
1.341265982e-11
1.732059629e-11
2.095061063e-11
2.275215948e-11
2.151507845e-11
1.780472273e-11
1.402898675e-11
1.33301447e-11
1.656478539e-11
2.122718292e-11
2.648799216e-11
3.062126834e-11
3.144518601e-11
2.807082707e-11
2.226492732e-11
1.723725008e-11
2.163571266e-11
2.632831435e-11
3.274782228e-11
3.92724507e-11
4.316335505e-11
4.187361607e-11
3.558307891e-11
2.746883724e-11
2.116424975e-11
3.425806962e-11
4.071190641e-11
4.894292672e-11
5.61350559e-11
5.849845525e-11
5.384504275e-11
4.412685591e-11
3.364647866e-11
2.603894772e-11
5.256442599e-11
6.083667276e-11
7.042280582e-11
7.701937936e-11
7.622263292e-11
6.722208304e-11
5.392048846e-11
4.109915064e-11
3.213891953e-11
7.75938116e-11
8.727097975e-11
9.70602487e-11
1.012649213e-10
9.582310876e-11
8.20632783e-11
6.531023602e-11
5.019254049e-11
3.980308645e-11
1.094698211e-10
1.195526482e-10
1.278256189e-10
1.278539148e-10
1.169817625e-10
9.865722776e-11
7.873770821e-11
6.13582264e-11
4.944238352e-11
1.469642954e-10
1.560678322e-10
1.611071213e-10
1.55908554e-10
1.397533412e-10
1.174701751e-10
9.4717046e-11
7.509806382e-11
6.154637384e-11
1.87703789e-10
1.946011121e-10
1.954366483e-10
1.850925829e-10
1.645384401e-10
1.390765678e-10
1.138242427e-10
9.198656174e-11
7.668562649e-11
2.291458648e-10
2.333247892e-10
2.301146389e-10
2.156655151e-10
1.919497152e-10
1.641106892e-10
1.366905263e-10
1.126686167e-10
9.550956685e-11
2.696885934e-10
2.715013854e-10
2.653173916e-10
2.48277553e-10
2.226881429e-10
1.932390736e-10
1.639943888e-10
1.378517353e-10
1.187389247e-10
3.090894617e-10
3.094680409e-10
3.017912126e-10
2.837325922e-10
2.574676914e-10
2.271417748e-10
1.964480143e-10
1.682916997e-10
1.47151566e-10
3.481099625e-10
3.481723851e-10
3.404880971e-10
3.228349186e-10
2.969757353e-10
2.66495513e-10
2.347779838e-10
2.047709658e-10
1.81560628e-10
3.879258961e-10
3.887222003e-10
3.823343024e-10
3.663164892e-10
3.418512766e-10
3.119521573e-10
2.796988404e-10
2.480690541e-10
2.227841881e-10
4.297150276e-10
4.321335911e-10
4.281298316e-10
4.148078771e-10
3.926670037e-10
3.64112574e-10
3.318795611e-10
2.989248476e-10
2.716063139e-10
4.744762089e-10
4.792392778e-10
4.785190315e-10
4.688304347e-10
4.499085699e-10
4.234945038e-10
3.919032895e-10
3.579914447e-10
3.287301574e-10
5.229864768e-10
5.306758496e-10
5.339975274e-10
5.287853942e-10
5.139494187e-10
4.904953428e-10
4.602217538e-10
4.257852398e-10
3.947248031e-10
5.758173162e-10
5.8690719e-10
5.949138199e-10
5.949400639e-10
5.850213515e-10
5.653517348e-10
5.371068878e-10
5.026320843e-10
4.699687903e-10
6.333653012e-10
6.482356064e-10
6.614675469e-10
6.674089062e-10
6.631829806e-10
6.480990036e-10
6.226032962e-10
5.886145733e-10
5.545944896e-10
6.958647977e-10
7.148075846e-10
7.337004808e-10
7.461320232e-10
7.482894171e-10
7.385343869e-10
7.16486173e-10
6.835255481e-10
6.484386178e-10
7.633936751e-10
7.86610435e-10
8.11483537e-10
8.308548122e-10
8.399671912e-10
8.361886204e-10
8.18229871e-10
7.868335332e-10
7.51004869e-10
8.358701962e-10
8.634642433e-10
8.945041483e-10
9.211128302e-10
9.375985575e-10
9.403104972e-10
9.269923153e-10
8.97665783e-10
8.614446316e-10
9.130464861e-10
9.450139536e-10
9.822581758e-10
1.016225627e-09
1.04031896e-09
1.049868447e-09
1.041619659e-09
1.014813695e-09
9.785608343e-10
9.945033399e-10
1.030725747e-09
1.074049856e-09
1.11530259e-09
1.147030487e-09
1.163571879e-09
1.160673932e-09
1.136763474e-09
1.100838024e-09
1.079650202e-09
1.119890976e-09
1.169002351e-09
1.217262725e-09
1.256432636e-09
1.279913068e-09
1.282484047e-09
1.261752223e-09
1.226498953e-09
1.16773317e-09
1.211639864e-09
1.266080283e-09
1.320868797e-09
1.367069795e-09
1.39722795e-09
1.405217651e-09
1.387846468e-09
1.35358463e-09
1.257852784e-09
1.304966013e-09
1.364124256e-09
1.424774572e-09
1.477392756e-09
1.513771726e-09
1.526968501e-09
1.513036994e-09
1.480051486e-09
1.348992168e-09
1.398761414e-09
1.46189586e-09
1.527582182e-09
1.585829658e-09
1.627803014e-09
1.645851704e-09
1.635341419e-09
1.603876766e-09
1.440054722e-09
1.491860313e-09
1.558130278e-09
1.627905254e-09
1.690860353e-09
1.737668986e-09
1.760097898e-09
1.752904655e-09
1.723161884e-09
1.529909321e-09
1.583089057e-09
1.651592512e-09
1.724432503e-09
1.791087585e-09
1.841883617e-09
1.868137484e-09
1.864087629e-09
1.836223764e-09
1.617439822e-09
1.671318113e-09
1.741132619e-09
1.815986326e-09
1.885298682e-09
1.939192035e-09
1.968667348e-09
1.967536307e-09
1.94166593e-09
1.701594967e-09
1.755512029e-09
1.825735336e-09
1.901571475e-09
1.972512646e-09
2.028615844e-09
2.060694938e-09
2.062225858e-09
2.038424055e-09
1.781434513e-09
1.834773156e-09
1.90456005e-09
1.980410019e-09
2.052009361e-09
2.109476692e-09
2.14355756e-09
2.147478136e-09
2.125784167e-09
1.856167716e-09
1.908375616e-09
1.976968153e-09
2.0519605e-09
2.123339796e-09
2.181398069e-09
2.21691777e-09
2.222953921e-09
2.203375074e-09
1.925181111e-09
1.975787056e-09
2.042536265e-09
2.115920904e-09
2.186318194e-09
2.244287616e-09
2.280738252e-09
2.288624019e-09
2.271139278e-09
1.988053726e-09
2.036677101e-09
2.101055286e-09
2.172216763e-09
2.240998969e-09
2.298304022e-09
2.335241325e-09
2.344724955e-09
2.32928835e-09
2.044559258e-09
2.090912789e-09
2.152516691e-09
2.220977042e-09
2.287642219e-09
2.343813534e-09
2.380858935e-09
2.391705671e-09
2.378249289e-09
2.094656085e-09
2.138542591e-09
2.197088542e-09
2.262501269e-09
2.326672277e-09
2.381341267e-09
2.4181789e-09
2.430171258e-09
2.418608024e-09
2.138467155e-09
2.179771516e-09
2.235084365e-09
2.297221703e-09
2.358633621e-09
2.411522051e-09
2.447892342e-09
2.460828799e-09
2.451055163e-09
2.176252547e-09
2.214930399e-09
2.266928283e-09
2.325664184e-09
2.384147917e-09
2.435054591e-09
2.470746062e-09
2.484438994e-09
2.476337634e-09
2.208377872e-09
2.244442551e-09
2.29311958e-09
2.348410726e-09
2.403875102e-09
2.4526616e-09
2.487502247e-09
2.501775798e-09
2.495218419e-09
2.235281575e-09
2.268790708e-09
2.314199394e-09
2.366066219e-09
2.41848042e-09
2.465057403e-09
2.498906655e-09
2.513594997e-09
2.50844522e-09
2.257443827e-09
2.288486674e-09
2.330721508e-09
2.379230724e-09
2.42860838e-09
2.47292347e-09
2.50566536e-09
2.520611574e-09
2.516727883e-09
2.275359027e-09
2.30404535e-09
2.343228493e-09
2.388478053e-09
2.434863797e-09
2.476891585e-09
2.508429398e-09
2.52348503e-09
2.520723664e-09
2.289513224e-09
2.315964102e-09
2.35223369e-09
2.394340651e-09
2.437799448e-09
2.477533781e-09
2.507786208e-09
2.522811392e-09
2.521029094e-09
2.300367031e-09
2.324707769e-09
2.358208949e-09
2.397300283e-09
2.437909506e-09
2.475357938e-09
2.50425657e-09
2.519120613e-09
2.518177105e-09
2.308344e-09
2.330699042e-09
2.361577584e-09
2.397783714e-09
2.435627678e-09
2.470807831e-09
2.498295811e-09
2.512878144e-09
2.512638354e-09
2.313823969e-09
2.334313554e-09
2.362711699e-09
2.396162343e-09
2.431328866e-09
2.464266218e-09
2.490297528e-09
2.50448831e-09
2.504823249e-09
2.317140539e-09
2.335878796e-09
2.361932873e-09
2.392754653e-09
2.425333004e-09
2.456059208e-09
2.480596281e-09
2.494287748e-09
2.49503353e-09
2.318581758e-09
2.335675852e-09
2.359515201e-09
2.387830543e-09
2.417910588e-09
2.446463566e-09
2.469481646e-09
2.482593737e-09
2.483685526e-09
2.318393037e-09
2.333943045e-09
2.355689796e-09
2.381616572e-09
2.409288106e-09
2.43571003e-09
2.457187269e-09
2.469612221e-09
2.470992966e-09
2.316781466e-09
2.330880709e-09
2.350650102e-09
2.374301828e-09
2.399654876e-09
2.423994669e-09
2.443930465e-09
2.455647933e-09
2.457197198e-09
2.313920834e-09
2.326656451e-09
2.344557391e-09
2.366043396e-09
2.389166839e-09
2.411471242e-09
2.429834216e-09
2.440840198e-09
2.44248383e-09
2.309956809e-09
2.32141042e-09
2.337546171e-09
2.356972306e-09
2.377956562e-09
2.398288663e-09
2.415133292e-09
2.425357171e-09
2.427021627e-09
2.305011833e-09
2.315260057e-09
2.3297283e-09
2.347194853e-09
2.366121095e-09
2.384510793e-09
2.399906322e-09
2.409325677e-09
2.410952947e-09
2.29918942e-09
2.308304013e-09
2.321196045e-09
2.33679416e-09
2.353724809e-09
2.370318585e-09
2.38426673e-09
2.392861126e-09
2.394401639e-09
2.292577402e-09
2.300624328e-09
2.312021166e-09
2.325820253e-09
2.340927048e-09
2.35577219e-09
2.368300444e-09
2.376061182e-09
2.377474276e-09
2.285249366e-09
2.292285022e-09
2.302245047e-09
2.314420609e-09
2.327772145e-09
2.340933543e-09
2.352081587e-09
2.359009738e-09
2.360262817e-09
2.277262162e-09
2.283322296e-09
2.29200865e-09
2.302631232e-09
2.314309713e-09
2.325860228e-09
2.335674894e-09
2.341779237e-09
2.342846764e-09
2.268645744e-09
2.273873292e-09
2.281343547e-09
2.290495186e-09
2.300587759e-09
2.310603947e-09
2.319136769e-09
2.324432285e-09
2.325294875e-09
2.259550385e-09
2.263968739e-09
2.270289947e-09
2.278055707e-09
2.286650593e-09
2.295210568e-09
2.302516293e-09
2.307022986e-09
2.307666598e-09
2.249990124e-09
2.253645769e-09
2.258889019e-09
2.265353768e-09
2.272538472e-09
2.279720675e-09
2.285856184e-09
2.289598096e-09
2.290013305e-09
2.24000181e-09
2.242944892e-09
2.247180807e-09
2.252427511e-09
2.25828785e-09
2.264170215e-09
2.269193669e-09
2.272198013e-09
2.272379345e-09
2.229626699e-09
2.231906415e-09
2.235203347e-09
2.239312253e-09
2.243931763e-09
2.248591097e-09
2.252561215e-09
2.254857625e-09
2.254802959e-09
2.218905486e-09
2.220568966e-09
2.22299239e-09
2.226040653e-09
2.229500211e-09
2.233011709e-09
2.235987163e-09
2.237607026e-09
2.23731705e-09
2.207877017e-09
2.208969077e-09
2.210581414e-09
2.21264292e-09
2.215020486e-09
2.217457343e-09
2.219496251e-09
2.220472134e-09
2.219949864e-09
2.196578036e-09
2.197141152e-09
2.198001738e-09
2.199147018e-09
2.200517453e-09
2.201950562e-09
2.203110059e-09
2.203475217e-09
2.20272557e-09
2.185043192e-09
2.185117539e-09
2.185282645e-09
2.185578843e-09
2.186013781e-09
2.186511495e-09
2.186847394e-09
2.186635343e-09
2.185664762e-09
2.173305114e-09
2.172928619e-09
2.172451498e-09
2.171962366e-09
2.171530137e-09
2.171158096e-09
2.170724604e-09
2.169968773e-09
2.1687849e-09
2.161394479e-09
2.160602887e-09
2.159533831e-09
2.158319761e-09
2.157085354e-09
2.155906359e-09
2.154755863e-09
2.153489301e-09
2.152100694e-09
2.149340082e-09
2.148167026e-09
2.146553441e-09
2.144671505e-09
2.142696567e-09
2.140770506e-09
2.138953413e-09
2.137208547e-09
2.135624439e-09
2.137168893e-09
2.135645965e-09
2.133532457e-09
2.131036482e-09
2.12837934e-09
2.125763151e-09
2.123327769e-09
2.121136215e-09
2.119366307e-09
2.124906114e-09
2.123062944e-09
2.120491409e-09
2.11743206e-09
2.114147777e-09
2.110895445e-09
2.107887906e-09
2.105280319e-09
2.103334605e-09
2.112575237e-09
2.110439575e-09
2.107449298e-09
2.103874173e-09
2.10001462e-09
2.096177202e-09
2.092641423e-09
2.08964738e-09
2.087536e-09
2.1001981e-09
2.097795896e-09
2.09442366e-09
2.090377401e-09
2.085991343e-09
2.081617014e-09
2.077594681e-09
2.074242599e-09
2.071975717e-09
2.087794952e-09
2.085150438e-09
2.08143063e-09
2.076955035e-09
2.072088237e-09
2.067222356e-09
2.062752936e-09
2.059070011e-09
2.056657715e-09
2.075384509e-09
2.072520287e-09
2.068485008e-09
2.063619155e-09
2.058314488e-09
2.05299968e-09
2.048120443e-09
2.044132618e-09
2.041584835e-09
2.062984023e-09
2.059921145e-09
2.055600322e-09
2.050380689e-09
2.044678252e-09
2.038954497e-09
2.033700567e-09
2.029432507e-09
2.026758941e-09
2.050609347e-09
2.047367398e-09
2.042788896e-09
2.037249488e-09
2.031186724e-09
2.025091458e-09
2.019495864e-09
2.01497096e-09
2.012181038e-09
2.038275002e-09
2.034872179e-09
2.030061907e-09
2.02423438e-09
2.017846206e-09
2.011414423e-09
2.005508167e-09
2.000748539e-09
1.997851372e-09
2.025994239e-09
2.022447433e-09
2.017429455e-09
2.011343239e-09
2.004662168e-09
1.997926532e-09
1.991738659e-09
1.986765178e-09
1.983769528e-09
2.013779116e-09
2.010103981e-09
2.004900619e-09
1.998583042e-09
1.991639307e-09
1.984630257e-09
1.978187933e-09
1.97302025e-09
1.969934514e-09
2.001640552e-09
1.997851586e-09
1.992483519e-09
1.985959923e-09
1.978781601e-09
1.971527467e-09
1.96485606e-09
1.959512635e-09
1.956344826e-09
1.989588401e-09
1.98569901e-09
1.980185376e-09
1.973479232e-09
1.966092364e-09
1.958619475e-09
1.951742637e-09
1.946240781e-09
1.94299852e-09
1.977631511e-09
1.97365408e-09
1.968012566e-09
1.961145589e-09
1.953574295e-09
1.945907087e-09
1.938846835e-09
1.933202752e-09
1.92989327e-09
1.965777787e-09
1.961723742e-09
1.955970677e-09
1.94896293e-09
1.941229526e-09
1.933390647e-09
1.926167451e-09
1.92039628e-09
1.917026412e-09
1.954034249e-09
1.949914122e-09
1.944064563e-09
1.936934559e-09
1.929059663e-09
1.921070079e-09
1.91370294e-09
1.907818804e-09
1.904395e-09
1.942407095e-09
1.938230578e-09
1.93229839e-09
1.925063194e-09
1.917065832e-09
1.908944925e-09
1.90145146e-09
1.895467511e-09
1.891995838e-09
1.93090175e-09
1.926677755e-09
1.920675691e-09
1.91335101e-09
1.905248719e-09
1.897014384e-09
1.889410899e-09
1.883339368e-09
1.879825523e-09
1.919522927e-09
1.915259633e-09
1.909199407e-09
1.901799682e-09
1.893608601e-09
1.885277341e-09
1.877578913e-09
1.871431154e-09
1.867880473e-09
1.90827467e-09
1.903979578e-09
1.897871937e-09
1.890410425e-09
1.882145392e-09
1.873732401e-09
1.865952949e-09
1.85973949e-09
1.856156962e-09
1.897160409e-09
1.892840385e-09
1.886695173e-09
1.87918403e-09
1.870858665e-09
1.862377918e-09
1.854530278e-09
1.848260861e-09
1.844651141e-09
1.886183005e-09
1.881844327e-09
1.875670547e-09
1.868120901e-09
1.859747691e-09
1.851212022e-09
1.84330801e-09
1.836991644e-09
1.833359064e-09
1.875344791e-09
1.870993189e-09
1.864799067e-09
1.857221092e-09
1.848811465e-09
1.840232644e-09
1.832283126e-09
1.825928123e-09
1.822276711e-09
1.864647619e-09
1.860288316e-09
1.854081349e-09
1.846484331e-09
1.838048735e-09
1.829437538e-09
1.82145249e-09
1.81506651e-09
1.811400003e-09
1.854092897e-09
1.849730641e-09
1.843517657e-09
1.835910057e-09
1.827458024e-09
1.818824307e-09
1.810812874e-09
1.804402967e-09
1.800724823e-09
1.843681624e-09
1.839320728e-09
1.83310793e-09
1.825497443e-09
1.817037658e-09
1.808390418e-09
1.800360971e-09
1.793933611e-09
1.790247028e-09
1.833414429e-09
1.829058801e-09
1.822851813e-09
1.815245428e-09
1.806785788e-09
1.798133222e-09
1.79009341e-09
1.783654539e-09
1.779962466e-09
1.823291601e-09
1.818944775e-09
1.812748686e-09
1.805152735e-09
1.796700407e-09
1.788049973e-09
1.780006776e-09
1.773561831e-09
1.769866983e-09
1.813313121e-09
1.808978284e-09
1.80279769e-09
1.795217896e-09
1.786779373e-09
1.778137842e-09
1.770097615e-09
1.763651568e-09
1.75995644e-09
1.803478692e-09
1.799158711e-09
1.79299775e-09
1.785439275e-09
1.777020424e-09
1.76839393e-09
1.760362449e-09
1.753919836e-09
1.750226717e-09
1.793787762e-09
1.789485208e-09
1.783347597e-09
1.775815084e-09
1.767421193e-09
1.758815282e-09
1.750797787e-09
1.744362739e-09
1.740673722e-09
1.784239549e-09
1.779956723e-09
1.773845787e-09
1.766343401e-09
1.757979226e-09
1.749398898e-09
1.74140013e-09
1.734976399e-09
1.731293396e-09
1.774833067e-09
1.770572015e-09
1.764490722e-09
1.757022184e-09
1.748691986e-09
1.740141738e-09
1.732165975e-09
1.725756965e-09
1.722081716e-09
1.765567136e-09
1.761329675e-09
1.755280661e-09
1.747849285e-09
1.739556867e-09
1.731040728e-09
1.723091822e-09
1.716700606e-09
1.713034693e-09
1.756440404e-09
1.752228136e-09
1.746213729e-09
1.73882245e-09
1.730571194e-09
1.72209276e-09
1.714174163e-09
1.707803512e-09
1.704148363e-09
1.747451354e-09
1.74326568e-09
1.737287923e-09
1.729939325e-09
1.72173222e-09
1.713294681e-09
1.705409473e-09
1.699061869e-09
1.695418771e-09
1.738598303e-09
1.734440441e-09
1.728501111e-09
1.721197446e-09
1.713037109e-09
1.704643276e-09
1.696794183e-09
1.690471837e-09
1.686841938e-09
1.729879405e-09
1.725750394e-09
1.719851013e-09
1.712594221e-09
1.704482916e-09
1.696135233e-09
1.688324642e-09
1.682029497e-09
1.678413808e-09
1.721292623e-09
1.717193332e-09
1.711335177e-09
1.70412689e-09
1.696066532e-09
1.687767082e-09
1.67999704e-09
1.673730774e-09
1.670130162e-09
1.712835702e-09
1.708766828e-09
1.702950927e-09
1.695792466e-09
1.687784617e-09
1.67953511e-09
1.671807311e-09
1.665571315e-09
1.661986495e-09
1.704506105e-09
1.700468166e-09
1.694695284e-09
1.68758764e-09
1.679633479e-09
1.671435221e-09
1.663750968e-09
1.657546318e-09
1.653977822e-09
1.696300925e-09
1.692294241e-09
1.686564854e-09
1.679508646e-09
1.671608919e-09
1.663462747e-09
1.655822889e-09
1.649650276e-09
1.646098412e-09
1.688216759e-09
1.68424142e-09
1.678555661e-09
1.671551065e-09
1.663705996e-09
1.655612176e-09
1.648016994e-09
1.641876631e-09
1.638341419e-09
1.680249527e-09
1.676305338e-09
1.670662918e-09
1.663709563e-09
1.655918718e-09
1.64787679e-09
1.640325833e-09
1.634217299e-09
1.63069837e-09
1.672394224e-09
1.668480635e-09
1.662880726e-09
1.655977531e-09
1.648239623e-09
1.640248173e-09
1.632740022e-09
1.626662051e-09
1.623158511e-09
1.664644605e-09
1.660760597e-09
1.655201671e-09
1.648346629e-09
1.640659243e-09
1.632715589e-09
1.625247526e-09
1.619197711e-09
1.615707951e-09
1.656992758e-09
1.653136706e-09
1.647616311e-09
1.640806192e-09
1.63316542e-09
1.625265189e-09
1.617832758e-09
1.611807157e-09
1.608328601e-09
1.64942859e-09
1.645598067e-09
1.64011254e-09
1.633342499e-09
1.62574246e-09
1.617879042e-09
1.610475477e-09
1.604468099e-09
1.600996882e-09
1.641939167e-09
1.638130706e-09
1.632674799e-09
1.625937885e-09
1.618370114e-09
1.610533964e-09
1.603149466e-09
1.59715163e-09
1.593682188e-09
1.634507939e-09
1.630716723e-09
1.625283146e-09
1.618569685e-09
1.61102238e-09
1.603200161e-09
1.595821007e-09
1.589820548e-09
1.586345129e-09
1.627113808e-09
1.623333305e-09
1.617912161e-09
1.611209012e-09
1.603666124e-09
1.595839673e-09
1.588447152e-09
1.582427483e-09
1.578935553e-09
1.619730065e-09
1.615951582e-09
1.610529706e-09
1.603819381e-09
1.596259543e-09
1.588404667e-09
1.580973842e-09
1.574912859e-09
1.571390428e-09
1.61232318e-09
1.608535358e-09
1.603095543e-09
1.596355199e-09
1.588750506e-09
1.58083561e-09
1.573333914e-09
1.567202769e-09
1.563631638e-09
1.604851484e-09
1.601039717e-09
1.595559858e-09
1.588760166e-09
1.581074817e-09
1.573059392e-09
1.565445097e-09
1.559206867e-09
1.555563813e-09
1.597263756e-09
1.593409564e-09
1.587861713e-09
1.580965639e-09
1.573154482e-09
1.564987497e-09
1.557208101e-09
1.550816401e-09
1.547072344e-09
1.58949778e-09
1.585578132e-09
1.579927511e-09
1.572889037e-09
1.564896066e-09
1.556514338e-09
1.548504942e-09
1.541902548e-09
1.538021742e-09
1.581478903e-09
1.577465543e-09
1.57166954e-09
1.564432399e-09
1.556189281e-09
1.547515887e-09
1.539197666e-09
1.53231525e-09
1.528254566e-09
1.573118713e-09
1.56897749e-09
1.562984708e-09
1.555481186e-09
1.546905909e-09
1.537848792e-09
1.529127673e-09
1.521882766e-09
1.517591137e-09
1.564313888e-09
1.560004167e-09
1.553753576e-09
1.545903496e-09
1.536899264e-09
1.527350133e-09
1.518115851e-09
1.510412164e-09
1.505830306e-09
1.554945364e-09
1.550419547e-09
1.543839837e-09
1.535549821e-09
1.526004321e-09
1.515838044e-09
1.50596373e-09
1.497691012e-09
1.492751515e-09
1.544877923e-09
1.540081151e-09
1.533090372e-09
1.524253515e-09
1.514038732e-09
1.503113379e-09
1.492455884e-09
1.48349049e-09
1.478118409e-09
1.533960351e-09
1.528830459e-09
1.521336052e-09
1.511832138e-09
1.500804879e-09
1.488962611e-09
1.477363773e-09
1.467570121e-09
1.46168419e-09
1.522026291e-09
1.51649408e-09
1.508393413e-09
1.498089835e-09
1.486093124e-09
1.473162142e-09
1.460451181e-09
1.449684286e-09
1.443198872e-09
1.508895949e-09
1.502885861e-09
1.494067375e-09
1.482820876e-09
1.469686406e-09
1.455484117e-09
1.441481351e-09
1.429590596e-09
1.422418496e-09
1.494378762e-09
1.487810014e-09
1.478155084e-09
1.465814467e-09
1.451366244e-09
1.435703806e-09
1.420225831e-09
1.407060084e-09
1.399116246e-09
1.478277137e-09
1.471065392e-09
1.460450989e-09
1.446860885e-09
1.43092017e-09
1.413608525e-09
1.396474947e-09
1.381889094e-09
1.37309527e-09
1.460391342e-09
1.452450946e-09
1.440753159e-09
1.425758928e-09
1.408150539e-09
1.389007961e-09
1.370049678e-09
1.353912553e-09
1.344202869e-09
1.440525557e-09
1.431772372e-09
1.418870811e-09
1.402324574e-09
1.382884534e-09
1.361745652e-09
1.340814615e-09
1.323018199e-09
1.312345544e-09
1.418495034e-09
1.408849859e-09
1.394632907e-09
1.376400658e-09
1.354985082e-09
1.331711218e-09
1.308691473e-09
1.289161203e-09
1.277504303e-09
1.39413426e-09
1.383526769e-09
1.367897583e-09
1.347867216e-09
1.324362214e-09
1.298852775e-09
1.273672548e-09
1.252378619e-09
1.239750005e-09
1.367305886e-09
1.355678982e-09
1.338562052e-09
1.316652012e-09