/*--------------------------------*- C++ -*----------------------------------*\
| =========                 |                                                 |
| \\      /  F ield         | OpenFOAM: The Open Source CFD Toolbox           |
|  \\    /   O peration     | Version:  2212                                  |
|   \\  /    A nd           | Website:  www.openfoam.com                      |
|    \\/     M anipulation  |                                                 |
\*---------------------------------------------------------------------------*/
FoamFile
{
    version     2.0;
    format      ascii;
    arch        "LSB;label=32;scalar=64";
    class       volScalarField;
    location    "20.00000000";
    object      SC3H5_0;
}
// * * * * * * * * * * * * * * * * * * * * * * * * * * * * * * * * * * * * * //

dimensions      [0 0 0 0 0 0 0];

internalField   nonuniform List<scalar> 
3000
(
3.789229096e-30
4.700657988e-30
6.157968959e-30
8.248157418e-30
1.106046468e-29
1.462720737e-29
1.881041459e-29
2.311036566e-29
2.63894949e-29
1.596950461e-29
1.995704841e-29
2.633253933e-29
3.549533918e-29
4.792557189e-29
6.410233462e-29
8.433113528e-29
1.082533741e-28
1.317353144e-28
4.115580913e-29
5.208446952e-29
6.974359867e-29
9.561786134e-29
1.318357034e-28
1.811763619e-28
2.465120904e-28
3.281984377e-28
4.084606657e-28
8.99458435e-29
1.15693142e-28
1.581134197e-28
2.221563899e-28
3.153567606e-28
4.479512001e-28
6.305896379e-28
8.62486149e-28
1.081483164e-27
1.829523964e-28
2.400329752e-28
3.36375352e-28
4.865272846e-28
7.128852569e-28
1.045589219e-27
1.512386613e-27
2.097661212e-27
2.623565913e-27
3.604288432e-28
4.832671077e-28
6.957920436e-28
1.036841984e-27
1.565951789e-27
2.360267517e-27
3.480386751e-27
4.85636183e-27
6.041318157e-27
7.030055148e-28
9.637188144e-28
1.425088354e-27
2.183904273e-27
3.386613344e-27
5.214647576e-27
7.78791043e-27
1.088754038e-26
1.345474951e-26
1.372438421e-27
1.921514858e-27
2.91216416e-27
4.573775024e-27
7.24833748e-27
1.134301189e-26
1.709040121e-26
2.393705401e-26
2.960273224e-26
2.695946542e-27
3.847213625e-27
5.957334607e-27
9.549874895e-27
1.539280633e-26
2.436470846e-26
3.688825101e-26
5.161010088e-26
6.354226599e-26
5.337449142e-27
7.74390626e-27
1.221023986e-26
1.990001717e-26
3.249470996e-26
5.185414215e-26
7.874129527e-26
1.100478956e-25
1.351487764e-25
1.064894393e-26
1.566757049e-26
2.50739977e-26
4.140542493e-26
6.828171867e-26
1.095987023e-25
1.667414243e-25
2.328130736e-25
2.853925541e-25
2.138930129e-26
3.183553011e-26
5.156568173e-26
8.603695899e-26
1.429529616e-25
2.304252798e-25
3.509911584e-25
4.896609027e-25
5.994017602e-25
4.319831974e-26
6.490626941e-26
1.061531078e-25
1.785596089e-25
2.98388205e-25
4.824669284e-25
7.354939184e-25
1.025336319e-24
1.253750215e-24
8.761932391e-26
1.326643544e-25
2.186566873e-25
3.70159555e-25
6.213064139e-25
1.006930705e-24
1.535827528e-24
2.139763067e-24
2.614156613e-24
1.783018534e-25
2.71653398e-25
4.50527081e-25
7.665547918e-25
1.291077472e-24
2.09609167e-24
3.198231295e-24
4.453585578e-24
5.437130973e-24
3.637331544e-25
5.569798655e-25
9.2836125e-25
1.585946178e-24
2.678365419e-24
4.354262607e-24
6.645373305e-24
9.249676052e-24
1.128580503e-23
7.433778703e-25
1.143030397e-24
1.912902679e-24
3.278437893e-24
5.54851522e-24
9.029737338e-24
1.378308285e-23
1.917708181e-23
2.338689234e-23
1.52135078e-24
2.347175364e-24
3.941042046e-24
6.771998421e-24
1.148063533e-23
1.869881715e-23
2.854431538e-23
3.970064796e-23
4.839460057e-23
3.116619242e-24
4.82180947e-24
8.117947e-24
1.397877496e-23
2.3730513e-23
3.867415136e-23
5.903781794e-23
8.208314759e-23
1.000178232e-22
6.389224996e-24
9.90783126e-24
1.67177421e-23
2.883667833e-23
4.900603454e-23
7.99017714e-23
1.219659569e-22
1.695129122e-22
2.064690599e-22
1.31044911e-23
2.036056538e-23
3.441787121e-23
5.945044606e-23
1.011165564e-22
1.649137758e-22
2.516964718e-22
3.496768187e-22
4.2573854e-22
2.68849407e-23
4.18394391e-23
7.083351318e-23
1.224886189e-22
2.084659765e-22
3.400435606e-22
5.188627909e-22
7.205142645e-22
8.76855205e-22
5.516081316e-23
8.596260935e-23
1.45717058e-22
2.522050684e-22
4.294212871e-22
7.004580085e-22
1.068432759e-21
1.482860041e-21
1.803722419e-21
1.131603584e-22
1.765588881e-22
2.996017641e-22
5.189033112e-22
8.837523019e-22
1.441333908e-21
2.197451438e-21
3.047784005e-21
3.705112134e-21
2.320625658e-22
3.624483263e-22
6.155652708e-22
1.066682005e-21
1.816849233e-21
2.962234125e-21
4.513337325e-21
6.254770822e-21
7.598508551e-21
4.756243644e-22
7.435216256e-22
1.26364525e-21
2.190433691e-21
3.730577664e-21
6.079419319e-21
9.255149035e-21
1.281354638e-20
1.555349108e-20
9.740047184e-22
1.523809579e-21
2.591208373e-21
4.492393459e-21
7.648984357e-21
1.245619194e-20
1.894320804e-20
2.619502152e-20
3.176495514e-20
1.992387521e-21
3.119181465e-21
5.30629709e-21
9.199452977e-21
1.565593159e-20
2.547148387e-20
3.86864281e-20
5.341875715e-20
6.470106712e-20
4.069750506e-21
6.375161303e-21
1.084826529e-20
1.880380831e-20
3.197830622e-20
5.196482051e-20
7.879939735e-20
1.086182373e-19
1.313756464e-19
8.298453597e-21
1.300576077e-20
2.213393768e-20
3.835060816e-20
6.515760624e-20
1.057225616e-19
1.60009834e-19
2.201055763e-19
2.657873051e-19
1.688521778e-20
2.647373924e-20
4.50527517e-20
7.801287795e-20
1.323791912e-19
2.144001231e-19
3.237500491e-19
4.442680047e-19
5.354614252e-19
3.427156838e-20
5.374778264e-20
9.144706721e-20
1.582113114e-19
2.680490081e-19
4.331719991e-19
6.523433405e-19
8.926832831e-19
1.073604264e-18
6.936060573e-20
1.087915933e-19
1.85018779e-19
3.197301898e-19
5.406679574e-19
8.71445334e-19
1.308275529e-18
1.78456988e-18
2.141044425e-18
1.39918988e-19
2.194522113e-19
3.729624482e-19
6.435682661e-19
1.085782841e-18
1.744712756e-18
2.609926287e-18
3.547308848e-18
4.244430703e-18
2.81230097e-19
4.409761814e-19
7.487235662e-19
1.289607087e-18
2.16981411e-18
3.47432789e-18
5.17625963e-18
7.007242885e-18
8.35957259e-18
5.63004122e-19
8.823600964e-19
1.496205776e-18
2.571348543e-18
4.312645508e-18
6.877744825e-18
1.020061276e-17
1.37482496e-17
1.634924278e-17
1.122223431e-18
1.757377935e-18
2.97500507e-18
5.099190253e-18
8.52099435e-18
1.352782973e-17
1.996369022e-17
2.677888781e-17
3.173694157e-17
2.226543281e-18
3.482710269e-18
5.883483679e-18
1.005277781e-17
1.672863891e-17
2.642500769e-17
3.878528284e-17
5.17613493e-17
6.112576797e-17
4.39589719e-18
6.865313752e-18
1.156830803e-17
1.969425661e-17
3.261920845e-17
5.124254574e-17
7.477271285e-17
9.92533775e-17
1.167753744e-16
8.634235951e-18
1.345759121e-17
2.260726171e-17
3.832703974e-17
6.314976325e-17
9.861176611e-17
1.43002483e-16
1.887600122e-16
2.212396221e-16
1.686822739e-17
2.622563655e-17
4.389757485e-17
7.407097246e-17
1.2134603e-16
1.882765981e-16
2.712570522e-16
3.559916597e-16
4.156416944e-16
3.277206796e-17
5.07968824e-17
8.467111818e-17
1.421196117e-16
2.313835591e-16
3.565779715e-16
5.102785161e-16
6.657588238e-16
7.743240985e-16
6.330704496e-17
9.777079954e-17
1.621931604e-16
2.706621691e-16
4.377387486e-16
6.698162233e-16
9.519424749e-16
1.234706009e-15
1.430601745e-15
1.215728779e-16
1.869616228e-16
3.084882029e-16
5.115463315e-16
8.215121024e-16
1.247891782e-15
1.761205163e-15
2.271104586e-15
2.621748793e-15
2.320434698e-16
3.551154814e-16
5.824471814e-16
9.592778567e-16
1.529246377e-15
2.305726601e-15
3.231779904e-15
4.144005901e-15
4.767129928e-15
4.400904471e-16
6.698024484e-16
1.091380444e-15
1.784486291e-15
2.823220961e-15
4.225045332e-15
5.882210163e-15
7.502431245e-15
8.603038973e-15
8.29128333e-16
1.254144398e-15
2.028922479e-15
3.292122157e-15
5.168083829e-15
7.677151385e-15
1.061957783e-14
1.347847768e-14
1.541315325e-14
1.55114955e-15
2.330317302e-15
3.740853308e-15
6.02129883e-15
9.377940463e-15
1.38297269e-14
1.901389853e-14
2.402728345e-14
2.741483471e-14
2.880533364e-15
4.295220714e-15
6.838021488e-15
1.091437972e-14
1.686261349e-14
2.468964531e-14
3.37489885e-14
4.248035606e-14
4.838015688e-14
5.307971237e-15
7.850818683e-15
1.238814802e-14
1.96004539e-14
3.003566233e-14
4.366455397e-14
5.935040313e-14
7.441287532e-14
8.453590005e-14
9.703166514e-15
1.42269965e-14
2.223937019e-14
3.486773673e-14
5.298730095e-14
7.648003855e-14
1.033563395e-13
1.28980883e-13
1.457600383e-13
1.7595169e-14
2.556077706e-14
3.956375112e-14
6.144809846e-14
9.259076361e-14
1.326690604e-13
1.781550767e-13
2.207226023e-13
2.481701874e-13
3.1654183e-14
4.554036272e-14
6.976884987e-14
1.073171188e-13
1.60312406e-13
2.279577451e-13
3.03731984e-13
3.727651312e-13
4.165362238e-13
5.652034474e-14
8.050068945e-14
1.220295086e-13
1.858456822e-13
2.751234009e-13
3.878053405e-13
5.10552693e-13
6.200063896e-13
6.86876865e-13
1.002360458e-13
1.412974656e-13
2.118637284e-13
3.193463785e-13
4.681056785e-13
6.518424102e-13
8.459567781e-13
1.012789816e-12
1.107498035e-12
1.766955038e-13
2.464712116e-13
3.654679979e-13
5.450253924e-13
7.900484732e-13
1.081225584e-12
1.379215656e-12
1.618584679e-12
1.735329227e-12
3.09912407e-13
4.277006458e-13
6.268782244e-13
9.235120542e-13
1.316294518e-12
1.769166767e-12
2.207775175e-12
2.519667183e-12
2.62467552e-12
5.414650085e-13
7.392253334e-13
1.070270118e-12
1.5531805e-12
2.169457935e-12
2.853518283e-12
3.461207867e-12
3.804307382e-12
3.809585454e-12
9.430595166e-13
1.27303267e-12
1.817665075e-12
2.58312469e-12
3.533603602e-12
4.528473097e-12
5.298868284e-12
5.551684815e-12
5.290703594e-12
1.636404892e-12
2.179766552e-12
3.050690755e-12
4.249394247e-12
5.678085325e-12
7.050940748e-12
7.895723388e-12
7.815274293e-12
7.043626666e-12
2.821492231e-12
3.692000453e-12
5.065510259e-12
6.904173442e-12
8.974116615e-12
1.072900582e-11
1.141110414e-11
1.061383157e-11
9.052935914e-12
4.798584214e-12
6.17769058e-12
8.307058385e-12
1.10446477e-11
1.389102528e-11
1.587953998e-11
1.59459455e-11
1.394178992e-11
1.135013623e-11
8.057671695e-12
1.02003914e-11
1.341265992e-11
1.73205964e-11
2.095061075e-11
2.27521596e-11
2.151507854e-11
1.78047228e-11
1.40289868e-11
1.33301448e-11
1.656478551e-11
2.122718307e-11
2.648799233e-11
3.06212685e-11
3.144518616e-11
2.807082719e-11
2.22649274e-11
1.723725014e-11
2.163571281e-11
2.632831453e-11
3.274782249e-11
3.927245093e-11
4.316335526e-11
4.187361624e-11
3.558307905e-11
2.746883734e-11
2.116424982e-11
3.425806984e-11
4.071190667e-11
4.894292701e-11
5.613505619e-11
5.84984555e-11
5.384504294e-11
4.412685607e-11
3.364647879e-11
2.603894781e-11
5.256442631e-11
6.083667312e-11
7.04228062e-11
7.701937971e-11
7.622263321e-11
6.722208326e-11
5.392048863e-11
4.109915079e-11
3.213891964e-11
7.759381203e-11
8.727098023e-11
9.706024916e-11
1.012649217e-10
9.582310908e-11
8.206327855e-11
6.531023622e-11
5.019254067e-11
3.980308658e-11
1.094698217e-10
1.195526488e-10
1.278256194e-10
1.278539153e-10
1.169817628e-10
9.865722804e-11
7.873770844e-11
6.135822661e-11
4.944238368e-11
1.46964296e-10
1.560678329e-10
1.611071218e-10
1.559085544e-10
1.397533415e-10
1.174701754e-10
9.471704628e-11
7.509806407e-11
6.154637404e-11
1.877037897e-10
1.946011129e-10
1.95436649e-10
1.850925834e-10
1.645384405e-10
1.390765682e-10
1.13824243e-10
9.198656205e-11
7.668562675e-11
2.291458655e-10
2.333247899e-10
2.301146395e-10
2.156655156e-10
1.919497156e-10
1.641106895e-10
1.366905267e-10
1.126686171e-10
9.550956717e-11
2.696885942e-10
2.715013861e-10
2.653173922e-10
2.482775535e-10
2.226881433e-10
1.93239074e-10
1.639943893e-10
1.378517357e-10
1.187389251e-10
3.090894625e-10
3.094680417e-10
3.017912132e-10
2.837325928e-10
2.574676919e-10
2.271417753e-10
1.964480148e-10
1.682917003e-10
1.471515665e-10
3.481099633e-10
3.481723859e-10
3.404880979e-10
3.228349192e-10
2.96975736e-10
2.664955137e-10
2.347779844e-10
2.047709665e-10
1.815606286e-10
3.87925897e-10
3.887222011e-10
3.823343032e-10
3.663164899e-10
3.418512773e-10
3.119521581e-10
2.796988412e-10
2.480690549e-10
2.227841888e-10
4.297150284e-10
4.32133592e-10
4.281298325e-10
4.148078779e-10
3.926670046e-10
3.641125749e-10
3.31879562e-10
2.989248486e-10
2.716063147e-10
4.744762098e-10
4.792392788e-10
4.785190325e-10
4.688304356e-10
4.499085709e-10
4.234945048e-10
3.919032906e-10
3.579914458e-10
3.287301584e-10
5.229864778e-10
5.306758507e-10
5.339975285e-10
5.287853953e-10
5.139494198e-10
4.904953439e-10
4.60221755e-10
4.257852411e-10
3.947248042e-10
5.758173173e-10
5.869071912e-10
5.949138211e-10
5.949400651e-10
5.850213527e-10
5.65351736e-10
5.371068891e-10
5.026320858e-10
4.699687916e-10
6.333653024e-10
6.482356077e-10
6.614675481e-10
6.674089075e-10
6.631829819e-10
6.48099005e-10
6.226032978e-10
5.886145749e-10
5.545944911e-10
6.95864799e-10
7.14807586e-10
7.337004822e-10
7.461320245e-10
7.482894185e-10
7.385343883e-10
7.164861747e-10
6.835255499e-10
6.484386194e-10
7.633936764e-10
7.866104364e-10
8.114835384e-10
8.308548137e-10
8.399671927e-10
8.36188622e-10
8.182298728e-10
7.868335352e-10
7.510048707e-10
8.358701975e-10
8.634642448e-10
8.945041498e-10
9.211128317e-10
9.375985591e-10
9.403104989e-10
9.269923172e-10
8.976657851e-10
8.614446334e-10
9.130464875e-10
9.450139552e-10
9.822581774e-10
1.016225628e-09
1.040318962e-09
1.049868449e-09
1.041619661e-09
1.014813697e-09
9.785608363e-10
9.945033414e-10
1.030725749e-09
1.074049858e-09
1.115302591e-09
1.147030489e-09
1.163571881e-09
1.160673934e-09
1.136763476e-09
1.100838026e-09
1.079650204e-09
1.119890978e-09
1.169002352e-09
1.217262726e-09
1.256432638e-09
1.27991307e-09
1.282484049e-09
1.261752225e-09
1.226498955e-09
1.167733171e-09
1.211639866e-09
1.266080285e-09
1.320868799e-09
1.367069796e-09
1.397227952e-09
1.405217653e-09
1.38784647e-09
1.353584632e-09
1.257852786e-09
1.304966015e-09
1.364124258e-09
1.424774573e-09
1.477392757e-09
1.513771727e-09
1.526968503e-09
1.513036996e-09
1.480051488e-09
1.34899217e-09
1.398761416e-09
1.461895862e-09
1.527582184e-09
1.58582966e-09
1.627803015e-09
1.645851706e-09
1.635341421e-09
1.603876768e-09
1.440054724e-09
1.491860315e-09
1.558130279e-09
1.627905256e-09
1.690860355e-09
1.737668988e-09
1.760097899e-09
1.752904657e-09
1.723161886e-09
1.529909323e-09
1.583089058e-09
1.651592513e-09
1.724432504e-09
1.791087586e-09
1.841883618e-09
1.868137486e-09
1.864087631e-09
1.836223766e-09
1.617439824e-09
1.671318114e-09
1.74113262e-09
1.815986328e-09
1.885298683e-09
1.939192037e-09
1.96866735e-09
1.967536309e-09
1.941665931e-09
1.701594968e-09
1.75551203e-09
1.825735338e-09
1.901571476e-09
1.972512647e-09
2.028615845e-09
2.060694939e-09
2.06222586e-09
2.038424056e-09
1.781434515e-09
1.834773158e-09
1.904560051e-09
1.98041002e-09
2.052009362e-09
2.109476693e-09
2.143557561e-09
2.147478137e-09
2.125784168e-09
1.856167717e-09
1.908375617e-09
1.976968154e-09
2.051960501e-09
2.123339797e-09
2.18139807e-09
2.216917771e-09
2.222953922e-09
2.203375075e-09
1.925181112e-09
1.975787057e-09
2.042536266e-09
2.115920904e-09
2.186318195e-09
2.244287616e-09
2.280738253e-09
2.28862402e-09
2.271139279e-09
1.988053727e-09
2.036677101e-09
2.101055286e-09
2.172216764e-09
2.240998969e-09
2.298304022e-09
2.335241326e-09
2.344724956e-09
2.329288351e-09
2.044559259e-09
2.09091279e-09
2.152516691e-09
2.220977043e-09
2.287642219e-09
2.343813534e-09
2.380858936e-09
2.391705671e-09
2.378249289e-09
2.094656086e-09
2.138542591e-09
2.197088542e-09
2.262501269e-09
2.326672277e-09
2.381341267e-09
2.4181789e-09
2.430171258e-09
2.418608025e-09
2.138467155e-09
2.179771517e-09
2.235084365e-09
2.297221704e-09
2.358633621e-09
2.411522051e-09
2.447892342e-09
2.460828799e-09
2.451055163e-09
2.176252547e-09
2.2149304e-09
2.266928283e-09
2.325664185e-09
2.384147917e-09
2.43505459e-09
2.470746062e-09
2.484438994e-09
2.476337634e-09
2.208377872e-09
2.244442551e-09
2.29311958e-09
2.348410726e-09
2.403875102e-09
2.4526616e-09
2.487502247e-09
2.501775798e-09
2.495218419e-09
2.235281575e-09
2.268790708e-09
2.314199394e-09
2.366066218e-09
2.418480419e-09
2.465057402e-09
2.498906655e-09
2.513594996e-09
2.50844522e-09
2.257443827e-09
2.288486674e-09
2.330721508e-09
2.379230723e-09
2.428608379e-09
2.47292347e-09
2.505665359e-09
2.520611574e-09
2.516727883e-09
2.275359027e-09
2.30404535e-09
2.343228493e-09
2.388478053e-09
2.434863796e-09
2.476891585e-09
2.508429398e-09
2.52348503e-09
2.520723664e-09
2.289513224e-09
2.315964101e-09
2.35223369e-09
2.394340651e-09
2.437799448e-09
2.47753378e-09
2.507786208e-09
2.522811392e-09
2.521029093e-09
2.30036703e-09
2.324707769e-09
2.358208949e-09
2.397300283e-09
2.437909505e-09
2.475357938e-09
2.504256569e-09
2.519120612e-09
2.518177105e-09
2.308344e-09
2.330699041e-09
2.361577583e-09
2.397783714e-09
2.435627678e-09
2.470807831e-09
2.498295811e-09
2.512878144e-09
2.512638354e-09
2.313823969e-09
2.334313554e-09
2.362711698e-09
2.396162342e-09
2.431328865e-09
2.464266217e-09
2.490297527e-09
2.50448831e-09
2.504823249e-09
2.317140539e-09
2.335878796e-09
2.361932872e-09
2.392754652e-09
2.425333004e-09
2.456059207e-09
2.48059628e-09
2.494287747e-09
2.49503353e-09
2.318581758e-09
2.335675851e-09
2.3595152e-09
2.387830543e-09
2.417910587e-09
2.446463565e-09
2.469481645e-09
2.482593736e-09
2.483685526e-09
2.318393037e-09
2.333943044e-09
2.355689796e-09
2.381616571e-09
2.409288106e-09
2.43571003e-09
2.457187269e-09
2.469612221e-09
2.470992965e-09
2.316781466e-09
2.330880708e-09
2.350650101e-09
2.374301828e-09
2.399654875e-09
2.423994668e-09
2.443930465e-09
2.455647932e-09
2.457197198e-09
2.313920834e-09
2.326656451e-09
2.34455739e-09
2.366043396e-09
2.389166839e-09
2.411471241e-09
2.429834215e-09
2.440840198e-09
2.44248383e-09
2.309956808e-09
2.32141042e-09
2.33754617e-09
2.356972305e-09
2.377956562e-09
2.398288662e-09
2.415133292e-09
2.425357171e-09
2.427021627e-09
2.305011833e-09
2.315260056e-09
2.3297283e-09
2.347194853e-09
2.366121095e-09
2.384510792e-09
2.399906321e-09
2.409325677e-09
2.410952947e-09
2.299189419e-09
2.308304012e-09
2.321196044e-09
2.336794159e-09
2.353724809e-09
2.370318584e-09
2.38426673e-09
2.392861125e-09
2.394401639e-09
2.292577402e-09
2.300624328e-09
2.312021165e-09
2.325820252e-09
2.340927048e-09
2.35577219e-09
2.368300444e-09
2.376061182e-09
2.377474276e-09
2.285249365e-09
2.292285022e-09
2.302245047e-09
2.314420609e-09
2.327772145e-09
2.340933543e-09
2.352081587e-09
2.359009738e-09
2.360262816e-09
2.277262161e-09
2.283322296e-09
2.29200865e-09
2.302631232e-09
2.314309713e-09
2.325860228e-09
2.335674894e-09
2.341779237e-09
2.342846764e-09
2.268645744e-09
2.273873292e-09
2.281343546e-09
2.290495185e-09
2.300587758e-09
2.310603947e-09
2.319136769e-09
2.324432285e-09
2.325294874e-09
2.259550384e-09
2.263968738e-09
2.270289947e-09
2.278055707e-09
2.286650592e-09
2.295210568e-09
2.302516292e-09
2.307022986e-09
2.307666597e-09
2.249990124e-09
2.253645769e-09
2.258889018e-09
2.265353767e-09
2.272538472e-09
2.279720674e-09
2.285856184e-09
2.289598096e-09
2.290013304e-09
2.24000181e-09
2.242944892e-09
2.247180807e-09
2.25242751e-09
2.25828785e-09
2.264170214e-09
2.269193669e-09
2.272198013e-09
2.272379345e-09
2.229626699e-09
2.231906415e-09
2.235203347e-09
2.239312253e-09
2.243931763e-09
2.248591097e-09
2.252561215e-09
2.254857624e-09
2.254802958e-09
2.218905485e-09
2.220568966e-09
2.222992389e-09
2.226040653e-09
2.229500211e-09
2.233011708e-09
2.235987163e-09
2.237607025e-09
2.237317049e-09
2.207877016e-09
2.208969077e-09
2.210581413e-09
2.212642919e-09
2.215020486e-09
2.217457343e-09
2.21949625e-09
2.220472133e-09
2.219949864e-09
2.196578035e-09
2.197141151e-09
2.198001737e-09
2.199147018e-09
2.200517453e-09
2.201950562e-09
2.203110059e-09
2.203475216e-09
2.20272557e-09
2.185043192e-09
2.185117538e-09
2.185282645e-09
2.185578843e-09
2.18601378e-09
2.186511495e-09
2.186847393e-09
2.186635342e-09
2.185664761e-09
2.173305114e-09
2.172928618e-09
2.172451497e-09
2.171962366e-09
2.171530137e-09
2.171158096e-09
2.170724603e-09
2.169968773e-09
2.168784899e-09
2.161394479e-09
2.160602887e-09
2.159533831e-09
2.15831976e-09
2.157085354e-09
2.155906358e-09
2.154755863e-09
2.153489301e-09
2.152100693e-09
2.149340082e-09
2.148167025e-09
2.146553441e-09
2.144671505e-09
2.142696567e-09
2.140770505e-09
2.138953413e-09
2.137208547e-09
2.135624438e-09
2.137168892e-09
2.135645964e-09
2.133532456e-09
2.131036482e-09
2.12837934e-09
2.125763151e-09
2.123327768e-09
2.121136215e-09
2.119366307e-09
2.124906113e-09
2.123062944e-09
2.120491408e-09
2.117432059e-09
2.114147777e-09
2.110895445e-09
2.107887906e-09
2.105280319e-09
2.103334605e-09
2.112575236e-09
2.110439574e-09
2.107449298e-09
2.103874173e-09
2.10001462e-09
2.096177201e-09
2.092641423e-09
2.08964738e-09
2.087536e-09
2.1001981e-09
2.097795895e-09
2.094423659e-09
2.0903774e-09
2.085991343e-09
2.081617013e-09
2.077594681e-09
2.074242599e-09
2.071975717e-09
2.087794952e-09
2.085150437e-09
2.081430629e-09
2.076955035e-09
2.072088237e-09
2.067222356e-09
2.062752935e-09
2.059070011e-09
2.056657714e-09
2.075384509e-09
2.072520286e-09
2.068485007e-09
2.063619154e-09
2.058314488e-09
2.05299968e-09
2.048120443e-09
2.044132618e-09
2.041584834e-09
2.062984023e-09
2.059921144e-09
2.055600322e-09
2.050380689e-09
2.044678251e-09
2.038954497e-09
2.033700566e-09
2.029432507e-09
2.026758941e-09
2.050609347e-09
2.047367398e-09
2.042788896e-09
2.037249487e-09
2.031186723e-09
2.025091457e-09
2.019495863e-09
2.014970959e-09
2.012181037e-09
2.038275001e-09
2.034872178e-09
2.030061907e-09
2.02423438e-09
2.017846206e-09
2.011414423e-09
2.005508167e-09
2.000748539e-09
1.997851371e-09
2.025994239e-09
2.022447432e-09
2.017429455e-09
2.011343239e-09
2.004662168e-09
1.997926531e-09
1.991738658e-09
1.986765178e-09
1.983769528e-09
2.013779116e-09
2.010103981e-09
2.004900619e-09
1.998583042e-09
1.991639307e-09
1.984630257e-09
1.978187933e-09
1.973020249e-09
1.969934513e-09
2.001640552e-09
1.997851586e-09
1.992483519e-09
1.985959922e-09
1.9787816e-09
1.971527467e-09
1.96485606e-09
1.959512635e-09
1.956344825e-09
1.989588401e-09
1.98569901e-09
1.980185375e-09
1.973479232e-09
1.966092364e-09
1.958619475e-09
1.951742637e-09
1.946240781e-09
1.94299852e-09
1.977631511e-09
1.97365408e-09
1.968012565e-09
1.961145589e-09
1.953574295e-09
1.945907087e-09
1.938846835e-09
1.933202752e-09
1.929893269e-09
1.965777786e-09
1.961723742e-09
1.955970677e-09
1.94896293e-09
1.941229526e-09
1.933390647e-09
1.926167451e-09
1.92039628e-09
1.917026412e-09
1.954034249e-09
1.949914122e-09
1.944064563e-09
1.936934559e-09
1.929059663e-09
1.921070078e-09
1.91370294e-09
1.907818804e-09
1.904395e-09
1.942407094e-09
1.938230578e-09
1.93229839e-09
1.925063194e-09
1.917065832e-09
1.908944925e-09
1.90145146e-09
1.895467511e-09
1.891995838e-09
1.93090175e-09
1.926677755e-09
1.920675691e-09
1.91335101e-09
1.905248718e-09
1.897014384e-09
1.889410899e-09
1.883339367e-09
1.879825522e-09
1.919522927e-09
1.915259633e-09
1.909199407e-09
1.901799682e-09
1.893608601e-09
1.885277341e-09
1.877578912e-09
1.871431153e-09
1.867880473e-09
1.90827467e-09
1.903979578e-09
1.897871936e-09
1.890410425e-09
1.882145392e-09
1.873732401e-09
1.865952949e-09
1.859739489e-09
1.856156962e-09
1.897160409e-09
1.892840385e-09
1.886695172e-09
1.879184029e-09
1.870858665e-09
1.862377918e-09
1.854530277e-09
1.848260861e-09
1.844651141e-09
1.886183004e-09
1.881844327e-09
1.875670547e-09
1.868120901e-09
1.859747691e-09
1.851212022e-09
1.84330801e-09
1.836991644e-09
1.833359064e-09
1.875344791e-09
1.870993189e-09
1.864799067e-09
1.857221092e-09
1.848811465e-09
1.840232643e-09
1.832283126e-09
1.825928122e-09
1.822276711e-09
1.864647619e-09
1.860288315e-09
1.854081349e-09
1.846484331e-09
1.838048735e-09
1.829437538e-09
1.82145249e-09
1.81506651e-09
1.811400003e-09
1.854092897e-09
1.849730641e-09
1.843517657e-09
1.835910056e-09
1.827458023e-09
1.818824307e-09
1.810812874e-09
1.804402966e-09
1.800724823e-09
1.843681624e-09
1.839320728e-09
1.83310793e-09
1.825497443e-09
1.817037658e-09
1.808390418e-09
1.80036097e-09
1.793933611e-09
1.790247028e-09
1.833414429e-09
1.829058801e-09
1.822851812e-09
1.815245428e-09
1.806785788e-09
1.798133222e-09
1.79009341e-09
1.783654538e-09
1.779962466e-09
1.823291601e-09
1.818944775e-09
1.812748686e-09
1.805152735e-09
1.796700407e-09
1.788049973e-09
1.780006776e-09
1.773561831e-09
1.769866983e-09
1.813313121e-09
1.808978284e-09
1.80279769e-09
1.795217896e-09
1.786779373e-09
1.778137842e-09
1.770097614e-09
1.763651568e-09
1.75995644e-09
1.803478692e-09
1.799158711e-09
1.79299775e-09
1.785439275e-09
1.777020423e-09
1.76839393e-09
1.760362449e-09
1.753919836e-09
1.750226717e-09
1.793787762e-09
1.789485208e-09
1.783347597e-09
1.775815084e-09
1.767421193e-09
1.758815282e-09
1.750797787e-09
1.744362739e-09
1.740673722e-09
1.784239549e-09
1.779956723e-09
1.773845787e-09
1.766343401e-09
1.757979225e-09
1.749398898e-09
1.741400129e-09
1.734976399e-09
1.731293396e-09
1.774833067e-09
1.770572015e-09
1.764490722e-09
1.757022184e-09
1.748691985e-09
1.740141738e-09
1.732165975e-09
1.725756964e-09
1.722081716e-09
1.765567136e-09
1.761329675e-09
1.755280661e-09
1.747849285e-09
1.739556867e-09
1.731040728e-09
1.723091822e-09
1.716700606e-09
1.713034693e-09
1.756440404e-09
1.752228135e-09
1.746213728e-09
1.738822449e-09
1.730571194e-09
1.72209276e-09
1.714174163e-09
1.707803512e-09
1.704148363e-09
1.747451354e-09
1.74326568e-09
1.737287923e-09
1.729939325e-09
1.72173222e-09
1.713294681e-09
1.705409473e-09
1.699061869e-09
1.695418771e-09
1.738598303e-09
1.734440441e-09
1.728501111e-09
1.721197446e-09
1.713037109e-09
1.704643276e-09
1.696794183e-09
1.690471837e-09
1.686841938e-09
1.729879405e-09
1.725750393e-09
1.719851013e-09
1.712594221e-09
1.704482916e-09
1.696135233e-09
1.688324642e-09
1.682029497e-09
1.678413808e-09
1.721292623e-09
1.717193332e-09
1.711335177e-09
1.70412689e-09
1.696066532e-09
1.687767082e-09
1.67999704e-09
1.673730773e-09
1.670130162e-09
1.712835702e-09
1.708766828e-09
1.702950927e-09
1.695792466e-09
1.687784617e-09
1.67953511e-09
1.67180731e-09
1.665571315e-09
1.661986495e-09
1.704506104e-09
1.700468166e-09
1.694695284e-09
1.68758764e-09
1.679633479e-09
1.671435221e-09
1.663750968e-09
1.657546318e-09
1.653977821e-09
1.696300924e-09
1.692294241e-09
1.686564854e-09
1.679508646e-09
1.671608919e-09
1.663462746e-09
1.655822889e-09
1.649650276e-09
1.646098412e-09
1.688216759e-09
1.68424142e-09
1.678555661e-09
1.671551065e-09
1.663705996e-09
1.655612176e-09
1.648016994e-09
1.641876631e-09
1.638341419e-09
1.680249527e-09
1.676305338e-09
1.670662918e-09
1.663709563e-09
1.655918718e-09
1.64787679e-09
1.640325833e-09
1.634217299e-09
1.63069837e-09
1.672394224e-09
1.668480635e-09
1.662880726e-09
1.655977531e-09
1.648239623e-09
1.640248173e-09
1.632740022e-09
1.62666205e-09
1.623158511e-09
1.664644605e-09
1.660760597e-09
1.655201671e-09
1.648346629e-09
1.640659243e-09
1.632715588e-09
1.625247525e-09
1.61919771e-09
1.615707951e-09
1.656992758e-09
1.653136706e-09
1.647616311e-09
1.640806191e-09
1.63316542e-09
1.625265189e-09
1.617832758e-09
1.611807156e-09
1.608328601e-09
1.64942859e-09
1.645598067e-09
1.64011254e-09
1.633342498e-09
1.62574246e-09
1.617879042e-09
1.610475477e-09
1.604468099e-09
1.600996881e-09
1.641939167e-09
1.638130705e-09
1.632674799e-09
1.625937885e-09
1.618370114e-09
1.610533964e-09
1.603149466e-09
1.597151629e-09
1.593682188e-09
1.634507938e-09
1.630716723e-09
1.625283146e-09
1.618569685e-09
1.61102238e-09
1.603200161e-09
1.595821007e-09
1.589820548e-09
1.586345128e-09
1.627113808e-09
1.623333304e-09
1.617912161e-09
1.611209012e-09
1.603666123e-09
1.595839673e-09
1.588447152e-09
1.582427483e-09
1.578935553e-09
1.619730065e-09
1.615951582e-09
1.610529705e-09
1.60381938e-09
1.596259543e-09
1.588404667e-09
1.580973842e-09
1.574912859e-09
1.571390428e-09
1.61232318e-09
1.608535358e-09
1.603095543e-09
1.596355199e-09
1.588750506e-09
1.58083561e-09
1.573333913e-09
1.567202768e-09
1.563631637e-09
1.604851483e-09
1.601039717e-09
1.595559857e-09
1.588760166e-09
1.581074817e-09
1.573059392e-09
1.565445097e-09
1.559206867e-09
1.555563812e-09
1.597263756e-09
1.593409564e-09
1.587861713e-09
1.580965638e-09
1.573154481e-09
1.564987497e-09
1.557208101e-09
1.5508164e-09
1.547072343e-09
1.589497779e-09
1.585578132e-09
1.579927511e-09
1.572889037e-09
1.564896066e-09
1.556514337e-09
1.548504942e-09
1.541902547e-09
1.538021742e-09
1.581478903e-09
1.577465542e-09
1.57166954e-09
1.564432398e-09
1.556189281e-09
1.547515887e-09
1.539197666e-09
1.53231525e-09
1.528254566e-09
1.573118713e-09
1.56897749e-09
1.562984708e-09
1.555481186e-09
1.546905909e-09
1.537848792e-09
1.529127673e-09
1.521882766e-09
1.517591137e-09
1.564313888e-09
1.560004167e-09
1.553753576e-09
1.545903496e-09
1.536899263e-09
1.527350133e-09
1.518115851e-09
1.510412163e-09
1.505830306e-09
1.554945364e-09
1.550419547e-09
1.543839837e-09
1.535549821e-09
1.52600432e-09
1.515838044e-09
1.50596373e-09
1.497691012e-09
1.492751515e-09
1.544877923e-09
1.540081151e-09
1.533090372e-09
1.524253515e-09
1.514038732e-09
1.503113378e-09
1.492455884e-09
1.483490489e-09
1.478118409e-09
1.53396035e-09
1.528830458e-09
1.521336051e-09
1.511832138e-09
1.500804879e-09
1.48896261e-09
1.477363773e-09
1.46757012e-09
1.461684189e-09
1.522026291e-09
1.51649408e-09
1.508393413e-09
1.498089835e-09
1.486093124e-09
1.473162142e-09
1.460451181e-09
1.449684286e-09
1.443198871e-09
1.508895949e-09
1.502885861e-09
1.494067374e-09
1.482820876e-09
1.469686406e-09
1.455484117e-09
1.441481351e-09
1.429590595e-09
1.422418496e-09
1.494378762e-09
1.487810014e-09
1.478155083e-09
1.465814466e-09
1.451366243e-09
1.435703805e-09
1.420225831e-09
1.407060083e-09
1.399116246e-09
1.478277137e-09
1.471065391e-09
1.460450988e-09
1.446860885e-09
1.430920169e-09
1.413608524e-09
1.396474946e-09
1.381889094e-09
1.373095269e-09
1.460391342e-09
1.452450945e-09
1.440753159e-09
1.425758928e-09
1.408150538e-09
1.389007961e-09
1.370049678e-09
1.353912553e-09
1.344202868e-09
1.440525556e-09
1.431772371e-09
1.418870811e-09
1.402324574e-09
1.382884534e-09
1.361745651e-09
1.340814614e-09
1.323018199e-09
1.312345543e-09
1.418495034e-09
1.408849858e-09
1.394632906e-09
1.376400658e-09
1.354985082e-09
1.331711217e-09
1.308691473e-09
1.289161202e-09
1.277504302e-09
1.39413426e-09
1.383526768e-09
1.367897582e-09
1.347867216e-09
1.324362214e-09
1.298852774e-09
1.273672547e-09
1.252378618e-09
1.239750004e-09
1.367305885e-09
1.355678982e-09
1.338562051e-09
1.316652011e-09
1.290984214e-09