/*--------------------------------*- C++ -*----------------------------------*\
| =========                 |                                                 |
| \\      /  F ield         | OpenFOAM: The Open Source CFD Toolbox           |
|  \\    /   O peration     | Version:  2212                                  |
|   \\  /    A nd           | Website:  www.openfoam.com                      |
|    \\/     M anipulation  |                                                 |
\*---------------------------------------------------------------------------*/
FoamFile
{
    version     2.0;
    format      ascii;
    arch        "LSB;label=32;scalar=64";
    class       volVectorField;
    location    "20.00000000";
    object      U_0;
}
// * * * * * * * * * * * * * * * * * * * * * * * * * * * * * * * * * * * * * //

dimensions      [0 1 -1 0 0 0 0];

internalField   nonuniform List<vector> 
3000
(
(0.1150989468 -0.002163797645 3.779437485e-12)
(0.1152930639 -0.003787136487 9.435735122e-12)
(0.1157348083 -0.006031248387 2.597679371e-11)
(0.116547754 -0.00925769219 7.672353236e-11)
(0.1178690953 -0.01349322802 2.450650855e-10)
(0.1197250717 -0.01985641187 5.604417146e-11)
(0.1207917846 -0.02526934319 1.427902151e-11)
(0.1154403097 -0.03267474414 5.773214841e-12)
(0.08161407035 -0.01675180555 1.209242481e-12)
(0.1214582903 -0.004781019984 2.641296853e-11)
(0.1229406494 -0.008029510299 5.736364103e-11)
(0.1251479226 -0.01194176119 1.166829111e-10)
(0.12829206 -0.0164625832 2.291501021e-10)
(0.1320143392 -0.02107384737 4.163076472e-10)
(0.1343338008 -0.02554737 1.729339028e-10)
(0.1319028796 -0.02602909278 6.873314149e-11)
(0.1145675302 -0.02364629365 2.392303463e-11)
(0.06682100722 -0.006957882709 6.145180748e-12)
(0.1325449209 -0.007012187438 6.178630265e-11)
(0.1345417187 -0.01134976315 1.220688721e-10)
(0.1372770386 -0.01606920441 2.183354252e-10)
(0.1402248473 -0.02069477023 3.6614153e-10)
(0.1418430067 -0.02416619176 5.482418376e-10)
(0.1393625719 -0.02584278213 2.543224801e-10)
(0.1280566176 -0.02314781647 1.066287029e-10)
(0.09812451015 -0.01635525534 4.486449475e-11)
(0.04298747591 -0.003230365934 1.248897767e-11)
(0.1458585526 -0.007413366129 1.208987626e-10)
(0.1479424354 -0.01166788925 2.19947361e-10)
(0.1503923045 -0.01593487242 3.378517156e-10)
(0.1519316417 -0.01927377034 4.950095302e-10)
(0.1505830931 -0.02101297287 6.832762774e-10)
(0.1428356451 -0.02041854283 3.423619361e-10)
(0.1243949725 -0.01594592186 1.653794795e-10)
(0.08904546064 -0.008788319967 7.566566313e-11)
(0.03580151955 -0.001175638993 2.1222129e-11)
(0.158244854 -0.007145182419 -1.250090583e-10)
(0.1596082039 -0.01100918082 -3.759672882e-10)
(0.1605722818 -0.01449668174 1.6986002e-10)
(0.159527272 -0.01672837311 3.969114637e-10)
(0.1541513916 -0.0171601683 4.658183689e-10)
(0.1411355053 -0.01530912419 3.193252329e-10)
(0.1173070107 -0.01084726567 1.864223869e-10)
(0.07984688949 -0.005105226403 9.48859299e-11)
(0.02970126137 -0.000470908151 2.752304546e-11)
(0.1698093788 -0.00629177434 -3.854670342e-11)
(0.170130401 -0.009491349896 -1.639649508e-11)
(0.1693072883 -0.01214482932 2.420571798e-10)
(0.1655359507 -0.01344116594 4.687278583e-10)
(0.1565578119 -0.01308732956 6.743825334e-10)
(0.1396786932 -0.01088793394 3.898815771e-10)
(0.1128279477 -0.00714371615 2.224834751e-10)
(0.07492965356 -0.002993549145 1.145490444e-10)
(0.02733965979 -0.0002133123974 3.342430452e-11)
(0.1792073874 -0.005341511784 -2.445032938e-10)
(0.1782861347 -0.007926066342 -5.599262287e-10)
(0.1754980034 -0.009897217248 6.723164234e-11)
(0.1690656354 -0.01057741667 3.484514775e-10)
(0.1569824422 -0.00987528779 4.5510421e-10)
(0.1372148201 -0.007793850671 3.467098324e-10)
(0.10853307 -0.004829271736 2.261868298e-10)
(0.07080579281 -0.001875435375 1.261192987e-10)
(0.02537602007 -8.940305277e-05 3.843541439e-11)
(0.1871606437 -0.004398352038 -1.39619763e-10)
(0.1850163709 -0.006427754157 -1.453344892e-10)
(0.180403452 -0.007859047189 1.856966937e-10)
(0.171689652 -0.008156017626 4.459918837e-10)
(0.1571969409 -0.007358569144 6.728267645e-10)
(0.1354499934 -0.005577466479 4.169991952e-10)
(0.1057709177 -0.003321716545 2.77494133e-10)
(0.06839887157 -0.001237744551 1.733531052e-10)
(0.024419849 -5.73132898e-05 5.572475111e-11)
(0.1933995531 -0.003575551421 -1.363490348e-10)
(0.1901121344 -0.005163116364 -2.254763697e-10)
(0.183866676 -0.006203852688 -3.667952294e-10)
(0.1732372537 -0.006288117938 -9.498685762e-11)
(0.1568713369 -0.005524718489 3.68268192e-10)
(0.1337243326 -0.004066138587 4.654284086e-10)
(0.1034604281 -0.002355665895 5.986060578e-10)
(0.06645900011 -0.0008532161108 4.584374667e-10)
(0.02361000474 -3.063189686e-05 1.212777141e-10)
(0.1984832465 -0.002884342708 -1.685835288e-10)
(0.1941887503 -0.004120979271 -2.543839848e-10)
(0.1865564794 -0.004880358149 -2.369046576e-10)
(0.1743824765 -0.004853856959 -2.732837926e-11)
(0.1566009201 -0.004178912344 2.437809591e-10)
(0.132479804 -0.003012604089 3.670153364e-10)
(0.101880706 -0.001717074761 3.928761202e-10)
(0.06519765262 -0.0006168796436 2.789958023e-10)
(0.02313014415 -2.499330505e-05 8.558257856e-11)
(0.2024698914 -0.002323356222 1.15108655e-10)
(0.1973071474 -0.003292593986 4.102291587e-10)
(0.1885134472 -0.003854678359 9.298712749e-11)
(0.1750974527 -0.003778529542 1.928013946e-10)
(0.1562319661 -0.003205070105 4.916574217e-10)
(0.1314081918 -0.002278148135 3.886307654e-10)
(0.100601118 -0.001284706709 3.171116846e-10)
(0.06418275768 -0.0004582268243 2.054025561e-10)
(0.02272382341 -1.67079683e-05 6.442825174e-11)
(0.2056878671 -0.001874190615 1.787266121e-10)
(0.1997927398 -0.002637976405 3.230763951e-10)
(0.1900428677 -0.003060338393 2.702289342e-10)
(0.1756380103 -0.002967222518 3.097497766e-10)
(0.1559430655 -0.002490544769 3.939302725e-10)
(0.1306070936 -0.00175461616 3.541769166e-10)
(0.09966779987 -0.0009849075511 2.946569509e-10)
(0.06345904111 -0.0003522314834 2.021454394e-10)
(0.02244607997 -1.441820953e-05 6.575178754e-11)
(0.2082416225 -0.001516989559 7.692100137e-11)
(0.201734007 -0.002124557212 2.359274407e-11)
(0.1911996952 -0.002447927365 -3.17046059e-10)
(0.1760038591 -0.002354856512 -2.123566583e-10)
(0.1556641621 -0.001962534482 2.196626229e-10)
(0.1299426906 -0.001375152813 3.86303662e-10)
(0.09891263835 -0.000769991219 5.600002536e-10)
(0.06287195726 -0.0002753977356 4.552280144e-10)
(0.0222124083 -1.083131862e-05 1.190573992e-10)
(0.2103095715 -0.001233592241 9.94933476e-12)
(0.2032937232 -0.001720896438 -4.961825083e-11)
(0.1921185526 -0.001972890707 -1.632154114e-10)
(0.1762892945 -0.001887595137 -6.593280423e-11)
(0.1554444522 -0.001566184073 1.562536023e-10)
(0.1294280949 -0.001094593609 2.966528787e-10)
(0.09833325739 -0.0006132653634 3.405530521e-10)
(0.06242535009 -0.0002204420113 2.34994509e-10)
(0.02203755676 -9.638559168e-06 6.968189934e-11)
(0.2119748659 -0.001008312009 -9.21394198e-12)
(0.2045383789 -0.001402902887 -3.356490743e-11)
(0.1928391101 -0.001602826053 -3.307411121e-11)
(0.17649931 -0.001528271307 1.133894442e-10)
(0.1552533676 -0.001265035164 4.130206057e-10)
(0.129006177 -0.0008834224185 2.882099798e-10)
(0.09786238937 -0.0004957768814 1.766424631e-10)
(0.06206079212 -0.0001787569266 -4.469729837e-11)
(0.02189218416 -8.276610561e-06 7.958239315e-13)
(0.2133351049 -0.0008289883569 -4.331660698e-12)
(0.2055511917 -0.001151297893 -1.312600041e-12)
(0.1934230566 -0.001312547658 3.714678317e-11)
(0.1766700135 -0.001249182187 1.45176955e-10)
(0.1551028725 -0.001033262646 2.660104855e-10)
(0.1286725212 -0.000722057775 2.258815361e-10)
(0.09749050914 -0.0004064865736 1.422381565e-10)
(0.06177350459 -0.0001470981959 4.645299252e-11)
(0.02177856011 -7.514854599e-06 1.264241456e-11)
(0.2144476171 -0.0006859273878 7.512544613e-12)
(0.2063766939 -0.0009517352219 2.501276413e-11)
(0.1938966957 -0.001083970755 6.93269413e-11)
(0.1768071418 -0.001031159719 1.411312123e-10)
(0.1549801821 -0.0008534989813 1.96105632e-10)
(0.1284022008 -0.0005975096196 1.765179687e-10)
(0.0971891396 -0.0003377189514 1.208788307e-10)
(0.06153974755 -0.0001223721322 6.041689369e-11)
(0.02168514173 -6.827339475e-06 1.711880511e-11)
(0.2153688495 -0.0005718907343 1.856351295e-11)
(0.207060731 -0.0007933353106 4.205427274e-11)
(0.194291414 -0.0009036528165 8.175755832e-11)
(0.1769266268 -0.0008603516101 1.289933498e-10)
(0.1548880482 -0.0007136412337 1.560780501e-10)
(0.1281898845 -0.0005011558232 1.416725128e-10)
(0.09695087569 -0.0002849084542 1.02037243e-10)
(0.06135483223 -0.0001033322254 5.669525047e-11)
(0.02161170919 -6.659308025e-06 1.664568917e-11)
(0.2161382098 -0.000481314141 2.601445448e-11)
(0.2076338059 -0.0006680969375 5.097374319e-11)
(0.1946259112 -0.0007619399903 8.415428195e-11)
(0.1770348909 -0.0007270586339 1.159051388e-10)
(0.1548226733 -0.0006053432617 1.294489966e-10)
(0.1280254711 -0.0004270702229 1.164250906e-10)
(0.09676388143 -0.0002447292016 8.5600923e-11)
(0.06120907261 -8.864456386e-05 4.912822048e-11)
(0.02155379925 -6.776056239e-06 1.458707825e-11)
(0.2167914353 -0.0004100188108 3.229716981e-11)
(0.2081243183 -0.0005699619343 5.706377677e-11)
(0.1949191052 -0.0006516817642 8.292758991e-11)
(0.1771413447 -0.0006242762558 1.019179794e-10)
(0.1547857755 -0.0005228595233 1.083300168e-10)
(0.1279062655 -0.0003713744727 9.637945599e-11)
(0.09662405419 -0.0002152190287 7.061075865e-11)
(0.0610994893 -7.779979775e-05 4.019074394e-11)
(0.02151071111 -7.39629247e-06 1.173980957e-11)
(0.2173575055 -0.0003550432375 2.320784559e-11)
(0.2085553248 -0.0004947831875 3.938413096e-11)
(0.1951865681 -0.0005679961415 6.199444124e-11)
(0.1772540782 -0.000547255851 1.156084647e-10)
(0.1547795253 -0.0004619500005 1.143091607e-10)
(0.1278302149 -0.0003311925163 8.17261194e-11)
(0.09652807262 -0.0001950003496 4.894732017e-11)
(0.06102320735 -7.018520403e-05 2.374574289e-11)
(0.02148113841 -8.438015763e-06 6.073007577e-12)
(0.2178622777 -0.0003137031972 6.666823451e-11)
(0.2089474931 -0.0004386407392 1.517452521e-10)
(0.1954423234 -0.0005062850063 3.466827093e-10)
(0.1773805689 -0.0004911948015 -3.083889036e-10)
(0.1548061063 -0.0004189063954 -4.376848596e-10)
(0.1277981965 -0.0003026164709 -3.359561639e-10)
(0.09647478972 -0.0001821468293 -1.143959288e-10)
(0.06097878516 -6.542498515e-05 -4.075069977e-11)
(0.02146456074 -1.011671312e-05 -1.034235832e-11)
(0.2183286467 -0.0002851262503 6.724538904e-11)
(0.209319837 -0.000400770911 1.074610829e-10)
(0.1957007208 -0.0004664011195 9.242045721e-11)
(0.1775309137 -0.0004577860374 -1.868308244e-10)
(0.1548722861 -0.0003965859235 -2.913754908e-10)
(0.1278133164 -0.0002911184697 -2.553092879e-10)
(0.0964696194 -0.0001771759069 -1.406150682e-10)
(0.06096980769 -6.289644362e-05 -6.696461143e-11)
(0.02146197061 -1.205262989e-05 -1.861074059e-11)
(0.218780887 -0.0002675804537 4.601184145e-11)
(0.2096937285 -0.0003784747697 5.25587443e-11)
(0.195979523 -0.0004447357134 -1.776372581e-13)
(0.1777187895 -0.0004421682067 -1.415050802e-10)
(0.1549865916 -0.0003894737038 -2.112891149e-10)
(0.1278744519 -0.0002907264955 -1.977663238e-10)
(0.09650452636 -0.0001810145939 -1.30862288e-10)
(0.06099331695 -6.317638406e-05 -6.915116915e-11)
(0.02147403536 -1.468019041e-05 -1.995831813e-11)
(0.2192388184 -0.000259648492 2.259113562e-11)
(0.2100857684 -0.0003696265952 1.255234168e-11)
(0.1962912122 -0.0004384159009 -3.780847554e-11)
(0.1779528312 -0.0004410735762 -1.186300021e-10)
(0.1551568831 -0.0003937628973 -1.615094479e-10)
(0.1279995745 -0.0002984208463 -1.525100453e-10)
(0.09659522058 -0.0001913033617 -1.103476482e-10)
(0.06105546521 -6.712246027e-05 -6.207797735e-11)
(0.02150112184 -1.857527949e-05 -1.829252366e-11)
(0.219723741 -0.0002610801507 4.796201526e-12)
(0.210514879 -0.0003741081966 -1.15850937e-11)
(0.1966517553 -0.0004479996828 -5.225320118e-11)
(0.1782459681 -0.0004560232819 -1.022248768e-10)
(0.1553924493 -0.0004130769522 -1.279638075e-10)
(0.128189226 -0.0003167783739 -1.202503353e-10)
(0.09674563645 -0.0002070781761 -8.987689663e-11)
(0.06115970242 -7.239463627e-05 -5.214796192e-11)
(0.02154387024 -2.287901551e-05 -1.556429081e-11)
(0.220257658 -0.0002711565688 -7.507861552e-12)
(0.2110014078 -0.0003909064523 -2.556640536e-11)
(0.1970795312 -0.0004722083438 -5.694970402e-11)
(0.1786147884 -0.0004857652217 -8.92358754e-11)
(0.1557080048 -0.0004455875007 -1.044135189e-10)
(0.128456792 -0.0003454896498 -9.694075334e-11)
(0.09696273708 -0.0002292171831 -7.326951317e-11)
(0.06131162288 -7.935560005e-05 -4.306581505e-11)
(0.02160572294 -2.786654807e-05 -1.292688822e-11)
(0.2208628108 -0.0002894363794 -1.19112231e-11)
(0.2115659934 -0.0004193996517 -2.851808217e-11)
(0.1975931045 -0.0005102795675 -5.348385914e-11)
(0.1790754652 -0.0005293842351 -7.784564921e-11)
(0.1561172584 -0.0004902849756 -8.711621063e-11)
(0.1288132437 -0.000383102028 -7.965927834e-11)
(0.09725591608 -0.0002569093977 -6.024786773e-11)
(0.06151707268 -8.820090033e-05 -3.558023049e-11)
(0.02168833757 -3.36537946e-05 -1.07113394e-11)
(0.2215628325 -0.0003153529612 -2.977664632e-11)
(0.2122309976 -0.0004587502746 -5.558933465e-11)
(0.1982131608 -0.000561151217 -7.889155471e-11)
(0.179646749 -0.0005857233767 -6.393350983e-11)
(0.1566367584 -0.0005460393853 -7.059917299e-11)
(0.1292726928 -0.0004287758553 -6.581939444e-11)
(0.097635889 -0.0002895593107 -5.043378568e-11)
(0.06178298303 -9.855239333e-05 -3.005464903e-11)
(0.02179419507 -4.020177316e-05 -9.100699116e-12)
(0.2223820189 -0.0003482956557 1.301560666e-11)
(0.2130195822 -0.0005080390355 6.472045141e-11)
(0.1989613263 -0.0006236233898 2.265904047e-10)
(0.1803484017 -0.0006534127299 -2.848696006e-10)
(0.1572840657 -0.000611438929 -1.358456249e-10)
(0.1298500326 -0.0004812406004 -8.150410017e-11)
(0.09811421859 -0.0003261882874 -5.21873467e-11)
(0.06211669856 -0.0001099647242 -2.909256027e-11)
(0.02192577572 -4.744897391e-05 -8.634306789e-12)
(0.2233458838 -0.0003875321202 2.708511169e-11)
(0.2139562965 -0.0005661469998 5.52879148e-11)
(0.1998607918 -0.0006962298854 6.268030081e-11)
(0.181201864 -0.0007307907167 -1.20304741e-10)
(0.1580783808 -0.0006847806521 -1.077383915e-10)
(0.1305615738 -0.0005390198784 -7.745501307e-11)
(0.09870345836 -0.0003656907889 -5.088650868e-11)
(0.06252621612 -0.0001219541668 -2.813524262e-11)
(0.02208584765 -5.532533458e-05 -8.287580912e-12)
(0.2244807611 -0.0004321760574 2.259821935e-11)
(0.2150666248 -0.0006317235118 3.091078932e-11)
(0.2009357875 -0.0007771980218 9.387451054e-12)
(0.1822296468 -0.0008158451779 -6.791326587e-11)
(0.1590398841 -0.0007640034624 -8.019103461e-11)
(0.1314243762 -0.0006003359981 -6.613529194e-11)
(0.09941663492 -0.0004067647618 -4.586493296e-11)
(0.063019726 -0.0001339813884 -2.582074898e-11)
(0.02227718957 -6.373244442e-05 -7.639734152e-12)
(0.2258138787 -0.0004811641216 1.512202229e-11)
(0.2163770362 -0.0007031498946 1.316765963e-11)
(0.2022116026 -0.000864414732 -9.598980613e-12)
(0.183455311 -0.0009061995207 -4.89955265e-11)
(0.1601896754 -0.0008467112154 -6.156340518e-11)
(0.1324561699 -0.0006631693372 -5.459723645e-11)
(0.1002671597 -0.0004479760157 -3.978915338e-11)
(0.06360557393 -0.0001454868898 -2.32562869e-11)
(0.02250261971 -7.256050342e-05 -7.017134213e-12)
(0.2273730634 -0.0005332428173 -7.530736269e-12)
(0.2179146598 -0.0007785241573 -9.362926339e-12)
(0.2037142147 -0.0009554168226 -2.255281491e-11)
(0.1849030456 -0.0009991183926 -4.238883975e-11)
(0.1615493126 -0.0009301994908 -5.038603099e-11)
(0.1336748919 -0.0007252953899 -4.69224325e-11)
(0.1012684148 -0.000487794661 -3.789719874e-11)
(0.06429194512 -0.0001559035443 -2.509259496e-11)
(0.02276485136 -8.168384176e-05 -7.684204041e-12)
(0.2291865808 -0.0005869678288 9.070228047e-11)
(0.2197070975 -0.0008556681281 3.753153314e-11)
(0.2054700591 -0.001047415894 -4.362458451e-12)
(0.1865973907 -0.00109155475 -3.060287175e-11)
(0.1631405004 -0.001011525709 -4.501427674e-11)
(0.1350983738 -0.0007843632933 -5.556106811e-11)
(0.1024334908 -0.0005246662977 -6.694680428e-11)
(0.06508670194 -0.000164690362 -5.553706639e-11)
(0.02306645136 -9.097053303e-05 -1.13137304e-11)
(0.2312828348 -0.000640713485 -7.62911986e-10)
(0.2217820908 -0.0009321533284 -2.050680437e-10)
(0.2075056521 -0.001137347667 -7.550271625e-11)
(0.1885628122 -0.001180222781 -6.529288061e-11)
(0.1649846337 -0.001087601912 -9.896409079e-11)
(0.1367438961 -0.0008379857514 -1.805206929e-10)
(0.1037748119 -0.0005570796656 -3.535310773e-10)
(0.06599713151 -0.0001713557475 -2.669648426e-10)
(0.02340974328 -0.0001002847319 2.693220371e-11)
(0.2336900993 -0.0006927025107 -3.752406884e-10)
(0.2241672168 -0.001005348424 -2.109195352e-10)
(0.2098472364 -0.001221946311 -1.164386246e-10)
(0.190823299 -0.001261699493 -9.847562659e-11)
(0.1671023688 -0.001155313227 -1.227930074e-10)
(0.1386277869 -0.0008838452591 -1.676526295e-10)
(0.1053038196 -0.0005836406931 -2.016822936e-10)
(0.06702975622 -0.0001754831317 -1.397776514e-10)
(0.02379675098 -0.0001094929633 -3.126173436e-11)
(0.2364361975 -0.0007410461129 -2.133434975e-10)
(0.2268895266 -0.001072487271 -1.780798725e-10)
(0.2125203612 -0.001297844423 -1.306260328e-10)
(0.193401892 -0.001332549966 -1.160869644e-10)
(0.1695131381 -0.001211651134 -1.257456305e-10)
(0.1407649827 -0.0009198018042 -1.389799238e-10)
(0.1070306374 -0.0006031390164 -1.317741816e-10)
(0.06819013306 -0.0001767474108 -8.637385943e-11)
(0.02422913182 -0.0001184664722 -2.521258399e-11)
(0.2395481822 -0.0007837946019 -1.396558385e-10)
(0.2299751763 -0.00113075684 -1.477825859e-10)
(0.2155494526 -0.001361696632 -1.29895444e-10)
(0.1963202093 -0.001389469436 -1.198756966e-10)
(0.1722346787 -0.001253851073 -1.187647794e-10)
(0.1431686265 -0.0009439964432 -1.144163418e-10)
(0.1089637841 -0.0006146045814 -9.520340031e-11)
(0.06948269883 -0.0001749257511 -5.934858526e-11)
(0.02470813215 -0.0001270838533 -1.787099281e-11)
(0.2430519863 -0.0008190029207 -1.016774412e-10)
(0.2334490216 -0.001177400677 -1.235925627e-10)
(0.2189573485 -0.001410315832 -1.211902905e-10)
(0.1995979472 -0.001429431286 -1.147019082e-10)
(0.1752825568 -0.001279524109 -1.078232268e-10)
(0.1458496833 -0.0009549405339 -9.548500759e-11)
(0.1111099194 -0.0006173495831 -7.370843131e-11)
(0.07091064037 -0.0001699027637 -4.43257789e-11)
(0.0252345505 -0.0001352327728 -1.331689404e-11)
(0.2469720629 -0.0008448093432 -8.038756333e-11)
(0.2373341997 -0.001209833103 -1.060032481e-10)
(0.2227648229 -0.001440816191 -1.109500741e-10)
(0.2032523877 -0.001449833349 -1.062969759e-10)
(0.1786697245 -0.001286774373 -9.663693993e-11)
(0.1488166105 -0.0009515818411 -8.18840564e-11)
(0.1134736465 -0.0006109891746 -6.121377492e-11)
(0.07247580832 -0.0001616679505 -3.64201325e-11)
(0.02580871904 -0.0001428114909 -1.098796336e-11)
(0.2513309966 -0.000859517837 -6.096991548e-11)
(0.2416516855 -0.001225760636 -8.193996949e-11)
(0.2269900986 -0.001450757346 -8.606583092e-11)
(0.2072979199 -0.001448632801 -8.371166386e-11)
(0.1824061226 -0.001274291548 -8.56522294e-11)
(0.1520750894 -0.0009333436305 -8.007478984e-11)
(0.1160573697 -0.0005954427364 -6.153468382e-11)
(0.07417866336 -0.0001503072173 -3.693678223e-11)
(0.02643049425 -0.0001497297219 -1.124360208e-11)
(0.2561490967 -0.0008616784477 -6.234916043e-11)
(0.2464198371 -0.001223298273 -1.046303018e-10)
(0.2316483708 -0.001438273803 -1.721824518e-10)
(0.211745607 -0.001424454304 -3.224763138e-10)
(0.1864983576 -0.001241412404 -3.597620223e-12)
(0.155627838 -0.0009001380143 -2.280721971e-10)
(0.1188612185 -0.0005709191094 -1.143618293e-10)
(0.07601826201 -0.0001359889246 -5.501827216e-11)
(0.02709926022 -0.0001559076964 -1.53735392e-11)
(0.2614439553 -0.0008501687154 -6.637956032e-11)
(0.2516539232 -0.00120107879 -1.118724221e-10)
(0.2367513437 -0.001402183605 -1.613397556e-10)
(0.2166028029 -0.001376664344 -1.963080823e-10)
(0.1909494536 -0.001188146358 -1.114562274e-10)
(0.1594745042 -0.0008523546459 -1.393418377e-10)
(0.1218830341 -0.0005378926313 -9.63168732e-11)
(0.07799227589 -0.0001189495881 -5.221002922e-11)
(0.02781394217 -0.0001612741561 -1.503591157e-11)
(0.267229993 -0.0008242623067 -6.710960565e-11)
(0.2573656619 -0.001158339063 -1.088017434e-10)
(0.2423068185 -0.001342061297 -1.425234867e-10)
(0.2218728524 -0.001305403457 -1.529104146e-10)
(0.1957587039 -0.001115159593 -1.235864206e-10)
(0.163611645 -0.0007908195211 -1.098437961e-10)
(0.1251184158 -0.0004970669077 -7.878031513e-11)
(0.08009704433 -9.947674053e-05 -4.439247371e-11)
(0.02857303078 -0.0001657627835 -1.297039097e-11)
(0.2735179615 -0.0007836854225 -6.410250131e-11)
(0.2635627548 -0.001094983846 -1.004043164e-10)
(0.2483183222 -0.001258278487 -1.246368478e-10)
(0.2275548706 -0.001211581003 -1.287807618e-10)
(0.2009216107 -0.001023726568 -1.124113146e-10)
(0.1680327765 -0.0007167368967 -9.20286325e-11)
(0.1285608127 -0.0004493347966 -6.513291456e-11)
(0.08232764937 -7.789366306e-05 -3.688735997e-11)
(0.02937461225 -0.0001693081758 -1.081840292e-11)
(0.2803144719 -0.0007286491927 -5.86681377e-11)
(0.2702484855 -0.001011604667 -8.962054072e-11)
(0.2547848396 -0.001151989221 -1.078362575e-10)
(0.2336436477 -0.001096817046 -1.095497168e-10)
(0.2064299394 -0.0009156448119 -9.697455146e-11)
(0.1727285083 -0.0006316085227 -7.757971952e-11)
(0.1322016652 -0.0003957278693 -5.444304176e-11)
(0.08467801832 -5.453935039e-05 -3.092099612e-11)
(0.03021639504 -0.0001718395128 -9.11161658e-12)
(0.2876214831 -0.0006598617633 -5.120667348e-11)
(0.2774213209 -0.0009094708876 -7.75802099e-11)
(0.2617005899 -0.001025080057 -9.20895862e-11)
(0.240129618 -0.0009633576415 -9.288899682e-11)
(0.2122718329 -0.0007931412399 -8.262825235e-11)
(0.1776867202 -0.0005371614845 -6.628518472e-11)
(0.1360305752 -0.000337377238 -4.728097096e-11)
(0.0871410477 -2.978081864e-05 -2.76086714e-11)
(0.03109574891 -0.0001732886585 -8.295882061e-12)
(0.2954359133 -0.0005785009595 -5.114637572e-11)
(0.2850746761 -0.0007904696467 -7.107699704e-11)
(0.2690549916 -0.0008800624579 -8.047077069e-11)
(0.246999006 -0.0008139346695 -8.025664305e-11)
(0.2184320611 -0.000658734696 -7.288955674e-11)
(0.1828928286 -0.0004352415348 -6.189692125e-11)
(0.1400355142 -0.0002754528433 -4.88717238e-11)
(0.08970885239 -4.013607311e-06 -3.169958727e-11)
(0.0320095791 -0.0001736123982 -9.729148054e-12)
(0.3037491912 -0.000486155813 1.98087352e-11)
(0.2931966405 -0.0006570093013 -2.911181917e-11)
(0.2768325996 -0.0007199445631 -5.861787634e-11)
(0.2542339366 -0.0006516421199 -7.04517892e-11)
(0.2248922389 -0.0005151455769 -7.518906158e-11)
(0.188330015 -0.0003277988049 -8.028488649e-11)
(0.1442030905 -0.0002110321079 -8.455134152e-11)
(0.09237295551 2.187816724e-05 -6.373496891e-11)
(0.03295440174 -0.0001733240247 -1.559037569e-11)
(0.3125471201 -0.0003847675505 -6.944512049e-10)
(0.3017700606 -0.0005119155254 -2.3219767e-10)
(0.2850134258 -0.0005480826255 -1.203072051e-10)
(0.2618129181 -0.000479742247 -1.025916644e-10)
(0.2316313243 -0.0003651064298 -1.20755436e-10)
(0.1939796088 -0.0002165983725 -1.722760424e-10)
(0.1485188342 -0.0001448325496 -2.76936187e-10)
(0.09512311545 4.656491511e-05 -2.164456407e-10)
(0.03392731071 -0.0001734173373 2.014315943e-12)
(0.3218096927 -0.0002764656586 -3.348805242e-10)
(0.3107724798 -0.0003581855713 -2.215797738e-10)
(0.2935729533 -0.0003679097911 -1.470267481e-10)
(0.2697108465 -0.0003014927121 -1.246772855e-10)
(0.2386256112 -0.0002113495216 -1.322562717e-10)
(0.1998208336 -0.000103214192 -1.523427049e-10)
(0.1529667148 -7.902972769e-05 -1.620103232e-10)
(0.09795022349 7.008637909e-05 -1.11421659e-10)
(0.03492522648 -0.0001726039254 -2.735855471e-11)
(0.3315113319 -0.0001636464259 -1.908759467e-10)
(0.3201767067 -0.0001991519972 -1.783359752e-10)
(0.3024831495 -0.0001831713615 -1.446903925e-10)
(0.2779004624 -0.000120255222 -1.276127037e-10)
(0.2458498801 -5.690035345e-05 -1.240676304e-10)
(0.2058338538 1.075033212e-05 -1.213897752e-10)
(0.1575275433 -1.182570469e-05 -1.056733748e-10)
(0.1008451702 9.336224894e-05 -6.768531312e-11)
(0.03594408098 -0.000171656027 -1.997271029e-11)
(0.3416219102 -4.852902471e-05 -1.225426999e-10)
(0.3299518007 -3.762714201e-05 -1.391057743e-10)
(0.311713012 3.309767479e-06 -1.2943547e-10)
(0.2863519969 6.083575859e-05 -1.183495817e-10)
(0.253277536 9.778104944e-05 -1.090554618e-10)
(0.2119952369 0.0001190459403 -9.632150434e-11)
(0.1621881977 5.517798185e-05 -7.519543942e-11)
(0.1037945174 0.0001191070198 -4.561391797e-11)
(0.03698014846 -0.000171433336 -1.366253546e-11)
(0.3521066325 6.663113125e-05 -8.594678082e-11)
(0.3400626733 0.0001231443644 -1.09240602e-10)
(0.3212279242 0.0001875905564 -1.108350638e-10)
(0.2950327037 0.0002384472656 -1.039389352e-10)
(0.2608799158 0.0002478826488 -9.286580172e-11)
(0.2182802947 0.0002254957519 -7.712999415e-11)
(0.1669330247 0.0001197499602 -5.645147797e-11)
(0.1067873954 0.0001423025715 -3.284093847e-11)
(0.03802980614 -0.0001702482564 -9.711100692e-12)
(0.3629247968 0.0001793538291 -6.423668837e-11)
(0.3504693293 0.0002795813192 -8.699537368e-11)
(0.3309900092 0.0003657310219 -9.2811861e-11)
(0.3039085357 0.0004093700705 -8.818621511e-11)
(0.2686276948 0.0003916578402 -7.697108436e-11)
(0.2246670514 0.0003275218626 -6.095216158e-11)
(0.1717414295 0.0001812653692 -4.20100512e-11)
(0.109815038 0.0001635207346 -2.303190385e-11)
(0.03908925107 -0.0001688147687 -6.545100462e-12)
(0.3740312294 0.0002874004627 -4.987404327e-11)
(0.3611285484 0.0004289374238 -6.973496773e-11)
(0.3409594968 0.0005351242565 -7.5996093e-11)
(0.3129444012 0.0005714283523 -7.153847867e-11)
(0.2764912144 0.0005275478888 -5.946079439e-11)
(0.2311315886 0.0004239871387 -4.291319222e-11)
(0.1765968542 0.0002393927519 -2.418668787e-11)
(0.1128663082 0.0001824358185 -9.315026239e-12)
(0.04015536265 -0.0001675235816 -1.817804935e-12)
(0.3853784077 0.0003890926865 -3.899926001e-11)
(0.3719955925 0.0005691242287 -5.44302846e-11)
(0.351095721 0.0006936830371 -5.709921125e-11)
(0.3221047168 0.0007228600028 -4.721860578e-11)
(0.2844407296 0.0006542821751 -2.814432799e-11)
(0.2376503867 0.0005139812713 -1.489621729e-11)
(0.1814823176 0.0002934396452 1.627364823e-11)
(0.1159307155 0.0001999614552 2.719114233e-11)
(0.04122466343 -0.0001653977409 1.02107559e-11)
(0.3969169657 0.0004831971377 -2.449271274e-11)
(0.3830244453 0.000698634536 -2.809679898e-11)
(0.3613573879 0.0008399347356 -1.118411085e-11)
(0.331353836 0.0008624473851 3.844305586e-11)
(0.2924467792 0.0007710114744 1.504628938e-10)
(0.2442004033 0.0005969448721 -3.771242724e-11)
(0.1863813437 0.0003432057574 1.575338525e-10)
(0.1189985512 0.0002160234155 1.612086094e-10)
(0.04229342822 -0.0001625831466 4.073832366e-11)
(0.4085966721 0.0005688608583 -1.106155872e-11)
(0.394168702 0.000816432839 -7.266790928e-12)
(0.371703284 0.0009728758657 1.184026513e-11)
(0.3406565374 0.0009893657022 4.44523106e-11)
(0.3004805074 0.0008771633684 7.533067556e-11)
(0.2507592293 0.0006724969647 5.096643038e-11)
(0.191277962 0.0003885629698 8.226954575e-11)
(0.1220602054 0.0002305765524 7.006483435e-11)
(0.04335846356 -0.0001592062808 2.207119764e-11)
(0.4203672927 0.0006455684911 -1.452842382e-12)
(0.4053822833 0.0009219043691 5.318702772e-12)
(0.3820928403 0.001091927555 2.10177395e-11)
(0.3499784614 0.001103148898 4.092140033e-11)
(0.308514004 0.0009724239637 5.459716897e-11)
(0.2573053626 0.0007404259322 5.232831035e-11)
(0.1961569548 0.0004294439417 5.164963081e-11)
(0.125106575 0.0002435646575 3.700916683e-11)
(0.0444167464 -0.0001553802955 1.179954706e-11)
(0.432179462 0.0007130873457 4.273796285e-12)
(0.4166201537 0.001014787005 1.159973428e-11)
(0.392486674 0.001196864311 2.326883002e-11)
(0.3592864938 0.001203627828 3.532639791e-11)
(0.3165205592 0.001056694122 4.214470554e-11)
(0.263818363 0.0008006608372 4.085859925e-11)
(0.2010039388 0.000465839094 3.465073159e-11)
(0.1281291054 0.000254962411 2.244953642e-11)
(0.04546546191 -0.0001511958673 6.980658483e-12)
(0.4439854583 0.0007714192565 7.085165263e-12)
(0.4278389533 0.001095113131 1.391145599e-11)
(0.4028470654 0.001287755772 2.228040515e-11)
(0.3685491049 0.001290882567 2.948428122e-11)
(0.3244748938 0.001130057237 3.254870395e-11)
(0.2702789997 0.000853250777 3.03613135e-11)
(0.2058054566 0.0004977907033 2.405192239e-11)
(0.1311198391 0.0002647682138 1.478604469e-11)
(0.04650200332 -0.0001467289614 4.50687015e-12)
(0.4557398754 0.0008207543472 8.014037209e-12)
(0.4389975426 0.001163151813 1.397494428e-11)
(0.4131383647 0.001364909835 1.993203834e-11)
(0.3777366317 0.001365194656 2.416819432e-11)
(0.3323533424 0.001192744464 2.515685428e-11)
(0.2766693619 0.0008983430715 2.255801975e-11)
(0.2105490362 0.0005253872743 1.719559729e-11)
(0.1340714409 0.0002730015542 1.028171812e-11)
(0.0475239793 -0.0001420445324 3.099083731e-12)
(0.467400166 0.0008614285969 7.859886765e-12)
(0.4500574453 0.001219357027 1.289734852e-11)
(0.42332732 0.001428822264 1.717328202e-11)
(0.3868215045 0.001427005612 1.964198108e-11)
(0.3401340004 0.001245104363 1.957852494e-11)
(0.2829729453 0.0009361624886 1.702559044e-11)
(0.2152232368 0.00054875576 1.268207565e-11)
(0.1369772148 0.000279699951 7.477405989e-12)
(0.04852921726 -0.0001371985448 2.243790111e-12)
(0.4789270593 0.0008938861033 7.166953741e-12)
(0.4609831861 0.001264320891 1.135565593e-11)
(0.4333833269 0.001480130982 1.449303027e-11)
(0.3957784144 0.001476881672 1.59617657e-11)
(0.3477968275 0.001287578646 1.547179461e-11)
(0.2891747104 0.0009669951383 1.322357203e-11)
(0.2198176766 0.0005680537919 9.771425026e-12)
(0.1398311122 0.0002849153819 5.760555897e-12)
(0.04951576333 -0.0001322393156 1.735923255e-12)
(0.4902848524 0.0009186467856 6.292606242e-12)
(0.4717425269 0.001298733037 9.782823732e-12)
(0.4432786038 0.00151957737 1.221518864e-11)
(0.4045844303 0.001515483247 1.324532646e-11)
(0.3553237155 0.001320681589 1.279697637e-11)
(0.2952611148 0.0009911758614 1.105876047e-11)
(0.2243230445 0.0005834639105 8.36009597e-12)
(0.142627731 0.00028871049 5.068798558e-12)
(0.0504818794 -0.0001272093215 1.562729062e-12)
(0.5014415848 0.0009362789531 5.542686173e-12)
(0.4823066093 0.001323347712 8.628260975e-12)
(0.4529882951 0.001547973736 1.090562232e-11)
(0.4132190635 0.001543536969 1.222979317e-11)