/*--------------------------------*- C++ -*----------------------------------*\
| =========                 |                                                 |
| \\      /  F ield         | OpenFOAM: The Open Source CFD Toolbox           |
|  \\    /   O peration     | Version:  2212                                  |
|   \\  /    A nd           | Website:  www.openfoam.com                      |
|    \\/     M anipulation  |                                                 |
\*---------------------------------------------------------------------------*/
FoamFile
{
    version     2.0;
    format      ascii;
    arch        "LSB;label=32;scalar=64";
    class       volScalarField;
    location    "20.00000000";
    object      A1C2H3_0;
}
// * * * * * * * * * * * * * * * * * * * * * * * * * * * * * * * * * * * * * //

dimensions      [0 0 0 0 0 0 0];

internalField   nonuniform List<scalar> 
3000
(
5.112458435e-23
5.742949298e-23
6.694341554e-23
7.962120355e-23
9.533353771e-23
1.136530764e-22
1.334755294e-22
1.523884991e-22
1.657606795e-22
1.91939935e-22
2.164793764e-22
2.534924791e-22
3.029230071e-22
3.647191383e-22
4.385350302e-22
5.230849681e-22
6.141081282e-22
6.947283099e-22
4.299244637e-22
4.88695187e-22
5.781846858e-22
6.99683173e-22
8.553641528e-22
1.047469954e-21
1.275220502e-21
1.525825197e-21
1.739948911e-21
8.188629989e-22
9.405443744e-22
1.128542619e-21
1.389204651e-21
1.731736347e-21
2.164792812e-21
2.685931362e-21
3.25335855e-21
3.711092628e-21
1.454042063e-21
1.690592104e-21
2.061817921e-21
2.586554913e-21
3.289440704e-21
4.190099105e-21
5.273319303e-21
6.423078174e-21
7.304299944e-21
2.500284092e-21
2.944232412e-21
3.650933213e-21
4.665473284e-21
6.041963411e-21
7.815075704e-21
9.931991825e-21
1.212622474e-20
1.375107987e-20
4.244679528e-21
5.060146791e-21
6.373382862e-21
8.279967119e-21
1.088606984e-20
1.424355885e-20
1.821368038e-20
2.224770126e-20
2.515882545e-20
7.184155569e-21
8.660017337e-21
1.105790382e-20
1.456616139e-20
1.93804679e-20
2.557023034e-20
3.282505007e-20
4.008908984e-20
4.524342721e-20
1.218080294e-20
1.482401853e-20
1.914631904e-20
2.550215746e-20
3.423970685e-20
4.544324114e-20
5.848035348e-20
7.139877323e-20
8.046468955e-20
2.073009071e-20
2.542778292e-20
3.314475577e-20
4.452898642e-20
6.018883751e-20
8.02160586e-20
1.033928753e-19
1.261920392e-19
1.420748982e-19
3.542977306e-20
4.373246248e-20
5.741445949e-20
7.763869146e-20
1.054588335e-19
1.409578482e-19
1.818720051e-19
2.219180571e-19
2.496816334e-19
6.079620568e-20
7.54123283e-20
9.955018581e-20
1.352728817e-19
1.843984164e-19
2.469667335e-19
3.188617951e-19
3.889917326e-19
4.374677944e-19
1.046869762e-19
1.303482103e-19
1.727897521e-19
2.356465022e-19
3.220505723e-19
4.319241139e-19
5.578800952e-19
6.804655691e-19
7.651037507e-19
1.807719291e-19
2.257454888e-19
3.002108467e-19
4.105541095e-19
5.621796177e-19
7.547347365e-19
9.750351684e-19
1.189102176e-18
1.337050426e-18
3.128070916e-19
3.91524934e-19
5.219881044e-19
7.154307915e-19
9.812691984e-19
1.318680661e-18
1.704249377e-18
2.078421884e-18
2.337217606e-18
5.420008314e-19
6.795847825e-19
9.077992309e-19
1.24643786e-18
1.712159509e-18
2.303860012e-18
2.980870062e-18
3.637511143e-18
4.087488822e-18
9.397437868e-19
1.179762878e-18
1.578050916e-18
2.169144817e-18
2.981856062e-18
4.013579858e-18
5.192320777e-18
6.333528655e-18
7.115452194e-18
1.629789738e-18
2.047798795e-18
2.741547008e-18
3.771025037e-18
5.185861568e-18
6.980559552e-18
9.028938172e-18
1.101047858e-17
1.236828601e-17
2.826834029e-18
3.553963544e-18
4.760834784e-18
6.55159002e-18
9.011961587e-18
1.213151154e-17
1.569022889e-17
1.913141003e-17
2.148892887e-17
4.903513455e-18
6.167462815e-18
8.265481912e-18
1.137841419e-17
1.5654708e-17
2.107534897e-17
2.725728447e-17
3.323332119e-17
3.732653062e-17
8.506737512e-18
1.070295596e-17
1.434869147e-17
1.97580283e-17
2.718827221e-17
3.660529497e-17
4.734251156e-17
5.771962992e-17
6.482600222e-17
1.475969721e-17
1.857498444e-17
2.490873322e-17
3.430638558e-17
4.721404211e-17
6.357080647e-17
8.221706748e-17
1.002343655e-16
1.125705292e-16
2.561265828e-17
3.223979145e-17
4.324181864e-17
5.956570139e-17
8.198474329e-17
1.103905481e-16
1.427665332e-16
1.740444136e-16
1.954570916e-16
4.445212021e-17
5.596254855e-17
7.507153664e-17
1.034224098e-16
1.423549324e-16
1.916759798e-16
2.47879406e-16
3.021657016e-16
3.393245257e-16
7.715835634e-17
9.714922981e-17
1.303356264e-16
1.795676784e-16
2.471645772e-16
3.327806398e-16
4.303197436e-16
5.245079641e-16
5.889656116e-16
1.33940911e-16
1.68658112e-16
2.262863184e-16
3.117650593e-16
4.29104129e-16
5.776801562e-16
7.468918761e-16
9.102357763e-16
1.021987233e-15
2.325228371e-16
2.928095468e-16
3.928670189e-16
5.412471964e-16
7.448703453e-16
1.002601089e-15
1.295998768e-15
1.579093806e-15
1.772693967e-15
4.036586787e-16
5.083330359e-16
6.82023221e-16
9.395152925e-16
1.292722953e-15
1.739551257e-15
2.247910108e-15
2.738112049e-15
3.073154575e-15
7.006848965e-16
8.823878164e-16
1.183803434e-15
1.630450051e-15
2.242769445e-15
3.016835876e-15
3.896775422e-15
4.744559199e-15
5.323538105e-15
1.216020419e-15
1.531322275e-15
2.054141494e-15
2.828412276e-15
3.889052253e-15
5.228579927e-15
6.749646222e-15
8.213423832e-15
9.211985482e-15
2.109609579e-15
2.656434621e-15
3.562657813e-15
4.903679357e-15
6.738792026e-15
9.053496606e-15
1.167806631e-14
1.41998696e-14
1.591764686e-14
3.657809633e-15
4.605379198e-15
6.174607897e-15
8.494363467e-15
1.16645558e-14
1.565665676e-14
2.017457407e-14
2.450679337e-14
2.745201396e-14
6.337122491e-15
7.977196292e-15
1.069074244e-14
1.469684241e-14
2.016217878e-14
2.702994077e-14
3.478341148e-14
4.219891841e-14
4.72276502e-14
1.096700542e-14
1.380111052e-14
1.848471621e-14
2.538776824e-14
3.478482204e-14
4.656185162e-14
5.981724187e-14
7.245370833e-14
8.099607813e-14
1.895225836e-14
2.383922824e-14
3.190351874e-14
4.376457802e-14
5.986734353e-14
7.998224096e-14
1.02537434e-13
1.239540966e-13
1.383765274e-13
3.269212868e-14
4.109573302e-14
5.493790561e-14
7.524510644e-14
1.027235604e-13
1.369118851e-13
1.750751184e-13
2.111398947e-13
2.353161073e-13
5.626648096e-14
7.066729479e-14
9.433553949e-14
1.289505808e-13
1.7560383e-13
2.333740256e-13
2.97518122e-13
3.577988424e-13
3.979951948e-13
9.657867253e-14
1.211519791e-13
1.614320603e-13
2.201244719e-13
2.988580302e-13
3.958128366e-13
5.028040669e-13
6.027144809e-13
6.689398505e-13
1.652445654e-13
2.069629493e-13
2.751326222e-13
3.740325604e-13
5.059815971e-13
6.67436037e-13
8.443675171e-13
1.008422746e-12
1.116453165e-12
2.816887716e-13
3.520918465e-13
4.66713915e-13
6.321747292e-13
8.515593601e-13
1.118087006e-12
1.407922557e-12
1.674597961e-12
1.848966637e-12
4.781737926e-13
5.961677372e-13
7.874693285e-13
1.062053597e-12
1.423602968e-12
1.859397981e-12
2.329367139e-12
2.758240652e-12
3.036592171e-12
8.078890865e-13
1.004106494e-12
1.320735291e-12
1.772339129e-12
2.362455871e-12
3.06773782e-12
3.821634932e-12
4.503742468e-12
4.943096396e-12
1.357825872e-12
1.681304383e-12
2.200578955e-12
2.936109066e-12
3.889387609e-12
5.018525178e-12
6.214482195e-12
7.287152313e-12
7.972820648e-12
2.269041123e-12
2.797281373e-12
3.640482067e-12
4.826023657e-12
6.34931647e-12
8.136941747e-12
1.001280355e-11
1.168069378e-11
1.273886837e-11
3.768178035e-12
4.62203383e-12
5.976837979e-12
7.866934182e-12
1.027392454e-11
1.307210408e-11
1.598128927e-11
1.854596578e-11
2.016136174e-11
6.215899725e-12
7.581257552e-12
9.734143032e-12
1.271369854e-11
1.647395155e-11
2.080454616e-11
2.526629567e-11
2.916753749e-11
3.160798063e-11
1.018039001e-11
1.233924247e-11
1.572161915e-11
2.036511604e-11
2.61729322e-11
3.280071213e-11
3.957000449e-11
4.544314846e-11
4.909367355e-11
1.654752067e-11
1.992187863e-11
2.517493642e-11
3.23292139e-11
4.11994246e-11
5.123343946e-11
6.139770748e-11
7.015287887e-11
7.556282181e-11
2.668400698e-11
3.18972038e-11
3.996210248e-11
5.086104886e-11
6.426133431e-11
7.929463642e-11
9.440691388e-11
1.073380419e-10
1.152858438e-10
4.267633235e-11
5.063776096e-11
6.28799875e-11
7.930231244e-11
9.933490137e-11
1.216362099e-10
1.438976864e-10
1.628319689e-10
1.744140468e-10
6.767707337e-11
7.969842323e-11
9.807811844e-11
1.225631575e-10
1.522131439e-10
1.849886886e-10
2.174981283e-10
2.450003597e-10
2.617525881e-10
1.064024248e-10
1.243562938e-10
1.516603806e-10
1.878019084e-10
2.312751701e-10
2.790250784e-10
3.261185364e-10
3.657696264e-10
3.89833289e-10
1.658414764e-10
1.923773372e-10
2.325348427e-10
2.853794508e-10
3.485604531e-10
4.175618392e-10
4.852742016e-10
5.420501849e-10
5.763984822e-10
2.562565016e-10
2.95091757e-10
3.535986939e-10
4.30184755e-10
5.212589193e-10
6.20224312e-10
7.16917246e-10
7.977044898e-10
8.464488081e-10
3.925706912e-10
4.488851889e-10
5.333851787e-10
6.434794117e-10
7.737801203e-10
9.147496178e-10
1.051961085e-09
1.166252753e-09
1.235057821e-09
5.963292823e-10
6.772995378e-10
7.983659288e-10
9.554541014e-10
1.140603039e-09
1.340147896e-09
1.53374068e-09
1.694579313e-09
1.791226254e-09
8.984156261e-10
1.013935569e-09
1.186126913e-09
1.408750977e-09
1.670197379e-09
1.951044824e-09
2.222757098e-09
2.448008302e-09
2.583155371e-09
1.342809499e-09
1.506462077e-09
1.749745045e-09
2.063305773e-09
2.430401592e-09
2.823625622e-09
3.20316221e-09
3.517233252e-09
3.705442994e-09
1.991768308e-09
2.222134132e-09
2.56379994e-09
3.002984681e-09
3.515779488e-09
4.063751941e-09
4.59160224e-09
5.02775888e-09
5.288883797e-09
2.932945323e-09
3.255363727e-09
3.732606961e-09
4.344656473e-09
5.057658607e-09
5.818021426e-09
6.549254049e-09
7.152742348e-09
7.513792726e-09
4.289136964e-09
4.738073875e-09
5.401459844e-09
6.250560919e-09
7.237795697e-09
8.288804925e-09
9.298175379e-09
1.013042627e-08
1.062808906e-08
6.231586897e-09
6.853816021e-09
7.771939399e-09
8.945127744e-09
1.030693705e-08
1.17546502e-08
1.3143475e-08
1.428776769e-08
1.497180182e-08
8.998084854e-09
9.856958186e-09
1.112269809e-08
1.273778659e-08
1.460996602e-08
1.659790697e-08
1.850331536e-08
2.007240762e-08
2.101022344e-08
1.291750313e-08
1.40986789e-08
1.583759114e-08
1.805381193e-08
2.061988392e-08
2.334203679e-08
2.594942389e-08
2.809583617e-08
2.937867629e-08
1.844293561e-08
2.0062052e-08
2.244361665e-08
2.547589297e-08
2.898358079e-08
3.270185239e-08
3.626163871e-08
3.919151696e-08
4.094280115e-08
2.619626465e-08
2.840920254e-08
3.166187391e-08
3.579993147e-08
4.05832433e-08
4.565090432e-08
5.050107009e-08
5.449285802e-08
5.687944305e-08
3.702780195e-08
4.004437479e-08
4.447566813e-08
5.010956348e-08
5.661832465e-08
6.351140026e-08
7.010771015e-08
7.553723703e-08
7.878457118e-08
5.209564199e-08
5.619778641e-08
6.222098119e-08
6.987506326e-08
7.87142408e-08
8.807335777e-08
9.702970579e-08
1.044037206e-07
1.088161283e-07
7.297052039e-08
7.853632885e-08
8.670575684e-08
9.708356289e-08
1.090652763e-07
1.217510409e-07
1.338928736e-07
1.438934785e-07
1.498810575e-07
1.017732312e-07
1.093084443e-07
1.203657233e-07
1.344087872e-07
1.506204153e-07
1.677859024e-07
1.842201178e-07
1.977628803e-07
2.058766708e-07
1.413529103e-07
1.515317256e-07
1.664656246e-07
1.854295409e-07
2.073216909e-07
2.30505918e-07
2.527108354e-07
2.710194502e-07
2.81996553e-07
1.955155285e-07
2.092327111e-07
2.293554767e-07
2.549066701e-07
2.844047875e-07
3.156509305e-07
3.455896798e-07
3.702897456e-07
3.851098306e-07
2.693124392e-07
2.877486401e-07
3.147914313e-07
3.49127739e-07
3.887705888e-07
4.307719403e-07
4.710317259e-07
5.042653258e-07
5.242193371e-07
3.693983763e-07
3.941001598e-07
4.30329567e-07
4.763267512e-07
5.294336829e-07
5.857087535e-07
6.396667138e-07
6.842278359e-07
7.109987328e-07
5.044664249e-07
5.374416778e-07
5.857979991e-07
6.47182525e-07
7.180492006e-07
7.931448108e-07
8.651584649e-07
9.24647106e-07
9.604007821e-07
6.857637506e-07
7.295918251e-07
7.938477783e-07
8.753935587e-07
9.695126891e-07
1.069230348e-06
1.164847563e-06
1.24383745e-06
1.291320782e-06
9.276859833e-07
9.856401276e-07
1.070576038e-06
1.178319438e-06
1.302618984e-06
1.434256191e-06
1.560435778e-06
1.664649435e-06
1.727293918e-06
1.248440082e-06
1.3246175e-06
1.436205663e-06
1.577669149e-06
1.74075673e-06
1.913350344e-06
2.07868272e-06
2.215165587e-06
2.297184981e-06
1.670755311e-06
1.770207843e-06
1.915795804e-06
2.100207443e-06
2.312605301e-06
2.537164424e-06
2.752078352e-06
2.929353541e-06
3.035833004e-06
2.222611393e-06
2.351468394e-06
2.539948427e-06
2.778440344e-06
3.052799997e-06
3.342507784e-06
3.6194395e-06
3.847632929e-06
3.984593235e-06
2.937943064e-06
3.103515753e-06
3.345471082e-06
3.651249163e-06
4.002514949e-06
4.372876639e-06
4.726391616e-06
5.017318265e-06
5.191764466e-06
3.857284831e-06
4.068147652e-06
4.375953088e-06
4.764401836e-06
5.209911603e-06
5.678836711e-06
6.125686808e-06
6.492883177e-06
6.712816885e-06
5.028293624e-06
5.294320177e-06
5.682185948e-06
6.170907096e-06
6.730414095e-06
7.318216882e-06
7.87732169e-06
8.33601785e-06
8.610415125e-06
6.506090892e-06
6.838446375e-06
7.32239658e-06
7.931166168e-06
8.626770857e-06
9.356079899e-06
1.004842552e-05
1.061545256e-05
1.095420481e-05
8.353389456e-06
8.764471515e-06
9.36224976e-06
1.011288722e-05
1.096887356e-05
1.186444692e-05
1.271290057e-05
1.340653312e-05
1.382035123e-05
1.064036461e-05
1.114369074e-05
1.187459112e-05
1.279073958e-05
1.383331667e-05
1.492176511e-05
1.59508091e-05
1.679054667e-05
1.729083066e-05
1.344424564e-05
1.405428884e-05
1.493891539e-05
1.60457383e-05
1.73026941e-05
1.861212056e-05
1.984751404e-05
2.085380806e-05
2.145248655e-05
1.684861902e-05
1.75805968e-05
1.864055943e-05
1.996436366e-05
2.146464328e-05
2.302421165e-05
2.44925924e-05
2.568652873e-05
2.639587302e-05
2.094245057e-05
2.181207554e-05
2.306963399e-05
2.463743456e-05
2.64106596e-05
2.825010999e-05
2.997855228e-05
3.138150123e-05
3.22139145e-05
2.581884934e-05
2.684205166e-05
2.831972283e-05
3.015876723e-05
3.22347165e-05
3.438384754e-05
3.639939663e-05
3.803265663e-05
3.900049948e-05
3.157361027e-05
3.276624447e-05
3.448638996e-05
3.662366282e-05
3.903173616e-05
4.151987437e-05
4.384906908e-05
4.573348774e-05
4.684883055e-05
3.830358606e-05
3.968113536e-05
4.16655482e-05
4.412727887e-05
4.689596908e-05
4.975145143e-05
5.241986484e-05
5.457548593e-05
5.584991541e-05
4.610495008e-05
4.768224206e-05
4.995175203e-05
5.276294834e-05
5.591934641e-05
5.916904154e-05
6.220086137e-05
6.464660546e-05
6.609104522e-05
5.507142284e-05
5.686237029e-05
5.94364869e-05
6.262051845e-05
6.618987821e-05
6.985877321e-05
7.327644855e-05
7.602985165e-05
7.765442051e-05
6.529254567e-05
6.730992527e-05
7.020653669e-05
7.378478971e-05
7.779017646e-05
8.190105687e-05
8.572504274e-05
8.880208428e-05
9.06160168e-05
7.685209954e-05
7.910737897e-05
8.234252172e-05
8.633414399e-05
9.079618592e-05
9.536942882e-05
9.961805368e-05
0.0001030330819
0.0001050448352
8.982678982e-05
9.23300085e-05
9.591771607e-05
0.0001003394679
0.0001052761953
0.0001103296306
0.000115019233
0.000118784946
0.000121001443
0.0001042853628
0.0001070450456
0.0001109972215
0.0001158634884
0.0001212902948
0.0001268384444
0.0001319805569
0.0001361053091
0.0001385312631
0.0001202883403
0.0001233114894
0.0001276375317
0.000132958385
0.0001388851104
0.0001449371371
0.0001505398965
0.0001550298471
0.0001576687358
0.0001378827312
0.0001411733327
0.0001458786103
0.000151660359
0.0001580935576
0.0001646555864
0.0001707242438
0.0001755833088
0.000178437315
0.0001571002996
0.0001606606704
0.0001657482669
0.0001719943841
0.0001789375022
0.0001860125993
0.0001925496158
0.0001977795157
0.0002008495474
0.0001779614045
0.0001817922657
0.0001872630275
0.0001939742713
0.0002014277958
0.0002090160836
0.0002160212518
0.0002216216052
0.000224907349
0.0002004751583
0.0002045757249
0.0002104283805
0.0002176029546
0.0002255645926
0.0002336634246
0.0002411340296
0.0002471024805
0.0002506024754
0.0002246398366
0.0002290079294
0.0002352392455
0.0002428729915
0.0002513378821
0.0002599420527
0.000267873062
0.0002742054292
0.0002779171531
0.0002504435018
0.0002550756723
0.0002616806301
0.0002697672404
0.0002787281858
0.0002878301602
0.0002962144314
0.0003029048716
0.0003068248355
0.0002778647883
0.0002827564501
0.0002897284295
0.0002982596688
0.0003077073743
0.000317297527
0.0003261260233
0.0003331672002
0.0003372910463
0.0003068737967
0.0003120193568
0.0003193503206
0.000328316247
0.0003382395612
0.0003483064145
0.0003575684205
0.0003649516748
0.0003692742759
0.0003374330505
0.0003428260363
0.0003505067092
0.0003598958887
0.0003702820365
0.0003808124933
0.0003904958262
0.0003982113429
0.0004027268991
0.0003694984751
0.0003751316553
0.0003831516927
0.0003929514039
0.000403786209
0.0004147657756
0.0004248569882
0.000432893957
0.0004375960903
0.0004030203683
0.0004088858646
0.0004172340117
0.0004274304367
0.0004386985314
0.0004501115278
0.0004605961007
0.0004689428693
0.0004738247133
0.0004379443362
0.0004440337273
0.0004526979654
0.0004632763679
0.000474961388
0.0004867911446
0.0004976536667
0.0005062978846
0.0005113521688
0.0004742121789
0.0004805165958
0.0004894842771
0.0005004291662
0.0005125139316
0.0005247429718
0.0005359673083
0.0005448960606
0.0005501151899
0.0005117627134
0.000518272926
0.0005275308971
0.0005388261783
0.0005512928591
0.0005639030678
0.000575472515
0.0005846724471
0.0005900485746
0.0005505325264
0.0005572390233
0.0005667737385
0.000578402851
0.0005912331201
0.0006042058982
0.0006161033259
0.0006255607573
0.0006310858518
0.0005904566562
0.0005973497169
0.0006071473413
0.0006190933844
0.0006322685566
0.0006455849621
0.0006577929433
0.0006674939711
0.0006731598782
0.0006314692004
0.0006385389617
0.0006485854643
0.0006608313113
0.00067433247
0.0006879733487
0.0007004742746
0.0007104048662
0.0007162033667
0.0006735038594
0.0006807403786
0.0006910216196
0.000703550018
0.0007173581185
0.0007313041985
0.0007440803986
0.000754226495
0.0007601493577
0.0007164943893
0.0007238876884
0.000734389486
0.0007471831507
0.0007612791418
0.0007755111831
0.0007885450174
0.0007988925919
0.0008049316111
0.000760374996
0.0007679151149
0.0007786233263
0.0007916650399
0.0008060299644
0.0008205288346
0.000833802778
0.0008443379066
0.0008504849442
0.0008050807122
0.0008127577589
0.0008236583477
0.0008369310316
0.0008515460989
0.0008662928505
0.0008797895674
0.0008904984924
0.0008967455147
0.0008505476849
0.0008583518712
0.0008694309563
0.0008829177367
0.0008977643993
0.0009127403492
0.0009264427633
0.0009373119456
0.0009436510537
0.0008967134123
0.0009046350914
0.0009158790004
0.0009295632687
0.0009446232861
0.0009598100784
0.0009737014295
0.0009847175942
0.0009911410497
0.0009435169513
0.000951546648
0.0009629419592
0.0009768074229
0.0009920629177
0.001007442579
0.001021506473
0.001032656648
0.001039156895
0.0009908990774
0.0009990275146
0.001010561094
0.001024591821
0.001040025327
0.001055580313
0.001069800764
0.00108107231
0.001087641994
0.00103880241
0.001047020532
0.001058679565
0.001072860022
0.001088454522
0.001104167759
0.001118529221
0.001129909861
0.001136541844
0.001087171508
0.001095470498
0.001107242516
0.0011215576
0.001137296562
0.001153151474
0.001167638872
0.001179116711
0.001185804081
0.001135952936
0.001144324234
0.001156197135
0.001170632196
0.001186499599
0.001202480138
0.001217078888
0.001228642428
0.001235378511
0.001185095308
0.001193530622
0.00120549269
0.001220033553
0.001236013907
0.001252104567
0.001266800594
0.001278438746
0.001285217109
0.00123454931
0.001243040626
0.001255080543
0.001269713524
0.001285791883
0.001301977721
0.001316757465
0.001328459558
0.001335274015
0.001284267707
0.001292807296
0.001304914151
0.001319626066
0.001335788042
0.001352054678
0.001366905107
0.001378660891
0.001385505504
0.001334205333
0.001342785756
0.00135494905
0.001369727221
0.001385958988
0.001402292615
0.001417201224
0.00142900087
0.001435869949
0.001384319068
0.001392933177
0.001405142829
0.001419975086
0.001436263381
0.001452650764
0.001467605573
0.001479439673
0.001486327776
0.001434567805
0.001443208746
0.00145545509
0.001470329772
0.001486661892
0.001503090365
0.001518079917
0.001529939479
0.001536841407
0.00148491241
0.001493573619
0.001505847404
0.001520753354
0.001537117153
0.00155357461
0.001568587964
0.001580464406
0.0015873752
0.001535315675
0.001543990876
0.001556283258
0.001571209817
0.001587593698
0.001604068589
0.00161909531
0.001630980452
0.001637895387
0.001585742259
0.001594425461
0.001606727999
0.001621664999
0.001638057902
0.001654539218
0.001669569367
0.001681455423
0.001688370003
0.001636158635
0.001644844124
0.001657148774
0.001672086525
0.001688477919
0.00170495518
0.0017199793
0.001731858865
0.00173876882
0.001686533027
0.001695215363
0.001707514464
0.001722443745
0.001738823609
0.001755286852
0.001770295958
0.001782161999
0.001789063271
0.001736835345
0.001745509352
0.001757795621
0.001772707664
0.001789066479
0.001805506241
0.001820491801
0.001832337644
0.001839226386
0.001787037121
0.001795697882
0.001807964399
0.001822850881
0.001839179608
0.001855586908
0.001870540832
0.001882360151
0.001889232717
0.001837111448
0.001845754294
0.001857994493
0.001872847515
0.001889137583
0.001905503909
0.00192041853
0.001932205332
0.00193905827
0.001887032906
0.001895653412
0.001907861065
0.001922673142
0.00193891643
0.00195523372
0.001970101779
0.001981850392
0.001988680437
0.001936777506
0.001945371477
0.001957540687
0.001972304729
0.00198849355
0.002004754175
0.002019568805
0.002031273867
0.002038077931
0.001986322621
0.001994886086
0.002007011273
0.002021720572
0.002037847654
0.002054044398
0.002068799111
0.002080455554
0.002087230721
0.002035646926
0.002044176131
0.002056252014
0.00207090023
0.002086958699
0.002103084748
0.002117773413
0.002129376454
0.002136119972
0.002084730337
0.002093221732
0.002105243325
0.002119824467
0.002135807833
0.002151856751
0.002166473583
0.002178018709
0.002184727982
0.00213355395
0.002142004186
0.00215396678
0.002168475193
0.002184377331
0.002200343049
0.002214882593
0.002226365547
0.002233038129
0.002182099991
0.002190505904
0.002202405056
0.002216835408
0.002232650544
0.00224852734
0.002262984456
0.002274401231
0.002281034817
0.002230351752
0.002238710361
0.002250541885
0.00226488915
0.002280611843
0.002296394328
0.002310764175
0.002322110998
0.002328703421
0.002278293546
0.002286602044
0.002298361996
0.002312621442
0.002328246569
0.002343929672
0.002358207697
0.00236948102
0.002376030241
0.002325910656
0.002334166399
0.002345851067
0.002360018241
0.002375540987
0.002391119939
0.002405301862
0.002416498351
0.002423002455
0.002373189284
0.002381389787
0.002392995682
0.0024070664
0.002422482236
0.002437952558
0.002452034361
0.002463150885
0.002469608076
0.002420116509
0.002428259438
0.002439783283
0.002453753614
0.002469058291
0.00248441578
0.00249839369
0.002509427314
0.002515835907
0.002466680245
0.002474763407
0.002486202127
0.002500068384
0.002515257918
0.002530498631
0.002544369116
0.00255531709
0.002561675507
0.002512869196
0.002520890538
0.002532241249
0.002545999979
0.002561070634
0.002576190882
0.002589950634
0.002600810385
0.002607117149
0.002558672822
0.002566630419
0.002577890423
0.002591538392
0.002606486677
0.002621483008
0.002635128934
0.002645898057
0.00265215179
0.0026040813
0.002611973354
0.002623140128
0.002636674313
0.002651496965
0.002666366155
0.002679895369
0.00269057162
0.002696771036
0.002649085491
0.002656910321
0.00266798151
0.002681399091
0.002696093064
0.002710832109
0.00272424192
0.00273482321
0.00274096711
0.002693676907
0.002701432948
0.002712406355
0.002725704704
0.002740267164
0.002754873264
0.00276816117
0.002778645554
0.002784732827
0.002737847681
0.002745533474
0.002756407057
0.002769583731
0.002784012041
0.002798482598
0.002811646274
0.002822031949
0.002828061561
0.002781590538
0.002789204729
0.002799976592
0.002813029321
0.002827321037
0.002841653641
0.002854690934
0.002864976229
0.002870947227
0.002824898768
0.002832440102
0.002843108487
0.002856035172
0.002870188031
0.002884380454
0.002897289374
0.002907472749
0.002913384249
0.0028677662
0.002875233518
0.002885796801
0.002898595502
0.002912607417
0.002926657604
0.002939436319
0.002949516353
0.002955367546
0.002910187179
0.002917579412
0.002928036097
0.002940705029
0.00295457408
0.002968480143
0.002981126969
0.00299110236
0.002996892502
0.002952156544
0.002959472709
0.002969821424
0.002982358949
0.002996083375
0.003009843585
0.003022356983
0.003032226542
0.003037954954
0.002993669606
0.003000908805
0.003011148294
0.003023552914
0.003037131109
0.00305074389
0.003063122459
0.003072885104
0.003078551171
0.003034722127
0.003041883542
0.003052012662
0.003064283017
0.003077713521
0.003091177444
0.003103419915
0.003113074669
0.003118677834
0.003075310305
0.003082393194
0.003092410911
0.003104545771
0.003117827268
0.003131141045
0.003143246276
0.003152792261
0.003158332026
0.003115430755
0.003122434451
0.003132339834
0.003144338094
0.003157469405
0.003170631883
0.003182598857
0.00319203529
0.003197511211
0.003155080493
0.003162004399
0.003171796618
0.003183657297
0.003196637371
0.003209647531
0.003221475347
0.00323080154
0.003236213229
0.00319425692
0.00320110051
0.003210778834
0.003222501064
0.003235328982
0.00324818593
0.003259873803
0.003269089157
0.003274436276
0.003232957814
0.003239720627
0.003249284418
0.003260867446
0.003273542411
0.003286245378
0.003297792635
0.003306896639
0.003312178901
0.003271181311
0.003277862953
0.003287311664
0.003298754849
0.003311276185
0.00332382452
0.003335230596
0.003344222824
0.003349439992
0.003308925903
0.00331552604
0.003324859214
0.003336162022
0.003348529169
0.00336092234
0.003372186778
0.003381066888
0.003386218773
0.003346190418
0.003352708782
0.003361926049
0.003373088052
0.003385300566
0.003397538156
0.003408660601
0.003417428333
0.003422514795
0.003382974022
0.003389410403
0.00339851148
0.003409532353
0.003421589905
0.003433671611
0.003444651813
0.003453306989
0.003458327932
0.003419276208
0.003425630457
0.003434615144
0.003445494666
0.00345739704
0.003469322671
0.003480160483
0.003488703006
0.003493658383
0.003455096789
0.003461368817
0.003470237001
0.003480975053
0.003492722143
0.003504491622
0.003515186999
0.003523616852
0.003528506664
0.003490435897
0.003496625675
0.003505377326
0.003515973892
0.003527565705
0.003539179068
0.003549732068
0.003558049316
0.00356287361
0.003525293979
0.003531401536
0.003540036709
0.003550491876
0.003561928533
0.00357338593
0.003583796714
0.003592001505
0.003596760376
0.003559671792
0.003565697219
0.003574216055
0.003584530013
0.003595811748
0.003607113442
0.003617382279
0.003625474843
0.003630168436
0.003593570404
0.003599513853
0.003607916577
0.00361808962
0.003629216785
0.003640363156
0.003650490418
0.003658471071
0.003663099578
0.003626991192
0.003632852873
0.003641139798
0.003651172328
0.003662145387
0.003673136933
0.003683123101
0.003690992242
0.003695555905
0.003659935836
0.003665716023
0.003673887549
0.003683780071
0.003694599607
0.003705436943
0.003715282604
0.003723040718
0.00372753983
0.00369240632
0.003698105347
0.003706161961
0.003715915086
0.003726581798
0.003737265655
0.003746971504
0.00375461916
0.003759054062
0.003724404925
0.003730023186
0.00373796546
0.003747579904
0.003758094603
0.003768625827
0.003778192663
0.003785730513
0.003790101593
0.003755934221
0.00376147217
0.003769300758
0.003778777337
0.003789140945
0.003799520492
0.003808949211
0.003816377982
0.003820685672
0.003786997059
0.003792455203
0.003800170838
0.003809510461
0.003819724
0.003829952925
0.003839244515
0.003846565005
0.003850809777
0.003817596547
0.003822975445
0.003830578928
0.003839782587
0.003849847171
0.003859926617
0.00386908214
0.003876295204
0.003880477564
0.003847736029
0.003853036279
0.003860528471
0.003869597228
0.00387951404
0.003889445216
0.003898465793
0.003905572328
0.003909692799
0.003877419042
0.003882641275
0.003890023077
0.003898958036
0.003908728305
0.003918512461
0.003927399241
0.003934400161
0.003938459275
0.00390664926
0.00391179412
0.00391906645
0.003927868734
0.003937493697
0.003947132083
0.003955886204
0.003962782407
0.003966780684
0.003935430415
0.003940498537
0.003947662296
0.003956332999
0.003965813855
0.003975307666
0.003983930209
0.003990722534
0.003994660451
0.003963766176
0.003968758157
0.003975814186
0.003984354319
0.003993692159
0.004003042469
0.004011534385
0.004018223557
0.004022101518
0.003991659997
0.003996576356
0.004003525376
0.00401193579
0.004021131513
0.004030339181
0.004038701204
0.004045287758
0.004049106047
0.004019114899
0.004023956026
0.004030798561
0.004039079849
0.004048134049
0.004057199601
0.004065432135
0.004071916326
0.004075675051
0.004046133173
0.004050899261
0.004057635549
0.004065787933
0.004074700761
0.00408362424
0.004091727215
0.004098108898
0.00410180792
0.004072716019
0.004077406984
0.004084036851
0.004092060028
0.004100831022
0.004109611815
0.004117584519
0.004123863004
0.004127501854
0.004098863085
0.004103478468
0.004110001185
0.004117894144
0.004126522023
0.004135158639
0.004142999511
0.004149173399
0.00415275117
0.004124571915
0.004129110758
0.00413552487
0.004143285678
0.004151768095
0.004160257912
0.004167964303
0.004174031292
0.004177546528
0.004149837287
0.004154298
0.004160601129
0.004168226686
0.004176559952
0.004184898934
0.00419246684
0.004198423505
0.004201874077
0.004174650474
0.004179030687
0.004185219313
0.004192705085
0.004200883873
0.00420906626
0.004216490038
0.004222331609
0.004225714573
0.004198998451
0.004203294848
0.004209364087
0.004216703827
0.004224720861
0.004232738861
0.004240010943
0.004245731072
0.004249042546
0.004222863072
0.00422707124
0.004233014615
0.004240200095
0.004248045856
0.004255889351
0.004262999982
0.004268590545
0.004271825587
0.004246220308
0.004250334589
0.004256143833
0.004263164604
0.004270827082
0.004278483384
0.004285420413
0.004290871352
0.004294023878
0.00426903959
0.004273052972
0.004278717878
0.0042855611
0.004293025618
0.004300479319
0.004307228077
0.004312527324
0.004315590073
0.004291283378
0.004295187433
0.004300695776
0.004307346148
0.004314595312
0.004321828261
0.004328371577
0.004333505085
0.00433646965
0.004312907033
0.00431669193
0.004322029503
0.004328469328
0.004335483137
0.004342474594
0.004348792973
0.004353744896
0.004356601847
0.004333859096
0.004337513706
0.004342664491
0.00434887392
0.004355630081
0.00436235709