/*--------------------------------*- C++ -*----------------------------------*\
| =========                 |                                                 |
| \\      /  F ield         | OpenFOAM: The Open Source CFD Toolbox           |
|  \\    /   O peration     | Version:  2212                                  |
|   \\  /    A nd           | Website:  www.openfoam.com                      |
|    \\/     M anipulation  |                                                 |
\*---------------------------------------------------------------------------*/
FoamFile
{
    version     2.0;
    format      ascii;
    arch        "LSB;label=32;scalar=64";
    class       volScalarField;
    location    "20.00000000";
    object      A2;
}
// * * * * * * * * * * * * * * * * * * * * * * * * * * * * * * * * * * * * * //

dimensions      [0 0 0 0 0 0 0];

internalField   nonuniform List<scalar> 
3000
(
3.110573966e-22
3.494184092e-22
4.073040143e-22
4.844394495e-22
5.800378176e-22
6.914990081e-22
8.121042744e-22
9.271760548e-22
1.008536238e-21
1.167820676e-21
1.317126221e-21
1.542325194e-21
1.843075174e-21
2.219060594e-21
2.668177263e-21
3.182603043e-21
3.736414582e-21
4.226932206e-21
2.615791443e-21
2.973370768e-21
3.517852216e-21
4.257085304e-21
5.204294003e-21
6.373122123e-21
7.758825832e-21
9.283585803e-21
1.058638799e-20
4.982214561e-21
5.722562412e-21
6.866402375e-21
8.452350586e-21
1.053641904e-20
1.317127178e-20
1.634205466e-20
1.979449311e-20
2.257957231e-20
8.846846177e-21
1.028609331e-20
1.254475124e-20
1.573742083e-20
2.001400762e-20
2.549391645e-20
3.20846164e-20
3.908028642e-20
4.444302465e-20
1.521252504e-20
1.791365563e-20
2.221346137e-20
2.838626654e-20
3.676130086e-20
4.754952154e-20
6.042955548e-20
7.377990155e-20
8.366502247e-20
2.582601639e-20
3.078760368e-20
3.877779378e-20
5.037812962e-20
6.623459373e-20
8.666277129e-20
1.108184317e-19
1.35362874e-19
1.530751578e-19
4.371081998e-20
5.269050055e-20
6.728012492e-20
8.862567356e-20
1.179177378e-19
1.555786292e-19
1.997197715e-19
2.43917042e-19
2.752780792e-19
7.411225014e-20
9.019458525e-20
1.164931384e-19
1.551645678e-19
2.083273311e-19
2.764942192e-19
3.558174328e-19
4.344185473e-19
4.895794626e-19
1.261293769e-19
1.547120332e-19
2.016652686e-19
2.709317155e-19
3.662129986e-19
4.880674481e-19
6.290856361e-19
7.678061785e-19
8.644448569e-19
2.155680572e-19
2.660851592e-19
3.493324092e-19
4.723857641e-19
6.416565148e-19
8.576496989e-19
1.106591815e-18
1.350252293e-18
1.519179914e-18
3.699077223e-19
4.588387581e-19
6.057046782e-19
8.23058919e-19
1.121963891e-18
1.502663648e-18
1.940114763e-18
2.366826769e-18
2.661780883e-18
6.369571318e-19
7.930919631e-19
1.051326885e-18
1.433779921e-18
1.959511319e-18
2.62805274e-18
3.394463765e-18
4.140372027e-18
4.655346582e-18
1.099888747e-18
1.37352872e-18
1.826612306e-18
2.497999469e-18
3.420583099e-18
4.592244621e-18
5.932810551e-18
7.235494256e-18
8.135580506e-18
1.903242483e-18
2.382196654e-18
3.175994717e-18
4.352996977e-18
5.970519181e-18
8.023635993e-18
1.037005094e-17
1.264732238e-17
1.422147462e-17
3.297744501e-18
4.134861478e-18
5.523411324e-18
7.583824107e-18
1.041744322e-17
1.401748537e-17
1.813633473e-17
2.213100931e-17
2.486917486e-17
5.717763065e-18
7.178132529e-18
9.601469908e-18
1.319790584e-17
1.814272422e-17
2.442003358e-17
3.15917205e-17
3.853499776e-17
4.329268394e-17
9.916265807e-18
1.245959335e-17
1.668062166e-17
2.294435313e-17
3.15527405e-17
4.247232633e-17
5.493537304e-17
6.699176474e-17
7.525323024e-17
1.719954544e-17
2.162368214e-17
2.896675155e-17
3.986239406e-17
5.483223728e-17
7.381277352e-17
9.546537633e-17
1.164028579e-16
1.307469376e-16
2.983487369e-17
3.752523456e-17
5.029040128e-17
6.923069665e-17
9.524934055e-17
1.282306461e-16
1.658439754e-16
2.022045465e-16
2.271092592e-16
5.175830773e-17
6.512096519e-17
8.730305671e-17
1.202155971e-16
1.654241402e-16
2.227210405e-16
2.880505344e-16
3.51189057e-16
3.94427063e-16
8.980379375e-17
1.130175138e-16
1.515545557e-16
2.087336093e-16
2.87268933e-16
3.867900145e-16
5.002413198e-16
6.098657733e-16
6.849239375e-16
1.558375351e-16
1.961596556e-16
2.631003807e-16
3.624214083e-16
4.988278334e-16
6.716601364e-16
8.686486241e-16
1.058955816e-15
1.189239161e-15
2.704643641e-16
3.404984203e-16
4.56765165e-16
6.292632567e-16
8.661443689e-16
1.166233463e-15
1.508197742e-15
1.838497445e-15
2.06458672e-15
4.694622468e-16
5.910947579e-16
7.930141478e-16
1.09256178e-15
1.503848563e-15
2.024771235e-15
2.618238535e-15
3.191317736e-15
3.583504131e-15
8.149501971e-16
1.02618365e-15
1.376816914e-15
1.896904099e-15
2.610842432e-15
3.51483909e-15
4.5443917e-15
5.538242161e-15
6.21818332e-15
1.41476248e-15
1.781571199e-15
2.390361345e-15
3.293166423e-15
4.532092167e-15
6.100230511e-15
7.885381027e-15
9.607846154e-15
1.078578816e-14
2.45602227e-15
3.092903483e-15
4.149705003e-15
5.716391242e-15
7.865450052e-15
1.058413497e-14
1.367719684e-14
1.665978479e-14
1.869831981e-14
4.263250351e-15
5.368804703e-15
7.202739783e-15
9.92031935e-15
1.364591957e-14
1.83556547e-14
2.370956511e-14
2.886782687e-14
3.239057039e-14
7.398761221e-15
9.317185968e-15
1.249823085e-14
1.72092095e-14
2.36625751e-14
3.181280728e-14
4.106759464e-14
4.997381449e-14
5.604947085e-14
1.283572156e-14
1.616282787e-14
2.167665905e-14
2.983598078e-14
4.10015546e-14
5.508516153e-14
7.105411468e-14
8.639779525e-14
9.684945347e-14
2.225560195e-14
2.802100166e-14
3.756882924e-14
5.16831688e-14
7.097191311e-14
9.526148555e-14
1.227503398e-13
1.491093321e-13
1.670292577e-13
3.855763498e-14
4.853651359e-14
6.504683647e-14
8.942158508e-14
1.226749246e-13
1.644611954e-13
2.116364807e-13
2.567554569e-13
2.873523176e-13
6.672773417e-14
8.397158768e-14
1.124685589e-13
1.544695493e-13
2.116450671e-13
2.833013317e-13
3.639525483e-13
4.408379803e-13
4.928132535e-13
1.153132776e-13
1.450476008e-13
1.941140424e-13
2.66281579e-13
3.642573928e-13
4.866446602e-13
6.238796862e-13
7.541874285e-13
8.419394019e-13
1.989122692e-13
2.500432366e-13
3.342646791e-13
4.578220005e-13
6.250121627e-13
8.330279282e-13
1.065228667e-12
1.284661535e-12
1.431759515e-12
3.423482764e-13
4.299687232e-13
5.739760142e-13
7.845880997e-13
1.068445574e-12
1.419943106e-12
1.810222065e-12
2.176994664e-12
2.42156574e-12
5.876241535e-13
7.371382146e-13
9.822187268e-13
1.339327401e-12
1.818374625e-12
2.408287393e-12
3.05926588e-12
3.667161784e-12
4.070104072e-12
1.005415562e-12
1.259247301e-12
1.674019521e-12
2.275767269e-12
3.078599282e-12
4.060954265e-12
5.137477912e-12
6.135657176e-12
6.792958526e-12
1.713909793e-12
2.142270948e-12
2.839678587e-12
3.846409996e-12
5.181236017e-12
6.802899477e-12
8.566377799e-12
1.01889403e-11
1.124987081e-11
2.909405092e-12
3.627328608e-12
4.791285902e-12
6.461969154e-12
8.661783758e-12
1.131333931e-11
1.41728244e-11
1.678226674e-11
1.847587152e-11
4.915527823e-12
6.10939495e-12
8.035894352e-12
1.078363726e-11
1.437414951e-11
1.866537416e-11
2.325239344e-11
2.740261551e-11
3.007582503e-11
8.261567922e-12
1.022974376e-11
1.338922314e-11
1.786448995e-11
2.366462761e-11
3.053476384e-11
3.781145711e-11
4.433802235e-11
4.850990988e-11
1.380577303e-11
1.701980318e-11
2.215018187e-11
2.936350312e-11
3.86318416e-11
4.950848757e-11
6.092200101e-11
7.107013019e-11
7.750849896e-11
2.292713102e-11
2.812233947e-11
3.636552325e-11
4.786564385e-11
6.251076126e-11
7.953603503e-11
9.723671357e-11
1.1284126e-10
1.226699933e-10
3.782005831e-11
4.612745432e-11
5.922649185e-11
7.735533007e-11
1.002342542e-10
1.26583373e-10
1.537304942e-10
1.774672568e-10
1.923159185e-10
6.1941603e-11
7.50769443e-11
9.565670954e-11
1.239096505e-10
1.59246793e-10
1.995729379e-10
2.407601079e-10
2.76494744e-10
2.987060484e-10
1.006817336e-10
1.212127051e-10
1.53174459e-10
1.967040213e-10
2.506740389e-10
3.117251353e-10
3.735687586e-10
4.268388614e-10
4.59755205e-10
1.623560105e-10
1.940752223e-10
2.431453631e-10
3.094590323e-10
3.909919087e-10
4.824607696e-10
5.744101814e-10
6.530885884e-10
7.01446353e-10
2.596592208e-10
3.080997786e-10
3.825864792e-10
4.825066605e-10
6.043932506e-10
7.400837595e-10
8.755319919e-10
9.90736217e-10
1.061206515e-09
4.117723768e-10
4.849151037e-10
5.967446386e-10
7.457216993e-10
9.26124608e-10
1.125544923e-09
1.323346322e-09
1.490681827e-09
1.592609679e-09
6.473894421e-10
7.566279101e-10
9.227569924e-10
1.142656934e-09
1.407166577e-09
1.697697599e-09
1.984234902e-09
2.225489818e-09
2.371903938e-09
1.009031934e-09
1.170486423e-09
1.414820682e-09
1.736348994e-09
2.120769083e-09
2.54060387e-09
2.952596561e-09
3.298047914e-09
3.507038989e-09
1.559133079e-09
1.795421311e-09
2.151400254e-09
2.617381044e-09
3.17151529e-09
3.7736653e-09
4.361990533e-09
4.853539228e-09
5.150123543e-09
2.38847708e-09
2.731114205e-09
3.245243476e-09
3.915100573e-09
4.707905906e-09
5.565629149e-09
6.400490681e-09
7.095899322e-09
7.514544935e-09
3.628122545e-09
4.120770611e-09
4.857379451e-09
5.813162916e-09
6.939686624e-09
8.153809968e-09
9.331725839e-09
1.031035365e-08
1.089840618e-08
5.465910001e-09
6.168760972e-09
7.216421054e-09
8.570939291e-09
1.016168084e-08
1.187048283e-08
1.352371704e-08
1.489426753e-08
1.571657763e-08
8.169292558e-09
9.16497466e-09
1.064515017e-08
1.255292878e-08
1.478645603e-08
1.717898653e-08
1.948826372e-08
2.139923337e-08
2.254440108e-08
1.211678853e-08
1.351831652e-08
1.559700692e-08
1.826903803e-08
2.138896687e-08
2.472297487e-08
2.793459771e-08
3.058834741e-08
3.217713652e-08
1.784115161e-08
1.980261515e-08
2.2706006e-08
2.642957296e-08
3.0767389e-08
3.539342048e-08
3.984228363e-08
4.351396545e-08
4.571062353e-08
2.608840795e-08
2.88193208e-08
3.285479261e-08
3.802007871e-08
4.402576689e-08
5.04195097e-08
5.655999629e-08
6.16229703e-08
6.4650445e-08
3.789828875e-08
4.168282165e-08
4.726710542e-08
5.440285065e-08
6.268593975e-08
7.149157017e-08
7.993896475e-08
8.689887693e-08
9.105922106e-08
5.471336885e-08
5.9936078e-08
6.763291655e-08
7.745410961e-08
8.883856943e-08
1.009267311e-07
1.125126188e-07
1.220529971e-07
1.277546775e-07
7.852648469e-08
8.57066479e-08
9.627705293e-08
1.097485686e-07
1.25346058e-07
1.418912224e-07
1.577374129e-07
1.70780518e-07
1.785748678e-07
1.120788085e-07
1.219161057e-07
1.363852123e-07
1.548064555e-07
1.761137424e-07
1.986970955e-07
2.203139417e-07
2.381017044e-07
2.487314102e-07
1.59124292e-07
1.725593208e-07
1.92304941e-07
2.174219478e-07
2.464499135e-07
2.771955899e-07
3.066121695e-07
3.308133509e-07
3.452766447e-07
2.247799475e-07
2.4307393e-07
2.699431657e-07
3.040961912e-07
3.435396393e-07
3.85294015e-07
4.252294272e-07
4.580805996e-07
4.777156844e-07
3.159853151e-07
3.408242627e-07
3.772858527e-07
4.23602112e-07
4.770614374e-07
5.336270854e-07
5.877138879e-07
6.322032461e-07
6.587983121e-07
4.42097898e-07
4.757273126e-07
5.250685341e-07
5.877111364e-07
6.599784028e-07
7.364157915e-07
8.094879014e-07
8.695919092e-07
9.05526638e-07
6.156534216e-07
6.610500684e-07
7.276275932e-07
8.121123125e-07
9.095347927e-07
1.012545117e-06
1.111002592e-06
1.191985367e-06
1.240409674e-06
8.533192091e-07
9.14406226e-07
1.003959802e-06
1.117550408e-06
1.248483249e-06
1.386883941e-06
1.51914492e-06
1.627928227e-06
1.692982624e-06
1.177064347e-06
1.258974524e-06
1.379010038e-06
1.531199625e-06
1.706555057e-06
1.891854514e-06
2.068899331e-06
2.214506364e-06
2.301585402e-06
1.615560399e-06
1.724949467e-06
1.885193309e-06
2.088272817e-06
2.322165641e-06
2.569235141e-06
2.805239153e-06
2.999308279e-06
3.11536412e-06
2.205810847e-06
2.35121795e-06
2.564137607e-06
2.833843609e-06
3.144322056e-06
3.472151695e-06
3.785193283e-06
4.042550278e-06
4.196430922e-06
2.994987418e-06
3.187234082e-06
3.468611323e-06
3.824834479e-06
4.234673741e-06
4.667187852e-06
5.080008733e-06
5.419283937e-06
5.62210547e-06
4.042430693e-06
4.295043741e-06
4.664578546e-06
5.132104433e-06
5.669630066e-06
6.236527386e-06
6.777316425e-06
7.221587463e-06
7.487111599e-06
5.421756674e-06
5.751396541e-06
6.233315003e-06
6.84256372e-06
7.542466494e-06
8.28004848e-06
8.983211373e-06
9.560583762e-06
9.905508224e-06
7.223006765e-06
7.649882237e-06
8.27352116e-06
9.06125429e-06
9.965366913e-06
1.09173239e-05
1.182413484e-05
1.256820575e-05
1.30124874e-05
9.554787611e-06
1.01030414e-05
1.090339121e-05
1.191336474e-05
1.307137546e-05
1.42893801e-05
1.544849235e-05
1.639882862e-05
1.696593573e-05
1.254637135e-05
1.324442726e-05
1.426262795e-05
1.554614775e-05
1.701601949e-05
1.856020608e-05
2.002816059e-05
2.123068286e-05
2.194785982e-05
1.634974557e-05
1.723057462e-05
1.851415932e-05
2.013031364e-05
2.197872559e-05
2.391812028e-05
2.575968024e-05
2.726690448e-05
2.816528002e-05
2.114113625e-05
2.224232236e-05
2.384544875e-05
2.586144835e-05
2.816405362e-05
3.057677967e-05
3.286507641e-05
3.473619767e-05
3.585082626e-05
2.712231333e-05
2.848619447e-05
3.046975712e-05
3.296100167e-05
3.580244446e-05
3.877566506e-05
4.159207063e-05
4.389280147e-05
4.526254024e-05
3.452169512e-05
3.619530692e-05
3.862682359e-05
4.167669639e-05
4.515029418e-05
4.877977863e-05
5.221339294e-05
5.501546296e-05
5.668263228e-05
4.359477159e-05
4.562960014e-05
4.858280744e-05
5.228208901e-05
5.648905499e-05
6.087823743e-05
6.502487018e-05
6.840509464e-05
7.041487205e-05
5.462364636e-05
5.70751216e-05
6.062918304e-05
6.507496349e-05
7.012304065e-05
7.538144819e-05
8.034199405e-05
8.438084279e-05
8.678035796e-05
6.791536241e-05
7.084202339e-05
7.508025662e-05
8.037424148e-05
8.63756464e-05
9.261661385e-05
9.849476771e-05
0.0001032744131
0.0001061115441
8.379866605e-05
8.726094642e-05
9.226900605e-05
9.851515526e-05
0.0001055837902
0.00011292145
0.0001198207837
0.0001254226741
0.0001287445992
0.0001026189173
0.0001066775349
0.0001125410423
0.0001198425556
0.000128090535
0.000136636163
0.0001446566678
0.0001511587437
0.000155010449
0.0001247309808
0.0001294449663
0.0001362466523
0.0001447024081
0.0001542360494
0.0001640939441
0.000173328188
0.0001808016803
0.0001852235129
0.000150490123
0.0001559145805
0.0001637310898
0.0001734317437
0.000184347286
0.0001956105039
0.0002061398442
0.0002146465017
0.0002196731917
0.0001802411773
0.0001864249246
0.000195323501
0.000206347524
0.0002187268879
0.0002314731315
0.0002433641298
0.0002529535035
0.0002586125092
0.0002143064792
0.0002212897534
0.0002313250724
0.0002437350547
0.0002576419997
0.0002719300115
0.0002852313981
0.0002959386275
0.0003022489215
0.000252973279
0.0002607857037
0.0002719971249
0.0002858366614
0.0003013136686
0.0003171804344
0.0003319208673
0.0003437651237
0.0003507363373
0.0002964814543
0.0003051404372
0.0003175498984
0.0003328413001
0.0003499074028
0.0003673663491
0.0003835530823
0.0003965367778
0.0004041691465
0.0003450123302
0.0003545219898
0.0003681326547
0.0003848755733
0.0004035251434
0.0004225653145
0.0004401841929
0.000454293601
0.0004625778418
0.0003986792178
0.0004090298207
0.0004238253958
0.0004419962522
0.0004621989782
0.0004827852418
0.0005017995113
0.0005170028573
0.0005259200444
0.0004575197605
0.0004686880266
0.0004846332715
0.000504185173
0.0005258848825
0.000547956438
0.0005683084692
0.0005845583644
0.0005940802468
0.0005214910087
0.0005334395201
0.0005504795338
0.0005713440131
0.0005944627818
0.000617938414
0.0006395515157
0.0006567862133
0.0006668766779
0.0005904663846
0.0006031468281
0.0006212120048
0.0006433024919
0.0006677433545
0.0006925240011
0.0007153068319
0.0007334538115
0.0007440708069
0.0006642446955
0.0006775994656
0.0006966076647
0.000719823713
0.0007454758318
0.0007714497607
0.0007953005074
0.0008142796137
0.0008253768757
0.0007425579322
0.0007565230972
0.0007763837894
0.0008006156812
0.0008273590931
0.0008544064121
0.0008792166238
0.0008989429221
0.0009104715526
0.000825084146
0.0008395920667
0.0008602099204
0.0008853427878
0.0009130526709
0.0009410493587
0.000966707393
0.0009870937371
0.000999003625
0.0009114601405
0.0009264417723
0.0009477197973
0.0009736372513
0.001002187677
0.001031009117
0.001057403158
0.001078362437
0.001090603505
0.001001293936
0.001016680806
0.001038523045
0.001065110273
0.001094377396
0.00112390137
0.001150921976
0.001172369007
0.00118489226
0.001094176707
0.001109902542
0.00113221628
0.001159362575
0.001189227226
0.00121933633
0.001246878481
0.001268731535
0.001281489911
0.001189693816
0.001205695813
0.001228393289
0.001255993998
0.001286343661
0.001316927146
0.0013448918
0.001367073752
0.001380022773
0.001287434604
0.001303654342
0.001326653975
0.001354611883
0.001385342094
0.001416297149
0.001444592325
0.001467031467
0.001480129693
0.001387000692
0.00140338472
0.001426611884
0.001454838077
0.001485853285
0.001517085825
0.001545627265
0.0015682578
0.001581467121
0.001488012667
0.001504512793
0.0015279002
0.001556314482
0.00158752845
0.001618953475
0.001647664939
0.001670427217
0.001683712991
0.001590115126
0.001606688479
0.001630176236
0.001658707172
0.001690043003
0.001721584604
0.001750397881
0.001773238405
0.001786569486
0.001692980178
0.001709589069
0.001733124487
0.001761709164
0.001793099031
0.001824690133
0.001853544813
0.001876416092
0.001889764753
0.001796309536
0.001812921191
0.001836458406
0.001865041985
0.001896426659
0.001928008563
0.001956851657
0.001979711922
0.001993053714
0.001899835401
0.001916421602
0.001939921082
0.001968456213
0.001999784452
0.002031306255
0.002060091696
0.002082904544
0.002096218102
0.002003320359
0.002019857039
0.002043285014
0.00207173118
0.00210295904
0.002134376984
0.002163065067
0.002185799044
0.002199065868
0.002106556498
0.002123023308
0.002146351188
0.002174674015
0.002205764131
0.002237040924
0.002265597716
0.002288225882
0.002301430101
0.002209363968
0.002225743863
0.002248947649
0.002277118217
0.002308039067
0.002339143158
0.002367539945
0.002390039474
0.002403167615
0.002311589092
0.002327867899
0.00235092761
0.002378921802
0.002409647068
0.002440552096
0.002468764809
0.002491116526
0.002504157252
0.002413102251
0.002429268306
0.002452167485
0.002479965417
0.002510473367
0.002541157513
0.002569166195
0.002591354175
0.002604298066
0.002513795745
0.002529839567
0.002552564822
0.002580150287
0.00261042317
0.002640868587
0.002668656898
0.002690668101
0.002703507445
0.002613581549
0.00262949553
0.002652036106
0.002679396074
0.002709419612
0.002739611931
0.002767166714
0.002788990641
0.002801719231
0.002712389125
0.00272816727
0.002750514688
0.002777638883
0.002807401804
0.002837329686
0.002864640563
0.002886268941
0.002898881897
0.002810163365
0.002825801063
0.0028479488
0.002874829315
0.002904322954
0.002933977691
0.002961036705
0.002982463211
0.002994956814
0.002906862657
0.002922356481
0.002944299695
0.002970930666
0.003000148609
0.003029523771
0.003056325075
0.003077545082
0.003089916626
0.003002457103
0.003017804645
0.003039539935
0.003065917258
0.003094855036
0.00312394617
0.003150485742
0.003171496098
0.00318374376
0.003096926912
0.003112126633
0.00313365184
0.003159772926
0.003188427746
0.003217232108
0.00324350751
0.003264306344
0.003276429065
0.003190260945
0.003205312056
0.003226626086
0.003252489652
0.00328086017
0.003309376492
0.003335386657
0.003355973201
0.003367970583
0.003282455429
0.003297357785
0.003318460463
0.003344066351
0.003372152474
0.00340038076
0.003426125802
0.003446500246
0.003458372458
0.00337351282
0.003388266832
0.003409158775
0.003434507796
0.003462310507
0.003490251862
0.003515732913
0.003535896265
0.003547643968
0.00346344081
0.003478047364
0.003498729871
0.003523823674
0.003551344883
0.003579001357
0.003604220425
0.003624174397
0.00363579867
0.003552251449
0.003566711848
0.003587186805
0.003612027758
0.003639270176
0.003666644629
0.003691604472
0.00371135138
0.003722853654
0.003639960404
0.003654276302
0.003674546103
0.003699137193
0.003726104216
0.003753200207
0.003777904223
0.003797446892
0.003808828904
0.003726586298
0.003740759657
0.003760827132
0.003785171879
0.003811867489
0.003838689169
0.003863141301
0.003882482992
0.003893746731
0.003812150157
0.003826183203
0.003846051553
0.003870153934
0.003896582615
0.00392313464
0.003947339291
0.00396648363
0.003977631298
0.003896674931
0.003910570113
0.003930242862
0.003954107237
0.003980273899
0.004006561352
0.004030523315
0.004049474231
0.004060508207
0.003980185081
0.003993945041
0.004013425982
0.004037057044
0.004062966954
0.004088995276
0.004112719664
0.004131481339
0.004142404146
0.004062706232
0.004076333776
0.004095626932
0.004119029648
0.004144688374
0.004170463301
0.004193955496
0.004212532319
0.004223346597
0.004144264879
0.004157762948
0.004176872533
0.004200052102
0.004225465458
0.004250992973
0.004274258571
0.004292655096
0.004303363579
0.004224888134
0.004238259783
0.00425719017
0.004280151976
0.004305325981
0.004330612261
0.004353657032
0.004371877942
0.004382483436
0.004304603514
0.004317851889
0.00433660758
0.004359357162
0.004384297994
0.004409349371
0.004432179218
0.004450229298
0.004460734662
0.004383438762
0.004396567084
0.004415152682
0.004437695697
0.004462409659
0.004487232585
0.004509853509
0.004527737616
0.004538145746
0.004461421699
0.004474433245
0.004492853432
0.004515195626
0.004539689114
0.004564290124
0.0045867082
0.004604431235
0.004614745053
0.004538580093
0.004551478183
0.004569737696
0.004591884882
0.004616164354
0.00464055004
0.004662771383
0.004680338278
0.004690560715
0.004614941557
0.004627729539
0.004645833154
0.004667791183
0.004691863137
0.004716040122
0.004738070867
0.004755486562
0.004765620551
0.00469053346
0.004703214698
0.00472116721
0.004742941954
0.004766812902
0.004790787816
0.004812634097
0.004829903525
0.004839951989
0.00476538285
0.004777960714
0.004795766923
0.004817364255
0.004841040704
0.004864820165
0.004886488098
0.004903616168
0.004913582014
0.004839516398
0.004851994252
0.004869658951
0.004891084728
0.004914573162
0.004938163756
0.004959659421
0.004976651007
0.004986537119
0.004912960344
0.00492534154
0.004942869496
0.004964129545
0.004987436409
0.005010844676
0.005032174102
0.005049034037
0.005058843266
0.004985740454
0.004998028323
0.005015424274
0.005036524377
0.00505965606
0.005082888479
0.005104057634
0.005120790692
0.005130525857
0.005057881992
0.005070079834
0.005087348474
0.005108294357
0.005131257183
0.005154320159
0.005175334938
0.00519194583
0.005201609706
0.005129409685
0.005141520768
0.005158666739
0.005179464061
0.005202264274
0.005225164127
0.00524603034
0.005262523707
0.005272119026
0.005200347707
0.005212375256
0.005229403139
0.005250057485
0.005272701241
0.005295444197
0.005316167562
0.005332547966
0.005342077412
0.005270719658
0.005282666853
0.005299581163
0.005320098029
0.005342591386
0.005365183568
0.005385769705
0.005402041626
0.00541150783
0.005340548552
0.005352418521
0.005369223699
0.005389608491
0.005411957403
0.005434404821
0.005454859242
0.005471027071
0.005480432612
0.005409856804
0.005421652623
0.005438353031
0.005458611056
0.005480821362
0.00550312991
0.005523458016
0.005539526051
0.005548873452
0.005478666229
0.005490390913
0.005506990829
0.005527127288
0.00554920471
0.005571380157
0.005591587233
0.005607559677
0.005616851401
0.005546998031
0.005558654535
0.005575158147
0.005595178133
0.005617128268
0.005639176257
0.005659267465
0.005675148421
0.005684386871
0.005614872803
0.005626464018
0.005642875423
0.005662783913
0.00568461223
0.005706538268
0.005726518646
0.005742312117
0.005751499637
0.005682310527
0.005693839276
0.005710162477
0.00572996433
0.005751676165
0.005773485625
0.005793360084
0.005809069966
0.005818208836
0.005749330573
0.005760799613
0.005777038511
0.005796738466
0.00581833902
0.005840037135
0.005859810454
0.00587544054
0.005884532978
0.005815951705
0.00582736372
0.005843522118
0.005863124788
0.005884619124
0.005906210984
0.005925887813
0.005941441787
0.005950489946
0.005882192077
0.005893549681
0.005909631279
0.005929141152
0.005950534192
0.005972024745
0.005991609597
0.006007091037
0.006016097007
0.005948069248
0.00595937498
0.005975383373
0.00599480481
0.006016101333
0.00603749538
0.006056992635
0.006072405009
0.006081370815
0.006013600175
0.006024856503
0.006040795182
0.006060132413
0.006081337054
0.006102639251
0.006122053151
0.006137399819
0.00614632742
0.006078801229
0.006090010545
0.006105882892
0.006125140017
0.006146257267
0.00616747212
0.006186806773
0.006202090984
0.006210982276
0.006143688195
0.006154852815
0.006170662106
0.006189843093
0.006210877297
0.006232009166
0.006251268541
0.006266493433
0.006275350246
0.006208276279
0.006219398442
0.006235147846
0.006254256531
0.006275211886
0.006296264979
0.006315452908
0.006330621511
0.006339445608
0.006272580113
0.006283661984
0.006299354557
0.006318394642
0.006339275198
0.006360253575
0.00637937375
0.006394488981
0.006403282062
0.00633661376
0.006347657425
0.006363296116
0.006382271168
0.006403080826
0.006423988393
0.006443044368
0.006458109031
0.00646687273
0.006400390716
0.006411398183
0.006426985829
0.006445899279
0.006466641788
0.0064874823
0.006506477486
0.006521494275
0.006530230157
0.006463923913
0.00647489711
0.006490436434
0.006509291575
0.006529970531
0.006550747587
0.006569685251
0.006584656741
0.006593366305
0.006527225714
0.006538166488
0.006553660098
0.00657246008
0.006593078921
0.006613795959
0.006632679223
0.006647607874
0.006656292547
0.006590307905
0.00660121802
0.006616668404
0.006635416232
0.006655978237
0.00667663853
0.00669547036
0.006710358507
0.006719019647
0.006653181685
0.006664062819
0.00667947234
0.006698170867
0.006718679142
0.006739285792
0.006758068996
0.006772918847
0.006781557733
0.006715857645
0.006726711382
0.006742082274
0.006760734191
0.006781191665
0.006801747588
0.006820484804
0.006835298429
0.00684391626
0.006778345733
0.006789173559
0.006804507916
0.006823115741
0.006843525149
0.006864033064
0.006882726743
0.006897506065
0.006906103952
0.006840655211
0.006851458507
0.006866758267
0.006885324328
0.006905688193
0.006926150601
0.006944802993
0.006959549767
0.006968128722
0.00690279459
0.006913574617
0.006928841548
0.006947367964
0.00696768857
0.006988107727
0.007006720851
0.007021436648
0.007029997574
0.006964771547
0.006975529431
0.006990765108
0.007009253753
0.007029533116
0.007049910997
0.007068486609
0.007083172785
0.007091716455
0.007026592804
0.007037329517
0.007052535289
0.007070987763
0.007091227581
0.007111565835
0.007130105385
0.007144763045
0.007153290084
0.007088263986
0.007098980315
0.007114157269
0.007132574841
0.007152776443
0.007173076333
0.007191580904
0.007206210856
0.007214721711
0.007149789422
0.00716048594
0.007175634849
0.007194018396
0.007214182665
0.007234444992
0.007252915232
0.007267517927
0.007276012829
0.007211171908
0.007221848924
0.007236970184
0.007255320113
0.007275447398
0.007295672404
0.007314108432
0.007328683887
0.007337162811
0.0072724124
0.00728306991
0.007298163458
0.007316479603
0.007336569604
0.007356756854
0.007375158149
0.007389705858
0.00739816846
0.007333509648
0.007344147263
0.007359212482
0.007377493984
0.007397545611
0.007417693848
0.007436059108
0.007450577925
0.007459023483
0.007394459749
0.007405076616
0.007420112213
0.007438357369
0.007458368577
0.007478475542
0.00749680252
0.007511290526
0.007519717851
0.007455255619
0.00746585032
0.007480854188
0.007499060276
0.007519027858
0.007539090087
0.007557375394
0.007571829733
0.007580237075
0.007515886382
0.00752645682
0.007541425868
0.007559588935
0.007579508294
0.007599520871
0.007617759744
0.007632176439
0.007640561381
0.007576336668
0.007586879933
0.007601809894
0.007619924523
0.007639789398
0.007659745676
0.007677931721
0.007692305461
0.007700664785
0.007636585829
0.007647098047
0.007661983261
0.007680042297
0.007699844463
0.007719735755
0.007737860653
0.00775218456
0.007760514113
0.007696607085
0.007707083251
0.007721916423
0.00773991068
0.007759639615
0.007779454851
0.007797508043
0.007811773414
0.007820067957
0.007756366606
0.007766800403
0.007781572349
0.007799490287
0.00781913282
0.007838858188
0.007856826539
0.007871022578
0.007879275626
0.007815822572
0.00782620618
0.007840905551
0.007858732952
0.007878272893
0.007897891464
0.007915758923
0.007929872471
0.007938076134
0.007874924223
0.00788524813
0.007899861142
0.00791758077
0.007936998546
0.007956489911
0.007974237173
0.007988252442
0.007996397273
0.007933610969
0.007943863777
0.007958373946
0.007975965232
0.007995237542
0.008014577461
0.008032181663
0.008046079995
0.008054154853
0.007991811574
0.008001979844
0.008016367744
0.008033806494
0.008052905995
0.008072066105
0.008089500562
0.008103260233
0.008111252171
0.008049443484
0.008059511581
0.008073754665
0.008091012854
0.008109907939
0.008128855526
0.008146089529
0.008159685612
0.008167579804
0.008106412398
0.008116362402
0.008130434864
0.008147480483
0.008166135142
0.008184833035
0.008201831787
0.00821523609
0.008223015805
0.008162612131
0.008172423796
0.008186296527
0.008203093549
0.008221467358
0.008239873942
0.008256598594
0.008269779728
0.008277426379
0.008217924822
0.008227575613
0.008241216265
0.008257724751
0.008275773014
0.008293842414
0.008310250269
0.008323173832
0.008330667098
0.008272221581
0.008281686794
0.008295059981
0.008311236341
0.008328910422
0.008346592877
0.008362637772
0.00837526669
0.008382584729
0.008325363614
0.00833461661
0.008347684244
0.008363481691
0.008380729553
0.008397972011
0.008413604909
0.008425899935
0.008433019698
0.008377203886
0.008386216427
0.008398938229
0.008414307429
0.008431074399
0.008447821341
0.008462991136
0.008474911529
0.008481809175
0.008427589337
0.00843633205
0.008448666223
0.008463556159
0.008479785925
0.008495980426
0.008510634964
0.00852213934
0.008528790748
0.008476363658
0.008484806611
0.008496710688
0.008511069722
0.008526705557
0.008542290572
0.008556377876
0.008567425215
0.008573806595
0.008523370583
0.00853148398
0.008542915823
0.008556692954
0.008571679135
0.008586598981
0.00860006865
0.008610619438
0.008616708009
0.008568457642
0.008576212603
0.008587131539
0.008600277805
0.008614561198
0.008628763181
0.008641567914
0.008651585371
0.00865736009
0.008611480249
0.008618849669
0.008629217709
0.008641687692
0.008655219426
0.008668655552
0.008680752722
0.00869020406
0.008695646357
0.008652305992
0.008659265421
0.00866904852
0.008680801878
0.008693539025
0.008706167689
0.008717520874
0.008726378497
0.008731472966
0.008690818914
0.00869734743
0.008706516707
0.008717519638
0.008729426791
0.008741214312
0.008751794646
0.008760037168
0.008764772126
0.008726923583