/*--------------------------------*- C++ -*----------------------------------*\
| =========                 |                                                 |
| \\      /  F ield         | OpenFOAM: The Open Source CFD Toolbox           |
|  \\    /   O peration     | Version:  2212                                  |
|   \\  /    A nd           | Website:  www.openfoam.com                      |
|    \\/     M anipulation  |                                                 |
\*---------------------------------------------------------------------------*/
FoamFile
{
    version     2.0;
    format      ascii;
    arch        "LSB;label=32;scalar=64";
    class       volScalarField;
    location    "20.00000000";
    object      A2CH2-2;
}
// * * * * * * * * * * * * * * * * * * * * * * * * * * * * * * * * * * * * * //

dimensions      [0 0 0 0 0 0 0];

internalField   nonuniform List<scalar> 
3000
(
3.831665926e-22
4.30419155e-22
5.017218071e-22
5.967360682e-22
7.144926313e-22
8.517887211e-22
1.000348305e-21
1.142091798e-21
1.242309808e-21
1.438540284e-21
1.62245217e-21
1.899848059e-21
2.270306008e-21
2.733437222e-21
3.286649834e-21
3.920308873e-21
4.602482769e-21
5.206692815e-21
3.222158084e-21
3.66261558e-21
4.333294062e-21
5.243861863e-21
6.410607518e-21
7.850336907e-21
9.557206753e-21
1.143536168e-20
1.304011482e-20
6.1370998e-21
7.04903596e-21
8.457979034e-21
1.041149352e-20
1.297857139e-20
1.622408081e-20
2.012972381e-20
2.43822945e-20
2.781283526e-20
1.08974661e-20
1.26702687e-20
1.545238254e-20
1.938496364e-20
2.465265377e-20
3.140252493e-20
3.952059772e-20
4.813747667e-20
5.474298747e-20
1.873846625e-20
2.206557135e-20
2.736182864e-20
3.496512526e-20
4.528097493e-20
5.85692089e-20
7.443396929e-20
9.087799456e-20
1.030537704e-19
3.181159147e-20
3.792294258e-20
4.776470597e-20
6.205316476e-20
8.158396787e-20
1.067458019e-19
1.364987865e-19
1.667305715e-19
1.885470247e-19
5.384085056e-20
6.49013073e-20
8.287161206e-20
1.091632482e-19
1.452426344e-19
1.916298842e-19
2.459987788e-19
3.00436678e-19
3.390640613e-19
9.128677771e-20
1.110955213e-19
1.434876003e-19
1.911193069e-19
2.56599859e-19
3.405607663e-19
4.382626361e-19
5.35074878e-19
6.030158962e-19
1.553564023e-19
1.90561557e-19
2.483935766e-19
3.337084448e-19
4.510652606e-19
6.011515522e-19
7.748411214e-19
9.457003522e-19
1.064727971e-18
2.655171537e-19
3.277383335e-19
4.30272573e-19
5.818349864e-19
7.903219708e-19
1.056355308e-18
1.362970343e-18
1.663079539e-18
1.87114216e-18
4.556141342e-19
5.651483131e-19
7.460391634e-19
1.013748056e-18
1.381899811e-18
1.850794608e-18
2.389587037e-18
2.91515158e-18
3.278434482e-18
7.845308265e-19
9.768368925e-19
1.294895745e-18
1.765948797e-18
2.41347116e-18
3.236885345e-18
4.1808397e-18
5.099540305e-18
5.733809815e-18
1.35470588e-18
1.691736996e-18
2.249780676e-18
3.076698174e-18
4.213001123e-18
5.65607911e-18
7.307185613e-18
8.911632299e-18
1.002022057e-17
2.344160043e-18
2.934065045e-18
3.911747088e-18
5.361400835e-18
7.353617552e-18
9.882329244e-18
1.277227563e-17
1.557705817e-17
1.751585116e-17
4.061696099e-18
5.092728396e-18
6.802929414e-18
9.340624324e-18
1.283062993e-17
1.726458983e-17
2.233752959e-17
2.725752709e-17
3.06299535e-17
7.042295253e-18
8.840947257e-18
1.182562822e-17
1.625514067e-17
2.234536791e-17
3.00767345e-17
3.890964204e-17
4.746122528e-17
5.332095235e-17
1.221333345e-17
1.534579118e-17
2.054456442e-17
2.825919912e-17
3.886158606e-17
5.231051331e-17
6.766040663e-17
8.250944002e-17
9.268451538e-17
2.118367447e-17
2.663259156e-17
3.567655974e-17
4.909598503e-17
6.753331345e-17
9.091032001e-17
1.175783073e-16
1.433655149e-16
1.610320884e-16
3.674574473e-17
4.621743116e-17
6.193939718e-17
8.526682412e-17
1.173121333e-16
1.579328314e-16
2.042584334e-16
2.490410822e-16
2.797143767e-16
6.374728139e-17
8.020510972e-17
1.075251913e-16
1.480611711e-16
2.037412119e-16
2.743095576e-16
3.547710156e-16
4.325339864e-16
4.857869674e-16
1.106051194e-16
1.391957466e-16
1.866589617e-16
2.570821283e-16
3.538081728e-16
4.76380742e-16
6.161100572e-16
7.511260855e-16
8.435694393e-16
1.919339185e-16
2.415956294e-16
3.240414399e-16
4.463675667e-16
6.14368883e-16
8.272330791e-16
1.069848504e-15
1.30423503e-15
1.464694824e-15
3.331109972e-16
4.193665527e-16
5.625633145e-16
7.750158153e-16
1.066763791e-15
1.436359995e-15
1.857530468e-15
2.264334509e-15
2.542790742e-15
5.782011821e-16
7.280064346e-16
9.766947045e-16
1.345623928e-15
1.852173332e-15
2.493752435e-15
3.224678837e-15
3.930494709e-15
4.413519281e-15
1.003711406e-15
1.26387092e-15
1.695718068e-15
2.336268019e-15
3.215568801e-15
4.328949009e-15
5.596966191e-15
6.821011717e-15
7.658440335e-15
1.74245231e-15
2.194221258e-15
2.944019258e-15
4.055931684e-15
5.581816645e-15
7.513165911e-15
9.711791209e-15
1.183321172e-14
1.328398714e-14
3.024888132e-15
3.809283332e-15
5.110860338e-15
7.040420869e-15
9.687242148e-15
1.303562521e-14
1.684509747e-14
2.051850762e-14
2.30292046e-14
5.250704369e-15
6.612325851e-15
8.871034488e-15
1.221805577e-14
1.680657342e-14
2.260716906e-14
2.920114208e-14
3.555415015e-14
3.989282418e-14
9.112457308e-15
1.147522436e-14
1.53930572e-14
2.119518381e-14
2.914326499e-14
3.918123669e-14
5.057959741e-14
6.154865545e-14
6.903154092e-14
1.580871574e-14
1.99064396e-14
2.669737265e-14
3.67465384e-14
5.049825666e-14
6.784387487e-14
8.751151742e-14
1.064090623e-13
1.192815064e-13
2.741040744e-14
3.451117555e-14
4.627044803e-14
6.365391597e-14
8.741027003e-14
1.173257295e-13
1.511814784e-13
1.836456683e-13
2.05716157e-13
4.748827633e-14
5.977843711e-14
8.011283762e-14
1.101332e-13
1.510885867e-13
2.025532763e-13
2.606551666e-13
3.162244693e-13
3.539080849e-13
8.218305733e-14
1.034208845e-13
1.385182442e-13
1.902473842e-13
2.606657293e-13
3.489188065e-13
4.482502167e-13
5.429436198e-13
6.069572469e-13
1.420218446e-13
1.786431449e-13
2.390742108e-13
3.279569764e-13
4.486256513e-13
5.993598822e-13
7.683808595e-13
9.288700734e-13
1.036946882e-12
2.449837833e-13
3.079575499e-13
4.116861044e-13
5.638613895e-13
7.697756134e-13
1.025971333e-12
1.311953666e-12
1.582210871e-12
1.763379209e-12
4.216419933e-13
5.295568127e-13
7.069186167e-13
9.663120015e-13
1.315915631e-12
1.748825883e-12
2.229499982e-12
2.681223248e-12
2.982441072e-12
7.237278894e-13
9.078719152e-13
1.209717181e-12
1.6495382e-12
2.239540769e-12
2.966087183e-12
3.767843146e-12
4.516537871e-12
5.012808303e-12
1.238286795e-12
1.550910205e-12
2.061750594e-12
2.802873154e-12
3.791654432e-12
5.001539175e-12
6.327403596e-12
7.556777763e-12
8.366321022e-12
2.110880157e-12
2.638456888e-12
3.497395736e-12
4.737302867e-12
6.381296751e-12
8.378564364e-12
1.055049349e-11
1.254886835e-11
1.385552793e-11
3.583272212e-12
4.467478729e-12
5.90102783e-12
7.95866899e-12
1.066799705e-11
1.393369669e-11
1.745548576e-11
2.066931804e-11
2.275518965e-11
6.054046753e-12
7.524433262e-12
9.89714176e-12
1.328130726e-11
1.770344131e-11
2.298858422e-11
2.863803261e-11
3.374951436e-11
3.704188317e-11
1.017508665e-11
1.259912449e-11
1.649039131e-11
2.200220343e-11
2.914574805e-11
3.760712025e-11
4.656921463e-11
5.460743905e-11
5.974560395e-11
1.700342575e-11
2.096187814e-11
2.728053664e-11
3.616458088e-11
4.757961734e-11
6.097547092e-11
7.503253886e-11
8.753113898e-11
9.546073825e-11
2.823745366e-11
3.463595757e-11
4.478839708e-11
5.895213177e-11
7.698929386e-11
9.795789326e-11
1.197583309e-10
1.389771386e-10
1.510823632e-10
4.657986489e-11
5.681138958e-11
7.294437604e-11
9.52721428e-11
1.234501867e-10
1.559021728e-10
1.893369878e-10
2.185715514e-10
2.368593929e-10
7.628845796e-11
9.246615825e-11
1.178125263e-10
1.526092904e-10
1.961310554e-10
2.457973396e-10
2.965240658e-10
3.405353669e-10
3.678911355e-10
1.240017162e-10
1.492879943e-10
1.886525935e-10
2.422642611e-10
3.087345173e-10
3.839258978e-10
4.600933388e-10
5.25701504e-10
5.662417103e-10
1.999615052e-10
2.39027402e-10
2.994629424e-10
3.811358076e-10
4.815527756e-10
5.942069387e-10
7.074528795e-10
8.043540635e-10
8.639120136e-10
3.198036541e-10
3.794638382e-10
4.712027696e-10
5.942657742e-10
7.443826591e-10
9.115003536e-10
1.078319454e-09
1.220205772e-09
1.306997469e-09
5.071535931e-10
5.972374021e-10
7.349682623e-10
9.18450094e-10
1.140635752e-09
1.386242746e-09
1.62985533e-09
1.835945757e-09
1.961480072e-09
7.973555617e-10
9.318956024e-10
1.136502482e-09
1.407333187e-09
1.733104091e-09
2.090921348e-09
2.443818502e-09
2.740945355e-09
2.92126717e-09
1.24278978e-09
1.441640382e-09
1.742565849e-09
2.138561951e-09
2.612012302e-09
3.12907514e-09
3.636475997e-09
4.061923617e-09
4.319310131e-09
1.920372829e-09
2.211391366e-09
2.649820553e-09
3.223723718e-09
3.906188483e-09
4.647778974e-09
5.372333823e-09
5.977696409e-09
6.342949931e-09
2.941966364e-09
3.363970344e-09
3.99718268e-09
4.822179574e-09
5.798580993e-09
6.8549114e-09
7.883064159e-09
8.739460624e-09
9.255016394e-09
4.469092251e-09
5.075864456e-09
5.983096827e-09
7.160245091e-09
8.54763909e-09
1.004287102e-08
1.149346509e-08
1.269860225e-08
1.342274874e-08
6.733322775e-09
7.599016618e-09
8.88937863e-09
1.055763376e-08
1.25167523e-08
1.462118253e-08
1.665709529e-08
1.834483421e-08
1.93574347e-08
1.00645138e-08
1.129094392e-08
1.311409515e-08
1.546383851e-08
1.821466801e-08
2.116118744e-08
2.400506358e-08
2.635837362e-08
2.776862199e-08
1.492976211e-08
1.665623309e-08
1.921677959e-08
2.250806492e-08
2.635087224e-08
3.045720238e-08
3.441272874e-08
3.768120534e-08
3.963810842e-08
2.198700376e-08
2.440356039e-08
2.798046948e-08
3.256764418e-08
3.791137072e-08
4.361010772e-08
4.909074846e-08
5.36142568e-08
5.632077936e-08
3.215859695e-08
3.552390099e-08
4.049670673e-08
4.686166097e-08
5.426226913e-08
6.214142899e-08
6.970917394e-08
7.594974452e-08
7.968192609e-08
4.673221925e-08
5.139769466e-08
5.828189308e-08
6.707894853e-08
7.729113905e-08
8.814880079e-08
9.8566419e-08
1.071513166e-07
1.122841082e-07
6.749909207e-08
7.39415274e-08
8.34363323e-08
9.555274598e-08
1.095996381e-07
1.245176246e-07
1.388192063e-07
1.505991229e-07
1.576413181e-07
9.69429202e-08
1.058084089e-07
1.188610909e-07
1.354985889e-07
1.547657148e-07
1.752090865e-07
1.947953623e-07
2.109230779e-07
2.205645373e-07
1.384972525e-07
1.506604147e-07
1.685530795e-07
1.913379401e-07
2.177002566e-07
2.456518358e-07
2.72419085e-07
2.944558505e-07
3.076313666e-07
1.968950089e-07
2.135389756e-07
2.380058448e-07
2.69137769e-07
3.051315428e-07
3.432740033e-07
3.797885712e-07
4.098481322e-07
4.2782385e-07
2.786416552e-07
3.013662063e-07
3.347522856e-07
3.772059502e-07
4.262615387e-07
4.782241711e-07
5.279590828e-07
5.689029341e-07
5.933934106e-07
3.926523896e-07
4.236201253e-07
4.690957689e-07
5.268935637e-07
5.936508146e-07
6.643442375e-07
7.320003909e-07
7.877028604e-07
8.210298135e-07
5.511033098e-07
5.932366339e-07
6.550870151e-07
7.336675413e-07
8.24402586e-07
9.204724122e-07
1.012414517e-06
1.088122746e-06
1.133430386e-06
7.705555399e-07
8.278008094e-07
9.118145253e-07
1.01852806e-06
1.141728278e-06
1.272167568e-06
1.397013778e-06
1.499835077e-06
1.561381295e-06
1.073418535e-06
1.151096971e-06
1.265082852e-06
1.409851293e-06
1.576982617e-06
1.753950947e-06
1.923362903e-06
2.062918373e-06
2.146464726e-06
1.489820779e-06
1.595087924e-06
1.749552155e-06
1.945734492e-06
2.172248862e-06
2.412149058e-06
2.641871436e-06
2.831155942e-06
2.944479609e-06
2.059950423e-06
2.202385342e-06
2.411399507e-06
2.676900806e-06
2.98352625e-06
3.308381859e-06
3.619570168e-06
3.876047842e-06
4.029590368e-06
2.836911338e-06
3.029251006e-06
3.311531816e-06
3.670178647e-06
4.084513166e-06
4.523661921e-06
4.944504577e-06
5.291435195e-06
5.499079532e-06
3.89010665e-06
4.149127021e-06
4.529325669e-06
5.01249751e-06
5.570882783e-06
6.162944597e-06
6.730518534e-06
7.198441693e-06
7.478327295e-06
5.309104536e-06
5.656624398e-06
6.166782825e-06
6.815231394e-06
7.564806928e-06
8.359791862e-06
9.121991667e-06
9.750179593e-06
1.012554773e-05
7.207849646e-06
7.67179395e-06
8.352863841e-06
9.218567111e-06
1.021929463e-05
1.128059083e-05
1.229781301e-05
1.31356888e-05
1.363586373e-05
9.728947258e-06
1.034435279e-05
1.124758875e-05
1.239537629e-05
1.372169182e-05
1.512748116e-05
1.647404011e-05
1.758229449e-05
1.824289615e-05
1.30475563e-05
1.385733839e-05
1.504528463e-05
1.655384902e-05
1.829540942e-05
2.013969245e-05
2.190440586e-05
2.335472789e-05
2.421737471e-05
1.737419012e-05
1.842941992e-05
1.997602648e-05
2.193788391e-05
2.420006784e-05
2.659213272e-05
2.887702538e-05
3.075101838e-05
3.186282367e-05
2.295528838e-05
2.431476683e-05
2.63052331e-05
2.882634873e-05
3.172805403e-05
3.478977435e-05
3.770729425e-05
4.009381403e-05
4.150544041e-05
3.007254126e-05
3.180210836e-05
3.433071897e-05
3.7527035e-05
4.11969023e-05
4.505838014e-05
4.872685229e-05
5.171804955e-05
5.348132692e-05
3.903808388e-05
4.12079694e-05
4.437451749e-05
4.836735306e-05
5.29381139e-05
5.773143675e-05
6.22689212e-05
6.595514805e-05
6.812008531e-05
5.018493805e-05
5.286654155e-05
5.677147748e-05
6.168126848e-05
6.728244206e-05
7.313396777e-05
7.865100267e-05
8.311504252e-05
8.572656629e-05
6.385397226e-05
6.711576026e-05
7.185421225e-05
7.779304274e-05
8.454255626e-05
9.156441782e-05
9.815636229e-05
0.0001034675975
0.0001065623921
8.037723953e-05
8.428010207e-05
8.993527276e-05
9.699887962e-05
0.0001049944265
0.0001132761329
0.0001210159396
0.0001272251159
0.0001308289358
0.0001000587647
0.0001046512843
0.0001112878822
0.0001195479577
0.0001288590119
0.0001384600608
0.0001473922827
0.0001545274706
0.0001586532553
0.0001231543173
0.0001284684545
0.0001361268656
0.0001456244905
0.0001562858411
0.0001672301355
0.0001773668112
0.0001854310493
0.0001900782308
0.0001498519667
0.0001558996338
0.0001645914654
0.000175332369
0.0001873398277
0.0001996124034
0.0002109311224
0.0002199020035
0.0002250585496
0.0001802552081
0.0001870260948
0.000196731548
0.0002086836471
0.0002219922693
0.0002355384192
0.0002479820083
0.0002578103864
0.000263445556
0.0002143701741
0.0002218310244
0.0002324983153
0.000245591713
0.0002601166763
0.0002748438014
0.0002883231425
0.0002989374755
0.0003050112062
0.0002520979685
0.0002601933192
0.0002717400992
0.0002858693694
0.0003014891314
0.0003172705215
0.0003316684132
0.0003429777607
0.0003494407308
0.0002932325913
0.0003018868264
0.0003142033494
0.0003292317387
0.0003457930114
0.0003624731043
0.0003776491236
0.0003895468308
0.0003963422782
0.0003374644292
0.0003465849251
0.0003595386389
0.0003753038053
0.0003926279729
0.0004100288221
0.0004258251116
0.0004381931813
0.0004452593001
0.0003843890481
0.0003938702452
0.0004073116336
0.0004236328358
0.00044152394
0.0004594533663
0.0004757022876
0.0004884176343
0.0004956915335
0.0004335214244
0.0004432499168
0.0004570198905
0.0004737073316
0.0004919628993
0.0005102264556
0.000526763227
0.0005397087958
0.0005471396724
0.0004843176646
0.0004941789298
0.0005081190075
0.0005249877883
0.0005434151594
0.0005618355983
0.0005785282173
0.0005916116922
0.0005991382819
0.0005362123402
0.0005460999882
0.0005600664621
0.0005769629539
0.0005954077103
0.0006138299668
0.000630509626
0.0006436002384
0.0006511581678
0.0005886955011
0.0005985259374
0.0006123987974
0.0006291545855
0.0006474274543
0.0006656733602
0.0006822039275
0.0006952075928
0.0007027511945
0.0006412340311
0.0006509076139
0.0006645514358
0.0006810203922
0.0006989761311
0.0007169130859
0.0007331880291
0.0007460315282
0.0007535254842
0.0006932880706
0.0007027299513
0.0007160438094
0.0007321126121
0.0007496368952
0.0007671601132
0.0007830937168
0.0007957175492
0.0008031329238
0.0007444146606
0.000753566606
0.0007664716255
0.0007820502752
0.0007990512224
0.0008160755815
0.0008315971708
0.000843951441
0.0008512634108
0.0007942402681
0.0008030561585
0.0008154895045
0.0008305055794
0.000846908423
0.0008633637155
0.000878413955
0.0008904557516
0.0008976421666
0.0008424472171
0.0008508903265
0.0008628016483
0.0008771965664
0.0008929400703
0.0009087678436
0.0009232962227
0.0009349878526
0.0009420282923
0.0008887660366
0.0008968071806
0.0009081561778
0.0009218825446
0.0009369164301
0.0009520677255
0.0009660307791
0.0009773385594
0.0009842137262
0.0009329702999
0.0009405864562
0.0009513410599
0.0009643606729
0.0009786436883
0.0009930773737
0.001006437415
0.001017330869
0.001024022239
0.0009748725196
0.0009820457544
0.0009921807176
0.001004463031
0.001017961489
0.001031643036
0.001044367281
0.001054818652
0.001061308321
0.001014320541
0.001021037168
0.001030532971
0.001042053919
0.001054740611
0.001067641227
0.00107970123
0.001089685238
0.001095955932
0.001051194249
0.001057444183
0.001066286202
0.001077027328
0.001088880739
0.001100976784
0.001112348124
0.001121841919
0.001127877113
0.001085402562
0.001091178835
0.001099356728
0.001109304557
0.001120308334
0.001131580971
0.001142243122
0.001151226376
0.001157010496
0.001116880705
0.00112217912
0.001129686401
0.001138832012
0.001148974631
0.00115940964
0.001169345974
0.001177801055
0.001183319728
0.001145587793
0.001150406688
0.001157240432
0.001165579189
0.001174853753
0.001184441458
0.001193639331
0.001201551528
0.001206791838
0.00117150469
0.001175844776
0.001182005434
0.001189536809
0.001197940944
0.001206676212
0.001215127075
0.001222484824
0.001227435566
0.001194632122
0.001198496382
0.001203987653
0.001210715118
0.001218250909
0.001226133159
0.001233832672
0.001240627754
0.001245279656
0.001214989003
0.00121838261
0.001223211351
0.001229142292
0.001235816227
0.001242849431
0.001249797533
0.001256025229
0.001260371124
0.001232610908
0.001235541162
0.0012397173
0.001244862924
0.001250685817
0.001256878462
0.00126307939
0.00126873856
0.00127277351
0.00124754866
0.001250024917
0.001253561345
0.001257936565
0.001262923435
0.001268288415
0.001273750655
0.001278843762
0.001282565123
0.001259866966
0.001261900543
0.001264812996
0.001268436268
0.001272606176
0.001277160649
0.001281896808
0.001286429848
0.00128983727
0.001269643079
0.001271247149
0.001273554043
0.001276447177
0.001279822998
0.001283588144
0.001287614753
0.00129159712
0.001294692503
0.001276965478
0.001278154938
0.001279877176
0.001282065078
0.001284673213
0.001287673947
0.001291011193
0.001294455487
0.001297242881
0.001281932518
0.001282723831
0.001283884569
0.001285394953
0.001287265
0.00128952962
0.001292201027
0.001295122797
0.001297608266
0.001284651069
0.001285062084
0.001285686476
0.001286549534
0.001287713908
0.001289273709
0.00129130577
0.001293723222
0.001295914673
0.001285235147
0.001285284907
0.001285399817
0.001285647865
0.001286141398
0.001287030247
0.001288452024
0.001290385694
0.001292292679
0.001283804547
0.001283513083
0.001283146787
0.001282813891
0.001282673405
0.001282927299
0.001283770003
0.001285242411
0.001286875917
0.001280483491
0.001279871609
0.001279053491
0.001278175083
0.001277438957
0.001277095574
0.00127739214
0.001278427432
0.00127979966
0.001275399315
0.001274488382
0.001273248621
0.00127186112
0.001270568862
0.001269667114
0.001269451774
0.00127007537
0.001271199511
0.001268681201
0.001267492933
0.00126586221
0.001264002646
0.001262194476
0.001260774072
0.001260081945
0.001260320191
0.001261210207
0.001260458981
0.001259015245
0.001257024444
0.001254730106
0.001252446553
0.001250547594
0.00124941429
0.001249294129
0.001249964544
0.001250862021
0.001249184642
0.001246864583
0.001244172684
0.001241454215
0.001239116802
0.001237578059
0.001237126722
0.001237592421
0.001240018198
0.001238128782
0.001235509971
0.001232457336
0.001229344016
0.001226607898
0.001224699248
0.001223943972
0.001224220017
0.001228052976
0.001225972749
0.001223085148
0.001219707942
0.001216239122
0.001213143384
0.001210899848
0.001209867617
0.001209969086
0.001215088592
0.00121283826
0.001209711084
0.001206044565
0.001202258612
0.001198841391
0.001196297219
0.00119501454
0.001194956372
0.001201243348
0.001198842971
0.001195504516
0.001191582819
0.001187516883
0.00118381513
0.001181003565
0.001179496273
0.001179293141
0.001186631012
0.001184099899
0.001180577391
0.001176433352
0.001172123165
0.001168172443
0.001165125533
0.001163418623
0.001163084823
0.00117136033
0.00116871695
0.001165036425
0.001160701433
0.001156181149
0.001152015465
0.001148763903
0.001146881391
0.001146430747
0.001155534632
0.001152796549
0.001148982753
0.001144486631
0.0011397887
0.001135440376
0.001132013376
0.001129978191
0.001129423978
0.001139251543
0.00113643536
0.001132511677
0.001127882602
0.001123037671
0.001118537247
0.001114962447
0.001112796345
0.00111215123
0.001122602782
0.001119724104
0.001115712507
0.00111097694
0.001106013792
0.001101389959
0.001097693355
0.001095416858
0.001094692855
0.001105674035
0.001102747449
0.001098668468
0.001093851125
0.001088796638
0.001084076197
0.001080282106
0.001077914462
0.001077122895
0.001088544916
0.001085583979
0.001081456688
0.001076580524
0.001071459659
0.001066667506
0.001062798542
0.001060357704
0.001059509193
0.001071288982
0.001068306224
0.001064148245
0.00105923446
0.001054070264
0.001049229398
0.001045306481
0.001042809101
0.001041913545
0.001053973808
0.001050980745
0.001046808265
0.001041876327
0.001036689962
0.001031821508
0.001027863879
0.001025325317
0.001024391899
0.001036661115
0.001033668266
0.001029496068
0.001024563751
0.001019374534
0.001014497784
0.001010523039
0.00100795739
0.001006994581
0.001019406936
0.001016423852
0.001012265356
0.001007348784
0.001002174243
0.0009973067088
0.0009933308484
0.0009907509675
0.0009897665415
0.001002261813
0.0009992971116
0.0009951644185
0.0009902781315
0.0009851340659
0.0009802915466
0.0009763290287
0.0009737465766
0.0009727476288
0.0009852710263
0.0009823324305
0.0009782363797
0.0009733933956
0.0009682939537
0.0009634906043
0.0009595544105
0.0009569798987
0.0009559728695
0.0009684748437
0.0009655692215
0.0009615194498
0.0009567313385
0.000951689095
0.0009469375083
0.0009430392133
0.0009404820564
0.0009394727583
0.0009519087808
0.0009490421912
0.0009450471961
0.0009403241565
0.0009353501972
0.0009306614862
0.0009268113323
0.0009242799045
0.0009232735514
0.0009356038757
0.0009327816144
0.00092884882
0.0009241997595
0.0009193037685
0.0009146876538
0.0009108946282
0.000908396321
0.0009073975603
0.0009195869672
0.0009168136145
0.0009129494385
0.0009083820544
0.0009035724026
0.0008990373004
0.0008953092137
0.0008928504967
0.0008918634413
0.0009038809759
0.0009011604442
0.0008973703652
0.0008928912267
0.0008881750613
0.0008837281717
0.0008800717374
0.0008776582185
0.0008766864802
0.0008885051832
0.0008858407647
0.0008821293898
0.0008777440189
0.0008731273516
0.0008687747468
0.0008651956599
0.0008628321454
0.0008618788687
0.0008734755069
0.0008708699201
0.0008672410509
0.0008629540024
0.0008584417966
0.0008541885072
0.0008506915215
0.0008483820762
0.0008474499711
0.0008588047693
0.0008562602054
0.0008527169026
0.0008485318421
0.0008441280975
0.0008399781968
0.0008365672003
0.0008343152055
0.0008334065804
0.0008445029583
0.000842021125
0.0008385657713
0.0008344855506
0.0008301933853
0.0008261500706
0.0008228281587
0.0008206363684
0.0008197531617
0.0008305774778
0.0008281596425
0.0008247940021
0.0008208207321
0.0008166424615
0.0008127081321
0.0008094776777
0.0008073482735
0.0008064920844
0.0008170333874
0.0008146804178
0.000811405695
0.0008075408144
0.0008034780262
0.0007996543586
0.000796517079
0.0007944517216
0.0007936238398
0.0008038736308
0.0008015860341
0.0007984029271
0.0007946472689
0.0007907008949
0.0007869889133
0.0007839459341
0.0007819458129
0.0007811472465
0.0007910992517
0.0007888772111
0.0007857859645
0.0007821398178
0.0007783102012
0.0007747103446
0.0007717622597
0.0007698281397
0.0007690596422
0.0007787095969
0.0007765530064
0.0007735534595
0.0007700166285
0.0007663035876
0.0007628157728
0.000759962701
0.0007580949669
0.0007573570623
0.0007667025069
0.000764611004
0.0007617026369
0.0007582744955
0.000754677383
0.0007513010634
0.0007485427014
0.000746741399
0.0007460344055
0.0007550744941
0.0007530474899
0.0007502294659
0.0007469090089
0.0007434267676
0.0007401609882
0.0007374966603
0.0007357615346
0.0007350855873
0.0007438209082
0.0007418576157
0.0007391288208
0.0007359147117
0.0007325459255
0.0007293893743
0.0007268180776
0.0007251486094
0.0007245036803
0.000732936089
0.0007310355492
0.0007283946291
0.0007252852439
0.0007220281858
0.0007189792403
0.0007164996879
0.0007148951265
0.0007142810442
0.0007224135082
0.0007205746143
0.0007180200078
0.0007150134754
0.0007118661513
0.0007089229225
0.000706533582
0.0007049929759
0.0007044094435
0.0007122458987
0.0007104674182
0.0007079973886
0.0007050916282
0.0007020518169
0.0006992121888
0.0006969113186
0.0006954335439
0.000694880155
0.0007024253741
0.0007007059687
0.000698318632
0.0006955113871
0.0006925766773
0.0006898383434
0.0006876240251
0.0006862078109
0.000685684065
0.0006929435361
0.0006912817806
0.0006889751314
0.0006862640005
0.0006834318242
0.0006807923205
0.000678662489
0.0006773064413
0.0006768117571
0.0006837915734
0.0006821859723
0.0006799579071
0.0006773403721
0.0006746080345
0.0006720647697
0.0006700172402
0.0006687198625
0.0006682535908
0.0006749603504
0.0006734093528
0.0006712576912
0.0006687311422
0.0006660958495
0.0006636461317
0.0006616786235
0.0006604383364
0.000659999771
0.0006664404866
0.0006649424997
0.0006628650034
0.0006604267617
0.0006578856449
0.0006555267056
0.000653636864
0.0006524520219
0.0006520404094
0.0006582224276
0.000656775829
0.0006547702185
0.000652417556
0.0006499676926
0.0006476967079
0.0006458821233
0.000644751029
0.0006443655779
0.0006502965082
0.0006488996563
0.0006469636253
0.0006446937827
0.0006423322153
0.0006401463241
0.0006384045477
0.0006373254656
0.0006369653532
0.000642653007
0.0006413042498
0.0006394354782
0.0006372456793
0.0006349694317
0.0006328657512
0.0006311943091
0.0006301654752
0.0006298298539
0.0006352821928
0.0006339798761
0.0006321760405
0.0006300635051
0.000627869595
0.0006258452331
0.000624241637
0.000623261267
0.0006229492684
0.0006281743642
0.0006269168374
0.0006251756197
0.000623137573
0.0006210230223
0.0006190750871
0.0006175368417
0.0006166031365
0.0006163138744
0.0006213198802
0.0006201055011
0.0006184245946
0.0006164582745
0.0006144201163
0.0006125457219
0.0006110703295
0.0006101814773
0.0006099140478
0.0006147091826
0.0006135363206
0.0006119134337
0.0006100160949
0.0006080513767
0.0006062476454
0.0006048326062
0.0006039867817
0.000603740262
0.0006083328095
0.0006071998464
0.0006056327045
0.0006038016188
0.000601907402
0.0006001714622
0.0005988142707
0.0005980096302
0.0005977830741
0.0006021813983
0.0006010867281
0.0005995730711
0.0005978055247
0.00059597888
0.0005943078594
0.0005930059961
0.0005922406686
0.0005920330995
0.000596245678
0.0005951877033
0.0005937252813
0.0005920185673
0.000590256565
0.0005886475788
0.0005873984966
0.0005866705703
0.0005864809714
0.0005905164482
0.0005894935749
0.0005880801392
0.000586431546
0.0005847312407
0.000583181374
0.0005819824794
0.0005812899838
0.000581117285
0.000584984544
0.0005839951728
0.0005826284628
0.0005810352568
0.0005793936669
0.0005778999513
0.0005767485796
0.0005760894634
0.0005759325262
0.0005796407841
0.0005786832986
0.000577361025
0.0005758204278
0.0005742345084
0.0005727938917
0.0005716872775
0.0005710593819
0.0005709169822
0.0005744759005
0.0005735486525
0.0005722684741
0.0005707776341
0.0005692442432
0.0005678535538
0.0005667887959
0.0005661898257
0.0005660606358
0.0005694804483
0.0005685817384
0.000567341235
0.000565897192
0.0005644130507
0.0005630689558
0.0005620429779
0.0005614704706
0.000561353042
0.0005646446931
0.000563772748
0.0005625693869
0.000561169031
0.0005597306769
0.0005584296356
0.0005574391451
0.0005568904401
0.0005567831891
0.000559958476
0.0005591114218
0.0005579425192
0.0005565825434
0.0005551862792
0.0005539244916
0.0005529659362
0.0005524381473
0.0005523393444
0.0005554110562
0.0005545868873
0.0005534495652
0.0005521264128
0.0005507682493
0.0005495416035
0.0005486111302
0.0005481011224
0.00054800889
0.0005509909318
0.0005501874774
0.0005490786151
0.0005477884227
0.00054646402
0.0005452680388
0.0005443614556
0.0005438658302
0.0005437781486
0.0005466856426
0.00054590053
0.0005448167137
0.0005435552517
0.0005422598583
0.0005410896479
0.0005402023921
0.0005397174823
0.0005396322067
0.0005424815603
0.0005417121764
0.0005406496462
0.0005394122587
0.000538140653
0.000536990856
0.0005361179717
0.0005356398501
0.0005355547408
0.0005383636709
0.0005376071244
0.0005365617225
0.0005353432686
0.000534089704
0.0005329544605
0.0005320905856
0.0005316150859
0.0005315278497
0.0005343153611
0.0005335684452
0.0005325355667
0.0005313303672
0.0005300885244
0.0005289614422
0.0005281008091
0.0005276235602
0.000527531904
0.0005303182162
0.0005295773761
0.0005285519254
0.0005273537174
0.0005261166669
0.0005249908033
0.0005241272504
0.0005236437225
0.000523545414
0.0005263518443
0.0005256131492
0.0005245895059
0.0005233914082
0.0005221515854
0.0005210194417
0.0005201464366
0.0005196519941
0.000519544926
0.0005223937405
0.0005216528646
0.0005206248585
0.0005194193493
0.0005181685427
0.0005170220714
0.0005161327422
0.0005156226981
0.0005155049464
0.0005184191963
0.0005176714097
0.0005166323121
0.0005154112246
0.0005141405796
0.0005129712012
0.0005120583689
0.0005115280311
0.0005113979007
0.0005144012734
0.0005136414445
0.0005125839748
0.000511338509
0.0005100385476
0.0005088371762
0.0005078933841
0.000507338083
0.0005071941272
0.0005103108452
0.0005095334574
0.0005084498071
0.0005071705608
0.0005058312149
0.0005045882886
0.0005036058202
0.000503020907
0.0005028619095
0.0005061167173
0.0005053158989
0.0005041977743
0.0005028747928
0.0005014854511
0.0005001909623
0.0004991618399
0.0004985426447
0.0004983675544
0.0005017858281
0.0005009553981
0.0004997940825
0.0004984169259
0.0004969664922
0.0004956100161
0.0004945259765
0.0004938677186
0.0004936755274
0.0004972835349
0.0004964170641
0.0004952034988
0.00049376133
0.0004922382949
0.0004908090156
0.0004896614608
0.0004889591095
0.0004887486718
0.0004925739884
0.0004916648764
0.0004903897648
0.0004888714585
0.0004872639872
0.0004857507281
0.0004845306589
0.000483778752
0.000483548551
0.000487620602
0.0004866621739
0.0004853161089
0.0004837103899
0.0004820064363
0.0004803977073
0.0004790956571
0.0004782880977
0.0004780359745
0.0004823866303
0.0004813722542
0.0004799458792
0.0004782414986
0.0004764289616
0.000474713046