/*--------------------------------*- C++ -*----------------------------------*\
| =========                 |                                                 |
| \\      /  F ield         | OpenFOAM: The Open Source CFD Toolbox           |
|  \\    /   O peration     | Version:  2212                                  |
|   \\  /    A nd           | Website:  www.openfoam.com                      |
|    \\/     M anipulation  |                                                 |
\*---------------------------------------------------------------------------*/
FoamFile
{
    version     2.0;
    format      ascii;
    arch        "LSB;label=32;scalar=64";
    class       volScalarField;
    location    "20.00000000";
    object      A2CH2-2_0;
}
// * * * * * * * * * * * * * * * * * * * * * * * * * * * * * * * * * * * * * //

dimensions      [0 0 0 0 0 0 0];

internalField   nonuniform List<scalar> 
3000
(
3.831673427e-22
4.30420017e-22
5.017228913e-22
5.967375701e-22
7.144948475e-22
8.517919841e-22
1.000352805e-21
1.14209741e-21
1.242316077e-21
1.438543109e-21
1.622455472e-21
1.899852326e-21
2.270312078e-21
2.733446285e-21
3.286663062e-21
3.920326712e-21
4.602504511e-21
5.206716919e-21
3.222164364e-21
3.662623055e-21
4.333303964e-21
5.243876186e-21
6.410628753e-21
7.850366658e-21
9.557243602e-21
1.143540053e-20
1.304015001e-20
6.137111235e-21
7.04904955e-21
8.457996862e-21
1.04115186e-20
1.297860639e-20
1.622412412e-20
2.01297639e-20
2.438230649e-20
2.781275738e-20
1.0897484e-20
1.267028909e-20
1.545240747e-20
1.938499544e-20
2.465269264e-20
3.140256259e-20
3.952060512e-20
4.813729821e-20
5.474146661e-20
1.873848949e-20
2.206559481e-20
2.736185191e-20
3.496514723e-20
4.528099337e-20
5.856922188e-20
7.443398591e-20
9.087815185e-20
1.030552255e-19
3.181161078e-20
3.792295251e-20
4.776469714e-20
6.205312209e-20
8.158386976e-20
1.067456237e-19
1.364985111e-19
1.667302074e-19
1.885466595e-19
5.38408329e-20
6.490125069e-20
8.287148193e-20
1.091629916e-19
1.452421761e-19
1.916291321e-19
2.459976478e-19
3.004351371e-19
3.390622036e-19
9.128663163e-20
1.110952554e-19
1.434871129e-19
1.911184457e-19
2.565984115e-19
3.405584757e-19
4.382592688e-19
5.350703602e-19
6.030105087e-19
1.553559151e-19
1.905607516e-19
2.48392182e-19
3.337060552e-19
4.510613111e-19
6.011453688e-19
7.748321126e-19
9.456883803e-19
1.064713827e-18
2.655158989e-19
3.277363162e-19
4.302691219e-19
5.818290691e-19
7.90312118e-19
1.056339737e-18
1.362947487e-18
1.663049168e-18
1.871106675e-18
4.55611377e-19
5.651438881e-19
7.460315134e-19
1.013734664e-18
1.381876874e-18
1.850757075e-18
2.389529874e-18
2.915074212e-18
3.278346845e-18
7.845255489e-19
9.768283405e-19
1.294880637e-18
1.765921405e-18
2.413421616e-18
3.236797218e-18
4.180690496e-18
5.099324502e-18
5.733587973e-18
1.354697221e-18
1.691722887e-18
2.249755274e-18
3.076650014e-18
4.212905248e-18
5.655877134e-18
7.306763898e-18
8.910936427e-18
1.001963181e-17
2.344148401e-18
2.934046517e-18
3.911714238e-18
5.361337271e-18
7.353477188e-18
9.881966801e-18
1.277132992e-17
1.557528738e-17
1.751465199e-17
4.06168401e-18
5.092711091e-18
6.802903879e-18
9.340590676e-18
1.283060787e-17
1.726468065e-17
2.23380441e-17
2.72587678e-17
3.063078862e-17
7.042285836e-18
8.840936203e-18
1.182561731e-17
1.625513887e-17
2.234540523e-17
3.007689508e-17
3.891009154e-17
4.746201983e-17
5.332155166e-17
1.221332886e-17
1.534578838e-17
2.054456795e-17
2.825921952e-17
3.886164423e-17
5.231064502e-17
6.766065311e-17
8.250978432e-17
9.268482132e-17
2.118367551e-17
2.663259648e-17
3.567657362e-17
4.909601659e-17
6.753337464e-17
9.091042286e-17
1.175784557e-16
1.43365692e-16
1.610322617e-16
3.674575107e-17
4.621744213e-17
6.193941706e-17
8.526685877e-17
1.173121886e-16
1.5793291e-16
2.042585315e-16
2.490411894e-16
2.797144832e-16
6.374729174e-17
8.020512455e-17
1.075252136e-16
1.480612043e-16
2.037412581e-16
2.74309616e-16
3.54771082e-16
4.325340547e-16
4.857870343e-16
1.106051318e-16
1.391957628e-16
1.866589836e-16
2.570821573e-16
3.538082091e-16
4.763807837e-16
6.16110101e-16
7.51126128e-16
8.435694796e-16
1.919339308e-16
2.415956446e-16
3.240414588e-16
4.463675897e-16
6.143689092e-16
8.272331065e-16
1.06984853e-15
1.304235053e-15
1.464694845e-15
3.331110075e-16
4.193665648e-16
5.625633286e-16
7.75015831e-16
1.066763807e-15
1.436360009e-15
1.85753048e-15
2.264334516e-15
2.542790748e-15
5.782011893e-16
7.280064426e-16
9.766947127e-16
1.345623936e-15
1.852173339e-15
2.493752438e-15
3.224678836e-15
3.930494704e-15
4.413519274e-15
1.003711409e-15
1.263870923e-15
1.695718069e-15
2.336268019e-15
3.215568797e-15
4.328949e-15
5.596966176e-15
6.821011696e-15
7.658440313e-15
1.742452307e-15
2.194221255e-15
2.944019252e-15
4.055931674e-15
5.581816629e-15
7.513165888e-15
9.711791177e-15
1.183321168e-14
1.328398709e-14
3.024888122e-15
3.809283321e-15
5.110860321e-15
7.040420846e-15
9.687242114e-15
1.303562517e-14
1.684509741e-14
2.051850754e-14
2.302920452e-14
5.25070435e-15
6.61232583e-15
8.871034455e-15
1.221805573e-14
1.680657336e-14
2.260716898e-14
2.920114198e-14
3.555415002e-14
3.989282405e-14
9.112457273e-15
1.147522433e-14
1.539305714e-14
2.119518373e-14
2.914326489e-14
3.918123655e-14
5.057959722e-14
6.154865522e-14
6.903154069e-14
1.580871568e-14
1.990643954e-14
2.669737255e-14
3.674653826e-14
5.049825647e-14
6.784387462e-14
8.751151709e-14
1.064090619e-13
1.19281506e-13
2.741040734e-14
3.451117542e-14
4.627044786e-14
6.365391574e-14
8.74102697e-14
1.173257291e-13
1.511814779e-13
1.836456676e-13
2.057161563e-13
4.748827615e-14
5.977843688e-14
8.011283732e-14
1.101331996e-13
1.510885861e-13
2.025532756e-13
2.606551656e-13
3.162244681e-13
3.539080837e-13
8.218305703e-14
1.034208841e-13
1.385182437e-13
1.902473835e-13
2.606657283e-13
3.489188052e-13
4.48250215e-13
5.429436177e-13
6.069572448e-13
1.420218441e-13
1.786431442e-13
2.390742099e-13
3.279569751e-13
4.486256496e-13
5.993598799e-13
7.683808565e-13
9.288700697e-13
1.036946879e-12
2.449837825e-13
3.079575486e-13
4.116861028e-13
5.638613872e-13
7.697756103e-13
1.025971329e-12
1.311953661e-12
1.582210865e-12
1.763379203e-12
4.216419917e-13
5.295568104e-13
7.069186138e-13
9.663119976e-13
1.315915626e-12
1.748825876e-12
2.229499973e-12
2.681223237e-12
2.98244106e-12
7.237278866e-13
9.078719113e-13
1.209717176e-12
1.649538194e-12
2.23954076e-12
2.96608717e-12
3.76784313e-12
4.516537851e-12
5.012808284e-12
1.23828679e-12
1.550910199e-12
2.061750585e-12
2.802873143e-12
3.791654416e-12
5.001539154e-12
6.327403569e-12
7.55677773e-12
8.36632099e-12
2.110880148e-12
2.638456877e-12
3.497395721e-12
4.737302846e-12
6.381296723e-12
8.378564328e-12
1.055049345e-11
1.254886829e-11
1.385552788e-11
3.583272196e-12
4.46747871e-12
5.901027803e-12
7.958668953e-12
1.0667997e-11
1.393369663e-11
1.745548568e-11
2.066931794e-11
2.275518956e-11
6.054046725e-12
7.524433228e-12
9.897141714e-12
1.32813072e-11
1.770344123e-11
2.298858411e-11
2.863803247e-11
3.37495142e-11
3.704188302e-11
1.01750866e-11
1.259912443e-11
1.649039123e-11
2.200220332e-11
2.914574791e-11
3.760712007e-11
4.65692144e-11
5.460743878e-11
5.97456037e-11
1.700342566e-11
2.096187804e-11
2.728053651e-11
3.61645807e-11
4.757961712e-11
6.097547063e-11
7.503253849e-11
8.753113855e-11
9.546073785e-11
2.823745352e-11
3.46359574e-11
4.478839686e-11
5.895213149e-11
7.698929349e-11
9.795789278e-11
1.197583303e-10
1.389771379e-10
1.510823625e-10
4.657986466e-11
5.68113893e-11
7.294437568e-11
9.527214233e-11
1.234501861e-10
1.55902172e-10
1.893369869e-10
2.185715503e-10
2.36859392e-10
7.628845758e-11
9.24661578e-11
1.178125257e-10
1.526092897e-10
1.961310545e-10
2.457973384e-10
2.965240643e-10
3.405353652e-10
3.67891134e-10
1.240017156e-10
1.492879936e-10
1.886525926e-10
2.422642599e-10
3.087345158e-10
3.83925896e-10
4.600933365e-10
5.257015014e-10
5.662417081e-10
1.999615042e-10
2.390274008e-10
2.994629409e-10
3.811358058e-10
4.815527733e-10
5.942069358e-10
7.07452876e-10
8.043540596e-10
8.639120103e-10
3.198036525e-10
3.794638364e-10
4.712027673e-10
5.942657714e-10
7.443826556e-10
9.115003493e-10
1.078319449e-09
1.220205766e-09
1.306997464e-09
5.071535907e-10
5.972373993e-10
7.349682588e-10
9.184500897e-10
1.140635746e-09
1.38624274e-09
1.629855322e-09
1.835945749e-09
1.961480065e-09
7.973555579e-10
9.31895598e-10
1.136502477e-09
1.40733318e-09
1.733104083e-09
2.090921338e-09
2.44381849e-09
2.740945343e-09
2.92126716e-09
1.242789775e-09
1.441640375e-09
1.74256584e-09
2.138561942e-09
2.61201229e-09
3.129075126e-09
3.636475979e-09
4.061923599e-09
4.319310117e-09
1.92037282e-09
2.211391355e-09
2.64982054e-09
3.223723703e-09
3.906188466e-09
4.647778953e-09
5.372333798e-09
5.977696383e-09
6.342949911e-09
2.941966351e-09
3.363970329e-09
3.997182661e-09
4.822179552e-09
5.798580967e-09
6.854911369e-09
7.883064123e-09
8.739460587e-09
9.255016366e-09
4.469092231e-09
5.075864432e-09
5.983096799e-09
7.160245058e-09
8.547639052e-09
1.004287098e-08
1.149346503e-08
1.26986022e-08
1.34227487e-08
6.733322746e-09
7.599016583e-09
8.889378589e-09
1.055763371e-08
1.251675225e-08
1.462118246e-08
1.665709521e-08
1.834483413e-08
1.935743465e-08
1.006451375e-08
1.129094387e-08
1.311409508e-08
1.546383844e-08
1.821466793e-08
2.116118734e-08
2.400506347e-08
2.635837351e-08
2.776862191e-08
1.492976205e-08
1.665623301e-08
1.92167795e-08
2.250806481e-08
2.635087212e-08
3.045720224e-08
3.441272858e-08
3.768120518e-08
3.96381083e-08
2.198700367e-08
2.440356027e-08
2.798046935e-08
3.256764403e-08
3.791137054e-08
4.361010752e-08
4.909074824e-08
5.361425658e-08
5.63207792e-08
3.215859682e-08
3.552390082e-08
4.049670655e-08
4.686166076e-08
5.426226889e-08
6.21414287e-08
6.970917362e-08
7.594974421e-08
7.968192586e-08
4.673221906e-08
5.139769442e-08
5.828189282e-08
6.707894823e-08
7.729113869e-08
8.814880037e-08
9.856641854e-08
1.071513162e-07
1.122841079e-07
6.74990918e-08
7.394152707e-08
8.343633193e-08
9.555274555e-08
1.095996376e-07
1.245176241e-07
1.388192057e-07
1.505991223e-07
1.576413177e-07
9.694291983e-08
1.058084084e-07
1.188610904e-07
1.354985883e-07
1.547657141e-07
1.752090858e-07
1.947953614e-07
2.109230771e-07
2.205645366e-07
1.38497252e-07
1.50660414e-07
1.685530788e-07
1.913379393e-07
2.177002556e-07
2.456518347e-07
2.724190838e-07
2.944558494e-07
3.076313658e-07
1.968950082e-07
2.135389747e-07
2.380058438e-07
2.691377678e-07
3.051315415e-07
3.432740018e-07
3.797885695e-07
4.098481306e-07
4.278238489e-07
2.786416543e-07
3.013662051e-07
3.347522842e-07
3.772059486e-07
4.262615369e-07
4.78224169e-07
5.279590805e-07
5.689029321e-07
5.933934091e-07
3.926523884e-07
4.236201237e-07
4.69095767e-07
5.268935616e-07
5.936508121e-07
6.643442347e-07
7.320003878e-07
7.877028576e-07
8.210298116e-07
5.511033081e-07
5.932366317e-07
6.550870125e-07
7.336675383e-07
8.244025827e-07
9.204724084e-07
1.012414513e-06
1.088122742e-06
1.133430384e-06
7.705555375e-07
8.278008064e-07
9.118145218e-07
1.018528056e-06
1.141728273e-06
1.272167563e-06
1.397013772e-06
1.499835072e-06
1.561381292e-06
1.073418532e-06
1.151096967e-06
1.265082847e-06
1.409851287e-06
1.57698261e-06
1.753950939e-06
1.923362895e-06
2.062918366e-06
2.146464721e-06
1.489820775e-06
1.595087918e-06
1.749552149e-06
1.945734484e-06
2.172248853e-06
2.412149049e-06
2.641871425e-06
2.831155933e-06
2.944479603e-06
2.059950417e-06
2.202385335e-06
2.411399498e-06
2.676900796e-06
2.983526239e-06
3.308381845e-06
3.619570154e-06
3.876047829e-06
4.029590359e-06
2.83691133e-06
3.029250996e-06
3.311531804e-06
3.670178634e-06
4.08451315e-06
4.523661903e-06
4.944504558e-06
5.291435178e-06
5.499079519e-06
3.89010664e-06
4.149127008e-06
4.529325653e-06
5.012497491e-06
5.570882762e-06
6.162944573e-06
6.730518508e-06
7.198441669e-06
7.478327278e-06
5.309104521e-06
5.65662438e-06
6.166782803e-06
6.815231369e-06
7.564806899e-06
8.359791829e-06
9.121991631e-06
9.75017956e-06
1.01255477e-05
7.207849627e-06
7.671793925e-06
8.352863811e-06
9.218567077e-06
1.021929459e-05
1.128059079e-05
1.229781296e-05
1.313568875e-05
1.36358637e-05
9.728947232e-06
1.034435276e-05
1.124758871e-05
1.239537624e-05
1.372169176e-05
1.51274811e-05
1.647404005e-05
1.758229443e-05
1.824289611e-05
1.304755627e-05
1.385733835e-05
1.504528458e-05
1.655384896e-05
1.829540935e-05
2.013969237e-05
2.190440577e-05
2.335472781e-05
2.421737466e-05
1.737419008e-05
1.842941986e-05
1.997602642e-05
2.193788383e-05
2.420006775e-05
2.659213262e-05
2.887702527e-05
3.075101828e-05
3.18628236e-05
2.295528833e-05
2.431476676e-05
2.630523302e-05
2.882634863e-05
3.172805392e-05
3.478977422e-05
3.770729412e-05
4.009381391e-05
4.150544032e-05
3.007254118e-05
3.180210826e-05
3.433071886e-05
3.752703488e-05
4.119690216e-05
4.505837998e-05
4.872685212e-05
5.17180494e-05
5.348132681e-05
3.903808379e-05
4.120796929e-05
4.437451735e-05
4.836735291e-05
5.293811373e-05
5.773143656e-05
6.226892099e-05
6.595514787e-05
6.812008517e-05
5.018493794e-05
5.286654141e-05
5.677147732e-05
6.16812683e-05
6.728244185e-05
7.313396753e-05
7.865100242e-05
8.31150423e-05
8.572656613e-05
6.385397212e-05
6.711576009e-05
7.185421205e-05
7.779304253e-05
8.454255602e-05
9.156441754e-05
9.8156362e-05
0.0001034675973
0.0001065623919
8.037723938e-05
8.428010187e-05
8.993527253e-05
9.699887937e-05
0.0001049944262
0.0001132761326
0.0001210159392
0.0001272251156
0.0001308289356
0.0001000587645
0.0001046512841
0.000111287882
0.0001195479574
0.0001288590116
0.0001384600605
0.0001473922823
0.0001545274702
0.0001586532551
0.0001231543171
0.0001284684542
0.0001361268653
0.0001456244902
0.0001562858407
0.0001672301351
0.0001773668107
0.0001854310489
0.0001900782306
0.0001498519665
0.0001558996335
0.0001645914651
0.0001753323686
0.0001873398273
0.0001996124029
0.0002109311219
0.0002199020031
0.0002250585493
0.0001802552078
0.0001870260944
0.0001967315476
0.0002086836467
0.0002219922688
0.0002355384187
0.0002479820077
0.0002578103859
0.0002634455556
0.0002143701738
0.000221831024
0.0002324983148
0.0002455917125
0.0002601166758
0.0002748438008
0.0002883231419
0.0002989374749
0.0003050112059
0.0002520979681
0.0002601933187
0.0002717400987
0.0002858693689
0.0003014891308
0.0003172705209
0.0003316684125
0.0003429777601
0.0003494407304
0.0002932325909
0.0003018868259
0.0003142033488
0.000329231738
0.0003457930107
0.0003624731036
0.0003776491228
0.0003895468302
0.0003963422777
0.0003374644287
0.0003465849246
0.0003595386382
0.0003753038046
0.0003926279722
0.0004100288213
0.0004258251108
0.0004381931807
0.0004452592997
0.0003843890476
0.0003938702446
0.000407311633
0.000423632835
0.0004415239393
0.0004594533655
0.0004757022868
0.0004884176336
0.000495691533
0.0004335214239
0.0004432499161
0.0004570198898
0.0004737073308
0.0004919628985
0.0005102264547
0.0005267632261
0.000539708795
0.0005471396719
0.000484317664
0.0004941789291
0.0005081190067
0.0005249877875
0.0005434151586
0.0005618355975
0.0005785282164
0.0005916116914
0.0005991382814
0.0005362123396
0.0005460999875
0.0005600664613
0.0005769629531
0.0005954077095
0.0006138299659
0.0006305096251
0.0006436002376
0.0006511581672
0.0005886955006
0.0005985259367
0.0006123987966
0.0006291545847
0.0006474274535
0.0006656733593
0.0006822039266
0.000695207592
0.000702751194
0.0006412340305
0.0006509076132
0.000664551435
0.0006810203914
0.0006989761302
0.000716913085
0.0007331880283
0.0007460315275
0.0007535254837
0.0006932880701
0.0007027299505
0.0007160438086
0.0007321126113
0.0007496368943
0.0007671601123
0.000783093716
0.0007957175485
0.0008031329232
0.00074441466
0.0007535666053
0.0007664716248
0.0007820502744
0.0007990512216
0.0008160755806
0.00083159717
0.0008439514403
0.0008512634102
0.0007942402676
0.0008030561578
0.0008154895038
0.0008305055787
0.0008469084222
0.0008633637147
0.0008784139542
0.0008904557508
0.0008976421661
0.0008424472166
0.0008508903258
0.0008628016476
0.0008771965657
0.0008929400695
0.0009087678428
0.0009232962219
0.000934987852
0.0009420282918
0.0008887660361
0.00089680718
0.0009081561771
0.0009218825439
0.0009369164294
0.0009520677247
0.0009660307784
0.0009773385587
0.0009842137257
0.0009329702994
0.0009405864556
0.0009513410593
0.0009643606723
0.0009786436876
0.0009930773729
0.001006437414
0.001017330869
0.001024022238
0.0009748725191
0.0009820457538
0.000992180717
0.00100446303
0.001017961489
0.001031643036
0.00104436728
0.001054818651
0.00106130832
0.00101432054
0.001021037167
0.001030532971
0.001042053919
0.001054740611
0.001067641226
0.001079701229
0.001089685237
0.001095955931
0.001051194249
0.001057444183
0.001066286202
0.001077027328
0.001088880738
0.001100976783
0.001112348123
0.001121841919
0.001127877113
0.001085402561
0.001091178834
0.001099356728
0.001109304556
0.001120308333
0.00113158097
0.001142243121
0.001151226375
0.001157010496
0.001116880704
0.00112217912
0.0011296864
0.001138832012
0.001148974631
0.001159409639
0.001169345973
0.001177801055
0.001183319727
0.001145587793
0.001150406687
0.001157240431
0.001165579188
0.001174853753
0.001184441458
0.00119363933
0.001201551528
0.001206791837
0.001171504689
0.001175844776
0.001182005434
0.001189536808
0.001197940944
0.001206676211
0.001215127075
0.001222484823
0.001227435566
0.001194632122
0.001198496381
0.001203987653
0.001210715118
0.001218250909
0.001226133158
0.001233832671
0.001240627754
0.001245279656
0.001214989003
0.001218382609
0.001223211351
0.001229142292
0.001235816227
0.001242849431
0.001249797533
0.001256025229
0.001260371124
0.001232610908
0.001235541162
0.001239717299
0.001244862924
0.001250685817
0.001256878462
0.00126307939
0.00126873856
0.00127277351
0.00124754866
0.001250024917
0.001253561345
0.001257936564
0.001262923435
0.001268288415
0.001273750655
0.001278843762
0.001282565123
0.001259866966
0.001261900542
0.001264812995
0.001268436268
0.001272606176
0.001277160649
0.001281896808
0.001286429847
0.00128983727
0.001269643079
0.001271247149
0.001273554043
0.001276447177
0.001279822997
0.001283588144
0.001287614753
0.00129159712
0.001294692503
0.001276965478
0.001278154938
0.001279877176
0.001282065078
0.001284673213
0.001287673947
0.001291011193
0.001294455487
0.00129724288
0.001281932518
0.001282723831
0.001283884569
0.001285394953
0.001287265
0.00128952962
0.001292201027
0.001295122797
0.001297608266
0.001284651069
0.001285062084
0.001285686476
0.001286549534
0.001287713908
0.001289273709
0.00129130577
0.001293723222
0.001295914673
0.001285235147
0.001285284907
0.001285399817
0.001285647865
0.001286141398
0.001287030247
0.001288452024
0.001290385694
0.001292292679
0.001283804547
0.001283513083
0.001283146787
0.001282813891
0.001282673405
0.001282927299
0.001283770003
0.001285242411
0.001286875917
0.001280483491
0.001279871609
0.001279053491
0.001278175083
0.001277438957
0.001277095574
0.00127739214
0.001278427432
0.00127979966
0.001275399315
0.001274488382
0.001273248621
0.00127186112
0.001270568862
0.001269667114
0.001269451774
0.00127007537
0.001271199511
0.001268681201
0.001267492933
0.00126586221
0.001264002646
0.001262194476
0.001260774073
0.001260081945
0.001260320191
0.001261210207
0.001260458981
0.001259015246
0.001257024444
0.001254730107
0.001252446553
0.001250547594
0.00124941429
0.001249294129
0.001249964544
0.001250862021
0.001249184642
0.001246864583
0.001244172684
0.001241454216
0.001239116802
0.001237578059
0.001237126722
0.001237592421
0.001240018198
0.001238128782
0.001235509971
0.001232457336
0.001229344016
0.001226607898
0.001224699248
0.001223943972
0.001224220017
0.001228052976
0.001225972749
0.001223085148
0.001219707942
0.001216239122
0.001213143384
0.001210899849
0.001209867617
0.001209969086
0.001215088592
0.00121283826
0.001209711084
0.001206044565
0.001202258612
0.001198841391
0.001196297219
0.00119501454
0.001194956372
0.001201243348
0.001198842971
0.001195504516
0.001191582819
0.001187516883
0.00118381513
0.001181003565
0.001179496273
0.001179293142
0.001186631013
0.001184099899
0.001180577392
0.001176433352
0.001172123165
0.001168172443
0.001165125533
0.001163418623
0.001163084823
0.00117136033
0.001168716951
0.001165036425
0.001160701433
0.001156181149
0.001152015465
0.001148763904
0.001146881391
0.001146430747
0.001155534632
0.001152796549
0.001148982753
0.001144486632
0.0011397887
0.001135440377
0.001132013377
0.001129978191
0.001129423978
0.001139251543
0.00113643536
0.001132511678
0.001127882602
0.001123037671
0.001118537248
0.001114962447
0.001112796345
0.00111215123
0.001122602782
0.001119724104
0.001115712507
0.00111097694
0.001106013792
0.001101389959
0.001097693356
0.001095416859
0.001094692855
0.001105674035
0.001102747449
0.001098668468
0.001093851125
0.001088796639
0.001084076197
0.001080282106
0.001077914462
0.001077122896
0.001088544916
0.001085583979
0.001081456689
0.001076580524
0.001071459659
0.001066667506
0.001062798543
0.001060357704
0.001059509193
0.001071288982
0.001068306225
0.001064148245
0.001059234461
0.001054070264
0.001049229398
0.001045306482
0.001042809101
0.001041913545
0.001053973808
0.001050980745
0.001046808265
0.001041876327
0.001036689962
0.001031821508
0.001027863879
0.001025325318
0.001024391899
0.001036661116
0.001033668266
0.001029496069
0.001024563751
0.001019374534
0.001014497784
0.00101052304
0.00100795739
0.001006994581
0.001019406936
0.001016423852
0.001012265356
0.001007348784
0.001002174243
0.0009973067091
0.0009933308487
0.0009907509677
0.0009897665417
0.001002261813
0.0009992971118
0.0009951644187
0.0009902781317
0.0009851340662
0.0009802915468
0.000976329029
0.0009737465769
0.000972747629
0.0009852710265
0.0009823324307
0.0009782363799
0.0009733933958
0.0009682939539
0.0009634906046
0.0009595544108
0.000956979899
0.0009559728697
0.0009684748438
0.0009655692217
0.00096151945
0.0009567313388
0.0009516890953
0.0009469375085
0.0009430392136
0.0009404820567
0.0009394727584
0.0009519087809
0.0009490421914
0.0009450471963
0.0009403241567
0.0009353501974
0.0009306614865
0.0009268113326
0.0009242799047
0.0009232735516
0.0009356038758
0.0009327816146
0.0009288488202
0.0009241997598
0.0009193037687
0.0009146876541
0.0009108946284
0.0009083963212
0.0009073975604
0.0009195869673
0.0009168136147
0.0009129494387
0.0009083820547
0.0009035724028
0.0008990373007
0.000895309214
0.000892850497
0.0008918634414
0.000903880976
0.0009011604444
0.0008973703654
0.0008928912269
0.0008881750615
0.0008837281719
0.0008800717377
0.0008776582187
0.0008766864803
0.0008885051833
0.0008858407648
0.00088212939
0.000877744019
0.0008731273518
0.000868774747
0.0008651956601
0.0008628321456
0.0008618788688
0.000873475507
0.0008708699203
0.0008672410511
0.0008629540026
0.0008584417968
0.0008541885075
0.0008506915217
0.0008483820764
0.0008474499712
0.0008588047694
0.0008562602055
0.0008527169028
0.0008485318423
0.0008441280977
0.000839978197
0.0008365672005
0.0008343152057
0.0008334065805
0.0008445029584
0.0008420211252
0.0008385657714
0.0008344855508
0.0008301933855
0.0008261500708
0.0008228281589
0.0008206363686
0.0008197531618
0.0008305774779
0.0008281596426
0.0008247940023
0.0008208207323
0.0008166424617
0.0008127081323
0.0008094776779
0.0008073482737
0.0008064920845
0.0008170333875
0.000814680418
0.0008114056951
0.0008075408146
0.0008034780264
0.0007996543588
0.0007965170792
0.0007944517218
0.0007936238399
0.0008038736309
0.0008015860343
0.0007984029273
0.000794647269
0.0007907008951
0.0007869889135
0.0007839459343
0.000781945813
0.0007811472466
0.0007910992518
0.0007888772112
0.0007857859646
0.0007821398179
0.0007783102014
0.0007747103448
0.0007717622599
0.0007698281399
0.0007690596423
0.000778709597
0.0007765530065
0.0007735534597
0.0007700166287
0.0007663035878
0.000762815773
0.0007599627012
0.0007580949671
0.0007573570624
0.000766702507
0.0007646110041
0.0007617026371
0.0007582744956
0.0007546773832
0.0007513010635
0.0007485427016
0.0007467413991
0.0007460344056
0.0007550744942
0.00075304749
0.000750229466
0.0007469090091
0.0007434267677
0.0007401609884
0.0007374966605
0.0007357615348
0.0007350855873
0.0007438209083
0.0007418576158
0.0007391288209
0.0007359147119
0.0007325459256
0.0007293893745
0.0007268180778
0.0007251486096
0.0007245036804
0.0007329360891
0.0007310355494
0.0007283946292
0.000725285244
0.0007220281859
0.0007189792405
0.0007164996881
0.0007148951266
0.0007142810443
0.0007224135082
0.0007205746144
0.0007180200079
0.0007150134756
0.0007118661514
0.0007089229227
0.0007065335822
0.0007049929761
0.0007044094436
0.0007122458988
0.0007104674183
0.0007079973887
0.0007050916284
0.0007020518171
0.000699212189
0.0006969113188
0.000695433544
0.000694880155
0.0007024253742
0.0007007059688
0.0006983186321
0.0006955113872
0.0006925766774
0.0006898383435
0.0006876240252
0.000686207811
0.000685684065
0.0006929435361
0.0006912817807
0.0006889751315
0.0006862640007
0.0006834318243
0.0006807923206
0.0006786624892
0.0006773064414
0.0006768117572
0.0006837915735
0.0006821859724
0.0006799579072
0.0006773403722
0.0006746080346
0.0006720647699
0.0006700172403
0.0006687198626
0.0006682535909
0.0006749603505
0.0006734093529
0.0006712576913
0.0006687311423
0.0006660958496
0.0006636461319
0.0006616786236
0.0006604383365
0.000659999771
0.0006664404866
0.0006649424998
0.0006628650035
0.0006604267618
0.000657885645
0.0006555267057
0.0006536368642
0.000652452022
0.0006520404094
0.0006582224276
0.0006567758291
0.0006547702186
0.0006524175561
0.0006499676927
0.000647696708
0.0006458821234
0.0006447510291
0.0006443655779
0.0006502965083
0.0006488996564
0.0006469636254
0.0006446937828
0.0006423322154
0.0006401463242
0.0006384045478
0.0006373254657
0.0006369653532
0.000642653007
0.0006413042499
0.0006394354783
0.0006372456794
0.0006349694318
0.0006328657513
0.0006311943092
0.0006301654753
0.0006298298539
0.0006352821928
0.0006339798761
0.0006321760406
0.0006300635052
0.0006278695951
0.0006258452332
0.0006242416371
0.000623261267
0.0006229492684
0.0006281743642
0.0006269168375
0.0006251756198
0.0006231375731
0.0006210230224
0.0006190750872
0.0006175368418
0.0006166031366
0.0006163138744
0.0006213198802
0.0006201055012
0.0006184245946
0.0006164582746
0.0006144201164
0.000612545722
0.0006110703296
0.0006101814774
0.0006099140478
0.0006147091826
0.0006135363206
0.0006119134338
0.000610016095
0.0006080513768
0.0006062476455
0.0006048326062
0.0006039867817
0.000603740262
0.0006083328095
0.0006071998465
0.0006056327045
0.0006038016188
0.0006019074021
0.0006001714622
0.0005988142708
0.0005980096303
0.0005977830741
0.0006021813983
0.0006010867281
0.0005995730712
0.0005978055247
0.0005959788801
0.0005943078595
0.0005930059962
0.0005922406686
0.0005920330995
0.000596245678
0.0005951877033
0.0005937252814
0.0005920185674
0.000590256565
0.0005886475789
0.0005873984967
0.0005866705703
0.0005864809714
0.0005905164482
0.0005894935749
0.0005880801392
0.000586431546
0.0005847312407
0.0005831813741
0.0005819824794
0.0005812899838
0.000581117285
0.000584984544
0.0005839951728
0.0005826284629
0.0005810352568
0.0005793936669
0.0005778999513
0.0005767485796
0.0005760894634
0.0005759325261
0.0005796407841
0.0005786832986
0.000577361025
0.0005758204279
0.0005742345084
0.0005727938917
0.0005716872775
0.0005710593819
0.0005709169822
0.0005744759005
0.0005735486525
0.0005722684741
0.0005707776342
0.0005692442432
0.0005678535539
0.0005667887959
0.0005661898258
0.0005660606358
0.0005694804483
0.0005685817384
0.000567341235
0.000565897192
0.0005644130507
0.0005630689558
0.0005620429779
0.0005614704706
0.000561353042
0.000564644693
0.000563772748
0.0005625693869
0.000561169031
0.0005597306769
0.0005584296356
0.0005574391451
0.0005568904401
0.000556783189
0.000559958476
0.0005591114218
0.0005579425192
0.0005565825434
0.0005551862792
0.0005539244916
0.0005529659362
0.0005524381473
0.0005523393444
0.0005554110562
0.0005545868873
0.0005534495652
0.0005521264127
0.0005507682493
0.0005495416035
0.0005486111302
0.0005481011224
0.00054800889
0.0005509909317
0.0005501874774
0.0005490786151
0.0005477884227
0.00054646402
0.0005452680388
0.0005443614556
0.0005438658301
0.0005437781485
0.0005466856426
0.0005459005299
0.0005448167136
0.0005435552517
0.0005422598583
0.0005410896478
0.0005402023921
0.0005397174823
0.0005396322067
0.0005424815602
0.0005417121764
0.0005406496462
0.0005394122586
0.000538140653
0.000536990856
0.0005361179716
0.0005356398501
0.0005355547407
0.0005383636709
0.0005376071243
0.0005365617224
0.0005353432685
0.0005340897039
0.0005329544605
0.0005320905856
0.0005316150859
0.0005315278496
0.000534315361
0.0005335684451
0.0005325355666
0.0005313303671
0.0005300885243
0.0005289614422
0.000528100809
0.0005276235601
0.0005275319038
0.0005303182161
0.000529577376
0.0005285519254
0.0005273537173
0.0005261166668
0.0005249908032
0.0005241272503
0.0005236437224
0.0005235454139
0.0005263518442
0.0005256131491
0.0005245895058
0.0005233914081
0.0005221515853
0.0005210194416
0.0005201464365
0.000519651994
0.0005195449258
0.0005223937403
0.0005216528644
0.0005206248583
0.0005194193492
0.0005181685426
0.0005170220713
0.0005161327421
0.000515622698
0.0005155049463
0.0005184191962
0.0005176714096
0.000516632312
0.0005154112244
0.0005141405795
0.000512971201
0.0005120583688
0.0005115280309
0.0005113979006
0.0005144012732
0.0005136414444
0.0005125839747
0.0005113385088
0.0005100385474
0.000508837176
0.000507893384
0.0005073380828
0.000507194127
0.0005103108451
0.0005095334572
0.0005084498069
0.0005071705607
0.0005058312148
0.0005045882884
0.00050360582
0.0005030209068
0.0005028619093
0.0005061167171
0.0005053158987
0.0005041977741
0.0005028747926
0.0005014854509
0.0005001909621
0.0004991618397
0.0004985426445
0.0004983675542
0.0005017858279
0.0005009553979
0.0004997940823
0.0004984169257
0.000496966492
0.0004956100159
0.0004945259763
0.0004938677184
0.0004936755272
0.0004972835347
0.0004964170638
0.0004952034986
0.0004937613298
0.0004922382947
0.0004908090153
0.0004896614606
0.0004889591092
0.0004887486715
0.0004925739881
0.0004916648762
0.0004903897645
0.0004888714583
0.000487263987
0.0004857507278
0.0004845306587
0.0004837787518
0.0004835485507
0.0004876206017
0.0004866621736
0.0004853161086
0.0004837103896
0.0004820064361
0.000480397707
0.0004790956568
0.0004782880975
0.0004780359742
0.00048238663
0.000481372254
0.0004799458789
0.0004782414983
0.0004764289614
0.0004747130457
0.0004733190438
0.0004724489086