/*--------------------------------*- C++ -*----------------------------------*\
| =========                 |                                                 |
| \\      /  F ield         | OpenFOAM: The Open Source CFD Toolbox           |
|  \\    /   O peration     | Version:  2212                                  |
|   \\  /    A nd           | Website:  www.openfoam.com                      |
|    \\/     M anipulation  |                                                 |
\*---------------------------------------------------------------------------*/
FoamFile
{
    version     2.0;
    format      ascii;
    arch        "LSB;label=32;scalar=64";
    class       volScalarField;
    location    "20.00000000";
    object      A2CH3-2_0;
}
// * * * * * * * * * * * * * * * * * * * * * * * * * * * * * * * * * * * * * //

dimensions      [0 0 0 0 0 0 0];

internalField   nonuniform List<scalar> 
3000
(
2.095161811e-21
2.353542599e-21
2.743431557e-21
3.26297838e-21
3.906883417e-21
4.657633858e-21
5.469974972e-21
6.245044596e-21
6.793047644e-21
7.865973092e-21
8.871619529e-21
1.038844641e-20
1.241414876e-20
1.494660268e-20
1.797163546e-20
2.143655795e-20
2.516675897e-20
2.847063851e-20
1.761887271e-20
2.002733841e-20
2.369467985e-20
2.867376952e-20
3.505367809e-20
4.292629714e-20
5.225965855e-20
6.252959568e-20
7.13045169e-20
3.355796398e-20
3.854453397e-20
4.624880187e-20
5.69308635e-20
7.096797568e-20
8.871482424e-20
1.100713024e-19
1.333246937e-19
1.52082803e-19
5.958807005e-20
6.928197738e-20
8.449493655e-20
1.059988162e-19
1.348032592e-19
1.717124384e-19
2.161029961e-19
2.63220274e-19
2.993328163e-19
1.024635423e-19
1.206566133e-19
1.496172961e-19
1.911932228e-19
2.476018208e-19
3.202639155e-19
4.070149787e-19
4.969343762e-19
5.635206679e-19
1.739491547e-19
2.073669449e-19
2.611832105e-19
3.393147187e-19
4.461122307e-19
5.83701194e-19
7.463954473e-19
9.117080628e-19
1.031004647e-18
2.944085379e-19
3.548889038e-19
4.531534539e-19
5.969204281e-19
7.942084683e-19
1.047861677e-18
1.345159949e-18
1.642835654e-18
1.854056818e-18
4.991692191e-19
6.07486778e-19
7.846121369e-19
1.045070334e-18
1.40312899e-18
1.862241294e-18
2.39649147e-18
2.925877023e-18
3.29738987e-18
8.495136049e-19
1.042021472e-18
1.358256818e-18
1.824772801e-18
2.466499093e-18
3.287195e-18
4.236956957e-18
5.171241938e-18
5.822103483e-18
1.451893955e-18
1.792130169e-18
2.352804617e-18
3.181572168e-18
4.321610452e-18
5.776318356e-18
7.452930309e-18
9.093966568e-18
1.023168144e-17
2.491383574e-18
3.090335511e-18
4.079476204e-18
5.543347972e-18
7.5564488e-18
1.012041419e-17
1.306657362e-17
1.5940398e-17
1.792687611e-17
4.289973648e-18
5.341537528e-18
7.080734869e-18
9.656517037e-18
1.319723126e-17
1.769968515e-17
2.286116774e-17
2.788452807e-17
3.135286785e-17
7.407831323e-18
9.250783279e-18
1.230226427e-17
1.682396446e-17
2.303734169e-17
3.092794103e-17
3.995548698e-17
4.872759e-17
5.479027096e-17
1.281843713e-17
1.604417333e-17
2.139034995e-17
2.931732209e-17
4.021094491e-17
5.403749847e-17
6.983743017e-17
8.517034641e-17
9.577538386e-17
2.22104355e-17
2.784840305e-17
3.720025706e-17
5.107710532e-17
7.016159509e-17
9.440847941e-17
1.221512078e-16
1.490592572e-16
1.674985359e-16
3.850928108e-17
4.83448574e-17
6.466602109e-17
8.888802909e-17
1.221915194e-16
1.644697478e-16
2.127724676e-16
2.59537135e-16
2.915789358e-16
6.678616583e-17
8.391544209e-17
1.123440146e-16
1.545301833e-16
2.125076307e-16
2.860510859e-16
3.699898804e-16
4.511897374e-16
5.068301474e-16
1.158388843e-16
1.456353304e-16
1.950907057e-16
2.684725525e-16
3.692940039e-16
4.971273127e-16
6.429568282e-16
7.839698872e-16
8.805764972e-16
2.009373522e-16
2.527316354e-16
3.387045156e-16
4.662665911e-16
6.415009641e-16
8.63628434e-16
1.11695222e-15
1.36183861e-15
1.529570352e-15
3.485906216e-16
4.385874562e-16
5.879826962e-16
8.096468731e-16
1.114123837e-15
1.500015038e-15
1.940005101e-15
2.365238958e-15
2.656444035e-15
6.048247856e-16
7.611678291e-16
1.020712476e-15
1.40580982e-15
1.934740125e-15
2.605007923e-15
3.369094612e-15
4.107407526e-15
4.612918819e-15
1.049557755e-15
1.321124579e-15
1.771965847e-15
2.440886088e-15
3.359573657e-15
4.523586613e-15
5.850289395e-15
7.131993882e-15
8.009442159e-15
1.821561334e-15
2.293235672e-15
3.076283698e-15
4.238045479e-15
5.833421738e-15
7.854498511e-15
1.015760096e-14
1.238214304e-14
1.390483599e-14
3.161797004e-15
3.980982641e-15
5.34089404e-15
7.358323699e-15
1.01283072e-14
1.363667901e-14
1.763363234e-14
2.149327298e-14
2.413461534e-14
5.488630771e-15
6.911271042e-15
9.272757502e-15
1.277550178e-14
1.758381681e-14
2.367215789e-14
3.06061068e-14
3.729960402e-14
4.187894869e-14
9.528316585e-15
1.199874253e-14
1.609889264e-14
2.21792077e-14
3.052326565e-14
4.108454079e-14
5.310737271e-14
6.470802295e-14
7.264135751e-14
1.65411117e-14
2.083045152e-14
2.79479176e-14
3.849941174e-14
5.297313244e-14
7.128323272e-14
9.21147265e-14
1.122021868e-13
1.259315351e-13
2.871263318e-14
3.615844355e-14
4.85098325e-14
6.681248663e-14
9.190406711e-14
1.236237046e-13
1.596818013e-13
1.944222201e-13
2.181475726e-13
4.983001593e-14
6.275043272e-14
8.417448031e-14
1.159024904e-13
1.593653141e-13
2.142563743e-13
2.765865079e-13
3.365690686e-13
3.774880462e-13
8.644744469e-14
1.088551991e-13
1.459903422e-13
2.009426163e-13
2.761417149e-13
3.709934891e-13
4.785428883e-13
5.818811311e-13
6.522720619e-13
1.498894623e-13
1.88718891e-13
2.530226157e-13
3.480813666e-13
4.779892411e-13
6.415772144e-13
8.267120411e-13
1.004237348e-12
1.12492634e-12
2.596821204e-13
3.268889261e-13
4.380843891e-13
6.022460092e-13
8.262040883e-13
1.107630638e-12
1.425351676e-12
1.729223661e-12
1.935290583e-12
4.494050631e-13
5.655407752e-13
7.574651592e-13
1.040337816e-12
1.425409452e-12
1.908007517e-12
2.451185706e-12
2.969001686e-12
3.319050139e-12
7.766240513e-13
9.768818679e-13
1.307339643e-12
1.793381063e-12
2.453238732e-12
3.27750517e-12
4.201769809e-12
5.079379845e-12
5.670380889e-12
1.339655218e-12
1.684017355e-12
2.251240645e-12
3.083387267e-12
4.209396832e-12
5.610362857e-12
7.174212305e-12
8.652071364e-12
9.642761961e-12
2.305682866e-12
2.895798093e-12
3.865673246e-12
5.284125213e-12
7.195877733e-12
9.563179441e-12
1.219167024e-11
1.466184797e-11
1.630901034e-11
3.957592115e-12
4.964554793e-12
6.615148217e-12
9.020240388e-12
1.224657678e-11
1.621958176e-11
2.060385835e-11
2.46979779e-11
2.741175485e-11
6.771376641e-12
8.480908674e-12
1.127435914e-11
1.532707153e-11
2.073406674e-11
2.735013157e-11
3.460041306e-11
4.132305273e-11
4.574991301e-11
1.154301631e-11
1.442798688e-11
1.91249592e-11
2.590519682e-11
3.489511948e-11
4.581686412e-11
5.769371786e-11
6.862151725e-11
7.576678026e-11
1.959456071e-11
2.442970539e-11
3.226884387e-11
4.352073198e-11
5.833626777e-11
7.61942344e-11
9.545258588e-11
1.130269239e-10
1.244331858e-10
3.310560209e-11
4.114618032e-11
5.412096504e-11
7.262674409e-11
9.680849175e-11
1.257094683e-10
1.566025923e-10
1.845539298e-10
2.025577331e-10
5.564085749e-11
6.889632898e-11
9.017511277e-11
1.203155954e-10
1.593789526e-10
2.056486442e-10
2.546564568e-10
2.986122306e-10
3.267094822e-10
9.2980544e-11
1.146267221e-10
1.491793193e-10
1.977603291e-10
2.601816767e-10
3.33434815e-10
4.103037014e-10
4.786503487e-10
5.220121264e-10
1.54412019e-10
1.894012392e-10
2.449182733e-10
3.223704546e-10
4.210038764e-10
5.356674123e-10
6.548797286e-10
7.599748006e-10
8.26170344e-10
2.547144862e-10
3.106639865e-10
3.9888472e-10
5.209806612e-10
6.750679538e-10
8.525266539e-10
1.035359811e-09
1.195224536e-09
1.295228789e-09
4.171708886e-10
5.056361331e-10
6.442388378e-10
8.345196132e-10
1.072511764e-09
1.344104323e-09
1.621495775e-09
1.862164943e-09
2.011755833e-09
6.780822936e-10
8.163563999e-10
1.031615695e-09
1.324783009e-09
1.688265702e-09
2.099438687e-09
2.515949197e-09
2.874717876e-09
3.096406065e-09
1.093453574e-09
1.307079429e-09
1.637562071e-09
2.084178105e-09
2.633293859e-09
3.249327309e-09
3.868597067e-09
4.398487881e-09
4.724172322e-09
1.748783811e-09
2.075026411e-09
2.576687197e-09
3.249639806e-09
4.070533696e-09
4.98439521e-09
5.896624665e-09
6.672512648e-09
7.147122404e-09
2.773257438e-09
3.265867015e-09
4.019028409e-09
5.022374378e-09
6.237369654e-09
7.580444411e-09
8.912615183e-09
1.003960099e-08
1.072607347e-08
4.360130549e-09
5.09584209e-09
6.21470631e-09
7.695711272e-09
9.477156783e-09
1.143385196e-08
1.336364837e-08
1.498847207e-08
1.597455381e-08
6.795792861e-09
7.88317576e-09
9.528745866e-09
1.169420901e-08
1.428323942e-08
1.711078105e-08
1.988550436e-08
2.221207796e-08
2.361960761e-08
1.050075162e-08
1.209213598e-08
1.448962604e-08
1.762796545e-08
2.136000497e-08
2.541542031e-08
2.937772324e-08
3.26882458e-08
3.468570667e-08
1.608648602e-08
1.83941276e-08
2.185675371e-08
2.636818778e-08
3.170765814e-08
3.748433536e-08
4.310703624e-08
4.77905376e-08
5.061007329e-08
2.443578641e-08
2.775375441e-08
3.271477944e-08
3.915191868e-08
4.673896343e-08
5.491596903e-08
6.284911456e-08
6.944007939e-08
7.340056534e-08
3.681400824e-08
4.154771146e-08
4.860368419e-08
5.772630919e-08
6.843985149e-08
7.994849212e-08
9.108287271e-08
1.003134057e-07
1.058515992e-07
5.502299786e-08
6.172897993e-08
7.169801386e-08
8.454690349e-08
9.958962915e-08
1.157031552e-07
1.312559094e-07
1.441260593e-07
1.518386149e-07
8.161326076e-08
9.105278252e-08
1.050530179e-07
1.230493318e-07
1.440620726e-07
1.665164075e-07
1.881462495e-07
2.060187066e-07
2.167188006e-07
1.201753829e-07
1.333864896e-07
1.529416047e-07
1.780205005e-07
2.072359967e-07
2.383920354e-07
2.683542152e-07
2.930817484e-07
3.078753038e-07
1.757389228e-07
1.941332522e-07
2.213141715e-07
2.561042314e-07
2.965536099e-07
3.396152258e-07
3.80969777e-07
4.150665556e-07
4.354548087e-07
2.553164433e-07
2.808090995e-07
3.184240912e-07
3.664880385e-07
4.22277906e-07
4.815846231e-07
5.384760095e-07
5.853477228e-07
6.133650121e-07
3.686426784e-07
4.038262815e-07
4.556757622e-07
5.218332079e-07
5.985172773e-07
6.79936867e-07
7.579691778e-07
8.222218781e-07
8.606206353e-07
5.2917496e-07
5.775527069e-07
6.487705068e-07
7.395302965e-07
8.446072918e-07
9.560619029e-07
1.062801862e-06
1.150656207e-06
1.203155183e-06
7.554416771e-07
8.217389812e-07
9.19248726e-07
1.043387233e-06
1.186967113e-06
1.339137633e-06
1.484788448e-06
1.604634982e-06
1.676252133e-06
1.072850777e-06
1.163431012e-06
1.296555112e-06
1.465888252e-06
1.661582159e-06
1.868849927e-06
2.067153037e-06
2.230295899e-06
2.327794461e-06
1.516100689e-06
1.639518136e-06
1.820788075e-06
2.051199158e-06
2.317305445e-06
2.599008624e-06
2.868448189e-06
3.090099573e-06
3.22258498e-06
2.132372049e-06
2.3001043e-06
2.546334522e-06
2.859137614e-06
3.220216597e-06
3.602320481e-06
3.967726972e-06
4.268332908e-06
4.448049274e-06
2.985519587e-06
3.212932435e-06
3.546635763e-06
3.970373961e-06
4.459327204e-06
4.976632569e-06
5.4713061e-06
5.878304448e-06
6.12169181e-06
4.16152828e-06
4.469137343e-06
4.920376393e-06
5.493175386e-06
6.153969295e-06
6.853008163e-06
7.521506244e-06
8.071637789e-06
8.400723389e-06
5.77554235e-06
6.190646749e-06
6.799431452e-06
7.572047816e-06
8.4632423e-06
9.406031487e-06
1.0307785e-05
1.105009354e-05
1.14942993e-05
7.980815191e-06
8.53958676e-06
9.358939219e-06
1.039865532e-05
1.159791029e-05
1.286674323e-05
1.408067161e-05
1.508033318e-05
1.567878366e-05
1.09799511e-05
1.173006447e-05
1.282987328e-05
1.422538897e-05
1.583511588e-05
1.753856332e-05
1.916884729e-05
2.051195719e-05
2.131636396e-05
1.503879766e-05
1.604267627e-05
1.751444491e-05
1.938188979e-05
2.153617959e-05
2.381642765e-05
2.599955707e-05
2.779897189e-05
2.887716665e-05
2.050327381e-05
2.18419974e-05
2.380454398e-05
2.62946678e-05
2.916754362e-05
3.220910463e-05
3.512222984e-05
3.752452905e-05
3.89647829e-05
2.781925198e-05
2.959711381e-05
3.220319081e-05
3.550966824e-05
3.932455841e-05
4.336420682e-05
4.723464696e-05
5.042811753e-05
5.234388195e-05
3.755532583e-05
3.990493809e-05
4.33486041e-05
4.771720491e-05
5.275729752e-05
5.809483428e-05
6.321028287e-05
6.743266884e-05
6.996645372e-05
5.042787982e-05
5.351560107e-05
5.803998548e-05
6.377812201e-05
7.039701727e-05
7.740619865e-05
8.412379443e-05
8.966877104e-05
9.299665207e-05
6.732733971e-05
7.135864641e-05
7.726355066e-05
8.474944622e-05
9.338119015e-05
0.0001025179118
0.0001112711528
0.0001184945663
0.0001228290745
8.934392797e-05
9.456819785e-05
0.0001022168683
0.000111906964
0.0001230710928
0.0001348789348
0.0001461830569
0.0001555062613
0.0001610988678
0.0001177908114
0.0001245044121
0.000134325723
0.0001467559701
0.0001610609468
0.0001761732404
0.0001906250729
0.0002025334681
0.0002096723845
0.0001542156229
0.0001627608886
0.0001752494643
0.0001910354087
0.0002091756925
0.0002283104029
0.0002465817906
0.0002616181706
0.000270623941
0.0002004022849
0.0002111656017
0.000226877117
0.000246706133
0.0002694515664
0.000293398174
0.0003162217378
0.0003349733558
0.0003461905558
0.0002583603895
0.0002717650898
0.0002913051413
0.0003159210631
0.0003440976322
0.0003736951884
0.00040184196
0.0004249211721
0.0004387063944
0.0003302948143
0.0003467894354
0.0003707957692
0.0004009754781
0.0004354373111
0.000471543875
0.0005057933537
0.0005338125605
0.0005505192615
0.0004185547292
0.0004385966602
0.0004677149904
0.0005042374981
0.0005458310737
0.0005892859172
0.0006303901927
0.0006639326544
0.0006838939084
0.000525561699
0.0005495968559
0.0005844513712
0.0006280610181
0.0006775837233
0.0007291648317
0.0007778093987
0.0008173982125
0.0008409088003
0.0006537188946
0.0006821586908
0.0007233192038
0.0007746855815
0.0008328417603
0.000893222041
0.0009499866048
0.0009960545677
0.00102335407
0.0008053058733
0.0008385032758
0.0008864516492
0.000946129573
0.001013487829
0.001083193868
0.001148516622
0.001201379726
0.001232638801
0.0009823655865
0.00102059236
0.001075691194
0.001144084331
0.001221039953
0.001300417021
0.001374565357
0.001434401059
0.001469706774
0.001186591826
0.001230019089
0.001292485596
0.001369817128
0.001456563117
0.001545749706
0.001628800601
0.001695635628
0.001734988799
0.001419225925
0.001467909865
0.001537797364
0.001624090338
0.001720599481
0.001819513201
0.001911343842
0.001985049088
0.002028361524
0.00168097108
0.001734845136
0.001812033799
0.001907102752
0.002013121991
0.002121457568
0.002221746588
0.002302040049
0.002349136959
0.001971931151
0.002030805304
0.002115002805
0.002218457073
0.002333514104
0.002450752829
0.002558991019
0.00264544736
0.002696073093
0.002291578492
0.002355145598
0.002445897369
0.002557155377
0.0026805763
0.002806005202
0.002921513365
0.003013577637
0.00306740253
0.002638752257
0.002706600844
0.00280330893
0.002921621987
0.003052558316
0.00318529704
0.003307248184
0.003404252182
0.003460869161
0.003011684789
0.003083317538
0.003185266781
0.003309750082
0.003447214969
0.003586252317
0.003713684313
0.00381487054
0.003873877716
0.003408048111
0.003482906481
0.003589300522
0.003718963632
0.003861872317
0.004006171356
0.004138264479
0.004243036177
0.004304094116
0.003825006351
0.003902495783
0.004012524091
0.004146477398
0.004293929457
0.004442618656
0.004578573831
0.004686310404
0.004749063588
0.004259745364
0.004339377634
0.004452359422
0.004589774627
0.004740870609
0.00489306428
0.005032085871
0.005142168909
0.005206262962
0.004709621189
0.004790911038
0.004906166923
0.005046228824
0.005200089505
0.005354922348
0.005496237447
0.005608067473
0.005673159035
0.005171898362
0.005254377395
0.005371252716
0.005513180201
0.005668966507
0.005825614663
0.005968489227
0.006081497585
0.006147260865
0.005643833843
0.005727061322
0.005844941203
0.005988002703
0.006144930651
0.006302625629
0.006446375703
0.006560032605
0.006626163745
0.006122746636
0.006206316662
0.006324635504
0.006468159075
0.006625509459
0.006783546775
0.006927545423
0.007041364881
0.007107584647
0.006606072833
0.006689618431
0.006807865173
0.006951244025
0.007108367587
0.007266111191
0.007409791964
0.007523334228
0.007589389359
0.007091407008
0.007174601751
0.00729232183
0.007435016204
0.007591335178
0.007748218569
0.00789107624
0.008003948282
0.008069611807
0.007576531191
0.007659088928
0.007775883723
0.007917419981
0.008072426859
0.008227951691
0.008369540935
0.008481395457
0.008546466204
0.008059432823
0.008141106039
0.008256630489
0.008396598176
0.008549852473
0.008703585354
0.00884351795
0.00895405133
0.009018352864
0.008538313272
0.00861889051
0.00873284951
0.00887089706
0.009022020746
0.009173588844
0.009311529897
0.009420479423
0.009483858584
0.009011588547
0.009090891276
0.009203035341
0.009338864986
0.009487537143
0.009636623103
0.009772286707
0.009879427391
0.009941752595
0.009477883865
0.009555763094
0.009665883695
0.009799246031
0.009945197181
0.01009153376
0.01022467841
0.01032981962
0.01039097904
0.009936023652
0.01001235651
0.01012028139
0.01025096993
0.01039397637
0.01053734106
0.0106677651
0.01077074718
0.0108306469
0.01038501838
0.01045970484
0.01056529351
0.01069313947
0.01083301786
0.0109732278
0.01110076499
0.01120145599
0.0112600182
0.01082404947
0.01089700931
0.01100014891
0.01112501637
0.0112616187
0.01139852585
0.01152304132
0.01162133392
0.01167849522
0.01125245327
0.01132362334
0.01142422487
0.01154600644
0.01167921548
0.01181270235
0.01193408879
0.01202989748
0.01208560728
0.01166970489
0.0117390367
0.01183703171
0.01195564464
0.01208536992
0.01221534569
0.01233352
0.01242677848
0.01248099759
0.01207540248
0.01214286016
0.0122381979
0.01235358072
0.01247975487
0.0126061518
0.01272105222
0.01281171132
0.01286441062
0.01246925219
0.01253481058
0.01262745547
0.01273956507
0.01286214097
0.01298491187
0.01309649531
0.01318452073
0.01323567998
0.01285105426
0.01291469747
0.01300462708
0.01311343642
0.01323238461
0.01335150007
0.01345973983
0.01354511043
0.01359471719
0.01322069066
0.01328241087
0.01336961422
0.01347511015
0.01359041652
0.01370586268
0.01381074641
0.01389345263
0.01394150141
0.01357811375
0.01363791008
0.0137223861
0.01382456764
0.0139362315
0.01404800818
0.01414953623
0.01422957873
0.01427607009
0.01392333612
0.0139812138
0.01406297012
0.01416184689
0.01426987937
0.01437799841
0.01447618227
0.01455357073
0.01459851063
0.0142564218
0.01431239141
0.01439144328
0.01448703428
0.01459145689
0.01469594076
0.01479080176
0.01486555377
0.0149089529
0.01457747849
0.0146315553
0.0147079247
0.01480025719
0.01490110063
0.01500198113
0.0150935493
0.01516568946
0.01520756265
0.01488665076
0.01493885423
0.0150125691
0.01510167763
0.0151989807
0.01529629794
0.01538461094
0.01545417001
0.01549453575
0.01518411422
0.01523446751
0.01530556106
0.01539148664
0.01548529535
0.01557909673
0.01566419899
0.01573121312
0.01577009306
0.01547007043
0.01551859997
0.0155871101
0.01566989949
0.01576026617
0.01585060551
0.01593254738
0.01599705747
0.01603447606
0.01574474246
0.0157914776
0.01585744636
0.01593715139
0.01602413396
0.01611107077
0.01618990777
0.01625195881
0.01628794291
0.01600837115
0.01605334382
0.0161168169
0.01619349385
0.01627715517
0.01636075386
0.01643654603
0.01649618659
0.01653076512
0.01626121174
0.01630445614
0.01636548248
0.01643919153
0.0165195987
0.016599928
0.01667273925
0.01673002096
0.0167632246
0.01650353104
0.01654508336
0.0166037147
0.01667451942
0.01675174325
0.01682887556
0.01689877314
0.01695375019
0.01698561111
0.01673560495
0.0167755031
0.01683179357
0.01689976046
0.01697387491
0.01704788574
0.01711493967
0.01716766843
0.01719822002
0.01695771626
0.0169959996
0.01705000541
0.0171152034
0.01718628508
0.01725725253
0.01732153514
0.01737207373
0.01740135039
0.01717015271
0.01720686184
0.01725864092
0.01732114099
0.01738926867
0.01745727296
0.01751885842
0.01756726638
0.01759530326
0.0173732054
0.01740838192
0.01745799357
0.01751786833
0.01758312251
0.01764824552
0.01770720944
0.01775354734
0.01778038018
0.01756716723
0.01760085353
0.01764835814
0.01770568147
0.01776814397
0.0178304688
0.01788688782
0.01793121699
0.01795688193
0.01775233164
0.01778457069
0.01783002945
0.01788487615
0.01794462971
0.01800424032
0.01805819176
0.01810057402
0.0181251074
0.01792899145
0.01795982664
0.01800330128
0.01805574672
0.01811287466
0.01816985547
0.01822141701
0.01826191435
0.01828535262
0.01809743785
0.01812691278
0.01816846531
0.01821858516
0.01827317102
0.01832760661
0.01837685597
0.01841553038
0.01843790992
0.01825795951
0.01828611784
0.01832581032
0.01837368025
0.0184258075
0.0184777823
0.01852479697
0.01856171016
0.01858306717
0.01841084177
0.01843772708
0.0184756214
0.01852131682
0.01857106859
0.01862066657
0.01866552357
0.01870073682
0.01872110719
0.01855636596
0.01858202159
0.01861817929
0.01866177513
0.01870923393
0.01875653839
0.01879931401
0.01883288798
0.01885230721
0.01869480879
0.01871927773
0.01875375982
0.0187953303
0.01884057779
0.01888567109
0.01892644072
0.01895843529
0.01897693839
0.01882644185
0.0188497666
0.01888263337
0.01892225181
0.01896536862
0.019008332
0.01904716994
0.01907764405
0.01909526547
0.0189515311
0.0189737536
0.0190050645
0.01904280316
0.01908386867
0.01912478207
0.01916176136
0.01919077292
0.01920754645
0.01907033654
0.01909149806
0.01912131157
0.01915724146
0.01919633366
0.01923527554
0.01927046782
0.01929807359
0.01931403236
0.01918311186
0.01920325291
0.01923162642
0.01926581721
0.01930301254
0.01934005977
0.01937353515
0.01939979065
0.01941496702
0.01929010418
0.01930926445
0.01933625416
0.01936877403
0.01940414726
0.01943937497
0.01947120196
0.01949616139
0.01951058694
0.01939155383
0.01940977212
0.01943543295
0.01946634851
0.01949997267
0.01953345417
0.01956369956
0.01958741572
0.0196011212
0.01948769419
0.01950500836
0.0195293939
0.01955877011
0.01959071633
0.01962252301
0.01965125183
0.0196737761
0.0196867914
0.01957875155
0.0195951985
0.01961836093
0.019646261
0.0196765985
0.0197067998
0.01973407522
0.0197554575
0.01976781165
0.01966494507
0.01968056066
0.0197025507
0.01972903607
0.01975783209
0.01978649541
0.01981237874
0.01983266741
0.01984438853
0.01974648667
0.01976130574
0.01978217263
0.01980730292
0.01983462266
0.01986181333
0.01988636397
0.01990560589
0.01991672122
0.0198235811
0.01983763741
0.01985742888
0.01988126183
0.01990716845
0.01993294972
0.01995622513
0.01997446562
0.01998500147
0.01989642587
0.01990975211
0.01992851435
0.01995110586
0.01997566044
0.02000009344
0.02002214916
0.02003943199
0.02004941378
0.01996521136
0.01997783914
0.0199956168
0.02001702087
0.0200402824
0.02006342618
0.0200843158
0.02010068318
0.02011013542
0.02003012086
0.02004208071
0.0200589169
0.02007918565
0.02010121105
0.02012312254
0.02014289772
0.02015839035
0.02016733664
0.02009133068
0.02010265204
0.02011858832
0.02013777199
0.02015861611
0.02017935016
0.02019806066
0.02021271771
0.02022118077
0.02014901023
0.02015972146
0.02017479788
0.02019294485
0.02021266051
0.02023226989
0.02024996356
0.0202638227
0.02027182436
0.02020332217
0.02021345056
0.02022770565
0.02024486247
0.02026350044
0.0202820359
0.02029875875
0.02031185616
0.0203194174
0.02025442254
0.02026399434
0.02027746513
0.02029367653
0.02031128561
0.02032879588
0.02034459207
0.02035696249
0.02036410343
0.02030246089
0.02031150132
0.02032422338
0.02033953231
0.02035615934
0.0203726912
0.02038760309
0.02039927983
0.02040601978
0.02034758049
0.02035611374
0.02036812121
0.02038256888
0.02039825878
0.02041385707
0.02042792529
0.02043894026
0.0204452977
0.02038991846
0.02039796773
0.02040929334
0.02042291924
0.02043771506
0.02045242275
0.02046568619
0.02047606998
0.02048206261
0.02042960594
0.02043719347
0.02044786856
0.02046071054
0.02047465351
0.02048851173
0.02050100764
0.02051078949
0.02051643425
0.0204667683
0.02047391537
0.02048396997
0.02049606424
0.02050919381
0.02052224192
0.02053400591
0.0205432138
0.02054852688
0.0205015253
0.02050825228
0.0205177151
0.0205290963
0.02054145021
0.02055372584
0.02056479196
0.02057345263
0.0205784495
0.02053399129
0.02054031766
0.02054921616
0.0205599174
0.02057153171
0.02058307082
0.02059347159
0.02060161058
0.02060630601
0.02056427539
0.02057021976
0.02057858017
0.0205886331
0.02059954224
0.02061037918
0.02062014566
0.02062778735
0.02063219545
0.02059248169
0.02059806183
0.0206059092
0.02061534403
0.02062558091
0.02063574844
0.02064491028
0.02065207793
0.02065621215
0.02061870941
0.0206239423
0.02063130056
0.0206401461
0.0206497421
0.02065927152
0.02066785699
0.02067457278
0.02067844596
0.02064305314
0.02064795497
0.02065484693
0.02066313072
0.02067211577
0.0206810369
0.02068907296
0.02069535806
0.02069898242
0.02066560301
0.02067018922
0.02067663665
0.0206843849
0.02069278756
0.02070112884
0.02070864121
0.02071451579
0.02071790299
0.02068644486
0.02069073019
0.02069675384
0.02070399157
0.02071183904
0.02071962759
0.02072664077
0.02073212404
0.0207352852
0.02070566047
0.02070965896
0.02071527862
0.02072202968
0.02072934791
0.02073660958
0.02074314691
0.0207482572
0.0207512029
0.02072332775
0.02072705279
0.02073228732
0.02073857444
0.02074538817
0.02075214759
0.02075823135
0.02076298611
0.02076572645
0.02073952095
0.02074298531
0.0207478527
0.02075369756
0.02076003038
0.02076631104
0.02077196246
0.02077637834
0.02077892295
0.02075431088
0.02075752674
0.02076204416
0.02076746745
0.02077334186
0.02077916618
0.02078440552
0.02078849842
0.02079085648
0.02076776515
0.02077074415
0.02077492799
0.02077994947
0.02078538698
0.02079077638
0.020795623
0.02079940812
0.02080158841
0.02077994844
0.02078270171
0.02078656765
0.02079120622
0.0207962274
0.0208012024
0.02080567484
0.02080916672
0.02081117766
0.02079092278
0.02079346098
0.02079702405
0.02080129785
0.02080592244
0.02081050272
0.02081461879
0.02081783141
0.0208196811
0.02080074787
0.02080308126
0.02080635594
0.02081028241
0.02081452943
0.02081873397
0.02082251084
0.02082545771
0.02082715394
0.02080948149
0.02081161999
0.02081462025
0.02081821629
0.02082210415
0.02082595133
0.02082940568
0.0208320999
0.02083365028
0.02081717993
0.02081913317
0.02082187263
0.02082515467
0.02082870134
0.02083220913
0.02083535726
0.02083781166
0.02083922363
0.02082389847
0.0208256759
0.02082816791
0.02083115213
0.02083437528
0.0208375614
0.02084041941
0.02084264671
0.02084392767
0.02082969201
0.020831303
0.02083356081
0.02083626327
0.02083918052
0.02084206265
0.02084464666
0.02084665961
0.02084781697
0.02083461572
0.02083606966
0.0208381066
0.02084054348
0.0208431726
0.02084576865
0.02084809505
0.02084990663
0.02085094797
0.0208387258
0.02084003227
0.02084186191
0.02084404977
0.02084640901
0.02084873741
0.0208508231
0.02085244677
0.02085337996
0.02084208036
0.02084324925
0.02084488568
0.02084684172
0.02084895009
0.02085103014
0.02085289288
0.02085434283
0.0208551762
0.02084474029
0.02084578202
0.02084724008
0.02084898247
0.02085086014
0.02085271237
0.02085437112
0.02085566255
0.02085640504
0.0208467703
0.02084769597
0.02084899154
0.02085053977
0.02085220845
0.02085385501
0.02085533035
0.02085647977
0.02085714116
0.0208482399
0.02084906152
0.0208502118
0.02085158706
0.02085307037
0.0208545355
0.02085584995
0.02085687556
0.02085746659
0.02084922435
0.02084995506
0.02085097887
0.02085220439
0.02085352832
0.02085483871
0.02085601718
0.0208569391
0.02085747173
0.02084980559
0.02085045984
0.02085137792
0.0208524793
0.02085367257
0.02085485776
0.02085592787
0.02085676847
0.02085725599
0.02085007296
0.02085066667
0.0208515019
0.02085250744
0.02085360179
0.0208546945
0.02085568683
0.02085647092
0.02085692809
0.02085012366
0.02085067438
0.02085145195
0.02085239282
0.02085342322
0.02085445948
0.02085540777
0.0208561627
0.02085660581
0.02085006286
0.0208505898
0.0208513373
0.02085224761
0.02085325232
0.02085427154
0.02085521262
0.02085596826
0.02085641507
0.02085000338
0.02085052737
0.02085127472
0.02085219141
0.02085321179
0.0208542565
0.02085523011
0.0208560186
0.02085648823
0.02085006469
0.02085060806
0.02085138724
0.02085234974
0.02085342987
0.02085454526
0.02085559346
0.02085644879
0.02085696138
0.02085037139
0.02085095766
0.02085180229
0.02085285192
0.0208540378
0.0208552709
0.02085643732
0.02085739456
0.02085797086
0.02085105086
0.02085170425
0.02085264887
0.02085382795
0.0208551665
0.02085656499
0.02085789361
0.02085898795
0.02085964867
0.02085223018
0.020852975
0.02085405417
0.02085540479
0.02085694239
0.02085855309
0.02086008676
0.02086135223
0.02086211724
0.02085403232
0.02085489218
0.02085613929
0.02085770185
0.02085948261
0.02086134959
0.02086312822
0.02086459614
0.02086548357
0.02085657177
0.02085756863
0.0208590145
0.02086082592
0.0208628897
0.02086505219
0.02086711072
0.02086880803
0.02086983317
0.02085994965
0.02086110277
0.02086277414
0.02086486601
0.02086724621
0.02086973633
0.02087210256
0.02087405006
0.02087522437
0.02086424876
0.02086557358
0.02086749155
0.02086988814
0.02087260954
0.02087545007
0.02087814262
0.02088035328
0.02088168334
0.02086952873
0.02087103582
0.02087321432
0.02087593074
0.02087900752
0.02088220986
0.02088523632
0.02088771385
0.02088920055
0.02087582179
0.02087751594
0.0208799604
0.0208830011
0.02088643515
0.02088999779
0.02089335337
0.02089609124
0.02089772923
0.02088312955
0.02088500901
0.02088771547
0.02089107313
0.02089485307
0.02089876067
0.02090242757
0.02090540861
0.0209071862
0.02089142113
0.02089347728
0.02089643193
0.02090008709
0.020904188
0.02090841146
0.02091235917
0.02091555605
0.02091745557
0.02090063311
0.02090285052
0.02090602986
0.02090995137
0.0209143356
0.0209188332
0.02092302
0.02092639686
0.02092839585
0.0209106714
0.02091302836
0.02091640016
0.02092054657
0.0209251657
0.02092988567
0.02093426174
0.0209377776
0.02093985171
0.02092141531
0.02092388487
0.02092740986
0.0209317318
0.02093652975
0.02094141437
0.02094592684
0.02094954235
0.02095166834
0.02093272381
0.02093527539
0.02093890972
0.02094335321
0.02094827016
0.02095326079
0.02095785138
0.02096151072
0.02096365291
0.02094444446
0.02094704582
0.02095074444
0.02095525544
0.02096022753
0.02096524809
0.02096984277
0.02097348577
0.020975608
0.0209564261
0.02095904438
0.02096275647
0.02096726627
0.0209722151
0.02097718638
0.02098171197
0.02098528141
0.02098735069
0.02096849942
0.02097109419
0.02097476244
0.02097920155
0.02098405113
0.02098889866
0.02099328892
0.02099673401
0.02099872178
0.0209804821
0.02098301443
0.02098658466
0.02099088946
0.0209955722
0.0210002308
0.02100442912
0.02100770748
0.02100959045
0.02099220385
0.02099463959
0.02099806486
0.02100218072
0.02100663974