/*--------------------------------*- C++ -*----------------------------------*\
| =========                 |                                                 |
| \\      /  F ield         | OpenFOAM: The Open Source CFD Toolbox           |
|  \\    /   O peration     | Version:  2212                                  |
|   \\  /    A nd           | Website:  www.openfoam.com                      |
|    \\/     M anipulation  |                                                 |
\*---------------------------------------------------------------------------*/
FoamFile
{
    version     2.0;
    format      ascii;
    arch        "LSB;label=32;scalar=64";
    class       volScalarField;
    location    "20.00000000";
    object      C2H3;
}
// * * * * * * * * * * * * * * * * * * * * * * * * * * * * * * * * * * * * * //

dimensions      [0 0 0 0 0 0 0];

internalField   nonuniform List<scalar> 
3000
(
1.471596329e-24
1.653129642e-24
1.927060683e-24
2.292091637e-24
2.744500863e-24
3.271985848e-24
3.842754176e-24
4.38735212e-24
4.772435673e-24
5.525066893e-24
6.231645443e-24
7.297397953e-24
8.720716282e-24
1.050011871e-23
1.262565727e-23
1.506032265e-23
1.768143735e-23
2.000304402e-23
1.237621417e-23
1.406854431e-23
1.664547232e-23
2.014418592e-23
2.462731105e-23
3.015946028e-23
3.671821514e-23
4.393526902e-23
5.010186254e-23
2.357435521e-23
2.707852822e-23
3.249258675e-23
3.999941195e-23
4.986424211e-23
6.23364806e-23
7.734592952e-23
9.368901113e-23
1.068732774e-22
4.186466551e-23
4.86775458e-23
5.936946316e-23
7.448316963e-23
9.472860843e-23
1.206713787e-22
1.518737351e-22
1.849942883e-22
2.103847163e-22
7.199641231e-23
8.478418072e-23
1.051409861e-22
1.343661892e-22
1.740192713e-22
2.250998379e-22
2.860869175e-22
3.493029567e-22
3.961118797e-22
1.222434078e-22
1.457360024e-22
1.835698776e-22
2.385000063e-22
3.135869007e-22
4.103267366e-22
5.24723021e-22
6.409648072e-22
7.248524409e-22
2.069296235e-22
2.49454089e-22
3.185475604e-22
4.19639949e-22
5.583733086e-22
7.367514057e-22
9.458320138e-22
1.155187053e-21
1.303744075e-21
3.509098455e-22
4.270826936e-22
5.516486045e-22
7.348283392e-22
9.866634379e-22
1.309590085e-21
1.685385535e-21
2.057776316e-21
2.319122819e-21
5.973083941e-22
7.327122986e-22
9.551515949e-22
1.283314959e-21
1.734752534e-21
2.312122983e-21
2.980328802e-21
3.63767738e-21
4.095630376e-21
1.021050846e-21
1.260408788e-21
1.654863931e-21
2.237964545e-21
3.040115391e-21
4.063734303e-21
5.243564363e-21
6.398416781e-21
7.199092486e-21
1.752425692e-21
2.173875441e-21
2.869912821e-21
3.900068617e-21
5.316818e-21
7.121362496e-21
9.195025314e-21
1.12178769e-20
1.26161655e-20
3.018153719e-21
3.758230016e-21
4.982314382e-21
6.795317424e-21
9.28767526e-21
1.245725089e-20
1.609103869e-20
1.962778626e-20
2.20695981e-20
5.212736587e-21
6.510037639e-21
8.658162597e-21
1.184147123e-20
1.621607163e-20
2.177208192e-20
2.812945378e-20
3.430749806e-20
3.857610376e-20
9.021889535e-21
1.12930064e-20
1.505722964e-20
2.063893504e-20
2.831019647e-20
3.804796663e-20
4.917765718e-20
5.998003533e-20
6.744650749e-20
1.563533465e-20
1.960556906e-20
2.619140264e-20
3.596437399e-20
4.940557289e-20
6.648316002e-20
8.602261927e-20
1.049736342e-19
1.17964704e-19
2.711463529e-20
3.404216881e-20
4.553822756e-20
6.260025013e-20
8.606051785e-20
1.158443033e-19
1.498733137e-19
1.828200279e-19
2.053969077e-19
4.703422391e-20
5.910140206e-20
7.912956449e-20
1.088516608e-19
1.497017702e-19
2.01522383e-19
2.606709256e-19
3.178922103e-19
3.571036875e-19
8.159654188e-20
1.02591776e-19
1.374407066e-19
1.891523634e-19
2.602047016e-19
3.502985237e-19
4.530813329e-19
5.524741825e-19
6.20569736e-19
1.415691424e-19
1.780721294e-19
2.386658966e-19
3.28576759e-19
4.520963236e-19
6.086792754e-19
7.872631774e-19
9.599071862e-19
1.078161727e-18
2.45648793e-19
3.090889813e-19
4.144048821e-19
5.706753306e-19
7.853405441e-19
1.057421307e-18
1.367662817e-18
1.66751383e-18
1.872862689e-18
4.263045087e-19
5.365362332e-19
7.195400017e-19
9.910854821e-19
1.364074726e-18
1.836759755e-18
2.375637391e-18
2.896363226e-18
3.25290888e-18
7.39926407e-19
9.314382706e-19
1.249390914e-18
1.721168248e-18
2.369140211e-18
3.190194094e-18
4.126055191e-18
5.030218523e-18
5.649229049e-18
1.284453525e-18
1.617153147e-18
2.169507888e-18
2.989048542e-18
4.114539288e-18
5.540431916e-18
7.165385405e-18
8.734986681e-18
9.809417842e-18
2.229984492e-18
2.807925805e-18
3.767395765e-18
5.190846884e-18
7.145394898e-18
9.621103839e-18
1.24417352e-17
1.516559541e-17
1.702974121e-17
3.871920722e-18
4.875815735e-18
6.542286179e-18
9.014257741e-18
1.240779314e-17
1.670496432e-17
2.159922394e-17
2.632398215e-17
2.955654168e-17
6.723187946e-18
8.466830836e-18
1.136086611e-17
1.565279259e-17
2.15429524e-17
2.89986696e-17
3.748659623e-17
4.567683243e-17
5.127809134e-17
1.167410496e-17
1.470220217e-17
1.972704215e-17
2.717662219e-17
3.739590243e-17
5.032454054e-17
6.50342079e-17
7.921907732e-17
8.891445016e-17
2.026920439e-17
2.55267956e-17
3.424860879e-17
4.717342461e-17
6.489321889e-17
8.72948042e-17
1.127614423e-16
1.37298338e-16
1.540558346e-16
3.518577778e-17
4.431113221e-17
5.944287221e-17
8.185313465e-17
1.125532156e-16
1.513271609e-16
1.953574505e-16
2.37730626e-16
2.666373571e-16
6.105940823e-17
7.688917296e-17
1.031236434e-16
1.419463472e-16
1.950746382e-16
2.6208945e-16
3.38077214e-16
4.110909215e-16
4.60825977e-16
1.059044269e-16
1.333420904e-16
1.787810805e-16
2.459536051e-16
3.377533545e-16
4.533545822e-16
5.84183062e-16
7.096342356e-16
7.949199316e-16
1.835505978e-16
2.310535376e-16
3.096482899e-16
4.256798413e-16
5.839749284e-16
7.828864686e-16
1.007446741e-15
1.222213318e-15
1.367848276e-15
3.178086867e-16
3.999216212e-16
5.356166978e-16
7.35606976e-16
1.007839394e-15
1.349001904e-15
1.732968104e-15
2.098982361e-15
2.346389794e-15
5.495651077e-16
6.912101273e-16
9.249316373e-16
1.268662173e-15
1.735268621e-15
2.318068152e-15
2.971493719e-15
3.5918576e-15
4.009558895e-15
9.488194659e-16
1.192508958e-15
1.593855361e-15
2.182554005e-15
2.978991849e-15
3.969702719e-15
5.075358982e-15
6.119985889e-15
6.820075485e-15
1.635036273e-15
2.052902229e-15
2.739524373e-15
3.743424722e-15
5.096003335e-15
6.770281773e-15
8.628593763e-15
1.037431991e-14
1.153791288e-14
2.811454762e-15
3.525133183e-15
4.694539689e-15
6.397664518e-15
8.681060751e-15
1.149119955e-14
1.459029778e-14
1.748247635e-14
1.939824843e-14
4.822837328e-15
6.036034269e-15
8.017240328e-15
1.088928569e-14
1.471755963e-14
1.9397209e-14
2.452015482e-14
2.926536155e-14
3.238667629e-14
8.252702895e-15
1.030405525e-14
1.36405903e-14
1.845090497e-14
2.481945919e-14
3.254395575e-14
4.092971953e-14
4.863227549e-14
5.365984407e-14
1.40875313e-14
1.753576512e-14
2.311788225e-14
3.111421048e-14
4.161822707e-14
5.424603046e-14
6.782636775e-14
8.0184602e-14
8.818272113e-14
2.399573788e-14
2.975623489e-14
3.903024731e-14
5.221682967e-14
6.93838159e-14
8.981483322e-14
1.115559735e-13
1.311368269e-13
1.436910508e-13
4.080581175e-14
5.036972736e-14
6.566935297e-14
8.723881451e-14
1.150325801e-13
1.477350904e-13
1.821222276e-13
2.127342067e-13
2.321552419e-13
6.933414821e-14
8.512270414e-14
1.101977894e-13
1.452073067e-13
1.897969956e-13
2.415846226e-13
2.953040609e-13
3.424903638e-13
3.720618139e-13
1.178309012e-13
1.437776158e-13
1.846538735e-13
2.411075011e-13
3.120711358e-13
3.932791817e-13
4.761994528e-13
5.478901793e-13
5.921520335e-13
2.005140164e-13
2.430444361e-13
3.094632918e-13
4.001118031e-13
5.124163447e-13
6.388026842e-13
7.655076605e-13
8.729695426e-13
9.380643265e-13
3.419838943e-13
4.117084695e-13
5.196259063e-13
6.65114258e-13
8.42620132e-13
1.038790352e-12
1.231412859e-12
1.391065343e-12
1.485424785e-12
5.847693062e-13
6.994731917e-13
8.755419538e-13
1.110203537e-12
1.392387994e-12
1.698804161e-12
1.993441586e-12
2.231695905e-12
2.368486132e-12
1.001791517e-12
1.191768051e-12
1.481547699e-12
1.86449e-12
2.320203292e-12
2.809020964e-12
3.272430229e-12
3.640959823e-12
3.848084252e-12
1.715969509e-12
2.033485977e-12
2.516538956e-12
3.153211997e-12
3.909738745e-12
4.722201254e-12
5.49709159e-12
6.121474621e-12
6.479675864e-12
2.929352152e-12
3.465170261e-12
4.28252112e-12
5.366507259e-12
6.670913512e-12
8.105020586e-12
9.529311127e-12
1.075310715e-11
1.152050973e-11
4.964651385e-12
5.876407063e-12
7.279793374e-12
9.172573086e-12
1.15182851e-11
1.422595656e-11
1.712477027e-11
1.988500437e-11
2.184770893e-11
8.326463525e-12
9.887788261e-12
1.232819316e-11
1.570987044e-11
2.008949568e-11
2.549115611e-11
3.180679561e-11
3.847781466e-11
4.376493004e-11
1.380866991e-11
1.649858684e-11
2.079107268e-11
2.694732825e-11
3.533843854e-11
4.639916116e-11
6.034025677e-11
7.616146695e-11
8.950296957e-11
2.273287673e-11
2.741300925e-11
3.506336595e-11
4.643947486e-11
6.268089799e-11
8.517984228e-11
1.147089549e-10
1.489100233e-10
1.778187106e-10
3.754827136e-11
4.583443172e-11
5.96946923e-11
8.093635341e-11
1.121929617e-10
1.56266223e-10
2.135838736e-10
2.771215235e-10
3.272068121e-10
6.327206744e-11
7.827284716e-11
1.037904018e-10
1.435133057e-10
2.021251126e-10
2.826946529e-10
3.806374493e-10
4.774669003e-10
5.432644522e-10
1.105932961e-10
1.382186563e-10
1.853735001e-10
2.581710316e-10
3.619957109e-10
4.944573011e-10
6.364998478e-10
7.543454645e-10
8.188701011e-10
2.014895527e-10
2.520268329e-10
3.368362019e-10
4.626790209e-10
6.291576236e-10
8.174084514e-10
9.883951082e-10
1.103934192e-09
1.151637501e-09
3.759061358e-10
4.638962116e-10
6.055823745e-10
8.011733009e-10
1.032959577e-09
1.259642029e-09
1.433758428e-09
1.529551676e-09
1.554186344e-09
6.9071693e-10
8.291345329e-10
1.038576492e-09
1.301908313e-09
1.579043112e-09
1.817688854e-09
1.978770992e-09
2.05081925e-09
2.053013842e-09
1.196032314e-09
1.385404228e-09
1.653301888e-09
1.962494263e-09
2.260886009e-09
2.499743289e-09
2.649499449e-09
2.704306757e-09
2.688563903e-09
1.898225794e-09
2.125867744e-09
2.433042506e-09
2.771325498e-09
3.0875554e-09
3.337277016e-09
3.492386354e-09
3.544659233e-09
3.519148597e-09
2.762844947e-09
3.020161559e-09
3.362396163e-09
3.73778796e-09
4.093396737e-09
4.383613772e-09
4.574213247e-09
4.648825054e-09
4.628360049e-09
3.761815463e-09
4.056679661e-09
4.452510555e-09
4.896251199e-09
5.333300675e-09
5.711072016e-09
5.984417771e-09
6.12283202e-09
6.133950468e-09
4.896514567e-09
5.250832563e-09
5.736094971e-09
6.297753496e-09
6.876237834e-09
7.410183702e-09
7.838812529e-09
8.108186016e-09
8.196365056e-09
6.187668276e-09
6.633135609e-09
7.256047687e-09
8.000344815e-09
8.802227178e-09
9.589827377e-09
1.02811962e-08
1.078522241e-08
1.102353896e-08
7.662789054e-09
8.237463182e-09
9.057586841e-09
1.006750296e-08
1.120095326e-08
1.237525607e-08
1.348079459e-08
1.43699718e-08
1.486757253e-08
9.351238122e-09
1.010048361e-08
1.118991539e-08
1.256804113e-08
1.417005525e-08
1.59035645e-08
1.762387893e-08
1.910170734e-08
2.000943853e-08
1.129123979e-08
1.226748699e-08
1.371056263e-08
1.557860486e-08
1.781400701e-08
2.031698562e-08
2.289966512e-08
2.522080509e-08
2.673086057e-08
1.35397732e-08
1.480176681e-08
1.669336089e-08
1.918876248e-08
2.224426582e-08
2.575558493e-08
2.948313423e-08
3.294065503e-08
3.527778094e-08
1.61850963e-08
1.779628194e-08
2.023834951e-08
2.350776741e-08
2.758097687e-08
3.235158673e-08
3.751974066e-08
4.242166367e-08
4.582573428e-08
1.935793398e-08
2.138388831e-08
2.448034964e-08
2.867058906e-08
3.395543907e-08
4.02272694e-08
4.711797262e-08
5.375827115e-08
5.846246009e-08
2.323650054e-08
2.574149794e-08
2.959198297e-08
3.483983315e-08
4.15115538e-08
4.94974782e-08
5.835561766e-08
6.69925816e-08
7.320947285e-08
2.804133337e-08
3.108440768e-08
3.577782415e-08
4.220093468e-08
5.040475189e-08
6.027743184e-08
7.13061178e-08
8.217708152e-08
9.017123364e-08
3.401906741e-08
3.765033729e-08
4.325976797e-08
5.095124414e-08
6.079939526e-08
7.269671671e-08
8.608244635e-08
9.94871991e-08
1.095302505e-07
4.141908607e-08
4.567772439e-08
5.225908852e-08
6.128970473e-08
7.28734185e-08
8.692923687e-08
1.029196272e-07
1.190487927e-07
1.311148403e-07
5.047205569e-08
5.538832556e-08
6.298761973e-08
7.342275102e-08
8.685184571e-08
1.032930592e-07
1.219853796e-07
1.4072565e-07
1.547605477e-07
6.138568759e-08
6.69914283e-08
7.566824849e-08
8.761489153e-08
1.031265416e-07
1.219589702e-07
1.43191522e-07
1.644110839e-07
1.803579047e-07
7.438528843e-08
8.074587775e-08
9.067734832e-08
1.043291241e-07
1.218081086e-07
1.428608076e-07
1.664529454e-07
1.899482335e-07
2.076073306e-07
8.992932965e-08
9.715324267e-08
1.08301274e-07
1.235122612e-07
1.42834297e-07
1.659457163e-07
1.91689762e-07
2.172174529e-07
2.363754436e-07
1.081600332e-07
1.161681121e-07
1.284584283e-07
1.451281739e-07
1.661616411e-07
1.911473901e-07
2.187989767e-07
2.46074215e-07
2.664840102e-07
1.290053377e-07
1.377500983e-07
1.511130915e-07
1.691358835e-07
1.917252923e-07
2.183661853e-07
2.476403466e-07
2.763383239e-07
2.977222151e-07
1.524356856e-07
1.618677133e-07
1.762201327e-07
1.954663789e-07
2.194222429e-07
2.474589987e-07
2.780296881e-07
3.077895308e-07
3.298456618e-07
1.78409644e-07
1.884658411e-07
2.03701137e-07
2.240090523e-07
2.491028172e-07
2.782342343e-07
3.097359673e-07
3.401657018e-07
3.62574763e-07
2.068497213e-07
2.17448359e-07
2.334318908e-07
2.546037479e-07
2.805660784e-07
3.104498725e-07
3.424813264e-07
3.731638661e-07
3.955956801e-07
2.376290469e-07
2.486676137e-07
2.652347345e-07
2.870360923e-07
3.135580202e-07
3.438143048e-07
3.759440082e-07
4.064441181e-07
4.285637623e-07
2.705627699e-07
2.819176055e-07
2.988740619e-07
3.210357068e-07
3.47772704e-07
3.779902931e-07
4.097643201e-07
4.39635296e-07
4.61104896e-07
3.054028376e-07
3.169303884e-07
3.340550022e-07
3.562777079e-07
3.828569836e-07
4.126031605e-07
4.435558592e-07
4.723442642e-07
4.927911689e-07
3.418363704e-07
3.533760502e-07
3.704256691e-07
3.923877582e-07
4.184190045e-07
4.472547371e-07
4.769336713e-07
5.042362337e-07
5.234302453e-07
3.79488097e-07
3.908666355e-07
4.075830315e-07
4.289498401e-07
4.540366284e-07
4.815274514e-07
5.094956795e-07
5.349250813e-07
5.526079017e-07
4.179271077e-07
4.289642017e-07
4.450826649e-07
4.655178447e-07
4.892710065e-07
5.150014311e-07
5.408522963e-07
5.640568035e-07
5.799970463e-07
4.566776837e-07
4.671925688e-07
4.824515852e-07
5.016293513e-07
5.236809182e-07
5.472688887e-07
5.706399284e-07
5.913164901e-07
6.053217738e-07
4.952331923e-07
5.050514343e-07
5.1920226e-07
5.36818716e-07
5.568335149e-07
5.779403557e-07
5.985195124e-07
6.164149369e-07
6.283270405e-07
5.330701797e-07
5.420291907e-07
5.548426605e-07
5.706218381e-07
5.88299879e-07
6.066249165e-07
6.241321564e-07
6.390126487e-07
6.486758188e-07
5.696530558e-07
5.776025731e-07
5.888658463e-07
6.025474524e-07
6.175965267e-07
6.328228236e-07
6.469337559e-07
6.585044257e-07
6.654792746e-07
6.043932805e-07
6.111806089e-07
6.206617507e-07
6.319248166e-07
6.439754196e-07
6.555963641e-07
6.654982108e-07
6.732315141e-07
6.77827305e-07
6.364171952e-07
6.418573006e-07
6.492403878e-07
6.573578279e-07
6.65679059e-07
6.734637897e-07
6.799881235e-07
6.847598242e-07
6.873611175e-07
6.636712317e-07
6.673970431e-07
6.723827522e-07
6.779129159e-07
6.833581262e-07
6.881064212e-07
6.916674508e-07
6.937959887e-07
6.945827776e-07
6.863332521e-07
6.887581518e-07
6.9189246e-07
6.951782782e-07
6.980619269e-07
7.000614521e-07
7.00879157e-07
7.005497937e-07
6.99649627e-07
7.056606487e-07
7.069240259e-07
7.083828613e-07
7.095778267e-07
7.100575408e-07
7.094756533e-07
7.077203542e-07
7.050982826e-07
7.026354785e-07
7.21942289e-07
7.221080973e-07
7.219809596e-07
7.211922565e-07
7.193993812e-07
7.163932457e-07
7.122412637e-07
7.075033369e-07
7.036117803e-07
7.351984633e-07
7.34320675e-07
7.326905957e-07
7.300314043e-07
7.26111526e-07
7.208571847e-07
7.145051117e-07
7.078453645e-07
7.026692501e-07
7.454124526e-07
7.43553925e-07
7.405183462e-07
7.36121821e-07
7.302433093e-07
7.22939337e-07
7.146032597e-07
7.062298225e-07
6.999206073e-07
7.526024707e-07
7.49838336e-07
7.455118121e-07
7.395311398e-07
7.318827221e-07
7.227458276e-07
7.126557144e-07
7.027852078e-07
6.954976128e-07
7.568395988e-07
7.532556803e-07
7.477669347e-07
7.403707812e-07
7.311556653e-07
7.204140157e-07
7.088069437e-07
6.976585133e-07
6.895465812e-07
7.582473287e-07
7.539370766e-07
7.47424455e-07
7.387911708e-07
7.282204175e-07
7.161067178e-07
7.032202858e-07
6.910100799e-07
6.822236636e-07
7.569946583e-07
7.520558056e-07
7.446625196e-07
7.349743516e-07
7.232605252e-07
7.100056331e-07
6.960720945e-07
6.830085056e-07
6.736903375e-07
7.532868839e-07
7.478182741e-07
7.396879719e-07
7.291257969e-07
7.164773319e-07
7.023047448e-07
6.875460891e-07
6.738258925e-07
6.641092864e-07
7.473557231e-07
7.414545094e-07
7.327274169e-07
7.214662348e-07
7.080827218e-07
6.932040859e-07
6.778281613e-07
6.636335867e-07
6.536407738e-07
7.394495958e-07
7.332089073e-07
7.240186555e-07
7.122239526e-07
6.982924271e-07
6.829041171e-07
6.671018001e-07
6.525985115e-07
6.424395755e-07
7.29824591e-07
7.233317065e-07
7.138028851e-07
7.016278957e-07
6.873201368e-07
6.716008783e-07
6.555442371e-07
6.408801525e-07
6.306525041e-07
7.187364794e-07
7.120715059e-07
7.023179342e-07
6.899017701e-07
6.753725502e-07
6.594820081e-07
6.433233627e-07
6.286282117e-07
6.184165281e-07
7.064339965e-07
6.996690229e-07
6.897926831e-07
6.772592557e-07
6.626454471e-07
6.467236606e-07
6.305954127e-07
6.159809146e-07
6.058574589e-07
6.931535005e-07
6.863521724e-07
6.764427271e-07
6.639003579e-07
6.49320768e-07
6.334882946e-07
6.17503388e-07
6.030639239e-07
5.930891597e-07
6.791150024e-07
6.723324534e-07
6.624672524e-07
6.500088518e-07
6.355646499e-07
6.199232692e-07
6.04176139e-07
5.899897967e-07
5.802132104e-07
6.645194828e-07
6.578025479e-07
6.480470192e-07
6.357507097e-07
6.215263163e-07
6.061601798e-07
5.907280348e-07
5.768578817e-07
5.673189459e-07
6.495473726e-07
6.429350308e-07
6.333433752e-07
6.212734399e-07
6.073377097e-07
5.923146997e-07
5.772590438e-07
5.637545949e-07
5.544838178e-07
6.343580053e-07
6.278819564e-07
6.184980125e-07
6.067060385e-07
5.931136583e-07
5.784869915e-07
5.638552704e-07
5.507540033e-07
5.417739892e-07
6.190898068e-07
6.127751432e-07
6.036333834e-07
5.921595477e-07
5.789525551e-07
5.647624432e-07
5.505897285e-07
5.379186002e-07
5.292450935e-07
6.038611195e-07
5.977270497e-07
5.888536376e-07
5.77728041e-07
5.64937364e-07
5.512126676e-07
5.375233047e-07
5.253002187e-07
5.169431006e-07
5.887714554e-07
5.828320352e-07
5.742458801e-07
5.634898653e-07
5.51136828e-07
5.378966555e-07
5.247058369e-07
5.129410239e-07
5.049052405e-07
5.739030219e-07
5.681678655e-07
5.598816438e-07
5.4950906e-07
5.376068114e-07
5.248620204e-07
5.121772459e-07
5.008745345e-07
4.931609425e-07
5.593224049e-07
5.537973573e-07
5.458184713e-07
5.358368538e-07
5.243916905e-07
5.121462648e-07
4.999686716e-07
4.891266342e-07
4.81732759e-07
5.450823092e-07
5.39770065e-07
5.321015236e-07
5.225131694e-07
5.115257352e-07
4.997780259e-07
4.881035762e-07
4.777165469e-07
4.706372503e-07
5.312232784e-07
5.261239419e-07
5.187651517e-07
5.095680844e-07
4.990344382e-07
4.877782623e-07
4.765987888e-07
4.666577526e-07
4.598858136e-07
5.177753434e-07
5.128869241e-07
5.058343909e-07
4.970232102e-07
4.869357634e-07
4.761613614e-07
4.654654746e-07
4.559588341e-07
4.494854468e-07
5.047595594e-07
5.000784063e-07
4.933263456e-07
4.84892965e-07
4.75241292e-07
4.64936153e-07
4.547100168e-07
4.456242459e-07
4.394394412e-07
4.921894127e-07
4.877105879e-07
4.812514501e-07
4.7318573e-07
4.639572596e-07
4.541068217e-07
4.443348099e-07
4.356550024e-07
4.297480012e-07
4.800720843e-07
4.757896813e-07
4.69614598e-07
4.619048804e-07
4.530854794e-07
4.436737179e-07
4.34338962e-07
4.260492881e-07
4.204087927e-07
4.684095698e-07
4.643169808e-07
4.584161383e-07
4.510496949e-07
4.426241536e-07
4.336340686e-07
4.247189101e-07
4.168029906e-07
4.11417423e-07
4.571996577e-07
4.532897961e-07
4.476527456e-07
4.406161473e-07
4.325685795e-07
4.23982595e-07
4.154689537e-07
4.079101635e-07
4.027678568e-07
4.464367758e-07
4.42702258e-07
4.373181694e-07
4.305975883e-07
4.229117558e-07
4.14712043e-07
4.065817128e-07
3.993634227e-07
3.944527734e-07
4.361127143e-07
4.325460076e-07
4.274038745e-07
4.209853267e-07
4.136449002e-07
4.058136343e-07
3.980485177e-07
3.911542847e-07
3.864638708e-07
4.262172383e-07
4.22810779e-07
4.178995821e-07
4.117691207e-07
4.047578847e-07
3.972774472e-07
3.898597372e-07
3.832734507e-07
3.787921224e-07
4.167386017e-07
4.134848878e-07
4.087937231e-07
4.029375887e-07
3.962396011e-07
3.890927343e-07
3.820050531e-07
3.757110453e-07
3.714279917e-07
4.076639741e-07
4.04555637e-07
4.000738144e-07
3.944785498e-07
3.880782625e-07
3.812481859e-07
3.744736872e-07
3.68456813e-07
3.6436161e-07
3.989797917e-07
3.960096506e-07
3.917267677e-07
3.863793036e-07
3.802616516e-07
3.737321459e-07
3.672545879e-07
3.615002804e-07
3.575829229e-07
3.906720439e-07
3.878331452e-07
3.837391409e-07
3.786268578e-07
3.727773214e-07
3.66532787e-07
3.603365812e-07
3.548308871e-07
3.510818088e-07
3.827265041e-07
3.80012149e-07
3.760973412e-07
3.712081105e-07
3.656127573e-07
3.596382513e-07
3.537084914e-07
3.484380915e-07
3.448481742e-07
3.751289132e-07
3.725326761e-07
3.687877851e-07
3.641099956e-07
3.58755505e-07
3.530367612e-07
3.473592379e-07
3.423114535e-07
3.388720292e-07
3.67865124e-07
3.653808629e-07
3.617970249e-07
3.57319596e-07
3.521932704e-07
3.467167066e-07
3.412779088e-07
3.364406999e-07
3.331435463e-07
3.609212127e-07
3.585430738e-07
3.551118457e-07
3.50824231e-07
3.459139962e-07
3.406667107e-07
3.354538186e-07
3.308157732e-07
3.276531051e-07
3.542835632e-07
3.520059804e-07
3.487193381e-07
3.446115213e-07
3.39905919e-07
3.348756795e-07
3.298765497e-07
3.254268689e-07
3.223913252e-07
3.479389288e-07
3.457566199e-07
3.426069514e-07
3.386694363e-07
3.341576109e-07
3.293328369e-07
3.245359833e-07
3.202644608e-07
3.173490904e-07
3.41874476e-07
3.397824357e-07
3.367625314e-07
3.329863274e-07
3.286580073e-07
3.240277492e-07
3.194223192e-07
3.153193191e-07
3.125175639e-07
3.360778133e-07
3.340713052e-07
3.31174344e-07
3.275509488e-07
3.233964254e-07
3.189503399e-07
3.145260886e-07
3.105825209e-07
3.078881984e-07
3.305370089e-07
3.286115548e-07
3.258310893e-07
3.223524698e-07
3.183625738e-07
3.140908973e-07
3.098381599e-07
3.060454548e-07
3.034527401e-07
3.25240598e-07
3.233919671e-07
3.207219079e-07
3.173804784e-07
3.135465554e-07
3.094400769e-07
3.053497404e-07
3.016998225e-07
2.992032298e-07
3.201775841e-07
3.184017817e-07
3.158363797e-07
3.126249811e-07
3.089388656e-07
3.049888986e-07
3.010523736e-07
2.975376353e-07
2.951319999e-07
3.153374336e-07
3.136306889e-07
3.111645186e-07
3.080763961e-07
3.045303868e-07
3.007287413e-07
2.969379333e-07
2.935512096e-07
2.9123167e-07
3.107100671e-07
3.090688218e-07
3.066967638e-07
3.037255453e-07
3.00312379e-07
2.966513344e-07
2.929986164e-07
2.897331596e-07
2.874951399e-07
3.06285847e-07
3.047067434e-07
3.024239677e-07
2.995636425e-07
2.962764698e-07
2.927487481e-07
2.892269332e-07
2.860763888e-07
2.839155823e-07
3.020555636e-07
3.005354331e-07
2.983373826e-07
2.955822804e-07
2.924146419e-07
2.890133817e-07
2.856156979e-07
2.825740809e-07
2.804864339e-07
2.980104189e-07
2.965462714e-07
2.944286458e-07
2.91773417e-07
2.887192201e-07
2.854379519e-07
2.821580168e-07
2.792196899e-07
2.772013865e-07
2.941420105e-07
2.927310234e-07
2.906897641e-07
2.881293608e-07
2.851828577e-07
2.820154804e-07
2.788472779e-07
2.760069303e-07
2.740543777e-07
2.904423142e-07
2.890818228e-07
2.871130983e-07
2.846427558e-07
2.81798523e-07
2.787392815e-07
2.756771393e-07
2.729297665e-07
2.710395813e-07
2.869036676e-07
2.855911552e-07
2.836913475e-07
2.813065673e-07
2.785594853e-07
2.756029494e-07
2.726415178e-07
2.699824029e-07
2.681513984e-07
2.83518753e-07
2.822518421e-07
2.804175335e-07
2.78114067e-07
2.75459302e-07
2.726003465e-07
2.697345788e-07
2.671592745e-07
2.653844484e-07
2.802805812e-07
2.790570249e-07
2.772849859e-07
2.75058819e-07
2.724918055e-07
2.697255913e-07
2.669507249e-07
2.644550371e-07
2.627335599e-07
2.771824757e-07
2.760001497e-07
2.742873274e-07
2.721346665e-07
2.696510907e-07
2.669730472e-07
2.642845864e-07
2.618645585e-07
2.601937627e-07
2.742180576e-07
2.730749529e-07
2.714184604e-07
2.693357187e-07
2.669315033e-07
2.643373122e-07
2.617310115e-07
2.593829095e-07
2.577602801e-07
2.713812315e-07
2.702754473e-07
2.686725534e-07
2.666563385e-07
2.64327628e-07
2.61813208e-07
2.592850569e-07
2.570053561e-07
2.554285206e-07
2.686661715e-07
2.675959088e-07
2.66044029e-07
2.640911309e-07
2.618342788e-07
2.593957709e-07
2.569419797e-07
2.547273518e-07
2.531940717e-07
2.660673088e-07
2.65030864e-07
2.635275516e-07
2.616349322e-07
2.594464878e-07
2.570802423e-07
2.546972288e-07
2.525445298e-07
2.510526926e-07
2.635793192e-07
2.625750789e-07
2.611180165e-07
2.592827993e-07
2.571594967e-07
2.548620606e-07
2.525464377e-07
2.504526969e-07
2.490003081e-07
2.611971118e-07
2.602235474e-07
2.588105398e-07
2.570300003e-07
2.549687474e-07
2.527368527e-07
2.504854167e-07
2.484478266e-07
2.470330028e-07
2.589158183e-07
2.579714811e-07
2.566004481e-07
2.548720053e-07
2.528698734e-07
2.507004269e-07
2.485101469e-07
2.465260534e-07
2.451470157e-07
2.567307832e-07
2.558142996e-07
2.544832697e-07
2.528044776e-07
2.508586927e-07
2.487487652e-07
2.466167734e-07
2.446836669e-07
2.433387346e-07
2.546375535e-07
2.537476213e-07
2.524547251e-07
2.508232658e-07
2.489311994e-07
2.468780174e-07
2.448015996e-07
2.429171067e-07
2.416046921e-07
2.5263187e-07
2.517672541e-07
2.505107195e-07
2.489243954e-07
2.470835573e-07
2.450844938e-07
2.430610811e-07
2.412229575e-07
2.399415602e-07
2.50709658e-07
2.498691873e-07
2.486473337e-07
2.47104062e-07
2.453120921e-07
2.433646594e-07
2.413918207e-07
2.395979439e-07
2.383461466e-07
2.488670186e-07
2.480495822e-07
2.468608162e-07
2.453586223e-07
2.43613285e-07
2.417151274e-07
2.397905622e-07
2.380389257e-07
2.368153896e-07
2.471002191e-07
2.463047635e-07
2.451475743e-07
2.436845872e-07
2.419837644e-07
2.401326521e-07
2.382541845e-07
2.365428925e-07
2.35346354e-07
2.454056827e-07
2.446312091e-07
2.435041647e-07
2.420786114e-07
2.404202978e-07
2.386141209e-07
2.367796945e-07
2.351069569e-07
2.339362246e-07
2.437799774e-07
2.430255389e-07
2.419272823e-07
2.405374836e-07
2.389197812e-07
2.371565451e-07
2.353642179e-07
2.337283469e-07
2.325822992e-07
2.422198016e-07
2.414845006e-07
2.40413746e-07
2.390581123e-07
2.374792261e-07
2.357570466e-07
2.34004987e-07
2.32404394e-07
2.312819774e-07
2.40721967e-07
2.400049526e-07
2.389604821e-07
2.376375085e-07
2.360957418e-07
2.344128408e-07
2.326993242e-07
2.31132517e-07
2.300327449e-07
2.392833763e-07
2.385838415e-07
2.375645004e-07
2.362727626e-07
2.347665115e-07
2.331212122e-07
2.314446172e-07
2.299101979e-07
2.288321499e-07
2.379009943e-07
2.372181723e-07
2.362228648e-07
2.349610125e-07
2.334887602e-07
2.318794816e-07
2.30238285e-07
2.287349471e-07
2.276777682e-07
2.365718099e-07
2.359049694e-07
2.349326518e-07
2.336994015e-07
2.322597101e-07
2.306849586e-07
2.290777294e-07
2.276042538e-07
2.265671529e-07
2.352927866e-07
2.346412261e-07
2.336908982e-07
2.324850224e-07
2.310765206e-07
2.295348793e-07
2.279602682e-07
2.265155162e-07
2.254977629e-07
2.340607985e-07
2.334238376e-07
2.324945307e-07
2.313148429e-07
2.299362102e-07
2.284263208e-07
2.268830455e-07
2.254659464e-07
2.244668649e-07
2.328725495e-07
2.322495175e-07
2.313402772e-07
2.301856109e-07
2.288355528e-07
2.273560916e-07
2.258429121e-07
2.244524449e-07
2.23471403e-07
2.317244705e-07
2.311146906e-07
2.302245546e-07
2.29093734e-07
2.277709488e-07
2.2632059e-07
2.248362744e-07
2.234714376e-07
2.22507828e-07
2.306125951e-07
2.300153634e-07
2.291433298e-07
2.280351309e-07
2.267382633e-07
2.25315629e-07
2.238589035e-07
2.225186719e-07
2.215718847e-07
2.295324081e-07
2.289469664e-07
2.280919539e-07
2.270050516e-07
2.257326313e-07
2.243362243e-07
2.229057046e-07
2.215889686e-07
2.206583506e-07
2.284786676e-07
2.279041683e-07
2.270649642e-07
2.259978663e-07
2.247482284e-07
2.233763437e-07
2.219704449e-07
2.206759287e-07
2.197607272e-07
2.274452002e-07
2.268806632e-07
2.26055859e-07
2.250068222e-07
2.237780073e-07
2.224286206e-07
2.210454417e-07
2.197715969e-07
2.188708868e-07
2.264246701e-07
2.258689301e-07
2.250568438e-07
2.240237721e-07
2.228134046e-07
2.214840353e-07
2.201212164e-07
2.1886609e-07
2.179786805e-07
2.254083264e-07
2.248599714e-07
2.240585551e-07
2.2303888e-07
2.218440235e-07
2.205315723e-07
2.191861243e-07
2.179471993e-07
2.170715207e-07
2.243857335e-07
2.238430339e-07
2.230497684e-07
2.220403117e-07
2.208573037e-07
2.195578652e-07
2.18225973e-07
2.169999838e-07
2.161339556e-07
2.233444934e-07
2.228053232e-07
2.220171013e-07
2.210139219e-07
2.198381897e-07
2.185468449e-07
2.172236487e-07
2.160063741e-07
2.15147256e-07
2.2226997e-07
2.217317221e-07
2.20944722e-07
2.199429525e-07
2.187688164e-07
2.174794102e-07
2.161587708e-07
2.149448131e-07
2.140890454e-07
2.211450275e-07
2.206045259e-07
2.198140815e-07
2.18807759e-07
2.176282298e-07
2.163331431e-07
2.150074026e-07
2.137899616e-07
2.129330012e-07
2.199497997e-07
2.194032118e-07
2.186036833e-07
2.17585584e-07
2.163921658e-07
2.15082095e-07
2.137418464e-07
2.125125025e-07
2.116486666e-07
2.186615066e-07
2.18104262e-07
2.172889162e-07
2.162504009e-07
2.150329106e-07
2.136966699e-07
2.123305537e-07
2.110790783e-07
2.10201407e-07
2.17254335e-07
2.166810549e-07
2.158419639e-07
2.14772852e-07
2.135192733e-07
2.121436366e-07
2.107381825e-07
2.094523962e-07
2.08552553e-07
2.156994053e-07
2.151038511e-07
2.142318192e-07
2.131203012e-07
2.118166905e-07
2.103862985e-07
2.089258402e-07
2.075915413e-07
2.066597659e-07
2.139648444e-07
2.133398922e-07
2.12424425e-07
2.112570318e-07
2.098874962e-07
2.083848499e-07
2.068515372e-07
2.054525294e-07
2.04477665e-07
2.120159892e-07
2.113536401e-07
2.103829668e-07
2.091446135e-07
2.076913832e-07
2.060969505e-07
2.044708882e-07
2.029891325e-07
2.019587468e-07
2.098157426e-07
2.091071773e-07
2.080683425e-07
2.067424653e-07
2.051860842e-07
2.03478546e-07
2.017380857e-07
2.001540043e-07
1.990546232e-07
2.073251082e-07
2.065607965e-07
2.054398357e-07
2.040086413e-07
2.023282975e-07
2.004849593e-07
1.986071722e-07
1.969001269e-07
1.957175973e-07
2.045039289e-07
2.036738042e-07
2.02456017e-07