/*--------------------------------*- C++ -*----------------------------------*\
| =========                 |                                                 |
| \\      /  F ield         | OpenFOAM: The Open Source CFD Toolbox           |
|  \\    /   O peration     | Version:  2212                                  |
|   \\  /    A nd           | Website:  www.openfoam.com                      |
|    \\/     M anipulation  |                                                 |
\*---------------------------------------------------------------------------*/
FoamFile
{
    version     2.0;
    format      ascii;
    arch        "LSB;label=32;scalar=64";
    class       volScalarField;
    location    "20.00000000";
    object      CH2CO;
}
// * * * * * * * * * * * * * * * * * * * * * * * * * * * * * * * * * * * * * //

dimensions      [0 0 0 0 0 0 0];

internalField   nonuniform List<scalar> 
3000
(
2.208224232e-20
2.48054311e-20
2.891463804e-20
3.439035581e-20
4.117672235e-20
4.908916013e-20
5.765071769e-20
6.581946034e-20
7.159506888e-20
8.290433444e-20
9.350325919e-20
1.094897066e-19
1.308393573e-19
1.57529803e-19
1.894116739e-19
2.259297055e-19
2.652436736e-19
3.000645583e-19
1.85695548e-19
2.110792779e-19
2.497307214e-19
3.022070598e-19
3.694470004e-19
4.524190689e-19
5.507865181e-19
6.59025179e-19
7.515076038e-19
3.536853405e-19
4.062404703e-19
4.874382228e-19
6.000197288e-19
7.479609887e-19
9.350003496e-19
1.160083286e-18
1.405159682e-18
1.602862297e-18
6.280271826e-19
7.301940687e-19
8.905276637e-19
1.117162748e-18
1.420740178e-18
1.80973566e-18
2.277580501e-18
2.774171383e-18
3.154846971e-18
1.079905744e-18
1.271646882e-18
1.576870183e-18
2.015047946e-18
2.609549747e-18
3.375349469e-18
4.289633701e-18
5.237300419e-18
5.938988134e-18
1.833310408e-18
2.185506856e-18
2.752686284e-18
3.5761277e-18
4.701683865e-18
6.151754341e-18
7.86641075e-18
9.608659363e-18
1.086593425e-17
3.102853509e-18
3.74026481e-18
4.775888432e-18
6.291067218e-18
8.370309764e-18
1.104358934e-17
1.417684629e-17
1.731407827e-17
1.954015606e-17
5.260850949e-18
6.402421179e-18
8.269163354e-18
1.101415753e-17
1.478777063e-17
1.962639506e-17
2.525690112e-17
3.083613561e-17
3.475153596e-17
8.953154617e-18
1.098200976e-17
1.431483825e-17
1.923148624e-17
2.599469013e-17
3.464406982e-17
4.465368675e-17
5.45001886e-17
6.135966666e-17
1.530165478e-17
1.888742275e-17
2.479640517e-17
3.353084594e-17
4.554580613e-17
6.087711558e-17
7.854711115e-17
9.584217297e-17
1.078326567e-16
2.625681128e-17
3.256918693e-17
4.299379275e-17
5.842165227e-17
7.963794909e-17
1.066599777e-16
1.377101388e-16
1.679979763e-16
1.88933652e-16
4.521201692e-17
5.629445896e-17
7.462392684e-17
1.017703151e-16
1.390864684e-16
1.86539101e-16
2.409383422e-16
2.938822148e-16
3.304345608e-16
7.80706964e-17
9.749349672e-17
1.29653045e-16
1.773075337e-16
2.427916032e-16
3.25954815e-16
4.211065056e-16
5.135692157e-16
5.774559905e-16
1.350919776e-16
1.690876267e-16
2.254304754e-16
3.089725656e-16
4.237819898e-16
5.695090606e-16
7.36053742e-16
8.976905186e-16
1.009420898e-15
2.340717948e-16
2.93489108e-16
3.920461822e-16
5.382908125e-16
7.394160191e-16
9.949401785e-16
1.28728788e-15
1.570821551e-15
1.765170677e-15
4.058404644e-16
5.094947986e-16
6.814986406e-16
9.367664504e-16
1.287739287e-15
1.733288981e-15
2.242319057e-15
2.735136645e-15
3.072825813e-15
7.038415196e-16
8.843614742e-16
1.183960777e-15
1.628546187e-15
2.239549271e-15
3.014594976e-15
3.899190954e-15
4.754922868e-15
5.341300174e-15
1.220791775e-15
1.534806449e-15
2.055999615e-15
2.829345074e-15
3.891866136e-15
5.239054722e-15
6.775898358e-15
8.261983588e-15
9.28008653e-15
2.117615242e-15
2.663457125e-15
3.569495001e-15
4.913826228e-15
6.760558181e-15
9.101479043e-15
1.177116625e-14
1.435193475e-14
1.611959855e-14
3.673680852e-15
4.622125328e-15
6.196548019e-15
8.532586451e-15
1.17413581e-14
1.580812392e-14
2.044501712e-14
2.492639956e-14
2.799530187e-14
6.374040027e-15
8.021682345e-15
1.075692827e-14
1.481532728e-14
2.038952781e-14
2.745323062e-14
3.550565459e-14
4.328645736e-14
4.861385054e-14
1.10609168e-14
1.39228588e-14
1.867410702e-14
2.572360721e-14
3.540531029e-14
4.767240361e-14
6.165402175e-14
7.516141833e-14
8.44085113e-14
1.919677327e-14
2.416757159e-14
3.241981912e-14
4.466318634e-14
6.147625003e-14
8.277560685e-14
1.070471219e-13
1.30490717e-13
1.465377922e-13
3.332100829e-14
4.195409378e-14
5.628568089e-14
7.754659965e-14
1.067383921e-13
1.437117715e-13
1.858341197e-13
2.265093792e-13
2.543454624e-13
5.784261708e-14
7.283527601e-14
9.772207228e-14
1.346361419e-13
1.853091132e-13
2.494717785e-13
3.225459713e-13
3.930861329e-13
4.413460609e-13
1.004153041e-13
1.264501664e-13
1.69660058e-13
2.337381353e-13
3.216729133e-13
4.329740727e-13
5.596780016e-13
6.819327168e-13
7.655390226e-13
1.743204232e-13
2.195241043e-13
2.945323032e-13
4.05730378e-13
5.582632583e-13
7.51226232e-13
9.707611741e-13
1.182455031e-12
1.327143237e-12
3.02591328e-13
3.81059809e-13
5.112262584e-13
7.041107515e-13
9.685410653e-13
1.302821856e-12
1.68282395e-12
2.048939543e-12
2.298971683e-12
5.251391321e-13
6.613023288e-13
8.870819445e-13
1.221450959e-12
1.679488541e-12
2.25796379e-12
2.914836483e-12
3.546969016e-12
3.978197959e-12
9.110357846e-13
1.14718228e-12
1.538534915e-12
2.117655258e-12
2.910148875e-12
3.909754261e-12
5.043174876e-12
6.132215758e-12
6.874037929e-12
1.579626131e-12
1.988834148e-12
2.666505702e-12
3.668292309e-12
5.037340031e-12
6.761328965e-12
8.71239163e-12
1.058326055e-11
1.185515402e-11
2.736687425e-12
3.444953364e-12
4.616798348e-12
6.346832683e-12
8.707038199e-12
1.167288113e-11
1.502121726e-11
1.822360366e-11
2.039526123e-11
4.736102035e-12
5.960010292e-12
7.982625322e-12
1.096370814e-11
1.502182547e-11
2.010773514e-11
2.583207466e-11
3.128913187e-11
3.49781536e-11
8.184532166e-12
1.029496984e-11
1.377753322e-11
1.889973093e-11
2.585370913e-11
3.454032612e-11
4.428078443e-11
5.352956833e-11
5.975789368e-11
1.411809109e-11
1.774718685e-11
2.372492782e-11
3.249459069e-11
4.436115861e-11
5.912538364e-11
7.56061725e-11
9.118074268e-11
1.016212376e-10
2.429866381e-11
3.05176534e-11
4.073878205e-11
5.568728392e-11
7.583448503e-11
1.007825389e-10
1.284831613e-10
1.545153851e-10
1.718741759e-10
4.170745286e-11
5.231943116e-11
6.971437843e-11
9.50606895e-11
1.290617695e-10
1.709316958e-10
2.171358525e-10
2.602821592e-10
2.888815806e-10
7.136073434e-11
8.937680943e-11
1.188158713e-10
1.615257986e-10
2.185079822e-10
2.882320795e-10
3.646399413e-10
4.354871958e-10
4.821401332e-10
1.21646933e-10
1.520504813e-10
2.015500002e-10
2.730042389e-10
3.67745495e-10
4.82845485e-10
6.080110131e-10
7.231748347e-10
7.984759761e-10
2.064983489e-10
2.574539906e-10
3.400675437e-10
4.586467551e-10
6.147819102e-10
8.029801261e-10
1.00593651e-09
1.191145745e-09
1.311351978e-09
3.48884127e-10
4.336205146e-10
5.703565914e-10
7.653817604e-10
1.020223939e-09
1.324800466e-09
1.650371645e-09
1.944940502e-09
2.134675951e-09
5.863694354e-10
7.260633913e-10
9.503119954e-10
1.267950941e-09
1.679625194e-09
2.167244932e-09
2.683721219e-09
3.146956056e-09
3.443063359e-09
9.79864305e-10
1.207984259e-09
1.572120273e-09
2.084097365e-09
2.741934227e-09
3.51392528e-09
4.324022915e-09
5.044307992e-09
5.501284963e-09
1.627229994e-09
1.995966074e-09
2.581037881e-09
3.397278906e-09
4.43674609e-09
5.645154603e-09
6.90150556e-09
8.009080343e-09
8.70670147e-09
2.684180134e-09
3.273805819e-09
4.203528659e-09
5.490258255e-09
7.114147094e-09
8.984355403e-09
1.091121603e-08
1.259602145e-08
1.364996205e-08
4.39598397e-09
5.328273387e-09
6.788950729e-09
8.794267927e-09
1.130243705e-08
1.416475513e-08
1.708822185e-08
1.96246887e-08
2.1201267e-08
7.144947419e-09
8.602134013e-09
1.087066026e-08
1.396029384e-08
1.779106039e-08
2.212454308e-08
2.651437644e-08
3.029570284e-08
3.263226142e-08
1.152064253e-08
1.377188038e-08
1.725468243e-08
2.196153415e-08
2.774886447e-08
3.424174577e-08
4.07690063e-08
4.635438732e-08
4.97873912e-08
1.842254731e-08
2.186047066e-08
2.714718875e-08
3.423948935e-08
4.289156933e-08
5.252424263e-08
6.214043655e-08
7.031995612e-08
7.532362685e-08
2.920837387e-08
3.439920508e-08
4.233617725e-08
5.291070381e-08
6.571737441e-08
7.987590846e-08
9.392135974e-08
1.058049604e-07
1.130442523e-07
4.590620105e-08
5.36580203e-08
6.544831669e-08
8.105724468e-08
9.983626734e-08
1.20467156e-07
1.408190376e-07
1.57958275e-07
1.683615663e-07
7.151496117e-08
8.297040668e-08
1.003094071e-07
1.231320511e-07
1.504271947e-07
1.802473665e-07
2.095214348e-07
2.34076125e-07
2.489354233e-07
1.104244447e-07
1.271850404e-07
1.52442313e-07
1.855166106e-07
2.248661965e-07
2.676488383e-07
3.094741959e-07
3.4444033e-07
3.655486991e-07
1.689908484e-07
1.932842002e-07
2.297501378e-07
2.77286574e-07
3.335861336e-07
3.945451476e-07
4.539338369e-07
5.03450554e-07
5.332877515e-07
2.563382089e-07
2.912416733e-07
3.434554893e-07
4.112535725e-07
4.912368904e-07
5.77537134e-07
6.613735849e-07
7.311253215e-07
7.730967536e-07
3.854469056e-07
4.351841474e-07
5.093684499e-07
6.053677822e-07
7.182418236e-07
8.396681443e-07
9.573409426e-07
1.055063483e-06
1.113790511e-06
5.74624403e-07
6.449563003e-07
7.495892663e-07
8.845931286e-07
1.042866097e-06
1.21268409e-06
1.3768837e-06
1.512993218e-06
1.594674746e-06
8.49475118e-07
9.482112533e-07
1.094772789e-06
1.28338519e-06
1.503926896e-06
1.739972213e-06
1.967699198e-06
2.156108488e-06
2.269014843e-06
1.245505954e-06
1.383163288e-06
1.587089774e-06
1.848904174e-06
2.154282209e-06
2.480340504e-06
2.794219645e-06
3.053441696e-06
3.208589972e-06
1.811494885e-06
2.002125758e-06
2.284005137e-06
2.64509122e-06
3.0652609e-06
3.512862831e-06
3.942896295e-06
4.297510436e-06
4.509543483e-06
2.613708222e-06
2.875923448e-06
3.262981135e-06
3.75776482e-06
4.332263537e-06
4.943055387e-06
5.528918163e-06
6.011458265e-06
6.299768323e-06
3.741028101e-06
4.099274803e-06
4.627261909e-06
5.300961248e-06
6.081770807e-06
6.91057108e-06
7.704535162e-06
8.3578915e-06
8.748053624e-06
5.311132255e-06
5.797327199e-06
6.512946217e-06
7.424685427e-06
8.479842776e-06
9.598467405e-06
1.066906876e-05
1.15495219e-05
1.207511998e-05
7.477905522e-06
8.13347469e-06
9.097378069e-06
1.032399498e-05
1.17419916e-05
1.324393054e-05
1.468049307e-05
1.58614934e-05
1.656640752e-05
1.043997949e-05
1.131826491e-05
1.260857912e-05
1.42491006e-05
1.614406547e-05
1.815004381e-05
2.006810494e-05
2.164483616e-05
2.258602431e-05
1.444997977e-05
1.561894243e-05
1.733522123e-05
1.951588842e-05
2.203345559e-05
2.469774912e-05
2.724524532e-05
2.933985871e-05
3.059056712e-05
1.982391502e-05
2.136899528e-05
2.363641304e-05
2.65160191e-05
2.983952256e-05
3.335660855e-05
3.672038446e-05
3.948751267e-05
4.114066778e-05
2.695003584e-05
2.897697065e-05
3.195040571e-05
3.57254162e-05
4.008175182e-05
4.469250702e-05
4.910429506e-05
5.273606295e-05
5.490733969e-05
3.629645096e-05
3.893368158e-05
4.280112631e-05
4.77098155e-05
5.33739731e-05
5.93702233e-05
6.511079696e-05
6.984013228e-05
7.26699182e-05
4.841665622e-05
5.181687425e-05
5.680146253e-05
6.312608198e-05
7.042309396e-05
7.814903529e-05
8.554895157e-05
9.16497462e-05
9.530305858e-05
6.395212561e-05
6.829243546e-05
7.465229261e-05
8.271821219e-05
9.202122448e-05
0.0001018702619
0.0001113057147
0.0001190885455
0.0001237520858
8.363096748e-05
8.91111459e-05
9.713630787e-05
0.0001073071981
0.0001190306447
0.0001314366679
0.0001433196542
0.0001531225509
0.0001589986705
0.0001082613686
0.0001150997848
0.0001251056125
0.0001377740743
0.0001523615064
0.0001677844942
0.0001825476963
0.0001947228795
0.0002020214583
0.0001387182383
0.0001471451647
0.0001594619728
0.0001750354797
0.0001929422509
0.0002118489592
0.0002299268814
0.0002448261793
0.0002537596382
0.0001759214501
0.0001861697478
0.0002011287561
0.0002200112524
0.0002416827103
0.0002645232935
0.0002863304204
0.0003042902437
0.0003150599825
0.0002208047648
0.0002330982959
0.0002510145377
0.0002735846329
0.0002994309577
0.000326612422
0.0003525183405
0.000373823343
0.0003865814555
0.0002742760652
0.0002888166264
0.000309970084
0.0003365575636
0.0003669275242
0.0003987874836
0.0004290728596
0.0004539138415
0.0004687609727
0.0003371715699
0.0003541254654
0.0003787421163
0.0004096049628
0.0004447616873
0.0004815182775
0.0005163359103
0.0005448041062
0.000561774847
0.0004102084442
0.0004296940823
0.0004579308533
0.0004932311198
0.0005332948197
0.0005750195025
0.0006143907173
0.0006464700358
0.0006655424565
0.0004939433576
0.0005160162174
0.0005479200322
0.0005876739095
0.0006326182795
0.0006792324672
0.0007230361292
0.0007585932856
0.000779671922
0.0005886777592
0.0006133045041
0.0006488073209
0.0006928951674
0.0007425406605
0.0007938094274
0.000841779918
0.0008805661553
0.0009034874984
0.0006944141648
0.0007214814401
0.0007604002846
0.000808562902
0.0008625767319
0.0009181121863
0.000969846272
0.001011505981
0.00103604544
0.0008108504483
0.0008401648346
0.0008822040016
0.000934047402
0.0009919522678
0.001051226033
0.001106197819
0.001150283139
0.001176164996
0.0009373722935
0.0009686652168
0.001013424905
0.001068433142
0.001129624405
0.00119198818
0.001249570845
0.001295561053
0.001322470861
0.001073062589
0.001105999801
0.001152990883
0.001210545985
0.00127431602
0.001339028581
0.001398521158
0.001445845338
0.001473443849
0.001216727514
0.001250922401
0.001299586246
0.001358993723
0.001424561564
0.001490820143
0.001551477338
0.001599538712
0.001627476358
0.001366937471
0.001401967152
0.001451698994
0.001512216961
0.001578761036
0.001645734779
0.001706797756
0.001754998099
0.00178292936
0.001522079863
0.001557502868
0.001607676976
0.001668546784
0.001735238373
0.00180210153
0.001862827503
0.001910590168
0.001938188549
0.001680419949
0.00171579421
0.001765789098
0.001826265349
0.001892300517
0.001958263072
0.002017951155
0.002064737982
0.002091696795
0.001840165642
0.001875065589
0.00192428761
0.00198366569
0.002048293942
0.00211262861
0.002170643045
0.002215973427
0.002242024831
0.00199953204
0.002033563724
0.002081467596
0.002139107084
0.002201654964
0.002263718508
0.002319505691
0.002362967724
0.002387885695
0.002156801766
0.002189615156
0.002235720305
0.002291063009
0.0023509515
0.002410199502
0.002463298803
0.002504555671
0.002528158338
0.002310377718
0.002341675596
0.002385577579
0.00243815949
0.002494914612
0.002550909321
0.002600957561
0.002639749001
0.002661898359
0.002458825528
0.002488368727
0.00252974547
0.002579202448
0.002632459038
0.002684870403
0.002731600082
0.002767738875
0.002788337469
0.002600903786
0.002628512871
0.002667125971
0.002713193579
0.002762692985
0.002811293795
0.002854525871
0.002887890579
0.002906870644
0.002735580584
0.002761134582
0.002796826512
0.002839334924
0.002884919028
0.002929577684
0.002969205025
0.002999733553
0.003017085936
0.002862034986
0.002885468904
0.002918159484
0.002957022644
0.00299862488
0.003039324704
0.003075407694
0.003103180763
0.003118958797
0.002979642675
0.003000942882
0.003030636388
0.003065914176
0.003103645431
0.003140521937
0.003173188648
0.003198316091
0.003212586696
0.003088153479
0.003107396329
0.00313420789
0.003166042181
0.003200065757
0.003233293784
0.003262709773
0.003285326668
0.003298169635
0.003187636965
0.003204922304
0.003228996606
0.003257566348
0.003288083603
0.003317870888
0.003344229016
0.003364489426
0.003375994353
0.003278293802
0.003293739279
0.003315244524
0.003340755792
0.00336799503
0.003394572813
0.003418084518
0.003436155121
0.003446418004
0.003360437112
0.003374172706
0.00339329325
0.003415969883
0.003440176339
0.003463790068
0.003484677344
0.003500731532
0.003509851559
0.00343447107
0.003446633855
0.003463563014
0.003483638061
0.003505064971
0.003525965949
0.003544454288
0.003558667009
0.003566743775
0.003500868502
0.003511597959
0.003526531606
0.003544239911
0.003563140887
0.003581579199
0.003597891679
0.003610435154
0.003617566366
0.00356014913
0.003569583207
0.003582714428
0.003598286529
0.003614909367
0.003631128199
0.003645480792
0.003656521153
0.003662800837
0.003612859628
0.003621131617
0.003632646516
0.003646303907
0.003660885837
0.003675117174
0.003687715228
0.003697410025
0.003702927212
0.003659556206
0.003666792428
0.003676867044
0.003688818738
0.003701583024
0.003714044615
0.003725080422
0.003733576923
0.003738414756
0.003700790081
0.003707108314
0.003715906552
0.003726346806
0.003737500549
0.003748393993
0.003758045296
0.003765479471
0.003769714686
0.003737095928
0.003742604479
0.003750276907
0.00375938395
0.003769116905
0.00377862668
0.003787055955
0.003793552022
0.003797254724
0.003768983192
0.003773780496
0.003780463867
0.003788399436
0.003796883646
0.003805176882
0.003812531247
0.003818201666
0.003821435348
0.003796930022
0.003801104654
0.003806921974
0.003813831477
0.003821221544
0.003828448371
0.003834859963
0.003839805759
0.003842627493
0.003821379459
0.00382501046
0.003830071468
0.003836084606
0.00384251841
0.00384881272
0.003854399406
0.003858710732
0.003861171495
0.003842737536
0.003845894939
0.003850296874
0.003855528573
0.003861128306
0.003866608785
0.003871475087
0.00387523195
0.00387737702
0.003861372869
0.003864118369
0.0038679469
0.00387249844
0.003877371817
0.003882143138
0.003886381299
0.00388965436
0.003891523773
0.003877617412
0.003880005098
0.003883335355
0.003887295584
0.003891537146
0.00389569124
0.003899382332
0.003902233755
0.00390386277
0.003891768036
0.00389384515
0.003896742769
0.003900189347
0.00390388178
0.003907499104
0.003910714151
0.003913198448
0.003914618019
0.00390408867
0.003905896343
0.003908418497
0.003911419109
0.003914634528
0.003917785316
0.003920586369
0.003922751212
0.003923988436
0.003914812768
0.003916386731
0.00391858311
0.003921196616
0.003923997783
0.003926743211
0.003929184364
0.003931071354
0.003932149901
0.003924145961
0.003925517202
0.00392743092
0.003929708423
0.003932149867
0.003934543127
0.003936671462
0.003938316839
0.003939257352
0.003932268725
0.003933464086
0.003935132504
0.003937118318
0.003939247357
0.003941334649
0.003943191091
0.003944626385
0.003945446837
0.003939338985
0.003940381698
0.003941837169
0.003943569689
0.003945427355
0.003947248766
0.003948868858
0.003950121474
0.003950837501
0.003945494594
0.003946404762
0.003947675291
0.003949187771
0.00395080962
0.00395239992
0.003953814509
0.00395490825
0.003955533441
0.003950855651
0.003951650663
0.003952760486
0.003954081721
0.003955498563
0.003956887897
0.003958123747
0.003959079278
0.003959625436
0.003955526616
0.003956221518
0.003957191614
0.003958346539
0.003959585069
0.00396079957
0.003961879897
0.003962715154
0.003963192531
0.003959598237
0.003960206052
0.003961054585
0.003962064797
0.003963148147
0.003964210474
0.003965155417
0.003965885964
0.003966303459
0.003963149279
0.003963681283
0.003964423983
0.003965308196
0.003966256418
0.00396718622
0.003968013251
0.003968652598
0.003969017936
0.003966248055
0.003966714019
0.003967364519
0.003968138956
0.003968969437
0.003969783761
0.003970508041
0.003971067914
0.003971387804
0.003968953796
0.003969362188
0.003969932309
0.00397061104
0.003971338867
0.003972052505
0.003972687195
0.003973177775
0.003973458042
0.003971317837
0.003971676006
0.003972176005
0.00397277124
0.003973409509
0.003974035304
0.003974591835
0.003975021965
0.003975267668
0.003973384674
0.003973698998
0.003974137782
0.003974660125
0.003975220209
0.003975769319
0.003976257619
0.003976634983
0.003976850521
0.003975192873
0.003975468895
0.0039758542
0.003976312866
0.003976804651
0.003977286773
0.003977715476
0.003978046753
0.003978235945
0.003976775869
0.003977018406
0.003977356962
0.003977759963
0.003978192045
0.003978615614
0.003978992226
0.003979283226
0.003979449398
0.003978162657
0.003978375902
0.003978673563
0.003979027871
0.00397940773
0.003979780086
0.003980111141
0.003980366919
0.003980512962
0.003979378389
0.003979565994
0.003979827856
0.003980139544
0.003980473694
0.003980801228
0.003981092413
0.003981317371
0.003981445803
0.003980444898
0.003980610043
0.003980840549
0.003981114906
0.003981409024
0.003981697303
0.003981953577
0.003982151548
0.003982264563
0.003981381141
0.003981526599
0.003981729623
0.003981971262
0.003982230295
0.003982484176
0.003982709858
0.003982884186
0.003982983695
0.003982203589
0.003982331781
0.003982510702
0.003982723647
0.003982951915
0.003983175633
0.003983374493
0.003983528093
0.003983615763
0.003982926562
0.0039830396
0.003983197369
0.003983385136
0.003983586407
0.00398378366
0.003983958988
0.003984094404
0.00398417169
0.003983562516
0.003983662249
0.003983801444
0.003983967102
0.003984144669
0.003984318687
0.003984473357
0.003984592812
0.003984660984
0.003984122296
0.003984210337
0.003984333212
0.003984479445
0.003984636189
0.003984789795
0.003984926318
0.003985031755
0.003985091922
0.003984615347
0.003984693109
0.003984801637
0.003984930793
0.003985069231
0.003985204895
0.003985325468
0.003985418584
0.003985471717
0.003985049903
0.003985118622
0.003985214529
0.003985328664
0.003985451
0.003985570883
0.003985677429
0.003985759709
0.003985806658
0.003985433146
0.003985493905
0.003985578704
0.003985679618
0.003985787783
0.003985893778
0.003985987979
0.003986060725
0.003986102231
0.003985771345
0.003985825095
0.00398590011
0.003985989382
0.003986085067
0.003986178832
0.003986262164
0.003986326514
0.00398636323
0.003986069977
0.00398611755
0.003986183944
0.003986262957
0.003986347646
0.003986430636
0.003986504391
0.003986561346
0.003986593841
0.003986333829
0.003986375955
0.003986434749
0.003986504717
0.003986579712
0.003986653202
0.003986718516
0.003986768951
0.003986797725
0.003986567088
0.00398660441
0.003986656499
0.003986718489
0.003986784932
0.003986850043
0.00398690791
0.003986952595
0.003986978088
0.003986773421
0.003986806503
0.003986852674
0.003986907621
0.003986966517
0.003987024233
0.003987075528
0.003987115138
0.003987137736
0.003986956038
0.003986985376
0.003987026321
0.003987075049
0.00398712728
0.003987178466
0.003987223958
0.003987259086
0.003987279127
0.003987117756
0.003987143784
0.003987180112
0.003987223346
0.003987269688
0.003987315104
0.003987355468
0.003987386638
0.00398740442
0.003987261042
0.003987284146
0.003987316391
0.003987354768
0.003987395905
0.00398743622
0.003987472052
0.003987499722
0.003987515508
0.003987388065
0.003987408582
0.003987437217
0.003987471298
0.003987507831
0.003987543635
0.003987575458
0.003987600032
0.003987614052
0.00398750073
0.003987518957
0.003987544398
0.003987574677
0.003987607135
0.003987638947
0.003987667222
0.003987689058
0.003987701515
0.003987600709
0.003987616909
0.003987639522
0.003987666435
0.003987695286
0.003987723563
0.003987748698
0.003987768108
0.003987779182
0.003987689475
0.00398770388
0.003987723987
0.003987747919
0.003987773575
0.003987798721
0.003987821074
0.003987838336
0.003987848184
0.003987768323
0.003987781138
0.003987799025
0.003987820315
0.003987843139
0.003987865511
0.003987885397
0.003987900756
0.003987909518
0.003987838396
0.0039878498
0.003987865718
0.003987884666
0.00398790498
0.003987924891
0.003987942592
0.003987956262
0.003987964061
0.003987900698
0.003987910851
0.003987925024
0.003987941893
0.00398795998
0.003987977709
0.00398799347
0.003988005643
0.003988012588
0.003987956117
0.00398796516
0.003987977783
0.003987992809
0.003988008919
0.003988024712
0.003988038752
0.003988049596
0.003988055783
0.003988005436
0.003988013493
0.00398802474
0.003988038129
0.003988052485
0.003988066558
0.00398807907
0.003988088734
0.003988094248
0.003988049344
0.003988056526
0.003988066552
0.003988078487
0.003988091284
0.003988103831
0.003988114985
0.003988123601
0.003988128517
0.003988088454
0.003988094858
0.003988103798
0.003988114441
0.003988125854
0.003988137043
0.003988146992
0.003988154677
0.003988159061
0.003988123304
0.003988129016
0.003988136992
0.003988146487
0.003988156669
0.003988166652
0.003988175528
0.003988182385
0.003988186297
0.003988154371
0.00398815947
0.003988166587
0.003988175061
0.003988184149
0.003988193059
0.003988200983
0.003988207103
0.003988210595
0.00398818208
0.003988186631
0.003988192986
0.003988200552
0.003988208666
0.003988216622
0.003988223697
0.003988229163
0.003988232282
0.003988206802
0.003988210868
0.003988216543
0.003988223301
0.003988230549
0.003988237657
0.003988243977
0.00398824886
0.003988251646
0.003988228871
0.003988232504
0.003988237575
0.003988243614
0.003988250091
0.003988256443
0.003988262092
0.003988266456
0.003988268946
0.003988248581
0.003988251828
0.003988256361
0.00398826176
0.003988267551
0.00398827323
0.003988278281
0.003988282184
0.00398828441
0.003988266191
0.003988269095
0.00398827315
0.003988277978
0.003988283158
0.003988288238
0.003988292757
0.003988296248
0.00398829824
0.003988281934
0.003988284532
0.003988288161
0.003988292482
0.003988297117
0.003988301664
0.003988305708
0.003988308833
0.003988310616
0.003988296016
0.003988298342
0.00398830159
0.003988305459
0.00398830961
0.003988313681
0.003988317303
0.003988320102
0.003988321699
0.003988308618
0.003988310702
0.003988313612
0.003988317078
0.003988320797
0.003988324446
0.003988327692
0.0039883302
0.00398833163
0.003988319905
0.003988321773
0.003988324381
0.003988327489
0.003988330823
0.003988334095
0.003988337006
0.003988339255
0.003988340538
0.003988330021
0.003988331696
0.003988334036
0.003988336824
0.003988339816
0.003988342752
0.003988345365
0.003988347384
0.003988348535
0.003988339094
0.003988340598
0.003988342699
0.003988345202
0.003988347889
0.003988350527
0.003988352874
0.003988354688
0.003988355722
0.00398834724
0.003988348591
0.00398835048
0.00398835273
0.003988355146
0.003988357517
0.003988359628
0.003988361259
0.003988362189
0.003988354562
0.003988355777
0.003988357476
0.003988359501
0.003988361675
0.00398836381
0.003988365711
0.00398836718
0.003988368017
0.00398836115
0.003988362245
0.003988363776
0.0039883656
0.00398836756
0.003988369485
0.003988371199
0.003988372524
0.003988373279
0.003988367088
0.003988368076
0.003988369457
0.003988371104
0.003988372873
0.003988374611
0.00398837616
0.003988377356
0.003988378038
0.003988372449
0.003988373341
0.003988374589
0.003988376079
0.003988377679
0.003988379252
0.003988380653
0.003988381737
0.003988382353
0.003988377298
0.003988378106
0.003988379236
0.003988380586
0.003988382037
0.003988383463
0.003988384734
0.003988385717
0.003988386276
0.003988381694
0.003988382427
0.003988383454
0.00398838468
0.003988385999
0.003988387296
0.003988388452
0.003988389347
0.003988389855
0.003988385691
0.003988386359
0.003988387294
0.003988388411
0.003988389613
0.003988390796
0.003988391852
0.003988392668
0.003988393131
0.003988389336
0.003988389946
0.003988390801
0.003988391822
0.003988392922
0.003988394005
0.003988394972
0.00398839572
0.003988396144
0.003988392674
0.003988393233
0.003988394017
0.003988394955
0.003988395965
0.003988396961
0.003988397851
0.003988398539
0.003988398929
0.003988395743
0.003988396257
0.00398839698
0.003988397845
0.003988398778
0.003988399698
0.00398840052
0.003988401157
0.003988401516
0.003988398578
0.003988399054
0.003988399724
0.003988400525
0.003988401391
0.003988402246
0.003988403011
0.003988403603
0.003988403937
0.003988401212
0.003988401656
0.003988402279
0.003988403027
0.003988403836
0.003988404635
0.003988405351
0.003988405905
0.003988406217
0.003988403676
0.003988404091
0.003988404676
0.003988405379
0.003988406139
0.003988406891
0.003988407565
0.003988408088
0.003988408381
0.003988405995
0.003988406388
0.00398840694
0.003988407604
0.003988408325
0.003988409038
0.003988409679
0.003988410175
0.003988410452
0.003988408196
0.003988408569
0.003988409096
0.003988409729
0.003988410417
0.003988411099
0.003988411712
0.003988412187
0.003988412452
0.003988410302
0.00398841066
0.003988411165
0.003988411775
0.003988412437
0.003988413096
0.003988413688
0.003988414147
0.003988414402
0.003988412335
0.003988412681
0.003988413171
0.003988413762
0.003988414406
0.003988415047
0.003988415624
0.003988416071
0.003988416319
0.003988414315
0.003988414653
0.003988415132
0.003988415711
0.003988416342
0.003988416972
0.00398841754
0.00398841798
0.003988418223
0.003988416262
0.003988416595
0.003988417067
0.00398841764
0.003988418265
0.00398841889
0.003988419453
0.003988419891
0.003988420131
0.003988418193
0.003988418525
0.003988418995
0.003988419567
0.003988420192
0.003988420817
0.003988421382
0.00398842182
0.003988422061
0.003988420128
0.003988420461
0.003988420934
0.003988421509
0.003988422139
0.003988422771
0.003988423342
0.003988423785
0.003988424027
0.003988422084
0.00398842242
0.0039884229
0.003988423484
0.003988424125
0.003988424767
0.00398842535
0.003988425802
0.003988426048
0.003988424076
0.003988424419
0.00398842491
0.003988425507
0.003988426164
0.003988426824
0.003988427422
0.003988427886
0.003988428138
0.003988426121
0.003988426475
0.003988426979
0.003988427595
0.003988428274
0.003988428955
0.003988429574
0.003988430054
0.003988430315
0.003988428236
0.003988428602
0.003988429125
0.003988429765
0.003988430469
0.003988431179
0.003988431823
0.003988432323
0.003988432593
0.003988430437
0.003988430818
0.003988431364
0.003988432031
0.003988432768
0.00398843351
0.003988434184
0.003988434707
0.003988434989
0.003988432739
0.003988433139
0.003988433711
0.003988434411
0.003988435185
0.003988435965
0.003988436674
0.003988437224
0.003988437521
0.003988435159
0.00398843558
0.003988436182
0.003988436921
0.003988437737
0.00398843856
0.003988439309
0.003988439891
0.003988440203
0.003988437714
0.003988438158
0.003988438796
0.003988439577
0.003988440441
0.003988441313
0.003988442107
0.003988442724
0.003988443055
0.00398844042
0.003988440891
0.003988441567
0.003988442396
0.003988443314
0.003988444241
0.003988445085
0.003988445741
0.003988446092
0.003988443294
0.003988443795
0.003988444514
0.003988445397
0.003988446374
0.003988447362
0.003988448262
0.003988448961
0.003988449335
0.003988446354
0.003988446888
0.003988447654
0.003988448596
0.003988449639
0.003988450694
0.003988451655
0.003988452403
0.003988452802
0.003988449618
0.003988450188
0.003988451007
0.003988452013
0.003988453128
0.003988454257
0.003988455286
0.003988456085
0.003988456512
0.003988453105
0.003988453714
0.003988454591
0.003988455668
0.003988456862
0.00398845807
0.003988459173
0.003988460031
0.003988460488
0.003988456834
0.003988457487
0.003988458426
0.00398845958