/*--------------------------------*- C++ -*----------------------------------*\
| =========                 |                                                 |
| \\      /  F ield         | OpenFOAM: The Open Source CFD Toolbox           |
|  \\    /   O peration     | Version:  2212                                  |
|   \\  /    A nd           | Website:  www.openfoam.com                      |
|    \\/     M anipulation  |                                                 |
\*---------------------------------------------------------------------------*/
FoamFile
{
    version     2.0;
    format      ascii;
    arch        "LSB;label=32;scalar=64";
    class       volScalarField;
    location    "20.00000000";
    object      CH3;
}
// * * * * * * * * * * * * * * * * * * * * * * * * * * * * * * * * * * * * * //

dimensions      [0 0 0 0 0 0 0];

internalField   nonuniform List<scalar> 
3000
(
2.94735978e-24
3.308084935e-24
3.852281283e-24
4.577262022e-24
5.475563845e-24
6.522748256e-24
7.655742991e-24
8.736732073e-24
9.50102863e-24
1.105616641e-23
1.245860181e-23
1.457332429e-23
1.739663344e-23
2.092526403e-23
2.513952758e-23
2.996656328e-23
3.516415798e-23
3.976957329e-23
2.472724859e-23
2.807999166e-23
3.318346543e-23
4.010972348e-23
4.898146222e-23
5.992598461e-23
7.2899348e-23
8.717455874e-23
9.937317303e-23
4.699622571e-23
5.39210311e-23
6.461530795e-23
7.943561662e-23
9.89009092e-23
1.234993952e-22
1.530903315e-22
1.853012629e-22
2.112813113e-22
8.322000339e-23
9.664102087e-23
1.176915736e-22
1.474275819e-22
1.872316264e-22
2.382016959e-22
2.994667188e-22
3.644628224e-22
4.142671789e-22
1.426206423e-22
1.677180973e-22
2.076427589e-22
2.649119819e-22
3.425450347e-22
4.424609209e-22
5.61653474e-22
6.851086871e-22
7.764645151e-22
2.411804348e-22
2.87092117e-22
3.609702615e-22
4.681248993e-22
6.144421486e-22
8.027492726e-22
1.025196166e-21
1.251021678e-21
1.413866241e-21
4.064124378e-22
4.891302989e-22
6.234045182e-22
8.196413491e-22
1.088614725e-21
1.434023331e-21
1.838406877e-21
2.242890751e-21
2.529658877e-21
6.857789503e-22
8.332042419e-22
1.074042583e-21
1.427763522e-21
1.913400935e-21
2.535283816e-21
3.258041911e-21
3.973417466e-21
4.474996204e-21
1.161136053e-21
1.421803325e-21
1.849551358e-21
2.479758083e-21
3.345442775e-21
4.451002763e-21
5.72872075e-21
6.984116938e-21
7.857830857e-21
1.973837882e-21
2.432067803e-21
3.186338966e-21
4.299755086e-21
5.829098389e-21
7.777684879e-21
1.002036689e-20
1.221271692e-20
1.373111336e-20
3.368173501e-21
4.170366717e-21
5.493606732e-21
7.449151423e-21
1.013428887e-20
1.354895729e-20
1.746694991e-20
2.128380402e-20
2.391933774e-20
5.766607408e-21
7.166974038e-21
9.480276152e-21
1.290131769e-20
1.7596568e-20
2.355783411e-20
3.038162068e-20
3.701403292e-20
4.158803923e-20
9.899661101e-21
1.233964923e-20
1.63746921e-20
2.234490553e-20
3.053561999e-20
4.092096429e-20
5.278552302e-20
6.429925178e-20
7.22455032e-20
1.702914244e-20
2.1274667e-20
2.83021087e-20
3.870603988e-20
5.298035365e-20
7.10691048e-20
9.171035615e-20
1.117161773e-19
1.255288477e-19
2.933039575e-20
3.670648909e-20
4.892566801e-20
6.702889501e-20
9.188394277e-20
1.234089385e-19
1.594204959e-19
1.942982816e-19
2.181800012e-19
5.054860515e-20
6.333898708e-20
8.453567162e-20
1.159436174e-19
1.590539139e-19
2.136890217e-19
2.760098623e-19
3.362621026e-19
3.775025936e-19
8.713514583e-20
1.092751792e-19
1.459713636e-19
2.003390535e-19
2.749296828e-19
3.693851952e-19
4.770194114e-19
5.809951704e-19
6.521626679e-19
1.502114421e-19
1.884879547e-19
2.519335618e-19
3.459218598e-19
4.748311096e-19
6.379953897e-19
8.238286725e-19
1.003268884e-18
1.126061484e-18
2.589575668e-19
3.250804466e-19
4.346892824e-19
5.970554312e-19
8.197099278e-19
1.101455317e-18
1.422245192e-18
1.731905653e-18
1.943759335e-18
4.464571906e-19
5.606330659e-19
7.499078492e-19
1.03028009e-18
1.414717393e-18
1.901092992e-18
2.454740984e-18
2.989046081e-18
3.354519339e-18
7.697797332e-19
9.66876514e-19
1.293627889e-18
1.777637501e-18
2.441239621e-18
3.280675897e-18
4.236020888e-18
5.157790747e-18
5.788172483e-18
1.327369721e-18
1.667549678e-18
2.231520016e-18
3.066893156e-18
4.212129152e-18
5.660601034e-18
7.30875997e-18
8.898669319e-18
9.98581828e-18
2.289034982e-18
2.876093964e-18
3.849346059e-18
5.290876561e-18
7.266875929e-18
9.765652588e-18
1.260832568e-17
1.534995752e-17
1.722434634e-17
3.947638097e-18
4.960624475e-18
6.639918984e-18
9.126951509e-18
1.253553486e-17
1.684496565e-17
2.174623867e-17
2.647206637e-17
2.970227641e-17
6.808153598e-18
8.555861169e-18
1.145288686e-17
1.574271615e-17
2.162080073e-17
2.905025512e-17
3.749723152e-17
4.56390547e-17
5.120249161e-17
1.174097681e-17
1.475580702e-17
1.975250504e-17
2.714980248e-17
3.728271941e-17
5.008499407e-17
6.463416866e-17
7.865130057e-17
8.822544797e-17
2.024542553e-17
2.54448533e-17
3.406040378e-17
4.681114919e-17
6.426986569e-17
8.631620702e-17
1.113557493e-16
1.354644833e-16
1.519219599e-16
3.490180366e-17
4.386568572e-17
5.871457845e-17
8.068095473e-17
1.107406914e-16
1.48672284e-16
1.917186925e-16
2.331293307e-16
2.61374897e-16
6.014495059e-17
7.559067387e-17
1.011665588e-16
1.389796667e-16
1.906849725e-16
2.558686871e-16
3.297611635e-16
4.007632225e-16
4.491390979e-16
1.03583396e-16
1.301773707e-16
1.741895536e-16
2.392101616e-16
3.280287189e-16
4.398604016e-16
5.664501749e-16
6.879005551e-16
7.705254691e-16
1.782391787e-16
2.239767793e-16
2.996181811e-16
4.112540683e-16
5.635489263e-16
7.549930188e-16
9.712951504e-16
1.178398396e-15
1.319019608e-15
3.06330144e-16
3.848690453e-16
5.146410989e-16
7.059209728e-16
9.66428448e-16
1.293225303e-15
1.661572701e-15
2.013350103e-15
2.25160666e-15
5.256140512e-16
6.601911073e-16
8.823038064e-16
1.209161405e-15
1.653372831e-15
2.209174179e-15
2.833771428e-15
3.428361454e-15
3.829816399e-15
8.999427005e-16
1.129888965e-15
1.508864233e-15
2.065434644e-15
2.819851243e-15
3.76076824e-15
4.81428092e-15
5.813264622e-15
6.485197236e-15
1.536647602e-15
1.928101219e-15
2.572124774e-15
3.515608877e-15
4.790388278e-15
6.374163004e-15
8.139677414e-15
9.806026416e-15
1.092180113e-14
2.614845734e-15
3.278118404e-15
4.367004811e-15
5.957421204e-15
8.098051776e-15
1.074534675e-14
1.368120591e-14
1.643718547e-14
1.827300618e-14
4.430897126e-15
5.548135136e-15
7.37755494e-15
1.004000496e-14
1.360729967e-14
1.799532707e-14
2.283280962e-14
2.734604059e-14
3.033492743e-14
7.470270317e-15
9.338564661e-15
1.238837304e-14
1.680811764e-14
2.269866746e-14
2.990002893e-14
3.778595843e-14
4.509325706e-14
4.990177349e-14
1.251920447e-14
1.561599479e-14
2.065275553e-14
2.791579758e-14
3.753703354e-14
4.921780425e-14
6.191433752e-14
7.359240821e-14
8.122506893e-14
2.083513298e-14
2.591417967e-14
3.41394147e-14
4.593185215e-14
6.144464926e-14
8.013217861e-14
1.002804301e-13
1.186663564e-13
1.305983973e-13
3.440268156e-14
4.262920353e-14
5.588381807e-14
7.475896821e-14
9.939147616e-14
1.288072265e-13
1.602414862e-13
1.88685531e-13
2.070108229e-13
5.631463063e-14
6.944629248e-14
9.047555753e-14
1.201839322e-13
1.585945112e-13
2.0400694e-13
2.520531879e-13
2.951304308e-13
3.226718007e-13
9.134112072e-14
1.1195697e-13
1.447275466e-13
1.905759122e-13
2.491884865e-13
3.176515236e-13
3.892180815e-13
4.526817078e-13
4.929005608e-13
1.468000858e-13
1.7857552e-13
2.286200949e-13
2.977834579e-13
3.849269944e-13
4.850995177e-13
5.880958284e-13
6.780004636e-13
7.342302486e-13
2.33941271e-13
2.819763151e-13
3.567434345e-13
4.584264564e-13
5.840097217e-13
7.250017253e-13
8.661217614e-13
9.857484028e-13
1.058424411e-12
3.702241391e-13
4.414818334e-13
5.507410434e-13
6.961662801e-13
8.706593676e-13
1.05922342e-12
1.238582651e-12
1.380520001e-12
1.459267144e-12
5.830627114e-13
6.870927745e-13
8.436585919e-13
1.046215515e-12
1.27927527e-12
1.515490161e-12
1.717650291e-12
1.849340565e-12
1.896895042e-12
9.155943492e-13
1.065871174e-12
1.287231713e-12
1.563802268e-12
1.864412997e-12
2.13967732e-12
2.329503741e-12
2.390185598e-12
2.345746063e-12
1.434226955e-12
1.650433599e-12
1.961957403e-12
2.33690095e-12
2.718985587e-12
3.028653762e-12
3.191294103e-12
3.211958554e-12
3.272040313e-12
2.235208446e-12
2.546477235e-12
2.986564708e-12
3.500251503e-12
4.00216701e-12
4.407200632e-12
4.756280233e-12
5.487359571e-12
6.253859778e-12
3.442468156e-12
3.891887759e-12
4.522437554e-12
5.259256724e-12
6.034240105e-12
6.970982504e-12
8.988475193e-12
1.170752496e-11
1.416722971e-11
5.184189661e-12
5.841317544e-12
6.792476776e-12
8.031729931e-12
9.872989869e-12
1.372766266e-11
1.972823073e-11
2.735730039e-11
3.424114828e-11
7.561948741e-12
8.590230698e-12
1.030829617e-11
1.333644214e-11
1.950586629e-11
2.989409446e-11
4.536008445e-11
6.503508822e-11
8.30405368e-11
1.08743052e-11
1.290469853e-11
1.753078865e-11
2.633873662e-11
4.174277446e-11
6.668768214e-11
1.034722624e-10
1.500055814e-10
1.921532459e-10
1.777708252e-11
2.367354054e-11
3.519273898e-11
5.586080385e-11
9.092740647e-11
1.466604274e-10
2.268544293e-10
3.242705691e-10
4.079628421e-10
3.567606454e-11
4.927368207e-11
7.513638723e-11
1.205820174e-10
1.959117576e-10
3.114166293e-10
4.682193547e-10
6.438341802e-10
7.816263404e-10
7.75877204e-11
1.073668023e-10
1.630674998e-10
2.584618988e-10
4.101473456e-10
6.280977231e-10
8.985181291e-10
1.171425198e-09
1.365642058e-09
1.733303241e-10
2.363670872e-10
3.511244132e-10
5.391557424e-10
8.190033169e-10
1.18702545e-09
1.599989311e-09
1.980316901e-09
2.232932645e-09
3.853678161e-10
5.114674579e-10
7.315259362e-10
1.070129243e-09
1.534511175e-09
2.092633251e-09
2.671785978e-09
3.177833995e-09
3.502860654e-09
8.241579999e-10
1.054741273e-09
1.436712008e-09
1.985308551e-09
2.683637625e-09
3.472184748e-09
4.260161159e-09
4.936690561e-09
5.366173142e-09
1.641955811e-09
2.020336138e-09
2.617774207e-09
3.431130394e-09
4.421926084e-09
5.514066681e-09
6.598419907e-09
7.530544565e-09
8.122021982e-09
2.99814484e-09
3.564840858e-09
4.43414367e-09
5.589023098e-09
6.979518761e-09
8.514270786e-09
1.005135064e-08
1.138631207e-08
1.223982256e-08
5.046500729e-09
5.857428639e-09
7.09127648e-09
8.727334818e-09
1.070940827e-08
1.292405738e-08
1.517671417e-08
1.716553922e-08
1.845636481e-08
7.980017888e-09
9.13270189e-09
1.089222411e-08
1.324427711e-08
1.613064464e-08
1.941060841e-08
2.281323313e-08
2.588274296e-08
2.79190765e-08
1.207773565e-08
1.372882002e-08
1.626741303e-08
1.969984393e-08
2.39785284e-08
2.893567688e-08
3.419617912e-08
3.906335072e-08
4.237871194e-08
1.771997541e-08
2.010114157e-08
2.379421335e-08
2.885188641e-08
3.526363161e-08
4.284783661e-08
5.109358969e-08
5.892981938e-08
6.441688337e-08
2.539570675e-08
2.883678383e-08
3.422258946e-08
4.169645314e-08
5.133565094e-08
6.297825308e-08
7.594250433e-08
8.858333019e-08
9.766557304e-08
3.572482437e-08
4.068180503e-08
4.851092703e-08
5.951678898e-08
7.394795799e-08
9.172338563e-08
1.119514299e-07
1.321259597e-07
1.469456198e-07
4.950603976e-08
5.659423212e-08
6.788484726e-08
8.394605243e-08
1.053194095e-07
1.320967021e-07
1.631296287e-07
1.946581651e-07
2.182374399e-07
6.78101395e-08
7.783909377e-08
9.393116375e-08
1.170519411e-07
1.481934578e-07
1.877370605e-07
2.342145557e-07
2.821044965e-07
3.184214107e-07
9.212971814e-08
1.061356399e-07
1.287350586e-07
1.614478133e-07
2.058956485e-07
2.628730373e-07
3.304984166e-07
4.008734497e-07
4.547979137e-07
1.245808732e-07
1.438499927e-07
1.750513554e-07
2.204207434e-07
2.823850941e-07
3.622545914e-07
4.575959132e-07
5.574369159e-07
6.345119239e-07
1.681233889e-07
1.941975377e-07
2.364732267e-07
2.98043919e-07
3.822825656e-07
4.910696494e-07
6.212352896e-07
7.580117607e-07
8.6417407e-07
2.26735736e-07
2.613908715e-07
3.175363726e-07
3.992204294e-07
5.108440466e-07
6.548585718e-07
8.271730949e-07
1.008631259e-06
1.150503955e-06
3.054691881e-07
3.50661279e-07
4.236946048e-07
5.296086209e-07
6.738513317e-07
8.594230381e-07
1.081237716e-06
1.315632276e-06
1.499958947e-06
4.103296872e-07
4.681127933e-07
5.611436032e-07
6.954316493e-07
8.774584566e-07
1.110799654e-06
1.389613273e-06
1.683878916e-06
1.914377066e-06
5.480027077e-07
6.204428608e-07
7.365603103e-07
9.032844665e-07
1.128183799e-06
1.415727992e-06
1.757076811e-06
2.114440334e-06
2.393475105e-06
7.255466247e-07
8.14683181e-07
9.569590206e-07
1.160202069e-06
1.433493065e-06
1.779022922e-06
2.184812806e-06
2.606642503e-06
2.935519806e-06
9.503514833e-07
1.058315493e-06
1.230404313e-06
1.474376901e-06
1.79782571e-06
2.202066828e-06
2.672035576e-06
3.156868831e-06
3.533372386e-06
1.231395701e-06
1.36034731e-06
1.563655462e-06
1.848865452e-06
2.222642355e-06
2.684577363e-06
3.216184391e-06
3.760158199e-06
4.180522076e-06
1.574375494e-06
1.724427208e-06
1.959105216e-06
2.28512589e-06
2.70775712e-06
3.224304507e-06
3.812629655e-06
4.409486547e-06
4.868112271e-06
1.981614753e-06
2.152453617e-06
2.417694966e-06
2.782736007e-06
3.250927367e-06
3.816849563e-06
4.454647352e-06
5.095906217e-06
5.58554025e-06
2.45391392e-06
2.644525102e-06
2.938387394e-06
3.33912574e-06
3.847707387e-06
4.455674565e-06
5.133572767e-06
5.808837075e-06
6.320883933e-06
2.99002455e-06
3.198587894e-06
3.51791969e-06
3.94947763e-06
4.491477218e-06
5.132256849e-06
5.839066892e-06
6.536422224e-06
7.061314725e-06
3.586408194e-06
3.810283527e-06
4.150745737e-06
4.606777684e-06
5.173601087e-06
5.836347827e-06
6.559457838e-06
7.265924318e-06
7.793516001e-06
4.237181474e-06
4.472953824e-06
4.829117317e-06
5.301983297e-06
5.883682621e-06
6.556305728e-06
7.282128984e-06
7.984135106e-06
8.504079644e-06
4.934194586e-06
5.177766236e-06
5.543272099e-06
6.024282405e-06
6.609894376e-06
7.279482891e-06
7.993933346e-06
8.677755074e-06
9.179758375e-06
5.667213683e-06
5.91393504e-06
6.281707141e-06
6.761426212e-06
7.339370075e-06
7.992671567e-06
8.68167129e-06
9.333776537e-06
9.806988975e-06
6.424189308e-06
6.669021659e-06
7.031521227e-06
7.50011823e-06
8.058645585e-06
8.682633592e-06
9.332910413e-06
9.941509683e-06
1.03789635e-05
7.191598604e-06
7.4293007e-06
7.778808328e-06
8.22642558e-06
8.754049111e-06
9.336341896e-06
9.935632095e-06
1.048997879e-05
1.088453781e-05
7.954852028e-06
8.180183021e-06
8.509098254e-06
8.926232096e-06
9.412161679e-06
9.941477222e-06
1.047897414e-05
1.096990658e-05
1.13156317e-05
8.698753314e-06
8.906682516e-06
9.207826592e-06
9.585701199e-06
1.002025813e-05
1.048683219e-05
1.095357623e-05
1.137387011e-05
1.166632957e-05
9.4079954e-06
9.593905847e-06
9.86080732e-06
1.019171259e-05
1.056668061e-05
1.096258568e-05
1.135170433e-05
1.169620428e-05
1.193245612e-05
1.006765952e-05
1.022752638e-05
1.045465997e-05
1.073221155e-05
1.1041066e-05
1.13603572e-05
1.166704346e-05
1.193252881e-05
1.211121534e-05
1.066363994e-05
1.079414977e-05
1.0977074e-05
1.119631843e-05
1.143420445e-05
1.167277958e-05
1.189437642e-05
1.207986825e-05
1.220012606e-05
1.118277377e-05
1.128130667e-05
1.141656333e-05
1.157377666e-05
1.173763338e-05
1.189324841e-05
1.202722459e-05
1.21323758e-05
1.219745757e-05
1.161197396e-05
1.167687229e-05
1.176233859e-05
1.185418524e-05
1.194133561e-05
1.201454658e-05
1.206790902e-05
1.210072037e-05
1.211586511e-05
1.193670584e-05
1.196643782e-05
1.200133162e-05
1.203152987e-05
1.204854879e-05
1.204692147e-05
1.202621237e-05
1.199305057e-05
1.196296166e-05
1.215522735e-05
1.215279303e-05
1.214149628e-05
1.211455178e-05
1.206670898e-05
1.199644675e-05
1.190832048e-05
1.181575882e-05
1.17453693e-05
1.22738908e-05
1.224157459e-05
1.21875414e-05
1.210791824e-05
1.200079987e-05
1.186853879e-05
1.17202753e-05
1.157542078e-05
1.146998428e-05
1.229620607e-05
1.22364906e-05
1.214351904e-05
1.201630619e-05
1.185624331e-05
1.166934276e-05
1.146884344e-05
1.127922894e-05
1.114419886e-05
1.222642846e-05
1.21422085e-05
1.201466924e-05
1.184563529e-05
1.163963379e-05
1.140601925e-05
1.116157447e-05
1.093491838e-05
1.077577254e-05
1.207054861e-05
1.196508525e-05
1.180782219e-05
1.160323151e-05
1.135872241e-05
1.10865979e-05
1.080659179e-05
1.055053758e-05
1.037260552e-05
1.183631492e-05
1.17131033e-05
1.153123547e-05
1.129759188e-05
1.102213796e-05
1.07196826e-05
1.041230824e-05
1.013418946e-05
9.942504939e-06
1.153289571e-05
1.139551387e-05
1.119422162e-05
1.093801071e-05
1.063902859e-05
1.031412385e-05
9.987140122e-06
9.693789723e-06
9.492976698e-06
1.117041794e-05
1.102238496e-05
1.08067147e-05
1.053417639e-05
1.021870051e-05
9.878708125e-06
9.539251022e-06
9.236861176e-06
9.031055055e-06
1.075948592e-05
1.060414211e-05
1.037884465e-05
1.009579046e-05
9.770290108e-06
9.421887876e-06
9.076339167e-06
8.770371384e-06
8.563173811e-06
1.031073272e-05
1.015114722e-05
9.920556023e-06
9.632235815e-06
9.302488147e-06
8.951563497e-06
8.605474196e-06
8.300615452e-06
8.09507869e-06
9.834433904e-06
9.673341048e-06
9.441290925e-06
9.152308645e-06
8.8233248e-06
8.474921479e-06
8.13298386e-06
7.833142137e-06
7.631778018e-06
9.340199213e-06
9.179962014e-06
8.94974557e-06
8.664019315e-06
8.340017585e-06
7.998327861e-06
7.664387768e-06
7.37271921e-06
7.177527112e-06
8.836747731e-06
8.679345195e-06
8.453701759e-06
8.174461433e-06
7.85887919e-06
7.52727251e-06
7.204372841e-06
6.923332439e-06
6.735840852e-06
8.331764095e-06
8.178797982e-06
7.959928713e-06
7.689743268e-06
7.385278629e-06
7.066357304e-06
6.756803667e-06
6.488211814e-06
6.309528475e-06
7.83182777e-06
7.684544054e-06
7.474146513e-06
7.214972671e-06
6.92364702e-06
6.619320008e-06
6.324760284e-06
6.069878402e-06
5.900744732e-06
7.342403826e-06
7.201724271e-06
7.001040069e-06
6.754284959e-06
6.477518291e-06
6.189085214e-06
5.91059598e-06
5.670205598e-06
5.51105195e-06
6.86788208e-06
6.734441826e-06
6.544311756e-06
6.310902975e-06
6.04959525e-06
5.777834105e-06
5.516008287e-06
5.290489186e-06
5.141488194e-06
6.411651293e-06
6.285839011e-06
6.106760979e-06
5.887218817e-06
5.641832139e-06
5.387086197e-06
5.142117335e-06
4.931521103e-06
4.792637404e-06
5.976196719e-06
5.858194962e-06
5.690381467e-06
5.484889254e-06
5.255526169e-06
5.017784709e-06
4.789545482e-06
4.593663485e-06
4.464698765e-06
5.563210072e-06
5.453033385e-06
5.296465336e-06
5.104934852e-06
4.891410852e-06
4.670383949e-06
4.458496839e-06
4.276920273e-06
4.157552691e-06
5.173702891e-06
5.071232737e-06
4.925708637e-06
4.747839528e-06
4.549748155e-06
4.344932618e-06
4.14883181e-06
3.981003758e-06
3.870821792e-06
4.808118357e-06
4.713134257e-06
4.578313789e-06
4.413645698e-06
4.230415096e-06
4.04115127e-06
3.860135512e-06
3.705395049e-06
3.603925913e-06
4.466436467e-06
4.378642861e-06
4.254084314e-06
4.102041457e-06
3.932982464e-06
3.758502193e-06
3.591779033e-06
3.449397792e-06
3.356130783e-06
4.148269575e-06
4.067318529e-06
3.952510302e-06
3.812438785e-06
3.656784904e-06
3.496251097e-06
3.342973074e-06
3.212184887e-06
3.126590137e-06
3.852947052e-06
3.778456991e-06
3.672843508e-06
3.54404185e-06
3.40098176e-06
3.253520333e-06
3.112813947e-06
2.99283836e-06
2.914381571e-06
3.579588457e-06
3.511159297e-06
3.414161846e-06
3.295905425e-06
3.164608843e-06
3.029333931e-06
2.900322305e-06
2.790382771e-06
2.718536476e-06
3.327165452e-06
3.264390541e-06
3.175423674e-06
3.066983848e-06
2.946621616e-06
2.822654985e-06
2.704475118e-06
2.603812688e-06
2.538064618e-06
3.094553138e-06
3.037028464e-06
2.955512572e-06
2.85617125e-06
2.745930522e-06
2.632416086e-06
2.524231597e-06
2.432114857e-06
2.371973897e-06
2.880571809e-06
2.827902887e-06
2.753273566e-06
2.662333982e-06
2.561429326e-06
2.457543618e-06
2.358553761e-06
2.274285715e-06
2.219285919e-06
2.684020207e-06
2.635827062e-06
2.567541836e-06
2.484336197e-06
2.392017363e-06
2.296976705e-06
2.20642239e-06
2.129344889e-06
2.079047949e-06
2.50370146e-06
2.459622055e-06
2.397164959e-06
2.32105957e-06
2.236616573e-06
2.149681627e-06
2.066849054e-06
1.996345295e-06
1.950341795e-06
2.338442797e-06
2.298135225e-06
2.241019677e-06
2.171418071e-06
2.094184168e-06
2.014662418e-06
1.938884856e-06
1.874380392e-06
1.832290144e-06
2.187110079e-06
2.150253788e-06
2.098024133e-06
2.034368644e-06
1.963721668e-06
1.890968316e-06
1.821626477e-06
1.762589093e-06
1.724060786e-06
2.048618088e-06
2.014914351e-06
1.967146387e-06
1.908918539e-06
1.844280991e-06
1.777698667e-06
1.714220016e-06
1.660158793e-06
1.624869133e-06
1.921937373e-06
1.891109211e-06
1.84740994e-06
1.794129948e-06
1.734968178e-06
1.674005773e-06
1.615863083e-06
1.566326862e-06
1.533979375e-06
1.806098373e-06
1.777890053e-06
1.737896886e-06
1.689122521e-06
1.634945247e-06
1.579096128e-06
1.525805512e-06
1.480380969e-06
1.450704571e-06
1.700193403e-06
1.674369652e-06
1.637749216e-06
1.59307422e-06
1.543430595e-06
1.492230412e-06
1.443349009e-06
1.401658475e-06
1.374405911e-06
1.603376995e-06
1.57972202e-06
1.546168697e-06
1.50522091e-06
1.459698309e-06
1.412722544e-06
1.367845998e-06
1.329545153e-06
1.304491368e-06
1.514865015e-06
1.49318139e-06
1.462415707e-06
1.42485502e-06
1.38307665e-06
1.339938028e-06
1.298697884e-06
1.263473394e-06
1.240413897e-06
1.433932867e-06
1.414040366e-06
1.385807293e-06
1.35132351e-06
1.312945962e-06
1.273291822e-06
1.235352902e-06
1.202920078e-06
1.181669329e-06
1.359913074e-06
1.341647468e-06
1.315714693e-06
1.284025385e-06
1.248736179e-06
1.212245868e-06
1.177303695e-06
1.147404208e-06
1.127794063e-06
1.29219242e-06
1.275404291e-06
1.251560512e-06
1.222408897e-06
1.189924084e-06
1.156306417e-06
1.124084725e-06
1.096484418e-06
1.078362645e-06
1.230208838e-06
1.214762418e-06
1.192815684e-06
1.16596858e-06
1.136030423e-06
1.105021255e-06
1.075269617e-06
1.049756424e-06
1.032985304e-06
1.173448166e-06
1.159220223e-06
1.138996342e-06
1.114242205e-06
1.086616979e-06
1.057976899e-06
1.030468485e-06
1.006850481e-06
9.913055009e-07
1.12144086e-06
1.108319639e-06
1.089660672e-06
1.066807742e-06
1.041283658e-06
1.01479582e-06
9.89325302e-07
9.67428884e-07
9.529975185e-07
1.073758746e-06
1.061642974e-06
1.044405816e-06
1.023280384e-06
9.996656418e-07
9.751337472e-07
9.515153465e-07
9.311835452e-07
9.177641366e-07
1.030011861e-06
1.018809815e-06
1.002864872e-06
9.833096588e-07
9.614306447e-07
9.386770644e-07
9.167427497e-07
8.978336749e-07
8.853344014e-07
9.898454097e-07
9.794740558e-07
9.647040198e-07
9.465766771e-07
9.262762906e-07
9.051403383e-07
8.84738164e-07
8.671235774e-07
8.554615086e-07
9.529368839e-07
9.43321076e-07
9.296197927e-07
9.127915199e-07
8.939276369e-07
8.742639786e-07
8.552565629e-07
8.38820571e-07
8.279208065e-07
9.189933343e-07
9.100650809e-07
8.973365074e-07
8.816907831e-07
8.641348446e-07
8.458120437e-07
8.280751763e-07
8.127130394e-07
8.02507925e-07
8.877488207e-07
8.794466115e-07
8.676038623e-07
8.530352813e-07
8.36671004e-07
8.195701915e-07
8.029915652e-07
7.886086134e-07
7.79037029e-07
8.589620356e-07
8.512302255e-07
8.401947012e-07
8.26607913e-07
8.113301127e-07
7.95343777e-07
7.798218334e-07
7.663324827e-07
7.573391976e-07
8.324141014e-07
8.252023489e-07
8.149029414e-07
8.022116842e-07
7.879252047e-07
7.729560914e-07
7.583989738e-07
7.45725834e-07
7.372609239e-07
8.079065363e-07
8.011692928e-07
7.915416627e-07
7.796678843e-07
7.662866258e-07
7.522467391e-07
7.385713433e-07
7.266444111e-07
7.18662731e-07
7.852593831e-07
7.78955429e-07
7.699413494e-07
7.588144103e-07
7.462604473e-07
7.330701456e-07
7.202012611e-07
7.089571913e-07
7.014179002e-07
7.643094923e-07
7.58401516e-07
7.49948278e-07
7.395042289e-07
7.277070124e-07
7.152941902e-07
7.031637239e-07
6.925451709e-07
6.854113037e-07
7.449089518e-07
7.393631686e-07
7.314230426e-07
7.216039711e-07
7.104996062e-07
6.987989547e-07
6.873452303e-07
6.773002548e-07
6.705383361e-07
7.269236518e-07
7.217094598e-07
7.142392089e-07
7.049926481e-07
6.945232423e-07
6.834755817e-07
6.726427074e-07
6.631242416e-07
6.567039389e-07
7.102319792e-07
7.05321647e-07
6.982820871e-07
6.895604827e-07
6.796735568e-07
6.692252344e-07
6.589625333e-07
6.499278991e-07
6.438217104e-07
6.947236279e-07
6.900920143e-07
6.834476171e-07
6.752078456e-07
6.658558027e-07
6.559581498e-07
6.462196465e-07
6.376301222e-07
6.318130952e-07
6.802985197e-07
6.759228197e-07
6.696413547e-07
6.618442893e-07
6.529839365e-07
6.435927791e-07
6.343367374e-07
6.261571677e-07
6.206066478e-07
6.66865825e-07
6.62725341e-07
6.567775524e-07
6.49387672e-07
6.409797887e-07
6.320550074e-07
6.232435145e-07
6.154419598e-07
6.101373629e-07
6.543430748e-07
6.504190109e-07
6.44778327e-07
6.377633634e-07
6.297723132e-07
6.212774466e-07
6.128760387e-07
6.054234596e-07
6.003460686e-07
6.42655358e-07
6.389306338e-07
6.335729052e-07
6.269035258e-07
6.19296907e-07
6.111987946e-07
6.031761202e-07
5.960460941e-07
5.911788763e-07
6.317345946e-07
6.281936787e-07
6.230969421e-07
6.167464643e-07
6.094947949e-07
6.017632561e-07
5.940907733e-07
5.872592396e-07
5.82586682e-07
6.21518879e-07
6.181476381e-07
6.132919043e-07
6.072360382e-07
6.00312473e-07
5.929200184e-07
5.855717226e-07
5.790167535e-07
5.745247152e-07
6.119518872e-07
6.087374509e-07
6.041045137e-07
5.983211309e-07
5.917012066e-07
5.84622778e-07
5.775749569e-07
5.712765516e-07
5.669521314e-07
6.029823411e-07
5.999129799e-07
5.954862441e-07
5.899551695e-07
5.836165755e-07
5.768293126e-07
5.700603262e-07
5.64000226e-07
5.598316429e-07
5.945635251e-07
5.916285412e-07
5.873928679e-07
5.820956923e-07
5.760180648e-07
5.695010946e-07
5.629911772e-07
5.571526991e-07
5.531291859e-07
5.866528503e-07
5.838424783e-07
5.797840462e-07
5.747039579e-07
5.688686945e-07
5.626029427e-07
5.563340251e-07
5.507019124e-07
5.468136192e-07
5.792114602e-07
5.76516779e-07
5.726229588e-07
5.677445924e-07
5.621346852e-07
5.561027062e-07
5.500582558e-07
5.44618544e-07
5.408564522e-07
5.722038751e-07
5.696167278e-07
5.6587597e-07
5.611852697e-07
5.557851558e-07
5.499709803e-07
5.441358576e-07
5.38875754e-07
5.35231599e-07
5.655976703e-07
5.631105925e-07
5.59512326e-07
5.549964237e-07
5.497918502e-07
5.44180848e-07
5.385411778e-07
5.334489537e-07
5.299151556e-07
5.593631837e-07
5.56969339e-07
5.535038803e-07
5.491509851e-07
5.441288886e-07
5.387076457e-07
5.332507017e-07
5.283155957e-07
5.248851977e-07
5.5347325e-07
5.511663719e-07
5.47824843e-07
5.436241423e-07
5.3877254e-07
5.335287483e-07
5.282428498e-07
5.234549821e-07
5.201215955e-07
5.479029563e-07
5.456772955e-07
5.424515503e-07
5.38393121e-07
5.33701013e-07
5.286233716e-07
5.234977914e-07
5.188480867e-07
5.156058426e-07
5.426294153e-07
5.404796927e-07
5.373622502e-07
5.33436978e-07
5.288942598e-07
5.23972386e-07
5.189972679e-07
5.144773882e-07
5.113208949e-07
5.376315521e-07
5.355529156e-07
5.325368992e-07
5.287364057e-07
5.243337882e-07
5.19558138e-07
5.147244233e-07
5.103267074e-07
5.072510133e-07
5.328898984e-07
5.308778828e-07
5.279569647e-07
5.242735403e-07
5.200024774e-07
5.153642724e-07
5.106636335e-07
5.063810441e-07
5.033816053e-07
5.283863891e-07
5.264368793e-07
5.236052278e-07
5.200317691e-07
5.158843892e-07
5.113755493e-07
5.068003287e-07
5.02626404e-07
4.996990563e-07
5.241041546e-07
5.222133491e-07
5.194655783e-07
5.159955271e-07
5.119645678e-07
5.075776462e-07
5.031207982e-07
4.990496068e-07
4.961905396e-07
5.200273009e-07
5.181916759e-07
5.155227947e-07
5.121500769e-07
5.082288184e-07
5.039569357e-07
4.996119676e-07
4.956380636e-07
4.928437953e-07
5.161406704e-07
5.143569416e-07
5.117622999e-07
5.084812603e-07
5.046634541e-07
5.005002275e-07
4.962611361e-07
4.923795096e-07
4.8964686e-07
5.124295738e-07
5.106946544e-07
5.08169883e-07
5.049752122e-07
5.012550008e-07
4.971944623e-07
4.930556591e-07
4.892616779e-07
4.865877349e-07
5.088794843e-07
5.071904365e-07
5.04731378e-07
5.016180267e-07
4.979898471e-07
4.94026345e-07
4.899825639e-07
4.862718989e-07
4.836539745e-07
5.054756855e-07
5.038296632e-07
5.014322886e-07
4.98395364e-07
4.948538304e-07
4.909819055e-07
4.870280846e-07
4.833966109e-07
4.808321806e-07
5.022028659e-07
5.005970447e-07
4.982573525e-07
4.952919909e-07
4.918317475e-07
4.880459768e-07
4.841771057e-07
4.806207711e-07
4.781073896e-07
4.99044652e-07
4.974761452e-07
4.951900379e-07
4.922912477e-07
4.889067865e-07
4.852015855e-07
4.814125073e-07
4.779271594e-07
4.754623463e-07
4.959830801e-07
4.944488367e-07
4.922119709e-07
4.893744409e-07
4.86059876e-07
4.824292519e-07
4.787144142e-07
4.752955756e-07
4.728766637e-07
4.929980048e-07
4.914946879e-07
4.893022952e-07
4.865201641e-07
4.832689591e-07
4.797062088e-07
4.760593539e-07
4.727019407e-07
4.703258815e-07
4.900664529e-07
4.885902976e-07
4.864369739e-07
4.837035588e-07
4.80508203e-07
4.770055532e-07
4.734193455e-07
4.701173233e-07
4.677804462e-07
4.871619342e-07
4.857085846e-07
4.835880494e-07
4.808955335e-07
4.777471695e-07
4.74295359e-07
4.707609492e-07
4.675069275e-07
4.652046514e-07
4.842537298e-07
4.82818058e-07
4.807228859e-07
4.780619703e-07
4.749499769e-07
4.71537788e-07
4.680443225e-07
4.648290928e-07
4.625555951e-07
4.813061866e-07
4.79882098e-07
4.778034292e-07
4.751629585e-07
4.720745015e-07
4.686882539e-07
4.652223411e-07
4.620343731e-07
4.59782225e-07
4.782780559e-07
4.768582866e-07
4.747855286e-07
4.721521034e-07
4.690716719e-07
4.656947e-07
4.622398595e-07
4.590647776e-07
4.568245613e-07
4.751219202e-07
4.736978391e-07
4.716183728e-07
4.689759718e-07
4.658849265e-07
4.624970711e-07
4.590331963e-07
4.558532672e-07
4.536132e-07
4.717837657e-07
4.703451908e-07
4.682441036e-07
4.655737407e-07
4.624499076e-07
4.590270611e-07
4.555299398e-07
4.52323615e-07
4.500692098e-07
4.682027632e-07
4.667378127e-07
4.645976792e-07
4.618771263e-07
4.586944736e-07
4.55208226e-07
4.516491748e-07
4.483907383e-07
4.461045394e-07
4.643113138e-07
4.628063078e-07
4.606070525e-07
4.57810672e-07
4.54539123e-07
4.50956563e-07
4.473022241e-07
4.439616074e-07
4.416230485e-07
4.600354343e-07
4.584748692e-07
4.561937378e-07
4.53292463e-07
4.498978931e-07
4.461816278e-07
4.423940088e-07
4.389368308e-07
4.365222604e-07
4.552955424e-07
4.536621593e-07
4.512738343e-07
4.482353405e-07
4.446798125e-07
4.407882643e-07
4.368250776e-07
4.332129813e-07
4.306959041e-07
4.500076987e-07
4.482826674e-07
4.457595574e-07
4.425486653e-07
4.387909509e-07
4.346789872e-07
4.304943514e-07
4.266856908e-07
4.240372701e-07
4.440853416e-07
4.422485784e-07
4.395613089e-07
4.361406551e-07
4.321370828e-07
4.277570232e-07
4.233025718e-07
4.192534936e-07
4.164433452e-07
4.374415362e-07
4.354721683e-07
4.325902927e-07
4.28921288e-07
4.246269435e-07
4.199299694e-07
4.1515639e-07
4.108223292e-07
4.078196216e-07
4.29991722e-07
4.278687049e-07
4.247616421e-07
4.208057257e-07