/*--------------------------------*- C++ -*----------------------------------*\
| =========                 |                                                 |
| \\      /  F ield         | OpenFOAM: The Open Source CFD Toolbox           |
|  \\    /   O peration     | Version:  2212                                  |
|   \\  /    A nd           | Website:  www.openfoam.com                      |
|    \\/     M anipulation  |                                                 |
\*---------------------------------------------------------------------------*/
FoamFile
{
    version     2.0;
    format      ascii;
    arch        "LSB;label=32;scalar=64";
    class       volScalarField;
    location    "20.00000000";
    object      CH3COCH2_0;
}
// * * * * * * * * * * * * * * * * * * * * * * * * * * * * * * * * * * * * * //

dimensions      [0 0 0 0 0 0 0];

internalField   nonuniform List<scalar> 
3000
(
3.658637214e-24
4.109700765e-24
4.790335985e-24
5.697307349e-24
6.821359328e-24
8.131918876e-24
9.549987601e-24
1.09029883e-23
1.185960565e-23
1.373539673e-23
1.54909181e-23
1.813876057e-23
2.167487595e-23
2.609553999e-23
3.137601223e-23
3.74243405e-23
4.39357711e-23
4.970309174e-23
3.07640611e-23
3.496817707e-23
4.136965281e-23
5.006070622e-23
6.119675184e-23
7.493815852e-23
9.122914462e-23
1.091548695e-22
1.244711629e-22
5.859067359e-23
6.729430743e-23
8.074124299e-23
9.938524307e-23
1.238845505e-22
1.54858039e-22
1.921308981e-22
2.327139965e-22
2.65451469e-22
1.040280703e-22
1.209462456e-22
1.474959677e-22
1.850237639e-22
2.352910225e-22
2.997005351e-22
3.771640366e-22
4.593843187e-22
5.224002788e-22
1.788588992e-22
2.106063553e-22
2.611424431e-22
3.336899579e-22
4.32116647e-22
5.589001151e-22
7.102623412e-22
8.671487785e-22
9.833225046e-22
3.036029223e-22
3.619101352e-22
4.558059903e-22
5.921213741e-22
7.7844355e-22
1.018477022e-21
1.302299016e-21
1.590680209e-21
1.798783167e-21
5.137715877e-22
6.19281975e-22
7.90703211e-22
1.041493671e-21
1.385633984e-21
1.828077724e-21
2.346631584e-21
2.865826402e-21
3.234220343e-21
8.709604563e-22
1.059895146e-21
1.368838905e-21
1.823114604e-21
2.44759257e-21
3.248280579e-21
4.179970715e-21
5.10314399e-21
5.75099069e-21
1.481999652e-21
1.817729659e-21
2.369218947e-21
3.182751571e-21
4.301773668e-21
5.732812704e-21
7.388832197e-21
9.017803986e-21
1.015257845e-20
2.532427783e-21
3.125692745e-21
4.103297487e-21
5.548292366e-21
7.53590897e-21
1.007202209e-20
1.299486979e-20
1.585558613e-20
1.78388315e-20
4.344755963e-21
5.388959006e-21
7.113346972e-21
9.665228288e-21
1.317437931e-20
1.764355941e-20
2.27787e-20
2.778756084e-20
3.124973298e-20
7.47998916e-21
9.312946425e-21
1.234438779e-20
1.683380146e-20
2.300472463e-20
3.085143159e-20
3.984625847e-20
4.860002817e-20
5.464380334e-20
1.291393127e-20
1.612577e-20
2.144359211e-20
2.932320444e-20
4.015023526e-20
5.389921242e-20
6.962854169e-20
8.491217418e-20
9.547483369e-20
2.234206984e-20
2.796278197e-20
3.727791522e-20
5.108916204e-20
7.006829145e-20
9.4156056e-20
1.216804506e-19
1.483901949e-19
1.668634418e-19
3.870494991e-20
4.85271297e-20
6.481882312e-20
8.899229616e-20
1.222358216e-19
1.644697026e-19
2.127905156e-19
2.596556501e-19
2.917699033e-19
6.709593803e-20
8.422793729e-20
1.126556913e-19
1.548429463e-19
2.128444425e-19
2.864727429e-19
3.705889342e-19
4.520234291e-19
5.078182108e-19
1.163426516e-19
1.461738143e-19
1.956811329e-19
2.691433651e-19
3.700991985e-19
4.981537029e-19
6.443019143e-19
7.856755805e-19
8.82545656e-19
2.017569991e-19
2.536392135e-19
3.397486433e-19
4.675117644e-19
6.430404423e-19
8.655853337e-19
1.11944806e-18
1.364916298e-18
1.533078677e-18
3.499103714e-19
4.400796682e-19
5.897451025e-19
8.118004697e-19
1.116826749e-18
1.503459542e-18
1.94437192e-18
2.37058172e-18
2.662499165e-18
6.069232509e-19
7.635719885e-19
1.023599699e-18
1.409396019e-18
1.939297704e-18
2.610856777e-18
3.376527653e-18
4.116489853e-18
4.623208214e-18
1.052857428e-18
1.324940205e-18
1.776606651e-18
2.446731988e-18
3.367101711e-18
4.533349315e-18
5.8627778e-18
7.147310602e-18
8.026781706e-18
1.82670369e-18
2.29922568e-18
3.083652304e-18
4.247464401e-18
5.845751635e-18
7.870744191e-18
1.017865621e-17
1.24081994e-17
1.393448321e-17
3.169764845e-18
3.990324783e-18
5.352521837e-18
7.373439584e-18
1.014850542e-17
1.366388105e-17
1.766961664e-17
2.153855742e-17
2.418675006e-17
5.500955711e-18
6.925818124e-18
9.291110686e-18
1.279986432e-17
1.761723959e-17
2.371847613e-17
3.066906458e-17
3.738060008e-17
4.197348445e-17
9.54746621e-18
1.202151243e-17
1.612810926e-17
2.22190665e-17
3.057989187e-17
4.116595391e-17
5.322176839e-17
6.485905304e-17
7.282042135e-17
1.657137908e-17
2.086680169e-17
2.799562844e-17
3.856685336e-17
5.307313443e-17
7.143322185e-17
9.233320473e-17
1.124984879e-16
1.262884668e-16
2.876226018e-17
3.62189245e-17
4.859161934e-17
6.693309999e-17
9.209137104e-17
1.239165985e-16
1.601227561e-16
1.950343904e-16
2.188949686e-16
4.99164022e-17
6.285788909e-17
8.432499597e-17
1.161343051e-16
1.597406111e-16
2.148633214e-16
2.775228453e-16
3.378903075e-16
3.79115866e-16
8.660984075e-17
1.090622867e-16
1.46290768e-16
2.014223497e-16
2.769416776e-16
3.723144086e-16
4.806082406e-16
5.848195817e-16
6.559083483e-16
1.502191436e-16
1.891501453e-16
2.53666639e-16
3.491345169e-16
4.797723697e-16
6.445455058e-16
8.313699912e-16
1.010873286e-15
1.133141823e-15
2.603919227e-16
3.278386654e-16
4.395319928e-16
6.04641638e-16
8.302754276e-16
1.114399462e-15
1.435937603e-15
1.744250902e-15
1.953848909e-15
4.509842445e-16
5.676933454e-16
7.607896033e-16
1.045860467e-15
1.434763951e-15
1.923454082e-15
2.47515924e-15
3.002805523e-15
3.360613191e-15
7.80171181e-16
9.817902217e-16
1.314984682e-15
1.806074723e-15
2.474594845e-15
3.31243428e-15
4.255448159e-15
5.15442491e-15
5.762130807e-15
1.347567831e-15
1.69510649e-15
2.268617329e-15
3.112173987e-15
4.257444974e-15
5.688124376e-15
7.292421899e-15
8.815765926e-15
9.841613679e-15
2.323031201e-15
2.920391352e-15
3.904408282e-15
5.348130667e-15
7.301865406e-15
9.732901463e-15
1.244680832e-14
1.501164248e-14
1.673103035e-14
3.994739163e-15
5.017801318e-15
6.699439412e-15
9.159227306e-15
1.24750423e-14
1.658172156e-14
2.114227145e-14
2.542871702e-14
2.828720437e-14
6.848729361e-15
8.593047564e-15
1.145287357e-14
1.562103842e-14
2.121416479e-14
2.81039284e-14
3.570927376e-14
4.281315218e-14
4.752270165e-14
1.169912163e-14
1.465704441e-14
1.949196841e-14
2.650941e-14
3.587655641e-14
4.734459883e-14
5.991886493e-14
7.158366519e-14
7.926746686e-14
1.989880686e-14
2.488212613e-14
3.299934399e-14
4.47245544e-14
6.028347568e-14
7.920282213e-14
9.979582135e-14
1.187595099e-13
1.311669709e-13
3.367587184e-14
4.200706879e-14
5.552388966e-14
7.494432607e-14
1.005469887e-13
1.314513421e-13
1.64830247e-13
1.95335355e-13
2.151572523e-13
5.666345567e-14
7.046699523e-14
9.27630655e-14
1.24608196e-13
1.662960852e-13
2.162285068e-13
2.697331554e-13
3.182622182e-13
3.495858962e-13
9.472368653e-14
1.173575456e-13
1.537368517e-13
2.053627115e-13
2.724408941e-13
3.521462515e-13
4.368826643e-13
5.131844308e-13
5.621333846e-13
1.572179887e-13
1.938927232e-13
2.525181816e-13
3.351311239e-13
4.416220744e-13
5.671287264e-13
6.995285543e-13
8.179506726e-13
8.935201613e-13
2.589664851e-13
3.176031294e-13
4.107606659e-13
5.410171044e-13
7.074802748e-13
9.019788136e-13
1.105546947e-12
1.286448664e-12
1.401361253e-12
4.233142539e-13
5.156974464e-13
6.614292348e-13
8.633714517e-13
1.11888055e-12
1.414422194e-12
1.720862099e-12
1.991052409e-12
2.161737494e-12
6.870676424e-13
8.303781569e-13
1.05452132e-12
1.36169458e-12
1.745390833e-12
2.183068009e-12
2.630383717e-12
3.019210727e-12
3.261768297e-12
1.108686099e-12
1.327596047e-12
1.666347207e-12
2.123872906e-12
2.684991612e-12
3.31076556e-12
3.932778328e-12
4.455382321e-12
4.768924006e-12
1.781988647e-12
2.111706767e-12
2.615072299e-12
3.281555327e-12
4.07639555e-12
4.928040779e-12
5.725813762e-12
6.338368605e-12
6.659507179e-12
2.858130262e-12
3.348882896e-12
4.085437474e-12
5.034491838e-12
6.118460183e-12
7.19885845e-12
8.086096613e-12
8.604469415e-12
8.727425939e-12
4.576517216e-12
5.298896457e-12
6.360315196e-12
7.67848527e-12
9.088338612e-12
1.032254928e-11
1.105841701e-11
1.109197106e-11
1.063518903e-11
7.295586312e-12
8.341424425e-12
9.836717855e-12
1.160173765e-11
1.330935339e-11
1.448302979e-11
1.465218514e-11
1.371652264e-11
1.235139861e-11
1.148880268e-11
1.295082383e-11
1.496130104e-11
1.715999053e-11
1.89603696e-11
1.964996608e-11
1.878502588e-11
1.670761962e-11
1.459777471e-11
1.762480996e-11
1.952493539e-11
2.197793771e-11
2.43312655e-11
2.56960483e-11
2.53258382e-11
2.328376333e-11
2.055122129e-11
1.830337023e-11
2.581559888e-11
2.797144584e-11
3.045967486e-11
3.229343474e-11
3.250046622e-11
3.085883085e-11
2.822265556e-11
2.563096119e-11
2.367814996e-11
3.526351076e-11
3.721531777e-11
3.903294732e-11
3.965150806e-11
3.85806107e-11
3.639200454e-11
3.402179825e-11
3.181556347e-11
2.990706094e-11
4.415707618e-11
4.547558726e-11
4.629959107e-11
4.596857793e-11
4.462141484e-11
4.286199394e-11
4.086277959e-11
3.829596732e-11
3.555662969e-11
5.126019546e-11
5.22239079e-11
5.282554472e-11
5.276551852e-11
5.212475236e-11
5.079300829e-11
4.815520144e-11
4.396869342e-11
3.971845265e-11
5.817188247e-11
5.959864212e-11
6.097910201e-11
6.183420612e-11
6.162216334e-11
5.945791036e-11
5.473151088e-11
4.826478744e-11
4.259855022e-11
6.794972531e-11
7.011274128e-11
7.223858342e-11
7.325560741e-11
7.19157494e-11
6.731132874e-11
5.988091615e-11
5.150217835e-11
4.495013841e-11
8.167139518e-11
8.395019057e-11
8.562551364e-11
8.505476755e-11
8.098892266e-11
7.345880841e-11
6.391841203e-11
5.444617169e-11
4.74987995e-11
9.726560395e-11
9.849076744e-11
9.818298674e-11
9.480560504e-11
8.787974923e-11
7.829829224e-11
6.771139877e-11
5.786121735e-11
5.083344988e-11
1.107437601e-10
1.102002429e-10
1.075079058e-10
1.017718721e-10
9.319098829e-11
8.285748438e-11
7.214304936e-11
6.240238424e-11
5.547579882e-11
1.195810127e-10
1.176863069e-10
1.135876605e-10
1.069294358e-10
9.813611099e-11
8.813725818e-11
7.795579532e-11
6.866618452e-11
6.197461414e-11
1.242976607e-10
1.220452835e-10
1.178779676e-10
1.116652591e-10
1.037923026e-10
9.491759707e-11
8.578508437e-11
7.726889168e-11
7.097014552e-11
1.267853909e-10
1.250404908e-10
1.218421036e-10
1.170620354e-10
1.109058341e-10
1.037928461e-10
9.622784407e-11
8.888887888e-11
8.322397465e-11
1.286717505e-10
1.280077765e-10
1.26448383e-10
1.237620813e-10
1.199655745e-10
1.152461655e-10
1.098693397e-10
1.042647086e-10
9.960365893e-11
1.309354121e-10
1.316867997e-10
1.322068931e-10
1.321357782e-10
1.313062947e-10
1.296828655e-10
1.272666673e-10
1.241431836e-10
1.210116889e-10
1.340738607e-10
1.364650506e-10
1.394014309e-10
1.42410917e-10
1.451692434e-10
1.474301622e-10
1.488944302e-10
1.491797171e-10
1.482568774e-10
1.384075506e-10
1.426058682e-10
1.482409601e-10
1.547656508e-10
1.61737476e-10
1.687168652e-10
1.750679615e-10
1.798073795e-10
1.818846997e-10
1.442551678e-10
1.503911381e-10
1.589624435e-10
1.693900795e-10
1.811558954e-10
1.936484669e-10
2.058674487e-10
2.161075087e-10
2.220062596e-10
1.520345627e-10
1.602019101e-10
1.718878163e-10
1.865195599e-10
2.035407139e-10
2.221901059e-10
2.410894298e-10
2.577255202e-10
2.681828774e-10
1.622930718e-10
1.725380251e-10
1.874325076e-10
2.06434908e-10
2.289757653e-10
2.541635576e-10
2.802475257e-10
3.038748947e-10
3.194292968e-10
1.756692405e-10
1.879754715e-10
2.06061014e-10
2.294233556e-10
2.574907649e-10
2.892590927e-10
3.226368553e-10
3.534709193e-10
3.744102181e-10
1.927937468e-10
2.070678744e-10
2.281944363e-10
2.55703615e-10
2.890232442e-10
3.270642702e-10
3.674773696e-10
4.054696568e-10
4.321929046e-10
2.141527301e-10
2.302155079e-10
2.540932276e-10
2.853367509e-10
3.233811354e-10
3.671155166e-10
4.14109429e-10
4.593552566e-10
4.9210779e-10
2.399536442e-10
2.575431423e-10
2.83758244e-10
3.18168055e-10
3.602555426e-10
4.090217628e-10
4.623241992e-10
5.142511549e-10
5.51858519e-10
2.700439428e-10
2.888395863e-10
3.169100357e-10
3.538696619e-10
3.993752244e-10
4.528732946e-10
5.114221613e-10
5.681252563e-10
6.093716815e-10
3.039427155e-10
3.236251173e-10
3.531235015e-10
3.92188101e-10
4.410049359e-10
4.978791464e-10
5.595799786e-10
6.1925703e-10
6.63009295e-10
3.410809135e-10
3.614723694e-10
3.924660128e-10
4.335107634e-10
4.839510903e-10
5.422465943e-10
6.05177349e-10
6.659902278e-10
7.107732221e-10
3.81732143e-10
4.027969681e-10
4.343559696e-10
4.758218776e-10
5.263661215e-10
5.844239929e-10
6.468398697e-10
7.07086188e-10
7.515928997e-10
4.245474109e-10
4.454771004e-10
4.766469682e-10
5.173644668e-10
5.666951123e-10
6.230492567e-10
6.833894873e-10
7.415453029e-10
7.846058371e-10
4.673962874e-10
4.87620794e-10
5.176159252e-10
5.566002802e-10
6.035676084e-10
6.569376929e-10
7.138520313e-10
7.686131407e-10
8.092294884e-10
5.085733261e-10
5.276252674e-10
5.557741628e-10
5.921789754e-10
6.357984101e-10
6.851063639e-10
7.374825999e-10
7.877958803e-10
8.251704976e-10
5.466172259e-10
5.641009762e-10
5.898344451e-10
6.229510567e-10
6.624158125e-10
7.068039927e-10
7.537860776e-10
7.988647002e-10
8.324125008e-10
5.802790406e-10
5.958694447e-10
6.187263458e-10
6.479947181e-10
6.826891803e-10
7.215316184e-10
7.625252426e-10
8.018479473e-10
8.311929527e-10
6.085356795e-10
6.219836953e-10
6.416198023e-10
6.66638319e-10
6.961454889e-10
7.290493843e-10
7.637151769e-10
7.970118185e-10
8.219713392e-10
6.306101836e-10
6.417479695e-10
6.579418997e-10
6.78471527e-10
7.025723263e-10
7.293696457e-10
7.576053239e-10
7.848299615e-10
8.053846436e-10
6.459852725e-10
6.547281971e-10
6.673822447e-10
6.833437929e-10
7.020083619e-10
7.227394285e-10
7.446545895e-10
7.659473349e-10
7.821615216e-10
6.544060606e-10
6.607508894e-10
6.698862551e-10
6.813508301e-10
6.947230622e-10
7.096166138e-10
7.255178482e-10
7.412320063e-10
7.534583579e-10
6.558713256e-10
6.598905558e-10
6.656370777e-10
6.728096569e-10
6.81182989e-10
6.906216058e-10
7.009592187e-10
7.115558818e-10
7.201474215e-10
6.506141771e-10
6.524470201e-10
6.550284188e-10
6.582266001e-10
6.620159778e-10
6.665020639e-10
6.718337388e-10
6.778574677e-10
6.832134093e-10
6.390736079e-10
6.389143232e-10
6.386300779e-10
6.382594618e-10
6.379707926e-10
6.380917229e-10
6.39046734e-10
6.410951814e-10
6.436454757e-10
6.218586844e-10
6.199429749e-10
6.171477887e-10
6.136749544e-10
6.098724814e-10
6.062638673e-10
6.035044829e-10
6.021917742e-10
6.023680607e-10
5.997065442e-10
5.962963531e-10
5.91377382e-10
5.852999681e-10
5.785696758e-10
5.718724651e-10
5.660443175e-10
5.619496814e-10
5.601481781e-10
5.734316329e-10
5.687972893e-10
5.621464572e-10
5.539546673e-10
5.448534079e-10
5.356475407e-10
5.273103763e-10
5.209160169e-10
5.172929914e-10
5.438478457e-10
5.382426571e-10
5.302124146e-10
5.203177055e-10
5.09304249e-10
4.979879913e-10
4.873281292e-10
4.78922962e-10
4.741194294e-10
5.115812178e-10
5.052190665e-10
4.960790752e-10
4.845926916e-10
4.718612524e-10
4.589867482e-10
4.471736611e-10
4.37811442e-10
4.323611224e-10
4.765359491e-10
4.695062887e-10
4.595265337e-10
4.473588094e-10
4.33998826e-10
4.205589571e-10
4.082627306e-10
3.984637093e-10
3.926756216e-10
4.40132783e-10
4.329425513e-10
4.227851728e-10
4.104917635e-10
3.970431037e-10
3.83534871e-10
3.711655346e-10
3.612587524e-10
3.553437594e-10
4.040343349e-10
3.969236943e-10
3.869006646e-10
3.748011305e-10
3.615865969e-10
3.483205063e-10
3.361584033e-10
3.263794229e-10
3.204945701e-10
3.690013475e-10
3.621087821e-10
3.524054291e-10
3.407083213e-10
3.279470661e-10
3.151406677e-10
3.033895958e-10
2.939139623e-10
2.881786182e-10
3.35459278e-10
3.288761925e-10
3.196173442e-10
3.08468115e-10
2.96315727e-10
2.84125417e-10
2.729337513e-10
2.638907337e-10
2.583938753e-10
3.036822565e-10
2.974712523e-10
2.88742848e-10
2.782423172e-10
2.668068084e-10
2.553411988e-10
2.448122808e-10
2.362925864e-10
2.310974645e-10
2.738531418e-10
2.680551023e-10
2.59912952e-10
2.501260941e-10
2.394764152e-10
2.288043346e-10
2.190036508e-10
2.110654042e-10
2.062134756e-10
2.460852023e-10
2.407231695e-10
2.331981484e-10
2.241600433e-10
2.143324738e-10
2.044894842e-10
1.954509232e-10
1.881251151e-10
1.836397165e-10
2.204329816e-10
2.155151949e-10
2.086175134e-10
2.003385265e-10
1.913424525e-10
1.823368814e-10
1.740686024e-10
1.673642233e-10
1.632540327e-10
1.969007528e-10
1.924234509e-10
1.861466355e-10
1.786172896e-10
1.704406516e-10
1.622592609e-10
1.547491752e-10
1.486579746e-10
1.449201987e-10
1.754507504e-10
1.71400814e-10
1.657254485e-10
1.589209792e-10
1.515353227e-10
1.441485125e-10
1.373692639e-10
1.318700354e-10
1.284932561e-10
1.560114406e-10
1.523688202e-10
1.472659634e-10
1.411504453e-10
1.345154524e-10
1.278818836e-10
1.217952288e-10
1.168575443e-10
1.138241842e-10
1.384855633e-10
1.352254298e-10
1.306596233e-10
1.251895745e-10
1.192569881e-10
1.133275477e-10
1.07888082e-10
1.034754456e-10
1.00763837e-10
1.227576157e-10
1.198521917e-10
1.157840092e-10
1.109114254e-10
1.056283266e-10
1.003494145e-10
9.550763627e-11
9.158006257e-11
8.916613316e-11
1.087005151e-10
1.061205758e-10
1.025087027e-10
9.81835172e-11
9.349496513e-11
8.881112266e-11
8.451586964e-11
8.103192267e-11
7.889052386e-11
9.618128741e-11
9.38973429e-11
9.070020612e-11
8.687220752e-11
8.272328395e-11
7.857921698e-11
7.477953069e-11
7.169787864e-11
6.980379714e-11
8.506572436e-11
8.304890938e-11
8.022590006e-11
7.684616248e-11
7.318348724e-11
6.952555641e-11
6.617204829e-11
6.345259913e-11
6.178129581e-11
7.52220315e-11
7.344474166e-11
7.095708448e-11
6.797897811e-11
6.475177187e-11
6.152902976e-11
5.857482818e-11
5.617951524e-11
5.470763643e-11
6.652354431e-11
6.495985871e-11
6.27711863e-11
6.01510405e-11
5.73118171e-11
5.447668038e-11
5.187803223e-11
4.977131122e-11
4.847701761e-11
5.885063164e-11
5.747656706e-11
5.555326024e-11
5.325074713e-11
5.075570231e-11
4.826431594e-11
4.598092345e-11
4.413005526e-11
4.299320917e-11
5.209190679e-11
5.088553507e-11
4.919687508e-11
4.717517576e-11
4.498435164e-11
4.27967437e-11
4.079189526e-11
3.916705432e-11
3.816929633e-11
4.614487288e-11
4.508633913e-11
4.36045257e-11
4.183034123e-11
3.990762513e-11
3.798769255e-11
3.622824301e-11
3.480250214e-11
3.392724855e-11
4.091614049e-11
3.998761189e-11
3.868768562e-11
3.713113399e-11
3.544413562e-11
3.375951224e-11
3.221575725e-11
3.096498661e-11
3.019737187e-11
3.632131955e-11
3.550688509e-11
3.436658273e-11
3.300101963e-11
3.152086967e-11
3.004271838e-11
2.868819997e-11
2.759090922e-11
2.691769161e-11
3.228467722e-11
3.157021805e-11
3.056978802e-11
2.937158127e-11
2.807268154e-11
2.677544018e-11
2.558671072e-11
2.46238572e-11
2.403330256e-11
2.87386425e-11
2.811168594e-11
2.72336821e-11
2.61819617e-11
2.504171079e-11
2.39028147e-11
2.285918042e-11
2.201396048e-11
2.149571471e-11
2.562321692e-11
2.507278459e-11
2.430185224e-11
2.337825231e-11
2.237676358e-11
2.137636182e-11
2.045962086e-11
1.971725681e-11
1.926221522e-11
2.288533872e-11
2.240179566e-11
2.172445973e-11
2.091286374e-11
2.003268784e-11
1.915336453e-11
1.834755033e-11
1.769508156e-11
1.72952604e-11
2.047823493e-11
2.005314481e-11
1.94576067e-11
1.874390362e-11
1.796976338e-11
1.719627209e-11
1.648740889e-11
1.591349301e-11
1.556190702e-11
1.836078616e-11
1.798677532e-11
1.746272255e-11
1.683457874e-11
1.615312152e-11
1.547213732e-11
1.484801234e-11
1.434273974e-11
1.403328771e-11
1.649692047e-11
1.616755279e-11
1.570598375e-11
1.515263302e-11
1.455220316e-11
1.395209508e-11
1.340204933e-11
1.295677303e-11
1.268413287e-11
1.485504692e-11
1.456470998e-11
1.415777473e-11
1.36698279e-11
1.314026022e-11
1.261088494e-11
1.212562378e-11
1.173280532e-11
1.149233881e-11
1.340753426e-11
1.315133705e-11
1.279219423e-11
1.236146796e-11
1.189390246e-11
1.142641912e-11
1.09978423e-11
1.065091341e-11
1.043858084e-11
1.213023719e-11
1.190391889e-11
1.158660822e-11
1.120597253e-11
1.079268927e-11
1.037939468e-11
1.000044499e-11
9.693684576e-12
9.505968672e-12
1.100206996e-11
1.08019192e-11
1.052124858e-11
1.01844919e-11
9.818764932e-12
9.452947722e-12
9.11747722e-12
8.8459025e-12
8.679741206e-12
1.00046257e-11
9.827409426e-12
9.578855516e-12
9.280565881e-12
8.956534672e-12
8.632346956e-12
8.33499921e-12
8.094269984e-12
7.946997287e-12
9.121838615e-12
8.964739741e-12
8.744360839e-12
8.479821711e-12
8.192378424e-12
7.904723319e-12
7.640830216e-12
7.427164959e-12
7.29645906e-12
8.33968588e-12
8.200248795e-12
8.004608666e-12
7.769707929e-12
7.51439894e-12
7.258832292e-12
7.024323908e-12
6.834426495e-12
6.718264544e-12
7.645925535e-12
7.522008631e-12
7.348110149e-12
7.13926079e-12
6.912200868e-12
6.684845624e-12
6.47617169e-12
6.307167565e-12
6.20378624e-12
7.029866898e-12
6.919601273e-12
6.764828705e-12
6.578899838e-12
6.376697507e-12
6.174169245e-12
5.988230853e-12
5.837611536e-12
5.745472778e-12
6.482169929e-12
6.383923534e-12
6.245992424e-12
6.080249389e-12
5.899942118e-12
5.719284375e-12
5.553374692e-12
5.418949599e-12
5.33671088e-12
5.99467027e-12
5.907016815e-12
5.783930523e-12
5.635982927e-12
5.474980902e-12
5.313609087e-12
5.165361919e-12
5.045216592e-12
4.971705138e-12
5.56022693e-12
5.481918933e-12
5.371930955e-12
5.239687643e-12
5.095725034e-12
4.951377801e-12
4.818723026e-12
4.711182934e-12
4.645373397e-12
5.17258981e-12
5.102535257e-12
5.004116593e-12
4.885746623e-12
4.756839363e-12
4.627536485e-12
4.508661435e-12
4.412260623e-12
4.353255755e-12
4.826284605e-12
4.763526729e-12
4.675337612e-12
4.569236465e-12
4.453645668e-12
4.337651542e-12
4.23096756e-12
4.144421498e-12
4.091435424e-12
4.516512834e-12
4.460212607e-12
4.381078023e-12
4.285838321e-12
4.182038596e-12
4.077830631e-12
3.981944095e-12
3.904126173e-12
3.856469904e-12
4.239065048e-12
4.188486013e-12
4.117374485e-12
4.03176063e-12
3.938412624e-12
3.844653848e-12
3.758341073e-12
3.688262237e-12
3.645331141e-12
3.990245478e-12
3.944740604e-12
3.880745811e-12
3.803671994e-12
3.719598596e-12
3.635113911e-12
3.557299398e-12
3.494090507e-12
3.455353451e-12
3.766806601e-12
3.725806887e-12
3.668131725e-12
3.59864287e-12
3.522808571e-12
3.446564164e-12
3.376301732e-12
3.319198272e-12
3.284188215e-12
3.56589232e-12
3.528896911e-12
3.476839665e-12
3.414094881e-12
3.345587867e-12
3.276673344e-12
3.213129774e-12
3.161458587e-12
3.129764432e-12
3.384988587e-12
3.351556191e-12
3.304498531e-12
3.247756755e-12
3.185773358e-12
3.123386234e-12
3.065827057e-12
3.018994836e-12
2.990254357e-12
3.221880489e-12
3.191621924e-12
3.149018474e-12
3.097625992e-12
3.041457183e-12
2.9848894e-12
2.932666556e-12
2.890149848e-12
2.864043551e-12
3.074614916e-12
3.047186629e-12
3.0085559e-12
2.961935501e-12
2.910955138e-12
2.859581347e-12
2.812122458e-12
2.773458971e-12
2.749704764e-12
2.941468077e-12
2.916566504e-12
2.881483006e-12
2.839124536e-12
2.792779143e-12
2.746046506e-12
2.702845531e-12
2.667626583e-12
2.645975137e-12
2.820917205e-12
2.798273862e-12
2.766361231e-12
2.727813372e-12
2.685613233e-12
2.643032535e-12
2.603641647e-12
2.571505577e-12
2.551736295e-12
2.711615902e-12
2.690993105e-12
2.661918111e-12
2.626781214e-12
2.588292609e-12
2.549430517e-12
2.513453008e-12
2.484079448e-12
2.465996952e-12
2.612372628e-12
2.59355976e-12
2.567027084e-12
2.534946914e-12
2.499785345e-12
2.464257649e-12
2.43134175e-12
2.404446621e-12
2.387877689e-12
2.522131933e-12
2.504942183e-12
2.480689857e-12
2.451352128e-12
2.419176405e-12
2.386642116e-12
2.356475596e-12
2.331806745e-12
2.316597638e-12
2.439958059e-12
2.424225574e-12
2.402020988e-12
2.375146594e-12
2.345653664e-12
2.315809857e-12
2.288115304e-12
2.265448688e-12
2.251462818e-12
2.365020602e-12
2.350597997e-12
2.330234412e-12
2.305575251e-12
2.278495672e-12
2.251072972e-12
2.225603666e-12
2.204740017e-12
2.191855907e-12
2.296581971e-12
2.283338145e-12
2.264631643e-12
2.241966957e-12
2.217060941e-12
2.191819572e-12
2.168355869e-12
2.149117773e-12
2.137227274e-12
2.233986406e-12
2.221804632e-12
2.204591437e-12
2.18372461e-12
2.160778547e-12
2.137504873e-12
2.115851038e-12
2.098080379e-12
2.087087107e-12
2.176650354e-12
2.165426602e-12
2.149560733e-12
2.130316481e-12
2.109139899e-12
2.08764338e-12
2.067624812e-12
2.051180527e-12
2.040998491e-12
2.124054025e-12
2.113695494e-12
2.099046705e-12
2.081268609e-12
2.061691498e-12
2.041802029e-12
2.023262817e-12
2.008018931e-12
1.998571334e-12
2.07573399e-12
2.066157812e-12
2.052609785e-12
2.036158122e-12
2.018028587e-12
1.999594151e-12
1.982394939e-12
1.968238831e-12
1.959457014e-12
2.03127667e-12
2.022408778e-12
2.009857527e-12
1.994607368e-12
1.977789562e-12
1.960674173e-12
1.944690271e-12
1.931521155e-12
1.923343671e-12
1.990312619e-12
1.982086743e-12
1.970439219e-12
1.95627875e-12
1.940651059e-12
1.924732947e-12
1.909852673e-12
1.897580265e-12
1.889952062e-12
1.95251149e-12
1.944868282e-12
1.934041139e-12
1.920870181e-12
1.906323622e-12
1.891493636e-12
1.877616859e-12
1.866160194e-12
1.859031897e-12
1.91757761e-12
1.910463864e-12
1.90038237e-12
1.888111084e-12
1.874547895e-12
1.860708096e-12
1.847744947e-12
1.837031342e-12
1.830358621e-12
1.885246075e-12
1.878614046e-12
1.869211128e-12
1.85775886e-12
1.845091256e-12
1.832153676e-12
1.820023412e-12
1.809987551e-12
1.803730563e-12
1.85527931e-12
1.849086108e-12
1.840301506e-12
1.829595781e-12
1.817744853e-12
1.805630396e-12
1.7942604e-12
1.784843524e-12
1.778966421e-12
1.827464036e-12
1.821671096e-12
1.813450614e-12
1.803426234e-12
1.792320981e-12
1.780958459e-12
1.770283353e-12
1.761432549e-12
1.755903041e-12
1.801608587e-12
1.796181197e-12
1.788476045e-12
1.779074304e-12
1.768650774e-12
1.757976046e-12
1.747936909e-12
1.739604477e-12
1.734393451e-12
1.777540548e-12
1.77244743e-12
1.76521364e-12
1.75638162e-12
1.746582152e-12
1.736537371e-12
1.727081046e-12
1.719223941e-12
1.71430512e-12
1.755104654e-12
1.750317599e-12
1.743515508e-12
1.73520546e-12
1.725978015e-12
1.716510954e-12
1.707589437e-12
1.700168777e-12
1.695518419e-12
1.734160941e-12
1.72965448e-12
1.723248273e-12
1.715417072e-12
1.706714633e-12
1.697778098e-12
1.689347994e-12
1.68232862e-12
1.677925253e-12
1.7145831e-12
1.710334216e-12
1.70429152e-12
1.696900179e-12
1.688680229e-12
1.680231527e-12
1.672253573e-12
1.665603664e-12
1.661427852e-12
1.696257021e-12
1.692244893e-12
1.686536419e-12
1.679549654e-12
1.671773708e-12
1.663774186e-12
1.656212821e-12
1.649903554e-12
1.645937688e-12
1.679079492e-12
1.675285268e-12
1.66988449e-12
1.663270343e-12
1.655903534e-12
1.648318163e-12
1.641141158e-12
1.635146402e-12
1.631374515e-12
1.662957047e-12
1.659363639e-12
1.654246513e-12
1.647976009e-12
1.64098672e-12
1.63378373e-12
1.626961848e-12
1.621257897e-12
1.617665505e-12
1.647804925e-12
1.64439683e-12
1.639541541e-12
1.633588387e-12
1.62694792e-12
1.620098476e-12
1.613605175e-12
1.60817051e-12
1.604744465e-12
1.633546138e-12
1.630309278e-12
1.625696012e-12
1.620036325e-12
1.613718614e-12
1.607196515e-12
1.601007685e-12
1.59582276e-12
1.592551124e-12
1.620110627e-12
1.617032203e-12
1.612642944e-12
1.607255006e-12
1.601236346e-12
1.595017772e-12
1.589111493e-12
1.584158541e-12
1.581030468e-12
1.607434488e-12
1.604502846e-12
1.60032119e-12
1.595185228e-12
1.589444034e-12
1.583507298e-12
1.577863617e-12
1.573126478e-12
1.570132111e-12
1.595459253e-12
1.592663764e-12
1.588674749e-12
1.583772724e-12
1.578289311e-12
1.572614632e-12
1.567215363e-12
1.562679315e-12
1.559809684e-12
1.58413122e-12
1.581462164e-12
1.577652108e-12
1.572967524e-12
1.567723885e-12
1.56229318e-12
1.5571217e-12
1.5527733e-12
1.550020227e-12
1.573400811e-12
1.570849269e-12
1.567205612e-12
1.562723326e-12
1.55770293e-12
1.552499594e-12
1.547540648e-12
1.543367572e-12
1.540723572e-12
1.563221954e-12
1.560779698e-12
1.55729085e-12
1.552996881e-12
1.548184462e-12
1.543193157e-12
1.538432654e-12
1.534423526e-12
1.531881702e-12
1.553551474e-12
1.551210859e-12
1.547866045e-12
1.543747382e-12
1.539128718e-12
1.534335144e-12
1.529759942e-12
1.525904155e-12
1.523458086e-12
1.544348491e-12
1.54210234e-12
1.538891435e-12
1.534935836e-12
1.530497522e-12
1.525888177e-12
1.521485846e-12
1.517773359e-12
1.51541697e-12
1.535573816e-12
1.533415306e-12
1.530328664e-12
1.526524438e-12
1.522253639e-12
1.517815552e-12
1.513574116e-12
1.509995232e-12
1.507722654e-12
1.527189352e-12
1.525111882e-12
1.522140155e-12
1.518475934e-12
1.514360115e-12
1.510080561e-12
1.505988212e-12
1.502533328e-12
1.500338731e-12
1.519157487e-12
1.517154552e-12
1.514288491e-12
1.51075298e-12
1.506779619e-12
1.502645803e-12
1.49869059e-12
1.495349924e-12
1.49322734e-12
1.511440508e-12
1.509505552e-12
1.506735805e-12
1.50331752e-12
1.499473799e-12
1.495472525e-12
1.491642014e-12
1.488405304e-12
1.486348428e-12
1.504000024e-12
1.502126298e-12
1.499443192e-12
1.496130185e-12
1.492402669e-12
1.488519982e-12
1.484800906e-12
1.4816571e-12
1.479659088e-12
1.496796429e-12
1.494976839e-12
1.492370164e-12
1.489149742e-12
1.485524051e-12
1.481744885e-12
1.478122782e-12
1.475059721e-12
1.473112981e-12
1.489788423e-12
1.488015383e-12
1.485474173e-12
1.482332626e-12
1.478793112e-12
1.47510094e-12
1.47155981e-12
1.468563928e-12
1.466659924e-12
1.482932597e-12
1.481197891e-12
1.478710224e-12
1.475632568e-12
1.472162022e-12
1.468538537e-12
1.465060528e-12
1.462116586e-12
1.460245682e-12
1.476183145e-12
1.474477804e-12
1.472030621e-12
1.469000373e-12
1.465579768e-12
1.46200462e-12
1.458569786e-12
1.455660677e-12
1.453812023e-12
1.469491686e-12
1.467805892e-12
1.46538486e-12
1.462383867e-12
1.458992174e-12
1.455442793e-12
1.452028936e-12
1.449135593e-12
1.447297103e-12
1.462807254e-12
1.461130274e-12
1.458719704e-12
1.455728056e-12
1.452342156e-12
1.448793685e-12
1.445376347e-12
1.442477787e-12
1.440636225e-12
1.45607647e-12
1.454396649e-12
1.451979482e-12
1.448975511e-12
1.445570237e-12
1.441995623e-12
1.438548244e-12
1.435621801e-12
1.433763019e-12
1.44924393e-12
1.447548729e-12
1.44510662e-12
1.442067031e-12
1.438615356e-12
1.434985633e-12
1.431479929e-12
1.428501712e-12
1.42661107e-12
1.442252814e-12
1.44052893e-12
1.438042428e-12
1.43494257e-12
1.431415986e-12
1.427700773e-12
1.424107372e-12
1.421052991e-12
1.419115995e-12
1.435045737e-12
1.433279296e-12
1.430728155e-12
1.427542455e-12
1.423911556e-12
1.420079812e-12
1.416369177e-12
1.413214774e-12
1.411217963e-12
1.427565841e-12
1.425742679e-12
1.423106299e-12
1.419808878e-12