/*--------------------------------*- C++ -*----------------------------------*\
| =========                 |                                                 |
| \\      /  F ield         | OpenFOAM: The Open Source CFD Toolbox           |
|  \\    /   O peration     | Version:  2212                                  |
|   \\  /    A nd           | Website:  www.openfoam.com                      |
|    \\/     M anipulation  |                                                 |
\*---------------------------------------------------------------------------*/
FoamFile
{
    version     2.0;
    format      ascii;
    arch        "LSB;label=32;scalar=64";
    class       volScalarField;
    location    "20.00000000";
    object      CH4;
}
// * * * * * * * * * * * * * * * * * * * * * * * * * * * * * * * * * * * * * //

dimensions      [0 0 0 0 0 0 0];

internalField   nonuniform List<scalar> 
3000
(
0.0004199879352
0.0004199879352
0.0004199879352
0.0004199879352
0.0004199879352
0.0004199879352
0.0004199879352
0.0004199879352
0.0004199879352
0.0004199879352
0.0004199879352
0.0004199879352
0.0004199879352
0.0004199879352
0.0004199879352
0.0004199879352
0.0004199879352
0.0004199879352
0.0004199879352
0.0004199879352
0.0004199879352
0.0004199879352
0.0004199879352
0.0004199879352
0.0004199879352
0.0004199879352
0.0004199879352
0.0004199879352
0.0004199879352
0.0004199879352
0.0004199879352
0.0004199879352
0.0004199879352
0.0004199879352
0.0004199879352
0.0004199879352
0.0004199879352
0.0004199879352
0.0004199879352
0.0004199879352
0.0004199879352
0.0004199879352
0.0004199879352
0.0004199879352
0.0004199879352
0.0004199879352
0.0004199879352
0.0004199879352
0.0004199879352
0.0004199879352
0.0004199879352
0.0004199879352
0.0004199879352
0.0004199879352
0.0004199879352
0.0004199879352
0.0004199879352
0.0004199879352
0.0004199879352
0.0004199879352
0.0004199879352
0.0004199879352
0.0004199879352
0.0004199879352
0.0004199879352
0.0004199879352
0.0004199879352
0.0004199879352
0.0004199879352
0.0004199879352
0.0004199879352
0.0004199879352
0.0004199879352
0.0004199879352
0.0004199879352
0.0004199879352
0.0004199879352
0.0004199879352
0.0004199879352
0.0004199879352
0.0004199879352
0.0004199879352
0.0004199879352
0.0004199879352
0.0004199879352
0.0004199879352
0.0004199879352
0.0004199879352
0.0004199879352
0.0004199879352
0.0004199879352
0.0004199879352
0.0004199879352
0.0004199879352
0.0004199879352
0.0004199879352
0.0004199879352
0.0004199879352
0.0004199879352
0.0004199879352
0.0004199879352
0.0004199879352
0.0004199879352
0.0004199879352
0.0004199879352
0.0004199879352
0.0004199879352
0.0004199879352
0.0004199879352
0.0004199879352
0.0004199879352
0.0004199879352
0.0004199879352
0.0004199879352
0.0004199879352
0.0004199879352
0.0004199879352
0.0004199879352
0.0004199879352
0.0004199879352
0.0004199879352
0.0004199879352
0.0004199879352
0.0004199879352
0.0004199879352
0.0004199879352
0.0004199879352
0.0004199879352
0.0004199879352
0.0004199879352
0.0004199879352
0.0004199879352
0.0004199879352
0.0004199879352
0.0004199879352
0.0004199879352
0.0004199879352
0.0004199879352
0.0004199879352
0.0004199879352
0.0004199879352
0.0004199879352
0.0004199879352
0.0004199879352
0.0004199879352
0.0004199879352
0.0004199879352
0.0004199879352
0.0004199879352
0.0004199879352
0.0004199879352
0.0004199879352
0.0004199879352
0.0004199879352
0.0004199879352
0.0004199879352
0.0004199879352
0.0004199879352
0.0004199879352
0.0004199879352
0.0004199879352
0.0004199879352
0.0004199879352
0.0004199879352
0.0004199879352
0.0004199879352
0.0004199879352
0.0004199879352
0.0004199879352
0.0004199879352
0.0004199879352
0.0004199879352
0.0004199879352
0.0004199879352
0.0004199879352
0.0004199879352
0.0004199879352
0.0004199879352
0.0004199879352
0.0004199879352
0.0004199879352
0.0004199879352
0.0004199879352
0.0004199879352
0.0004199879352
0.0004199879352
0.0004199879352
0.0004199879352
0.0004199879352
0.0004199879352
0.0004199879352
0.0004199879352
0.0004199879352
0.0004199879352
0.0004199879352
0.0004199879352
0.0004199879352
0.0004199879352
0.0004199879352
0.0004199879352
0.0004199879352
0.0004199879352
0.0004199879352
0.0004199879352
0.0004199879352
0.0004199879352
0.0004199879352
0.0004199879352
0.0004199879352
0.0004199879352
0.0004199879352
0.0004199879352
0.0004199879352
0.0004199879352
0.0004199879352
0.0004199879352
0.0004199879352
0.0004199879352
0.0004199879352
0.0004199879352
0.0004199879352
0.0004199879352
0.0004199879352
0.0004199879352
0.0004199879352
0.0004199879352
0.0004199879352
0.0004199879352
0.0004199879352
0.0004199879352
0.0004199879352
0.0004199879352
0.0004199879352
0.0004199879352
0.0004199879352
0.0004199879352
0.0004199879352
0.0004199879352
0.0004199879352
0.0004199879352
0.0004199879352
0.0004199879352
0.0004199879352
0.0004199879352
0.0004199879352
0.0004199879352
0.0004199879352
0.0004199879352
0.0004199879352
0.0004199879352
0.0004199879352
0.0004199879352
0.0004199879352
0.0004199879352
0.0004199879352
0.0004199879352
0.0004199879352
0.0004199879352
0.0004199879352
0.0004199879352
0.0004199879352
0.0004199879352
0.0004199879352
0.0004199879352
0.0004199879352
0.0004199879352
0.0004199879352
0.0004199879352
0.0004199879353
0.0004199879353
0.0004199879352
0.0004199879352
0.0004199879352
0.0004199879352
0.0004199879352
0.0004199879353
0.0004199879353
0.0004199879353
0.0004199879353
0.0004199879352
0.0004199879352
0.0004199879352
0.0004199879353
0.0004199879353
0.0004199879353
0.0004199879353
0.0004199879354
0.0004199879354
0.0004199879352
0.0004199879353
0.0004199879353
0.0004199879353
0.0004199879353
0.0004199879354
0.0004199879354
0.0004199879355
0.0004199879355
0.0004199879353
0.0004199879353
0.0004199879353
0.0004199879354
0.0004199879354
0.0004199879355
0.0004199879356
0.0004199879357
0.0004199879358
0.0004199879353
0.0004199879354
0.0004199879354
0.0004199879355
0.0004199879356
0.0004199879358
0.0004199879359
0.0004199879361
0.0004199879362
0.0004199879354
0.0004199879355
0.0004199879356
0.0004199879357
0.0004199879359
0.0004199879361
0.0004199879364
0.0004199879367
0.0004199879368
0.0004199879356
0.0004199879357
0.0004199879358
0.0004199879361
0.0004199879364
0.0004199879368
0.0004199879373
0.0004199879377
0.000419987938
0.0004199879359
0.000419987936
0.0004199879363
0.0004199879367
0.0004199879373
0.0004199879379
0.0004199879387
0.0004199879394
0.0004199879398
0.0004199879363
0.0004199879366
0.0004199879371
0.0004199879378
0.0004199879387
0.0004199879398
0.000419987941
0.0004199879422
0.0004199879429
0.0004199879371
0.0004199879376
0.0004199879384
0.0004199879396
0.0004199879411
0.0004199879429
0.0004199879449
0.0004199879468
0.000419987948
0.0004199879385
0.0004199879393
0.0004199879407
0.0004199879426
0.0004199879451
0.0004199879481
0.0004199879513
0.0004199879543
0.0004199879562
0.0004199879408
0.0004199879422
0.0004199879443
0.0004199879475
0.0004199879516
0.0004199879564
0.0004199879617
0.0004199879664
0.0004199879694
0.0004199879446
0.0004199879468
0.0004199879504
0.0004199879555
0.0004199879621
0.00041998797
0.0004199879783
0.0004199879857
0.0004199879904
0.0004199879509
0.0004199879546
0.0004199879604
0.0004199879686
0.0004199879792
0.0004199879916
0.0004199880046
0.0004199880161
0.0004199880235
0.0004199879613
0.0004199879672
0.0004199879766
0.0004199879897
0.0004199880064
0.0004199880258
0.000419988046
0.0004199880638
0.000419988075
0.0004199879783
0.0004199879878
0.0004199880027
0.0004199880234
0.0004199880494
0.0004199880795
0.0004199881104
0.0004199881375
0.0004199881544
0.0004199880058
0.0004199880208
0.0004199880443
0.0004199880765
0.0004199881168
0.0004199881628
0.0004199882098
0.0004199882505
0.0004199882758
0.0004199880501
0.0004199880735
0.00041998811
0.0004199881597
0.0004199882213
0.0004199882909
0.0004199883615
0.0004199884223
0.0004199884599
0.0004199881206
0.0004199881568
0.0004199882129
0.0004199882886
0.0004199883817
0.0004199884862
0.0004199885912
0.0004199886811
0.0004199887363
0.0004199882319
0.0004199882873
0.0004199883725
0.0004199884867
0.0004199886261
0.0004199887813
0.0004199889362
0.0004199890679
0.0004199891485
0.0004199884062
0.0004199884899
0.0004199886179
0.0004199887885
0.0004199889951
0.0004199892234
0.00041998945
0.0004199896417
0.0004199897584
0.0004199886765
0.0004199888017
0.0004199889922
0.0004199892443
0.0004199895477
0.000419989881
0.0004199902098
0.0004199904867
0.0004199906548
0.0004199890919
0.0004199892773
0.0004199895579
0.0004199899273
0.0004199903691
0.0004199908518
0.0004199913257
0.0004199917232
0.0004199919638
0.0004199897247
0.0004199899966
0.0004199904062
0.0004199909427
0.0004199915811
0.0004199922752
0.0004199929539
0.0004199935213
0.0004199938639
0.0004199906802
0.0004199910752
0.0004199916681
0.0004199924413
0.000419993357
0.0004199943487
0.000419995315
0.0004199961207
0.0004199966061
0.0004199921102
0.0004199926794
0.0004199935311
0.0004199946371
0.0004199959421
0.0004199973504
0.0004199987186
0.0004199998569
0.0004200005416
0.0004199942328
0.0004199950469
0.0004199962612
0.0004199978329
0.0004199996812
0.0004200016697
0.0004200035966
0.0004200051965
0.0004200061576
0.0004199973586
0.0004199985144
0.0004200002343
0.0004200024538
0.0004200050561
0.0004200078482
0.0004200105476
0.0004200127846
0.0004200141266
0.0004200019265
0.0004200035569
0.0004200059775
0.0004200090931
0.0004200127363
0.0004200166357
0.0004200203971
0.0004200235087
0.0004200253729
0.0004200085533
0.000420010839
0.0004200142256
0.0004200185742
0.0004200236469
0.0004200290635
0.0004200342781
0.000420038585
0.000420041163
0.0004200180992
0.0004200212847
0.0004200259959
0.0004200320321
0.0004200390577
0.0004200465441
0.0004200537391
0.0004200596745
0.0004200632247
0.0004200317546
0.000420036169
0.0004200426869
0.0004200510219
0.000420060704
0.0004200710035
0.0004200808887
0.0004200890359
0.0004200939067
0.0004200511535
0.000420057238
0.0004200662091
0.0004200776623
0.0004200909453
0.0004201050559
0.000420118585
0.0004201297281
0.0004201363882
0.0004200785229
0.0004200868676
0.0004200991567
0.0004201148249
0.0004201329735
0.0004201522323
0.0004201706837
0.0004201858744
0.0004201949526
0.0004201168785
0.0004201282707
0.0004201450319
0.0004201663795
0.0004201910822
0.0004202172757
0.0004202423582
0.0004202630037
0.000420275342
0.0004201702772
0.0004201857635
0.0004202085315
0.0004202375058
0.0004202710094
0.0004203065163
0.0004203405076
0.0004203684852
0.0004203852088
0.0004202441354
0.000420265101
0.000420295907
0.0004203350866
0.0004203803681
0.0004204283427
0.0004204742672
0.0004205120736
0.0004205346803
0.0004203456265
0.0004203738947
0.0004204154127
0.0004204681937
0.0004205291767
0.0004205937813
0.0004206556352
0.0004207065751
0.0004207370507
0.0004204841695
0.0004205221245
0.0004205778528
0.0004206486796
0.000420730503
0.0004208171949
0.0004209002256
0.0004209686448
0.0004210096053
0.0004206720216
0.0004207227592
0.0004207972399
0.0004208918855
0.0004210012279
0.000421117106
0.0004212281476
0.000421319715
0.0004213745772
0.0004209249892
0.000420992495
0.0004210915761
0.0004212174734
0.0004213629359
0.0004215171473
0.0004216650129
0.0004217870454
0.0004218602245
0.0004212632667
0.0004213526243
0.0004214837625
0.0004216503865
0.0004218429309
0.0004220471325
0.000422243054
0.000422404881
0.0004225020098
0.0004217124099
0.0004218300366
0.0004220026389
0.0004222219339
0.0004224753679
0.0004227442318
0.0004230023387
0.0004232156917
0.0004233438533
0.0004223044418
0.0004224583463
0.000422684142
0.0004229709823
0.0004233024766
0.0004236542231
0.0004239920393
0.0004242714553
0.0004244394246
0.0004230790712
0.0004232791253
0.000423572553
0.0004239452171
0.000424375831
0.0004248327609
0.0004252716964
0.0004256349169
0.0004258534085
0.0004240849867
0.0004243431949
0.0004247217824
0.0004252024108
0.0004257575868
0.0004263465695
0.0004269123587
0.000427380677
0.0004276625306
0.0004253811631
0.0004257119094
0.0004261966158
0.0004268116086
0.0004275215837
0.0004282744388
0.0004289974457
0.0004295958454
0.0004299560057
0.0004270380938
0.0004274583398
0.0004280738174
0.0004288541216
0.0004297541968
0.0004307078983
0.0004316231459
0.0004323802143
0.0004328357341
0.0004291388426
0.0004296682435
0.0004304429758
0.0004314242
0.0004325547876
0.0004337512987
0.0004348982324
0.0004358460076
0.0004364158307
0.0004317797867
0.000432440688
0.0004334069497
0.0004346292074
0.000436035405
0.0004375212594
0.0004389433831
0.0004401170197
0.0004408219863
0.0004350708914
0.0004358881279
0.0004370815449
0.0004385888226
0.0004403198457
0.0004421454717
0.0004438895624
0.000445326561
0.0004461886982
0.0004391349648
0.0004401353852
0.0004415943613
0.000443433818
0.0004455420353
0.0004477606384
0.0004498756035
0.0004516148243
0.0004526567789
0.0004441062855
0.0004453182355
0.0004470831021
0.0004493039158
0.0004518434609
0.0004545094957
0.000457044865
0.0004591252573
0.0004603695264
0.0004501285131
0.0004515810369
0.0004536928666
0.0004563447006
0.0004593696794
0.0004625369341
0.0004655410182
0.0004680001031
0.0004694681251
0.0004573515295
0.000459073354
0.0004615724741
0.0004647035995
0.0004682659448
0.0004719853029
0.0004755030911
0.0004783752646
0.0004800864211
0.0004659272732
0.0004679456078
0.0004708698671
0.0004745250133
0.0004786720776
0.0004829890618
0.0004870599648
0.000490374715
0.0004923453021
0.0004760046421
0.0004783438469
0.0004817267182
0.0004859447577
0.0004907167732
0.0004956690101
0.000500324586
0.0005041047388
0.0005063469765
0.0004877236225
0.0004904038189
0.0004942724438
0.0004990840502
0.0005045116142
0.000510126387
0.0005153882056
0.0005196483274
0.0005221694944
0.0005012088872
0.0005042445993
0.0005086179056
0.0005140433441
0.0005201451063
0.0005264371721
0.0005323149747
0.0005370600612
0.0005398619196
0.0005165631812
0.0005199621092
0.0005248491408
0.0005308963591
0.0005376770925
0.0005446469304
0.0005511371974
0.0005563615757
0.0005594393403
0.0005338608798
0.000537622903
0.0005430215022
0.0005496846867
0.0005571339148
0.0005647665927
0.0005718517682
0.0005775387784
0.0005808815066
0.0005531421334
0.000557258637
0.0005631545999
0.0005704133323
0.0005785046395
0.0005867693815
0.0005944177134
0.0006005397311
0.0006041302811
0.0005744080241
0.0005788616199
0.0005852284207
0.0005930475311
0.0006017386434
0.0006105891635
0.0006187552285
0.0006252742243
0.0006290896302
0.0005976171258
0.0006023818147
0.0006091809503
0.0006175111179
0.0006267447835
0.0006361203961
0.0006447462965
0.0006516148961
0.0006556270166
0.0006226837946
0.0006277255843
0.000634907553
0.0006436866505
0.0006533923014
0.0006632197729
0.0006722369577
0.000679399967
0.0006835764622
0.0006494784246
0.0006547563873
0.0006622622711
0.0006714174124
0.000681513556
0.0006917096631
0.0007010414759
0.0007084380981
0.0007127435694
0.0006778298019
0.0006832975406
0.0006910611385
0.0007005113825
0.0007109088188
0.0007213837827
0.0007309482584
0.0007385142242
0.000742912116
0.000707529656
0.000713137277
0.0007210879947
0.0007307477225
0.0007413531349
0.0007520147357
0.0007617304126
0.000769402988
0.0007738575478
0.0007383403134
0.0007440364355
0.0007521023994
0.0007618863704
0.0007726085097
0.0007833670109
0.000793153637
0.0008008708013
0.0008053467363
0.0007700083187
0.0007757433115
0.0007838551171
0.000793680398
0.0008044301348
0.0008151982029
0.0008249782637
0.0008326803861
0.0008371438677
0.0008022731718
0.0008079991394
0.0008160900195
0.0008258772984
0.0008365699353
0.0008472650516
0.000856965746
0.0008645970839
0.000869016582
0.0008348706484
0.0008405427373
0.000848550403
0.0008582260806
0.0008687834775
0.0008793299474
0.0008888848524
0.00089639476
0.0009007416964
0.0008675406161
0.0008731181311
0.000880986278
0.0008904841514
0.0009008364023
0.0009111668743
0.0009205171767
0.0009278609757
0.0009321101841
0.0009000343543
0.0009054815796
0.0009131609712
0.0009224234177
0.0009325099931
0.0009425664517
0.0009516617224
0.0009588012277
0.0009629312244
0.0009321208374
0.0009374075401
0.0009448566492
0.0009538352954
0.0009636056469
0.0009733398949
0.0009821384262
0.0009890421501
0.0009930352303
0.000963591691
0.0009686933181
0.0009758785507
0.0009845344619
0.0009939481347
0.001003321816
0.001011790575
0.001018433653
0.001022275836
0.0009942646892
0.0009991622961
0.001006057853
0.00101436131
0.001023387638
0.001032371879
0.001040486145
0.001046850032
0.001050530888
0.001023985796
0.001028665757
0.001035253202
0.001043183153
0.00105180063
0.001060375386
0.001068118148
0.001074190151
0.001077702532
0.00105262986
0.001057083418
0.001063351037
0.001070894309
0.001079089725
0.001087242927
0.001094604119
0.001100376809
0.001103716526
0.001080100129
0.001084322842
0.001090264864
0.001097415235
0.001105182681
0.001112909254
0.001119884899
0.00112535546
0.001128520921
0.001106326835
0.001110317965
0.001115933716
0.001122690915
0.001130030717
0.001137331562
0.001143922878
0.001149092438
0.00115208428
0.001131265055
0.001135026955
0.001140320002
0.001146688705
0.001153606371
0.001160487347
0.001166699869
0.00117157284
0.00117439356
0.001154892114
0.001158429629
0.001163406964
0.001169395832
0.001175901045
0.00118237201
0.001188214762
0.001192798218
0.001195451827
0.001177204725
0.001180524643
0.001185195922
0.001190816722
0.001196922419
0.001202996352
0.001208481083
0.001212784187
0.001215275897
0.001198216045
0.001201326606
0.001205703478
0.001210970301
0.001216691849
0.001222384068
0.00122752458
0.001231558077
0.00123389401
0.001217952795
0.001220863267
0.001224958791
0.001229887368
0.001235241863
0.001240569347
0.001245380907
0.001249156676
0.00125134362
0.001236452547
0.001239172868
0.001243001021
0.001247608154
0.001252613811
0.001257594623
0.001262093467
0.001265624152
0.001267669344
0.001253761226
0.00125630171
0.00125987698
0.001264180068
0.001268855736
0.001273508562
0.00127771148
0.001281010164
0.001282921108
0.001269930902
0.001272301999
0.001275639067
0.001279655732
0.001284020497
0.001288364254
0.001292288247
0.001295368193
0.001297152509
0.001285017873
0.00128722999
0.001290343471
0.001294091257
0.001298164121
0.001302217646
0.001305879658
0.001308754096
0.001310419403
0.001299081023
0.001301144381
0.001304048631
0.001307544773
0.001311344408
0.001315126222
0.001318542925
0.00132122489
0.001322778702
0.001312180463
0.001314104991
0.001316813961
0.001320075212
0.001323619776
0.001327147903
0.001330335534
0.001332837734
0.001334287388
0.001324376417
0.001326171678
0.001328698808
0.001331741315
0.001335048319
0.00133834015
0.00134131439
0.001343649108
0.001345001706
0.001335728339
0.001337403481
0.001339761628
0.001342600845
0.001345687057
0.001348759257
0.001351535142
0.001353714168
0.001354976533
0.001346294225
0.001347857944
0.001350059338
0.00135270997
0.001355591356
0.001358459799
0.001361051663
0.001363086246
0.001364264892
0.001356130096
0.001357590622
0.00135964684
0.001362122812
0.001364814496
0.001367494231
0.001369915669
0.001371816482
0.001372917597
0.001365289621
0.001366654712
0.001368576666
0.001370891112
0.001373407363
0.001375912594
0.001378176443
0.001379953571
0.001380983005
0.001373823868
0.001375100808
0.001376898752
0.001379064013
0.001381418245
0.001383762328
0.001385880666
0.001387543601
0.001388506859
0.001381781138
0.001382976751
0.001384660288
0.001386687926
0.00138889271
0.001391088167
0.001393072317
0.00139462996
0.001395532209
0.001389206894
0.001390327553
0.001391905655
0.001393806473
0.001395873558
0.001397932091
0.001399792639
0.001401253314
0.001402099386
0.001396143738
0.001397195382
0.001398676411
0.001400460481
0.001402400818
0.001404333339
0.001406080158
0.001407451625
0.001408246027
0.001402631443
0.001403619597
0.001405011331
0.001406688021
0.0014085118
0.00141032846
0.001411970732
0.001413260213
0.001414007136
0.001408707022
0.001409636814
0.001410946476
0.001412524484
0.001414241164
0.001415951389
0.001417497639
0.001418711837
0.001419415171
0.00141440482
0.001415281005
0.001416515289
0.001418002676
0.001419621026
0.001421233548
0.001422691677
0.001423836801
0.001424500153
0.001419756628
0.001420583607
0.001421748708
0.001423152936
0.001424681068
0.00142620397
0.001427581286
0.00142866308
0.001429289782
0.001424791809
0.00142557365
0.001426675294
0.001428003259
0.001429448671
0.001430889417
0.00143219267
0.001433216438
0.001433809567
0.001429537432
0.001430277891
0.001431321364
0.00143257943
0.001433949039
0.001435314519
0.001436549934
0.001437520568
0.001438082962
0.00143401841
0.001434720948
0.001435711125
0.001436905159
0.001438205343
0.001439501903
0.001440675217
0.001441597221
0.001442131492
0.001438257636
0.001438925444
0.001439866814
0.001441002219
0.001442238849
0.001443472331
0.001444588821
0.001445466339
0.00144597489
0.00144227612
0.001442912134
0.001443808828
0.001444890576
0.001446069051
0.001447244829
0.001448309347
0.001449146187
0.001449631225
0.001446093125
0.001446700043
0.00144755586
0.00144858852
0.001449713803
0.001450836811
0.001451853815
0.001452653473
0.001453117024
0.001449726289
0.001450306593
0.001451125021
0.00145211279
0.001453189438
0.001454264208
0.001455237785
0.00145600347
0.00145644739
0.001453191753
0.001453747721
0.001454531963
0.001455478693
0.001456510887
0.001457541575
0.001458475476
0.001459210127
0.00145963612
0.001456504278
0.001457037997
0.001457790993
0.001458700216
0.001459691791
0.001460682205
0.001461579866
0.001462286177
0.001462695803
0.001459677347
0.001460190735
0.001460915177
0.001461790132
0.001462744601
0.001463698233
0.001464562802
0.001465243239
0.001465637925
0.001462723278
0.001463218089
0.001463916447
0.001464760101
0.001465680681
0.001466600727
0.001467435085
0.001468091906
0.001468472957
0.001465653311
0.001466131155
0.001466805689
0.001467620759
0.001468510398
0.001469399783
0.001470206566
0.001470841836
0.001471210446
0.001468477706
0.001468940056
0.001469592836
0.001470381809
0.001471243202
0.001472104603
0.001472886223
0.00147350183
0.001473859091
0.00147120582
0.001471654023
0.001472286945
0.001473052097
0.001473887712
0.001474723577
0.001475482239
0.001476079908
0.001476426818
0.001473846187
0.001474281478
0.001474896274
0.001475639687
0.00147645178
0.001477264348
0.001478002068
0.001478583378
0.001478920848
0.001476406588
0.001476830096
0.001477428352
0.001478151931
0.001478942565
0.001479733883
0.001480452504
0.001481018896
0.00148134776
0.001478894118
0.001479306874
0.001479890042
0.001480595527
0.00148136659
0.001482138528
0.001482839734
0.001483392526
0.001483713544
0.001481315244
0.001481718194
0.001482287599
0.001482976583
0.001483729798
0.001484484067
0.001485169398
0.001485709792
0.001486023661
0.001483675863
0.001484069869
0.001484626725
0.001485300664
0.001486037608
0.001486775771
0.001487446633
0.00148797573
0.001488283083
0.00148598135
0.001486367202
0.001486912618
0.001487572842
0.001488294957
0.001489018443
0.00148967612
0.001490194925
0.001490496343
0.001488236606
0.001488615027
0.001489150015
0.001489797743
0.001490506346
0.00149121646
0.001491862128
0.001492371558
0.001492667571
0.001490446099
0.001490817749
0.001491343239
0.001491979581
0.001492675877
0.001493373813
0.001494008545
0.00149450944
0.001494800532
0.001492613907
0.001492979389
0.001493496227
0.001494122203
0.001494807293
0.001495494142
0.00149611892
0.001496612047
0.00149689866
0.001494743746
0.001495103614
0.001495612576
0.001496229115
0.001496904006
0.001497580767
0.001498196486
0.001498682546
0.001498965085
0.001496839009
0.001497193767
0.001497695564
0.001498303517
0.00149896913
0.001499636714
0.001500244197
0.00150072383
0.001501002665
0.001498902792
0.001499252903
0.001499748182
0.001500348328
0.001501005506
0.001501664749
0.001502264745
0.001502738538
0.001503014007
0.001500937922
0.001501283809
0.001501773164
0.001502366216
0.001503015729
0.001503667394
0.00150426059
0.001504729079
0.001505001491
0.001502946978
0.001503289028
0.001503773005
0.001504359613
0.001505002168
0.001505646954
0.001506233978
0.001506697653
0.001506967291
0.001504932319
0.001505270887
0.001505749981
0.001506330745
0.001506966987
0.001507605533
0.00150818696
0.00150864627
0.001508913394
0.001506896099
0.00150723151
0.001507706178
0.001508281642
0.001508912163
0.001509545056
0.001510121412
0.001510576769
0.001510841615
0.001508840287
0.001509172837
0.001509643497
0.001510214164
0.001510839505
0.001511467281
0.001512039048
0.001512490828
0.001512753613
0.001510766683
0.001511096647
0.001511563681
0.001512130007
0.001512750666
0.001513373815
0.001513941436
0.001514389984
0.001514650907
0.001512676936
0.001513004561
0.00151346832
0.001514030728
0.001514647157
0.001515266132
0.00151583001
0.001516275642
0.001516534886
0.001514572551
0.001514898067
0.001515358872
0.001515917746
0.001516530364
0.001517145575
0.001517706082
0.001518149087
0.001518406818
0.001516454907
0.001516778525
0.001517236669
0.001517792362
0.00151840155
0.001519013377
0.001519570852
0.001520011496
0.001520267867
0.001518325266
0.001518647177
0.001519102932
0.001519655768
0.001520261876
0.001520870665
0.001521425419
0.001521863944
0.001522119096
0.001520184783
0.001520505164
0.001520958776
0.001521509051
0.0015221124
0.001522718468
0.001523270786
0.001523707415
0.001523961475
0.001522034515
0.001522353526
0.001522805221
0.001523353208
0.00152395409
0.001524557727
0.001525107871
0.001525542807
0.001525795892
0.001523875425
0.001524193215
0.001524643201
0.001525189146
0.001525787831
0.001526389303
0.001526937509
0.001527370939
0.001527623156
0.001525708397
0.0015260251
0.001526473566
0.001527017696
0.001527614428
0.001528213976
0.001528760462
0.001529192554
0.001529444001
0.001527534232
0.001527849971
0.001528297089
0.001528839611
0.001529434612
0.001530032457
0.00153057742
0.001531008327
0.001531259093
0.00152935366
0.001529668546
0.001530114473
0.001530655573
0.001531249045
0.001531845385
0.001532389003
0.001532818864
0.001533069027
0.001531167339
0.001531481474
0.001531926349
0.001532466196
0.00153305832
0.001533653333
0.001534195766
0.001534624705
0.001534874337
0.00153297586
0.001533289333
0.001533733284
0.001534272026
0.001534862964
0.001535456809
0.001535998198
0.001536426324
0.001536675487
0.001534779747
0.001535092637
0.001535535773
0.001536073544
0.001536663437
0.001537256251
0.001537796718
0.001538224126
0.001538472874
0.001536579456
0.001536891832
0.001537334249
0.001537871161
0.001538460128
0.001539052029
0.001539591677
0.001540018445
0.001540266823
0.001538375372
0.001538687292
0.001539129069
0.001539665215
0.001540253355
0.001540844438
0.00154138335
0.001541809541
0.001542057584
0.001540167809
0.001540479317
0.001540920516
0.001541455969
0.001542043357
0.001542633693
0.001543171928
0.001543597587
0.001543845318
0.001541957
0.001542268128
0.001542708792
0.0015432436
0.001543830285
0.001544419916
0.001544957511
0.00154538266
0.001545630093
0.001543743089
0.001544053855
0.001544494006
0.001545028191
0.001545614191
0.001546203132
0.001546740091
0.001547164732
0.001547411865
0.001545526122
0.001545836526
0.001546276162
0.001546809716
0.001547395017
0.001547983244
0.001548519541
0.001548943649
0.001549190464
0.001547306034
0.001547616057
0.001548055146
0.001548588027
0.001549172573
0.001549760025
0.001550295595
0.001550719111
0.001550965573
0.00154908263
0.001549392229
0.001549830709
0.001550362833
0.001550946525
0.00155153309
0.001552067825
0.001552490656
0.001552736706
0.001550855567
0.001551164675
0.001551602444
0.00155213368
0.001552716365
0.001553301879
0.001553835616
0.001554257627
0.001554503182
0.001552624334
0.001552932851
0.001553369764
0.001553899928
0.001554481391
0.001555065623
0.001555598141
0.001556019147
0.001556264095
0.001554388226
0.001554696019
0.00155513188
0.001555660722
0.001556240677
0.001556823325
0.001557354333
0.001557774094
0.00155801829
0.00155614632
0.001556453214
0.001556887768
0.001557414968
0.001557993047
0.001558573725
0.001559102853
0.001559521064
0.001559764324
0.001557897445
0.001558203221
0.001558636148
0.001559161304
0.001559737046
0.001560315272
0.001560842063
0.001561258347
0.001561500446
0.001559640161
0.001559944545
0.001560375451
0.001560898069
0.001561470915
0.001562046101
0.001562569999
0.001562983901
0.001563224566
0.001561372726
0.001561675392
0.001562103801
0.001562623287
0.001563192561
0.001563764005
0.001564284347
0.001564695325
0.001564934232
0.001563093081
0.001563393637
0.001563818986
0.001564334636
0.001564899544
0.001565466421
0.001565982429
0.00156638985
0.001566626621
0.001564798823
0.001565096816
0.001565518446
0.001566029444
0.001566589062
0.001567150416
0.001567661192
0.001568064327
0.001568298529
0.001566487203
0.001566782107
0.001567199264
0.001567704673
0.001568257947
0.001568812689
0.001569317213
0.001569715236
0.00156994638
0.001568155112
0.001568446335
0.001568858167
0.00156935693
0.001569902675
0.001570449583
0.001570946716
0.001571338706
0.001571566246
0.001569799099
0.001570085979
0.001570491536
0.001570982481
0.001571519384
0.001572057111
0.001572545598
0.001572930543
0.001573153882
0.001571415382
0.001571697193
0.001572095436
0.001572577282
0.001573103913
0.001573630995
0.001574109477
0.001574486288
0.001574704785
0.001572999887
0.001573275847
0.001573665654
0.001574137024
0.001574651851
0.001575166726
0.00157563376
0.00157600128
0.001576214256
0.001574548294
0.001574817571
0.001575197756
0.001575657196
0.001576158608
0.001576659639
0.001577113715
0.001577470743
0.001577677496
0.001576056101
0.001576317828
0.001576687159
0.001577133163
0.001577619495
0.001578104998
0.001578544575
0.001578889886
0.001579089702
0.001577518703
0.001577771996
0.001578129215
0.001578560253
0.001579029823
0.001579498105
0.001579921638
0.001580254013
0.001580446184
0.001578931482
0.001579175455
0.001579519309
0.001579933863
0.001580385009
0.001580834408
0.001581240389
0.001581558643
0.001581742487
0.001580289909
0.001580523697
0.001580852968
0.001581249569
0.001581680693
0.001582109618
0.001582496616
0.001582799634
0.001582974514
0.001581589654
0.001581812439
0.001582125975
0.00158250324
0.001582912851
0.001583319831
0.001583686535
0.001583973305
0.001584138642
0.0015828267
0.001583037728
0.001583334478
0.001583691157
0.001584077914
0.001584461643
0.001584806899
0.001585076539
0.001585231841
0.001583997452
0.001584196061
0.001584475105
0.001584810113
0.001585172871