/*--------------------------------*- C++ -*----------------------------------*\
| =========                 |                                                 |
| \\      /  F ield         | OpenFOAM: The Open Source CFD Toolbox           |
|  \\    /   O peration     | Version:  2212                                  |
|   \\  /    A nd           | Website:  www.openfoam.com                      |
|    \\/     M anipulation  |                                                 |
\*---------------------------------------------------------------------------*/
FoamFile
{
    version     2.0;
    format      ascii;
    arch        "LSB;label=32;scalar=64";
    class       volScalarField;
    location    "20.00000000";
    object      CO;
}
// * * * * * * * * * * * * * * * * * * * * * * * * * * * * * * * * * * * * * //

dimensions      [0 0 0 0 0 0 0];

internalField   nonuniform List<scalar> 
3000
(
2.020051441e-21
2.269167019e-21
2.645074711e-21
3.145990053e-21
3.766802851e-21
4.49062806e-21
5.273834421e-21
6.021106351e-21
6.549455904e-21
7.583975089e-21
8.553559023e-21
1.001599089e-20
1.196904624e-20
1.441067533e-20
1.732721379e-20
2.066786599e-20
2.426428861e-20
2.744968556e-20
1.69872019e-20
1.930929572e-20
2.28451157e-20
2.764563343e-20
3.37967222e-20
4.138698276e-20
5.038560945e-20
6.028725238e-20
6.874752016e-20
3.235477469e-20
3.716250827e-20
4.459046607e-20
5.488940888e-20
6.842306342e-20
8.553341577e-20
1.061239998e-19
1.285435923e-19
1.466294377e-19
5.745144554e-20
6.679767813e-20
8.146501071e-20
1.021976207e-19
1.299689433e-19
1.65554346e-19
2.083529305e-19
2.537812348e-19
2.886055887e-19
9.878926599e-20
1.163298082e-19
1.442517501e-19
1.843364411e-19
2.387217602e-19
3.087775467e-19
3.924168356e-19
4.791100312e-19
5.433009455e-19
1.677109559e-19
1.999301036e-19
2.518160558e-19
3.271450787e-19
4.301118586e-19
5.627655705e-19
7.196239521e-19
8.790066081e-19
9.940234649e-19
2.838496063e-19
3.421605688e-19
4.369004113e-19
5.755105227e-19
7.657219181e-19
1.010276671e-18
1.296910915e-18
1.583909009e-18
1.78755367e-18
4.81265381e-19
5.856975802e-19
7.564694722e-19
1.007585133e-18
1.352800472e-18
1.79544487e-18
2.310532139e-18
2.820929362e-18
3.179116644e-18
8.190421707e-19
1.004644786e-18
1.309536955e-18
1.759319634e-18
2.378028613e-18
3.16928864e-18
4.08498614e-18
4.985762165e-18
5.613280172e-18
1.399813062e-18
1.727845201e-18
2.268409234e-18
3.067451657e-18
4.166602692e-18
5.569140524e-18
7.185626922e-18
8.767814554e-18
9.864729135e-18
2.402010877e-18
2.979479103e-18
3.9331425e-18
5.344514203e-18
7.285425043e-18
9.75745779e-18
1.259799429e-17
1.53687932e-17
1.728403641e-17
4.136071891e-18
5.14991709e-18
6.826736254e-18
9.310147577e-18
1.272391327e-17
1.706498924e-17
2.204155941e-17
2.688499121e-17
3.022888843e-17
7.142057152e-18
8.918899221e-18
1.186092918e-17
1.622047418e-17
2.221111415e-17
2.981908806e-17
3.852380101e-17
4.698252257e-17
5.282704768e-17
1.235849994e-17
1.546850438e-17
2.062288657e-17
2.82655252e-17
3.876858182e-17
5.210006825e-17
6.733600862e-17
8.212296583e-17
9.234435769e-17
2.14134226e-17
2.684906983e-17
3.586532473e-17
4.924416454e-17
6.764362891e-17
9.101966078e-17
1.177644166e-16
1.437028481e-16
1.614824391e-16
3.712727137e-17
4.660984471e-17
6.234521606e-17
8.569780443e-17
1.178057564e-16
1.585658687e-16
2.051333527e-16
2.502176834e-16
2.811104386e-16
6.438921732e-17
8.090367698e-17
1.08311847e-16
1.489837553e-16
2.048800285e-16
2.757833965e-16
3.567087497e-16
4.349935507e-16
4.886370312e-16
1.116812699e-16
1.404082145e-16
1.880884376e-16
2.588362786e-16
3.560387457e-16
4.792834363e-16
6.198783413e-16
7.558297411e-16
8.489687724e-16
1.937252407e-16
2.436604218e-16
3.265473773e-16
4.495306915e-16
6.184751076e-16
8.326293981e-16
1.076860231e-15
1.312956549e-15
1.474667666e-15
3.360786443e-16
4.228451119e-16
5.668779093e-16
7.805855732e-16
1.074133478e-15
1.446173272e-15
1.870370058e-15
2.280340299e-15
2.561092666e-15
5.831154622e-16
7.338466537e-16
9.840750628e-16
1.355349481e-15
1.865293991e-15
2.511502686e-15
3.248162624e-15
3.959973897e-15
4.447339906e-15
1.011884927e-15
1.273703937e-15
1.708362362e-15
2.353271821e-15
3.238983192e-15
4.361213948e-15
5.640294712e-15
6.875992333e-15
7.721944504e-15
1.756177565e-15
2.210921187e-15
2.965861726e-15
4.085922035e-15
5.624032128e-15
7.572562067e-15
9.79299422e-15
1.193768585e-14
1.340572132e-14
3.048305415e-15
3.838086296e-15
5.149183477e-15
7.094197108e-15
9.764751386e-15
1.314718918e-14
1.700067058e-14
2.072176802e-14
2.326829836e-14
5.291616991e-15
6.663191221e-15
8.939911444e-15
1.231692357e-14
1.695264237e-14
2.282244e-14
2.95074918e-14
3.596072286e-14
4.037568971e-14
9.186296887e-15
1.156804596e-14
1.552101953e-14
2.138307904e-14
2.942762316e-14
3.960979612e-14
5.120106226e-14
6.238530091e-14
7.003386398e-14
1.594736458e-14
2.00827365e-14
2.694471764e-14
3.711746044e-14
5.107163912e-14
6.872448803e-14
8.88082232e-14
1.081746321e-13
1.21411157e-13
2.768198286e-14
3.486052177e-14
4.676855068e-14
6.44142204e-14
8.860512354e-14
1.191861651e-13
1.539499336e-13
1.874433227e-13
2.10317038e-13
4.80413447e-14
6.049797528e-14
8.11529935e-14
1.117421066e-13
1.536448042e-13
2.065655137e-13
2.666582654e-13
3.244877114e-13
3.639378739e-13
8.33443675e-14
1.04947781e-13
1.407499337e-13
1.937296592e-13
2.66229435e-13
3.576764393e-13
4.613652777e-13
5.609941213e-13
6.288583192e-13
1.445090911e-13
1.819447109e-13
2.439402091e-13
3.355867597e-13
4.608314994e-13
6.185473655e-13
7.97036644e-13
9.68189551e-13
1.084546323e-12
2.503606646e-13
3.151550344e-13
4.223590568e-13
5.806279773e-13
7.965469183e-13
1.067871455e-12
1.374187662e-12
1.667151936e-12
1.865821931e-12
4.332733649e-13
5.452403011e-13
7.302754184e-13
1.002994152e-12
1.374243355e-12
1.839518201e-12
2.3631986e-12
2.862427184e-12
3.19991038e-12
7.487465846e-13
9.418159979e-13
1.260411743e-12
1.729006341e-12
2.365177919e-12
3.159856685e-12
4.050944137e-12
4.897051687e-12
5.466838289e-12
1.291567321e-12
1.623568319e-12
2.170430696e-12
2.972706778e-12
4.058297363e-12
5.408974628e-12
6.916688486e-12
8.341498642e-12
9.296627619e-12
2.222918663e-12
2.79185125e-12
3.726911984e-12
5.094447514e-12
6.937576183e-12
9.219901739e-12
1.175404079e-11
1.413554954e-11
1.572358569e-11
3.815531336e-12
4.786348301e-12
6.377692378e-12
8.696451867e-12
1.180697636e-11
1.563736716e-11
1.986426664e-11
2.381142448e-11
2.642778821e-11
6.528312821e-12
8.176479844e-12
1.086965718e-11
1.477689421e-11
1.998980098e-11
2.636837681e-11
3.335840356e-11
3.98397286e-11
4.410768308e-11
1.112867059e-11
1.391008281e-11
1.843845351e-11
2.497530899e-11
3.364253103e-11
4.417223068e-11
5.562275495e-11
6.615829193e-11
7.30470697e-11
1.889119807e-11
2.355278126e-11
3.111052742e-11
4.19585197e-11
5.624223953e-11
7.345917953e-11
9.202623633e-11
1.089697286e-10
1.199665531e-10
3.191724892e-11
3.966920386e-11
5.217824783e-11
7.001974638e-11
9.333346979e-11
1.211970212e-10
1.509812102e-10
1.779292105e-10
1.952867516e-10
5.364358083e-11
6.642323589e-11
8.693819963e-11
1.159967639e-10
1.536579083e-10
1.982667096e-10
2.455153444e-10
2.878932874e-10
3.149819633e-10
8.964292299e-11
1.105120928e-10
1.438243946e-10
1.90661547e-10
2.508422261e-10
3.214658794e-10
3.9557549e-10
4.614687744e-10
5.032740422e-10
1.488692494e-10
1.826025008e-10
2.361267023e-10
3.1079867e-10
4.058915593e-10
5.164391478e-10
6.313722341e-10
7.326948262e-10
7.965142211e-10
2.455712364e-10
2.995123797e-10
3.845663526e-10
5.022795541e-10
6.508357509e-10
8.219244192e-10
9.981946237e-10
1.152320867e-09
1.248735379e-09
4.021960246e-10
4.874857311e-10
6.211131726e-10
8.045636597e-10
1.034012886e-09
1.295856411e-09
1.563290674e-09
1.795320826e-09
1.939542026e-09
6.537415137e-10
7.870521541e-10
9.945845432e-10
1.277228392e-09
1.627663608e-09
2.024077247e-09
2.42563682e-09
2.771527244e-09
2.985257771e-09
1.054201941e-09
1.260159536e-09
1.578779279e-09
2.00936376e-09
2.538768704e-09
3.132689322e-09
3.729730087e-09
4.240600202e-09
4.554594019e-09
1.686006544e-09
2.000538496e-09
2.484191968e-09
3.132988755e-09
3.924416514e-09
4.805474863e-09
5.684959749e-09
6.432997125e-09
6.890570659e-09
2.673700513e-09
3.148627851e-09
3.874754642e-09
4.842085882e-09
6.013469555e-09
7.308335479e-09
8.592688801e-09
9.679222045e-09
1.034105383e-08
4.203597455e-09
4.912901321e-09
5.991605354e-09
7.419452079e-09
9.136956001e-09
1.102341954e-08
1.288394964e-08
1.445045304e-08
1.540114069e-08
6.551792874e-09
7.600147265e-09
9.186655347e-09
1.127439804e-08
1.377050692e-08
1.649656708e-08
1.917170389e-08
2.141477396e-08
2.277178456e-08
1.012366354e-08
1.165793549e-08
1.39693859e-08
1.6995102e-08
2.059321544e-08
2.450310091e-08
2.832321302e-08
3.151493021e-08
3.344070432e-08
1.55086476e-08
1.773348685e-08
2.107187488e-08
2.542144946e-08
3.056936058e-08
3.61387959e-08
4.155977341e-08
4.607523543e-08
4.879359939e-08
2.355761776e-08
2.675657081e-08
3.153966403e-08
3.774595583e-08
4.506094056e-08
5.294474366e-08
6.059342403e-08
6.694802922e-08
7.076646656e-08
3.548994384e-08
4.005394753e-08
4.685702104e-08
5.565274899e-08
6.598246439e-08
7.707884945e-08
8.781439786e-08
9.67142744e-08
1.020540484e-07
5.30414286e-08
5.950723633e-08
6.911936744e-08
8.150846061e-08
9.601312533e-08
1.115505097e-07
1.265473253e-07
1.389574927e-07
1.463943954e-07
7.866779883e-08
8.776976422e-08
1.012697102e-07
1.186235054e-07
1.388867471e-07
1.605409116e-07
1.814006146e-07
1.986371422e-07
2.089566562e-07
1.15823319e-07
1.285631273e-07
1.474215328e-07
1.716084172e-07
1.997867688e-07
2.298390289e-07
2.587418526e-07
2.825966579e-07
2.968687813e-07
1.693403555e-07
1.870808411e-07
2.132978224e-07
2.46857893e-07
2.858824429e-07
3.274333575e-07
3.673431435e-07
4.002534457e-07
4.199346975e-07
2.459435579e-07
2.705347838e-07
3.068249758e-07
3.532052572e-07
4.070537278e-07
4.643121963e-07
5.192546727e-07
5.645340691e-07
5.916073597e-07
3.549418465e-07
3.888902427e-07
4.389313409e-07
5.028023004e-07
5.768661556e-07
6.555409584e-07
7.309825382e-07
7.931376337e-07
8.303055125e-07
5.091524959e-07
5.558471426e-07
6.246129347e-07
7.122936366e-07
8.138729549e-07
9.217031891e-07
1.025067561e-06
1.110233475e-06
1.161186722e-06
7.261238948e-07
7.901379577e-07
8.843427981e-07
1.00437e-06
1.143338727e-06
1.290811051e-06
1.432183086e-06
1.548722555e-06
1.618513818e-06
1.029736168e-06
1.11722587e-06
1.245914168e-06
1.409799474e-06
1.599494498e-06
1.800807494e-06
1.993886886e-06
2.153209249e-06
2.248768897e-06
1.452270359e-06
1.571498178e-06
1.746818881e-06
1.970046383e-06
2.228443683e-06
2.502790163e-06
2.766167237e-06
2.983831382e-06
3.114666875e-06
2.037045063e-06
2.199057077e-06
2.43726766e-06
2.740589707e-06
3.091835914e-06
3.465077743e-06
3.823904968e-06
4.12106838e-06
4.300184984e-06
2.841720982e-06
3.061208774e-06
3.38395306e-06
3.795039904e-06
4.271402373e-06
4.778202387e-06
5.266319818e-06
5.671577097e-06
5.916642154e-06
3.942364e-06
4.23873683e-06
4.674632323e-06
5.230116841e-06
5.874393055e-06
6.560837222e-06
7.223370655e-06
7.774983371e-06
8.109725471e-06
5.438329429e-06
5.83700952e-06
6.423558188e-06
7.171484102e-06
8.039865327e-06
8.966549315e-06
9.862931964e-06
1.061138535e-05
1.106717366e-05
7.457975826e-06
7.99190567e-06
8.777703433e-06
9.780330024e-06
1.094564117e-05
1.219110745e-05
1.339838082e-05
1.440911587e-05
1.502660831e-05
1.016512811e-05
1.087644201e-05
1.192360489e-05
1.326044269e-05
1.481558246e-05
1.647988282e-05
1.809601998e-05
1.945209347e-05
2.028278336e-05
1.376608162e-05
1.47078451e-05
1.609449657e-05
1.786535263e-05
1.992664488e-05
2.213468311e-05
2.428156497e-05
2.608589958e-05
2.719333403e-05
1.851677376e-05
1.975463842e-05
2.157722125e-05
2.390493164e-05
2.661498814e-05
2.951918951e-05
3.234476974e-05
3.472159036e-05
3.618204176e-05
2.472956074e-05
2.634312757e-05
2.871822778e-05
3.175066845e-05
3.52802783e-05
3.906205888e-05
4.274121262e-05
4.583629387e-05
4.77386058e-05
3.277885046e-05
3.486249212e-05
3.792781044e-05
4.183872459e-05
4.638724309e-05
5.125674527e-05
5.599035966e-05
5.996966817e-05
6.241411101e-05
4.310469239e-05
4.576756635e-05
4.968165339e-05
5.466983381e-05
6.046358197e-05
6.665725936e-05
7.266912122e-05
7.771564085e-05
8.081164915e-05
5.621334442e-05
5.957833991e-05
6.451873678e-05
7.080519888e-05
7.809355218e-05
8.58692087e-05
9.340053523e-05
9.970916542e-05
0.0001035719447
7.267385553e-05
7.687531561e-05
8.303494679e-05
9.085782214e-05
9.990668784e-05
0.0001095359426
0.0001188375502
0.0001266081842
0.0001313543172
9.31100496e-05
9.829012563e-05
0.0001058717057
0.0001154788224
0.000126561647
0.0001383199614
0.0001496423345
0.0001590714022
0.0001648136322
0.0001181872369
0.0001244909394
0.0001336995962
0.0001453389368
0.0001587255189
0.0001728802215
0.0001864619866
0.0001977329548
0.0002045745075
0.0001485937648
0.0001561628722
0.0001671972358
0.0001811056996
0.0001970493801
0.0002138463615
0.00022990187
0.0002431753118
0.0002512041251
0.0001850177824
0.000193983915
0.0002070261524
0.0002234172616
0.0002421412702
0.0002617912034
0.0002804980593
0.000295901987
0.000305185265
0.0002281201186
0.000238597396
0.0002538028153
0.0002728541638
0.0002945380401
0.0003172030867
0.0003386905107
0.0003563116787
0.0003668911715
0.0002785045865
0.0002905823648
0.000308069303
0.000329910629
0.0003546776955
0.0003804596694
0.0004047985643
0.0004246753906
0.0004365637544
0.0003366873379
0.0003504235539
0.0003702642902
0.0003949670597
0.000422873887
0.0004518047747
0.0004790002485
0.0005011178962
0.0005142964082
0.0004030670798
0.0004184827107
0.0004406961078
0.0004682654192
0.0004992941089
0.0005313296923
0.0005613166277
0.0005856046299
0.000600022439
0.0004778980065
0.0004949730967
0.000519519569
0.0005498890436
0.0005839429692
0.0006189600806
0.0006516021186
0.0006779347463
0.000693509757
0.0005612672166
0.0005799388198
0.0006067180797
0.0006397482058
0.0006766516132
0.0007144492976
0.000749541344
0.0007777406303
0.0007943616326
0.0006530781766
0.0006732404368
0.0007020922795
0.0007375724414
0.0007770740504
0.000817378663
0.0008546528703
0.000884494338
0.000902024969
0.0007530414883
0.0007745479319
0.0008052561081
0.0008429102668
0.0008846907207
0.0009271646663
0.0009662994676
0.0009975199767
0.00101580355
0.0008606738276
0.0008833417829
0.000915640785
0.000955136518
0.0009988192568
0.001043072844
0.001083704484
0.001116011768
0.001134876954
0.0009753054758
0.0009989223767
0.001032506752
0.001073467115
0.001118632003
0.001164237669
0.001205973503
0.001239056795
0.001258323766
0.001096096369
0.001120427563
0.001154963181
0.001196980648
0.001243179493
0.001289687498
0.001332120223
0.001365661318
0.00138514806
0.001222060102
0.001246857673
0.001281994235
0.001324645838
0.001371418828
0.001418373454
0.001461095487
0.001494779742
0.001514308021
0.001352094859
0.001377106911
0.001412490926
0.001455353672
0.001502245834
0.00154920123
0.001591818059
0.001625344126
0.001644745195
0.00148501988
0.001509999818
0.001545287428
0.001587953126
0.001634529595
0.001681064348
0.001723207964
0.001756297628
0.001775416564
0.001619616171
0.001644331112
0.001679199707
0.001721289117
0.001767149932
0.001812879875
0.001854216845
0.001886619657
0.001905317773
0.001754670891
0.00177890956
0.00181306787
0.001854240305
0.001899028557
0.001943613616
0.001983851265
0.002015348962
0.002033506062
0.001889015776
0.001912592598
0.001945786052
0.001985745811
0.002029154175
0.002072303985
0.002111194504
0.002141603649
0.002159119273
0.002021556657
0.002044314949
0.002076329774
0.002114830337
0.00215660478
0.002198081518
0.002235423784
0.002264596689
0.002281390432
0.002151299724
0.002173113237
0.002203778238
0.002240623826
0.002280564598
0.002320183283
0.002355822556
0.00238364669
0.002399657714
0.002277371242
0.002298144157
0.002327330415
0.00236237517
0.002400335395
0.002437962
0.002471787844
0.00249818399
0.002513369887
0.002399030307
0.002418695905
0.00244631471
0.002479459916
0.002515342245
0.002550890079
0.002582832911
0.00260775238
0.002622087561
0.002515674785
0.002534193107
0.002560192542
0.002591382359
0.002625134195
0.002658559058
0.002688585746
0.002712006961
0.002725480737
0.002626841076
0.002644195863
0.00266855647
0.002697772703
0.00272938052
0.002760675108
0.002788784026
0.002810708765
0.002823323264
0.002732198627
0.002748393861
0.002771123817
0.002798380176
0.00282786341
0.002857051415
0.002883267304
0.002903716857
0.002915484913
0.002831540356
0.002846596675
0.002867726823
0.002893063091
0.002920468012
0.002947598258
0.002971967193
0.002990978618
0.003001921732
0.002924770173
0.00293872137
0.002958300408
0.002981776839
0.003007170706
0.003032311624
0.003054896286
0.003072518917
0.003082665355
0.003011888755
0.003024778532
0.003042868568
0.003064560733
0.003088026457
0.003111261057
0.003132136464
0.00314842877
0.003157811852
0.003092978577
0.003104857653
0.003121530257
0.003141524498
0.003163155948
0.003184577414
0.003203827186
0.003218854016
0.003227510619
0.003168189043
0.003179112674
0.003194445504
0.00321283504
0.003232733044
0.003252440989
0.003270154173
0.003283984421
0.003291953701
0.003237722353
0.003247748271
0.003261822274
0.003278703992
0.00329697303
0.003315070407
0.003331338856
0.003344043523
0.00335136585
0.00330182053
0.003311007296
0.003323904467
0.003339376346
0.00335612191
0.003372712529
0.003387628792
0.003399279419
0.003405995511
0.003360753892
0.003369159617
0.003380961259
0.00339512038
0.003410446914
0.003425633517
0.003439289188
0.003449956622
0.003456106862
0.003414811096
0.003422492487
0.003433277919
0.003446218958
0.003460228311
0.003474111096
0.003486595576
0.003496349048
0.003501972949
0.003464290712
0.003471302384
0.003481148
0.003492962166
0.003505752501
0.003518428111
0.003529827687
0.003538734089
0.003543869896
0.003509494329
0.003515888349
0.003524867005
0.003535641326
0.003547306364
0.003558867141
0.003569264348
0.003577387745
0.003582072145
0.003550721064
0.003556546674
0.003564727305
0.003574544172
0.003585172706
0.00359570622
0.003605179417
0.00361258072
0.003616848648
0.003588263269
0.003593566737
0.003601014147
0.00360995107
0.003619626708
0.0036292155
0.003637838639
0.003644575409
0.003648459925
0.003622403305
0.003627227884
0.003634002685
0.003642132213
0.003650933283
0.003659654765
0.00366749728
0.003673623625
0.003677155853
0.003653411232
0.003657797186
0.003663955835
0.003671345593
0.00367934517
0.003687271635
0.00369439844
0.003699965009
0.003703174112
0.003681543245
0.00368552793
0.003691122834
0.003697835639
0.003705101664
0.003712300388
0.003718771951
0.003723825969
0.003726739168
0.003707040712
0.003710658691
0.003715738363
0.003721832404
0.00372842786
0.003734961259
0.003740833731
0.003745419089
0.003748061706
0.003730129715
0.003733412895
0.003738022136
0.003743551186
0.00374953431
0.003755460145
0.003760785523
0.003764942896
0.003767338415
0.003751020956
0.003753998732
0.003758178841
0.003763192487
0.003768617019
0.003773988617
0.00377881494
0.003782581928
0.003784752068
0.00376990996
0.003772609376
0.003776398352
0.003780942241
0.003785857675
0.003790724176
0.003795095731
0.003798507012
0.003800471814
0.0037869775
0.003789423396
0.003792856153
0.003796972244
0.003801424087
0.00380583069
0.003809788225
0.003812875718
0.003814653636
0.003802390167
0.00380460533
0.003807713909
0.00381144071
0.003815470743
0.003819458956
0.003823039902
0.003825832933
0.003827440921
0.00381630105
0.003818306365
0.003821120128
0.003824492942
0.003828139471
0.003831747357
0.003834986041
0.003837511508
0.003838965121
0.003828850487
0.003830665071
0.003833210902
0.003836262051
0.003839560153
0.003842822569
0.003845750429
0.003848032966
0.003849346448
0.003840166844
0.00384180818
0.003844110667
0.003846869713
0.003849851471
0.003852800297
0.003855446088
0.003857508223
0.003858694601
0.003850367314
0.003851851377
0.003853932984
0.003856426939
0.003859121666
0.003861786029
0.003864176015
0.003866038325
0.003867109494
0.003859558706
0.003860900081
0.003862781316
0.003865034835
0.003867469285
0.003869875765
0.003872033912
0.003873715169
0.00387468198
0.003867838222
0.00386905021
0.00387074978
0.003872785349
0.003874983917
0.003877156745
0.003879104898
0.003880622207
0.003881494546
0.0038752942
0.003876388926
0.003877923874
0.003879761982
0.003881746894
0.003883708142
0.00388546619
0.003886835124
0.003887621988
0.003882006827
0.003882995331
0.003884381181
0.003886040481
0.003887831965
0.003889601718
0.003891187757
0.003892422478
0.003893132046
0.003888048812
0.003888941142
0.003890192017
0.003891689479
0.003893305934
0.003894902453
0.003896332932
0.003897446308
0.003898086011
0.003893486025
0.003894291317
0.003895420057
0.003896771106
0.003898229254
0.003899669129
0.003900958985
0.003901962702
0.003902539284
0.003898378081
0.00389910464
0.003900122912
0.00390134156
0.003902656583
0.003903954878
0.003905117669
0.003906022325
0.003906541902
0.0039027789
0.003903434265
0.003904352662
0.00390545163
0.003906637309
0.003907807687
0.003908855707
0.003909670912
0.003910139028
0.003906737213
0.003907328226
0.003908156362
0.003909147187
0.003910216019
0.00391127087
0.003912215262
0.003912949722
0.003913371396
0.003910297033
0.003910829902
0.003911576493
0.003912469637
0.003913432949
0.003914383495
0.003915234352
0.00391589595
0.003916275728
0.003913498094
0.003913978444
0.003914651389
0.003915456332
0.003916324383
0.00391718079
0.003917947248
0.003918543116
0.003918885108
0.003916376242
0.00391680917
0.003917415626
0.003918140951
0.003918923031
0.003919694497
0.003920384821
0.003920921413
0.003921229334
0.003918963806
0.003919353928
0.003919900373
0.00392055385
0.003921258364
0.003921953211
0.003922574876
0.003923058022
0.003923335233
0.003921289929
0.003921641422
0.003922133719
0.003922722376
0.003923356926
0.003923982679
0.003924542441
0.003924977411
0.003925226945
0.003923380872
0.003923697514
0.003924140965
0.00392467116
0.003925242618
0.003925806076
0.003926310039
0.003926701594
0.00392692619
0.00392526029
0.003925545498
0.003925944897
0.003926422375
0.003926936952
0.003927444258
0.003927897935
0.003928250372
0.003928452503
0.003926949486
0.003927206349
0.003927566028
0.003927995981
0.003928459287
0.003928915988
0.003929324357
0.003929641553
0.003929823451
0.003928467639
0.003928698948
0.003929022821
0.003929409937
0.003929827037
0.003930238142
0.003930605693
0.003930891149
0.003931054826
0.003929832011
0.003930040285
0.003930331887
0.003930680399
0.003931055867
0.003931425895
0.003931756682
0.003932013554
0.003932160824
0.003931058135
0.00393124565
0.003931508171
0.003931821901
0.003932159863
0.003932492892
0.003932790568
0.003933021703
0.003933154202
0.003932159987
0.003932328796
0.003932565116
0.003932847512
0.00393315169
0.003933451397
0.003933719259
0.003933927221
0.003934046425
0.003933150135
0.003933302094
0.00393351481
0.003933768982
0.003934042734
0.003934312435
0.003934553454
0.003934740557
0.003934847793
0.003934039888
0.003934176666
0.003934368123
0.003934596875
0.003934843229
0.003935085913
0.003935302768
0.003935471094
0.00393556756
0.00393483941
0.003934962517
0.003935134827
0.003935340689
0.003935562373
0.003935780735
0.003935975837
0.003936127264
0.003936214038
0.003935557844
0.003935668638
0.003935823707
0.003936008959
0.003936208432
0.0039364049
0.003936580424
0.003936716643
0.003936794695
0.003936203406
0.003936303114
0.003936442659
0.003936609355
0.003936788835
0.003936965595
0.003937123498
0.003937246032
0.003937316237
0.003936783486
0.003936873211
0.00393699878
0.003937148771
0.003937310254
0.003937469277
0.003937611324
0.003937721543
0.003937784688
0.003937304722
0.00393738546
0.003937498448
0.003937633402
0.003937778686
0.003937921747
0.003938049525
0.003938148665
0.003938205457
0.003937773082
0.003937845731
0.003937947393
0.003938068814
0.003938199519
0.003938328215
0.003938443154
0.003938532325
0.003938583404
0.003938193931
0.003938259298
0.003938350767
0.003938460007
0.003938577592
0.003938693362
0.003938796749
0.003938876952
0.00393892289
0.003938572089
0.003938630901
0.003938713195
0.003938811473
0.003938917253
0.003939021391
0.003939114385
0.00393918652
0.003939227835
0.003938911887
0.0039389648
0.003939038837
0.00393912725
0.003939222406
0.00393931608
0.003939399723
0.003939464601
0.003939501756
0.003939217216
0.003939264821
0.003939331427
0.003939410963
0.00393949656
0.003939580818
0.003939656049
0.003939714398
0.003939747813
0.003939491575
0.003939534402
0.003939594322
0.00393966587
0.003939742866
0.003939818654
0.003939886317
0.003939938793
0.003939968843
0.003939738106
0.003939776633
0.003939830536
0.003939894896
0.003939964154
0.003940032321
0.003940093177
0.003940140371
0.003940167394
0.003939959631
0.00393999429
0.003940042778
0.003940100672
0.003940162967
0.003940224278
0.00394027901
0.003940321452
0.003940345754
0.003940158687
0.003940189865
0.003940233482
0.003940285557
0.003940341588
0.003940396731
0.003940445954
0.003940484123
0.003940505976
0.003940337553
0.003940365599
0.003940404833
0.003940451672
0.003940502068
0.003940551663
0.00394059593
0.003940630254
0.003940649906
0.003940498277
0.003940523504
0.003940558794
0.003940600923
0.00394064625
0.003940690853
0.003940730662
0.003940761529
0.0039407792
0.003940642697
0.003940665388
0.00394069713
0.003940735022
0.003940775787
0.003940815899
0.003940851699
0.003940879455
0.003940895345
0.003940772467
0.003940792876
0.003940821425
0.003940855504
0.003940892165
0.003940928238
0.003940960431
0.003940985389
0.003940999677
0.00394088907
0.003940907426
0.003940933102
0.003940963751
0.00394099672
0.003941029159
0.003941058107
0.003941080549
0.003941093395
0.003940993839
0.003941010348
0.003941033439
0.003941061002
0.00394109065
0.003941119819
0.003941145848
0.003941166026
0.003941177576
0.003941087974
0.00394110282
0.003941123586
0.003941148371
0.00394117503
0.003941201258
0.003941224661
0.003941242802
0.003941253186
0.003941172548
0.003941185899
0.003941204571
0.003941226858
0.003941250828
0.003941274409
0.003941295449
0.003941311758
0.003941321093
0.003941248529
0.003941260534
0.003941277323
0.00394129736
0.003941318911
0.00394134011
0.003941359024
0.003941373685
0.003941382076
0.003941316784
0.003941327577
0.003941342671
0.003941360685
0.003941380058
0.003941399114
0.003941416115
0.003941429292
0.003941436834
0.003941378092
0.003941387795
0.003941401363
0.003941417556
0.003941434969
0.003941452096
0.003941467375
0.003941479216
0.003941485994
0.003941433153
0.003941441874
0.003941454069
0.003941468621
0.00394148427
0.003941499661
0.00394151339
0.003941524029
0.00394153012
0.003941482594
0.003941490431
0.003941501389
0.003941514465
0.003941528525
0.003941542352
0.003941554686
0.003941564243
0.003941569714
0.003941526979
0.003941534019
0.003941543864
0.00394155561
0.00394156824
0.003941580658
0.003941591735
0.003941600318
0.003941605231
0.003941566812
0.003941573136
0.003941581977
0.003941592525
0.003941603865
0.003941615015
0.003941624959
0.003941632664
0.003941637075
0.003941602548
0.003941608226
0.003941616163
0.003941625631
0.003941635809
0.003941645815
0.003941654738
0.003941661651
0.003941665609
0.003941634593
0.003941639687
0.003941646809
0.003941655304
0.003941664434
0.003941673409
0.003941681411
0.00394168761
0.003941691159
0.003941663311
0.003941667879
0.003941674265
0.003941681881
0.003941690065
0.003941698109
0.00394170528
0.003941710835
0.003941714015
0.003941689027
0.003941693121
0.003941698843
0.003941705665
0.003941712996
0.003941720199
0.003941726619
0.003941731591
0.003941734439
0.003941712036
0.0039417157
0.003941720822
0.003941726927
0.003941733485
0.003941739928
0.003941745669
0.003941750115
0.003941752661
0.003941732596
0.003941735873
0.003941740451
0.003941745908
0.003941751767
0.003941757522
0.003941762648
0.003941766617
0.003941768891
0.003941750944
0.00394175387
0.003941757956
0.003941762825
0.003941768051
0.003941773182
0.003941777751
0.003941781287
0.003941783314
0.003941767288
0.003941769895
0.003941773535
0.003941777871
0.003941782523
0.003941787087
0.00394179115
0.003941794294
0.003941796096
0.003941781816
0.003941784134
0.003941787368
0.003941791219
0.003941795349
0.003941799399
0.003941803002
0.003941805789
0.003941807387
0.003941794695
0.003941796749
0.003941799615
0.003941803025
0.003941806679
0.00394181026
0.003941813444
0.003941815905
0.003941817317
0.003941806074
0.003941807889
0.003941810418
0.003941813426
0.003941816647
0.0039418198
0.003941822601
0.003941824765
0.003941826007
0.003941816089
0.003941817684
0.003941819907
0.003941822547
0.003941825371
0.003941828133
0.003941830583
0.003941832476
0.003941833562
0.003941824857
0.003941826252
0.003941828194
0.003941830497
0.003941832958
0.003941835361
0.003941837491
0.003941839133
0.003941840078
0.003941832488
0.003941833699
0.003941835383
0.003941837377
0.003941839504
0.003941841578
0.003941843412
0.003941844825
0.003941845639
0.003941839076
0.003941840118
0.003941841564
0.003941843275
0.003941845094
0.003941846864
0.003941848427
0.003941849629
0.003941850322
0.003941844708
0.003941845594
0.003941846821
0.003941848269
0.003941849805
0.003941851295
0.003941852606
0.003941853612
0.003941854194
0.003941849459
0.003941850201
0.003941851226
0.003941852431
0.003941853705
0.003941854935
0.003941856013
0.003941856839
0.003941857318
0.003941853399
0.003941854008
0.003941854845
0.003941855825
0.003941856855
0.003941857844
0.003941858706
0.003941859364
0.003941859748
0.003941856589
0.003941857073
0.003941857736
0.003941858507
0.00394185931
0.003941860074
0.003941860735
0.003941861236
0.003941861532
0.003941859083
0.003941859452
0.003941859952
0.003941860527
0.003941861118
0.003941861673
0.003941862145
0.003941862501
0.003941862714
0.00394186093
0.00394186119
0.003941861538
0.00394186193
0.003941862323
0.003941862682
0.003941862978
0.003941863196
0.003941863332
0.003941862172
0.003941862331
0.003941862536
0.003941862756
0.003941862964
0.003941863138
0.003941863268
0.003941863358
0.003941863422
0.003941862849
0.003941862912
0.003941862983
0.003941863042
0.003941863074
0.003941863073
0.003941863048
0.003941863017
0.003941863014
0.003941862993
0.003941862967
0.003941862911
0.003941862817
0.003941862683
0.003941862518
0.003941862346
0.003941862201
0.003941862134
0.003941862636
0.003941862524
0.003941862348
0.003941862109
0.003941861818
0.003941861498
0.003941861185
0.003941860932