/*--------------------------------*- C++ -*----------------------------------*\
| =========                 |                                                 |
| \\      /  F ield         | OpenFOAM: The Open Source CFD Toolbox           |
|  \\    /   O peration     | Version:  2212                                  |
|   \\  /    A nd           | Website:  www.openfoam.com                      |
|    \\/     M anipulation  |                                                 |
\*---------------------------------------------------------------------------*/
FoamFile
{
    version     2.0;
    format      ascii;
    arch        "LSB;label=32;scalar=64";
    class       volScalarField;
    location    "20.00000000";
    object      H;
}
// * * * * * * * * * * * * * * * * * * * * * * * * * * * * * * * * * * * * * //

dimensions      [0 0 0 0 0 0 0];

internalField   nonuniform List<scalar> 
3000
(
2.460654228e-29
2.762776633e-29
3.217733578e-29
3.821748358e-29
4.565324874e-29
5.421090088e-29
6.321690302e-29
7.123798432e-29
7.57670663e-29
9.201912514e-29
1.036619714e-28
1.21145396e-28
1.443206433e-28
1.729420904e-28
2.064549095e-28
2.435917255e-28
2.814039563e-28
3.11758133e-28
2.051052389e-28
2.327073098e-28
2.74483568e-28
3.306683149e-28
4.016623617e-28
4.87538189e-28
5.865416515e-28
6.913043913e-28
7.755797012e-28
3.885984077e-28
4.452620343e-28
5.322238909e-28
6.516144025e-28
8.064070734e-28
9.987088202e-28
1.225027862e-27
1.464470793e-27
1.649337773e-27
6.863678961e-28
7.957941371e-28
9.663666672e-28
1.205194533e-27
1.521197908e-27
1.920046917e-27
2.39109194e-27
2.87977341e-27
3.241282904e-27
1.174169412e-27
1.378481656e-27
1.701605764e-27
2.161373068e-27
2.77828516e-27
3.562579742e-27
4.484679806e-27
5.422429479e-27
6.09679509e-27
1.983627256e-27
2.357368e-27
2.955536525e-27
3.816830019e-27
4.982375706e-27
6.466672618e-27
8.198694978e-27
9.930490919e-27
1.115452295e-26
3.341923075e-27
4.015987897e-27
5.104823477e-27
6.685745982e-27
8.835562347e-27
1.157123078e-26
1.474059266e-26
1.787043849e-26
2.006027885e-26
5.642099416e-27
6.845694077e-27
8.803211774e-27
1.166150517e-26
1.555853497e-26
2.05094933e-26
2.621183982e-26
3.17950746e-26
3.567985766e-26
9.564207353e-27
1.169760975e-26
1.518454326e-26
2.02953327e-26
2.727296878e-26
3.612284441e-26
4.627127741e-26
5.615094124e-26
6.300612843e-26
1.628675222e-26
2.004831356e-26
2.621809756e-26
3.528399977e-26
4.767000247e-26
6.33570256e-26
8.128984712e-26
9.868340689e-26
1.107409618e-25
2.785419969e-26
3.446184266e-26
4.532714924e-26
6.131990049e-26
8.317683932e-26
1.108275068e-25
1.423680668e-25
1.728910233e-25
1.940576964e-25
4.781651168e-26
5.939493968e-26
7.846900203e-26
1.065778329e-25
1.449994025e-25
1.935603926e-25
2.488648852e-25
3.023179649e-25
3.394489145e-25
8.233848843e-26
1.025952798e-25
1.360140668e-25
1.853098734e-25
2.527025939e-25
3.378183236e-25
4.346287649e-25
5.281366391e-25
5.933048082e-25
1.421162281e-25
1.775162899e-25
2.359920134e-25
3.223379426e-25
4.404487832e-25
5.896190578e-25
7.591934159e-25
9.229127142e-25
1.037293226e-24
2.4567697e-25
3.074625298e-25
4.096372034e-25
5.60678588e-25
7.675231818e-25
1.029127023e-24
1.327006114e-24
1.614734035e-24
1.814190024e-24
4.250777716e-25
5.327299171e-25
7.108741965e-25
9.743490695e-25
1.335217859e-24
1.791462211e-24
2.31053767e-24
2.812040485e-24
3.15880178e-24
7.358303275e-25
9.231094439e-25
1.233146462e-24
1.691791471e-24
2.319931699e-24
3.113788102e-24
4.016551735e-24
4.889465928e-24
5.49188432e-24
1.274159306e-24
1.599631465e-24
2.138616193e-24
2.936120368e-24
4.028415851e-24
5.408792153e-24
6.978471649e-24
8.497303299e-24
9.543695292e-24
2.20698148e-24
2.772321429e-24
3.708818602e-24
5.094870044e-24
6.993629545e-24
9.393457497e-24
1.212262922e-23
1.476356399e-23
1.658094779e-23
3.824000819e-24
4.805814721e-24
6.432720843e-24
8.841355298e-24
1.21418622e-23
1.631425579e-23
2.105962624e-23
2.564684508e-23
2.880265354e-23
6.628325085e-24
8.333538491e-24
1.116006712e-23
1.53462199e-23
2.108440942e-23
2.834063998e-23
3.659380481e-23
4.455162546e-23
5.002782273e-23
1.149428889e-23
1.445670026e-23
1.936886449e-23
2.664689709e-23
3.662774597e-23
4.92547879e-23
6.362219674e-23
7.746878198e-23
8.690794151e-23
1.994281247e-23
2.509177973e-23
3.363309583e-23
4.629470762e-23
6.366883181e-23
8.566415565e-23
1.107094256e-22
1.348642493e-22
1.513309139e-22
3.462288007e-23
4.357886909e-23
5.844301413e-23
8.049258941e-23
1.107743239e-22
1.491489058e-22
1.928951407e-22
2.351413268e-22
2.639869956e-22
6.015601401e-23
7.575046387e-23
1.016499513e-22
1.401057487e-22
1.929832221e-22
2.600925027e-22
3.367319119e-22
4.108994051e-22
4.616800732e-22
1.046232517e-22
1.3181778e-22
1.770249466e-22
2.442382396e-22
3.368197112e-22
4.545778496e-22
5.894196491e-22
7.203405289e-22
8.103815213e-22
1.821956504e-22
2.297174657e-22
3.088180892e-22
4.26643453e-22
5.893437874e-22
7.969449512e-22
1.035596145e-21
1.268444613e-21
1.429700984e-21
3.178160671e-22
4.010904788e-22
5.399490596e-22
7.47324304e-22
1.034675649e-21
1.402956856e-21
1.828664603e-21
2.246938827e-21
2.539562375e-21
5.555931121e-22
7.020512204e-22
9.468605322e-22
1.313756901e-21
1.824553952e-21
2.48316615e-21
3.250215057e-21
4.011120243e-21
4.550954798e-21
9.739836407e-22
1.232773839e-21
1.666751841e-21
2.320211456e-21
3.235658847e-21
4.425405194e-21
5.824727674e-21
7.230321107e-21
8.245912484e-21
1.71354049e-21
2.173518616e-21
2.948141297e-21
4.121628744e-21
5.778822969e-21
7.954371911e-21
1.054502862e-20
1.318825535e-20
1.514149905e-20
3.028237202e-21
3.851753062e-21
5.246059314e-21
7.374547416e-21
1.041054528e-20
1.444579425e-20
1.932354165e-20
2.439373765e-20
2.823972377e-20
5.381706428e-21
6.869009347e-21
9.404016832e-21
1.331032178e-20
1.894965289e-20
2.65558054e-20
3.591151928e-20
4.584432847e-20
5.359908887e-20
9.630458719e-21
1.234442906e-20
1.700755581e-20
2.427378903e-20
3.491223476e-20
4.950341766e-20
6.780277979e-20
8.768238215e-20
1.036770055e-19
1.737854198e-20
2.239026295e-20
3.108296824e-20
4.480355669e-20
6.52129806e-20
9.372594567e-20
1.302352864e-19
1.708530218e-19
2.045237521e-19
3.167643618e-20
4.105685732e-20
5.750249691e-20
8.383541274e-20
1.236875384e-19
1.804570554e-19
2.547084722e-19
3.392834029e-19
4.113977118e-19
5.842454564e-20
7.624549855e-20
1.07860397e-19
1.592704365e-19
2.384919904e-19
3.535893327e-19
5.072889937e-19
6.862828688e-19
8.428137377e-19
1.092475242e-19
1.436535541e-19
2.054622229e-19
3.075920523e-19
4.67847302e-19
7.051492472e-19
1.028208064e-18
1.411948183e-18
1.754808998e-18
2.075005098e-19
2.750654236e-19
3.980082404e-19
6.043993403e-19
9.339017402e-19
1.430386097e-18
2.117770279e-18
2.947888214e-18
3.70231113e-18
4.010776464e-19
5.361036977e-19
7.84886883e-19
1.208805873e-18
1.896190929e-18
2.94739949e-18
4.42268228e-18
6.227021043e-18
7.887117917e-18
7.902845521e-19
1.064932919e-18
1.576807053e-18
2.46053577e-18
3.91208526e-18
6.157414263e-18
9.339020227e-18
1.326299796e-17
1.690052156e-17
1.589696862e-18
2.158141996e-18
3.227975012e-18
5.094472987e-18
8.189231732e-18
1.301149684e-17
1.988017308e-17
2.838416218e-17
3.62898651e-17
3.268013979e-18
4.464497759e-18
6.733093916e-18
1.071948959e-17
1.736422685e-17
2.774622465e-17
4.254072344e-17
6.084304739e-17
7.783017952e-17
6.869492658e-18
9.428643211e-18
1.43033027e-17
2.289800176e-17
3.723562664e-17
5.958982982e-17
9.130484463e-17
1.30326526e-16
1.663303549e-16
1.476234527e-17
2.031966467e-17
3.092203909e-17
4.960562576e-17
8.065989451e-17
1.287482074e-16
1.96354076e-16
2.787077489e-16
3.539283646e-16
3.239444926e-17
4.463402652e-17
6.795659604e-17
1.088917399e-16
1.76423982e-16
2.79877482e-16
4.23421281e-16
5.95836028e-16
7.511113625e-16
7.241181894e-17
9.971494252e-17
1.515689492e-16
2.420035771e-16
3.897403493e-16
6.131454307e-16
9.184284712e-16
1.279119336e-15
1.598410265e-15
1.64225284e-16
2.257883398e-16
3.422152679e-16
5.438678742e-16
8.701522241e-16
1.357776237e-15
2.015306572e-15
2.780956424e-15
3.447309876e-15
3.75777956e-16
5.156510429e-16
7.792184749e-16
1.233417896e-15
1.964083814e-15
3.050020102e-15
4.507806948e-15
6.198314007e-15
7.657495423e-15
8.615861631e-16
1.180426433e-15
1.780332845e-15
2.81338799e-15
4.478155145e-15
6.967914559e-15
1.035112884e-14
1.433958558e-14
1.782242223e-14
1.965120829e-15
2.690686395e-15
4.058386342e-15
6.426430485e-15
1.028786847e-14
1.61863647e-14
2.446216086e-14
3.460618731e-14
4.378015503e-14
4.431267879e-15
6.072795957e-15
9.18501494e-15
1.463882007e-14
2.372564082e-14
3.807968916e-14
5.913610829e-14
8.628131502e-14
1.119902536e-13
9.848837799e-15
1.353645827e-14
2.059426989e-14
3.317700226e-14
5.471650984e-14
9.000320384e-14
1.440041882e-13
2.165584574e-13
2.876714908e-13
2.162399845e-14
2.987797998e-14
4.586239106e-14
7.489124103e-14
1.258107657e-13
2.114943055e-13
3.455953895e-13
5.278403076e-13
7.065317173e-13
4.734140088e-14
6.589065938e-14
1.021922816e-13
1.690165586e-13
2.877027814e-13
4.882776985e-13
7.983383537e-13
1.205698469e-12
1.586064238e-12
1.048923941e-13
1.469953987e-13
2.297655982e-13
3.823261212e-13
6.509002427e-13
1.092224493e-12
1.737737876e-12
2.518208774e-12
3.180212511e-12
2.383341165e-13
3.345544041e-13
5.222952862e-13
8.620394932e-13
1.438256619e-12
2.325939824e-12
3.506795278e-12
4.779588378e-12
5.745807725e-12
5.556396145e-13
7.727529693e-13
1.186040421e-12
1.902489371e-12
3.038037188e-12
4.628725965e-12
6.519114882e-12
8.350510589e-12
9.630204139e-12
1.302367128e-12
1.769092279e-12
2.619689942e-12
3.99931334e-12
5.998373516e-12
8.525120875e-12
1.126121203e-11
1.374529426e-11
1.540801244e-11
2.955655527e-12
3.871972716e-12
5.448788395e-12
7.814612062e-12
1.095613919e-11
1.463547912e-11
1.843034298e-11
2.179105071e-11
2.400049606e-11
6.239530606e-12
7.836098161e-12
1.043242142e-11
1.408263862e-11
1.866515455e-11
2.38540417e-11
2.913784402e-11
3.380096295e-11
3.684919045e-11
1.196659651e-11
1.446038533e-11
1.836702388e-11
2.367719927e-11
3.021480143e-11
3.75857905e-11
4.512639361e-11
5.182066653e-11
5.620303116e-11
2.091495496e-11
2.457679381e-11
3.023413759e-11
3.786606311e-11
4.727647639e-11
5.797972945e-11
6.905675975e-11
7.900487314e-11
8.557714726e-11
3.40093405e-11
3.929683942e-11
4.746363468e-11
5.853103828e-11
7.231636516e-11
8.820396063e-11
1.049073562e-10
1.201679856e-10
1.304174557e-10
5.256563952e-11
6.021420607e-11
7.208989755e-11
8.832951378e-11
1.088060133e-10
1.327898316e-10
1.584979499e-10
1.824981393e-10
1.989751873e-10
7.838027858e-11
8.948474453e-11
1.068366238e-10
1.308069043e-10
1.614636173e-10
1.980275822e-10
2.380726371e-10
2.76360866e-10
3.032961507e-10
1.137485918e-10
1.29840849e-10
1.551721874e-10
1.905573035e-10
2.364988694e-10
2.92329344e-10
3.548218727e-10
4.160024969e-10
4.600785219e-10
1.614985276e-10
1.846773835e-10
2.214423275e-10
2.733773019e-10
3.418065153e-10
4.26462884e-10
5.231507948e-10
6.198473629e-10
6.909974277e-10
2.251884511e-10
2.582460549e-10
3.110592283e-10
3.864404627e-10
4.870856335e-10
6.135511955e-10
7.604791269e-10
9.100422296e-10
1.022038205e-09
3.094640653e-10
3.5600445e-10
4.3081667e-10
5.385221504e-10
6.838750177e-10
8.687715065e-10
1.086432278e-09
1.311024781e-09
1.481544434e-09
4.206455279e-10
4.851690207e-10
5.893583431e-10
7.40288611e-10
9.45509454e-10
1.208765153e-09
1.521468189e-09
1.847216967e-09
2.097129461e-09
5.675022107e-10
6.554204935e-10
7.977405179e-10
1.004598039e-09
1.286986976e-09
1.650856462e-09
2.085237287e-09
2.540420552e-09
2.892295077e-09
7.620279122e-10
8.795674257e-10
1.069897863e-09
1.346657301e-09
1.724692437e-09
2.212244115e-09
2.795234476e-09
3.408093159e-09
3.884548376e-09
1.01988854e-09
1.173844682e-09
1.422713465e-09
1.783802411e-09
2.275891409e-09
2.90936696e-09
3.666528822e-09
4.464527886e-09
5.091232522e-09
1.36018246e-09
1.557516996e-09
1.875422549e-09
2.334734147e-09
2.957982674e-09
3.75764387e-09
4.712866761e-09
5.725972568e-09
6.528781383e-09
1.804322713e-09
2.051664948e-09
2.44834373e-09
3.01837392e-09
3.787931985e-09
4.772195796e-09
5.950582901e-09
7.200527035e-09
8.185392713e-09
2.374246425e-09
2.677477346e-09
3.161490702e-09
3.853191033e-09
4.783185523e-09
5.972922572e-09
7.388026003e-09
8.874077924e-09
1.004056402e-08
3.090822967e-09
3.455094629e-09
4.034325031e-09
4.858838778e-09
5.967781249e-09
7.368164758e-09
9.012936552e-09
1.072654001e-08
1.206907017e-08
3.974343967e-09
4.405449847e-09
5.092450667e-09
6.063464303e-09
7.346957071e-09
8.94727187e-09
1.080653385e-08
1.272791889e-08
1.422678628e-08
5.055260346e-09
5.560249641e-09
6.353935469e-09
7.462860118e-09
8.910483884e-09
1.069429096e-08
1.274477608e-08
1.484571025e-08
1.647599133e-08
6.343774562e-09
6.917403009e-09
7.811202342e-09
9.047432529e-09
1.064320716e-08
1.258722791e-08
1.479805417e-08
1.704301157e-08
1.877443601e-08
7.831911953e-09
8.468370991e-09
9.452740471e-09
1.080140808e-08
1.252361934e-08
1.459815287e-08
1.69320458e-08
1.927994757e-08
2.107846794e-08
9.50747734e-09
1.019888757e-08
1.126080027e-08
1.27024931e-08
1.452418151e-08
1.66942075e-08
1.910917615e-08
2.15154295e-08
2.334506659e-08
1.135196992e-08
1.208815485e-08
1.321123366e-08
1.472249102e-08
1.661243939e-08
1.88390828e-08
2.129028566e-08
2.370884298e-08
2.553343949e-08
1.334053577e-08
1.410926361e-08
1.527431445e-08
1.682850872e-08
1.875251063e-08
2.099466664e-08
2.343628861e-08
2.582156315e-08
2.760630685e-08
1.544282321e-08
1.623025969e-08
1.741602453e-08
1.898443971e-08
2.090669484e-08
2.312267582e-08
2.550969304e-08
2.781822156e-08
2.953084908e-08
1.762424671e-08
1.841551252e-08
1.959953379e-08
2.115252864e-08
2.303706096e-08
2.518617163e-08
2.747591227e-08
2.96676278e-08
3.127904147e-08
1.984741873e-08
2.062719382e-08
2.178672018e-08
2.329490273e-08
2.510693997e-08
2.715095408e-08
2.930447788e-08
3.13434772e-08
3.28259288e-08
2.207361903e-08
2.28267535e-08
2.393963367e-08
2.537498953e-08
2.708226852e-08
2.898690037e-08
3.097090119e-08
3.282917984e-08
3.416756351e-08
2.426422165e-08
2.497631865e-08
2.602182982e-08
2.735871631e-08
2.893251546e-08
3.066825665e-08
3.245513531e-08
3.411010754e-08
3.52906031e-08
2.638202745e-08
2.703997292e-08
2.799955467e-08
2.921555225e-08
3.063154938e-08
3.217441339e-08
3.374285764e-08
3.517812509e-08
3.619132832e-08
2.839245723e-08
2.898487161e-08
2.984273213e-08
3.091931345e-08
3.215821106e-08
3.349021363e-08
3.482548157e-08
3.603098735e-08
3.687212635e-08
3.026454886e-08
3.078212798e-08
3.152567015e-08
3.244860803e-08
3.34964023e-08
3.46055685e-08
3.56991405e-08
3.66704814e-08
3.73385241e-08
3.197162364e-08
3.240730123e-08
3.302724721e-08
3.378655728e-08
3.463411848e-08
3.55134773e-08
3.636120413e-08
3.709709249e-08
3.75924266e-08
3.349113879e-08
3.383988287e-08
3.432972613e-08
3.491847305e-08
3.555935469e-08
3.620314764e-08
3.680034831e-08
3.72976044e-08
3.760521348e-08
3.480179444e-08
3.505950132e-08
3.541310678e-08
3.582263089e-08
3.624788037e-08
3.664136936e-08
3.695763353e-08
3.720151152e-08
3.735024443e-08
3.586995516e-08
3.60316844e-08
3.623955727e-08
3.644002017e-08
3.662247989e-08
3.676877287e-08
3.686647358e-08
3.691994785e-08
3.69405962e-08
3.660046753e-08
3.665219674e-08
3.670731444e-08
3.674239254e-08
3.674312282e-08
3.670042117e-08
3.661598606e-08
3.650865894e-08
3.641937203e-08
3.702811168e-08
3.699889605e-08
3.694005068e-08
3.683879593e-08
3.668661249e-08
3.648278817e-08
3.624010323e-08
3.599258467e-08
3.580749429e-08
3.724295764e-08
3.714568205e-08
3.698992561e-08
3.676974342e-08
3.648338226e-08
3.613816159e-08
3.575682152e-08
3.538713728e-08
3.511912021e-08
3.727846774e-08
3.712124045e-08
3.687999528e-08
3.655469406e-08
3.615017172e-08
3.568126959e-08
3.517965284e-08
3.470499234e-08
3.436637647e-08
3.715155459e-08
3.694137294e-08
3.66248734e-08
3.620751099e-08
3.570031299e-08
3.512498725e-08
3.452101003e-08
3.395802568e-08
3.356064571e-08
3.687552435e-08
3.661928092e-08
3.623767157e-08
3.574125897e-08
3.514675441e-08
3.448197625e-08
3.379305295e-08
3.315772555e-08
3.271280057e-08
3.646388817e-08
3.616852216e-08
3.573196437e-08
3.516943316e-08
3.45027278e-08
3.376495944e-08
3.300774948e-08
3.231516104e-08
3.183314977e-08
3.593116469e-08
3.560356185e-08
3.512206464e-08
3.450602705e-08
3.378167907e-08
3.29865801e-08
3.217672046e-08
3.144084671e-08
3.093132942e-08
3.529272927e-08
3.493956725e-08
3.442276797e-08
3.3765254e-08
3.299699668e-08
3.215916276e-08
3.131104988e-08
3.054460591e-08
3.001620555e-08
3.456439367e-08
3.419199629e-08
3.364896286e-08
3.296119564e-08
3.216171337e-08
3.129447839e-08
3.042111618e-08
2.96354612e-08
2.909580406e-08
3.376194513e-08
3.337616537e-08
3.281524197e-08
3.210746959e-08
3.128823928e-08
3.040354651e-08
2.951646047e-08
2.872155808e-08
2.817726979e-08
3.290072476e-08
3.250686151e-08
3.193556241e-08
3.121694847e-08
3.038814564e-08
2.949648392e-08
2.860569488e-08
2.781012162e-08
2.726685257e-08
3.199527513e-08
3.159802289e-08
3.102297238e-08
3.030154128e-08
2.947200451e-08
2.85824014e-08
2.76964498e-08
2.690744298e-08
2.636991707e-08
3.10590678e-08
3.066249613e-08
3.008940928e-08
2.937203911e-08
2.854928412e-08
2.766934598e-08
2.679535645e-08
2.601889233e-08
2.549097273e-08
3.010431224e-08
2.971187033e-08
2.914556787e-08
2.843802226e-08
2.762829559e-08
2.676428415e-08
2.590806017e-08
2.514895348e-08
2.463371977e-08
2.914184147e-08
2.875638274e-08
2.82008327e-08
2.75078226e-08
2.671618484e-08
2.587311985e-08
2.503925887e-08
2.430127587e-08
2.38011074e-08
2.818106594e-08
2.780488741e-08
2.726326618e-08
2.658853283e-08
2.581896198e-08
2.500074059e-08
2.419276096e-08
2.347873902e-08
2.299540037e-08
2.72299846e-08
2.686487623e-08
2.633964239e-08
2.568605358e-08
2.49415601e-08
2.415108462e-08
2.337155729e-08
2.26835255e-08
2.221825029e-08
2.629524082e-08
2.594254044e-08
2.543551538e-08
2.480516827e-08
2.408791528e-08
2.332722418e-08
2.257790236e-08
2.191719719e-08
2.147076816e-08
2.538221257e-08
2.504286359e-08
2.455531493e-08
2.39496399e-08
2.326106095e-08
2.253145265e-08
2.181339653e-08
2.118077294e-08
2.075359681e-08
2.449512432e-08
2.416973208e-08
2.370245414e-08
2.312231442e-08
2.246322673e-08
2.176537997e-08
2.107907298e-08
2.047480539e-08
2.006698032e-08
2.36371693e-08
2.332605482e-08
2.287944537e-08
2.232523156e-08
2.169594192e-08
2.103002555e-08
2.037548001e-08
1.979945322e-08
1.941082905e-08
2.281063813e-08
2.251388814e-08
2.208801945e-08
2.155973592e-08
2.096013635e-08
2.032590772e-08
1.970275876e-08
1.915454821e-08
1.878477925e-08
2.201704603e-08
2.173455805e-08
2.132924043e-08
2.082658242e-08
2.025623518e-08
1.965312696e-08
1.906071475e-08
1.85396563e-08
1.818824681e-08
2.125725359e-08
2.098877585e-08
2.060361379e-08
2.012603502e-08
1.958424661e-08
1.901144206e-08
1.844888254e-08
1.795413203e-08
1.76204749e-08
2.053157887e-08
2.027674493e-08
1.991118557e-08
1.945795645e-08
1.894384111e-08
1.840033812e-08
1.786658297e-08
1.739716641e-08
1.70805755e-08
1.983989871e-08
1.959825692e-08
1.925163131e-08
1.882188829e-08
1.833442154e-08
1.781908645e-08
1.731297304e-08
1.686782825e-08
1.656756507e-08
1.918173845e-08
1.895277676e-08
1.862433441e-08
1.821712112e-08
1.77551842e-08
1.72667962e-08
1.678708876e-08
1.636509939e-08
1.608039486e-08
1.855635005e-08
1.833951649e-08
1.802845378e-08
1.764275484e-08
1.72051711e-08
1.674245848e-08
1.628788133e-08
1.588790432e-08
1.561797613e-08
1.796277904e-08
1.775749831e-08
1.746298161e-08
1.709774998e-08
1.668331416e-08
1.624498329e-08
1.581424743e-08
1.543513465e-08
1.517920097e-08
1.739992085e-08
1.720560771e-08
1.692679181e-08
1.658097051e-08
1.618847193e-08
1.577323009e-08
1.536505389e-08
1.500566909e-08
1.476295911e-08
1.686656781e-08
1.66826375e-08
1.641868006e-08
1.609121914e-08
1.571945974e-08
1.532603271e-08
1.493915787e-08
1.459838943e-08
1.436815136e-08
1.636144758e-08
1.618732389e-08
1.593739651e-08
1.562726604e-08
1.527507399e-08
1.490221937e-08
1.453542275e-08
1.421219317e-08
1.399370006e-08
1.588325416e-08
1.571837552e-08
1.548167204e-08
1.518787173e-08
1.485411155e-08
1.45006284e-08
1.415273054e-08
1.384600319e-08
1.3638557e-08
1.543067262e-08
1.527449648e-08
1.505023899e-08
1.47718051e-08
1.445538478e-08
1.412012037e-08
1.378999141e-08
1.349877502e-08
1.330170925e-08
1.500239838e-08
1.485440426e-08
1.46418472e-08
1.437785724e-08
1.407773303e-08
1.37595873e-08
1.344615063e-08
1.316950203e-08
1.298218333e-08
1.459715189e-08
1.445684338e-08
1.425527624e-08
1.40048519e-08
1.372003117e-08
1.341795923e-08
1.312019352e-08
1.285721899e-08
1.267904782e-08
1.421368963e-08
1.408059554e-08
1.388934424e-08
1.365165294e-08
1.338119561e-08
1.309420883e-08
1.281114871e-08
1.256100427e-08
1.239141488e-08
1.385081198e-08
1.372448678e-08
1.354291427e-08
1.331716963e-08
1.306018839e-08
1.278735438e-08
1.251809007e-08
1.227998094e-08
1.211844087e-08
1.350736862e-08
1.338739239e-08
1.321489846e-08
1.300035991e-08
1.275601962e-08
1.249646131e-08
1.224013755e-08
1.201331697e-08
1.18593262e-08
1.318226187e-08
1.306823988e-08
1.290426046e-08
1.270023228e-08
1.246774869e-08
1.222064284e-08
1.19764572e-08
1.176022486e-08
1.16133146e-08
1.287444851e-08
1.276601048e-08
1.261001656e-08
1.241584644e-08
1.219448446e-08
1.195905969e-08
1.172626054e-08
1.151996065e-08
1.137969203e-08
1.258294027e-08
1.247973949e-08
1.233123576e-08
1.214631307e-08
1.193538472e-08
1.171091922e-08
1.148880341e-08
1.129182261e-08
1.115778525e-08
1.230680349e-08
1.220851572e-08
1.206703907e-08
1.189079288e-08
1.1689655e-08
1.147547412e-08
1.126338451e-08
1.107514967e-08
1.09469601e-08
1.204515797e-08
1.195148033e-08
1.181659814e-08
1.164849519e-08
1.145654708e-08
1.125202073e-08
1.104934367e-08
1.086931957e-08
1.074661977e-08
1.179717531e-08
1.170782511e-08
1.157913358e-08
1.141867613e-08
1.123535712e-08
1.10398972e-08
1.084605991e-08
1.067374707e-08
1.055620285e-08
1.156207692e-08
1.147679044e-08
1.135391289e-08
1.120063659e-08
1.102542359e-08
1.083848142e-08
1.065294952e-08
1.048788187e-08
1.037518145e-08
1.133913178e-08
1.125766309e-08
1.114024824e-08
1.099372002e-08
1.082612517e-08
1.064718896e-08
1.046946395e-08
1.031120673e-08
1.020305923e-08
1.112765398e-08
1.104977382e-08
1.093749412e-08
1.079731017e-08
1.063687848e-08
1.04654709e-08
1.029508783e-08
1.014323547e-08
1.003936954e-08
1.092700028e-08
1.08524949e-08
1.074504497e-08
1.061082875e-08
1.045713591e-08
1.029281176e-08
1.012933689e-08
9.983511066e-09
9.883673537e-09
1.073656762e-08
1.066523772e-08
1.056233281e-08
1.043373315e-08
1.028638341e-08
1.012872739e-08
9.971756081e-09
9.831603777e-09
9.735558432e-09
1.05557906e-08
1.048745034e-08
1.038882488e-08
1.026551422e-08
1.012413838e-08
9.972762974e-09
9.821917627e-09
9.687109396e-09
9.594635759e-09
1.038413913e-08
1.031861516e-08
1.022402139e-08
1.010569411e-08
9.969947607e-09
9.824491136e-09
9.679419258e-09
9.549647535e-09
9.460539771e-09
1.022111612e-08
1.015824665e-08
1.006745334e-08
9.953824148e-09
9.823385319e-09
9.683510069e-09
9.543882489e-09
9.418860034e-09
9.332925898e-09
1.006625518e-08
1.00058892e-08
9.918680442e-09
9.809482922e-09
9.684051324e-09
9.549441816e-09
9.414951003e-09
9.294409441e-09
9.211469315e-09
9.919118634e-09
9.861115055e-09
9.777289153e-09
9.672274385e-09
9.551569258e-09
9.42193064e-09
9.29228914e-09
9.175977606e-09
9.095863591e-09
9.779295435e-09
9.723522411e-09
9.642890836e-09
9.541826111e-09
9.425584943e-09
9.300641492e-09
9.175580474e-09
9.063264351e-09
8.98581943e-09
9.646399362e-09
9.592733591e-09
9.515120013e-09
9.417787653e-09
9.30576485e-09
9.18525858e-09
9.064526495e-09
8.955986245e-09
8.881063504e-09
9.52006726e-09
9.46839336e-09
9.393632756e-09
9.299829012e-09
9.191794667e-09
9.075484046e-09
8.958845376e-09
8.853875462e-09
8.781337368e-09
9.399957419e-09
9.350167347e-09
9.278105175e-09
9.187639214e-09
9.083377968e-09
8.97103673e-09
8.858270838e-09
8.756678718e-09
8.686396453e-09
9.285748075e-09
9.23774059e-09
9.168232025e-09
9.080924992e-09
8.980234984e-09
8.871651033e-09
8.762551096e-09
8.664156304e-09
8.596009147e-09
9.177136007e-09
9.130816181e-09
9.063725411e-09
8.979409568e-09
8.882101466e-09
8.777075858e-09
8.67144789e-09
8.576081174e-09
8.509955933e-09
9.073835258e-09
9.029114016e-09
8.964313596e-09
8.882831522e-09
8.788727628e-09
8.687073643e-09
8.584735584e-09
8.492238126e-09
8.428028609e-09
8.97557594e-09
8.932369644e-09
8.869739898e-09
8.790943759e-09
8.699877188e-09
8.601419465e-09
8.502200347e-09
8.412423029e-09
8.350029559e-09
8.882103141e-09
8.840333203e-09
8.779761676e-09
8.703512548e-09
8.615326467e-09
8.519900217e-09
8.423639392e-09
8.336442128e-09
8.275771095e-09
8.793175916e-09
8.752768445e-09
8.694149397e-09
8.620316645e-09
8.53486358e-09
8.442313848e-09
8.34886028e-09
8.264111396e-09
8.20507484e-09
8.708566359e-09
8.669451836e-09
8.612685776e-09
8.541146483e-09
8.458287672e-09
8.368468671e-09
8.277680279e-09
8.195255941e-09
8.137771171e-09
8.62805875e-09
8.590171724e-09
8.535164985e-09
8.465803427e-09
8.38540823e-09
8.298182716e-09
8.209925771e-09
8.129709461e-09
8.0736987e-09
8.551448764e-09
8.514727581e-09
8.461391925e-09
8.394099086e-09
8.316044439e-09
8.231283144e-09
8.145431715e-09
8.067313741e-09
8.012703803e-09
8.478542748e-09
8.442929296e-09
8.391181553e-09
8.325854679e-09
8.250024595e-09
8.1676057e-09
8.084041138e-09
8.00791819e-09
7.954640176e-09
8.409157047e-09
8.37459652e-09
8.324358255e-09
8.260900445e-09
8.187185554e-09
8.106994205e-09
8.025604675e-09
7.95137941e-09
7.899368434e-09
8.343117372e-09
8.30955806e-09
8.260755267e-09
8.199075095e-09
8.127372216e-09
8.049300082e-09
7.969980128e-09
7.897560793e-09
7.846755726e-09
8.28025821e-09
8.247651299e-09
8.200214118e-09
8.140225289e-09
8.070437044e-09
7.994381905e-09
7.917032055e-09
7.846332142e-09
7.796675381e-09
8.220422254e-09
8.188721643e-09
8.142584105e-09
8.084205133e-09
8.016239588e-09
7.942104964e-09
7.866631367e-09
7.797569297e-09
7.749006555e-09
8.163459847e-09
8.132621982e-09
8.087721763e-09
8.03087568e-09
7.964646016e-09
7.892340826e-09
7.818654923e-09
7.751153764e-09
7.703633882e-09
8.109228408e-09
8.079212124e-09
8.035490329e-09
7.980104415e-09
7.915528627e-09
7.844966879e-09
7.772985106e-09
7.706972318e-09
7.660447102e-09
8.057591835e-09
8.028358212e-09
7.985759163e-09
7.931764689e-09
7.868765309e-09
7.799865814e-09
7.729509338e-09
7.664916555e-09
7.619340634e-09
8.008419836e-09
7.979932052e-09
7.938403093e-09
7.885735085e-09
7.824238918e-09
7.756925029e-09
7.688119505e-09
7.624882342e-09
7.580213054e-09
7.961587141e-09
7.933810339e-09
7.893301634e-09
7.841898635e-09
7.781836505e-09
7.716035866e-09
7.648711222e-09
7.586769106e-09
7.542966407e-09
7.916972557e-09
7.889873692e-09
7.850338024e-09
7.800141849e-09
7.741448339e-09
7.677092634e-09
7.611182851e-09
7.550478876e-09
7.507505266e-09
7.874457772e-09
7.84800545e-09
7.809397987e-09
7.76035345e-09
7.702966608e-09
7.639991287e-09
7.575434176e-09
7.515914949e-09
7.473735414e-09
7.833925829e-09
7.80809011e-09
7.770368132e-09
7.722422712e-09
7.666283704e-09
7.604627648e-09
7.541364575e-09
7.482980035e-09
7.44156198e-09
7.795259165e-09
7.770011314e-09
7.733133857e-09
7.686237282e-09
7.631289931e-09
7.570895009e-09
7.508870519e-09
7.45157369e-09
7.410886836e-09
7.75833708e-09
7.733649238e-09
7.697576634e-09
7.651680303e-09
7.59787047e-09
7.538680924e-09
7.477842206e-09
7.421588813e-09
7.381605016e-09
7.723032498e-09
7.69887725e-09
7.663570494e-09
7.61862671e-09
7.565901429e-09
7.507862996e-09
7.448159092e-09
7.392906954e-09
7.35359989e-09
7.689207892e-09
7.665557676e-09
7.630977581e-09
7.586938488e-09
7.535244763e-09
7.478303437e-09
7.419684074e-09
7.36539218e-09
7.326736821e-09
7.656710192e-09
7.633536522e-09
7.599642581e-09
7.556458734e-09
7.505741905e-09
7.449842199e-09
7.392256134e-09
7.338883259e-09
7.300855031e-09
7.625364584e-09
7.602637025e-09
7.569385917e-09
7.527004385e-09
7.477205922e-09
7.422288512e-09
7.365681214e-09
7.313183942e-09
7.275757473e-09
7.594967061e-09
7.57265192e-09
7.53999558e-09
7.498357481e-09
7.449412108e-09
7.395410707e-09
7.339721245e-09
7.288051244e-09
7.251198582e-09
7.565275707e-09
7.543334381e-09
7.511217571e-09
7.470254961e-09
7.422086986e-09
7.368924328e-09
7.31408131e-09
7.263181704e-09
7.22686989e-09
7.536000711e-09
7.514387671e-09
7.482745001e-09
7.442377031e-09
7.394895804e-09
7.342478626e-09
7.288395085e-09
7.23819583e-09
7.202383732e-09
7.50679324e-09
7.485453623e-09
7.45420599e-09
7.414334315e-09
7.367428768e-09
7.315641755e-09
7.262208909e-09
7.212621077e-09
7.177255429e-09
7.477233407e-09
7.456100226e-09
7.425150685e-09
7.385654131e-09
7.339186425e-09
7.287885121e-09
7.234965033e-09
7.185874034e-09
7.150884672e-09
7.446817701e-09
7.425808719e-09
7.395037854e-09
7.355766422e-09
7.309564803e-09
7.258567627e-09
7.205984893e-09
7.157242734e-09
7.122537094e-09
7.414946432e-09
7.393960772e-09
7.363221682e-09
7.323990085e-09
7.277841157e-09
7.22692076e-09
7.174453483e-09
7.12587031e-09
7.091327369e-09
7.380911883e-09
7.359826516e-09
7.328939638e-09
7.289520608e-09
7.243161382e-09
7.192035741e-09
7.13940621e-09
7.090741542e-09
7.056205472e-09
7.343888059e-09
7.322554362e-09
7.291302399e-09
7.251420188e-09
7.204530363e-09
7.152854174e-09
7.099719865e-09
7.050674086e-09
7.015948054e-09
7.302923096e-09
7.281163703e-09
7.249287051e-09
7.208611619e-09
7.160806754e-09
7.108163863e-09
7.054109534e-09
7.004316418e-09
6.969157074e-09
7.25693557e-09
7.234541875e-09
7.201734989e-09
7.159877444e-09
7.110703719e-09
7.056601467e-09
7.001133395e-09
6.950154603e-09
6.91426796e-09
7.20471587e-09
7.1814465e-09
7.147355801e-09
7.103865931e-09
7.052797492e-09
6.996664003e-09
6.939207303e-09
6.886529973e-09
6.849569508e-09
7.144934072e-09
7.120514756e-09
7.084738636e-09
7.039105266e-09
6.985545077e-09
6.926730683e-09
6.866631153e-09
6.811669683e-09
6.773237497e-09
7.076155599e-09
7.050280844e-09
7.012372428e-09
6.964027431e-09
6.907312673e-09
6.845096585e-09
6.781628208e-09
6.723731524e-09
6.683383454e-09
6.996865791e-09
6.969202787e-09
6.928676055e-09
6.877002842e-09
6.816415789e-09
6.750019112e-09
6.682398352e-09
6.6208637e-09
6.578119195e-09
6.905504255e-09
6.875699381e-09
6.832039192e-09
6.776386342e-09
6.711171525e-09
6.639777463e-09
6.56718526e-09
6.501279337e-09
6.455636683e-09
6.800509461e-09
6.768197658e-09
6.720874066e-09
6.660574574e-09
6.589962736e-09
6.512744513e-09
6.434356428e-09
6.363344232e-09
6.314301354e-09
6.680373478e-09
6.645190631e-09
6.593677661e-09