/*--------------------------------*- C++ -*----------------------------------*\
| =========                 |                                                 |
| \\      /  F ield         | OpenFOAM: The Open Source CFD Toolbox           |
|  \\    /   O peration     | Version:  2212                                  |
|   \\  /    A nd           | Website:  www.openfoam.com                      |
|    \\/     M anipulation  |                                                 |
\*---------------------------------------------------------------------------*/
FoamFile
{
    version     2.0;
    format      ascii;
    arch        "LSB;label=32;scalar=64";
    class       volScalarField;
    location    "20.00000000";
    object      H_0;
}
// * * * * * * * * * * * * * * * * * * * * * * * * * * * * * * * * * * * * * //

dimensions      [0 0 0 0 0 0 0];

internalField   nonuniform List<scalar> 
3000
(
2.460659269e-29
2.76278242e-29
3.217740841e-29
3.821758375e-29
4.565339551e-29
5.421111495e-29
6.321719482e-29
7.123834233e-29
7.576745672e-29
9.2019314e-29
1.036621917e-28
1.211456795e-28
1.443210436e-28
1.729426821e-28
2.06455762e-28
2.435928575e-28
2.814053097e-28
3.117596001e-28
2.051056559e-28
2.327078044e-28
2.744842191e-28
3.306692476e-28
4.01663727e-28
4.875400736e-28
5.865439475e-28
6.913067688e-28
7.755818171e-28
3.885991607e-28
4.452629254e-28
5.32225051e-28
6.516160166e-28
8.064092952e-28
9.987115284e-28
1.225030331e-27
1.46447153e-27
1.649333114e-27
6.863690649e-28
7.957954626e-28
9.663682752e-28
1.205196562e-27
1.521200356e-27
1.920049256e-27
2.391092413e-27
2.879762706e-27
3.241192296e-27
1.174170916e-27
1.378483168e-27
1.701607254e-27
2.161374459e-27
2.778286306e-27
3.562580511e-27
4.484680727e-27
5.422438765e-27
6.096881621e-27
1.983628493e-27
2.357368632e-27
2.95553596e-27
3.816827321e-27
4.982369561e-27
6.466661554e-27
8.198678024e-27
9.93046864e-27
1.115450068e-26
3.34192194e-27
4.015984295e-27
5.104815257e-27
6.685729893e-27
8.835533842e-27
1.15711844e-26
1.474052349e-26
1.787034497e-26
2.006016671e-26
5.642090156e-27
6.845677317e-27
8.803181232e-27
1.166145157e-26
1.555844553e-26
2.050935284e-26
2.621163488e-26
3.179480152e-26
3.567953346e-26
9.564176709e-27
1.169755933e-26
1.518445645e-26
2.029518489e-26
2.727272612e-26
3.612246711e-26
4.627073139e-26
5.615021997e-26
6.300527927e-26
1.628667379e-26
2.004818802e-26
2.621788392e-26
3.528363559e-26
4.766939983e-26
6.335607915e-26
8.128846618e-26
9.868158153e-26
1.107388348e-25
2.785402825e-26
3.446156863e-26
4.53266778e-26
6.131907971e-26
8.317544154e-26
1.108252325e-25
1.423646212e-25
1.728863817e-25
1.940524489e-25
4.781618497e-26
5.939441225e-26
7.846807456e-26
1.065761601e-25
1.449963926e-25
1.935550649e-25
2.488559078e-25
3.023050405e-25
3.394356368e-25
8.233795438e-26
1.025944126e-25
1.360125125e-25
1.853069404e-25
2.526967818e-25
3.378061356e-25
4.346034583e-25
5.280951398e-25
5.932696054e-25
1.421155121e-25
1.775151543e-25
2.359900081e-25
3.223340791e-25
4.404402904e-25
5.895972598e-25
7.591370226e-25
9.228081507e-25
1.03722187e-24
2.45676228e-25
3.074614709e-25
4.096356464e-25
5.606765443e-25
7.675218421e-25
1.029132436e-24
1.327036611e-24
1.614807098e-24
1.814239619e-24
4.250771943e-25
5.32729241e-25
7.108735305e-25
9.743489557e-25
1.335220106e-24
1.791471861e-24
2.310564551e-24
2.812087789e-24
3.158837605e-24
7.358300461e-25
9.231092717e-25
1.233146674e-24
1.691792701e-24
2.319935201e-24
3.113796013e-24
4.016566502e-24
4.889486524e-24
5.491902639e-24
1.274159369e-24
1.599631765e-24
2.138617036e-24
2.936122277e-24
4.02841954e-24
5.408798334e-24
6.978480548e-24
8.497313919e-24
9.543705685e-24
2.206981869e-24
2.772322099e-24
3.708819812e-24
5.094872146e-24
6.993632887e-24
9.393462234e-24
1.212263512e-23
1.476357045e-23
1.658095421e-23
3.824001457e-24
4.805815631e-24
6.43272221e-24
8.841357322e-24
1.214186501e-23
1.631425933e-23
2.105963026e-23
2.564684923e-23
2.880265761e-23
6.628325856e-24
8.333539495e-24
1.116006847e-23
1.534622169e-23
2.108441165e-23
2.834064254e-23
3.65938075e-23
4.455162809e-23
5.002782524e-23
1.149428966e-23
1.445670121e-23
1.936886568e-23
2.664689852e-23
3.662774762e-23
4.925478963e-23
6.36221984e-23
7.746878348e-23
8.69079429e-23
1.994281315e-23
2.509178052e-23
3.363309675e-23
4.629470865e-23
6.366883287e-23
8.566415665e-23
1.107094264e-22
1.348642499e-22
1.513309144e-22
3.462288057e-23
4.357886965e-23
5.844301472e-23
8.049258999e-23
1.107743244e-22
1.491489062e-22
1.928951408e-22
2.351413267e-22
2.639869954e-22
6.015601428e-23
7.575046415e-23
1.016499515e-22
1.401057488e-22
1.92983222e-22
2.600925024e-22
3.367319113e-22
4.108994041e-22
4.616800722e-22
1.046232517e-22
1.318177799e-22
1.770249464e-22
2.442382392e-22
3.368197104e-22
4.545778485e-22
5.894196475e-22
7.203405268e-22
8.103815192e-22
1.8219565e-22
2.297174652e-22
3.088180884e-22
4.26643452e-22
5.893437858e-22
7.969449489e-22
1.035596142e-21
1.268444609e-21
1.42970098e-21
3.178160661e-22
4.010904778e-22
5.39949058e-22
7.473243019e-22
1.034675646e-21
1.402956852e-21
1.828664597e-21
2.24693882e-21
2.539562368e-21
5.555931103e-22
7.020512187e-22
9.468605293e-22
1.313756897e-21
1.824553947e-21
2.483166142e-21
3.250215047e-21
4.011120231e-21
4.550954786e-21
9.739836377e-22
1.232773836e-21
1.666751837e-21
2.320211449e-21
3.235658838e-21
4.42540518e-21
5.824727655e-21
7.230321084e-21
8.245912461e-21
1.713540485e-21
2.17351861e-21
2.948141289e-21
4.121628732e-21
5.778822952e-21
7.954371887e-21
1.054502859e-20
1.318825531e-20
1.514149901e-20
3.028237193e-21
3.851753051e-21
5.246059299e-21
7.374547395e-21
1.041054524e-20
1.444579421e-20
1.932354159e-20
2.439373758e-20
2.823972369e-20
5.381706413e-21
6.869009326e-21
9.404016804e-21
1.331032174e-20
1.894965284e-20
2.655580531e-20
3.591151917e-20
4.584432832e-20
5.359908872e-20
9.630458693e-21
1.234442903e-20
1.700755576e-20
2.427378896e-20
3.491223465e-20
4.95034175e-20
6.780277957e-20
8.768238184e-20
1.036770052e-19
1.737854194e-20
2.239026287e-20
3.108296815e-20
4.480355654e-20
6.521298039e-20
9.372594536e-20
1.302352859e-19
1.708530211e-19
2.045237515e-19
3.167643609e-20
4.105685718e-20
5.750249672e-20
8.383541247e-20
1.23687538e-19
1.804570548e-19
2.547084712e-19
3.392834015e-19
4.113977105e-19
5.842454546e-20
7.624549829e-20
1.078603966e-19
1.592704359e-19
2.384919895e-19
3.535893313e-19
5.072889915e-19
6.862828658e-19
8.428137348e-19
1.092475238e-19
1.436535536e-19
2.054622221e-19
3.075920511e-19
4.678473001e-19
7.051492442e-19
1.028208059e-18
1.411948176e-18
1.754808991e-18
2.07500509e-19
2.750654226e-19
3.980082388e-19
6.043993376e-19
9.33901736e-19
1.43038609e-18
2.117770269e-18
2.947888198e-18
3.702311115e-18
4.010776447e-19
5.361036956e-19
7.848868794e-19
1.208805867e-18
1.896190919e-18
2.947399474e-18
4.422682255e-18
6.227021006e-18
7.887117881e-18
7.902845484e-19
1.064932914e-18
1.576807045e-18
2.460535757e-18
3.912085238e-18
6.157414226e-18
9.339020167e-18
1.326299788e-17
1.690052148e-17
1.589696854e-18
2.158141985e-18
3.227974994e-18
5.094472957e-18
8.189231683e-18
1.301149675e-17
1.988017294e-17
2.838416198e-17
3.628986491e-17
3.26801396e-18
4.464497733e-18
6.733093874e-18
1.071948952e-17
1.736422673e-17
2.774622446e-17
4.254072312e-17
6.084304693e-17
7.783017907e-17
6.869492613e-18
9.428643152e-18
1.43033026e-17
2.28980016e-17
3.723562637e-17
5.958982937e-17
9.130484388e-17
1.30326525e-16
1.663303539e-16
1.476234516e-17
2.031966453e-17
3.092203887e-17
4.960562538e-17
8.065989387e-17
1.287482064e-16
1.963540743e-16
2.787077466e-16
3.539283623e-16
3.239444902e-17
4.463402619e-17
6.795659551e-17
1.08891739e-16
1.764239805e-16
2.798774796e-16
4.234212772e-16
5.958360228e-16
7.511113575e-16
7.241181836e-17
9.971494172e-17
1.515689479e-16
2.42003575e-16
3.897403458e-16
6.131454252e-16
9.184284627e-16
1.279119324e-15
1.598410254e-15
1.642252826e-16
2.257883379e-16
3.422152649e-16
5.438678694e-16
8.701522161e-16
1.357776224e-15
2.015306553e-15
2.780956398e-15
3.447309852e-15
3.757779527e-16
5.156510384e-16
7.792184676e-16
1.233417884e-15
1.964083795e-15
3.050020072e-15
4.507806902e-15
6.198313947e-15
7.657495366e-15
8.615861553e-16
1.180426423e-15
1.780332828e-15
2.813387963e-15
4.478155102e-15
6.967914488e-15
1.035112873e-14
1.433958543e-14
1.782242209e-14
1.96512081e-15
2.690686369e-15
4.058386303e-15
6.426430421e-15
1.028786837e-14
1.618636453e-14
2.446216058e-14
3.460618693e-14
4.378015466e-14
4.431267838e-15
6.072795896e-15
9.185014847e-15
1.463881992e-14
2.372564056e-14
3.807968872e-14
5.913610758e-14
8.628131403e-14
1.119902526e-13
9.848837707e-15
1.353645814e-14
2.059426967e-14
3.317700191e-14
5.471650923e-14
9.000320277e-14
1.440041863e-13
2.165584548e-13
2.876714883e-13
2.162399825e-14
2.987797968e-14
4.586239057e-14
7.48912402e-14
1.258107643e-13
2.114943029e-13
3.455953851e-13
5.278403014e-13
7.065317113e-13
4.734140042e-14
6.589065867e-14
1.021922804e-13
1.690165567e-13
2.877027779e-13
4.882776923e-13
7.983383438e-13
1.205698456e-12
1.586064226e-12
1.04892393e-13
1.469953971e-13
2.297655955e-13
3.823261166e-13
6.509002346e-13
1.092224479e-12
1.737737855e-12
2.518208749e-12
3.18021249e-12
2.383341139e-13
3.345544002e-13
5.222952797e-13
8.620394825e-13
1.438256601e-12
2.325939796e-12
3.506795239e-12
4.779588335e-12
5.74580769e-12
5.556396081e-13
7.727529596e-13
1.186040406e-12
1.902489347e-12
3.038037152e-12
4.628725914e-12
6.519114817e-12
8.350510522e-12
9.630204084e-12
1.302367112e-12
1.769092257e-12
2.61968991e-12
3.999313293e-12
5.998373451e-12
8.525120791e-12
1.126121193e-11
1.374529416e-11
1.540801235e-11
2.955655493e-12
3.871972668e-12
5.448788332e-12
7.814611979e-12
1.095613908e-11
1.463547899e-11
1.843034282e-11
2.179105055e-11
2.400049594e-11
6.239530539e-12
7.836098076e-12
1.043242131e-11
1.408263849e-11
1.866515439e-11
2.38540415e-11
2.913784379e-11
3.380096272e-11
3.684919026e-11
1.19665964e-11
1.446038519e-11
1.836702372e-11
2.367719906e-11
3.021480118e-11
3.75857902e-11
4.512639326e-11
5.182066618e-11
5.620303087e-11
2.091495479e-11
2.457679361e-11
3.023413734e-11
3.786606281e-11
4.727647603e-11
5.797972901e-11
6.905675923e-11
7.900487261e-11
8.557714682e-11
3.400934026e-11
3.929683912e-11
4.746363433e-11
5.853103785e-11
7.231636463e-11
8.820395998e-11
1.049073555e-10
1.201679848e-10
1.30417455e-10
5.256563919e-11
6.021420565e-11
7.208989705e-11
8.832951316e-11
1.088060125e-10
1.327898306e-10
1.584979487e-10
1.824981381e-10
1.989751863e-10
7.838027813e-11
8.948474396e-11
1.068366231e-10
1.308069034e-10
1.614636161e-10
1.980275808e-10
2.380726354e-10
2.763608642e-10
3.032961492e-10
1.137485912e-10
1.298408483e-10
1.551721864e-10
1.905573022e-10
2.364988678e-10
2.923293419e-10
3.548218701e-10
4.160024942e-10
4.600785196e-10
1.614985268e-10
1.846773825e-10
2.214423262e-10
2.733773002e-10
3.418065131e-10
4.264628811e-10
5.23150791e-10
6.19847359e-10
6.909974243e-10
2.2518845e-10
2.582460535e-10
3.110592265e-10
3.864404604e-10
4.870856304e-10
6.135511914e-10
7.604791216e-10
9.100422239e-10
1.0220382e-09
3.094640638e-10
3.560044481e-10
4.308166676e-10
5.385221472e-10
6.838750134e-10
8.687715007e-10
1.086432271e-09
1.311024774e-09
1.481544427e-09
4.20645526e-10
4.851690182e-10
5.893583398e-10
7.402886066e-10
9.455094481e-10
1.208765145e-09
1.521468179e-09
1.847216957e-09
2.097129452e-09
5.675022082e-10
6.554204901e-10
7.977405135e-10
1.004598033e-09
1.286986968e-09
1.650856451e-09
2.085237274e-09
2.540420538e-09
2.892295065e-09
7.620279088e-10
8.795674211e-10
1.069897857e-09
1.346657293e-09
1.724692427e-09
2.212244101e-09
2.795234459e-09
3.408093142e-09
3.884548361e-09
1.019888535e-09
1.173844676e-09
1.422713457e-09
1.783802401e-09
2.275891395e-09
2.909366943e-09
3.666528801e-09
4.464527864e-09
5.091232505e-09
1.360182453e-09
1.557516988e-09
1.875422539e-09
2.334734133e-09
2.957982657e-09
3.757643848e-09
4.712866735e-09
5.725972542e-09
6.528781363e-09
1.804322704e-09
2.051664937e-09
2.448343716e-09
3.018373903e-09
3.787931964e-09
4.77219577e-09
5.950582869e-09
7.200527004e-09
8.185392689e-09
2.374246413e-09
2.677477332e-09
3.161490684e-09
3.853191012e-09
4.783185497e-09
5.97292254e-09
7.388025966e-09
8.874077889e-09
1.0040564e-08
3.090822952e-09
3.455094611e-09
4.034325009e-09
4.858838752e-09
5.967781218e-09
7.36816472e-09
9.012936511e-09
1.072653997e-08
1.206907014e-08
3.974343948e-09
4.405449825e-09
5.092450641e-09
6.063464272e-09
7.346957035e-09
8.947271828e-09
1.08065338e-08
1.272791884e-08
1.422678625e-08
5.055260323e-09
5.560249614e-09
6.353935437e-09
7.462860082e-09
8.910483843e-09
1.069429091e-08
1.274477603e-08
1.484571021e-08
1.64759913e-08
6.343774535e-09
6.917402977e-09
7.811202306e-09
9.047432488e-09
1.064320712e-08
1.258722786e-08
1.479805412e-08
1.704301153e-08
1.877443598e-08
7.831911921e-09
8.468370954e-09
9.45274043e-09
1.080140803e-08
1.252361929e-08
1.459815282e-08
1.693204574e-08
1.927994753e-08
2.107846791e-08
9.507477304e-09
1.019888753e-08
1.126080022e-08
1.270249305e-08
1.452418146e-08
1.669420745e-08
1.910917609e-08
2.151542946e-08
2.334506656e-08
1.135196988e-08
1.208815481e-08
1.321123361e-08
1.472249097e-08
1.661243934e-08
1.883908275e-08
2.129028561e-08
2.370884293e-08
2.553343946e-08
1.334053572e-08
1.410926357e-08
1.52743144e-08
1.682850867e-08
1.875251058e-08
2.099466658e-08
2.343628855e-08
2.582156311e-08
2.760630682e-08
1.544282316e-08
1.623025964e-08
1.741602448e-08
1.898443965e-08
2.090669478e-08
2.312267577e-08
2.550969298e-08
2.781822151e-08
2.953084905e-08
1.762424666e-08
1.841551247e-08
1.959953373e-08
2.115252858e-08
2.30370609e-08
2.518617157e-08
2.747591222e-08
2.966762776e-08
3.127904145e-08
1.984741869e-08
2.062719377e-08
2.178672012e-08
2.329490267e-08
2.510693992e-08
2.715095403e-08
2.930447783e-08
3.134347716e-08
3.282592878e-08
2.207361898e-08
2.282675344e-08
2.393963361e-08
2.537498948e-08
2.708226846e-08
2.898690031e-08
3.097090114e-08
3.282917981e-08
3.416756349e-08
2.42642216e-08
2.49763186e-08
2.602182977e-08
2.735871625e-08
2.89325154e-08
3.06682566e-08
3.245513527e-08
3.411010751e-08
3.529060308e-08
2.63820274e-08
2.703997286e-08
2.799955461e-08
2.92155522e-08
3.063154933e-08
3.217441334e-08
3.37428576e-08
3.517812506e-08
3.61913283e-08
2.839245718e-08
2.898487156e-08
2.984273208e-08
3.091931339e-08
3.2158211e-08
3.349021358e-08
3.482548153e-08
3.603098732e-08
3.687212634e-08
3.026454881e-08
3.078212792e-08
3.15256701e-08
3.244860798e-08
3.349640225e-08
3.460556846e-08
3.569914047e-08
3.667048138e-08
3.733852408e-08
3.197162359e-08
3.240730118e-08
3.302724716e-08
3.378655723e-08
3.463411844e-08
3.551347726e-08
3.63612041e-08
3.709709247e-08
3.759242659e-08
3.349113874e-08
3.383988282e-08
3.432972608e-08
3.4918473e-08
3.555935465e-08
3.620314761e-08
3.680034828e-08
3.729760439e-08
3.760521347e-08
3.480179439e-08
3.505950128e-08
3.541310673e-08
3.582263085e-08
3.624788034e-08
3.664136933e-08
3.695763351e-08
3.720151151e-08
3.735024442e-08
3.586995512e-08
3.603168436e-08
3.623955723e-08
3.644002014e-08
3.662247986e-08
3.676877285e-08
3.686647356e-08
3.691994784e-08
3.694059619e-08
3.66004675e-08
3.665219671e-08
3.670731441e-08
3.674239251e-08
3.67431228e-08
3.670042115e-08
3.661598605e-08
3.650865893e-08
3.641937203e-08
3.702811165e-08
3.699889603e-08
3.694005066e-08
3.68387959e-08
3.668661247e-08
3.648278816e-08
3.624010323e-08
3.599258467e-08
3.580749429e-08
3.724295762e-08
3.714568202e-08
3.698992559e-08
3.67697434e-08
3.648338225e-08
3.613816158e-08
3.575682151e-08
3.538713728e-08
3.511912021e-08
3.727846772e-08
3.712124043e-08
3.687999526e-08
3.655469404e-08
3.615017171e-08
3.568126958e-08
3.517965284e-08
3.470499234e-08
3.436637647e-08
3.715155457e-08
3.694137292e-08
3.662487339e-08
3.620751098e-08
3.570031299e-08
3.512498725e-08
3.452101003e-08
3.395802568e-08
3.356064571e-08
3.687552434e-08
3.66192809e-08
3.623767156e-08
3.574125896e-08
3.514675441e-08
3.448197625e-08
3.379305295e-08
3.315772556e-08
3.271280057e-08
3.646388816e-08
3.616852215e-08
3.573196436e-08
3.516943316e-08
3.450272779e-08
3.376495944e-08
3.300774949e-08
3.231516105e-08
3.183314978e-08
3.593116468e-08
3.560356185e-08
3.512206463e-08
3.450602705e-08
3.378167907e-08
3.29865801e-08
3.217672047e-08
3.144084672e-08
3.093132943e-08
3.529272926e-08
3.493956725e-08
3.442276797e-08
3.3765254e-08
3.299699668e-08
3.215916276e-08
3.131104989e-08
3.054460592e-08
3.001620555e-08
3.456439366e-08
3.419199629e-08
3.364896286e-08
3.296119564e-08
3.216171338e-08
3.12944784e-08
3.042111619e-08
2.963546121e-08
2.909580406e-08
3.376194512e-08
3.337616537e-08
3.281524197e-08
3.210746959e-08
3.128823929e-08
3.040354652e-08
2.951646048e-08
2.872155809e-08
2.817726979e-08
3.290072476e-08
3.250686152e-08
3.193556241e-08
3.121694848e-08
3.038814565e-08
2.949648393e-08
2.860569489e-08
2.781012163e-08
2.726685257e-08
3.199527513e-08
3.15980229e-08
3.102297239e-08
3.030154129e-08
2.947200452e-08
2.858240141e-08
2.769644981e-08
2.690744299e-08
2.636991708e-08
3.105906781e-08
3.066249614e-08
3.008940929e-08
2.937203912e-08
2.854928413e-08
2.766934599e-08
2.679535646e-08
2.601889234e-08
2.549097274e-08
3.010431224e-08
2.971187033e-08
2.914556788e-08
2.843802227e-08
2.76282956e-08
2.676428416e-08
2.590806018e-08
2.514895349e-08
2.463371978e-08
2.914184147e-08
2.875638274e-08
2.820083271e-08
2.750782261e-08
2.671618485e-08
2.587311986e-08
2.503925888e-08
2.430127588e-08
2.380110741e-08
2.818106595e-08
2.780488742e-08
2.726326618e-08
2.658853284e-08
2.581896199e-08
2.50007406e-08
2.419276097e-08
2.347873903e-08
2.299540038e-08
2.72299846e-08
2.686487624e-08
2.63396424e-08
2.568605359e-08
2.494156011e-08
2.415108463e-08
2.337155731e-08
2.268352551e-08
2.22182503e-08
2.629524083e-08
2.594254045e-08
2.543551538e-08
2.480516828e-08
2.408791529e-08
2.332722419e-08
2.257790237e-08
2.19171972e-08
2.147076817e-08
2.538221257e-08
2.50428636e-08
2.455531494e-08
2.394963991e-08
2.326106096e-08
2.253145266e-08
2.181339654e-08
2.118077295e-08
2.075359681e-08
2.449512432e-08
2.416973209e-08
2.370245415e-08
2.312231442e-08
2.246322674e-08
2.176537998e-08
2.107907299e-08
2.04748054e-08
2.006698033e-08
2.36371693e-08
2.332605482e-08
2.287944538e-08
2.232523156e-08
2.169594193e-08
2.103002556e-08
2.037548002e-08
1.979945323e-08
1.941082906e-08
2.281063814e-08
2.251388814e-08
2.208801946e-08
2.155973592e-08
2.096013636e-08
2.032590773e-08
1.970275876e-08
1.915454822e-08
1.878477926e-08
2.201704603e-08
2.173455805e-08
2.132924044e-08
2.082658243e-08
2.025623519e-08
1.965312697e-08
1.906071476e-08
1.85396563e-08
1.818824682e-08
2.125725359e-08
2.098877586e-08
2.06036138e-08
2.012603503e-08
1.958424661e-08
1.901144206e-08
1.844888255e-08
1.795413204e-08
1.762047491e-08
2.053157888e-08
2.027674493e-08
1.991118557e-08
1.945795645e-08
1.894384112e-08
1.840033813e-08
1.786658298e-08
1.739716642e-08
1.70805755e-08
1.983989872e-08
1.959825692e-08
1.925163132e-08
1.88218883e-08
1.833442155e-08
1.781908645e-08
1.731297305e-08
1.686782825e-08
1.656756507e-08
1.918173845e-08
1.895277676e-08
1.862433441e-08
1.821712112e-08
1.775518421e-08
1.726679621e-08
1.678708876e-08
1.636509939e-08
1.608039486e-08
1.855635006e-08
1.833951649e-08
1.802845378e-08
1.764275485e-08
1.720517111e-08
1.674245849e-08
1.628788134e-08
1.588790433e-08
1.561797613e-08
1.796277904e-08
1.775749831e-08
1.746298162e-08
1.709774999e-08
1.668331417e-08
1.62449833e-08
1.581424743e-08
1.543513466e-08
1.517920097e-08
1.739992085e-08
1.720560771e-08
1.692679182e-08
1.658097051e-08
1.618847194e-08
1.57732301e-08
1.53650539e-08
1.500566909e-08
1.476295911e-08
1.686656782e-08
1.66826375e-08
1.641868007e-08
1.609121915e-08
1.571945974e-08
1.532603272e-08
1.493915788e-08
1.459838943e-08
1.436815137e-08
1.636144758e-08
1.618732389e-08
1.593739652e-08
1.562726605e-08
1.5275074e-08
1.490221938e-08
1.453542275e-08
1.421219317e-08
1.399370007e-08
1.588325416e-08
1.571837552e-08
1.548167205e-08
1.518787174e-08
1.485411156e-08
1.45006284e-08
1.415273054e-08
1.384600319e-08
1.3638557e-08
1.543067263e-08
1.527449648e-08
1.505023899e-08
1.47718051e-08
1.445538479e-08
1.412012038e-08
1.378999142e-08
1.349877502e-08
1.330170925e-08
1.500239839e-08
1.485440426e-08
1.464184721e-08
1.437785725e-08
1.407773304e-08
1.375958731e-08
1.344615064e-08
1.316950203e-08
1.298218333e-08
1.459715189e-08
1.445684339e-08
1.425527624e-08
1.40048519e-08
1.372003118e-08
1.341795923e-08
1.312019353e-08
1.285721899e-08
1.267904782e-08
1.421368963e-08
1.408059554e-08
1.388934424e-08
1.365165295e-08
1.338119562e-08
1.309420884e-08
1.281114872e-08
1.256100428e-08
1.239141488e-08
1.385081198e-08
1.372448678e-08
1.354291427e-08
1.331716963e-08
1.306018839e-08
1.278735438e-08
1.251809007e-08
1.227998094e-08
1.211844087e-08
1.350736862e-08
1.33873924e-08
1.321489846e-08
1.300035991e-08
1.275601962e-08
1.249646131e-08
1.224013755e-08
1.201331698e-08
1.18593262e-08
1.318226188e-08
1.306823989e-08
1.290426046e-08
1.270023228e-08
1.246774869e-08
1.222064285e-08
1.19764572e-08
1.176022487e-08
1.16133146e-08
1.287444851e-08
1.276601049e-08
1.261001656e-08
1.241584645e-08
1.219448447e-08
1.19590597e-08
1.172626054e-08
1.151996065e-08
1.137969204e-08
1.258294027e-08
1.247973949e-08
1.233123577e-08
1.214631307e-08
1.193538472e-08
1.171091923e-08
1.148880342e-08
1.129182262e-08
1.115778525e-08
1.230680349e-08
1.220851572e-08
1.206703907e-08
1.189079288e-08
1.1689655e-08
1.147547412e-08
1.126338452e-08
1.107514967e-08
1.09469601e-08
1.204515797e-08
1.195148033e-08
1.181659814e-08
1.164849519e-08
1.145654708e-08
1.125202073e-08
1.104934367e-08
1.086931958e-08
1.074661977e-08
1.179717531e-08
1.170782511e-08
1.157913358e-08
1.141867613e-08
1.123535712e-08
1.10398972e-08
1.084605991e-08
1.067374707e-08
1.055620285e-08
1.156207692e-08
1.147679044e-08
1.135391289e-08
1.120063659e-08
1.10254236e-08
1.083848142e-08
1.065294952e-08
1.048788187e-08
1.037518145e-08
1.133913178e-08
1.12576631e-08
1.114024824e-08
1.099372003e-08
1.082612517e-08
1.064718896e-08
1.046946396e-08
1.031120673e-08
1.020305923e-08
1.112765398e-08
1.104977382e-08
1.093749412e-08
1.079731018e-08
1.063687848e-08
1.046547091e-08
1.029508783e-08
1.014323548e-08
1.003936954e-08
1.092700028e-08
1.08524949e-08
1.074504497e-08
1.061082875e-08
1.045713591e-08
1.029281176e-08
1.012933689e-08
9.983511068e-09
9.883673538e-09
1.073656762e-08
1.066523772e-08
1.056233281e-08
1.043373315e-08
1.028638341e-08
1.012872739e-08
9.971756083e-09
9.831603779e-09
9.735558433e-09
1.05557906e-08
1.048745034e-08
1.038882489e-08
1.026551423e-08
1.012413838e-08
9.972762976e-09
9.821917629e-09
9.687109398e-09
9.594635761e-09
1.038413913e-08
1.031861516e-08
1.02240214e-08
1.010569411e-08
9.969947609e-09
9.824491139e-09
9.67941926e-09
9.549647537e-09
9.460539772e-09
1.022111612e-08
1.015824665e-08
1.006745334e-08
9.953824149e-09
9.823385321e-09
9.683510071e-09
9.543882491e-09
9.418860035e-09
9.332925899e-09
1.006625518e-08
1.00058892e-08
9.918680444e-09
9.809482923e-09
9.684051326e-09
9.549441818e-09
9.414951005e-09
9.294409443e-09
9.211469316e-09
9.919118635e-09
9.861115056e-09
9.777289155e-09
9.672274386e-09
9.55156926e-09
9.421930642e-09
9.292289142e-09
9.175977607e-09
9.095863592e-09
9.779295436e-09
9.723522412e-09
9.642890837e-09
9.541826113e-09
9.425584945e-09
9.300641493e-09
9.175580476e-09
9.063264352e-09
8.985819431e-09
9.646399363e-09
9.592733593e-09
9.515120014e-09
9.417787655e-09
9.305764852e-09
9.185258581e-09
9.064526497e-09
8.955986247e-09
8.881063505e-09
9.520067261e-09
9.468393361e-09
9.393632757e-09
9.299829013e-09
9.191794668e-09
9.075484047e-09
8.958845377e-09
8.853875463e-09
8.781337369e-09
9.39995742e-09
9.350167348e-09
9.278105176e-09
9.187639215e-09
9.083377969e-09
8.971036732e-09
8.858270839e-09
8.75667872e-09
8.686396454e-09
9.285748076e-09
9.237740592e-09
9.168232026e-09
9.080924994e-09
8.980234986e-09
8.871651034e-09
8.762551098e-09
8.664156305e-09
8.596009148e-09
9.177136008e-09
9.130816182e-09
9.063725412e-09
8.97940957e-09
8.882101467e-09
8.777075859e-09
8.671447892e-09
8.576081176e-09
8.509955934e-09
9.073835259e-09
9.029114017e-09
8.964313597e-09
8.882831524e-09
8.78872763e-09
8.687073644e-09
8.584735586e-09
8.492238127e-09
8.42802861e-09
8.975575941e-09
8.932369645e-09
8.869739899e-09
8.79094376e-09
8.699877189e-09
8.601419467e-09
8.502200349e-09
8.41242303e-09
8.35002956e-09
8.882103142e-09
8.840333204e-09
8.779761677e-09
8.703512549e-09
8.615326469e-09
8.519900218e-09
8.423639394e-09
8.336442129e-09
8.275771096e-09
8.793175917e-09
8.752768446e-09
8.694149398e-09
8.620316646e-09
8.534863582e-09
8.44231385e-09
8.348860282e-09
8.264111397e-09
8.205074841e-09
8.70856636e-09
8.669451837e-09
8.612685777e-09
8.541146485e-09
8.458287674e-09
8.368468672e-09
8.27768028e-09
8.195255943e-09
8.137771171e-09
8.628058751e-09
8.590171725e-09
8.535164986e-09
8.465803429e-09
8.385408231e-09
8.298182717e-09
8.209925772e-09
8.129709462e-09
8.073698701e-09
8.551448765e-09
8.514727582e-09
8.461391926e-09
8.394099088e-09
8.31604444e-09
8.231283145e-09
8.145431716e-09
8.067313742e-09
8.012703804e-09
8.478542749e-09
8.442929297e-09
8.391181554e-09
8.32585468e-09
8.250024597e-09
8.167605702e-09
8.084041139e-09
8.007918191e-09
7.954640177e-09
8.409157048e-09
8.374596521e-09
8.324358256e-09
8.260900446e-09
8.187185555e-09
8.106994207e-09
8.025604676e-09
7.951379411e-09
7.899368434e-09
8.343117372e-09
8.309558061e-09
8.260755268e-09
8.199075096e-09
8.127372217e-09
8.049300083e-09
7.969980129e-09
7.897560794e-09
7.846755727e-09
8.28025821e-09
8.247651299e-09
8.200214119e-09
8.14022529e-09
8.070437045e-09
7.994381906e-09
7.917032056e-09
7.846332143e-09
7.796675381e-09
8.220422255e-09
8.188721644e-09
8.142584106e-09
8.084205134e-09
8.016239589e-09
7.942104965e-09
7.866631368e-09
7.797569298e-09
7.749006555e-09
8.163459847e-09
8.132621983e-09
8.087721764e-09
8.030875681e-09
7.964646017e-09
7.892340827e-09
7.818654924e-09
7.751153765e-09
7.703633882e-09
8.109228408e-09
8.079212125e-09
8.03549033e-09
7.980104416e-09
7.915528627e-09
7.84496688e-09
7.772985107e-09
7.706972319e-09
7.660447102e-09
8.057591836e-09
8.028358213e-09
7.985759164e-09
7.93176469e-09
7.86876531e-09
7.799865815e-09
7.729509339e-09
7.664916556e-09
7.619340635e-09
8.008419837e-09
7.979932053e-09
7.938403094e-09
7.885735086e-09
7.824238918e-09
7.75692503e-09
7.688119506e-09
7.624882343e-09
7.580213054e-09
7.961587142e-09
7.93381034e-09
7.893301635e-09
7.841898636e-09
7.781836506e-09
7.716035867e-09
7.648711222e-09
7.586769107e-09
7.542966407e-09
7.916972558e-09
7.889873693e-09
7.850338025e-09
7.80014185e-09
7.741448339e-09
7.677092635e-09
7.611182851e-09
7.550478877e-09
7.507505266e-09
7.874457772e-09
7.848005451e-09
7.809397988e-09
7.76035345e-09
7.702966608e-09
7.639991288e-09
7.575434177e-09
7.515914949e-09
7.473735415e-09
7.833925829e-09
7.808090111e-09
7.770368132e-09
7.722422713e-09
7.666283705e-09
7.604627649e-09
7.541364575e-09
7.482980035e-09
7.44156198e-09
7.795259166e-09
7.770011315e-09
7.733133858e-09
7.686237282e-09
7.631289932e-09
7.57089501e-09
7.508870519e-09
7.451573691e-09
7.410886836e-09
7.75833708e-09
7.733649238e-09
7.697576634e-09
7.651680303e-09
7.597870471e-09
7.538680925e-09
7.477842207e-09
7.421588814e-09
7.381605016e-09
7.723032499e-09
7.698877251e-09
7.663570495e-09
7.618626711e-09
7.565901429e-09
7.507862997e-09
7.448159092e-09
7.392906954e-09
7.353599891e-09
7.689207892e-09
7.665557676e-09
7.630977581e-09
7.586938488e-09
7.535244764e-09
7.478303438e-09
7.419684075e-09
7.36539218e-09
7.326736822e-09
7.656710193e-09
7.633536522e-09
7.599642582e-09
7.556458735e-09
7.505741906e-09
7.4498422e-09
7.392256135e-09
7.338883259e-09
7.300855031e-09
7.625364584e-09
7.602637026e-09
7.569385918e-09
7.527004385e-09
7.477205923e-09
7.422288512e-09
7.365681214e-09
7.313183943e-09
7.275757474e-09
7.594967062e-09
7.57265192e-09
7.53999558e-09
7.498357481e-09
7.449412109e-09
7.395410708e-09
7.339721245e-09
7.288051244e-09
7.251198582e-09
7.565275707e-09
7.543334382e-09
7.511217572e-09
7.470254961e-09
7.422086987e-09
7.368924328e-09
7.31408131e-09
7.263181705e-09
7.22686989e-09
7.536000711e-09
7.514387671e-09
7.482745002e-09
7.442377031e-09
7.394895804e-09
7.342478626e-09
7.288395086e-09
7.238195831e-09
7.202383732e-09
7.50679324e-09
7.485453623e-09
7.45420599e-09
7.414334315e-09
7.367428769e-09
7.315641755e-09
7.262208909e-09
7.212621077e-09
7.177255429e-09
7.477233407e-09
7.456100227e-09
7.425150686e-09
7.385654131e-09
7.339186426e-09
7.287885121e-09
7.234965033e-09
7.185874034e-09
7.150884672e-09
7.446817701e-09
7.42580872e-09
7.395037854e-09
7.355766423e-09
7.309564803e-09
7.258567628e-09
7.205984894e-09
7.157242735e-09
7.122537095e-09
7.414946432e-09
7.393960773e-09
7.363221683e-09
7.323990086e-09
7.277841158e-09
7.226920761e-09
7.174453484e-09
7.125870311e-09
7.091327369e-09
7.380911883e-09
7.359826517e-09
7.328939638e-09
7.289520609e-09
7.243161382e-09
7.192035742e-09
7.13940621e-09
7.090741542e-09
7.056205472e-09
7.34388806e-09
7.322554363e-09
7.2913024e-09
7.251420188e-09
7.204530364e-09
7.152854175e-09
7.099719866e-09
7.050674087e-09
7.015948054e-09
7.302923097e-09
7.281163703e-09
7.249287052e-09
7.20861162e-09
7.160806755e-09
7.108163864e-09
7.054109535e-09
7.004316419e-09
6.969157074e-09
7.256935571e-09
7.234541876e-09
7.20173499e-09
7.159877445e-09
7.11070372e-09
7.056601468e-09
7.001133396e-09
6.950154604e-09
6.91426796e-09
7.204715871e-09
7.181446501e-09
7.147355802e-09
7.103865933e-09
7.052797493e-09
6.996664005e-09
6.939207304e-09
6.886529974e-09
6.849569509e-09
7.144934073e-09
7.120514757e-09
7.084738638e-09
7.039105267e-09
6.985545079e-09
6.926730684e-09
6.866631155e-09
6.811669684e-09
6.773237498e-09
7.076155601e-09
7.050280845e-09
7.01237243e-09
6.964027432e-09
6.907312675e-09
6.845096587e-09
6.78162821e-09
6.723731526e-09
6.683383454e-09
6.996865792e-09
6.969202788e-09
6.928676057e-09
6.877002844e-09
6.816415791e-09
6.750019114e-09
6.682398354e-09
6.620863702e-09
6.578119197e-09
6.905504256e-09
6.875699383e-09
6.832039194e-09
6.776386344e-09
6.711171527e-09
6.639777466e-09
6.567185263e-09
6.50127934e-09
6.455636684e-09
6.800509463e-09
6.76819766e-09
6.720874069e-09
6.660574577e-09
6.589962739e-09
6.512744517e-09
6.434356431e-09
6.363344234e-09
6.314301355e-09
6.680373481e-09
6.645190633e-09