/*--------------------------------*- C++ -*----------------------------------*\
| =========                 |                                                 |
| \\      /  F ield         | OpenFOAM: The Open Source CFD Toolbox           |
|  \\    /   O peration     | Version:  2212                                  |
|   \\  /    A nd           | Website:  www.openfoam.com                      |
|    \\/     M anipulation  |                                                 |
\*---------------------------------------------------------------------------*/
FoamFile
{
    version     2.0;
    format      ascii;
    arch        "LSB;label=32;scalar=64";
    class       volScalarField;
    location    "20.00000000";
    object      I-C4H3_0;
}
// * * * * * * * * * * * * * * * * * * * * * * * * * * * * * * * * * * * * * //

dimensions      [0 0 0 0 0 0 0];

internalField   nonuniform List<scalar> 
3000
(
8.321615697e-23
9.347843355e-23
1.089638935e-22
1.295990286e-22
1.551733248e-22
1.849911983e-22
2.172552517e-22
2.480389659e-22
2.698041951e-22
3.124221927e-22
3.523640273e-22
4.126086518e-22
4.930644337e-22
5.936469186e-22
7.137931533e-22
8.514105435e-22
9.995641905e-22
1.130785679e-21
6.997878712e-22
7.954460294e-22
9.41103388e-22
1.138859691e-21
1.392252366e-21
1.704931059e-21
2.075626393e-21
2.48352044e-21
2.832037053e-21
1.332853442e-21
1.530906809e-21
1.83689964e-21
2.261161863e-21
2.81867677e-21
3.523531658e-21
4.371751522e-21
5.295313298e-21
6.04033621e-21
2.366706286e-21
2.751721641e-21
3.355938147e-21
4.210011819e-21
5.354042551e-21
6.819970287e-21
8.583038632e-21
1.045440799e-20
1.188870987e-20
4.069607847e-21
4.792185124e-21
5.942421075e-21
7.593697955e-21
9.834085238e-21
1.272001367e-20
1.616551386e-20
1.973684847e-20
2.238144995e-20
6.9088179e-21
8.236076202e-21
1.037350316e-20
1.347666158e-20
1.77183514e-20
2.318298944e-20
2.964473744e-20
3.621047875e-20
4.094859589e-20
1.169311741e-20
1.409522305e-20
1.799800883e-20
2.370802289e-20
3.154374524e-20
4.161813812e-20
5.342599645e-20
6.52488511e-20
7.363797591e-20
1.982561073e-20
2.412767735e-20
3.116260019e-20
4.150727969e-20
5.572839456e-20
7.396310421e-20
9.518210875e-20
1.162079208e-19
1.30963454e-19
3.374025398e-20
4.138613846e-20
5.39461542e-20
7.247493986e-20
9.79626584e-20
1.305586389e-19
1.68280845e-19
2.053883769e-19
2.312390366e-19
5.766500202e-20
7.117828062e-20
9.344681829e-20
1.263633903e-19
1.716429581e-19
2.294205577e-19
2.960117595e-19
3.611900139e-19
4.063774723e-19
9.895033584e-20
1.22739134e-19
1.620252925e-19
2.201667314e-19
3.001224624e-19
4.019575426e-19
5.189727395e-19
6.331149322e-19
7.12013344e-19
1.703844992e-19
2.121497698e-19
2.812261596e-19
3.835298778e-19
5.241588881e-19
7.029867457e-19
9.07990597e-19
1.107508424e-18
1.245261692e-18
2.942148839e-19
3.674115029e-19
4.886076134e-19
6.681972383e-19
9.149768481e-19
1.22837379e-18
1.586931644e-18
1.93534498e-18
2.176130326e-18
5.091035401e-19
6.372189942e-19
8.495514472e-19
1.164385071e-18
1.597045921e-18
2.146198521e-18
2.773740684e-18
3.382742383e-18
3.803907227e-18
8.821154181e-19
1.106034146e-18
1.477453992e-18
2.028588247e-18
2.78654696e-18
3.749527866e-18
4.85133188e-18
5.91996886e-18
6.652310998e-18
1.529436404e-18
1.920065135e-18
2.568273784e-18
3.530268935e-18
4.852937924e-18
6.532037253e-18
8.450392005e-18
1.030765799e-17
1.158022147e-17
2.652472054e-18
3.332773708e-18
4.461833849e-18
6.137283966e-18
8.439891204e-18
1.136070731e-17
1.469437652e-17
1.791926811e-17
2.012905928e-17
4.600632326e-18
5.784017542e-18
7.748168675e-18
1.066257257e-17
1.466675437e-17
1.974372566e-17
2.553542587e-17
3.113583905e-17
3.497262673e-17
7.980371048e-18
1.00374128e-17
1.345187742e-17
1.851808031e-17
2.547761477e-17
3.429953447e-17
4.436043347e-17
5.408623686e-17
6.074779945e-17
1.38445101e-17
1.741878764e-17
2.335210696e-17
3.215562778e-17
4.424810441e-17
5.957399233e-17
7.704844592e-17
9.393684751e-17
1.0550222e-16
2.402100023e-17
3.023025386e-17
4.053821709e-17
5.5832575e-17
7.683933726e-17
1.034593938e-16
1.338055165e-16
1.631280169e-16
1.832046719e-16
4.168382213e-17
5.246924965e-17
7.037465964e-17
9.694119339e-17
1.334273689e-16
1.796567701e-16
2.323474798e-16
2.832510534e-16
3.180993741e-16
7.234436733e-17
9.107716871e-17
1.221763417e-16
1.683163301e-16
2.316775417e-16
3.11945666e-16
4.034145792e-16
4.917634191e-16
5.522379531e-16
1.255725399e-16
1.581069291e-16
2.121165226e-16
2.922397911e-16
4.022511169e-16
5.415879033e-16
7.003289432e-16
8.536165289e-16
9.585187738e-16
2.1798395e-16
2.744848413e-16
3.682724868e-16
5.073857613e-16
6.983504291e-16
9.401519628e-16
1.21553722e-15
1.481372803e-15
1.663243753e-15
3.784221253e-16
4.765363412e-16
6.393758679e-16
8.808586282e-16
1.212247052e-15
1.631693339e-15
2.109186054e-15
2.569911595e-15
2.884987875e-15
6.569387898e-16
8.272920571e-16
1.109965756e-15
1.529023565e-15
2.103854513e-15
2.831049133e-15
3.658382101e-15
4.456165389e-15
5.001433137e-15
1.140336773e-15
1.436050796e-15
1.92659227e-15
2.653491135e-15
3.650015494e-15
4.909776326e-15
6.341841131e-15
7.721573681e-15
8.66383752e-15
1.979023945e-15
2.492164595e-15
3.343031066e-15
4.603124382e-15
6.329271462e-15
8.509296429e-15
1.098476772e-14
1.336700398e-14
1.499212084e-14
3.433302872e-15
4.323237678e-15
5.798077818e-15
7.980533875e-15
1.096710225e-14
1.473418601e-14
1.900556197e-14
2.310968976e-14
2.590529924e-14
5.952933145e-15
7.495062577e-15
1.004891589e-14
1.382421976e-14
1.898357319e-14
2.548054775e-14
3.283326578e-14
3.988376801e-14
4.467698882e-14
1.031340115e-14
1.29825516e-14
1.739873257e-14
2.39184897e-14
3.281309162e-14
4.399008108e-14
5.66085233e-14
6.867694361e-14
7.686098931e-14
1.78483383e-14
2.246072347e-14
3.00830918e-14
4.131751398e-14
5.661081704e-14
7.577742836e-14
9.735000786e-14
1.17915315e-13
1.318176552e-13
3.084399585e-14
3.879733021e-14
5.192161767e-14
7.122498331e-14
9.743154345e-14
1.301676755e-13
1.668752831e-13
2.017299807e-13
2.252018665e-13
5.320504507e-14
6.688155057e-14
8.940909221e-14
1.224581892e-13
1.671781916e-13
2.228182194e-13
2.849272388e-13
3.436211089e-13
3.829668531e-13
9.157128835e-14
1.150079936e-13
1.535270437e-13
2.098615335e-13
2.857876872e-13
3.798061913e-13
4.841979425e-13
5.823022148e-13
6.477200436e-13
1.571776384e-13
1.971696362e-13
2.627237326e-13
3.582431021e-13
4.863785724e-13
6.441683364e-13
8.182919453e-13
9.808918295e-13
1.088670757e-12
2.689283996e-13
3.368232692e-13
4.477664699e-13
6.087218505e-13
8.234632109e-13
1.086223339e-12
1.37417168e-12
1.641164477e-12
1.816979314e-12
4.584362623e-13
5.730142244e-13
7.595566888e-13
1.028837016e-12
1.385876027e-12
1.819638259e-12
2.2913331e-12
2.725335799e-12
3.009113283e-12
7.782069794e-13
9.702370196e-13
1.281572089e-12
1.728446122e-12
2.316852114e-12
3.026089693e-12
3.790944228e-12
4.488917375e-12
4.941922464e-12
1.31480389e-12
1.634139223e-12
2.1494389e-12
2.884404652e-12
3.844794222e-12
4.99261025e-12
6.219545403e-12
7.329646126e-12
8.044675777e-12
2.209800868e-12
2.736248128e-12
3.581345061e-12
4.778388653e-12
6.32980859e-12
8.167431707e-12
1.011380075e-11
1.18595257e-11
1.297542174e-11
3.692760467e-12
4.552448578e-12
5.924721369e-12
7.854139555e-12
1.033323385e-11
1.324251847e-11
1.629540472e-11
1.900982621e-11
2.073196108e-11
6.132530371e-12
7.522143688e-12
9.727029346e-12
1.280308086e-11
1.672035702e-11
2.127427861e-11
2.600885851e-11
3.018276527e-11
3.281175668e-11
1.011606256e-11
1.233812336e-11
1.584185302e-11
2.069095582e-11
2.681061501e-11
3.38584859e-11
4.11198095e-11
4.746893052e-11
5.144065829e-11
1.656802059e-11
2.008145985e-11
2.558613655e-11
3.314324129e-11
4.259523884e-11
5.338170658e-11
6.439848963e-11
7.395682839e-11
7.989793317e-11
2.693004108e-11
3.242166386e-11
4.09708021e-11
5.261411838e-11
6.705007771e-11
8.338011657e-11
9.992216314e-11
1.141709618e-10
1.229754979e-10
4.342618471e-11
5.191044068e-11
6.503575155e-11
8.277341813e-11
1.045819993e-10
1.29048345e-10
1.536432883e-10
1.74688494e-10
1.876234272e-10
6.945158484e-11
8.240847542e-11
1.023322648e-10
1.290591506e-10
1.616618236e-10
1.979569965e-10
2.341875209e-10
2.650031547e-10
2.838530758e-10
1.101356197e-10
1.296998707e-10
1.596122656e-10
1.994612597e-10
2.47716578e-10
3.010592534e-10
3.539693077e-10
3.987302989e-10
4.25995335e-10
1.731505449e-10
2.023697435e-10
2.468065281e-10
3.056268745e-10
3.763807555e-10
4.540962975e-10
5.307446636e-10
5.95280862e-10
6.344472826e-10
2.69863381e-10
3.130494483e-10
3.784053459e-10
4.644113332e-10
5.672428284e-10
6.795506589e-10
7.897636723e-10
8.821784046e-10
9.380885534e-10
4.169584303e-10
4.801612766e-10
5.753816269e-10
7.000304201e-10
8.482660542e-10
1.009353674e-09
1.16675059e-09
1.298262988e-09
1.377616732e-09
6.386840274e-10
7.303335261e-10
8.678595808e-10
1.047051281e-09
1.259146424e-09
1.488626245e-09
1.712008637e-09
1.89809489e-09
2.010131383e-09
9.700193744e-10
1.101794595e-09
1.298837062e-09
1.554529644e-09
1.855929986e-09
2.18080753e-09
2.496041352e-09
2.757982724e-09
2.91540693e-09
1.461043532e-09
1.649045455e-09
1.92930371e-09
2.2916944e-09
2.717352126e-09
3.174688416e-09
3.61725103e-09
3.98423007e-09
4.204465485e-09
2.182948212e-09
2.449280816e-09
2.845262184e-09
3.355732464e-09
3.953506405e-09
4.594019316e-09
5.212447592e-09
5.724387351e-09
6.031274136e-09
3.236264459e-09
3.611165384e-09
4.167312998e-09
4.882404706e-09
5.717657299e-09
6.610597959e-09
7.471165165e-09
8.182590436e-09
8.608705662e-09
4.762049003e-09
5.286759994e-09
6.063671384e-09
7.060457718e-09
8.222276617e-09
9.462044508e-09
1.065512589e-08
1.164044469e-08
1.223029236e-08
6.956993934e-09
7.687627213e-09
8.767744799e-09
1.015108955e-08
1.176071753e-08
1.347585472e-08
1.512462484e-08
1.648538342e-08
1.729980013e-08
1.009368517e-08
1.110642726e-08
1.260170984e-08
1.451407664e-08
1.673634166e-08
1.910178783e-08
2.137413954e-08
2.324902187e-08
2.437128201e-08
1.454752062e-08
1.594561816e-08
1.800785966e-08
2.06425488e-08
2.370136257e-08
2.695517139e-08
3.008007586e-08
3.265871614e-08
3.420301574e-08
2.083204959e-08
2.275514423e-08
2.558980289e-08
2.920877225e-08
3.340811708e-08
3.787423758e-08
4.21641924e-08
4.570625709e-08
4.782950465e-08
2.964465867e-08
3.228118881e-08
3.616582794e-08
4.112357566e-08
4.687579838e-08
5.299499913e-08
5.887672623e-08
6.373819833e-08
6.66563511e-08
4.192455025e-08
4.552808061e-08
5.083673648e-08
5.761201462e-08
6.547563302e-08
7.384712806e-08
8.190323198e-08
8.857236583e-08
9.25829242e-08
5.8924604e-08
6.383500327e-08
7.106989543e-08
8.030718144e-08
9.103663726e-08
1.024732995e-07
1.134980198e-07
1.22643908e-07
1.281565494e-07
8.229766967e-08
8.896795622e-08
9.87998012e-08
1.113622579e-07
1.259718541e-07
1.415717358e-07
1.566438551e-07
1.691806063e-07
1.76758076e-07
1.141958699e-07
1.232251382e-07
1.365427085e-07
1.535775238e-07
1.734207122e-07
1.946563586e-07
2.152310612e-07
2.323995143e-07
2.42810275e-07
1.57378453e-07
1.695504704e-07
1.875187166e-07
2.105338261e-07
2.373965312e-07
2.662205209e-07
2.942385837e-07
3.177042326e-07
3.319862223e-07
2.153199062e-07
2.316455793e-07
2.557694105e-07
2.867174185e-07
3.229197809e-07
3.6187948e-07
3.998858547e-07
4.318453839e-07
4.513758574e-07
2.92306034e-07
3.140660363e-07
3.462537818e-07
3.876144621e-07
4.361093953e-07
4.884563021e-07
5.397113114e-07
5.829913392e-07
6.095515303e-07
3.935026654e-07
4.222842609e-07
4.649012492e-07
5.197489326e-07
5.841992321e-07
6.53970232e-07
7.225277979e-07
7.806512126e-07
8.164688637e-07
5.24980483e-07
5.627003297e-07
6.185995671e-07
6.906371342e-07
7.754474634e-07
8.674898235e-07
9.582129193e-07
1.035406796e-06
1.08316279e-06
6.936803772e-07
7.42583338e-07
8.150978243e-07
9.086363166e-07
1.018914224e-06
1.138825813e-06
1.257312518e-06
1.358442035e-06
1.421245582e-06
9.073060614e-07
9.699294865e-07
1.062810449e-06
1.182674116e-06
1.324097012e-06
1.478058282e-06
1.630459587e-06
1.760877461e-06
1.842161185e-06
1.174133803e-06
1.253228434e-06
1.370517386e-06
1.521860596e-06
1.700435964e-06
1.894924624e-06
2.087643986e-06
2.252845906e-06
2.356029925e-06
1.502733767e-06
1.601137437e-06
1.746968891e-06
1.935005958e-06
2.156735444e-06
2.398147466e-06
2.637350308e-06
2.842462403e-06
2.970744848e-06
1.901606475e-06
2.022075539e-06
2.200422685e-06
2.430091857e-06
2.70057668e-06
2.994649374e-06
3.285672396e-06
3.535073838e-06
3.691111939e-06
2.37875818e-06
2.523773201e-06
2.738175351e-06
3.013762433e-06
3.337575816e-06
3.688829956e-06
4.035760424e-06
4.332711949e-06
4.518517138e-06
2.941284448e-06
3.112836579e-06
3.36596986e-06
3.690529996e-06
4.070807155e-06
4.482129882e-06
4.887360981e-06
5.233615228e-06
5.450204481e-06
3.594659965e-06
3.793935931e-06
4.087324371e-06
4.46242211e-06
4.90048791e-06
5.372755663e-06
5.836656861e-06
6.232209208e-06
6.479484881e-06
4.342158782e-06
4.569436413e-06
4.903243675e-06
5.328684973e-06
5.82378957e-06
6.355629922e-06
6.876357661e-06
7.319315058e-06
7.595994028e-06
5.184541663e-06
5.439077356e-06
5.811967944e-06
6.285656854e-06
6.834855208e-06
7.422565039e-06
7.996022593e-06
8.482592784e-06
8.786204386e-06
6.119797724e-06
6.399789867e-06
6.808897553e-06
7.326828757e-06
7.92501225e-06
8.56263107e-06
9.182570177e-06
9.707162639e-06
1.003411186e-05
7.143068449e-06
7.445697565e-06
7.88670145e-06
8.44308251e-06
9.083150312e-06
9.76267053e-06
1.042091446e-05
1.097633571e-05
1.132202196e-05
8.246763066e-06
8.568299699e-06
9.035593405e-06
9.623075594e-06
1.02962193e-05
1.100790433e-05
1.169466481e-05
1.227238624e-05
1.263136525e-05
9.420846272e-06
9.756810479e-06
1.024374082e-05
1.085372885e-05
1.154979745e-05
1.228257509e-05
1.298683422e-05
1.35773089e-05
1.394347939e-05
1.065325752e-05
1.099861078e-05
1.149775911e-05
1.21207683e-05
1.28286812e-05
1.35705838e-05
1.428052017e-05
1.487353232e-05
1.524030054e-05
1.193040994e-05
1.227976094e-05
1.278324185e-05
1.340927356e-05
1.411745272e-05
1.485608219e-05
1.555954447e-05
1.614467656e-05
1.650543498e-05
1.32377171e-05
1.358552577e-05
1.408528135e-05
1.470418988e-05
1.540097677e-05
1.612394097e-05
1.680885737e-05
1.737579365e-05
1.77239739e-05
1.456010421e-05
1.490087303e-05
1.538894827e-05
1.599078352e-05
1.666482886e-05
1.736015334e-05
1.801493377e-05
1.855381291e-05
1.888314202e-05
1.588247054e-05
1.621091541e-05
1.667970353e-05
1.725501562e-05
1.789562565e-05
1.855212091e-05
1.916601984e-05
1.966775758e-05
1.997248036e-05
1.719007593e-05
1.750126861e-05
1.794371307e-05
1.84837987e-05
1.908120867e-05
1.968875102e-05
2.02521376e-05
2.07086646e-05
2.098372998e-05
1.8468815e-05
1.875828472e-05
1.916801426e-05
1.966506408e-05
2.021057634e-05
2.076020208e-05
2.12646014e-05
2.166882397e-05
2.190957202e-05
1.970529369e-05
1.996906486e-05
2.034041376e-05
2.078746811e-05
2.127333463e-05
2.17568986e-05
2.219400833e-05
2.253845414e-05
2.273908997e-05
2.088645134e-05
2.112098099e-05
2.144881577e-05
2.183925978e-05
2.225767698e-05
2.266630322e-05
2.302546177e-05
2.330174017e-05
2.345966616e-05
2.19979103e-05
2.2199509e-05
2.247824093e-05
2.280362466e-05
2.314520421e-05
2.347225257e-05
2.375464603e-05
2.396609384e-05
2.408321762e-05
2.301662212e-05
2.318093724e-05
2.340596292e-05
2.366603244e-05
2.393414952e-05
2.418398335e-05
2.439220006e-05
2.45408598e-05
2.461835284e-05
2.39344901e-05
2.4063708e-05
2.423824225e-05
2.443580256e-05
2.4633072e-05
2.480839911e-05
2.49447505e-05
2.50325266e-05
2.507157922e-05
2.475937694e-05
2.485490008e-05
2.498089824e-05
2.511809645e-05
2.5246848e-05
2.535018164e-05
2.541717012e-05
2.544629417e-05
2.544838565e-05
2.54949464e-05
2.555793319e-05
2.563708299e-05
2.571604471e-05
2.577881247e-05
2.581302352e-05
2.581365035e-05
2.578687074e-05
2.575385341e-05
2.614306667e-05
2.617474366e-05
2.620889268e-05
2.623206094e-05
2.623184209e-05
2.620036375e-05
2.613823406e-05
2.605884953e-05
2.599294313e-05
2.670516738e-05
2.670697082e-05
2.669829565e-05
2.666856314e-05
2.660889896e-05
2.651575694e-05
2.639505784e-05
2.626686361e-05
2.617060326e-05
2.71829473e-05
2.715656528e-05
2.710760981e-05
2.702832939e-05
2.691327868e-05
2.676302838e-05
2.658843807e-05
2.641562679e-05
2.629178878e-05
2.757870593e-05
2.752606658e-05
2.743971244e-05
2.731464104e-05
2.714869506e-05
2.694631147e-05
2.672287512e-05
2.650991841e-05
2.6361438e-05
2.789546162e-05
2.781869349e-05
2.769809612e-05
2.753130511e-05
2.731927417e-05
2.707002146e-05
2.680301566e-05
2.655454194e-05
2.638443192e-05
2.81369481e-05
2.803832737e-05
2.78868366e-05
2.768260812e-05
2.742949861e-05
2.713879584e-05
2.683359494e-05
2.655427313e-05
2.636554847e-05
2.83075411e-05
2.818943422e-05
2.801051055e-05
2.77732319e-05
2.748412511e-05
2.715741824e-05
2.681937086e-05
2.651380593e-05
2.630941769e-05
2.841214534e-05
2.827695249e-05
2.807408598e-05
2.780814951e-05
2.748808967e-05
2.713073636e-05
2.676505715e-05
2.643770087e-05
2.622048108e-05
2.84560614e-05
2.830616417e-05
2.808280034e-05
2.779251371e-05
2.744640974e-05
2.706358074e-05
2.667526011e-05
2.633033867e-05
2.610295678e-05
2.844484568e-05
2.82825611e-05
2.80420367e-05
2.773154638e-05
2.736408996e-05
2.696068892e-05
2.655442187e-05
2.619588066e-05
2.596081149e-05
2.838417346e-05
2.821171561e-05
2.795720569e-05
2.763043511e-05
2.724603612e-05
2.682663835e-05
2.640677217e-05
2.603823705e-05
2.57977394e-05
2.827971201e-05
2.809916173e-05
2.783363858e-05
2.749424132e-05
2.709698044e-05
2.666579006e-05
2.623628977e-05
2.586104344e-05
2.561714826e-05
2.81370087e-05
2.795029146e-05
2.76764952e-05
2.732782254e-05
2.692142017e-05
2.648224398e-05
2.604667381e-05
2.56676454e-05
2.54221523e-05
2.796139722e-05
2.777026858e-05
2.749068857e-05
2.713577038e-05
2.672357021e-05
2.627980638e-05
2.5841325e-05
2.546109094e-05
2.521557126e-05
2.775792316e-05
2.756396098e-05
2.728082689e-05
2.692236412e-05
2.650732955e-05
2.606196965e-05
2.562333625e-05
2.524412936e-05
2.499993463e-05
2.753128934e-05
2.733589238e-05
2.705117391e-05
2.669154096e-05
2.627626112e-05
2.583190001e-05
2.539548971e-05
2.501921633e-05
2.477749101e-05
2.728581952e-05
2.709021042e-05
2.680562295e-05
2.644687724e-05
2.603358153e-05
2.559243715e-05
2.516026311e-05
2.478852457e-05
2.455022117e-05
2.702543702e-05
2.683066916e-05
2.654768499e-05
2.619158307e-05
2.578216222e-05
2.534610046e-05
2.491984062e-05
2.455395796e-05
2.431985394e-05
2.675365846e-05
2.656062585e-05
2.628048944e-05
2.592850749e-05
2.552453858e-05
2.509510173e-05
2.467612818e-05
2.431716866e-05
2.408788405e-05
2.64735992e-05
2.628304827e-05
2.600679392e-05
2.566015082e-05
2.526292493e-05
2.484136209e-05
2.443077186e-05
2.407957607e-05
2.385559123e-05
2.618798759e-05
2.600053023e-05
2.572900129e-05
2.538868323e-05
2.499923422e-05
2.458653247e-05
2.418517834e-05
2.384238699e-05
2.362405986e-05
2.589918621e-05
2.57153133e-05
2.544918192e-05
2.511596738e-05
2.47351007e-05
2.433201587e-05
2.394053644e-05
2.360661607e-05
2.339419866e-05
2.560921762e-05
2.542931257e-05
2.516909939e-05
2.484358375e-05
2.447190453e-05
2.407899075e-05
2.369783901e-05
2.33731062e-05
2.316675983e-05
2.531979297e-05
2.514414496e-05
2.489023807e-05
2.457285722e-05
2.421079691e-05
2.382843447e-05
2.345790439e-05
2.314254811e-05
2.294235745e-05
2.503234207e-05
2.486115852e-05
2.461383143e-05
2.430488387e-05
2.395272509e-05
2.358114616e-05
2.322139712e-05
2.291549907e-05
2.272148481e-05
2.474804341e-05
2.458146171e-05
2.434088998e-05
2.404055728e-05
2.369845662e-05
2.333776866e-05
2.298884749e-05
2.269240031e-05
2.250453042e-05
2.446785362e-05
2.43059518e-05
2.407222825e-05
2.378059361e-05
2.344860217e-05
2.309880897e-05
2.27606696e-05
2.247359305e-05
2.229179273e-05
2.41925354e-05
2.40353418e-05
2.380849019e-05
2.35255551e-05
2.320363685e-05
2.286465718e-05
2.253717802e-05
2.225933314e-05
2.208349346e-05
2.392268362e-05
2.377018548e-05
2.355017273e-05
2.327587168e-05
2.29639197e-05
2.263560367e-05
2.231860272e-05
2.204980412e-05
2.18797895e-05
2.365874928e-05
2.35109004e-05
2.329764724e-05
2.303186069e-05
2.272971126e-05
2.241185454e-05
2.210510248e-05
2.18451289e-05
2.16807835e-05
2.340106122e-05
2.325778854e-05
2.30511789e-05
2.27937445e-05
2.250118932e-05
2.219354537e-05
2.189677675e-05
2.164538005e-05
2.148653317e-05
2.314984551e-05
2.301105489e-05
2.281094391e-05
2.256166612e-05
2.227846279e-05
2.198075327e-05
2.169367598e-05
2.145058872e-05
2.129705935e-05
2.290524264e-05
2.277082375e-05
2.257704464e-05
2.233570299e-05
2.206158385e-05
2.177350745e-05
2.149581068e-05
2.126075247e-05
2.111235302e-05
2.266732253e-05
2.253715302e-05
2.23495229e-05
2.211587886e-05
2.185055846e-05
2.157179822e-05
2.130315914e-05
2.107584182e-05
2.093238125e-05
2.243609757e-05
2.231004655e-05
2.212837133e-05
2.190217414e-05
2.164535543e-05
2.137558484e-05
2.1115674e-05
2.089580598e-05
2.075709232e-05
2.22115338e-05
2.208946481e-05
2.191354321e-05
2.169453465e-05
2.14459141e-05
2.118480209e-05
2.093328788e-05
2.072057759e-05
2.05864199e-05
2.199356051e-05
2.187533386e-05
2.170496074e-05
2.149287906e-05
2.125215081e-05
2.09993658e-05
2.075591801e-05
2.055007663e-05
2.042028667e-05
2.178207825e-05
2.1667553e-05
2.150252208e-05
2.129710517e-05
2.106396437e-05
2.081917747e-05
2.058347014e-05
2.038421377e-05
2.02586072e-05
2.157696562e-05
2.146600115e-05
2.130610716e-05
2.110709506e-05
2.088124053e-05
2.064412809e-05
2.041584166e-05
2.022289302e-05
2.010129033e-05
2.137808485e-05
2.127054211e-05
2.11155825e-05
2.092271941e-05
2.070385568e-05
2.047410123e-05
2.025292425e-05
2.006601386e-05
1.994824106e-05
2.118528645e-05
2.108102893e-05
2.093080517e-05
2.074384094e-05
2.053167983e-05
2.030897553e-05
2.009460587e-05
1.991347297e-05
1.979936208e-05
2.099841291e-05
2.089730735e-05
2.075162597e-05
2.057031726e-05
2.036457903e-05
2.014862674e-05
1.994077242e-05
1.976516559e-05
1.965455494e-05
2.081730173e-05
2.071921871e-05
2.057789199e-05
2.040200308e-05
2.020241721e-05
1.999292921e-05
1.9791309e-05
1.96209865e-05
1.951372091e-05
2.064178783e-05
2.054660211e-05
2.04094486e-05
2.023875194e-05
2.004505772e-05
1.984175712e-05
1.964610085e-05
1.948083081e-05
1.937676166e-05
2.04717054e-05
2.037929619e-05
2.024614105e-05
2.008041759e-05
1.989236438e-05
1.969498537e-05
1.950503406e-05
1.934459452e-05
1.92435797e-05
2.030688934e-05
2.021714044e-05
2.008781558e-05
1.992685497e-05
1.974420234e-05
1.955249025e-05
1.936799605e-05
1.921217487e-05
1.911407872e-05
2.01471763e-05
2.005997618e-05
1.993432035e-05
1.977792094e-05
1.960043863e-05
1.941414984e-05
1.923487592e-05
1.908347059e-05
1.898816373e-05
1.999240554e-05
1.99076473e-05
1.978550604e-05
1.963347483e-05
1.946094262e-05
1.927984434e-05
1.910556463e-05
1.895838203e-05
1.88657412e-05
1.984241936e-05
1.976000069e-05
1.964122626e-05
1.949337871e-05
1.932558622e-05
1.914945623e-05
1.897995512e-05
1.883681122e-05
1.874671906e-05
1.969706355e-05
1.961688663e-05
1.950133779e-05
1.935749764e-05
1.919424403e-05
1.902287036e-05
1.885794232e-05
1.871866184e-05
1.863100667e-05
1.955618754e-05
1.94781589e-05
1.936570077e-05
1.922569974e-05
1.906679338e-05
1.889997391e-05
1.873942313e-05
1.860383922e-05
1.851851478e-05
1.941964451e-05
1.934367489e-05
1.923417869e-05
1.909785619e-05
1.894311433e-05
1.878065641e-05
1.862429636e-05
1.849225018e-05
1.84091554e-05
1.928729139e-05
1.921329557e-05
1.91066384e-05
1.897384122e-05
1.882308957e-05
1.866480959e-05
1.851246262e-05
1.8383803e-05
1.830284177e-05
1.91589888e-05
1.908688544e-05
1.898295e-05
1.885353199e-05
1.870660437e-05
1.855232735e-05
1.840382426e-05
1.827840731e-05
1.819948819e-05
1.903460097e-05
1.896431241e-05
1.886298677e-05
1.873680849e-05
1.859354642e-05
1.844310559e-05
1.829828522e-05
1.817597399e-05
1.809901001e-05
1.891399559e-05
1.88454477e-05
1.874662502e-05
1.862355343e-05
1.848380578e-05
1.833704217e-05
1.819575098e-05
1.807641505e-05
1.800132348e-05
1.879704369e-05
1.87301657e-05
1.863374398e-05
1.851365212e-05
1.837727471e-05
1.823403673e-05
1.809612841e-05
1.797964363e-05
1.790634572e-05
1.868361951e-05
1.86183438e-05
1.852422565e-05
1.840699232e-05
1.827384757e-05
1.813399067e-05
1.799932576e-05
1.788557384e-05
1.781399465e-05
1.857360032e-05
1.85098623e-05
1.84179547e-05
1.830346416e-05
1.817342076e-05
1.803680702e-05
1.790525256e-05
1.779412079e-05
1.772418895e-05
1.846686633e-05
1.840460427e-05
1.831481832e-05
1.820296002e-05
1.807589259e-05
1.79423904e-05
1.781381957e-05
1.770520055e-05
1.763684809e-05
1.836330054e-05
1.830245541e-05
1.821470616e-05
1.810537447e-05
1.798116324e-05
1.785064696e-05
1.772493877e-05
1.761873008e-05
1.755189226e-05
1.826278864e-05
1.820330401e-05
1.811751021e-05
1.801060416e-05
1.788913473e-05
1.776148435e-05
1.763852334e-05
1.75346273e-05
1.746924241e-05
1.816521894e-05
1.810704081e-05
1.802312477e-05
1.791854782e-05
1.779971081e-05
1.767481174e-05
1.755448766e-05
1.745281111e-05
1.738882032e-05
1.807048228e-05
1.801355897e-05
1.793144634e-05
1.782910615e-05
1.771279703e-05
1.759053974e-05
1.747274734e-05
1.737320136e-05
1.731054859e-05
1.797847195e-05
1.7922754e-05
1.784237363e-05
1.774218188e-05
1.762830068e-05
1.75085805e-05
1.739321924e-05
1.729571898e-05
1.723435073e-05
1.788908367e-05
1.783452372e-05
1.775580753e-05
1.765767969e-05
1.754613079e-05
1.742884769e-05
1.731582153e-05
1.722028598e-05
1.716015123e-05
1.780221555e-05
1.774876825e-05
1.767165105e-05
1.757550625e-05
1.74661982e-05
1.735125653e-05
1.724047372e-05
1.714682555e-05
1.708787563e-05
1.771776803e-05
1.766538996e-05
1.758980935e-05
1.749557018e-05
1.738841551e-05
1.727572384e-05
1.716709673e-05
1.707526211e-05
1.70174506e-05
1.763564385e-05
1.758429345e-05
1.751018968e-05
1.741778208e-05
1.731269712e-05
1.720216806e-05
1.709561293e-05
1.700552141e-05
1.694880401e-05
1.755574802e-05
1.750538546e-05
1.743270137e-05
1.734205449e-05
1.723895925e-05
1.71305093e-05
1.702594619e-05
1.693753052e-05
1.688186502e-05
1.747798768e-05
1.742857488e-05
1.735725576e-05
1.726830184e-05
1.716711985e-05
1.706066923e-05
1.695802184e-05
1.687121789e-05
1.681656406e-05
1.740227202e-05
1.735377252e-05
1.728376604e-05
1.71964403e-05
1.709709852e-05
1.699257108e-05
1.689176662e-05
1.68065133e-05
1.675283282e-05
1.732851196e-05
1.728089089e-05
1.721214704e-05
1.712638759e-05
1.702881627e-05
1.692613938e-05
1.682710848e-05
1.674334761e-05
1.669060406e-05
1.725661985e-05
1.720984388e-05
1.714231484e-05
1.705806256e-05
1.696219516e-05
1.686129957e-05
1.67639762e-05
1.668165245e-05
1.662981123e-05
1.718650881e-05
1.714054605e-05
1.707418614e-05
1.699138457e-05
1.689715761e-05
1.679797736e-05
1.670229869e-05
1.662135954e-05
1.657038784e-05
1.711809189e-05
1.707291182e-05
1.700767732e-05
1.692627253e-05
1.68336254e-05
1.673609764e-05
1.664200394e-05
1.656239952e-05
1.651226628e-05
1.705128072e-05
1.700685405e-05
1.694270304e-05
1.686264334e-05
1.677151812e-05
1.667558287e-05
1.658301726e-05
1.650470025e-05
1.645537606e-05
1.698598364e-05
1.69422821e-05
1.687917418e-05
1.680040984e-05
1.671075085e-05
1.661635062e-05
1.652525875e-05
1.644818408e-05
1.639964108e-05
1.69221031e-05
1.687909917e-05
1.681699501e-05
1.673947769e-05
1.665123093e-05
1.65583101e-05
1.64686396e-05
1.639276405e-05
1.634497566e-05
1.685953208e-05
1.681719852e-05
1.675605924e-05
1.667974119e-05
1.659285344e-05
1.650135734e-05
1.641305692e-05
1.633833842e-05
1.629127893e-05
1.67981493e-05
1.675645854e-05
1.669624479e-05
1.662107771e-05
1.653549517e-05
1.644536866e-05
1.63583868e-05
1.628478329e-05
1.623842725e-05
1.67378131e-05
1.669673632e-05
1.663740695e-05
1.656334029e-05
1.647900665e-05
1.63901921e-05
1.630447504e-05
1.623194288e-05
1.618626408e-05
1.667835353e-05
1.663785943e-05
1.657936964e-05
1.65063483e-05
1.642320208e-05
1.633563642e-05
1.62511254e-05
1.6179617e-05
1.613458703e-05
1.661956254e-05
1.657961567e-05
1.652191462e-05
1.644987581e-05
1.636784666e-05
1.628145755e-05
1.619808495e-05
1.61275455e-05
1.608313173e-05
1.656118215e-05
1.652174074e-05
1.646476831e-05
1.639363745e-05
1.631264143e-05
1.622734203e-05
1.614502627e-05
1.607538942e-05
1.60315523e-05
1.650289034e-05
1.646390353e-05
1.640758626e-05
1.633727182e-05
1.625720525e-05
1.617288762e-05
1.609152669e-05
1.602270893e-05
1.59793984e-05
1.644428471e-05
1.640568918e-05
1.634993526e-05
1.628032228e-05
1.620105422e-05
1.611758118e-05
1.603704449e-05
1.596893815e-05
1.592608925e-05
1.638486415e-05
1.634658002e-05
1.629127326e-05
1.622221563e-05
1.614357884e-05
1.60607741e-05
1.598089272e-05
1.591335756e-05
1.587088499e-05
1.632400869e-05
1.628593471e-05
1.623092754e-05
1.616223903e-05
1.608401937e-05
1.600165612e-05
1.592221144e-05
1.585506477e-05
1.581285665e-05
1.62609581e-05
1.622296629e-05
1.616807177e-05
1.609951584e-05
1.602144043e-05
1.593922842e-05
1.585993938e-05
1.5792945e-05
1.575085572e-05
1.619479003e-05
1.615671975e-05
1.610170286e-05
1.603298159e-05
1.595470585e-05
1.587227742e-05
1.579278666e-05
1.572564291e-05
1.568348547e-05
1.612439856e-05
1.608605023e-05
1.603061877e-05
1.596136119e-05
1.588245532e-05
1.579935091e-05
1.571921045e-05
1.565153783e-05
1.560907596e-05
1.604847446e-05
1.600960325e-05
1.595339858e-05
1.588314907e-05
1.580308467e-05
1.571873844e-05
1.563739572e-05
1.556872492e-05
1.552566534e-05
1.596548852e-05
1.592579829e-05
1.58683866e-05
1.579659401e-05
1.571473163e-05
1.562845842e-05
1.554524358e-05
1.547500474e-05
1.543099047e-05
1.587367972e-05
1.583281775e-05
1.577368247e-05
1.56996907e-05
1.561526939e-05
1.552625404e-05
1.544036999e-05
1.53678844e-05
1.532248957e-05
1.577104985e-05
1.572860276e-05
1.566713896e-05
1.559018034e-05
1.550231062e-05
1.540960103e-05
1.532011739e-05
1.524459299e-05
1.519732028e-05
1.565536646e-05
1.561085813e-05
1.554636976e-05
1.546556224e-05
1.537322374e-05
1.527572956e-05
1.518158239e-05
1.510211445e-05
1.505239599e-05
1.552417642e-05
1.547706835e-05
1.540876937e-05
1.532311888e-05
1.522516433e-05
1.512166268e-05
1.502166176e-05
1.493724028e-05
1.488444307e-05
1.537483176e-05
1.532452675e-05
1.525154719e-05
1.515995644e-05
1.505512353e-05
1.494427374e-05
1.483711888e-05
1.474664434e-05
1.469008117e-05
1.520452984e-05
1.515037964e-05
1.507177761e-05
1.497306278e-05
1.485999545e-05
1.474036415e-05
1.462467232e-05
1.452698093e-05
1.446592764e-05
1.501036954e-05
1.495168716e-05
1.486646779e-05
1.475938417e-05
1.463666461e-05
1.450676279e-05
1.43811072e-05
1.427500675e-05
1.420872631e-05
1.478942484e-05
1.472550207e-05
1.463264418e-05
1.45159218e-05
1.438211421e-05