/*--------------------------------*- C++ -*----------------------------------*\
| =========                 |                                                 |
| \\      /  F ield         | OpenFOAM: The Open Source CFD Toolbox           |
|  \\    /   O peration     | Version:  2212                                  |
|   \\  /    A nd           | Website:  www.openfoam.com                      |
|    \\/     M anipulation  |                                                 |
\*---------------------------------------------------------------------------*/
FoamFile
{
    version     2.0;
    format      ascii;
    arch        "LSB;label=32;scalar=64";
    class       volScalarField;
    location    "20.00000000";
    object      I-C4H51;
}
// * * * * * * * * * * * * * * * * * * * * * * * * * * * * * * * * * * * * * //

dimensions      [0 0 0 0 0 0 0];

internalField   nonuniform List<scalar> 
3000
(
3.06865634e-24
3.447085395e-24
4.018123074e-24
4.779058569e-24
5.722129009e-24
6.8216845e-24
8.011445252e-24
9.146618336e-24
9.949228542e-24
1.15207961e-23
1.299368073e-23
1.521524519e-23
1.81821101e-23
2.189116161e-23
2.63216424e-23
3.139638967e-23
3.685967536e-23
4.169857702e-23
2.580518868e-23
2.933265328e-23
3.470387386e-23
4.199628003e-23
5.134032026e-23
6.287058654e-23
7.654028244e-23
9.158173788e-23
1.044336183e-22
4.914994237e-23
5.645330289e-23
6.773700713e-23
8.338197998e-23
1.03940751e-22
1.29932824e-22
1.61211657e-22
1.952689014e-22
2.227428132e-22
8.727400367e-23
1.014717124e-22
1.237526115e-22
1.552471623e-22
1.974340863e-22
2.51491223e-22
3.16505752e-22
3.855150175e-22
4.384160054e-22
1.500696579e-22
1.767151619e-22
2.191308403e-22
2.800226916e-22
3.626383072e-22
4.69058563e-22
5.961131782e-22
7.278068668e-22
8.253178059e-22
2.547672991e-22
3.037107037e-22
3.825294958e-22
4.969600859e-22
6.533744878e-22
8.548855146e-22
1.093165161e-21
1.335279268e-21
1.50999835e-21
4.311909295e-22
5.197696757e-22
6.636865849e-22
8.742456228e-22
1.163190701e-21
1.534687152e-21
1.970105212e-21
2.406075798e-21
2.715426438e-21
7.31080175e-22
8.897202663e-22
1.149135073e-21
1.530597686e-21
2.055004179e-21
2.727411978e-21
3.509865214e-21
4.285193624e-21
4.829304464e-21
1.244187224e-21
1.526130583e-21
1.989282957e-21
2.672533787e-21
3.612394861e-21
4.814372186e-21
6.205377832e-21
7.573716233e-21
8.526957265e-21
2.126418082e-21
2.624721059e-21
3.445874069e-21
4.659672601e-21
6.329355346e-21
8.45990171e-21
1.091544894e-20
1.331889329e-20
1.498517625e-20
3.648822982e-21
4.526034973e-21
5.974711584e-21
8.11867604e-21
1.106704339e-20
1.482221736e-20
1.913717033e-20
2.334618624e-20
2.625555905e-20
6.282973017e-21
7.823068234e-21
1.037026229e-20
1.414271946e-20
1.932844132e-20
2.592280276e-20
3.348251661e-20
4.083998321e-20
4.591956501e-20
1.08492524e-20
1.354838541e-20
1.801750983e-20
2.463992485e-20
3.374006988e-20
4.529703951e-20
5.852001761e-20
7.136931702e-20
8.024749771e-20
1.877334715e-20
2.349763204e-20
3.132744883e-20
4.293707409e-20
5.889184118e-20
7.914315554e-20
1.022874406e-19
1.247496885e-19
1.402765832e-19
3.252831566e-20
4.078538651e-20
5.448161068e-20
7.480485533e-20
1.027547187e-19
1.382642735e-19
1.78891112e-19
2.182930936e-19
2.453013133e-19
5.639857422e-20
7.080315691e-20
9.470610168e-20
1.301800367e-19
1.789538687e-19
2.408708222e-19
3.116094984e-19
3.800951713e-19
4.270230218e-19
9.78110458e-20
1.228974608e-19
1.645320443e-19
2.263149992e-19
3.112246231e-19
4.189308649e-19
5.41861056e-19
6.607800858e-19
7.422675503e-19
1.696503716e-19
2.132882342e-19
2.857171977e-19
3.93187169e-19
5.408431957e-19
7.280588061e-19
9.41630345e-19
1.14814812e-18
1.289631503e-18
2.942797925e-19
3.701341434e-19
4.960440839e-19
6.82862627e-19
9.394986328e-19
1.264810932e-18
1.635811143e-18
1.994454546e-18
2.240102687e-18
5.105225717e-19
6.423256777e-19
8.611195192e-19
1.185753338e-18
1.631668882e-18
2.196817915e-18
2.841196258e-18
3.463963657e-18
3.890441959e-18
8.857852057e-19
1.114754237e-18
1.494865032e-18
2.058851375e-18
2.833485192e-18
3.815111753e-18
4.934138665e-18
6.015419037e-18
6.755754708e-18
1.537109666e-18
1.934827163e-18
2.59509722e-18
3.574750113e-18
4.920194261e-18
6.62492424e-18
8.567917882e-18
1.044501008e-17
1.17300576e-17
2.667731014e-18
3.358511503e-18
4.50530752e-18
6.206740388e-18
8.543213641e-18
1.150313694e-17
1.487609441e-17
1.813399778e-17
2.036402356e-17
4.630543801e-18
5.830264081e-18
7.821892224e-18
1.077647394e-17
1.48331913e-17
1.997129831e-17
2.582494601e-17
3.147749515e-17
3.534581295e-17
8.038256181e-18
1.012175208e-17
1.358021393e-17
1.871007889e-17
2.57519875e-17
3.466852865e-17
4.482348488e-17
5.462629263e-17
6.133286646e-17
1.395448625e-17
1.757249237e-17
2.357727369e-17
3.248205994e-17
4.470215841e-17
6.016943064e-17
7.77771914e-17
9.47666551e-17
1.063852361e-16
2.422491382e-17
3.050676774e-17
4.093048859e-17
5.638343544e-17
7.758058775e-17
1.043962199e-16
1.349044992e-16
1.643231209e-16
1.844301172e-16
4.20504319e-17
5.295502052e-17
7.104395996e-17
9.784868565e-17
1.345959743e-16
1.810502279e-16
2.338582693e-16
2.847365352e-16
3.194829432e-16
7.297739694e-17
9.189969083e-17
1.232757778e-16
1.697422909e-16
2.333947489e-16
3.137841614e-16
4.050682925e-16
4.929143395e-16
5.528412633e-16
1.266045784e-16
1.594213267e-16
2.138067246e-16
2.942857813e-16
4.044168466e-16
5.433297736e-16
7.008387065e-16
8.521802882e-16
9.552696605e-16
2.195170494e-16
2.763837666e-16
3.705582597e-16
5.097742974e-16
7.000277941e-16
9.396066825e-16
1.210741505e-15
1.470731985e-15
1.647484183e-15
3.803111793e-16
4.787372958e-16
6.415859497e-16
8.820049281e-16
1.209997391e-15
1.622153942e-15
2.087464729e-15
2.532493215e-15
2.834283616e-15
6.58165118e-16
8.282488594e-16
1.109327075e-15
1.523601405e-15
2.087548817e-15
2.794326249e-15
3.589824877e-15
4.348179893e-15
4.860834975e-15
1.137385121e-15
1.430667771e-15
1.914631594e-15
2.626451688e-15
3.592830209e-15
4.799989692e-15
6.153599195e-15
7.438881844e-15
8.30441816e-15
1.96195695e-15
2.466283824e-15
3.296996459e-15
4.51569607e-15
6.16476556e-15
8.216515982e-15
1.050681351e-14
1.267117596e-14
1.412206764e-14
3.376724403e-15
4.240962207e-15
5.661367686e-15
7.738725091e-15
1.05385337e-14
1.400550591e-14
1.785499647e-14
2.147263365e-14
2.388494398e-14
5.795975188e-15
7.270694542e-15
9.688026046e-15
1.321033901e-14
1.793538437e-14
2.375394473e-14
3.01748231e-14
3.617075954e-14
4.014515043e-14
9.9168024e-15
1.242044641e-14
1.651151194e-14
2.244679446e-14
3.036545546e-14
4.005482776e-14
5.067302594e-14
6.051848049e-14
6.700171338e-14
1.690491037e-14
2.112999759e-14
2.80087939e-14
3.793857213e-14
5.110447876e-14
6.709957911e-14
8.449345655e-14
1.004974229e-13
1.109617883e-13
2.86964073e-14
3.577753066e-14
4.725804106e-14
6.37365709e-14
8.543411593e-14
1.115873467e-13
1.397914578e-13
1.655292958e-13
1.822338931e-13
4.848320735e-14
6.025865737e-14
7.92602736e-14
1.063620594e-13
1.417763318e-13
1.841019323e-13
2.293450172e-13
2.702797995e-13
2.966463551e-13
8.148558568e-14
1.008980955e-13
1.320606713e-13
1.762011195e-13
2.334090146e-13
3.011704601e-13
3.729417452e-13
4.373142381e-13
4.784620662e-13
1.361680772e-13
1.678682863e-13
2.18469549e-13
2.896149424e-13
3.810289448e-13
4.883054945e-13
6.008767934e-13
7.009671801e-13
7.64468092e-13
2.261307233e-13
2.773704476e-13
3.586718329e-13
4.720956106e-13
6.165373906e-13
7.844532612e-13
9.590292757e-13
1.112930566e-12
1.209866511e-12
3.730150422e-13
4.549475617e-13
5.841375353e-13
7.629330366e-13
9.885742923e-13
1.248437231e-12
1.516166871e-12
1.750259609e-12
1.896695493e-12
6.10914002e-13
7.404571656e-13
9.434167538e-13
1.222046357e-12
1.570534413e-12
1.968215143e-12
2.374377725e-12
2.726762241e-12
2.945786144e-12
9.929823908e-13
1.195450198e-12
1.510638217e-12
1.93989108e-12
2.472083449e-12
3.074080588e-12
3.683868931e-12
4.209100182e-12
4.533636259e-12
1.601228555e-12
1.914002281e-12
2.397853975e-12
3.051707266e-12
3.855581439e-12
4.757366837e-12
5.663832694e-12
6.43942023e-12
6.916090043e-12
2.560859469e-12
3.038456527e-12
3.772817549e-12
4.757859275e-12
5.959352228e-12
7.296790258e-12
8.631706593e-12
9.766997283e-12
1.046139659e-11
4.061091083e-12
4.78210746e-12
5.884396678e-12
7.352684133e-12
9.13046293e-12
1.10953565e-11
1.304399788e-11
1.469226405e-11
1.569614081e-11
6.385087573e-12
7.461651365e-12
9.0986755e-12
1.126518534e-11
1.387066735e-11
1.673181557e-11
1.955297769e-11
2.19277924e-11
2.336878812e-11
9.952748103e-12
1.154335709e-11
1.395001381e-11
1.71162022e-11
2.090053478e-11
2.503209517e-11
2.908509285e-11
3.248243083e-11
3.453726126e-11
1.538129262e-11
1.77080595e-11
2.121243543e-11
2.579794637e-11
3.124844696e-11
3.716828772e-11
4.294934524e-11
4.777730968e-11
5.068938218e-11
2.356986521e-11
2.69418186e-11
3.199934546e-11
3.858510262e-11
4.637448342e-11
5.479565709e-11
6.298657453e-11
6.980505489e-11
7.390801245e-11
3.582022359e-11
4.066479169e-11
4.790408809e-11
5.728993144e-11
6.834204884e-11
8.024151167e-11
9.177461282e-11
1.013481494e-10
1.070972784e-10
5.400627199e-11
6.091179417e-11
7.119648286e-11
8.44787236e-11
1.000567998e-10
1.167673158e-10
1.329119983e-10
1.462800526e-10
1.542938981e-10
8.081332963e-11
9.058680465e-11
1.050993516e-10
1.237756927e-10
1.45601259e-10
1.689347698e-10
1.914130701e-10
2.099832311e-10
2.210983508e-10
1.200768353e-10
1.338233242e-10
1.541801737e-10
1.802934864e-10
2.107088086e-10
2.431239685e-10
2.742660997e-10
2.999377984e-10
3.152801143e-10
1.772636032e-10
1.964977342e-10
2.24911031e-10
2.612512074e-10
3.034467793e-10
3.482821365e-10
3.912402252e-10
4.265712735e-10
4.476494046e-10
2.601578198e-10
2.869654163e-10
3.264781584e-10
3.768765134e-10
4.352231988e-10
4.970364895e-10
5.560925799e-10
6.045348225e-10
6.333681043e-10
3.798395139e-10
4.171214032e-10
4.719647964e-10
5.417454841e-10
6.223085612e-10
7.074065668e-10
7.884571798e-10
8.547277364e-10
8.940453309e-10
5.520729603e-10
6.03927962e-10
6.800901578e-10
7.76801866e-10
8.881943357e-10
1.005538793e-09
1.116952069e-09
1.207714559e-09
1.261333922e-09
7.992478321e-10
8.715947797e-10
9.777634821e-10
1.112428256e-09
1.267324599e-09
1.430217938e-09
1.584522475e-09
1.709821525e-09
1.783506711e-09
1.153025535e-09
1.254635406e-09
1.403803688e-09
1.593124843e-09
1.811067115e-09
2.040461699e-09
2.257889809e-09
2.434392486e-09
2.537954207e-09
1.657832356e-09
1.802049324e-09
2.014272792e-09
2.284581387e-09
2.597251432e-09
2.928336441e-09
3.244338793e-09
3.502682036e-09
3.655069767e-09
2.375322453e-09
2.582896516e-09
2.889968493e-09
3.284186715e-09
3.745159194e-09
4.240200835e-09
4.720917912e-09
5.121686941e-09
5.36267558e-09
3.389987344e-09
3.693608968e-09
4.146755877e-09
4.736279653e-09
5.438369553e-09
6.210576115e-09
6.98289831e-09
7.649057447e-09
8.064014601e-09
4.816429833e-09
5.267713996e-09
5.949726003e-09
6.853711785e-09
7.958061673e-09
9.212971073e-09
1.05184568e-08
1.169551054e-08
1.246297468e-08
6.809817306e-09
7.4895844e-09
8.53293499e-09
9.947634618e-09
1.172884898e-08
1.3829904e-08
1.611208216e-08
1.826781705e-08
1.974063879e-08
9.583095019e-09
1.061578046e-08
1.222803176e-08
1.446793898e-08
1.737743936e-08
2.093821591e-08
2.496598951e-08
2.893308361e-08
3.175715837e-08
1.343774547e-08
1.501057632e-08
1.750742911e-08
2.105721538e-08
2.58004364e-08
3.1792964e-08
3.880099555e-08
4.59366825e-08
5.118608654e-08
1.881835612e-08
2.120539879e-08
2.504969359e-08
3.06200852e-08
3.822925228e-08
4.806891412e-08
5.984316398e-08
7.21007979e-08
8.132723444e-08
2.640242332e-08
2.999223707e-08
3.583329781e-08
4.440400096e-08
5.626413592e-08
7.177640898e-08
9.049222212e-08
1.100590744e-07
1.24786928e-07
3.723071164e-08
4.255278217e-08
5.125316347e-08
6.407116289e-08
8.182506129e-08
1.049204916e-07
1.323142762e-07
1.597573866e-07
1.777007801e-07
5.286221494e-08
6.059796432e-08
7.321848953e-08
9.169572206e-08
1.169220535e-07
1.487778895e-07
1.84237538e-07
2.141726079e-07
2.291042344e-07
7.548913441e-08
8.642923356e-08
1.040986277e-07
1.294764284e-07
1.629016124e-07
2.022422903e-07
2.39271182e-07
2.65871455e-07
2.801956239e-07
1.078438964e-07
1.226976443e-07
1.461805082e-07
1.786287258e-07
2.181752194e-07
2.571710161e-07
2.909374111e-07
3.172288582e-07
3.323168013e-07
1.524655408e-07
1.712934762e-07
1.997355463e-07
2.362159887e-07
2.724109851e-07
3.085530918e-07
3.421397078e-07
3.696621555e-07
3.86204096e-07
2.090267433e-07
2.298245226e-07
2.565071256e-07
2.884124606e-07
3.233371512e-07
3.595814253e-07
3.943796516e-07
4.236619168e-07
4.418028255e-07
2.650691637e-07
2.830590966e-07
3.082595141e-07
3.393411767e-07
3.745854814e-07
4.118792164e-07
4.481873644e-07
4.791489413e-07
4.98720562e-07
3.172986552e-07
3.347814486e-07
3.599290301e-07
3.913886403e-07
4.274560286e-07
4.658585881e-07
5.034183076e-07
5.356499001e-07
5.56299641e-07
3.70156048e-07
3.877807574e-07
4.132959979e-07
4.453210326e-07
4.820864979e-07
5.212272848e-07
5.595081107e-07
5.924349807e-07
6.137119191e-07
4.249926076e-07
4.428163707e-07
4.686189427e-07
5.009578853e-07
5.379892209e-07
5.77292485e-07
6.156373348e-07
6.486122119e-07
6.700251923e-07
4.81767678e-07
4.996193838e-07
5.254043372e-07
5.576111527e-07
5.943340479e-07
6.331326741e-07
6.70836498e-07
7.03196198e-07
7.24254328e-07
5.39798077e-07
5.574139523e-07
5.827784493e-07
6.14323112e-07
6.501054373e-07
6.877046237e-07
7.240634573e-07
7.55167557e-07
7.75408963e-07
5.980893954e-07
6.15169442e-07
6.39673677e-07
6.700000287e-07
7.042025547e-07
7.399231793e-07
7.742701737e-07
8.035288702e-07
8.225388217e-07
6.554959648e-07
6.71733653e-07
6.949373828e-07
7.235021584e-07
7.555169779e-07
7.887307538e-07
8.204642603e-07
8.473530042e-07
8.647581543e-07
7.108182842e-07
7.259216947e-07
7.474125197e-07
7.73717825e-07
8.030022101e-07
8.331638089e-07
8.617719701e-07
8.85826666e-07
9.011567034e-07
7.628803222e-07
7.765900048e-07
7.96007817e-07
8.19629743e-07
8.457373211e-07
8.72420783e-07
8.975431446e-07
9.185338279e-07
9.318495691e-07
8.105989851e-07
8.227029161e-07
8.39759815e-07
8.603701025e-07
8.829697129e-07
9.05875594e-07
9.272722552e-07
9.450384719e-07
9.56270177e-07
8.530456514e-07
8.633904495e-07
8.778850598e-07
8.952657176e-07
9.141534383e-07
9.331161639e-07
9.506727931e-07
9.651504486e-07
9.742714808e-07
8.894954626e-07
8.979929194e-07
9.098179539e-07
9.238677092e-07
9.389705172e-07
9.539589525e-07
9.676868329e-07
9.789147404e-07
9.859628652e-07
9.194599501e-07
9.260883024e-07
9.352306336e-07
9.459623131e-07
9.573319116e-07
9.684398014e-07
9.784653678e-07
9.865772546e-07
9.916598651e-07
9.42699715e-07
9.474993762e-07
9.54031823e-07
9.61558877e-07
9.693527613e-07
9.767722765e-07
9.833103143e-07
9.884951103e-07
9.91677935e-07
9.59211862e-07
9.622749238e-07
9.663362627e-07
9.70838676e-07
9.752784633e-07
9.792158439e-07
9.823487135e-07
9.845640477e-07
9.855257075e-07
9.69166641e-07
9.706197938e-07
9.72372178e-07
9.739824575e-07
9.751184447e-07
9.754151178e-07
9.745689194e-07
9.734891261e-07
9.72705077e-07
9.726581274e-07
9.725219056e-07
9.719159409e-07
9.70180875e-07
9.675782613e-07
9.643560446e-07
9.608652512e-07
9.577756095e-07
9.558395355e-07
9.681660834e-07
9.662525434e-07
9.632740348e-07
9.59203476e-07
9.542685938e-07
9.488443123e-07
9.434793312e-07
9.389318687e-07
9.361301475e-07
9.569142919e-07
9.539277724e-07
9.495082399e-07
9.4384115e-07
9.372536709e-07
9.302313397e-07
9.234429157e-07
9.177620365e-07
9.142746051e-07
9.413865019e-07
9.376554789e-07
9.322185449e-07
9.253724302e-07
9.175372608e-07
9.092897479e-07
9.013911231e-07
8.948155139e-07
8.907813947e-07
9.227615679e-07
9.184796718e-07
9.122829366e-07
9.045431373e-07
8.957538869e-07
8.865637595e-07
8.778058893e-07
8.705340775e-07
8.660721313e-07
9.017604381e-07
8.970683227e-07
8.90304507e-07
8.818958094e-07
8.723917476e-07
8.624952542e-07
8.530930596e-07
8.452981924e-07
8.405135551e-07
8.789270438e-07
8.739390972e-07
8.667672606e-07
8.578788489e-07
8.478643623e-07
8.374657114e-07
8.276069273e-07
8.194416129e-07
8.144276889e-07
8.547187866e-07
8.495319167e-07
8.420876105e-07
8.328818558e-07
8.225334473e-07
8.118099591e-07
8.016584691e-07
7.932566318e-07
7.880958366e-07
8.295350518e-07
8.242319348e-07
8.166310703e-07
8.072472071e-07
7.967166623e-07
7.858212862e-07
7.755189266e-07
7.669969172e-07
7.617611615e-07
8.037265518e-07
7.98377275e-07
7.90718214e-07
7.812745553e-07
7.706910663e-07
7.597542527e-07
7.494223061e-07
7.408799271e-07
7.356311247e-07
7.77599265e-07
7.722625449e-07
7.646277354e-07
7.552235324e-07
7.446956003e-07
7.3382708e-07
7.235677805e-07
7.150893872e-07
7.098800431e-07
7.514171579e-07
7.46141455e-07
7.385989634e-07
7.293161947e-07
7.189335091e-07
7.082240977e-07
6.981222022e-07
6.897778915e-07
6.84651768e-07
7.254048365e-07
7.202294367e-07
7.128344451e-07
7.037395831e-07
6.935748989e-07
6.830983225e-07
6.732227276e-07
6.650695911e-07
6.600624305e-07
6.997503718e-07
6.947064345e-07
6.875026989e-07
6.786484387e-07
6.687594261e-07
6.585741385e-07
6.489795126e-07
6.410629224e-07
6.362032052e-07
6.746082939e-07
6.697198571e-07
6.627411077e-07
6.541680345e-07
6.445990733e-07
6.347500344e-07
6.254784301e-07
6.178333279e-07
6.131430447e-07
6.501026984e-07
6.453876268e-07
6.386588937e-07
6.303970668e-07
6.211809607e-07
6.117013462e-07
6.027837671e-07
5.95435929e-07
5.909313476e-07
6.263303967e-07
6.21801265e-07
6.153401151e-07
6.074105514e-07
5.985701412e-07
5.894829624e-07
5.809408574e-07
5.739081124e-07
5.696005238e-07
6.03364045e-07
5.990289494e-07
5.928466255e-07
5.852626703e-07
5.768123306e-07
5.681319455e-07
5.599786133e-07
5.532719951e-07
5.491684238e-07
5.812551944e-07
5.771184887e-07
5.712209454e-07
5.63989522e-07
5.559365313e-07
5.476700331e-07
5.399119213e-07
5.335367413e-07
5.296406075e-07
5.600372045e-07
5.561001578e-07
5.504889899e-07
5.436117266e-07
5.359575112e-07
5.281060009e-07
5.207438801e-07
5.147006957e-07
5.11012425e-07
5.397279945e-07
5.359893806e-07
5.306626534e-07
5.241368835e-07
5.168781098e-07
5.094377968e-07
5.024678237e-07
4.967533322e-07
4.932709119e-07
5.203325808e-07
5.167891864e-07
5.117421507e-07
5.05561782e-07
4.986913241e-07
4.916545328e-07
4.850691899e-07
4.796770108e-07
4.763964796e-07
5.01845365e-07
4.984924278e-07
4.937181433e-07
4.878744218e-07
4.81382211e-07
4.747382495e-07
4.685271665e-07
4.63448525e-07
4.603644037e-07
4.842521989e-07
4.810837871e-07
4.765736605e-07
4.710558233e-07
4.649295713e-07
4.586654747e-07
4.528161328e-07
4.48040452e-07
4.451461163e-07
4.67532208e-07
4.645415375e-07
4.602857729e-07
4.55081601e-07
4.493074139e-07
4.434085771e-07
4.379069097e-07
4.334223149e-07
4.307103136e-07
4.516593703e-07
4.488390712e-07
4.448270488e-07
4.399233285e-07
4.344862211e-07
4.289369287e-07
4.237678253e-07
4.195615666e-07
4.17023889e-07
4.36603874e-07
4.339462101e-07
4.301667981e-07
4.255497024e-07
4.204340226e-07
4.152178869e-07
4.103656095e-07
4.064244121e-07
4.0405271e-07
4.223332653e-07
4.198303129e-07
4.16272121e-07
4.119275199e-07
4.071172944e-07
4.022176125e-07
3.976661347e-07
3.939764849e-07
3.917622533e-07
4.088134053e-07
4.064571962e-07
4.031087795e-07
3.990224894e-07
3.945017009e-07
3.899017405e-07
3.856350196e-07
3.821833929e-07
3.801181156e-07
3.960092569e-07
3.937918916e-07
3.906419107e-07
3.8679989e-07
3.825526957e-07
3.782359201e-07
3.742381111e-07
3.710111529e-07
3.690864164e-07
3.838855205e-07
3.817992552e-07
3.788366006e-07
3.752251012e-07
3.712360009e-07
3.671862427e-07
3.634418625e-07
3.604265262e-07
3.586341082e-07
3.724071397e-07
3.704444524e-07
3.676583375e-07
3.642640189e-07
3.605179812e-07
3.567195714e-07
3.532136222e-07
3.503972726e-07
3.487292079e-07
3.615396945e-07
3.596933331e-07
3.570733621e-07
3.538833736e-07
3.503659273e-07
3.468037898e-07
3.435218473e-07
3.40892335e-07
3.393409626e-07
3.512497004e-07
3.495127158e-07
3.470489308e-07
3.440509686e-07
3.407482656e-07
3.374079803e-07
3.343362539e-07
3.318819658e-07
3.304399616e-07
3.415048273e-07
3.398705947e-07
3.375535059e-07
3.347358493e-07
3.316347039e-07
3.285025468e-07
3.256279171e-07
3.233378075e-07
3.219982041e-07
3.32274053e-07
3.307362844e-07
3.285568864e-07
3.259084172e-07
3.229963267e-07
3.20059291e-07
3.173693282e-07
3.152329343e-07
3.139891315e-07
3.23527764e-07
3.220805117e-07
3.200302895e-07
3.175404984e-07
3.148056496e-07
3.120514502e-07
3.095344191e-07
3.075418648e-07
3.063876317e-07
3.152378118e-07
3.138754676e-07
3.119463935e-07
3.096053759e-07
3.070366396e-07
3.044537075e-07
3.020985602e-07
3.002405499e-07
2.991700219e-07
3.073775359e-07
3.060948245e-07
3.042793494e-07
3.020777939e-07
2.996647108e-07
2.972421772e-07
2.950385382e-07
2.933063442e-07
2.923140145e-07
2.999217593e-07
2.987137292e-07
2.970047684e-07
2.949339391e-07
2.926666995e-07
2.903943741e-07
2.883325188e-07
2.867179625e-07
2.857986713e-07
2.928467641e-07
2.917087753e-07
2.900996917e-07
2.88151406e-07
2.860208247e-07
2.838891692e-07
2.819599979e-07
2.804554281e-07
2.796043483e-07
2.861302509e-07
2.850579617e-07
2.835425453e-07
2.817091499e-07
2.797066379e-07
2.777067358e-07
2.759017448e-07
2.745000134e-07
2.737126357e-07
2.797512873e-07
2.787406393e-07
2.773130869e-07
2.755874308e-07
2.73704965e-07
2.718284901e-07
2.701397412e-07
2.688341772e-07
2.681062937e-07
2.736902489e-07
2.727374521e-07
2.713923445e-07
2.697677515e-07
2.679978439e-07
2.662370276e-07
2.646571162e-07
2.634414988e-07
2.627691864e-07
2.67928755e-07
2.670302717e-07
2.657625519e-07
2.642327933e-07
2.625684592e-07
2.609160569e-07
2.594380808e-07
2.583066127e-07
2.576862162e-07
2.624496012e-07
2.616021314e-07
2.60407082e-07
2.589663485e-07
2.574010753e-07
2.558503345e-07
2.544678618e-07
2.53415143e-07
2.528432582e-07
2.572366918e-07
2.564371573e-07
2.55310379e-07
2.53953254e-07
2.524809707e-07
2.510255985e-07
2.497326374e-07
2.487536389e-07
2.482270968e-07
2.522749715e-07
2.515205014e-07
2.504578918e-07
2.491793251e-07
2.477943727e-07
2.464285051e-07
2.452194742e-07
2.443095134e-07
2.438253642e-07
2.475503589e-07
2.468382756e-07
2.458360087e-07
2.446312912e-07
2.433283946e-07
2.420465669e-07
2.40916267e-07
2.400709837e-07
2.396264819e-07
2.430496815e-07
2.423774872e-07
2.414319943e-07
2.402967345e-07
2.390709751e-07
2.378680937e-07
2.368116805e-07
2.360270142e-07
2.356196045e-07
2.38760614e-07
2.381259777e-07
2.37233929e-07
2.361640298e-07
2.350108203e-07
2.338821363e-07
2.328950953e-07
2.321672639e-07
2.317945671e-07
2.34671619e-07
2.340723645e-07
2.332306516e-07
2.322222895e-07
2.311373495e-07
2.300784335e-07
2.291565557e-07
2.284820352e-07
2.281418361e-07
2.307718906e-07
2.302059852e-07
2.294117051e-07
2.284613096e-07
2.274406435e-07
2.264473622e-07
2.25586722e-07
2.249622274e-07
2.246524626e-07
2.270513018e-07
2.265168458e-07
2.257672858e-07
2.24871521e-07
2.239113966e-07
2.229798905e-07
2.221768247e-07
2.215992926e-07
2.213180395e-07
2.235003552e-07
2.22995572e-07
2.222881951e-07
2.214439421e-07
2.205408712e-07
2.196675348e-07
2.189186228e-07
2.183851951e-07
2.181306612e-07
2.201101367e-07
2.196333635e-07
2.189657958e-07
2.181701366e-07
2.173208565e-07
2.165023191e-07
2.15804365e-07
2.153123734e-07
2.150828869e-07
2.168722725e-07
2.164219518e-07
2.157919701e-07
2.150421727e-07
2.142436295e-07
2.134767376e-07
2.128267535e-07
2.123737053e-07
2.121677064e-07
2.137788896e-07
2.133535613e-07
2.127590819e-07
2.120525861e-07
2.113019195e-07
2.105837205e-07
2.099789109e-07
2.095624762e-07
2.093785082e-07
2.108225788e-07
2.104208733e-07
2.098599415e-07
2.091943463e-07
2.084888746e-07
2.078166022e-07
2.072543498e-07
2.06872349e-07
2.067090512e-07
2.079963609e-07
2.07616992e-07
2.070877726e-07
2.064608246e-07
2.057980318e-07
2.05169092e-07
2.046469443e-07
2.042973376e-07
2.041534379e-07
2.052936558e-07
2.049354146e-07
2.044361834e-07
2.038457656e-07
2.032232892e-07
2.026352476e-07
2.02150905e-07
2.018317815e-07
2.017060902e-07
2.027082534e-07
2.023700031e-07
2.018991383e-07
2.013432605e-07
2.007588802e-07
2.002094505e-07
1.997607551e-07
1.994703238e-07
1.993617271e-07
2.00234288e-07
1.999149581e-07
1.994709333e-07
1.989477227e-07
1.983993504e-07
1.978863836e-07
1.974713088e-07
1.972078898e-07
1.971153448e-07
1.978662138e-07
1.975647957e-07
1.971461729e-07
1.96653866e-07
1.961395361e-07
1.956610107e-07
1.952776522e-07
1.950396686e-07
1.949621978e-07
1.95598783e-07
1.953143258e-07
1.949197495e-07
1.94456684e-07
1.939745449e-07
1.935285581e-07
1.931751247e-07
1.929610955e-07
1.928977825e-07
1.934270262e-07
1.931586323e-07
1.927868234e-07
1.923514317e-07
1.918997379e-07
1.914844972e-07
1.911593034e-07
1.909678366e-07
1.909178214e-07
1.913462335e-07
1.910930553e-07
1.907428062e-07
1.903336086e-07
1.899107136e-07
1.895245292e-07
1.892259877e-07
1.890557743e-07
1.890182496e-07
1.893519383e-07
1.891131748e-07
1.887833444e-07
1.883989433e-07
1.880032928e-07
1.876445708e-07
1.87371186e-07
1.87220994e-07
1.871952016e-07
1.874399017e-07
1.872147953e-07
1.869043049e-07
1.865433797e-07
1.861735055e-07
1.858407415e-07
1.855911031e-07
1.854597729e-07
1.854450003e-07
1.856060987e-07
1.853939328e-07
1.851017619e-07
1.847630636e-07
1.844175783e-07
1.841093518e-07
1.838821296e-07
1.837685687e-07
1.837641457e-07
1.838467059e-07
1.836468019e-07
1.833719847e-07
1.830543318e-07
1.827319234e-07
1.824468924e-07
1.822408309e-07
1.821440097e-07
1.821493063e-07
1.821580897e-07
1.819698048e-07
1.817114269e-07
1.814137012e-07
1.811131288e-07
1.808500246e-07
1.806639385e-07
1.805828864e-07
1.805973096e-07
1.805367958e-07
1.803595213e-07
1.801167164e-07
1.798378591e-07
1.795579485e-07
1.793155718e-07
1.791483417e-07
1.790821433e-07
1.791051348e-07
1.789795404e-07
1.788126992e-07
1.785846466e-07
1.783236551e-07
1.78063295e-07
1.778405116e-07
1.776910799e-07
1.776388716e-07
1.776699059e-07
1.774832013e-07
1.773262465e-07
1.771121688e-07
1.768680934e-07
1.766262318e-07
1.764219689e-07
1.762893363e-07
1.762503034e-07
1.762888855e-07
1.76044811e-07
1.758972243e-07
1.756963847e-07
1.75468326e-07
1.752439672e-07
1.750572101e-07
1.749404326e-07
1.749138061e-07
1.749594698e-07
1.746615506e-07
1.745228408e-07
1.743345414e-07
1.741216477e-07
1.739138494e-07
1.737436386e-07
1.73641824e-07
1.736268785e-07
1.736791844e-07
1.733307447e-07
1.732004466e-07
1.730240266e-07
1.728254919e-07
1.726333626e-07
1.724787909e-07
1.723910968e-07
1.723871477e-07
1.724456818e-07
1.720498578e-07
1.719275313e-07
1.717623655e-07
1.715774275e-07
1.714001247e-07
1.712603354e-07
1.711859664e-07
1.711923677e-07
1.712567397e-07
1.708164929e-07
1.70701722e-07
1.705472199e-07
1.703751589e-07
1.702118873e-07
1.700860718e-07
1.700242777e-07
1.700404206e-07
1.701102626e-07
1.696283917e-07
1.695207843e-07
1.693763893e-07
1.69216527e-07
1.690665374e-07
1.689539343e-07
1.689040086e-07
1.689293196e-07
1.690042846e-07
1.684834373e-07
1.68382625e-07
1.682478142e-07
1.680995137e-07
1.679621028e-07
1.678619973e-07
1.678232764e-07
1.678572158e-07
1.679369768e-07
1.673796608e-07
1.672852991e-07
1.67159584e-07
1.670222504e-07
1.668967612e-07
1.668084852e-07
1.667803484e-07
1.668224103e-07
1.669066593e-07
1.663152511e-07
1.662270207e-07
1.661099485e-07
1.659830303e-07
1.658688539e-07
1.657917881e-07
1.657736585e-07
1.658233711e-07
1.659118189e-07
1.652885698e-07
1.652061783e-07
1.650973343e-07
1.649803271e-07
1.648769064e-07
1.648104831e-07
1.648018309e-07
1.648587582e-07
1.64951135e-07
1.642981724e-07
1.64221357e-07
1.64120369e-07
1.6401282e-07
1.63919655e-07
1.638633645e-07
1.638637117e-07
1.639274576e-07
1.640235148e-07
1.633428357e-07
1.632713672e-07
1.631779112e-07
1.630794268e-07
1.629960833e-07
1.629494822e-07
1.629584114e-07
1.630286262e-07
1.631281406e-07
1.624215933e-07
1.623552818e-07
1.622690901e-07
1.621793465e-07
1.62105468e-07
1.620681922e-07
1.620853586e-07
1.621617496e-07
1.622645293e-07
1.615337799e-07
1.614724824e-07
1.613933546e-07
1.613121113e-07
1.612474353e-07
1.612192176e-07
1.612443668e-07
1.613267134e-07
1.614326087e-07
1.60679085e-07
1.606227148e-07
1.605505322e-07
1.604776507e-07
1.604220299e-07
1.604027235e-07
1.604357151e-07
1.605238905e-07
1.606328077e-07
1.598576166e-07
1.598061555e-07
1.597408987e-07
1.596763652e-07
1.596297951e-07
1.596194036e-07
1.596602422e-07
1.597542418e-07
1.598661638e-07
1.590699744e-07
1.590234875e-07
1.589652587e-07
1.589092123e-07
1.588718647e-07
1.588705798e-07
1.589194544e-07
1.590194326e-07
1.591344448e-07
1.583173321e-07
1.582759859e-07
1.582250345e-07
1.581778012e-07
1.581500648e-07
1.581583118e-07
1.582156438e-07
1.583219596e-07
1.584402838e-07
1.576015282e-07
1.575656102e-07
1.575223636e-07
1.574844957e-07
1.574670231e-07
1.57485515e-07
1.575520152e-07
1.576652872e-07
1.577873221e-07
1.569251612e-07
1.568951034e-07
1.568602009e-07
1.568325215e-07
1.568262833e-07
1.568560814e-07
1.569328161e-07
1.570539864e-07
1.571803558e-07
1.56291688e-07
1.562680924e-07
1.562424227e-07
1.562260744e-07
1.562324183e-07
1.562750008e-07
1.563634648e-07
1.564938715e-07
1.566254799e-07
1.557055215e-07
1.556891862e-07
1.556739275e-07
1.556704247e-07
1.556911387e-07
1.557484732e-07
1.558506702e-07
1.559921269e-07
1.561302204e-07
1.551721214e-07
1.551640687e-07
1.551607293e-07
1.551720117e-07
1.552093897e-07
1.552840094e-07
1.554025354e-07
1.555574157e-07
1.557036487e-07
1.546980748e-07
1.54699578e-07
1.547100371e-07
1.547385227e-07
1.547954297e-07
1.548905099e-07
1.550286388e-07
1.551999635e-07
1.553564691e-07
1.542911601e-07
1.543037693e-07
1.543303148e-07
1.543789504e-07
1.544588846e-07
1.545783166e-07
1.547400842e-07
1.549316103e-07
1.551010721e-07
1.539603891e-07
1.539859536e-07
1.540313164e-07
1.541036228e-07
1.542107724e-07
1.543592323e-07
1.545495174e-07
1.547658247e-07
1.549515503e-07
1.537160214e-07
1.537567086e-07
1.538240905e-07
1.539242004e-07
1.540634925e-07
1.542465027e-07
1.544711012e-07
1.547176765e-07
1.549236718e-07
1.535695489e-07
1.536278573e-07
1.537209518e-07
1.538536384e-07
1.54030778e-07
1.54254759e-07
1.545204517e-07
1.548037702e-07
1.550348138e-07
1.535336449e-07
1.536124118e-07
1.537354161e-07
1.539061121e-07
1.541276102e-07
1.54399923e-07
1.547145366e-07
1.5504214e-07
1.553038603e-07
1.536220796e-07
1.537244821e-07
1.53882101e-07
1.540969074e-07
1.543700994e-07
1.546990793e-07
1.550715419e-07
1.554521178e-07
1.55751074e-07
1.538496031e-07
1.539791542e-07
1.54176596e-07
1.544422823e-07
1.547753387e-07
1.551703241e-07
1.556107205e-07
1.560541861e-07
1.563979586e-07
1.542318016e-07
1.543923421e-07
1.546353103e-07