/*--------------------------------*- C++ -*----------------------------------*\
| =========                 |                                                 |
| \\      /  F ield         | OpenFOAM: The Open Source CFD Toolbox           |
|  \\    /   O peration     | Version:  2212                                  |
|   \\  /    A nd           | Website:  www.openfoam.com                      |
|    \\/     M anipulation  |                                                 |
\*---------------------------------------------------------------------------*/
FoamFile
{
    version     2.0;
    format      ascii;
    arch        "LSB;label=32;scalar=64";
    class       volScalarField;
    location    "20.00000000";
    object      I-C4H51_0;
}
// * * * * * * * * * * * * * * * * * * * * * * * * * * * * * * * * * * * * * //

dimensions      [0 0 0 0 0 0 0];

internalField   nonuniform List<scalar> 
3000
(
3.068662439e-24
3.447092399e-24
4.018131873e-24
4.779070732e-24
5.722146918e-24
6.821710818e-24
8.011481508e-24
9.146663519e-24
9.949279005e-24
1.152081906e-23
1.299370755e-23
1.521527978e-23
1.818215921e-23
2.189123478e-23
2.632174904e-23
3.139653335e-23
3.685985041e-23
4.169877109e-23
2.580523971e-23
2.933271395e-23
3.470395409e-23
4.199639584e-23
5.134049163e-23
6.287082634e-23
7.654057936e-23
9.158205112e-23
1.044339025e-22
4.915003527e-23
5.64534132e-23
6.773715161e-23
8.338218285e-23
1.039410337e-22
1.299331737e-22
1.612119815e-22
1.952690014e-22
2.22742194e-22
8.727414918e-23
1.014718782e-22
1.23752814e-22
1.552474204e-22
1.974344017e-22
2.514915296e-22
3.165058173e-22
3.855135953e-22
4.384038321e-22
1.500698473e-22
1.767153536e-22
2.191310312e-22
2.80022873e-22
3.626384616e-22
4.690586751e-22
5.961133213e-22
7.278081383e-22
8.253294727e-22
2.547674589e-22
3.03710789e-22
3.82529432e-22
4.969597525e-22
6.533737124e-22
8.548840999e-22
1.093162971e-21
1.33527637e-21
1.509995445e-21
4.311907956e-22
5.197692308e-22
6.636855528e-22
8.742435799e-22
1.163187045e-21
1.534681148e-21
1.970096177e-21
2.406063483e-21
2.715411588e-21
7.310790158e-22
8.897181495e-22
1.149131185e-21
1.530590806e-21
2.054992608e-21
2.72739366e-21
3.509838278e-21
4.285157478e-21
4.829261357e-21
1.244183337e-21
1.526124149e-21
1.989271808e-21
2.672514674e-21
3.612363261e-21
4.814322702e-21
6.205305726e-21
7.573620401e-21
8.526844042e-21
2.126408053e-21
2.624704927e-21
3.445846459e-21
4.659625245e-21
6.329276478e-21
8.459777052e-21
1.091526595e-20
1.331865012e-20
1.498489212e-20
3.648800929e-21
4.525999567e-21
5.974650356e-21
8.118568835e-21
1.106685974e-20
1.482191683e-20
1.913671259e-20
2.33455667e-20
2.625485727e-20
6.282930792e-21
7.82299979e-21
1.037014135e-20
1.414250015e-20
1.93280446e-20
2.592209705e-20
3.348132172e-20
4.083825494e-20
4.591778839e-20
1.084918311e-20
1.354827248e-20
1.801730647e-20
2.463953923e-20
3.373930212e-20
4.529542198e-20
5.851664017e-20
7.136374399e-20
8.024278238e-20
1.877325399e-20
2.349748375e-20
3.132718586e-20
4.293656515e-20
5.889071716e-20
7.914025289e-20
1.02279867e-19
1.247355082e-19
1.402669796e-19
3.252821897e-20
4.078524807e-20
5.448140636e-20
7.480458608e-20
1.027545423e-19
1.382650013e-19
1.78895233e-19
2.183030294e-19
2.453080022e-19
5.639849899e-20
7.080306861e-20
9.470601464e-20
1.301800227e-19
1.78954168e-19
2.408721089e-19
3.116130994e-19
3.801015357e-19
4.270278229e-19
9.781100933e-20
1.228974387e-19
1.64532073e-19
2.263151631e-19
3.112250897e-19
4.189319207e-19
5.418630312e-19
6.607828446e-19
7.42270002e-19
1.696503803e-19
2.132882741e-19
2.857173095e-19
3.931874225e-19
5.408436868e-19
7.280596311e-19
9.416315352e-19
1.14814954e-18
1.289632892e-18
2.942798439e-19
3.701342319e-19
4.960442439e-19
6.828629056e-19
9.39499077e-19
1.264811563e-18
1.635811931e-18
1.994455407e-18
2.240103542e-18
5.105226555e-19
6.423257975e-19
8.611196993e-19
1.185753605e-18
1.631669254e-18
2.196818385e-18
2.841196793e-18
3.463964208e-18
3.890442497e-18
8.857853063e-19
1.114754368e-18
1.494865209e-18
2.058851609e-18
2.833485485e-18
3.81511209e-18
4.934139019e-18
6.015419381e-18
6.755755035e-18
1.537109766e-18
1.934827286e-18
2.595097374e-18
3.574750299e-18
4.920194474e-18
6.624924464e-18
8.567918096e-18
1.044501027e-17
1.173005778e-17
2.667731099e-18
3.358511603e-18
4.505307636e-18
6.206740518e-18
8.543213774e-18
1.150313706e-17
1.487609451e-17
1.813399785e-17
2.036402361e-17
4.630543862e-18
5.830264148e-18
7.821892294e-18
1.077647401e-17
1.483319135e-17
1.997129835e-17
2.582494601e-17
3.147749511e-17
3.53458129e-17
8.038256209e-18
1.012175211e-17
1.358021395e-17
1.871007889e-17
2.575198748e-17
3.466852859e-17
4.482348478e-17
5.462629248e-17
6.13328663e-17
1.395448624e-17
1.757249236e-17
2.357727365e-17
3.248205987e-17
4.470215829e-17
6.016943046e-17
7.777719116e-17
9.476665479e-17
1.063852358e-16
2.422491375e-17
3.050676766e-17
4.093048847e-17
5.638343528e-17
7.758058749e-17
1.043962195e-16
1.349044988e-16
1.643231203e-16
1.844301166e-16
4.205043175e-17
5.295502036e-17
7.104395972e-17
9.784868532e-17
1.345959738e-16
1.810502273e-16
2.338582685e-16
2.847365342e-16
3.194829422e-16
7.297739667e-17
9.189969055e-17
1.232757774e-16
1.697422903e-16
2.333947482e-16
3.137841603e-16
4.050682911e-16
4.929143378e-16
5.528412616e-16
1.266045779e-16
1.594213261e-16
2.138067238e-16
2.942857803e-16
4.044168452e-16
5.433297717e-16
7.00838704e-16
8.521802851e-16
9.552696574e-16
2.195170486e-16
2.763837656e-16
3.705582584e-16
5.097742956e-16
7.000277916e-16
9.396066792e-16
1.210741501e-15
1.470731979e-15
1.647484178e-15
3.803111779e-16
4.78737294e-16
6.415859474e-16
8.82004925e-16
1.209997387e-15
1.622153936e-15
2.087464722e-15
2.532493205e-15
2.834283607e-15
6.581651157e-16
8.282488563e-16
1.109327071e-15
1.5236014e-15
2.087548809e-15
2.794326239e-15
3.589824864e-15
4.348179878e-15
4.86083496e-15
1.137385117e-15
1.430667766e-15
1.914631588e-15
2.626451679e-15
3.592830196e-15
4.799989675e-15
6.153599173e-15
7.438881817e-15
8.304418134e-15
1.961956944e-15
2.466283814e-15
3.296996447e-15
4.515696054e-15
6.164765538e-15
8.216515953e-15
1.050681347e-14
1.267117592e-14
1.412206759e-14
3.376724392e-15
4.24096219e-15
5.661367665e-15
7.738725063e-15
1.053853367e-14
1.400550586e-14
1.78549964e-14
2.147263357e-14
2.38849439e-14
5.795975167e-15
7.270694514e-15
9.688026009e-15
1.321033896e-14
1.79353843e-14
2.375394465e-14
3.017482299e-14
3.617075941e-14
4.01451503e-14
9.916802362e-15
1.242044636e-14
1.651151187e-14
2.244679437e-14
3.036545535e-14
4.005482761e-14
5.067302575e-14
6.051848026e-14
6.700171316e-14
1.690491031e-14
2.112999752e-14
2.800879379e-14
3.793857198e-14
5.110447857e-14
6.709957885e-14
8.449345622e-14
1.004974225e-13
1.10961788e-13
2.869640718e-14
3.577753053e-14
4.725804087e-14
6.373657064e-14
8.54341156e-14
1.115873463e-13
1.397914572e-13
1.655292951e-13
1.822338924e-13
4.848320715e-14
6.025865713e-14
7.926027327e-14
1.06362059e-13
1.417763312e-13
1.841019316e-13
2.293450162e-13
2.702797984e-13
2.96646354e-13
8.148558534e-14
1.00898095e-13
1.320606707e-13
1.762011187e-13
2.334090136e-13
3.011704588e-13
3.729417436e-13
4.373142362e-13
4.784620645e-13
1.361680766e-13
1.678682856e-13
2.18469548e-13
2.896149412e-13
3.810289432e-13
4.883054924e-13
6.008767907e-13
7.009671769e-13
7.644680892e-13
2.261307223e-13
2.773704464e-13
3.586718313e-13
4.720956085e-13
6.165373879e-13
7.844532577e-13
9.590292713e-13
1.112930561e-12
1.209866507e-12
3.730150405e-13
4.549475597e-13
5.841375327e-13
7.629330332e-13
9.885742878e-13
1.248437225e-12
1.516166864e-12
1.7502596e-12
1.896695486e-12
6.109139992e-13
7.404571623e-13
9.434167495e-13
1.222046351e-12
1.570534406e-12
1.968215134e-12
2.374377713e-12
2.726762228e-12
2.945786133e-12
9.929823862e-13
1.195450192e-12
1.51063821e-12
1.939891071e-12
2.472083438e-12
3.074080573e-12
3.683868914e-12
4.209100162e-12
4.533636242e-12
1.601228548e-12
1.914002273e-12
2.397853964e-12
3.051707253e-12
3.855581421e-12
4.757366815e-12
5.663832667e-12
6.4394202e-12
6.916090018e-12
2.560859457e-12
3.038456514e-12
3.772817531e-12
4.757859253e-12
5.9593522e-12
7.296790224e-12
8.631706551e-12
9.766997236e-12
1.046139655e-11
4.061091064e-12
4.782107438e-12
5.88439665e-12
7.352684099e-12
9.130462888e-12
1.109535645e-11
1.304399782e-11
1.469226398e-11
1.569614075e-11
6.385087543e-12
7.46165133e-12
9.098675457e-12
1.126518529e-11
1.387066729e-11
1.673181549e-11
1.955297759e-11
2.19277923e-11
2.336878804e-11
9.952748057e-12
1.154335704e-11
1.395001374e-11
1.711620212e-11
2.090053468e-11
2.503209505e-11
2.90850927e-11
3.248243068e-11
3.453726114e-11
1.538129255e-11
1.770805941e-11
2.121243533e-11
2.579794624e-11
3.124844682e-11
3.716828754e-11
4.294934503e-11
4.777730945e-11
5.068938201e-11
2.35698651e-11
2.694181847e-11
3.19993453e-11
3.858510243e-11
4.63744832e-11
5.479565682e-11
6.298657422e-11
6.980505457e-11
7.39080122e-11
3.582022342e-11
4.066479148e-11
4.790408785e-11
5.728993116e-11
6.83420485e-11
8.024151128e-11
9.177461236e-11
1.01348149e-10
1.070972781e-10
5.400627174e-11
6.091179387e-11
7.11964825e-11
8.447872319e-11
1.000567993e-10
1.167673152e-10
1.329119976e-10
1.462800519e-10
1.542938976e-10
8.081332926e-11
9.058680419e-11
1.05099351e-10
1.23775692e-10
1.456012583e-10
1.689347689e-10
1.914130692e-10
2.099832301e-10
2.210983501e-10
1.200768348e-10
1.338233235e-10
1.541801729e-10
1.802934855e-10
2.107088076e-10
2.431239673e-10
2.742660983e-10
2.99937797e-10
3.152801132e-10
1.772636024e-10
1.964977332e-10
2.249110298e-10
2.61251206e-10
3.034467778e-10
3.482821347e-10
3.912402232e-10
4.265712715e-10
4.47649403e-10
2.601578186e-10
2.869654148e-10
3.264781567e-10
3.768765115e-10
4.352231966e-10
4.970364869e-10
5.56092577e-10
6.045348197e-10
6.333681021e-10
3.798395121e-10
4.17121401e-10
4.71964794e-10
5.417454813e-10
6.22308558e-10
7.07406563e-10
7.884571756e-10
8.547277324e-10
8.940453278e-10
5.520729577e-10
6.03927959e-10
6.800901542e-10
7.76801862e-10
8.881943311e-10
1.005538787e-09
1.116952063e-09
1.207714554e-09
1.261333918e-09
7.992478285e-10
8.715947753e-10
9.77763477e-10
1.11242825e-09
1.267324592e-09
1.43021793e-09
1.584522466e-09
1.709821517e-09
1.783506705e-09
1.15302553e-09
1.254635399e-09
1.40380368e-09
1.593124835e-09
1.811067106e-09
2.040461688e-09
2.257889797e-09
2.434392474e-09
2.537954198e-09
1.657832349e-09
1.802049315e-09
2.014272781e-09
2.284581375e-09
2.597251418e-09
2.928336424e-09
3.244338775e-09
3.502682019e-09
3.655069753e-09
2.375322443e-09
2.582896503e-09
2.889968478e-09
3.284186698e-09
3.745159174e-09
4.240200811e-09
4.720917885e-09
5.121686915e-09
5.36267556e-09
3.389987331e-09
3.69360895e-09
4.146755856e-09
4.736279628e-09
5.438369524e-09
6.210576079e-09
6.982898269e-09
7.649057406e-09
8.064014568e-09
4.816429814e-09
5.267713971e-09
5.949725974e-09
6.853711749e-09
7.95806163e-09
9.212971018e-09
1.051845673e-08
1.169551048e-08
1.246297462e-08
6.80981728e-09
7.489584366e-09
8.532934948e-09
9.947634566e-09
1.172884892e-08
1.382990391e-08
1.611208205e-08
1.826781694e-08
1.97406387e-08
9.583094983e-09
1.061578042e-08
1.22280317e-08
1.44679389e-08
1.737743926e-08
2.093821577e-08
2.496598934e-08
2.893308343e-08
3.175715821e-08
1.343774542e-08
1.501057626e-08
1.750742902e-08
2.105721526e-08
2.580043625e-08
3.179296379e-08
3.880099528e-08
4.593668221e-08
5.118608628e-08
1.881835605e-08
2.120539869e-08
2.504969347e-08
3.062008503e-08
3.822925204e-08
4.806891379e-08
5.984316356e-08
7.210079744e-08
8.132723404e-08
2.640242322e-08
2.999223693e-08
3.583329763e-08
4.440400071e-08
5.626413557e-08
7.177640848e-08
9.049222148e-08
1.100590737e-07
1.247869274e-07
3.723071149e-08
4.255278197e-08
5.12531632e-08
6.407116252e-08
8.182506077e-08
1.049204909e-07
1.323142753e-07
1.597573857e-07
1.777007794e-07
5.286221472e-08
6.059796401e-08
7.321848913e-08
9.169572152e-08
1.169220528e-07
1.487778886e-07
1.842375369e-07
2.141726069e-07
2.291042337e-07
7.548913407e-08
8.642923311e-08
1.040986271e-07
1.294764276e-07
1.629016115e-07
2.022422891e-07
2.392711809e-07
2.65871454e-07
2.801956231e-07
1.078438959e-07
1.226976436e-07
1.461805073e-07
1.786287248e-07
2.181752183e-07
2.571710149e-07
2.9093741e-07
3.172288572e-07
3.323168006e-07
1.524655401e-07
1.712934753e-07
1.997355453e-07
2.362159877e-07
2.72410984e-07
3.085530907e-07
3.421397067e-07
3.696621545e-07
3.862040952e-07
2.090267424e-07
2.298245215e-07
2.565071246e-07
2.884124595e-07
3.233371502e-07
3.595814242e-07
3.943796504e-07
4.236619158e-07
4.418028248e-07
2.650691628e-07
2.830590956e-07
3.082595131e-07
3.393411757e-07
3.745854803e-07
4.118792152e-07
4.481873632e-07
4.791489403e-07
4.987205612e-07
3.172986544e-07
3.347814477e-07
3.599290291e-07
3.913886393e-07
4.274560275e-07
4.658585869e-07
5.034183064e-07
5.356498991e-07
5.562996403e-07
3.701560472e-07
3.877807565e-07
4.132959969e-07
4.453210315e-07
4.820864968e-07
5.212272836e-07
5.595081095e-07
5.924349797e-07
6.137119183e-07
4.249926067e-07
4.428163697e-07
4.686189416e-07
5.009578842e-07
5.379892198e-07
5.772924838e-07
6.156373336e-07
6.486122109e-07
6.700251917e-07
4.817676771e-07
4.996193828e-07
5.254043361e-07
5.576111516e-07
5.943340467e-07
6.331326729e-07
6.708364969e-07
7.031961971e-07
7.242543273e-07
5.397980762e-07
5.574139513e-07
5.827784482e-07
6.143231109e-07
6.501054362e-07
6.877046226e-07
7.240634563e-07
7.551675561e-07
7.754089624e-07
5.980893945e-07
6.15169441e-07
6.396736759e-07
6.700000277e-07
7.042025536e-07
7.399231783e-07
7.742701728e-07
8.035288694e-07
8.225388212e-07
6.554959639e-07
6.71733652e-07
6.949373818e-07
7.235021574e-07
7.555169769e-07
7.887307528e-07
8.204642594e-07
8.473530035e-07
8.647581538e-07
7.108182834e-07
7.259216938e-07
7.474125187e-07
7.737178241e-07
8.030022091e-07
8.33163808e-07
8.617719693e-07
8.858266653e-07
9.011567029e-07
7.628803214e-07
7.765900039e-07
7.960078161e-07
8.196297421e-07
8.457373202e-07
8.724207821e-07
8.975431438e-07
9.185338273e-07
9.318495687e-07
8.105989844e-07
8.227029152e-07
8.397598141e-07
8.603701017e-07
8.829697121e-07
9.058755932e-07
9.272722546e-07
9.450384714e-07
9.562701767e-07
8.530456507e-07
8.633904487e-07
8.77885059e-07
8.952657168e-07
9.141534376e-07
9.331161632e-07
9.506727926e-07
9.651504482e-07
9.742714806e-07
8.89495462e-07
8.979929187e-07
9.098179532e-07
9.238677086e-07
9.389705166e-07
9.539589519e-07
9.676868325e-07
9.789147401e-07
9.85962865e-07
9.194599496e-07
9.260883018e-07
9.35230633e-07
9.459623125e-07
9.573319111e-07
9.68439801e-07
9.784653674e-07
9.865772544e-07
9.91659865e-07
9.426997145e-07
9.474993757e-07
9.540318225e-07
9.615588766e-07
9.69352761e-07
9.767722762e-07
9.833103141e-07
9.884951101e-07
9.916779349e-07
9.592118615e-07
9.622749234e-07
9.663362623e-07
9.708386756e-07
9.75278463e-07
9.792158437e-07
9.823487134e-07
9.845640476e-07
9.855257076e-07
9.691666407e-07
9.706197935e-07
9.723721777e-07
9.739824572e-07
9.751184445e-07
9.754151178e-07
9.745689194e-07
9.734891262e-07
9.727050771e-07
9.726581271e-07
9.725219054e-07
9.719159407e-07
9.70180875e-07
9.675782613e-07
9.643560447e-07
9.608652514e-07
9.577756097e-07
9.558395357e-07
9.681660833e-07
9.662525433e-07
9.632740348e-07
9.592034761e-07
9.542685939e-07
9.488443125e-07
9.434793315e-07
9.38931869e-07
9.361301477e-07
9.569142919e-07
9.539277725e-07
9.4950824e-07
9.438411501e-07
9.372536711e-07
9.302313399e-07
9.23442916e-07
9.177620368e-07
9.142746053e-07
9.413865019e-07
9.37655479e-07
9.32218545e-07
9.253724304e-07
9.17537261e-07
9.092897482e-07
9.013911234e-07
8.948155142e-07
8.907813949e-07
9.227615681e-07
9.184796719e-07
9.122829369e-07
9.045431376e-07
8.957538872e-07
8.865637598e-07
8.778058897e-07
8.705340778e-07
8.660721316e-07
9.017604383e-07
8.970683229e-07
8.903045072e-07
8.818958097e-07
8.723917479e-07
8.624952545e-07
8.530930599e-07
8.452981928e-07
8.405135554e-07
8.78927044e-07
8.739390975e-07
8.667672609e-07
8.578788493e-07
8.478643626e-07
8.374657118e-07
8.276069277e-07
8.194416132e-07
8.144276892e-07
8.547187868e-07
8.49531917e-07
8.420876108e-07
8.328818562e-07
8.225334477e-07
8.118099595e-07
8.016584696e-07
7.932566322e-07
7.880958368e-07
8.295350521e-07
8.242319352e-07
8.166310707e-07
8.072472074e-07
7.967166627e-07
7.858212866e-07
7.755189271e-07
7.669969176e-07
7.617611618e-07
8.037265521e-07
7.983772753e-07
7.907182144e-07
7.812745557e-07
7.706910667e-07
7.597542532e-07
7.494223065e-07
7.408799275e-07
7.35631125e-07
7.775992653e-07
7.722625452e-07
7.646277358e-07
7.552235328e-07
7.446956007e-07
7.338270805e-07
7.23567781e-07
7.150893876e-07
7.098800434e-07
7.514171581e-07
7.461414553e-07
7.385989638e-07
7.293161951e-07
7.189335095e-07
7.082240982e-07
6.981222026e-07
6.897778919e-07
6.846517682e-07
7.254048368e-07
7.20229437e-07
7.128344455e-07
7.037395835e-07
6.935748994e-07
6.830983229e-07
6.732227281e-07
6.650695915e-07
6.600624308e-07
6.99750372e-07
6.947064349e-07
6.875026993e-07
6.786484391e-07
6.687594265e-07
6.585741389e-07
6.48979513e-07
6.410629228e-07
6.362032055e-07
6.746082941e-07
6.697198574e-07
6.627411081e-07
6.541680349e-07
6.445990737e-07
6.347500348e-07
6.254784305e-07
6.178333282e-07
6.131430449e-07
6.501026987e-07
6.453876271e-07
6.386588941e-07
6.303970672e-07
6.211809611e-07
6.117013466e-07
6.027837675e-07
5.954359293e-07
5.909313479e-07
6.263303969e-07
6.218012653e-07
6.153401154e-07
6.074105518e-07
5.985701416e-07
5.894829628e-07
5.809408578e-07
5.739081127e-07
5.69600524e-07
6.033640452e-07
5.990289497e-07
5.928466258e-07
5.852626706e-07
5.768123309e-07
5.681319458e-07
5.599786137e-07
5.532719954e-07
5.49168424e-07
5.812551946e-07
5.77118489e-07
5.712209457e-07
5.639895223e-07
5.559365316e-07
5.476700334e-07
5.399119216e-07
5.335367416e-07
5.296406076e-07
5.600372047e-07
5.56100158e-07
5.504889902e-07
5.436117269e-07
5.359575115e-07
5.281060012e-07
5.207438804e-07
5.147006959e-07
5.110124252e-07
5.397279947e-07
5.359893808e-07
5.306626536e-07
5.241368838e-07
5.168781101e-07
5.094377971e-07
5.02467824e-07
4.967533325e-07
4.932709121e-07
5.20332581e-07
5.167891866e-07
5.117421509e-07
5.055617823e-07
4.986913244e-07
4.91654533e-07
4.850691902e-07
4.79677011e-07
4.763964798e-07
5.018453651e-07
4.98492428e-07
4.937181436e-07
4.87874422e-07
4.813822113e-07
4.747382498e-07
4.685271668e-07
4.634485252e-07
4.603644039e-07
4.842521991e-07
4.810837873e-07
4.765736607e-07
4.710558236e-07
4.649295716e-07
4.58665475e-07
4.52816133e-07
4.480404522e-07
4.451461165e-07
4.675322081e-07
4.645415377e-07
4.602857731e-07
4.550816012e-07
4.493074142e-07
4.434085774e-07
4.379069099e-07
4.334223151e-07
4.307103137e-07
4.516593704e-07
4.488390714e-07
4.44827049e-07
4.399233287e-07
4.344862213e-07
4.289369289e-07
4.237678255e-07
4.195615668e-07
4.170238891e-07
4.366038741e-07
4.339462103e-07
4.301667983e-07
4.255497025e-07
4.204340228e-07
4.152178871e-07
4.103656097e-07
4.064244123e-07
4.040527101e-07
4.223332654e-07
4.19830313e-07
4.162721211e-07
4.119275201e-07
4.071172946e-07
4.022176127e-07
3.976661349e-07
3.93976485e-07
3.917622534e-07
4.088134054e-07
4.064571964e-07
4.031087796e-07
3.990224895e-07
3.945017011e-07
3.899017407e-07
3.856350198e-07
3.821833931e-07
3.801181157e-07
3.96009257e-07
3.937918917e-07
3.906419108e-07
3.867998901e-07
3.825526959e-07
3.782359203e-07
3.742381112e-07
3.71011153e-07
3.690864165e-07
3.838855206e-07
3.817992553e-07
3.788366007e-07
3.752251014e-07
3.712360011e-07
3.671862428e-07
3.634418626e-07
3.604265263e-07
3.586341083e-07
3.724071397e-07
3.704444525e-07
3.676583376e-07
3.64264019e-07
3.605179813e-07
3.567195716e-07
3.532136223e-07
3.503972727e-07
3.48729208e-07
3.615396946e-07
3.596933332e-07
3.570733622e-07
3.538833737e-07
3.503659274e-07
3.468037899e-07
3.435218474e-07
3.408923351e-07
3.393409626e-07
3.512497005e-07
3.495127159e-07
3.470489309e-07
3.440509687e-07
3.407482657e-07
3.374079804e-07
3.34336254e-07
3.318819659e-07
3.304399616e-07
3.415048273e-07
3.398705948e-07
3.37553506e-07
3.347358494e-07
3.31634704e-07
3.28502547e-07
3.256279172e-07
3.233378076e-07
3.219982041e-07
3.322740531e-07
3.307362844e-07
3.285568865e-07
3.259084173e-07
3.229963268e-07
3.200592911e-07
3.173693283e-07
3.152329344e-07
3.139891315e-07
3.23527764e-07
3.220805118e-07
3.200302896e-07
3.175404985e-07
3.148056497e-07
3.120514503e-07
3.095344192e-07
3.075418649e-07
3.063876318e-07
3.152378118e-07
3.138754677e-07
3.119463936e-07
3.09605376e-07
3.070366397e-07
3.044537076e-07
3.020985603e-07
3.0024055e-07
2.99170022e-07
3.073775359e-07
3.060948246e-07
3.042793495e-07
3.02077794e-07
2.996647109e-07
2.972421773e-07
2.950385383e-07
2.933063443e-07
2.923140146e-07
2.999217594e-07
2.987137292e-07
2.970047685e-07
2.949339392e-07
2.926666996e-07
2.903943742e-07
2.883325189e-07
2.867179626e-07
2.857986713e-07
2.928467642e-07
2.917087754e-07
2.900996917e-07
2.881514061e-07
2.860208248e-07
2.838891693e-07
2.819599979e-07
2.804554282e-07
2.796043483e-07
2.86130251e-07
2.850579617e-07
2.835425454e-07
2.8170915e-07
2.79706638e-07
2.777067359e-07
2.759017449e-07
2.745000135e-07
2.737126358e-07
2.797512874e-07
2.787406394e-07
2.773130869e-07
2.755874308e-07
2.73704965e-07
2.718284902e-07
2.701397413e-07
2.688341772e-07
2.681062937e-07
2.73690249e-07
2.727374521e-07
2.713923445e-07
2.697677516e-07
2.67997844e-07
2.662370276e-07
2.646571163e-07
2.634414988e-07
2.627691865e-07
2.67928755e-07
2.670302718e-07
2.65762552e-07
2.642327934e-07
2.625684592e-07
2.60916057e-07
2.594380809e-07
2.583066128e-07
2.576862162e-07
2.624496012e-07
2.616021314e-07
2.604070821e-07
2.589663486e-07
2.574010753e-07
2.558503346e-07
2.544678619e-07
2.53415143e-07
2.528432582e-07
2.572366918e-07
2.564371573e-07
2.553103791e-07
2.539532541e-07
2.524809707e-07
2.510255985e-07
2.497326375e-07
2.487536389e-07
2.482270968e-07
2.522749716e-07
2.515205015e-07
2.504578919e-07
2.491793251e-07
2.477943728e-07
2.464285051e-07
2.452194743e-07
2.443095135e-07
2.438253643e-07
2.475503589e-07
2.468382756e-07
2.458360088e-07
2.446312913e-07
2.433283947e-07
2.420465669e-07
2.40916267e-07
2.400709837e-07
2.39626482e-07
2.430496815e-07
2.423774872e-07
2.414319944e-07
2.402967345e-07
2.390709751e-07
2.378680938e-07
2.368116806e-07
2.360270143e-07
2.356196045e-07
2.387606141e-07
2.381259777e-07
2.37233929e-07
2.361640299e-07
2.350108203e-07
2.338821364e-07
2.328950953e-07
2.321672639e-07
2.317945671e-07
2.34671619e-07
2.340723645e-07
2.332306516e-07
2.322222895e-07
2.311373495e-07
2.300784336e-07
2.291565558e-07
2.284820352e-07
2.281418361e-07
2.307718906e-07
2.302059852e-07
2.294117052e-07
2.284613097e-07
2.274406436e-07
2.264473622e-07
2.255867221e-07
2.249622274e-07
2.246524626e-07
2.270513018e-07
2.265168459e-07
2.257672858e-07
2.24871521e-07
2.239113966e-07
2.229798905e-07
2.221768247e-07
2.215992927e-07
2.213180395e-07
2.235003552e-07
2.22995572e-07
2.222881952e-07
2.214439422e-07
2.205408712e-07
2.196675349e-07
2.189186228e-07
2.183851952e-07
2.181306612e-07
2.201101367e-07
2.196333635e-07
2.189657958e-07
2.181701367e-07
2.173208565e-07
2.165023191e-07
2.15804365e-07
2.153123734e-07
2.15082887e-07
2.168722725e-07
2.164219518e-07
2.157919701e-07
2.150421727e-07
2.142436296e-07
2.134767376e-07
2.128267535e-07
2.123737054e-07
2.121677064e-07
2.137788896e-07
2.133535614e-07
2.12759082e-07
2.120525861e-07
2.113019195e-07
2.105837206e-07
2.09978911e-07
2.095624762e-07
2.093785082e-07
2.108225788e-07
2.104208733e-07
2.098599415e-07
2.091943463e-07
2.084888746e-07
2.078166022e-07
2.072543498e-07
2.06872349e-07
2.067090513e-07
2.079963609e-07
2.07616992e-07
2.070877726e-07
2.064608246e-07
2.057980318e-07
2.051690921e-07
2.046469443e-07
2.042973376e-07
2.04153438e-07
2.052936558e-07
2.049354147e-07
2.044361834e-07
2.038457657e-07
2.032232892e-07
2.026352477e-07
2.02150905e-07
2.018317816e-07
2.017060902e-07
2.027082534e-07
2.023700031e-07
2.018991383e-07
2.013432605e-07
2.007588803e-07
2.002094505e-07
1.997607551e-07
1.994703238e-07
1.993617271e-07
2.00234288e-07
1.999149581e-07
1.994709333e-07
1.989477227e-07
1.983993504e-07
1.978863836e-07
1.974713088e-07
1.972078898e-07
1.971153448e-07
1.978662138e-07
1.975647957e-07
1.97146173e-07
1.96653866e-07
1.961395361e-07
1.956610108e-07
1.952776522e-07
1.950396686e-07
1.949621978e-07
1.95598783e-07
1.953143258e-07
1.949197495e-07
1.94456684e-07
1.939745449e-07
1.935285582e-07
1.931751248e-07
1.929610956e-07
1.928977825e-07
1.934270262e-07
1.931586323e-07
1.927868234e-07
1.923514317e-07
1.91899738e-07
1.914844972e-07
1.911593035e-07
1.909678367e-07
1.909178214e-07
1.913462335e-07
1.910930554e-07
1.907428063e-07
1.903336086e-07
1.899107136e-07
1.895245292e-07
1.892259878e-07
1.890557743e-07
1.890182496e-07
1.893519383e-07
1.891131748e-07
1.887833444e-07
1.883989434e-07
1.880032929e-07
1.876445708e-07
1.87371186e-07
1.87220994e-07
1.871952016e-07
1.874399017e-07
1.872147953e-07
1.86904305e-07
1.865433797e-07
1.861735055e-07
1.858407416e-07
1.855911032e-07
1.85459773e-07
1.854450003e-07
1.856060987e-07
1.853939328e-07
1.851017619e-07
1.847630637e-07
1.844175783e-07
1.841093518e-07
1.838821296e-07
1.837685687e-07
1.837641457e-07
1.83846706e-07
1.836468019e-07
1.833719847e-07
1.830543319e-07
1.827319235e-07
1.824468924e-07
1.822408309e-07
1.821440097e-07
1.821493063e-07
1.821580897e-07
1.819698049e-07
1.817114269e-07
1.814137012e-07
1.811131288e-07
1.808500246e-07
1.806639386e-07
1.805828864e-07
1.805973096e-07
1.805367958e-07
1.803595213e-07
1.801167164e-07
1.798378591e-07
1.795579485e-07
1.793155718e-07
1.791483417e-07
1.790821433e-07
1.791051348e-07
1.789795404e-07
1.788126992e-07
1.785846467e-07
1.783236551e-07
1.780632951e-07
1.778405116e-07
1.776910799e-07
1.776388716e-07
1.776699059e-07
1.774832013e-07
1.773262465e-07
1.771121688e-07
1.768680934e-07
1.766262318e-07
1.764219689e-07
1.762893364e-07
1.762503034e-07
1.762888856e-07
1.76044811e-07
1.758972243e-07
1.756963847e-07
1.75468326e-07
1.752439673e-07
1.750572101e-07
1.749404326e-07
1.749138062e-07
1.749594698e-07
1.746615507e-07
1.745228408e-07
1.743345415e-07
1.741216478e-07
1.739138494e-07
1.737436386e-07
1.736418241e-07
1.736268786e-07
1.736791844e-07
1.733307447e-07
1.732004466e-07
1.730240266e-07
1.728254919e-07
1.726333626e-07
1.724787909e-07
1.723910969e-07
1.723871477e-07
1.724456818e-07
1.720498578e-07
1.719275313e-07
1.717623655e-07
1.715774275e-07
1.714001248e-07
1.712603354e-07
1.711859664e-07
1.711923678e-07
1.712567397e-07
1.708164929e-07
1.70701722e-07
1.7054722e-07
1.703751589e-07
1.702118873e-07
1.700860718e-07
1.700242777e-07
1.700404207e-07
1.701102626e-07
1.696283917e-07
1.695207843e-07
1.693763893e-07
1.69216527e-07
1.690665374e-07
1.689539343e-07
1.689040087e-07
1.689293196e-07
1.690042846e-07
1.684834373e-07
1.68382625e-07
1.682478142e-07
1.680995137e-07
1.679621029e-07
1.678619973e-07
1.678232765e-07
1.678572158e-07
1.679369768e-07
1.673796608e-07
1.672852991e-07
1.671595841e-07
1.670222504e-07
1.668967612e-07
1.668084852e-07
1.667803484e-07
1.668224103e-07
1.669066593e-07
1.663152511e-07
1.662270207e-07
1.661099485e-07
1.659830303e-07
1.65868854e-07
1.657917881e-07
1.657736585e-07
1.658233712e-07
1.659118189e-07
1.652885698e-07
1.652061783e-07
1.650973344e-07
1.649803271e-07
1.648769064e-07
1.648104832e-07
1.648018309e-07
1.648587583e-07
1.64951135e-07
1.642981724e-07
1.64221357e-07
1.641203691e-07
1.6401282e-07
1.63919655e-07
1.638633645e-07
1.638637117e-07
1.639274577e-07
1.640235149e-07
1.633428357e-07
1.632713672e-07
1.631779112e-07
1.630794269e-07
1.629960833e-07
1.629494822e-07
1.629584114e-07
1.630286262e-07
1.631281406e-07
1.624215933e-07
1.623552818e-07
1.622690901e-07
1.621793465e-07
1.62105468e-07
1.620681922e-07
1.620853586e-07
1.621617496e-07
1.622645294e-07
1.615337799e-07
1.614724824e-07
1.613933546e-07
1.613121114e-07
1.612474353e-07
1.612192177e-07
1.612443669e-07
1.613267135e-07
1.614326088e-07
1.606790851e-07
1.606227148e-07
1.605505322e-07
1.604776507e-07
1.604220299e-07
1.604027235e-07
1.604357151e-07
1.605238905e-07
1.606328078e-07
1.598576167e-07
1.598061555e-07
1.597408988e-07
1.596763652e-07
1.596297952e-07
1.596194036e-07
1.596602422e-07
1.597542419e-07
1.598661638e-07
1.590699744e-07
1.590234876e-07
1.589652588e-07
1.589092123e-07
1.588718648e-07
1.588705798e-07
1.589194544e-07
1.590194326e-07
1.591344449e-07
1.583173322e-07
1.582759859e-07
1.582250346e-07
1.581778012e-07
1.581500648e-07
1.581583119e-07
1.582156438e-07
1.583219596e-07
1.584402839e-07
1.576015283e-07
1.575656102e-07
1.575223636e-07
1.574844957e-07
1.574670231e-07
1.57485515e-07
1.575520152e-07
1.576652872e-07
1.577873221e-07
1.569251612e-07
1.568951034e-07
1.56860201e-07
1.568325215e-07
1.568262833e-07
1.568560815e-07
1.569328161e-07
1.570539864e-07
1.571803559e-07
1.562916881e-07
1.562680924e-07
1.562424227e-07
1.562260744e-07
1.562324183e-07
1.562750008e-07
1.563634648e-07
1.564938716e-07
1.5662548e-07
1.557055216e-07
1.556891863e-07
1.556739275e-07
1.556704247e-07
1.556911388e-07
1.557484732e-07
1.558506702e-07
1.55992127e-07
1.561302205e-07
1.551721215e-07
1.551640687e-07
1.551607293e-07
1.551720117e-07
1.552093898e-07
1.552840095e-07
1.554025355e-07
1.555574157e-07
1.557036488e-07
1.546980749e-07
1.546995781e-07
1.547100371e-07
1.547385227e-07
1.547954297e-07
1.548905099e-07
1.550286388e-07
1.551999635e-07
1.553564691e-07
1.542911602e-07
1.543037694e-07
1.543303148e-07
1.543789505e-07
1.544588847e-07
1.545783166e-07
1.547400843e-07
1.549316104e-07
1.551010721e-07
1.539603891e-07
1.539859537e-07
1.540313164e-07
1.541036229e-07
1.542107725e-07
1.543592324e-07
1.545495175e-07
1.547658247e-07
1.549515503e-07
1.537160215e-07
1.537567087e-07
1.538240906e-07
1.539242005e-07
1.540634926e-07
1.542465028e-07
1.544711012e-07
1.547176766e-07
1.549236718e-07
1.53569549e-07
1.536278574e-07
1.537209519e-07
1.538536385e-07
1.540307781e-07
1.54254759e-07
1.545204518e-07
1.548037702e-07
1.550348139e-07
1.53533645e-07
1.536124118e-07
1.537354161e-07
1.539061122e-07
1.541276103e-07
1.543999231e-07
1.547145366e-07
1.550421401e-07
1.553038603e-07
1.536220797e-07
1.537244822e-07
1.53882101e-07
1.540969074e-07
1.543700995e-07
1.546990794e-07
1.550715419e-07
1.554521179e-07
1.557510741e-07
1.538496032e-07
1.539791543e-07
1.541765961e-07
1.544422824e-07
1.547753388e-07
1.551703242e-07
1.556107206e-07
1.560541861e-07
1.563979587e-07
1.542318017e-07
1.543923422e-07
1.546353104e-07