/*--------------------------------*- C++ -*----------------------------------*\
| =========                 |                                                 |
| \\      /  F ield         | OpenFOAM: The Open Source CFD Toolbox           |
|  \\    /   O peration     | Version:  2212                                  |
|   \\  /    A nd           | Website:  www.openfoam.com                      |
|    \\/     M anipulation  |                                                 |
\*---------------------------------------------------------------------------*/
FoamFile
{
    version     2.0;
    format      ascii;
    arch        "LSB;label=32;scalar=64";
    class       surfaceScalarField;
    location    "20.00000000";
    object      phi;
}
// * * * * * * * * * * * * * * * * * * * * * * * * * * * * * * * * * * * * * //

dimensions      [1 0 -1 0 0 0 0];

oriented        oriented;

internalField   nonuniform List<scalar> 
5690
(
-5.462347201e-11
8.582614177e-10
1.326757598e-11
-1.340821204e-10
1.42106832e-09
-2.673730566e-10
1.983754683e-09
-4.775003298e-10
2.553961343e-09
-7.880420606e-10
3.132628236e-09
-1.196684027e-09
3.694213459e-09
-1.608542596e-09
4.14649539e-09
-1.625629491e-09
4.186708509e-09
2.965227939e-09
-1.155440827e-10
9.453426667e-10
2.84628819e-11
-2.663835165e-10
1.5719079e-09
-4.848089965e-10
2.202180107e-09
-7.650648633e-10
2.834216628e-09
-1.074436136e-09
3.441999501e-09
-1.324520037e-09
3.944297412e-09
-1.354597997e-09
4.176573394e-09
-9.116263423e-10
3.743737172e-09
2.053601562e-09
-1.516370265e-10
1.05876016e-09
3.821927717e-11
-3.350707077e-10
1.755341466e-09
-5.766018714e-10
2.443711546e-09
-8.450405869e-10
3.102655526e-09
-1.077912742e-09
3.67487163e-09
-1.178782319e-09
4.045167347e-09
-1.024305274e-09
4.022096481e-09
-5.510974804e-10
3.270529189e-09
1.502503975e-09
-1.482786725e-10
1.16898608e-09
3.805287905e-11
-3.174110321e-10
1.924473729e-09
-5.213439064e-10
2.647644196e-09
-7.179324758e-10
3.29924388e-09
-8.458357419e-10
3.802774099e-09
-8.312616426e-10
4.03059308e-09
-6.199012978e-10
3.810736188e-09
-2.730654897e-10
2.923693537e-09
1.229438083e-09
-1.315494888e-10
1.266284044e-09
3.425153581e-11
-2.743073932e-10
2.067232032e-09
-4.33532438e-10
2.806869369e-09
-5.674107932e-10
3.433122705e-09
-6.263614797e-10
3.861724958e-09
-5.680877607e-10
3.972319053e-09
-3.84246713e-10
3.626895174e-09
-1.473333549e-10
2.686780636e-09
1.082104249e-09
-1.070115824e-10
1.345019024e-09
2.827651208e-11
-2.180661742e-10
2.178286759e-09
-3.334961828e-10
2.922299137e-09
-4.182379919e-10
3.517864598e-09
-4.378319244e-10
3.881319142e-09
-3.729490374e-10
3.907435914e-09
-2.348507619e-10
3.488796674e-09
-8.198792551e-11
2.533918168e-09
1.000116301e-09
-8.367754274e-11
1.4063464e-09
2.235033101e-11
-1.674003687e-10
2.26200959e-09
-2.493284357e-10
3.004227109e-09
-3.02354597e-10
3.570890643e-09
-3.040900624e-10
3.883054767e-09
-2.473678946e-10
3.85071363e-09
-1.479487026e-10
3.389377e-09
-4.784029851e-11
2.433809834e-09
9.522761771e-10
-6.330575198e-11
1.452563009e-09
1.708908933e-11
-1.246526982e-10
2.323356601e-09
-1.816318456e-10
3.061206424e-09
-2.14388102e-10
3.60364675e-09
-2.090460122e-10
3.877712805e-09
-1.644792575e-10
3.806147249e-09
-9.524278621e-11
3.320140379e-09
-2.982277488e-11
2.368389643e-09
9.224533396e-10
-4.711737112e-11
1.48686519e-09
1.281514084e-11
-9.163137329e-11
2.367870648e-09
-1.312368922e-10
3.100812029e-09
-1.517273662e-10
3.624137043e-09
-1.445882286e-10
3.870573608e-09
-1.110657709e-10
3.772625123e-09
-6.279548375e-11
3.271870302e-09
-1.900941629e-11
2.324603562e-09
9.03443772e-10
-3.466658475e-11
1.51203658e-09
9.495188914e-12
-6.672995607e-11
2.399934006e-09
-9.427744516e-11
3.128359612e-09
-1.072874409e-10
3.637147004e-09
-1.005530141e-10
3.863839084e-09
-7.602794527e-11
3.748100061e-09
-4.246308505e-11
3.2383055e-09
-1.279526654e-11
2.294935898e-09
8.906486238e-10
-2.538357098e-11
1.530434277e-09
6.985876342e-12
-4.848575304e-11
2.423036139e-09
-6.780300839e-11
3.147677063e-09
-7.627196941e-11
3.645615977e-09
-7.064883562e-11
3.858215917e-09
-5.283925309e-11
3.730290457e-09
-2.924097629e-11
3.214707203e-09
-8.709366756e-12
2.274404102e-09
8.819394126e-10
-1.855465764e-11
1.543861033e-09
5.127881849e-12
-3.522948716e-11
2.439710881e-09
-4.889162073e-11
3.16133924e-09
-5.454944094e-11
3.651273847e-09
-5.013798813e-11
3.853804509e-09
-3.727005251e-11
3.71742235e-09
-2.056735565e-11
3.198004655e-09
-6.154176109e-12
2.259990731e-09
8.757852942e-10
-1.357721144e-11
1.553676014e-09
3.762229412e-12
-2.567016422e-11
2.451803843e-09
-3.543638942e-11
3.1711054e-09
-3.931976807e-11
3.655157328e-09
-3.596219859e-11
3.850447137e-09
-2.663490441e-11
3.708094929e-09
-1.466960549e-11
3.186039441e-09
-4.381440363e-12
2.249702561e-09
8.714038167e-10
-9.962417282e-12
1.560871985e-09
2.766487689e-12
-1.877903272e-11
2.460620497e-09
-2.583147192e-11
3.178157839e-09
-2.856489984e-11
3.657890664e-09
-2.605778166e-11
3.847940207e-09
-1.92777231e-11
3.701314827e-09
-1.06314999e-11
3.177393176e-09
-3.194411096e-12
2.242265385e-09
8.682092604e-10
-7.337760944e-12
1.566169796e-09
2.039952847e-12
-1.380586265e-11
2.46708856e-09
-1.89503174e-11
3.183302341e-09
-2.09173572e-11
3.659857606e-09
-1.906143989e-11
3.84608429e-09
-1.41039499e-11
3.696357197e-09
-7.792197705e-12
3.171081055e-09
-2.340491291e-12
2.236812395e-09
8.658687963e-10
-5.429697478e-12
1.570088765e-09
1.510685043e-12
-1.020467062e-11
2.471863626e-09
-1.399270552e-11
3.187090503e-09
-1.543648653e-11
3.661301387e-09
-1.407196161e-11
3.844719815e-09
-1.043262207e-11
3.692717928e-09
-5.791733859e-12
3.166440331e-09
-1.734400169e-12
2.232755124e-09
8.641344289e-10
-4.037556e-12
1.573002668e-09
1.123610101e-12
-7.584940394e-12
2.475411081e-09
-1.039777095e-11
3.189903399e-09
-1.147288717e-11
3.6623766e-09
-1.046892482e-11
3.843715911e-09
-7.778730971e-12
3.690027687e-09
-4.336566563e-12
3.162998271e-09
-1.290850074e-12
2.229709499e-09
8.62843593e-10
-3.018215893e-12
1.575180884e-09
8.400108354e-13
-5.669459046e-12
2.478062354e-09
-7.772834117e-12
3.192006724e-09
-8.580183867e-12
3.663184056e-09
-7.835678561e-12
3.842971564e-09
-5.828774378e-12
3.68802084e-09
-3.253306049e-12
3.160422802e-09
-9.698150001e-13
2.227426079e-09
8.61873877e-10
-2.269178577e-12
1.576818605e-09
6.315042191e-13
-4.262565145e-12
2.480055945e-09
-5.844720115e-12
3.193588929e-09
-6.452723063e-12
3.663791876e-09
-5.891883209e-12
3.842410786e-09
-4.37731819e-12
3.686506476e-09
-2.432597877e-12
3.158478119e-09
-7.260289703e-13
2.225719488e-09
8.611478521e-10
-1.718394147e-12
1.578058843e-09
4.781408903e-13
-3.228005623e-12
2.481565543e-09
-4.425126755e-12
3.194786252e-09
-4.881455963e-12
3.664248172e-09
-4.447296757e-12
3.841976531e-09
-3.28436678e-12
3.685343759e-09
-1.797389574e-12
3.156991269e-09
-5.362531345e-13
2.224458313e-09
8.606116821e-10
-1.314915938e-12
1.579007915e-09
3.658505148e-13
-2.46959873e-12
2.482720095e-09
-3.382619803e-12
3.195699379e-09
-3.722575866e-12
3.664588218e-09
-3.372691004e-12
3.841626556e-09
-2.455477547e-12
3.684426633e-09
-1.294899684e-12
3.155830745e-09
-3.851384466e-13
2.223548313e-09
8.602267409e-10
-1.026359145e-12
1.579748725e-09
2.855134925e-13
-1.927843591e-12
2.483621537e-09
-2.639227255e-12
3.196410818e-09
-2.897793808e-12
3.664846833e-09
-2.609115415e-12
3.841337747e-09
-1.869877286e-12
3.683687404e-09
-9.449904389e-13
3.154905915e-09
-2.396740648e-13
2.222842793e-09
8.599870055e-10
-8.287971976e-13
1.580347091e-09
2.304230266e-13
-1.558526463e-12
2.484351149e-09
-2.135544597e-12
3.196987819e-09
-2.345867984e-12
3.665057315e-09
-2.116379323e-12
3.841108277e-09
-1.523667108e-12
3.68309465e-09
-7.790567262e-13
3.154161437e-09
-1.756775524e-13
2.222239439e-09
8.598111206e-10
-7.129806646e-13
1.580862384e-09
1.977062883e-13
-1.347610385e-12
2.484985656e-09
-1.859942079e-12
3.197499992e-09
-2.060050765e-12
3.665257492e-09
-1.867651366e-12
3.840915926e-09
-1.347778387e-12
3.682574682e-09
-6.931792705e-13
3.153506805e-09
-1.63878937e-13
2.221710284e-09
8.596470978e-10
-6.713728678e-13
1.58134848e-09
1.852768613e-13
-1.280149523e-12
2.485594474e-09
-1.788862141e-12
3.198008565e-09
-2.009939426e-12
3.665478458e-09
-1.842267798e-12
3.840748141e-09
-1.332906601e-12
3.682065187e-09
-6.792862803e-13
3.152853029e-09
-1.477571669e-13
2.221178886e-09
8.594993016e-10
-6.959025275e-13
1.581853227e-09
1.911120157e-13
-1.338400015e-12
2.486237153e-09
-1.891856265e-12
3.198561954e-09
-2.155779131e-12
3.665742278e-09
-2.019296658e-12
3.840611565e-09
-1.504626073e-12
3.681550348e-09
-7.974500091e-13
3.152145622e-09
-1.823524954e-13
2.22056375e-09
8.593169469e-10
-7.957058889e-13
1.582431633e-09
2.172404349e-13
-1.545775888e-12
2.486987359e-09
-2.215569994e-12
3.199231639e-09
-2.56970267e-12
3.666096492e-09
-2.461709515e-12
3.840503563e-09
-1.888053213e-12
3.680976609e-09
-1.036993977e-12
3.151294336e-09
-2.510029258e-13
2.219777607e-09
8.590658878e-10
-9.789224698e-13
1.583144779e-09
2.657601489e-13
-1.919679144e-12
2.487928089e-09
-2.787928757e-12
3.200099718e-09
-3.28810151e-12
3.66659666e-09
-3.21235651e-12
3.840427812e-09
-2.521691719e-12
3.680285928e-09
-1.428346517e-12
3.15020083e-09
-3.707573244e-13
2.218719862e-09
8.586950356e-10
-1.25573609e-12
1.584061137e-09
3.39378629e-13
-2.480131831e-12
2.489152555e-09
-3.638302649e-12
3.201257692e-09
-4.34622179e-12
3.667304443e-09
-4.312898807e-12
3.840394416e-09
-3.453875508e-12
3.679426862e-09
-2.01206125e-12
3.148758939e-09
-5.586183945e-13
2.217266305e-09
8.581363087e-10
-1.6368996e-12
1.585257068e-09
4.409264497e-13
-3.249024454e-12
2.490764929e-09
-4.800079044e-12
3.202808642e-09
-5.786424407e-12
3.668290626e-09
-5.808054096e-12
3.840415864e-09
-4.722276614e-12
3.678341056e-09
-2.81209922e-12
3.14684877e-09
-8.239187802e-13
2.215277993e-09
8.573123083e-10
-2.131597257e-12
1.586815759e-09
5.728541199e-13
-4.244598559e-12
2.49287816e-09
-6.299740614e-12
3.204863747e-09
-7.639879769e-12
3.66963068e-09
-7.728238433e-12
3.840504064e-09
-6.351492241e-12
3.676964235e-09
-3.843643909e-12
3.144340888e-09
-1.172485861e-12
2.212606769e-09
8.561397476e-10
-2.745970133e-12
1.588824821e-09
7.368735186e-13
-5.477938608e-12
2.495610243e-09
-8.151607149e-12
3.207537313e-09
-9.92038588e-12
3.671399509e-09
-1.008276343e-11
3.840666439e-09
-8.34475533e-12
3.675226035e-09
-5.105809127e-12
3.141101834e-09
-1.60378973e-12
2.209104785e-09
8.545358054e-10
-3.480658331e-12
1.591372176e-09
9.333097288e-13
-6.948178371e-12
2.499077837e-09
-1.035015543e-11
3.210939091e-09
-1.261475843e-11
3.673664133e-09
-1.285009342e-11
3.840901882e-09
-1.067617445e-11
3.673051994e-09
-6.577297984e-12
3.137002825e-09
-2.109430904e-12
2.204637006e-09
8.524262089e-10
-4.328714934e-12
1.594540416e-09
1.160498147e-12
-8.63848706e-12
2.503387735e-09
-1.286411988e-11
3.215164568e-09
-1.567548542e-11
3.676475341e-09
-1.597040332e-11
3.841196886e-09
-1.328510984e-11
3.670366729e-09
-8.213198508e-12
3.131930704e-09
-2.671992991e-12
2.199095917e-09
8.497541991e-10
-5.273709319e-12
1.598399822e-09
1.414290084e-12
-1.051244613e-11
2.508626621e-09
-1.563165993e-11
3.22028377e-09
-1.901546354e-11
3.679858949e-09
-1.934124962e-11
3.84152268e-09
-1.607373353e-11
3.66709927e-09
-9.944247758e-12
3.125801011e-09
-3.265137589e-12
2.192416765e-09
8.464891566e-10
-6.288475946e-12
1.603000522e-09
1.687742371e-12
-1.251179195e-11
2.514850004e-09
-1.855777999e-11
3.226329839e-09
-2.250668957e-11
3.683807781e-09
-2.281832957e-11
3.841834286e-09
-1.890956999e-11
3.663190566e-09
-1.168030537e-11
3.118571712e-09
-3.85535238e-12
2.184591644e-09
8.426338338e-10
-7.334795163e-12
1.608364367e-09
1.97094481e-12
-1.455619021e-11
2.522071346e-09
-2.151511254e-11
3.233288847e-09
-2.598340943e-11
3.688276057e-09
-2.622152237e-11
3.842072348e-09
-2.163347537e-11
3.658602479e-09
-1.331732603e-11
3.110255685e-09
-4.40521636e-12
2.175679544e-09
8.382284714e-10
-8.364158459e-12
1.614477384e-09
2.251157294e-12
-1.654563237e-11
2.530252668e-09
-2.434917282e-11
3.241092511e-09
-2.925094182e-11
3.693177807e-09
-2.934712675e-11
3.842168536e-09
-2.407267686e-11
3.653327851e-09
-1.474705945e-11
3.100930075e-09
-4.877541028e-12
2.165810206e-09
8.3335078e-10
-9.31980261e-12
1.621283851e-09
2.513331907e-12
-1.836553207e-11
2.539298149e-09
-2.688804524e-11
3.24961513e-09
-3.210020415e-11
3.698389954e-09
-3.198561864e-11
3.842054074e-09
-2.605789965e-11
3.647399971e-09
-1.586867233e-11
3.090740636e-09
-5.239263405e-12
2.155180959e-09
8.281114885e-10
-1.014031847e-11
1.628683108e-09
2.74103008e-12
-1.989477175e-11
2.549052368e-09
-2.895594109e-11
3.258676345e-09
-3.432652536e-11
3.703760476e-09
-3.394257251e-11
3.841670219e-09
-2.744177304e-11
3.640899148e-09
-1.660029833e-11
3.079899018e-09
-5.465282861e-12
2.144045962e-09
8.226462345e-10
-1.076455249e-11
1.636530028e-09
2.917585202e-12
-2.101634987e-11
2.559304076e-09
-3.039001734e-11
3.268050086e-09
-3.575076802e-11
3.709121115e-09
-3.505972875e-11
3.840979126e-09
-2.811509411e-11
3.633954567e-09
-1.688820072e-11
3.06867216e-09
-5.541183738e-12
2.132698833e-09
8.17105058e-10
-1.113745713e-11
1.644639831e-09
3.02760307e-12
-2.162932272e-11
2.569795889e-09
-3.105816412e-11
3.277479087e-09
-3.623977842e-11
3.714302689e-09
-3.523330558e-11
3.839972589e-09
-2.801885618e-11
3.626740077e-09
-1.671162837e-11
3.057364975e-09
-5.464050326e-12
2.121451189e-09
8.116409695e-10
-1.121638172e-11
1.652797398e-09
3.058775913e-12
-2.166038624e-11
2.580239725e-09
-3.087468602e-11
3.286693489e-09
-3.572235764e-11
3.719150386e-09
-3.44260163e-11
3.838676281e-09
-2.71496709e-11
3.619463643e-09
-1.60831094e-11
3.046298386e-09
-5.24179178e-12
2.110609933e-09
8.063991152e-10
-1.09766759e-11
1.660770551e-09
3.003509843e-12
-2.107359709e-11
2.590336466e-09
-2.98114413e-11
3.295431289e-09
-3.419784041e-11
3.723536728e-09
-3.267000399e-11
3.837148516e-09
-2.555773847e-11
3.612351332e-09
-1.504485024e-11
3.035785416e-09
-4.89122903e-12
2.100456358e-09
8.015078626e-10
-1.041537197e-11
1.668325967e-09
2.859947104e-12
-1.987617122e-11
2.599797254e-09
-2.790240282e-11
3.303457435e-09
-3.17358236e-11
3.727370064e-09
-3.006092223e-11
3.835473626e-09
-2.333813907e-11
3.605628548e-09
-1.366182499e-11
3.026109009e-09
-4.435325329e-12
2.091229766e-09
7.970725693e-10
-9.552366914e-12
1.67524588e-09
2.632434142e-12
-1.811871967e-11
2.608363687e-09
-2.524007685e-11
3.310578811e-09
-2.846716899e-11
3.730597099e-09
-2.674476095e-11
3.833751139e-09
-2.061773857e-11
3.599501555e-09
-1.201318613e-11
3.017504477e-09
-3.900555881e-12
2.083117003e-09
7.931720721e-10
-8.42887114e-12
1.681343354e-09
2.331368958e-12
-1.588970404e-11
2.615824539e-09
-2.19644087e-11
3.316653583e-09
-2.456755515e-11
3.733200214e-09
-2.289964092e-11
3.832083139e-09
-1.754000876e-11
3.594141907e-09
-1.018351747e-11
3.010148064e-09
-3.315186775e-12
2.07624862e-09
7.898569335e-10
-7.102941533e-12
1.686474137e-09
1.972150297e-12
-1.330537075e-11
2.622026897e-09
-1.824630805e-11
3.32159457e-09
-2.023720508e-11
3.735191126e-09
-1.871665047e-11
3.830562602e-09
-1.425118458e-11
3.58967633e-09
-8.256050064e-12
3.004152942e-09
-2.70953591e-12
2.070702083e-09
7.871474284e-10
-5.642923416e-12
1.690543689e-09
1.57338823e-12
-1.049687843e-11
2.626880714e-09
-1.42692096e-11
3.32536694e-09
-1.56806077e-11
3.73660256e-09
-1.438221984e-11
3.829264326e-09
-1.088773029e-11
3.586181744e-09
-6.305341104e-12
2.999570492e-09
-2.102575137e-12
2.066499313e-09
7.85044854e-10
-4.119926441e-12
1.693508781e-09
1.154845989e-12
-7.596268141e-12
2.630356898e-09
-1.021061663e-11
3.327981343e-09
-1.108757971e-11
3.737479499e-09
-1.006244478e-11
3.828239231e-09
-7.566205514e-12
3.583685496e-09
-4.394062665e-12
2.996398308e-09
-1.487871685e-12
2.063593177e-09
7.835569711e-10
-2.60115009e-12
1.695374404e-09
7.355120019e-13
-4.725174792e-12
2.632480821e-09
-6.22909019e-12
3.329485361e-09
-6.622386499e-12
3.737872744e-09
-5.896592712e-12
3.827513375e-09
-4.383299179e-12
3.582172193e-09
-2.563203053e-12
2.994578264e-09
-9.071135883e-13
2.061937136e-09
7.826498301e-10
-1.144418744e-12
1.696186793e-09
3.319983205e-13
-1.985531908e-12
2.633321878e-09
-2.45292019e-12
3.329952874e-09
-2.412541007e-12
3.737832372e-09
-1.9870235e-12
3.827087793e-09
-1.409505472e-12
3.581594671e-09
-8.151916826e-13
2.993983982e-09
-3.662066208e-13
2.061488147e-09
7.822835767e-10
2.048264864e-13
1.696024485e-09
-4.254427319e-14
5.433706685e-13
2.632983272e-09
1.018434914e-12
3.329477886e-09
1.441918152e-12
3.737408937e-09
1.5785975e-12
3.826951118e-09
1.298056967e-12
3.581875196e-09
7.329758152e-13
2.994549047e-09
1.26346796e-13
2.062094784e-09
7.824098947e-10
1.413775793e-12
1.694989331e-09
-3.786224889e-13
2.80473058e-12
2.631592252e-09
4.115900669e-12
3.32816673e-09
4.875679592e-12
3.736649181e-09
4.751277344e-12
3.827075545e-09
3.710076347e-12
3.582916404e-09
2.081554043e-12
2.996177486e-09
5.673150512e-13
2.063609047e-09
7.829771946e-10
2.46280945e-12
1.693197004e-09
-6.704741988e-13
4.766102195e-12
2.629288914e-09
6.803076e-12
3.326129745e-09
7.858480409e-12
3.735593781e-09
7.515447839e-12
3.827418575e-09
5.81747947e-12
3.584614421e-09
3.296575595e-12
2.998698316e-09
9.584315306e-13
2.06594717e-09
7.839355997e-10
3.345525709e-12
1.69076744e-09
-9.159728543e-13
6.418644746e-12
2.626215766e-09
9.072059021e-12
3.323476305e-09
1.038516029e-11
3.734280668e-09
9.867338486e-12
3.827936339e-09
7.620441024e-12
3.586861398e-09
4.348802795e-12
3.00196993e-09
1.297843359e-12
2.068998107e-09
7.852334292e-10
4.065028105e-12
1.687818153e-09
-1.11577153e-12
7.769668933e-12
2.622511161e-09
1.093466783e-11
3.320311242e-09
1.247016662e-11
3.732745153e-09
1.182018306e-11
3.828586239e-09
9.127923813e-12
3.589553639e-09
5.23458498e-12
3.00586326e-09
1.585537541e-12
2.072647145e-09
7.868189774e-10
4.631198331e-12
1.684459504e-09
-1.272582158e-12
8.837748788e-12
2.618304704e-09
1.241632893e-11
3.316732606e-09
1.414109649e-11
3.731020402e-09
1.339833036e-11
3.829328924e-09
1.035736721e-11
3.592594485e-09
5.963623621e-12
3.010256984e-09
1.823190413e-12
2.076787497e-09
7.886421443e-10
5.05807008e-12
1.680791787e-09
-1.390366009e-12
9.648443613e-12
2.613714377e-09
1.35509235e-11
3.312830089e-09
1.543389669e-11
3.729137448e-09
1.463342665e-11
3.830129366e-09
1.133178537e-11
3.595896029e-09
6.549403916e-12
3.015039346e-09
2.027269728e-12
2.08130952e-09
7.906693016e-10
5.361691754e-12
1.676903787e-09
-1.473680221e-12
1.023080287e-11
2.608845222e-09
1.437639353e-11
3.308684441e-09
1.638826869e-11
3.72712554e-09
1.555961344e-11
3.83095801e-09
1.207454088e-11
3.599381024e-09
7.003513962e-12
3.020110351e-09
2.185452757e-12
2.086127586e-09
7.92854613e-10
5.558724243e-12
1.672872312e-09
-1.527240432e-12
1.061500231e-11
2.603788877e-09
1.493220537e-11
3.304367177e-09
1.704572719e-11
3.72501196e-09
1.621314999e-11
3.831790541e-09
1.261160221e-11
3.602982448e-09
7.340109783e-12
3.025381734e-09
2.304957903e-12
2.091162824e-09
7.951595055e-10
5.665456757e-12
1.668762493e-09
-1.555656807e-12
1.083046544e-11
2.598623839e-09
1.525689271e-11
3.299940711e-09
1.744682116e-11
3.722821985e-09
1.662951612e-11
3.832607831e-09
1.296847644e-11
3.606643376e-09
7.573276816e-12
3.03077672e-09
2.391415258e-12
2.096344662e-09
7.975509486e-10
5.697175509e-12
1.664628543e-09
-1.5632599e-12
1.090483687e-11
2.593416189e-09
1.538684238e-11
3.295458666e-09
1.763005994e-11
3.720578706e-09
1.684251688e-11
3.833395378e-09
1.316944822e-11
3.61031641e-09
7.716213637e-12
3.0362298e-09
2.449044551e-12
2.101611647e-09
8.000000323e-10
5.667743544e-12
1.660514752e-09
-1.553970754e-12
1.086334096e-11
2.588220613e-09
1.535553059e-11
3.290966457e-09
1.763118665e-11
3.718302954e-09
1.688381858e-11
3.834142698e-09
1.323744043e-11
3.613962785e-09
7.781371551e-12
3.041685867e-09
2.481667576e-12
2.10691117e-09
8.024816706e-10
5.589449867e-12
1.656456561e-09
-1.531255014e-12
1.072852397e-11
2.583081527e-09
1.519307632e-11
3.286501931e-09
1.748267719e-11
3.716013283e-09
1.678254259e-11
3.834842756e-09
1.319380302e-11
3.617551484e-09
7.780450254e-12
3.047099291e-09
2.492760472e-12
2.112198816e-09
8.049743367e-10
5.473003721e-12
1.652481681e-09
-1.498114325e-12
1.05202285e-11
2.578034246e-09
1.49261613e-11
3.282096026e-09
1.721352063e-11
3.713725912e-09
1.656492925e-11
3.83549132e-09
1.305803121e-11
3.621058318e-09
7.724323937e-12
3.052433005e-09
2.48553145e-12
2.117437667e-09
8.074598017e-10
5.32759447e-12
1.648611185e-09
-1.457097796e-12
1.025562657e-11
2.573106189e-09
1.457812098e-11
3.277773519e-09
1.684928752e-11
3.711454745e-09
1.625428666e-11
3.836086341e-09
1.284758362e-11
3.624464979e-09
7.622912947e-12
3.05765759e-09
2.463003192e-12
2.122597605e-09
8.09922832e-10
5.161026687e-12
1.644860516e-09
-1.410368867e-12
9.949304629e-12
2.568317958e-09
1.416903101e-11
3.273553775e-09
1.641224201e-11
3.709211519e-09
1.587111954e-11
3.83662749e-09
1.257792655e-11
3.627758184e-09
7.485088699e-12
3.062750353e-09
2.428009452e-12
2.12765462e-09
8.123509002e-10
4.97985346e-12
1.641240408e-09
-1.359753752e-12
9.613532086e-12
2.563684333e-09
1.371590516e-11
3.269451407e-09
1.592148564e-11
3.707005931e-09
1.543325652e-11
3.837115739e-09
1.226263033e-11
3.630928857e-09
7.318616136e-12
3.067694393e-09
2.383055748e-12
2.132590099e-09
8.14733969e-10
4.78945931e-12
1.637757693e-09
-1.306737832e-12
9.25856488e-12
2.559215232e-09
1.323304648e-11
3.26547693e-09
1.539322413e-11
3.704845762e-09
1.495600405e-11
3.837552979e-09
1.191350037e-11
3.633971373e-09
7.130256512e-12
3.072477705e-09
2.330273604e-12
2.137390111e-09
8.170642254e-10
4.594192341e-12
1.634416022e-09
-1.252503275e-12
8.892841334e-12
2.554916592e-09
1.273234331e-11
3.261637423e-09
1.484104349e-11
3.702737082e-09
1.445231073e-11
3.83794173e-09
1.154070021e-11
3.636882951e-09
6.925989524e-12
3.077092414e-09
2.271521249e-12
2.142044668e-09
8.193357632e-10
4.397562399e-12
1.631216478e-09
-1.19800931e-12
8.523157334e-12
2.550791056e-09
1.222350277e-11
3.257937075e-09
1.42761529e-11
3.700684443e-09
1.393297078e-11
3.838284942e-09
1.115277806e-11
3.639663149e-09
6.710930665e-12
3.08153421e-09
2.208285643e-12
2.146547339e-09
8.215440895e-10
4.202365206e-12
1.628158129e-09
-1.144023266e-12
8.154878081e-12
2.546838618e-09
1.171426043e-11
3.254377698e-09
1.370756684e-11
3.698691132e-09
1.340663721e-11
3.83858589e-09
1.075640046e-11
3.642313463e-09
6.48879809e-12
3.085801817e-09
2.142765992e-12
2.150893334e-09
8.236868593e-10
4.010795317e-12
1.625238454e-09
-1.091136933e-12
7.792292364e-12
2.543057167e-09
1.121088392e-11
3.250959134e-09
1.314274991e-11
3.696759268e-09
1.288072442e-11
3.838847893e-09
1.03574991e-11
3.644836753e-09
6.265482324e-12
3.08989392e-09
2.076033019e-12
2.155082776e-09
8.257628425e-10
3.824510082e-12
1.622453714e-09
-1.039778897e-12
7.438785779e-12
2.539442893e-09
1.071848785e-11
3.247679472e-09
1.258794605e-11
3.694889847e-09
1.236161767e-11
3.83907419e-09
9.964711519e-12
3.647233641e-09
6.043379891e-12
3.093815313e-09
2.008416093e-12
2.159117802e-09
8.277711985e-10
3.644929512e-12
1.61979913e-09
-9.903428656e-13
7.097127837e-12
2.535990675e-09
1.024103347e-11
3.244535579e-09
1.204780193e-11
3.693083131e-09
1.185793821e-11
3.839264069e-09
9.580118818e-12
3.649511404e-09
5.822972266e-12
3.097572425e-09
1.941154473e-12
2.16299968e-09
8.297123393e-10
3.472391053e-12
1.617269639e-09
-9.428936307e-13
6.768010162e-12
2.532695045e-09
9.782735656e-12
3.241520836e-09
1.153103302e-11
3.691334843e-09
1.137132511e-11
3.839423825e-09
9.204339923e-12
3.651678372e-09
5.607882327e-12
3.10116878e-09
1.875062319e-12
2.166732494e-09
8.315874366e-10
3.309648683e-12
1.614858133e-09
-8.98144679e-13
6.458302256e-12
2.529546385e-09
9.346362301e-12
3.238632774e-09
1.103521372e-11
3.689645961e-09
1.089993307e-11
3.839559128e-09
8.841373523e-12
3.653736958e-09
5.399349141e-12
3.104610733e-09
1.810669135e-12
2.1703211e-09
8.333981301e-10
3.155201098e-12
1.61255862e-09
-8.556991393e-13
6.163709365e-12
2.526537859e-09
8.929424426e-12
3.235867079e-09
1.055785279e-11
3.68801751e-09
1.044848332e-11
3.839668469e-09
8.492809959e-12
3.655692662e-09
5.198481755e-12
3.107905089e-09
1.748433377e-12
2.173771086e-09
8.351465289e-10
3.008078474e-12
1.610365891e-09
-8.153563221e-13
5.88144395e-12
2.523664475e-09
8.533486191e-12
3.233215055e-09
1.010627319e-11
3.686444722e-09
1.001988887e-11
3.839754803e-09
8.160848814e-12
3.657551688e-09
5.006619593e-12
3.111059393e-09
1.688834611e-12
2.177088878e-09
8.368352984e-10
2.870614065e-12
1.608272975e-09
-7.776927211e-13
5.617843131e-12
2.52091725e-09
8.161335395e-12
3.230671568e-09
9.680338007e-12
3.684925735e-09
9.61457039e-12
3.839820547e-09
7.846203034e-12
3.65931999e-09
4.824333379e-12
3.114081284e-09
1.632060581e-12
2.18028121e-09
8.384673131e-10
2.741675062e-12
1.60627367e-09
-7.423597874e-13
5.3704231e-12
2.518288516e-09
7.811582951e-12
3.228230422e-09
9.27945221e-12
3.683457888e-09
9.232483561e-12
3.839867545e-09
7.54913906e-12
3.661003281e-09
4.651948487e-12
3.116978421e-09
1.578241019e-12
2.183354958e-09
8.4004556e-10
2.621205472e-12
1.604361864e-09
-7.093924814e-13
5.13897008e-12
2.51577074e-09
7.483941186e-12
3.225885475e-09
8.903309416e-12
3.682038522e-09
8.873365347e-12
3.839897547e-09
7.269487489e-12
3.662607163e-09
4.489434301e-12
3.11975841e-09
1.527403024e-12
2.186316982e-09
8.415730189e-10
2.508753347e-12
1.602531746e-09
-6.786314656e-13
4.922728346e-12
2.513356739e-09
7.177413773e-12
3.223630811e-09
8.550857482e-12
3.680665062e-09
8.536235492e-12
3.839912212e-09
7.006430116e-12
3.664137015e-09
4.336270823e-12
3.122428558e-09
1.479384723e-12
2.189173835e-09
8.430524896e-10
2.403811717e-12
1.60077787e-09
-6.499283466e-13
4.720738803e-12
2.511039809e-09
6.890629478e-12
3.221460935e-09
8.220489237e-12
3.679335192e-09
8.219501617e-12
3.839913228e-09
6.758604972e-12
3.665597972e-09
4.191541875e-12
3.124995694e-09
1.433866041e-12
2.191931493e-09
8.444864077e-10
2.305714965e-12
1.599095278e-09
-6.231072839e-13
4.531678683e-12
2.508813876e-09
6.621684073e-12
3.219370947e-09
7.909912302e-12
3.678046979e-09
7.920838917e-12
3.839902327e-09
6.524039049e-12
3.666994825e-09
4.053913027e-12
3.127465952e-09
1.390338041e-12
2.194595118e-09
8.458767408e-10
2.213642353e-12
1.597479617e-09
-5.979637528e-13
4.353903437e-12
2.506673664e-09
6.368172016e-12
3.217356706e-09
7.616200659e-12
3.676798982e-09
7.637258803e-12
3.8398813e-09
6.300199865e-12
3.668331905e-09
3.921711742e-12
3.129844554e-09
1.348140918e-12
2.197168816e-09
8.472248765e-10
2.126612695e-12
1.595927253e-09
-5.74237921e-13
4.185466956e-12
2.504614854e-09
6.127221279e-12
3.215414998e-09
7.33587071e-12
3.675590372e-09
7.365192562e-12
3.839852021e-09
6.084096131e-12
3.669613011e-09
3.793035381e-12
3.132135653e-09
1.306561171e-12
2.199655431e-09
8.485314891e-10
2.04351252e-12
1.594435367e-09
-5.516223278e-13
4.024178389e-12
2.502634212e-09
5.895584376e-12
3.213543636e-09
7.065000439e-12
3.674420996e-09
7.100647525e-12
3.839816443e-09
5.87238336e-12
3.670841329e-09
3.665816233e-12
3.134342216e-09
1.264890711e-12
2.202056439e-09
8.497964695e-10
1.96313183e-12
1.593002017e-09
-5.297781872e-13
3.86767477e-12
2.50072968e-09
5.669794316e-12
3.211741544e-09
6.799422785e-12
3.673291392e-09
6.839398366e-12
3.839776541e-09
5.661519687e-12
3.672019323e-09
3.537845684e-12
3.136465924e-09
1.222398643e-12
2.2043719e-09
8.51018935e-10
1.884222273e-12
1.59162617e-09
-5.083664283e-13
3.713510191e-12
2.498900401e-09
5.446299364e-12
3.210008783e-09
6.534914881e-12
3.672202798e-09
6.57721896e-12
3.839734274e-09
5.447988404e-12
3.673148667e-09
3.406894285e-12
3.138507096e-09
1.178331779e-12
2.206600457e-09
8.521972729e-10
1.805565828e-12
1.590307682e-09
-4.870657237e-13
3.559290698e-12
2.497146676e-09
5.221625669e-12
3.208346486e-09
6.26736797e-12
3.671157092e-09
6.310063109e-12
3.839691582e-09
5.228495684e-12
3.674230281e-09
3.270899752e-12
3.140464765e-09
1.131971024e-12
2.20873941e-09
8.533292062e-10
1.726038349e-12
1.589047225e-09
-4.655743445e-13
3.402835389e-12
2.495469867e-09
4.992604911e-12
3.206756739e-09
5.993034871e-12
3.670156695e-09
6.034261186e-12
3.839650348e-09
5.000113969e-12
3.675264408e-09
3.128075169e-12
3.142336819e-09
1.082675457e-12
2.210784851e-09
8.544118416e-10
1.644676944e-12
1.587846173e-09
-4.436272821e-13
3.242296056e-12
2.493872242e-09
4.756606737e-12
3.205242427e-09
5.708849923e-12
3.669204456e-09
5.746818786e-12
3.839612372e-09
4.76046208e-12
3.676250718e-09
2.976979895e-12
3.144120247e-09
1.029917723e-12
2.21273191e-09
8.554417263e-10
1.560767759e-12
1.586706425e-09
-4.210295062e-13
3.076289815e-12
2.492356713e-09
4.511726045e-12
3.20380699e-09
5.412667459e-12
3.668303496e-09
5.44565281e-12
3.839579371e-09
4.507830565e-12
3.677188494e-09
2.816551017e-12
3.145811431e-09
9.733564358e-13
2.214575025e-09
8.564150368e-10
1.47386166e-12
1.585630206e-09
-3.976562159e-13
2.903971708e-12
2.49092656e-09
4.256848505e-12
3.202454116e-09
5.103339186e-12
3.667456971e-09
5.129879495e-12
3.839552788e-09
4.241783959e-12
3.678076532e-09
2.646570029e-12
3.147406556e-09
9.128306117e-13
2.216308656e-09
8.573278035e-10
1.383761399e-12
1.584619883e-09
-3.73448752e-13
2.725089554e-12
2.489585149e-09
3.991831283e-12
3.201187362e-09
4.780893366e-12
3.666667859e-09
4.799503409e-12
3.839534099e-09
3.962194534e-12
3.678913754e-09
2.467407958e-12
3.14890125e-09
8.489195489e-13
2.21792705e-09
8.581766655e-10
1.290419472e-12
1.583677847e-09
-3.483904086e-13
2.539471391e-12
2.488336016e-09
3.716182672e-12
3.200010617e-09
4.445214873e-12
3.66593876e-09
4.455887845e-12
3.839523342e-09
3.672111187e-12
3.679697421e-09
2.28232394e-12
3.150290913e-09
7.833854404e-13
2.219425882e-09
8.589600056e-10
1.194203831e-12
1.582806174e-09
-3.225399422e-13
2.348433297e-12
2.487181732e-09
3.433101503e-12
3.198925907e-09
4.101633551e-12
3.66527015e-09
4.105923191e-12
3.839518986e-09
3.378598363e-12
3.680424653e-09
2.096168896e-12
3.151573212e-09
7.178198971e-13
2.220804081e-09
8.59677776e-10
1.09703176e-12
1.582005536e-09
-2.96408442e-13
2.156039174e-12
2.486122683e-09
3.149204836e-12
3.197932707e-09
3.758306963e-12
3.66466096e-09
3.757146057e-12
3.839520076e-09
3.086674498e-12
3.681095056e-09
1.911436299e-12
3.152748364e-09
6.529262191e-13
2.222062449e-09
8.603306321e-10
1.000836159e-12