/*--------------------------------*- C++ -*----------------------------------*\
| =========                 |                                                 |
| \\      /  F ield         | OpenFOAM: The Open Source CFD Toolbox           |
|  \\    /   O peration     | Version:  2212                                  |
|   \\  /    A nd           | Website:  www.openfoam.com                      |
|    \\/     M anipulation  |                                                 |
\*---------------------------------------------------------------------------*/
FoamFile
{
    version     2.0;
    format      ascii;
    arch        "LSB;label=32;scalar=64";
    class       volScalarField;
    location    "20.00000000";
    object      T;
}
// * * * * * * * * * * * * * * * * * * * * * * * * * * * * * * * * * * * * * //

dimensions      [0 0 0 1 0 0 0];

internalField   nonuniform List<scalar> 
3000
(
300.9397981
300.9282742
300.9081542
300.8748224
300.8188011
300.7199144
300.5325335
300.145255
299.2493352
300.8006538
300.7650241
300.7049275
300.610924
300.4666201
300.2444543
299.8989898
299.3593281
298.5371495
300.6330896
300.5739478
300.4775982
300.3344836
300.1300866
299.8445851
299.4546307
298.9414328
298.3180558
300.4536541
300.3759456
300.2531304
300.0784171
299.8427993
299.5370876
299.156357
298.7083788
298.2268477
300.2731273
300.1827085
300.0432957
299.851791
299.6050261
299.3024393
298.9500955
298.5651779
298.1775978
300.0978107
300.0000173
299.8521784
299.6547198
299.4092977
299.1211557
298.8016168
298.4691035
298.15
299.9307234
299.8297928
299.6796093
299.48351
299.2466735
298.9777653
298.6899287
298.3998665
298.15
299.7732821
299.6723953
299.5241854
299.3341673
299.1098391
298.861576
298.6025652
298.3471265
298.15
299.6259993
299.5274221
299.3841033
299.2030454
298.9931041
298.7652601
298.5319437
298.3052309
298.15
299.4889461
299.39422
299.2576598
299.0871709
298.8922567
298.6838429
298.4733134
298.2708577
298.15
299.3619351
299.2720417
299.143334
298.9841616
298.804183
298.613901
298.4236059
298.2419586
298.15
299.2446294
299.1601313
299.0398156
298.8921352
298.7265788
298.5530398
298.3807718
298.2172081
298.15
299.1365982
299.0577512
298.9459791
298.8095968
298.6577209
298.4995555
298.343411
298.1957273
298.15
299.037357
298.9642007
298.8608615
298.7353554
298.5963092
298.4522195
298.3105521
298.1769312
298.15
298.9464009
298.878828
298.7836434
298.6684625
298.5413614
298.410143
298.2815239
298.1604493
298.15
298.8632365
298.8010489
298.7136452
298.6081815
298.4921561
298.3726991
298.2558363
298.15
298.15
298.7874178
298.7303725
298.6503417
298.5539961
298.4482578
298.3396235
298.2335021
298.15
298.15
298.7185887
298.6664384
298.5933905
298.5056267
298.4095054
298.31092
298.2146908
298.15
298.15
298.6565403
298.6090733
298.5426917
298.4630988
298.3761097
298.2870347
298.2001106
298.15
298.15
298.6012903
298.5583777
298.4984871
298.4268675
298.3488145
298.2690669
298.1912526
298.15
298.15
298.5531961
298.5148529
298.4615132
298.3980074
298.3291421
298.259084
298.1907871
298.15
298.15
298.5131125
298.4795822
298.4332189
298.3784874
298.3197445
298.2605726
298.203138
298.15
298.15
298.4826077
298.4544785
298.4160663
298.3715471
298.3248825
298.2790494
298.2352539
298.1923115
298.15
298.4642493
298.4426125
298.4139264
298.3821881
298.351046
298.3228447
298.2975915
298.272055
298.2393527
298.4619729
298.4486339
298.4325811
298.4177908
298.4077197
298.4040558
298.4052916
298.4053719
298.3929193
298.4815413
298.4792896
298.480335
298.4888537
298.5082863
298.5396478
298.5795123
298.6179816
298.6373268
298.5310997
298.544045
298.5687359
298.6098462
298.6710424
298.7526593
298.8488456
298.9445578
299.0133296
298.6218254
298.6558004
298.7133906
298.8001507
298.9202863
299.0734464
299.2507165
299.4302774
299.5739519
298.768665
298.8316926
298.934855
299.0850585
299.2874223
299.5408789
299.8326386
300.1320958
300.3857568
298.9911455
299.0939588
299.2595695
299.4967749
299.812013
300.203392
300.6531921
301.1195654
301.5294439
299.3142381
299.4708399
299.7208003
300.0753791
300.5427051
301.11979
301.7825865
302.4750287
303.0995683
299.7692493
299.9974852
300.3595432
300.8696777
301.5379473
302.3596994
303.3026871
304.2930483
305.2032435
300.3947053
300.7168214
301.2253359
301.9378837
302.8664122
304.0035686
305.3063983
306.6789847
307.9577767
301.2371903
301.6803347
302.3769165
303.348043
304.6070344
306.1421208
307.8963243
309.7466877
311.4872864
302.3520888
302.9487065
303.8826563
305.1781197
306.8485632
308.8751681
311.1826548
313.6153296
315.9184506
303.8041722
304.5922324
305.8206777
307.5156407
309.6885326
312.3097126
315.2802649
318.4054752
321.3756233
305.6679541
306.690935
308.2785566
310.4567915
313.2315521
316.5572867
320.3050692
324.2345537
327.9756264
308.0277242
309.3342684
311.352499
314.1048589
317.5868506
321.7305374
326.3697458
331.211973
335.8225641
310.9771505
312.6203016
315.1458826
318.5679396
322.8650547
327.9391392
333.5790337
339.4341831
345.0030218
314.6183303
316.6542654
319.7670722
323.955883
329.1742684
335.2852234
342.0249044
348.9800459
355.5819838
319.0601648
321.5463641
325.3264688
330.3765183
336.6156273
343.85862
351.7819802
359.9068758
367.5997461
324.4159491
327.4087931
331.9328175
337.9313173
345.2786124
353.732298
362.9035988
372.247477
381.0700108
330.8001078
334.3519739
339.688904
346.710757
355.236501
364.9584192
375.4188879
386.0084053
395.9792381
338.3240847
342.4801068
348.6868704
356.7897332
366.5423679
377.5653855
389.3311029
401.1695553
412.2872254
347.0914988
351.8862617
359.0034778
368.223424
379.226015
391.5561435
404.6173319
417.6850274
429.9287836
357.1928139
362.6473307
370.6957057
381.0439799
393.2921033
406.9078533
421.2295059
435.4851093
448.8163123
368.6999071
374.819259
383.7970826
395.2583343
408.7196074
423.5728539
439.0965154
454.4791199
468.8430385
381.6610273
388.4330035
398.3150874
410.8472961
425.4625504
441.4807226
458.1271508
474.5588301
489.8866717
396.0966835
403.4916394
414.2298594
427.76594
443.4518438
460.5411401
478.2135509
495.6021782
511.8132457
411.9969568
419.9689381
431.4943133
445.9451807
462.5979754
480.6472536
499.2348779
517.4770466
534.4809455
429.3206002
437.809593
450.0356316
465.2943372
482.7942693
501.6792605
521.0609764
540.0449245
557.7437599
447.9960899
456.9311169
469.7580061
485.7044576
503.9204535
523.5079594
543.5558007
563.1642118
581.4548342
467.9245775
477.2273332
490.5465181
507.0522571
525.8463557
545.9980822
566.5804903
586.6931349
605.4694176
488.9834384
498.5715566
512.2698665
529.2027155
548.4348086
569.0116638
589.9968414
610.4931085
629.6476074
511.0285119
520.8191464
534.7839078
552.0133276
571.5457625
592.4113659
613.6699141
634.4308069
653.8565325
533.9025279
543.8153778
557.9378685
575.3383179
595.0389068
616.0621957
637.469379
658.3794999
677.9717626
557.4407585
567.4003338
581.5784409
599.0320092
618.7764272
639.8337705
661.2713771
682.2206284
701.8786305
581.4762657
591.4134483
605.5535395
622.9518402
642.6253935
663.6021948
684.9599962
705.8449521
725.4731177
605.8445065
615.6974939
629.7155754
646.9609554
666.459755
687.251568
708.4283858
729.1533401
748.662374
630.38716
640.1018978
653.9241694
670.9303249
690.1619344
710.6751347
731.5795434
752.0572514
771.3649296
654.9551318
664.4853492
678.0482779
694.7403858
713.6240259
733.7760976
754.3267941
774.478921
793.5106293
679.4107578
688.717712
701.9677472
718.2822237
736.748624
756.4681265
776.5940107
796.3513218
815.0403487
703.6292783
712.6813048
725.5743442
741.4583334
759.4493134
778.6755855
798.3155962
817.6179177
835.9055341
727.4996863
736.2716311
748.7723267
764.1830014
781.6508493
800.3335099
819.4362615
838.2322521
856.0676063
750.9250577
759.3976471
771.4786166
786.3823574
803.2890688
821.3873685
839.9106359
858.1574043
875.4972656
773.8224553
781.9816412
793.622635
807.9941438
824.3105759
841.792649
859.7027423
877.3653498
894.1737318
796.1224923
803.9588049
815.145869
828.967261
844.6722458
861.5143032
878.7853699
895.8362506
912.0839476
817.7686433
825.2765693
836.0012335
849.2611407
864.340591
880.5260871
897.1393736
913.5577033
929.2217686
838.716379
845.8937813
856.1522891
868.8449971
883.2910291
898.8098288
914.7529266
930.5239668
945.5871587
858.9321925
865.7797754
875.5723675
887.6969993
901.50709
916.3546546
931.6207511
946.7351872
961.1854068
878.3925681
884.9133919
894.2436487
905.8034063
918.9795978
933.1562017
947.7433475
962.1966328
976.0263697
897.0829355
903.2819819
912.1562291
923.1576994
935.7058596
949.2158505
963.1262467
976.9179365
990.1236924
914.9966396
920.8804279
929.3072079
939.7597407
951.6888975
964.5400235
977.7793518
990.9123695
1003.495261
932.1339467
937.710199
945.6998079
955.6149709
966.936736
979.1396016
991.716618
1004.199278
1016.159457
948.5010993
953.7784496
961.3425307
970.7336208
981.4616478
993.0291302
1004.957388
1016.794528
1028.138977
964.1094314
969.0971766
976.2483693
985.1299868
995.2794996
1006.228996
1017.5171
1028.72118
1039.457143
978.974555
983.6824438
990.4340856
998.8217685
1008.412259
1018.754616
1029.419184
1040.002138
1050.138596
993.1156219
997.5536778
1003.922807
1011.832975
1020.875742
1030.630236
1040.686584
1050.66158
1060.208866
1006.55821
1010.73675
1016.73112
1024.180073
1032.695407
1041.87928
1051.343494
1060.7246
1069.694024
1019.320305
1023.249323
1028.885921
1035.890032
1043.895504
1052.526353
1061.415005
1070.216881
1078.620438
1031.430647
1035.120038
1040.412575
1046.988122
1054.501331
1062.596876
1070.926759
1079.164366
1087.014437
1042.916029
1046.375478
1051.337435
1057.50049
1064.538866
1072.116729
1079.904615
1087.592992
1094.902138
1053.804017
1057.042955
1061.687484
1067.453756
1074.034383
1081.111891
1088.374343
1095.528428
1102.30924
1064.122564
1067.150097
1071.489911
1076.874621
1083.014086
1089.608117
1096.36134
1102.995844
1109.260857
1073.899578
1076.724426
1080.771714
1085.789476
1091.503753
1097.63062
1103.890363
1110.019709
1115.781386
1083.162493
1085.792937
1089.559293
1094.224041
1099.528406
1105.203787
1110.985301
1116.623619
1121.894389
1091.937857
1094.381708
1097.878085
1102.203021
1107.112013
1112.350931
1117.66898
1122.830159
1127.622514
1100.250943
1102.515525
1105.752222
1109.749806
1114.277235
1119.09409
1123.963015
1128.660801
1132.987437
1108.125413
1110.217571
1113.204243
1116.886229
1121.045227
1125.453878
1129.887711
1134.135851
1138.009848
1115.583037
1117.509165
1120.254879
1123.632382
1127.435504
1131.449395
1135.462003
1139.274405
1142.709353
1122.643495
1124.40959
1126.922902
1130.006512
1133.465874
1137.098195
1140.703463
1144.094389
1147.104613
1129.324265
1130.936
1133.225065
1136.024988
1139.152434
1142.416306
1145.628327
1148.612568
1151.213273
1135.640603
1137.103415
1139.176116
1141.70233
1144.509613
1147.418281
1150.251544
1152.844597
1155.052011
1141.605604
1142.924787
1144.788864
1147.051284
1149.550244
1152.117254
1154.586812
1156.805028
1158.636524
1147.23032
1148.411118
1150.074295
1152.082912
1154.285622
1156.524956
1158.646531
1160.507222
1161.981537
1152.523926
1153.571602
1155.041683
1156.806672
1158.725512
1160.651653
1162.441804
1163.963525
1165.100761
1157.493867
1158.413759
1159.698678
1161.230442
1162.87828
1164.506391
1165.982118
1167.184234
1168.006673
1162.145949
1162.943662
1164.051775
1165.361006
1166.751041
1168.097301
1169.27838
1170.182732
1170.713107
1166.485002
1167.166309
1168.106568
1169.206083
1170.354453
1171.437431
1172.34395
1172.971978
1173.232568
1170.519863
1171.09205
1171.875169
1172.778483
1173.70123
1174.539161
1175.191049
1175.56395
1175.576753
1174.263031
1174.733254
1175.369725
1176.090247
1176.803319
1177.414281
1177.831282
1177.970001
1177.756703
1177.726452
1178.101814
1178.602052
1179.153114
1179.672353
1180.074251
1180.275862
1180.201009
1179.782872
1180.922028
1181.209595
1181.583946
1181.978778
1182.31986
1182.530353
1182.53572
1182.267443
1181.665163
1183.86187
1184.068647
1184.32735
1184.57901
1184.757363
1184.793752
1184.62155
1184.179401
1183.412959
1186.558403
1186.691291
1186.844417
1186.965713
1186.996405
1186.875519
1186.54382
1185.946621
1185.035143
1189.024378
1189.090131
1189.147509
1189.150901
1189.048539
1188.786615
1188.312768
1187.578484
1186.540121
1191.27283
1191.277999
1191.249143
1191.146657
1190.925282
1190.537856
1189.938374
1189.084008
1187.935837
1193.316986
1193.267873
1193.161916
1192.965056
1192.638051
1192.139864
1191.430331
1190.471842
1189.229788
1195.170156
1195.072768
1194.898398
1194.61808
1194.198092
1193.60301
1192.798014
1191.750249
1190.42904
1196.845603
1196.705621
1196.471033
1196.117521
1195.616399
1194.937361
1194.050441
1192.927102
1191.540239
1198.356421
1198.179166
1197.892025
1197.474892
1196.903649
1196.152623
1195.196242
1194.00987
1192.569631
1199.715405
1199.505823
1199.173237
1198.701337
1198.070124
1197.258096
1196.243635
1195.005615
1193.523068
1200.934945
1200.697595
1200.326104
1199.807561
1199.125658
1198.262632
1197.200402
1195.920985
1194.406032
1202.026931
1201.76598
1201.361553
1200.803763
1200.079591
1199.174605
1198.073876
1196.762223
1195.223644
1203.002672
1202.721903
1202.289946
1201.699591
1200.940733
1200.001891
1198.870931
1197.535162
1195.98068
1203.872842
1203.575661
1203.121035
1202.504108
1201.717341
1200.751856
1199.597986
1198.245243
1196.681594
1204.64744
1204.336893
1203.863936
1203.225772
1202.41711
1201.431356
1200.261008
1198.89752
1197.330525
1205.33577
1205.014561
1204.527119
1203.872433
1203.047175
1202.046739
1200.865518
1199.496675
1197.931323
1205.946434
1205.616946
1205.118403
1204.451336
1203.614114
1202.60386
1201.416615
1200.047039
1198.48756
1206.48734
1206.151662
1205.644975
1204.969133
1204.123968
1203.108095
1201.918985
1200.552605
1199.002549
1206.96572
1206.625665
1206.1134
1205.431904
1204.582261
1203.564367
1202.37693
1201.017053
1199.479361
1207.388156
1207.045292
1206.529658
1205.845188
1204.994028
1203.977172
1202.794386
1201.443762
1199.920839
1207.760614
1207.416283
1206.899171
1206.214009
1205.363844
1204.350599
1203.174948
1201.835839
1200.329616
1208.088481
1207.743825
1207.226838
1206.542914
1205.695854
1204.688365
1203.521894
1202.196129
1200.708127
1208.376608
1208.03259
1207.517075
1206.836004
1205.993803
1204.993838
1203.83821
1202.527243
1201.058624
1208.629345
1208.28677
1207.773851
1207.096971
1206.261073
1205.270068
1204.126611
1202.83157
1201.383191
1208.850589
1208.510123
1208.000726
1207.329133
1206.500708
1205.519814
1204.389565
1203.1113
1201.683754
1209.043819
1208.706007
1208.200885
1207.535466
1206.715449
1205.745566
1204.629315
1203.368434
1201.962093
1209.212138
1208.87742
1208.377177
1207.718635
1206.907757
1205.949573
1204.847897
1203.604806
1202.219855
1209.358311
1209.027034
1208.532147
1207.881027
1207.079846
1206.133866
1205.04716
1203.822095
1202.458563
1209.484794
1209.15723
1208.668062
1208.024778
1207.233701
1206.300275
1205.228783
1204.021835
1202.679625
1209.593771
1209.270123
1208.786947
1208.151797
1207.371104
1206.450453
1205.394292
1204.205435
1202.884341
1209.687181
1209.367597
1208.890603
1208.263789
1207.493658
1206.585893
1205.545073
1204.374182
1203.073916
1209.766747
1209.451325
1208.980638
1208.362281
1207.602798
1206.70794
1205.682384
1204.529258
1203.249465
1209.833995
1209.522795
1209.058484
1208.448638
1207.699817
1206.817812
1205.807373
1204.671746
1203.412017
1209.890283
1209.583331
1209.125417
1208.524081
1207.785874
1206.916608
1205.921083
1204.802639
1203.562526
1209.936815
1209.634109
1209.182576
1208.589702
1207.862014
1207.005323
1206.024463
1204.922849
1203.701876
1209.974659
1209.676176
1209.230976
1208.646479
1207.929175
1207.084859
1206.118379
1205.033213
1203.830883
1210.004767
1209.710465
1209.271524
1208.695291
1207.988204
1207.156031
1206.203621
1205.1345
1203.950303
1210.027984
1209.737805
1209.305031
1208.736925
1208.039865
1207.219579
1206.28091
1205.227418
1204.060838
1210.045062
1209.758939
1209.332221
1208.772087
1208.084845
1207.276175
1206.350904
1205.312617
1204.163137
1210.05667
1209.774525
1209.353745
1208.801414
1208.123766
1207.32643
1206.414205
1205.390696
1204.2578
1210.063406
1209.785156
1209.370183
1208.825476
1208.157191
1207.370898
1206.471365
1205.462205
1204.345384
1210.065804
1209.79136
1209.382058
1208.844789
1208.18563
1207.410085
1206.522887
1205.527652
1204.426406
1210.064338
1209.793608
1209.389837
1208.859818
1208.209543
1207.444451
1206.569234
1205.587506
1204.501344
1210.059435
1209.792325
1209.393943
1208.870982
1208.229349
1207.474415
1206.610829
1205.642196
1204.570641
1210.051476
1209.787891
1209.394754
1208.878659
1208.245427
1207.50036
1206.64806
1205.692122
1204.634709
1210.040802
1209.780647
1209.392612
1208.883191
1208.258123
1207.522636
1206.681284
1205.737649
1204.693927
1210.027718
1209.770899
1209.387824
1208.88489
1208.26775
1207.541561
1206.710829
1205.779117
1204.74865
1210.012501
1209.758924
1209.380668
1208.884036
1208.274594
1207.557429
1206.736996
1205.816838
1204.799205
1209.995396
1209.744969
1209.371396
1208.880883
1208.278915
1207.570507
1206.760061
1205.851101
1204.845896
1209.976625
1209.729259
1209.360234
1208.875663
1208.28095
1207.581038
1206.780279
1205.882172
1204.889004
1209.956389
1209.711995
1209.347386
1208.868586
1208.280914
1207.589247
1206.797884
1205.910298
1204.928791
1209.934867
1209.69336
1209.33304
1208.859842
1208.279006
1207.59534
1206.813091
1205.935707
1204.965498
1209.91222
1209.673517
1209.317363
1208.849604
1208.275405
1207.599504
1206.826098
1205.958608
1204.999351
1209.888596
1209.652616
1209.300506
1208.83803
1208.270275
1207.601913
1206.837089
1205.979196
1205.030558
1209.864124
1209.63079
1209.282609
1208.825264
1208.263767
1207.602724
1206.846231
1205.997651
1205.059312
1209.838925
1209.60816
1209.263797
1208.811436
1208.256017
1207.602083
1206.853678
1206.014139
1205.085793
1209.813104
1209.584837
1209.244183
1208.796664
1208.247151
1207.600123
1206.859575
1206.028813
1205.110167
1209.786759
1209.560919
1209.223869
1208.781058
1208.237283
1207.596966
1206.864051
1206.041817
1205.132589
1209.759976
1209.536495
1209.20295
1208.764714
1208.226519
1207.592725
1206.867229
1206.05328
1205.153201
1209.732834
1209.511647
1209.18151
1208.747723
1208.214954
1207.587502
1206.86922
1206.063325
1205.172136
1209.705403
1209.486448
1209.159625
1208.730167
1208.202675
1207.581393
1206.870127
1206.072064
1205.189517
1209.677747
1209.460963
1209.137366
1208.712119
1208.189762
1207.574484
1206.870044
1206.079601
1205.20546
1209.649923
1209.435252
1209.114794
1208.693646
1208.176289
1207.566854
1206.869059
1206.086031
1205.220069
1209.621982
1209.409369
1209.091968
1208.674811
1208.162321
1207.558578
1206.867252
1206.091444
1205.233443
1209.59397
1209.383362
1209.068937
1208.655669
1208.14792
1207.54972
1206.864697
1206.095921
1205.245674
1209.565929
1209.357273
1209.045749
1208.636269
1208.133141
1207.540343
1206.861462
1206.099539
1205.256845
1209.537894
1209.331141
1209.022445
1208.616657
1208.118034
1207.530503
1206.85761
1206.102367
1205.267035
1209.509898
1209.305
1208.999061
1208.596875
1208.102644
1207.52025
1206.853197
1206.104469
1205.276317
1209.481967
1209.278879
1208.975629
1208.576956
1208.087012
1207.509629
1206.848275
1206.105905
1205.284758
1209.454124
1209.252802
1208.952177
1208.556933
1208.071172
1207.498683
1206.842892
1206.106729
1205.292419
1209.426388
1209.22679
1208.928727
1208.536831
1208.055155
1207.487445
1206.837089
1206.106989
1205.299357
1209.398768
1209.200854
1208.905293
1208.516668
1208.038984
1207.475944
1206.830899
1206.106726
1205.305623
1209.371269
1209.174999
1208.881883
1208.496455
1208.022673
1207.4642
1206.824351
1206.105976
1205.311261
1209.343881
1209.149218
1208.858493
1208.47619
1208.006226
1207.452222
1206.81746
1206.104763
1205.316305
1209.316581
1209.12349
1208.835103
1208.455857
1207.98963
1207.440003
1206.810226
1206.103097
1205.320778
1209.289325
1209.09777
1208.811669
1208.435416
1207.972848
1207.427512
1206.802626
1206.100967
1205.324683
1209.262036
1209.071983
1208.788117
1208.414793
1207.95581
1207.414683
1206.794604
1206.098328
1205.327994
1209.234595
1209.046007
1208.764325
1208.393865
1207.938395
1207.4014
1206.786051
1206.095086
1205.330637
1209.206819
1209.019658
1208.740105
1208.372443
1207.920412
1207.387474
1206.776784
1206.091073
1205.332467
1209.178442
1208.992663
1208.715178
1208.350239
1207.901566
1207.372607
1206.766511
1206.086008
1205.333235
1209.149076
1208.964628
1208.689136
1208.326831
1207.881422
1207.356355
1206.754784
1206.079456
1205.332529
1209.118176
1208.934992
1208.661398
1208.301615
1207.859352
1207.338067
1206.740939
1206.070754
1205.329715
1209.084987
1208.902976
1208.631154
1208.273742
1207.834463
1207.31681
1206.724015
1206.058929
1205.323836
1209.048474
1208.867514
1208.59729
1208.242038
1207.805519
1207.291286
1206.702656
1206.042592
1205.313505
1209.007247
1208.827169
1208.558301
1208.204915
1207.770835
1207.25971
1206.67499
1206.019804
1205.296755
1208.959469
1208.780038
1208.512192
1208.160259
1207.728161
1207.219688
1206.638484
1205.987916
1205.270872
1208.902744
1208.72364
1208.456353
1208.105298
1207.674537
1207.168059
1206.589775
1205.94339
1205.232189
1208.833994
1208.654784
1208.387425
1208.036461
1207.606142
1207.100727
1206.524488
1205.881592
1205.175871
1208.749326
1208.569431
1208.301158
1207.949221
1207.518121
1207.012475
1206.437032
1205.796571
1205.095662
1208.643886
1208.462544
1208.192243
1207.837922
1207.404407
1206.896773
1206.32039
1205.680832
1204.98364
1208.511702
1208.327929
1208.054157
1207.695612
1207.257533
1206.745578
1206.165902
1205.5251
1204.829964
1208.345535
1208.158078
1207.878994
1207.513869
1207.068458
1206.549144
1205.963066
1205.318103
1204.622629
1208.136722
1207.944014
1207.657308
1207.282638
1206.826394
1206.295847
1205.699353
1205.046373
1204.347265
1207.875044
1207.675152
1207.377973
1206.99009
1206.518659
1205.972034
1205.360045
1204.694091
1203.986959
1207.548596
1207.339177
1207.028062
1206.622497
1206.130563
1205.561907
1204.928133
1204.242971
1203.52215
1207.143693
1206.921947
1206.592752
1206.164153
1205.645326
1205.047457
1204.38425
1203.672213
1202.930585
1206.644804
1206.407432
1206.055276
1205.597328
1205.044053
1204.408445
1203.706677
1202.958519
1202.187357
1206.034521
1205.777695
1205.39691
1204.90227
1204.305753
1203.62245
1202.871411
1202.0762
1201.265031
1205.293577
1205.012915
1204.59701
1204.05727
1203.407421
1202.664982
1201.852311
1200.997345
1200.133861
1204.400905
1204.091461
1203.633109
1203.03877
1202.324186
1201.509656
1200.621314
1199.692087
1198.762099
1203.333755
1202.990019
1202.481058
1201.821542
1201.029515
1200.128438
1199.148726
1198.128942
1197.11638
1202.067856
1201.683771
1201.115233
1200.378915
1199.495479
1198.491957
1197.403577
1196.275217
1195.162198
1200.577634
1200.146629
1199.508786
1198.683063
1197.693079
1196.569872
1195.35404
1194.097486
1192.864431
1198.836475
1198.351512
1197.633951
1196.705339
1195.592617
1194.331288
1192.9679
1191.562108
1190.187927
1196.817037
1196.270675
1195.462396
1194.416659
1193.164117
1191.745216
1190.213058
1188.635788
1187.098111
1194.491604
1193.87608
1192.96561
1191.787917
1190.377772
1188.781066
1187.058066
1185.286152
1183.561615
1191.832474
1191.139791
1190.115328
1188.790435
1187.204427
1185.409154
1183.472671
1181.482333
1179.546894
1188.812373
1188.03441
1186.883974
1185.396425
1183.616063
1181.601222
1179.428358
1177.195537
1175.024826
1185.404895
1184.533515
1183.245117
1181.579466
1179.586292
1177.330937
1174.898876
1172.399587
1169.969263
1181.584949
1180.61212
1179.173937
1177.314969
1175.090828
1172.574383
1169.86072
1167.071406
1164.357523
1177.329204
1176.247119
1174.647672
1172.580633
1170.10794
1167.310493
1164.293555
1161.19141
1158.170781
1172.616525
1171.417719
1169.646043
1167.356856
1164.618854
1161.521431
1158.1806
1154.743968
1151.394514
1167.428375
1166.105841
1164.151646
1161.627112
1158.608128
1155.19307
1151.509154
1147.717829
1144.018808
1161.749168
1160.296462
1158.150327
1155.378414
1152.064182
1148.315401
1144.270872
1140.106253
1136.038422
1155.566741
1153.97813
1151.631675
1148.601695
1144.979525
1140.882634
1136.461743
1131.907037
1127.45288
1148.872737
1147.143276
1144.589254
1141.291917
1137.350757
1132.893207
1128.082161
1123.122562
1118.266468
1141.662688
1139.788218
1137.020541
1133.448048
1129.178608
1124.349821
1119.136921
1113.759743
1108.488141
1133.935972
1131.913171
1128.926977
1125.073099
1120.46794
1115.259396
1109.635126
1103.829893
1098.131337
1125.695849
1123.522264
1120.313961
1116.174084
1111.227668
1105.632955
1099.590032
1093.348528
1087.213758
1116.94942
1114.62348
1111.190764
1106.761915
1101.470623
1095.485453
1089.018834
1082.335107
1075.757063
1107.707511
1105.228535
1101.570399
1096.851246
1091.21338
1084.835585
1077.942447
1070.812774
1063.786537
1097.984489
1095.352683
1091.469419
1086.460286
1080.476089
1073.705628
1066.385351
1058.80815
1051.33078
1087.797993
1085.014456
1080.90767
1075.610574
1069.282298
1062.121369
1054.375629
1046.351411
1038.421551
1077.168574
1074.23529
1069.907914
1064.32663
1057.658723
1050.112127
1041.945465
1033.477308
1025.094548
1066.119209
1063.038987
1058.495217
1052.635265
1045.634536
1037.710351
1029.131959
1020.229007
1011.396605
1054.674729
1051.451049
1046.696068
1040.564272
1033.239292
1024.948461
1015.973925
1006.663733
997.277908
1042.861362
1039.498149
1034.537661
1028.14116
1020.499886
1011.849872
1002.482912
992.5859007
982.9206144
1030.70657
1027.208147
1022.048402
1015.394955
1007.446101
998.2813158
988.5177992
978.3689328
968.2791448
1018.238988
1014.610138
1009.2581
1002.35642
993.9406248
984.5885888
974.4497494
963.90208
953.4023808
1005.488205
1001.734174
996.0306345
988.8816077
980.3375116
970.6566749
960.1566147
949.2252153
938.3311737
992.3129981
988.434491
982.7137207
975.3351491
966.5156321
956.5203768
945.6748657
934.3763463
923.1046235
979.0684745
975.0755346
969.1859037
961.5892228
952.5080124
942.2139802
931.0401037
919.3923637
907.760846
965.6282464
961.527251
955.4781832
947.675573
938.3472925
927.7711424
916.2870801
904.3091631
892.3369354
952.0222695
947.8199044
941.6212848
933.6255305
924.0655296
913.224752
901.4496049
889.1615584
876.8687966
938.2801564
933.9833577
927.6454398
919.4698085
909.6940195
898.6067817
886.5604165
873.9831428
861.3909697
924.431001
920.0468937
913.5802122
905.2383402
895.2631478
883.9481501
871.6510484
858.8061489
845.9364731
910.5032038
906.0390485
899.4543404
890.9601318
880.8022527
869.2785934
856.7517043
843.6613218
830.5366714
896.5243314
891.9874743
885.2956058
876.6631379
866.3395077
854.6265539
841.89115
828.5778133
815.2211702
882.5209952
877.9188221
871.1307202
862.374155
851.9018215
840.019085
827.0966247
813.5830974
800.017737
868.5187497
863.8586426
856.9852319
848.1187332
837.5147553
825.4817761
812.3937717
798.7029086
784.9522459
854.5420069
849.831305
842.8834482
833.9211039
823.2024575
811.0386936
797.8065881
783.9612002
770.0486466
840.6139679
835.8599299
828.848373
819.8041239
808.9876145
796.7123408
783.3573935
769.3801225
755.32895
826.7565669
821.966338
814.9016604
805.7892346
794.8914176
782.5236326
769.0668137
754.9800158
740.8132377
812.9904314
808.1710125
801.0635819
791.8964353
780.9335439
768.4918849
754.9537797
740.7794243
726.5196849
799.3348532
794.4930743
787.353006
778.1442705
767.1321502
754.6348175
741.035544
726.7951212
712.4645971
785.8077737
780.9502701
773.787392
764.5498266
753.5038788
740.9685722
727.327707
713.0421466
698.6624606
772.4257792
767.5589693
760.3827897
751.128743
740.0638781
727.5077395
713.8442539
699.5338553
685.1260014
759.2041032
754.3341734
747.1538576
737.8952339
726.8258296
714.2653953
700.5976012
686.2819737
671.8662538
746.1566466
741.2895365
734.1138849
724.8621167
713.8019842
701.2531456
687.5986505
673.2966646
658.8926358
733.2960004
728.4373915
721.2748232
712.040849
701.0032066
688.4811787
674.8568503
660.5865977
646.2130286
720.6334771
715.7887844
708.6473242
699.4415726
688.4390251
675.9583223
662.3802619
648.1590252
633.8338612
708.1791484
703.3535146
696.2407849
687.0731622
676.1176868
663.6921073
650.1756292
636.0198584
621.7601963
695.9418888
691.1401808
684.0633955
674.9432797
664.0462182
651.6888327
638.2484515
624.1737481
609.9958171
683.9294228
679.1562306
672.1221943
663.0584327
652.2304876
639.9536341
626.6030574
612.6241653
598.5433159
672.1483778
667.4080155
660.4231246
651.4240346
640.6752692
628.4905528
615.2426799
601.3734823
587.4041808
660.6043394
655.9008476
648.971093
640.0444662
629.3843092
617.3026062
604.1695315
590.423053
576.5788816
649.3019074
644.6390569
637.77003
628.9231384
618.3603918
606.3918579
593.3848788
579.7732924
566.0669541
638.2447535
633.6260502
626.8229498
618.0625557
607.6054049
595.7594868
582.8891155
569.4237533
555.8670809
627.4356791
622.8643701
616.1320115
607.4643784
597.1204062
585.4058561
572.6818345
559.373202
545.977171
616.8766732
612.3557538
605.698579
597.129485
586.9056865
575.3305795
562.7618966
549.6196901
536.3944343
606.5689696
602.1011914
595.5232805
587.0580329
576.9608331
565.5325857
553.1274979
540.1606239
527.1154539
596.5131035
592.1009826
585.6060665
577.2495177
567.28479
556.010181
543.7762336
530.9928305
518.1362546
586.7089667
582.3547926
575.946266
567.7028301
557.8759164
546.7611087
534.7051587
522.1126206
509.452367
577.1558602
572.8617055
566.5426405
558.4163112
548.732042
537.7826058
525.9108466
513.5158469
501.0588886
567.8525456
563.620275
557.3934353
549.3878036
539.8505199
529.0714571
517.3894444
505.1979618
492.9505413
558.7972914
554.6285713
548.4964259
540.6146989
531.2282753
520.6240456
509.1367263
497.1540737
485.1217256
549.987916
545.884223
539.8489588
532.0939767
522.861844
512.436393
501.1481362
489.3789898
477.5665717
541.4218248
537.3844522
531.447982
523.8222313
514.7474021
504.5042017
493.4188469
481.867296
470.2789917
533.0960425
529.126109
523.29012
515.7958049
506.8809249
496.8229789
485.9438017
474.6133034
463.2526834
525.0073709
521.1058551
515.3717968
508.0107897
499.258097
489.3879412
478.717698
467.6111575
456.4812061
517.1523457
513.3200751
507.6891662
500.4630321
491.8743867
482.194117
471.7350748
460.8548708
449.9580105
509.5272592