/*--------------------------------*- C++ -*----------------------------------*\
| =========                 |                                                 |
| \\      /  F ield         | OpenFOAM: The Open Source CFD Toolbox           |
|  \\    /   O peration     | Version:  2212                                  |
|   \\  /    A nd           | Website:  www.openfoam.com                      |
|    \\/     M anipulation  |                                                 |
\*---------------------------------------------------------------------------*/
FoamFile
{
    version     2.0;
    format      ascii;
    arch        "LSB;label=32;scalar=64";
    class       volVectorField;
    location    "20.00000000";
    object      U_0;
}
// * * * * * * * * * * * * * * * * * * * * * * * * * * * * * * * * * * * * * //

dimensions      [0 1 -1 0 0 0 0];

internalField   nonuniform List<vector> 
3000
(
(0.06774688434 -0.001860896749 1.372319871e-11)
(0.06790902599 -0.003176106791 2.78436756e-11)
(0.06825900055 -0.004944188996 5.650522972e-11)
(0.06885329243 -0.007252377579 1.203261914e-10)
(0.06972843024 -0.01016463282 2.772804299e-10)
(0.07078254516 -0.01401439741 9.238522492e-11)
(0.07107896613 -0.01721873566 3.426296942e-11)
(0.06716024082 -0.02081136748 1.503474034e-11)
(0.04593767604 -0.01011313962 3.648516182e-12)
(0.07324788182 -0.004019011336 6.065259938e-11)
(0.07420362499 -0.00658269502 1.175906042e-10)
(0.07551324559 -0.00950140652 2.061833373e-10)
(0.07718394701 -0.0125058296 3.471025639e-10)
(0.07887367238 -0.01529741499 5.688355871e-10)
(0.07945099739 -0.01744310143 2.703391454e-10)
(0.07679865258 -0.01698120074 1.272272561e-10)
(0.06576974631 -0.01429653799 5.246778607e-11)
(0.03740720979 -0.003949620775 1.425351299e-11)
(0.08202637997 -0.005379206194 1.114001083e-10)
(0.08300141602 -0.008499052417 2.062210772e-10)
(0.08415020007 -0.01169310403 3.38469499e-10)
(0.08502848432 -0.01442355886 5.178994408e-10)
(0.08471352649 -0.01623825133 7.448234076e-10)
(0.08156875076 -0.01646434754 3.908238163e-10)
(0.07319447822 -0.01416947835 1.935554336e-10)
(0.05482440245 -0.009345280538 9.078539891e-11)
(0.02362192961 -0.001717199911 2.555080519e-11)
(0.0916368217 -0.005334822 1.215425887e-10)
(0.09225434551 -0.00821612389 2.283455571e-10)
(0.09265205393 -0.01087576051 4.027106502e-10)
(0.09206980636 -0.01269825638 6.105774337e-10)
(0.08933285328 -0.01329156364 8.667746742e-10)
(0.08275054522 -0.01233002645 4.711435057e-10)
(0.07028797179 -0.009246037818 2.548951526e-10)
(0.04939851005 -0.004901525038 1.255473324e-10)
(0.01957701966 -0.0006580110748 3.570299271e-11)
(0.1001159742 -0.004786785645 -1.454776433e-10)
(0.09991802697 -0.00721925545 -3.792996894e-10)
(0.09896040397 -0.009254616289 1.861732518e-10)
(0.09634399277 -0.01031769264 4.550438432e-10)
(0.09091275446 -0.01019708013 5.55263485e-10)
(0.08122468748 -0.0087385156 4.115557223e-10)
(0.06599650479 -0.005991856703 2.599325842e-10)
(0.04420194536 -0.002757573913 1.38642637e-10)
(0.01627803018 -0.0002513205624 4.056901548e-11)
(0.107392011 -0.003935526073 -7.390255431e-11)
(0.1062844428 -0.005820388826 -5.947382499e-11)
(0.1039264046 -0.007257464035 2.226733347e-10)
(0.09944042315 -0.007779551135 4.828943383e-10)
(0.09183486572 -0.007323221255 7.608229861e-10)
(0.08006567626 -0.005894565689 4.545166196e-10)
(0.06339737387 -0.003770177781 2.798243165e-10)
(0.04152248909 -0.001565811412 1.509801116e-10)
(0.01500053733 -0.0001160701659 4.461289089e-11)
(0.1129575423 -0.003102349842 -2.795423244e-10)
(0.110939914 -0.004518709434 -5.897642129e-10)
(0.1072563537 -0.005508487523 3.178814392e-11)
(0.1011436738 -0.005721422073 3.408821673e-10)
(0.09182974726 -0.005185428729 4.801750326e-10)
(0.07861531492 -0.003984660461 3.935230648e-10)
(0.06113580222 -0.002421293993 2.754731926e-10)
(0.0394251735 -0.0009363917699 1.603977891e-10)
(0.01402032788 -4.704662277e-05 4.922962017e-11)
(0.1172803888 -0.002364437755 -1.598297255e-10)
(0.1144720385 -0.003396376543 -1.819833394e-10)
(0.1096853665 -0.004062202996 8.545327157e-11)
(0.1023062096 -0.004111294137 3.696643747e-10)
(0.09176977566 -0.003615568454 6.948541042e-10)
(0.07763235606 -0.002683171838 4.616968128e-10)
(0.05974028946 -0.00157431828 3.384799364e-10)
(0.03823930366 -0.0005852909029 2.166777628e-10)
(0.01354775932 -2.833024992e-05 6.831682239e-11)
(0.1204273636 -0.001769409143 -1.729751335e-10)
(0.116962291 -0.0025149532 -2.930994463e-10)
(0.1112891368 -0.002962715884 -4.804225231e-10)
(0.102942515 -0.00293848151 -2.335771506e-10)
(0.09152977179 -0.002525913942 2.931841578e-10)
(0.07678395829 -0.001827780774 4.482096256e-10)
(0.05866818132 -0.001045791009 6.013973145e-10)
(0.03735835167 -0.00037740313 4.593379016e-10)
(0.01318623775 -1.402039325e-05 1.233080348e-10)
(0.1227659646 -0.001308003464 -1.300579338e-10)
(0.1187830388 -0.001842131341 -1.926895312e-10)
(0.1124299705 -0.002143710056 -2.072426703e-10)
(0.1033720293 -0.002092857892 -3.32718203e-11)
(0.09134839613 -0.001768672904 2.200221756e-10)
(0.07620844151 -0.001257558173 3.383210067e-10)
(0.05797443849 -0.0007088603692 3.637740212e-10)
(0.03681341378 -0.0002531717072 2.599952125e-10)
(0.01298021417 -1.025445378e-05 8.123205664e-11)
(0.1244432334 -0.000960921016 1.855567281e-10)
(0.1200607549 -0.001344275706 5.231719123e-10)
(0.1131941772 -0.001549826552 1.882710103e-10)
(0.1036159168 -0.001495390199 2.507963633e-10)
(0.09116265633 -0.001248395532 5.103835629e-10)
(0.07575986939 -0.0008769820636 3.787232216e-10)
(0.05745973004 -0.0004892593778 2.991062339e-10)
(0.03641288325 -0.0001730939113 1.933448484e-10)
(0.01282357208 -6.240761913e-06 6.113273375e-11)
(0.1256675238 -0.0007042882182 1.818065759e-10)
(0.1209833222 -0.0009798671411 2.911557375e-10)
(0.1137357385 -0.00112172882 2.30630626e-10)
(0.1037812868 -0.001073113881 2.62655325e-10)
(0.09102700393 -0.0008883968001 3.516722833e-10)
(0.07544783771 -0.0006194638474 3.359453199e-10)
(0.05711006687 -0.000344003567 2.964698914e-10)
(0.03614655405 -0.0001218095019 2.060946372e-10)
(0.01272337361 -4.874086681e-06 6.613067223e-11)
(0.1265448116 -0.0005162360749 2.592746962e-11)
(0.1216350197 -0.0007155515141 -7.457121471e-11)
(0.1141063345 -0.0008150338804 -4.492708027e-10)
(0.1038795656 -0.0007751467154 -2.88738109e-10)
(0.09091220939 -0.0006382241983 1.375882595e-10)
(0.07521191608 -0.0004430290404 3.374671475e-10)
(0.0568516652 -0.0002453762861 5.477905517e-10)
(0.03594992425 -8.683351701e-05 4.381945342e-10)
(0.01264748966 -3.361424681e-06 1.131837487e-10)
(0.1271816118 -0.0003792573828 -3.161047333e-11)
(0.1221045763 -0.0005242121696 -9.8659315e-11)
(0.1143696825 -0.0005950232523 -1.901739373e-10)
(0.1039460629 -0.0005637594889 -8.829007639e-11)
(0.09082727558 -0.0004627201943 1.169631182e-10)
(0.07504285688 -0.0003205737742 2.350631858e-10)
(0.05666876718 -0.0001776131162 2.702815269e-10)
(0.03581201859 -6.31230697e-05 1.81308983e-10)
(0.01259517675 -2.628431965e-06 5.397713682e-11)
(0.1276395388 -0.0002795087631 -2.564346489e-11)
(0.1224389648 -0.0003856932591 -4.070352438e-11)
(0.1145529295 -0.0004368523842 -1.771460736e-11)
(0.1039865199 -0.0004130031864 1.231130931e-10)
(0.09075917291 -0.000338482646 4.073242117e-10)
(0.07491540021 -0.0002343919335 2.367493307e-10)
(0.05653253685 -0.0001300627366 1.133269039e-10)
(0.03570912453 -4.633559379e-05 -9.179635312e-11)
(0.01255554622 -1.870159157e-06 -1.329947908e-11)
(0.1279715973 -0.0002068878413 -4.440365054e-12)
(0.1226800074 -0.0002851798735 7.270067386e-12)
(0.1146832798 -0.000322631435 5.148949411e-11)
(0.1040131066 -0.0003047382424 1.38427705e-10)
(0.09070756018 -0.0002497353284 2.220974956e-10)
(0.07482158242 -0.0001731076678 1.733510299e-10)
(0.05643307031 -9.650288619e-05 9.594723106e-11)
(0.0356344617 -3.45074828e-05 1.995620951e-11)
(0.01252700644 -1.303118704e-06 4.094528902e-12)
(0.1282111542 -0.0001538360202 1.256092611e-11)
(0.1228525546 -0.0002119649539 3.311048908e-11)
(0.1147746812 -0.0002396988808 7.137012315e-11)
(0.1040288636 -0.0002263879072 1.199750376e-10)
(0.09066667569 -0.0001856526525 1.49113587e-10)
(0.07475046836 -0.0001288754232 1.265531354e-10)
(0.05635830928 -7.216785909e-05 8.177433425e-11)
(0.03557862246 -2.585525615e-05 3.814710918e-11)
(0.0125054597 -8.650498159e-07 1.037130832e-11)
(0.1283847764 -0.0001149772924 2.188370356e-11)
(0.1229768366 -0.0001584052448 4.315371964e-11)
(0.114839412 -0.0001791251784 7.141359272e-11)
(0.1040383127 -0.0001692285174 9.82762609e-11)
(0.09063495022 -0.0001388773647 1.085874607e-10)
(0.07469699905 -9.651129513e-05 9.369409104e-11)
(0.05630255407 -5.412317613e-05 6.501957337e-11)
(0.03553717937 -1.941570392e-05 3.502057656e-11)
(0.0124895116 -6.590326574e-07 1.008566249e-11)
(0.1285102257 -8.64198757e-05 2.505617544e-11)
(0.1230659177 -0.000119070255 4.401203081e-11)
(0.1148847022 -0.000134655584 6.379374144e-11)
(0.1040430843 -0.0001272450804 7.827258518e-11)
(0.09060968961 -0.000104427116 8.021734044e-11)
(0.07465606518 -7.255396946e-05 6.781019288e-11)
(0.05626031229 -4.054122962e-05 4.728181652e-11)
(0.0355058449 -1.448366212e-05 2.584365221e-11)
(0.01247740372 -5.199488178e-07 7.406558924e-12)
(0.12860133 -6.542747856e-05 2.384879342e-11)
(0.1231301804 -9.01570791e-05 3.891905931e-11)
(0.1149167122 -0.0001019495584 5.092280359e-11)
(0.1040453458 -9.630924598e-05 5.527619263e-11)
(0.09059003567 -7.891958557e-05 4.963301422e-11)
(0.0746251638 -5.466261936e-05 3.640726827e-11)
(0.05622883922 -3.014086937e-05 2.181293388e-11)
(0.03548272217 -1.059561184e-05 9.895891114e-12)
(0.01246845478 -4.343833876e-07 2.315777611e-12)
(0.1286679332 -5.005857222e-05 1.855609394e-11)
(0.1231769072 -6.897654221e-05 2.693090287e-11)
(0.1149395951 -7.796560803e-05 2.479722747e-11)
(0.1040462986 -7.355946844e-05 -7.103168861e-12)
(0.09057494045 -6.004268811e-05 -3.748446002e-11)
(0.0746019711 -4.12636071e-05 -5.227541098e-11)
(0.05620558961 -2.205183718e-05 -4.142149736e-11)
(0.03546555624 -7.443268889e-06 -2.594953441e-11)
(0.01246188117 -3.773023317e-07 -8.486367084e-12)
(0.1287180443 -3.906120847e-05 5.281306266e-11)
(0.1232122622 -5.383746439e-05 1.119280274e-10)
(0.114957281 -6.085143148e-05 2.123289422e-10)
(0.1040478035 -5.735116698e-05 -4.984164962e-10)
(0.09056473562 -4.663531771e-05 -6.047460616e-10)
(0.07458594082 -3.171597048e-05 -5.071675353e-10)
(0.0561897745 -1.649655949e-05 -2.231548864e-10)
(0.03545377623 -4.993035974e-06 -9.948949177e-11)
(0.0124572841 3.094708978e-08 -2.728650213e-11)
(0.1287582445 -3.152210817e-05 2.686532383e-11)
(0.123241435 -4.348884418e-05 2.706579649e-11)
(0.1149732534 -4.921893152e-05 -3.440981749e-11)
(0.1040517352 -4.63975519e-05 -2.968921798e-10)
(0.09055997905 -3.780185782e-05 -3.850446797e-10)
(0.07457697842 -2.571706774e-05 -3.37525831e-10)
(0.05618098263 -1.366927405e-05 -2.123796519e-10)
(0.03544810802 -3.826210997e-06 -1.099472951e-10)
(0.01245494786 -8.141821097e-08 -3.158176553e-11)
(0.1287945032 -2.704885695e-05 -6.308704552e-12)
(0.1232694175 -3.748051995e-05 -3.371217603e-11)
(0.1149913821 -4.268807573e-05 -1.034437189e-10)
(0.1040610799 -4.059203258e-05 -2.182717664e-10)
(0.09056349121 -3.334798199e-05 -2.63851243e-10)
(0.0745775842 -2.267303178e-05 -2.360030344e-10)
(0.0561811282 -1.225180061e-05 -1.674378359e-10)
(0.0354490222 -3.162902852e-06 -9.49741844e-11)
(0.01245598112 -7.00249402e-07 -2.815076645e-11)
(0.1288333442 -2.535935798e-05 -2.838788631e-11)
(0.1233020125 -3.54048185e-05 -6.270320308e-11)
(0.1150164916 -4.077474518e-05 -1.16727198e-10)
(0.1040792625 -3.933478376e-05 -1.766199356e-10)
(0.09057607859 -3.282995418e-05 -2.026507348e-10)
(0.07458718954 -2.23910282e-05 -1.842657474e-10)
(0.05618968823 -1.224809887e-05 -1.357090523e-10)
(0.03545656015 -2.660982288e-06 -7.840377464e-11)
(0.01246031889 -1.14683405e-06 -2.340751525e-11)
(0.1288811795 -2.617249954e-05 -3.913944373e-11)
(0.1233449684 -3.681499024e-05 -7.235420909e-11)
(0.1150535347 -4.286173896e-05 -1.117483084e-10)
(0.104110785 -4.186035683e-05 -1.457970208e-10)
(0.09060321404 -3.562143067e-05 -1.575091282e-10)
(0.07461104115 -2.488484843e-05 -1.41636484e-10)
(0.05621084829 -1.432997683e-05 -1.055360991e-10)
(0.03547313022 -2.991568671e-06 -6.170322803e-11)
(0.01246831272 -1.913257325e-06 -1.854497231e-11)
(0.1289455225 -2.978447658e-05 -4.22178818e-11)
(0.1234052909 -4.225928374e-05 -7.186009994e-11)
(0.1151088776 -4.981464962e-05 -1.006670982e-10)
(0.1041613463 -4.943803492e-05 -1.209269638e-10)
(0.09064970993 -4.299371878e-05 -1.245447134e-10)
(0.07465358997 -3.079547603e-05 -1.098477461e-10)
(0.05624808348 -1.853739108e-05 -8.187484595e-11)
(0.03550105316 -3.868823047e-06 -4.817633413e-11)
(0.01248100127 -3.002863318e-06 -1.454127696e-11)
(0.1290360886 -3.649109849e-05 -4.091383919e-11)
(0.1234924209 -5.219214073e-05 -6.655991756e-11)
(0.1151916047 -6.223978099e-05 -8.824105617e-11)
(0.1042395136 -6.274188464e-05 -1.01289116e-10)
(0.09072316582 -5.564743686e-05 -1.011783498e-10)
(0.07472117293 -4.071172119e-05 -8.789433944e-11)
(0.0563068091 -2.531516456e-05 -6.528072424e-11)
(0.03554446854 -5.52727164e-06 -3.848751914e-11)
(0.01250013792 -4.587941206e-06 -1.164869207e-11)
(0.1291645323 -4.667039953e-05 -3.602266034e-11)
(0.1236177218 -6.716794537e-05 -5.648616976e-11)
(0.1153126442 -8.08158635e-05 -7.308288182e-11)
(0.1043556393 -8.245438575e-05 -9.469321777e-11)
(0.09083325767 -7.424043309e-05 -9.202041348e-11)
(0.07482251526 -5.531137687e-05 -7.735842528e-11)
(0.05639414576 -3.53001639e-05 -5.636603384e-11)
(0.03560818164 -8.248270253e-06 -3.297692653e-11)
(0.01252752141 -6.802197641e-06 -9.97215216e-12)
(0.1293453254 -6.072848465e-05 2.097748615e-11)
(0.1237954171 -8.779323057e-05 7.296368056e-11)
(0.115485818 -0.0001063023443 2.512331222e-10)
(0.1045229423 -0.0001094028363 -3.321636774e-10)
(0.09099228875 -9.958123552e-05 -1.564060501e-10)
(0.07496853489 -7.524732066e-05 -9.391552971e-11)
(0.05651898629 -4.89396107e-05 -5.850788918e-11)
(0.03569824152 -1.217141352e-05 -3.202197774e-11)
(0.01256542339 -9.76376967e-06 -9.46323043e-12)
(0.1295959153 -7.903831616e-05 2.659660576e-11)
(0.1240427212 -0.0001146095914 4.48213877e-11)
(0.1157279403 -0.0001393530302 3.629331088e-11)
(0.1047575718 -0.0001442644531 -1.159759366e-10)
(0.09121533161 -0.0001322922642 -1.082913698e-10)
(0.07517260165 -0.0001010074576 -7.960799783e-11)
(0.05669212781 -6.656845636e-05 -5.26624598e-11)
(0.03582189061 -1.739569181e-05 -2.921918804e-11)
(0.01261650039 -1.358145016e-05 -8.650475118e-12)
(0.1299371351 -0.0001018814847 1.593171689e-11)
(0.1243802321 -0.0001480096003 1.68861483e-11)
(0.1160591653 -0.0001804183261 -5.790767386e-12)
(0.1050788836 -0.000187471517 -6.102297302e-11)
(0.09152039199 -0.0001727218549 -7.163523781e-11)
(0.07545058947 -0.0001328182202 -6.090286716e-11)
(0.05692629434 -8.831050799e-05 -4.357806862e-11)
(0.03598759436 -2.392985717e-05 -2.520514554e-11)
(0.01268381849 -1.834208135e-05 -7.602918169e-12)
(0.1303933398 -0.0001293625622 5.389945871e-12)
(0.1248320485 -0.0001881161059 5.033221587e-13)
(0.1165030767 -0.0002295922704 -1.708507942e-11)
(0.1055094986 -0.0002390472634 -4.232849851e-11)
(0.09192843816 -0.0002207952608 -5.192920038e-11)
(0.07582086998 -0.0001705368468 -4.838350633e-11)
(0.05723608307 -0.0001140116267 -3.779281944e-11)
(0.03620496279 -3.166736168e-05 -2.354499375e-11)
(0.01277080633 -2.409739107e-05 -7.383716608e-12)
(0.1309924965 -0.0001613436158 -2.008609672e-12)
(0.125425834 -0.0002346835779 -8.870343876e-12)
(0.1170867133 -0.0002864887769 -2.220583562e-11)
(0.1060752755 -0.0002984749745 -3.766073673e-11)
(0.09246331923 -0.0002758974741 -4.704201239e-11)
(0.07630418492 -0.0002135651416 -4.957430238e-11)
(0.05763781952 -0.0001431848674 -4.58313685e-11)
(0.03648462583 -4.036990533e-05 -3.275691787e-11)
(0.0128812046 -3.085688385e-05 -1.034764184e-11)
(0.1317661113 -0.0001973815997 -1.376694584e-11)
(0.1261927216 -0.0002870093216 -2.317622358e-11)
(0.1178404368 -0.0003501374402 -3.533816107e-11)
(0.1068051298 -0.0003645937464 -5.063871809e-11)
(0.09315153088 -0.0003367826236 -6.817629666e-11)
(0.07692337486 -0.000260787279 -8.859015945e-11)
(0.05814928804 -0.0001749820037 -1.0672756e-10)
(0.03683802054 -4.966572655e-05 -8.393902382e-11)
(0.01301898268 -3.858259214e-05 -1.916317233e-11)
(0.1327490334 -0.0002366812613 -8.926909879e-10)
(0.1271670898 -0.0003438686997 -3.160479695e-10)
(0.1187976664 -0.0004189151126 -1.477267242e-10)
(0.1077307137 -0.0004355447758 -1.176588387e-10)
(0.09402184242 -0.0004015438117 -1.466914639e-10)
(0.07770297448 -0.0003105642313 -2.30468349e-10)
(0.05878935339 -0.0002082064561 -4.224003721e-10)
(0.03727711122 -5.906444066e-05 -3.078035279e-10)
(0.0131882348 -4.718855393e-05 1.258614712e-11)
(0.1339791164 -0.0002780721433 -3.833456211e-10)
(0.1283861905 -0.0004034836985 -2.669921712e-10)
(0.1199944498 -0.0004905233039 -1.809868045e-10)
(0.1088859263 -0.0005087722016 -1.548385093e-10)
(0.09510475637 -0.0004676451324 -1.675654564e-10)
(0.07866865994 -0.000360785478 -1.993679686e-10)
(0.05957746843 -0.0002413682639 -2.212500542e-10)
(0.03781403876 -6.798981108e-05 -1.547610856e-10)
(0.01339305387 -5.654523298e-05 -3.667921276e-11)
(0.1354967539 -0.0003200096188 -1.989530844e-10)
(0.1298896377 -0.000463542534 -2.002704768e-10)
(0.1214688823 -0.0005620324309 -1.73953501e-10)
(0.1103062589 -0.0005810960144 -1.597681068e-10)
(0.09643180555 -0.0005320254384 -1.586326481e-10)
(0.07984655678 -0.0004089801219 -1.579549025e-10)
(0.06053308041 -0.0002727817852 -1.404240646e-10)
(0.03846071344 -7.582489231e-05 -9.156572246e-11)
(0.01363738897 -6.648584428e-05 -2.721232254e-11)
(0.1373442742 -0.0003606126288 -1.245524533e-10)
(0.1317187388 -0.0005212712934 -1.527603922e-10)
(0.1232603595 -0.000629995794 -1.530696481e-10)
(0.1120279707 -0.0006488615678 -1.468885037e-10)
(0.09803469371 -0.0005912722277 -1.391190517e-10)
(0.08126242552 -0.0004524833277 -1.253242525e-10)
(0.06167496166 -0.0003006973329 -9.973887521e-11)
(0.03922837761 -8.196476146e-05 -6.162360823e-11)
(0.01392489496 -7.681446002e-05 -1.874603655e-11)
(0.139565186 -0.000397748412 -8.832444821e-11)
(0.1339156645 -0.0005735631094 -1.196260125e-10)
(0.1254086537 -0.000690630003 -1.295413949e-10)
(0.1140870938 -0.0007081595352 -1.276396472e-10)
(0.0999442908 -0.0006418550905 -1.182694061e-10)
(0.08294075003 -0.0004886379219 -1.014657858e-10)
(0.06302049807 -0.0003234471328 -7.671952048e-11)
(0.04012716594 -8.587212912e-05 -4.607172818e-11)
(0.01425878776 -8.731799075e-05 -1.398935252e-11)
(0.142203262 -0.000429153645 -6.739483349e-11)
(0.1365224497 -0.0006171637871 -9.617354849e-11)
(0.1279528197 -0.0007400616982 -1.092978682e-10)
(0.1165182859 -0.000755104604 -1.105740477e-10)
(0.1021895214 -0.0006803975523 -1.025660161e-10)
(0.0849037766 -0.000515007407 -8.814376821e-11)
(0.06458497521 -0.0003395825268 -6.630904835e-11)
(0.0411656882 -8.712239084e-05 -3.976568714e-11)
(0.01464171508 -9.777779155e-05 -1.213255808e-11)
(0.1453014402 -0.0004525842738 -5.684622318e-11)
(0.1395798095 -0.0006489031974 -8.588083857e-11)
(0.1309299353 -0.0007746214072 -1.060983183e-10)
(0.1193535655 -0.0007861482746 -1.165445896e-10)
(0.1047962028 -0.0007039621101 -1.007286091e-10)
(0.08717056846 -0.0005295812205 -1.007951887e-10)
(0.06638091655 -0.0003479886288 -7.580767304e-11)
(0.0423506642 -8.54300997e-05 -4.47385632e-11)
(0.01507564778 -0.0001079775619 -1.355461151e-11)
(0.1489005201 -0.0004659906029 -7.194456401e-11)
(0.1431257691 -0.000665952582 -1.291988359e-10)
(0.1343737025 -0.000791151757 -2.155193209e-10)
(0.1226209774 -0.0007983845705 -3.78757861e-10)
(0.1077858976 -0.000710305564 -4.251009014e-11)
(0.08975614172 -0.0005309440291 -2.507496232e-10)
(0.06841752563 -0.0003479679054 -1.290512025e-10)
(0.0436866393 -8.066140765e-05 -6.373077742e-11)
(0.01556179961 -0.0001177093383 -1.801417535e-11)
(0.1530376549 -0.0004677013978 -7.607793075e-11)
(0.1471941353 -0.0006660822699 -1.291088364e-10)
(0.1383129653 -0.0007872994835 -1.830412686e-10)
(0.1263432664 -0.0007898141181 -2.139609573e-10)
(0.1111748573 -0.0006980708861 -1.364441383e-10)
(0.09267073818 -0.0005183828055 -1.474816832e-10)
(0.07070026469 -0.000339280335 -1.0306126e-10)
(0.04517579479 -7.28335975e-05 -5.684920372e-11)
(0.01610057942 -0.0001267784815 -1.654627468e-11)
(0.1577446667 -0.0004565890348 -7.001754298e-11)
(0.1518128632 -0.0006478850676 -1.121514892e-10)
(0.1427702278 -0.0007617496544 -1.441081782e-10)
(0.1305366611 -0.0007595336858 -1.529567359e-10)
(0.1149731473 -0.0006668942099 -1.280879277e-10)
(0.09591929525 -0.0004919193332 -1.10059153e-10)
(0.07323059554 -0.0003221350337 -7.927418933e-11)
(0.04681785862 -6.210149441e-05 -4.5205247e-11)
(0.01669157675 -0.0001350077387 -1.334796085e-11)
(0.1630462449 -0.0004322010719 -5.993845641e-11)
(0.157002401 -0.000610931641 -9.264911179e-11)
(0.1477602649 -0.0007143631252 -1.135224048e-10)
(0.1352098494 -0.0007078167687 -1.173582153e-10)
(0.1191840148 -0.0006174149525 -1.045300212e-10)
(0.0995011408 -0.0004522748613 -8.587565232e-11)
(0.07600588574 -0.0002971440857 -6.151632266e-11)
(0.04861011131 -4.873504904e-05 -3.536778676e-11)
(0.01733357229 -0.0001422391121 -1.050640702e-11)
(0.168958169 -0.0003948270441 -4.948926598e-11)
(0.1627741665 -0.0005558343442 -7.506866605e-11)
(0.1532889693 -0.0006461945591 -9.004279331e-11)
(0.1403632539 -0.0006360712342 -9.238857047e-11)
(0.123803556 -0.0005511868053 -8.371014631e-11)
(0.1034099369 -0.0004007739537 -6.852013081e-11)
(0.07901948448 -0.000265244476 -4.935407959e-11)
(0.05054748666 -3.309775081e-05 -2.872831101e-11)
(0.01802456714 -0.0001483391654 -8.616223037e-12)
(0.175485696 -0.0003454812605 -4.043735808e-11)
(0.1691292723 -0.0004842012456 -6.092127932e-11)
(0.1593525206 -0.0005593936977 -7.276765894e-11)
(0.1459886408 -0.0005466922067 -7.52161346e-11)
(0.128820672 -0.0004705133543 -6.974730134e-11)
(0.1076338327 -0.0003392141588 -5.885102053e-11)
(0.08226092934 -0.0002276148941 -4.42138037e-11)
(0.05262279347 -1.565705203e-05 -2.686614646e-11)
(0.01876178234 -0.0001532265686 -8.245826554e-12)
(0.1826223567 -0.0002858124076 -3.543577088e-11)
(0.1760577022 -0.0003984893616 -5.30887267e-11)
(0.1659370224 -0.0004570048028 -6.395412579e-11)
(0.1520691651 -0.0004428371376 -6.830448503e-11)
(0.1342173831 -0.000378233984 -6.754113215e-11)
(0.1121558785 -0.0002697103798 -6.27807218e-11)
(0.08571634703 -0.0001855026347 -5.314957717e-11)
(0.0548270292 2.879581312e-06 -3.532058291e-11)
(0.01954158481 -0.0001571189162 -1.084004962e-11)
(0.1903492756 -0.0002179565518 -6.475463011e-11)
(0.1835379916 -0.0003017657379 -7.289594944e-11)
(0.1730185679 -0.0003426632131 -7.673320617e-11)
(0.1585797255 -0.0003281125483 -8.136215749e-11)
(0.1399693057 -0.0002774548217 -8.801311036e-11)
(0.1169544453 -0.0001944817937 -9.665573568e-11)
(0.08936877774 -0.0001400495994 -1.016286058e-10)
(0.0571488737 2.11704398e-05 -7.371194451e-11)
(0.02036047552 -0.000160857559 -1.749666934e-11)
(0.1986352558 -0.0001443591637 -7.718035433e-10)
(0.1915376018 -0.0001974588553 -2.932244812e-10)
(0.1805638878 -0.0002203169884 -1.602809746e-10)
(0.1654877809 -0.0002063269611 -1.292497289e-10)
(0.1460465014 -0.0001713940648 -1.398405234e-10)
(0.1220040213 -0.0001156692218 -1.858625748e-10)
(0.09319886813 -9.292887932e-05 -3.087216704e-10)
(0.05957551031 3.93699657e-05 -2.260715919e-10)
(0.0212143772 -0.0001635730208 1.133498516e-11)
(0.2074375626 -6.7571117e-05 -2.954681915e-10)
(0.2000138746 -8.90723393e-05 -2.25205234e-10)
(0.1885313991 -9.388779777e-05 -1.663470813e-10)
(0.1727543477 -8.114941683e-05 -1.424001556e-10)
(0.1524142408 -6.305234932e-05 -1.410138292e-10)
(0.1272758743 -3.501674006e-05 -1.496841619e-10)
(0.09718388078 -4.576874204e-05 -1.517953361e-10)
(0.062094872 5.671985115e-05 -1.033282168e-10)
(0.0220984954 -0.0001650973506 -2.477155613e-11)
(0.2167035973 9.94123778e-06 -1.455730414e-10)
(0.208915667 2.001504717e-05 -1.555760487e-10)
(0.1968727163 3.284218829e-05 -1.412494835e-10)
(0.1803353234 4.378720817e-05 -1.287487622e-10)
(0.1590342238 4.477731525e-05 -1.207195933e-10)
(0.1327388076 4.406346987e-05 -1.115644197e-10)
(0.101300574 2.489179516e-06 -9.326686153e-11)
(0.06469275864 7.494094329e-05 -5.910255094e-11)
(0.02300798839 -0.0001662400783 -1.749405108e-11)
(0.2263724471 8.58882102e-05 -8.54922309e-11)
(0.2181847989 0.0001266450859 -1.082832932e-10)
(0.2055339883 0.0001563555134 -1.106154804e-10)
(0.1881827165 0.0001652258797 -1.048956952e-10)
(0.1658657339 0.0001494956124 -9.544508036e-11)
(0.1383600663 0.0001199287723 -8.175252049e-11)
(0.10552699 5.068116143e-05 -6.233740838e-11)
(0.06735250711 9.353599411e-05 -3.757088388e-11)
(0.02393767831 -0.0001669300328 -1.130971865e-11)
(0.2363765141 0.00015827741 -5.560135324e-11)
(0.227757573 0.0002281213468 -7.627448829e-11)
(0.2144572359 0.0002737131545 -8.273111713e-11)
(0.1962457033 0.0002805669393 -7.990491347e-11)
(0.1728661381 0.0002489080091 -7.115350041e-11)
(0.1441058825 0.0001924265569 -5.805879317e-11)
(0.109838448 9.617590292e-05 -4.179479823e-11)
(0.07005949174 0.0001105047289 -2.411980242e-11)
(0.02488259175 -0.000166542165 -7.138740619e-12)
(0.2466445932 0.0002255952491 -3.737526838e-11)
(0.2375674966 0.0003224362227 -5.290827566e-11)
(0.2235825839 0.0003827475934 -5.849520918e-11)
(0.204472347 0.0003878146277 -5.599800334e-11)
(0.1799922097 0.0003413932066 -4.791691317e-11)
(0.1499423551 0.0002602126433 -3.655029692e-11)
(0.1142095168 0.0001384832381 -2.388990417e-11)
(0.07279986819 0.0001258922331 -1.237044801e-11)
(0.02583780421 -0.0001652249806 -3.386540117e-12)
(0.2571044863 0.0002867615082 -2.363801077e-11)
(0.2475475209 0.0004081606105 -3.30460878e-11)
(0.2328500404 0.0004819169254 -3.486769243e-11)
(0.2128109487 0.0004855395175 -2.990578434e-11)
(0.1872012351 0.0004258056638 -2.072956564e-11)
(0.1558360953 0.0003223462564 -1.087046289e-11)
(0.1186163154 0.0001772369232 -3.403153961e-13)
(0.07555911935 0.0001396365255 4.634217558e-12)
(0.02679841312 -0.0001631246042 2.26132496e-12)
(0.2676849285 0.0003411023824 -1.008028154e-11)
(0.2576316873 0.0004843972556 -1.118878286e-11)
(0.2422008393 0.0005702453842 -4.602819975e-12)
(0.2212110891 0.0005728197348 9.573333989e-12)
(0.1944517342 0.0005013985551 2.613104691e-11)
(0.1617547822 0.0003782205727 2.662380616e-11)
(0.1230357895 0.00021221156 4.578442859e-11)
(0.07832339898 0.0001516965885 4.391410254e-11)
(0.02775958826 -0.0001603977888 1.469476687e-11)
(0.278317394 0.0003882854798 5.397793895e-12)
(0.267756685 0.0005507029779 1.624542681e-11)
(0.2515787004 0.0006472452578 4.024306064e-11)
(0.2296246001 0.0006491791903 8.584904172e-11)
(0.2017041709 0.0005677806348 1.871250677e-10)
(0.1676676607 0.0004275196686 3.561351231e-11)
(0.12744599 0.000243397557 1.812076662e-10)
(0.08107928241 0.0001616208812 1.644881076e-10)
(0.02871714288 -0.0001576080071 4.218136286e-11)
(0.2889374676 0.0004282565998 1.4588517e-11)
(0.2778630382 0.000607002325 2.878909736e-11)
(0.2609307943 0.0007128228779 4.945927375e-11)
(0.2380063145 0.0007144961472 7.495141533e-11)
(0.2089215159 0.000624825018 9.442664869e-11)
(0.1735459635 0.0004701106048 7.502262376e-11)
(0.1318263972 0.000270543859 8.76367766e-11)
(0.08381429082 0.0001699995689 7.010800451e-11)
(0.02966710551 -0.0001541913651 2.194662909e-11)
(0.2994858723 0.0004611849055 1.74911788e-11)
(0.2878960019 0.0006535166823 3.059297185e-11)
(0.2702084828 0.0007672128315 4.504922794e-11)
(0.2463146467 0.0007689637395 5.810704098e-11)
(0.2160696878 0.0006726691757 6.439098525e-11)
(0.1793632432 0.0005060665761 5.904841028e-11)
(0.1361581791 0.0002936796284 5.256890741e-11)
(0.08651727401 0.0001768801624 3.602315735e-11)
(0.03060546732 -0.0001502062158 1.146360882e-11)
(0.3099091256 0.000487405465 1.671347236e-11)
(0.297806138 0.0006906871637 2.748213315e-11)
(0.2793677966 0.0008108908886 3.721371166e-11)
(0.254511963 0.0008130042359 4.402512246e-11)
(0.2231178152 0.0007116379948 4.575215085e-11)
(0.1850955241 0.0005355865096 4.15540003e-11)
(0.1404242402 0.0003129227506 3.344173009e-11)
(0.08917798651 0.0001823128606 2.116381539e-11)
(0.03152879132 -0.0001457536049 6.583620407e-12)
(0.3201599045 0.000507365772 1.43479873e-11)
(0.3075496441 0.0007191162396 2.277977001e-11)
(0.2883697205 0.0008445153888 2.937945802e-11)
(0.262564822 0.0008472150587 3.303533488e-11)
(0.230038432 0.0007422062568 3.292120431e-11)
(0.1907214579 0.0005589792892 2.903701081e-11)
(0.144609355 0.000328448024 2.228150655e-11)
(0.09178728587 0.0001863463908 1.355093425e-11)
(0.03243401363 -0.0001409326626 4.14788106e-12)
(0.3301971505 0.0005215840531 1.16059273e-11)
(0.3170884588 0.000739514494 1.805575662e-11)
(0.2971802849 0.0008688728966 2.262767259e-11)
(0.2704440525 0.0008723212755 2.467765288e-11)
(0.2368075387 0.000764959574 2.39330425e-11)
(0.1962223635 0.0005766417027 2.063645344e-11)
(0.1487001861 0.0003404839414 1.546215544e-11)
(0.09433715668 0.0001890526281 9.232246815e-12)
(0.03331845508 -0.0001358317161 2.804830309e-12)
(0.3399859765 0.0005306264878 9.129673955e-12)
(0.3263901887 0.0007526573403 1.405086148e-11)
(0.3057705153 0.0008848297577 1.734404352e-11)
(0.2781247179 0.0008891329816 1.862162619e-11)
(0.2434045813 0.0007805580005 1.782232745e-11)
(0.201582216 0.0005890309448 1.521736127e-11)
(0.1526852762 0.0003492990011 1.131925599e-11)
(0.09682070459 0.0001905270003 6.734369328e-12)
(0.03417980945 -0.0001305262283 2.046527667e-12)
(0.3494974168 0.0005350849193 7.296935629e-12)
(0.3354278877 0.0007593511002 1.121324643e-11)
(0.314116255 0.000893291616 1.383082658e-11)
(0.2855859782 0.0008985085133 1.488280028e-11)
(0.2498123479 0.000789707681 1.433874438e-11)
(0.2067875764 0.0005966404052 1.237681214e-11)
(0.156555004 0.000355183321 9.331736045e-12)
(0.0992321321 0.0001908805821 5.629944018e-12)
(0.03501613319 -0.0001250797927 1.729289685e-12)
(0.3587080662 0.0005355482507 6.492763044e-12)
(0.3441797381 0.0007604038457 1.010947856e-11)
(0.3221978988 0.0008951720714 1.275395342e-11)
(0.2928108779 0.0009013238206 1.41654652e-11)
(0.2560168046 0.0007931386953 1.418044311e-11)
(0.2118274701 0.0005999838793 1.273675895e-11)
(0.1603015059 0.000358435909 9.95794689e-12)
(0.1015666972 0.0001902287951 6.187927737e-12)