/*--------------------------------*- C++ -*----------------------------------*\
| =========                 |                                                 |
| \\      /  F ield         | OpenFOAM: The Open Source CFD Toolbox           |
|  \\    /   O peration     | Version:  2106                                  |
|   \\  /    A nd           | Website:  www.openfoam.com                      |
|    \\/     M anipulation  |                                                 |
\*---------------------------------------------------------------------------*/
FoamFile
{
    version     2.0;
    format      ascii;
    arch        "LSB;label=32;scalar=64";
    class       volScalarField;
    location    "80.00032";
    object      AC3H5_0;
}
// * * * * * * * * * * * * * * * * * * * * * * * * * * * * * * * * * * * * * //

dimensions      [0 0 0 0 0 0 0];

internalField   nonuniform List<scalar> 
3360
(
3.2307e-32
3.33459e-32
3.47917e-32
3.65601e-32
3.85776e-32
4.0778e-32
4.31013e-32
4.54939e-32
4.79075e-32
5.02999e-32
5.26341e-32
5.4879e-32
5.70089e-32
5.90031e-32
6.08461e-32
6.25269e-32
6.40388e-32
6.53789e-32
6.65477e-32
6.75487e-32
6.83879e-32
6.90733e-32
6.96148e-32
7.00232e-32
7.03105e-32
7.04893e-32
7.05722e-32
1.41726e-31
1.46936e-31
1.54288e-31
1.63445e-31
1.74128e-31
1.86091e-31
1.99117e-31
2.13007e-31
2.27574e-31
2.42643e-31
2.58045e-31
2.73616e-31
2.89192e-31
3.04615e-31
3.19725e-31
3.34368e-31
3.48392e-31
3.61648e-31
3.73995e-31
3.85302e-31
3.95445e-31
4.04317e-31
4.11826e-31
4.17899e-31
4.22483e-31
4.25543e-31
4.27069e-31
4.45117e-31
4.64699e-31
4.92533e-31
5.27522e-31
5.6876e-31
6.15431e-31
6.66762e-31
7.21985e-31
7.80327e-31
8.40991e-31
9.03162e-31
9.6603e-31
1.02879e-30
1.09063e-30
1.15079e-30
1.20853e-30
1.26316e-30
1.31406e-30
1.36071e-30
1.40265e-30
1.43954e-30
1.47114e-30
1.4973e-30
1.51798e-30
1.53322e-30
1.54316e-30
1.548e-30
1.30202e-30
1.36726e-30
1.46069e-30
1.57906e-30
1.71968e-30
1.88004e-30
2.05761e-30
2.24976e-30
2.4537e-30
2.66647e-30
2.88499e-30
3.10606e-30
3.32649e-30
3.54315e-30
3.75303e-30
3.95333e-30
4.14156e-30
4.31558e-30
4.47364e-30
4.61443e-30
4.73704e-30
4.84099e-30
4.92616e-30
4.99279e-30
5.04141e-30
5.0728e-30
5.08793e-30
3.86297e-30
4.07587e-30
4.38198e-30
4.77183e-30
5.23758e-30
5.77176e-30
6.36656e-30
7.01349e-30
7.70321e-30
8.42555e-30
9.16961e-30
9.92408e-30
1.06775e-29
1.14187e-29
1.21368e-29
1.2822e-29
1.34655e-29
1.40599e-29
1.45991e-29
1.50787e-29
1.54957e-29
1.58485e-29
1.61371e-29
1.63623e-29
1.65263e-29
1.66319e-29
1.66826e-29
1.19399e-29
1.26599e-29
1.37024e-29
1.50412e-29
1.66561e-29
1.85276e-29
2.06345e-29
2.2952e-29
2.54509e-29
2.80971e-29
3.08522e-29
3.36742e-29
3.65189e-29
3.93413e-29
4.20972e-29
4.47447e-29
4.72459e-29
4.95674e-29
5.16821e-29
5.35689e-29
5.52131e-29
5.66066e-29
5.77468e-29
5.86369e-29
5.92844e-29
5.97009e-29
5.99007e-29
4.04403e-29
4.32318e-29
4.73229e-29
5.26597e-29
5.92142e-29
6.69608e-29
7.58623e-29
8.58582e-29
9.68583e-29
1.08738e-28
1.2134e-28
1.34475e-28
1.4793e-28
1.61476e-28
1.74877e-28
1.87902e-28
2.00332e-28
2.11971e-28
2.22651e-28
2.32239e-28
2.40635e-28
2.47777e-28
2.53637e-28
2.58218e-28
2.61553e-28
2.63697e-28
2.64724e-28
1.64885e-28
1.78697e-28
1.99294e-28
2.26744e-28
2.61269e-28
3.03103e-28
3.52384e-28
4.09073e-28
4.72893e-28
5.43287e-28
6.19409e-28
7.00137e-28
7.84116e-28
8.69815e-28
9.55604e-28
1.03983e-27
1.12092e-27
1.19739e-27
1.26799e-27
1.33166e-27
1.38763e-27
1.43537e-27
1.4746e-27
1.50531e-27
1.52766e-27
1.54202e-27
1.5489e-27
8.87667e-28
9.77527e-28
1.11338e-27
1.29746e-27
1.53313e-27
1.82383e-27
2.17215e-27
2.57921e-27
3.04408e-27
3.56339e-27
4.13126e-27
4.73938e-27
5.3773e-27
6.03296e-27
6.69331e-27
7.34498e-27
7.97496e-27
8.57122e-27
9.12319e-27
9.62216e-27
1.00615e-26
1.04366e-26
1.07451e-26
1.09866e-26
1.11624e-26
1.12753e-26
1.13293e-26
6.15441e-27
6.85237e-27
7.91525e-27
9.36752e-27
1.12431e-26
1.35759e-26
1.63931e-26
1.97082e-26
2.35172e-26
2.77945e-26
3.24924e-26
3.75418e-26
4.28547e-26
4.83286e-26
5.38522e-26
5.93113e-26
6.45945e-26
6.95985e-26
7.42329e-26
7.84228e-26
8.21113e-26
8.52598e-26
8.7848e-26
8.98723e-26
9.13443e-26
9.22884e-26
9.27393e-26
4.93772e-26
5.52542e-26
6.42252e-26
7.65162e-26
9.24324e-26
1.12278e-25
1.36294e-25
1.64604e-25
1.97171e-25
2.33777e-25
2.74005e-25
3.17255e-25
3.62762e-25
4.0964e-25
4.56927e-25
5.03639e-25
5.48816e-25
5.91574e-25
6.3114e-25
6.66878e-25
6.98306e-25
7.25102e-25
7.47101e-25
7.64283e-25
7.76757e-25
7.84743e-25
7.88549e-25
4.19574e-25
4.70235e-25
5.47592e-25
6.53599e-25
7.90875e-25
9.6201e-25
1.16901e-24
1.41285e-24
1.69311e-24
2.00777e-24
2.35314e-24
2.72393e-24
3.11348e-24
3.51414e-24
3.91761e-24
4.31548e-24
4.69959e-24
5.06246e-24
5.3976e-24
5.69971e-24
5.96484e-24
6.1904e-24
6.37515e-24
6.51908e-24
6.62331e-24
6.68983e-24
6.72143e-24
3.61924e-24
4.05616e-24
4.72265e-24
5.63478e-24
6.81403e-24
8.2813e-24
1.00522e-23
1.21333e-23
1.4519e-23
1.71905e-23
2.01145e-23
2.32447e-23
2.65239e-23
2.98866e-23
3.32631e-23
3.6583e-23
3.97787e-23
4.27888e-23
4.55606e-23
4.80517e-23
5.0231e-23
5.2079e-23
5.35875e-23
5.47584e-23
5.56028e-23
5.61395e-23
5.63932e-23
3.10249e-23
3.47378e-23
4.03918e-23
4.81118e-23
5.80651e-23
7.04105e-23
8.52591e-23
1.02644e-22
1.22497e-22
1.44637e-22
1.6877e-22
1.94497e-22
2.21335e-22
2.4874e-22
2.76141e-22
3.02968e-22
3.28682e-22
3.52799e-22
3.7491e-22
3.94694e-22
4.11923e-22
4.26463e-22
4.38272e-22
4.47388e-22
4.53923e-22
4.58049e-22
4.59984e-22
2.61565e-22
2.92385e-22
3.39189e-22
4.0287e-22
4.84633e-22
5.8557e-22
7.06357e-22
8.47013e-22
1.00674e-21
1.18384e-21
1.37576e-21
1.57916e-21
1.79009e-21
2.00422e-21
2.21707e-21
2.42426e-21
2.62171e-21
2.80583e-21
2.97365e-21
3.12292e-21
3.25211e-21
3.36043e-21
3.4478e-21
3.51474e-21
3.56233e-21
3.59209e-21
3.6059e-21
2.14689e-21
2.39383e-21
2.76745e-21
3.27335e-21
3.91922e-21
4.71153e-21
5.65323e-21
6.74201e-21
7.9693e-21
9.31994e-21
1.07725e-20
1.23003e-20
1.38728e-20
1.54572e-20
1.70205e-20
1.8531e-20
1.996e-20
2.12827e-20
2.24793e-20
2.35355e-20
2.44424e-20
2.51964e-20
2.5799e-20
2.6256e-20
2.65773e-20
2.67757e-20
2.68663e-20
1.70076e-20
1.8897e-20
2.17414e-20
2.55683e-20
3.04175e-20
3.63173e-20
4.32678e-20
5.12303e-20
6.01219e-20
6.98146e-20
8.01404e-20
9.08993e-20
1.0187e-19
1.12824e-19
1.23535e-19
1.33793e-19
1.43412e-19
1.52238e-19
1.60152e-19
1.67074e-19
1.7296e-19
1.77805e-19
1.81635e-19
1.84504e-19
1.86493e-19
1.877e-19
1.88241e-19
1.28828e-19
1.42459e-19
1.6285e-19
1.90063e-19
2.24226e-19
2.65366e-19
3.13313e-19
3.67633e-19
4.27613e-19
4.92268e-19
5.60387e-19
6.30597e-19
7.01436e-19
7.71439e-19
8.39205e-19
9.03471e-19
9.63154e-19
1.01739e-18
1.06556e-18
1.10728e-18
1.1424e-18
1.17099e-18
1.19332e-18
1.20982e-18
1.22109e-18
1.2278e-18
1.23074e-18
9.25953e-19
1.01767e-18
1.15382e-18
1.33379e-18
1.55723e-18
1.82314e-18
2.12923e-18
2.47173e-18
2.84527e-18
3.2431e-18
3.65741e-18
4.07971e-18
4.50132e-18
4.91379e-18
5.3093e-18
5.68099e-18
6.02321e-18
6.33162e-18
6.60327e-18
6.83662e-18
7.03143e-18
7.18865e-18
7.31031e-18
7.39931e-18
7.45933e-18
7.49459e-18
7.50975e-18
6.29355e-18
6.86668e-18
7.71064e-18
8.81505e-18
1.01712e-17
1.17668e-17
1.3583e-17
1.55939e-17
1.77661e-17
2.00604e-17
2.24332e-17
2.48385e-17
2.72305e-17
2.95648e-17
3.18009e-17
3.3903e-17
3.58414e-17
3.7593e-17
3.91418e-17
4.04786e-17
4.16011e-17
4.25134e-17
4.32251e-17
4.3751e-17
4.41098e-17
4.43239e-17
4.44178e-17
4.07848e-17
4.4199e-17
4.92077e-17
5.57404e-17
6.37492e-17
7.31835e-17
8.39782e-17
9.60483e-17
1.09286e-16
1.2356e-16
1.38716e-16
1.54573e-16
1.70927e-16
1.8755e-16
2.04192e-16
2.20591e-16
2.36474e-16
2.51573e-16
2.65635e-16
2.78433e-16
2.89776e-16
2.99518e-16
3.07566e-16
3.1388e-16
3.18475e-16
3.21415e-16
3.22811e-16
2.62178e-16
2.84582e-16
3.18188e-16
3.63498e-16
4.21618e-16
4.94158e-16
5.83164e-16
6.91015e-16
8.20245e-16
9.73293e-16
1.15218e-15
1.35815e-15
1.59134e-15
1.85049e-15
2.13275e-15
2.43368e-15
2.74732e-15
3.06648e-15
3.38306e-15
3.68857e-15
3.97457e-15
4.23317e-15
4.45743e-15
4.64174e-15
4.782e-15
4.87577e-15
4.92226e-15
1.91917e-15
2.15181e-15
2.52403e-15
3.06888e-15
3.83596e-15
4.89145e-15
6.31753e-15
8.21e-15
1.06734e-14
1.38135e-14
1.7728e-14
2.24946e-14
2.81605e-14
3.47316e-14
4.21653e-14
5.0366e-14
5.91854e-14
6.84259e-14
7.78492e-14
8.71877e-14
9.61583e-14
1.04477e-13
1.11873e-13
1.18103e-13
1.22962e-13
1.2629e-13
1.27981e-13
2.12176e-14
2.52828e-14
3.20442e-14
4.23681e-14
5.7496e-14
7.90518e-14
1.09032e-13
1.49757e-13
2.03777e-13
2.73711e-13
3.62049e-13
4.70898e-13
6.01691e-13
7.5497e-13
9.30195e-13
1.12561e-12
1.33817e-12
1.56361e-12
1.79651e-12
2.03058e-12
2.25882e-12
2.47392e-12
2.66851e-12
2.83551e-12
2.96838e-12
3.06136e-12
3.1097e-12
3.66411e-13
4.45165e-13
5.75692e-13
7.73781e-13
1.06136e-12
1.46631e-12
2.02186e-12
2.76528e-12
3.73587e-12
4.97213e-12
6.50842e-12
8.37125e-12
1.05758e-11
1.31229e-11
1.59966e-11
1.91636e-11
2.25724e-11
2.61554e-11
2.98304e-11
3.35038e-11
3.70736e-11
4.04335e-11
4.34758e-11
4.60949e-11
4.81903e-11
4.96683e-11
5.04444e-11
6.86768e-12
8.14165e-12
1.01948e-11
1.32034e-11
1.7402e-11
2.30652e-11
3.04837e-11
3.99359e-11
5.16522e-11
6.57775e-11
8.23379e-11
1.01217e-10
1.22148e-10
1.44728e-10
1.68444e-10
1.92716e-10
2.16944e-10
2.40549e-10
2.63002e-10
2.83848e-10
3.02709e-10
3.19288e-10
3.33357e-10
3.44752e-10
3.53362e-10
3.59121e-10
3.61999e-10
9.84581e-11
1.1196e-10
1.32687e-10
1.61177e-10
1.97988e-10
2.43428e-10
2.9735e-10
3.59061e-10
4.27347e-10
5.00618e-10
5.7712e-10
6.55141e-10
7.3315e-10
8.09851e-10
8.84172e-10
9.55223e-10
1.02225e-09
1.08462e-09
1.14177e-09
1.19324e-09
1.23867e-09
1.27778e-09
1.31037e-09
1.33635e-09
1.3557e-09
1.36846e-09
1.37475e-09
7.62768e-10
8.23054e-10
9.10009e-10
1.02087e-09
1.15312e-09
1.30426e-09
1.47177e-09
1.65307e-09
1.84551e-09
2.04628e-09
2.25247e-09
2.46105e-09
2.66901e-09
2.87342e-09
3.07153e-09
3.26088e-09
3.43929e-09
3.60491e-09
3.75619e-09
3.89192e-09
4.0112e-09
4.11341e-09
4.1982e-09
4.26548e-09
4.31535e-09
4.34809e-09
4.36417e-09
2.9781e-09
3.1421e-09
3.37781e-09
3.67747e-09
4.03433e-09
4.44173e-09
4.89269e-09
5.37991e-09
5.89563e-09
6.43173e-09
6.97994e-09
7.53206e-09
8.08012e-09
8.6166e-09
9.13461e-09
9.62793e-09
1.00912e-08
1.05198e-08
1.09102e-08
1.12593e-08
1.15652e-08
1.18266e-08
1.20428e-08
1.22139e-08
1.23403e-08
1.24231e-08
1.24636e-08
8.83012e-09
9.25166e-09
9.85636e-09
1.06235e-08
1.15352e-08
1.25744e-08
1.37235e-08
1.49642e-08
1.62775e-08
1.76433e-08
1.90417e-08
2.04525e-08
2.18562e-08
2.3234e-08
2.45685e-08
2.58439e-08
2.7046e-08
2.81625e-08
2.91833e-08
3.00999e-08
3.09061e-08
3.15975e-08
3.21715e-08
3.26272e-08
3.2965e-08
3.31868e-08
3.32957e-08
2.21952e-08
2.3179e-08
2.45906e-08
2.63823e-08
2.85142e-08
3.09484e-08
3.36468e-08
3.65701e-08
3.96765e-08
4.29229e-08
4.62644e-08
4.96555e-08
5.30508e-08
5.64058e-08
5.96777e-08
6.28264e-08
6.58149e-08
6.86098e-08
7.11822e-08
7.35073e-08
7.55654e-08
7.73409e-08
7.88234e-08
8.00063e-08
8.08877e-08
8.14692e-08
8.17558e-08
4.84309e-08
5.04583e-08
5.33669e-08
5.7059e-08
6.14533e-08
6.64739e-08
7.20449e-08
7.80875e-08
8.45187e-08
9.12515e-08
9.81948e-08
1.05255e-07
1.12339e-07
1.19353e-07
1.26206e-07
1.32813e-07
1.39094e-07
1.44977e-07
1.50398e-07
1.55303e-07
1.59649e-07
1.63402e-07
1.66537e-07
1.6904e-07
1.70905e-07
1.72136e-07
1.72743e-07
9.28544e-08
9.64258e-08
1.01536e-07
1.07999e-07
1.1566e-07
1.24373e-07
1.33994e-07
1.44375e-07
1.55365e-07
1.66806e-07
1.78538e-07
1.90401e-07
2.02235e-07
2.13886e-07
2.25207e-07
2.36061e-07
2.46323e-07
2.55886e-07
2.64656e-07
2.72554e-07
2.79521e-07
2.85509e-07
2.9049e-07
2.94451e-07
2.97391e-07
2.99324e-07
3.00273e-07
1.57953e-07
1.63218e-07
1.70708e-07
1.80113e-07
1.91165e-07
2.03612e-07
2.17214e-07
2.31731e-07
2.46927e-07
2.62568e-07
2.78425e-07
2.94279e-07
3.09921e-07
3.25158e-07
3.39807e-07
3.53708e-07
3.66721e-07
3.78729e-07
3.89636e-07
3.99372e-07
4.07886e-07
4.15145e-07
4.2114e-07
4.25873e-07
4.29364e-07
4.31645e-07
4.3276e-07
2.40225e-07
2.46705e-07
2.55857e-07
2.67244e-07
2.80479e-07
2.95208e-07
3.11097e-07
3.27833e-07
3.45111e-07
3.62644e-07
3.80168e-07
3.9744e-07
4.14242e-07
4.30384e-07
4.457e-07
4.60052e-07
4.73328e-07
4.85442e-07
4.96331e-07
5.05954e-07
5.14292e-07
5.21341e-07
5.27115e-07
5.31641e-07
5.34956e-07
5.37109e-07
5.38155e-07
3.2971e-07
3.36477e-07
3.45963e-07
3.5765e-07
3.71077e-07
3.85828e-07
4.01521e-07
4.17809e-07
4.34377e-07
4.50945e-07
4.67267e-07
4.83129e-07
4.98351e-07
5.12783e-07
5.26306e-07
5.38827e-07
5.50281e-07
5.60621e-07
5.69824e-07
5.77882e-07
5.84804e-07
5.9061e-07
5.95331e-07
5.99006e-07
6.01682e-07
6.03409e-07
6.04244e-07
4.13691e-07
4.1978e-07
4.28258e-07
4.38611e-07
4.50383e-07
4.63167e-07
4.76602e-07
4.9037e-07
5.04195e-07
5.17843e-07
5.31119e-07
5.43861e-07
5.55944e-07
5.67268e-07
5.77763e-07
5.87381e-07
5.96092e-07
6.03885e-07
6.10762e-07
6.16736e-07
6.2183e-07
6.26073e-07
6.29502e-07
6.32156e-07
6.34079e-07
6.35314e-07
6.35909e-07
4.81917e-07
4.86757e-07
4.93456e-07
5.01576e-07
5.10729e-07
5.20573e-07
5.30812e-07
5.41194e-07
5.51505e-07
5.61575e-07
5.71265e-07
5.8047e-07
5.8911e-07
5.97131e-07
6.04496e-07
6.11187e-07
6.17198e-07
6.22535e-07
6.27211e-07
6.31247e-07
6.34667e-07
6.37501e-07
6.3978e-07
6.41536e-07
6.42802e-07
6.43613e-07
6.44002e-07
5.30209e-07
5.3367e-07
5.38439e-07
5.44182e-07
5.50608e-07
5.57463e-07
5.64531e-07
5.71633e-07
5.78622e-07
5.85385e-07
5.91833e-07
5.97905e-07
6.03555e-07
6.08756e-07
6.13496e-07
6.1777e-07
6.21583e-07
6.24947e-07
6.27877e-07
6.30393e-07
6.32514e-07
6.34263e-07
6.35664e-07
6.36739e-07
6.37512e-07
6.38006e-07
6.38242e-07
5.59569e-07
5.61812e-07
5.6489e-07
5.68576e-07
5.72672e-07
5.77009e-07
5.81445e-07
5.85864e-07
5.90176e-07
5.94312e-07
5.98222e-07
6.01871e-07
6.0524e-07
6.08316e-07
6.11098e-07
6.13589e-07
6.15796e-07
6.17731e-07
6.19406e-07
6.20837e-07
6.22038e-07
6.23024e-07
6.2381e-07
6.24412e-07
6.24843e-07
6.25118e-07
6.25249e-07
5.73714e-07
5.75014e-07
5.7679e-07
5.78902e-07
5.81232e-07
5.83677e-07
5.86154e-07
5.88597e-07
5.90955e-07
5.93193e-07
5.95285e-07
5.97217e-07
5.9898e-07
6.00573e-07
6.01999e-07
6.03263e-07
6.04372e-07
6.05336e-07
6.06164e-07
6.06865e-07
6.0745e-07
6.07927e-07
6.08305e-07
6.08593e-07
6.08799e-07
6.08929e-07
6.08991e-07
5.76964e-07
5.77595e-07
5.78449e-07
5.79453e-07
5.80546e-07
5.81674e-07
5.82798e-07
5.83883e-07
5.84909e-07
5.85861e-07
5.86729e-07
5.87511e-07
5.88206e-07
5.88818e-07
5.89351e-07
5.8981e-07
5.90203e-07
5.90536e-07
5.90814e-07
5.91044e-07
5.91232e-07
5.91382e-07
5.91498e-07
5.91585e-07
5.91647e-07
5.91685e-07
5.91703e-07
5.73094e-07
5.73278e-07
5.73518e-07
5.73788e-07
5.74063e-07
5.74326e-07
5.74562e-07
5.74764e-07
5.74925e-07
5.75046e-07
5.75128e-07
5.75173e-07
5.75188e-07
5.75176e-07
5.75143e-07
5.75096e-07
5.75038e-07
5.74974e-07
5.74908e-07
5.74844e-07
5.74784e-07
5.7473e-07
5.74683e-07
5.74645e-07
5.74617e-07
5.74598e-07
5.74589e-07
5.64957e-07
5.64857e-07
5.64709e-07
5.64514e-07
5.64274e-07
5.63993e-07
5.63675e-07
5.63325e-07
5.62949e-07
5.62556e-07
5.62152e-07
5.61745e-07
5.61342e-07
5.60949e-07
5.60572e-07
5.60215e-07
5.59883e-07
5.59579e-07
5.59305e-07
5.59063e-07
5.58853e-07
5.58676e-07
5.58532e-07
5.58419e-07
5.58336e-07
5.58283e-07
5.58257e-07
5.54523e-07
5.54251e-07
5.53868e-07
5.53393e-07
5.52844e-07
5.52237e-07
5.51587e-07
5.50909e-07
5.50215e-07
5.49517e-07
5.48827e-07
5.48154e-07
5.47506e-07
5.4689e-07
5.46312e-07
5.45775e-07
5.45284e-07
5.44841e-07
5.44446e-07
5.44101e-07
5.43805e-07
5.43557e-07
5.43355e-07
5.43199e-07
5.43085e-07
5.43012e-07
5.42976e-07
5.43066e-07
5.42696e-07
5.42179e-07
5.41545e-07
5.40821e-07
5.40029e-07
5.39193e-07
5.3833e-07
5.37459e-07
5.36592e-07
5.35743e-07
5.34923e-07
5.34141e-07
5.33402e-07
5.32714e-07
5.3208e-07
5.31502e-07
5.30983e-07
5.30523e-07
5.30122e-07
5.29778e-07
5.29492e-07
5.2926e-07
5.29079e-07
5.28949e-07
5.28865e-07
5.28824e-07
5.31367e-07
5.30945e-07
5.30358e-07
5.29642e-07
5.28827e-07
5.27941e-07
5.2701e-07
5.26054e-07
5.25092e-07
5.24141e-07
5.23213e-07
5.22321e-07
5.21472e-07
5.20674e-07
5.19933e-07
5.19251e-07
5.18632e-07
5.18076e-07
5.17585e-07
5.17157e-07
5.16792e-07
5.16486e-07
5.1624e-07
5.16048e-07
5.15909e-07
5.1582e-07
5.15777e-07
5.19875e-07
5.19431e-07
5.18814e-07
5.18062e-07
5.17209e-07
5.16284e-07
5.15313e-07
5.1432e-07
5.13322e-07
5.12338e-07
5.11381e-07
5.10461e-07
5.09588e-07
5.08768e-07
5.08008e-07
5.07309e-07
5.06676e-07
5.06108e-07
5.05606e-07
5.05169e-07
5.04796e-07
5.04485e-07
5.04233e-07
5.04038e-07
5.03896e-07
5.03805e-07
5.03761e-07
5.08832e-07
5.08383e-07
5.0776e-07
5.07e-07
5.0614e-07
5.05208e-07
5.04232e-07
5.03234e-07
5.02233e-07
5.01247e-07
5.00288e-07
4.99368e-07
4.98495e-07
4.97676e-07
4.96917e-07
4.9622e-07
4.95588e-07
4.95021e-07
4.94521e-07
4.94085e-07
4.93713e-07
4.93403e-07
4.93152e-07
4.92957e-07
4.92816e-07
4.92726e-07
4.92682e-07
4.98348e-07
4.97905e-07
4.97288e-07
4.96539e-07
4.95689e-07
4.9477e-07
4.93807e-07
4.92823e-07
4.91837e-07
4.90866e-07
4.89922e-07
4.89016e-07
4.88158e-07
4.87353e-07
4.86606e-07
4.85921e-07
4.85299e-07
4.84742e-07
4.8425e-07
4.83821e-07
4.83456e-07
4.8315e-07
4.82903e-07
4.82711e-07
4.82573e-07
4.82483e-07
4.8244e-07
4.8846e-07
4.88027e-07
4.87425e-07
4.86694e-07
4.85865e-07
4.84968e-07
4.84029e-07
4.83069e-07
4.82108e-07
4.81161e-07
4.80241e-07
4.79358e-07
4.78521e-07
4.77736e-07
4.77008e-07
4.76339e-07
4.75733e-07
4.7519e-07
4.74709e-07
4.74291e-07
4.73934e-07
4.73635e-07
4.73394e-07
4.73207e-07
4.73071e-07
4.72983e-07
4.72941e-07
4.79159e-07
4.78739e-07
4.78156e-07
4.77446e-07
4.76643e-07
4.75773e-07
4.74863e-07
4.73932e-07
4.73e-07
4.72082e-07
4.71189e-07
4.70333e-07
4.69521e-07
4.68759e-07
4.68052e-07
4.67403e-07
4.66814e-07
4.66286e-07
4.65819e-07
4.65412e-07
4.65065e-07
4.64774e-07
4.64539e-07
4.64357e-07
4.64224e-07
4.64139e-07
4.64098e-07
4.70414e-07
4.70008e-07
4.69445e-07
4.68759e-07
4.67983e-07
4.67142e-07
4.66262e-07
4.65362e-07
4.64461e-07
4.63572e-07
4.62709e-07
4.6188e-07
4.61093e-07
4.60355e-07
4.5967e-07
4.59041e-07
4.5847e-07
4.57958e-07
4.57504e-07
4.57109e-07
4.56772e-07
4.5649e-07
4.56261e-07
4.56084e-07
4.55955e-07
4.55872e-07
4.55832e-07
4.62183e-07
4.61792e-07
4.61248e-07
4.60586e-07
4.59836e-07
4.59025e-07
4.58175e-07
4.57305e-07
4.56434e-07
4.55575e-07
4.5474e-07
4.53938e-07
4.53177e-07
4.52462e-07
4.51798e-07
4.51189e-07
4.50635e-07
4.50138e-07
4.49698e-07
4.49315e-07
4.48987e-07
4.48713e-07
4.48491e-07
4.48318e-07
4.48193e-07
4.48112e-07
4.48073e-07
4.5442e-07
4.54042e-07
4.53517e-07
4.52878e-07
4.52154e-07
4.5137e-07
4.50549e-07
4.49708e-07
4.48866e-07
4.48035e-07
4.47227e-07
4.4645e-07
4.45713e-07
4.45021e-07
4.44378e-07
4.43786e-07
4.43249e-07
4.42767e-07
4.4234e-07
4.41967e-07
4.41649e-07
4.41382e-07
4.41166e-07
4.40998e-07
4.40876e-07
4.40798e-07
4.4076e-07
4.47077e-07
4.46712e-07
4.46204e-07
4.45587e-07
4.44887e-07
4.44129e-07
4.43334e-07
4.42521e-07
4.41706e-07
4.40901e-07
4.40118e-07
4.39365e-07
4.3865e-07
4.37979e-07
4.37354e-07
4.3678e-07
4.36258e-07
4.3579e-07
4.35374e-07
4.35012e-07
4.34702e-07
4.34443e-07
4.34232e-07
4.34069e-07
4.3395e-07
4.33873e-07
4.33836e-07
4.40108e-07
4.39755e-07
4.39264e-07
4.38666e-07
4.37988e-07
4.37254e-07
4.36484e-07
4.35696e-07
4.34905e-07
4.34124e-07
4.33364e-07
4.32634e-07
4.31939e-07
4.31286e-07
4.30679e-07
4.30121e-07
4.29613e-07
4.29157e-07
4.28752e-07
4.28399e-07
4.28097e-07
4.27844e-07
4.27639e-07
4.27479e-07
4.27363e-07
4.27288e-07
4.27252e-07
4.33471e-07
4.33128e-07
4.32652e-07
4.32072e-07
4.31414e-07
4.30701e-07
4.29953e-07
4.29188e-07
4.2842e-07
4.2766e-07
4.26921e-07
4.2621e-07
4.25534e-07
4.24899e-07
4.24307e-07
4.23763e-07
4.23268e-07
4.22823e-07
4.22428e-07
4.22083e-07
4.21788e-07
4.21541e-07
4.2134e-07
4.21184e-07
4.21071e-07
4.20998e-07
4.20962e-07
4.27121e-07
4.26788e-07
4.26325e-07
4.25761e-07
4.25122e-07
4.24428e-07
4.237e-07
4.22955e-07
4.22206e-07
4.21467e-07
4.20746e-07
4.20053e-07
4.19393e-07
4.18773e-07
4.18195e-07
4.17663e-07
4.17179e-07
4.16744e-07
4.16358e-07
4.16021e-07
4.15732e-07
4.1549e-07
4.15293e-07
4.1514e-07
4.15029e-07
4.14957e-07
4.14923e-07
4.2102e-07
4.20696e-07
4.20244e-07
4.19694e-07
4.1907e-07
4.18394e-07
4.17683e-07
4.16956e-07
4.16225e-07
4.15502e-07
4.14798e-07
4.14119e-07
4.13474e-07
4.12867e-07
4.12302e-07
4.11781e-07
4.11307e-07
4.1088e-07
4.10501e-07
4.10171e-07
4.09887e-07
4.0965e-07
4.09456e-07
4.09306e-07
4.09197e-07
4.09126e-07
4.09092e-07
4.15127e-07
4.14809e-07
4.14368e-07
4.13831e-07
4.1322e-07
4.12558e-07
4.11863e-07
4.1115e-07
4.10434e-07
4.09726e-07
4.09035e-07
4.0837e-07
4.07737e-07
4.07141e-07
4.06586e-07
4.06074e-07
4.05608e-07
4.05189e-07
4.04817e-07
4.04491e-07
4.04212e-07
4.03978e-07
4.03788e-07
4.0364e-07
4.03533e-07
4.03463e-07
4.03429e-07
4.09401e-07
4.0909e-07
4.08657e-07
4.08129e-07
4.0753e-07
4.0688e-07
4.06197e-07
4.05497e-07
4.04793e-07
4.04097e-07
4.03418e-07
4.02763e-07
4.0214e-07
4.01553e-07
4.01006e-07
4.00502e-07
4.00043e-07
3.99629e-07
3.99262e-07
3.98941e-07
3.98665e-07
3.98435e-07
3.98247e-07
3.98101e-07
3.97994e-07
3.97925e-07
3.97892e-07
4.03801e-07
4.03495e-07
4.03068e-07
4.02549e-07
4.01958e-07
4.01318e-07
4.00644e-07
3.99954e-07
3.9926e-07
3.98572e-07
3.97902e-07
3.97256e-07
3.9664e-07
3.9606e-07
3.95519e-07
3.9502e-07
3.94566e-07
3.94157e-07
3.93793e-07
3.93475e-07
3.93202e-07
3.92973e-07
3.92787e-07
3.92642e-07
3.92537e-07
3.92468e-07
3.92435e-07
3.98283e-07
3.9798e-07
3.97558e-07
3.97044e-07
3.9646e-07
3.95826e-07
3.95159e-07
3.94475e-07
3.93787e-07
3.93106e-07
3.92441e-07
3.918e-07
3.9119e-07
3.90614e-07
3.90077e-07
3.89582e-07
3.8913e-07
3.88723e-07
3.88362e-07
3.88046e-07
3.87774e-07
3.87546e-07
3.87361e-07
3.87217e-07
3.87112e-07
3.87044e-07
3.87011e-07
3.92798e-07
3.92497e-07
3.92078e-07
3.91567e-07
3.90986e-07
3.90355e-07
3.89692e-07
3.89011e-07
3.88326e-07
3.87648e-07
3.86986e-07
3.86347e-07
3.85738e-07
3.85163e-07
3.84628e-07
3.84134e-07
3.83683e-07
3.83276e-07
3.82915e-07
3.82599e-07
3.82328e-07
3.821e-07
3.81915e-07
3.81771e-07
3.81666e-07
3.81598e-07
3.81565e-07
3.87293e-07
3.86992e-07
3.86573e-07
3.86063e-07
3.85482e-07
3.84851e-07
3.84187e-07
3.83506e-07
3.8282e-07
3.82141e-07
3.81477e-07
3.80837e-07
3.80226e-07
3.7965e-07
3.79113e-07
3.78617e-07
3.78164e-07
3.77756e-07
3.77394e-07
3.77076e-07
3.76804e-07
3.76575e-07
3.76389e-07
3.76243e-07
3.76138e-07
3.76069e-07
3.76036e-07
3.81708e-07
3.81405e-07
3.80984e-07
3.8047e-07
3.79886e-07
3.79251e-07
3.78583e-07
3.77896e-07
3.77205e-07
3.7652e-07
3.75851e-07
3.75205e-07
3.74589e-07
3.74008e-07
3.73466e-07
3.72965e-07
3.72507e-07
3.72095e-07
3.71729e-07
3.71408e-07
3.71132e-07
3.70901e-07
3.70712e-07
3.70566e-07
3.70458e-07
3.70389e-07
3.70356e-07
3.75974e-07
3.75667e-07
3.75241e-07
3.7472e-07
3.74127e-07
3.73483e-07
3.72806e-07
3.7211e-07
3.71408e-07
3.70713e-07
3.70033e-07
3.69377e-07
3.68751e-07
3.6816e-07
3.67609e-07
3.67099e-07
3.66634e-07
3.66215e-07
3.65842e-07
3.65515e-07
3.65234e-07
3.64999e-07
3.64807e-07
3.64657e-07
3.64548e-07
3.64478e-07
3.64444e-07
3.70011e-07
3.69698e-07
3.69262e-07
3.6873e-07
3.68125e-07
3.67467e-07
3.66774e-07
3.66062e-07
3.65345e-07
3.64633e-07
3.63937e-07
3.63266e-07
3.62624e-07
3.62019e-07
3.61454e-07
3.60932e-07
3.60455e-07
3.60025e-07
3.59642e-07
3.59307e-07
3.59019e-07
3.58777e-07
3.5858e-07
3.58427e-07
3.58315e-07
3.58242e-07
3.58207e-07
3.63729e-07
3.63406e-07
3.62957e-07
3.62409e-07
3.61785e-07
3.61106e-07
3.60392e-07
3.59657e-07
3.58917e-07
3.58183e-07
3.57464e-07
3.5677e-07
3.56108e-07
3.55482e-07
3.54898e-07
3.54358e-07
3.53865e-07
3.5342e-07
3.53025e-07
3.52678e-07
3.5238e-07
3.5213e-07
3.51926e-07
3.51767e-07
3.51651e-07
3.51576e-07
3.5154e-07
3.57021e-07
3.56686e-07
3.56219e-07
3.55648e-07
3.54999e-07
3.54293e-07
3.53549e-07
3.52785e-07
3.52013e-07
3.51248e-07
3.505e-07
3.49777e-07
3.49086e-07
3.48434e-07
3.47824e-07
3.47261e-07
3.46747e-07
3.46283e-07
3.45869e-07
3.45508e-07
3.45196e-07
3.44935e-07
3.44723e-07
3.44557e-07
3.44436e-07
3.44357e-07
3.44319e-07
3.49767e-07
3.49415e-07
3.48925e-07
3.48326e-07
3.47644e-07
3.46902e-07
3.4612e-07
3.45317e-07
3.44506e-07
3.43701e-07
3.42914e-07
3.42153e-07
3.41426e-07
3.4074e-07
3.40098e-07
3.39505e-07
3.38963e-07
3.38475e-07
3.3804e-07
3.37659e-07
3.37331e-07
3.37056e-07
3.36832e-07
3.36657e-07
3.36529e-07
3.36447e-07
3.36407e-07
3.4183e-07
3.41457e-07
3.40937e-07
3.40302e-07
3.39579e-07
3.38792e-07
3.37963e-07
3.3711e-07
3.3625e-07
3.35395e-07
3.34559e-07
3.33751e-07
3.32979e-07
3.3225e-07
3.31569e-07
3.30939e-07
3.30363e-07
3.29844e-07
3.29382e-07
3.28977e-07
3.28628e-07
3.28336e-07
3.28098e-07
3.27912e-07
3.27777e-07
3.27689e-07
3.27647e-07
3.33057e-07
3.32658e-07
3.32102e-07
3.31422e-07
3.30649e-07
3.29806e-07
3.28919e-07
3.28005e-07
3.27084e-07
3.26169e-07
3.25274e-07
3.24408e-07
3.23581e-07
3.228e-07
3.2207e-07
3.21395e-07
3.20778e-07
3.20222e-07
3.19727e-07
3.19293e-07
3.1892e-07
3.18606e-07
3.18351e-07
3.18152e-07
3.18007e-07
3.17913e-07
3.17868e-07
3.2328e-07
3.22849e-07
3.22249e-07
3.21516e-07
3.20681e-07
3.19773e-07
3.18815e-07
3.17829e-07
3.16835e-07
3.15848e-07
3.14881e-07
3.13947e-07
3.13054e-07
3.12211e-07
3.11423e-07
3.10695e-07
3.10029e-07
3.09428e-07
3.08894e-07
3.08426e-07
3.08023e-07
3.07685e-07
3.0741e-07
3.07195e-07
3.07038e-07
3.06937e-07
3.06888e-07
3.12318e-07
3.11851e-07
3.11199e-07
3.10403e-07
3.09497e-07
3.0851e-07
3.07469e-07
3.06399e-07
3.05319e-07
3.04247e-07
3.03197e-07
3.02183e-07
3.01214e-07
3.00298e-07
2.99443e-07
2.98652e-07
2.97929e-07
2.97277e-07
2.96697e-07
2.96189e-07
2.95752e-07
2.95385e-07
2.95087e-07
2.94854e-07
2.94684e-07
2.94574e-07
2.94521e-07
2.9999e-07
2.9948e-07
2.98769e-07
2.979e-07
2.96911e-07
2.95834e-07
2.94699e-07
2.93531e-07
2.92354e-07
2.91184e-07
2.9004e-07
2.88934e-07
2.87877e-07
2.86879e-07
2.85947e-07
2.85085e-07
2.84298e-07
2.83588e-07
2.82956e-07
2.82403e-07
2.81927e-07
2.81528e-07
2.81203e-07
2.80949e-07
2.80764e-07
2.80645e-07
2.80587e-07
2.86118e-07
2.8556e-07
2.84782e-07
2.83832e-07
2.8275e-07
2.81572e-07
2.80332e-07
2.79055e-07
2.77768e-07
2.76491e-07
2.75241e-07
2.74033e-07
2.7288e-07
2.71791e-07
2.70773e-07
2.69833e-07
2.68975e-07
2.68201e-07
2.67512e-07
2.66909e-07
2.66391e-07
2.65956e-07
2.65601e-07
2.65325e-07
2.65124e-07
2.64994e-07
2.64931e-07
2.70548e-07
2.69938e-07
2.69087e-07
2.68049e-07
2.66866e-07
2.65579e-07
2.64224e-07
2.62831e-07
2.61426e-07
2.60032e-07
2.58668e-07
2.57352e-07
2.56095e-07
2.54908e-07
2.538e-07
2.52776e-07
2.51842e-07
2.51e-07
2.5025e-07
2.49594e-07
2.49031e-07
2.48558e-07
2.48173e-07
2.47873e-07
2.47655e-07
2.47514e-07
2.47445e-07
2.53173e-07
2.52508e-07
2.51581e-07
2.5045e-07
2.49162e-07
2.47762e-07
2.46287e-07
2.44772e-07
2.43245e-07
2.41731e-07
2.40251e-07
2.38822e-07
2.37459e-07
2.36173e-07
2.34972e-07
2.33864e-07
2.32852e-07
2.31941e-07
2.3113e-07
2.30421e-07
2.29812e-07
2.29301e-07
2.28885e-07
2.28561e-07
2.28325e-07
2.28173e-07
2.28099e-07
2.33959e-07
2.33238e-07
2.32236e-07
2.31012e-07
2.29621e-07
2.28108e-07
2.26517e-07
2.24882e-07
2.23236e-07
2.21605e-07
2.20012e-07
2.18475e-07
2.17009e-07
2.15627e-07
2.14338e-07
2.13148e-07
2.12064e-07
2.11086e-07
2.10218e-07
2.09458e-07
2.08806e-07
2.08259e-07
2.07815e-07
2.07468e-07
2.07216e-07
2.07053e-07
2.06974e-07
2.12977e-07
2.12206e-07
2.11134e-07
2.09826e-07
2.08339e-07
2.06724e-07
2.05026e-07
2.03284e-07
2.01531e-07
1.99796e-07
1.98102e-07
1.9647e-07
1.94914e-07
1.93449e-07
1.92083e-07
1.90824e-07
1.89676e-07
1.88643e-07
1.87725e-07
1.86923e-07
1.86235e-07
1.85658e-07
1.85189e-07
1.84824e-07
1.84558e-07
1.84386e-07
1.84303e-07
1.90444e-07
1.89632e-07
1.88502e-07
1.87125e-07
1.85561e-07
1.83865e-07
1.82083e-07
1.80257e-07
1.78421e-07
1.76606e-07
1.74837e-07
1.73133e-07
1.71512e-07
1.69985e-07
1.68564e-07
1.67255e-07
1.66063e-07
1.64991e-07
1.64039e-07
1.63208e-07
1.62495e-07
1.61898e-07
1.61413e-07
1.61035e-07
1.6076e-07
1.60583e-07
1.60497e-07
1.66746e-07
1.65907e-07
1.64741e-07
1.63321e-07
1.6171e-07
1.59965e-07
1.58134e-07
1.56261e-07
1.5438e-07
1.52524e-07
1.50716e-07
1.48978e-07
1.47326e-07
1.45773e-07
1.44329e-07
1.43e-07
1.41791e-07
1.40705e-07
1.39742e-07
1.38901e-07
1.3818e-07
1.37577e-07
1.37087e-07
1.36707e-07
1.36429e-07
1.3625e-07
1.36164e-07
1.42453e-07
1.41609e-07
1.40436e-07
1.3901e-07
1.37394e-07
1.35646e-07
1.33815e-07
1.31945e-07
1.30071e-07
1.28224e-07
1.26429e-07
1.24706e-07
1.23071e-07
1.21536e-07
1.20111e-07
1.18802e-07
1.17613e-07
1.16545e-07
1.156e-07
1.14776e-07
1.1407e-07
1.1348e-07
1.13001e-07
1.12628e-07
1.12358e-07
1.12183e-07
1.12098e-07
1.18315e-07
1.17492e-07
1.1635e-07
1.14964e-07
1.13396e-07
1.11703e-07
1.09934e-07
1.0813e-07
1.06327e-07
1.04554e-07
1.02835e-07
1.01188e-07
9.96303e-08
9.81716e-08
9.68206e-08
9.55829e-08
9.44619e-08
9.34589e-08
9.25729e-08
9.1802e-08
9.11433e-08
9.05932e-08
9.01476e-08
8.98017e-08
8.95504e-08
8.93884e-08
8.93103e-08
9.52303e-08
9.44634e-08
9.3403e-08
9.21188e-08
9.06704e-08
8.91101e-08
8.74834e-08
8.58289e-08
8.41791e-08
8.25606e-08
8.09949e-08
7.9499e-08
7.8086e-08
7.67654e-08
7.55442e-08
7.44267e-08
7.34152e-08
7.25104e-08
7.17116e-08
7.10171e-08
7.04242e-08
6.99294e-08
6.95288e-08
6.9218e-08
6.89924e-08
6.88471e-08
6.8777e-08
7.42693e-08
7.35832e-08
7.26343e-08
7.14858e-08
7.01925e-08
6.88024e-08
6.73567e-08
6.58903e-08
6.4432e-08
6.30052e-08
6.16288e-08
6.03171e-08
5.90813e-08
5.79291e-08
5.6866e-08
5.58951e-08
5.50182e-08
5.42352e-08
5.3545e-08
5.29459e-08
5.24351e-08
5.20093e-08
5.1665e-08
5.13981e-08
5.12045e-08
5.10799e-08
5.10198e-08
5.59426e-08
5.53543e-08
5.45422e-08
5.35612e-08
5.24593e-08
5.12783e-08
5.00538e-08
4.88157e-08
4.75886e-08
4.63921e-08
4.52416e-08
4.41488e-08
4.31225e-08
4.21685e-08
4.12909e-08
4.04915e-08
3.97713e-08
3.91297e-08
3.85654e-08
3.80765e-08
3.76603e-08
3.73139e-08
3.70342e-08
3.68177e-08
3.66608e-08
3.65598e-08
3.65112e-08
4.07084e-08
4.02309e-08
3.9573e-08
3.87802e-08
3.78923e-08
3.69438e-08
3.59638e-08
3.49766e-08
3.40018e-08
3.30548e-08
3.21476e-08
3.1289e-08
3.04853e-08
2.97408e-08
2.90578e-08
2.84377e-08
2.78804e-08
2.73851e-08
2.69505e-08
2.65746e-08
2.62552e-08
2.59898e-08
2.57757e-08
2.56101e-08
2.54902e-08
2.54132e-08
2.53761e-08
2.87631e-08
2.83979e-08
2.78956e-08
2.72919e-08
2.66179e-08
2.59004e-08
2.51619e-08
2.44207e-08
2.36916e-08
2.29861e-08
2.23128e-08
2.16778e-08
2.10856e-08
2.05388e-08
2.00387e-08