/*--------------------------------*- C++ -*----------------------------------*\
| =========                 |                                                 |
| \\      /  F ield         | OpenFOAM: The Open Source CFD Toolbox           |
|  \\    /   O peration     | Version:  2106                                  |
|   \\  /    A nd           | Website:  www.openfoam.com                      |
|    \\/     M anipulation  |                                                 |
\*---------------------------------------------------------------------------*/
FoamFile
{
    version     2.0;
    format      ascii;
    arch        "LSB;label=32;scalar=64";
    class       volScalarField;
    location    "80.00032";
    object      C2H3_0;
}
// * * * * * * * * * * * * * * * * * * * * * * * * * * * * * * * * * * * * * //

dimensions      [0 0 0 0 0 0 0];

internalField   nonuniform List<scalar> 
3360
(
4.09555e-21
4.22736e-21
4.4108e-21
4.63518e-21
4.89115e-21
5.17031e-21
5.46507e-21
5.76861e-21
6.0748e-21
6.37829e-21
6.67439e-21
6.95915e-21
7.2293e-21
7.48223e-21
7.71598e-21
7.92914e-21
8.12087e-21
8.29081e-21
8.43902e-21
8.56595e-21
8.67235e-21
8.75926e-21
8.8279e-21
8.87968e-21
8.91611e-21
8.93877e-21
8.94929e-21
1.79671e-20
1.86276e-20
1.95596e-20
2.07204e-20
2.20742e-20
2.35902e-20
2.52406e-20
2.7e-20
2.88449e-20
3.07529e-20
3.27027e-20
3.46734e-20
3.66444e-20
3.85956e-20
4.05069e-20
4.23588e-20
4.4132e-20
4.5808e-20
4.7369e-20
4.87982e-20
5.00802e-20
5.12016e-20
5.21507e-20
5.29183e-20
5.34976e-20
5.38844e-20
5.40773e-20
5.63826e-20
5.88576e-20
6.23743e-20
6.67932e-20
7.19988e-20
7.78867e-20
8.43582e-20
9.13157e-20
9.86607e-20
1.06292e-19
1.14108e-19
1.22004e-19
1.29881e-19
1.37639e-19
1.45179e-19
1.52412e-19
1.59251e-19
1.65622e-19
1.71456e-19
1.76701e-19
1.81312e-19
1.85261e-19
1.88531e-19
1.91115e-19
1.9302e-19
1.94262e-19
1.94867e-19
1.64229e-19
1.72387e-19
1.84057e-19
1.98822e-19
2.16333e-19
2.36263e-19
2.58285e-19
2.8206e-19
3.07234e-19
3.33432e-19
3.60269e-19
3.87352e-19
4.14291e-19
4.40706e-19
4.66239e-19
4.90556e-19
5.13366e-19
5.34418e-19
5.53513e-19
5.705e-19
5.8528e-19
5.97801e-19
6.08056e-19
6.16077e-19
6.21929e-19
6.25709e-19
6.27532e-19
4.79904e-19
5.05646e-19
5.42539e-19
5.89324e-19
6.44931e-19
7.08333e-19
7.78473e-19
8.5423e-19
9.34412e-19
1.01776e-18
1.10297e-18
1.18874e-18
1.27377e-18
1.35684e-18
1.43681e-18
1.51266e-18
1.58351e-18
1.64864e-18
1.70748e-18
1.75962e-18
1.80483e-18
1.84301e-18
1.87418e-18
1.89849e-18
1.91619e-18
1.92759e-18
1.93307e-18
1.4152e-18
1.49426e-18
1.60772e-18
1.75172e-18
1.92298e-18
2.11829e-18
2.33437e-18
2.56769e-18
2.81449e-18
3.07083e-18
3.33262e-18
3.59578e-18
3.85631e-18
4.11041e-18
4.3546e-18
4.58579e-18
4.80134e-18
4.99912e-18
5.17748e-18
5.33527e-18
5.47185e-18
5.587e-18
5.68087e-18
5.75398e-18
5.80713e-18
5.84133e-18
5.85777e-18
4.20467e-18
4.44496e-18
4.78977e-18
5.22743e-18
5.74788e-18
6.3413e-18
6.99753e-18
7.7057e-18
8.45427e-18
9.23111e-18
1.00238e-17
1.08198e-17
1.1607e-17
1.23741e-17
1.31106e-17
1.38073e-17
1.44563e-17
1.50514e-17
1.55877e-17
1.60619e-17
1.64721e-17
1.68178e-17
1.70995e-17
1.73189e-17
1.74784e-17
1.75809e-17
1.76302e-17
1.25333e-17
1.32565e-17
1.42947e-17
1.56129e-17
1.7181e-17
1.89691e-17
2.09467e-17
2.30806e-17
2.5336e-17
2.76759e-17
3.00627e-17
3.24589e-17
3.48278e-17
3.71351e-17
3.93494e-17
4.1443e-17
4.33926e-17
4.51792e-17
4.67887e-17
4.82111e-17
4.94412e-17
5.04773e-17
5.13214e-17
5.19784e-17
5.24556e-17
5.27626e-17
5.29101e-17
3.74585e-17
3.96322e-17
4.27523e-17
4.67136e-17
5.14246e-17
5.67962e-17
6.27351e-17
6.91419e-17
7.5911e-17
8.29315e-17
9.00903e-17
9.72743e-17
1.04374e-16
1.11287e-16
1.1792e-16
1.24189e-16
1.30025e-16
1.35373e-16
1.4019e-16
1.44446e-16
1.48127e-16
1.51226e-16
1.53752e-16
1.55717e-16
1.57145e-16
1.58063e-16
1.58505e-16
1.11953e-16
1.18464e-16
1.27812e-16
1.3968e-16
1.53796e-16
1.6989e-16
1.87683e-16
2.06877e-16
2.27153e-16
2.4818e-16
2.69617e-16
2.91127e-16
3.1238e-16
3.33069e-16
3.52914e-16
3.71669e-16
3.89125e-16
4.05114e-16
4.19512e-16
4.32233e-16
4.43229e-16
4.52489e-16
4.6003e-16
4.65898e-16
4.70161e-16
4.72901e-16
4.74218e-16
3.34749e-16
3.54243e-16
3.82223e-16
4.17741e-16
4.59974e-16
5.08117e-16
5.61326e-16
6.18707e-16
6.79306e-16
7.42127e-16
8.06154e-16
8.70375e-16
9.3381e-16
9.95544e-16
1.05474e-15
1.11067e-15
1.16271e-15
1.21038e-15
1.25328e-15
1.29119e-15
1.32395e-15
1.35153e-15
1.37399e-15
1.39147e-15
1.40416e-15
1.41233e-15
1.41625e-15
9.99924e-16
1.05813e-15
1.14167e-15
1.2477e-15
1.37375e-15
1.5174e-15
1.67613e-15
1.84725e-15
2.02791e-15
2.21513e-15
2.40587e-15
2.59712e-15
2.78596e-15
2.96966e-15
3.14575e-15
3.31206e-15
3.46675e-15
3.60837e-15
3.73583e-15
3.84837e-15
3.94562e-15
4.02746e-15
4.0941e-15
4.14593e-15
4.18356e-15
4.20775e-15
4.21937e-15
2.98355e-15
3.15704e-15
3.40594e-15
3.72173e-15
4.09697e-15
4.52437e-15
4.99635e-15
5.50487e-15
6.04139e-15
6.59703e-15
7.16276e-15
7.72962e-15
8.289e-15
8.83282e-15
9.3538e-15
9.84556e-15
1.03027e-14
1.07211e-14
1.10974e-14
1.14296e-14
1.17165e-14
1.19578e-14
1.21543e-14
1.23071e-14
1.2418e-14
1.24892e-14
1.25235e-14
8.87674e-15
9.39147e-15
1.01298e-14
1.1066e-14
1.21778e-14
1.34434e-14
1.484e-14
1.63434e-14
1.79284e-14
1.95684e-14
2.12367e-14
2.29069e-14
2.45536e-14
2.6153e-14
2.7684e-14
2.91279e-14
3.04691e-14
3.16954e-14
3.27978e-14
3.37701e-14
3.46093e-14
3.53151e-14
3.58891e-14
3.63352e-14
3.66589e-14
3.68669e-14
3.69667e-14
2.63193e-14
2.78385e-14
3.0016e-14
3.27751e-14
3.60487e-14
3.97708e-14
4.38735e-14
4.82846e-14
5.29288e-14
5.77279e-14
6.26033e-14
6.74774e-14
7.22766e-14
7.69321e-14
8.13826e-14
8.55749e-14
8.94648e-14
9.30176e-14
9.62079e-14
9.90193e-14
1.01444e-13
1.03481e-13
1.05137e-13
1.06423e-13
1.07356e-13
1.07954e-13
1.08242e-13
7.76141e-14
8.20569e-14
8.84199e-14
9.64737e-14
1.06017e-13
1.16852e-13
1.28776e-13
1.41576e-13
1.55028e-13
1.68904e-13
1.82975e-13
1.97018e-13
2.10819e-13
2.24185e-13
2.3694e-13
2.48936e-13
2.60049e-13
2.70183e-13
2.79271e-13
2.87269e-13
2.94158e-13
2.9994e-13
3.04634e-13
3.08276e-13
3.10915e-13
3.12608e-13
3.1342e-13
2.27327e-13
2.40165e-13
2.58528e-13
2.81734e-13
3.09182e-13
3.40283e-13
3.74432e-13
4.11002e-13
4.49343e-13
4.88796e-13
5.28704e-13
5.68434e-13
6.07387e-13
6.45021e-13
6.80855e-13
7.14482e-13
7.4557e-13
7.73867e-13
7.99195e-13
8.21447e-13
8.40582e-13
8.56618e-13
8.69621e-13
8.79697e-13
8.86989e-13
8.91663e-13
8.93901e-13
6.60052e-13
6.96527e-13
7.4862e-13
8.14314e-13
8.91822e-13
9.794e-13
1.07528e-12
1.17763e-12
1.28459e-12
1.39429e-12
1.50489e-12
1.61465e-12
1.72192e-12
1.82525e-12
1.92334e-12
2.01514e-12
2.09979e-12
2.17665e-12
2.24528e-12
2.30545e-12
2.35708e-12
2.40028e-12
2.43524e-12
2.46229e-12
2.48184e-12
2.49435e-12
2.50034e-12
1.89671e-12
1.99813e-12
2.14266e-12
2.32441e-12
2.53812e-12
2.77871e-12
3.04104e-12
3.31993e-12
3.61015e-12
3.90654e-12
4.20413e-12
4.49822e-12
4.78451e-12
5.05922e-12
5.31907e-12
5.56141e-12
5.78414e-12
5.98575e-12
6.16527e-12
6.32224e-12
6.45663e-12
6.56879e-12
6.65938e-12
6.72935e-12
6.77982e-12
6.81206e-12
6.82747e-12
5.38598e-12
5.66057e-12
6.05073e-12
6.53953e-12
7.11179e-12
7.7529e-12
8.44837e-12
9.18379e-12
9.94495e-12
1.07181e-11
1.14902e-11
1.22493e-11
1.29846e-11
1.36867e-11
1.43478e-11
1.49617e-11
1.55237e-11
1.60304e-11
1.648e-11
1.68718e-11
1.72063e-11
1.74846e-11
1.77088e-11
1.78815e-11
1.80058e-11
1.80851e-11
1.81229e-11
1.51016e-11
1.58234e-11
1.68451e-11
1.81191e-11
1.96022e-11
2.12535e-11
2.3033e-11
2.49019e-11
2.68227e-11
2.87602e-11
3.06819e-11
3.25583e-11
3.43641e-11
3.60776e-11
3.76814e-11
3.91622e-11
4.05103e-11
4.17198e-11
4.27878e-11
4.37144e-11
4.45019e-11
4.51547e-11
4.56787e-11
4.60809e-11
4.63694e-11
4.65528e-11
4.66399e-11
4.17767e-11
4.36234e-11
4.62265e-11
4.94539e-11
5.31863e-11
5.73109e-11
6.17203e-11
6.63122e-11
7.0991e-11
7.56688e-11
8.02673e-11
8.47182e-11
8.89641e-11
9.29587e-11
9.66664e-11
1.00062e-10
1.03129e-10
1.05859e-10
1.08253e-10
1.10314e-10
1.12055e-10
1.13488e-10
1.14631e-10
1.15503e-10
1.16125e-10
1.16518e-10
1.16704e-10
1.13742e-10
1.18403e-10
1.24947e-10
1.3302e-10
1.42299e-10
1.52484e-10
1.63292e-10
1.7446e-10
1.85746e-10
1.96935e-10
2.07839e-10
2.183e-10
2.28191e-10
2.37413e-10
2.45894e-10
2.53589e-10
2.60476e-10
2.66549e-10
2.71821e-10
2.76319e-10
2.80078e-10
2.83142e-10
2.85561e-10
2.87387e-10
2.88676e-10
2.89481e-10
2.89857e-10
3.02621e-10
3.14479e-10
3.3112e-10
3.51638e-10
3.75221e-10
4.01113e-10
4.28615e-10
4.57081e-10
4.85925e-10
5.14627e-10
5.42733e-10
5.6986e-10
5.9569e-10
6.1997e-10
6.42506e-10
6.6316e-10
6.81841e-10
6.98504e-10
7.13139e-10
7.25771e-10
7.36451e-10
7.45256e-10
7.5228e-10
7.57637e-10
7.61449e-10
7.63851e-10
7.6498e-10
7.80413e-10
8.11317e-10
8.54953e-10
9.09232e-10
9.72349e-10
1.04268e-09
1.11874e-09
1.19918e-09
1.28278e-09
1.36839e-09
1.45498e-09
1.54156e-09
1.62723e-09
1.71111e-09
1.79239e-09
1.87027e-09
1.94402e-09
2.01293e-09
2.07637e-09
2.13379e-09
2.1847e-09
2.22872e-09
2.26555e-09
2.29501e-09
2.31702e-09
2.33157e-09
2.33876e-09
1.98542e-09
2.0689e-09
2.18783e-09
2.33757e-09
2.51427e-09
2.71444e-09
2.93479e-09
3.17196e-09
3.4224e-09
3.68222e-09
3.9472e-09
4.21279e-09
4.47428e-09
4.72704e-09
4.96679e-09
5.18985e-09
5.39338e-09
5.57545e-09
5.73507e-09
5.8721e-09
5.9871e-09
6.08115e-09
6.15564e-09
6.21216e-09
6.25233e-09
6.2777e-09
6.28974e-09
5.30997e-09
5.53377e-09
5.84914e-09
6.23889e-09
6.68573e-09
7.17118e-09
7.67552e-09
8.17851e-09
8.66084e-09
9.10576e-09
9.50055e-09
9.83739e-09
1.01134e-08
1.03299e-08
1.04914e-08
1.06045e-08
1.06767e-08
1.07156e-08
1.07285e-08
1.07224e-08
1.07031e-08
1.06761e-08
1.06459e-08
1.06163e-08
1.05906e-08
1.05715e-08
1.0561e-08
1.33196e-08
1.36341e-08
1.40477e-08
1.4513e-08
1.49878e-08
1.54373e-08
1.58358e-08
1.61674e-08
1.64248e-08
1.66072e-08
1.67189e-08
1.67672e-08
1.67607e-08
1.67091e-08
1.66218e-08
1.65076e-08
1.63748e-08
1.62309e-08
1.60826e-08
1.59359e-08
1.5796e-08
1.56674e-08
1.55539e-08
1.54589e-08
1.53849e-08
1.5334e-08
1.5308e-08
2.32564e-08
2.34641e-08
2.37272e-08
2.4009e-08
2.42789e-08
2.45147e-08
2.47013e-08
2.48303e-08
2.48988e-08
2.49083e-08
2.48635e-08
2.47705e-08
2.4637e-08
2.44708e-08
2.42798e-08
2.4072e-08
2.38545e-08
2.36343e-08
2.34175e-08
2.321e-08
2.30167e-08
2.28422e-08
2.26904e-08
2.25645e-08
2.24673e-08
2.24009e-08
2.23672e-08
3.33835e-08
3.36153e-08
3.39178e-08
3.42561e-08
3.46008e-08
3.49289e-08
3.52239e-08
3.5475e-08
3.56762e-08
3.58255e-08
3.59238e-08
3.59742e-08
3.5981e-08
3.59497e-08
3.58862e-08
3.57965e-08
3.56869e-08
3.55635e-08
3.54321e-08
3.52984e-08
3.51675e-08
3.50444e-08
3.49333e-08
3.48384e-08
3.47632e-08
3.47106e-08
3.46832e-08
4.5026e-08
4.5456e-08
4.60403e-08
4.67319e-08
4.7491e-08
4.82841e-08
4.90847e-08
4.98722e-08
5.06312e-08
5.13504e-08
5.20221e-08
5.2641e-08
5.32043e-08
5.37105e-08
5.41595e-08
5.45524e-08
5.48909e-08
5.51777e-08
5.54159e-08
5.56093e-08
5.5762e-08
5.58785e-08
5.59636e-08
5.6022e-08
5.60587e-08
5.60785e-08
5.60862e-08
5.90961e-08
5.98795e-08
6.09652e-08
6.22843e-08
6.37775e-08
6.53937e-08
6.70889e-08
6.88259e-08
7.05729e-08
7.2303e-08
7.39932e-08
7.56241e-08
7.7179e-08
7.86445e-08
8.00095e-08
8.12653e-08
8.24059e-08
8.34273e-08
8.43277e-08
8.51075e-08
8.57686e-08
8.63149e-08
8.67515e-08
8.7085e-08
8.73226e-08
8.74724e-08
8.75429e-08
7.59424e-08
7.71488e-08
7.88324e-08
8.0896e-08
8.3255e-08
8.58348e-08
8.85694e-08
9.14001e-08
9.42749e-08
9.71477e-08
9.9978e-08
1.0273e-07
1.05372e-07
1.0788e-07
1.1023e-07
1.12407e-07
1.14396e-07
1.16191e-07
1.17786e-07
1.19179e-07
1.20371e-07
1.21364e-07
1.22166e-07
1.22784e-07
1.23228e-07
1.23512e-07
1.23647e-07
9.5191e-08
9.67388e-08
9.88998e-08
1.01549e-07
1.04578e-07
1.07889e-07
1.11395e-07
1.15018e-07
1.18691e-07
1.22354e-07
1.25954e-07
1.29447e-07
1.32795e-07
1.35968e-07
1.38935e-07
1.41675e-07
1.4417e-07
1.46411e-07
1.48393e-07
1.50116e-07
1.51583e-07
1.52801e-07
1.5378e-07
1.54534e-07
1.55075e-07
1.55419e-07
1.55583e-07
1.15381e-07
1.1706e-07
1.19398e-07
1.22255e-07
1.25509e-07
1.29053e-07
1.3279e-07
1.36638e-07
1.40519e-07
1.44363e-07
1.48113e-07
1.5172e-07
1.55147e-07
1.58361e-07
1.61341e-07
1.64069e-07
1.66535e-07
1.68734e-07
1.70666e-07
1.72335e-07
1.73749e-07
1.74917e-07
1.75853e-07
1.76569e-07
1.77082e-07
1.77408e-07
1.77562e-07
1.34365e-07
1.35954e-07
1.38158e-07
1.40837e-07
1.43869e-07
1.47143e-07
1.50564e-07
1.5405e-07
1.57528e-07
1.6094e-07
1.64238e-07
1.6738e-07
1.70339e-07
1.73091e-07
1.7562e-07
1.77918e-07
1.7998e-07
1.81806e-07
1.83401e-07
1.8477e-07
1.85924e-07
1.86872e-07
1.87628e-07
1.88205e-07
1.88616e-07
1.88876e-07
1.88999e-07
1.50116e-07
1.51428e-07
1.53241e-07
1.55433e-07
1.57897e-07
1.60538e-07
1.63276e-07
1.66042e-07
1.68778e-07
1.7144e-07
1.73989e-07
1.76399e-07
1.78649e-07
1.80725e-07
1.82619e-07
1.84328e-07
1.8585e-07
1.87191e-07
1.88354e-07
1.89347e-07
1.9018e-07
1.90862e-07
1.91403e-07
1.91814e-07
1.92106e-07
1.92291e-07
1.92378e-07
1.6129e-07
1.62259e-07
1.63594e-07
1.65199e-07
1.66993e-07
1.68903e-07
1.70868e-07
1.72839e-07
1.74774e-07
1.7664e-07
1.78415e-07
1.80079e-07
1.81621e-07
1.83034e-07
1.84314e-07
1.85461e-07
1.86477e-07
1.87366e-07
1.88133e-07
1.88786e-07
1.8933e-07
1.89774e-07
1.90124e-07
1.9039e-07
1.90578e-07
1.90697e-07
1.90752e-07
1.6789e-07
1.68538e-07
1.69426e-07
1.7049e-07
1.71672e-07
1.72923e-07
1.74201e-07
1.75473e-07
1.76712e-07
1.77898e-07
1.79018e-07
1.8006e-07
1.81018e-07
1.81889e-07
1.82674e-07
1.83372e-07
1.83986e-07
1.8452e-07
1.84979e-07
1.85367e-07
1.85689e-07
1.85951e-07
1.86156e-07
1.86312e-07
1.86422e-07
1.8649e-07
1.86523e-07
1.70714e-07
1.71104e-07
1.71635e-07
1.72269e-07
1.72967e-07
1.73701e-07
1.74446e-07
1.7518e-07
1.75889e-07
1.76562e-07
1.77191e-07
1.7777e-07
1.78299e-07
1.78775e-07
1.79199e-07
1.79574e-07
1.799e-07
1.80183e-07
1.80423e-07
1.80624e-07
1.80791e-07
1.80925e-07
1.81029e-07
1.81108e-07
1.81163e-07
1.81198e-07
1.81214e-07
1.70818e-07
1.71019e-07
1.71293e-07
1.71615e-07
1.71967e-07
1.72333e-07
1.72699e-07
1.73055e-07
1.73393e-07
1.73708e-07
1.73998e-07
1.7426e-07
1.74495e-07
1.74703e-07
1.74884e-07
1.75041e-07
1.75176e-07
1.75289e-07
1.75384e-07
1.75463e-07
1.75526e-07
1.75576e-07
1.75615e-07
1.75643e-07
1.75663e-07
1.75675e-07
1.7568e-07
1.69173e-07
1.69247e-07
1.69346e-07
1.6946e-07
1.6958e-07
1.697e-07
1.69815e-07
1.69921e-07
1.70015e-07
1.70097e-07
1.70167e-07
1.70223e-07
1.70269e-07
1.70304e-07
1.70329e-07
1.70348e-07
1.7036e-07
1.70366e-07
1.70369e-07
1.7037e-07
1.70368e-07
1.70365e-07
1.70362e-07
1.70359e-07
1.70356e-07
1.70354e-07
1.70353e-07
1.66532e-07
1.66525e-07
1.66513e-07
1.66495e-07
1.66468e-07
1.66434e-07
1.66391e-07
1.6634e-07
1.66283e-07
1.6622e-07
1.66153e-07
1.66083e-07
1.66011e-07
1.65941e-07
1.65871e-07
1.65805e-07
1.65742e-07
1.65685e-07
1.65632e-07
1.65585e-07
1.65544e-07
1.65509e-07
1.65481e-07
1.65458e-07
1.65442e-07
1.65431e-07
1.65426e-07
1.63418e-07
1.63362e-07
1.63283e-07
1.63185e-07
1.63071e-07
1.62944e-07
1.62808e-07
1.62665e-07
1.62517e-07
1.62369e-07
1.62222e-07
1.62078e-07
1.61939e-07
1.61807e-07
1.61682e-07
1.61567e-07
1.61461e-07
1.61366e-07
1.61281e-07
1.61207e-07
1.61144e-07
1.61091e-07
1.61048e-07
1.61015e-07
1.60991e-07
1.60975e-07
1.60968e-07
1.60163e-07
1.6008e-07
1.59964e-07
1.59821e-07
1.59658e-07
1.5948e-07
1.59291e-07
1.59097e-07
1.58901e-07
1.58706e-07
1.58515e-07
1.58331e-07
1.58155e-07
1.5799e-07
1.57836e-07
1.57695e-07
1.57566e-07
1.57451e-07
1.57349e-07
1.57261e-07
1.57185e-07
1.57123e-07
1.57072e-07
1.57033e-07
1.57005e-07
1.56987e-07
1.56978e-07
1.56966e-07
1.56869e-07
1.56734e-07
1.56569e-07
1.56381e-07
1.56178e-07
1.55964e-07
1.55745e-07
1.55524e-07
1.55307e-07
1.55095e-07
1.54892e-07
1.54699e-07
1.54518e-07
1.54351e-07
1.54197e-07
1.54058e-07
1.53934e-07
1.53824e-07
1.53729e-07
1.53649e-07
1.53581e-07
1.53527e-07
1.53486e-07
1.53456e-07
1.53436e-07
1.53427e-07
1.53934e-07
1.53832e-07
1.53689e-07
1.53515e-07
1.53318e-07
1.53105e-07
1.52881e-07
1.52653e-07
1.52424e-07
1.52199e-07
1.5198e-07
1.5177e-07
1.51572e-07
1.51386e-07
1.51214e-07
1.51057e-07
1.50915e-07
1.50788e-07
1.50676e-07
1.5058e-07
1.50497e-07
1.50429e-07
1.50374e-07
1.50331e-07
1.50301e-07
1.50281e-07
1.50272e-07
1.51117e-07
1.51014e-07
1.5087e-07
1.50696e-07
1.50498e-07
1.50284e-07
1.5006e-07
1.49832e-07
1.49604e-07
1.49379e-07
1.49161e-07
1.48953e-07
1.48755e-07
1.48571e-07
1.484e-07
1.48244e-07
1.48104e-07
1.47978e-07
1.47867e-07
1.47771e-07
1.47689e-07
1.47622e-07
1.47567e-07
1.47525e-07
1.47495e-07
1.47475e-07
1.47466e-07
1.48531e-07
1.48429e-07
1.48289e-07
1.48118e-07
1.47924e-07
1.47715e-07
1.47497e-07
1.47274e-07
1.47051e-07
1.46831e-07
1.46619e-07
1.46415e-07
1.46223e-07
1.46043e-07
1.45877e-07
1.45725e-07
1.45587e-07
1.45465e-07
1.45357e-07
1.45263e-07
1.45183e-07
1.45117e-07
1.45064e-07
1.45023e-07
1.44993e-07
1.44974e-07
1.44965e-07
1.46172e-07
1.46074e-07
1.45938e-07
1.45773e-07
1.45586e-07
1.45385e-07
1.45174e-07
1.44959e-07
1.44744e-07
1.44532e-07
1.44327e-07
1.44131e-07
1.43945e-07
1.43772e-07
1.43611e-07
1.43464e-07
1.43331e-07
1.43213e-07
1.43108e-07
1.43018e-07
1.4294e-07
1.42876e-07
1.42825e-07
1.42785e-07
1.42756e-07
1.42738e-07
1.42729e-07
1.44026e-07
1.43932e-07
1.43803e-07
1.43645e-07
1.43466e-07
1.43273e-07
1.43071e-07
1.42864e-07
1.42658e-07
1.42455e-07
1.42259e-07
1.4207e-07
1.41892e-07
1.41726e-07
1.41571e-07
1.4143e-07
1.41302e-07
1.41188e-07
1.41087e-07
1.41e-07
1.40926e-07
1.40864e-07
1.40814e-07
1.40775e-07
1.40748e-07
1.4073e-07
1.40721e-07
1.42076e-07
1.41987e-07
1.41863e-07
1.41712e-07
1.41542e-07
1.41357e-07
1.41164e-07
1.40967e-07
1.4077e-07
1.40576e-07
1.40388e-07
1.40208e-07
1.40037e-07
1.39877e-07
1.39729e-07
1.39593e-07
1.39471e-07
1.39361e-07
1.39264e-07
1.3918e-07
1.39108e-07
1.39049e-07
1.39001e-07
1.38964e-07
1.38937e-07
1.38919e-07
1.38911e-07
1.40303e-07
1.40217e-07
1.40099e-07
1.39956e-07
1.39793e-07
1.39617e-07
1.39433e-07
1.39245e-07
1.39056e-07
1.38871e-07
1.38691e-07
1.38518e-07
1.38354e-07
1.38201e-07
1.38059e-07
1.37929e-07
1.37811e-07
1.37705e-07
1.37612e-07
1.37531e-07
1.37462e-07
1.37405e-07
1.37358e-07
1.37322e-07
1.37297e-07
1.3728e-07
1.37272e-07
1.38685e-07
1.38604e-07
1.38492e-07
1.38355e-07
1.38199e-07
1.38031e-07
1.37855e-07
1.37675e-07
1.37495e-07
1.37318e-07
1.37145e-07
1.3698e-07
1.36823e-07
1.36675e-07
1.36539e-07
1.36414e-07
1.363e-07
1.36199e-07
1.36109e-07
1.36031e-07
1.35964e-07
1.35908e-07
1.35864e-07
1.35829e-07
1.35804e-07
1.35788e-07
1.3578e-07
1.37207e-07
1.37129e-07
1.37021e-07
1.3689e-07
1.36742e-07
1.36581e-07
1.36413e-07
1.3624e-07
1.36068e-07
1.35897e-07
1.35732e-07
1.35572e-07
1.35422e-07
1.3528e-07
1.35148e-07
1.35028e-07
1.34918e-07
1.3482e-07
1.34733e-07
1.34658e-07
1.34593e-07
1.3454e-07
1.34496e-07
1.34463e-07
1.34438e-07
1.34422e-07
1.34415e-07
1.35849e-07
1.35775e-07
1.35672e-07
1.35546e-07
1.35404e-07
1.35249e-07
1.35088e-07
1.34922e-07
1.34756e-07
1.34592e-07
1.34433e-07
1.34279e-07
1.34134e-07
1.33997e-07
1.3387e-07
1.33754e-07
1.33648e-07
1.33553e-07
1.33469e-07
1.33396e-07
1.33333e-07
1.33281e-07
1.33239e-07
1.33206e-07
1.33182e-07
1.33167e-07
1.3316e-07
1.34597e-07
1.34526e-07
1.34427e-07
1.34306e-07
1.34169e-07
1.3402e-07
1.33865e-07
1.33705e-07
1.33545e-07
1.33387e-07
1.33233e-07
1.33085e-07
1.32944e-07
1.32812e-07
1.32689e-07
1.32576e-07
1.32473e-07
1.32381e-07
1.32299e-07
1.32228e-07
1.32167e-07
1.32116e-07
1.32075e-07
1.32043e-07
1.3202e-07
1.32005e-07
1.31998e-07
1.33436e-07
1.33368e-07
1.33272e-07
1.33156e-07
1.33023e-07
1.3288e-07
1.3273e-07
1.32575e-07
1.3242e-07
1.32267e-07
1.32118e-07
1.31974e-07
1.31838e-07
1.31709e-07
1.3159e-07
1.3148e-07
1.3138e-07
1.3129e-07
1.31211e-07
1.31141e-07
1.31082e-07
1.31032e-07
1.30992e-07
1.30961e-07
1.30938e-07
1.30923e-07
1.30916e-07
1.32354e-07
1.32288e-07
1.32195e-07
1.32082e-07
1.31954e-07
1.31815e-07
1.31669e-07
1.31519e-07
1.31369e-07
1.3122e-07
1.31075e-07
1.30935e-07
1.30802e-07
1.30677e-07
1.3056e-07
1.30453e-07
1.30355e-07
1.30268e-07
1.3019e-07
1.30122e-07
1.30064e-07
1.30015e-07
1.29975e-07
1.29945e-07
1.29923e-07
1.29908e-07
1.29901e-07
1.31337e-07
1.31273e-07
1.31183e-07
1.31073e-07
1.30948e-07
1.30813e-07
1.30671e-07
1.30525e-07
1.30378e-07
1.30233e-07
1.30091e-07
1.29955e-07
1.29825e-07
1.29702e-07
1.29588e-07
1.29483e-07
1.29387e-07
1.29301e-07
1.29224e-07
1.29158e-07
1.291e-07
1.29053e-07
1.29014e-07
1.28984e-07
1.28962e-07
1.28948e-07
1.28941e-07
1.30374e-07
1.30311e-07
1.30223e-07
1.30116e-07
1.29995e-07
1.29862e-07
1.29723e-07
1.2958e-07
1.29437e-07
1.29294e-07
1.29155e-07
1.29021e-07
1.28893e-07
1.28773e-07
1.28661e-07
1.28557e-07
1.28463e-07
1.28378e-07
1.28303e-07
1.28237e-07
1.2818e-07
1.28133e-07
1.28095e-07
1.28065e-07
1.28043e-07
1.28029e-07
1.28022e-07
1.29453e-07
1.29391e-07
1.29305e-07
1.292e-07
1.2908e-07
1.2895e-07
1.28814e-07
1.28673e-07
1.28532e-07
1.28391e-07
1.28254e-07
1.28122e-07
1.27996e-07
1.27877e-07
1.27766e-07
1.27664e-07
1.27571e-07
1.27487e-07
1.27412e-07
1.27347e-07
1.27291e-07
1.27244e-07
1.27206e-07
1.27176e-07
1.27155e-07
1.27141e-07
1.27134e-07
1.28562e-07
1.28501e-07
1.28416e-07
1.28312e-07
1.28194e-07
1.28066e-07
1.2793e-07
1.27791e-07
1.27651e-07
1.27513e-07
1.27377e-07
1.27246e-07
1.27121e-07
1.27003e-07
1.26893e-07
1.26791e-07
1.26698e-07
1.26615e-07
1.2654e-07
1.26475e-07
1.2642e-07
1.26373e-07
1.26335e-07
1.26305e-07
1.26284e-07
1.2627e-07
1.26263e-07
1.27688e-07
1.27627e-07
1.27543e-07
1.2744e-07
1.27323e-07
1.27195e-07
1.2706e-07
1.26922e-07
1.26783e-07
1.26644e-07
1.26509e-07
1.26378e-07
1.26254e-07
1.26136e-07
1.26026e-07
1.25924e-07
1.25831e-07
1.25748e-07
1.25673e-07
1.25608e-07
1.25553e-07
1.25506e-07
1.25468e-07
1.25438e-07
1.25416e-07
1.25402e-07
1.25396e-07
1.26817e-07
1.26757e-07
1.26672e-07
1.26569e-07
1.26452e-07
1.26324e-07
1.26189e-07
1.26051e-07
1.25911e-07
1.25772e-07
1.25637e-07
1.25505e-07
1.2538e-07
1.25262e-07
1.25151e-07
1.25049e-07
1.24955e-07
1.24871e-07
1.24796e-07
1.24731e-07
1.24675e-07
1.24627e-07
1.24589e-07
1.24559e-07
1.24537e-07
1.24523e-07
1.24516e-07
1.25935e-07
1.25874e-07
1.25789e-07
1.25685e-07
1.25566e-07
1.25438e-07
1.25302e-07
1.25162e-07
1.25021e-07
1.2488e-07
1.24743e-07
1.2461e-07
1.24484e-07
1.24364e-07
1.24252e-07
1.24148e-07
1.24053e-07
1.23968e-07
1.23892e-07
1.23826e-07
1.23768e-07
1.23721e-07
1.23681e-07
1.23651e-07
1.23629e-07
1.23615e-07
1.23608e-07
1.25023e-07
1.24961e-07
1.24875e-07
1.24769e-07
1.24649e-07
1.24518e-07
1.24379e-07
1.24237e-07
1.24093e-07
1.2395e-07
1.2381e-07
1.23675e-07
1.23545e-07
1.23423e-07
1.23308e-07
1.23203e-07
1.23106e-07
1.23019e-07
1.22941e-07
1.22873e-07
1.22814e-07
1.22765e-07
1.22725e-07
1.22694e-07
1.22672e-07
1.22657e-07
1.2265e-07
1.24063e-07
1.23999e-07
1.23911e-07
1.23802e-07
1.23678e-07
1.23544e-07
1.23401e-07
1.23255e-07
1.23107e-07
1.2296e-07
1.22816e-07
1.22676e-07
1.22543e-07
1.22417e-07
1.22299e-07
1.2219e-07
1.2209e-07
1.22e-07
1.2192e-07
1.2185e-07
1.21789e-07
1.21739e-07
1.21697e-07
1.21665e-07
1.21642e-07
1.21627e-07
1.21619e-07
1.23031e-07
1.22965e-07
1.22873e-07
1.2276e-07
1.22632e-07
1.22492e-07
1.22344e-07
1.22192e-07
1.22038e-07
1.21885e-07
1.21735e-07
1.2159e-07
1.21451e-07
1.2132e-07
1.21197e-07
1.21084e-07
1.2098e-07
1.20886e-07
1.20803e-07
1.20729e-07
1.20667e-07
1.20614e-07
1.20571e-07
1.20537e-07
1.20513e-07
1.20497e-07
1.20489e-07
1.219e-07
1.2183e-07
1.21734e-07
1.21615e-07
1.21481e-07
1.21334e-07
1.21178e-07
1.21019e-07
1.20857e-07
1.20696e-07
1.20539e-07
1.20386e-07
1.2024e-07
1.20102e-07
1.19973e-07
1.19854e-07
1.19744e-07
1.19646e-07
1.19558e-07
1.19481e-07
1.19414e-07
1.19359e-07
1.19313e-07
1.19278e-07
1.19252e-07
1.19236e-07
1.19228e-07
1.20638e-07
1.20564e-07
1.20462e-07
1.20336e-07
1.20193e-07
1.20037e-07
1.19872e-07
1.19702e-07
1.1953e-07
1.1936e-07
1.19192e-07
1.1903e-07
1.18875e-07
1.18728e-07
1.1859e-07
1.18463e-07
1.18347e-07
1.18242e-07
1.18148e-07
1.18066e-07
1.17996e-07
1.17937e-07
1.17888e-07
1.17851e-07
1.17824e-07
1.17806e-07
1.17797e-07
1.19209e-07
1.1913e-07
1.1902e-07
1.18885e-07
1.18731e-07
1.18563e-07
1.18386e-07
1.18204e-07
1.18019e-07
1.17835e-07
1.17655e-07
1.17481e-07
1.17314e-07
1.17156e-07
1.17008e-07
1.16871e-07
1.16746e-07
1.16633e-07
1.16533e-07
1.16444e-07
1.16369e-07
1.16305e-07
1.16253e-07
1.16213e-07
1.16183e-07
1.16164e-07
1.16155e-07
1.17571e-07
1.17485e-07
1.17365e-07
1.17219e-07
1.17051e-07
1.16869e-07
1.16676e-07
1.16478e-07
1.16277e-07
1.16078e-07
1.15882e-07
1.15692e-07
1.15511e-07
1.15339e-07
1.15178e-07
1.1503e-07
1.14894e-07
1.14771e-07
1.14662e-07
1.14566e-07
1.14484e-07
1.14414e-07
1.14358e-07
1.14314e-07
1.14282e-07
1.14262e-07
1.14252e-07
1.15674e-07
1.1558e-07
1.15448e-07
1.15287e-07
1.15104e-07
1.14903e-07
1.14692e-07
1.14474e-07
1.14253e-07
1.14034e-07
1.13819e-07
1.13611e-07
1.13412e-07
1.13223e-07
1.13047e-07
1.12884e-07
1.12735e-07
1.126e-07
1.1248e-07
1.12375e-07
1.12285e-07
1.12209e-07
1.12147e-07
1.12099e-07
1.12064e-07
1.12042e-07
1.12031e-07
1.13464e-07
1.1336e-07
1.13214e-07
1.13035e-07
1.12832e-07
1.1261e-07
1.12376e-07
1.12134e-07
1.1189e-07
1.11647e-07
1.11409e-07
1.11178e-07
1.10958e-07
1.10749e-07
1.10554e-07
1.10374e-07
1.10209e-07
1.1006e-07
1.09927e-07
1.09811e-07
1.09711e-07
1.09628e-07
1.0956e-07
1.09506e-07
1.09468e-07
1.09443e-07
1.09431e-07
1.10879e-07
1.10763e-07
1.106e-07
1.10401e-07
1.10174e-07
1.09926e-07
1.09664e-07
1.09395e-07
1.09123e-07
1.08852e-07
1.08586e-07
1.08329e-07
1.08084e-07
1.07851e-07
1.07634e-07
1.07433e-07
1.0725e-07
1.07084e-07
1.06936e-07
1.06807e-07
1.06696e-07
1.06603e-07
1.06528e-07
1.06469e-07
1.06426e-07
1.06398e-07
1.06384e-07
1.07854e-07
1.07723e-07
1.07541e-07
1.07317e-07
1.07063e-07
1.06785e-07
1.06492e-07
1.0619e-07
1.05884e-07
1.05581e-07
1.05284e-07
1.04996e-07
1.04721e-07
1.04461e-07
1.04218e-07
1.03994e-07
1.03789e-07
1.03603e-07
1.03439e-07
1.03295e-07
1.03171e-07
1.03067e-07
1.02982e-07
1.02917e-07
1.02869e-07
1.02838e-07
1.02823e-07
1.04321e-07
1.04174e-07
1.03968e-07
1.03717e-07
1.03431e-07
1.03118e-07
1.02789e-07
1.0245e-07
1.02107e-07
1.01767e-07
1.01433e-07
1.01111e-07
1.00802e-07
1.00511e-07
1.00239e-07
9.99875e-08
9.97579e-08
9.95508e-08
9.93666e-08
9.92055e-08
9.90671e-08
9.89511e-08
9.88567e-08
9.87833e-08
9.87298e-08
9.86953e-08
9.86786e-08
1.00214e-07
1.00048e-07
9.98171e-08
9.95345e-08
9.92125e-08
9.88618e-08
9.84918e-08
9.8111e-08
9.77265e-08
9.73448e-08
9.6971e-08
9.66097e-08
9.62646e-08
9.59386e-08
9.56342e-08
9.53531e-08
9.50964e-08
9.48651e-08
9.46595e-08
9.44797e-08
9.43253e-08
9.41959e-08
9.40907e-08
9.40089e-08
9.39493e-08
9.39109e-08
9.38923e-08
9.54736e-08
9.52877e-08
9.50288e-08
9.47122e-08
9.43515e-08
9.39589e-08
9.3545e-08
9.31192e-08
9.26896e-08
9.22632e-08
9.1846e-08
9.1443e-08
9.10583e-08
9.06952e-08
9.03563e-08
9.00434e-08
8.9758e-08
8.95009e-08
8.92724e-08
8.90727e-08
8.89013e-08
8.87577e-08
8.86411e-08
8.85504e-08
8.84844e-08
8.84418e-08
8.84212e-08
9.00578e-08
8.98508e-08
8.95625e-08
8.92101e-08
8.8809e-08
8.83726e-08
8.79128e-08
8.74401e-08
8.69635e-08
8.64909e-08
8.60289e-08
8.55829e-08
8.51574e-08
8.47561e-08
8.43817e-08
8.40365e-08
8.37216e-08
8.34382e-08
8.31866e-08
8.29666e-08
8.27781e-08
8.26201e-08
8.24919e-08
8.23922e-08
8.23196e-08
8.22729e-08
8.22503e-08
8.39505e-08
8.37222e-08
8.34045e-08
8.30164e-08
8.25749e-08
8.20949e-08
8.15897e-08
8.10707e-08
8.05479e-08
8.003e-08
7.9524e-08
7.90361e-08
7.8571e-08
7.81328e-08
7.77243e-08
7.73478e-08
7.70048e-08
7.66962e-08
7.64224e-08
7.61833e-08
7.59784e-08
7.58068e-08
7.56676e-08
7.55594e-08
7.54808e-08
7.54301e-08
7.54056e-08
7.71744e-08
7.69263e-08
7.65811e-08
7.61597e-08
7.56808e-08
7.51606e-08
7.46135e-08
7.40522e-08
7.34874e-08
7.29285e-08
7.23831e-08
7.18576e-08
7.13574e-08
7.08864e-08
7.04479e-08
7.00441e-08
6.96765e-08
6.93462e-08
6.90532e-08
6.87976e-08
6.85787e-08
6.83956e-08
6.82471e-08
6.81317e-08
6.80479e-08
6.79939e-08
6.79678e-08
6.9804e-08
6.95392e-08
6.9171e-08
6.8722e-08
6.82121e-08
6.76589e-08
6.70779e-08
6.64826e-08
6.58843e-08
6.5293e-08
6.47168e-08
6.41624e-08
6.36353e-08
6.31397e-08
6.26787e-08
6.22547e-08
6.18692e-08
6.15231e-08
6.12165e-08
6.09491e-08
6.07204e-08
6.05292e-08
6.03742e-08
6.0254e-08
6.01666e-08
6.01104e-08
6.00833e-08
6.19755e-08
6.16993e-08
6.13156e-08
6.08483e-08
6.03182e-08
5.97439e-08
5.91417e-08
5.85255e-08
5.79074e-08
5.72974e-08
5.67041e-08
5.61342e-08
5.55931e-08
5.50853e-08
5.46137e-08
5.41806e-08
5.37874e-08
5.34348e-08
5.31229e-08
5.28513e-08
5.26191e-08
5.24253e-08
5.22683e-08
5.21466e-08
5.20583e-08
5.20014e-08
5.1974e-08
5.38937e-08
5.36142e-08
5.32263e-08
5.27545e-08
5.22202e-08
5.16425e-08
5.10378e-08
5.04205e-08
4.98027e-08
4.91946e-08
4.86047e-08
4.80397e-08
4.75052e-08
4.70053e-08
4.65431e-08
4.61209e-08
4.57401e-08
4.54011e-08
4.51029e-08
4.48446e-08
4.46247e-08
4.44418e-08
4.42943e-08
4.41802e-08
4.40977e-08
4.40448e-08
4.40193e-08
4.58493e-08
4.55809e-08
4.52108e-08
4.47637e-08
4.42592e-08
4.37152e-08
4.31472e-08
4.25686e-08
4.19909e-08
4.14235e-08
4.08742e-08
4.03491e-08
3.9853e-08
3.93895e-08
3.89612e-08
3.85697e-08
3.8216e-08
3.79002e-08
3.7622e-08
3.73809e-08
3.71756e-08
3.7005e-08
3.68673e-08
3.6761e-08
3.66842e-08
3.66349e-08
3.66112e-08
3.83527e-08
3.81037e-08
3.77591e-08
3.73413e-08
3.687e-08
3.63624e-08
3.58335e-08
3.52959e-08
3.47603e-08
3.42355e-08
3.37286e-08
3.32451e-08
3.27894e-08
3.23645e-08
3.19727e-08
3.16153e-08
3.12929e-08
3.10056e-08
3.0753e-08
3.05344e-08
3.03487e-08
3.01945e-08
3.00703e-08
2.99745e-08
2.99054e-08
2.98611e-08
2.98399e-08
3.14684e-08
3.12434e-08
3.09323e-08
3.05557e-08
3.01317e-08
2.96762e-08
2.92027e-08
2.87228e-08
2.8246e-08
2.778e-08
2.73317e-08
2.69057e-08
2.65057e-08
2.6134e-08
2.57923e-08
2.54816e-08
2.52022e-08
2.49539e-08
2.47363e-08
2.45484e-08
2.43891e-08
2.42573e-08
2.41514e-08
2.40698e-08
2.40111e-08
2.39736e-08
2.39557e-08
2.5405e-08
2.52118e-08
2.49451e-08
2.46232e-08
2.42618e-08
2.38748e-08
2.34742e-08
2.30698e-08
2.26697e-08
2.22806e-08
2.19075e-08
2.15543e-08
2.12238e-08
2.0918e-08
2.0638e-08
2.03843e-08
2.01571e-08
1.9956e-08
1.97803e-08
1.96292e-08
1.95016e-08
1.93963e-08
1.93119e-08
1.92472e-08
1.92008e-08
1.91712e-08
1.91571e-08
2.0361e-08
2.02048e-08
1.99897e-08
1.97308e-08
1.94412e-08
1.91324e-08
1.88141e-08
1.84942e-08
1.81793e-08
1.78746e-08
1.75839e-08
1.73102e-08
1.70554e-08
1.68209e-08
1.66072e-08
1.64147e-08
1.62432e-08