/*--------------------------------*- C++ -*----------------------------------*\
| =========                 |                                                 |
| \\      /  F ield         | OpenFOAM: The Open Source CFD Toolbox           |
|  \\    /   O peration     | Version:  2106                                  |
|   \\  /    A nd           | Website:  www.openfoam.com                      |
|    \\/     M anipulation  |                                                 |
\*---------------------------------------------------------------------------*/
FoamFile
{
    version     2.0;
    format      ascii;
    arch        "LSB;label=32;scalar=64";
    class       volScalarField;
    location    "80.00032";
    object      C5H6_0;
}
// * * * * * * * * * * * * * * * * * * * * * * * * * * * * * * * * * * * * * //

dimensions      [0 0 0 0 0 0 0];

internalField   nonuniform List<scalar> 
3360
(
2.70286e-18
2.78985e-18
2.9109e-18
3.05896e-18
3.22787e-18
3.41209e-18
3.6066e-18
3.80689e-18
4.00895e-18
4.20921e-18
4.4046e-18
4.5925e-18
4.77077e-18
4.93768e-18
5.09192e-18
5.23258e-18
5.3591e-18
5.47124e-18
5.56904e-18
5.65279e-18
5.72301e-18
5.78035e-18
5.82565e-18
5.85982e-18
5.88385e-18
5.89881e-18
5.90575e-18
1.18567e-17
1.22925e-17
1.29075e-17
1.36734e-17
1.45668e-17
1.55671e-17
1.66561e-17
1.7817e-17
1.90343e-17
2.02933e-17
2.15799e-17
2.28802e-17
2.41808e-17
2.54682e-17
2.67294e-17
2.79514e-17
2.91214e-17
3.02274e-17
3.12573e-17
3.22004e-17
3.30463e-17
3.37863e-17
3.44125e-17
3.4919e-17
3.53013e-17
3.55565e-17
3.56838e-17
3.72037e-17
3.88366e-17
4.11568e-17
4.40724e-17
4.75068e-17
5.13915e-17
5.56612e-17
6.02516e-17
6.50975e-17
7.01326e-17
7.52888e-17
8.04989e-17
8.56958e-17
9.08138e-17
9.57889e-17
1.00561e-16
1.05073e-16
1.09276e-16
1.13125e-16
1.16585e-16
1.19628e-16
1.22233e-16
1.2439e-16
1.26095e-16
1.27352e-16
1.28172e-16
1.28571e-16
1.08351e-16
1.13732e-16
1.21431e-16
1.31171e-16
1.42723e-16
1.5587e-16
1.70398e-16
1.86082e-16
2.02688e-16
2.1997e-16
2.37673e-16
2.55539e-16
2.7331e-16
2.90735e-16
3.07578e-16
3.23619e-16
3.38665e-16
3.52553e-16
3.65149e-16
3.76354e-16
3.86104e-16
3.94364e-16
4.01128e-16
4.06419e-16
4.1028e-16
4.12773e-16
4.13976e-16
3.16569e-16
3.33548e-16
3.57882e-16
3.8874e-16
4.25417e-16
4.67235e-16
5.13497e-16
5.63464e-16
6.1635e-16
6.71323e-16
7.27526e-16
7.84094e-16
8.40177e-16
8.94967e-16
9.47711e-16
9.97738e-16
1.04447e-15
1.08742e-15
1.12623e-15
1.16062e-15
1.19044e-15
1.21561e-15
1.23617e-15
1.25221e-15
1.26388e-15
1.2714e-15
1.27502e-15
9.33379e-16
9.85517e-16
1.06034e-15
1.1553e-15
1.26824e-15
1.39704e-15
1.53954e-15
1.6934e-15
1.85615e-15
2.02519e-15
2.19783e-15
2.37137e-15
2.54317e-15
2.71073e-15
2.87176e-15
3.02422e-15
3.16636e-15
3.29678e-15
3.41439e-15
3.51845e-15
3.60851e-15
3.68444e-15
3.74634e-15
3.79455e-15
3.8296e-15
3.85215e-15
3.86299e-15
2.77265e-15
2.93109e-15
3.15844e-15
3.44701e-15
3.79017e-15
4.18144e-15
4.61411e-15
5.08104e-15
5.5746e-15
6.08679e-15
6.6094e-15
7.13423e-15
7.65329e-15
8.15906e-15
8.64464e-15
9.10397e-15
9.53189e-15
9.92421e-15
1.02778e-14
1.05904e-14
1.08609e-14
1.10888e-14
1.12746e-14
1.14192e-14
1.15243e-14
1.1592e-14
1.16245e-14
8.26325e-15
8.73997e-15
9.4244e-15
1.02934e-14
1.13271e-14
1.2506e-14
1.38096e-14
1.52163e-14
1.67031e-14
1.82456e-14
1.9819e-14
2.13986e-14
2.29602e-14
2.44812e-14
2.59408e-14
2.7321e-14
2.86061e-14
2.97839e-14
3.08448e-14
3.17825e-14
3.25933e-14
3.32763e-14
3.38327e-14
3.42658e-14
3.45804e-14
3.47828e-14
3.488e-14
2.46919e-14
2.61247e-14
2.81812e-14
3.07921e-14
3.38972e-14
3.74377e-14
4.13521e-14
4.55748e-14
5.00363e-14
5.46636e-14
5.93819e-14
6.41169e-14
6.87964e-14
7.33526e-14
7.77239e-14
8.18559e-14
8.57027e-14
8.92273e-14
9.24018e-14
9.52072e-14
9.76328e-14
9.96759e-14
1.0134e-13
1.02636e-13
1.03577e-13
1.04182e-13
1.04473e-13
7.37833e-14
7.8074e-14
8.42342e-14
9.20555e-14
1.01358e-13
1.11964e-13
1.23689e-13
1.36338e-13
1.497e-13
1.63556e-13
1.77683e-13
1.91857e-13
2.05863e-13
2.19497e-13
2.32574e-13
2.44933e-13
2.56436e-13
2.66973e-13
2.76461e-13
2.84843e-13
2.9209e-13
2.98191e-13
3.03161e-13
3.07028e-13
3.09837e-13
3.11643e-13
3.1251e-13
2.20575e-13
2.33418e-13
2.51854e-13
2.75257e-13
3.03084e-13
3.34804e-13
3.69863e-13
4.0767e-13
4.47597e-13
4.88989e-13
5.31175e-13
5.73488e-13
6.15284e-13
6.55959e-13
6.94963e-13
7.31813e-13
7.66103e-13
7.97507e-13
8.25778e-13
8.50752e-13
8.72338e-13
8.90512e-13
9.05312e-13
9.16827e-13
9.25191e-13
9.30568e-13
9.33152e-13
6.58731e-13
6.97073e-13
7.52107e-13
8.21957e-13
9.04997e-13
9.99632e-13
1.1042e-12
1.21693e-12
1.33594e-12
1.45928e-12
1.58493e-12
1.71093e-12
1.83533e-12
1.95635e-12
2.07236e-12
2.18192e-12
2.28383e-12
2.37713e-12
2.46109e-12
2.53524e-12
2.5993e-12
2.65322e-12
2.69712e-12
2.73127e-12
2.75606e-12
2.772e-12
2.77966e-12
1.965e-12
2.07927e-12
2.24322e-12
2.45122e-12
2.69837e-12
2.97989e-12
3.29078e-12
3.62573e-12
3.97913e-12
4.34512e-12
4.71776e-12
5.09116e-12
5.45962e-12
5.81784e-12
6.16102e-12
6.48495e-12
6.7861e-12
7.06168e-12
7.30957e-12
7.52838e-12
7.71737e-12
7.87639e-12
8.00581e-12
8.10645e-12
8.17951e-12
8.22647e-12
8.24902e-12
5.84434e-12
6.18333e-12
6.66955e-12
7.28612e-12
8.01836e-12
8.85185e-12
9.77162e-12
1.07618e-11
1.18057e-11
1.28859e-11
1.39847e-11
1.50847e-11
1.61693e-11
1.72228e-11
1.82312e-11
1.91823e-11
2.00658e-11
2.08736e-11
2.15997e-11
2.22402e-11
2.27931e-11
2.3258e-11
2.36362e-11
2.39301e-11
2.41434e-11
2.42804e-11
2.43462e-11
1.73196e-11
1.832e-11
1.97538e-11
2.15707e-11
2.37264e-11
2.61775e-11
2.88793e-11
3.17844e-11
3.4843e-11
3.80037e-11
4.12148e-11
4.44252e-11
4.75863e-11
5.06528e-11
5.35845e-11
5.63461e-11
5.89086e-11
6.12492e-11
6.3351e-11
6.52033e-11
6.68007e-11
6.8143e-11
6.92341e-11
7.00817e-11
7.06963e-11
7.10909e-11
7.12803e-11
5.10317e-11
5.39568e-11
5.81464e-11
6.34494e-11
6.97334e-11
7.68688e-11
8.47216e-11
9.31513e-11
1.02012e-10
1.11152e-10
1.20421e-10
1.29672e-10
1.38765e-10
1.47571e-10
1.55975e-10
1.6388e-10
1.71203e-10
1.77882e-10
1.83872e-10
1.89144e-10
1.93685e-10
1.97496e-10
2.00591e-10
2.02993e-10
2.04733e-10
2.0585e-10
2.06385e-10
1.49242e-10
1.57693e-10
1.69783e-10
1.85063e-10
2.03138e-10
2.23621e-10
2.46115e-10
2.70207e-10
2.95469e-10
3.21467e-10
3.47769e-10
3.73956e-10
3.99636e-10
4.24448e-10
4.48078e-10
4.70254e-10
4.90759e-10
5.09426e-10
5.26136e-10
5.40818e-10
5.53447e-10
5.64032e-10
5.72616e-10
5.7927e-10
5.84086e-10
5.87173e-10
5.88652e-10
4.32076e-10
4.56085e-10
4.9038e-10
5.33638e-10
5.84689e-10
6.42388e-10
7.05573e-10
7.73044e-10
8.43577e-10
9.15937e-10
9.88917e-10
1.06136e-09
1.13218e-09
1.20041e-09
1.26521e-09
1.32587e-09
1.38181e-09
1.43262e-09
1.47801e-09
1.51781e-09
1.55198e-09
1.58056e-09
1.60371e-09
1.62163e-09
1.63459e-09
1.64288e-09
1.64685e-09
1.23475e-09
1.30147e-09
1.39658e-09
1.51625e-09
1.65704e-09
1.81563e-09
1.98868e-09
2.17277e-09
2.36446e-09
2.56038e-09
2.75721e-09
2.95185e-09
3.14147e-09
3.32352e-09
3.49584e-09
3.65663e-09
3.80451e-09
3.93844e-09
4.05778e-09
4.16218e-09
4.25162e-09
4.32631e-09
4.38669e-09
4.43335e-09
4.46703e-09
4.48857e-09
4.49887e-09
3.46994e-09
3.65019e-09
3.90651e-09
4.22797e-09
4.60479e-09
5.02753e-09
5.48679e-09
5.97317e-09
6.47737e-09
6.99032e-09
7.50339e-09
8.00858e-09
8.49868e-09
8.96737e-09
9.40937e-09
9.82037e-09
1.01971e-08
1.05373e-08
1.08396e-08
1.11034e-08
1.13288e-08
1.15167e-08
1.16682e-08
1.17852e-08
1.18695e-08
1.19233e-08
1.1949e-08
9.54938e-09
1.00198e-08
1.06868e-08
1.15202e-08
1.2493e-08
1.35793e-08
1.47536e-08
1.5991e-08
1.72672e-08
1.85591e-08
1.9845e-08
2.11052e-08
2.23224e-08
2.34815e-08
2.45703e-08
2.5579e-08
2.65005e-08
2.73299e-08
2.80648e-08
2.87045e-08
2.92499e-08
2.97034e-08
3.00685e-08
3.03498e-08
3.05522e-08
3.06813e-08
3.07429e-08
2.56124e-08
2.67911e-08
2.84575e-08
3.05315e-08
3.29412e-08
3.56186e-08
3.84979e-08
4.15158e-08
4.4612e-08
4.77302e-08
5.08185e-08
5.38308e-08
5.67271e-08
5.94736e-08
6.20434e-08
6.44155e-08
6.65752e-08
6.85133e-08
7.02257e-08
7.17122e-08
7.29768e-08
7.40262e-08
7.48697e-08
7.55182e-08
7.59843e-08
7.62811e-08
7.64225e-08
6.66241e-08
6.94489e-08
7.34298e-08
7.83647e-08
8.40724e-08
9.03828e-08
9.71344e-08
1.04175e-07
1.11361e-07
1.18562e-07
1.25661e-07
1.32554e-07
1.39154e-07
1.45387e-07
1.51199e-07
1.56545e-07
1.61397e-07
1.6574e-07
1.69567e-07
1.72881e-07
1.75695e-07
1.78025e-07
1.79895e-07
1.81331e-07
1.82361e-07
1.83017e-07
1.83329e-07
1.67318e-07
1.73779e-07
1.82858e-07
1.94072e-07
2.06988e-07
2.21205e-07
2.36346e-07
2.52062e-07
2.68032e-07
2.83967e-07
2.9961e-07
3.1474e-07
3.29174e-07
3.42762e-07
3.5539e-07
3.66975e-07
3.77463e-07
3.86826e-07
3.95059e-07
4.02177e-07
4.08208e-07
4.13196e-07
4.17193e-07
4.20258e-07
4.22454e-07
4.23851e-07
4.24515e-07
4.04231e-07
4.18347e-07
4.38136e-07
4.62507e-07
4.90483e-07
5.21166e-07
5.53724e-07
5.87397e-07
6.21495e-07
6.55404e-07
6.88588e-07
7.20594e-07
7.51047e-07
7.79646e-07
8.06167e-07
8.30451e-07
8.52397e-07
8.7196e-07
8.8914e-07
9.03974e-07
9.16532e-07
9.26909e-07
9.35217e-07
9.41583e-07
9.46145e-07
9.49043e-07
9.50421e-07
9.37283e-07
9.66824e-07
1.00817e-06
1.05897e-06
1.11715e-06
1.1808e-06
1.24817e-06
1.31767e-06
1.38789e-06
1.45757e-06
1.52563e-06
1.59116e-06
1.6534e-06
1.71177e-06
1.76582e-06
1.81525e-06
1.85988e-06
1.89962e-06
1.93448e-06
1.96456e-06
1.99e-06
2.01101e-06
2.02781e-06
2.04069e-06
2.0499e-06
2.05576e-06
2.05854e-06
2.08351e-06
2.14286e-06
2.22582e-06
2.3276e-06
2.44393e-06
2.57094e-06
2.70508e-06
2.84316e-06
2.98233e-06
3.12011e-06
3.25435e-06
3.38328e-06
3.50545e-06
3.61976e-06
3.72537e-06
3.82174e-06
3.90857e-06
3.98574e-06
4.05333e-06
4.11154e-06
4.16071e-06
4.20126e-06
4.23366e-06
4.25845e-06
4.27618e-06
4.28743e-06
4.29277e-06
4.43446e-06
4.54848e-06
4.70761e-06
4.90246e-06
5.12469e-06
5.36673e-06
5.62175e-06
5.88362e-06
6.14695e-06
6.40708e-06
6.66003e-06
6.90253e-06
7.13197e-06
7.34632e-06
7.54412e-06
7.72441e-06
7.88668e-06
8.03077e-06
8.15687e-06
8.2654e-06
8.357e-06
8.43249e-06
8.49278e-06
8.53889e-06
8.57185e-06
8.59275e-06
8.60268e-06
8.99456e-06
9.20319e-06
9.49411e-06
9.84996e-06
1.02553e-05
1.06963e-05
1.11604e-05
1.16364e-05
1.21146e-05
1.25865e-05
1.3045e-05
1.34842e-05
1.38993e-05
1.4287e-05
1.46445e-05
1.49701e-05
1.52631e-05
1.55231e-05
1.57506e-05
1.59463e-05
1.61114e-05
1.62474e-05
1.6356e-05
1.64391e-05
1.64984e-05
1.6536e-05
1.65539e-05
1.73214e-05
1.76864e-05
1.81951e-05
1.88171e-05
1.95253e-05
2.02953e-05
2.11052e-05
2.19357e-05
2.27696e-05
2.35924e-05
2.43915e-05
2.5157e-05
2.58805e-05
2.6556e-05
2.7179e-05
2.77466e-05
2.82572e-05
2.87104e-05
2.91069e-05
2.94481e-05
2.9736e-05
2.99732e-05
3.01626e-05
3.03074e-05
3.04109e-05
3.04765e-05
3.05077e-05
3.15496e-05
3.21562e-05
3.30014e-05
3.40346e-05
3.52109e-05
3.64896e-05
3.78346e-05
3.92137e-05
4.05988e-05
4.19655e-05
4.32935e-05
4.45659e-05
4.57692e-05
4.68931e-05
4.79303e-05
4.88757e-05
4.97267e-05
5.04825e-05
5.11441e-05
5.17137e-05
5.21946e-05
5.25911e-05
5.29078e-05
5.315e-05
5.33232e-05
5.3433e-05
5.34852e-05
5.40804e-05
5.50245e-05
5.63396e-05
5.79465e-05
5.97751e-05
6.17621e-05
6.38513e-05
6.59927e-05
6.81427e-05
7.02639e-05
7.23246e-05
7.42989e-05
7.61661e-05
7.79102e-05
7.95197e-05
8.0987e-05
8.23081e-05
8.34816e-05
8.45089e-05
8.53936e-05
8.61406e-05
8.67565e-05
8.72486e-05
8.7625e-05
8.78942e-05
8.80649e-05
8.8146e-05
8.6882e-05
8.82351e-05
9.01184e-05
9.24166e-05
9.5028e-05
9.78614e-05
0.000100835
0.000103879
0.000106929
0.000109933
0.000112847
0.000115634
0.000118266
0.000120721
0.000122983
0.000125042
0.000126894
0.000128537
0.000129974
0.00013121
0.000132253
0.000133112
0.000133797
0.000134322
0.000134696
0.000134934
0.000135046
0.000130679
0.000132445
0.0001349
0.000137888
0.000141276
0.000144941
0.000148776
0.000152688
0.000156596
0.000160433
0.000164142
0.000167679
0.000171008
0.000174104
0.000176949
0.000179532
0.000181849
0.0001839
0.00018569
0.000187226
0.00018852
0.000189584
0.000190432
0.000191079
0.000191541
0.000191834
0.000191973
0.000184525
0.000186626
0.00018954
0.000193078
0.000197076
0.000201386
0.00020588
0.000210446
0.000214989
0.000219432
0.00022371
0.000227773
0.000231584
0.000235116
0.00023835
0.000241278
0.000243896
0.000246208
0.00024822
0.000249944
0.000251392
0.000252581
0.000253528
0.000254249
0.000254764
0.000255089
0.000255243
0.000246057
0.00024836
0.000251546
0.000255406
0.000259753
0.000264424
0.000269276
0.000274188
0.000279058
0.000283803
0.000288355
0.000292665
0.000296694
0.000300416
0.000303815
0.000306884
0.000309622
0.000312035
0.000314131
0.000315923
0.000317427
0.00031866
0.000319641
0.000320388
0.00032092
0.000321257
0.000321416
0.000312244
0.000314607
0.000317872
0.000321818
0.000326253
0.000331006
0.00033593
0.000340901
0.000345815
0.000350591
0.000355161
0.000359478
0.000363504
0.000367216
0.0003706
0.00037365
0.000376367
0.000378758
0.000380834
0.000382607
0.000384094
0.000385312
0.000386281
0.000387018
0.000387544
0.000387876
0.000388033
0.000380191
0.000382506
0.000385701
0.000389558
0.000393886
0.000398516
0.000403305
0.000408131
0.000412895
0.000417518
0.000421935
0.000426102
0.000429984
0.00043356
0.000436816
0.00043975
0.000442362
0.000444659
0.000446652
0.000448355
0.000449783
0.000450953
0.000451883
0.000452591
0.000453096
0.000453415
0.000453567
0.000447666
0.000449868
0.000452904
0.000456568
0.000460676
0.000465067
0.000469606
0.000474178
0.000478687
0.00048306
0.000487237
0.000491175
0.000494843
0.000498221
0.000501297
0.000504068
0.000506535
0.000508705
0.000510589
0.000512198
0.000513548
0.000514654
0.000515535
0.000516205
0.000516683
0.000516986
0.000517129
0.000513211
0.000515271
0.000518112
0.00052154
0.000525382
0.000529489
0.000533734
0.000538009
0.000542226
0.000546315
0.000550223
0.000553907
0.000557339
0.000560501
0.000563382
0.000565977
0.000568289
0.000570324
0.00057209
0.000573601
0.000574868
0.000575908
0.000576735
0.000577366
0.000577816
0.0005781
0.000578236
0.000576027
0.000577942
0.000580583
0.000583769
0.000587342
0.000591163
0.000595112
0.000599091
0.000603018
0.000606827
0.000610468
0.000613904
0.000617106
0.000620057
0.000622747
0.000625172
0.000627334
0.000629237
0.000630891
0.000632305
0.000633493
0.000634468
0.000635244
0.000635835
0.000636258
0.000636525
0.000636652
0.000635776
0.000637554
0.000640007
0.000642967
0.000646288
0.000649841
0.000653515
0.000657218
0.000660875
0.000664425
0.00066782
0.000671025
0.000674014
0.00067677
0.000679284
0.000681552
0.000683575
0.000685357
0.000686905
0.000688231
0.000689345
0.000690259
0.000690987
0.000691543
0.00069194
0.000692191
0.00069231
0.000692401
0.000694056
0.00069634
0.000699097
0.000702191
0.000705502
0.000708929
0.000712384
0.000715798
0.000719114
0.000722287
0.000725285
0.000728082
0.000730662
0.000733017
0.000735143
0.000737039
0.000738711
0.000740165
0.000741409
0.000742455
0.000743315
0.000743999
0.000744522
0.000744895
0.000745132
0.000745244
0.000746002
0.000747547
0.000749681
0.000752258
0.000755151
0.000758248
0.000761455
0.000764691
0.000767889
0.000770997
0.000773973
0.000776785
0.00077941
0.000781833
0.000784046
0.000786044
0.000787827
0.0007894
0.000790768
0.000791939
0.000792925
0.000793734
0.000794379
0.000794872
0.000795224
0.000795447
0.000795553
0.000796748
0.000798198
0.000800199
0.000802617
0.000805333
0.000808241
0.000811254
0.000814294
0.000817301
0.000820224
0.000823024
0.000825671
0.000828143
0.000830426
0.000832511
0.000834395
0.000836076
0.00083756
0.00083885
0.000839956
0.000840886
0.000841651
0.00084226
0.000842725
0.000843058
0.000843269
0.000843369
0.000844838
0.000846203
0.000848088
0.000850365
0.000852923
0.000855664
0.000858504
0.000861371
0.000864207
0.000866966
0.000869608
0.000872108
0.000874443
0.0008766
0.00087857
0.00088035
0.00088194
0.000883343
0.000884564
0.000885611
0.000886491
0.000887214
0.000887791
0.000888232
0.000888547
0.000888747
0.000888842
0.000890471
0.00089176
0.00089354
0.000895692
0.00089811
0.000900701
0.000903387
0.000906099
0.000908782
0.000911392
0.000913894
0.00091626
0.000918472
0.000920515
0.000922382
0.000924069
0.000925576
0.000926906
0.000928064
0.000929056
0.000929891
0.000930577
0.000931125
0.000931543
0.000931842
0.000932031
0.000932121
0.000933833
0.000935055
0.000936742
0.000938781
0.000941073
0.000943529
0.000946075
0.000948647
0.000951193
0.000953669
0.000956043
0.000958289
0.000960388
0.000962328
0.000964101
0.000965703
0.000967135
0.000968398
0.000969498
0.000970441
0.000971234
0.000971887
0.000972407
0.000972804
0.000973088
0.000973269
0.000973354
0.000975099
0.000976259
0.000977862
0.000979799
0.000981976
0.00098431
0.00098673
0.000989174
0.000991594
0.000993948
0.000996206
0.000998341
0.00100034
0.00100218
0.00100387
0.0010054
0.00100676
0.00100796
0.00100901
0.0010099
0.00101066
0.00101128
0.00101178
0.00101215
0.00101243
0.0010126
0.00101268
0.00101442
0.00101553
0.00101705
0.0010189
0.00102097
0.00102319
0.00102549
0.00102782
0.00103013
0.00103237
0.00103452
0.00103656
0.00103846
0.00104022
0.00104182
0.00104328
0.00104458
0.00104572
0.00104672
0.00104758
0.0010483
0.00104889
0.00104936
0.00104972
0.00104998
0.00105014
0.00105022
0.00105194
0.001053
0.00105445
0.00105621
0.00105819
0.00106031
0.0010625
0.00106472
0.00106692
0.00106906
0.00107111
0.00107305
0.00107487
0.00107655
0.00107808
0.00107947
0.00108071
0.0010818
0.00108276
0.00108357
0.00108426
0.00108483
0.00108528
0.00108562
0.00108587
0.00108603
0.0010861
0.00108779
0.00108879
0.00109018
0.00109186
0.00109375
0.00109577
0.00109787
0.00109999
0.00110209
0.00110414
0.0011061
0.00110795
0.00110969
0.00111129
0.00111276
0.00111408
0.00111527
0.00111631
0.00111722
0.001118
0.00111866
0.0011192
0.00111963
0.00111996
0.0011202
0.00112035
0.00112042
0.00112206
0.00112303
0.00112435
0.00112596
0.00112776
0.0011297
0.0011317
0.00113373
0.00113574
0.0011377
0.00113957
0.00114135
0.001143
0.00114454
0.00114594
0.00114721
0.00114834
0.00114934
0.00115022
0.00115096
0.00115159
0.00115211
0.00115252
0.00115284
0.00115306
0.00115321
0.00115327
0.00115487
0.00115579
0.00115706
0.0011586
0.00116033
0.00116218
0.0011641
0.00116604
0.00116796
0.00116984
0.00117163
0.00117333
0.00117492
0.00117639
0.00117773
0.00117895
0.00118003
0.00118099
0.00118182
0.00118254
0.00118314
0.00118364
0.00118403
0.00118433
0.00118455
0.00118469
0.00118475
0.0011863
0.00118718
0.0011884
0.00118987
0.00119153
0.0011933
0.00119514
0.001197
0.00119884
0.00120064
0.00120236
0.00120399
0.00120551
0.00120692
0.0012082
0.00120937
0.00121041
0.00121133
0.00121213
0.00121281
0.00121339
0.00121386
0.00121424
0.00121453
0.00121474
0.00121487
0.00121493
0.00121643
0.00121728
0.00121844
0.00121986
0.00122144
0.00122314
0.00122491
0.00122669
0.00122846
0.00123018
0.00123183
0.00123339
0.00123485
0.0012362
0.00123743
0.00123855
0.00123955
0.00124043
0.0012412
0.00124185
0.00124241
0.00124286
0.00124323
0.0012435
0.0012437
0.00124383
0.00124389
0.00124534
0.00124615
0.00124727
0.00124862
0.00125014
0.00125177
0.00125347
0.00125518
0.00125687
0.00125852
0.00126011
0.0012616
0.001263
0.0012643
0.00126548
0.00126656
0.00126751
0.00126836
0.0012691
0.00126973
0.00127026
0.0012707
0.00127104
0.00127131
0.0012715
0.00127162
0.00127168
0.00127308
0.00127386
0.00127493
0.00127623
0.00127769
0.00127926
0.00128088
0.00128253
0.00128415
0.00128574
0.00128725
0.00128869
0.00129004
0.00129128
0.00129242
0.00129345
0.00129437
0.00129518
0.00129589
0.00129649
0.001297
0.00129742
0.00129776
0.00129801
0.0012982
0.00129831
0.00129837
0.00129972
0.00130046
0.00130149
0.00130274
0.00130414
0.00130565
0.00130721
0.00130879
0.00131035
0.00131187
0.00131333
0.00131471
0.001316
0.0013172
0.00131829
0.00131928
0.00132016
0.00132094
0.00132162
0.0013222
0.00132269
0.0013231
0.00132342
0.00132366
0.00132384
0.00132395
0.001324
0.0013253
0.00132602
0.00132701
0.00132821
0.00132956
0.001331
0.0013325
0.00133402
0.00133552
0.00133698
0.00133838
0.00133971
0.00134095
0.0013421
0.00134315
0.0013441
0.00134494
0.00134569
0.00134634
0.0013469
0.00134738
0.00134776
0.00134807
0.00134831
0.00134848
0.00134858
0.00134863
0.00134989
0.00135057
0.00135153
0.00135268
0.00135397
0.00135536
0.0013568
0.00135826
0.0013597
0.0013611
0.00136245
0.00136373
0.00136492
0.00136602
0.00136703
0.00136794
0.00136876
0.00136948
0.0013701
0.00137064
0.00137109
0.00137147
0.00137176
0.00137199
0.00137215
0.00137226
0.0013723
0.00137351
0.00137417
0.00137508
0.00137619
0.00137744
0.00137877
0.00138015
0.00138155
0.00138294
0.00138429
0.00138558
0.00138681
0.00138795
0.00138901
0.00138998
0.00139086
0.00139164
0.00139233
0.00139294
0.00139345
0.00139389
0.00139425
0.00139453
0.00139475
0.0013949
0.001395
0.00139505
0.00139621
0.00139684
0.00139772
0.00139878
0.00139998
0.00140126
0.00140259
0.00140394
0.00140527
0.00140656
0.00140781
0.00140899
0.00141009
0.0014111
0.00141204
0.00141288
0.00141363
0.0014143
0.00141487
0.00141537
0.00141579
0.00141613
0.00141641
0.00141662
0.00141677
0.00141686
0.00141691
0.00141801
0.00141862
0.00141947
0.00142049
0.00142164
0.00142287
0.00142415
0.00142544
0.00142672
0.00142797
0.00142916
0.00143029
0.00143135
0.00143233
0.00143322
0.00143403
0.00143475
0.00143539
0.00143595
0.00143643
0.00143683
0.00143716
0.00143742
0.00143762
0.00143777
0.00143786
0.0014379
0.00143896
0.00143955
0.00144036
0.00144134
0.00144244
0.00144362
0.00144485
0.00144609
0.00144732
0.00144852
0.00144966
0.00145075
0.00145177
0.00145271
0.00145356
0.00145434
0.00145504
0.00145565
0.00145618
0.00145664
0.00145703
0.00145734
0.0014576
0.00145779
0.00145793
0.00145802
0.00145806
0.00145907
0.00145963
0.00146041
0.00146135
0.00146241
0.00146355
0.00146472
0.00146591
0.00146709
0.00146824
0.00146934
0.00147038
0.00147136
0.00147226
0.00147309
0.00147383
0.0014745
0.00147509
0.0014756
0.00147604
0.00147641
0.00147671
0.00147695
0.00147714
0.00147727
0.00147736
0.0014774
0.00147836
0.0014789
0.00147964
0.00148055
0.00148156
0.00148265
0.00148378
0.00148492
0.00148605
0.00148716
0.00148821
0.00148921
0.00149015
0.00149101
0.0014918
0.00149252
0.00149315
0.00149372
0.00149421
0.00149463
0.00149499
0.00149528
0.00149551
0.00149569
0.00149582
0.0014959
0.00149593
0.00149684
0.00149736
0.00149808
0.00149894
0.00149992
0.00150096
0.00150204
0.00150313
0.00150422
0.00150527
0.00150628
0.00150724
0.00150814
0.00150896
0.00150972
0.00151041
0.00151102
0.00151156
0.00151203
0.00151243
0.00151277
0.00151305
0.00151327
0.00151344
0.00151357
0.00151364
0.00151368
0.00151454
0.00151503
0.00151572
0.00151655
0.00151748
0.00151847
0.00151951
0.00152056
0.00152159
0.0015226
0.00152357
0.00152448
0.00152534
0.00152613
0.00152685
0.00152751
0.00152809
0.00152861
0.00152906
0.00152945
0.00152977
0.00153004
0.00153025
0.00153041
0.00153053
0.0015306
0.00153064
0.00153144
0.00153191
0.00153257
0.00153336
0.00153425
0.0015352
0.00153619
0.00153719
0.00153818
0.00153914
0.00154006
0.00154094
0.00154175
0.00154251
0.0015432
0.00154382
0.00154438
0.00154488
0.00154531
0.00154567
0.00154598
0.00154624
0.00154644
0.0015466
0.00154671
0.00154678
0.00154681
0.00154756
0.00154801
0.00154863
0.00154938
0.00155023
0.00155114
0.00155208
0.00155303
0.00155397
0.00155489
0.00155577
0.0015566
0.00155738
0.0015581
0.00155875
0.00155935
0.00155988
0.00156035
0.00156076
0.00156111
0.0015614
0.00156164
0.00156184
0.00156199
0.00156209
0.00156216
0.00156219
0.00156287
0.0015633
0.00156389
0.00156461
0.00156541
0.00156628
0.00156717
0.00156807
0.00156897
0.00156984
0.00157067
0.00157146
0.0015722
0.00157288
0.0015735
0.00157407
0.00157457
0.00157502
0.0015754
0.00157574
0.00157602
0.00157625
0.00157643
0.00157657
0.00157667
0.00157673
0.00157676
0.00157738
0.00157779
0.00157835
0.00157903
0.00157979
0.0015806
0.00158145
0.0015823
0.00158315
0.00158397
0.00158476
0.00158551
0.0015862
0.00158685
0.00158744
0.00158797
0.00158845
0.00158887
0.00158923
0.00158955
0.00158981
0.00159003
0.0015902
0.00159033
0.00159043
0.00159049
0.00159052
0.00159107
0.00159145
0.00159198
0.00159262
0.00159333
0.0015941
0.0015949
0.0015957
0.00159649
0.00159727
0.00159801
0.00159871
0.00159937
0.00159997
0.00160053
0.00160103
0.00160148
0.00160187
0.00160221
0.00160251
0.00160276
0.00160296
0.00160312
0.00160325
0.00160334
0.00160339
0.00160342
0.0016039
0.00160426
0.00160475
0.00160535
0.00160602
0.00160674
0.00160748
0.00160824
0.00160898
0.0016097
0.0016104
0.00161105
0.00161167
0.00161223
0.00161275
0.00161322
0.00161364
0.00161401
0.00161433
0.0016146
0.00161483
0.00161502
0.00161517
0.00161529
0.00161537
0.00161543
0.00161545
0.00161586
0.00161619
0.00161665
0.00161721
0.00161783
0.0016185
0.00161919
0.00161989
0.00162058
0.00162125
0.00162189
0.0016225
0.00162307
0.00162359
0.00162407
0.00162451
0.00162489
0.00162524
0.00162553
0.00162579
0.001626
0.00162618
0.00162632
0.00162643
0.0016265
0.00162655
0.00162658
0.0016269
0.00162721
0.00162763
0.00162815
0.00162872
0.00162933
0.00162997
0.00163061
0.00163125
0.00163187
0.00163246
0.00163302
0.00163354
0.00163402
0.00163446
0.00163486
0.00163521
0.00163553
0.0016358
0.00163603
0.00163623
0.00163639
0.00163652
0.00163662
0.00163669
0.00163674
0.00163676
0.00163701
0.00163729
0.00163767
0.00163814
0.00163866
0.00163922
0.0016398
0.00164038
0.00164096
0.00164152
0.00164206
0.00164257
0.00164304
0.00164348
0.00164388
0.00164424
0.00164456
0.00164485
0.00164509
0.00164531
0.00164548
0.00164563
0.00164575
0.00164584
0.0016459
0.00164594
0.00164596
0.00164613
0.00164638
0.00164673
0.00164715
0.00164762
0.00164812
0.00164864
0.00164916
0.00164968
0.00165019
0.00165067
0.00165112
0.00165155
0.00165194
0.0016523
0.00165262
0.00165291
0.00165316
0.00165338
0.00165357
0.00165373
0.00165386
0.00165396
0.00165404
0.0016541
0.00165414
0.00165415
0.00165424
0.00165447
0.00165477
0.00165514
0.00165556
0.001656
0.00165646
0.00165693
0.00165738
0.00165783
0.00165825
0.00165865
0.00165902
0.00165937
0.00165968
0.00165997
0.00166022
0.00166044
0.00166064
0.0016608
0.00166094
0.00166106
0.00166115
0.00166122
0.00166127
0.0016613
0.00166131
0.00166133
0.00166152
0.00166179
0.00166211
0.00166247
0.00166285
0.00166325
0.00166365
0.00166404
0.00166443
0.00166479
0.00166514
0.00166546
0.00166576
0.00166603
0.00166627
0.00166649
0.00166668
0.00166685
0.00166699
0.00166711
0.00166721
0.00166728
0.00166734
0.00166739
0.00166741
0.00166743
0.00166737
0.00166754
0.00166776
0.00166803
0.00166834
0.00166866
0.001669
0.00166933
0.00166967
0.00166999
0.0016703
0.00167059
0.00167086
0.0016711
0.00167133
0.00167153
0.00167172
0.00167188
0.00167201
0.00167213
0.00167223
0.00167232
0.00167238
0.00167243
0.00167247
0.00167249
0.0016725
0.00167239
0.00167252
0.00167271
0.00167293
0.00167318
0.00167345
0.00167372
0.001674
0.00167427
0.00167453
0.00167478
0.00167502
0.00167523
0.00167544
0.00167562
0.00167578
0.00167593
0.00167606
0.00167617
0.00167627
0.00167635
0.00167641
0.00167647
0.00167651
0.00167654
0.00167655
0.00167656
0.00167641
0.00167652
0.00167666
0.00167684
0.00167704
0.00167725
0.00167746
0.00167768
0.00167789
0.00167809
0.00167829
0.00167847
0.00167864
0.0016788
0.00167894
0.00167907
0.00167918
0.00167928
0.00167937
0.00167944
0.00167951
0.00167956
0.0016796
0.00167963
0.00167965
0.00167967
0.00167967
0.0016795
0.00167958
0.00167969
0.00167982
0.00167997
0.00168012
0.00168028
0.00168045
0.0016806
0.00168076
0.0016809
0.00168104
0.00168116
0.00168128
0.00168138
0.00168148
0.00168156
0.00168163
0.0016817
0.00168175
0.00168179
0.00168183
0.00168186
0.00168188
0.0016819
0.00168191
0.00168192
0.00168173
0.00168179
0.00168187
0.00168196
0.00168206
0.00168217
0.00168229
0.0016824
0.00168251
0.00168261
0.00168271
0.00168281
0.00168289
0.00168297
0.00168304
0.0016831
0.00168316
0.00168321
0.00168325
0.00168329
0.00168332
0.00168334
0.00168336
0.00168338
0.00168339
0.0016834
0.0016834
0.00168323
0.00168326
0.00168331
0.00168337
0.00168344
0.00168351
0.00168358
0.00168365
0.00168372
0.00168378
0.00168384
0.0016839
0.00168395
0.001684
0.00168404
0.00168408
0.00168411
0.00168414
0.00168417
0.00168419
0.00168421
0.00168422
0.00168423
0.00168424
0.00168425
0.00168425
0.00168426
0.00168411
0.00168413
0.00168415
0.00168418
0.00168422
0.00168426
0.00168429
0.00168433
0.00168436
0.0016844
0.00168443
0.00168446
0.00168448
0.00168451
0.00168453
0.00168454
0.00168456
0.00168457
0.00168459
0.00168459
0.0016846
0.00168461
0.00168462
0.00168462
0.00168462
0.00168462
0.00168462
0.0016845
0.00168451
0.00168452
0.00168453
0.00168454
0.00168456
0.00168457
0.00168458
0.00168459
0.0016846
0.00168461
0.00168461
0.00168462
0.00168462
0.00168463
0.00168463
0.00168463
0.00168464
0.00168464
0.00168464
0.00168464
0.00168464
0.00168464
0.00168464
0.00168464
0.00168464
0.00168464
0.00168455
0.00168455
0.00168455
0.00168454
0.00168454
0.00168453
0.00168453
0.00168452
0.00168451
0.00168451
0.0016845
0.00168449
0.00168448
0.00168447
0.00168447
0.00168446
0.00168445
0.00168445
0.00168444
0.00168444
0.00168443
0.00168443
0.00168443
0.00168443
0.00168443
0.00168442
0.00168442
0.00168436
0.00168435
0.00168434
0.00168433
0.00168431
0.0016843
0.00168428
0.00168426
0.00168424
0.00168422
0.0016842
0.00168419
0.00168417
0.00168415
0.00168414
0.00168412
0.00168411
0.0016841
0.00168409
0.00168408
0.00168407
0.00168407
0.00168406
0.00168406
0.00168406
0.00168406
0.00168405
0.00168402
0.001684
0.00168399
0.00168397
0.00168395
0.00168392
0.00168389
0.00168387
0.00168384
0.00168382
0.00168379
0.00168377
0.00168374
0.00168372
0.0016837
0.00168368
0.00168367
0.00168365
0.00168364
0.00168363
0.00168362
0.00168361
0.00168361
0.0016836
0.0016836
0.00168359
0.00168359
0.00168357
0.00168356
0.00168354
0.00168351
0.00168349
0.00168346
0.00168343
0.00168339
0.00168336
0.00168333
0.0016833
0.00168327
0.00168325
0.00168322
0.0016832
0.00168318
0.00168316
0.00168314
0.00168313
0.00168311
0.0016831
0.00168309
0.00168309
0.00168308
0.00168308
0.00168307
0.00168307
0.00168307
0.00168305
0.00168303
0.001683
0.00168297
0.00168294
0.0016829
0.00168286
0.00168283
0.00168279
0.00168276
0.00168273
0.0016827
0.00168267
0.00168264
0.00168262
0.0016826
0.00168258
0.00168256
0.00168255
0.00168254
0.00168253
0.00168252
0.00168251
0.00168251
0.0016825
0.0016825
0.00168251
0.00168249
0.00168247
0.00168244
0.0016824
0.00168237
0.00168233
0.00168229
0.00168225
0.00168221
0.00168217
0.00168214
0.0016821
0.00168207