/*--------------------------------*- C++ -*----------------------------------*\
| =========                 |                                                 |
| \\      /  F ield         | OpenFOAM: The Open Source CFD Toolbox           |
|  \\    /   O peration     | Version:  2106                                  |
|   \\  /    A nd           | Website:  www.openfoam.com                      |
|    \\/     M anipulation  |                                                 |
\*---------------------------------------------------------------------------*/
FoamFile
{
    version     2.0;
    format      ascii;
    arch        "LSB;label=32;scalar=64";
    class       volScalarField;
    location    "80.00032";
    object      C6H5_0;
}
// * * * * * * * * * * * * * * * * * * * * * * * * * * * * * * * * * * * * * //

dimensions      [0 0 0 0 0 0 0];

internalField   nonuniform List<scalar> 
3360
(
8.56509e-25
8.84076e-25
9.22439e-25
9.69362e-25
1.02289e-24
1.08127e-24
1.14292e-24
1.2064e-24
1.27043e-24
1.3339e-24
1.39582e-24
1.45537e-24
1.51187e-24
1.56477e-24
1.61365e-24
1.65823e-24
1.69833e-24
1.73386e-24
1.76486e-24
1.7914e-24
1.81366e-24
1.83183e-24
1.84619e-24
1.85702e-24
1.86463e-24
1.86937e-24
1.87157e-24
3.75747e-24
3.8956e-24
4.09052e-24
4.33326e-24
4.61639e-24
4.93343e-24
5.27857e-24
5.64652e-24
6.03234e-24
6.43136e-24
6.83911e-24
7.25124e-24
7.66344e-24
8.07148e-24
8.47119e-24
8.85848e-24
9.22932e-24
9.57982e-24
9.90626e-24
1.02051e-23
1.04733e-23
1.07078e-23
1.09063e-23
1.10668e-23
1.11879e-23
1.12688e-23
1.13092e-23
1.17912e-23
1.23088e-23
1.30443e-23
1.39684e-23
1.5057e-23
1.62883e-23
1.76417e-23
1.90967e-23
2.06327e-23
2.22287e-23
2.38631e-23
2.55145e-23
2.71618e-23
2.8784e-23
3.0361e-23
3.18735e-23
3.33039e-23
3.4636e-23
3.58562e-23
3.6953e-23
3.79174e-23
3.87433e-23
3.94269e-23
3.99673e-23
4.03657e-23
4.06255e-23
4.0752e-23
3.43446e-23
3.60506e-23
3.84911e-23
4.15789e-23
4.52408e-23
4.94087e-23
5.40141e-23
5.89861e-23
6.42504e-23
6.97291e-23
7.53413e-23
8.1005e-23
8.66386e-23
9.21628e-23
9.75022e-23
1.02588e-22
1.07358e-22
1.1176e-22
1.15753e-22
1.19306e-22
1.22397e-22
1.25015e-22
1.2716e-22
1.28837e-22
1.30061e-22
1.30851e-22
1.31232e-22
1.00359e-22
1.05742e-22
1.13458e-22
1.23241e-22
1.3487e-22
1.48129e-22
1.62797e-22
1.78639e-22
1.95407e-22
2.12837e-22
2.30657e-22
2.48592e-22
2.66374e-22
2.83746e-22
3.0047e-22
3.16332e-22
3.31148e-22
3.44767e-22
3.57071e-22
3.67976e-22
3.7743e-22
3.85414e-22
3.91932e-22
3.97016e-22
4.00717e-22
4.03101e-22
4.04248e-22
2.95948e-22
3.12481e-22
3.36207e-22
3.66321e-22
4.02133e-22
4.42978e-22
4.88163e-22
5.36954e-22
5.88566e-22
6.42171e-22
6.96917e-22
7.51948e-22
8.06429e-22
8.59565e-22
9.1063e-22
9.58976e-22
1.00405e-21
1.04541e-21
1.08271e-21
1.11571e-21
1.14427e-21
1.16835e-21
1.18798e-21
1.20327e-21
1.21438e-21
1.22153e-21
1.22497e-21
8.79271e-22
9.29519e-22
1.00162e-21
1.09315e-21
1.20198e-21
1.32607e-21
1.4633e-21
1.61139e-21
1.76793e-21
1.93038e-21
2.09613e-21
2.26259e-21
2.42722e-21
2.58763e-21
2.74164e-21
2.88733e-21
3.02305e-21
3.14749e-21
3.25963e-21
3.35879e-21
3.44458e-21
3.51687e-21
3.57579e-21
3.62166e-21
3.655e-21
3.67645e-21
3.68676e-21
2.6209e-21
2.77211e-21
2.98922e-21
3.26488e-21
3.59278e-21
3.96671e-21
4.38024e-21
4.82648e-21
5.2981e-21
5.78741e-21
6.28653e-21
6.78759e-21
7.28296e-21
7.76545e-21
8.22848e-21
8.66629e-21
9.07397e-21
9.44758e-21
9.78414e-21
1.00816e-20
1.03388e-20
1.05555e-20
1.0732e-20
1.08694e-20
1.09692e-20
1.10334e-20
1.10642e-20
7.83299e-21
8.28753e-21
8.93998e-21
9.76831e-21
1.07534e-20
1.18767e-20
1.31186e-20
1.44583e-20
1.58738e-20
1.73419e-20
1.88389e-20
2.03411e-20
2.18258e-20
2.32714e-20
2.46583e-20
2.59693e-20
2.71898e-20
2.8308e-20
2.93152e-20
3.02053e-20
3.09749e-20
3.16232e-20
3.21512e-20
3.25622e-20
3.28608e-20
3.30529e-20
3.31451e-20
2.34102e-20
2.47717e-20
2.67264e-20
2.92082e-20
3.21598e-20
3.55253e-20
3.9246e-20
4.32596e-20
4.74996e-20
5.18966e-20
5.63794e-20
6.08772e-20
6.53215e-20
6.96479e-20
7.37977e-20
7.77195e-20
8.13698e-20
8.47134e-20
8.77242e-20
9.03843e-20
9.26838e-20
9.46201e-20
9.61971e-20
9.74242e-20
9.83155e-20
9.88886e-20
9.9164e-20
6.99969e-20
7.40731e-20
7.9924e-20
8.73511e-20
9.61825e-20
1.0625e-19
1.17376e-19
1.29375e-19
1.42047e-19
1.55184e-19
1.68572e-19
1.82002e-19
1.95267e-19
2.08176e-19
2.20556e-19
2.32251e-19
2.43134e-19
2.53101e-19
2.62074e-19
2.70001e-19
2.76851e-19
2.8262e-19
2.87317e-19
2.90972e-19
2.93626e-19
2.95333e-19
2.96153e-19
2.0908e-19
2.21251e-19
2.38719e-19
2.60891e-19
2.87249e-19
3.17289e-19
3.50481e-19
3.86264e-19
4.24042e-19
4.63192e-19
5.03079e-19
5.43073e-19
5.82563e-19
6.20979e-19
6.57804e-19
6.92582e-19
7.24932e-19
7.54549e-19
7.81202e-19
8.04739e-19
8.25075e-19
8.42192e-19
8.56128e-19
8.66968e-19
8.74838e-19
8.79898e-19
8.82328e-19
6.23818e-19
6.60093e-19
7.1214e-19
7.78173e-19
8.56637e-19
9.4601e-19
1.04471e-18
1.15104e-18
1.26324e-18
1.37943e-18
1.49774e-18
1.61629e-18
1.73327e-18
1.847e-18
1.95595e-18
2.05879e-18
2.15441e-18
2.2419e-18
2.3206e-18
2.39007e-18
2.45007e-18
2.50056e-18
2.54165e-18
2.5736e-18
2.5968e-18
2.6117e-18
2.61886e-18
1.85584e-18
1.96347e-18
2.11783e-18
2.31358e-18
2.54606e-18
2.81069e-18
3.10271e-18
3.41709e-18
3.74852e-18
4.09148e-18
4.44036e-18
4.78964e-18
5.134e-18
5.46851e-18
5.78869e-18
6.09066e-18
6.37118e-18
6.62767e-18
6.85823e-18
7.0616e-18
7.23715e-18
7.38476e-18
7.50483e-18
7.59816e-18
7.66588e-18
7.70938e-18
7.73027e-18
5.50185e-18
5.81938e-18
6.27454e-18
6.85127e-18
7.53556e-18
8.31365e-18
9.17131e-18
1.00935e-17
1.10645e-17
1.20679e-17
1.30872e-17
1.41064e-17
1.51099e-17
1.60834e-17
1.70141e-17
1.78908e-17
1.87043e-17
1.94473e-17
2.01145e-17
2.07026e-17
2.12097e-17
2.16358e-17
2.19822e-17
2.22512e-17
2.24463e-17
2.25716e-17
2.26317e-17
1.62222e-17
1.715e-17
1.84789e-17
2.01609e-17
2.2154e-17
2.44172e-17
2.69079e-17
2.95816e-17
3.23917e-17
3.52906e-17
3.82305e-17
4.11644e-17
4.40483e-17
4.68411e-17
4.95065e-17
5.20133e-17
5.43358e-17
5.64539e-17
5.83534e-17
6.00252e-17
6.14652e-17
6.26738e-17
6.36552e-17
6.44168e-17
6.49686e-17
6.53226e-17
6.54924e-17
4.7512e-17
5.01865e-17
5.40124e-17
5.88473e-17
6.45661e-17
7.10459e-17
7.81611e-17
8.57808e-17
9.37698e-17
1.01991e-16
1.10306e-16
1.18585e-16
1.26702e-16
1.34545e-16
1.42012e-16
1.4902e-16
1.55499e-16
1.61397e-16
1.66676e-16
1.71314e-16
1.75303e-16
1.78646e-16
1.81357e-16
1.83459e-16
1.8498e-16
1.85954e-16
1.86422e-16
1.38017e-16
1.45572e-16
1.5636e-16
1.69962e-16
1.86008e-16
2.04133e-16
2.23971e-16
2.45144e-16
2.67265e-16
2.89948e-16
3.12812e-16
3.35495e-16
3.57661e-16
3.79006e-16
3.99269e-16
4.18227e-16
4.35707e-16
4.51576e-16
4.65746e-16
4.78169e-16
4.8883e-16
4.97749e-16
5.0497e-16
5.10558e-16
5.14597e-16
5.17183e-16
5.18421e-16
3.97351e-16
4.18071e-16
4.47577e-16
4.84647e-16
5.2819e-16
5.77151e-16
6.30472e-16
6.87084e-16
7.4592e-16
8.05928e-16
8.66099e-16
9.25488e-16
9.83234e-16
1.03858e-15
1.09088e-15
1.1396e-15
1.18435e-15
1.22482e-15
1.26083e-15
1.29231e-15
1.31925e-15
1.34172e-15
1.35988e-15
1.3739e-15
1.38402e-15
1.39049e-15
1.39358e-15
1.1337e-15
1.18809e-15
1.2652e-15
1.3615e-15
1.47384e-15
1.59918e-15
1.73454e-15
1.877e-15
2.02375e-15
2.17207e-15
2.31947e-15
2.46368e-15
2.6027e-15
2.73485e-15
2.85875e-15
2.97333e-15
3.07782e-15
3.17172e-15
3.25479e-15
3.32699e-15
3.38848e-15
3.43956e-15
3.48066e-15
3.51229e-15
3.53505e-15
3.54956e-15
3.55648e-15
3.20519e-15
3.33903e-15
3.52723e-15
3.75981e-15
4.02769e-15
4.32231e-15
4.63556e-15
4.95978e-15
5.28793e-15
5.6137e-15
5.93154e-15
6.2368e-15
6.52572e-15
6.79541e-15
7.0438e-15
7.26957e-15
7.47208e-15
7.65122e-15
7.80733e-15
7.94114e-15
8.05362e-15
8.14595e-15
8.21944e-15
8.27545e-15
8.31539e-15
8.34067e-15
8.35265e-15
8.93219e-15
9.23034e-15
9.64344e-15
1.01439e-14
1.07064e-14
1.13077e-14
1.19265e-14
1.25442e-14
1.31449e-14
1.37159e-14
1.42476e-14
1.47333e-14
1.5169e-14
1.55533e-14
1.58866e-14
1.61712e-14
1.641e-14
1.66073e-14
1.67673e-14
1.68946e-14
1.69938e-14
1.70692e-14
1.71245e-14
1.71634e-14
1.7189e-14
1.72039e-14
1.72105e-14
2.40308e-14
2.45936e-14
2.53517e-14
2.62348e-14
2.71786e-14
2.81255e-14
2.90269e-14
2.98444e-14
3.05502e-14
3.11267e-14
3.15664e-14
3.18702e-14
3.20457e-14
3.21059e-14
3.2067e-14
3.19475e-14
3.17663e-14
3.15421e-14
3.12925e-14
3.10333e-14
3.07787e-14
3.05403e-14
3.03282e-14
3.01499e-14
3.00114e-14
2.99169e-14
2.9869e-14
5.95234e-14
6.02897e-14
6.12601e-14
6.22896e-14
6.32488e-14
6.40315e-14
6.45596e-14
6.47848e-14
6.46871e-14
6.42714e-14
6.35625e-14
6.2599e-14
6.14288e-14
6.01035e-14
5.86751e-14
5.71931e-14
5.57025e-14
5.42436e-14
5.28507e-14
5.15529e-14
5.03743e-14
4.93341e-14
4.84476e-14
4.77265e-14
4.71793e-14
4.68118e-14
4.66275e-14
1.27512e-13
1.27973e-13
1.28414e-13
1.28641e-13
1.28499e-13
1.27881e-13
1.26741e-13
1.2508e-13
1.22943e-13
1.20402e-13
1.17545e-13
1.14462e-13
1.11245e-13
1.07973e-13
1.04717e-13
1.01537e-13
9.84823e-14
9.55936e-14
9.29044e-14
9.04427e-14
8.82321e-14
8.62931e-14
8.46436e-14
8.32996e-14
8.2275e-14
8.15823e-14
8.12317e-14
2.35351e-13
2.35342e-13
2.35088e-13
2.34418e-13
2.33214e-13
2.31421e-13
2.29043e-13
2.26127e-13
2.22749e-13
2.18994e-13
2.14946e-13
2.10679e-13
2.06261e-13
2.01749e-13
1.97199e-13
1.92663e-13
1.88198e-13
1.8386e-13
1.79712e-13
1.75817e-13
1.72236e-13
1.6903e-13
1.66256e-13
1.63963e-13
1.62196e-13
1.60991e-13
1.60378e-13
4.26836e-13
4.2821e-13
4.29726e-13
4.30948e-13
4.31485e-13
4.31013e-13
4.29283e-13
4.26136e-13
4.21502e-13
4.15409e-13
4.07976e-13
3.99407e-13
3.89959e-13
3.79921e-13
3.69584e-13
3.59226e-13
3.4909e-13
3.39386e-13
3.30289e-13
3.21937e-13
3.14442e-13
3.07892e-13
3.02352e-13
2.97872e-13
2.94487e-13
2.92222e-13
2.91088e-13
8.2222e-13
8.23694e-13
8.24623e-13
8.24055e-13
8.21258e-13
8.15818e-13
8.07649e-13
7.96944e-13
7.84084e-13
7.69554e-13
7.53861e-13
7.37488e-13
7.2086e-13
7.04339e-13
6.88222e-13
6.72746e-13
6.58099e-13
6.44435e-13
6.31874e-13
6.20514e-13
6.10435e-13
6.01701e-13
5.94362e-13
5.88456e-13
5.84011e-13
5.81044e-13
5.79562e-13
1.49953e-12
1.50296e-12
1.50674e-12
1.50993e-12
1.51182e-12
1.51202e-12
1.51036e-12
1.50685e-12
1.50163e-12
1.49493e-12
1.48697e-12
1.47801e-12
1.46827e-12
1.45799e-12
1.44737e-12
1.43661e-12
1.4259e-12
1.41543e-12
1.40535e-12
1.39586e-12
1.38711e-12
1.37925e-12
1.37242e-12
1.36677e-12
1.3624e-12
1.3594e-12
1.35788e-12
2.87467e-12
2.90381e-12
2.94355e-12
2.99083e-12
3.04303e-12
3.09795e-12
3.15376e-12
3.20899e-12
3.26244e-12
3.31319e-12
3.36052e-12
3.40389e-12
3.44296e-12
3.47751e-12
3.50749e-12
3.53295e-12
3.55407e-12
3.57112e-12
3.58443e-12
3.59443e-12
3.60154e-12
3.60626e-12
3.60905e-12
3.61041e-12
3.61081e-12
3.61067e-12
3.61042e-12
6.17205e-12
6.28753e-12
6.44842e-12
6.64508e-12
6.86898e-12
7.1125e-12
7.36877e-12
7.63163e-12
7.89564e-12
8.15599e-12
8.40856e-12
8.64985e-12
8.87704e-12
9.08792e-12
9.28088e-12
9.45491e-12
9.60951e-12
9.74466e-12
9.86076e-12
9.95856e-12
1.00391e-11
1.01036e-11
1.01535e-11
1.01903e-11
1.02156e-11
1.0231e-11
1.02379e-11
1.43326e-11
1.46908e-11
1.51943e-11
1.58167e-11
1.65347e-11
1.73266e-11
1.81725e-11
1.90535e-11
1.99521e-11
2.08524e-11
2.17396e-11
2.26009e-11
2.3425e-11
2.42025e-11
2.49261e-11
2.55899e-11
2.61901e-11
2.67246e-11
2.71926e-11
2.75949e-11
2.79332e-11
2.82104e-11
2.843e-11
2.85963e-11
2.87138e-11
2.87873e-11
2.88216e-11
3.38776e-11
3.48312e-11
3.6177e-11
3.78492e-11
3.97891e-11
4.19423e-11
4.4257e-11
4.66837e-11
4.91753e-11
5.16874e-11
5.4179e-11
5.66129e-11
5.89559e-11
6.11799e-11
6.32616e-11
6.51827e-11
6.69299e-11
6.84947e-11
6.98728e-11
7.10643e-11
7.20726e-11
7.29041e-11
7.35675e-11
7.40733e-11
7.44333e-11
7.46602e-11
7.47671e-11
7.72037e-11
7.93833e-11
8.24595e-11
8.62808e-11
9.07125e-11
9.56288e-11
1.00909e-10
1.0644e-10
1.12111e-10
1.1782e-10
1.23473e-10
1.28984e-10
1.3428e-10
1.39296e-10
1.43982e-10
1.48301e-10
1.52223e-10
1.55734e-10
1.58825e-10
1.61497e-10
1.63759e-10
1.65625e-10
1.67115e-10
1.68253e-10
1.69064e-10
1.69576e-10
1.69818e-10
1.63212e-10
1.67435e-10
1.73376e-10
1.80725e-10
1.89207e-10
1.98563e-10
2.08552e-10
2.18945e-10
2.29534e-10
2.40129e-10
2.5056e-10
2.60676e-10
2.70348e-10
2.79469e-10
2.87956e-10
2.95747e-10
3.02798e-10
3.09087e-10
3.14608e-10
3.19368e-10
3.23389e-10
3.26699e-10
3.29338e-10
3.3135e-10
3.32783e-10
3.33687e-10
3.34113e-10
3.12933e-10
3.19853e-10
3.29553e-10
3.41494e-10
3.55198e-10
3.70224e-10
3.86167e-10
4.02653e-10
4.19344e-10
4.35937e-10
4.52169e-10
4.67813e-10
4.82681e-10
4.96624e-10
5.09528e-10
5.21315e-10
5.31935e-10
5.41369e-10
5.49619e-10
5.5671e-10
5.62682e-10
5.67587e-10
5.7149e-10
5.7446e-10
5.76573e-10
5.77904e-10
5.78532e-10
5.41955e-10
5.51865e-10
5.65701e-10
5.82653e-10
6.02e-10
6.23086e-10
6.45314e-10
6.6815e-10
6.91118e-10
7.13806e-10
7.35861e-10
7.5699e-10
7.76959e-10
7.95587e-10
8.12745e-10
8.28348e-10
8.42352e-10
8.54749e-10
8.65558e-10
8.74824e-10
8.8261e-10
8.88996e-10
8.9407e-10
8.97928e-10
9.00671e-10
9.02399e-10
9.03214e-10
8.56414e-10
8.69109e-10
8.86776e-10
9.08334e-10
9.32817e-10
9.59361e-10
9.87191e-10
1.01562e-09
1.04407e-09
1.07201e-09
1.09904e-09
1.12481e-09
1.14906e-09
1.1716e-09
1.19227e-09
1.21102e-09
1.2278e-09
1.24262e-09
1.25551e-09
1.26655e-09
1.27582e-09
1.28341e-09
1.28944e-09
1.29402e-09
1.29728e-09
1.29934e-09
1.30031e-09
1.2514e-09
1.26631e-09
1.28701e-09
1.31219e-09
1.34068e-09
1.37145e-09
1.40357e-09
1.43626e-09
1.46882e-09
1.5007e-09
1.53142e-09
1.56061e-09
1.588e-09
1.61337e-09
1.63661e-09
1.65763e-09
1.67642e-09
1.69299e-09
1.7074e-09
1.71972e-09
1.73006e-09
1.73854e-09
1.74527e-09
1.75039e-09
1.75403e-09
1.75633e-09
1.75741e-09
1.71386e-09
1.73029e-09
1.75306e-09
1.78068e-09
1.81186e-09
1.84544e-09
1.8804e-09
1.91587e-09
1.95111e-09
1.98552e-09
2.01861e-09
2.04998e-09
2.07936e-09
2.10654e-09
2.1314e-09
2.15386e-09
2.17392e-09
2.19161e-09
2.20697e-09
2.22012e-09
2.23115e-09
2.2402e-09
2.24738e-09
2.25285e-09
2.25675e-09
2.25921e-09
2.26037e-09
2.22713e-09
2.24442e-09
2.26835e-09
2.29734e-09
2.33001e-09
2.36512e-09
2.40162e-09
2.43858e-09
2.47525e-09
2.51099e-09
2.5453e-09
2.57781e-09
2.60821e-09
2.63632e-09
2.662e-09
2.68521e-09
2.70592e-09
2.72418e-09
2.74005e-09
2.75363e-09
2.76503e-09
2.77438e-09
2.78182e-09
2.78749e-09
2.79152e-09
2.79408e-09
2.79529e-09
2.77461e-09
2.79223e-09
2.81661e-09
2.84611e-09
2.87932e-09
2.91498e-09
2.952e-09
2.98946e-09
3.02657e-09
3.06272e-09
3.0974e-09
3.13022e-09
3.16091e-09
3.18927e-09
3.21519e-09
3.23859e-09
3.25949e-09
3.27791e-09
3.29393e-09
3.30764e-09
3.31916e-09
3.32861e-09
3.33613e-09
3.34187e-09
3.34596e-09
3.34855e-09
3.34978e-09
3.34193e-09
3.35951e-09
3.38382e-09
3.41322e-09
3.4463e-09
3.4818e-09
3.51862e-09
3.55586e-09
3.59273e-09
3.62863e-09
3.66306e-09
3.69564e-09
3.72609e-09
3.75423e-09
3.77994e-09
3.80316e-09
3.8239e-09
3.84219e-09
3.8581e-09
3.87172e-09
3.88317e-09
3.89257e-09
3.90006e-09
3.90577e-09
3.90985e-09
3.91244e-09
3.91366e-09
3.91772e-09
3.93502e-09
3.95892e-09
3.98782e-09
4.02032e-09
4.05519e-09
4.09134e-09
4.12789e-09
4.16408e-09
4.19929e-09
4.23306e-09
4.26501e-09
4.29488e-09
4.32248e-09
4.3477e-09
4.37049e-09
4.39084e-09
4.40879e-09
4.42442e-09
4.4378e-09
4.44906e-09
4.4583e-09
4.46567e-09
4.4713e-09
4.47532e-09
4.47787e-09
4.47908e-09
4.49361e-09
4.51046e-09
4.53375e-09
4.5619e-09
4.59356e-09
4.62751e-09
4.66271e-09
4.69828e-09
4.7335e-09
4.76777e-09
4.80063e-09
4.83173e-09
4.86079e-09
4.88765e-09
4.9122e-09
4.93439e-09
4.95421e-09
4.9717e-09
4.98693e-09
4.99998e-09
5.01096e-09
5.01998e-09
5.02718e-09
5.03267e-09
5.0366e-09
5.03909e-09
5.04028e-09
5.06373e-09
5.08006e-09
5.10262e-09
5.12989e-09
5.16055e-09
5.19342e-09
5.2275e-09
5.26195e-09
5.29604e-09
5.32922e-09
5.36104e-09
5.39114e-09
5.41929e-09
5.4453e-09
5.46908e-09
5.49058e-09
5.50979e-09
5.52674e-09
5.5415e-09
5.55416e-09
5.56481e-09
5.57357e-09
5.58056e-09
5.5859e-09
5.58972e-09
5.59214e-09
5.59329e-09
5.62422e-09
5.63998e-09
5.66176e-09
5.68808e-09
5.71767e-09
5.7494e-09
5.78229e-09
5.81553e-09
5.84844e-09
5.88046e-09
5.91116e-09
5.94022e-09
5.96739e-09
5.9925e-09
6.01546e-09
6.03621e-09
6.05477e-09
6.07115e-09
6.08541e-09
6.09765e-09
6.10795e-09
6.11642e-09
6.12318e-09
6.12835e-09
6.13205e-09
6.1344e-09
6.13552e-09
6.17267e-09
6.18785e-09
6.20883e-09
6.23419e-09
6.26269e-09
6.29325e-09
6.32493e-09
6.35695e-09
6.38864e-09
6.41949e-09
6.44906e-09
6.47705e-09
6.50322e-09
6.52742e-09
6.54954e-09
6.56955e-09
6.58743e-09
6.60322e-09
6.61698e-09
6.62878e-09
6.63872e-09
6.64689e-09
6.65342e-09
6.65841e-09
6.66199e-09
6.66425e-09
6.66533e-09
6.70769e-09
6.7223e-09
6.74249e-09
6.76689e-09
6.79431e-09
6.82371e-09
6.8542e-09
6.885e-09
6.9155e-09
6.94517e-09
6.97363e-09
7.00056e-09
7.02575e-09
7.04903e-09
7.07032e-09
7.08958e-09
7.1068e-09
7.122e-09
7.13525e-09
7.14661e-09
7.15619e-09
7.16407e-09
7.17036e-09
7.17517e-09
7.17862e-09
7.18081e-09
7.18185e-09
7.22859e-09
7.24264e-09
7.26205e-09
7.28552e-09
7.31189e-09
7.34017e-09
7.36948e-09
7.3991e-09
7.42842e-09
7.45696e-09
7.48432e-09
7.51022e-09
7.53444e-09
7.55683e-09
7.57731e-09
7.59583e-09
7.61239e-09
7.62702e-09
7.63977e-09
7.6507e-09
7.65992e-09
7.6675e-09
7.67356e-09
7.6782e-09
7.68152e-09
7.68362e-09
7.68463e-09
7.73512e-09
7.74863e-09
7.76729e-09
7.78985e-09
7.81521e-09
7.84239e-09
7.87057e-09
7.89904e-09
7.92723e-09
7.95466e-09
7.98096e-09
8.00586e-09
8.02914e-09
8.05066e-09
8.07035e-09
8.08815e-09
8.10407e-09
8.11814e-09
8.1304e-09
8.14092e-09
8.14978e-09
8.15707e-09
8.1629e-09
8.16736e-09
8.17056e-09
8.17259e-09
8.17355e-09
8.2273e-09
8.24028e-09
8.25823e-09
8.27991e-09
8.30429e-09
8.33042e-09
8.3575e-09
8.38487e-09
8.41196e-09
8.43832e-09
8.4636e-09
8.48752e-09
8.50989e-09
8.53057e-09
8.54949e-09
8.5666e-09
8.5819e-09
8.59542e-09
8.6072e-09
8.61731e-09
8.62583e-09
8.63284e-09
8.63845e-09
8.64274e-09
8.64581e-09
8.64776e-09
8.64869e-09
8.70531e-09
8.7178e-09
8.73505e-09
8.75589e-09
8.77932e-09
8.80443e-09
8.83046e-09
8.85675e-09
8.88278e-09
8.90811e-09
8.93239e-09
8.95538e-09
8.97687e-09
8.99674e-09
9.01491e-09
9.03135e-09
9.04604e-09
9.05903e-09
9.07034e-09
9.08006e-09
9.08824e-09
9.09498e-09
9.10037e-09
9.10449e-09
9.10744e-09
9.10932e-09
9.11022e-09
9.16944e-09
9.18143e-09
9.19801e-09
9.21804e-09
9.24055e-09
9.26468e-09
9.28969e-09
9.31495e-09
9.33995e-09
9.36428e-09
9.3876e-09
9.40967e-09
9.43031e-09
9.44939e-09
9.46684e-09
9.48262e-09
9.49673e-09
9.5092e-09
9.52007e-09
9.52939e-09
9.53725e-09
9.54373e-09
9.5489e-09
9.55286e-09
9.55569e-09
9.5575e-09
9.55836e-09
9.61996e-09
9.63148e-09
9.64741e-09
9.66665e-09
9.68827e-09
9.71145e-09
9.73547e-09
9.75972e-09
9.78373e-09
9.80709e-09
9.82948e-09
9.85067e-09
9.87047e-09
9.88879e-09
9.90553e-09
9.92067e-09
9.93422e-09
9.94618e-09
9.95661e-09
9.96556e-09
9.9731e-09
9.97931e-09
9.98427e-09
9.98807e-09
9.99079e-09
9.99253e-09
9.99335e-09
1.00572e-08
1.00682e-08
1.00835e-08
1.0102e-08
1.01228e-08
1.0145e-08
1.01681e-08
1.01913e-08
1.02144e-08
1.02368e-08
1.02583e-08
1.02786e-08
1.02976e-08
1.03152e-08
1.03312e-08
1.03457e-08
1.03587e-08
1.03702e-08
1.03802e-08
1.03888e-08
1.0396e-08
1.0402e-08
1.04067e-08
1.04104e-08
1.0413e-08
1.04146e-08
1.04154e-08
1.04813e-08
1.04919e-08
1.05066e-08
1.05244e-08
1.05443e-08
1.05656e-08
1.05877e-08
1.06101e-08
1.06321e-08
1.06536e-08
1.06742e-08
1.06937e-08
1.07119e-08
1.07287e-08
1.07441e-08
1.0758e-08
1.07705e-08
1.07815e-08
1.0791e-08
1.07993e-08
1.08062e-08
1.08119e-08
1.08164e-08
1.08199e-08
1.08224e-08
1.0824e-08
1.08248e-08
1.08926e-08
1.09028e-08
1.09169e-08
1.09339e-08
1.0953e-08
1.09734e-08
1.09946e-08
1.1016e-08
1.10372e-08
1.10578e-08
1.10775e-08
1.10961e-08
1.11136e-08
1.11297e-08
1.11444e-08
1.11577e-08
1.11696e-08
1.11801e-08
1.11893e-08
1.11971e-08
1.12037e-08
1.12092e-08
1.12136e-08
1.12169e-08
1.12193e-08
1.12208e-08
1.12215e-08
1.12913e-08
1.1301e-08
1.13145e-08
1.13308e-08
1.1349e-08
1.13686e-08
1.13889e-08
1.14094e-08
1.14296e-08
1.14493e-08
1.14681e-08
1.1486e-08
1.15026e-08
1.1518e-08
1.15321e-08
1.15448e-08
1.15562e-08
1.15662e-08
1.15749e-08
1.15825e-08
1.15888e-08
1.1594e-08
1.15981e-08
1.16013e-08
1.16036e-08
1.16051e-08
1.16058e-08
1.16773e-08
1.16866e-08
1.16995e-08
1.1715e-08
1.17325e-08
1.17512e-08
1.17706e-08
1.17901e-08
1.18094e-08
1.18282e-08
1.18462e-08
1.18632e-08
1.18791e-08
1.18938e-08
1.19072e-08
1.19193e-08
1.19301e-08
1.19397e-08
1.1948e-08
1.19552e-08
1.19612e-08
1.19662e-08
1.19701e-08
1.19732e-08
1.19753e-08
1.19767e-08
1.19774e-08
1.20506e-08
1.20595e-08
1.20718e-08
1.20866e-08
1.21032e-08
1.21211e-08
1.21395e-08
1.21582e-08
1.21766e-08
1.21945e-08
1.22116e-08
1.22278e-08
1.22429e-08
1.22568e-08
1.22696e-08
1.22811e-08
1.22914e-08
1.23005e-08
1.23084e-08
1.23152e-08
1.23209e-08
1.23256e-08
1.23294e-08
1.23323e-08
1.23343e-08
1.23356e-08
1.23363e-08
1.2411e-08
1.24195e-08
1.24312e-08
1.24453e-08
1.24611e-08
1.24781e-08
1.24956e-08
1.25133e-08
1.25308e-08
1.25477e-08
1.2564e-08
1.25793e-08
1.25936e-08
1.26069e-08
1.2619e-08
1.26299e-08
1.26396e-08
1.26482e-08
1.26557e-08
1.26621e-08
1.26675e-08
1.2672e-08
1.26756e-08
1.26783e-08
1.26802e-08
1.26815e-08
1.26821e-08
1.27583e-08
1.27663e-08
1.27774e-08
1.27907e-08
1.28057e-08
1.28217e-08
1.28383e-08
1.28551e-08
1.28716e-08
1.28876e-08
1.29029e-08
1.29174e-08
1.2931e-08
1.29434e-08
1.29548e-08
1.29651e-08
1.29743e-08
1.29824e-08
1.29894e-08
1.29955e-08
1.30006e-08
1.30048e-08
1.30081e-08
1.30107e-08
1.30125e-08
1.30137e-08
1.30142e-08
1.30918e-08
1.30993e-08
1.31098e-08
1.31223e-08
1.31364e-08
1.31515e-08
1.31671e-08
1.31829e-08
1.31984e-08
1.32134e-08
1.32278e-08
1.32414e-08
1.32541e-08
1.32658e-08
1.32764e-08
1.32861e-08
1.32946e-08
1.33022e-08
1.33088e-08
1.33145e-08
1.33192e-08
1.33231e-08
1.33263e-08
1.33287e-08
1.33304e-08
1.33315e-08
1.3332e-08
1.34107e-08
1.34178e-08
1.34275e-08
1.34393e-08
1.34525e-08
1.34666e-08
1.34811e-08
1.34958e-08
1.35102e-08
1.35243e-08
1.35377e-08
1.35503e-08
1.35621e-08
1.35729e-08
1.35828e-08
1.35917e-08
1.35997e-08
1.36067e-08
1.36128e-08
1.3618e-08
1.36224e-08
1.36261e-08
1.3629e-08
1.36312e-08
1.36328e-08
1.36338e-08
1.36342e-08
1.37139e-08
1.37205e-08
1.37295e-08
1.37404e-08
1.37526e-08
1.37656e-08
1.37791e-08
1.37926e-08
1.38059e-08
1.38188e-08
1.38311e-08
1.38427e-08
1.38535e-08
1.38635e-08
1.38726e-08
1.38807e-08
1.3888e-08
1.38944e-08
1.39e-08
1.39048e-08
1.39088e-08
1.39121e-08
1.39147e-08
1.39167e-08
1.39182e-08
1.39191e-08
1.39196e-08
1.4e-08
1.4006e-08
1.40142e-08
1.40242e-08
1.40353e-08
1.40471e-08
1.40593e-08
1.40716e-08
1.40837e-08
1.40954e-08
1.41065e-08
1.4117e-08
1.41268e-08
1.41357e-08
1.41439e-08
1.41512e-08
1.41578e-08
1.41635e-08
1.41685e-08
1.41728e-08
1.41764e-08
1.41793e-08
1.41817e-08
1.41835e-08
1.41848e-08
1.41856e-08
1.4186e-08
1.4267e-08
1.42723e-08
1.42797e-08
1.42885e-08
1.42985e-08
1.4309e-08
1.43199e-08
1.43308e-08
1.43415e-08
1.43518e-08
1.43616e-08
1.43709e-08
1.43794e-08
1.43873e-08
1.43944e-08
1.44009e-08
1.44066e-08
1.44116e-08
1.44159e-08
1.44196e-08
1.44228e-08
1.44253e-08
1.44274e-08
1.44289e-08
1.44301e-08
1.44308e-08
1.44311e-08
1.45123e-08
1.45169e-08
1.45233e-08
1.4531e-08
1.45396e-08
1.45486e-08
1.4558e-08
1.45673e-08
1.45765e-08
1.45853e-08
1.45936e-08
1.46014e-08
1.46087e-08
1.46153e-08
1.46213e-08
1.46267e-08
1.46315e-08
1.46356e-08
1.46393e-08
1.46423e-08
1.46449e-08
1.4647e-08
1.46487e-08
1.465e-08
1.4651e-08
1.46515e-08
1.46518e-08
1.47329e-08
1.47367e-08
1.4742e-08
1.47483e-08
1.47553e-08
1.47627e-08
1.47703e-08
1.47779e-08
1.47853e-08
1.47923e-08
1.4799e-08
1.48052e-08
1.48109e-08
1.48161e-08
1.48208e-08
1.4825e-08
1.48287e-08
1.48319e-08
1.48347e-08
1.48371e-08
1.4839e-08
1.48407e-08
1.48419e-08
1.48429e-08
1.48436e-08
1.48441e-08
1.48443e-08
1.49248e-08
1.49277e-08
1.49317e-08
1.49364e-08
1.49417e-08
1.49472e-08
1.49528e-08
1.49583e-08
1.49637e-08
1.49687e-08
1.49734e-08
1.49778e-08
1.49817e-08
1.49853e-08
1.49885e-08
1.49913e-08
1.49937e-08
1.49959e-08
1.49977e-08
1.49992e-08
1.50005e-08
1.50015e-08
1.50023e-08
1.5003e-08
1.50034e-08
1.50037e-08
1.50038e-08
1.50833e-08
1.50852e-08
1.50877e-08
1.50906e-08
1.50938e-08
1.50971e-08
1.51004e-08
1.51035e-08
1.51065e-08
1.51092e-08
1.51117e-08
1.51139e-08
1.51158e-08
1.51175e-08
1.51189e-08
1.51201e-08
1.51211e-08
1.5122e-08
1.51227e-08
1.51232e-08
1.51237e-08
1.5124e-08
1.51243e-08
1.51245e-08
1.51247e-08
1.51248e-08
1.51248e-08
1.52029e-08
1.52035e-08
1.52042e-08
1.52051e-08
1.52059e-08
1.52066e-08
1.52071e-08
1.52075e-08
1.52077e-08
1.52077e-08
1.52076e-08
1.52072e-08
1.52068e-08
1.52062e-08
1.52056e-08
1.5205e-08
1.52043e-08
1.52037e-08
1.52031e-08
1.52025e-08
1.5202e-08
1.52016e-08
1.52012e-08
1.52009e-08
1.52007e-08
1.52006e-08
1.52006e-08
1.52766e-08
1.52758e-08
1.52745e-08
1.52729e-08
1.52709e-08
1.52686e-08
1.5266e-08
1.52632e-08
1.52602e-08
1.5257e-08
1.52538e-08
1.52505e-08
1.52473e-08
1.52442e-08
1.52412e-08
1.52384e-08
1.52358e-08
1.52334e-08
1.52313e-08
1.52294e-08
1.52278e-08
1.52265e-08
1.52254e-08
1.52246e-08
1.5224e-08
1.52236e-08
1.52234e-08
1.52969e-08
1.52944e-08
1.52908e-08
1.52863e-08
1.52811e-08
1.52753e-08
1.52691e-08
1.52625e-08
1.52557e-08
1.52489e-08
1.52421e-08
1.52355e-08
1.52291e-08
1.5223e-08
1.52172e-08
1.52119e-08
1.5207e-08
1.52027e-08
1.51988e-08
1.51954e-08
1.51925e-08
1.51901e-08
1.51882e-08
1.51867e-08
1.51856e-08
1.5185e-08
1.51846e-08
1.52551e-08
1.52506e-08
1.52443e-08
1.52365e-08
1.52276e-08
1.52177e-08
1.52073e-08
1.51964e-08
1.51853e-08
1.51743e-08
1.51634e-08
1.51529e-08
1.51428e-08
1.51332e-08
1.51243e-08
1.51161e-08
1.51087e-08
1.5102e-08
1.50961e-08
1.5091e-08
1.50866e-08
1.5083e-08
1.50801e-08
1.50779e-08
1.50763e-08
1.50753e-08
1.50748e-08
1.51417e-08
1.5135e-08
1.51255e-08
1.5114e-08
1.51008e-08
1.50863e-08
1.5071e-08
1.50552e-08
1.50392e-08
1.50234e-08
1.50078e-08
1.49928e-08
1.49785e-08
1.49651e-08
1.49526e-08
1.49411e-08
1.49307e-08
1.49214e-08
1.49133e-08
1.49062e-08
1.49002e-08
1.48952e-08
1.48912e-08
1.48881e-08
1.48859e-08
1.48845e-08
1.48838e-08
1.49468e-08
1.49375e-08
1.49246e-08
1.49088e-08
1.48907e-08
1.48711e-08
1.48503e-08
1.4829e-08
1.48075e-08
1.47862e-08
1.47655e-08
1.47455e-08
1.47265e-08
1.47087e-08
1.46921e-08
1.4677e-08
1.46633e-08
1.46511e-08
1.46404e-08
1.46311e-08
1.46233e-08
1.46168e-08
1.46116e-08
1.46076e-08
1.46047e-08
1.46029e-08
1.4602e-08
1.46607e-08
1.46486e-08
1.46318e-08
1.46113e-08
1.45879e-08
1.45625e-08
1.45357e-08
1.45083e-08
1.44807e-08
1.44534e-08
1.44269e-08
1.44014e-08
1.43773e-08
1.43547e-08
1.43338e-08
1.43147e-08
1.42974e-08
1.42821e-08
1.42686e-08
1.42569e-08
1.42471e-08
1.42389e-08
1.42324e-08
1.42274e-08
1.42238e-08
1.42215e-08
1.42204e-08
1.42746e-08
1.42595e-08
1.42385e-08
1.42129e-08
1.41837e-08
1.41521e-08
1.41189e-08
1.40849e-08
1.40508e-08
1.40171e-08
1.39845e-08
1.39532e-08
1.39235e-08
1.38958e-08
1.38703e-08
1.38469e-08
1.38259e-08
1.38072e-08
1.37907e-08
1.37766e-08
1.37646e-08
1.37547e-08
1.37468e-08
1.37408e-08
1.37364e-08
1.37337e-08
1.37324e-08
1.37821e-08
1.37638e-08
1.37384e-08
1.37074e-08
1.36723e-08
1.36342e-08
1.35943e-08
1.35534e-08
1.35126e-08
1.34723e-08
1.34333e-08
1.33959e-08
1.33607e-08
1.33278e-08
1.32974e-08
1.32698e-08
1.32449e-08
1.32228e-08
1.32034e-08
1.31868e-08
1.31727e-08
1.31611e-08
1.31518e-08
1.31447e-08
1.31396e-08
1.31364e-08
1.31348e-08
1.31802e-08
1.31587e-08
1.31289e-08
1.30925e-08
1.30514e-08
1.30068e-08
1.29602e-08
1.29126e-08
1.2865e-08
1.28182e-08
1.2773e-08
1.27298e-08
1.2689e-08
1.2651e-08
1.26161e-08
1.25843e-08
1.25557e-08
1.25303e-08
1.25081e-08
1.24891e-08
1.2473e-08
1.24597e-08
1.24492e-08
1.24411e-08
1.24353e-08
1.24316e-08
1.24299e-08
1.24709e-08
1.24464e-08
1.24123e-08
1.23709e-08
1.2324e-08
1.22734e-08
1.22205e-08
1.21666e-08
1.21128e-08
1.206e-08
1.2009e-08
1.19604e-08
1.19147e-08
1.18721e-08
1.1833e-08
1.17975e-08
1.17656e-08
1.17374e-08
1.17128e-08
1.16916e-08
1.16738e-08
1.16591e-08
1.16475e-08
1.16385e-08
1.16322e-08
1.16282e-08
1.16263e-08
1.16624e-08
1.16352e-08
1.15974e-08
1.15515e-08
1.14997e-08
1.14438e-08
1.13854e-08
1.13261e-08
1.1267e-08
1.12091e-08
1.11533e-08
1.11002e-08
1.10504e-08
1.10041e-08
1.09616e-08
1.09232e-08
1.08887e-08
1.08583e-08
1.08317e-08
1.0809e-08
1.07899e-08
1.07742e-08
1.07617e-08
1.07522e-08
1.07454e-08
1.07412e-08
1.07391e-08
1.07689e-08
1.07395e-08
1.06987e-08
1.06493e-08
1.05934e-08
1.05333e-08
1.04707e-08
1.04072e-08
1.0344e-08
1.02823e-08
1.02229e-08
1.01665e-08
1.01136e-08
1.00646e-08
1.00198e-08
9.97928e-09
9.94306e-09
9.91113e-09
9.88337e-09
9.85964e-09
9.83974e-09
9.82345e-09
9.81052e-09
9.8007e-09
9.79373e-09
9.78934e-09
9.78727e-09
9.8086e-09
9.77751e-09
9.73447e-09
9.68231e-09
9.62351e-09
9.56027e-09
9.4945e-09
9.42785e-09
9.36168e-09
9.29712e-09
9.2351e-09
9.1763e-09
9.12128e-09
9.07039e-09
9.02389e-09
8.9819e-09
8.94446e-09
8.9115e-09
8.88292e-09
8.85853e-09
8.83814e-09
8.82148e-09
8.80831e-09
8.79833e-09
8.79127e-09
8.78684e-09
8.78476e-09
8.80028e-09
8.76786e-09
8.72302e-09
8.66874e-09
8.60764e-09
8.54206e-09
8.474e-09
8.40518e-09
8.33705e-09
8.27077e-09
8.20727e-09
8.14728e-09
8.09132e-09
8.03976e-09
7.99281e-09
7.95058e-09
7.91307e-09
7.88019e-09
7.85178e-09
7.82765e-09
7.80755e-09
7.79121e-09
7.77833e-09
7.76863e-09
7.76179e-09
7.75752e-09
7.75553e-09
7.76975e-09
7.7378e-09
7.6937e-09
7.64043e-09
7.58066e-09
7.51671e-09
7.45058e-09
7.38398e-09
7.3183e-09
7.25469e-09
7.19403e-09
7.13698e-09
7.08404e-09
7.03549e-09
6.99153e-09
6.95219e-09
6.91745e-09
6.88716e-09
6.86116e-09
6.8392e-09
6.82103e-09
6.80635e-09
6.79487e-09
6.78629e-09
6.78028e-09
6.77656e-09
6.77484e-09
6.78133e-09
6.75191e-09
6.71139e-09
6.6626e-09
6.60804e-09
6.54989e-09
6.49003e-09
6.43003e-09
6.37117e-09
6.31448e-09
6.26073e-09
6.21049e-09
6.16417e-09
6.12199e-09
6.08407e-09
6.0504e-09
6.02091e-09
5.99542e-09
5.97374e-09
5.95562e-09
5.94078e-09
5.92893e-09
5.91978e-09
5.91303e-09
5.90838e-09
5.90554e-09
5.90425e-09
5.89276e-09
5.86748e-09
5.83275e-09
5.79108e-09
5.74467e-09
5.69545e-09
5.64506e-09
5.59486e-09
5.54595e-09
5.49919e-09
5.45521e-09
5.41448e-09
5.37728e-09
5.34377e-09
5.31399e-09
5.28789e-09
5.26535e-09
5.24617e-09
5.23014e-09
5.21699e-09
5.20646e-09
5.19826e-09
5.1921e-09
5.18769e-09
5.18477e-09
5.18306e-09
5.18232e-09
5.14124e-09
5.12102e-09
5.09333e-09
5.06025e-09
5.02362e-09
4.98504e-09
4.94585e-09
4.90716e-09
4.86985e-09
4.83459e-09
4.80188e-09
4.77203e-09
4.74524e-09
4.72157e-09
4.70101e-09
4.68346e-09