/*--------------------------------*- C++ -*----------------------------------*\
| =========                 |                                                 |
| \\      /  F ield         | OpenFOAM: The Open Source CFD Toolbox           |
|  \\    /   O peration     | Version:  2106                                  |
|   \\  /    A nd           | Website:  www.openfoam.com                      |
|    \\/     M anipulation  |                                                 |
\*---------------------------------------------------------------------------*/
FoamFile
{
    version     2.0;
    format      ascii;
    arch        "LSB;label=32;scalar=64";
    class       volScalarField;
    location    "80.00032";
    object      C7H7;
}
// * * * * * * * * * * * * * * * * * * * * * * * * * * * * * * * * * * * * * //

dimensions      [0 0 0 0 0 0 0];

internalField   nonuniform List<scalar> 
3360
(
7.87733e-26
8.1343e-26
8.49196e-26
8.92952e-26
9.42881e-26
9.97346e-26
1.05487e-25
1.11412e-25
1.1739e-25
1.23317e-25
1.29101e-25
1.34665e-25
1.39944e-25
1.44888e-25
1.49457e-25
1.53625e-25
1.57375e-25
1.60698e-25
1.63597e-25
1.6608e-25
1.68162e-25
1.69862e-25
1.71205e-25
1.72219e-25
1.72932e-25
1.73375e-25
1.73581e-25
3.48629e-25
3.61621e-25
3.79957e-25
4.02794e-25
4.29434e-25
4.59267e-25
4.91748e-25
5.26378e-25
5.62692e-25
6.00249e-25
6.38627e-25
6.77416e-25
7.16209e-25
7.54607e-25
7.92218e-25
8.28655e-25
8.6354e-25
8.96508e-25
9.27209e-25
9.55314e-25
9.80522e-25
1.00257e-24
1.02122e-24
1.03631e-24
1.0477e-24
1.0553e-24
1.05909e-24
1.10983e-24
1.15923e-24
1.22945e-24
1.31769e-24
1.42168e-24
1.53934e-24
1.66869e-24
1.8078e-24
1.95469e-24
2.10735e-24
2.26373e-24
2.42177e-24
2.57944e-24
2.73474e-24
2.88573e-24
3.03057e-24
3.16756e-24
3.29515e-24
3.41203e-24
3.5171e-24
3.60949e-24
3.68862e-24
3.75412e-24
3.8059e-24
3.84408e-24
3.86897e-24
3.88109e-24
3.29411e-24
3.46009e-24
3.6976e-24
3.99822e-24
4.35491e-24
4.76106e-24
5.21006e-24
5.69505e-24
6.2088e-24
6.7437e-24
7.29188e-24
7.84532e-24
8.39603e-24
8.93623e-24
9.45853e-24
9.95613e-24
1.0423e-23
1.0854e-23
1.1245e-23
1.1593e-23
1.18958e-23
1.21523e-23
1.23625e-23
1.25268e-23
1.26468e-23
1.27243e-23
1.27617e-23
9.83944e-24
1.03747e-23
1.11422e-23
1.2116e-23
1.3274e-23
1.45951e-23
1.60576e-23
1.76381e-23
1.93119e-23
2.10529e-23
2.28338e-23
2.46272e-23
2.64062e-23
2.81449e-23
2.98194e-23
3.14083e-23
3.2893e-23
3.42582e-23
3.54919e-23
3.65857e-23
3.75342e-23
3.83352e-23
3.89894e-23
3.94997e-23
3.98712e-23
4.01106e-23
4.02258e-23
2.97084e-23
3.13914e-23
3.38076e-23
3.6876e-23
4.05274e-23
4.46946e-23
4.93078e-23
5.42926e-23
5.95691e-23
6.5053e-23
7.06572e-23
7.62939e-23
8.18773e-23
8.73258e-23
9.25644e-23
9.75263e-23
1.02155e-22
1.06403e-22
1.10235e-22
1.13626e-22
1.16562e-22
1.19038e-22
1.21057e-22
1.2263e-22
1.23773e-22
1.24509e-22
1.24863e-22
9.04471e-23
9.56874e-23
1.03211e-22
1.12765e-22
1.24134e-22
1.37107e-22
1.51463e-22
1.66967e-22
1.83366e-22
2.00397e-22
2.17786e-22
2.3526e-22
2.52551e-22
2.69409e-22
2.85603e-22
3.00928e-22
3.15212e-22
3.28312e-22
3.40122e-22
3.50569e-22
3.59609e-22
3.67229e-22
3.7344e-22
3.78277e-22
3.81794e-22
3.84056e-22
3.85144e-22
2.76387e-22
2.9255e-22
3.15767e-22
3.45264e-22
3.80372e-22
4.2044e-22
4.64782e-22
5.12668e-22
5.63314e-22
6.15898e-22
6.69572e-22
7.23489e-22
7.76825e-22
8.28803e-22
8.78711e-22
9.25923e-22
9.69904e-22
1.01023e-21
1.04656e-21
1.07869e-21
1.10647e-21
1.12988e-21
1.14896e-21
1.16381e-21
1.1746e-21
1.18154e-21
1.18488e-21
8.47094e-22
8.96903e-22
9.68434e-22
1.0593e-21
1.16744e-21
1.29083e-21
1.42736e-21
1.57475e-21
1.73059e-21
1.89234e-21
2.05738e-21
2.22311e-21
2.38699e-21
2.54665e-21
2.69991e-21
2.84485e-21
2.97984e-21
3.10358e-21
3.21506e-21
3.31361e-21
3.39885e-21
3.47066e-21
3.52918e-21
3.57473e-21
3.60783e-21
3.62912e-21
3.63935e-21
2.5972e-21
2.75019e-21
2.96995e-21
3.24912e-21
3.58138e-21
3.96048e-21
4.37991e-21
4.83269e-21
5.31136e-21
5.80809e-21
6.31486e-21
6.82365e-21
7.32668e-21
7.81664e-21
8.28685e-21
8.73142e-21
9.14539e-21
9.52474e-21
9.86645e-21
1.01684e-20
1.04296e-20
1.06495e-20
1.08287e-20
1.09682e-20
1.10695e-20
1.11346e-20
1.11659e-20
7.97125e-21
8.44113e-21
9.11589e-21
9.97292e-21
1.09926e-20
1.21558e-20
1.34424e-20
1.48308e-20
1.62981e-20
1.78203e-20
1.93726e-20
2.09307e-20
2.24706e-20
2.397e-20
2.54085e-20
2.67683e-20
2.80341e-20
2.91938e-20
3.02382e-20
3.11611e-20
3.1959e-20
3.2631e-20
3.31783e-20
3.36043e-20
3.39137e-20
3.41127e-20
3.42083e-20
2.44635e-20
2.59035e-20
2.79712e-20
3.05971e-20
3.37207e-20
3.72828e-20
4.12214e-20
4.54704e-20
4.99592e-20
5.46141e-20
5.93596e-20
6.41206e-20
6.88242e-20
7.34023e-20
7.77929e-20
8.19413e-20
8.58017e-20
8.93373e-20
9.25202e-20
9.53318e-20
9.77619e-20
9.98077e-20
1.01474e-19
1.0277e-19
1.03711e-19
1.04316e-19
1.04607e-19
7.5111e-20
7.95207e-20
8.58502e-20
9.38841e-20
1.03436e-19
1.14322e-19
1.26351e-19
1.3932e-19
1.53011e-19
1.67198e-19
1.81652e-19
1.96142e-19
2.10449e-19
2.24365e-19
2.37703e-19
2.50298e-19
2.62012e-19
2.72735e-19
2.82384e-19
2.90904e-19
2.98265e-19
3.0446e-19
3.09504e-19
3.13426e-19
3.16275e-19
3.18105e-19
3.18985e-19
2.3054e-19
2.44004e-19
2.63321e-19
2.87827e-19
3.16943e-19
3.50102e-19
3.86712e-19
4.26145e-19
4.67737e-19
5.10797e-19
5.54623e-19
5.98518e-19
6.41816e-19
6.83892e-19
7.24182e-19
7.62196e-19
7.97522e-19
8.29833e-19
8.58887e-19
8.84523e-19
9.06656e-19
9.25274e-19
9.40421e-19
9.52197e-19
9.60743e-19
9.66235e-19
9.68871e-19
7.08096e-19
7.49089e-19
8.07858e-19
8.82343e-19
9.70743e-19
1.07129e-18
1.18216e-18
1.30141e-18
1.427e-18
1.55683e-18
1.68878e-18
1.82074e-18
1.95072e-18
2.07685e-18
2.19748e-18
2.31114e-18
2.41664e-18
2.51303e-18
2.59962e-18
2.67594e-18
2.74179e-18
2.79712e-18
2.84212e-18
2.87708e-18
2.90243e-18
2.91872e-18
2.92654e-18
2.17758e-18
2.30175e-18
2.4796e-18
2.70471e-18
2.97146e-18
3.27435e-18
3.6077e-18
3.96555e-18
4.34169e-18
4.72974e-18
5.12329e-18
5.51611e-18
5.90227e-18
6.27629e-18
6.63332e-18
6.96916e-18
7.28037e-18
7.56427e-18
7.81891e-18
8.04308e-18
8.23622e-18
8.39836e-18
8.53006e-18
8.63229e-18
8.70638e-18
8.75393e-18
8.77673e-18
6.72179e-18
7.09583e-18
7.63072e-18
8.30644e-18
9.10534e-18
1.00102e-17
1.10033e-17
1.20664e-17
1.31806e-17
1.43267e-17
1.54858e-17
1.66394e-17
1.77703e-17
1.88629e-17
1.99031e-17
2.08793e-17
2.17818e-17
2.26035e-17
2.3339e-17
2.39855e-17
2.45415e-17
2.50076e-17
2.53857e-17
2.56789e-17
2.58911e-17
2.60272e-17
2.60925e-17
2.09074e-17
2.20267e-17
2.36239e-17
2.56361e-17
2.80073e-17
3.06834e-17
3.36095e-17
3.67293e-17
3.99858e-17
4.33223e-17
4.66829e-17
5.00148e-17
5.3269e-17
5.64015e-17
5.93741e-17
6.21548e-17
6.47183e-17
6.70455e-17
6.91238e-17
7.0946e-17
7.25103e-17
7.38193e-17
7.48793e-17
7.57e-17
7.62934e-17
7.66735e-17
7.68555e-17
6.59438e-17
6.92743e-17
7.40127e-17
7.99588e-17
8.69344e-17
9.47673e-17
1.03286e-16
1.1232e-16
1.21698e-16
1.31253e-16
1.40826e-16
1.50268e-16
1.59444e-16
1.68236e-16
1.76542e-16
1.8428e-16
1.91386e-16
1.97816e-16
2.03539e-16
2.08544e-16
2.12829e-16
2.16406e-16
2.19298e-16
2.21532e-16
2.23146e-16
2.24178e-16
2.24672e-16
2.12702e-16
2.22593e-16
2.36609e-16
2.54106e-16
2.74508e-16
2.97264e-16
3.21839e-16
3.47709e-16
3.7437e-16
4.01338e-16
4.28167e-16
4.54451e-16
4.79831e-16
5.04e-16
5.26706e-16
5.4775e-16
5.66984e-16
5.8431e-16
5.99673e-16
6.13058e-16
6.24484e-16
6.33997e-16
6.41668e-16
6.47585e-16
6.5185e-16
6.54574e-16
6.55876e-16
7.08432e-16
7.38066e-16
7.79837e-16
8.31639e-16
8.91576e-16
9.57868e-16
1.02882e-15
1.10283e-15
1.17841e-15
1.25417e-15
1.32888e-15
1.40145e-15
1.47097e-15
1.53669e-15
1.598e-15
1.65445e-15
1.70575e-15
1.75172e-15
1.79229e-15
1.82749e-15
1.85742e-15
1.88226e-15
1.90224e-15
1.91761e-15
1.92867e-15
1.93572e-15
1.93908e-15
2.45706e-15
2.54864e-15
2.67701e-15
2.83502e-15
3.01629e-15
3.21489e-15
3.42535e-15
3.64265e-15
3.86226e-15
4.0802e-15
4.29301e-15
4.4978e-15
4.69223e-15
4.87447e-15
5.04316e-15
5.19739e-15
5.33662e-15
5.46063e-15
5.56948e-15
5.66347e-15
5.74306e-15
5.80886e-15
5.8616e-15
5.90207e-15
5.93111e-15
5.94959e-15
5.95839e-15
8.92491e-15
9.22953e-15
9.65443e-15
1.01743e-14
1.07663e-14
1.14098e-14
1.2086e-14
1.27782e-14
1.34717e-14
1.4154e-14
1.48146e-14
1.54453e-14
1.60394e-14
1.65921e-14
1.71002e-14
1.75617e-14
1.79758e-14
1.83425e-14
1.86627e-14
1.89379e-14
1.91699e-14
1.93609e-14
1.95135e-14
1.96302e-14
1.97137e-14
1.97667e-14
1.97919e-14
3.40826e-14
3.52382e-14
3.68478e-14
3.88137e-14
4.10479e-14
4.3471e-14
4.60114e-14
4.86054e-14
5.11981e-14
5.37424e-14
5.61999e-14
5.85396e-14
6.07379e-14
6.27777e-14
6.46474e-14
6.63408e-14
6.78557e-14
6.91932e-14
7.03574e-14
7.13546e-14
7.21926e-14
7.28803e-14
7.34277e-14
7.38449e-14
7.41424e-14
7.43306e-14
7.44198e-14
1.37468e-13
1.4267e-13
1.49943e-13
1.58868e-13
1.69071e-13
1.80207e-13
1.91961e-13
2.04048e-13
2.16213e-13
2.28233e-13
2.39919e-13
2.51112e-13
2.61686e-13
2.71544e-13
2.80618e-13
2.88863e-13
2.96257e-13
3.02797e-13
3.08496e-13
3.13377e-13
3.17478e-13
3.2084e-13
3.23511e-13
3.25543e-13
3.26988e-13
3.27899e-13
3.28329e-13
5.88307e-13
6.15566e-13
6.53999e-13
7.01676e-13
7.5687e-13
8.17958e-13
8.83398e-13
9.51723e-13
1.02155e-12
1.09159e-12
1.16069e-12
1.2278e-12
1.29204e-12
1.35266e-12
1.40908e-12
1.46086e-12
1.50771e-12
1.54946e-12
1.58608e-12
1.61762e-12
1.64421e-12
1.66609e-12
1.6835e-12
1.69676e-12
1.70619e-12
1.71214e-12
1.71494e-12
2.66733e-12
2.82363e-12
3.04651e-12
3.32707e-12
3.65747e-12
4.03013e-12
4.43744e-12
4.87165e-12
5.32489e-12
5.78927e-12
6.25706e-12
6.72083e-12
7.17367e-12
7.60932e-12
8.0223e-12
8.40804e-12
8.76289e-12
9.08415e-12
9.37003e-12
9.61962e-12
9.83279e-12
1.00101e-11
1.01528e-11
1.02624e-11
1.0341e-11
1.03909e-11
1.04146e-11
1.26374e-11
1.35566e-11
1.48845e-11
1.65842e-11
1.86254e-11
2.09783e-11
2.36106e-11
2.64861e-11
2.95642e-11
3.28002e-11
3.61456e-11
3.95503e-11
4.29629e-11
4.63329e-11
4.96118e-11
5.27547e-11
5.57208e-11
5.84751e-11
6.09881e-11
6.32367e-11
6.52043e-11
6.68804e-11
6.82603e-11
6.9345e-11
7.01401e-11
7.06558e-11
7.09054e-11
6.10552e-11
6.63172e-11
7.4018e-11
8.40427e-11
9.6322e-11
1.10792e-10
1.27369e-10
1.45938e-10
1.6634e-10
1.88369e-10
2.11774e-10
2.36259e-10
2.61494e-10
2.87117e-10
3.1275e-10
3.38008e-10
3.62508e-10
3.8588e-10
4.0778e-10
4.27897e-10
4.45956e-10
4.61731e-10
4.75043e-10
4.85761e-10
4.93804e-10
4.99141e-10
5.01784e-10
2.92853e-10
3.20911e-10
3.62417e-10
4.17199e-10
4.85391e-10
5.6719e-10
6.627e-10
7.71818e-10
8.94148e-10
1.02895e-09
1.17509e-09
1.33106e-09
1.49496e-09
1.66457e-09
1.83739e-09
2.0107e-09
2.18168e-09
2.34744e-09
2.50519e-09
2.65225e-09
2.78616e-09
2.90472e-09
3.00608e-09
3.08872e-09
3.1515e-09
3.19364e-09
3.21474e-09
1.35825e-09
1.49135e-09
1.68924e-09
1.95208e-09
2.28163e-09
2.67997e-09
3.14871e-09
3.68835e-09
4.2978e-09
4.97401e-09
5.71179e-09
6.50372e-09
7.34022e-09
8.2098e-09
9.09935e-09
9.99455e-09
1.08804e-08
1.17415e-08
1.25629e-08
1.33303e-08
1.40305e-08
1.46516e-08
1.51836e-08
1.5618e-08
1.59487e-08
1.61711e-08
1.62826e-08
5.83896e-09
6.36923e-09
7.15556e-09
8.1964e-09
9.49587e-09
1.10589e-08
1.28882e-08
1.49816e-08
1.73306e-08
1.99192e-08
2.27235e-08
2.57117e-08
2.88448e-08
3.20776e-08
3.53603e-08
3.864e-08
4.18626e-08
4.49742e-08
4.79232e-08
5.06613e-08
5.31452e-08
5.53367e-08
5.72044e-08
5.87228e-08
5.98737e-08
6.06448e-08
6.10303e-08
2.18195e-08
2.34972e-08
2.59632e-08
2.91907e-08
3.31675e-08
3.78823e-08
4.3316e-08
4.94364e-08
5.61942e-08
6.35221e-08
7.13347e-08
7.95301e-08
8.79928e-08
9.65972e-08
1.05212e-07
1.13703e-07
1.2194e-07
1.29799e-07
1.37162e-07
1.43927e-07
1.50003e-07
1.55315e-07
1.59803e-07
1.63424e-07
1.66149e-07
1.67963e-07
1.68864e-07
6.71174e-08
7.12081e-08
7.71498e-08
8.48092e-08
9.4083e-08
1.04869e-07
1.17053e-07
1.30495e-07
1.45033e-07
1.60477e-07
1.76614e-07
1.93213e-07
2.10035e-07
2.26832e-07
2.43364e-07
2.59398e-07
2.74716e-07
2.89122e-07
3.02442e-07
3.14527e-07
3.25257e-07
3.34539e-07
3.42304e-07
3.48511e-07
3.53143e-07
3.56203e-07
3.57713e-07
1.66861e-07
1.74578e-07
1.85651e-07
1.99704e-07
2.16414e-07
2.3547e-07
2.56552e-07
2.79324e-07
3.03432e-07
3.28509e-07
3.54178e-07
3.80062e-07
4.05796e-07
4.3103e-07
4.5544e-07
4.7873e-07
5.00643e-07
5.20957e-07
5.39489e-07
5.56096e-07
5.70671e-07
5.83144e-07
5.93478e-07
6.01664e-07
6.07721e-07
6.11692e-07
6.13638e-07
3.40032e-07
3.51629e-07
3.68088e-07
3.88685e-07
4.12781e-07
4.39776e-07
4.69089e-07
5.0015e-07
5.32407e-07
5.65327e-07
5.98403e-07
6.31161e-07
6.63171e-07
6.94045e-07
7.23447e-07
7.51092e-07
7.76743e-07
8.00217e-07
8.21375e-07
8.40124e-07
8.56408e-07
8.70211e-07
8.81544e-07
8.9045e-07
8.9699e-07
9.01248e-07
9.03321e-07
5.85733e-07
6.00195e-07
6.20536e-07
6.45697e-07
6.7474e-07
7.068e-07
7.41076e-07
7.76823e-07
8.13357e-07
8.50055e-07
8.86359e-07
9.21781e-07
9.55898e-07
9.88356e-07
1.01887e-06
1.0472e-06
1.0732e-06
1.09673e-06
1.11772e-06
1.13616e-06
1.15203e-06
1.16537e-06
1.17625e-06
1.18473e-06
1.19093e-06
1.19494e-06
1.19688e-06
8.82879e-07
8.98483e-07
9.20276e-07
9.46992e-07
9.77508e-07
1.01081e-06
1.04598e-06
1.08222e-06
1.11878e-06
1.15506e-06
1.19052e-06
1.22472e-06
1.25728e-06
1.28793e-06
1.31645e-06
1.34268e-06
1.36653e-06
1.38793e-06
1.40688e-06
1.42339e-06
1.43751e-06
1.4493e-06
1.45886e-06
1.46627e-06
1.47166e-06
1.47512e-06
1.4768e-06
1.20167e-06
1.2168e-06
1.23781e-06
1.2634e-06
1.2924e-06
1.32377e-06
1.35662e-06
1.39014e-06
1.42365e-06
1.4566e-06
1.48851e-06
1.51901e-06
1.54781e-06
1.57471e-06
1.59953e-06
1.62221e-06
1.64267e-06
1.66093e-06
1.67699e-06
1.6909e-06
1.70274e-06
1.71258e-06
1.72051e-06
1.72664e-06
1.73107e-06
1.73392e-06
1.73528e-06
1.51569e-06
1.52927e-06
1.54807e-06
1.57086e-06
1.59654e-06
1.62415e-06
1.65287e-06
1.68198e-06
1.7109e-06
1.73912e-06
1.76629e-06
1.79208e-06
1.81629e-06
1.83875e-06
1.85938e-06
1.87811e-06
1.89492e-06
1.90985e-06
1.92292e-06
1.93419e-06
1.94374e-06
1.95164e-06
1.95799e-06
1.96288e-06
1.9664e-06
1.96866e-06
1.96974e-06
1.80763e-06
1.81921e-06
1.83521e-06
1.85452e-06
1.87621e-06
1.89943e-06
1.92346e-06
1.9477e-06
1.97167e-06
1.99495e-06
2.01724e-06
2.03831e-06
2.05799e-06
2.07616e-06
2.09278e-06
2.1078e-06
2.12124e-06
2.13311e-06
2.14347e-06
2.15237e-06
2.15988e-06
2.16607e-06
2.17103e-06
2.17484e-06
2.17757e-06
2.17932e-06
2.18015e-06
2.06935e-06
2.07891e-06
2.09208e-06
2.10795e-06
2.12572e-06
2.14468e-06
2.16425e-06
2.18391e-06
2.20328e-06
2.22202e-06
2.2399e-06
2.25674e-06
2.27241e-06
2.28682e-06
2.29995e-06
2.31178e-06
2.32232e-06
2.3316e-06
2.33967e-06
2.34657e-06
2.35238e-06
2.35716e-06
2.36097e-06
2.36388e-06
2.36597e-06
2.36729e-06
2.36792e-06
2.29923e-06
2.30697e-06
2.31762e-06
2.33042e-06
2.34472e-06
2.35995e-06
2.37563e-06
2.39134e-06
2.40676e-06
2.42165e-06
2.4358e-06
2.44909e-06
2.46141e-06
2.47271e-06
2.48297e-06
2.49218e-06
2.50035e-06
2.50752e-06
2.51373e-06
2.51903e-06
2.52347e-06
2.5271e-06
2.52999e-06
2.53219e-06
2.53376e-06
2.53476e-06
2.53523e-06
2.49936e-06
2.50556e-06
2.51409e-06
2.52433e-06
2.53575e-06
2.54788e-06
2.56034e-06
2.5728e-06
2.585e-06
2.59674e-06
2.60788e-06
2.61829e-06
2.62792e-06
2.63672e-06
2.64468e-06
2.6518e-06
2.6581e-06
2.66359e-06
2.66834e-06
2.67237e-06
2.67572e-06
2.67846e-06
2.68063e-06
2.68227e-06
2.68344e-06
2.68417e-06
2.68452e-06
2.67342e-06
2.67838e-06
2.68519e-06
2.69335e-06
2.70245e-06
2.71209e-06
2.72197e-06
2.73183e-06
2.74147e-06
2.75071e-06
2.75945e-06
2.7676e-06
2.7751e-06
2.78193e-06
2.78809e-06
2.79357e-06
2.79839e-06
2.80258e-06
2.80618e-06
2.80922e-06
2.81174e-06
2.81378e-06
2.81538e-06
2.81659e-06
2.81745e-06
2.81798e-06
2.81823e-06
2.82543e-06
2.8294e-06
2.83485e-06
2.84137e-06
2.84862e-06
2.8563e-06
2.86415e-06
2.87196e-06
2.87957e-06
2.88685e-06
2.89371e-06
2.90008e-06
2.90592e-06
2.91121e-06
2.91596e-06
2.92016e-06
2.92383e-06
2.92701e-06
2.92972e-06
2.93198e-06
2.93385e-06
2.93535e-06
2.93653e-06
2.9374e-06
2.93801e-06
2.93839e-06
2.93857e-06
2.95913e-06
2.96231e-06
2.96669e-06
2.97192e-06
2.97772e-06
2.98385e-06
2.9901e-06
2.99631e-06
3.00233e-06
3.00807e-06
3.01346e-06
3.01843e-06
3.02297e-06
3.02706e-06
3.03071e-06
3.03391e-06
3.03669e-06
3.03907e-06
3.04108e-06
3.04275e-06
3.04411e-06
3.04519e-06
3.04603e-06
3.04664e-06
3.04706e-06
3.04732e-06
3.04744e-06
3.07769e-06
3.08027e-06
3.08379e-06
3.088e-06
3.09267e-06
3.09758e-06
3.10257e-06
3.10751e-06
3.11228e-06
3.11681e-06
3.12103e-06
3.12491e-06
3.12843e-06
3.13157e-06
3.13435e-06
3.13676e-06
3.13884e-06
3.1406e-06
3.14206e-06
3.14326e-06
3.14422e-06
3.14497e-06
3.14554e-06
3.14595e-06
3.14622e-06
3.14639e-06
3.14646e-06
3.18375e-06
3.18583e-06
3.18869e-06
3.19209e-06
3.19584e-06
3.19978e-06
3.20377e-06
3.2077e-06
3.21148e-06
3.21504e-06
3.21834e-06
3.22135e-06
3.22405e-06
3.22644e-06
3.22852e-06
3.23031e-06
3.23182e-06
3.23308e-06
3.23412e-06
3.23494e-06
3.23558e-06
3.23607e-06
3.23643e-06
3.23667e-06
3.23683e-06
3.23692e-06
3.23696e-06
3.27937e-06
3.28106e-06
3.28337e-06
3.28612e-06
3.28914e-06
3.2923e-06
3.29549e-06
3.29861e-06
3.30158e-06
3.30436e-06
3.30691e-06
3.30922e-06
3.31125e-06
3.31303e-06
3.31456e-06
3.31584e-06
3.3169e-06
3.31776e-06
3.31844e-06
3.31896e-06
3.31934e-06
3.31962e-06
3.3198e-06
3.31992e-06
3.31998e-06
3.32001e-06
3.32002e-06
3.3662e-06
3.36757e-06
3.36944e-06
3.37165e-06
3.37408e-06
3.3766e-06
3.37912e-06
3.38157e-06
3.38389e-06
3.38603e-06
3.38797e-06
3.38969e-06
3.39118e-06
3.39246e-06
3.39352e-06
3.39438e-06
3.39507e-06
3.3956e-06
3.39598e-06
3.39625e-06
3.39643e-06
3.39653e-06
3.39657e-06
3.39658e-06
3.39656e-06
3.39654e-06
3.39652e-06
3.44552e-06
3.44662e-06
3.44812e-06
3.44989e-06
3.45182e-06
3.4538e-06
3.45577e-06
3.45767e-06
3.45943e-06
3.46104e-06
3.46246e-06
3.46369e-06
3.46473e-06
3.46559e-06
3.46626e-06
3.46678e-06
3.46715e-06
3.4674e-06
3.46754e-06
3.4676e-06
3.46759e-06
3.46755e-06
3.46747e-06
3.46739e-06
3.4673e-06
3.46724e-06
3.4672e-06
3.51833e-06
3.51921e-06
3.5204e-06
3.52179e-06
3.52329e-06
3.52482e-06
3.52632e-06
3.52774e-06
3.52903e-06
3.53018e-06
3.53117e-06
3.53198e-06
3.53264e-06
3.53313e-06
3.53347e-06
3.53369e-06
3.53379e-06
3.5338e-06
3.53373e-06
3.53361e-06
3.53345e-06
3.53328e-06
3.5331e-06
3.53293e-06
3.5328e-06
3.5327e-06
3.53264e-06
3.58542e-06
3.58611e-06
3.58702e-06
3.58809e-06
3.58922e-06
3.59036e-06
3.59145e-06
3.59246e-06
3.59335e-06
3.5941e-06
3.5947e-06
3.59515e-06
3.59547e-06
3.59564e-06
3.5957e-06
3.59565e-06
3.59552e-06
3.59532e-06
3.59507e-06
3.59479e-06
3.5945e-06
3.59421e-06
3.59394e-06
3.59371e-06
3.59352e-06
3.59339e-06
3.59332e-06
3.64741e-06
3.64792e-06
3.6486e-06
3.64937e-06
3.65019e-06
3.65098e-06
3.65171e-06
3.65235e-06
3.65288e-06
3.65328e-06
3.65354e-06
3.65368e-06
3.65369e-06
3.65359e-06
3.65339e-06
3.6531e-06
3.65276e-06
3.65237e-06
3.65196e-06
3.65154e-06
3.65113e-06
3.65074e-06
3.6504e-06
3.6501e-06
3.64987e-06
3.64971e-06
3.64963e-06
3.70478e-06
3.70513e-06
3.7056e-06
3.70612e-06
3.70664e-06
3.70712e-06
3.70753e-06
3.70784e-06
3.70804e-06
3.70812e-06
3.70809e-06
3.70793e-06
3.70767e-06
3.70731e-06
3.70688e-06
3.70639e-06
3.70586e-06
3.7053e-06
3.70474e-06
3.70419e-06
3.70367e-06
3.7032e-06
3.70278e-06
3.70243e-06
3.70216e-06
3.70197e-06
3.70188e-06
3.7579e-06
3.75812e-06
3.75839e-06
3.75867e-06
3.75892e-06
3.75912e-06
3.75924e-06
3.75925e-06
3.75915e-06
3.75895e-06
3.75863e-06
3.75821e-06
3.75769e-06
3.75711e-06
3.75646e-06
3.75577e-06
3.75507e-06
3.75435e-06
3.75366e-06
3.75299e-06
3.75237e-06
3.75182e-06
3.75133e-06
3.75093e-06
3.75062e-06
3.75041e-06
3.75031e-06
3.80707e-06
3.80715e-06
3.80724e-06
3.80731e-06
3.80732e-06
3.80725e-06
3.80709e-06
3.80682e-06
3.80645e-06
3.80597e-06
3.80539e-06
3.80472e-06
3.80398e-06
3.80317e-06
3.80233e-06
3.80146e-06
3.80059e-06
3.79973e-06
3.79891e-06
3.79813e-06
3.79742e-06
3.79678e-06
3.79624e-06
3.79579e-06
3.79544e-06
3.79521e-06
3.79509e-06
3.85249e-06
3.85245e-06
3.85237e-06
3.85223e-06
3.852e-06
3.85169e-06
3.85127e-06
3.85074e-06
3.8501e-06
3.84937e-06
3.84854e-06
3.84764e-06
3.84667e-06
3.84566e-06
3.84462e-06
3.84358e-06
3.84255e-06
3.84156e-06
3.84061e-06
3.83973e-06
3.83893e-06
3.83822e-06
3.83761e-06
3.83711e-06
3.83674e-06
3.83648e-06
3.83636e-06
3.8943e-06
3.89414e-06
3.8939e-06
3.89356e-06
3.89311e-06
3.89256e-06
3.89188e-06
3.8911e-06
3.89021e-06
3.88923e-06
3.88816e-06
3.88703e-06
3.88585e-06
3.88464e-06
3.88342e-06
3.88221e-06
3.88103e-06
3.8799e-06
3.87883e-06
3.87785e-06
3.87696e-06
3.87617e-06
3.87551e-06
3.87497e-06
3.87456e-06
3.87429e-06
3.87415e-06
3.93256e-06
3.93229e-06
3.93189e-06
3.93136e-06
3.93069e-06
3.9299e-06
3.92898e-06
3.92795e-06
3.92682e-06
3.92559e-06
3.92429e-06
3.92293e-06
3.92153e-06
3.92012e-06
3.91872e-06
3.91734e-06
3.91601e-06
3.91475e-06
3.91356e-06
3.91248e-06
3.9115e-06
3.91065e-06
3.90992e-06
3.90934e-06
3.9089e-06
3.9086e-06
3.90845e-06
3.96728e-06
3.9669e-06
3.96634e-06
3.96561e-06
3.96473e-06
3.9637e-06
3.96254e-06
3.96126e-06
3.95987e-06
3.9584e-06
3.95686e-06
3.95527e-06
3.95366e-06
3.95205e-06
3.95047e-06
3.94892e-06
3.94744e-06
3.94603e-06
3.94473e-06
3.94354e-06
3.94247e-06
3.94155e-06
3.94076e-06
3.94013e-06
3.93966e-06
3.93934e-06
3.93918e-06
3.99838e-06
3.99788e-06
3.99715e-06
3.99623e-06
3.99512e-06
3.99385e-06
3.99244e-06
3.9909e-06
3.98926e-06
3.98753e-06
3.98575e-06
3.98393e-06
3.9821e-06
3.98028e-06
3.9785e-06
3.97678e-06
3.97514e-06
3.9736e-06
3.97217e-06
3.97087e-06
3.96971e-06
3.96871e-06
3.96786e-06
3.96718e-06
3.96667e-06
3.96634e-06
3.96617e-06
4.02568e-06
4.02506e-06
4.02417e-06
4.02303e-06
4.0217e-06
4.02017e-06
4.0185e-06
4.01669e-06
4.01477e-06
4.01278e-06
4.01074e-06
4.00867e-06
4.00661e-06
4.00458e-06
4.0026e-06
4.00069e-06
3.99888e-06
3.99719e-06
3.99562e-06
3.99421e-06
3.99295e-06
3.99187e-06
3.99096e-06
3.99023e-06
3.98968e-06
3.98932e-06
3.98914e-06
4.04893e-06
4.04818e-06
4.0471e-06
4.04575e-06
4.04416e-06
4.04237e-06
4.04041e-06
4.03831e-06
4.03611e-06
4.03383e-06
4.03151e-06
4.02918e-06
4.02686e-06
4.02459e-06
4.02239e-06
4.02028e-06
4.01829e-06
4.01644e-06
4.01473e-06
4.01319e-06
4.01183e-06
4.01065e-06
4.00967e-06
4.00888e-06
4.00829e-06
4.0079e-06
4.00771e-06
4.06775e-06
4.06685e-06
4.06558e-06
4.06399e-06
4.06213e-06
4.06004e-06
4.05777e-06
4.05535e-06
4.05283e-06
4.05024e-06
4.04762e-06
4.04499e-06
4.0424e-06
4.03986e-06
4.03742e-06
4.03509e-06
4.0329e-06
4.03086e-06
4.02899e-06
4.02731e-06
4.02583e-06
4.02455e-06
4.02349e-06
4.02264e-06
4.02201e-06
4.02159e-06
4.02138e-06
4.08163e-06
4.08058e-06
4.07908e-06
4.07722e-06
4.07506e-06
4.07264e-06
4.07002e-06
4.06725e-06
4.06437e-06
4.06143e-06
4.05846e-06
4.05551e-06
4.0526e-06
4.04978e-06
4.04706e-06
4.04448e-06
4.04205e-06
4.03981e-06
4.03776e-06
4.03592e-06
4.03431e-06
4.03292e-06
4.03176e-06
4.03084e-06
4.03016e-06
4.02971e-06
4.02948e-06
4.08992e-06
4.08869e-06
4.08694e-06
4.08478e-06
4.08227e-06
4.07948e-06
4.07647e-06
4.07329e-06
4.07001e-06
4.06667e-06
4.06331e-06
4.05998e-06
4.05671e-06
4.05355e-06
4.05052e-06
4.04765e-06
4.04496e-06
4.04249e-06
4.04023e-06
4.03821e-06
4.03643e-06
4.03492e-06
4.03365e-06
4.03265e-06
4.03191e-06
4.03142e-06
4.03118e-06
4.09179e-06
4.09035e-06
4.08832e-06
4.08581e-06
4.0829e-06
4.07968e-06
4.07621e-06
4.07258e-06
4.06882e-06
4.06502e-06
4.06121e-06
4.05744e-06
4.05376e-06
4.05021e-06
4.04682e-06
4.04361e-06
4.04062e-06
4.03787e-06
4.03537e-06
4.03314e-06
4.03119e-06
4.02951e-06
4.02813e-06
4.02703e-06
4.02622e-06
4.02568e-06
4.02542e-06
4.0862e-06
4.08452e-06
4.08216e-06
4.07924e-06
4.07588e-06
4.07215e-06
4.06816e-06
4.06399e-06
4.05969e-06
4.05535e-06
4.05101e-06
4.04674e-06
4.04258e-06
4.03857e-06
4.03475e-06
4.03116e-06
4.02781e-06
4.02474e-06
4.02195e-06
4.01947e-06
4.01731e-06
4.01546e-06
4.01393e-06
4.01272e-06
4.01182e-06
4.01123e-06
4.01095e-06
4.0719e-06
4.06994e-06
4.06719e-06
4.06381e-06
4.0599e-06
4.05559e-06
4.05099e-06
4.04618e-06
4.04125e-06
4.03627e-06
4.03132e-06
4.02645e-06
4.02172e-06
4.01718e-06
4.01286e-06
4.00881e-06
4.00505e-06
4.0016e-06
3.99848e-06
3.99571e-06
3.99329e-06
3.99123e-06
3.98953e-06
3.98819e-06
3.98719e-06
3.98655e-06
3.98623e-06
4.04738e-06
4.0451e-06
4.0419e-06
4.03796e-06
4.03342e-06
4.02843e-06
4.0231e-06
4.01755e-06
4.01187e-06
4.00615e-06
4.00048e-06
3.99491e-06
3.98952e-06
3.98435e-06
3.97945e-06
3.97485e-06
3.9706e-06
3.9667e-06
3.96319e-06
3.96007e-06
3.95736e-06
3.95505e-06
3.95315e-06
3.95165e-06
3.95055e-06
3.94982e-06
3.94947e-06
4.01089e-06
4.00822e-06
4.00449e-06
3.9999e-06
3.99462e-06
3.98883e-06
3.98265e-06
3.97623e-06
3.96967e-06
3.96309e-06
3.95656e-06
3.95018e-06
3.944e-06
3.93809e-06
3.9325e-06
3.92727e-06
3.92244e-06
3.91802e-06
3.91405e-06
3.91053e-06
3.90747e-06
3.90487e-06
3.90273e-06
3.90105e-06
3.89981e-06
3.899e-06
3.8986e-06
3.96037e-06
3.95726e-06
3.95291e-06
3.94756e-06
3.94142e-06
3.93468e-06
3.92751e-06
3.92007e-06
3.91249e-06
3.90489e-06
3.89737e-06
3.89003e-06
3.88294e-06
3.87617e-06
3.86978e-06
3.86381e-06
3.8583e-06
3.85327e-06
3.84876e-06
3.84476e-06
3.8413e-06
3.83836e-06
3.83594e-06
3.83405e-06
3.83265e-06
3.83174e-06
3.83129e-06
3.89354e-06
3.88991e-06
3.88484e-06
3.8786e-06
3.87146e-06
3.86363e-06
3.85532e-06
3.8467e-06
3.83793e-06
3.82914e-06
3.82047e-06
3.81202e-06
3.80387e-06
3.7961e-06
3.78878e-06
3.78195e-06
3.77565e-06
3.76992e-06
3.76478e-06
3.76024e-06
3.7563e-06
3.75297e-06
3.75023e-06
3.74809e-06
3.74651e-06
3.74548e-06
3.74498e-06
3.80788e-06
3.80366e-06
3.79775e-06
3.7905e-06
3.78221e-06
3.77312e-06
3.76349e-06
3.75351e-06
3.74338e-06
3.73325e-06
3.72325e-06
3.71353e-06
3.70416e-06
3.69525e-06
3.68685e-06
3.67904e-06
3.67185e-06
3.66531e-06
3.65945e-06
3.65428e-06
3.6498e-06
3.64602e-06
3.64292e-06
3.64048e-06
3.63869e-06
3.63753e-06
3.63696e-06
3.70077e-06
3.69587e-06
3.68902e-06
3.68062e-06
3.67101e-06
3.66051e-06
3.64938e-06
3.63787e-06
3.62619e-06
3.61452e-06
3.60304e-06
3.59187e-06
3.58113e-06
3.57093e-06
3.56133e-06
3.5524e-06
3.5442e-06
3.53675e-06
3.53008e-06
3.5242e-06
3.51912e-06
3.51483e-06
3.51131e-06
3.50855e-06
3.50653e-06
3.50522e-06
3.50458e-06
3.56958e-06
3.56392e-06
3.55602e-06
3.54634e-06
3.53527e-06
3.52318e-06
3.51039e-06
3.49718e-06
3.48378e-06
3.47042e-06
3.45728e-06
3.44452e-06
3.43226e-06
3.42063e-06
3.4097e-06
3.39954e-06
3.39022e-06
3.38177e-06
3.3742e-06
3.36754e-06
3.36179e-06
3.35694e-06
3.35297e-06
3.34985e-06
3.34757e-06
3.34609e-06
3.34537e-06
3.41194e-06
3.40545e-06
3.3964e-06
3.38532e-06
3.37267e-06
3.35886e-06
3.34427e-06
3.3292e-06
3.31395e-06
3.29875e-06
3.28382e-06
3.26934e-06
3.25545e-06
3.24227e-06
3.22991e-06
3.21843e-06
3.20791e-06
3.19837e-06
3.18985e-06
3.18236e-06
3.17589e-06
3.17043e-06
3.16597e-06
3.16248e-06
3.15992e-06
3.15826e-06
3.15746e-06
3.22599e-06
3.21863e-06
3.20837e-06
3.19581e-06
3.18149e-06
3.16587e-06
3.14937e-06
3.13236e-06
3.11516e-06
3.09805e-06
3.08125e-06
3.06497e-06
3.04937e-06
3.0346e-06
3.02074e-06
3.0079e-06
2.99614e-06
2.98548e-06
2.97597e-06
2.96761e-06
2.9604e-06
2.95432e-06
2.94936e-06
2.94548e-06
2.94263e-06
2.94079e-06
2.93989e-06
3.01082e-06
3.00257e-06
2.99108e-06
2.97702e-06
2.96101e-06
2.94356e-06
2.92515e-06
2.90619e-06
2.88704e-06
2.868e-06
2.84934e-06
2.83128e-06
2.81399e-06
2.79762e-06
2.7823e-06
2.76811e-06
2.75511e-06
2.74336e-06
2.73287e-06
2.72366e-06
2.71573e-06
2.70904e-06
2.70359e-06
2.69932e-06
2.6962e-06
2.69418e-06
2.69319e-06
2.76688e-06
2.75778e-06
2.74511e-06
2.72962e-06
2.71199e-06
2.69281e-06
2.67259e-06
2.65178e-06
2.6308e-06
2.60996e-06
2.58955e-06
2.56982e-06
2.55097e-06
2.53313e-06
2.51645e-06
2.50102e-06
2.4869e-06
2.47415e-06
2.46277e-06
2.45279e-06
2.4442e-06
2.43697e-06
2.43106e-06
2.42645e-06
2.42308e-06
2.4209e-06
2.41983e-06
2.49651e-06
2.48666e-06
2.47295e-06
2.45621e-06
2.43717e-06
2.41647e-06
2.39469e-06
2.3723e-06
2.34975e-06
2.32738e-06
2.30552e-06
2.28439e-06
2.26423e-06
2.24519e-06
2.22739e-06
2.21095e-06
2.19592e-06
2.18235e-06
2.17026e-06
2.15966e-06
2.15054e-06
2.14287e-06
2.13662e-06
2.13173e-06
2.12816e-06
2.12585e-06
2.12473e-06
2.20435e-06
2.19392e-06
2.17942e-06
2.16173e-06
2.14164e-06
2.11983e-06
2.0969e-06
2.07337e-06
2.0497e-06
2.02627e-06
2.00338e-06
1.98131e-06
1.96027e-06
1.94042e-06
1.9219e-06
1.9048e-06
1.88919e-06
1.87511e-06
1.86258e-06
1.85161e-06
1.84216e-06
1.83423e-06
1.82777e-06
1.82272e-06
1.81904e-06
1.81665e-06
1.81549e-06
1.89758e-06
1.88684e-06
1.87191e-06
1.85373e-06
1.8331e-06
1.81074e-06
1.78727e-06
1.76323e-06
1.73908e-06
1.71521e-06
1.69195e-06
1.66954e-06
1.64821e-06
1.62813e-06
1.60941e-06
1.59215e-06
1.57641e-06
1.56223e-06
1.54962e-06
1.53859e-06
1.52911e-06
1.52115e-06
1.51467e-06
1.50961e-06
1.50592e-06
1.50353e-06
1.50237e-06
1.58585e-06
1.57513e-06
1.56026e-06
1.54215e-06
1.52165e-06
1.49946e-06
1.47621e-06
1.45244e-06
1.42862e-06
1.40511e-06
1.38224e-06
1.36026e-06
1.33937e-06
1.31974e-06
1.30146e-06
1.28464e-06
1.26932e-06
1.25553e-06
1.2433e-06
1.23259e-06
1.22341e-06
1.2157e-06
1.20943e-06
1.20454e-06
1.20097e-06
1.19866e-06
1.19754e-06
1.28066e-06
1.27035e-06
1.25605e-06
1.23868e-06
1.21904e-06
1.19783e-06
1.17566e-06
1.15305e-06
1.13043e-06
1.10816e-06
1.08654e-06
1.06581e-06
1.04615e-06
1.02771e-06
1.01058e-06
9.94832e-07
9.8052e-07
9.67663e-07
9.56263e-07
9.46307e-07
9.37771e-07
9.30617e-07
9.24801e-07
9.20271e-07
9.16969e-07
9.14834e-07
9.138e-07
9.9406e-07
9.84552e-07
9.71387e-07
9.55422e-07
9.37408e-07
9.18e-07
8.97762e-07
8.77174e-07
8.56636e-07
8.36474e-07
8.16953e-07
7.98282e-07
7.80621e-07
7.64089e-07
7.48772e-07
7.34725e-07
7.21982e-07
7.10555e-07
7.00441e-07
6.91622e-07
6.84071e-07
6.77751e-07
6.72619e-07
6.68625e-07
6.65717e-07
6.63838e-07
6.62929e-07
7.37388e-07
7.29034e-07
7.17486e-07
7.03511e-07
6.87781e-07
6.7088e-07
6.53306e-07
6.3548e-07
6.17748e-07
6.00391e-07
5.83651e-07
5.67699e-07
5.5266e-07
5.38628e-07
5.25665e-07
5.13811e-07
5.03085e-07
4.9349e-07
4.85016e-07
4.77643e-07
4.71341e-07
4.66076e-07
4.61807e-07
4.5849e-07
4.56077e-07
4.5452e-07
4.53767e-07
5.19351e-07
5.12412e-07
5.0284e-07
4.91287e-07
4.78322e-07
4.6444e-07
4.50062e-07
4.35536e-07
4.21149e-07
4.07127e-07
3.93649e-07
3.80849e-07
3.68824e-07
3.57642e-07
3.47348e-07
3.37963e-07
3.29498e-07
3.21946e-07
3.15294e-07
3.0952e-07
3.04597e-07
3.00491e-07
2.97169e-07
2.94592e-07
2.9272e-07
2.91513e-07
2.9093e-07
3.45332e-07
3.39923e-07
3.32478e-07
3.23519e-07
3.13502e-07
3.0282e-07
2.91803e-07
2.80723e-07
2.69801e-07
2.59206e-07
2.4907e-07
2.39488e-07
2.30526e-07
2.2223e-07
2.14624e-07
2.07718e-07