/*--------------------------------*- C++ -*----------------------------------*\
| =========                 |                                                 |
| \\      /  F ield         | OpenFOAM: The Open Source CFD Toolbox           |
|  \\    /   O peration     | Version:  2106                                  |
|   \\  /    A nd           | Website:  www.openfoam.com                      |
|    \\/     M anipulation  |                                                 |
\*---------------------------------------------------------------------------*/
FoamFile
{
    version     2.0;
    format      ascii;
    arch        "LSB;label=32;scalar=64";
    class       volScalarField;
    location    "80.00032";
    object      CH3;
}
// * * * * * * * * * * * * * * * * * * * * * * * * * * * * * * * * * * * * * //

dimensions      [0 0 0 0 0 0 0];

internalField   nonuniform List<scalar> 
3360
(
4.16387e-21
4.29773e-21
4.484e-21
4.71184e-21
4.97176e-21
5.25523e-21
5.55452e-21
5.86272e-21
6.17361e-21
6.48174e-21
6.78237e-21
7.07149e-21
7.34576e-21
7.60255e-21
7.83986e-21
8.05626e-21
8.25091e-21
8.42343e-21
8.57389e-21
8.70274e-21
8.81076e-21
8.89898e-21
8.96867e-21
9.02123e-21
9.05821e-21
9.08122e-21
9.09189e-21
1.82528e-20
1.8923e-20
1.98687e-20
2.10465e-20
2.24202e-20
2.39584e-20
2.56329e-20
2.7418e-20
2.92899e-20
3.12258e-20
3.32041e-20
3.52036e-20
3.72035e-20
3.91832e-20
4.11225e-20
4.30015e-20
4.48008e-20
4.65014e-20
4.80853e-20
4.95355e-20
5.08364e-20
5.19743e-20
5.29374e-20
5.37163e-20
5.43042e-20
5.46967e-20
5.48925e-20
5.72075e-20
5.97155e-20
6.32792e-20
6.7757e-20
7.30318e-20
7.89979e-20
8.55551e-20
9.26046e-20
1.00046e-19
1.07779e-19
1.15697e-19
1.23697e-19
1.31678e-19
1.39536e-19
1.47176e-19
1.54503e-19
1.61432e-19
1.67885e-19
1.73796e-19
1.79109e-19
1.83781e-19
1.87781e-19
1.91093e-19
1.93711e-19
1.95641e-19
1.96899e-19
1.97512e-19
1.66355e-19
1.74608e-19
1.86414e-19
2.0135e-19
2.19064e-19
2.39223e-19
2.61498e-19
2.85545e-19
3.11004e-19
3.375e-19
3.64639e-19
3.92027e-19
4.19269e-19
4.4598e-19
4.71797e-19
4.96386e-19
5.19449e-19
5.40735e-19
5.60041e-19
5.77216e-19
5.92159e-19
6.04818e-19
6.15185e-19
6.23294e-19
6.29211e-19
6.33032e-19
6.34875e-19
4.85174e-19
5.11165e-19
5.48415e-19
5.9565e-19
6.51788e-19
7.15793e-19
7.86595e-19
8.63064e-19
9.43995e-19
1.02812e-18
1.11412e-18
1.20067e-18
1.28648e-18
1.37031e-18
1.451e-18
1.52754e-18
1.59902e-18
1.66473e-18
1.7241e-18
1.77671e-18
1.82232e-18
1.86083e-18
1.89228e-18
1.91681e-18
1.93466e-18
1.94616e-18
1.95169e-18
1.42774e-18
1.5074e-18
1.62171e-18
1.76679e-18
1.93932e-18
2.13608e-18
2.35373e-18
2.58874e-18
2.83732e-18
3.09548e-18
3.35913e-18
3.62414e-18
3.88647e-18
4.14233e-18
4.3882e-18
4.62097e-18
4.83799e-18
5.0371e-18
5.21666e-18
5.37551e-18
5.51301e-18
5.62891e-18
5.72341e-18
5.79701e-18
5.8505e-18
5.88493e-18
5.90148e-18
4.23267e-18
4.47425e-18
4.82091e-18
5.26089e-18
5.78406e-18
6.38056e-18
7.04013e-18
7.75188e-18
8.50418e-18
9.28483e-18
1.00813e-17
1.08812e-17
1.16721e-17
1.24428e-17
1.31828e-17
1.38827e-17
1.45346e-17
1.51324e-17
1.56711e-17
1.61474e-17
1.65595e-17
1.69067e-17
1.71897e-17
1.741e-17
1.75702e-17
1.76732e-17
1.77227e-17
1.25887e-17
1.33141e-17
1.43556e-17
1.56779e-17
1.72506e-17
1.90441e-17
2.10273e-17
2.31672e-17
2.54288e-17
2.7775e-17
3.01681e-17
3.25703e-17
3.49452e-17
3.72581e-17
3.94777e-17
4.15763e-17
4.35305e-17
4.53212e-17
4.69343e-17
4.83599e-17
4.95927e-17
5.0631e-17
5.1477e-17
5.21353e-17
5.26136e-17
5.29212e-17
5.30691e-17
3.75388e-17
3.97145e-17
4.28374e-17
4.68019e-17
5.15165e-17
5.68918e-17
6.28345e-17
6.92449e-17
7.60173e-17
8.30409e-17
9.02023e-17
9.73886e-17
1.0449e-16
1.11405e-16
1.18038e-16
1.24308e-16
1.30145e-16
1.35493e-16
1.4031e-16
1.44566e-16
1.48246e-16
1.51346e-16
1.53871e-16
1.55836e-16
1.57264e-16
1.58182e-16
1.58624e-16
1.11935e-16
1.18437e-16
1.27772e-16
1.39624e-16
1.53718e-16
1.69787e-16
1.87551e-16
2.06712e-16
2.26953e-16
2.47941e-16
2.69338e-16
2.90805e-16
3.12016e-16
3.32663e-16
3.52467e-16
3.71181e-16
3.88599e-16
4.04554e-16
4.1892e-16
4.31612e-16
4.42583e-16
4.51821e-16
4.59345e-16
4.65199e-16
4.69451e-16
4.72185e-16
4.73499e-16
3.3391e-16
3.53333e-16
3.8121e-16
4.16595e-16
4.58668e-16
5.06625e-16
5.59626e-16
6.16778e-16
6.77132e-16
7.39696e-16
8.03456e-16
8.67406e-16
9.30571e-16
9.92039e-16
1.05098e-15
1.10666e-15
1.15847e-15
1.20592e-15
1.24864e-15
1.28637e-15
1.31898e-15
1.34644e-15
1.3688e-15
1.3862e-15
1.39883e-15
1.40696e-15
1.41086e-15
9.94997e-16
1.05285e-15
1.13589e-15
1.24127e-15
1.36655e-15
1.50932e-15
1.66706e-15
1.8371e-15
2.01661e-15
2.20263e-15
2.39214e-15
2.58214e-15
2.76974e-15
2.95223e-15
3.12715e-15
3.29235e-15
3.44601e-15
3.58667e-15
3.71326e-15
3.82504e-15
3.92163e-15
4.00292e-15
4.0691e-15
4.12057e-15
4.15795e-15
4.18198e-15
4.19352e-15
2.96127e-15
3.13329e-15
3.3801e-15
3.6932e-15
4.06524e-15
4.48898e-15
4.95689e-15
5.46099e-15
5.99282e-15
6.54359e-15
7.10433e-15
7.66617e-15
8.22056e-15
8.75953e-15
9.27584e-15
9.76318e-15
1.02162e-14
1.06308e-14
1.10037e-14
1.13328e-14
1.16171e-14
1.18563e-14
1.2051e-14
1.22024e-14
1.23123e-14
1.23829e-14
1.24168e-14
8.78613e-15
9.29522e-15
1.00254e-14
1.09513e-14
1.20509e-14
1.33024e-14
1.46834e-14
1.61701e-14
1.77373e-14
1.93589e-14
2.10084e-14
2.26597e-14
2.42877e-14
2.58691e-14
2.73826e-14
2.88101e-14
3.01361e-14
3.13484e-14
3.24382e-14
3.33994e-14
3.42291e-14
3.49268e-14
3.54942e-14
3.59353e-14
3.62553e-14
3.64609e-14
3.65596e-14
2.59706e-14
2.74688e-14
2.96164e-14
3.23374e-14
3.55658e-14
3.92366e-14
4.32825e-14
4.76326e-14
5.22124e-14
5.69451e-14
6.17528e-14
6.65594e-14
7.1292e-14
7.5883e-14
8.02718e-14
8.4406e-14
8.8242e-14
9.17456e-14
9.48919e-14
9.76645e-14
1.00056e-13
1.02065e-13
1.03698e-13
1.04967e-13
1.05886e-13
1.06477e-13
1.06761e-13
7.63131e-14
8.06805e-14
8.69357e-14
9.4853e-14
1.04235e-13
1.14887e-13
1.2661e-13
1.39194e-13
1.5242e-13
1.66064e-13
1.799e-13
1.93708e-13
2.0728e-13
2.20424e-13
2.32968e-13
2.44766e-13
2.55696e-13
2.65664e-13
2.74604e-13
2.82472e-13
2.89249e-13
2.94937e-13
2.99556e-13
3.0314e-13
3.05737e-13
3.07404e-13
3.08203e-13
2.22567e-13
2.35136e-13
2.53116e-13
2.7584e-13
3.0272e-13
3.33179e-13
3.66628e-13
4.02451e-13
4.40015e-13
4.78671e-13
5.17779e-13
5.56716e-13
5.94898e-13
6.31791e-13
6.66925e-13
6.99898e-13
7.30387e-13
7.58141e-13
7.82987e-13
8.04819e-13
8.23597e-13
8.39335e-13
8.52099e-13
8.61992e-13
8.69153e-13
8.73744e-13
8.75943e-13
6.42914e-13
6.78435e-13
7.29169e-13
7.93159e-13
8.6867e-13
9.54007e-13
1.04745e-12
1.14723e-12
1.25153e-12
1.35853e-12
1.46644e-12
1.57355e-12
1.67827e-12
1.77917e-12
1.87499e-12
1.96468e-12
2.04742e-12
2.12256e-12
2.18968e-12
2.24854e-12
2.29907e-12
2.34136e-12
2.3756e-12
2.40211e-12
2.42127e-12
2.43354e-12
2.43941e-12
1.83647e-12
1.93446e-12
2.07411e-12
2.24976e-12
2.45636e-12
2.68901e-12
2.94277e-12
3.21267e-12
3.49366e-12
3.78076e-12
4.06918e-12
4.35436e-12
4.63215e-12
4.89885e-12
5.15129e-12
5.38687e-12
5.60352e-12
5.79976e-12
5.97463e-12
6.12763e-12
6.25872e-12
6.3682e-12
6.45671e-12
6.52512e-12
6.57451e-12
6.6061e-12
6.62121e-12
5.1842e-12
5.44625e-12
5.81861e-12
6.28515e-12
6.83144e-12
7.44358e-12
8.10785e-12
8.81057e-12
9.53828e-12
1.02779e-11
1.10171e-11
1.17445e-11
1.24496e-11
1.31237e-11
1.37591e-11
1.43499e-11
1.48913e-11
1.53802e-11
1.58145e-11
1.61936e-11
1.65177e-11
1.67878e-11
1.70058e-11
1.71741e-11
1.72954e-11
1.73729e-11
1.74099e-11
1.44902e-11
1.51668e-11
1.61241e-11
1.73166e-11
1.87038e-11
2.02469e-11
2.19085e-11
2.36523e-11
2.54437e-11
2.72499e-11
2.90411e-11
3.07902e-11
3.24739e-11
3.40725e-11
3.55699e-11
3.6954e-11
3.82158e-11
3.93497e-11
4.03531e-11
4.12255e-11
4.1969e-11
4.2587e-11
4.30847e-11
4.34681e-11
4.37442e-11
4.39204e-11
4.40045e-11
4.02794e-11
4.19785e-11
4.43668e-11
4.73172e-11
5.07143e-11
5.44498e-11
5.84213e-11
6.2533e-11
6.66961e-11
7.08307e-11
7.48667e-11
7.87441e-11
8.2414e-11
8.58387e-11
8.89909e-11
9.18535e-11
9.44183e-11
9.66844e-11
9.86573e-11
1.00347e-10
1.01767e-10
1.02933e-10
1.03862e-10
1.0457e-10
1.05077e-10
1.05397e-10
1.05549e-10
1.11599e-10
1.15901e-10
1.21903e-10
1.29241e-10
1.37582e-10
1.46612e-10
1.56044e-10
1.65614e-10
1.75093e-10
1.8428e-10
1.93004e-10
2.0112e-10
2.08502e-10
2.15051e-10
2.20707e-10
2.25453e-10
2.29313e-10
2.32352e-10
2.34664e-10
2.36365e-10
2.3759e-10
2.38479e-10
2.39173e-10
2.39792e-10
2.40287e-10
2.40628e-10
2.40799e-10
3.03603e-10
3.15249e-10
3.31533e-10
3.51445e-10
3.73973e-10
3.98166e-10
4.23202e-10
4.48463e-10
4.73636e-10
4.98811e-10
5.24583e-10
5.52146e-10
5.81239e-10
6.1089e-10
6.40333e-10
6.6895e-10
6.96232e-10
7.21764e-10
7.45209e-10
7.66305e-10
7.84858e-10
8.00738e-10
8.13872e-10
8.24243e-10
8.31881e-10
8.36856e-10
8.39276e-10
7.80508e-10
8.15102e-10
8.67784e-10
9.40389e-10
1.03003e-09
1.13489e-09
1.25353e-09
1.38459e-09
1.52664e-09
1.67808e-09
1.83709e-09
2.0016e-09
2.16934e-09
2.33791e-09
2.50487e-09
2.66782e-09
2.82444e-09
2.97259e-09
3.11034e-09
3.23598e-09
3.34805e-09
3.44541e-09
3.52716e-09
3.59272e-09
3.64177e-09
3.67423e-09
3.69028e-09
2.54411e-09
2.70668e-09
2.94345e-09
3.24965e-09
3.62153e-09
4.05547e-09
4.54736e-09
5.09214e-09
5.68352e-09
6.3138e-09
6.97388e-09
7.65346e-09
8.3413e-09
9.02578e-09
9.69536e-09
1.03392e-08
1.09476e-08
1.15124e-08
1.2027e-08
1.24866e-08
1.28882e-08
1.32299e-08
1.35113e-08
1.37329e-08
1.38959e-08
1.40022e-08
1.40541e-08
9.37467e-09
9.95447e-09
1.07896e-08
1.1853e-08
1.31188e-08
1.45587e-08
1.61398e-08
1.78252e-08
1.95747e-08
2.13483e-08
2.31078e-08
2.48198e-08
2.64572e-08
2.79989e-08
2.94301e-08
3.07413e-08
3.19269e-08
3.2985e-08
3.3916e-08
3.47223e-08
3.54075e-08
3.59765e-08
3.64349e-08
3.67886e-08
3.70441e-08
3.72078e-08
3.72864e-08
3.17469e-08
3.31852e-08
3.52016e-08
3.7682e-08
4.05218e-08
4.36237e-08
4.68982e-08
5.02654e-08
5.36552e-08
5.70077e-08
6.02727e-08
6.34087e-08
6.63824e-08
6.91682e-08
7.1747e-08
7.41059e-08
7.62374e-08
7.81384e-08
7.98097e-08
8.12554e-08
8.24822e-08
8.34988e-08
8.43156e-08
8.49439e-08
8.53961e-08
8.56847e-08
8.58226e-08
8.18897e-08
8.46428e-08
8.84989e-08
9.32436e-08
9.86867e-08
1.04655e-07
1.10991e-07
1.17551e-07
1.24207e-07
1.30843e-07
1.3736e-07
1.4367e-07
1.49703e-07
1.55397e-07
1.60708e-07
1.65601e-07
1.70052e-07
1.74046e-07
1.7758e-07
1.80653e-07
1.83275e-07
1.85458e-07
1.8722e-07
1.88581e-07
1.89564e-07
1.90194e-07
1.90496e-07
1.78746e-07
1.84246e-07
1.9199e-07
2.01584e-07
2.12682e-07
2.24969e-07
2.38151e-07
2.51957e-07
2.66136e-07
2.80456e-07
2.94707e-07
3.08699e-07
3.22267e-07
3.35263e-07
3.47566e-07
3.59072e-07
3.69699e-07
3.79384e-07
3.88081e-07
3.95761e-07
4.02412e-07
4.08032e-07
4.12634e-07
4.16239e-07
4.18879e-07
4.20592e-07
4.21424e-07
3.54148e-07
3.65116e-07
3.80645e-07
4.00026e-07
4.2265e-07
4.47958e-07
4.75429e-07
5.0457e-07
5.34908e-07
5.65993e-07
5.97394e-07
6.28705e-07
6.59544e-07
6.89556e-07
7.18415e-07
7.4583e-07
7.71542e-07
7.95327e-07
8.17e-07
8.3641e-07
8.53445e-07
8.68028e-07
8.80116e-07
8.89698e-07
8.96793e-07
9.01446e-07
9.03728e-07
6.44848e-07
6.65196e-07
6.94113e-07
7.30382e-07
7.72967e-07
8.20925e-07
8.7336e-07
9.29406e-07
9.88213e-07
1.04894e-06
1.11077e-06
1.17289e-06
1.23452e-06
1.29491e-06
1.35336e-06
1.40922e-06
1.46189e-06
1.51087e-06
1.55569e-06
1.596e-06
1.63151e-06
1.66201e-06
1.68736e-06
1.70751e-06
1.72247e-06
1.7323e-06
1.73713e-06
1.08022e-06
1.11343e-06
1.16061e-06
1.21977e-06
1.2892e-06
1.36734e-06
1.4527e-06
1.54381e-06
1.63926e-06
1.73764e-06
1.83756e-06
1.93769e-06
2.03674e-06
2.1335e-06
2.22683e-06
2.31571e-06
2.39924e-06
2.47664e-06
2.54724e-06
2.61053e-06
2.6661e-06
2.71367e-06
2.75308e-06
2.78431e-06
2.80742e-06
2.82256e-06
2.82998e-06
1.66421e-06
1.71033e-06
1.77561e-06
1.85704e-06
1.95204e-06
2.05819e-06
2.17324e-06
2.29504e-06
2.42151e-06
2.55069e-06
2.6807e-06
2.80978e-06
2.93632e-06
3.05883e-06
3.17595e-06
3.28649e-06
3.38946e-06
3.48403e-06
3.56958e-06
3.64562e-06
3.71187e-06
3.76816e-06
3.81449e-06
3.85096e-06
3.87778e-06
3.89526e-06
3.90378e-06
2.35512e-06
2.40922e-06
2.48534e-06
2.57959e-06
2.68853e-06
2.80905e-06
2.93829e-06
3.07358e-06
3.21241e-06
3.35245e-06
3.49162e-06
3.62804e-06
3.76007e-06
3.88628e-06
4.00548e-06
4.1167e-06
4.21916e-06
4.31229e-06
4.3957e-06
4.46917e-06
4.53262e-06
4.5861e-06
4.62979e-06
4.66393e-06
4.68889e-06
4.70505e-06
4.71289e-06
3.0676e-06
3.12192e-06
3.19785e-06
3.29105e-06
3.39769e-06
3.51431e-06
3.6378e-06
3.76536e-06
3.8945e-06
4.02305e-06
4.14911e-06
4.27109e-06
4.38766e-06
4.49775e-06
4.60052e-06
4.69534e-06
4.78178e-06
4.85957e-06
4.92859e-06
4.98885e-06
5.04047e-06
5.08366e-06
5.11868e-06
5.14589e-06
5.16565e-06
5.17838e-06
5.18452e-06
3.70472e-06
3.75196e-06
3.81758e-06
3.89749e-06
3.98806e-06
4.08608e-06
4.18871e-06
4.29349e-06
4.39832e-06
4.50142e-06
4.60135e-06
4.69692e-06
4.78724e-06
4.87162e-06
4.94958e-06
5.0208e-06
5.08513e-06
5.14252e-06
5.19303e-06
5.23679e-06
5.27402e-06
5.30496e-06
5.3299e-06
5.34917e-06
5.36309e-06
5.37202e-06
5.37631e-06
4.19606e-06
4.23242e-06
4.28268e-06
4.34345e-06
4.41177e-06
4.48504e-06
4.56103e-06
4.63783e-06
4.71388e-06
4.78791e-06
4.85894e-06
4.9262e-06
4.98916e-06
5.04743e-06
5.10079e-06
5.14914e-06
5.19247e-06
5.23084e-06
5.26438e-06
5.29325e-06
5.31767e-06
5.33786e-06
5.35406e-06
5.36651e-06
5.37547e-06
5.3812e-06
5.38394e-06
4.52082e-06
4.54597e-06
4.58056e-06
4.62214e-06
4.66855e-06
4.71793e-06
4.76871e-06
4.81958e-06
4.8695e-06
4.91766e-06
4.96344e-06
5.00642e-06
5.0463e-06
5.08291e-06
5.11617e-06
5.14609e-06
5.17272e-06
5.19614e-06
5.2165e-06
5.23393e-06
5.24859e-06
5.26066e-06
5.2703e-06
5.27769e-06
5.28299e-06
5.28637e-06
5.28798e-06
4.69606e-06
4.71168e-06
4.73308e-06
4.75864e-06
4.78698e-06
4.81689e-06
4.84739e-06
4.87767e-06
4.90711e-06
4.93524e-06
4.96174e-06
4.98639e-06
5.00905e-06
5.02968e-06
5.04826e-06
5.06484e-06
5.07949e-06
5.09228e-06
5.10333e-06
5.11274e-06
5.12061e-06
5.12705e-06
5.13218e-06
5.13609e-06
5.13889e-06
5.14067e-06
5.14152e-06
4.75614e-06
4.7646e-06
4.77611e-06
4.78977e-06
4.80476e-06
4.82041e-06
4.83619e-06
4.85165e-06
4.86649e-06
4.88047e-06
4.89346e-06
4.90536e-06
4.91615e-06
4.92583e-06
4.93444e-06
4.94201e-06
4.94862e-06
4.95432e-06
4.95918e-06
4.96328e-06
4.96668e-06
4.96944e-06
4.97161e-06
4.97326e-06
4.97444e-06
4.97518e-06
4.97553e-06
4.73701e-06
4.7405e-06
4.74519e-06
4.75066e-06
4.75652e-06
4.76249e-06
4.76831e-06
4.77383e-06
4.77892e-06
4.78351e-06
4.78759e-06
4.79114e-06
4.79419e-06
4.79677e-06
4.79893e-06
4.80072e-06
4.80217e-06
4.80335e-06
4.80428e-06
4.80502e-06
4.80559e-06
4.80602e-06
4.80634e-06
4.80656e-06
4.80672e-06
4.80681e-06
4.80685e-06
4.66846e-06
4.66872e-06
4.66898e-06
4.66915e-06
4.66913e-06
4.66887e-06
4.66833e-06
4.66752e-06
4.66643e-06
4.66511e-06
4.66359e-06
4.66192e-06
4.66015e-06
4.65833e-06
4.6565e-06
4.65472e-06
4.65301e-06
4.6514e-06
4.64993e-06
4.64861e-06
4.64746e-06
4.64647e-06
4.64566e-06
4.64502e-06
4.64455e-06
4.64425e-06
4.6441e-06
4.57221e-06
4.57048e-06
4.56802e-06
4.56493e-06
4.56131e-06
4.55725e-06
4.55286e-06
4.54821e-06
4.5434e-06
4.53852e-06
4.53365e-06
4.52886e-06
4.52422e-06
4.51979e-06
4.51561e-06
4.51172e-06
4.50815e-06
4.50491e-06
4.50203e-06
4.49951e-06
4.49734e-06
4.49553e-06
4.49406e-06
4.49291e-06
4.49208e-06
4.49155e-06
4.4913e-06
4.46281e-06
4.45992e-06
4.45587e-06
4.4509e-06
4.4452e-06
4.43896e-06
4.43235e-06
4.42551e-06
4.41858e-06
4.41169e-06
4.40493e-06
4.39839e-06
4.39215e-06
4.38625e-06
4.38076e-06
4.3757e-06
4.37109e-06
4.36696e-06
4.3633e-06
4.36011e-06
4.35739e-06
4.35512e-06
4.35328e-06
4.35186e-06
4.35084e-06
4.35018e-06
4.34986e-06
4.34936e-06
4.34584e-06
4.34095e-06
4.33497e-06
4.32816e-06
4.32077e-06
4.31299e-06
4.30501e-06
4.29698e-06
4.28905e-06
4.28131e-06
4.27388e-06
4.26682e-06
4.26019e-06
4.25404e-06
4.24839e-06
4.24327e-06
4.23868e-06
4.23464e-06
4.23112e-06
4.22812e-06
4.22563e-06
4.22361e-06
4.22205e-06
4.22093e-06
4.22021e-06
4.21986e-06
4.2372e-06
4.2334e-06
4.22811e-06
4.22167e-06
4.21436e-06
4.20645e-06
4.19816e-06
4.18967e-06
4.18117e-06
4.17279e-06
4.16465e-06
4.15685e-06
4.14945e-06
4.14253e-06
4.13611e-06
4.13023e-06
4.12491e-06
4.12015e-06
4.11595e-06
4.11231e-06
4.10921e-06
4.10663e-06
4.10454e-06
4.10293e-06
4.10177e-06
4.10102e-06
4.10066e-06
4.12926e-06
4.12536e-06
4.11996e-06
4.11339e-06
4.10595e-06
4.0979e-06
4.08947e-06
4.08088e-06
4.07227e-06
4.06381e-06
4.05559e-06
4.04773e-06
4.04028e-06
4.03332e-06
4.02687e-06
4.02097e-06
4.01563e-06
4.01086e-06
4.00666e-06
4.00301e-06
3.9999e-06
3.99731e-06
3.99523e-06
3.99362e-06
3.99245e-06
3.9917e-06
3.99134e-06
4.02692e-06
4.02306e-06
4.0177e-06
4.01119e-06
4.00382e-06
3.99585e-06
3.98753e-06
3.97903e-06
3.97054e-06
3.96219e-06
3.9541e-06
3.94635e-06
3.93902e-06
3.93216e-06
3.92582e-06
3.92002e-06
3.91477e-06
3.91008e-06
3.90594e-06
3.90235e-06
3.8993e-06
3.89675e-06
3.8947e-06
3.89311e-06
3.89196e-06
3.89123e-06
3.89087e-06
3.93069e-06
3.92693e-06
3.9217e-06
3.91535e-06
3.90817e-06
3.90041e-06
3.89231e-06
3.88404e-06
3.87577e-06
3.86765e-06
3.85977e-06
3.85224e-06
3.84511e-06
3.83844e-06
3.83228e-06
3.82663e-06
3.82152e-06
3.81696e-06
3.81294e-06
3.80944e-06
3.80647e-06
3.80399e-06
3.80199e-06
3.80044e-06
3.79933e-06
3.79861e-06
3.79826e-06
3.84057e-06
3.83693e-06
3.83188e-06
3.82575e-06
3.81881e-06
3.81132e-06
3.80349e-06
3.7955e-06
3.78752e-06
3.77967e-06
3.77207e-06
3.76479e-06
3.7579e-06
3.75146e-06
3.7455e-06
3.74004e-06
3.73511e-06
3.73069e-06
3.7268e-06
3.72342e-06
3.72054e-06
3.71814e-06
3.7162e-06
3.7147e-06
3.71362e-06
3.71292e-06
3.71258e-06
3.75625e-06
3.75275e-06
3.7479e-06
3.742e-06
3.73533e-06
3.72813e-06
3.7206e-06
3.71292e-06
3.70524e-06
3.69769e-06
3.69037e-06
3.68336e-06
3.67673e-06
3.67053e-06
3.66478e-06
3.65952e-06
3.65476e-06
3.6505e-06
3.64675e-06
3.64348e-06
3.6407e-06
3.63838e-06
3.63651e-06
3.63506e-06
3.63401e-06
3.63334e-06
3.63301e-06
3.67732e-06
3.67397e-06
3.66931e-06
3.66365e-06
3.65725e-06
3.65034e-06
3.64311e-06
3.63573e-06
3.62836e-06
3.62111e-06
3.61407e-06
3.60733e-06
3.60095e-06
3.59498e-06
3.58945e-06
3.58439e-06
3.5798e-06
3.5757e-06
3.57208e-06
3.56893e-06
3.56624e-06
3.564e-06
3.5622e-06
3.5608e-06
3.55978e-06
3.55913e-06
3.55881e-06
3.60332e-06
3.6001e-06
3.59564e-06
3.59021e-06
3.58407e-06
3.57744e-06
3.57049e-06
3.56341e-06
3.55633e-06
3.54936e-06
3.54259e-06
3.53611e-06
3.52998e-06
3.52423e-06
3.51891e-06
3.51403e-06
3.50961e-06
3.50565e-06
3.50216e-06
3.49912e-06
3.49653e-06
3.49436e-06
3.49262e-06
3.49126e-06
3.49028e-06
3.48965e-06
3.48935e-06
3.53377e-06
3.53068e-06
3.52639e-06
3.52118e-06
3.51529e-06
3.50891e-06
3.50225e-06
3.49544e-06
3.48863e-06
3.48192e-06
3.47541e-06
3.46918e-06
3.46327e-06
3.45773e-06
3.4526e-06
3.44789e-06
3.44363e-06
3.43981e-06
3.43643e-06
3.4335e-06
3.43099e-06
3.4289e-06
3.42721e-06
3.4259e-06
3.42495e-06
3.42434e-06
3.42404e-06
3.4682e-06
3.46524e-06
3.46112e-06
3.45611e-06
3.45044e-06
3.44431e-06
3.43789e-06
3.43134e-06
3.42478e-06
3.41832e-06
3.41205e-06
3.40603e-06
3.40033e-06
3.39499e-06
3.39003e-06
3.38549e-06
3.38136e-06
3.37767e-06
3.37441e-06
3.37157e-06
3.36914e-06
3.36711e-06
3.36548e-06
3.36421e-06
3.36328e-06
3.36269e-06
3.36241e-06
3.4062e-06
3.40334e-06
3.39938e-06
3.39455e-06
3.38909e-06
3.38318e-06
3.377e-06
3.37068e-06
3.36435e-06
3.35811e-06
3.35205e-06
3.34624e-06
3.34073e-06
3.33556e-06
3.33077e-06
3.32637e-06
3.32238e-06
3.3188e-06
3.31564e-06
3.31288e-06
3.31053e-06
3.30856e-06
3.30697e-06
3.30574e-06
3.30484e-06
3.30427e-06
3.30399e-06
3.34736e-06
3.3446e-06
3.34077e-06
3.33612e-06
3.33084e-06
3.32513e-06
3.31915e-06
3.31305e-06
3.30693e-06
3.30089e-06
3.29503e-06
3.2894e-06
3.28406e-06
3.27906e-06
3.27441e-06
3.27014e-06
3.26627e-06
3.26279e-06
3.25972e-06
3.25704e-06
3.25475e-06
3.25284e-06
3.25129e-06
3.25009e-06
3.24922e-06
3.24866e-06
3.24839e-06
3.2913e-06
3.28863e-06
3.28493e-06
3.28042e-06
3.27531e-06
3.26979e-06
3.264e-06
3.25808e-06
3.25214e-06
3.24629e-06
3.2406e-06
3.23514e-06
3.22996e-06
3.22509e-06
3.22057e-06
3.21642e-06
3.21265e-06
3.20927e-06
3.20628e-06
3.20367e-06
3.20144e-06
3.19958e-06
3.19807e-06
3.1969e-06
3.19605e-06
3.1955e-06
3.19524e-06
3.23767e-06
3.23508e-06
3.23149e-06
3.22712e-06
3.22216e-06
3.21679e-06
3.21117e-06
3.20541e-06
3.19965e-06
3.19396e-06
3.18842e-06
3.18311e-06
3.17806e-06
3.17332e-06
3.16891e-06
3.16487e-06
3.16119e-06
3.15789e-06
3.15497e-06
3.15243e-06
3.15025e-06
3.14843e-06
3.14695e-06
3.1458e-06
3.14497e-06
3.14444e-06
3.14418e-06
3.18613e-06
3.18361e-06
3.18012e-06
3.17586e-06
3.17103e-06
3.16581e-06
3.16033e-06
3.15472e-06
3.1491e-06
3.14355e-06
3.13815e-06
3.13296e-06
3.12803e-06
3.1234e-06
3.11909e-06
3.11514e-06
3.11154e-06
3.10831e-06
3.10545e-06
3.10296e-06
3.10082e-06
3.09904e-06
3.09759e-06
3.09647e-06
3.09565e-06
3.09513e-06
3.09487e-06
3.13635e-06
3.13389e-06
3.13048e-06
3.12632e-06
3.1216e-06
3.1165e-06
3.11114e-06
3.10566e-06
3.10016e-06
3.09473e-06
3.08944e-06
3.08436e-06
3.07953e-06
3.07499e-06
3.07077e-06
3.06689e-06
3.06336e-06
3.06019e-06
3.05738e-06
3.05493e-06
3.05283e-06
3.05108e-06
3.04965e-06
3.04855e-06
3.04775e-06
3.04723e-06
3.04698e-06
3.08798e-06
3.08557e-06
3.08223e-06
3.07816e-06
3.07353e-06
3.06853e-06
3.06327e-06
3.05789e-06
3.05249e-06
3.04716e-06
3.04196e-06
3.03696e-06
3.03222e-06
3.02775e-06
3.0236e-06
3.01977e-06
3.0163e-06
3.01318e-06
3.01041e-06
3.00799e-06
3.00592e-06
3.00419e-06
3.00279e-06
3.0017e-06
3.0009e-06
3.00039e-06
3.00014e-06
3.04069e-06
3.03832e-06
3.03503e-06
3.03102e-06
3.02647e-06
3.02154e-06
3.01636e-06
3.01106e-06
3.00573e-06
3.00047e-06
2.99535e-06
2.99042e-06
2.98573e-06
2.98132e-06
2.97721e-06
2.97343e-06
2.97e-06
2.96691e-06
2.96417e-06
2.96178e-06
2.95973e-06
2.95801e-06
2.95662e-06
2.95554e-06
2.95475e-06
2.95424e-06
2.954e-06
2.99409e-06
2.99175e-06
2.9885e-06
2.98454e-06
2.98004e-06
2.97516e-06
2.97003e-06
2.96479e-06
2.95951e-06
2.9543e-06
2.94922e-06
2.94433e-06
2.93968e-06
2.9353e-06
2.93122e-06
2.92747e-06
2.92405e-06
2.92098e-06
2.91826e-06
2.91588e-06
2.91384e-06
2.91214e-06
2.91075e-06
2.90967e-06
2.90889e-06
2.90838e-06
2.90814e-06
2.9478e-06
2.94548e-06
2.94225e-06
2.9383e-06
2.93383e-06
2.92898e-06
2.92388e-06
2.91865e-06
2.9134e-06
2.90821e-06
2.90314e-06
2.89827e-06
2.89363e-06
2.88926e-06
2.88519e-06
2.88145e-06
2.87803e-06
2.87497e-06
2.87224e-06
2.86986e-06
2.86782e-06
2.86612e-06
2.86473e-06
2.86365e-06
2.86287e-06
2.86236e-06
2.86212e-06
2.90137e-06
2.89904e-06
2.89581e-06
2.89187e-06
2.88739e-06
2.88254e-06
2.87743e-06
2.8722e-06
2.86694e-06
2.86173e-06
2.85665e-06
2.85176e-06
2.84711e-06
2.84272e-06
2.83863e-06
2.83487e-06
2.83144e-06
2.82836e-06
2.82562e-06
2.82323e-06
2.82117e-06
2.81946e-06
2.81806e-06
2.81697e-06
2.81618e-06
2.81567e-06
2.81543e-06
2.85429e-06
2.85195e-06
2.8487e-06
2.84473e-06
2.84022e-06
2.83532e-06
2.83017e-06
2.8249e-06
2.81959e-06
2.81433e-06
2.80921e-06
2.80427e-06
2.79956e-06
2.79513e-06
2.791e-06
2.78719e-06
2.78372e-06
2.7806e-06
2.77782e-06
2.7754e-06
2.77332e-06
2.77158e-06
2.77016e-06
2.76906e-06
2.76826e-06
2.76774e-06
2.76749e-06
2.806e-06
2.80363e-06
2.80032e-06
2.79629e-06
2.79172e-06
2.78674e-06
2.78152e-06
2.77615e-06
2.77075e-06
2.76541e-06
2.76019e-06
2.75516e-06
2.75037e-06
2.74585e-06
2.74164e-06
2.73776e-06
2.73422e-06
2.73104e-06
2.72821e-06
2.72574e-06
2.72361e-06
2.72183e-06
2.72039e-06
2.71926e-06
2.71845e-06
2.71792e-06
2.71766e-06
2.75585e-06
2.75342e-06
2.75004e-06
2.74591e-06
2.74123e-06
2.73613e-06
2.73078e-06
2.72528e-06
2.71974e-06
2.71426e-06
2.70891e-06
2.70374e-06
2.69882e-06
2.69418e-06
2.68985e-06
2.68586e-06
2.68222e-06
2.67895e-06
2.67604e-06
2.67349e-06
2.67131e-06
2.66947e-06
2.66799e-06
2.66683e-06
2.66598e-06
2.66544e-06
2.66517e-06
2.70308e-06
2.70058e-06
2.69709e-06
2.69283e-06
2.68798e-06
2.68272e-06
2.67718e-06
2.67149e-06
2.66576e-06
2.66009e-06
2.65454e-06
2.64919e-06
2.64409e-06
2.63928e-06
2.63479e-06
2.63065e-06
2.62688e-06
2.62348e-06
2.62045e-06
2.61781e-06
2.61554e-06
2.61364e-06
2.61209e-06
2.61089e-06
2.61001e-06
2.60945e-06
2.60917e-06
2.64687e-06
2.64425e-06
2.64061e-06
2.63617e-06
2.63111e-06
2.62562e-06
2.61983e-06
2.61389e-06
2.60791e-06
2.60198e-06
2.59618e-06
2.59059e-06
2.58525e-06
2.58022e-06
2.57552e-06
2.57118e-06
2.56723e-06
2.56367e-06
2.5605e-06
2.55773e-06
2.55535e-06
2.55336e-06
2.55174e-06
2.55047e-06
2.54955e-06
2.54896e-06
2.54867e-06
2.58622e-06
2.58347e-06
2.57964e-06
2.57496e-06
2.56963e-06
2.56384e-06
2.55774e-06
2.55148e-06
2.54517e-06
2.53891e-06
2.53279e-06
2.52688e-06
2.52125e-06
2.51593e-06
2.51097e-06
2.50638e-06
2.5022e-06
2.49844e-06
2.49509e-06
2.49216e-06
2.48964e-06
2.48753e-06
2.48582e-06
2.48448e-06
2.48351e-06
2.48288e-06
2.48258e-06
2.52007e-06
2.51715e-06
2.51307e-06
2.5081e-06
2.50243e-06
2.49627e-06
2.48979e-06
2.48312e-06
2.4764e-06
2.46973e-06
2.46321e-06
2.45692e-06
2.45092e-06
2.44525e-06
2.43996e-06
2.43507e-06
2.43061e-06
2.4266e-06
2.42302e-06
2.4199e-06
2.41721e-06
2.41496e-06
2.41313e-06
2.41171e-06
2.41067e-06
2.41e-06
2.40967e-06
2.44723e-06
2.44409e-06
2.43972e-06
2.43438e-06
2.42831e-06
2.4217e-06
2.41473e-06
2.40758e-06
2.40036e-06
2.3932e-06
2.3862e-06
2.37944e-06
2.37299e-06
2.3669e-06
2.36121e-06
2.35596e-06
2.35117e-06
2.34685e-06
2.34301e-06
2.33965e-06
2.33676e-06
2.33434e-06
2.33237e-06
2.33084e-06
2.32972e-06
2.329e-06
2.32865e-06
2.3664e-06
2.36301e-06
2.35829e-06
2.35252e-06
2.34595e-06
2.33881e-06
2.33128e-06
2.32354e-06
2.31574e-06
2.308e-06
2.30043e-06
2.29311e-06
2.28613e-06
2.27954e-06
2.27339e-06
2.26771e-06
2.26252e-06
2.25785e-06
2.25369e-06
2.25006e-06
2.24693e-06
2.24432e-06
2.24219e-06
2.24053e-06
2.23932e-06
2.23854e-06
2.23816e-06
2.27626e-06
2.27258e-06
2.26744e-06
2.26117e-06
2.25403e-06
2.24627e-06
2.23809e-06
2.22967e-06
2.22119e-06
2.21277e-06
2.20454e-06
2.19659e-06
2.189e-06
2.18184e-06
2.17515e-06
2.16897e-06
2.16334e-06
2.15826e-06
2.15374e-06
2.14979e-06
2.14639e-06
2.14355e-06
2.14123e-06
2.13943e-06
2.13811e-06
2.13727e-06
2.13686e-06
2.1755e-06
2.17147e-06
2.16588e-06
2.15903e-06
2.15125e-06
2.14278e-06
2.13385e-06
2.12468e-06
2.11542e-06
2.10625e-06
2.09727e-06
2.08861e-06
2.08033e-06
2.07252e-06
2.06524e-06
2.05851e-06
2.05237e-06
2.04683e-06
2.04191e-06
2.03761e-06
2.03391e-06
2.03081e-06
2.02829e-06
2.02633e-06
2.0249e-06
2.02398e-06
2.02353e-06
2.06291e-06
2.05852e-06
2.0524e-06
2.04493e-06
2.03643e-06
2.02718e-06
2.01744e-06
2.00743e-06
1.99734e-06
1.98733e-06
1.97754e-06
1.9681e-06
1.95908e-06
1.95057e-06
1.94264e-06
1.93531e-06
1.92862e-06
1.9226e-06
1.91724e-06
1.91256e-06
1.90854e-06
1.90517e-06
1.90243e-06
1.90029e-06
1.89874e-06
1.89773e-06
1.89725e-06
1.93757e-06
1.93278e-06
1.92612e-06
1.91798e-06
1.90872e-06
1.89865e-06
1.88804e-06
1.87715e-06
1.86617e-06
1.85529e-06
1.84465e-06
1.83439e-06
1.8246e-06
1.81536e-06
1.80674e-06
1.79879e-06
1.79154e-06
1.78501e-06
1.77921e-06
1.77413e-06
1.76978e-06
1.76612e-06
1.76316e-06
1.76085e-06
1.75917e-06
1.75808e-06
1.75755e-06
1.799e-06
1.79381e-06
1.78659e-06
1.77777e-06
1.76774e-06
1.75684e-06
1.74536e-06
1.73358e-06
1.72172e-06
1.70996e-06
1.69848e-06
1.6874e-06
1.67684e-06
1.66688e-06
1.6576e-06
1.64904e-06
1.64124e-06
1.63421e-06
1.62797e-06
1.62251e-06
1.61783e-06
1.61391e-06
1.61072e-06
1.60824e-06
1.60644e-06
1.60527e-06
1.60471e-06
1.64742e-06
1.64185e-06
1.63409e-06
1.62462e-06
1.61386e-06
1.60217e-06
1.58988e-06
1.57727e-06
1.56458e-06
1.55201e-06
1.53974e-06
1.52792e-06
1.51666e-06
1.50605e-06
1.49616e-06
1.48705e-06
1.47875e-06
1.47128e-06
1.46465e-06
1.45885e-06
1.45388e-06
1.44972e-06
1.44634e-06
1.44372e-06
1.4418e-06
1.44057e-06
1.43997e-06
1.48398e-06
1.47807e-06
1.46985e-06
1.45983e-06
1.44844e-06
1.43608e-06
1.4231e-06
1.40979e-06
1.39641e-06
1.38318e-06
1.37028e-06
1.35785e-06
1.34603e-06
1.33489e-06
1.32453e-06
1.31499e-06
1.3063e-06
1.29849e-06
1.29156e-06
1.28551e-06
1.28033e-06
1.27599e-06
1.27247e-06
1.26973e-06
1.26774e-06
1.26645e-06
1.26583e-06
1.31099e-06
1.30484e-06
1.29629e-06
1.28587e-06
1.27404e-06
1.26122e-06
1.24777e-06
1.234e-06
1.22017e-06
1.20651e-06
1.19321e-06
1.18041e-06
1.16825e-06
1.15681e-06
1.14618e-06
1.1364e-06
1.12751e-06
1.11951e-06
1.11243e-06
1.10625e-06
1.10096e-06
1.09654e-06
1.09295e-06
1.09016e-06
1.08813e-06
1.08682e-06
1.08619e-06
1.13212e-06
1.12586e-06
1.11717e-06
1.10659e-06
1.0946e-06
1.08162e-06
1.06802e-06
1.05412e-06
1.04018e-06
1.02643e-06
1.01307e-06
1.00024e-06
9.88055e-07
9.76622e-07
9.66004e-07
9.56251e-07
9.47393e-07
9.39445e-07
9.3241e-07
9.26279e-07
9.21034e-07
9.1665e-07
9.13096e-07
9.10337e-07
9.08333e-07
9.07041e-07
9.06418e-07
9.52382e-07
9.46204e-07
9.37633e-07
9.27214e-07
9.15425e-07
9.02686e-07
8.89362e-07
8.75768e-07
8.6217e-07
8.48788e-07
8.35806e-07
8.23369e-07
8.11592e-07
8.00563e-07
7.90347e-07
7.80987e-07
7.72509e-07
7.64924e-07
7.58226e-07
7.52401e-07
7.47428e-07
7.43278e-07
7.3992e-07
7.37316e-07
7.35426e-07
7.3421e-07
7.33624e-07
7.78099e-07
7.7225e-07
7.64155e-07
7.54344e-07
7.43267e-07
7.31323e-07
7.1886e-07
7.06172e-07
6.9351e-07
6.81078e-07
6.69044e-07
6.5754e-07
6.46669e-07
6.36506e-07
6.27107e-07
6.18507e-07
6.10724e-07
6.03765e-07
5.97626e-07
5.92292e-07
5.87742e-07
5.83949e-07
5.80883e-07
5.78507e-07
5.76785e-07
5.75677e-07
5.75144e-07
6.17069e-07
6.1174e-07
6.04366e-07
5.95433e-07
5.85365e-07
5.74532e-07
5.63255e-07
5.51804e-07
5.40406e-07
5.29245e-07
5.1847e-07
5.08196e-07
4.98511e-07
4.8948e-07
4.81147e-07
4.73538e-07
4.66668e-07
4.60537e-07
4.55138e-07
4.50456e-07
4.46468e-07
4.4315e-07
4.4047e-07
4.38397e-07
4.36896e-07
4.35932e-07
4.35468e-07
4.73668e-07
4.6901e-07
4.62576e-07
4.54795e-07
4.46047e-07
4.3666e-07
4.26915e-07
4.17051e-07
4.07262e-07
3.97706e-07
3.88514e-07
3.7978e-07
3.71576e-07
3.63949e-07
3.56934e-07
3.50548e-07
3.44797e-07
3.39679e-07
3.35183e-07
3.31292e-07
3.27987e-07
3.25241e-07
3.23028e-07
3.21319e-07
3.20084e-07
3.19291e-07
3.18911e-07
3.52027e-07
3.48169e-07
3.4285e-07
3.36433e-07
3.2924e-07
3.21548e-07
3.13591e-07
3.05568e-07
2.97638e-07
2.89928e-07
2.82539e-07
2.75543e-07
2.68994e-07
2.62929e-07
2.57369e-07
2.52324e-07
2.47795e-07
2.43777e-07
2.40258e-07
2.3722e-07
2.34646e-07
2.32512e-07
2.30797e-07
2.29474e-07
2.2852e-07
2.27909e-07
2.27616e-07
2.54699e-07
2.5169e-07
2.4755e-07
2.4257e-07
2.37006e-07
2.31077e-07
2.24968e-07
2.18834e-07
2.12797e-07
2.06953e-07
2.01376e-07
1.96119e-07
1.91218e-07
1.86697e-07
1.82569e-07