/*--------------------------------*- C++ -*----------------------------------*\
| =========                 |                                                 |
| \\      /  F ield         | OpenFOAM: The Open Source CFD Toolbox           |
|  \\    /   O peration     | Version:  2106                                  |
|   \\  /    A nd           | Website:  www.openfoam.com                      |
|    \\/     M anipulation  |                                                 |
\*---------------------------------------------------------------------------*/
FoamFile
{
    version     2.0;
    format      ascii;
    arch        "LSB;label=32;scalar=64";
    class       volScalarField;
    location    "80.00032";
    object      CH3COCH2_0;
}
// * * * * * * * * * * * * * * * * * * * * * * * * * * * * * * * * * * * * * //

dimensions      [0 0 0 0 0 0 0];

internalField   nonuniform List<scalar> 
3360
(
3.69639e-21
3.81533e-21
3.98084e-21
4.18328e-21
4.41423e-21
4.6661e-21
4.93205e-21
5.20591e-21
5.48217e-21
5.75598e-21
6.02313e-21
6.28005e-21
6.52378e-21
6.75198e-21
6.96287e-21
7.15518e-21
7.32817e-21
7.48148e-21
7.6152e-21
7.72971e-21
7.82571e-21
7.90412e-21
7.96605e-21
8.01276e-21
8.04563e-21
8.06607e-21
8.07556e-21
1.62128e-20
1.68086e-20
1.76494e-20
1.86965e-20
1.99178e-20
2.12853e-20
2.2774e-20
2.43612e-20
2.60254e-20
2.77466e-20
2.95054e-20
3.12831e-20
3.30611e-20
3.48212e-20
3.65453e-20
3.82159e-20
3.98155e-20
4.13274e-20
4.27355e-20
4.40247e-20
4.51813e-20
4.61928e-20
4.7049e-20
4.77415e-20
4.82641e-20
4.8613e-20
4.8787e-20
5.08611e-20
5.30929e-20
5.62642e-20
6.02491e-20
6.49433e-20
7.02528e-20
7.60885e-20
8.23624e-20
8.89857e-20
9.58674e-20
1.02915e-19
1.10035e-19
1.17138e-19
1.24133e-19
1.30933e-19
1.37455e-19
1.43622e-19
1.49366e-19
1.54627e-19
1.59356e-19
1.63514e-19
1.67075e-19
1.70023e-19
1.72353e-19
1.74071e-19
1.75191e-19
1.75737e-19
1.48083e-19
1.55436e-19
1.65955e-19
1.79264e-19
1.95048e-19
2.13012e-19
2.32862e-19
2.54292e-19
2.76981e-19
3.00594e-19
3.24782e-19
3.49192e-19
3.73472e-19
3.9728e-19
4.20292e-19
4.42208e-19
4.62766e-19
4.81739e-19
4.98949e-19
5.14258e-19
5.27579e-19
5.38863e-19
5.48105e-19
5.55334e-19
5.60609e-19
5.64015e-19
5.65658e-19
4.32507e-19
4.55698e-19
4.88937e-19
5.31087e-19
5.81184e-19
6.38302e-19
7.0149e-19
7.69738e-19
8.41971e-19
9.17055e-19
9.93819e-19
1.07108e-18
1.14768e-18
1.22251e-18
1.29455e-18
1.36287e-18
1.42669e-18
1.48535e-18
1.53835e-18
1.58533e-18
1.62605e-18
1.66044e-18
1.68851e-18
1.71041e-18
1.72635e-18
1.73662e-18
1.74156e-18
1.27474e-18
1.34593e-18
1.4481e-18
1.57776e-18
1.73196e-18
1.90783e-18
2.10238e-18
2.31246e-18
2.53467e-18
2.76547e-18
3.00118e-18
3.23811e-18
3.47266e-18
3.70143e-18
3.92127e-18
4.12941e-18
4.32347e-18
4.50153e-18
4.66209e-18
4.80415e-18
4.92711e-18
5.03077e-18
5.11527e-18
5.18109e-18
5.22894e-18
5.25973e-18
5.27453e-18
3.78524e-18
4.00149e-18
4.3118e-18
4.70567e-18
5.17403e-18
5.70806e-18
6.29859e-18
6.93587e-18
7.60948e-18
8.30852e-18
9.02178e-18
9.73805e-18
1.04464e-17
1.11367e-17
1.17994e-17
1.24262e-17
1.30102e-17
1.35456e-17
1.40281e-17
1.44548e-17
1.48239e-17
1.5135e-17
1.53884e-17
1.55858e-17
1.57293e-17
1.58216e-17
1.58659e-17
1.12766e-17
1.1927e-17
1.28608e-17
1.40465e-17
1.54568e-17
1.70651e-17
1.88437e-17
2.07629e-17
2.27913e-17
2.48957e-17
2.70423e-17
2.91972e-17
3.13275e-17
3.34025e-17
3.53937e-17
3.72765e-17
3.90297e-17
4.06363e-17
4.20836e-17
4.33628e-17
4.44689e-17
4.54006e-17
4.61596e-17
4.67504e-17
4.71796e-17
4.74556e-17
4.75882e-17
3.36828e-17
3.56368e-17
3.84416e-17
4.20024e-17
4.62372e-17
5.10657e-17
5.6404e-17
6.21629e-17
6.82473e-17
7.45576e-17
8.0992e-17
8.74491e-17
9.38305e-17
1.00044e-16
1.06005e-16
1.11639e-16
1.16885e-16
1.21691e-16
1.2602e-16
1.29846e-16
1.33153e-16
1.35939e-16
1.38209e-16
1.39975e-16
1.41259e-16
1.42084e-16
1.42481e-16
1.00607e-16
1.06457e-16
1.14855e-16
1.25518e-16
1.38199e-16
1.52658e-16
1.68643e-16
1.85885e-16
2.04101e-16
2.2299e-16
2.42247e-16
2.61569e-16
2.80661e-16
2.99246e-16
3.17072e-16
3.33919e-16
3.49599e-16
3.63961e-16
3.76894e-16
3.88321e-16
3.98198e-16
4.06515e-16
4.13289e-16
4.1856e-16
4.22389e-16
4.2485e-16
4.26033e-16
3.00632e-16
3.18136e-16
3.43259e-16
3.7515e-16
4.13071e-16
4.56296e-16
5.04071e-16
5.5559e-16
6.09998e-16
6.66401e-16
7.23885e-16
7.81542e-16
8.38494e-16
8.93918e-16
9.47065e-16
9.97276e-16
1.044e-15
1.08679e-15
1.12531e-15
1.15934e-15
1.18875e-15
1.21351e-15
1.23368e-15
1.24937e-15
1.26076e-15
1.26809e-15
1.27161e-15
8.97382e-16
9.49611e-16
1.02458e-15
1.11973e-15
1.23284e-15
1.36175e-15
1.50418e-15
1.65773e-15
1.81984e-15
1.98784e-15
2.159e-15
2.33061e-15
2.50006e-15
2.66489e-15
2.8229e-15
2.97212e-15
3.11093e-15
3.23801e-15
3.35237e-15
3.45335e-15
3.54061e-15
3.61405e-15
3.67384e-15
3.72035e-15
3.75412e-15
3.77583e-15
3.78625e-15
2.67537e-15
2.83095e-15
3.05418e-15
3.33739e-15
3.67392e-15
4.05723e-15
4.48052e-15
4.93658e-15
5.41775e-15
5.91607e-15
6.42343e-15
6.93182e-15
7.43349e-15
7.92121e-15
8.38845e-15
8.82948e-15
9.2395e-15
9.61469e-15
9.95219e-15
1.02501e-14
1.05074e-14
1.07239e-14
1.09001e-14
1.10371e-14
1.11366e-14
1.12005e-14
1.12312e-14
7.95126e-15
8.4126e-15
9.07433e-15
9.91346e-15
1.091e-14
1.20444e-14
1.32962e-14
1.46438e-14
1.60645e-14
1.75346e-14
1.90301e-14
2.05272e-14
2.20033e-14
2.34371e-14
2.48095e-14
2.61039e-14
2.73063e-14
2.84057e-14
2.93939e-14
3.02656e-14
3.1018e-14
3.16507e-14
3.21654e-14
3.25654e-14
3.28556e-14
3.30421e-14
3.31316e-14
2.35387e-14
2.48993e-14
2.68498e-14
2.93212e-14
3.22536e-14
3.5588e-14
3.92634e-14
4.32154e-14
4.73763e-14
5.16763e-14
5.60448e-14
6.04124e-14
6.47129e-14
6.88849e-14
7.28733e-14
7.66305e-14
8.01167e-14
8.3301e-14
8.61605e-14
8.86805e-14
9.08538e-14
9.26799e-14
9.41643e-14
9.53173e-14
9.61534e-14
9.66903e-14
9.6948e-14
6.92409e-14
7.32171e-14
7.89122e-14
8.61214e-14
9.46648e-14
1.04366e-13
1.15044e-13
1.26506e-13
1.38555e-13
1.50984e-13
1.6359e-13
1.76172e-13
1.88539e-13
2.00516e-13
2.11947e-13
2.22698e-13
2.3266e-13
2.41745e-13
2.49892e-13
2.57062e-13
2.63239e-13
2.68423e-13
2.72633e-13
2.759e-13
2.78267e-13
2.79785e-13
2.80514e-13
2.01926e-13
2.13402e-13
2.29822e-13
2.50577e-13
2.75132e-13
3.02963e-13
3.3353e-13
3.66274e-13
4.00613e-13
4.35957e-13
4.71719e-13
5.07328e-13
5.42251e-13
5.75998e-13
6.08137e-13
6.38303e-13
6.66197e-13
6.9159e-13
7.14322e-13
7.34297e-13
7.51477e-13
7.65877e-13
7.77555e-13
7.86607e-13
7.93159e-13
7.97359e-13
7.99371e-13
5.81717e-13
6.14262e-13
6.6076e-13
7.1943e-13
7.88691e-13
8.67e-13
9.52786e-13
1.04443e-12
1.14026e-12
1.23861e-12
1.33783e-12
1.43635e-12
1.53269e-12
1.62554e-12
1.71373e-12
1.7963e-12
1.87247e-12
1.94165e-12
2.00346e-12
2.05766e-12
2.10419e-12
2.14313e-12
2.17466e-12
2.19907e-12
2.21671e-12
2.22801e-12
2.23342e-12
1.64784e-12
1.73793e-12
1.86641e-12
2.02816e-12
2.21861e-12
2.43331e-12
2.66777e-12
2.91741e-12
3.17759e-12
3.44371e-12
3.7113e-12
3.97611e-12
4.23427e-12
4.48229e-12
4.71719e-12
4.9365e-12
5.13829e-12
5.32113e-12
5.4841e-12
5.62672e-12
5.74893e-12
5.851e-12
5.93352e-12
5.99731e-12
6.04335e-12
6.0728e-12
6.08688e-12
4.56112e-12
4.80216e-12
5.14527e-12
5.57611e-12
6.08191e-12
6.65025e-12
7.26878e-12
7.92504e-12
8.6066e-12
9.30129e-12
9.99742e-12
1.06841e-11
1.13514e-11
1.19906e-11
1.25944e-11
1.31566e-11
1.36726e-11
1.41392e-11
1.45542e-11
1.49167e-11
1.52267e-11
1.54853e-11
1.56941e-11
1.58552e-11
1.59714e-11
1.60456e-11
1.60811e-11
1.22462e-11
1.2861e-11
1.37341e-11
1.48272e-11
1.61061e-11
1.75381e-11
1.90907e-11
2.0732e-11
2.24305e-11
2.41558e-11
2.58792e-11
2.75742e-11
2.92169e-11
3.07868e-11
3.22663e-11
3.36415e-11
3.49017e-11
3.60393e-11
3.705e-11
3.79319e-11
3.86857e-11
3.93138e-11
3.98205e-11
4.02115e-11
4.04933e-11
4.06733e-11
4.07592e-11
3.16728e-11
3.31353e-11
3.52052e-11
3.77855e-11
4.07894e-11
4.41346e-11
4.77416e-11
5.15332e-11
5.54354e-11
5.9378e-11
6.32964e-11
6.71317e-11
7.08323e-11
7.43542e-11
7.7661e-11
8.07242e-11
8.35227e-11
8.60425e-11
8.8276e-11
9.02213e-11
9.18813e-11
9.32631e-11
9.43771e-11
9.52362e-11
9.58554e-11
9.6251e-11
9.644e-11
7.86215e-11
8.1764e-11
8.6178e-11
9.16254e-11
9.78899e-11
1.04768e-10
1.12066e-10
1.19602e-10
1.27209e-10
1.34733e-10
1.4204e-10
1.49017e-10
1.55573e-10
1.61637e-10
1.67161e-10
1.72117e-10
1.76495e-10
1.80301e-10
1.83555e-10
1.86285e-10
1.88528e-10
1.90325e-10
1.91719e-10
1.92754e-10
1.93473e-10
1.93916e-10
1.9412e-10
1.86218e-10
1.91964e-10
1.99869e-10
2.09346e-10
2.19834e-10
2.308e-10
2.41744e-10
2.52211e-10
2.618e-10
2.70186e-10
2.77122e-10
2.82451e-10
2.86105e-10
2.88103e-10
2.88543e-10
2.87591e-10
2.85462e-10
2.82405e-10
2.78688e-10
2.74577e-10
2.70331e-10
2.66188e-10
2.62361e-10
2.59038e-10
2.56375e-10
2.54502e-10
2.53525e-10
3.98182e-10
4.04842e-10
4.1331e-10
4.2228e-10
4.30497e-10
4.36833e-10
4.40378e-10
4.40513e-10
4.36961e-10
4.29798e-10
4.19418e-10
4.06448e-10
3.91649e-10
3.75804e-10
3.59634e-10
3.43736e-10
3.28568e-10
3.14447e-10
3.01579e-10
2.9008e-10
2.8001e-10
2.7139e-10
2.64223e-10
2.58503e-10
2.54221e-10
2.51371e-10
2.49948e-10
6.12033e-10
6.06975e-10
5.98604e-10
5.8651e-10
5.70657e-10
5.51484e-10
5.29827e-10
5.06737e-10
4.8326e-10
4.60259e-10
4.38334e-10
4.17818e-10
3.98833e-10
3.81365e-10
3.65334e-10
3.50638e-10
3.37191e-10
3.24932e-10
3.13832e-10
3.03885e-10
2.95103e-10
2.87511e-10
2.81136e-10
2.76006e-10
2.72142e-10
2.69561e-10
2.68271e-10
6.1511e-10
6.05704e-10
5.92615e-10
5.76661e-10
5.58548e-10
5.38845e-10
5.17973e-10
4.96244e-10
4.73908e-10
4.51217e-10
4.28455e-10
4.05937e-10
3.83993e-10
3.62933e-10
3.43022e-10
3.24469e-10
3.07418e-10
2.91963e-10
2.78148e-10
2.65989e-10
2.55476e-10
2.46584e-10
2.3928e-10
2.33525e-10
2.29275e-10
2.26488e-10
2.25118e-10
6.10024e-10
5.98442e-10
5.82002e-10
5.61521e-10
5.37839e-10
5.11848e-10
4.84454e-10
4.56516e-10
4.28788e-10
4.01878e-10
3.76237e-10
3.52171e-10
3.29864e-10
3.09407e-10
2.90821e-10
2.74077e-10
2.59121e-10
2.45879e-10
2.34275e-10
2.24227e-10
2.1566e-10
2.085e-10
2.02678e-10
1.98132e-10
1.94802e-10
1.92635e-10
1.91576e-10
5.27285e-10
5.1548e-10
4.99276e-10
4.79884e-10
4.58393e-10
4.35755e-10
4.12765e-10
3.90041e-10
3.68049e-10
3.47117e-10
3.27456e-10
3.09187e-10
2.92365e-10
2.76995e-10
2.63052e-10
2.50493e-10
2.39264e-10
2.29306e-10
2.20561e-10
2.12973e-10
2.06488e-10
2.01056e-10
1.96632e-10
1.93172e-10
1.90634e-10
1.8898e-10
1.88172e-10
4.452e-10
4.3768e-10
4.27385e-10
4.15089e-10
4.0147e-10
3.87103e-10
3.7246e-10
3.57911e-10
3.43732e-10
3.30125e-10
3.17223e-10
3.05112e-10
2.9384e-10
2.83428e-10
2.73879e-10
2.65185e-10
2.57329e-10
2.50293e-10
2.44054e-10
2.38592e-10
2.33884e-10
2.29909e-10
2.26648e-10
2.2408e-10
2.22186e-10
2.20944e-10
2.20334e-10
4.06291e-10
4.02931e-10
3.98296e-10
3.9271e-10
3.86457e-10
3.79785e-10
3.72905e-10
3.65987e-10
3.59165e-10
3.5254e-10
3.46184e-10
3.40149e-10
3.34466e-10
3.29155e-10
3.24224e-10
3.1968e-10
3.1552e-10
3.11745e-10
3.08353e-10
3.0534e-10
3.02706e-10
3.0045e-10
2.98572e-10
2.97071e-10
2.95947e-10
2.952e-10
2.94827e-10
4.04211e-10
4.04289e-10
4.04387e-10
4.04497e-10
4.04619e-10
4.04755e-10
4.04914e-10
4.05098e-10
4.0531e-10
4.05547e-10
4.058e-10
4.0606e-10
4.06311e-10
4.0654e-10
4.06732e-10
4.06876e-10
4.06963e-10
4.06988e-10
4.06952e-10
4.06859e-10
4.06717e-10
4.06539e-10
4.06342e-10
4.06142e-10
4.05961e-10
4.0582e-10
4.05739e-10
4.2789e-10
4.30636e-10
4.34441e-10
4.39064e-10
4.443e-10
4.49973e-10
4.55929e-10
4.62038e-10
4.68186e-10
4.74272e-10
4.8021e-10
4.85924e-10
4.91346e-10
4.96425e-10
5.01119e-10
5.05397e-10
5.0924e-10
5.12639e-10
5.15596e-10
5.18122e-10
5.20224e-10
5.21923e-10
5.23246e-10
5.24226e-10
5.249e-10
5.25308e-10
5.25491e-10
4.67412e-10
4.71804e-10
4.77893e-10
4.85292e-10
4.93664e-10
5.02716e-10
5.12191e-10
5.21869e-10
5.31563e-10
5.41113e-10
5.50386e-10
5.59275e-10
5.67694e-10
5.75577e-10
5.82852e-10
5.89473e-10
5.95411e-10
6.00656e-10
6.05212e-10
6.09096e-10
6.12336e-10
6.14968e-10
6.17033e-10
6.18581e-10
6.19663e-10
6.2033e-10
6.20638e-10
5.12049e-10
5.16916e-10
5.23652e-10
5.31816e-10
5.41028e-10
5.50954e-10
5.61314e-10
5.71871e-10
5.82396e-10
5.92695e-10
6.02616e-10
6.12037e-10
6.20865e-10
6.29033e-10
6.36496e-10
6.43227e-10
6.49217e-10
6.54473e-10
6.59011e-10
6.62862e-10
6.6606e-10
6.6865e-10
6.70679e-10
6.72198e-10
6.73259e-10
6.73914e-10
6.74216e-10
5.51606e-10
5.56042e-10
5.62159e-10
5.69536e-10
5.77804e-10
5.86644e-10
5.95778e-10
6.04974e-10
6.1404e-10
6.22821e-10
6.31195e-10
6.39069e-10
6.4638e-10
6.53082e-10
6.59152e-10
6.64582e-10
6.69377e-10
6.73553e-10
6.77136e-10
6.80156e-10
6.82651e-10
6.8466e-10
6.86226e-10
6.87394e-10
6.88206e-10
6.88706e-10
6.88936e-10
5.78792e-10
5.82178e-10
5.86827e-10
5.92404e-10
5.98612e-10
6.05196e-10
6.11943e-10
6.18674e-10
6.25248e-10
6.31554e-10
6.3751e-10
6.43058e-10
6.48159e-10
6.52794e-10
6.56953e-10
6.60641e-10
6.63871e-10
6.66661e-10
6.69035e-10
6.71021e-10
6.7265e-10
6.73953e-10
6.74961e-10
6.75708e-10
6.76224e-10
6.76539e-10
6.76684e-10
5.90133e-10
5.92349e-10
5.95378e-10
5.98989e-10
6.02978e-10
6.07175e-10
6.11435e-10
6.15643e-10
6.1971e-10
6.23569e-10
6.27173e-10
6.30494e-10
6.33512e-10
6.36223e-10
6.38628e-10
6.40737e-10
6.42563e-10
6.44122e-10
6.45434e-10
6.46519e-10
6.47398e-10
6.48093e-10
6.48625e-10
6.49014e-10
6.49279e-10
6.49439e-10
6.49511e-10
5.87232e-10
5.88443e-10
5.90087e-10
5.92031e-10
5.94155e-10
5.96361e-10
5.9857e-10
6.00719e-10
6.02762e-10
6.04667e-10
6.06414e-10
6.07992e-10
6.09397e-10
6.10633e-10
6.11705e-10
6.12623e-10
6.13399e-10
6.14045e-10
6.14573e-10
6.14998e-10
6.15331e-10
6.15586e-10
6.15773e-10
6.15904e-10
6.1599e-10
6.16039e-10
6.16059e-10
5.73923e-10
5.74391e-10
5.75017e-10
5.75739e-10
5.76505e-10
5.77274e-10
5.78012e-10
5.78695e-10
5.79309e-10
5.79845e-10
5.803e-10
5.80677e-10
5.80978e-10
5.81211e-10
5.81384e-10
5.81505e-10
5.81581e-10
5.81622e-10
5.81634e-10
5.81626e-10
5.81603e-10
5.81571e-10
5.81536e-10
5.81501e-10
5.81471e-10
5.81449e-10
5.81437e-10
5.54235e-10
5.54211e-10
5.54162e-10
5.54079e-10
5.53956e-10
5.53787e-10
5.53571e-10
5.53311e-10
5.5301e-10
5.52677e-10
5.52317e-10
5.5194e-10
5.51553e-10
5.51166e-10
5.50785e-10
5.50417e-10
5.50068e-10
5.49742e-10
5.49444e-10
5.49176e-10
5.4894e-10
5.48738e-10
5.48571e-10
5.48439e-10
5.48341e-10
5.48276e-10
5.48245e-10
5.31411e-10
5.31088e-10
5.30632e-10
5.30066e-10
5.2941e-10
5.28682e-10
5.27902e-10
5.27087e-10
5.26252e-10
5.25413e-10
5.24582e-10
5.23773e-10
5.22995e-10
5.22256e-10
5.21564e-10
5.20923e-10
5.20337e-10
5.19809e-10
5.1934e-10
5.18931e-10
5.1858e-10
5.18286e-10
5.18048e-10
5.17863e-10
5.17729e-10
5.17643e-10
5.17602e-10
5.07684e-10
5.07198e-10
5.0652e-10
5.05691e-10
5.04747e-10
5.0372e-10
5.0264e-10
5.01531e-10
5.00416e-10
4.99314e-10
4.98241e-10
4.97212e-10
4.96235e-10
4.95321e-10
4.94474e-10
4.93699e-10
4.92998e-10
4.92372e-10
4.91822e-10
4.91346e-10
4.90941e-10
4.90605e-10
4.90335e-10
4.90126e-10
4.89976e-10
4.8988e-10
4.89834e-10
4.8442e-10
4.83857e-10
4.83076e-10
4.82126e-10
4.8105e-10
4.79888e-10
4.78674e-10
4.77436e-10
4.762e-10
4.74987e-10
4.73814e-10
4.72695e-10
4.7164e-10
4.70657e-10
4.69751e-10
4.68926e-10
4.68184e-10
4.67525e-10
4.66947e-10
4.66449e-10
4.66027e-10
4.65678e-10
4.65399e-10
4.65184e-10
4.6503e-10
4.64932e-10
4.64885e-10
4.62356e-10
4.61769e-10
4.60956e-10
4.5997e-10
4.58857e-10
4.57659e-10
4.5641e-10
4.55142e-10
4.53879e-10
4.52645e-10
4.51454e-10
4.50322e-10
4.49257e-10
4.48268e-10
4.4736e-10
4.46534e-10
4.45793e-10
4.45137e-10
4.44562e-10
4.44068e-10
4.4365e-10
4.43305e-10
4.4303e-10
4.42818e-10
4.42667e-10
4.4257e-10
4.42525e-10
4.41823e-10
4.41242e-10
4.40439e-10
4.39465e-10
4.38368e-10
4.37188e-10
4.35961e-10
4.34718e-10
4.33482e-10
4.32275e-10
4.31113e-10
4.3001e-10
4.28974e-10
4.28014e-10
4.27133e-10
4.26333e-10
4.25616e-10
4.24981e-10
4.24427e-10
4.2395e-10
4.23548e-10
4.23216e-10
4.22951e-10
4.22748e-10
4.22603e-10
4.2251e-10
4.22466e-10
4.2291e-10
4.22352e-10
4.21579e-10
4.20643e-10
4.1959e-10
4.18459e-10
4.17283e-10
4.16092e-10
4.14909e-10
4.13756e-10
4.12646e-10
4.11594e-10
4.10606e-10
4.09691e-10
4.08852e-10
4.08091e-10
4.07409e-10
4.06806e-10
4.06279e-10
4.05827e-10
4.05445e-10
4.05131e-10
4.04879e-10
4.04687e-10
4.04549e-10
4.04462e-10
4.0442e-10
4.05574e-10
4.05045e-10
4.04313e-10
4.03427e-10
4.02431e-10
4.0136e-10
4.00249e-10
3.99123e-10
3.98006e-10
3.96917e-10
3.9587e-10
3.94877e-10
3.93945e-10
3.93082e-10
3.92291e-10
3.91574e-10
3.90932e-10
3.90364e-10
3.89868e-10
3.89442e-10
3.89082e-10
3.88787e-10
3.8855e-10
3.88369e-10
3.8824e-10
3.88158e-10
3.88118e-10
3.89704e-10
3.89207e-10
3.8852e-10
3.87688e-10
3.86752e-10
3.85747e-10
3.84704e-10
3.83647e-10
3.82599e-10
3.81577e-10
3.80594e-10
3.79662e-10
3.78789e-10
3.77979e-10
3.77237e-10
3.76565e-10
3.75963e-10
3.7543e-10
3.74964e-10
3.74565e-10
3.74228e-10
3.7395e-10
3.73729e-10
3.73559e-10
3.73438e-10
3.7336e-10
3.73324e-10
3.75166e-10
3.747e-10
3.74057e-10
3.73279e-10
3.72403e-10
3.71463e-10
3.70487e-10
3.69498e-10
3.68517e-10
3.6756e-10
3.66641e-10
3.65768e-10
3.6495e-10
3.64193e-10
3.63498e-10
3.62868e-10
3.62304e-10
3.61805e-10
3.61369e-10
3.60995e-10
3.60679e-10
3.60419e-10
3.60211e-10
3.60053e-10
3.59939e-10
3.59867e-10
3.59832e-10
3.61819e-10
3.61384e-10
3.60783e-10
3.60056e-10
3.59237e-10
3.58358e-10
3.57444e-10
3.5652e-10
3.55602e-10
3.54707e-10
3.53847e-10
3.5303e-10
3.52265e-10
3.51555e-10
3.50905e-10
3.50315e-10
3.49786e-10
3.49319e-10
3.4891e-10
3.48559e-10
3.48264e-10
3.4802e-10
3.47825e-10
3.47676e-10
3.47569e-10
3.47502e-10
3.47469e-10
3.49531e-10
3.49124e-10
3.48562e-10
3.47882e-10
3.47116e-10
3.46293e-10
3.45439e-10
3.44573e-10
3.43714e-10
3.42876e-10
3.4207e-10
3.41305e-10
3.40587e-10
3.39922e-10
3.39312e-10
3.38759e-10
3.38263e-10
3.37824e-10
3.37441e-10
3.37112e-10
3.36834e-10
3.36605e-10
3.36422e-10
3.36282e-10
3.36182e-10
3.36118e-10
3.36088e-10
3.38181e-10
3.378e-10
3.37273e-10
3.36636e-10
3.35918e-10
3.35147e-10
3.34346e-10
3.33534e-10
3.32728e-10
3.31942e-10
3.31186e-10
3.30467e-10
3.29794e-10
3.29169e-10
3.28596e-10
3.28076e-10
3.2761e-10
3.27197e-10
3.26837e-10
3.26527e-10
3.26266e-10
3.2605e-10
3.25878e-10
3.25746e-10
3.25652e-10
3.25592e-10
3.25564e-10
3.2766e-10
3.27302e-10
3.26808e-10
3.26209e-10
3.25535e-10
3.24811e-10
3.24058e-10
3.23296e-10
3.22538e-10
3.21799e-10
3.21087e-10
3.20411e-10
3.19777e-10
3.19189e-10
3.1865e-10
3.1816e-10
3.17721e-10
3.17332e-10
3.16992e-10
3.167e-10
3.16453e-10
3.1625e-10
3.16088e-10
3.15963e-10
3.15874e-10
3.15818e-10
3.15791e-10
3.17873e-10
3.17537e-10
3.17072e-10
3.16509e-10
3.15874e-10
3.15192e-10
3.14483e-10
3.13764e-10
3.1305e-10
3.12353e-10
3.11682e-10
3.11045e-10
3.10447e-10
3.09891e-10
3.09382e-10
3.08919e-10
3.08505e-10
3.08137e-10
3.07816e-10
3.0754e-10
3.07306e-10
3.07114e-10
3.0696e-10
3.06843e-10
3.06758e-10
3.06705e-10
3.06679e-10
3.08739e-10
3.08421e-10
3.07982e-10
3.07451e-10
3.06852e-10
3.06208e-10
3.05538e-10
3.04859e-10
3.04185e-10
3.03526e-10
3.02891e-10
3.02288e-10
3.01722e-10
3.01197e-10
3.00715e-10
3.00277e-10
2.99884e-10
2.99535e-10
2.99231e-10
2.98969e-10
2.98748e-10
2.98566e-10
2.9842e-10
2.98308e-10
2.98228e-10
2.98177e-10
2.98153e-10
3.00183e-10
2.99883e-10
2.99467e-10
2.98964e-10
2.98397e-10
2.97788e-10
2.97154e-10
2.96511e-10
2.95871e-10
2.95247e-10
2.94645e-10
2.94074e-10
2.93537e-10
2.93038e-10
2.9258e-10
2.92164e-10
2.91791e-10
2.9146e-10
2.91171e-10
2.90922e-10
2.90712e-10
2.90538e-10
2.90399e-10
2.90293e-10
2.90217e-10
2.90168e-10
2.90145e-10
2.92142e-10
2.91858e-10
2.91464e-10
2.90986e-10
2.90448e-10
2.8987e-10
2.89268e-10
2.88657e-10
2.8805e-10
2.87456e-10
2.86884e-10
2.8634e-10
2.8583e-10
2.85355e-10
2.84919e-10
2.84523e-10
2.84168e-10
2.83853e-10
2.83577e-10
2.8334e-10
2.83139e-10
2.82974e-10
2.82842e-10
2.8274e-10
2.82667e-10
2.82621e-10
2.82599e-10
2.84562e-10
2.84291e-10
2.83916e-10
2.83462e-10
2.8295e-10
2.82399e-10
2.81826e-10
2.81244e-10
2.80666e-10
2.801e-10
2.79555e-10
2.79037e-10
2.78549e-10
2.78097e-10
2.77681e-10
2.77303e-10
2.76963e-10
2.76662e-10
2.76399e-10
2.76172e-10
2.7598e-10
2.75822e-10
2.75696e-10
2.75599e-10
2.75529e-10
2.75485e-10
2.75464e-10
2.77391e-10
2.77133e-10
2.76776e-10
2.76342e-10
2.75854e-10
2.75328e-10
2.74781e-10
2.74225e-10
2.73673e-10
2.73132e-10
2.72611e-10
2.72116e-10
2.7165e-10
2.71216e-10
2.70818e-10
2.70457e-10
2.70132e-10
2.69843e-10
2.69591e-10
2.69373e-10
2.6919e-10
2.69038e-10
2.68917e-10
2.68824e-10
2.68757e-10
2.68714e-10
2.68694e-10
2.70587e-10
2.7034e-10
2.69998e-10
2.69584e-10
2.69116e-10
2.68613e-10
2.68089e-10
2.67557e-10
2.67028e-10
2.6651e-10
2.66011e-10
2.65535e-10
2.65088e-10
2.64673e-10
2.64291e-10
2.63943e-10
2.63631e-10
2.63354e-10
2.63112e-10
2.62903e-10
2.62727e-10
2.62581e-10
2.62464e-10
2.62374e-10
2.6231e-10
2.62269e-10
2.6225e-10
2.64108e-10
2.63871e-10
2.63543e-10
2.63146e-10
2.62697e-10
2.62214e-10
2.61711e-10
2.612e-10
2.60692e-10
2.60194e-10
2.59714e-10
2.59257e-10
2.58827e-10
2.58428e-10
2.5806e-10
2.57726e-10
2.57425e-10
2.57158e-10
2.56925e-10
2.56723e-10
2.56553e-10
2.56412e-10
2.563e-10
2.56213e-10
2.56151e-10
2.56112e-10
2.56093e-10
2.57918e-10
2.5769e-10
2.57375e-10
2.56992e-10
2.5656e-10
2.56095e-10
2.55611e-10
2.55119e-10
2.54629e-10
2.54149e-10
2.53686e-10
2.53246e-10
2.52831e-10
2.52445e-10
2.5209e-10
2.51767e-10
2.51477e-10
2.51219e-10
2.50993e-10
2.50799e-10
2.50634e-10
2.50498e-10
2.50389e-10
2.50306e-10
2.50246e-10
2.50207e-10
2.50189e-10
2.51982e-10
2.51762e-10
2.51457e-10
2.51088e-10
2.50671e-10
2.50222e-10
2.49754e-10
2.49278e-10
2.48805e-10
2.48341e-10
2.47893e-10
2.47467e-10
2.47065e-10
2.46692e-10
2.46348e-10
2.46035e-10
2.45754e-10
2.45504e-10
2.45285e-10
2.45096e-10
2.44936e-10
2.44804e-10
2.44698e-10
2.44617e-10
2.44559e-10
2.44522e-10
2.44504e-10
2.46265e-10
2.46052e-10
2.45757e-10
2.454e-10
2.44996e-10
2.4456e-10
2.44107e-10
2.43645e-10
2.43186e-10
2.42736e-10
2.42301e-10
2.41887e-10
2.41497e-10
2.41134e-10
2.40799e-10
2.40495e-10
2.40221e-10
2.39978e-10
2.39765e-10
2.39581e-10
2.39426e-10
2.39297e-10
2.39194e-10
2.39115e-10
2.39058e-10
2.39022e-10
2.39005e-10
2.40736e-10
2.40529e-10
2.40242e-10
2.39894e-10
2.39501e-10
2.39078e-10
2.38636e-10
2.38187e-10
2.37739e-10
2.37301e-10
2.36877e-10
2.36473e-10
2.36093e-10
2.35738e-10
2.35412e-10
2.35115e-10
2.34848e-10
2.3461e-10
2.34402e-10
2.34222e-10
2.3407e-10
2.33944e-10
2.33843e-10
2.33765e-10
2.3371e-10
2.33674e-10
2.33657e-10
2.35361e-10
2.35159e-10
2.34879e-10
2.34539e-10
2.34155e-10
2.33741e-10
2.33309e-10
2.3287e-10
2.32432e-10
2.32002e-10
2.31587e-10
2.31192e-10
2.30819e-10
2.30472e-10
2.30152e-10
2.2986e-10
2.29598e-10
2.29364e-10
2.2916e-10
2.28983e-10
2.28833e-10
2.2871e-10
2.28611e-10
2.28534e-10
2.2848e-10
2.28445e-10
2.28428e-10
2.30105e-10
2.29907e-10
2.29632e-10
2.29298e-10
2.28921e-10
2.28515e-10
2.2809e-10
2.27659e-10
2.27228e-10
2.26805e-10
2.26397e-10
2.26007e-10
2.2564e-10
2.25298e-10
2.24982e-10
2.24695e-10
2.24436e-10
2.24205e-10
2.24003e-10
2.23829e-10
2.23681e-10
2.23559e-10
2.23461e-10
2.23385e-10
2.23331e-10
2.23297e-10
2.2328e-10
2.24933e-10
2.24737e-10
2.24466e-10
2.24137e-10
2.23764e-10
2.23363e-10
2.22943e-10
2.22517e-10
2.22091e-10
2.21672e-10
2.21268e-10
2.20882e-10
2.20518e-10
2.20179e-10
2.19866e-10
2.19581e-10
2.19324e-10
2.19095e-10
2.18894e-10
2.18721e-10
2.18574e-10
2.18452e-10
2.18354e-10
2.18279e-10
2.18226e-10
2.18191e-10
2.18175e-10
2.19806e-10
2.19612e-10
2.19342e-10
2.19015e-10
2.18645e-10
2.18246e-10
2.17829e-10
2.17404e-10
2.1698e-10
2.16563e-10
2.1616e-10
2.15776e-10
2.15412e-10
2.15074e-10
2.14761e-10
2.14476e-10
2.14219e-10
2.1399e-10
2.1379e-10
2.13616e-10
2.13469e-10
2.13347e-10
2.13249e-10
2.13174e-10
2.1312e-10
2.13086e-10
2.13069e-10
2.14682e-10
2.14487e-10
2.14218e-10
2.13891e-10
2.1352e-10
2.1312e-10
2.12703e-10
2.12277e-10
2.11851e-10
2.11433e-10
2.11029e-10
2.10642e-10
2.10277e-10
2.09937e-10
2.09622e-10
2.09335e-10
2.09076e-10
2.08846e-10
2.08644e-10
2.08469e-10
2.0832e-10
2.08197e-10
2.08098e-10
2.08023e-10
2.07968e-10
2.07933e-10
2.07916e-10
2.09514e-10
2.09318e-10
2.09047e-10
2.08716e-10
2.08343e-10
2.07939e-10
2.07517e-10
2.07087e-10
2.06657e-10
2.06234e-10
2.05825e-10
2.05433e-10
2.05063e-10
2.04718e-10
2.04399e-10
2.04108e-10
2.03845e-10
2.0361e-10
2.03405e-10
2.03227e-10
2.03076e-10
2.02951e-10
2.0285e-10
2.02773e-10
2.02717e-10
2.02682e-10
2.02665e-10
2.04252e-10
2.04053e-10
2.03776e-10
2.03441e-10
2.0306e-10
2.02649e-10
2.0222e-10
2.01781e-10
2.01342e-10
2.00911e-10
2.00493e-10
2.00093e-10
1.99715e-10
1.99361e-10
1.99035e-10
1.98736e-10
1.98467e-10
1.98227e-10
1.98016e-10
1.97833e-10
1.97678e-10
1.9755e-10
1.97447e-10
1.97367e-10
1.9731e-10
1.97273e-10
1.97256e-10
1.98838e-10
1.98633e-10
1.9835e-10
1.98005e-10
1.97615e-10
1.97193e-10
1.96751e-10
1.96299e-10
1.95848e-10
1.95404e-10
1.94973e-10
1.9456e-10
1.9417e-10
1.93805e-10
1.93468e-10
1.9316e-10
1.92881e-10
1.92633e-10
1.92414e-10
1.92225e-10
1.92064e-10
1.91931e-10
1.91824e-10
1.91742e-10
1.91682e-10
1.91645e-10
1.91626e-10
1.93209e-10
1.92998e-10
1.92704e-10
1.92347e-10
1.91942e-10
1.91504e-10
1.91046e-10
1.90577e-10
1.90108e-10
1.89646e-10
1.89198e-10
1.88769e-10
1.88362e-10
1.87982e-10
1.8763e-10
1.87309e-10
1.87018e-10
1.86758e-10
1.8653e-10
1.86332e-10
1.86164e-10
1.86025e-10
1.85913e-10
1.85827e-10
1.85765e-10
1.85725e-10
1.85706e-10
1.87297e-10
1.87076e-10
1.86769e-10
1.86396e-10
1.85972e-10
1.85514e-10
1.85034e-10
1.84543e-10
1.84051e-10
1.83566e-10
1.83096e-10
1.82645e-10
1.82217e-10
1.81818e-10
1.81448e-10
1.81109e-10
1.80803e-10
1.80529e-10
1.80289e-10
1.8008e-10
1.79903e-10
1.79756e-10
1.79638e-10
1.79547e-10
1.79481e-10
1.79439e-10
1.79419e-10
1.81027e-10
1.80795e-10
1.80471e-10
1.80077e-10
1.7963e-10
1.79146e-10
1.78639e-10
1.7812e-10
1.776e-10
1.77087e-10
1.76589e-10
1.76111e-10
1.75658e-10
1.75234e-10
1.74842e-10
1.74482e-10
1.74157e-10
1.73867e-10
1.73611e-10
1.7339e-10
1.73201e-10
1.73045e-10
1.72919e-10
1.72822e-10
1.72753e-10
1.72708e-10
1.72687e-10
1.74322e-10
1.74075e-10
1.73731e-10
1.73312e-10
1.72837e-10
1.72322e-10
1.71782e-10
1.71229e-10
1.70675e-10
1.70128e-10
1.69597e-10
1.69087e-10
1.68604e-10
1.68152e-10
1.67732e-10
1.67349e-10
1.67001e-10
1.66691e-10
1.66417e-10
1.6618e-10
1.65979e-10
1.65811e-10
1.65677e-10
1.65573e-10
1.65498e-10
1.65451e-10
1.65428e-10
1.67103e-10
1.66838e-10
1.6647e-10
1.66022e-10
1.65514e-10
1.64962e-10
1.64384e-10
1.63792e-10
1.63198e-10
1.62613e-10
1.62043e-10
1.61496e-10
1.60978e-10
1.60492e-10
1.60042e-10
1.5963e-10
1.59257e-10
1.58924e-10
1.5863e-10
1.58375e-10
1.58159e-10
1.57979e-10
1.57834e-10
1.57723e-10
1.57642e-10
1.57591e-10
1.57567e-10
1.59293e-10
1.59009e-10
1.58615e-10
1.58133e-10
1.57587e-10
1.56995e-10
1.56373e-10
1.55737e-10
1.55098e-10
1.54468e-10
1.53856e-10
1.53268e-10
1.5271e-10
1.52187e-10
1.51703e-10
1.51259e-10
1.50858e-10
1.50499e-10
1.50183e-10
1.49909e-10
1.49676e-10
1.49482e-10
1.49327e-10
1.49207e-10
1.4912e-10
1.49065e-10
1.49039e-10
1.50831e-10
1.50525e-10
1.50101e-10
1.49583e-10
1.48995e-10
1.48358e-10
1.4769e-10
1.47005e-10
1.46318e-10
1.45641e-10
1.44981e-10
1.44349e-10
1.43749e-10
1.43187e-10
1.42666e-10
1.42189e-10
1.41757e-10
1.41371e-10
1.41031e-10
1.40736e-10
1.40486e-10
1.40278e-10
1.40111e-10
1.39982e-10
1.39889e-10
1.3983e-10
1.39802e-10
1.41672e-10
1.41344e-10
1.40888e-10
1.40332e-10
1.39701e-10
1.39017e-10
1.383e-10
1.37565e-10
1.36829e-10
1.36102e-10
1.35395e-10
1.34717e-10
1.34074e-10
1.33471e-10
1.32913e-10
1.32402e-10
1.3194e-10
1.31527e-10
1.31163e-10
1.30848e-10
1.30581e-10
1.30359e-10
1.3018e-10
1.30042e-10
1.29943e-10
1.2988e-10
1.2985e-10
1.31808e-10
1.31458e-10
1.30971e-10
1.30378e-10
1.29704e-10
1.28975e-10
1.28209e-10
1.27426e-10
1.26641e-10
1.25867e-10
1.25114e-10
1.24393e-10
1.23709e-10
1.23069e-10
1.22476e-10
1.21933e-10
1.21443e-10
1.21005e-10
1.2062e-10
1.20286e-10
1.20003e-10
1.19768e-10
1.19579e-10
1.19434e-10
1.19329e-10
1.19263e-10
1.19231e-10
1.2128e-10
1.2091e-10
1.20395e-10
1.19768e-10
1.19056e-10
1.18286e-10
1.17479e-10
1.16653e-10
1.15826e-10
1.15011e-10
1.14219e-10
1.13461e-10
1.12743e-10
1.12071e-10
1.11449e-10
1.10881e-10
1.10368e-10
1.0991e-10
1.09508e-10
1.0916e-10
1.08864e-10
1.0862e-10
1.08424e-10
1.08273e-10
1.08164e-10
1.08095e-10
1.08062e-10
1.10195e-10
1.09809e-10
1.09272e-10
1.08619e-10
1.0788e-10
1.07079e-10
1.06241e-10
1.05385e-10
1.04528e-10
1.03685e-10
1.02867e-10
1.02084e-10
1.01344e-10
1.00653e-10
1.00015e-10
9.94322e-11
9.89066e-11
9.84387e-11
9.8028e-11
9.76733e-11
9.73729e-11
9.71245e-11
9.69254e-11
9.67726e-11
9.6663e-11
9.65933e-11
9.65601e-11
9.87434e-11
9.83499e-11
9.7804e-11
9.71403e-11
9.63892e-11
9.55777e-11
9.47294e-11
9.38647e-11
9.30011e-11
9.21533e-11
9.13334e-11
9.05513e-11
8.98147e-11
8.91296e-11
8.85003e-11
8.79298e-11
8.74197e-11
8.69701e-11
8.65788e-11
8.62435e-11
8.59615e-11
8.57299e-11
8.55455e-11
8.54049e-11
8.53047e-11
8.52414e-11
8.52114e-11
8.72546e-11
8.68742e-11
8.63502e-11
8.57184e-11
8.50064e-11
8.42394e-11
8.34396e-11
8.26265e-11
8.18166e-11
8.10234e-11
8.02583e-11
7.95303e-11
7.88461e-11
7.82109e-11
7.7628e-11
7.70997e-11
7.66265e-11
7.62085e-11
7.58445e-11
7.55328e-11
7.52711e-11
7.50566e-11
7.48863e-11
7.4757e-11
7.46651e-11
7.46074e-11
7.45802e-11
7.64878e-11
7.61315e-11
7.56385e-11
7.50412e-11
7.43678e-11
7.36433e-11
7.28894e-11
7.21249e-11
7.13652e-11
7.06236e-11
6.99103e-11
6.92337e-11
6.86001e-11
6.80138e-11
6.74779e-11
6.69939e-11
6.65623e-11
6.61827e-11
6.58536e-11
6.55732e-11
6.53391e-11
6.51483e-11
6.49978e-11
6.48842e-11
6.48042e-11
6.47542e-11
6.47308e-11
6.64593e-11
6.61335e-11
6.56832e-11
6.51386e-11
6.45264e-11
6.38698e-11
6.31891e-11
6.25016e-11
6.18216e-11
6.11607e-11
6.05289e-11
5.99332e-11
5.93788e-11
5.88692e-11
5.84067e-11
5.79922e-11
5.76255e-11
5.73056e-11
5.70309e-11
5.67991e-11
5.66075e-11
5.64532e-11
5.6333e-11
5.62434e-11
5.61812e-11
5.61429e-11
5.61254e-11
5.75255e-11
5.72464e-11
5.68618e-11
5.63986e-11
5.58804e-11
5.5328e-11
5.47592e-11
5.4189e-11
5.36297e-11
5.30913e-11
5.25814e-11
5.21056e-11
5.16679e-11
5.12707e-11
5.0915e-11
5.06011e-11
5.03279e-11
5.0094e-11
4.98971e-11
4.97347e-11
4.96038e-11
4.95012e-11
4.94238e-11
4.93683e-11
4.93312e-11
4.93095e-11
4.93001e-11
5.01491e-11
4.99341e-11
4.96397e-11
4.92877e-11
4.88976e-11
4.84866e-11
4.80688e-11
4.76564e-11
4.72589e-11
4.68836e-11
4.6536e-11
4.62197e-11
4.59369e-11
4.56886e-11
4.54746e-11
4.52937e-11
4.51443e-11