/*--------------------------------*- C++ -*----------------------------------*\
| =========                 |                                                 |
| \\      /  F ield         | OpenFOAM: The Open Source CFD Toolbox           |
|  \\    /   O peration     | Version:  2106                                  |
|   \\  /    A nd           | Website:  www.openfoam.com                      |
|    \\/     M anipulation  |                                                 |
\*---------------------------------------------------------------------------*/
FoamFile
{
    version     2.0;
    format      ascii;
    arch        "LSB;label=32;scalar=64";
    class       volScalarField;
    location    "80.00032";
    object      CH4_0;
}
// * * * * * * * * * * * * * * * * * * * * * * * * * * * * * * * * * * * * * //

dimensions      [0 0 0 0 0 0 0];

internalField   nonuniform List<scalar> 
3360
(
0.000419988
0.000419988
0.000419988
0.000419988
0.000419988
0.000419988
0.000419988
0.000419988
0.000419988
0.000419988
0.000419988
0.000419988
0.000419988
0.000419988
0.000419988
0.000419988
0.000419988
0.000419988
0.000419988
0.000419988
0.000419988
0.000419988
0.000419988
0.000419988
0.000419988
0.000419988
0.000419988
0.000419988
0.000419988
0.000419988
0.000419988
0.000419988
0.000419988
0.000419988
0.000419988
0.000419988
0.000419988
0.000419988
0.000419988
0.000419988
0.000419988
0.000419988
0.000419988
0.000419988
0.000419988
0.000419988
0.000419988
0.000419988
0.000419988
0.000419988
0.000419988
0.000419988
0.000419988
0.000419988
0.000419988
0.000419988
0.000419988
0.000419988
0.000419988
0.000419988
0.000419988
0.000419988
0.000419988
0.000419988
0.000419988
0.000419988
0.000419988
0.000419988
0.000419988
0.000419988
0.000419988
0.000419988
0.000419988
0.000419988
0.000419988
0.000419988
0.000419988
0.000419988
0.000419988
0.000419988
0.000419988
0.000419988
0.000419988
0.000419988
0.000419988
0.000419988
0.000419988
0.000419988
0.000419988
0.000419988
0.000419988
0.000419988
0.000419988
0.000419988
0.000419988
0.000419988
0.000419988
0.000419988
0.000419988
0.000419988
0.000419988
0.000419988
0.000419988
0.000419988
0.000419988
0.000419988
0.000419988
0.000419988
0.000419988
0.000419988
0.000419988
0.000419988
0.000419988
0.000419988
0.000419988
0.000419988
0.000419988
0.000419988
0.000419988
0.000419988
0.000419988
0.000419988
0.000419988
0.000419988
0.000419988
0.000419988
0.000419988
0.000419988
0.000419988
0.000419988
0.000419988
0.000419988
0.000419988
0.000419988
0.000419988
0.000419988
0.000419988
0.000419988
0.000419988
0.000419988
0.000419988
0.000419988
0.000419988
0.000419988
0.000419988
0.000419988
0.000419988
0.000419988
0.000419988
0.000419988
0.000419988
0.000419988
0.000419988
0.000419988
0.000419988
0.000419988
0.000419988
0.000419988
0.000419988
0.000419988
0.000419988
0.000419988
0.000419988
0.000419988
0.000419988
0.000419988
0.000419988
0.000419988
0.000419988
0.000419988
0.000419988
0.000419988
0.000419988
0.000419988
0.000419988
0.000419988
0.000419988
0.000419988
0.000419988
0.000419988
0.000419988
0.000419988
0.000419988
0.000419988
0.000419988
0.000419988
0.000419988
0.000419988
0.000419988
0.000419988
0.000419988
0.000419988
0.000419988
0.000419988
0.000419988
0.000419988
0.000419988
0.000419988
0.000419988
0.000419988
0.000419988
0.000419988
0.000419988
0.000419988
0.000419988
0.000419988
0.000419988
0.000419988
0.000419988
0.000419988
0.000419988
0.000419988
0.000419988
0.000419988
0.000419988
0.000419988
0.000419988
0.000419988
0.000419988
0.000419988
0.000419988
0.000419988
0.000419988
0.000419988
0.000419988
0.000419988
0.000419988
0.000419988
0.000419988
0.000419988
0.000419988
0.000419988
0.000419988
0.000419988
0.000419988
0.000419988
0.000419988
0.000419988
0.000419988
0.000419988
0.000419988
0.000419988
0.000419988
0.000419988
0.000419988
0.000419988
0.000419988
0.000419988
0.000419988
0.000419988
0.000419988
0.000419988
0.000419988
0.000419988
0.000419988
0.000419988
0.000419988
0.000419988
0.000419988
0.000419988
0.000419988
0.000419988
0.000419988
0.000419988
0.000419988
0.000419988
0.000419988
0.000419988
0.000419988
0.000419988
0.000419988
0.000419988
0.000419988
0.000419988
0.000419988
0.000419988
0.000419988
0.000419988
0.000419988
0.000419988
0.000419988
0.000419988
0.000419988
0.000419988
0.000419988
0.000419988
0.000419988
0.000419988
0.000419988
0.000419988
0.000419988
0.000419988
0.000419988
0.000419988
0.000419988
0.000419988
0.000419988
0.000419988
0.000419988
0.000419988
0.000419988
0.000419988
0.000419988
0.000419988
0.000419988
0.000419988
0.000419988
0.000419988
0.000419988
0.000419988
0.000419988
0.000419988
0.000419988
0.000419988
0.000419988
0.000419988
0.000419988
0.000419988
0.000419988
0.000419988
0.000419988
0.000419988
0.000419988
0.000419988
0.000419988
0.000419988
0.000419988
0.000419988
0.000419988
0.000419988
0.000419988
0.000419988
0.000419988
0.000419988
0.000419988
0.000419988
0.000419988
0.000419988
0.000419988
0.000419988
0.000419988
0.000419988
0.000419988
0.000419988
0.000419988
0.000419988
0.000419988
0.000419988
0.000419988
0.000419988
0.000419988
0.000419988
0.000419988
0.000419988
0.000419988
0.000419988
0.000419988
0.000419988
0.000419988
0.000419988
0.000419988
0.000419988
0.000419988
0.000419988
0.000419988
0.000419988
0.000419988
0.000419988
0.000419988
0.000419988
0.000419988
0.000419988
0.000419988
0.000419988
0.000419988
0.000419988
0.000419988
0.000419988
0.000419988
0.000419988
0.000419988
0.000419988
0.000419988
0.000419988
0.000419988
0.000419988
0.000419988
0.000419988
0.000419988
0.000419988
0.000419988
0.000419988
0.000419988
0.000419988
0.000419988
0.000419988
0.000419988
0.000419988
0.000419988
0.000419988
0.000419988
0.000419988
0.000419988
0.000419988
0.000419988
0.000419988
0.000419988
0.000419988
0.000419988
0.000419988
0.000419988
0.000419988
0.000419988
0.000419988
0.000419988
0.000419988
0.000419988
0.000419988
0.000419988
0.000419988
0.000419988
0.000419988
0.000419988
0.000419988
0.000419988
0.000419988
0.000419988
0.000419988
0.000419988
0.000419988
0.000419988
0.000419988
0.000419988
0.000419988
0.000419988
0.000419988
0.000419988
0.000419988
0.000419988
0.000419988
0.000419988
0.000419988
0.000419988
0.000419988
0.000419988
0.000419988
0.000419988
0.000419988
0.000419988
0.000419988
0.000419988
0.000419988
0.000419988
0.000419988
0.000419988
0.000419988
0.000419988
0.000419988
0.000419988
0.000419988
0.000419988
0.000419988
0.000419988
0.000419988
0.000419988
0.000419988
0.000419988
0.000419988
0.000419988
0.000419988
0.000419988
0.000419988
0.000419988
0.000419988
0.000419988
0.000419988
0.000419988
0.000419988
0.000419988
0.000419988
0.000419988
0.000419988
0.000419988
0.000419988
0.000419988
0.000419988
0.000419988
0.000419988
0.000419988
0.000419988
0.000419988
0.000419988
0.000419988
0.000419988
0.000419988
0.000419988
0.000419988
0.000419988
0.000419988
0.000419988
0.000419988
0.000419988
0.000419988
0.000419988
0.000419988
0.000419988
0.000419988
0.000419988
0.000419988
0.000419988
0.000419988
0.000419988
0.000419988
0.000419988
0.000419988
0.000419988
0.000419988
0.000419988
0.000419988
0.000419988
0.000419988
0.000419988
0.000419988
0.000419988
0.000419988
0.000419988
0.000419988
0.000419988
0.000419988
0.000419988
0.000419988
0.000419988
0.000419988
0.000419988
0.000419988
0.000419988
0.000419988
0.000419988
0.000419988
0.000419988
0.000419988
0.000419988
0.000419988
0.000419988
0.000419988
0.000419988
0.000419988
0.000419988
0.000419988
0.000419988
0.000419988
0.000419988
0.000419988
0.000419988
0.000419988
0.000419988
0.000419988
0.000419988
0.000419988
0.000419988
0.000419988
0.000419988
0.000419988
0.000419988
0.000419988
0.000419988
0.000419988
0.000419988
0.000419988
0.000419988
0.000419988
0.000419988
0.000419988
0.000419988
0.000419988
0.000419988
0.000419989
0.000419989
0.000419989
0.000419989
0.000419989
0.000419989
0.000419989
0.000419989
0.000419989
0.000419989
0.000419989
0.000419989
0.000419989
0.000419989
0.000419989
0.000419989
0.000419989
0.000419989
0.000419989
0.000419989
0.000419989
0.000419989
0.000419989
0.000419989
0.000419989
0.000419989
0.000419989
0.000419989
0.000419989
0.000419989
0.000419989
0.00041999
0.00041999
0.00041999
0.00041999
0.00041999
0.00041999
0.00041999
0.00041999
0.00041999
0.00041999
0.00041999
0.00041999
0.00041999
0.00041999
0.00041999
0.00041999
0.00041999
0.00041999
0.00041999
0.00041999
0.000419991
0.000419991
0.000419991
0.000419991
0.000419991
0.000419991
0.000419992
0.000419992
0.000419992
0.000419992
0.000419992
0.000419992
0.000419992
0.000419992
0.000419992
0.000419992
0.000419993
0.000419993
0.000419993
0.000419993
0.000419993
0.000419992
0.000419993
0.000419993
0.000419993
0.000419993
0.000419994
0.000419994
0.000419994
0.000419995
0.000419995
0.000419996
0.000419996
0.000419996
0.000419997
0.000419997
0.000419997
0.000419997
0.000419998
0.000419998
0.000419998
0.000419998
0.000419998
0.000419998
0.000419998
0.000419998
0.000419998
0.000419998
0.000419998
0.000419999
0.000419999
0.00042
0.00042
0.000420001
0.000420002
0.000420003
0.000420003
0.000420004
0.000420005
0.000420006
0.000420006
0.000420007
0.000420008
0.000420008
0.000420009
0.000420009
0.000420009
0.00042001
0.00042001
0.00042001
0.00042001
0.000420011
0.000420011
0.000420011
0.000420011
0.000420011
0.000420012
0.000420013
0.000420014
0.000420015
0.000420017
0.000420018
0.00042002
0.000420021
0.000420023
0.000420024
0.000420026
0.000420027
0.000420029
0.00042003
0.000420031
0.000420032
0.000420033
0.000420033
0.000420034
0.000420035
0.000420035
0.000420036
0.000420036
0.000420036
0.000420036
0.000420036
0.000420038
0.00042004
0.000420042
0.000420044
0.000420046
0.000420049
0.000420052
0.000420055
0.000420058
0.000420061
0.000420064
0.000420067
0.000420069
0.000420072
0.000420074
0.000420076
0.000420078
0.00042008
0.000420081
0.000420082
0.000420084
0.000420084
0.000420085
0.000420086
0.000420086
0.000420086
0.000420086
0.000420092
0.000420095
0.000420098
0.000420102
0.000420107
0.000420112
0.000420118
0.000420123
0.000420129
0.000420135
0.00042014
0.000420145
0.00042015
0.000420155
0.000420159
0.000420163
0.000420166
0.000420169
0.000420172
0.000420174
0.000420176
0.000420178
0.000420179
0.00042018
0.000420181
0.000420181
0.000420182
0.000420194
0.000420198
0.000420204
0.000420212
0.00042022
0.00042023
0.00042024
0.00042025
0.00042026
0.00042027
0.00042028
0.000420289
0.000420298
0.000420306
0.000420314
0.000420321
0.000420327
0.000420333
0.000420338
0.000420342
0.000420345
0.000420348
0.000420351
0.000420352
0.000420354
0.000420354
0.000420355
0.000420374
0.000420381
0.000420392
0.000420405
0.00042042
0.000420436
0.000420453
0.000420471
0.000420488
0.000420506
0.000420523
0.000420539
0.000420555
0.000420569
0.000420582
0.000420594
0.000420605
0.000420615
0.000420624
0.000420631
0.000420637
0.000420642
0.000420646
0.00042065
0.000420652
0.000420653
0.000420654
0.000420673
0.000420686
0.000420703
0.000420725
0.000420749
0.000420776
0.000420804
0.000420832
0.000420861
0.00042089
0.000420918
0.000420944
0.00042097
0.000420993
0.000421015
0.000421035
0.000421053
0.000421069
0.000421083
0.000421096
0.000421106
0.000421114
0.000421121
0.000421126
0.00042113
0.000421132
0.000421133
0.000421136
0.000421155
0.000421181
0.000421214
0.000421251
0.000421291
0.000421334
0.000421377
0.000421421
0.000421464
0.000421506
0.000421547
0.000421585
0.000421621
0.000421654
0.000421684
0.000421711
0.000421735
0.000421756
0.000421774
0.00042179
0.000421803
0.000421813
0.000421821
0.000421826
0.00042183
0.000421831
0.000421795
0.000421822
0.000421859
0.000421905
0.000421956
0.000422012
0.000422071
0.000422131
0.000422192
0.000422251
0.000422309
0.000422364
0.000422416
0.000422465
0.000422509
0.00042255
0.000422587
0.00042262
0.000422648
0.000422672
0.000422693
0.00042271
0.000422724
0.000422734
0.000422742
0.000422746
0.000422749
0.000422667
0.000422701
0.000422749
0.000422807
0.000422873
0.000422944
0.000423018
0.000423094
0.00042317
0.000423244
0.000423316
0.000423384
0.000423449
0.000423509
0.000423564
0.000423614
0.000423659
0.000423698
0.000423733
0.000423763
0.000423788
0.000423808
0.000423825
0.000423837
0.000423846
0.000423852
0.000423854
0.000423741
0.000423781
0.000423837
0.000423906
0.000423983
0.000424066
0.000424153
0.000424241
0.000424328
0.000424414
0.000424497
0.000424575
0.000424649
0.000424717
0.00042478
0.000424836
0.000424887
0.000424932
0.000424971
0.000425004
0.000425032
0.000425055
0.000425073
0.000425087
0.000425097
0.000425104
0.000425107
0.000424986
0.000425031
0.000425093
0.000425169
0.000425254
0.000425345
0.00042544
0.000425536
0.000425632
0.000425725
0.000425814
0.000425899
0.000425978
0.000426051
0.000426119
0.000426179
0.000426233
0.000426281
0.000426323
0.000426358
0.000426388
0.000426412
0.000426432
0.000426447
0.000426457
0.000426464
0.000426467
0.000426365
0.000426412
0.000426478
0.000426557
0.000426646
0.000426742
0.000426841
0.000426942
0.000427042
0.000427139
0.000427231
0.000427319
0.000427402
0.000427478
0.000427547
0.00042761
0.000427666
0.000427715
0.000427758
0.000427794
0.000427825
0.00042785
0.000427871
0.000427886
0.000427897
0.000427904
0.000427907
0.000427837
0.000427886
0.000427953
0.000428034
0.000428125
0.000428222
0.000428323
0.000428426
0.000428527
0.000428625
0.00042872
0.000428809
0.000428892
0.000428969
0.000429039
0.000429103
0.000429159
0.000429209
0.000429253
0.00042929
0.000429321
0.000429347
0.000429367
0.000429383
0.000429394
0.000429401
0.000429404
0.000429372
0.000429421
0.000429488
0.000429569
0.00042966
0.000429758
0.00042986
0.000429962
0.000430063
0.000430162
0.000430256
0.000430346
0.000430429
0.000430506
0.000430577
0.00043064
0.000430697
0.000430747
0.00043079
0.000430828
0.000430859
0.000430885
0.000430905
0.000430921
0.000430932
0.000430939
0.000430942
0.000430946
0.000430995
0.000431061
0.000431142
0.000431233
0.00043133
0.000431431
0.000431533
0.000431634
0.000431732
0.000431826
0.000431915
0.000431998
0.000432075
0.000432145
0.000432208
0.000432265
0.000432315
0.000432358
0.000432395
0.000432427
0.000432452
0.000432473
0.000432488
0.0004325
0.000432507
0.00043251
0.000432544
0.000432592
0.000432658
0.000432738
0.000432828
0.000432925
0.000433025
0.000433126
0.000433226
0.000433323
0.000433417
0.000433505
0.000433588
0.000433664
0.000433734
0.000433797
0.000433854
0.000433903
0.000433947
0.000433984
0.000434015
0.000434041
0.000434061
0.000434077
0.000434088
0.000434095
0.000434098
0.000434157
0.000434204
0.00043427
0.000434349
0.000434438
0.000434534
0.000434633
0.000434733
0.000434833
0.00043493
0.000435022
0.00043511
0.000435192
0.000435268
0.000435338
0.000435401
0.000435457
0.000435506
0.00043555
0.000435587
0.000435618
0.000435643
0.000435664
0.000435679
0.000435691
0.000435698
0.000435701
0.000435778
0.000435825
0.00043589
0.000435968
0.000436057
0.000436152
0.000436251
0.00043635
0.000436449
0.000436545
0.000436638
0.000436725
0.000436807
0.000436883
0.000436952
0.000437014
0.00043707
0.00043712
0.000437163
0.0004372
0.000437231
0.000437256
0.000437277
0.000437292
0.000437304
0.000437311
0.000437314
0.000437404
0.000437451
0.000437515
0.000437594
0.000437682
0.000437776
0.000437874
0.000437973
0.000438072
0.000438168
0.00043826
0.000438347
0.000438428
0.000438504
0.000438573
0.000438635
0.000438691
0.00043874
0.000438783
0.00043882
0.000438851
0.000438877
0.000438897
0.000438913
0.000438924
0.000438931
0.000438934
0.000439034
0.00043908
0.000439145
0.000439223
0.00043931
0.000439405
0.000439502
0.000439601
0.000439699
0.000439795
0.000439887
0.000439974
0.000440055
0.00044013
0.000440199
0.000440262
0.000440317
0.000440367
0.00044041
0.000440446
0.000440477
0.000440503
0.000440523
0.000440539
0.00044055
0.000440557
0.00044056
0.000440667
0.000440713
0.000440777
0.000440855
0.000440942
0.000441036
0.000441134
0.000441233
0.000441331
0.000441426
0.000441518
0.000441604
0.000441686
0.000441761
0.00044183
0.000441892
0.000441948
0.000441997
0.00044204
0.000442077
0.000442108
0.000442133
0.000442154
0.000442169
0.00044218
0.000442187
0.000442191
0.000442302
0.000442348
0.000442412
0.00044249
0.000442577
0.000442671
0.000442769
0.000442867
0.000442965
0.00044306
0.000443152
0.000443239
0.00044332
0.000443395
0.000443464
0.000443526
0.000443582
0.000443631
0.000443674
0.000443711
0.000443742
0.000443768
0.000443788
0.000443804
0.000443815
0.000443822
0.000443825
0.000443939
0.000443986
0.00044405
0.000444127
0.000444215
0.000444309
0.000444406
0.000444505
0.000444602
0.000444698
0.000444789
0.000444876
0.000444957
0.000445033
0.000445101
0.000445164
0.00044522
0.000445269
0.000445312
0.000445349
0.00044538
0.000445405
0.000445426
0.000445441
0.000445452
0.000445459
0.000445463
0.000445579
0.000445626
0.00044569
0.000445767
0.000445855
0.000445949
0.000446046
0.000446145
0.000446243
0.000446338
0.00044643
0.000446516
0.000446598
0.000446673
0.000446742
0.000446804
0.00044686
0.00044691
0.000446953
0.000446989
0.00044702
0.000447046
0.000447066
0.000447082
0.000447093
0.0004471
0.000447104
0.000447222
0.000447268
0.000447332
0.00044741
0.000447497
0.000447591
0.000447689
0.000447788
0.000447885
0.000447981
0.000448073
0.00044816
0.000448241
0.000448316
0.000448385
0.000448448
0.000448504
0.000448553
0.000448596
0.000448633
0.000448664
0.00044869
0.00044871
0.000448726
0.000448737
0.000448744
0.000448748
0.000448867
0.000448913
0.000448977
0.000449055
0.000449143
0.000449237
0.000449334
0.000449433
0.000449531
0.000449627
0.000449719
0.000449806
0.000449887
0.000449963
0.000450032
0.000450094
0.00045015
0.0004502
0.000450243
0.00045028
0.000450311
0.000450336
0.000450357
0.000450373
0.000450384
0.000450391
0.000450394
0.000450514
0.000450561
0.000450625
0.000450703
0.00045079
0.000450885
0.000450982
0.000451081
0.000451179
0.000451275
0.000451367
0.000451454
0.000451536
0.000451611
0.000451681
0.000451743
0.000451799
0.000451849
0.000451892
0.000451929
0.00045196
0.000451986
0.000452006
0.000452022
0.000452033
0.00045204
0.000452044
0.000452164
0.000452211
0.000452275
0.000452353
0.000452441
0.000452535
0.000452633
0.000452732
0.00045283
0.000452926
0.000453018
0.000453105
0.000453187
0.000453263
0.000453332
0.000453395
0.000453451
0.000453501
0.000453544
0.000453581
0.000453612
0.000453638
0.000453658
0.000453674
0.000453685
0.000453693
0.000453696
0.000453817
0.000453863
0.000453928
0.000454006
0.000454094
0.000454188
0.000454286
0.000454385
0.000454484
0.00045458
0.000454672
0.000454759
0.000454841
0.000454917
0.000454986
0.000455049
0.000455105
0.000455155
0.000455198
0.000455235
0.000455267
0.000455292
0.000455313
0.000455329
0.00045534
0.000455347
0.000455351
0.000455472
0.000455518
0.000455583
0.000455661
0.000455749
0.000455843
0.000455942
0.000456041
0.000456139
0.000456236
0.000456328
0.000456415
0.000456497
0.000456573
0.000456643
0.000456706
0.000456762
0.000456812
0.000456855
0.000456892
0.000456923
0.000456949
0.00045697
0.000456986
0.000456997
0.000457004
0.000457007
0.000457129
0.000457175
0.00045724
0.000457318
0.000457406
0.000457501
0.000457599
0.000457699
0.000457797
0.000457893
0.000457986
0.000458073
0.000458156
0.000458231
0.000458301
0.000458364
0.00045842
0.00045847
0.000458514
0.000458551
0.000458582
0.000458608
0.000458629
0.000458644
0.000458656
0.000458663
0.000458666
0.000458787
0.000458834
0.000458899
0.000458977
0.000459065
0.00045916
0.000459258
0.000459358
0.000459457
0.000459553
0.000459646
0.000459733
0.000459815
0.000459892
0.000459961
0.000460024
0.000460081
0.00046013
0.000460174
0.000460211
0.000460243
0.000460268
0.000460289
0.000460305
0.000460316
0.000460323
0.000460327
0.000460448
0.000460495
0.000460559
0.000460638
0.000460726
0.000460821
0.000460919
0.000461019
0.000461118
0.000461214
0.000461307
0.000461395
0.000461477
0.000461553
0.000461623
0.000461686
0.000461742
0.000461792
0.000461836
0.000461873
0.000461904
0.00046193
0.000461951
0.000461967
0.000461978
0.000461985
0.000461988
0.000462109
0.000462156
0.000462221
0.000462299
0.000462388
0.000462483
0.000462581
0.000462681
0.00046278
0.000462876
0.000462969
0.000463057
0.000463139
0.000463215
0.000463285
0.000463348
0.000463404
0.000463454
0.000463498
0.000463535
0.000463567
0.000463593
0.000463613
0.000463629
0.00046364
0.000463647
0.000463651
0.000463771
0.000463818
0.000463883
0.000463962
0.00046405
0.000464145
0.000464243
0.000464343
0.000464442
0.000464539
0.000464631
0.000464719
0.000464801
0.000464878
0.000464947
0.00046501
0.000465067
0.000465117
0.00046516
0.000465198
0.000465229
0.000465255
0.000465276
0.000465292
0.000465303
0.00046531
0.000465313
0.000465434
0.00046548
0.000465545
0.000465624
0.000465712
0.000465807
0.000465905
0.000466005
0.000466104
0.000466201
0.000466293
0.000466381
0.000466463
0.000466539
0.000466609
0.000466672
0.000466729
0.000466779
0.000466822
0.00046686
0.000466891
0.000466917
0.000466937
0.000466953
0.000466965
0.000466972
0.000466975
0.000467095
0.000467142
0.000467206
0.000467285
0.000467373
0.000467468
0.000467566
0.000467666
0.000467765
0.000467861
0.000467954
0.000468042
0.000468124
0.0004682
0.000468269
0.000468333
0.000468389
0.000468439
0.000468482
0.00046852
0.000468551
0.000468577
0.000468598
0.000468613
0.000468625
0.000468632
0.000468635
0.000468754
0.000468801
0.000468865
0.000468944
0.000469032
0.000469127
0.000469225
0.000469324
0.000469423
0.000469519
0.000469612
0.000469699
0.000469782
0.000469858
0.000469927
0.00046999
0.000470046
0.000470096
0.00047014
0.000470177
0.000470208
0.000470234
0.000470255
0.00047027
0.000470282
0.000470289
0.000470292
0.00047041
0.000470457
0.000470521
0.000470599
0.000470687
0.000470782
0.00047088
0.000470979
0.000471078
0.000471174
0.000471266
0.000471353
0.000471435
0.000471511
0.00047158
0.000471643
0.0004717
0.000471749
0.000471792
0.00047183
0.000471861
0.000471887
0.000471907
0.000471923
0.000471934
0.000471941
0.000471945
0.000472061
0.000472108
0.000472172
0.00047225
0.000472338
0.000472432
0.00047253
0.000472629
0.000472727
0.000472823
0.000472915
0.000473002
0.000473083
0.000473159
0.000473228
0.000473291
0.000473347
0.000473396
0.000473439
0.000473476
0.000473507
0.000473533
0.000473554
0.000473569
0.00047358
0.000473587
0.000473591
0.000473706
0.000473752
0.000473816
0.000473894
0.000473981
0.000474075
0.000474172
0.000474271
0.000474369
0.000474464
0.000474555
0.000474642
0.000474723
0.000474799
0.000474867
0.00047493
0.000474985
0.000475035
0.000475078
0.000475114
0.000475145
0.000475171
0.000475191
0.000475207
0.000475218
0.000475225
0.000475228
0.000475342
0.000475388
0.000475451
0.000475528
0.000475615
0.000475708
0.000475805
0.000475903
0.000476
0.000476095
0.000476186
0.000476272
0.000476353
0.000476428
0.000476496
0.000476558
0.000476613
0.000476662
0.000476705
0.000476741
0.000476772
0.000476798
0.000476818
0.000476833
0.000476844
0.000476851
0.000476855
0.000476965
0.000477011
0.000477074
0.000477151
0.000477237
0.00047733
0.000477426
0.000477523
0.000477619
0.000477713
0.000477803
0.000477889
0.000477969
0.000478043
0.000478111
0.000478172
0.000478227
0.000478276
0.000478318
0.000478354
0.000478385
0.00047841
0.00047843
0.000478445
0.000478456
0.000478463
0.000478466
0.000478574
0.000478619
0.000478682
0.000478758
0.000478843
0.000478935
0.00047903
0.000479126
0.000479221
0.000479314
0.000479404
0.000479488
0.000479567
0.000479641
0.000479708
0.000479768
0.000479823
0.000479871
0.000479913
0.000479948
0.000479979
0.000480003
0.000480023
0.000480038
0.000480049
0.000480056
0.00048006
0.000480164
0.000480209
0.00048027
0.000480345
0.000480429
0.00048052
0.000480614
0.000480709
0.000480803
0.000480894
0.000480982
0.000481066
0.000481144
0.000481216
0.000481282
0.000481342
0.000481396
0.000481443
0.000481484
0.00048152
0.00048155
0.000481574
0.000481594
0.000481609
0.000481619
0.000481626
0.000481629
0.000481729
0.000481773
0.000481834
0.000481908
0.000481991
0.00048208
0.000482172
0.000482265
0.000482358
0.000482448
0.000482535
0.000482617
0.000482694
0.000482765
0.00048283
0.000482888
0.000482941
0.000482988
0.000483028
0.000483063
0.000483092
0.000483116
0.000483135
0.00048315
0.000483161
0.000483167
0.00048317
0.000483265
0.000483309
0.000483368
0.00048344
0.000483522
0.000483609
0.000483699
0.000483791
0.000483881
0.00048397
0.000484054
0.000484135
0.00048421
0.000484279
0.000484343
0.0004844
0.000484452
0.000484497
0.000484537
0.000484571
0.0004846
0.000484623
0.000484642
0.000484656
0.000484667
0.000484673
0.000484676
0.000484765
0.000484807
0.000484866
0.000484936
0.000485015
0.0004851
0.000485188
0.000485277
0.000485366
0.000485452
0.000485534
0.000485612
0.000485685
0.000485753
0.000485815
0.000485871
0.000485921
0.000485965
0.000486004
0.000486037
0.000486065
0.000486088
0.000486106
0.00048612
0.00048613
0.000486136
0.000486139
0.000486222
0.000486262
0.000486319
0.000486387
0.000486464
0.000486546
0.000486631
0.000486718
0.000486803
0.000486886
0.000486966
0.000487042
0.000487113
0.000487178
0.000487238
0.000487292
0.000487341
0.000487383
0.000487421
0.000487452
0.000487479
0.000487501
0.000487519
0.000487533
0.000487542
0.000487548
0.000487551
0.000487626
0.000487665
0.00048772
0.000487785
0.000487859
0.000487938
0.00048802
0.000488103
0.000488185
0.000488265
0.000488342
0.000488415
0.000488482
0.000488545
0.000488603
0.000488655
0.000488701
0.000488742
0.000488778
0.000488808
0.000488834
0.000488855
0.000488872
0.000488885
0.000488894
0.0004889
0.000488903
0.000488969
0.000489007
0.000489058
0.000489121
0.000489191
0.000489267
0.000489345
0.000489424
0.000489502
0.000489578
0.000489651
0.00048972
0.000489785
0.000489845
0.000489899
0.000489949
0.000489993
0.000490032
0.000490066
0.000490095
0.000490119
0.000490139
0.000490155
0.000490168
0.000490176
0.000490182
0.000490185
0.000490241
0.000490277
0.000490325
0.000490385
0.000490451
0.000490522
0.000490596
0.00049067
0.000490744
0.000490816
0.000490884
0.000490949
0.00049101
0.000491066
0.000491118
0.000491164
0.000491206
0.000491242
0.000491274
0.000491301
0.000491324
0.000491343
0.000491358
0.00049137
0.000491378
0.000491383
0.000491386
0.000491432
0.000491465
0.000491511
0.000491566
0.000491627
0.000491694
0.000491762
0.000491832
0.0004919
0.000491967
0.000492031
0.000492091
0.000492148
0.0004922
0.000492247
0.00049229
0.000492329
0.000492363
0.000492392
0.000492417
0.000492439
0.000492456
0.00049247
0.000492481
0.000492488
0.000492493
0.000492496
0.000492531
0.000492562
0.000492604
0.000492654
0.000492711
0.000492772
0.000492835
0.000492898
0.000492961
0.000493022
0.000493081
0.000493136
0.000493188
0.000493235
0.000493279
0.000493318
0.000493353
0.000493384
0.000493411
0.000493434
0.000493453
0.000493469
0.000493482
0.000493491
0.000493498
0.000493503
0.000493505
0.00049353
0.000493558
0.000493595
0.000493641
0.000493692
0.000493747
0.000493804
0.000493861
0.000493918
0.000493973
0.000494025
0.000494075
0.000494121
0.000494164
0.000494203
0.000494238
0.000494269
0.000494297
0.000494321
0.000494342
0.000494359
0.000494373
0.000494385
0.000494393
0.000494399
0.000494403
0.000494405
0.00049442
0.000494445
0.000494478
0.000494519
0.000494564
0.000494612
0.000494663
0.000494713
0.000494763
0.000494811
0.000494857
0.000494901
0.000494942
0.000494979
0.000495013
0.000495044
0.000495072
0.000495096
0.000495117
0.000495135
0.00049515
0.000495163
0.000495173
0.00049518
0.000495186
0.000495189
0.000495191
0.000495197
0.000495218
0.000495247
0.000495282
0.000495321
0.000495363
0.000495406
0.000495449
0.000495492
0.000495534
0.000495573
0.000495611
0.000495645
0.000495678
0.000495707
0.000495733
0.000495757
0.000495777
0.000495795
0.000495811
0.000495824
0.000495834
0.000495843
0.000495849
0.000495854
0.000495857
0.000495858
0.000495856
0.000495874
0.000495899
0.000495928
0.000495961
0.000495996
0.000496032
0.000496068
0.000496104
0.000496139
0.000496172
0.000496203
0.000496232
0.000496259
0.000496283
0.000496305
0.000496325
0.000496342
0.000496357
0.000496369
0.00049638
0.000496389
0.000496396
0.000496401
0.000496405
0.000496407
0.000496408
0.000496401
0.000496416
0.000496436
0.00049646
0.000496486
0.000496515
0.000496544
0.000496574
0.000496603
0.000496631
0.000496658
0.000496683
0.000496706
0.000496728
0.000496747
0.000496765
0.00049678
0.000496794
0.000496806
0.000496816
0.000496825
0.000496832
0.000496837
0.000496842
0.000496845
0.000496846
0.000496847
0.000496837
0.000496848
0.000496864
0.000496883
0.000496904
0.000496926
0.000496949
0.000496972
0.000496995
0.000497017
0.000497038
0.000497057
0.000497076
0.000497092
0.000497107
0.000497121
0.000497133
0.000497144
0.000497153
0.000497161
0.000497167
0.000497173
0.000497177
0.00049718
0.000497183
0.000497184
0.000497185
0.000497173
0.000497182
0.000497194
0.000497208
0.000497224
0.000497241
0.000497258
0.000497276
0.000497293
0.000497309
0.000497325
0.000497339
0.000497353
0.000497365
0.000497377
0.000497387
0.000497396
0.000497404
0.00049741
0.000497416
0.000497421
0.000497425
0.000497428
0.000497431
0.000497432
0.000497433
0.000497434
0.000497423
0.000497429
0.000497438
0.000497448
0.00049746
0.000497472
0.000497485
0.000497497
0.00049751
0.000497521
0.000497533
0.000497543
0.000497553
0.000497562
0.00049757
0.000497577
0.000497583
0.000497589
0.000497594
0.000497598
0.000497601
0.000497604
0.000497606
0.000497608
0.000497609
0.00049761
0.000497611
0.000497601
0.000497606
0.000497612
0.000497619
0.000497627
0.000497636
0.000497644
0.000497653
0.000497662
0.00049767
0.000497677
0.000497685
0.000497691
0.000497697
0.000497703
0.000497708
0.000497712
0.000497716
0.000497719
0.000497722
0.000497724
0.000497726
0.000497728
0.000497729
0.00049773
0.00049773
0.00049773
0.000497724
0.000497727
0.000497731
0.000497736
0.000497741
0.000497747
0.000497753
0.000497759
0.000497764
0.00049777
0.000497775
0.000497779
0.000497784
0.000497788
0.000497791
0.000497794
0.000497797
0.0004978
0.000497802
0.000497804
0.000497805
0.000497806
0.000497807
0.000497808
0.000497809
0.000497809
0.000497809
0.000497806
0.000497808
0.00049781
0.000497813
0.000497817
0.00049782
0.000497824
0.000497828
0.000497831
0.000497835
0.000497838
0.000497841