/*--------------------------------*- C++ -*----------------------------------*\
| =========                 |                                                 |
| \\      /  F ield         | OpenFOAM: The Open Source CFD Toolbox           |
|  \\    /   O peration     | Version:  2106                                  |
|   \\  /    A nd           | Website:  www.openfoam.com                      |
|    \\/     M anipulation  |                                                 |
\*---------------------------------------------------------------------------*/
FoamFile
{
    version     2.0;
    format      ascii;
    arch        "LSB;label=32;scalar=64";
    class       volScalarField;
    location    "80.00032";
    object      H2_0;
}
// * * * * * * * * * * * * * * * * * * * * * * * * * * * * * * * * * * * * * //

dimensions      [0 0 0 0 0 0 0];

internalField   nonuniform List<scalar> 
3360
(
2.21063e-19
2.28177e-19
2.38078e-19
2.50188e-19
2.64003e-19
2.79069e-19
2.94978e-19
3.1136e-19
3.27886e-19
3.44265e-19
3.60245e-19
3.75614e-19
3.90194e-19
4.03845e-19
4.1646e-19
4.27965e-19
4.38313e-19
4.47484e-19
4.55483e-19
4.62333e-19
4.68076e-19
4.72766e-19
4.76471e-19
4.79266e-19
4.81232e-19
4.82455e-19
4.83022e-19
9.6974e-19
1.00538e-18
1.05569e-18
1.11833e-18
1.19139e-18
1.27321e-18
1.36227e-18
1.45723e-18
1.55679e-18
1.65976e-18
1.76499e-18
1.87134e-18
1.97771e-18
2.08301e-18
2.18616e-18
2.2861e-18
2.3818e-18
2.47225e-18
2.55649e-18
2.63362e-18
2.70281e-18
2.76333e-18
2.81455e-18
2.85598e-18
2.88724e-18
2.90812e-18
2.91853e-18
3.04283e-18
3.17639e-18
3.36616e-18
3.60461e-18
3.88551e-18
4.20324e-18
4.55245e-18
4.92789e-18
5.32423e-18
5.73604e-18
6.15776e-18
6.58388e-18
7.00893e-18
7.42752e-18
7.83443e-18
8.2247e-18
8.59377e-18
8.93751e-18
9.25235e-18
9.53534e-18
9.78419e-18
9.99729e-18
1.01737e-17
1.03131e-17
1.04159e-17
1.0483e-17
1.05156e-17
8.86183e-18
9.30199e-18
9.93164e-18
1.07283e-17
1.16731e-17
1.27484e-17
1.39366e-17
1.52193e-17
1.65775e-17
1.7991e-17
1.94389e-17
2.09001e-17
2.23536e-17
2.37788e-17
2.51563e-17
2.64683e-17
2.76989e-17
2.88348e-17
2.9865e-17
3.07814e-17
3.15789e-17
3.22544e-17
3.28077e-17
3.32404e-17
3.35562e-17
3.37601e-17
3.38584e-17
2.58917e-17
2.72803e-17
2.92706e-17
3.17945e-17
3.47942e-17
3.82145e-17
4.19981e-17
4.60849e-17
5.04103e-17
5.49065e-17
5.95032e-17
6.41298e-17
6.87168e-17
7.31979e-17
7.75118e-17
8.16034e-17
8.54253e-17
8.89384e-17
9.21122e-17
9.49251e-17
9.73639e-17
9.94232e-17
1.01105e-16
1.02416e-16
1.03371e-16
1.03986e-16
1.04282e-16
7.63396e-17
8.06039e-17
8.67234e-17
9.44905e-17
1.03727e-16
1.14262e-16
1.25916e-16
1.385e-16
1.51812e-16
1.65638e-16
1.79757e-16
1.93951e-16
2.08002e-16
2.21707e-16
2.34877e-16
2.47346e-16
2.58972e-16
2.69638e-16
2.79258e-16
2.87768e-16
2.95135e-16
3.01344e-16
3.06407e-16
3.10351e-16
3.13217e-16
3.15061e-16
3.15948e-16
2.26771e-16
2.39729e-16
2.58324e-16
2.81925e-16
3.09992e-16
3.41993e-16
3.77381e-16
4.1557e-16
4.55938e-16
4.97829e-16
5.40573e-16
5.83498e-16
6.25951e-16
6.67316e-16
7.07031e-16
7.44599e-16
7.79598e-16
8.11686e-16
8.40604e-16
8.66175e-16
8.88296e-16
9.06937e-16
9.2213e-16
9.3396e-16
9.42557e-16
9.48088e-16
9.50746e-16
6.75838e-16
7.14828e-16
7.70807e-16
8.41884e-16
9.26428e-16
1.02284e-15
1.12946e-15
1.24452e-15
1.36612e-15
1.49228e-15
1.62097e-15
1.75016e-15
1.87788e-15
2.00228e-15
2.12166e-15
2.23454e-15
2.33965e-15
2.43598e-15
2.52275e-15
2.59944e-15
2.66576e-15
2.72162e-15
2.76713e-15
2.80255e-15
2.82828e-15
2.84483e-15
2.85278e-15
2.01951e-15
2.13669e-15
2.3049e-15
2.51844e-15
2.7724e-15
3.06197e-15
3.38212e-15
3.72749e-15
4.09239e-15
4.47085e-15
4.85675e-15
5.24401e-15
5.62674e-15
5.99939e-15
6.35691e-15
6.69487e-15
7.00949e-15
7.29776e-15
7.55739e-15
7.78684e-15
7.98523e-15
8.15233e-15
8.28846e-15
8.39441e-15
8.47138e-15
8.52088e-15
8.54467e-15
6.03462e-15
6.38555e-15
6.88938e-15
7.52907e-15
8.28987e-15
9.15733e-15
1.01163e-14
1.11508e-14
1.22437e-14
1.3377e-14
1.45324e-14
1.56917e-14
1.68372e-14
1.79523e-14
1.90219e-14
2.00327e-14
2.09735e-14
2.18353e-14
2.26113e-14
2.32969e-14
2.38895e-14
2.43886e-14
2.4795e-14
2.51113e-14
2.5341e-14
2.54887e-14
2.55597e-14
1.80404e-14
1.90909e-14
2.05987e-14
2.25128e-14
2.47887e-14
2.73831e-14
3.02505e-14
3.33427e-14
3.66082e-14
3.99936e-14
4.34439e-14
4.69046e-14
5.03231e-14
5.36498e-14
5.68399e-14
5.98538e-14
6.26583e-14
6.52268e-14
6.75391e-14
6.95816e-14
7.13471e-14
7.28335e-14
7.40439e-14
7.49858e-14
7.56698e-14
7.61096e-14
7.6321e-14
5.38765e-14
5.70125e-14
6.15136e-14
6.72265e-14
7.40182e-14
8.17582e-14
9.03106e-14
9.95306e-14
1.09264e-13
1.19352e-13
1.29629e-13
1.39934e-13
1.50109e-13
1.60007e-13
1.69495e-13
1.78455e-13
1.8679e-13
1.94421e-13
2.01288e-13
2.07353e-13
2.12592e-13
2.17003e-13
2.20593e-13
2.23386e-13
2.25414e-13
2.26717e-13
2.27344e-13
1.60714e-13
1.7006e-13
1.83469e-13
2.00481e-13
2.20695e-13
2.4372e-13
2.69147e-13
2.96542e-13
3.25446e-13
3.5538e-13
3.85858e-13
4.16397e-13
4.46533e-13
4.75831e-13
5.03899e-13
5.30393e-13
5.55024e-13
5.77563e-13
5.97837e-13
6.15733e-13
6.31191e-13
6.44197e-13
6.54782e-13
6.63013e-13
6.68989e-13
6.72829e-13
6.74673e-13
4.77999e-13
5.05724e-13
5.45491e-13
5.95919e-13
6.55808e-13
7.23978e-13
7.99204e-13
8.80191e-13
9.65567e-13
1.05391e-12
1.14378e-12
1.23375e-12
1.32246e-12
1.40863e-12
1.4911e-12
1.56889e-12
1.64115e-12
1.70722e-12
1.76661e-12
1.81899e-12
1.86421e-12
1.90223e-12
1.93316e-12
1.9572e-12
1.97465e-12
1.98585e-12
1.99123e-12
1.41654e-12
1.49836e-12
1.61563e-12
1.76423e-12
1.94054e-12
2.14102e-12
2.36199e-12
2.59959e-12
2.84975e-12
3.10826e-12
3.37089e-12
3.63346e-12
3.892e-12
4.14281e-12
4.38258e-12
4.60845e-12
4.81803e-12
5.00946e-12
5.18137e-12
5.33286e-12
5.46352e-12
5.5733e-12
5.66254e-12
5.73186e-12
5.78213e-12
5.8144e-12
5.82989e-12
4.17379e-12
4.41303e-12
4.75568e-12
5.18941e-12
5.70337e-12
6.28696e-12
6.92922e-12
7.61868e-12
8.34334e-12
9.09089e-12
9.849e-12
1.06056e-11
1.13493e-11
1.20695e-11
1.27569e-11
1.34034e-11
1.40024e-11
1.45487e-11
1.50386e-11
1.54697e-11
1.58411e-11
1.61529e-11
1.6406e-11
1.66024e-11
1.67448e-11
1.68361e-11
1.68799e-11
1.22062e-11
1.28974e-11
1.38862e-11
1.51359e-11
1.66143e-11
1.82895e-11
2.01293e-11
2.20997e-11
2.41659e-11
2.62922e-11
2.84434e-11
3.05852e-11
3.26855e-11
3.47148e-11
3.66474e-11
3.84612e-11
4.01383e-11
4.1665e-11
4.30317e-11
4.42326e-11
4.52654e-11
4.61311e-11
4.68332e-11
4.73774e-11
4.77713e-11
4.80238e-11
4.81448e-11
3.53385e-11
3.73021e-11
4.0107e-11
4.36451e-11
4.78204e-11
5.25395e-11
5.77073e-11
6.32257e-11
6.89944e-11
7.49126e-11
8.08815e-11
8.68061e-11
9.25986e-11
9.81793e-11
1.03479e-10
1.0844e-10
1.13016e-10
1.17172e-10
1.20884e-10
1.24139e-10
1.26933e-10
1.29271e-10
1.31165e-10
1.3263e-10
1.3369e-10
1.34368e-10
1.34693e-10
1.00986e-10
1.06443e-10
1.14222e-10
1.2401e-10
1.35525e-10
1.48496e-10
1.62649e-10
1.77705e-10
1.93384e-10
2.09407e-10
2.25506e-10
2.41425e-10
2.56933e-10
2.71823e-10
2.85917e-10
2.99068e-10
3.11163e-10
3.22117e-10
3.31877e-10
3.40416e-10
3.47732e-10
3.5384e-10
3.58778e-10
3.62595e-10
3.65349e-10
3.67111e-10
3.67953e-10
2.83792e-10
2.98534e-10
3.19498e-10
3.45789e-10
3.76609e-10
4.11184e-10
4.48745e-10
4.88526e-10
5.29763e-10
5.71716e-10
6.13679e-10
6.54998e-10
6.95083e-10
7.33417e-10
7.69567e-10
8.03182e-10
8.33995e-10
8.6182e-10
8.86542e-10
9.08116e-10
9.26555e-10
9.41921e-10
9.54318e-10
9.63882e-10
9.70776e-10
9.75179e-10
9.77281e-10
7.80986e-10
8.19456e-10
8.74007e-10
9.42171e-10
1.02173e-09
1.11058e-09
1.20662e-09
1.30782e-09
1.4122e-09
1.51786e-09
1.62303e-09
1.72611e-09
1.82566e-09
1.92046e-09
2.00951e-09
2.09201e-09
2.16738e-09
2.23522e-09
2.29533e-09
2.34764e-09
2.39225e-09
2.42934e-09
2.45921e-09
2.48221e-09
2.49877e-09
2.50933e-09
2.51436e-09
2.0946e-09
2.191e-09
2.32728e-09
2.49689e-09
2.69397e-09
2.91293e-09
3.14841e-09
3.39523e-09
3.64846e-09
3.90347e-09
4.15605e-09
4.40242e-09
4.6393e-09
4.86393e-09
5.0741e-09
5.26811e-09
5.44475e-09
5.60327e-09
5.74332e-09
5.86491e-09
5.96834e-09
6.05418e-09
6.12316e-09
6.17621e-09
6.21433e-09
6.23861e-09
6.25017e-09
5.44826e-09
5.67926e-09
6.00478e-09
6.40833e-09
6.87507e-09
7.39109e-09
7.9432e-09
8.51891e-09
9.10657e-09
9.69546e-09
1.0276e-08
1.08397e-08
1.13793e-08
1.18891e-08
1.23644e-08
1.28016e-08
1.31984e-08
1.35536e-08
1.38665e-08
1.41376e-08
1.43677e-08
1.45583e-08
1.47112e-08
1.48286e-08
1.49129e-08
1.49665e-08
1.4992e-08
1.36817e-08
1.42099e-08
1.49522e-08
1.58689e-08
1.69249e-08
1.80871e-08
1.93249e-08
2.06096e-08
2.19151e-08
2.32177e-08
2.44963e-08
2.57331e-08
2.69129e-08
2.80235e-08
2.90556e-08
3.00024e-08
3.08596e-08
3.16248e-08
3.22977e-08
3.28793e-08
3.33722e-08
3.37798e-08
3.41064e-08
3.43569e-08
3.45364e-08
3.46505e-08
3.47047e-08
3.3052e-08
3.42056e-08
3.58229e-08
3.78144e-08
4.01003e-08
4.26072e-08
4.52671e-08
4.80177e-08
5.08025e-08
5.35716e-08
5.6281e-08
5.88938e-08
6.13791e-08
6.37128e-08
6.58764e-08
6.78569e-08
6.96463e-08
7.1241e-08
7.2641e-08
7.38495e-08
7.48723e-08
7.57172e-08
7.63934e-08
7.69115e-08
7.72826e-08
7.75182e-08
7.76302e-08
7.66248e-08
7.9038e-08
8.24149e-08
8.65641e-08
9.13148e-08
9.65108e-08
1.02009e-07
1.07681e-07
1.13408e-07
1.1909e-07
1.24637e-07
1.29976e-07
1.35046e-07
1.39798e-07
1.44198e-07
1.4822e-07
1.5185e-07
1.55081e-07
1.57916e-07
1.60361e-07
1.62428e-07
1.64135e-07
1.65501e-07
1.66546e-07
1.67295e-07
1.6777e-07
1.67996e-07
1.70226e-07
1.75074e-07
1.81849e-07
1.9016e-07
1.99659e-07
2.10029e-07
2.20982e-07
2.32258e-07
2.43626e-07
2.54882e-07
2.65854e-07
2.76396e-07
2.8639e-07
2.95746e-07
3.04395e-07
3.12292e-07
3.19411e-07
3.25742e-07
3.3129e-07
3.36071e-07
3.40112e-07
3.43445e-07
3.4611e-07
3.4815e-07
3.4961e-07
3.50537e-07
3.50977e-07
3.61863e-07
3.71207e-07
3.84253e-07
4.00237e-07
4.18479e-07
4.38364e-07
4.59334e-07
4.80889e-07
5.02588e-07
5.24046e-07
5.44937e-07
5.64989e-07
5.83983e-07
6.0175e-07
6.18167e-07
6.33149e-07
6.4665e-07
6.58654e-07
6.69172e-07
6.78236e-07
6.85896e-07
6.92215e-07
6.97269e-07
7.01137e-07
7.03906e-07
7.05664e-07
7.06499e-07
7.33491e-07
7.50715e-07
7.74748e-07
8.04175e-07
8.37736e-07
8.74295e-07
9.12827e-07
9.52415e-07
9.92254e-07
1.03164e-06
1.06999e-06
1.10679e-06
1.14166e-06
1.17429e-06
1.20444e-06
1.23197e-06
1.25679e-06
1.27887e-06
1.29823e-06
1.31492e-06
1.32904e-06
1.34069e-06
1.35001e-06
1.35716e-06
1.36227e-06
1.36552e-06
1.36707e-06
1.41171e-06
1.44201e-06
1.48427e-06
1.53601e-06
1.59501e-06
1.65927e-06
1.727e-06
1.79659e-06
1.86662e-06
1.93588e-06
2.00333e-06
2.0681e-06
2.12949e-06
2.18696e-06
2.24011e-06
2.28866e-06
2.33247e-06
2.37146e-06
2.40567e-06
2.43518e-06
2.46016e-06
2.48079e-06
2.49731e-06
2.50998e-06
2.51905e-06
2.52482e-06
2.52757e-06
2.56841e-06
2.61878e-06
2.68904e-06
2.77502e-06
2.87304e-06
2.97978e-06
3.09224e-06
3.20778e-06
3.32405e-06
3.43904e-06
3.55102e-06
3.65856e-06
3.76051e-06
3.85596e-06
3.94426e-06
4.02495e-06
4.09776e-06
4.16259e-06
4.21948e-06
4.26858e-06
4.31014e-06
4.34448e-06
4.37198e-06
4.39307e-06
4.40818e-06
4.41779e-06
4.42236e-06
4.39508e-06
4.47307e-06
4.58177e-06
4.71469e-06
4.86607e-06
5.03076e-06
5.20411e-06
5.38203e-06
5.5609e-06
5.73762e-06
5.90955e-06
6.07453e-06
6.23079e-06
6.37699e-06
6.51213e-06
6.63553e-06
6.74682e-06
6.84585e-06
6.93269e-06
7.00761e-06
7.07098e-06
7.12332e-06
7.16521e-06
7.19731e-06
7.22031e-06
7.23493e-06
7.24188e-06
7.04762e-06
7.15845e-06
7.31275e-06
7.50112e-06
7.71525e-06
7.94771e-06
8.19186e-06
8.44186e-06
8.69261e-06
8.93976e-06
9.17966e-06
9.40933e-06
9.62639e-06
9.82904e-06
1.0016e-05
1.01863e-05
1.03397e-05
1.04759e-05
1.05952e-05
1.06979e-05
1.07847e-05
1.08563e-05
1.09135e-05
1.09573e-05
1.09887e-05
1.10086e-05
1.1018e-05
1.0586e-05
1.07296e-05
1.09293e-05
1.11724e-05
1.14481e-05
1.17464e-05
1.20587e-05
1.23774e-05
1.26959e-05
1.30088e-05
1.33115e-05
1.36002e-05
1.38722e-05
1.41253e-05
1.43581e-05
1.45697e-05
1.47596e-05
1.49279e-05
1.50748e-05
1.52011e-05
1.53076e-05
1.53952e-05
1.54651e-05
1.55185e-05
1.55567e-05
1.55809e-05
1.55924e-05
1.49466e-05
1.51171e-05
1.53536e-05
1.56408e-05
1.59655e-05
1.63156e-05
1.66808e-05
1.70521e-05
1.74218e-05
1.77835e-05
1.8132e-05
1.84633e-05
1.87742e-05
1.90625e-05
1.93267e-05
1.95661e-05
1.97804e-05
1.99697e-05
2.01347e-05
2.02761e-05
2.03951e-05
2.04928e-05
2.05707e-05
2.06301e-05
2.06725e-05
2.06993e-05
2.07121e-05
1.99654e-05
2.01531e-05
2.04129e-05
2.07277e-05
2.10825e-05
2.14639e-05
2.18604e-05
2.22621e-05
2.26606e-05
2.30491e-05
2.34222e-05
2.37757e-05
2.41065e-05
2.44123e-05
2.46919e-05
2.49445e-05
2.517e-05
2.53689e-05
2.55419e-05
2.56899e-05
2.58143e-05
2.59163e-05
2.59975e-05
2.60594e-05
2.61036e-05
2.61315e-05
2.61447e-05
2.54322e-05
2.5627e-05
2.58963e-05
2.6222e-05
2.65882e-05
2.69809e-05
2.73882e-05
2.77997e-05
2.82069e-05
2.86031e-05
2.89826e-05
2.93413e-05
2.96763e-05
2.99854e-05
3.02675e-05
3.05221e-05
3.0749e-05
3.09489e-05
3.11226e-05
3.12711e-05
3.13957e-05
3.14979e-05
3.15792e-05
3.16412e-05
3.16854e-05
3.17133e-05
3.17266e-05
3.11456e-05
3.13397e-05
3.16079e-05
3.19318e-05
3.22956e-05
3.26852e-05
3.30886e-05
3.34956e-05
3.38979e-05
3.42886e-05
3.46625e-05
3.50155e-05
3.53448e-05
3.56485e-05
3.59254e-05
3.6175e-05
3.63976e-05
3.65935e-05
3.67636e-05
3.69091e-05
3.70311e-05
3.71313e-05
3.72109e-05
3.72716e-05
3.73149e-05
3.73423e-05
3.73553e-05
3.69483e-05
3.71372e-05
3.73979e-05
3.77128e-05
3.80662e-05
3.84444e-05
3.88359e-05
3.92306e-05
3.96205e-05
3.9999e-05
4.03611e-05
4.0703e-05
4.10218e-05
4.13157e-05
4.15837e-05
4.18254e-05
4.20408e-05
4.22305e-05
4.23953e-05
4.25362e-05
4.26545e-05
4.27516e-05
4.28288e-05
4.28877e-05
4.29297e-05
4.29563e-05
4.2969e-05
4.27354e-05
4.2917e-05
4.31677e-05
4.34703e-05
4.381e-05
4.41736e-05
4.45498e-05
4.49293e-05
4.53042e-05
4.56682e-05
4.60165e-05
4.63453e-05
4.66522e-05
4.69351e-05
4.71933e-05
4.74261e-05
4.76338e-05
4.78167e-05
4.79757e-05
4.81117e-05
4.8226e-05
4.83198e-05
4.83944e-05
4.84514e-05
4.8492e-05
4.85178e-05
4.853e-05
4.84459e-05
4.86198e-05
4.886e-05
4.91501e-05
4.94757e-05
4.98243e-05
5.01852e-05
5.05493e-05
5.09092e-05
5.12588e-05
5.15935e-05
5.19097e-05
5.22048e-05
5.24772e-05
5.27258e-05
5.29501e-05
5.31503e-05
5.33268e-05
5.34802e-05
5.36116e-05
5.3722e-05
5.38126e-05
5.38848e-05
5.394e-05
5.39793e-05
5.40043e-05
5.40161e-05
5.40497e-05
5.42166e-05
5.4447e-05
5.47253e-05
5.50379e-05
5.53727e-05
5.57195e-05
5.60696e-05
5.64158e-05
5.67523e-05
5.70747e-05
5.73794e-05
5.76639e-05
5.79267e-05
5.81667e-05
5.83834e-05
5.85768e-05
5.87474e-05
5.88959e-05
5.9023e-05
5.91299e-05
5.92177e-05
5.92877e-05
5.93411e-05
5.93793e-05
5.94035e-05
5.9415e-05
5.9536e-05
5.96966e-05
5.99184e-05
6.01865e-05
6.04877e-05
6.08104e-05
6.11449e-05
6.14826e-05
6.18169e-05
6.21419e-05
6.24534e-05
6.27481e-05
6.30234e-05
6.32778e-05
6.35102e-05
6.37201e-05
6.39077e-05
6.40732e-05
6.42172e-05
6.43406e-05
6.44443e-05
6.45296e-05
6.45977e-05
6.46496e-05
6.46867e-05
6.47103e-05
6.47214e-05
6.49046e-05
6.50598e-05
6.52743e-05
6.55336e-05
6.58249e-05
6.61373e-05
6.64612e-05
6.67884e-05
6.71123e-05
6.74275e-05
6.77297e-05
6.80157e-05
6.8283e-05
6.85301e-05
6.8756e-05
6.89601e-05
6.91425e-05
6.93035e-05
6.94436e-05
6.95637e-05
6.96648e-05
6.97479e-05
6.98141e-05
6.98648e-05
6.99009e-05
6.99239e-05
6.99348e-05
7.01608e-05
7.03114e-05
7.05196e-05
7.07714e-05
7.10544e-05
7.1358e-05
7.16728e-05
7.1991e-05
7.23061e-05
7.26129e-05
7.29071e-05
7.31855e-05
7.3446e-05
7.36868e-05
7.39069e-05
7.4106e-05
7.42839e-05
7.44409e-05
7.45777e-05
7.46949e-05
7.47936e-05
7.48748e-05
7.49395e-05
7.49889e-05
7.50243e-05
7.50467e-05
7.50574e-05
7.5312e-05
7.54587e-05
7.56616e-05
7.5907e-05
7.61829e-05
7.64789e-05
7.6786e-05
7.70964e-05
7.74039e-05
7.77034e-05
7.79906e-05
7.82626e-05
7.85171e-05
7.87524e-05
7.89676e-05
7.91622e-05
7.93362e-05
7.94898e-05
7.96236e-05
7.97384e-05
7.98349e-05
7.99144e-05
7.99777e-05
8.00261e-05
8.00607e-05
8.00827e-05
8.00931e-05
8.03663e-05
8.05097e-05
8.0708e-05
8.09479e-05
8.12177e-05
8.15071e-05
8.18075e-05
8.21112e-05
8.24121e-05
8.27052e-05
8.29865e-05
8.32528e-05
8.3502e-05
8.37325e-05
8.39434e-05
8.41341e-05
8.43046e-05
8.44552e-05
8.45863e-05
8.46988e-05
8.47936e-05
8.48714e-05
8.49336e-05
8.49811e-05
8.5015e-05
8.50366e-05
8.50468e-05
8.53316e-05
8.54722e-05
8.56665e-05
8.59015e-05
8.6166e-05
8.64497e-05
8.67442e-05
8.7042e-05
8.73372e-05
8.76247e-05
8.79006e-05
8.81619e-05
8.84065e-05
8.86328e-05
8.88397e-05
8.9027e-05
8.91944e-05
8.93423e-05
8.94711e-05
8.95816e-05
8.96746e-05
8.97511e-05
8.98122e-05
8.98588e-05
8.98922e-05
8.99134e-05
8.99235e-05
9.02152e-05
9.03532e-05
9.0544e-05
9.07748e-05
9.10345e-05
9.13132e-05
9.16024e-05
9.18951e-05
9.21851e-05
9.24676e-05
9.27388e-05
9.29957e-05
9.32361e-05
9.34585e-05
9.3662e-05
9.38461e-05
9.40108e-05
9.41562e-05
9.42829e-05
9.43916e-05
9.44831e-05
9.45584e-05
9.46184e-05
9.46644e-05
9.46972e-05
9.4718e-05
9.47279e-05
9.50234e-05
9.51591e-05
9.53468e-05
9.55738e-05
9.58293e-05
9.61035e-05
9.63881e-05
9.6676e-05
9.69614e-05
9.72394e-05
9.75063e-05
9.77592e-05
9.79958e-05
9.82148e-05
9.84152e-05
9.85965e-05
9.87586e-05
9.89018e-05
9.90266e-05
9.91336e-05
9.92238e-05
9.92979e-05
9.93571e-05
9.94023e-05
9.94346e-05
9.94552e-05
9.94649e-05
9.9762e-05
9.98957e-05
0.000100081
0.000100304
0.000100556
0.000100826
0.000101106
0.00010139
0.000101671
0.000101945
0.000102208
0.000102457
0.00010269
0.000102906
0.000103104
0.000103282
0.000103442
0.000103583
0.000103707
0.000103812
0.000103901
0.000103974
0.000104032
0.000104077
0.000104109
0.000104129
0.000104139
0.000104436
0.000104568
0.00010475
0.000104971
0.000105219
0.000105485
0.000105762
0.000106041
0.000106319
0.000106589
0.000106848
0.000107094
0.000107324
0.000107537
0.000107732
0.000107908
0.000108066
0.000108205
0.000108327
0.000108431
0.000108518
0.000108591
0.000108648
0.000108692
0.000108724
0.000108744
0.000108753
0.00010905
0.00010918
0.00010936
0.000109577
0.000109822
0.000110085
0.000110358
0.000110634
0.000110908
0.000111175
0.000111431
0.000111674
0.000111901
0.000112111
0.000112303
0.000112477
0.000112633
0.000112771
0.000112891
0.000112993
0.00011308
0.000113151
0.000113208
0.000113251
0.000113283
0.000113302
0.000113312
0.000113607
0.000113735
0.000113913
0.000114128
0.00011437
0.00011463
0.000114899
0.000115172
0.000115442
0.000115706
0.000115959
0.000116199
0.000116423
0.000116631
0.000116821
0.000116993
0.000117147
0.000117283
0.000117401
0.000117503
0.000117588
0.000117659
0.000117715
0.000117758
0.000117789
0.000117808
0.000117817
0.000118111
0.000118238
0.000118413
0.000118626
0.000118865
0.000119122
0.000119388
0.000119658
0.000119925
0.000120186
0.000120436
0.000120673
0.000120895
0.0001211
0.000121288
0.000121458
0.00012161
0.000121744
0.000121862
0.000121962
0.000122047
0.000122116
0.000122172
0.000122214
0.000122245
0.000122264
0.000122273
0.000122565
0.00012269
0.000122864
0.000123074
0.00012331
0.000123564
0.000123827
0.000124094
0.000124359
0.000124616
0.000124864
0.000125098
0.000125317
0.00012552
0.000125706
0.000125875
0.000126025
0.000126158
0.000126274
0.000126373
0.000126457
0.000126526
0.000126581
0.000126623
0.000126653
0.000126672
0.000126681
0.00012697
0.000127094
0.000127266
0.000127474
0.000127708
0.000127959
0.000128219
0.000128483
0.000128745
0.000129
0.000129245
0.000129476
0.000129694
0.000129895
0.000130078
0.000130245
0.000130394
0.000130525
0.00013064
0.000130738
0.000130821
0.000130889
0.000130943
0.000130985
0.000131015
0.000131034
0.000131043
0.000131329
0.000131452
0.000131622
0.000131828
0.000132059
0.000132308
0.000132566
0.000132827
0.000133086
0.000133338
0.00013358
0.00013381
0.000134025
0.000134224
0.000134406
0.000134571
0.000134718
0.000134848
0.000134961
0.000135059
0.000135141
0.000135208
0.000135262
0.000135303
0.000135333
0.000135351
0.00013536
0.000135645
0.000135766
0.000135934
0.000136138
0.000136367
0.000136613
0.000136869
0.000137127
0.000137383
0.000137633
0.000137873
0.0001381
0.000138313
0.00013851
0.00013869
0.000138853
0.000138999
0.000139128
0.00013924
0.000139336
0.000139418
0.000139484
0.000139538
0.000139578
0.000139607
0.000139626
0.000139635
0.000139916
0.000140037
0.000140203
0.000140405
0.000140632
0.000140875
0.000141128
0.000141384
0.000141638
0.000141885
0.000142123
0.000142348
0.000142558
0.000142753
0.000142932
0.000143093
0.000143238
0.000143365
0.000143476
0.000143572
0.000143652
0.000143718
0.000143771
0.000143811
0.00014384
0.000143858
0.000143867
0.000144146
0.000144265
0.00014443
0.00014463
0.000144854
0.000145096
0.000145346
0.000145599
0.000145851
0.000146096
0.000146331
0.000146553
0.000146762
0.000146955
0.000147132
0.000147292
0.000147435
0.000147561
0.000147671
0.000147766
0.000147845
0.000147911
0.000147963
0.000148003
0.000148031
0.000148049
0.000148058
0.000148334
0.000148452
0.000148615
0.000148813
0.000149035
0.000149274
0.000149522
0.000149773
0.000150022
0.000150264
0.000150497
0.000150718
0.000150924
0.000151115
0.00015129
0.000151449
0.00015159
0.000151715
0.000151824
0.000151918
0.000151997
0.000152062
0.000152113
0.000152153
0.000152181
0.000152199
0.000152208
0.00015248
0.000152597
0.000152759
0.000152955
0.000153175
0.000153411
0.000153657
0.000153905
0.000154151
0.000154391
0.000154622
0.00015484
0.000155045
0.000155234
0.000155407
0.000155564
0.000155704
0.000155828
0.000155936
0.000156029
0.000156107
0.000156171
0.000156222
0.000156261
0.000156289
0.000156307
0.000156315
0.000156585
0.0001567
0.00015686
0.000157054
0.000157272
0.000157506
0.000157749
0.000157995
0.000158239
0.000158476
0.000158705
0.000158921
0.000159123
0.00015931
0.000159482
0.000159637
0.000159776
0.000159898
0.000160005
0.000160097
0.000160174
0.000160238
0.000160288
0.000160327
0.000160355
0.000160372
0.000160381
0.000160646
0.000160761
0.000160919
0.000161111
0.000161326
0.000161558
0.000161798
0.000162042
0.000162283
0.000162518
0.000162744
0.000162958
0.000163158
0.000163343
0.000163513
0.000163666
0.000163804
0.000163925
0.000164031
0.000164121
0.000164198
0.00016426
0.000164311
0.000164349
0.000164376
0.000164394
0.000164402
0.000164663
0.000164777
0.000164933
0.000165123
0.000165336
0.000165565
0.000165803
0.000166044
0.000166282
0.000166515
0.000166738
0.000166949
0.000167147
0.000167331
0.000167498
0.00016765
0.000167786
0.000167906
0.00016801
0.0001681
0.000168175
0.000168238
0.000168287
0.000168325
0.000168352
0.000168369
0.000168378
0.000168634
0.000168746
0.000168901
0.000169088
0.000169299
0.000169525
0.00016976
0.000169998
0.000170234
0.000170464
0.000170684
0.000170893
0.000171089
0.00017127
0.000171436
0.000171586
0.00017172
0.000171838
0.000171941
0.00017203
0.000172105
0.000172166
0.000172215
0.000172252
0.000172279
0.000172296
0.000172304
0.000172556
0.000172666
0.000172819
0.000173004
0.000173212
0.000173436
0.000173668
0.000173902
0.000174135
0.000174362
0.00017458
0.000174786
0.000174979
0.000175158
0.000175321
0.000175469
0.000175602
0.000175719
0.000175821
0.000175908
0.000175982
0.000176042
0.000176091
0.000176127
0.000176154
0.000176171
0.000176179
0.000176424
0.000176533
0.000176684
0.000176866
0.000177071
0.000177292
0.000177521
0.000177752
0.000177982
0.000178205
0.00017842
0.000178623
0.000178814
0.00017899
0.000179151
0.000179297
0.000179427
0.000179543
0.000179643
0.000179729
0.000179802
0.000179861
0.000179909
0.000179946
0.000179972
0.000179988
0.000179996
0.000180234
0.000180342
0.00018049
0.00018067
0.000180872
0.000181089
0.000181314
0.000181542
0.000181768
0.000181988
0.000182199
0.000182399
0.000182587
0.00018276
0.000182919
0.000183062
0.000183191
0.000183304
0.000183403
0.000183488
0.000183559
0.000183618
0.000183665
0.000183701
0.000183726
0.000183742
0.00018375
0.000183981
0.000184086
0.000184232
0.000184409
0.000184607
0.000184821
0.000185042
0.000185266
0.000185488
0.000185704
0.000185911
0.000186108
0.000186292
0.000186462
0.000186618
0.000186759
0.000186885
0.000186996
0.000187093
0.000187177
0.000187247
0.000187304
0.00018735
0.000187386
0.000187411
0.000187427
0.000187434
0.000187656
0.000187759
0.000187902
0.000188075
0.00018827
0.000188479
0.000188696
0.000188915
0.000189133
0.000189345
0.000189548
0.000189741
0.000189921
0.000190088
0.00019024
0.000190378
0.000190502
0.000190611
0.000190706
0.000190787
0.000190856
0.000190912
0.000190957
0.000190992
0.000191016
0.000191032
0.000191039
0.00019125
0.000191352
0.000191491
0.000191661
0.000191851
0.000192055
0.000192267
0.000192481
0.000192694
0.000192901
0.000193099
0.000193288
0.000193464
0.000193626
0.000193775
0.00019391
0.000194031
0.000194137
0.00019423
0.000194309
0.000194376
0.000194431
0.000194475
0.000194509
0.000194533
0.000194548
0.000194555
0.000194755
0.000194853
0.000194989
0.000195154
0.000195339
0.000195538
0.000195744
0.000195953
0.00019616
0.000196361
0.000196554
0.000196737
0.000196909
0.000197067
0.000197212
0.000197343
0.00019746
0.000197563
0.000197653
0.000197731
0.000197796
0.000197849
0.000197892
0.000197925
0.000197948
0.000197963
0.00019797
0.000198156
0.000198251
0.000198383
0.000198543
0.000198723
0.000198915
0.000199115
0.000199317
0.000199518
0.000199713
0.0001999
0.000200077
0.000200243
0.000200396
0.000200536
0.000200663
0.000200776
0.000200876
0.000200963
0.000201038
0.000201101
0.000201153
0.000201194
0.000201226
0.000201248
0.000201263
0.000201269
0.00020144
0.000201532
0.00020166
0.000201814
0.000201987
0.000202173
0.000202365
0.00020256
0.000202753
0.000202941
0.000203121
0.000203291
0.000203451
0.000203598
0.000203733
0.000203855
0.000203964
0.00020406
0.000204144
0.000204216
0.000204277
0.000204326
0.000204366
0.000204396
0.000204418
0.000204432
0.000204438
0.000204592
0.000204681
0.000204803
0.00020495
0.000205116
0.000205294
0.000205478
0.000205664
0.000205849
0.000206029
0.000206201
0.000206364
0.000206516
0.000206657
0.000206786
0.000206903
0.000207007
0.000207099
0.000207179
0.000207247
0.000207305
0.000207353
0.00020739
0.000207419
0.00020744
0.000207453
0.000207459
0.000207595
0.000207679
0.000207795
0.000207935
0.000208093
0.000208262
0.000208437
0.000208614
0.000208789
0.000208959
0.000209123
0.000209277
0.000209422
0.000209555
0.000209677
0.000209788
0.000209886
0.000209973
0.000210049
0.000210114
0.000210169
0.000210214
0.000210249
0.000210277
0.000210296
0.000210309
0.000210315
0.000210431
0.00021051
0.000210619
0.000210751
0.000210899
0.000211058
0.000211223
0.000211389
0.000211554
0.000211714
0.000211868
0.000212013
0.000212148
0.000212274
0.000212388
0.000212492
0.000212584
0.000212666
0.000212737
0.000212798
0.000212849
0.000212891
0.000212924
0.00021295
0.000212968
0.00021298
0.000212985
0.00021308
0.000213154
0.000213256
0.000213379
0.000213517
0.000213665
0.000213818
0.000213973
0.000214126
0.000214275
0.000214417
0.000214552
0.000214678
0.000214794
0.0002149
0.000214996
0.000215082
0.000215157
0.000215223
0.000215279
0.000215327
0.000215366
0.000215397
0.00021542
0.000215437
0.000215448
0.000215453
0.000215527
0.000215595
0.000215688
0.000215801
0.000215928
0.000216064
0.000216205
0.000216347
0.000216487
0.000216624
0.000216754
0.000216878
0.000216993
0.000217099
0.000217196
0.000217284
0.000217362
0.000217431
0.000217491
0.000217543
0.000217586
0.000217621
0.00021765
0.000217671
0.000217687
0.000217697
0.000217701
0.000217754
0.000217815
0.0002179
0.000218003
0.000218117
0.00021824
0.000218368
0.000218496
0.000218623
0.000218746
0.000218864
0.000218975
0.000219079
0.000219174
0.000219262
0.000219341
0.000219411
0.000219473
0.000219527
0.000219573
0.000219612
0.000219644
0.000219669
0.000219689
0.000219703
0.000219711
0.000219716
0.000219748
0.000219803
0.000219879
0.00021997
0.000220072
0.000220181
0.000220294
0.000220408
0.000220521
0.00022063
0.000220734
0.000220833
0.000220925
0.000221009
0.000221086
0.000221156
0.000221218
0.000221273
0.00022132
0.000221361
0.000221395
0.000221424
0.000221446
0.000221463
0.000221475
0.000221483
0.000221487
0.000221502
0.000221549
0.000221615
0.000221695
0.000221784
0.000221879
0.000221978
0.000222077
0.000222175
0.00022227
0.00022236
0.000222446
0.000222525
0.000222598
0.000222665
0.000222725
0.000222779
0.000222826
0.000222867
0.000222903
0.000222932
0.000222956
0.000222976
0.00022299
0.000223001
0.000223008
0.000223011
0.000223011
0.000223052
0.000223108
0.000223176
0.000223252
0.000223333
0.000223417
0.000223502
0.000223585
0.000223665
0.000223742
0.000223814
0.000223882
0.000223944
0.000224
0.000224051
0.000224097
0.000224136
0.000224171
0.000224201
0.000224226
0.000224246
0.000224262
0.000224275
0.000224283
0.000224289
0.000224292
0.000224281
0.000224315
0.000224362
0.000224419
0.000224482
0.000224549
0.000224619
0.000224689
0.000224758
0.000224825
0.000224888
0.000224948
0.000225004
0.000225055
0.000225102
0.000225144
0.000225181
0.000225214
0.000225242
0.000225267
0.000225287
0.000225304
0.000225317
0.000225327
0.000225334
0.000225339
0.000225341
0.000225323
0.000225351
0.000225389
0.000225435
0.000225487
0.000225541
0.000225598
0.000225654
0.00022571
0.000225764
0.000225815
0.000225863
0.000225908
0.000225949
0.000225987
0.00022602
0.00022605
0.000226077
0.000226099
0.000226119
0.000226135
0.000226149
0.000226159
0.000226167
0.000226173
0.000226177
0.000226179
0.000226157
0.000226179
0.000226209
0.000226245
0.000226286
0.000226329
0.000226373
0.000226418
0.000226461
0.000226504
0.000226544
0.000226581
0.000226616
0.000226648
0.000226677
0.000226704
0.000226727
0.000226747
0.000226765
0.00022678
0.000226792
0.000226803
0.000226811
0.000226817
0.000226822
0.000226825
0.000226826
0.000226804
0.000226821
0.000226844
0.000226872
0.000226903
0.000226936
0.000226969
0.000227003
0.000227036
0.000227068
0.000227099
0.000227127
0.000227153
0.000227178
0.000227199
0.000227219
0.000227236
0.000227252
0.000227265
0.000227276
0.000227286
0.000227293
0.000227299
0.000227304
0.000227307
0.00022731
0.000227311
0.000227292
0.000227304
0.000227321
0.000227342
0.000227365
0.000227389
0.000227414
0.000227438
0.000227463
0.000227486
0.000227508
0.000227529
0.000227548
0.000227566
0.000227582
0.000227596
0.000227608
0.000227619
0.000227629
0.000227637
0.000227644
0.000227649
0.000227654
0.000227657
0.00022766
0.000227661
0.000227662
0.000227648
0.000227656
0.000227669
0.000227683
0.000227699
0.000227717
0.000227734
0.000227752
0.000227769
0.000227785
0.000227801
0.000227816