/*--------------------------------*- C++ -*----------------------------------*\
| =========                 |                                                 |
| \\      /  F ield         | OpenFOAM: The Open Source CFD Toolbox           |
|  \\    /   O peration     | Version:  2106                                  |
|   \\  /    A nd           | Website:  www.openfoam.com                      |
|    \\/     M anipulation  |                                                 |
\*---------------------------------------------------------------------------*/
FoamFile
{
    version     2.0;
    format      ascii;
    arch        "LSB;label=32;scalar=64";
    class       volScalarField;
    location    "80.00032";
    object      PC3H4;
}
// * * * * * * * * * * * * * * * * * * * * * * * * * * * * * * * * * * * * * //

dimensions      [0 0 0 0 0 0 0];

internalField   nonuniform List<scalar> 
3360
(
1.68003e-18
1.7341e-18
1.80934e-18
1.90137e-18
2.00636e-18
2.12087e-18
2.24177e-18
2.36627e-18
2.49186e-18
2.61634e-18
2.73779e-18
2.85458e-18
2.96539e-18
3.06914e-18
3.16501e-18
3.25244e-18
3.33108e-18
3.40078e-18
3.46157e-18
3.51363e-18
3.55728e-18
3.59292e-18
3.62108e-18
3.64231e-18
3.65726e-18
3.66655e-18
3.67087e-18
7.36981e-18
7.64071e-18
8.02298e-18
8.49905e-18
9.05433e-18
9.67609e-18
1.0353e-17
1.10746e-17
1.18313e-17
1.26138e-17
1.34135e-17
1.42218e-17
1.50302e-17
1.58304e-17
1.66143e-17
1.73739e-17
1.81012e-17
1.87886e-17
1.94288e-17
2.00149e-17
2.05408e-17
2.10007e-17
2.139e-17
2.17048e-17
2.19424e-17
2.21011e-17
2.21802e-17
2.31249e-17
2.41399e-17
2.55821e-17
2.73943e-17
2.95291e-17
3.19437e-17
3.45976e-17
3.74509e-17
4.0463e-17
4.35927e-17
4.67977e-17
5.00361e-17
5.32664e-17
5.64475e-17
5.954e-17
6.2506e-17
6.53108e-17
6.79231e-17
7.03159e-17
7.24665e-17
7.43578e-17
7.59773e-17
7.73179e-17
7.83776e-17
7.91589e-17
7.96683e-17
7.99163e-17
6.7348e-17
7.06931e-17
7.54784e-17
8.15327e-17
8.87129e-17
9.6885e-17
1.05915e-16
1.15664e-16
1.25986e-16
1.36728e-16
1.47732e-16
1.58837e-16
1.69882e-16
1.80714e-16
1.91183e-16
2.01153e-16
2.10506e-16
2.19138e-16
2.26967e-16
2.33932e-16
2.39993e-16
2.45127e-16
2.49331e-16
2.5262e-16
2.5502e-16
2.56569e-16
2.57317e-16
1.96771e-16
2.07325e-16
2.2245e-16
2.41631e-16
2.64429e-16
2.90422e-16
3.19177e-16
3.50235e-16
3.83107e-16
4.17277e-16
4.52212e-16
4.87373e-16
5.22233e-16
5.56289e-16
5.89073e-16
6.20169e-16
6.49214e-16
6.75913e-16
7.00033e-16
7.21411e-16
7.39945e-16
7.55595e-16
7.68374e-16
7.7834e-16
7.85595e-16
7.90268e-16
7.92517e-16
5.80165e-16
6.12573e-16
6.5908e-16
7.18108e-16
7.88306e-16
8.68367e-16
9.56936e-16
1.05257e-15
1.15374e-15
1.25881e-15
1.36612e-15
1.47399e-15
1.58077e-15
1.68492e-15
1.78501e-15
1.87978e-15
1.96813e-15
2.04919e-15
2.1223e-15
2.18698e-15
2.24296e-15
2.29015e-15
2.32863e-15
2.3586e-15
2.38038e-15
2.3944e-15
2.40114e-15
1.72341e-15
1.82189e-15
1.96321e-15
2.14257e-15
2.35587e-15
2.59908e-15
2.86802e-15
3.15825e-15
3.46503e-15
3.7834e-15
4.10824e-15
4.43446e-15
4.75709e-15
5.07146e-15
5.37329e-15
5.6588e-15
5.92478e-15
6.16864e-15
6.38841e-15
6.58275e-15
6.75086e-15
6.89253e-15
7.00799e-15
7.0979e-15
7.16323e-15
7.20527e-15
7.22547e-15
5.13623e-15
5.43254e-15
5.85797e-15
6.39814e-15
7.04066e-15
7.77338e-15
8.58369e-15
9.45809e-15
1.03822e-14
1.1341e-14
1.2319e-14
1.33008e-14
1.42715e-14
1.52169e-14
1.61242e-14
1.6982e-14
1.77808e-14
1.85129e-14
1.91723e-14
1.97552e-14
2.02592e-14
2.06837e-14
2.10296e-14
2.12988e-14
2.14943e-14
2.16201e-14
2.16805e-14
1.53479e-14
1.62384e-14
1.75167e-14
1.91396e-14
2.10697e-14
2.32703e-14
2.57034e-14
2.83282e-14
3.11013e-14
3.39775e-14
3.69103e-14
3.98534e-14
4.27621e-14
4.55941e-14
4.83112e-14
5.08796e-14
5.32707e-14
5.54614e-14
5.74346e-14
5.91784e-14
6.06861e-14
6.1956e-14
6.29906e-14
6.37957e-14
6.43807e-14
6.47569e-14
6.49377e-14
4.58618e-14
4.85288e-14
5.23579e-14
5.72194e-14
6.30013e-14
6.95938e-14
7.68821e-14
8.4744e-14
9.30495e-14
1.01662e-13
1.10443e-13
1.19254e-13
1.27959e-13
1.36434e-13
1.44562e-13
1.52244e-13
1.59394e-13
1.65944e-13
1.71841e-13
1.77051e-13
1.81555e-13
1.85348e-13
1.88437e-13
1.90841e-13
1.92587e-13
1.93709e-13
1.94249e-13
1.37104e-13
1.45087e-13
1.56546e-13
1.71093e-13
1.88389e-13
2.08106e-13
2.29897e-13
2.53397e-13
2.78215e-13
3.03943e-13
3.30165e-13
3.56466e-13
3.82445e-13
4.07728e-13
4.31971e-13
4.54877e-13
4.76191e-13
4.9571e-13
5.13283e-13
5.28806e-13
5.42223e-13
5.5352e-13
5.62719e-13
5.69877e-13
5.75075e-13
5.78418e-13
5.80024e-13
4.0945e-13
4.33283e-13
4.67491e-13
5.10908e-13
5.62523e-13
6.21346e-13
6.86342e-13
7.56412e-13
8.30388e-13
9.0705e-13
9.85155e-13
1.06347e-12
1.14079e-12
1.21602e-12
1.28812e-12
1.35622e-12
1.41957e-12
1.47756e-12
1.52975e-12
1.57584e-12
1.61566e-12
1.64918e-12
1.67646e-12
1.69769e-12
1.7131e-12
1.72301e-12
1.72776e-12
1.2214e-12
1.29242e-12
1.39433e-12
1.52361e-12
1.67724e-12
1.85223e-12
2.04547e-12
2.25366e-12
2.47332e-12
2.70082e-12
2.93244e-12
3.16453e-12
3.39356e-12
3.61622e-12
3.82953e-12
4.03088e-12
4.21807e-12
4.38936e-12
4.54344e-12
4.67945e-12
4.79692e-12
4.89576e-12
4.97621e-12
5.03877e-12
5.08418e-12
5.11337e-12
5.12738e-12
3.63269e-12
3.8434e-12
4.14562e-12
4.52887e-12
4.98401e-12
5.50209e-12
6.07379e-12
6.68927e-12
7.33812e-12
8.00952e-12
8.69252e-12
9.37629e-12
1.00504e-11
1.07053e-11
1.13321e-11
1.19232e-11
1.24724e-11
1.29745e-11
1.34258e-11
1.3824e-11
1.41676e-11
1.44566e-11
1.46916e-11
1.48743e-11
1.50069e-11
1.50921e-11
1.5133e-11
1.07654e-11
1.13872e-11
1.22785e-11
1.34078e-11
1.47477e-11
1.62713e-11
1.79507e-11
1.97564e-11
2.16575e-11
2.36222e-11
2.56181e-11
2.76136e-11
2.95784e-11
3.14845e-11
3.33068e-11
3.50233e-11
3.66161e-11
3.80709e-11
3.93774e-11
4.05287e-11
4.15217e-11
4.2356e-11
4.30342e-11
4.3561e-11
4.3943e-11
4.41883e-11
4.4306e-11
3.172e-11
3.35382e-11
3.61423e-11
3.94385e-11
4.33445e-11
4.77797e-11
5.26608e-11
5.79005e-11
6.34078e-11
6.9089e-11
7.48505e-11
8.06007e-11
8.62525e-11
9.17261e-11
9.69502e-11
1.01863e-10
1.06415e-10
1.10567e-10
1.1429e-10
1.17567e-10
1.2039e-10
1.22759e-10
1.24682e-10
1.26175e-10
1.27257e-10
1.27951e-10
1.28284e-10
9.27645e-11
9.80175e-11
1.05532e-10
1.1503e-10
1.26265e-10
1.38997e-10
1.52979e-10
1.67954e-10
1.83656e-10
1.99816e-10
2.16164e-10
2.32442e-10
2.48403e-10
2.63826e-10
2.78514e-10
2.92298e-10
3.05044e-10
3.16646e-10
3.27033e-10
3.36159e-10
3.44009e-10
3.50588e-10
3.55923e-10
3.60059e-10
3.63053e-10
3.64972e-10
3.65891e-10
2.68566e-10
2.83489e-10
3.04806e-10
3.31694e-10
3.63426e-10
3.99291e-10
4.38565e-10
4.80503e-10
5.24345e-10
5.69322e-10
6.14684e-10
6.59711e-10
7.03732e-10
7.46145e-10
7.86423e-10
8.24126e-10
8.589e-10
8.90482e-10
9.18693e-10
9.43431e-10
9.64669e-10
9.82439e-10
9.96828e-10
1.00797e-09
1.01602e-09
1.02117e-09
1.02364e-09
7.67475e-10
8.08948e-10
8.68069e-10
9.42451e-10
1.02996e-09
1.12854e-09
1.2361e-09
1.35053e-09
1.46968e-09
1.59146e-09
1.7138e-09
1.83479e-09
1.95265e-09
2.06581e-09
2.17292e-09
2.27287e-09
2.36478e-09
2.44803e-09
2.52221e-09
2.58711e-09
2.6427e-09
2.68913e-09
2.72665e-09
2.75566e-09
2.77659e-09
2.78998e-09
2.79638e-09
2.15676e-09
2.26879e-09
2.42812e-09
2.62793e-09
2.86216e-09
3.12492e-09
3.41039e-09
3.71272e-09
4.02612e-09
4.34496e-09
4.66387e-09
4.97789e-09
5.28253e-09
5.57386e-09
5.8486e-09
6.10407e-09
6.33825e-09
6.54971e-09
6.73759e-09
6.90155e-09
7.04169e-09
7.15846e-09
7.25268e-09
7.32537e-09
7.37776e-09
7.41122e-09
7.4272e-09
5.93522e-09
6.2276e-09
6.64219e-09
7.16025e-09
7.76495e-09
8.44016e-09
9.17009e-09
9.93923e-09
1.07325e-08
1.15356e-08
1.23349e-08
1.31182e-08
1.38748e-08
1.45953e-08
1.52721e-08
1.58991e-08
1.64719e-08
1.69875e-08
1.74443e-08
1.78419e-08
1.81809e-08
1.84628e-08
1.86898e-08
1.88647e-08
1.89905e-08
1.90707e-08
1.9109e-08
1.59174e-08
1.66501e-08
1.7686e-08
1.89752e-08
2.04731e-08
2.21373e-08
2.39271e-08
2.58031e-08
2.77278e-08
2.96661e-08
3.15859e-08
3.34585e-08
3.52589e-08
3.69663e-08
3.85637e-08
4.00383e-08
4.13808e-08
4.25857e-08
4.36501e-08
4.45742e-08
4.53603e-08
4.60127e-08
4.6537e-08
4.69402e-08
4.72299e-08
4.74144e-08
4.75023e-08
4.13974e-08
4.31534e-08
4.56279e-08
4.86956e-08
5.22437e-08
5.61666e-08
6.03638e-08
6.47405e-08
6.92081e-08
7.36852e-08
7.80985e-08
8.2384e-08
8.64871e-08
9.03629e-08
9.39759e-08
9.73e-08
1.00317e-07
1.03017e-07
1.05396e-07
1.07457e-07
1.09207e-07
1.10656e-07
1.11818e-07
1.12711e-07
1.13352e-07
1.13759e-07
1.13953e-07
1.03925e-07
1.07941e-07
1.13585e-07
1.20556e-07
1.28585e-07
1.37424e-07
1.46838e-07
1.5661e-07
1.6654e-07
1.76449e-07
1.86177e-07
1.95587e-07
2.04564e-07
2.13016e-07
2.20871e-07
2.28077e-07
2.34601e-07
2.40426e-07
2.45548e-07
2.49977e-07
2.5373e-07
2.56833e-07
2.5932e-07
2.61227e-07
2.62594e-07
2.63463e-07
2.63876e-07
2.50896e-07
2.59668e-07
2.71967e-07
2.87114e-07
3.04504e-07
3.23578e-07
3.43822e-07
3.64761e-07
3.85967e-07
4.0706e-07
4.27705e-07
4.47621e-07
4.66574e-07
4.84377e-07
5.00889e-07
5.16011e-07
5.29681e-07
5.41868e-07
5.52573e-07
5.61818e-07
5.69647e-07
5.76116e-07
5.81297e-07
5.85268e-07
5.88114e-07
5.89923e-07
5.90782e-07
5.8102e-07
5.9936e-07
6.2503e-07
6.56579e-07
6.92713e-07
7.3225e-07
7.74106e-07
8.17299e-07
8.60946e-07
9.04268e-07
9.46591e-07
9.87347e-07
1.02607e-06
1.06239e-06
1.09603e-06
1.12681e-06
1.15459e-06
1.17933e-06
1.20104e-06
1.21977e-06
1.23562e-06
1.2487e-06
1.25917e-06
1.26719e-06
1.27294e-06
1.27658e-06
1.27832e-06
1.28906e-06
1.32581e-06
1.37717e-06
1.44019e-06
1.51222e-06
1.59086e-06
1.67391e-06
1.75939e-06
1.84554e-06
1.93081e-06
2.01388e-06
2.09364e-06
2.1692e-06
2.23988e-06
2.30517e-06
2.36474e-06
2.41839e-06
2.46607e-06
2.50782e-06
2.54377e-06
2.57414e-06
2.59917e-06
2.61918e-06
2.63448e-06
2.64543e-06
2.65237e-06
2.65567e-06
2.73492e-06
2.80502e-06
2.90284e-06
3.02258e-06
3.15911e-06
3.30775e-06
3.46429e-06
3.62497e-06
3.78649e-06
3.94597e-06
4.10099e-06
4.24955e-06
4.39006e-06
4.52129e-06
4.64235e-06
4.75267e-06
4.85194e-06
4.94007e-06
5.01718e-06
5.08353e-06
5.13953e-06
5.18568e-06
5.22253e-06
5.2507e-06
5.27085e-06
5.28362e-06
5.28968e-06
5.51782e-06
5.64482e-06
5.82186e-06
6.03834e-06
6.28487e-06
6.55294e-06
6.83494e-06
7.12407e-06
7.41439e-06
7.70078e-06
7.97891e-06
8.24523e-06
8.49692e-06
8.73183e-06
8.9484e-06
9.14565e-06
9.32304e-06
9.48046e-06
9.61813e-06
9.73656e-06
9.83648e-06
9.91878e-06
9.98449e-06
1.00347e-05
1.00706e-05
1.00934e-05
1.01042e-05
1.0553e-05
1.0773e-05
1.10795e-05
1.14542e-05
1.18807e-05
1.23442e-05
1.28316e-05
1.33311e-05
1.38325e-05
1.4327e-05
1.48071e-05
1.52668e-05
1.57012e-05
1.61067e-05
1.64806e-05
1.68211e-05
1.71273e-05
1.73992e-05
1.76369e-05
1.78415e-05
1.80141e-05
1.81563e-05
1.82698e-05
1.83566e-05
1.84187e-05
1.8458e-05
1.84767e-05
1.90763e-05
1.94385e-05
1.99432e-05
2.056e-05
2.12619e-05
2.20247e-05
2.28267e-05
2.36489e-05
2.44743e-05
2.52885e-05
2.60795e-05
2.68371e-05
2.75535e-05
2.82225e-05
2.88397e-05
2.94022e-05
2.99086e-05
3.03583e-05
3.07519e-05
3.10908e-05
3.1377e-05
3.16128e-05
3.18013e-05
3.19454e-05
3.20485e-05
3.21139e-05
3.2145e-05
3.24492e-05
3.30082e-05
3.37868e-05
3.4738e-05
3.582e-05
3.69956e-05
3.82313e-05
3.94975e-05
4.07686e-05
4.20224e-05
4.32403e-05
4.4407e-05
4.55102e-05
4.65407e-05
4.74917e-05
4.83586e-05
4.91392e-05
4.98327e-05
5.04398e-05
5.09627e-05
5.14044e-05
5.17686e-05
5.20596e-05
5.22823e-05
5.24415e-05
5.25426e-05
5.25906e-05
5.17453e-05
5.25403e-05
5.36465e-05
5.49963e-05
5.65298e-05
5.81934e-05
5.99392e-05
6.17254e-05
6.35156e-05
6.52785e-05
6.69883e-05
6.86238e-05
7.01681e-05
7.16086e-05
7.29361e-05
7.41449e-05
7.5232e-05
7.61968e-05
7.70408e-05
7.77669e-05
7.83797e-05
7.88846e-05
7.92879e-05
7.95962e-05
7.98167e-05
7.99564e-05
8.00228e-05
7.72912e-05
7.83214e-05
7.97528e-05
8.14955e-05
8.34704e-05
8.56069e-05
8.78424e-05
9.01225e-05
9.24002e-05
9.46363e-05
9.67981e-05
9.88594e-05
0.0001008
0.000102605
0.000104264
0.00010577
0.000107122
0.000108318
0.000109363
0.000110259
0.000111015
0.000111636
0.000112132
0.00011251
0.00011278
0.000112951
0.000113032
0.000108448
0.000109665
0.000111352
0.000113402
0.000115717
0.000118212
0.000120814
0.000123458
0.000126088
0.00012866
0.000131137
0.00013349
0.000135697
0.000137742
0.000139615
0.000141311
0.000142828
0.000144167
0.000145333
0.000146332
0.000147172
0.000147861
0.00014841
0.000148829
0.000149127
0.000149316
0.000149405
0.000143789
0.000145115
0.000146948
0.000149169
0.000151671
0.000154358
0.00015715
0.000159976
0.000162777
0.000165506
0.000168125
0.000170603
0.00017292
0.000175061
0.000177016
0.000178781
0.000180356
0.000181744
0.000182949
0.00018398
0.000184845
0.000185555
0.000186119
0.000186549
0.000186855
0.000187049
0.00018714
0.000181552
0.000182903
0.000184771
0.000187028
0.000189564
0.000192282
0.000195097
0.000197939
0.000200748
0.000203477
0.000206088
0.000208555
0.000210855
0.000212975
0.000214908
0.00021665
0.000218202
0.000219567
0.000220752
0.000221764
0.000222613
0.000223309
0.000223862
0.000224283
0.000224583
0.000224772
0.000224862
0.000220087
0.000221403
0.00022322
0.000225413
0.000227873
0.000230505
0.000233227
0.000235969
0.000238676
0.000241301
0.00024381
0.000246175
0.000248379
0.000250408
0.000252256
0.000253921
0.000255403
0.000256706
0.000257836
0.000258802
0.000259611
0.000260275
0.000260802
0.000261203
0.00026149
0.000261671
0.000261756
0.000258153
0.000259398
0.000261115
0.000263187
0.00026551
0.000267992
0.000270557
0.00027314
0.000275688
0.000278158
0.000280516
0.00028274
0.00028481
0.000286716
0.000288452
0.000290015
0.000291407
0.00029263
0.000293692
0.0002946
0.000295361
0.000295985
0.000296481
0.000296858
0.000297128
0.000297298
0.000297379
0.000294965
0.000296124
0.000297724
0.000299652
0.000301814
0.000304125
0.000306512
0.000308916
0.000311287
0.000313586
0.000315781
0.000317851
0.000319779
0.000321555
0.000323173
0.00032463
0.000325928
0.00032707
0.000328061
0.000328908
0.00032962
0.000330203
0.000330667
0.00033102
0.000331273
0.000331432
0.000331508
0.000330117
0.00033119
0.000332671
0.000334457
0.000336459
0.0003386
0.000340812
0.00034304
0.000345239
0.000347372
0.00034941
0.000351333
0.000353125
0.000354776
0.000356281
0.000357637
0.000358846
0.00035991
0.000360835
0.000361625
0.000362289
0.000362834
0.000363268
0.000363598
0.000363834
0.000363984
0.000364055
0.000363461
0.000364454
0.000365825
0.000367479
0.000369334
0.000371318
0.00037337
0.000375438
0.000377479
0.000379461
0.000381355
0.000383144
0.000384811
0.000386349
0.000387751
0.000389016
0.000390144
0.000391138
0.000392001
0.00039274
0.000393361
0.000393871
0.000394277
0.000394586
0.000394807
0.000394948
0.000395014
0.000395
0.000395922
0.000397195
0.000398732
0.000400456
0.000402302
0.000404211
0.000406136
0.000408038
0.000409885
0.000411653
0.000413322
0.000414879
0.000416316
0.000417627
0.00041881
0.000419866
0.000420797
0.000421606
0.000422298
0.00042288
0.000423359
0.00042374
0.00042403
0.000424238
0.00042437
0.000424432
0.00042482
0.00042568
0.000426868
0.000428302
0.000429912
0.000431636
0.00043342
0.000435221
0.000437
0.000438729
0.000440384
0.000441948
0.000443409
0.000444757
0.000445987
0.000447098
0.00044809
0.000448964
0.000449725
0.000450376
0.000450924
0.000451374
0.000451733
0.000452007
0.000452202
0.000452326
0.000452385
0.00045304
0.000453846
0.000454959
0.000456304
0.000457814
0.000459432
0.000461107
0.000462798
0.00046447
0.000466096
0.000467653
0.000469124
0.000470499
0.000471768
0.000472928
0.000473975
0.00047491
0.000475734
0.000476452
0.000477067
0.000477584
0.000478008
0.000478347
0.000478606
0.000478791
0.000478908
0.000478964
0.000479788
0.000480547
0.000481595
0.000482862
0.000484285
0.000485809
0.000487389
0.000488984
0.000490561
0.000492096
0.000493565
0.000494956
0.000496254
0.000497454
0.00049855
0.00049954
0.000500425
0.000501205
0.000501884
0.000502466
0.000502956
0.000503358
0.000503679
0.000503924
0.000504099
0.00050421
0.000504263
0.00050519
0.000505907
0.000506899
0.000508096
0.000509442
0.000510885
0.000512379
0.000513889
0.000515383
0.000516836
0.000518229
0.000519546
0.000520777
0.000521915
0.000522954
0.000523894
0.000524733
0.000525473
0.000526118
0.000526671
0.000527135
0.000527518
0.000527822
0.000528055
0.000528222
0.000528327
0.000528377
0.000529361
0.000530042
0.000530982
0.000532119
0.000533396
0.000534765
0.000536185
0.000537618
0.000539037
0.000540418
0.000541741
0.000542994
0.000544164
0.000545246
0.000546234
0.000547128
0.000547926
0.000548631
0.000549245
0.00054977
0.000550213
0.000550577
0.000550867
0.000551089
0.000551247
0.000551348
0.000551395
0.000552407
0.000553054
0.000553949
0.000555031
0.000556247
0.00055755
0.000558901
0.000560267
0.000561618
0.000562934
0.000564195
0.000565388
0.000566503
0.000567535
0.000568477
0.000569329
0.000570091
0.000570763
0.000571348
0.00057185
0.000572272
0.000572619
0.000572896
0.000573107
0.000573259
0.000573355
0.0005734
0.000574419
0.000575037
0.00057589
0.000576922
0.000578083
0.000579326
0.000580616
0.00058192
0.00058321
0.000584466
0.00058567
0.00058681
0.000587875
0.000588861
0.000589761
0.000590575
0.000591303
0.000591945
0.000592505
0.000592984
0.000593388
0.00059372
0.000593984
0.000594187
0.000594331
0.000594423
0.000594467
0.00059548
0.000596071
0.000596887
0.000597874
0.000598983
0.000600173
0.000601407
0.000602653
0.000603888
0.000605089
0.000606242
0.000607332
0.000608352
0.000609295
0.000610157
0.000610937
0.000611633
0.000612248
0.000612784
0.000613243
0.00061363
0.000613947
0.000614201
0.000614395
0.000614533
0.000614621
0.000614663
0.000615664
0.00061623
0.000617011
0.000617957
0.000619019
0.000620159
0.000621341
0.000622536
0.000623719
0.000624871
0.000625975
0.000627021
0.000627999
0.000628903
0.000629729
0.000630477
0.000631145
0.000631735
0.000632248
0.000632689
0.000633059
0.000633364
0.000633607
0.000633793
0.000633926
0.000634011
0.000634051
0.000635034
0.000635576
0.000636326
0.000637234
0.000638253
0.000639347
0.000640482
0.000641628
0.000642764
0.000643869
0.00064493
0.000645934
0.000646872
0.00064774
0.000648534
0.000649252
0.000649893
0.00065046
0.000650953
0.000651376
0.000651732
0.000652025
0.000652259
0.000652437
0.000652565
0.000652646
0.000652685
0.000653647
0.000654168
0.000654889
0.000655761
0.000656741
0.000657792
0.000658882
0.000659984
0.000661076
0.000662138
0.000663158
0.000664123
0.000665025
0.00066586
0.000666623
0.000667313
0.00066793
0.000668475
0.000668949
0.000669356
0.000669698
0.00066998
0.000670205
0.000670377
0.000670499
0.000670577
0.000670614
0.000671554
0.000672056
0.000672749
0.000673588
0.00067453
0.000675542
0.000676591
0.000677651
0.000678702
0.000679725
0.000680706
0.000681634
0.000682503
0.000683307
0.000684041
0.000684706
0.0006853
0.000685824
0.000686281
0.000686672
0.000687002
0.000687273
0.00068749
0.000687655
0.000687773
0.000687848
0.000687884
0.0006888
0.000689283
0.000689951
0.000690759
0.000691667
0.000692641
0.000693652
0.000694674
0.000695685
0.000696671
0.000697616
0.000698511
0.000699348
0.000700122
0.00070083
0.00070147
0.000702043
0.000702548
0.000702988
0.000703366
0.000703684
0.000703945
0.000704153
0.000704313
0.000704427
0.000704499
0.000704533
0.000705426
0.000705892
0.000706536
0.000707314
0.00070819
0.000709129
0.000710104
0.000711089
0.000712064
0.000713015
0.000713926
0.000714789
0.000715596
0.000716343
0.000717026
0.000717643
0.000718195
0.000718683
0.000719108
0.000719472
0.000719778
0.00072003
0.000720232
0.000720385
0.000720495
0.000720565
0.000720598
0.000721467
0.000721916
0.000722537
0.000723289
0.000724134
0.00072504
0.00072598
0.000726931
0.000727873
0.00072879
0.00072967
0.000730503
0.000731282
0.000732002
0.000732662
0.000733258
0.000733791
0.000734261
0.000734671
0.000735023
0.000735319
0.000735562
0.000735756
0.000735905
0.000736011
0.000736078
0.00073611
0.000736955
0.000737389
0.000737989
0.000738714
0.00073953
0.000740405
0.000741313
0.000742232
0.000743141
0.000744027
0.000744876
0.000745681
0.000746434
0.00074713
0.000747766
0.000748342
0.000748857
0.000749311
0.000749707
0.000750047
0.000750333
0.000750568
0.000750756
0.000750899
0.000751002
0.000751067
0.000751098
0.000751918
0.000752338
0.000752917
0.000753618
0.000754407
0.000755253
0.00075613
0.000757017
0.000757896
0.000758752
0.000759573
0.000760351
0.000761078
0.000761751
0.000762366
0.000762922
0.00076342
0.000763859
0.000764242
0.00076457
0.000764847
0.000765074
0.000765255
0.000765394
0.000765493
0.000765556
0.000765586
0.000766383
0.000766788
0.000767348
0.000768026
0.000768788
0.000769606
0.000770454
0.000771312
0.000772162
0.000772989
0.000773783
0.000774535
0.000775238
0.000775889
0.000776483
0.000777022
0.000777503
0.000777927
0.000778298
0.000778615
0.000778882
0.000779102
0.000779277
0.000779411
0.000779507
0.000779568
0.000779597
0.00078037
0.000780762
0.000781304
0.000781959
0.000782696
0.000783487
0.000784308
0.000785137
0.000785959
0.000786759
0.000787527
0.000788254
0.000788934
0.000789563
0.000790139
0.000790659
0.000791124
0.000791535
0.000791893
0.0007922
0.000792459
0.000792671
0.000792841
0.000792971
0.000793063
0.000793122
0.00079315
0.000793899
0.000794279
0.000794803
0.000795437
0.00079615
0.000796915
0.000797708
0.000798511
0.000799305
0.00080008
0.000800822
0.000801526
0.000802184
0.000802792
0.000803349
0.000803852
0.000804302
0.0008047
0.000805046
0.000805343
0.000805593
0.000805799
0.000805963
0.000806088
0.000806178
0.000806235
0.000806262
0.000806987
0.000807354
0.000807861
0.000808474
0.000809164
0.000809904
0.000810671
0.000811448
0.000812217
0.000812965
0.000813684
0.000814364
0.000815001
0.00081559
0.000816128
0.000816615
0.00081705
0.000817435
0.00081777
0.000818057
0.000818299
0.000818498
0.000818657
0.000818778
0.000818865
0.00081892
0.000818946
0.000819647
0.000820001
0.000820492
0.000821085
0.000821752
0.000822468
0.00082321
0.000823961
0.000824705
0.000825429
0.000826124
0.000826782
0.000827397
0.000827967
0.000828488
0.000828959
0.00082938
0.000829752
0.000830076
0.000830353
0.000830587
0.00083078
0.000830933
0.000831051
0.000831135
0.000831188
0.000831213
0.000831888
0.000832231
0.000832705
0.000833279
0.000833924
0.000834616
0.000835333
0.000836059
0.000836778
0.000837479
0.00083815
0.000838787
0.000839382
0.000839932
0.000840436
0.000840891
0.000841298
0.000841658
0.000841971
0.00084224
0.000842466
0.000842652
0.0008428
0.000842913
0.000842995
0.000843046
0.000843071
0.000843719
0.000844051
0.000844509
0.000845063
0.000845686
0.000846355
0.000847048
0.000847749
0.000848444
0.000849121
0.00084977
0.000850384
0.000850959
0.000851491
0.000851977
0.000852417
0.000852811
0.000853158
0.00085346
0.00085372
0.000853938
0.000854118
0.000854261
0.000854371
0.000854449
0.000854499
0.000854523
0.000855143
0.000855464
0.000855906
0.000856441
0.000857042
0.000857688
0.000858357
0.000859034
0.000859705
0.000860358
0.000860984
0.000861577
0.000862132
0.000862645
0.000863115
0.000863539
0.000863919
0.000864254
0.000864546
0.000864796
0.000865007
0.00086518
0.000865318
0.000865424
0.0008655
0.000865548
0.000865571
0.000866162
0.000866471
0.000866897
0.000867413
0.000867993
0.000868615
0.00086926
0.000869913
0.000870559
0.000871188
0.000871792
0.000872364
0.000872898
0.000873393
0.000873845
0.000874254
0.00087462
0.000874943
0.000875224
0.000875465
0.000875668
0.000875835
0.000875969
0.00087607
0.000876143
0.000876189
0.000876211
0.000876771
0.000877068
0.000877479
0.000877975
0.000878533
0.000879132
0.000879753
0.000880381
0.000881002
0.000881608
0.000882188
0.000882738
0.000883253
0.000883728
0.000884163
0.000884556
0.000884908
0.000885219
0.000885489
0.000885721
0.000885916
0.000886077
0.000886205
0.000886303
0.000886373
0.000886417
0.000886438
0.000886965
0.00088725
0.000887644
0.000888121
0.000888656
0.000889231
0.000889827
0.00089043
0.000891026
0.000891607
0.000892164
0.000892692
0.000893185
0.000893642
0.000894059
0.000894436
0.000894773
0.000895071
0.00089533
0.000895553
0.00089574
0.000895894
0.000896017
0.000896111
0.000896178
0.000896221
0.000896241
0.000896731
0.000897004
0.000897381
0.000897837
0.00089835
0.0008989
0.00089947
0.000900047
0.000900618
0.000901173
0.000901706
0.000902211
0.000902683
0.000903119
0.000903518
0.000903878
0.000904201
0.000904485
0.000904733
0.000904946
0.000905125
0.000905272
0.000905389
0.000905479
0.000905543
0.000905584
0.000905603
0.000906054
0.000906314
0.000906674
0.000907109
0.000907598
0.000908122
0.000908665
0.000909215
0.000909759
0.000910288
0.000910796
0.000911276
0.000911726
0.000912141
0.000912521
0.000912864
0.000913171
0.000913442
0.000913678
0.00091388
0.000914051
0.000914191
0.000914302
0.000914388
0.000914449
0.000914488
0.000914506
0.000914913
0.000915161
0.000915502
0.000915915
0.000916378
0.000916876
0.000917391
0.000917912
0.000918428
0.00091893
0.000919411
0.000919866
0.000920292
0.000920686
0.000921045
0.00092137
0.000921661
0.000921918
0.000922141
0.000922332
0.000922494
0.000922626
0.000922732
0.000922813
0.00092287
0.000922907
0.000922925
0.000923286
0.000923519
0.000923841
0.00092423
0.000924668
0.000925136
0.000925622
0.000926113
0.000926599
0.000927072
0.000927525
0.000927954
0.000928355
0.000928725
0.000929063
0.000929369
0.000929643
0.000929884
0.000930094
0.000930274
0.000930426
0.00093055
0.00093065
0.000930725
0.00093078
0.000930814
0.000930831
0.000931142
0.00093136
0.000931662
0.000932026
0.000932436
0.000932875
0.000933329
0.000933788
0.000934243
0.000934684
0.000935108
0.000935508
0.000935882
0.000936228
0.000936544
0.00093683
0.000937085
0.00093731
0.000937506
0.000937674
0.000937815
0.000937931
0.000938024
0.000938095
0.000938145
0.000938177
0.000938193
0.000938451
0.000938654
0.000938934
0.000939272
0.000939651
0.000940058
0.000940479
0.000940905
0.000941325
0.000941734
0.000942126
0.000942497
0.000942843
0.000943162
0.000943454
0.000943718
0.000943954
0.000944162
0.000944343
0.000944498
0.000944628
0.000944735
0.000944821
0.000944886
0.000944933
0.000944963
0.000944977
0.00094518
0.000945366
0.000945623
0.000945933
0.000946281
0.000946654
0.00094704
0.000947429
0.000947814
0.000948188
0.000948547
0.000948885
0.000949202
0.000949494
0.00094976
0.000950001
0.000950216
0.000950406
0.000950571
0.000950712
0.000950831
0.000950929
0.000951007
0.000951066
0.000951109
0.000951136
0.000951149
0.000951296
0.000951465
0.000951697
0.000951977
0.000952292
0.000952629
0.000952978
0.000953329
0.000953677
0.000954014
0.000954337
0.000954642
0.000954927
0.00095519
0.00095543
0.000955646
0.00095584
0.00095601
0.000956158
0.000956285
0.000956392
0.00095648
0.00095655
0.000956604
0.000956642
0.000956666
0.000956678
0.000956769
0.000956919
0.000957126
0.000957375
0.000957655
0.000957955
0.000958264
0.000958577
0.000958885
0.000959184
0.00095947
0.00095974
0.000959992
0.000960224
0.000960436
0.000960628
0.000960798
0.000960949
0.00096108
0.000961192
0.000961286
0.000961363
0.000961425
0.000961472
0.000961506
0.000961527
0.000961537
0.000961576
0.000961707
0.000961887
0.000962105
0.000962349
0.00096261
0.000962879
0.00096315
0.000963418
0.000963678
0.000963926
0.00096416
0.000964378
0.000964579
0.000964763
0.000964928
0.000965075
0.000965205
0.000965318
0.000965415
0.000965496
0.000965563
0.000965616
0.000965657
0.000965686
0.000965704
0.000965713
0.000965704
0.000965816
0.000965969
0.000966155
0.000966362
0.000966584
0.000966812
0.000967042
0.000967269
0.000967489
0.000967699
0.000967897
0.000968081
0.000968251
0.000968405
0.000968544
0.000968668
0.000968778
0.000968873
0.000968954
0.000969022
0.000969078
0.000969123
0.000969157
0.000969181
0.000969197
0.000969204
0.000969157
0.000969249
0.000969376
0.000969529
0.000969701
0.000969884
0.000970072
0.000970262
0.000970448
0.000970629
0.000970801
0.000970963
0.000971114
0.000971253
0.000971379
0.000971493
0.000971594
0.000971683
0.000971761
0.000971827
0.000971883
0.000971928
0.000971964
0.000971992
0.000972012
0.000972025
0.000972031
0.000971956
0.00097203
0.000972132
0.000972254
0.000972391
0.000972537
0.000972688
0.000972839
0.000972987
0.00097313
0.000973267
0.000973395
0.000973515
0.000973624
0.000973724
0.000973814
0.000973894
0.000973964
0.000974025
0.000974077
0.000974121
0.000974157
0.000974185
0.000974207
0.000974222
0.000974232
0.000974237
0.000974149
0.000974206
0.000974285
0.00097438
0.000974485
0.000974598
0.000974714
0.00097483
0.000974944
0.000975054
0.000975158
0.000975257
0.000975348
0.000975432
0.000975508
0.000975576
0.000975637
0.00097569
0.000975736
0.000975776
0.000975809
0.000975836
0.000975858
0.000975875
0.000975887
0.000975894
0.000975898
0.00097581
0.000975853
0.000975913
0.000975984
0.000976063
0.000976147
0.000976234
0.000976321
0.000976406
0.000976489
0.000976567
0.00097664
0.000976708
0.000976771
0.000976828
0.000976879
0.000976925
0.000976965
0.000977
0.00097703
0.000977055
0.000977075
0.000977092
0.000977104
0.000977113
0.000977119
0.000977122
0.00097704
0.000977072
0.000977116
0.00097717
0.00097723
0.000977293
0.000977358
0.000977424
0.000977488
0.00097755
0.000977609
0.000977664
0.000977715
0.000977762
0.000977805
0.000977844
0.000977878
0.000977908
0.000977934
0.000977957
0.000977975
0.000977991
0.000978003
0.000978013
0.000978019
0.000978024
0.000978026
0.000977949
0.000977973
0.000978006
0.000978045
0.000978089
0.000978135
0.000978183
0.000978231
0.000978278
0.000978323
0.000978366
0.000978406
0.000978444
0.000978478
0.000978509
0.000978537
0.000978562
0.000978584
0.000978603
0.000978619
0.000978633
0.000978644
0.000978653
0.00097866
0.000978665
0.000978668
0.000978669
0.000978602
0.000978619
0.000978642
0.00097867
0.000978701
0.000978735
0.000978768
0.000978802
0.000978836
0.000978867
0.000978898
0.000978926
0.000978953
0.000978977
0.000978999
0.000979019
0.000979036
0.000979052
0.000979065
0.000979077
0.000979086
0.000979094
0.000979101
0.000979106
0.000979109
0.000979111
0.000979112
0.000979057
0.000979069
0.000979085
0.000979104
0.000979126
0.000979149
0.000979172
0.000979196
0.000979219
0.000979241
0.000979262
0.000979282
0.0009793
0.000979317
0.000979332
0.000979346
0.000979358
0.000979368
0.000979378
0.000979386
0.000979392
0.000979398
0.000979402
0.000979406
0.000979408
0.00097941
0.00097941
0.000979367
0.000979375
0.000979386
0.000979399
0.000979414
0.00097943
0.000979446
0.000979462
0.000979478
0.000979493
0.000979507
0.000979521
0.000979533
0.000979545
0.000979555
0.000979564