/*--------------------------------*- C++ -*----------------------------------*\
| =========                 |                                                 |
| \\      /  F ield         | OpenFOAM: The Open Source CFD Toolbox           |
|  \\    /   O peration     | Version:  2106                                  |
|   \\  /    A nd           | Website:  www.openfoam.com                      |
|    \\/     M anipulation  |                                                 |
\*---------------------------------------------------------------------------*/
FoamFile
{
    version     2.0;
    format      ascii;
    arch        "LSB;label=32;scalar=64";
    class       volScalarField;
    location    "80.00032";
    object      T;
}
// * * * * * * * * * * * * * * * * * * * * * * * * * * * * * * * * * * * * * //

dimensions      [0 0 0 1 0 0 0];

internalField   nonuniform List<scalar> 
3360
(
301
301
301
301
301
301
301
301
301
301
301
301
301
301
301
301
301
301
301
301
301
301
301
301
301
301
301
301
301
301
301
301
301
301
301
301
301
301
301
301
301
301
301
301
301
301
301
301
301
301
301
301
301
301
301.001
301.001
301.001
301.001
301.001
301.001
301.001
301.001
301.001
301.001
301.001
301.001
301.001
301.001
301.001
301.001
301.001
301.001
301.001
301.001
301.001
301.001
301
301
301
301
301
301.002
301.002
301.002
301.002
301.002
301.002
301.002
301.002
301.003
301.003
301.003
301.003
301.003
301.003
301.003
301.003
301.003
301.003
301.003
301.003
301.003
301.003
301.003
301.003
301.003
301.003
301.003
301.005
301.005
301.006
301.006
301.006
301.007
301.007
301.008
301.008
301.009
301.009
301.01
301.01
301.01
301.011
301.011
301.011
301.012
301.012
301.012
301.012
301.012
301.012
301.012
301.012
301.012
301.012
301.014
301.015
301.016
301.017
301.018
301.019
301.021
301.022
301.024
301.025
301.027
301.028
301.03
301.032
301.033
301.034
301.036
301.037
301.038
301.039
301.039
301.04
301.041
301.041
301.041
301.041
301.042
301.036
301.038
301.04
301.042
301.045
301.049
301.052
301.056
301.061
301.065
301.07
301.074
301.078
301.083
301.087
301.091
301.095
301.098
301.102
301.105
301.107
301.11
301.112
301.114
301.115
301.117
301.118
301.083
301.086
301.091
301.097
301.104
301.113
301.121
301.131
301.141
301.151
301.162
301.173
301.184
301.194
301.205
301.215
301.224
301.233
301.242
301.25
301.257
301.263
301.269
301.275
301.28
301.284
301.287
301.178
301.185
301.195
301.208
301.223
301.241
301.26
301.28
301.302
301.324
301.347
301.37
301.393
301.416
301.438
301.46
301.481
301.501
301.52
301.538
301.554
301.57
301.584
301.597
301.608
301.618
301.627
301.357
301.371
301.392
301.417
301.447
301.481
301.518
301.558
301.601
301.645
301.69
301.735
301.781
301.826
301.871
301.914
301.956
301.996
302.034
302.07
302.104
302.135
302.164
302.191
302.215
302.237
302.256
301.679
301.705
301.743
301.79
301.845
301.908
301.976
302.05
302.128
302.208
302.291
302.375
302.459
302.542
302.624
302.704
302.781
302.855
302.926
302.993
303.056
303.115
303.17
303.22
303.266
303.309
303.347
302.23
302.276
302.342
302.424
302.52
302.63
302.749
302.878
303.013
303.153
303.296
303.441
303.587
303.731
303.873
304.012
304.146
304.275
304.398
304.515
304.625
304.729
304.825
304.914
304.996
305.071
305.14
303.138
303.215
303.325
303.462
303.623
303.805
304.004
304.217
304.441
304.673
304.91
305.15
305.39
305.628
305.862
306.091
306.312
306.524
306.728
306.921
307.103
307.274
307.434
307.582
307.719
307.845
307.961
304.584
304.708
304.884
305.104
305.363
305.654
305.972
306.312
306.669
307.037
307.414
307.794
308.173
308.549
308.919
309.279
309.627
309.962
310.283
310.587
310.874
311.144
311.396
311.631
311.848
312.049
312.232
306.821
307.014
307.287
307.63
308.031
308.481
308.972
309.495
310.043
310.608
311.183
311.763
312.342
312.914
313.474
314.02
314.548
315.055
315.539
315.999
316.433
316.841
317.223
317.578
317.908
318.212
318.491
310.195
310.487
310.9
311.416
312.019
312.694
313.427
314.207
315.022
315.86
316.712
317.567
318.419
319.259
320.081
320.88
321.651
322.391
323.096
323.766
324.397
324.991
325.545
326.062
326.541
326.984
327.391
315.178
315.607
316.213
316.969
317.849
318.832
319.898
321.027
322.203
323.408
324.63
325.853
327.067
328.262
329.428
330.558
331.647
332.689
333.682
334.622
335.508
336.34
337.118
337.841
338.512
339.132
339.703
322.392
323.006
323.872
324.949
326.201
327.594
329.098
330.687
332.335
334.018
335.717
337.414
339.092
340.737
342.339
343.887
345.375
346.796
348.146
349.423
350.625
351.752
352.803
353.782
354.689
355.527
356.298
332.643
333.499
334.705
336.199
337.929
339.848
341.912
344.083
346.325
348.607
350.901
353.182
355.43
357.627
359.758
361.812
363.78
365.655
367.433
369.11
370.687
372.163
373.54
374.819
376.004
377.099
378.106
346.929
348.089
349.719
351.732
354.055
356.621
359.37
362.248
365.207
368.206
371.207
374.18
377.097
379.939
382.686
385.325
387.846
390.243
392.509
394.645
396.648
398.521
400.266
401.886
403.386
404.771
406.046
366.408
367.931
370.066
372.695
375.716
379.039
382.583
386.276
390.058
393.872
397.674
401.424
405.091
408.649
412.078
415.363
418.492
421.46
424.262
426.897
429.365
431.669
433.815
435.806
437.648
439.35
440.917
392.288
394.22
396.92
400.234
404.029
408.185
412.598
417.178
421.847
426.537
431.194
435.77
440.23
444.543
448.689
452.65
456.416
459.98
463.339
466.494
469.447
472.202
474.765
477.144
479.346
481.379
483.253
425.627
427.985
431.273
435.296
439.885
444.894
450.193
455.671
461.234
466.804
472.315
477.714
482.962
488.025
492.88
497.51
501.906
506.06
509.972
513.644
517.078
520.282
523.264
526.032
528.595
530.965
533.152
467.046
469.809
473.653
478.346
483.685
489.494
495.621
501.936
508.331
514.716
521.018
527.179
533.155
538.911
544.423
549.674
554.654
559.359
563.788
567.944
571.833
575.462
578.842
581.983
584.895
587.592
590.084
516.443
519.55
523.865
529.124
535.095
541.578
548.4
555.418
562.51
569.579
576.545
583.346
589.935
596.276
602.344
608.124
613.604
618.783
623.659
628.237
632.525
636.532
640.268
643.744
646.974
649.971
652.746
572.811
576.164
580.818
586.482
592.905
599.87
607.191
614.712
622.304
629.865
637.309
644.574
651.61
658.38
664.86
671.033
676.89
682.427
687.647
692.554
697.156
701.462
705.485
709.236
712.729
715.977
718.994
634.229
637.708
642.535
648.405
655.058
662.267
669.84
677.617
685.464
693.277
700.969
708.476
715.748
722.748
729.453
735.844
741.915
747.661
753.086
758.192
762.99
767.489
771.7
775.636
779.31
782.736
785.927
698.061
701.534
706.351
712.21
718.848
726.04
733.594
741.351
749.179
756.974
764.651
772.146
779.411
786.411
793.12
799.523
805.612
811.384
816.841
821.988
826.832
831.384
835.654
839.655
843.4
846.901
850.171
761.311
764.649
769.279
774.909
781.288
788.2
795.461
802.918
810.446
817.944
825.332
832.55
839.55
846.3
852.776
858.963
864.854
870.447
875.741
880.743
885.46
889.901
894.076
897.997
901.676
905.123
908.353
821.067
824.154
828.436
833.643
839.544
845.937
852.653
859.552
866.517
873.456
880.296
886.98
893.467
899.725
905.733
911.479
916.954
922.157
927.09
931.756
936.163
940.319
944.233
947.915
951.377
954.629
957.681
874.914
877.659
881.466
886.096
891.341
897.023
902.991
909.121
915.308
921.472
927.546
933.483
939.244
944.803
950.141
955.248
960.116
964.745
969.136
973.294
977.224
980.934
984.432
987.728
990.83
993.749
996.494
921.225
923.57
926.821
930.773
935.248
940.094
945.181
950.401
955.667
960.909
966.073
971.115
976.006
980.722
985.249
989.578
993.704
997.626
1001.35
1004.87
1008.2
1011.35
1014.31
1017.11
1019.74
1022.22
1024.56
959.29
961.213
963.877
967.114
970.776
974.736
978.889
983.146
987.435
991.698
995.892
999.981
1003.94
1007.76
1011.42
1014.91
1018.23
1021.39
1024.38
1027.21
1029.89
1032.41
1034.79
1037.04
1039.15
1041.14
1043.01
989.253
990.766
992.862
995.405
998.278
1001.38
1004.63
1007.96
1011.3
1014.61
1017.87
1021.03
1024.1
1027.04
1029.85
1032.53
1035.08
1037.49
1039.78
1041.94
1043.97
1045.89
1047.7
1049.4
1050.99
1052.5
1053.91
1011.91
1013.06
1014.64
1016.56
1018.73
1021.06
1023.5
1025.99
1028.49
1030.96
1033.38
1035.72
1037.98
1040.15
1042.22
1044.18
1046.04
1047.8
1049.46
1051.03
1052.5
1053.88
1055.18
1056.41
1057.55
1058.63
1059.64
1028.45
1029.29
1030.44
1031.84
1033.41
1035.1
1036.86
1038.66
1040.45
1042.22
1043.95
1045.62
1047.23
1048.76
1050.22
1051.6
1052.9
1054.13
1055.29
1056.37
1057.39
1058.35
1059.24
1060.08
1060.87
1061.6
1062.29
1040.16
1040.75
1041.57
1042.55
1043.66
1044.84
1046.07
1047.33
1048.57
1049.8
1050.99
1052.14
1053.25
1054.3
1055.29
1056.23
1057.11
1057.94
1058.72
1059.44
1060.12
1060.76
1061.35
1061.91
1062.43
1062.91
1063.37
1048.27
1048.67
1049.23
1049.9
1050.66
1051.47
1052.31
1053.16
1054
1054.83
1055.63
1056.4
1057.14
1057.84
1058.5
1059.12
1059.7
1060.24
1060.75
1061.23
1061.67
1062.08
1062.46
1062.82
1063.16
1063.47
1063.76
1053.78
1054.05
1054.42
1054.87
1055.38
1055.92
1056.48
1057.04
1057.6
1058.14
1058.67
1059.18
1059.66
1060.11
1060.54
1060.94
1061.32
1061.67
1061.99
1062.3
1062.58
1062.84
1063.08
1063.31
1063.52
1063.71
1063.89
1057.48
1057.66
1057.91
1058.2
1058.53
1058.89
1059.25
1059.61
1059.98
1060.33
1060.67
1060.99
1061.3
1061.59
1061.86
1062.12
1062.35
1062.57
1062.78
1062.96
1063.14
1063.3
1063.45
1063.59
1063.72
1063.83
1063.94
1059.96
1060.07
1060.23
1060.42
1060.63
1060.86
1061.09
1061.32
1061.55
1061.77
1061.99
1062.19
1062.38
1062.56
1062.73
1062.88
1063.03
1063.16
1063.28
1063.4
1063.5
1063.6
1063.68
1063.76
1063.84
1063.91
1063.97
1061.6
1061.68
1061.77
1061.89
1062.02
1062.16
1062.31
1062.45
1062.59
1062.73
1062.85
1062.98
1063.09
1063.2
1063.3
1063.39
1063.47
1063.55
1063.62
1063.68
1063.74
1063.79
1063.84
1063.88
1063.92
1063.95
1063.98
1062.69
1062.74
1062.8
1062.87
1062.95
1063.03
1063.11
1063.2
1063.28
1063.36
1063.43
1063.5
1063.56
1063.62
1063.67
1063.72
1063.76
1063.8
1063.83
1063.86
1063.89
1063.91
1063.94
1063.95
1063.97
1063.98
1063.99
1063.42
1063.44
1063.48
1063.51
1063.56
1063.6
1063.65
1063.69
1063.73
1063.77
1063.81
1063.84
1063.87
1063.9
1063.92
1063.94
1063.95
1063.97
1063.98
1063.99
1063.99
1064
1064
1064
1064
1064
1064
1063.9
1063.91
1063.92
1063.94
1063.96
1063.98
1064
1064.02
1064.04
1064.05
1064.06
1064.07
1064.08
1064.08
1064.08
1064.08
1064.08
1064.08
1064.07
1064.07
1064.06
1064.05
1064.04
1064.04
1064.03
1064.02
1064
1064.21
1064.22
1064.22
1064.23
1064.23
1064.23
1064.24
1064.24
1064.23
1064.23
1064.23
1064.22
1064.21
1064.2
1064.19
1064.18
1064.17
1064.15
1064.14
1064.12
1064.11
1064.09
1064.07
1064.06
1064.04
1064.02
1064.01
1064.42
1064.42
1064.42
1064.41
1064.41
1064.4
1064.39
1064.38
1064.37
1064.35
1064.34
1064.32
1064.3
1064.28
1064.26
1064.24
1064.22
1064.2
1064.18
1064.16
1064.14
1064.11
1064.09
1064.07
1064.05
1064.03
1064.01
1064.56
1064.55
1064.55
1064.54
1064.52
1064.51
1064.49
1064.47
1064.45
1064.43
1064.41
1064.39
1064.36
1064.34
1064.31
1064.28
1064.26
1064.23
1064.21
1064.18
1064.15
1064.13
1064.1
1064.08
1064.06
1064.03
1064.01
1064.65
1064.64
1064.63
1064.62
1064.6
1064.58
1064.56
1064.53
1064.51
1064.48
1064.46
1064.43
1064.4
1064.37
1064.34
1064.31
1064.28
1064.25
1064.22
1064.19
1064.17
1064.14
1064.11
1064.08
1064.06
1064.03
1064.01
1064.71
1064.7
1064.69
1064.67
1064.65
1064.63
1064.6
1064.57
1064.55
1064.52
1064.49
1064.46
1064.42
1064.39
1064.36
1064.33
1064.3
1064.26
1064.23
1064.2
1064.17
1064.14
1064.12
1064.09
1064.06
1064.03
1064.01
1064.75
1064.74
1064.72
1064.7
1064.68
1064.66
1064.63
1064.6
1064.57
1064.54
1064.51
1064.47
1064.44
1064.41
1064.37
1064.34
1064.3
1064.27
1064.24
1064.21
1064.18
1064.15
1064.12
1064.09
1064.06
1064.03
1064.01
1064.77
1064.76
1064.74
1064.72
1064.7
1064.67
1064.65
1064.62
1064.58
1064.55
1064.52
1064.48
1064.45
1064.41
1064.38
1064.34
1064.31
1064.28
1064.24
1064.21
1064.18
1064.15
1064.12
1064.09
1064.06
1064.03
1064
1064.79
1064.77
1064.76
1064.74
1064.71
1064.69
1064.66
1064.62
1064.59
1064.56
1064.52
1064.49
1064.45
1064.42
1064.38
1064.35
1064.31
1064.28
1064.24
1064.21
1064.18
1064.15
1064.12
1064.09
1064.06
1064.03
1064
1064.79
1064.78
1064.76
1064.74
1064.72
1064.69
1064.66
1064.63
1064.59
1064.56
1064.52
1064.49
1064.45
1064.42
1064.38
1064.35
1064.31
1064.28
1064.24
1064.21
1064.17
1064.14
1064.11
1064.08
1064.05
1064.02
1064
1064.8
1064.78
1064.77
1064.74
1064.72
1064.69
1064.66
1064.63
1064.59
1064.56
1064.52
1064.49
1064.45
1064.41
1064.38
1064.34
1064.31
1064.27
1064.24
1064.2
1064.17
1064.14
1064.11
1064.08
1064.05
1064.02
1063.99
1064.8
1064.78
1064.77
1064.74
1064.72
1064.69
1064.66
1064.63
1064.59
1064.56
1064.52
1064.48
1064.45
1064.41
1064.37
1064.34
1064.3
1064.26
1064.23
1064.2
1064.16
1064.13
1064.1
1064.07
1064.04
1064.01
1063.98
1064.79
1064.78
1064.76
1064.74
1064.71
1064.68
1064.65
1064.62
1064.58
1064.55
1064.51
1064.47
1064.44
1064.4
1064.36
1064.33
1064.29
1064.26
1064.22
1064.19
1064.15
1064.12
1064.09
1064.06
1064.03
1064
1063.97
1064.78
1064.77
1064.75
1064.73
1064.7
1064.67
1064.64
1064.61
1064.57
1064.54
1064.5
1064.46
1064.43
1064.39
1064.35
1064.32
1064.28
1064.24
1064.21
1064.17
1064.14
1064.11
1064.08
1064.05
1064.02
1063.99
1063.96
1064.77
1064.76
1064.74
1064.72
1064.69
1064.66
1064.63
1064.59
1064.56
1064.52
1064.49
1064.45
1064.41
1064.37
1064.34
1064.3
1064.26
1064.23
1064.19
1064.16
1064.12
1064.09
1064.06
1064.03
1064
1063.97
1063.94
1064.75
1064.74
1064.72
1064.7
1064.67
1064.64
1064.61
1064.58
1064.54
1064.5
1064.47
1064.43
1064.39
1064.35
1064.31
1064.28
1064.24
1064.2
1064.17
1064.13
1064.1
1064.07
1064.03
1064
1063.97
1063.94
1063.92
1064.73
1064.72
1064.7
1064.67
1064.65
1064.62
1064.58
1064.55
1064.51
1064.48
1064.44
1064.4
1064.36
1064.32
1064.29
1064.25
1064.21
1064.17
1064.14
1064.1
1064.07
1064.04
1064
1063.97
1063.94
1063.91
1063.88
1064.7
1064.69
1064.67
1064.64
1064.62
1064.58
1064.55
1064.52
1064.48
1064.44
1064.4
1064.36
1064.33
1064.29
1064.25
1064.21
1064.17
1064.14
1064.1
1064.06
1064.03
1064
1063.96
1063.93
1063.9
1063.87
1063.84
1064.66
1064.65
1064.63
1064.6
1064.57
1064.54
1064.51
1064.47
1064.44
1064.4
1064.36
1064.32
1064.28
1064.24
1064.2
1064.16
1064.12
1064.09
1064.05
1064.01
1063.98
1063.94
1063.91
1063.88
1063.85
1063.82
1063.79
1064.61
1064.59
1064.57
1064.55
1064.52
1064.49
1064.45
1064.42
1064.38
1064.34
1064.3
1064.26
1064.22
1064.18
1064.14
1064.1
1064.06
1064.02
1063.98
1063.95
1063.91
1063.88
1063.84
1063.81
1063.78
1063.75
1063.72
1064.54
1064.53
1064.51
1064.48
1064.45
1064.42
1064.38
1064.34
1064.31
1064.26
1064.22
1064.18
1064.14
1064.1
1064.06
1064.02
1063.98
1063.94
1063.9
1063.86
1063.83
1063.79
1063.76
1063.73
1063.69
1063.66
1063.63
1064.46
1064.44
1064.42
1064.39
1064.36
1064.33
1064.29
1064.25
1064.21
1064.17
1064.13
1064.08
1064.04
1064
1063.96
1063.91
1063.87
1063.83
1063.79
1063.76
1063.72
1063.68
1063.65
1063.61
1063.58
1063.55
1063.52
1064.35
1064.33
1064.31
1064.28
1064.25
1064.21
1064.18
1064.13
1064.09
1064.05
1064
1063.96
1063.91
1063.87
1063.82
1063.78
1063.74
1063.7
1063.66
1063.62
1063.58
1063.54
1063.51
1063.47
1063.44
1063.41
1063.38
1064.21
1064.19
1064.17
1064.14
1064.11
1064.07
1064.03
1063.98
1063.94
1063.89
1063.85
1063.8
1063.75
1063.7
1063.66
1063.61
1063.57
1063.53
1063.48
1063.44
1063.4
1063.36
1063.33
1063.29
1063.26
1063.22
1063.19
1064.04
1064.02
1063.99
1063.96
1063.92
1063.88
1063.84
1063.79
1063.75
1063.7
1063.65
1063.6
1063.55
1063.5
1063.45
1063.4
1063.35
1063.31
1063.26
1063.22
1063.18
1063.14
1063.1
1063.06
1063.03
1062.99
1062.96
1063.82
1063.8
1063.77
1063.73
1063.69
1063.65
1063.6
1063.55
1063.5
1063.45
1063.39
1063.34
1063.29
1063.23
1063.18
1063.13
1063.08
1063.03
1062.99
1062.94
1062.9
1062.85
1062.81
1062.77
1062.74
1062.7
1062.67
1063.54
1063.52
1063.49
1063.45
1063.4
1063.36
1063.3
1063.25
1063.19
1063.14
1063.08
1063.02
1062.96
1062.9
1062.85
1062.79
1062.74
1062.69
1062.64
1062.59
1062.54
1062.5
1062.45
1062.41
1062.37
1062.33
1062.3
1063.19
1063.16
1063.13
1063.09
1063.04
1062.99
1062.93
1062.87
1062.81
1062.75
1062.68
1062.62
1062.55
1062.49
1062.43
1062.37
1062.31
1062.25
1062.2
1062.15
1062.1
1062.05
1062
1061.96
1061.91
1061.87
1061.84
1062.75
1062.72
1062.69
1062.64
1062.59
1062.53
1062.46
1062.4
1062.33
1062.26
1062.19
1062.11
1062.04
1061.97
1061.91
1061.84
1061.78
1061.71
1061.65
1061.6
1061.54
1061.49
1061.44
1061.39
1061.34
1061.3
1061.26
1062.21
1062.18
1062.13
1062.08
1062.02
1061.95
1061.88
1061.8
1061.73
1061.65
1061.57
1061.49
1061.41
1061.33
1061.26
1061.18
1061.11
1061.04
1060.97
1060.91
1060.85
1060.79
1060.74
1060.68
1060.63
1060.59
1060.54
1061.53
1061.49
1061.45
1061.38
1061.32
1061.24
1061.16
1061.07
1060.98
1060.89
1060.8
1060.71
1060.62
1060.53
1060.45
1060.36
1060.28
1060.21
1060.13
1060.06
1059.99
1059.93
1059.87
1059.81
1059.75
1059.7
1059.65
1060.69
1060.65
1060.59
1060.52
1060.44
1060.35
1060.26
1060.16
1060.06
1059.95
1059.85
1059.75
1059.64
1059.54
1059.45
1059.35
1059.26
1059.17
1059.09
1059.01
1058.93
1058.86
1058.79
1058.72
1058.66
1058.6
1058.55
1059.66
1059.61
1059.54
1059.46
1059.37
1059.26
1059.15
1059.04
1058.92
1058.8
1058.68
1058.56
1058.44
1058.32
1058.21
1058.1
1058
1057.9
1057.8
1057.71
1057.62
1057.54
1057.46
1057.39
1057.32
1057.25
1057.19
1058.38
1058.33
1058.25
1058.15
1058.04
1057.92
1057.79
1057.66
1057.52
1057.38
1057.24
1057.1
1056.96
1056.83
1056.69
1056.57
1056.45
1056.33
1056.22
1056.11
1056.01
1055.92
1055.83
1055.74
1055.66
1055.59
1055.52
1056.82
1056.75
1056.66
1056.55
1056.42
1056.28
1056.12
1055.97
1055.8
1055.64
1055.47
1055.31
1055.15
1054.99
1054.84
1054.69
1054.55
1054.41
1054.28
1054.16
1054.04
1053.93
1053.83
1053.73
1053.64
1053.55
1053.47
1054.91
1054.83
1054.72
1054.59
1054.44
1054.27
1054.09
1053.9
1053.71
1053.51
1053.32
1053.12
1052.93
1052.75
1052.57
1052.39
1052.23
1052.07
1051.92
1051.77
1051.64
1051.51
1051.39
1051.27
1051.17
1051.07
1050.98
1052.58
1052.49
1052.36
1052.2
1052.02
1051.82
1051.61
1051.38
1051.15
1050.92
1050.69
1050.46
1050.24
1050.02
1049.81
1049.6
1049.4
1049.22
1049.04
1048.87
1048.71
1048.56
1048.42
1048.28
1048.16
1048.04
1047.94
1049.76
1049.65
1049.49
1049.31
1049.09
1048.85
1048.6
1048.33
1048.06
1047.78
1047.51
1047.24
1046.97
1046.71
1046.46
1046.21
1045.98
1045.76
1045.55
1045.35
1045.16
1044.98
1044.81
1044.66
1044.51
1044.38
1044.25
1046.34
1046.21
1046.03
1045.81
1045.55
1045.26
1044.96
1044.64
1044.32
1043.99
1043.66
1043.34
1043.02
1042.71
1042.41
1042.12
1041.85
1041.58
1041.33
1041.09
1040.87
1040.66
1040.46
1040.28
1040.11
1039.95
1039.8
1042.23
1042.08
1041.86
1041.59
1041.28
1040.94
1040.58
1040.2
1039.82
1039.43
1039.04
1038.65
1038.27
1037.9
1037.54
1037.2
1036.87
1036.56
1036.26
1035.97
1035.71
1035.46
1035.22
1035
1034.8
1034.61
1034.43
1037.31
1037.12
1036.86
1036.54
1036.17
1035.76
1035.33
1034.88
1034.42
1033.95
1033.49
1033.03
1032.57
1032.13
1031.71
1031.3
1030.9
1030.53
1030.17
1029.84
1029.52
1029.22
1028.94
1028.68
1028.44
1028.21
1028
1031.42
1031.2
1030.89
1030.51
1030.07
1029.58
1029.07
1028.53
1027.98
1027.42
1026.87
1026.32
1025.78
1025.25
1024.74
1024.25
1023.78
1023.34
1022.91
1022.51
1022.13
1021.78
1021.44
1021.13
1020.84
1020.57
1020.32
1024.43
1024.17
1023.8
1023.34
1022.82
1022.24
1021.63
1020.99
1020.33
1019.67
1019.01
1018.35
1017.71
1017.08
1016.47
1015.89
1015.33
1014.79
1014.29
1013.81
1013.36
1012.93
1012.53
1012.16
1011.81
1011.49
1011.19
1016.17
1015.86
1015.42
1014.87
1014.25
1013.57
1012.84
1012.08
1011.3
1010.51
1009.72
1008.94
1008.17
1007.42
1006.7
1006
1005.33
1004.7
1004.09
1003.52
1002.98
1002.47
1002
1001.55
1001.13
1000.75
1000.39
1006.46
1006.09
1005.57
1004.92
1004.19
1003.38
1002.51
1001.61
1000.68
999.718
998.781
997.854
996.943
996.055
995.194
994.366
993.572
992.814
992.094
991.412
990.769
990.164
989.596
989.066
988.571
988.11
987.681
995.088
994.648
994.032
993.273
992.402
991.443
990.418
989.349
988.252
987.142
986.032
984.932
983.852
982.798
981.776
980.792
979.847
978.946
978.089
977.277
976.51
975.788
975.111
974.477
973.885
973.333
972.82
981.916
981.398
980.673
979.78
978.753
977.623
976.415
975.154
973.86
972.55
971.238
969.939
968.661
967.414
966.204
965.037
963.918
962.848
961.83
960.865
959.953
959.094
958.288
957.532
956.825
956.167
955.554
966.737
966.13
965.28
964.233
963.029
961.703
960.286
958.805
957.284
955.743
954.201
952.67
951.165
949.695
948.268
946.89
945.568
944.303
943.098
941.955
940.874
939.855
938.897
937.998
937.158
936.373
935.642
949.385
948.678
947.687
946.466
945.061
943.513
941.859
940.128
938.35
936.548
934.741
932.949
931.184
929.458
927.782
926.163
924.607
923.117
921.697
920.348
919.072
917.867
916.733
915.669
914.672
913.741
912.872
929.725
928.906
927.758
926.343
924.714
922.918
920.997
918.987
916.92
914.824
912.721
910.632
908.574
906.56
904.602
902.709
900.887
899.142
897.476
895.893
894.393
892.975
891.639
890.384
889.207
888.106
887.077
907.667
906.725
905.404
903.775
901.9
899.831
897.617
895.298
892.912
890.49
888.058
885.641
883.256
880.921
878.648
876.448
874.329
872.296
870.355
868.506
866.753
865.094
863.53
862.058
860.675
859.38
858.169
883.183
882.109
880.602
878.743
876.6
874.236
871.704
869.051
866.318
863.541
860.751
857.975
855.234
852.546
849.928
847.39
844.943
842.594
840.346
838.205
836.17
834.243
832.423
830.708
829.095
827.583
826.167
856.328
855.114
853.41
851.308
848.884
846.207
843.338
840.33
837.229
834.075
830.903
827.743
824.62
821.555
818.565
815.664
812.864
810.171
807.592
805.131
802.791
800.571
798.471
796.49
794.625
792.872
791.229
827.252
825.894
823.988
821.636
818.922
815.924
812.708
809.333
805.851
802.306
798.738
795.18
791.659
788.2
784.822
781.54
778.368
775.314
772.385
769.587
766.922
764.39
761.993
759.727
757.591
755.582
753.694
796.213
794.713
792.607
790.006
787.005
783.686
780.125
776.384
772.522
768.587
764.622
760.663
756.743
752.887
749.116
745.449
741.899
738.478
735.193
732.049
729.051
726.2
723.496
720.936
718.52
716.243
714.101
763.585
761.95
759.654
756.818
753.543
749.92
746.029
741.94
737.715
733.407
729.062
724.72
720.416
716.177
712.028
707.989
704.074
700.295
696.663
693.183
689.859
686.694
683.687
680.838
678.144
675.602
673.207
729.85
728.095
725.629
722.581
719.062
715.167
710.982
706.581
702.031
697.388
692.702
688.016
683.365
678.782
674.292
669.915
665.668
661.565
657.616
653.828
650.206
646.751
643.466
640.349
637.397
634.608
631.977
695.584
693.73
691.125
687.905
684.185
680.067
675.642
670.987
666.171
661.256
656.292
651.325
646.393
641.528
636.758
632.105
627.586
623.217
619.007
614.964
611.094
607.4
603.882
600.54
597.372
594.374
591.543
661.427
659.503
656.8
653.458
649.598
645.325
640.733
635.902
630.903
625.8
620.646
615.487
610.362
605.306
600.347
595.506
590.802
586.251
581.863
577.646
573.606
569.746
566.067
562.569
559.249
556.104
553.131
628.047
626.088
623.337
619.936
616.009
611.663
606.993
602.083
597.003
591.819
586.583
581.344
576.141
571.007
565.971
561.056
556.28
551.657
547.199
542.914
538.806
534.88
531.136
527.573
524.189
520.982
517.947
596.096
594.141
591.398
588.008
584.097
579.771
575.126
570.245
565.2
560.055
554.864
549.672
544.52
539.44
534.46
529.602
524.883
520.318
515.917
511.687
507.634
503.759
500.064
496.547
493.206
490.039
487.039
566.163
564.255
561.578
558.273
554.464
550.256
545.742
541.006
536.117
531.138
526.122
521.113
516.148
511.26
506.475
501.812
497.289
492.918
488.708
484.666
480.795
477.097
473.572
470.219
467.035
464.015
461.157
538.735
536.915
534.362
531.215
527.591
523.595
519.317
514.837
510.222
505.532
500.816
496.118
491.472
486.907
482.448
478.112
473.915
469.866
465.973
462.241
458.673
455.269
452.028
448.948
446.026
443.257
440.636
514.168
512.47
510.094
507.168
503.807
500.108
496.158
492.031
487.792
483.496
479.19
474.913
470.696
466.565
462.541
458.641
454.875
451.252
447.778
444.455
441.285
438.267
435.399
432.678
430.1
427.66
425.353
492.661
491.117
488.959
486.308
483.268
479.933
476.382
472.684
468.899
465.077
461.259
457.482
453.771
450.151
446.637
443.243
439.978
436.848
433.856
431.003
428.289
425.712
423.269
420.956
418.768
416.702
414.75
474.257
472.888
470.977
468.635
465.957
463.029
459.921
456.698
453.412
450.108
446.822
443.585
440.419
437.343
434.371
431.512
428.774
426.158
423.667
421.301
419.057
416.933
414.925
413.029
411.24
409.553
407.962
458.849
457.664
456.014
453.996
451.698
449.192
446.544
443.808
441.032
438.253
435.503
432.805
430.18
427.642
425.201
422.863
420.634
418.513
416.502
414.599
412.8
411.103
409.504
407.997
406.579
405.245
403.99
446.206
445.205
443.814
442.117
440.191
438.098
435.896
433.631
431.343
429.063
426.817
424.625
422.503
420.46
418.504
416.64
414.87
413.193
411.609
410.115
408.709
407.386
406.143
404.975
403.878
402.848
401.881
436.015
435.187
434.04
432.644
431.064
429.354
427.561
425.725
423.878
422.047
420.251
418.506
416.824
415.212
413.675
412.217
410.837
409.535
408.309
407.158
406.076
405.062
404.112
403.221
402.386
401.604
400.87
427.92
427.249
426.32
425.192
423.92
422.547
421.114
419.651
418.185
416.737
415.323
413.955
412.641
411.387
410.195
409.068
408.006
407.006
406.068
405.189
404.366
403.595
402.875
402.201
401.57
400.98
400.428
421.564
421.028
420.287
419.39
418.38
417.294
416.162
415.012
413.863
412.731
411.63
410.568
409.551
408.583
407.666
406.802
405.988
405.225
404.511
403.842
403.217
402.633
402.088
401.579
401.103
400.658
400.242
416.616
416.193
415.608
414.902
414.109
413.258
412.374
411.477
410.583
409.706
408.854
408.034
407.251
406.507
405.805
405.143
404.522
403.94
403.395
402.887
402.412
401.969
401.556
401.171
400.81
400.474
400.16
412.787
412.456
411.999
411.448
410.83
410.167
409.481
408.785
408.094
407.416
406.759
406.128
405.527
404.956
404.418
403.911
403.437
402.992
402.577
402.19
401.828
401.491
401.177
400.884
400.61
400.355
400.116
409.847
409.589
409.234
408.805
408.325
407.812
407.28
406.742
406.208
405.686
405.18
404.694
404.231
403.793
403.38
402.992
402.628
402.287
401.969
401.673
401.396
401.139
400.898
400.674
400.465
400.27
400.087
407.639
407.438
407.162
406.829
406.455
406.056
405.643
405.226
404.812
404.406
404.014
403.638
403.279
402.94
402.62
402.319
402.037
401.773
401.527
401.297
401.083
400.883
400.697
400.523
400.361
400.209
400.068
406.187
406.025
405.804
405.536
405.236
404.916
404.584
404.248
403.915
403.588
403.272
402.968
402.678
402.403
402.143
401.898
401.669
401.454
401.253
401.065
400.889
400.725
400.572
400.43
400.296
400.172
400.056
301
301
301.001
301.002
301.005
301.014
301.035
301.081
301.174
301.35
301.666
302.208
303.101
304.524
306.727
310.053
314.969
322.093
332.226
346.362
365.662
391.341
424.469
465.688
514.915
571.16
632.516
696.351
759.667
819.547
873.562
920.07
958.343
988.507
1011.35
1028.04
1039.87
1048.07
1053.64
1057.4
1059.9
1061.57
1062.67
1063.41
1063.89
1064.21
1064.42
1064.56
1064.65
1064.71
1064.75
1064.78
1064.79
1064.8
1064.8
1064.8
1064.8
1064.79
1064.78
1064.76
1064.74
1064.71
1064.67
1064.62
1064.55
1064.47
1064.36
1064.22
1064.05
1063.83
1063.55
1063.2
1062.76
1062.22
1061.55
1060.71
1059.68
1058.41
1056.85
1054.95
1052.63
1049.81
1046.41
1042.31
1037.4
1031.53
1024.56
1016.32
1006.64
995.303
982.169
967.034
949.731
930.126
908.128
883.709
856.922
827.915
796.946
764.384
730.708
696.49
662.367
629.004
597.051
567.095
539.626
514.998
493.417
474.929
459.43
446.698
436.422
428.251
421.829
416.825
412.951
409.974
407.739
406.266
)
;

boundaryField
{
    outlet
    {
        type            inletOutlet;
        inletValue      uniform 301;
        value           nonuniform List<scalar> 
28
(
406.187
406.025
405.804
405.536
405.236
404.916
404.584
404.248
403.915
403.588
403.272
402.968
402.678
402.403
402.143
401.898
401.669
401.454
401.253
401.065
400.889
400.725
400.572
400.43
400.296
400.172
400.056
406.266
)
;
    }
    inlet
    {
        type            fixedValue;
        value           uniform 301;
    }
    front
    {
        type            wedge;
    }
    wall
    {
        type            codedFixedValue;
        value           nonuniform List<scalar> 
120
(
301
301
301
301.002
301.012
301.042
301.118
301.289
301.631
302.265
303.365
305.172
308.014
312.318
318.622
327.582
339.97
356.66
378.58
406.645
441.653
484.135
534.182
591.26
654.06
720.425
787.446
851.733
909.899
959.147
997.813
1025.68
1043.91
1054.6
1060.13
1062.62
1063.58
1063.9
1063.98
1064
1064
1064
1064
1064
1064
1064
1064
1064
1064
1064
1063.99
1063.99
1063.99
1063.98
1063.98
1063.97
1063.96
1063.95
1063.93
1063.9
1063.87
1063.83
1063.78
1063.71
1063.62
1063.51
1063.36
1063.18
1062.94
1062.65
1062.28
1061.82
1061.24
1060.52
1059.63
1058.52
1057.16
1055.49
1053.44
1050.93
1047.89
1044.19
1039.73
1034.35
1027.9
1020.2
1011.05
1000.22
987.478
972.576
955.263
935.295
912.458
886.587
857.591
825.489
790.443
752.789
713.073
672.056
630.71
590.177
551.696
516.481
485.589
459.774
439.37
424.239
413.809
407.196
403.386
401.417
400.519
400.163
400.043
400.009
400.002
400
400
400
)
;
        name            wall_temperature_bc;
        code            #{
            double T_sp = 0.991612 * 1073.00;
            double a1 = 0.132188029479, m1 = 6.254104485267;
            double a2 = 0.500856144351, m2 = 16.953023427490;

            vector axisX = vector(1, 0, 0);
            scalarField x = (patch().Cf() & axisX);

            scalarField u = Foam::pow(x / a1, m1);
            scalarField d = Foam::pow(x / a2, m2);

            scalarField Tu = (T_sp - 301.0) * (1 - Foam::exp(-u));
            scalarField Td = (T_sp - 400.0) * (1 - Foam::exp(-d));

            scalarField Tval = 301 + Tu - Td;
            operator==(Tval);
        #};
    }
    back
    {
        type            wedge;
    }
}


// ************************************************************************* //
