/*--------------------------------*- C++ -*----------------------------------*\
| =========                 |                                                 |
| \\      /  F ield         | OpenFOAM: The Open Source CFD Toolbox           |
|  \\    /   O peration     | Version:  2212                                  |
|   \\  /    A nd           | Website:  www.openfoam.com                      |
|    \\/     M anipulation  |                                                 |
\*---------------------------------------------------------------------------*/
FoamFile
{
    version     2.0;
    format      ascii;
    arch        "LSB;label=32;scalar=64";
    class       volScalarField;
    location    "23.25000000";
    object      A1C2H3_0;
}
// * * * * * * * * * * * * * * * * * * * * * * * * * * * * * * * * * * * * * //

dimensions      [0 0 0 0 0 0 0];

internalField   nonuniform List<scalar> 
3000
(
1.898605043e-27
2.132850992e-27
2.486322867e-27
2.957345943e-27
3.54111479e-27
4.221752242e-27
4.958233933e-27
5.660906417e-27
6.157875068e-27
7.128180436e-27
8.039969964e-27
9.415257379e-27
1.125201714e-26
1.354837064e-26
1.629138639e-26
1.943344723e-26
2.281480703e-26
2.581145105e-26
1.596603241e-26
1.814944621e-26
2.147425319e-26
2.598860406e-26
3.177370964e-26
3.891322818e-26
4.737953026e-26
5.669612956e-26
6.466286441e-26
3.041094153e-26
3.493192488e-26
4.191717609e-26
5.16030359e-26
6.433265259e-26
8.0429207e-26
9.980544717e-26
1.209076006e-25
1.379437012e-25
5.400068274e-26
6.278960765e-26
7.658295541e-26
9.608131905e-26
1.222019305e-25
1.556765459e-25
1.959472349e-25
2.387112286e-25
2.715407e-25
9.285747189e-26
1.093530252e-25
1.356122592e-25
1.73310679e-25
2.244592374e-25
2.903438854e-25
3.689980063e-25
4.505003499e-25
5.107995099e-25
1.576365116e-25
1.879364729e-25
2.367331079e-25
3.07577905e-25
4.044158319e-25
5.291706994e-25
6.766833661e-25
8.265562697e-25
9.34698018e-25
2.667707028e-25
3.216055511e-25
4.107001844e-25
5.410527212e-25
7.199332117e-25
9.499152016e-25
1.219460533e-24
1.48933326e-24
1.680813476e-24
4.521956396e-25
5.503835457e-25
7.109499621e-25
9.470627673e-25
1.271653531e-24
1.687839141e-24
2.172107149e-24
2.651918236e-24
2.988593109e-24
7.69210871e-25
9.43644713e-25
1.230202946e-24
1.652951212e-24
2.23447333e-24
2.97813837e-24
3.838660224e-24
4.685007411e-24
5.274457591e-24
1.313632122e-24
1.621697791e-24
2.129396146e-24
2.87990493e-24
3.912324817e-24
5.22965305e-24
6.747689127e-24
8.233054049e-24
9.262354999e-24
2.25151635e-24
2.79318457e-24
3.687826429e-24
5.012016911e-24
6.833238018e-24
9.152890393e-24
1.181788636e-23
1.441610869e-23
1.621032227e-23
3.870759861e-24
4.820027197e-24
6.39025433e-24
8.716257131e-24
1.191443744e-23
1.598227711e-23
2.064545344e-23
2.518016094e-23
2.830400172e-23
6.670629544e-24
8.330131169e-24
1.10780796e-23
1.515073168e-23
2.074899507e-23
2.786212444e-23
3.60032177e-23
4.390548377e-23
4.933964744e-23
1.15171534e-23
1.4413029e-23
1.921180257e-23
2.632625979e-23
3.610348152e-23
4.851660935e-23
6.270693937e-23
7.646255212e-23
8.590989378e-23
1.991281092e-23
2.49594587e-23
3.332661235e-23
4.573403395e-23
6.27818291e-23
8.441271591e-23
1.091188801e-22
1.330445272e-22
1.494619867e-22
3.446458139e-23
4.325074705e-23
5.782313594e-23
7.943496011e-23
1.091243852e-22
1.467777995e-22
1.897555381e-22
2.313443552e-22
2.598625157e-22
5.969618696e-23
7.498166108e-23
1.00339752e-22
1.379500167e-22
1.896088287e-22
2.550992712e-22
3.298095521e-22
4.020614773e-22
4.515774633e-22
1.034573796e-22
1.300351743e-22
1.741336313e-22
2.39539697e-22
3.293612714e-22
4.431927765e-22
5.729880642e-22
6.984463552e-22
7.843830593e-22
1.793684299e-22
2.255609558e-22
3.02210583e-22
4.158909724e-22
5.719762134e-22
7.697156526e-22
9.950846889e-22
1.212815272e-21
1.361886485e-21
3.110580418e-22
3.913122007e-22
5.244833404e-22
7.21971526e-22
9.930610677e-22
1.336367118e-21
1.727457599e-21
2.105098935e-21
2.36352808e-21
5.395052735e-22
6.788901141e-22
9.101675139e-22
1.253086035e-21
1.723664339e-21
2.319346241e-21
2.99758007e-21
3.652111695e-21
4.099776228e-21
9.357510255e-22
1.17774842e-21
1.579236885e-21
2.174382831e-21
2.990771616e-21
4.023660772e-21
5.198953535e-21
6.332399607e-21
7.107106169e-21
1.622877365e-21
2.042859842e-21
2.739494148e-21
3.77179642e-21
5.187149498e-21
6.97668473e-21
9.011378272e-21
1.09719954e-20
1.231098903e-20
2.813956954e-21
3.542468241e-21
4.750513128e-21
6.53983023e-21
8.991541855e-21
1.208891092e-20
1.560724952e-20
1.899400227e-20
2.130464226e-20
4.87746275e-21
6.140356418e-21
8.233709073e-21
1.133248137e-20
1.557498235e-20
2.092931517e-20
2.700415823e-20
3.28443112e-20
3.682381e-20
8.449761926e-21
1.063723862e-20
1.426130534e-20
1.962193728e-20
2.695371522e-20
3.619527956e-20
4.666506858e-20
5.671444308e-20
6.355149625e-20
1.462809498e-20
1.841309612e-20
2.467974674e-20
3.39404624e-20
4.659053602e-20
6.25109759e-20
8.051485137e-20
9.776231255e-20
1.094742885e-19
2.530063405e-20
3.184115523e-20
4.266117843e-20
5.863206989e-20
8.041464856e-20
1.077767658e-19
1.386521989e-19
1.681612268e-19
1.881536271e-19
4.370906257e-20
5.499240938e-20
7.363983209e-20
1.011250519e-19
1.385420597e-19
1.854363603e-19
2.38213885e-19
2.885151372e-19
3.225017363e-19
7.540377318e-20
9.482944631e-20
1.26894275e-19
1.740745624e-19
2.381600738e-19
3.182604017e-19
4.081322218e-19
4.935072335e-19
5.510089563e-19
1.298586865e-19
1.63219675e-19
2.1820648e-19
2.989481063e-19
4.083307457e-19
5.446137906e-19
6.969738663e-19
8.411637229e-19
9.379252345e-19
2.231881924e-19
2.803122676e-19
3.743036718e-19
5.119851557e-19
6.979301909e-19
9.2875296e-19
1.185744039e-18
1.427909604e-18
1.58975349e-18
3.826946339e-19
4.801695516e-19
6.402294038e-19
8.740300853e-19
1.18866488e-18
1.577597003e-18
2.008609267e-18
2.412805701e-18
2.681711157e-18
6.544367793e-19
8.200986794e-19
1.091488697e-18
1.486627656e-18
2.016227653e-18
2.667791624e-18
3.386114096e-18
4.056183546e-18
4.499766036e-18
1.115749892e-18
1.39601041e-18
1.853907684e-18
2.518149228e-18
3.404372778e-18
4.488966298e-18
5.677900961e-18
6.780618861e-18
7.506749744e-18
1.895822946e-18
2.367516295e-18
3.135848643e-18
4.245830375e-18
5.719286775e-18
7.512200948e-18
9.465555752e-18
1.126620625e-17
1.244531731e-17
3.209285642e-18
3.998629069e-18
5.280032395e-18
7.122801718e-18
9.555520239e-18
1.249733659e-17
1.5681517e-17
1.859798578e-17
2.049675109e-17
5.410632401e-18
6.723246092e-18
8.846187458e-18
1.188399588e-17
1.587051099e-17
2.065954877e-17
2.580774456e-17
3.049193069e-17
3.352364429e-17
9.081736955e-18
1.124964571e-17
1.474171257e-17
1.971194545e-17
2.619320262e-17
3.39254938e-17
4.217909091e-17
4.963827049e-17
5.443753436e-17
1.517145395e-17
1.872583986e-17
2.442642783e-17
3.249398948e-17
4.294462336e-17
5.532366503e-17
6.844253121e-17
8.021869575e-17
8.775126358e-17
2.521646402e-17
3.099898876e-17
4.023061013e-17
5.321775222e-17
6.992620268e-17
8.957423278e-17
1.10246665e-16
1.286794164e-16
1.404025737e-16
4.168766433e-17
5.101887744e-17
6.584471533e-17
8.657402465e-17
1.130574121e-16
1.439732214e-16
1.762691162e-16
2.048782728e-16
2.229734801e-16
6.852875333e-17
8.346005355e-17
1.070670934e-16
1.39868291e-16
1.814813128e-16
2.297080868e-16
2.797367014e-16
3.237755149e-16
3.514839004e-16
1.119863203e-16
1.356729644e-16
1.729362706e-16
2.243881967e-16
2.892093853e-16
3.638017515e-16
4.406601812e-16
5.079105827e-16
5.500142067e-16
1.818780918e-16
2.191259862e-16
2.774321461e-16
3.574399899e-16
4.575520328e-16
5.719670949e-16
6.890999365e-16
7.910096957e-16
8.545186667e-16
2.935141236e-16
3.515741597e-16
4.42012918e-16
5.653603889e-16
7.186873427e-16
8.927737504e-16
1.069911971e-15
1.223213062e-15
1.318342322e-15
4.705832717e-16
5.602959686e-16
6.993718489e-16
8.879426821e-16
1.120870578e-15
1.383697704e-15
1.64961042e-15
1.878612649e-15
2.020164549e-15
7.49456349e-16
8.868896169e-16
1.098964306e-15
1.384902757e-15
1.735997552e-15
2.129860252e-15
2.526243443e-15
2.86607232e-15
3.075387807e-15
1.185555146e-15
1.394333584e-15
1.715091391e-15
2.145274741e-15
2.670531189e-15
3.256593428e-15
3.843543947e-15
4.344695623e-15
4.652399638e-15
1.862716728e-15
2.177319199e-15
2.658661937e-15
3.300999542e-15
4.08121565e-15
4.947427529e-15
5.811121159e-15
6.545851752e-15
6.995709323e-15
2.906876679e-15
3.377273327e-15
4.094167723e-15
5.046414292e-15
6.197526741e-15
7.469735604e-15
8.733194329e-15
9.804473386e-15
1.045877305e-14
4.505707043e-15
5.203848349e-15
6.263983818e-15
7.666161636e-15
9.353760596e-15
1.121124682e-14
1.304935067e-14
1.460332447e-14
1.555038255e-14
6.937182109e-15
7.966099014e-15
9.523349365e-15
1.157503115e-14
1.403454409e-14
1.673163394e-14
1.93920223e-14
2.163537092e-14
2.299998988e-14
1.061049042e-14
1.211697191e-14
1.43901482e-14
1.737451168e-14
2.093927335e-14
2.483537641e-14
2.866748e-14
3.18915274e-14
3.384952021e-14
1.612447171e-14
1.831669206e-14
2.161560093e-14
2.593283076e-14
3.107303398e-14
3.667430045e-14
4.216959014e-14
4.678372724e-14
4.958205559e-14
2.435074431e-14
2.752271894e-14
3.228429577e-14
3.849787012e-14
4.587450909e-14
5.389149459e-14
6.173918185e-14
6.831711828e-14
7.230176714e-14
3.655150489e-14
4.11169537e-14
4.795527039e-14
5.685598493e-14
6.739543145e-14
7.882278701e-14
8.998678404e-14
9.933045487e-14
1.049849531e-13
5.454587575e-14
6.108502992e-14
7.086038665e-14
8.355476775e-14
9.855171019e-14
1.147781446e-13
1.306032448e-13
1.438309869e-13
1.51829574e-13
8.094404034e-14
9.026823662e-14
1.041824732e-13
1.22214691e-13
1.434740236e-13
1.664338349e-13
1.887920205e-13
2.074600848e-13
2.187410081e-13
1.194757806e-13
1.327164731e-13
1.524442664e-13
1.779640175e-13
2.079961733e-13
2.40377819e-13
2.718696381e-13
2.981394681e-13
3.140059154e-13
1.754501283e-13
1.941813844e-13
2.220508874e-13
2.580443033e-13
3.003338587e-13
3.458667367e-13
3.900982149e-13
4.269665262e-13
4.492255077e-13
2.563966278e-13
2.828034919e-13
3.220445609e-13
3.726514499e-13
4.320261133e-13
4.958745248e-13
5.578376361e-13
6.094526481e-13
6.406059732e-13
3.729574326e-13
4.100670532e-13
4.651519641e-13
5.361012095e-13
6.192382335e-13
7.085421414e-13
7.951371996e-13
8.672330161e-13
9.107397681e-13
5.401247752e-13
5.921233042e-13
6.692338797e-13
7.684403743e-13
8.84560921e-13
1.009177596e-12
1.129930004e-12
1.23042294e-12
1.291060039e-12
7.789523559e-13
8.516188754e-13
9.592861241e-13
1.097668221e-12
1.259488438e-12
1.433008664e-12
1.601051529e-12
1.74085817e-12
1.825215376e-12
1.118914517e-12
1.220214293e-12
1.370192964e-12
1.562790328e-12
1.787822303e-12
2.028961067e-12
2.262380743e-12
2.456538999e-12
2.573697779e-12
1.601146871e-12
1.742040867e-12
1.950502931e-12
2.218002335e-12
2.530330444e-12
2.864826739e-12
3.188502156e-12
3.457704844e-12
3.620167796e-12
2.282879996e-12
2.478426717e-12
2.767585987e-12
3.138398714e-12
3.571098903e-12
4.034304351e-12
4.482414678e-12
4.855101752e-12
5.080061463e-12
3.243477889e-12
3.514328174e-12
3.914644435e-12
4.427725009e-12
5.026148094e-12
5.666541133e-12
6.285971417e-12
6.801172727e-12
7.112236693e-12
4.592618982e-12
4.967035158e-12
5.520191286e-12
6.228844533e-12
7.055050659e-12
7.938983024e-12
8.793924503e-12
9.505100369e-12
9.934621877e-12
6.481312705e-12
6.997880903e-12
7.760781007e-12
8.737773184e-12
9.876483221e-12
1.10945479e-11
1.227266785e-11
1.325285861e-11
1.384506163e-11
9.116629906e-12
9.827877994e-12
1.087797787e-11
1.222234652e-11
1.378886538e-11
1.546436746e-11
1.708500966e-11
1.843367481e-11
1.924880187e-11
1.278123837e-11
1.375842041e-11
1.520077104e-11
1.704681376e-11
1.919747564e-11
2.149758382e-11
2.372254885e-11
2.557454612e-11
2.669429837e-11
1.785906744e-11
1.919842572e-11
2.117488147e-11
2.370388921e-11
2.664966727e-11
2.979991492e-11
3.28474502e-11
3.538466619e-11
3.691923955e-11
2.486866318e-11
2.669952552e-11
2.940063314e-11
3.285600901e-11
3.688001018e-11
4.11828873e-11
4.534557659e-11
4.881176313e-11
5.090880619e-11
3.450601347e-11
3.700111984e-11
4.068125222e-11
4.538770829e-11
5.086732119e-11
5.67257358e-11
6.239300123e-11
6.711238157e-11
6.996820292e-11
4.769878795e-11
5.108725725e-11
5.608357357e-11
6.247110975e-11
6.99055728e-11
7.785194307e-11
8.55378416e-11
9.193801445e-11
9.581133999e-11
6.56740092e-11
7.025734426e-11
7.701313197e-11
8.564645511e-11
9.569054288e-11
1.064221913e-10
1.167990858e-10
1.2543866e-10
1.306671789e-10
9.004110296e-11
9.621257993e-11
1.0530545e-10
1.169193725e-10
1.304237454e-10
1.448450878e-10
1.587835883e-10
1.703848185e-10
1.774046541e-10
1.228920221e-10
1.311597114e-10
1.433349661e-10
1.588761196e-10
1.769346353e-10
1.962063845e-10
2.148216816e-10
2.303081441e-10
2.396762437e-10
1.669196655e-10
1.779331813e-10
1.9414245e-10
2.148173611e-10
2.388213048e-10
2.64416541e-10
2.891209015e-10
3.096599549e-10
3.220792167e-10
2.255551036e-10
2.401359812e-10
2.615809286e-10
2.889101332e-10
3.206089036e-10
3.543754261e-10
3.869362034e-10
4.139856441e-10
4.303323991e-10
3.031231871e-10
3.222985481e-10
3.504791182e-10
3.863565707e-10
4.279238847e-10
4.721517741e-10
5.147538454e-10
5.501118134e-10
5.714650767e-10
4.050149995e-10
4.3005391e-10
4.668202003e-10
5.13576787e-10
5.67680982e-10
6.251738244e-10
6.804849352e-10
7.263417998e-10
7.54013519e-10
5.378743983e-10
5.70326065e-10
6.179325726e-10
6.784021199e-10
7.482786885e-10
8.224264874e-10
8.936636212e-10
9.526543015e-10
9.882196809e-10
7.097946799e-10
7.515274086e-10
8.126880807e-10
8.902738976e-10
9.797980384e-10
1.074649522e-09
1.165644159e-09
1.240899161e-09
1.286226053e-09
9.305203264e-10
9.837599973e-10
1.061702304e-09
1.16044207e-09
1.274198824e-09
1.39453069e-09
1.5097907e-09
1.604984101e-09
1.662260436e-09
1.21164797e-09
1.279014701e-09
1.377530852e-09
1.502157575e-09
1.645507072e-09
1.796887716e-09
1.941653707e-09
2.061046379e-09
2.132804674e-09
1.566820242e-09
1.651361922e-09
1.77485538e-09
1.930852236e-09
2.109987729e-09
2.298833196e-09
2.479127319e-09
2.627603913e-09
2.716742036e-09
2.011906134e-09
2.11712761e-09
2.270653232e-09
2.464300345e-09
2.686296993e-09
2.919917253e-09
3.142582873e-09
3.325681374e-09
3.435478873e-09
2.565161856e-09
2.695048751e-09
2.884345183e-09
3.122756754e-09
3.395609575e-09
3.682243666e-09
3.954974717e-09
4.178907604e-09
4.31303653e-09
3.24736697e-09
3.406403375e-09
3.637916657e-09
3.929067339e-09
4.261717224e-09
4.610556287e-09
4.941915285e-09
5.213581211e-09
5.376113564e-09
4.08193164e-09
4.275111194e-09
4.556009027e-09
4.908748922e-09
5.311096234e-09
5.732293914e-09
6.131718178e-09
6.458707192e-09
6.654115606e-09
5.094972091e-09
5.327802308e-09
5.665978827e-09
6.090036962e-09
6.572942457e-09
7.077612362e-09
7.555411936e-09
7.945999811e-09
8.179154134e-09
6.315352686e-09
6.59385256e-09
6.997923774e-09
7.50390011e-09
8.079173189e-09
8.679377867e-09
9.24672022e-09
9.709855901e-09
9.986015189e-09
7.774693935e-09
8.105384619e-09
8.584673101e-09
9.184021319e-09
9.864401238e-09
1.057312704e-08
1.124201367e-08
1.178729947e-08
1.211209996e-08
9.507344376e-09
9.897236011e-09
1.046175334e-08
1.11667537e-08
1.196587604e-08
1.279699976e-08
1.358023429e-08
1.421789977e-08
1.459733936e-08
1.155033074e-08
1.200690237e-08
1.266731849e-08
1.349104201e-08
1.442339859e-08
1.539164557e-08
1.630279446e-08
1.704366482e-08
1.748408472e-08
1.394327039e-08
1.447444595e-08
1.524205493e-08
1.619832058e-08
1.727921151e-08
1.840010632e-08
1.945345287e-08
2.030891151e-08
2.081697257e-08
1.672826123e-08
1.734238186e-08
1.822906229e-08
1.933238822e-08
2.057786756e-08
2.186767843e-08
2.307817108e-08
2.406011703e-08
2.464277636e-08
1.99497491e-08
2.065554245e-08
2.167371362e-08
2.293926352e-08
2.436607979e-08
2.584175797e-08
2.722495352e-08
2.834575842e-08
2.90102442e-08
2.365437605e-08
2.446092318e-08
2.562349804e-08
2.706702366e-08
2.869255605e-08
3.03716709e-08
3.194367778e-08
3.321614077e-08
3.396992596e-08
2.789081285e-08
2.880751332e-08
3.012784879e-08
3.176562914e-08
3.360782137e-08
3.550849647e-08
3.728591617e-08
3.872321771e-08
3.957399327e-08
3.270957803e-08
3.37461133e-08
3.523795898e-08
3.708673993e-08
3.916403571e-08
4.130488372e-08
4.330475172e-08
4.492040714e-08
4.587605514e-08
3.816284564e-08
3.932914417e-08
4.100659354e-08
4.308352871e-08
4.541480675e-08
4.781486455e-08
5.005459168e-08
5.186240513e-08
5.293097213e-08
4.430425508e-08
4.561045781e-08
4.748789946e-08
4.981049129e-08
5.241500133e-08
5.509366634e-08
5.759098124e-08
5.96050006e-08
6.079467161e-08
5.118871896e-08
5.264514541e-08
5.473721531e-08
5.732325773e-08
6.022055821e-08
6.319752647e-08
6.597041981e-08
6.8204893e-08
6.952396625e-08
5.887223227e-08
6.048934774e-08
6.281088319e-08
6.56784063e-08
6.888830442e-08
7.218351111e-08
7.525018197e-08
7.771951509e-08
7.917637786e-08
6.741168531e-08
6.920006959e-08
7.176606522e-08
7.493328249e-08
7.847577707e-08
8.21093399e-08
8.54881449e-08
8.820686238e-08
8.980996804e-08
7.686468262e-08
7.883500035e-08
8.166056655e-08
8.514582497e-08
8.904105254e-08
9.303321831e-08
9.67426236e-08
9.972533077e-08
1.014831772e-07
8.72893695e-08
8.945234234e-08
9.25526663e-08
9.637439968e-08
1.00642584e-07
1.050136788e-07
1.090722152e-07
1.123335634e-07
1.142546728e-07
9.874426751e-08
1.011106483e-07
1.045009578e-07
1.086776435e-07
1.133390488e-07
1.181094317e-07
1.225356534e-07
1.260903073e-07
1.281832078e-07
1.1128812e-07
1.138686691e-07
1.175641991e-07
1.221143181e-07
1.271892062e-07
1.323792265e-07
1.371916728e-07
1.410542812e-07
1.433274893e-07
1.249797484e-07
1.277852118e-07
1.318011741e-07
1.367431747e-07
1.422517654e-07
1.478817246e-07
1.530988852e-07
1.572840537e-07
1.597460592e-07
1.398779198e-07
1.429190095e-07
1.472705654e-07
1.5262283e-07
1.585852661e-07
1.646753823e-07
1.70315666e-07
1.748379328e-07
1.774971846e-07
1.560412261e-07
1.593286026e-07
1.640308376e-07
1.698116537e-07
1.762479687e-07
1.828183455e-07
1.889000525e-07
1.937738664e-07
1.966387598e-07
1.735279746e-07
1.770722308e-07
1.821401331e-07
1.883676667e-07
1.952977571e-07
2.023683558e-07
2.089096523e-07
2.141493536e-07
2.172282195e-07
1.923960902e-07
1.962077376e-07
2.016561788e-07
2.083484511e-07
2.157920512e-07
2.233826662e-07
2.304015631e-07
2.360213668e-07
2.393224619e-07
2.127030279e-07
2.16792485e-07
2.226362026e-07
2.298110705e-07
2.377877308e-07
2.459179687e-07
2.534323025e-07
2.594462831e-07
2.629777816e-07
2.345056976e-07
2.388832789e-07
2.451368624e-07
2.528120004e-07
2.613410691e-07
2.700303304e-07
2.780577469e-07
2.844798265e-07
2.882498127e-07
2.578603976e-07
2.625363049e-07
2.692141828e-07
2.77407069e-07
2.865076764e-07
2.957751399e-07
3.043330807e-07
3.111770182e-07
3.151934806e-07
2.828227582e-07
2.878070732e-07
2.949235034e-07
3.036514067e-07
3.133424519e-07
3.232070621e-07
3.323127532e-07
3.395921354e-07
3.438629617e-07
3.09447695e-07
3.147503732e-07
3.223194337e-07
3.315994043e-07
3.418995444e-07
3.523800011e-07
3.620504437e-07
3.697786785e-07
3.743116518e-07
3.377893696e-07
3.434202355e-07
3.514558183e-07
3.613046788e-07
3.72232321e-07
3.833470708e-07
3.935990343e-07
4.017893451e-07
4.065921403e-07
3.67901159e-07
3.738699019e-07
3.823857074e-07
3.928200476e-07
4.043933419e-07
4.161605725e-07
4.270105886e-07
4.356760102e-07
4.407561923e-07
3.99835631e-07
4.061518028e-07
4.151613359e-07
4.26197508e-07
4.38434343e-07
4.508719783e-07
4.623363376e-07
4.714897134e-07
4.768547353e-07
4.336445271e-07
4.4031754e-07
4.498341078e-07
4.614882231e-07
4.744062232e-07
4.875319205e-07
4.9962667e-07
5.092806502e-07
5.149378522e-07
4.693787507e-07
4.764178762e-07
4.864545863e-07
4.98742514e-07
5.123590371e-07
5.26190186e-07
5.38931128e-07
5.490981687e-07
5.550547781e-07
5.070883605e-07
5.145027289e-07
5.25072489e-07
5.380098556e-07
5.523419933e-07
5.668957152e-07
5.802984072e-07
5.909907709e-07
5.972539019e-07
5.468225681e-07
5.546211689e-07
5.657366874e-07
5.793388771e-07
5.944034553e-07
6.096966046e-07
6.237763605e-07
6.350061167e-07
6.41582771e-07
5.886297407e-07
5.968214235e-07
6.0849521e-07
6.227773664e-07
6.385909472e-07
6.54640113e-07
6.694120049e-07
6.811910317e-07
6.880880998e-07
6.325574065e-07
6.411508816e-07
6.533952496e-07
6.683722779e-07
6.849511618e-07
7.017726708e-07
7.172515314e-07
7.29591518e-07
7.368157802e-07
6.786522629e-07
6.876561038e-07
7.004831721e-07
7.161697421e-07
7.335299717e-07
7.511398915e-07
7.673403179e-07
7.802527667e-07
7.878108947e-07
7.269601887e-07
7.363828331e-07
7.498045294e-07
7.662150788e-07
7.843724426e-07
8.027865859e-07
8.197229426e-07
8.332191728e-07
8.411177316e-07
7.775262563e-07
7.873760093e-07
8.014040729e-07
8.185528113e-07
8.375228482e-07
8.567567772e-07
8.74443201e-07
8.885343514e-07
8.967798013e-07
8.303947482e-07
8.406797841e-07
8.553257697e-07
8.732266832e-07
8.930246871e-07
9.130937182e-07
9.315441223e-07
9.462411557e-07
9.548398543e-07
8.856091729e-07
8.963375381e-07
9.116128196e-07
9.302796751e-07
9.509207003e-07
9.718399099e-07
9.91067989e-07
1.006381695e-06
1.0153399e-06
9.432122835e-07
9.543918993e-07
9.703076736e-07
9.897540239e-07
1.01125289e-06
1.03303712e-06
1.053056355e-06
1.068997355e-06
1.078321226e-06
1.003246096e-06
1.014884762e-06
1.031452053e-06
1.051691242e-06
1.07406254e-06
1.096726402e-06
1.117550066e-06
1.134128818e-06
1.143824418e-06
1.065751909e-06
1.077857305e-06
1.095086969e-06
1.116132136e-06
1.139390235e-06
1.162948118e-06
1.18458928e-06
1.20181608e-06
1.211889381e-06
1.130770325e-06
1.143350014e-06
1.161252742e-06
1.183116828e-06
1.207275879e-06
1.231741954e-06
1.254213487e-06
1.272098477e-06
1.282555359e-06
1.198341267e-06
1.2114027e-06
1.229989025e-06
1.252684778e-06
1.27775872e-06
1.303146947e-06
1.32646153e-06
1.345014699e-06
1.355860954e-06
1.268504004e-06
1.282054522e-06
1.301334819e-06
1.324874799e-06
1.350877366e-06
1.377201499e-06
1.401371624e-06
1.420602815e-06
1.43184415e-06
1.341297167e-06
1.355344003e-06
1.375328498e-06
1.399725081e-06
1.426669808e-06
1.4539434e-06
1.47898138e-06
1.498900291e-06
1.510542331e-06
1.41675877e-06
1.431309055e-06
1.452007826e-06
1.477273212e-06
1.505173438e-06
1.53340985e-06
1.559327819e-06
1.57994401e-06
1.591992298e-06
1.494926234e-06
1.509986996e-06
1.531409979e-06
1.557556195e-06
1.586425072e-06
1.615637474e-06
1.642447396e-06
1.663770293e-06
1.676230293e-06
1.575836401e-06
1.59141457e-06
1.613571562e-06
1.640610467e-06
1.670460965e-06
1.700662345e-06
1.728376016e-06
1.750414914e-06
1.763292017e-06
1.659525553e-06
1.675627967e-06
1.698528631e-06
1.726471921e-06
1.75731683e-06
1.788519999e-06
1.817149057e-06
1.839913122e-06
1.853212643e-06
1.746029438e-06
1.762662838e-06
1.786316706e-06
1.815175922e-06
1.847027861e-06
1.879245457e-06
1.90880138e-06
1.932299658e-06
1.94602684e-06
1.835383278e-06
1.852554318e-06
1.876970797e-06
1.906757323e-06
1.939628743e-06
1.972873237e-06
2.003367355e-06
2.027608769e-06
2.041768788e-06
1.927621794e-06
1.945337041e-06
1.970525413e-06
2.001250486e-06
2.035153678e-06
2.069437377e-06
2.100880869e-06
2.12587423e-06
2.140472193e-06
2.02277922e-06
2.041045156e-06
2.067014584e-06
2.098689297e-06
2.133636391e-06
2.168971446e-06
2.201375351e-06
2.227129353e-06
2.242170302e-06
2.120889317e-06
2.139712342e-06
2.166471873e-06
2.199107179e-06
2.235110154e-06
2.271508562e-06
2.304883777e-06
2.331407008e-06
2.346895923e-06
2.221985393e-06
2.241371826e-06
2.268930396e-06
2.30253711e-06
2.339607795e-06
2.377081404e-06
2.411438694e-06
2.438739634e-06
2.454681431e-06
2.326100314e-06
2.346056398e-06
2.37442283e-06
2.409011636e-06
2.447161715e-06
2.48572223e-06
2.521072226e-06
2.549159251e-06
2.565558788e-06
2.433266519e-06
2.45379842e-06
2.482981433e-06
2.518562886e-06
2.557803902e-06
2.597462884e-06
2.63381609e-06
2.662697477e-06
2.679559553e-06
2.543516032e-06
2.564629844e-06
2.594638051e-06
2.631222579e-06
2.671565939e-06
2.712334814e-06
2.749701608e-06
2.779385535e-06
2.796714892e-06
2.656880478e-06
2.67858222e-06
2.709424135e-06
2.747022043e-06
2.788479019e-06
2.830369076e-06
2.868759717e-06
2.899254266e-06
2.917055589e-06
2.773391087e-06
2.795686712e-06
2.827370746e-06
2.865992221e-06
2.908573953e-06
2.951596352e-06
2.991020977e-06
3.022334135e-06
3.040612058e-06
2.893078711e-06
2.915974101e-06
2.948508571e-06
2.988163679e-06
3.03188118e-06
3.076046951e-06
3.116515581e-06
3.148655245e-06
3.167414346e-06
3.01597383e-06
3.039474798e-06
3.072867926e-06
3.11356662e-06
3.158430774e-06
3.203750821e-06
3.245273362e-06
3.278247337e-06
3.29749214e-06
3.142106557e-06
3.166218852e-06
3.200478763e-06
3.242230882e-06
3.28825245e-06
3.334737551e-06
3.377323795e-06
3.411139795e-06
3.430874774e-06
3.271506646e-06
3.296235951e-06
3.331370678e-06
3.374185947e-06
3.421375566e-06
3.469036375e-06
3.512696e-06
3.547361651e-06
3.567591228e-06
3.404203494e-06
3.429555424e-06
3.465572908e-06
3.50946094e-06
3.557829123e-06
3.60667617e-06
3.651418741e-06
3.686941579e-06
3.707670122e-06
3.540226145e-06
3.566206252e-06
3.603114339e-06
3.648084632e-06
3.697641767e-06
3.747685455e-06
3.793520422e-06
3.82990789e-06
3.851139716e-06
3.679603287e-06
3.706217054e-06
3.744023495e-06
3.790085431e-06
3.840841778e-06
3.892092382e-06
3.939029076e-06
3.976288525e-06
3.998027894e-06
3.822363242e-06
3.849616083e-06
3.888328532e-06
3.935491375e-06
3.987457061e-06
4.039924721e-06
4.087972351e-06
4.126111033e-06
4.148362149e-06
3.968533952e-06
3.996431211e-06
4.03605722e-06
4.084330107e-06
4.137515123e-06
4.191209839e-06
4.240377484e-06
4.279402548e-06
4.302169553e-06
4.118142964e-06
4.146689907e-06
4.187236918e-06
4.236628856e-06
4.291043042e-06
4.345974665e-06
4.396271263e-06
4.436189746e-06
4.459476718e-06
4.271217393e-06
4.300419206e-06
4.341894545e-06
4.392414394e-06
4.448067432e-06
4.504245644e-06
4.555679982e-06
4.596498797e-06
4.620309739e-06
4.427783887e-06
4.457645664e-06
4.500056527e-06
4.551712986e-06
4.608614376e-06
4.666048676e-06
4.718629366e-06
4.760355284e-06
4.784694117e-06
4.587868562e-06
4.618395295e-06
4.661748729e-06
4.714550316e-06
4.77270935e-06
4.831409023e-06
4.885144476e-06
4.927784108e-06
4.952654654e-06
4.751496922e-06
4.782693483e-06
4.826996365e-06
4.880951382e-06
4.940377114e-06
5.000351194e-06
5.055249585e-06
5.098809347e-06
5.124215315e-06
4.918693745e-06
4.950564869e-06
4.995823871e-06
5.050940368e-06
5.111641561e-06
5.172898781e-06
5.228968001e-06
5.273454077e-06
5.299399035e-06
5.089482939e-06
5.122033187e-06
5.168254736e-06
5.224540454e-06
5.286525522e-06
5.349074248e-06
5.406321839e-06
5.451740127e-06
5.478227473e-06
5.263887333e-06
5.29712106e-06
5.344311281e-06
5.40177358e-06
5.465050503e-06
5.528898647e-06
5.587331719e-06
5.633687761e-06
5.660720677e-06
5.441928416e-06
5.475849718e-06
5.524014358e-06
5.582660126e-06
5.64723634e-06
5.712391246e-06
5.772016365e-06
5.819315255e-06
5.846896655e-06
5.623625989e-06
5.658238635e-06
5.707382966e-06
5.767218493e-06
5.833100752e-06
5.89956904e-06
5.960392087e-06
6.008638352e-06
6.036770808e-06
5.808997703e-06
5.84430505e-06
5.894433745e-06
5.955464561e-06
6.022658751e-06
6.090446128e-06
6.152472106e-06
6.201669553e-06
6.230355202e-06
5.998058477e-06
6.034063357e-06
6.085180319e-06
6.147410991e-06
6.215921888e-06
6.285032895e-06
6.348265695e-06
6.398417208e-06
6.427657633e-06
6.190819736e-06
6.227524309e-06
6.279632468e-06
6.343066329e-06
6.412897298e-06
6.483334987e-06
6.547777078e-06
6.598884369e-06
6.628680443e-06
6.387288451e-06
6.424694027e-06
6.477795065e-06
6.54243388e-06
6.613586487e-06
6.685352013e-06
6.75100405e-06
6.803067335e-06
6.833419033e-06
6.587465938e-06
6.625572736e-06
6.679666752e-06
6.74551029e-06
6.817983813e-06
6.891075924e-06
6.957936264e-06
7.010953861e-06
7.041860012e-06
6.79134635e-06
6.830153215e-06
6.885238305e-06
6.952283808e-06
7.02607463e-06
7.100489025e-06
7.168553116e-06
7.222520949e-06
7.253978942e-06
6.998914843e-06
7.038418884e-06
7.094490611e-06
7.162732137e-06
7.237832999e-06
7.313561553e-06
7.382821198e-06
7.437732185e-06
7.4697376e-06
7.210145329e-06
7.250341478e-06
7.307392244e-06
7.376819874e-06
7.453218972e-06
7.530248783e-06
7.600691237e-06
7.656534553e-06
7.689080719e-06
7.424997808e-06
7.465878299e-06
7.523896576e-06
7.594495458e-06
7.672175353e-06
7.750487611e-06
7.822094506e-06
7.878854701e-06
7.911932168e-06
7.643415227e-06
7.684968963e-06
7.743938388e-06
7.815687601e-06
7.894623936e-06
7.974192581e-06
8.046938661e-06
8.10459463e-06
8.138190553e-06
7.86531982e-06
7.907531641e-06
7.967429956e-06
8.040301191e-06
8.120461193e-06
8.201251363e-06
8.275103024e-06
8.333626815e-06
8.367724241e-06
8.090608943e-06
8.133458784e-06
8.194256616e-06
8.268212659e-06
8.349553434e-06
8.4315197e-06
8.506433327e-06
8.56578879e-06
8.600365856e-06
8.319150414e-06
8.362612346e-06
8.424271835e-06
8.499264867e-06
8.581731484e-06
8.664815873e-06
8.740735995e-06
8.800877286e-06
8.83590633e-06
8.550777395e-06
8.594818574e-06
8.657291846e-06
8.733261563e-06
8.81678496e-06
8.900914799e-06
8.97777208e-06
9.03864204e-06
9.074088639e-06
8.785282881e-06
8.829862417e-06
8.893089978e-06
8.969961579e-06
9.054456289e-06
9.139541914e-06
9.217251029e-06
9.278779476e-06
9.314601442e-06
9.022413976e-06
9.067481725e-06
9.131390732e-06
9.209072844e-06
9.294434711e-06
9.380367064e-06
9.458824503e-06
9.520926495e-06
9.55707285e-06
9.261866096e-06
9.307361438e-06
9.371863968e-06
9.450246509e-06
9.536350341e-06
9.622998672e-06
9.702080579e-06
9.76465469e-06
9.801064677e-06
9.503277342e-06
9.549127987e-06
9.614119342e-06
9.69307148e-06
9.779768815e-06
9.866978432e-06
9.946538624e-06
1.000946537e-05
1.004606753e-05
9.746223325e-06
9.792344203e-06
9.857701355e-06
9.93706965e-06
1.002418675e-05
1.011177706e-05
1.019164526e-05
1.025478577e-05
1.029149719e-05
9.990212773e-06
1.003650508e-05
1.010208536e-05
1.018169221e-05
1.026902845e-05
1.035679138e-05
1.04367719e-05
1.049996692e-05
1.053669267e-05
1.023468429e-05
1.028103479e-05
1.034667491e-05
1.042631748e-05
1.051364424e-05
1.060134332e-05
1.068121429e-05
1.074428367e-05
1.078091659e-05
1.04790047e-05
1.052528531e-05
1.059080092e-05
1.067025067e-05
1.0757311e-05
1.084468112e-05
1.092419448e-05
1.09869373e-05
1.102335811e-05
1.072246927e-05
1.076853715e-05
1.083372295e-05
1.091272594e-05
1.099923508e-05
1.108598329e-05
1.116486568e-05
1.122706112e-05
1.1263139e-05
1.09643044e-05
1.101000246e-05
1.107463311e-05
1.115291126e-05
1.123855823e-05
1.132436557e-05
1.140232029e-05
1.146372934e-05
1.149932307e-05
1.120367294e-05
1.124883099e-05
1.131266281e-05
1.138991619e-05
1.147436662e-05