/*--------------------------------*- C++ -*----------------------------------*\
| =========                 |                                                 |
| \\      /  F ield         | OpenFOAM: The Open Source CFD Toolbox           |
|  \\    /   O peration     | Version:  2212                                  |
|   \\  /    A nd           | Website:  www.openfoam.com                      |
|    \\/     M anipulation  |                                                 |
\*---------------------------------------------------------------------------*/
FoamFile
{
    version     2.0;
    format      ascii;
    arch        "LSB;label=32;scalar=64";
    class       volScalarField;
    location    "23.25000000";
    object      A2CH3-2_0;
}
// * * * * * * * * * * * * * * * * * * * * * * * * * * * * * * * * * * * * * //

dimensions      [0 0 0 0 0 0 0];

internalField   nonuniform List<scalar> 
3000
(
1.819051299e-26
2.043482071e-26
2.382143066e-26
2.83342973e-26
3.392737986e-26
4.044855941e-26
4.750478197e-26
5.42370789e-26
5.899852978e-26
6.829501441e-26
7.703085933e-26
9.020747212e-26
1.078054461e-25
1.298067824e-25
1.560875845e-25
1.86191633e-25
2.185884021e-25
2.472992138e-25
1.52970372e-25
1.738896343e-25
2.057445715e-25
2.489965149e-25
3.044235443e-25
3.728271887e-25
4.539427307e-25
5.432049606e-25
6.195341548e-25
2.913668791e-25
3.346823681e-25
4.016079789e-25
4.944080894e-25
6.163703993e-25
7.705913002e-25
9.562348324e-25
1.158414319e-24
1.321637002e-24
5.173799162e-25
6.015865037e-25
7.337404084e-25
9.20554004e-25
1.170815279e-24
1.49153518e-24
1.877368183e-24
2.287089509e-24
2.601628293e-24
8.896663619e-25
1.047710067e-24
1.299299482e-24
1.660487604e-24
2.150541346e-24
2.781781392e-24
3.535365608e-24
4.316238613e-24
4.893964162e-24
1.510313588e-24
1.800617165e-24
2.268137156e-24
2.946900331e-24
3.87470338e-24
5.069978311e-24
6.483295449e-24
7.919225989e-24
8.955330817e-24
2.555927003e-24
3.081299045e-24
3.934913686e-24
5.183819819e-24
6.897671709e-24
9.101126466e-24
1.168363714e-23
1.426928457e-23
1.610385428e-23
4.332481156e-24
5.273218337e-24
6.811603295e-24
9.073797319e-24
1.218369763e-23
1.617116708e-23
2.081093319e-23
2.540799759e-23
2.86336756e-23
7.369800378e-24
9.041048975e-24
1.178656004e-23
1.583690622e-23
2.140846282e-23
2.853350883e-23
3.677815861e-23
4.488700105e-23
5.05345163e-23
1.258589399e-23
1.553746755e-23
2.040171953e-23
2.759233537e-23
3.748393816e-23
5.010524445e-23
6.464953023e-23
7.888079403e-23
8.87425143e-23
2.157175175e-23
2.67614686e-23
3.533302171e-23
4.802007511e-23
6.546917306e-23
8.769373509e-23
1.1322703e-22
1.381205674e-22
1.553109065e-22
3.708570474e-23
4.618062388e-23
6.12249515e-23
8.351035685e-23
1.141520845e-22
1.531260084e-22
1.978038455e-22
2.412508243e-22
2.711803058e-22
6.391122306e-23
7.98108885e-23
1.061389499e-22
1.451589812e-22
1.987958764e-22
2.669466844e-22
3.449464022e-22
4.206579196e-22
4.72722577e-22
1.103457107e-22
1.380910604e-22
1.84068053e-22
2.522315831e-22
3.459070282e-22
4.648370582e-22
6.007944411e-22
7.325868029e-22
8.231016707e-22
1.907844055e-22
2.391362779e-22
3.193018773e-22
4.381772359e-22
6.015119578e-22
8.087572262e-22
1.04546669e-21
1.274698029e-21
1.431993512e-21
3.302047449e-22
4.143848932e-22
5.540027771e-22
7.610654062e-22
1.045519432e-21
1.406276344e-21
1.818045543e-21
2.216507501e-21
2.489739654e-21
5.719484559e-22
7.183984005e-22
9.613539657e-22
1.321697461e-21
1.816639919e-21
2.444103062e-21
3.159901365e-21
3.852146191e-21
4.326558257e-21
9.912239177e-22
1.24586545e-21
1.668372236e-21
2.295026965e-21
3.155606389e-21
4.246224668e-21
5.489791754e-21
6.691806127e-21
7.515164651e-21
1.718526777e-21
2.161096812e-21
2.895475966e-21
3.984646406e-21
5.480097216e-21
7.374636394e-21
9.533894405e-21
1.161996849e-20
1.304821797e-20
2.980243359e-21
3.749157486e-21
5.025068566e-21
6.917200483e-21
9.5145061e-21
1.280371721e-20
1.655075036e-20
2.016892742e-20
2.264493392e-20
5.16899352e-21
6.504437989e-21
8.720303952e-21
1.200580214e-20
1.651440715e-20
2.222162822e-20
2.871977828e-20
3.499083781e-20
3.927990625e-20
8.965419258e-21
1.128399335e-20
1.513064945e-20
2.083273552e-20
2.865454652e-20
3.855064493e-20
4.981111055e-20
6.067064353e-20
6.809309763e-20
1.554876835e-20
1.957261534e-20
2.624706013e-20
3.613753559e-20
4.969801615e-20
6.684353132e-20
8.633790525e-20
1.051225539e-19
1.179514355e-19
2.696048733e-20
3.394034508e-20
4.551460836e-20
6.26580336e-20
8.614785265e-20
1.158237076e-19
1.495328666e-19
1.819813031e-19
2.041195165e-19
4.673091109e-20
5.883067984e-20
7.888706595e-20
1.085763653e-19
1.492237151e-19
2.00523512e-19
2.587265086e-19
3.146809422e-19
3.528084711e-19
8.09570656e-20
1.019152529e-19
1.366373915e-19
1.879975402e-19
2.582432143e-19
3.467865283e-19
4.470974477e-19
5.433803806e-19
6.088861026e-19
1.401515984e-19
1.764156477e-19
2.364563501e-19
3.251831524e-19
4.463833515e-19
5.989168892e-19
7.714117972e-19
9.366595092e-19
1.048871805e-18
2.424050634e-19
3.050697161e-19
4.087362245e-19
5.617531379e-19
7.704517544e-19
1.032607861e-18
1.328425002e-18
1.611150632e-18
1.802697571e-18
4.187759892e-19
5.268815952e-19
7.05542321e-19
9.688778706e-19
1.327369758e-18
1.776663469e-18
2.282324278e-18
2.764259948e-18
3.089885132e-18
7.224426181e-19
9.085597511e-19
1.215772476e-18
1.667806223e-18
2.281808711e-18
3.049248954e-18
3.910309742e-18
4.728286665e-18
5.279209953e-18
1.244174465e-18
1.56380568e-18
2.090633574e-18
2.86421809e-18
3.912211793e-18
5.217937945e-18
6.677697928e-18
8.059179142e-18
8.986249974e-18
2.138363297e-18
2.685668349e-18
3.58619882e-18
4.905323397e-18
6.686860455e-18
8.898370519e-18
1.136059883e-17
1.368078408e-17
1.523140832e-17
3.666592521e-18
4.600498488e-18
6.13402993e-18
8.374071333e-18
1.138858336e-17
1.511493716e-17
1.924446026e-17
2.311706122e-17
2.569344102e-17
6.270150613e-18
7.857355204e-18
1.045753956e-17
1.424336097e-17
1.93174519e-17
2.556007813e-17
3.244231671e-17
3.88622437e-17
4.311220196e-17
1.068998576e-17
1.337515827e-17
1.77622663e-17
2.41263562e-17
3.261725289e-17
4.300872978e-17
5.439989783e-17
6.496502415e-17
7.192207501e-17
1.81638559e-17
2.268314395e-17
3.004452651e-17
4.067924752e-17
5.479641476e-17
7.197430288e-17
9.068937066e-17
1.079413804e-16
1.192384286e-16
3.074812547e-17
3.831081492e-17
5.058792405e-17
6.824347372e-17
9.155131922e-17
1.197368246e-16
1.502444169e-16
1.781870676e-16
1.963791141e-16
5.183920106e-17
6.44153363e-17
8.475521076e-17
1.13860415e-16
1.520551659e-16
1.979388765e-16
2.472636754e-16
2.921428035e-16
3.211896133e-16
8.701200755e-17
1.07782714e-16
1.412401625e-16
1.88859901e-16
2.509567442e-16
3.250397283e-16
4.04117338e-16
4.755836433e-16
5.215653298e-16
1.453575093e-16
1.794120359e-16
2.340292972e-16
3.113245035e-16
4.114518947e-16
5.300553364e-16
6.557470274e-16
7.68574311e-16
8.407437482e-16
2.415986244e-16
2.970009208e-16
3.854489685e-16
5.098786127e-16
6.699620652e-16
8.582095931e-16
1.056271904e-15
1.232875863e-15
1.345195284e-15
3.994089875e-16
4.888112223e-16
6.308573876e-16
8.294646379e-16
1.083201638e-15
1.379405615e-15
1.688832175e-15
1.962936142e-15
2.136306093e-15
6.565731248e-16
7.996297233e-16
1.025808473e-15
1.340076332e-15
1.738770166e-15
2.200830277e-15
2.680153799e-15
3.102089113e-15
3.367562803e-15
1.072939533e-15
1.29988097e-15
1.656900234e-15
2.149860485e-15
2.77091147e-15
3.485579984e-15
4.221959622e-15
4.866284865e-15
5.269679152e-15
1.742571736e-15
2.09944334e-15
2.658073917e-15
3.42462805e-15
4.383800258e-15
5.48000951e-15
6.602257772e-15
7.578653876e-15
8.187132517e-15
2.81215521e-15
3.368427677e-15
4.234920267e-15
5.416710809e-15
6.88573439e-15
8.553654029e-15
1.025081305e-14
1.171958884e-14
1.263102105e-14
4.508652661e-15
5.368188862e-15
6.700673084e-15
8.507367804e-15
1.073904696e-14
1.325719024e-14
1.580489653e-14
1.799896391e-14
1.935517083e-14
7.180532584e-15
8.497278944e-15
1.052916378e-14
1.326873633e-14
1.663257093e-14
2.040616425e-14
2.420390635e-14
2.745980231e-14
2.946525123e-14
1.135879098e-14
1.335909444e-14
1.643227069e-14
2.055385155e-14
2.558632643e-14
3.120138069e-14
3.682494554e-14
4.162647288e-14
4.457458085e-14
1.78466711e-14
2.086087304e-14
2.547261107e-14
3.162683851e-14
3.910207776e-14
4.740124113e-14
5.567627715e-14
6.271572025e-14
6.702579914e-14
2.785076382e-14
3.235762713e-14
3.922618143e-14
4.834964094e-14
5.937843094e-14
7.156744346e-14
8.367262099e-14
9.393652836e-14
1.00205363e-13
4.316916194e-14
4.98580421e-14
6.001518157e-14
7.344942183e-14
8.961827591e-14
1.07414816e-13
1.250256538e-13
1.399142475e-13
1.489879936e-13
6.646515753e-14
7.632318952e-14
9.124317174e-14
1.109002885e-13
1.344648237e-13
1.603055761e-13
1.857946922e-13
2.072881618e-13
2.203625448e-13
1.016592412e-13
1.160928002e-13
1.378720371e-13
1.664651316e-13
2.006189967e-13
2.379474286e-13
2.746626834e-13
3.055521753e-13
3.243116432e-13
1.544890398e-13
1.754926199e-13
2.070993291e-13
2.484625122e-13
2.977105486e-13
3.513759975e-13
4.040260859e-13
4.482339031e-13
4.750445556e-13
2.333058903e-13
2.636963976e-13
3.093167622e-13
3.688485779e-13
4.395235855e-13
5.163336672e-13
5.915217028e-13
6.545443718e-13
6.927209834e-13
3.502037913e-13
3.939449466e-13
4.594621661e-13
5.447388921e-13
6.457159876e-13
7.551999128e-13
8.621605738e-13
9.516809468e-13
1.005855914e-12
5.226139114e-13
5.85264613e-13
6.789207062e-13
8.005431816e-13
9.442256917e-13
1.099687352e-12
1.251303678e-12
1.378035269e-12
1.454667692e-12
7.75549536e-13
8.648825398e-13
9.981911641e-13
1.170952264e-12
1.374630337e-12
1.594599053e-12
1.808802991e-12
1.987653018e-12
2.095730186e-12
1.144757603e-12
1.271611938e-12
1.460615595e-12
1.705107482e-12
1.992827754e-12
2.303054177e-12
2.604753182e-12
2.856422583e-12
3.008425241e-12
1.681131039e-12
1.860584836e-12
2.127584043e-12
2.472407937e-12
2.87754318e-12
3.313741773e-12
3.737465841e-12
4.090647816e-12
4.303876875e-12
2.456870797e-12
2.70985286e-12
3.085781441e-12
3.570582007e-12
4.139358601e-12
4.750971585e-12
5.344505994e-12
5.838903555e-12
6.137301534e-12
3.574071073e-12
3.929572605e-12
4.457256602e-12
5.136883846e-12
5.933218652e-12
6.788576236e-12
7.617941657e-12
8.308404775e-12
8.725053685e-12
5.176653737e-12
5.674760172e-12
6.413384038e-12
7.363595382e-12
8.47572097e-12
9.669108348e-12
1.082538081e-11
1.178757247e-11
1.236811559e-11
7.466922885e-12
8.162965313e-12
9.194185926e-12
1.051945009e-11
1.206897994e-11
1.373030534e-11
1.533894581e-11
1.66770936e-11
1.748441778e-11
1.072848031e-11
1.169871361e-11
1.313502093e-11
1.497918669e-11
1.713350542e-11
1.944151222e-11
2.167511532e-11
2.353260457e-11
2.465324012e-11
1.53578803e-11
1.670724048e-11
1.870337714e-11
2.126424192e-11
2.425342084e-11
2.745372209e-11
3.054941702e-11
3.312325007e-11
3.46761078e-11
2.19082637e-11
2.378095246e-11
2.654949215e-11
3.00986713e-11
3.423853329e-11
3.866819847e-11
4.295136982e-11
4.651187702e-11
4.86601601e-11
3.114937015e-11
3.374327715e-11
3.757584673e-11
4.248583474e-11
4.820936068e-11
5.433038795e-11
6.024696538e-11
6.516463581e-11
6.813205533e-11
4.41498771e-11
4.773620042e-11
5.303234519e-11
5.98133135e-11
6.771333789e-11
7.615814853e-11
8.431848717e-11
9.110042746e-11
9.51932371e-11
6.239007299e-11
6.733996217e-11
7.464633349e-11
8.39960738e-11
9.488321664e-11
1.065163685e-10
1.177547603e-10
1.270941337e-10
1.327310071e-10
8.791557985e-11
9.473623484e-11
1.047996726e-10
1.176712278e-10
1.32652317e-10
1.486540193e-10
1.641092048e-10
1.769521008e-10
1.847045368e-10
1.235463662e-10
1.329298169e-10
1.467690577e-10
1.644620494e-10
1.850459783e-10
2.070247776e-10
2.282485391e-10
2.45884136e-10
2.56530923e-10
1.731598172e-10
1.860486213e-10
2.050508439e-10
2.29334379e-10
2.575744969e-10
2.877187735e-10
3.168218551e-10
3.41003519e-10
3.556038591e-10
2.420723459e-10
2.597477184e-10
2.857979987e-10
3.190753818e-10
3.577601985e-10
3.990409358e-10
4.388882213e-10
4.719953835e-10
4.919865882e-10
3.375511012e-10
3.617505566e-10
3.974045869e-10
4.429329327e-10
4.958401909e-10
5.522808952e-10
6.067510071e-10
6.520043016e-10
6.793315387e-10
4.694958536e-10
5.025693206e-10
5.512824668e-10
6.134637058e-10
6.856967247e-10
7.627303802e-10
8.370586236e-10
8.988038104e-10
9.36091185e-10
6.513410915e-10
6.964566196e-10
7.6288551e-10
8.476491519e-10
9.460786994e-10
1.051016116e-09
1.15224386e-09
1.236323409e-09
1.287097623e-09
9.012394808e-10
9.626520337e-10
1.053048267e-09
1.16835046e-09
1.302190044e-09
1.444828666e-09
1.582386574e-09
1.696621202e-09
1.765601018e-09
1.243599574e-09
1.326998828e-09
1.449717826e-09
1.6061854e-09
1.787732399e-09
1.981139131e-09
2.167595674e-09
2.322401246e-09
2.415867755e-09
1.711061996e-09
1.824017283e-09
1.990168387e-09
2.201920209e-09
2.447499059e-09
2.709004297e-09
2.961014066e-09
3.170181525e-09
3.296445435e-09
2.347007796e-09
2.499529973e-09
2.723796065e-09
3.00947639e-09
3.340622324e-09
3.693064197e-09
4.032551813e-09
4.314218499e-09
4.484200911e-09
3.20869821e-09
3.413938806e-09
3.71559429e-09
4.09965306e-09
4.544574528e-09
5.0178314e-09
5.473445256e-09
5.85128428e-09
6.079226196e-09
4.371144279e-09
4.646251236e-09
5.050405345e-09
5.564657467e-09
6.160011407e-09
6.792855678e-09
7.40172038e-09
7.906369828e-09
8.210682542e-09
5.931795062e-09
6.29894114e-09
6.838028474e-09
7.523517178e-09
8.316522578e-09
9.158819003e-09
9.968605327e-09
1.063935042e-08
1.104361354e-08
8.016112175e-09
8.503706269e-09
9.219237624e-09
1.012841533e-08
1.117931661e-08
1.229457304e-08
1.336588921e-08
1.425259789e-08
1.478670411e-08
1.078406471e-08
1.14281477e-08
1.237272145e-08
1.35719452e-08
1.495681775e-08
1.642507582e-08
1.783416431e-08
1.899946056e-08
1.970089662e-08
1.443753231e-08
1.528334787e-08
1.652290592e-08
1.809522375e-08
1.990909066e-08
2.183011958e-08
2.367182072e-08
2.519346156e-08
2.610870398e-08
1.922854743e-08
2.033226531e-08
2.194855877e-08
2.399674068e-08
2.635694385e-08
2.885367429e-08
3.124459404e-08
3.321799699e-08
3.440399048e-08
2.546824478e-08
2.689880022e-08
2.899201104e-08
3.164175447e-08
3.469149817e-08
3.791360825e-08
4.09954052e-08
4.353625615e-08
4.506193145e-08
3.353632288e-08
3.537732352e-08
3.806877024e-08
4.147198961e-08
4.538395269e-08
4.951149731e-08
5.34541856e-08
5.670103956e-08
5.864881578e-08
4.389076712e-08
4.62424081e-08
4.967725059e-08
5.401534516e-08
5.899524316e-08
6.424220488e-08
6.924735787e-08
7.336414388e-08
7.58313858e-08
5.707754095e-08
6.005846322e-08
6.440831365e-08
6.989530002e-08
7.618527253e-08
8.280290523e-08
8.910664519e-08
9.428500865e-08
9.73853544e-08
7.373992921e-08
7.748895437e-08
8.295430121e-08
8.983969723e-08
9.772139474e-08
1.060012394e-07
1.138769393e-07
1.203382981e-07
1.24202836e-07
9.462721379e-08
9.930489104e-08
1.06117246e-07
1.146885995e-07
1.244858605e-07
1.347623733e-07
1.445229273e-07
1.525202159e-07
1.572984694e-07
1.206023724e-07
1.263922747e-07
1.348159453e-07
1.454009421e-07
1.574820268e-07
1.701346662e-07
1.821343199e-07
1.919533797e-07
1.978140967e-07
1.526484994e-07
1.597582569e-07
1.70091778e-07
1.830598329e-07
1.978390374e-07
2.132938128e-07
2.279295104e-07
2.398901507e-07
2.470219689e-07
1.918738928e-07
2.005358747e-07
2.131128957e-07
2.288761704e-07
2.468148446e-07
2.655452478e-07
2.832574603e-07
2.977142484e-07
3.063266377e-07
2.395153979e-07
2.499870473e-07
2.651767472e-07
2.841905502e-07
3.057974139e-07
3.283246097e-07
3.495974008e-07
3.669396086e-07
3.772607248e-07
2.969400758e-07
3.095038761e-07
3.277108495e-07
3.504733899e-07
3.763041221e-07
4.031963723e-07
4.285567269e-07
4.492052938e-07
4.614821166e-07
3.656451236e-07
3.806081936e-07
4.022718073e-07
4.293233101e-07
4.599794204e-07
4.918506751e-07
5.218641499e-07
5.462711745e-07
5.607688486e-07
4.472560792e-07
4.649494043e-07
4.905426077e-07
5.224638039e-07
5.585900394e-07
5.960943204e-07
6.313641414e-07
6.600113646e-07
6.770121213e-07
5.435233687e-07
5.643007267e-07
5.943281043e-07
6.317357289e-07
6.740143203e-07
7.178447806e-07
7.590093444e-07
7.924058971e-07
8.122077181e-07
6.563169695e-07
6.805511648e-07
7.155433658e-07
7.590865002e-07
8.082360231e-07
8.591215611e-07
9.068511719e-07
9.455309313e-07
9.684459874e-07
7.876097784e-07
8.156914923e-07
8.562047622e-07
9.065629877e-07
9.633345737e-07
1.022035899e-06
1.077029076e-06
1.121547691e-06
1.147900595e-06
9.394722947e-07
9.718084222e-07
1.018421509e-06
1.076301013e-06
1.141474053e-06
1.208779304e-06
1.271758724e-06
1.322690372e-06
1.352816278e-06
1.114062281e-06
1.151073528e-06
1.204384257e-06
1.270513625e-06
1.344891117e-06
1.421611143e-06
1.493319307e-06
1.551253244e-06
1.585495839e-06
1.313612718e-06
1.355731036e-06
1.416352665e-06
1.491478435e-06
1.57588209e-06
1.662845515e-06
1.744040233e-06
1.809577217e-06
1.848286636e-06
1.540418839e-06
1.588084757e-06
1.656642203e-06
1.741524279e-06
1.836789489e-06
1.934837658e-06
2.026287443e-06
2.100036099e-06
2.143566816e-06
1.796824534e-06
1.850484451e-06
1.927610457e-06
2.023017475e-06
2.129988245e-06
2.239970149e-06
2.342449611e-06
2.425022805e-06
2.473731529e-06
2.085208389e-06
2.145311875e-06
2.231643201e-06
2.33834793e-06
2.457871866e-06
2.58063914e-06
2.69492446e-06
2.78693574e-06
2.841179359e-06
2.407969634e-06
2.47496678e-06
2.57114048e-06
2.689915334e-06
2.822838768e-06
2.959240844e-06
3.0861054e-06
3.188165573e-06
3.248299174e-06
2.767514236e-06
2.84185311e-06
2.948502947e-06
3.080115686e-06
3.227279017e-06
3.378158504e-06
3.51836871e-06
3.631082587e-06
3.697457578e-06
3.166241376e-06
3.248365603e-06
3.366118663e-06
3.511328336e-06
3.673561644e-06
3.839749986e-06
3.994061401e-06
4.11802476e-06
4.19098712e-06
3.606530494e-06
3.696877009e-06
3.826350551e-06
3.985903723e-06
4.164022704e-06
4.346336177e-06
4.515489918e-06
4.651286714e-06
4.731175384e-06
4.090729095e-06
4.189726075e-06
4.331524636e-06
4.506151947e-06
4.700954216e-06
4.900190289e-06
5.084909778e-06
5.233109616e-06
5.320255053e-06
4.621141426e-06
4.729206424e-06
4.883919227e-06
5.074332297e-06
5.286594072e-06
5.503528152e-06
5.704516227e-06
5.86567212e-06
5.960395e-06
5.20001815e-06
5.317556448e-06
5.485755097e-06
5.6926438e-06
5.923116981e-06
6.158499568e-06
6.37643595e-06
6.551082364e-06
6.653692469e-06
5.829547076e-06
5.956950249e-06
6.13918674e-06
6.363216842e-06
6.612626508e-06
6.867180746e-06
7.102719876e-06
7.291371062e-06
7.402166322e-06
6.511845003e-06
6.6494897e-06
6.846294729e-06
7.088105902e-06
7.357148194e-06
7.631567824e-06
7.885337062e-06
8.088485668e-06
8.207751369e-06
7.248950671e-06
7.397197609e-06
7.609079186e-06
7.86928337e-06
8.158623767e-06
8.453571468e-06
8.726169633e-06
8.944285594e-06
9.072293745e-06
8.042818839e-06
8.202011999e-06
8.429454337e-06
8.708634451e-06
9.018906421e-06
9.335012509e-06
9.627008755e-06
9.860538435e-06
9.997547282e-06
8.895315434e-06
9.065781451e-06
9.309244131e-06
9.607953106e-06
9.939757094e-06
1.027761857e-05
1.058955157e-05
1.083891715e-05
1.098517083e-05
9.808213748e-06
9.990261478e-06
1.025017886e-05
1.056893897e-05
1.092284172e-05
1.128302165e-05
1.161539906e-05
1.188099814e-05
1.203672647e-05
1.078319162e-05
1.097711187e-05
1.125389275e-05
1.15931952e-05
1.196972937e-05
1.235275653e-05
1.270605471e-05
1.298826014e-05
1.31536785e-05
1.182182951e-05
1.202789492e-05
1.232192237e-05
1.268222718e-05
1.308189121e-05
1.348826001e-05
1.386292403e-05
1.416208386e-05
1.433739322e-05
1.292560947e-05
1.314407452e-05
1.345570593e-05
1.383744199e-05
1.426070024e-05
1.469087089e-05
1.508731463e-05
1.540375234e-05
1.558913932e-05
1.409591478e-05
1.432701595e-05
1.465658323e-05
1.506014859e-05
1.550743166e-05
1.596183051e-05
1.63804371e-05
1.671445181e-05
1.691008893e-05
1.533403042e-05
1.557798639e-05
1.592579632e-05
1.63515586e-05
1.682326384e-05
1.730228396e-05
1.774340622e-05
1.80952732e-05
1.830131905e-05
1.664114396e-05
1.689815596e-05
1.726449068e-05
1.77127877e-05
1.820927988e-05
1.87132817e-05
1.917724285e-05
1.954721398e-05
1.976381359e-05
1.801834715e-05
1.828859936e-05
1.867371691e-05
1.914485737e-05
1.966646948e-05
2.019578167e-05
2.068287607e-05
2.10711805e-05
2.129846568e-05
1.946663787e-05
1.975029788e-05
2.015443288e-05
2.064869721e-05
2.119573137e-05
2.175065172e-05
2.226114573e-05
2.266799053e-05
2.290608028e-05
2.098692248e-05
2.128414179e-05
2.17075062e-05
2.222514742e-05
2.279787588e-05
2.337867234e-05
2.391280525e-05
2.433837621e-05
2.458737714e-05
2.258001851e-05
2.28909331e-05
2.333371696e-05
2.387496169e-05
2.447362788e-05
2.508053965e-05
2.563852468e-05
2.608298704e-05
2.634299387e-05
2.424665759e-05
2.45713885e-05
2.50337608e-05
2.559881022e-05
2.62236299e-05
2.685686853e-05
2.743889387e-05
2.790239317e-05
2.817348917e-05
2.598748858e-05
2.632614252e-05
2.680825206e-05
2.739728299e-05
2.804844536e-05
2.870819593e-05
2.93144258e-05
2.979708875e-05
3.007934626e-05
2.780308089e-05
2.815575086e-05
2.865772709e-05
2.927089306e-05
2.994856199e-05
3.063498428e-05
3.126556e-05
3.176749531e-05
3.206097623e-05
2.969392784e-05
3.006069375e-05
3.058264771e-05
3.122008005e-05
3.19243952e-05
3.263762492e-05
3.329266602e-05
3.381396524e-05
3.411872154e-05
3.166045017e-05
3.204137949e-05
3.258340467e-05
3.324521356e-05
3.397629162e-05
3.471644155e-05
3.539604685e-05
3.59367853e-05
3.625285951e-05
3.370299949e-05
3.409814786e-05
3.466032111e-05
3.534659669e-05
3.610453255e-05
3.687169376e-05
3.757594244e-05
3.813617998e-05
3.846360571e-05
3.582186182e-05
3.623127368e-05
3.681365607e-05
3.752446949e-05
3.830933737e-05
3.910358038e-05
3.983253305e-05
4.041231499e-05
4.075111739e-05
3.801726106e-05
3.844097024e-05
3.904360795e-05
3.977901239e-05
4.059086704e-05
4.141224295e-05
4.216594268e-05
4.276530056e-05
4.311549683e-05
4.028936238e-05
4.072739275e-05
4.135031787e-05
4.21103496e-05
4.294922735e-05
4.379776898e-05
4.457624233e-05
4.519519473e-05
4.555679455e-05
4.263827564e-05
4.309064163e-05
4.373387302e-05
4.451855238e-05
4.538447226e-05
4.626019521e-05
4.70634532e-05
4.770200653e-05
4.807501254e-05
4.506405863e-05
4.553076584e-05
4.619430988e-05
4.700364222e-05
4.789660701e-05
4.879951072e-05
4.962754979e-05
5.028569902e-05
5.067010725e-05
4.756672027e-05
4.804776597e-05
4.87316174e-05
4.956559402e-05
5.048559124e-05
5.141565999e-05
5.226846292e-05
5.294619233e-05
5.334199261e-05
5.014622371e-05
5.064159738e-05
5.134573997e-05
5.220433902e-05
5.315134192e-05
5.410854581e-05
5.498608259e-05
5.568336643e-05
5.609054283e-05
5.280248924e-05
5.33121731e-05
5.403658039e-05
5.49197677e-05
5.589373618e-05
5.687803207e-05
5.778026076e-05
5.849706395e-05
5.891559511e-05
5.553539722e-05
5.605936669e-05
5.680400263e-05
5.771173256e-05
5.871261407e-05
5.972394646e-05
6.065081398e-05
6.138709272e-05
6.181695226e-05
5.834479077e-05
5.88830149e-05
5.964783456e-05
6.058005075e-05
6.160778114e-05
6.264608301e-05
6.359752592e-05
6.435322831e-05
6.479438519e-05
6.123047836e-05
6.178292031e-05
6.256787046e-05
6.352450659e-05
6.457901091e-05
6.564420453e-05
6.662014977e-05
6.739521638e-05
6.784763518e-05
6.419223635e-05
6.475885379e-05
6.556387346e-05
6.654485396e-05
6.762604722e-05
6.871804494e-05
6.971841048e-05
7.05127749e-05
7.09764162e-05
6.722981127e-05
6.781055676e-05
6.863557784e-05
6.964081854e-05
7.074860647e-05
7.186731141e-05
7.289200696e-05
7.370559631e-05
7.418041694e-05
7.034292212e-05
7.093774351e-05
7.178269124e-05
7.28121e-05
7.39463797e-05
7.509168644e-05
7.614061405e-05
7.697334945e-05
7.745930282e-05
7.353126244e-05
7.414010318e-05
7.500489667e-05
7.605837398e-05
7.721903459e-05
7.839082984e-05
7.946388445e-05
8.03156815e-05
8.081271782e-05
7.679450227e-05
7.741730179e-05
7.830185446e-05
7.937929402e-05
8.05662173e-05
8.176438047e-05
8.286145049e-05
8.373221971e-05
8.424028625e-05
8.013229008e-05
8.076898405e-05
8.167320408e-05
8.277449328e-05
8.398755422e-05
8.5211958e-05
8.63329258e-05
8.722257299e-05
8.774161433e-05
8.354425445e-05
8.419477509e-05
8.511856581e-05
8.624358626e-05
8.748265355e-05
8.873316444e-05
8.987790685e-05
9.078633349e-05
9.13162917e-05
8.70300057e-05
8.769428205e-05
8.863754234e-05
8.978617028e-05
9.105110685e-05
9.232758562e-05
9.349597434e-05
9.442307791e-05
9.496389279e-05
9.058913738e-05
9.126709556e-05
9.222972016e-05
9.340182691e-05
9.469249036e-05
9.599479252e-05
9.718669452e-05
9.813236883e-05
9.868397807e-05
9.422122764e-05
9.491279104e-05
9.589467091e-05
9.709012323e-05
9.840636623e-05
9.973434244e-05
0.0001009496203
0.0001019137558
0.0001024760951
9.792584048e-05
9.863092999e-05
9.963195256e-05
0.000100850613
0.0001021922837
0.00010354578
0.0001047842924
0.0001057667763
0.0001063397796
0.0001017025268
0.000102421061
0.0001034411104
0.0001046828376
0.0001060497798
0.0001074286383
0.0001086902399
0.0001096909565
0.000110274556
0.0001055508254
0.0001062827206
0.000107321678
0.0001085863269
0.0001099783805
0.0001113824391
0.0001126669812
0.000113685812
0.0001142799383
0.0001094702637
0.0001102154343
0.0001112731778
0.0001125605998
0.000113977601
0.0001154066938
0.0001167140242
0.0001177508482
0.0001183554304
0.0001134603585
0.0001142187168
0.0001152951219
0.0001166051651
0.0001180469461
0.0001195009038
0.000120830867
0.0001218855603
0.000122500526
0.0001175206162
0.0001182920725
0.0001193870118
0.0001207195209
0.0001221859106
0.00012366456
0.0001250169971
0.0001260894334
0.0001267147086
0.0001216505327
0.0001224349956
0.0001235483389
0.0001249031553
0.0001263939787
0.0001278971428
0.0001292718915
0.0001303619416
0.0001309974507
0.0001258495935
0.0001266469692
0.0001277785836
0.0001291555451
0.0001306706232
0.0001321981211
0.0001335950154
0.0001347025472
0.0001353482128
0.0001301172725
0.0001309274654
0.0001320772146
0.000133476155
0.0001350153046
0.000136566951
0.0001379858207
0.0001391106987
0.0001397664416
0.0001344530314
0.000135275943
0.0001364436873
0.0001378644362
0.0001394274691
0.0001410030734
0.0001424437436
0.0001435858283
0.0001442515668
0.0001388563169
0.0001396918462
0.0001408774416
0.0001423198234
0.0001439065454
0.000145505911
0.0001469682008
0.0001481273482
0.0001488029977
0.0001433265585
0.0001441746009
0.0001453778986
0.0001468417311
0.000148451941
0.0001500748638
0.0001515585853
0.0001527346454
0.000153420118
0.0001478631643
0.0001487236107
0.0001499444556
0.0001514295492
0.0001530630368
0.0001547093031
0.0001562142595
0.0001574070748
0.000158102278
0.0001524655149
0.0001533382512
0.0001545764802
0.0001560826352
0.0001577391789
0.0001594085634
0.0001609345463
0.0001621439501
0.0001628487857
0.0001571329565
0.0001580178616
0.0001592733018
0.0001608003058
0.0001624796696
0.0001641719314
0.0001657187179
0.0001669445311
0.0001676588937
0.0001618647905
0.0001627617344
0.0001640341999
0.0001655818245
0.0001672837537
0.0001689986322
0.0001705659803
0.0001718080083
0.0001725317827
0.0001666602602
0.0001675691017
0.0001688583901
0.0001704263857
0.0001721506014
0.0001738878105
0.0001754754538
0.0001767334815
0.0001774665405
0.0001715185341
0.0001724391171
0.0001737450045
0.0001753330945
0.0001770792865
0.0001788385072
0.0001804461475
0.0001817199337
0.000182462134
0.0001764386832
0.0001773708329
0.0001786930678
0.0001803009404
0.0001820687585
0.0001838496291
0.0001854769276
0.0001867661972
0.0001875173752
0.0001814196536
0.0001823631707
0.0001837014659
0.0001853287647
0.0001871178069
0.0001889199111
0.0001905664767
0.0001918709113
0.0001926308772
0.0001864602309
0.000187414885
0.0001887689078
0.0001904152188
0.0001922250173
0.0001940478694
0.0001957132441
0.0001970324704
0.000197801001
0.0001915589969
0.0001925245178
0.0001938938779
0.000195558714
0.0001973887171
0.000199231743
0.0002009153848
0.0002022489596
0.0002030257897
0.0001967142756
0.0001976903432
0.000199074577
0.0002007573595
0.0002026069102
0.0002044694249
0.0002061706855
0.0002075180782
0.0002083028901
0.0002019240691
0.0002029103004
0.0002043088532
0.0002060088879
0.0002078771976
0.0002097583778
0.0002114764775
0.0002128370491
0.0002136294594
0.00020718598
0.0002081819142
0.0002095941177
0.0002113105684
0.000213196686
0.0002150955378
0.0002168295343
0.0002182025121
0.0002190020574
0.0002124971217
0.0002135022022
0.0002149272492
0.0002166591052
0.0002185618805
0.0002204772018
0.0002222259549
0.0002236104038
0.0002244165232
0.0002178540147
0.0002188675687
0.0002203044834
0.0002220505224
0.0002239685647
0.0002258989017
0.000227661033
0.0002290558227
0.0002298678381
0.0002232524703
0.0002242736852
0.0002257212891
0.0002274800359
0.0002294116672
0.0002313552664
0.0002331291142
0.0002345328827
0.0002353499779
0.0002286874616
0.0002297153594
0.0002311722347
0.0002329419151
0.0002348851185
0.0002368398743
0.0002386234446
0.0002400345593
0.0002408557564
0.0002341529863
0.0002351863954
0.0002366508448
0.0002384293367
0.0002403817021
0.0002423451011
0.0002441360164
0.0002455525329
0.0002463766689
0.000239641924
0.0002406794503
0.0002421494553
0.0002439342374
0.0002458929056
0.0002478619697
0.0002496574175
0.0002510770388
0.0002519027416
0.0002451458931
0.0002461858909
0.0002476590709
0.0002494471732
0.0002514087798
0.0002533800118
0.0002551766948
0.0002565967327
0.0002574223987
0.0002506551168
0.0002516956608
0.0002531692339
0.0002549571907
0.0002569178175
0.0002588871503
0.0002606812421
0.0002620985833
0.0002629223588
0.000256158306
0.000257197167
0.0002586679164
0.0002604517269
0.000262406859
0.0002643696175
0.0002661567283
0.0002675678089
0.0002683875763
0.0002616425708
0.0002626771977
0.0002641414465
0.0002659165464
0.0002678610444
0.0002698119194
0.0002715870772
0.0002729878698
0.0002738012414
0.0002670933741
0.0002681208832
0.0002695744824
0.0002713357318
0.0002732638227
0.0002751968666
0.0002769545168
0.0002783405347
0.0002791448567
0.0002724945381
0.0002735117152
0.0002749500481
0.0002766917407
0.0002785970332
0.0002805056814
0.0002822397126
0.0002836060341
0.0002843984029
0.0002778283205
0.0002788316366
0.0002802496439
0.0002819655431
0.0002838410733
0.0002857181974
0.0002874219964
0.0002887633138
0.000289540608
0.0002830755699
0.0002840612137
0.0002854534438
0.000287136849
0.0002889751611
0.0002908131586
0.0002924797007
0.0002937903972
0.0002945493244
0.0002882159709
0.0002891799013
0.0002905405881
0.0002921844356
0.0002939777009
0.0002957686243
0.000297390599
0.0002986648552
0.0002994020173
0.0002932283859
0.0002941664042
0.0002954895737
0.0002970865733
0.0002988267491
0.0003005624752
0.0003021324497
0.000303364379
0.000304076354
0.0002980912906
0.0002989991336
0.0003002787399