/*--------------------------------*- C++ -*----------------------------------*\
| =========                 |                                                 |
| \\      /  F ield         | OpenFOAM: The Open Source CFD Toolbox           |
|  \\    /   O peration     | Version:  2212                                  |
|   \\  /    A nd           | Website:  www.openfoam.com                      |
|    \\/     M anipulation  |                                                 |
\*---------------------------------------------------------------------------*/
FoamFile
{
    version     2.0;
    format      ascii;
    arch        "LSB;label=32;scalar=64";
    class       volScalarField;
    location    "23.25000000";
    object      A2CH2-2_0;
}
// * * * * * * * * * * * * * * * * * * * * * * * * * * * * * * * * * * * * * //

dimensions      [0 0 0 0 0 0 0];

internalField   nonuniform List<scalar> 
3000
(
2.224567147e-26
2.499029622e-26
2.913187332e-26
3.465078026e-26
4.149071254e-26
4.946563976e-26
5.80948856e-26
6.6327994e-26
7.215090135e-26
8.351982454e-26
9.420312608e-26
1.10317163e-25
1.318382024e-25
1.58744233e-25
1.908837382e-25
2.276987951e-25
2.673176822e-25
3.02428912e-25
1.870716147e-25
2.126543477e-25
2.516106137e-25
3.045045877e-25
3.722878044e-25
4.559404752e-25
5.551388701e-25
6.643000705e-25
7.57645111e-25
3.563204548e-25
4.092921404e-25
4.911372838e-25
6.046250542e-25
7.537760687e-25
9.423769885e-25
1.169405496e-24
1.41665627e-24
1.616265713e-24
6.327179241e-25
7.356964423e-25
8.973110343e-25
1.125770444e-24
1.431821739e-24
1.824038799e-24
2.295884436e-24
2.796943751e-24
3.181601754e-24
1.087997109e-24
1.281273039e-24
1.588948554e-24
2.030655297e-24
2.629955301e-24
3.401915861e-24
4.323494422e-24
5.278445183e-24
5.984961415e-24
1.847003424e-24
2.202023535e-24
2.773766403e-24
3.603844286e-24
4.73847978e-24
6.200213885e-24
7.928597716e-24
9.684636088e-24
1.095171676e-23
3.125712406e-24
3.768204115e-24
4.812112593e-24
6.339433749e-24
8.435349672e-24
1.113001421e-23
1.428823649e-23
1.745029481e-23
1.969383983e-23
5.298308627e-24
6.448761619e-24
8.330094275e-24
1.109659265e-23
1.489977402e-23
1.977615847e-23
2.545025417e-23
3.10721288e-23
3.501689785e-23
9.012728614e-24
1.105654381e-23
1.44141037e-23
1.93673818e-23
2.618098934e-23
3.489440119e-23
4.497700681e-23
5.489352997e-23
6.18000294e-23
1.539163085e-23
1.900119013e-23
2.494981569e-23
3.374341464e-23
4.584012373e-23
6.127506121e-23
7.90616624e-23
9.646546053e-23
1.085256255e-22
2.638067979e-23
3.272732515e-23
4.320970972e-23
5.87250511e-23
8.00640258e-23
1.072430449e-22
1.384684031e-22
1.689113846e-22
1.89933916e-22
4.535311328e-23
5.647553634e-23
7.487365223e-23
1.021270783e-22
1.395996774e-22
1.872619448e-22
2.418996824e-22
2.950321701e-22
3.31633744e-22
7.815876651e-23
9.760289819e-23
1.298001978e-22
1.775188514e-22
2.431128639e-22
3.264563336e-22
4.218443019e-22
5.144339679e-22
5.781052482e-22
1.349447596e-22
1.688752995e-22
2.251018096e-22
3.084608374e-22
4.230190774e-22
5.684618335e-22
7.347278008e-22
8.95900251e-22
1.006593335e-21
2.333154189e-22
2.924462338e-22
3.904829175e-22
5.358588143e-22
7.356052713e-22
9.890511252e-22
1.278529542e-21
1.558862758e-21
1.751223665e-21
4.038163295e-22
5.067625137e-22
6.775050068e-22
9.307275062e-22
1.278594042e-21
1.719773444e-21
2.223337154e-21
2.710627079e-21
3.044770082e-21
6.994512636e-22
8.785488689e-22
1.175665812e-21
1.616339636e-21
2.221618178e-21
2.988959856e-21
3.864328995e-21
4.710893949e-21
5.291065318e-21
1.212194586e-21
1.523602614e-21
2.040297611e-21
2.806650657e-21
3.859076551e-21
5.192823194e-21
6.713615077e-21
8.183591021e-21
9.190498469e-21
2.101632957e-21
2.642863844e-21
3.540956008e-21
4.87293205e-21
6.701759363e-21
9.018642654e-21
1.165925778e-20
1.42103743e-20
1.595701929e-20
3.64462035e-21
4.584946269e-21
6.145292497e-21
8.459231884e-21
1.163554729e-20
1.565801267e-20
2.024036103e-20
2.466512779e-20
2.769310323e-20
6.321302221e-21
7.954453445e-21
1.066429597e-20
1.468222072e-20
2.019591594e-20
2.717543121e-20
3.512219499e-20
4.279124359e-20
4.803646159e-20
1.096405411e-20
1.379950119e-20
1.850368115e-20
2.547691669e-20
3.504242129e-20
4.714462816e-20
6.091535665e-20
7.419577376e-20
8.327289398e-20
1.901501007e-20
2.393588157e-20
3.209824094e-20
4.419357136e-20
6.077705042e-20
8.174476545e-20
1.055849635e-19
1.285572193e-19
1.442460062e-19
3.297071038e-20
4.150656752e-20
5.566104767e-20
7.662620687e-20
1.05352543e-19
1.416439501e-19
1.828677939e-19
2.22549866e-19
2.496232869e-19
5.714849719e-20
7.194563221e-20
9.647313016e-20
1.327809787e-19
1.82489724e-19
2.452256355e-19
3.164036569e-19
3.848318498e-19
4.314590379e-19
9.900458873e-20
1.246349238e-19
1.670975678e-19
2.29907285e-19
3.15812623e-19
4.240946405e-19
5.467675815e-19
6.645145888e-19
7.446233109e-19
1.713951864e-19
2.157434747e-19
2.891688761e-19
3.976752865e-19
5.458942934e-19
7.32431689e-19
9.433803852e-19
1.145466289e-18
1.282693746e-18
2.964437184e-19
3.730780197e-19
4.998546011e-19
6.869831298e-19
9.422063215e-19
1.262804126e-18
1.624566922e-18
1.970319755e-18
2.204567695e-18
5.121325001e-19
6.44337774e-19
8.628268152e-19
1.184866992e-18
1.623276432e-18
2.172729883e-18
2.791116183e-18
3.380488371e-18
3.778704229e-18
8.834946436e-19
1.111102327e-18
1.486801089e-18
2.039605402e-18
2.790485675e-18
3.729009137e-18
4.782023699e-18
5.782349836e-18
6.456088849e-18
1.521534644e-18
1.912420313e-18
2.556692413e-18
3.502729868e-18
4.784349752e-18
6.381157628e-18
8.16633765e-18
9.855788446e-18
1.098952848e-17
2.615062368e-18
3.284376535e-18
4.385659633e-18
5.9988528e-18
8.177542713e-18
1.088205826e-17
1.389318394e-17
1.673060133e-17
1.862690171e-17
4.48397523e-18
5.626074119e-18
7.501471236e-18
1.024087852e-17
1.392740689e-17
1.848446585e-17
2.353457147e-17
2.827048007e-17
3.142120469e-17
7.667936817e-18
9.608972265e-18
1.278880809e-17
1.741859156e-17
2.362383471e-17
3.125811133e-17
3.967458722e-17
4.752568976e-17
5.27230788e-17
1.307307263e-17
1.635684273e-17
2.172195583e-17
2.950477356e-17
3.988852089e-17
5.259653921e-17
6.652710696e-17
7.944748596e-17
8.79554518e-17
2.221307013e-17
2.773982966e-17
3.674226345e-17
4.974775137e-17
6.701201704e-17
8.801932115e-17
1.10906484e-16
1.320044336e-16
1.458198997e-16
3.76027125e-17
4.685132973e-17
6.186533821e-17
8.345678704e-17
1.119605814e-16
1.464293981e-16
1.837379579e-16
2.179097815e-16
2.401573275e-16
6.339555605e-17
7.877525119e-17
1.036494327e-16
1.392429727e-16
1.859523654e-16
2.420647948e-16
3.023854249e-16
3.572693246e-16
3.927914542e-16
1.064093244e-16
1.318103809e-16
1.727263965e-16
2.309618587e-16
3.069017637e-16
3.97499845e-16
4.942059902e-16
5.816040669e-16
6.37836315e-16
1.777615973e-16
2.194077935e-16
2.862007115e-16
3.807270998e-16
5.031755837e-16
6.482189305e-16
8.019306916e-16
9.399102245e-16
1.02816818e-15
2.954574148e-16
3.632103684e-16
4.713758586e-16
6.235442115e-16
8.193145686e-16
1.049527537e-15
1.291743275e-15
1.507717021e-15
1.645075476e-15
4.884478731e-16
5.977802533e-16
7.714923051e-16
1.014374426e-15
1.324676202e-15
1.686911997e-15
2.065318058e-15
2.400527184e-15
2.612545975e-15
8.02940621e-16
9.778883346e-16
1.254488341e-15
1.638814875e-15
2.126388203e-15
2.69145387e-15
3.277631456e-15
3.79362749e-15
4.118282414e-15
1.312125854e-15
1.58965852e-15
2.026266803e-15
2.629120935e-15
3.388620656e-15
4.262607793e-15
5.163146106e-15
5.951108695e-15
6.444430397e-15
2.131036084e-15
2.567463681e-15
3.250627619e-15
4.188066762e-15
5.36106368e-15
6.701646913e-15
8.074074063e-15
9.268134848e-15
1.001225963e-14
3.439056301e-15
4.119336219e-15
5.17899236e-15
6.624234599e-15
8.420741712e-15
1.046048419e-14
1.25359845e-14
1.433218916e-14
1.544680377e-14
5.513744023e-15
6.564892556e-15
8.194421263e-15
1.040387418e-14
1.313305164e-14
1.621255379e-14
1.932820971e-14
2.201139182e-14
2.366993276e-14
8.781248196e-15
1.039152975e-14
1.28763719e-14
1.622666315e-14
2.034038043e-14
2.495520252e-14
2.959955747e-14
3.35812757e-14
3.603379069e-14
1.389093313e-14
1.633715182e-14
2.00954124e-14
2.513579246e-14
3.129012742e-14
3.815691381e-14
4.503410918e-14
5.090601574e-14
5.45113305e-14
2.182509713e-14
2.551123304e-14
3.115103238e-14
3.867717775e-14
4.781881973e-14
5.796805897e-14
6.808779409e-14
7.669649534e-14
8.196739358e-14
3.405929487e-14
3.957083367e-14
4.79705348e-14
5.912780808e-14
7.261515186e-14
8.752135847e-14
1.023250437e-13
1.148770019e-13
1.225432992e-13
5.279243003e-14
6.09723909e-14
7.339375293e-14
8.982274474e-14
1.095959489e-13
1.31359683e-13
1.5289632e-13
1.711038741e-13
1.822003387e-13
8.128145623e-14
9.333701006e-14
1.115829064e-13
1.356219212e-13
1.644393795e-13
1.960404585e-13
2.272115142e-13
2.534962296e-13
2.694851085e-13
1.243207455e-13
1.419717436e-13
1.686058657e-13
2.035727352e-13
2.453399296e-13
2.909893261e-13
3.358888474e-13
3.736639672e-13
3.966051397e-13
1.889268212e-13
2.146123058e-13
2.532644435e-13
3.038478332e-13
3.640736351e-13
4.297014757e-13
4.940875794e-13
5.481495498e-13
5.809364294e-13
2.85312459e-13
3.224771604e-13
3.782664875e-13
4.510681106e-13
5.374966696e-13
6.314276948e-13
7.233750004e-13
8.004452189e-13
8.47131247e-13
4.282672216e-13
4.817582354e-13
5.618790844e-13
6.661636257e-13
7.896478525e-13
9.23534753e-13
1.054335713e-12
1.163808963e-12
1.230058734e-12
6.391072593e-13
7.157222901e-13
8.302533784e-13
9.78983953e-13
1.154691013e-12
1.344802083e-12
1.530210283e-12
1.685187182e-12
1.778898967e-12
9.4842039e-13
1.057664242e-12
1.220684817e-12
1.431950494e-12
1.681023057e-12
1.950016153e-12
2.211958948e-12
2.430668246e-12
2.562831902e-12
1.399919562e-12
1.555046423e-12
1.786173507e-12
2.085154607e-12
2.436997092e-12
2.816360363e-12
3.185295048e-12
3.493050543e-12
3.678928153e-12
2.055837631e-12
2.275285156e-12
2.601787955e-12
3.023458229e-12
3.518879253e-12
4.052285219e-12
4.570436634e-12
5.002326401e-12
5.263075183e-12
3.004460983e-12
3.313820974e-12
3.773525567e-12
4.366363118e-12
5.06188977e-12
5.809799208e-12
6.535603471e-12
7.140181301e-12
7.505081936e-12
4.370625282e-12
4.805348515e-12
5.450623561e-12
6.281701267e-12
7.255495567e-12
8.301469968e-12
9.315667017e-12
1.016001407e-11
1.0669527e-11
6.330305346e-12
6.939409812e-12
7.842629419e-12
9.004589936e-12
1.036455362e-11
1.182390101e-11
1.323787894e-11
1.441453693e-11
1.512448981e-11
9.130852395e-12
9.982001386e-12
1.12430242e-11
1.286362672e-11
1.475849176e-11
1.679009591e-11
1.875730729e-11
2.03937651e-11
2.138108379e-11
1.311900454e-11
1.430545261e-11
1.606184965e-11
1.831702215e-11
2.095151048e-11
2.377399793e-11
2.650556207e-11
2.877722179e-11
3.014776494e-11
1.877957258e-11
2.04296552e-11
2.287068036e-11
2.600234383e-11
2.965786507e-11
3.357167519e-11
3.735767579e-11
4.050555279e-11
4.240480885e-11
2.678875101e-11
2.907883282e-11
3.246448115e-11
3.680485943e-11
4.186773378e-11
4.728520751e-11
5.252372629e-11
5.687857896e-11
5.950625079e-11
3.808740955e-11
4.125952643e-11
4.594649554e-11
5.19512222e-11
5.895110691e-11
6.643744625e-11
7.367408104e-11
7.968925332e-11
8.331911064e-11
5.398159293e-11
5.83674485e-11
6.484444302e-11
7.313757055e-11
8.279968738e-11
9.312861204e-11
1.031101658e-10
1.114062029e-10
1.164130517e-10
7.62799271e-11
8.233346607e-11
9.126910857e-11
1.027041708e-10
1.160201382e-10
1.302493466e-10
1.439966032e-10
1.55421718e-10
1.62317949e-10
1.074808549e-10
1.158223684e-10
1.281300534e-10
1.43872692e-10
1.621963349e-10
1.81769536e-10
2.006756278e-10
2.1638741e-10
2.258723782e-10
1.510267728e-10
1.625024334e-10
1.794278396e-10
2.0106725e-10
2.262437643e-10
2.53128164e-10
2.790910609e-10
3.006664845e-10
3.136929719e-10
2.116473829e-10
2.274092981e-10
2.506480127e-10
2.80346656e-10
3.148860185e-10
3.517567856e-10
3.873569472e-10
4.16939798e-10
4.348030449e-10
2.958210517e-10
3.174343938e-10
3.492892383e-10
3.899829526e-10
4.372915301e-10
4.877779727e-10
5.365152419e-10
5.770125625e-10
6.014688267e-10
4.1239074e-10
4.419762647e-10
4.855664587e-10
5.412302825e-10
6.059181991e-10
6.749301259e-10
7.415374596e-10
7.96879459e-10
8.303027488e-10
5.733800487e-10
6.138023301e-10
6.733395283e-10
7.493381471e-10
8.376240068e-10
9.317808986e-10
1.022636384e-09
1.098117349e-09
1.143704783e-09
7.950647884e-10
8.501786722e-10
9.313280208e-10
1.034873556e-09
1.155112331e-09
1.283302203e-09
1.406964692e-09
1.509685489e-09
1.571723494e-09
1.099365539e-09
1.174335471e-09
1.284682859e-09
1.425426359e-09
1.588790184e-09
1.76288886e-09
1.930785939e-09
2.070221263e-09
2.154426248e-09
1.515635781e-09
1.617344492e-09
1.766993677e-09
1.95777954e-09
2.179124045e-09
2.414908212e-09
2.642207326e-09
2.830922274e-09
2.944870114e-09
2.082926652e-09
2.22049075e-09
2.422815333e-09
2.680629152e-09
2.979578922e-09
3.297866692e-09
3.60456005e-09
3.859100015e-09
4.012758127e-09
2.852811025e-09
3.038220757e-09
3.3107953e-09
3.657934206e-09
4.060218633e-09
4.488268225e-09
4.900498446e-09
5.242472804e-09
5.448846252e-09
3.892843719e-09
4.141741951e-09
4.507472852e-09
4.972962263e-09
5.512026352e-09
6.085215566e-09
6.636860679e-09
7.094233376e-09
7.370131755e-09
5.290718631e-09
5.623329223e-09
6.111798566e-09
6.733069195e-09
7.451971626e-09
8.215767039e-09
8.950289694e-09
9.558877969e-09
9.925802517e-09
7.159155031e-09
7.601362949e-09
8.25038666e-09
9.075210239e-09
1.002880261e-08
1.104100754e-08
1.201355376e-08
1.281871997e-08
1.330386049e-08
9.641503099e-09
1.022607755e-08
1.108346299e-08
1.217212435e-08
1.342948153e-08
1.476272624e-08
1.604243473e-08
1.710093623e-08
1.773825549e-08
1.29180036e-08
1.36859418e-08
1.481140988e-08
1.62390681e-08
1.788611123e-08
1.963051972e-08
2.130297541e-08
2.268491564e-08
2.351628616e-08
1.721257133e-08
1.821452502e-08
1.968174008e-08
2.154090433e-08
2.368312832e-08
2.594906594e-08
2.811880436e-08
2.990960697e-08
3.098595296e-08
2.279990231e-08
2.409763383e-08
2.599626255e-08
2.839928259e-08
3.116447224e-08
3.408525161e-08
3.687819744e-08
3.918050804e-08
4.056289587e-08
3.001263787e-08
3.168043901e-08
3.411814167e-08
3.719959166e-08
4.074038933e-08
4.447479286e-08
4.804050023e-08
5.097590939e-08
5.273652203e-08
3.924826421e-08
4.137426179e-08
4.447850673e-08
4.839732851e-08
5.289350462e-08
5.762797321e-08
6.214153047e-08
6.585200713e-08
6.807494664e-08
5.097539103e-08
5.36626597e-08
5.758224866e-08
6.252351881e-08
6.818379818e-08
7.413414049e-08
7.97976062e-08
8.444655156e-08
8.722840788e-08
6.573904487e-08
6.91064511e-08
7.401264975e-08
8.018884554e-08
8.725215751e-08
9.466464939e-08
1.017079247e-07
1.074807572e-07
1.109308972e-07
8.416463343e-08
8.834734501e-08
9.443452956e-08
1.020861902e-07
1.108222326e-07
1.199740278e-07
1.28655073e-07
1.357592855e-07
1.399998403e-07
1.069602852e-07
1.121098958e-07
1.195956441e-07
1.289913561e-07
1.397004276e-07
1.508992055e-07
1.615035565e-07
1.701682314e-07
1.753337647e-07
1.349173326e-07
1.412015726e-07
1.503261825e-07
1.617618677e-07
1.747739117e-07
1.883567407e-07
2.011963335e-07
2.1167111e-07
2.179079723e-07
1.689088332e-07
1.765108699e-07
1.875362803e-07
2.013337527e-07
2.170066253e-07
2.333380726e-07
2.487493797e-07
2.613028807e-07
2.687682366e-07
2.098860742e-07
2.190033865e-07
2.322115132e-07
2.487163536e-07
2.674333502e-07
2.869028421e-07
3.0524432e-07
3.201619815e-07
3.290222876e-07
2.588730922e-07
2.697159646e-07
2.85406501e-07
3.049852782e-07
3.271519441e-07
3.501703939e-07
3.718192176e-07
3.894004774e-07
3.998306177e-07
3.16959373e-07
3.297490379e-07
3.482367601e-07
3.712736529e-07
3.973139249e-07
4.243096552e-07
4.496577172e-07
4.702137681e-07
4.823948818e-07
3.852909031e-07
4.002573691e-07
4.218689932e-07
4.487618525e-07
4.791135504e-07
5.105275331e-07
5.399783097e-07
5.638283271e-07
5.779458578e-07
4.650597541e-07
4.824393353e-07
5.075099442e-07
5.386657612e-07
5.737757623e-07
6.100580571e-07
6.440215577e-07
6.714892182e-07
6.877309829e-07
5.574922472e-07
5.775247186e-07
6.063937898e-07
6.422247433e-07
6.825451133e-07
7.241490028e-07
7.630373595e-07
7.944474711e-07
8.130017122e-07
6.638354733e-07
6.867619998e-07
7.197707161e-07
7.606897601e-07
8.066718828e-07
8.540491505e-07
8.982723644e-07
9.339475285e-07
9.550009918e-07
7.853466828e-07
8.114068691e-07
8.488935219e-07
8.953094861e-07
9.473995043e-07
1.00099585e-06
1.050957654e-06
1.091215035e-06
1.114951117e-06
9.232783437e-07
9.527076638e-07
9.950043445e-07
1.047317943e-06
1.105952359e-06
1.16620302e-06
1.222296943e-06
1.267445215e-06
1.294042215e-06
1.078865685e-06
1.111893226e-06
1.159322634e-06
1.21792263e-06
1.283524156e-06
1.350849813e-06
1.413455537e-06
1.46379206e-06
1.49342157e-06
1.253314895e-06
1.290161232e-06
1.343033697e-06
1.408293358e-06
1.481267108e-06
1.556070156e-06
1.625550208e-06
1.681358485e-06
1.71418395e-06
1.447792005e-06
1.48866727e-06
1.547278064e-06
1.619551968e-06
1.700282066e-06
1.78294332e-06
1.859640163e-06
1.921187616e-06
1.957363064e-06
1.663412687e-06
1.70851487e-06
1.773141858e-06
1.852763132e-06
1.941609778e-06
2.032485637e-06
2.116719191e-06
2.184255265e-06
2.223924244e-06
1.90123315e-06
1.95074667e-06
2.021648323e-06
2.108926319e-06
2.206223352e-06
2.305643459e-06
2.397709062e-06
2.471463686e-06
2.514758396e-06
2.162242275e-06
2.216336801e-06
2.293750602e-06
2.388969033e-06
2.49502199e-06
2.603287386e-06
2.70345421e-06
2.7836366e-06
2.83067722e-06
2.447355032e-06
2.506184596e-06
2.590325811e-06
2.693741349e-06
2.808826015e-06
2.926207788e-06
3.034717681e-06
3.121515487e-06
3.172409701e-06
2.757407235e-06
2.821109594e-06
2.912170427e-06
3.024011737e-06
3.148373178e-06
3.275111571e-06
3.392178326e-06
3.485757094e-06
3.540599802e-06
3.093151616e-06
3.161847871e-06
3.259996958e-06
3.380464152e-06
3.514316188e-06
3.650620151e-06
3.776429157e-06
3.876932101e-06
3.935805295e-06
3.455255166e-06
3.529049612e-06
3.634431844e-06
3.763696316e-06
3.907221409e-06
4.05326855e-06
4.187976802e-06
4.295524841e-06
4.358497641e-06
3.84429769e-06
3.923277874e-06
4.03601451e-06
4.174219121e-06
4.327568627e-06
4.48350552e-06
4.627241946e-06
4.741933989e-06
4.809062814e-06
4.260771465e-06
4.345008433e-06
4.465197471e-06
4.612457035e-06
4.775751787e-06
4.941694597e-06
5.09456066e-06
5.216474101e-06
5.287802964e-06
4.705081913e-06
4.794630616e-06
4.92234739e-06
5.078749425e-06
5.252080585e-06
5.428115965e-06
5.590186505e-06
5.7193779e-06
5.794938801e-06
5.17754916e-06
5.272448999e-06
5.407746961e-06
5.573352661e-06
5.756782815e-06
5.942969024e-06
6.11429329e-06
6.250799184e-06
6.330612594e-06
5.678410374e-06
5.77868585e-06
5.921597508e-06
6.096442896e-06
6.290007331e-06
6.486375533e-06
6.666978383e-06
6.810816258e-06
6.894891665e-06
6.207822743e-06
6.313484207e-06
6.464022181e-06
6.6481194e-06
6.851827536e-06
7.058383244e-06
7.248266459e-06
7.399435774e-06
7.487772283e-06
6.765867002e-06
6.876911459e-06
7.035069635e-06
7.228408349e-06
7.442245272e-06
7.658969891e-06
7.858113588e-06
8.016596885e-06
8.109183861e-06
7.352551374e-06
7.468963343e-06
7.634718084e-06
7.837266948e-06
8.061195024e-06
8.288047473e-06
8.496411566e-06
8.662175624e-06
8.758993353e-06
7.967815831e-06
8.089568231e-06
8.26287963e-06
8.47458781e-06
8.708548344e-06
8.945466707e-06
9.16299241e-06
9.335989425e-06
9.437009794e-06
8.611536581e-06
8.738591633e-06
8.919404788e-06
9.140203494e-06
9.384118404e-06
9.631021605e-06
9.857632944e-06
1.003780171e-05
1.014298889e-05
9.2835307e-06
9.415840826e-06
9.604087108e-06
9.833891131e-06
1.008766462e-05
1.034445408e-05
1.05800594e-05
1.076732647e-05
1.087663759e-05
9.983560814e-06
1.012106953e-05
1.031666784e-05
1.055537706e-05
1.081889725e-05
1.108545855e-05
1.132995197e-05
1.152423286e-05
1.163761867e-05
1.071133979e-05
1.085398259e-05
1.105684059e-05
1.130434146e-05
1.157748201e-05
1.185368644e-05
1.210694933e-05
1.230814958e-05
1.24255551e-05
1.146653539e-05
1.161424055e-05
1.182425584e-05
1.208042281e-05
1.236304448e-05
1.264875062e-05
1.291065294e-05
1.311866924e-05
1.324003439e-05
1.224877475e-05
1.24014642e-05
1.261852547e-05
1.288322236e-05
1.317517446e-05
1.347022964e-05
1.374063132e-05
1.395535253e-05
1.408061272e-05
1.305764881e-05
1.321523886e-05
1.343922699e-05
1.37123083e-05
1.401343013e-05
1.431767184e-05
1.459642402e-05
1.481773216e-05
1.494681887e-05
1.389271655e-05
1.405511864e-05
1.428590769e-05
1.456721984e-05
1.487734203e-05
1.519059925e-05
1.547754545e-05
1.570531666e-05
1.583815796e-05
1.475350893e-05
1.492063034e-05
1.515808857e-05
1.544747104e-05
1.576641683e-05
1.608851126e-05
1.638348856e-05
1.661759393e-05
1.6754115e-05
1.563953281e-05
1.581127727e-05
1.605526801e-05
1.635255447e-05
1.668014084e-05
1.701088811e-05
1.731372815e-05
1.755403458e-05
1.769415819e-05
1.655027446e-05
1.672654277e-05
1.697692529e-05
1.728194459e-05
1.76179834e-05
1.795719411e-05
1.82677241e-05
1.851409506e-05
1.865774197e-05
1.748520296e-05
1.766589355e-05
1.792252382e-05
1.823510093e-05
1.857939993e-05
1.892688069e-05
1.92449243e-05
1.949722051e-05
1.964430992e-05
1.844377332e-05
1.862878277e-05
1.889151421e-05
1.921147108e-05
1.956383483e-05
1.991938917e-05
2.024476736e-05
2.050284745e-05
2.065329737e-05
1.942542937e-05
1.961465288e-05
1.9883337e-05
2.021049337e-05
2.05707241e-05
2.093415334e-05
2.126668512e-05
2.153040625e-05
2.168413381e-05
2.042960647e-05
2.062293828e-05
2.089742529e-05
2.12315994e-05
2.15994978e-05
2.197060179e-05
2.231010493e-05
2.257932331e-05
2.273624512e-05
2.145573392e-05
2.165306771e-05
2.193320706e-05
2.227421632e-05
2.264958227e-05
2.302816011e-05
2.337445177e-05
2.364902315e-05
2.380905555e-05
2.25032372e-05
2.270446644e-05
2.299010737e-05
2.333776894e-05
2.372040211e-05
2.410625279e-05
2.445915008e-05
2.47389302e-05
2.490198954e-05
2.357154004e-05
2.377655831e-05
2.406755022e-05
2.442168157e-05
2.481138202e-05
2.5204305e-05
2.55636255e-05
2.584847051e-05
2.601447335e-05
2.466006619e-05
2.486876749e-05
2.516496038e-05
2.552537974e-05
2.592194846e-05
2.632174416e-05
2.668730637e-05
2.697707318e-05
2.714593653e-05
2.576824112e-05
2.598052008e-05
2.628176493e-05
2.664829173e-05
2.705153106e-05
2.745800133e-05
2.782962511e-05
2.812417168e-05
2.829581318e-05
2.689549348e-05
2.711124562e-05
2.741739465e-05
2.778984992e-05
2.819956399e-05
2.861251251e-05
2.899001939e-05
2.928920504e-05
2.946354312e-05
2.804125637e-05
2.826037829e-05
2.857128529e-05
2.894949196e-05
2.936548702e-05
2.978471966e-05
3.016793319e-05
3.047161887e-05
3.064857287e-05
2.920496854e-05
2.94273581e-05
2.974287865e-05
3.012666185e-05
3.054874662e-05
3.097407171e-05
3.136281776e-05
3.167086621e-05
3.185035653e-05
3.038607539e-05
3.061163184e-05
3.093162352e-05
3.132081084e-05
3.174879675e-05
3.218002541e-05
3.257413235e-05
3.288640833e-05
3.306835654e-05
3.158402984e-05
3.181265396e-05
3.213697654e-05
3.253139824e-05
3.296509966e-05
3.3402046e-05
3.380134494e-05
3.411771537e-05
3.430204429e-05
3.279829306e-05
3.302988731e-05
3.335840288e-05
3.375789207e-05
3.419712655e-05
3.463960783e-05
3.50439328e-05
3.536426689e-05
3.555090069e-05
3.402833519e-05
3.426280372e-05
3.459537687e-05
3.499976967e-05
3.544435804e-05
3.589219488e-05
3.630138296e-05
3.662555235e-05
3.681441656e-05
3.527363579e-05
3.551088459e-05
3.584738246e-05
3.625651813e-05
3.670628467e-05
3.715930117e-05
3.75731926e-05
3.790107143e-05
3.809209307e-05
3.653368435e-05
3.677362129e-05
3.711391369e-05
3.752763471e-05
3.798240728e-05
3.84404311e-05
3.885886938e-05
3.919033437e-05
3.938344193e-05
3.780798065e-05
3.805051551e-05
3.839447496e-05
3.881262713e-05
3.927223721e-05
3.973509968e-05
4.015793167e-05
4.049286216e-05
4.068798565e-05
3.909603501e-05
3.934107952e-05
3.968858134e-05
4.011101383e-05
4.05752966e-05
4.104283276e-05
4.146990868e-05
4.180818669e-05
4.20052577e-05
4.039736852e-05
4.06448364e-05
4.09957587e-05
4.14223241e-05
4.189111848e-05
4.236316714e-05
4.279434063e-05
4.313585088e-05
4.333480253e-05
4.17115132e-05
4.196132017e-05
4.23155439e-05
4.274609822e-05
4.321924689e-05
4.369565061e-05
4.413077877e-05
4.447540868e-05
4.467617567e-05
4.303801206e-05
4.329007586e-05
4.364748479e-05
4.408188747e-05
4.455923689e-05
4.503984202e-05
4.547878537e-05
4.582642507e-05
4.602894368e-05
4.437641918e-05
4.463065952e-05
4.499114027e-05
4.542925419e-05
4.591065455e-05
4.639531122e-05
4.68379337e-05
4.718847603e-05
4.739268409e-05
4.572629964e-05
4.598263823e-05
4.634608021e-05
4.678777166e-05
4.727307689e-05
4.776163896e-05
4.820780791e-05
4.856114837e-05
4.876698528e-05
4.708722947e-05
4.734558999e-05
4.771188542e-05
4.815702405e-05
4.864609178e-05
4.913841679e-05
4.958800291e-05
4.994403965e-05
5.01514463e-05
4.845879555e-05
4.871910363e-05
4.908814746e-05
4.953660625e-05
5.002929773e-05
5.052524687e-05
5.097812414e-05
5.13367579e-05
5.154567672e-05
4.984059543e-05
5.010277859e-05
5.047446846e-05
5.092612366e-05
5.14223037e-05
5.192174171e-05
5.237778735e-05
5.273892142e-05
5.29492963e-05
5.123223715e-05
5.149622478e-05
5.187046096e-05
5.232519197e-05
5.282472884e-05
5.332752392e-05
5.378661831e-05
5.415015842e-05
5.436193467e-05
5.263333895e-05
5.289906225e-05
5.327574757e-05
5.373343686e-05
5.423620219e-05
5.474222589e-05
5.520425239e-05
5.557010666e-05
5.578323096e-05
5.404352895e-05
5.431092086e-05
5.468996058e-05
5.515049361e-05
5.565636223e-05
5.616548929e-05
5.663033416e-05
5.699841298e-05
5.721283332e-05
5.546244472e-05
5.573143982e-05
5.611274155e-05
5.657600656e-05
5.708485636e-05
5.759696455e-05
5.80645168e-05
5.843473267e-05
5.865039826e-05
5.688973276e-05
5.716026721e-05
5.754374074e-05
5.800962861e-05
5.852134031e-05
5.903631022e-05
5.950646135e-05
5.987872875e-05
6.009558993e-05
5.83250479e-05
5.859705929e-05
5.898261643e-05
5.945102044e-05
5.996547735e-05
6.048319211e-05
6.09558359e-05
6.133007104e-05
6.154807912e-05
5.976805251e-05
6.004147972e-05
6.042903407e-05
6.08998496e-05
6.141693731e-05
6.193728223e-05
6.241231439e-05
6.278843495e-05
6.300754211e-05
6.121841553e-05
6.149319852e-05
6.188266516e-05
6.235578939e-05
6.287539532e-05
6.339825748e-05
6.387557522e-05
6.425350002e-05
6.447365903e-05
6.267581119e-05
6.295189075e-05
6.334318594e-05
6.381851732e-05
6.434053021e-05
6.48657979e-05
6.534529944e-05
6.572494797e-05
6.594611197e-05
6.413991743e-05
6.441723489e-05
6.481027554e-05
6.528771327e-05
6.581202251e-05
6.633958451e-05
6.682116834e-05
6.720246023e-05
6.742458234e-05
6.561041387e-05
6.588891069e-05
6.62836138e-05
6.676305704e-05
6.72895518e-05
6.781929648e-05
6.83028605e-05
6.868571473e-05
6.890874765e-05
6.708697919e-05
6.736659641e-05
6.776287834e-05
6.824422524e-05
6.877279339e-05
6.93046075e-05
6.97900479e-05
7.017438188e-05
7.039827727e-05
6.856928779e-05
6.884996541e-05
6.924774084e-05
6.973088736e-05
7.026141401e-05
7.079518119e-05
7.128239098e-05
7.166811936e-05
7.189282712e-05
7.005700555e-05
7.033868164e-05
7.07378624e-05
7.122270069e-05
7.17550664e-05
7.229066526e-05
7.277953241e-05
7.316656548e-05
7.339203282e-05
7.154978441e-05
7.183239406e-05
7.22328875e-05
7.271930393e-05
7.32533824e-05
7.37906841e-05
7.42810892e-05
7.466933099e-05
7.489550121e-05
7.304725556e-05
7.333072951e-05
7.373243655e-05
7.422030919e-05
7.475596439e-05
7.529482953e-05
7.578664288e-05
7.617598869e-05
7.64027997e-05
7.454902095e-05
7.48332839e-05
7.523609652e-05
7.572529201e-05
7.626237455e-05
7.680264945e-05
7.729572736e-05
7.768606074e-05
7.791344324e-05
7.605464276e-05
7.633961124e-05
7.674340942e-05
7.723377911e-05
7.777212184e-05
7.831363378e-05
7.880781418e-05
7.919900324e-05
7.942687847e-05
7.75636305e-05
7.78492103e-05
7.825385826e-05
7.874523346e-05
7.928464606e-05
7.982719769e-05
8.032229466e-05
8.071418763e-05
8.094246471e-05
7.907542543e-05
7.936150845e-05
7.976685014e-05
8.025903646e-05
8.079929895e-05
8.134266147e-05
8.183845887e-05
8.223087884e-05
8.24594516e-05
8.058938196e-05
8.087584255e-05
8.128169618e-05
8.177446675e-05
8.231532186e-05
8.28592271e-05
8.335547105e-05
8.374820985e-05
8.397695318e-05
8.210474582e-05
8.239143631e-05
8.27975881e-05
8.329067575e-05
8.383182004e-05
8.437595124e-05
8.487234152e-05
8.526515272e-05
8.549391842e-05
8.362062884e-05
8.390737456e-05
8.431357144e-05
8.480665967e-05
8.534773341e-05
8.589171481e-05
8.63878951e-05
8.678048621e-05
8.700909842e-05
8.513598044e-05
8.542257401e-05
8.582851545e-05
8.632122831e-05
8.686180417e-05
8.740518945e-05
8.790073668e-05
8.829276064e-05
8.852101093e-05
8.664955603e-05
8.693575102e-05
8.734108e-05
8.783297101e-05
8.837254176e-05
8.891480155e-05
8.940921449e-05
8.980026071e-05
9.002790287e-05
8.815988276e-05
8.844538693e-05
8.884968023e-05
8.934022059e-05
8.987818609e-05
9.041869495e-05
9.091138237e-05
9.130096753e-05
9.152771246e-05
8.966522372e-05
8.994969188e-05
9.035245007e-05
9.084101643e-05
9.137667038e-05
9.191469359e-05
9.240496259e-05
9.279252172e-05
9.30180325e-05
9.116354168e-05
9.144656859e-05
9.184720592e-05
9.233306838e-05
9.286558539e-05
9.340026642e-05
9.388731141e-05
9.427218974e-05
9.449607726e-05
9.265246397e-05
9.293357766e-05
9.333141279e-05
9.381372375e-05
9.43421474e-05
9.487249664e-05
9.535538991e-05
9.573683613e-05
9.59586557e-05
9.412925117e-05
9.440790688e-05
9.480215465e-05
9.527993946e-05
9.580317291e-05
9.632805872e-05
9.680574329e-05
9.718290496e-05
9.74021543e-05
9.559077184e-05
9.586634747e-05
9.625611276e-05
9.67282629e-05
9.724506236e-05
9.776320603e-05
9.82344921e-05
9.860641389e-05
9.882253295e-05
9.703348658e-05
9.73052801e-05
9.768955469e-05
9.815482484e-05
9.866379752e-05
9.917377261e-05
9.963733871e-05
0.0001000029646
0.0001002153375
9.845344466e-05
9.872067422e-05
9.909833759e-05
9.955534762e-05
0.0001000549554
0.0001005551932
0.0001010095927
0.0001013677727
0.0001015757326
9.984629656e-05
0.000100108104
0.000100477929
0.0001009251722
0.0001014137422
0.0001019025441
0.0001023462187
0.0001026957206
0.0001028985575
0.0001012073258
0.0001014627841
0.0001018234485
0.0001022593067
0.0001027350501
0.0001032106083
0.0001036419083
0.0001039814354
0.0001041784065
0.0001025315029
0.0001027796283
0.0001031297326
0.0001035524998
0.0001040135387
0.0001044739655
0.0001048911781
0.0001052193926
0.0001054097367
0.0001038135627
0.0001040533317
0.0001043914244
0.0001047993377
0.0001052437417
0.0001056871077
0.0001060884931
0.0001064040447
0.0001065869986
0.000105048107
0.0001052784781
0.0001056030869
0.0001059943671
0.0001064201983
0.0001068445784
0.0001072284126
0.0001075299725
0.0001077047904
0.0001062297297
0.0001064496702
0.0001067593408
0.0001071322388