/*--------------------------------*- C++ -*----------------------------------*\
| =========                 |                                                 |
| \\      /  F ield         | OpenFOAM: The Open Source CFD Toolbox           |
|  \\    /   O peration     | Version:  2212                                  |
|   \\  /    A nd           | Website:  www.openfoam.com                      |
|    \\/     M anipulation  |                                                 |
\*---------------------------------------------------------------------------*/
FoamFile
{
    version     2.0;
    format      ascii;
    arch        "LSB;label=32;scalar=64";
    class       volScalarField;
    location    "23.25000000";
    object      A2CH3-2;
}
// * * * * * * * * * * * * * * * * * * * * * * * * * * * * * * * * * * * * * //

dimensions      [0 0 0 0 0 0 0];

internalField   nonuniform List<scalar> 
3000
(
1.819051302e-26
2.043482074e-26
2.38214307e-26
2.833429734e-26
3.39273799e-26
4.044855946e-26
4.750478202e-26
5.423707896e-26
5.899852985e-26
6.829501457e-26
7.70308595e-26
9.020747233e-26
1.078054463e-25
1.298067826e-25
1.560875847e-25
1.861916333e-25
2.185884024e-25
2.472992141e-25
1.529703724e-25
1.738896347e-25
2.057445718e-25
2.489965153e-25
3.044235449e-25
3.728271894e-25
4.539427315e-25
5.432049615e-25
6.195341556e-25
2.913668797e-25
3.346823688e-25
4.016079796e-25
4.944080902e-25
6.163704004e-25
7.705913017e-25
9.562348341e-25
1.158414321e-24
1.321637004e-24
5.173799172e-25
6.01586505e-25
7.3374041e-25
9.205540058e-25
1.170815281e-24
1.491535183e-24
1.877368186e-24
2.287089513e-24
2.601628297e-24
8.896663637e-25
1.047710069e-24
1.299299485e-24
1.660487607e-24
2.150541351e-24
2.781781399e-24
3.535365616e-24
4.316238622e-24
4.89396417e-24
1.510313591e-24
1.800617168e-24
2.268137161e-24
2.946900337e-24
3.874703388e-24
5.069978321e-24
6.483295463e-24
7.919226005e-24
8.955330832e-24
2.555927008e-24
3.081299052e-24
3.934913695e-24
5.183819832e-24
6.897671726e-24
9.101126485e-24
1.168363716e-23
1.42692846e-23
1.610385432e-23
4.332481166e-24
5.273218351e-24
6.811603315e-24
9.073797344e-24
1.218369766e-23
1.617116712e-23
2.081093324e-23
2.540799766e-23
2.863367566e-23
7.369800401e-24
9.041049003e-24
1.178656008e-23
1.583690627e-23
2.140846287e-23
2.853350891e-23
3.677815871e-23
4.488700118e-23
5.05345164e-23
1.258589404e-23
1.55374676e-23
2.04017196e-23
2.759233545e-23
3.748393827e-23
5.01052446e-23
6.46495304e-23
7.888079424e-23
8.874251447e-23
2.157175182e-23
2.676146868e-23
3.533302182e-23
4.802007526e-23
6.546917324e-23
8.769373532e-23
1.132270302e-22
1.381205678e-22
1.553109068e-22
3.708570486e-23
4.618062402e-23
6.122495169e-23
8.351035709e-23
1.141520848e-22
1.531260088e-22
1.97803846e-22
2.41250825e-22
2.711803064e-22
6.391122331e-23
7.981088878e-23
1.061389502e-22
1.451589817e-22
1.98795877e-22
2.669466853e-22
3.449464034e-22
4.206579209e-22
4.727225782e-22
1.103457111e-22
1.380910609e-22
1.840680537e-22
2.52231584e-22
3.459070294e-22
4.648370598e-22
6.007944433e-22
7.325868056e-22
8.231016732e-22
1.907844062e-22
2.391362788e-22
3.193018785e-22
4.381772374e-22
6.0151196e-22
8.087572292e-22
1.045466694e-21
1.274698034e-21
1.431993516e-21
3.302047462e-22
4.143848948e-22
5.540027791e-22
7.61065409e-22
1.045519437e-21
1.40627635e-21
1.818045551e-21
2.21650751e-21
2.489739662e-21
5.71948458e-22
7.183984029e-22
9.613539692e-22
1.321697466e-21
1.816639927e-21
2.444103073e-21
3.159901379e-21
3.852146207e-21
4.326558271e-21
9.912239209e-22
1.245865454e-21
1.668372243e-21
2.295026974e-21
3.155606402e-21
4.246224686e-21
5.489791777e-21
6.691806154e-21
7.515164674e-21
1.718526784e-21
2.161096821e-21
2.895475978e-21
3.984646423e-21
5.48009724e-21
7.374636426e-21
9.533894445e-21
1.161996853e-20
1.304821801e-20
2.980243373e-21
3.749157503e-21
5.025068589e-21
6.917200515e-21
9.514506143e-21
1.280371726e-20
1.655075043e-20
2.01689275e-20
2.264493399e-20
5.168993543e-21
6.50443802e-21
8.720303994e-21
1.20058022e-20
1.651440723e-20
2.222162832e-20
2.871977842e-20
3.499083796e-20
3.927990638e-20
8.965419298e-21
1.12839934e-20
1.513064952e-20
2.083273562e-20
2.865454666e-20
3.855064512e-20
4.981111079e-20
6.06706438e-20
6.809309785e-20
1.554876843e-20
1.957261542e-20
2.624706026e-20
3.613753578e-20
4.969801641e-20
6.684353165e-20
8.633790566e-20
1.051225544e-19
1.179514359e-19
2.696048748e-20
3.394034523e-20
4.551460861e-20
6.265803395e-20
8.61478531e-20
1.158237082e-19
1.495328674e-19
1.81981304e-19
2.041195172e-19
4.673091135e-20
5.883068014e-20
7.88870664e-20
1.085763659e-19
1.492237159e-19
2.00523513e-19
2.587265099e-19
3.146809438e-19
3.528084724e-19
8.095706608e-20
1.019152535e-19
1.366373923e-19
1.879975412e-19
2.582432157e-19
3.467865301e-19
4.470974501e-19
5.433803834e-19
6.08886105e-19
1.401515993e-19
1.764156487e-19
2.364563515e-19
3.251831543e-19
4.46383354e-19
5.989168925e-19
7.714118016e-19
9.366595142e-19
1.04887181e-18
2.42405065e-19
3.05069718e-19
4.087362271e-19
5.617531413e-19
7.704517589e-19
1.032607867e-18
1.32842501e-18
1.611150641e-18
1.802697579e-18
4.187759918e-19
5.268815986e-19
7.055423254e-19
9.688778766e-19
1.327369766e-18
1.77666348e-18
2.282324292e-18
2.764259965e-18
3.089885145e-18
7.224426228e-19
9.085597571e-19
1.215772484e-18
1.667806234e-18
2.281808725e-18
3.049248974e-18
3.910309768e-18
4.728286694e-18
5.279209977e-18
1.244174473e-18
1.563805691e-18
2.090633588e-18
2.864218108e-18
3.912211818e-18
5.21793798e-18
6.677697973e-18
8.059179192e-18
8.986250014e-18
2.13836331e-18
2.685668367e-18
3.586198843e-18
4.90532343e-18
6.6868605e-18
8.89837058e-18
1.13605989e-17
1.368078416e-17
1.523140839e-17
3.666592544e-18
4.600498519e-18
6.134029972e-18
8.374071392e-18
1.138858344e-17
1.511493727e-17
1.924446039e-17
2.311706137e-17
2.569344113e-17
6.270150656e-18
7.857355259e-18
1.045753964e-17
1.424336108e-17
1.931745204e-17
2.556007832e-17
3.244231694e-17
3.886224395e-17
4.311220215e-17
1.068998584e-17
1.337515836e-17
1.776226643e-17
2.412635638e-17
3.261725314e-17
4.300873009e-17
5.439989822e-17
6.496502458e-17
7.192207533e-17
1.816385602e-17
2.268314412e-17
3.004452675e-17
4.067924784e-17
5.479641518e-17
7.197430342e-17
9.068937133e-17
1.079413811e-16
1.192384292e-16
3.07481257e-17
3.831081523e-17
5.058792447e-17
6.824347425e-17
9.155131993e-17
1.197368255e-16
1.502444181e-16
1.781870688e-16
1.96379115e-16
5.183920148e-17
6.441533682e-17
8.475521144e-17
1.138604159e-16
1.520551671e-16
1.97938878e-16
2.472636773e-16
2.921428055e-16
3.211896148e-16
8.701200824e-17
1.077827148e-16
1.412401636e-16
1.888599025e-16
2.509567462e-16
3.250397309e-16
4.041173412e-16
4.755836465e-16
5.215653321e-16
1.453575104e-16
1.794120373e-16
2.340292991e-16
3.11324506e-16
4.114518981e-16
5.300553408e-16
6.557470327e-16
7.685743163e-16
8.407437519e-16
2.415986263e-16
2.970009232e-16
3.854489717e-16
5.09878617e-16
6.69962071e-16
8.582096004e-16
1.056271913e-15
1.232875871e-15
1.345195291e-15
3.994089908e-16
4.888112266e-16
6.308573931e-16
8.294646452e-16
1.083201647e-15
1.379405627e-15
1.688832189e-15
1.962936156e-15
2.136306103e-15
6.565731305e-16
7.996297305e-16
1.025808482e-15
1.340076344e-15
1.738770182e-15
2.200830297e-15
2.680153822e-15
3.102089135e-15
3.367562819e-15
1.072939542e-15
1.299880982e-15
1.656900249e-15
2.149860505e-15
2.770911496e-15
3.485580016e-15
4.221959659e-15
4.8662849e-15
5.269679177e-15
1.742571751e-15
2.099443359e-15
2.658073942e-15
3.424628082e-15
4.383800298e-15
5.48000956e-15
6.60225783e-15
7.578653931e-15
8.187132556e-15
2.812155235e-15
3.368427709e-15
4.234920307e-15
5.41671086e-15
6.885734454e-15
8.553654108e-15
1.025081314e-14
1.171958892e-14
1.263102111e-14
4.508652703e-15
5.368188915e-15
6.700673149e-15
8.507367886e-15
1.073904706e-14
1.325719037e-14
1.580489667e-14
1.799896403e-14
1.935517092e-14
7.180532653e-15
8.497279029e-15
1.052916388e-14
1.326873645e-14
1.663257109e-14
2.040616444e-14
2.420390656e-14
2.745980251e-14
2.946525137e-14
1.135879108e-14
1.335909457e-14
1.643227086e-14
2.055385176e-14
2.558632668e-14
3.1201381e-14
3.682494588e-14
4.162647318e-14
4.457458106e-14
1.784667127e-14
2.086087325e-14
2.547261134e-14
3.162683884e-14
3.910207816e-14
4.74012416e-14
5.567627767e-14
6.27157207e-14
6.702579944e-14
2.78507641e-14
3.235762747e-14
3.922618186e-14
4.834964145e-14
5.937843155e-14
7.156744417e-14
8.367262175e-14
9.393652901e-14
1.002053635e-13
4.31691624e-14
4.985804265e-14
6.001518223e-14
7.344942262e-14
8.961827683e-14
1.074148171e-13
1.25025655e-13
1.399142485e-13
1.489879942e-13
6.646515824e-14
7.632319037e-14
9.124317275e-14
1.109002897e-13
1.344648251e-13
1.603055777e-13
1.857946939e-13
2.072881633e-13
2.203625458e-13
1.016592423e-13
1.160928015e-13
1.378720386e-13
1.664651334e-13
2.006189989e-13
2.379474311e-13
2.74662686e-13
3.055521775e-13
3.243116448e-13
1.544890414e-13
1.754926218e-13
2.070993314e-13
2.48462515e-13
2.977105519e-13
3.513760013e-13
4.040260899e-13
4.482339064e-13
4.750445579e-13
2.333058928e-13
2.636964006e-13
3.093167658e-13
3.688485822e-13
4.395235905e-13
5.163336729e-13
5.915217086e-13
6.545443766e-13
6.927209868e-13
3.502037951e-13
3.939449511e-13
4.594621716e-13
5.447388985e-13
6.457159951e-13
7.551999212e-13
8.621605823e-13
9.516809537e-13
1.005855919e-12
5.226139174e-13
5.852646201e-13
6.789207145e-13
8.005431912e-13
9.442257027e-13
1.099687364e-12
1.251303691e-12
1.378035279e-12
1.454667699e-12
7.755495453e-13
8.648825505e-13
9.981911764e-13
1.170952278e-12
1.374630353e-12
1.594599071e-12
1.808803009e-12
1.987653032e-12
2.095730197e-12
1.144757616e-12
1.271611954e-12
1.460615613e-12
1.705107503e-12
1.992827778e-12
2.303054203e-12
2.604753208e-12
2.856422604e-12
3.008425257e-12
1.681131058e-12
1.860584858e-12
2.127584069e-12
2.472407967e-12
2.877543214e-12
3.31374181e-12
3.737465878e-12
4.090647846e-12
4.303876897e-12
2.456870824e-12
2.709852892e-12
3.085781478e-12
3.57058205e-12
4.13935865e-12
4.750971638e-12
5.344506046e-12
5.838903597e-12
6.137301565e-12
3.574071113e-12
3.92957265e-12
4.457256656e-12
5.136883908e-12
5.933218721e-12
6.788576312e-12
7.617941731e-12
8.308404833e-12
8.725053727e-12
5.176653795e-12
5.674760239e-12
6.413384116e-12
7.36359547e-12
8.475721068e-12
9.669108454e-12
1.082538091e-11
1.178757255e-11
1.236811565e-11
7.466922971e-12
8.16296541e-12
9.194186037e-12
1.051945021e-11
1.206898007e-11
1.373030549e-11
1.533894596e-11
1.667709371e-11
1.748441787e-11
1.072848044e-11
1.169871375e-11
1.313502109e-11
1.497918686e-11
1.713350562e-11
1.944151244e-11
2.167511553e-11
2.353260474e-11
2.465324024e-11
1.535788047e-11
1.670724067e-11
1.870337736e-11
2.126424217e-11
2.425342111e-11
2.745372239e-11
3.054941732e-11
3.312325031e-11
3.467610797e-11
2.190826395e-11
2.378095273e-11
2.654949245e-11
3.009867165e-11
3.423853368e-11
3.86681989e-11
4.295137023e-11
4.651187735e-11
4.866016034e-11
3.114937049e-11
3.374327752e-11
3.757584716e-11
4.248583524e-11
4.820936124e-11
5.433038855e-11
6.024696596e-11
6.516463626e-11
6.813205566e-11
4.414987758e-11
4.773620096e-11
5.303234582e-11
5.981331421e-11
6.771333868e-11
7.615814938e-11
8.431848797e-11
9.110042809e-11
9.519323755e-11
6.239007368e-11
6.733996295e-11
7.464633437e-11
8.39960748e-11
9.488321774e-11
1.065163697e-10
1.177547614e-10
1.270941345e-10
1.327310078e-10
8.791558084e-11
9.473623594e-11
1.047996739e-10
1.176712292e-10
1.326523185e-10
1.486540209e-10
1.641092063e-10
1.76952102e-10
1.847045377e-10
1.235463675e-10
1.329298184e-10
1.467690594e-10
1.644620513e-10
1.850459804e-10
2.070247798e-10
2.282485412e-10
2.458841376e-10
2.565309242e-10
1.73159819e-10
1.860486233e-10
2.050508462e-10
2.293343816e-10
2.575744998e-10
2.877187766e-10
3.168218581e-10
3.410035213e-10
3.556038608e-10
2.420723484e-10
2.597477212e-10
2.857980019e-10
3.190753854e-10
3.577602025e-10
3.9904094e-10
4.388882254e-10
4.719953867e-10
4.919865906e-10
3.375511046e-10
3.617505605e-10
3.974045913e-10
4.429329376e-10
4.958401963e-10
5.52280901e-10
6.067510126e-10
6.520043059e-10
6.793315419e-10
4.694958584e-10
5.025693259e-10
5.512824729e-10
6.134637126e-10
6.856967322e-10
7.627303882e-10
8.370586311e-10
8.988038162e-10
9.360911892e-10
6.513410981e-10
6.964566269e-10
7.628855183e-10
8.476491612e-10
9.460787096e-10
1.051016127e-09
1.152243871e-09
1.236323417e-09
1.287097628e-09
9.012394899e-10
9.626520438e-10
1.053048279e-09
1.168350472e-09
1.302190058e-09
1.44482868e-09
1.582386588e-09
1.696621213e-09
1.765601025e-09
1.243599586e-09
1.326998842e-09
1.449717841e-09
1.606185417e-09
1.787732418e-09
1.981139151e-09
2.167595693e-09
2.32240126e-09
2.415867765e-09
1.711062013e-09
1.824017302e-09
1.990168408e-09
2.201920232e-09
2.447499085e-09
2.709004324e-09
2.961014091e-09
3.170181544e-09
3.296445449e-09
2.34700782e-09
2.499529999e-09
2.723796093e-09
3.009476422e-09
3.340622358e-09
3.693064234e-09
4.032551847e-09
4.314218525e-09
4.48420093e-09
3.208698242e-09
3.413938841e-09
3.715594329e-09
4.099653103e-09
4.544574575e-09
5.01783145e-09
5.473445303e-09
5.851284316e-09
6.079226222e-09
4.371144322e-09
4.646251282e-09
5.050405397e-09
5.564657525e-09
6.160011471e-09
6.792855746e-09
7.401720444e-09
7.906369877e-09
8.210682577e-09
5.93179512e-09
6.298941202e-09
6.838028544e-09
7.523517256e-09
8.316522664e-09
9.158819094e-09
9.968605412e-09
1.063935048e-08
1.104361359e-08
8.01611225e-09
8.503706352e-09
9.219237717e-09
1.012841544e-08
1.117931673e-08
1.229457316e-08
1.336588933e-08
1.425259797e-08
1.478670417e-08
1.078406481e-08
1.142814781e-08
1.237272158e-08
1.357194533e-08
1.49568179e-08
1.642507598e-08
1.783416446e-08
1.899946067e-08
1.97008967e-08
1.443753244e-08
1.528334802e-08
1.652290608e-08
1.809522394e-08
1.990909086e-08
2.183011979e-08
2.367182092e-08
2.519346171e-08
2.610870409e-08
1.922854761e-08
2.03322655e-08
2.194855898e-08
2.399674093e-08
2.635694411e-08
2.885367456e-08
3.12445943e-08
3.321799719e-08
3.440399062e-08
2.546824501e-08
2.689880048e-08
2.899201132e-08
3.164175478e-08
3.469149851e-08
3.79136086e-08
4.099540554e-08
4.35362564e-08
4.506193164e-08
3.353632319e-08
3.537732386e-08
3.806877061e-08
4.147199002e-08
4.538395313e-08
4.951149777e-08
5.345418603e-08
5.670103989e-08
5.864881602e-08
4.389076751e-08
4.624240853e-08
4.967725107e-08
5.401534569e-08
5.899524373e-08
6.424220547e-08
6.924735842e-08
7.336414431e-08
7.583138611e-08
5.707754146e-08
6.005846378e-08
6.440831427e-08
6.989530069e-08
7.618527326e-08
8.280290599e-08
8.91066459e-08
9.428500919e-08
9.73853548e-08
7.373992987e-08
7.748895509e-08
8.295430201e-08
8.983969809e-08
9.772139566e-08
1.060012404e-07
1.138769402e-07
1.203382988e-07
1.242028365e-07
9.462721463e-08
9.930489195e-08
1.06117247e-07
1.146886006e-07
1.244858616e-07
1.347623745e-07
1.445229285e-07
1.525202168e-07
1.572984701e-07
1.206023735e-07
1.263922758e-07
1.348159465e-07
1.454009434e-07
1.574820283e-07
1.701346677e-07
1.821343213e-07
1.919533808e-07
1.978140976e-07
1.526485007e-07
1.597582583e-07
1.700917796e-07
1.830598346e-07
1.978390392e-07
2.132938147e-07
2.279295121e-07
2.398901521e-07
2.4702197e-07
1.918738944e-07
2.005358764e-07
2.131128976e-07
2.288761725e-07
2.468148469e-07
2.655452501e-07
2.832574624e-07
2.977142501e-07
3.06326639e-07
2.395153999e-07
2.499870494e-07
2.651767496e-07
2.841905528e-07
3.057974166e-07
3.283246125e-07
3.495974034e-07
3.669396107e-07
3.772607264e-07
2.969400783e-07
3.095038788e-07
3.277108524e-07
3.504733931e-07
3.763041254e-07
4.031963757e-07
4.285567301e-07
4.492052964e-07
4.614821185e-07
3.656451265e-07
3.806081968e-07
4.022718108e-07
4.293233138e-07
4.599794243e-07
4.918506791e-07
5.218641537e-07
5.462711776e-07
5.607688509e-07
4.472560828e-07
4.649494081e-07
4.905426118e-07
5.224638084e-07
5.585900441e-07
5.960943253e-07
6.313641459e-07
6.600113682e-07
6.770121241e-07
5.435233729e-07
5.643007313e-07
5.943281093e-07
6.317357342e-07
6.740143259e-07
7.178447863e-07
7.590093498e-07
7.924059014e-07
8.122077213e-07
6.563169745e-07
6.805511702e-07
7.155433716e-07
7.590865064e-07
8.082360296e-07
8.591215679e-07
9.068511781e-07
9.455309363e-07
9.684459913e-07
7.876097843e-07
8.156914986e-07
8.562047691e-07
9.06562995e-07
9.633345813e-07
1.022035907e-06
1.077029083e-06
1.121547697e-06
1.1479006e-06
9.394723015e-07
9.718084296e-07
1.018421517e-06
1.076301022e-06
1.141474062e-06
1.208779313e-06
1.271758732e-06
1.322690378e-06
1.352816283e-06
1.114062289e-06
1.151073537e-06
1.204384266e-06
1.270513635e-06
1.344891128e-06
1.421611153e-06
1.493319317e-06
1.551253252e-06
1.585495845e-06
1.313612727e-06
1.355731045e-06
1.416352676e-06
1.491478446e-06
1.575882102e-06
1.662845527e-06
1.744040244e-06
1.809577226e-06
1.848286643e-06
1.54041885e-06
1.588084768e-06
1.656642215e-06
1.741524292e-06
1.836789502e-06
1.934837671e-06
2.026287456e-06
2.10003611e-06
2.143566824e-06
1.796824546e-06
1.850484464e-06
1.927610471e-06
2.02301749e-06
2.129988261e-06
2.239970165e-06
2.342449626e-06
2.425022817e-06
2.473731538e-06
2.085208403e-06
2.145311889e-06
2.231643217e-06
2.338347946e-06
2.457871883e-06
2.580639157e-06
2.694924476e-06
2.786935753e-06
2.841179369e-06
2.407969649e-06
2.474966796e-06
2.571140498e-06
2.689915352e-06
2.822838787e-06
2.959240864e-06
3.086105418e-06
3.188165587e-06
3.248299185e-06
2.767514253e-06
2.841853128e-06
2.948502966e-06
3.080115707e-06
3.227279038e-06
3.378158525e-06
3.51836873e-06
3.631082602e-06
3.697457589e-06
3.166241394e-06
3.248365623e-06
3.366118685e-06
3.511328359e-06
3.673561667e-06
3.839750009e-06
3.994061423e-06
4.118024777e-06
4.190987133e-06
3.606530515e-06
3.696877032e-06
3.826350575e-06
3.985903748e-06
4.164022729e-06
4.346336203e-06
4.515489941e-06
4.651286732e-06
4.731175399e-06
4.090729119e-06
4.1897261e-06
4.331524662e-06
4.506151974e-06
4.700954245e-06
4.900190318e-06
5.084909804e-06
5.233109637e-06
5.320255068e-06
4.621141452e-06
4.729206452e-06
4.883919256e-06
5.074332328e-06
5.286594103e-06
5.503528183e-06
5.704516255e-06
5.865672143e-06
5.960395018e-06
5.200018177e-06
5.317556477e-06
5.485755129e-06
5.692643833e-06
5.923117015e-06
6.158499602e-06
6.376435981e-06
6.551082389e-06
6.653692488e-06
5.829547106e-06
5.956950281e-06
6.139186774e-06
6.363216878e-06
6.612626545e-06
6.867180783e-06
7.10271991e-06
7.291371088e-06
7.402166342e-06
6.511845035e-06
6.649489734e-06
6.846294766e-06
7.08810594e-06
7.357148233e-06
7.631567864e-06
7.885337098e-06
8.088485696e-06
8.20775139e-06
7.248950706e-06
7.397197647e-06
7.609079226e-06
7.869283411e-06
8.15862381e-06
8.453571511e-06
8.726169672e-06
8.944285625e-06
9.072293768e-06
8.042818877e-06
8.20201204e-06
8.42945438e-06
8.708634496e-06
9.018906467e-06
9.335012556e-06
9.627008797e-06
9.860538468e-06
9.997547307e-06
8.895315475e-06
9.065781495e-06
9.309244177e-06
9.607953154e-06
9.939757144e-06
1.027761862e-05
1.058955162e-05
1.083891719e-05
1.098517086e-05
9.808213792e-06
9.990261525e-06
1.025017891e-05
1.056893902e-05
1.092284177e-05
1.128302171e-05
1.161539911e-05
1.188099818e-05
1.20367265e-05
1.078319166e-05
1.097711192e-05
1.12538928e-05
1.159319526e-05
1.196972943e-05
1.235275659e-05
1.270605477e-05
1.298826018e-05
1.315367853e-05
1.182182956e-05
1.202789497e-05
1.232192243e-05
1.268222724e-05
1.308189127e-05
1.348826008e-05
1.386292408e-05
1.416208391e-05
1.433739325e-05
1.292560952e-05
1.314407457e-05
1.345570599e-05
1.383744206e-05
1.426070031e-05
1.469087096e-05
1.508731469e-05
1.540375239e-05
1.558913936e-05
1.409591484e-05
1.432701601e-05
1.46565833e-05
1.506014866e-05
1.550743173e-05
1.596183058e-05
1.638043716e-05
1.671445186e-05
1.691008896e-05
1.533403048e-05
1.557798645e-05
1.592579639e-05
1.635155867e-05
1.682326392e-05
1.730228403e-05
1.774340629e-05
1.809527325e-05
1.830131909e-05
1.664114402e-05
1.689815603e-05
1.726449075e-05
1.771278777e-05
1.820927995e-05
1.871328177e-05
1.917724292e-05
1.954721404e-05
1.976381363e-05
1.801834722e-05
1.828859944e-05
1.867371699e-05
1.914485745e-05
1.966646956e-05
2.019578175e-05
2.068287614e-05
2.107118055e-05
2.129846572e-05
1.946663794e-05
1.975029795e-05
2.015443296e-05
2.06486973e-05
2.119573146e-05
2.17506518e-05
2.22611458e-05
2.266799059e-05
2.290608032e-05
2.098692255e-05
2.128414187e-05
2.170750628e-05
2.222514751e-05
2.279787597e-05
2.337867243e-05
2.391280533e-05
2.433837627e-05
2.458737719e-05
2.258001859e-05
2.289093318e-05
2.333371705e-05
2.387496178e-05
2.447362797e-05
2.508053974e-05
2.563852477e-05
2.60829871e-05
2.634299391e-05
2.424665767e-05
2.457138858e-05
2.50337609e-05
2.559881031e-05
2.622362999e-05
2.685686862e-05
2.743889396e-05
2.790239324e-05
2.817348922e-05
2.598748866e-05
2.632614261e-05
2.680825215e-05
2.739728309e-05
2.804844546e-05
2.870819603e-05
2.931442589e-05
2.979708882e-05
3.007934631e-05
2.780308098e-05
2.815575095e-05
2.865772719e-05
2.927089317e-05
2.994856209e-05
3.063498439e-05
3.12655601e-05
3.176749538e-05
3.206097628e-05
2.969392794e-05
3.006069385e-05
3.058264782e-05
3.122008016e-05
3.192439531e-05
3.263762503e-05
3.329266612e-05
3.381396532e-05
3.41187216e-05
3.166045027e-05
3.204137959e-05
3.258340478e-05
3.324521368e-05
3.397629174e-05
3.471644167e-05
3.539604696e-05
3.593678538e-05
3.625285957e-05
3.370299959e-05
3.409814797e-05
3.466032122e-05
3.534659681e-05
3.610453267e-05
3.687169388e-05
3.757594254e-05
3.813618006e-05
3.846360577e-05
3.582186193e-05
3.623127379e-05
3.681365619e-05
3.752446961e-05
3.83093375e-05
3.910358051e-05
3.983253316e-05
4.041231507e-05
4.075111746e-05
3.801726117e-05
3.844097036e-05
3.904360807e-05
3.977901252e-05
4.059086717e-05
4.141224308e-05
4.21659428e-05
4.276530065e-05
4.311549689e-05
4.028936249e-05
4.072739287e-05
4.135031799e-05
4.211034973e-05
4.294922748e-05
4.379776912e-05
4.457624245e-05
4.519519483e-05
4.555679462e-05
4.263827576e-05
4.309064176e-05
4.373387315e-05
4.451855251e-05
4.53844724e-05
4.626019535e-05
4.706345332e-05
4.770200662e-05
4.807501261e-05
4.506405875e-05
4.553076597e-05
4.619431002e-05
4.700364236e-05
4.789660715e-05
4.879951086e-05
4.962754992e-05
5.028569912e-05
5.067010733e-05
4.75667204e-05
4.80477661e-05
4.873161755e-05
4.956559417e-05
5.048559139e-05
5.141566014e-05
5.226846305e-05
5.294619243e-05
5.334199269e-05
5.014622384e-05
5.064159752e-05
5.134574012e-05
5.220433917e-05
5.315134207e-05
5.410854596e-05
5.498608273e-05
5.568336654e-05
5.609054291e-05
5.280248937e-05
5.331217325e-05
5.403658054e-05
5.491976785e-05
5.589373633e-05
5.687803223e-05
5.77802609e-05
5.849706406e-05
5.891559519e-05
5.553539736e-05
5.605936683e-05
5.680400279e-05
5.771173272e-05
5.871261423e-05
5.972394662e-05
6.065081412e-05
6.138709283e-05
6.181695235e-05
5.834479091e-05
5.888301505e-05
5.964783472e-05
6.058005092e-05
6.160778131e-05
6.264608317e-05
6.359752607e-05
6.435322843e-05
6.479438527e-05
6.123047851e-05
6.178292047e-05
6.256787063e-05
6.352450677e-05
6.457901108e-05
6.56442047e-05
6.662014992e-05
6.73952165e-05
6.784763527e-05
6.41922365e-05
6.475885395e-05
6.556387363e-05
6.654485413e-05
6.762604739e-05
6.871804511e-05
6.971841064e-05
7.051277503e-05
7.097641629e-05
6.722981143e-05
6.781055693e-05
6.863557802e-05
6.964081872e-05
7.074860665e-05
7.186731158e-05
7.289200712e-05
7.370559643e-05
7.418041704e-05
7.034292229e-05
7.093774368e-05
7.178269142e-05
7.281210018e-05
7.394637989e-05
7.509168663e-05
7.614061422e-05
7.697334958e-05
7.745930291e-05
7.35312626e-05
7.414010336e-05
7.500489686e-05
7.605837417e-05
7.721903478e-05
7.839083003e-05
7.946388462e-05
8.031568164e-05
8.081271792e-05
7.679450244e-05
7.741730197e-05
7.830185465e-05
7.937929421e-05
8.05662175e-05
8.176438067e-05
8.286145066e-05
8.373221985e-05
8.424028635e-05
8.013229026e-05
8.076898424e-05
8.167320428e-05
8.277449348e-05
8.398755442e-05
8.52119582e-05
8.633292598e-05
8.722257313e-05
8.774161443e-05
8.354425463e-05
8.419477528e-05
8.511856602e-05
8.624358647e-05
8.748265376e-05
8.873316465e-05
8.987790703e-05
9.078633363e-05
9.131629181e-05
8.703000589e-05
8.769428225e-05
8.863754255e-05
8.97861705e-05
9.105110707e-05
9.232758583e-05
9.349597453e-05
9.442307806e-05
9.496389291e-05
9.058913757e-05
9.126709576e-05
9.222972037e-05
9.340182713e-05
9.469249058e-05
9.599479274e-05
9.718669471e-05
9.813236898e-05
9.868397818e-05
9.422122784e-05
9.491279125e-05
9.589467113e-05
9.709012346e-05
9.840636646e-05
9.973434266e-05
0.0001009496205
0.0001019137559
0.0001024760952
9.792584069e-05
9.863093021e-05
9.963195278e-05
0.0001008506132
0.0001021922839
0.0001035457803
0.0001047842926
0.0001057667764
0.0001063397797
0.000101702527
0.0001024210612
0.0001034411107
0.0001046828378
0.00010604978
0.0001074286385
0.0001086902401
0.0001096909566
0.0001102745561
0.0001055508256
0.0001062827208
0.0001073216782
0.0001085863271
0.0001099783807
0.0001113824393
0.0001126669814
0.0001136858122
0.0001142799385
0.0001094702639
0.0001102154345
0.0001112731781
0.0001125606001
0.0001139776012
0.0001154066941
0.0001167140244
0.0001177508484
0.0001183554306
0.0001134603587
0.000114218717
0.0001152951221
0.0001166051653
0.0001180469464
0.0001195009041
0.0001208308672
0.0001218855605
0.0001225005261
0.0001175206164
0.0001182920728
0.0001193870121
0.0001207195212
0.0001221859109
0.0001236645602
0.0001250169973
0.0001260894335
0.0001267147087
0.0001216505329
0.0001224349958
0.0001235483392
0.0001249031556
0.0001263939789
0.000127897143
0.0001292718917
0.0001303619418
0.0001309974508
0.0001258495937
0.0001266469695
0.0001277785839
0.0001291555453
0.0001306706234
0.0001321981214
0.0001335950157
0.0001347025474
0.000135348213
0.0001301172728
0.0001309274656
0.0001320772148
0.0001334761553
0.0001350153049
0.0001365669513
0.000137985821
0.0001391106989
0.0001397664417
0.0001344530316
0.0001352759433
0.0001364436876
0.0001378644365
0.0001394274693
0.0001410030736
0.0001424437438
0.0001435858285
0.0001442515669
0.0001388563171
0.0001396918464
0.0001408774419
0.0001423198236
0.0001439065456
0.0001455059112
0.000146968201
0.0001481273484
0.0001488029979
0.0001433265588
0.0001441746011
0.0001453778989
0.0001468417314
0.0001484519413
0.000150074864
0.0001515585855
0.0001527346456
0.0001534201181
0.0001478631645
0.000148723611
0.0001499444559
0.0001514295495
0.000153063037
0.0001547093034
0.0001562142597
0.000157407075
0.0001581022782
0.0001524655151
0.0001533382515
0.0001545764805
0.0001560826355
0.0001577391792
0.0001594085636
0.0001609345465
0.0001621439503
0.0001628487858
0.0001571329568
0.0001580178619
0.0001592733021
0.0001608003061
0.0001624796699
0.0001641719317
0.0001657187181
0.0001669445313
0.0001676588938
0.0001618647907
0.0001627617347
0.0001640342002
0.0001655818248
0.000167283754
0.0001689986325
0.0001705659806
0.0001718080085
0.0001725317828
0.0001666602605
0.000167569102
0.0001688583904
0.000170426386
0.0001721506017
0.0001738878108
0.000175475454
0.0001767334817
0.0001774665406
0.0001715185344
0.0001724391174
0.0001737450048
0.0001753330948
0.0001770792868
0.0001788385075
0.0001804461478
0.0001817199339
0.0001824621342
0.0001764386835
0.0001773708332
0.0001786930681
0.0001803009407
0.0001820687589
0.0001838496294
0.0001854769278
0.0001867661974
0.0001875173753
0.0001814196539
0.000182363171
0.0001837014662
0.000185328765
0.0001871178072
0.0001889199114
0.0001905664769
0.0001918709115
0.0001926308773
0.0001864602312
0.0001874148853
0.0001887689082
0.0001904152191
0.0001922250176
0.0001940478697
0.0001957132443
0.0001970324706
0.0001978010011
0.0001915589972
0.0001925245181
0.0001938938782
0.0001955587144
0.0001973887174
0.0001992317433
0.000200915385
0.0002022489598
0.0002030257899
0.0001967142759
0.0001976903435
0.0001990745774
0.0002007573598
0.0002026069105
0.0002044694252
0.0002061706858
0.0002075180784
0.0002083028903
0.0002019240694
0.0002029103007
0.0002043088535
0.0002060088882
0.0002078771979
0.0002097583781
0.0002114764778
0.0002128370493
0.0002136294596
0.0002071859803
0.0002081819145
0.000209594118
0.0002113105687
0.0002131966863
0.0002150955381
0.0002168295346
0.0002182025123
0.0002190020576
0.000212497122
0.0002135022025
0.0002149272496
0.0002166591055
0.0002185618808
0.0002204772021
0.0002222259552
0.000223610404
0.0002244165233
0.0002178540151
0.000218867569
0.0002203044837
0.0002220505227
0.0002239685651
0.000225898902
0.0002276610333
0.0002290558229
0.0002298678383
0.0002232524706
0.0002242736856
0.0002257212895
0.0002274800363
0.0002294116676
0.0002313552668
0.0002331291145
0.0002345328829
0.0002353499781
0.0002286874619
0.0002297153597
0.000231172235
0.0002329419154
0.0002348851188
0.0002368398747
0.0002386234449
0.0002400345595
0.0002408557566
0.0002341529866
0.0002351863958
0.0002366508452
0.000238429337
0.0002403817025
0.0002423451014
0.0002441360167
0.0002455525331
0.0002463766691
0.0002396419243
0.0002406794507
0.0002421494556
0.0002439342378
0.0002458929059
0.00024786197
0.0002496574178
0.0002510770391
0.0002519027418
0.0002451458935
0.0002461858913
0.0002476590712
0.0002494471735
0.0002514087802
0.0002533800121
0.0002551766951
0.0002565967329
0.0002574223988
0.0002506551171
0.0002516956611
0.0002531692342
0.0002549571911
0.0002569178178
0.0002588871507
0.0002606812424
0.0002620985835
0.000262922359
0.0002561583063
0.0002571971674
0.0002586679167
0.0002604517273
0.0002624068593
0.0002643696178
0.0002661567286
0.0002675678091
0.0002683875764
0.0002616425711
0.000262677198
0.0002641414468
0.0002659165467
0.0002678610448
0.0002698119197
0.0002715870775
0.00027298787
0.0002738012416
0.0002670933744
0.0002681208835
0.0002695744828
0.0002713357321
0.000273263823
0.0002751968669
0.0002769545171
0.0002783405349
0.0002791448568
0.0002724945384
0.0002735117156
0.0002749500485
0.000276691741
0.0002785970336
0.0002805056817
0.0002822397128
0.0002836060343
0.0002843984031
0.0002778283208
0.0002788316369
0.0002802496442
0.0002819655434
0.0002838410736
0.0002857181977
0.0002874219967
0.000288763314
0.0002895406081
0.0002830755702
0.000284061214
0.0002854534441
0.0002871368494
0.0002889751614
0.0002908131589
0.000292479701
0.0002937903974
0.0002945493245
0.0002882159712
0.0002891799016
0.0002905405884
0.000292184436
0.0002939777012
0.0002957686247
0.0002973905992
0.0002986648554
0.0002994020174
0.0002932283862
0.0002941664045
0.000295489574
0.0002970865736
0.0002988267494
0.0003005624755
0.00030213245
0.0003033643791
0.0003040763541
0.0002980912908
0.0002989991339