/*--------------------------------*- C++ -*----------------------------------*\
| =========                 |                                                 |
| \\      /  F ield         | OpenFOAM: The Open Source CFD Toolbox           |
|  \\    /   O peration     | Version:  2212                                  |
|   \\  /    A nd           | Website:  www.openfoam.com                      |
|    \\/     M anipulation  |                                                 |
\*---------------------------------------------------------------------------*/
FoamFile
{
    version     2.0;
    format      ascii;
    arch        "LSB;label=32;scalar=64";
    class       volScalarField;
    location    "23.25000000";
    object      AC3H5_0;
}
// * * * * * * * * * * * * * * * * * * * * * * * * * * * * * * * * * * * * * //

dimensions      [0 0 0 0 0 0 0];

internalField   nonuniform List<scalar> 
3000
(
2.378393009e-36
2.66640142e-36
3.097855531e-36
3.665463215e-36
4.35311448e-36
5.121473226e-36
5.88327804e-36
6.471600904e-36
6.656131657e-36
8.832661361e-36
9.923455634e-36
1.154646832e-35
1.366512163e-35
1.621759648e-35
1.908903185e-35
2.207059159e-35
2.479758965e-35
2.662816848e-35
1.950780735e-35
2.204559075e-35
2.584124509e-35
3.085238652e-35
3.70153276e-35
4.419045555e-35
5.20391437e-35
5.977725074e-35
6.542229329e-35
3.658833416e-35
4.171563306e-35
4.94839546e-35
5.994996733e-35
7.317846362e-35
8.908419214e-35
1.070605231e-34
1.251504621e-34
1.382021513e-34
6.395366725e-35
7.372984416e-35
8.877527224e-35
1.09467305e-34
1.362267558e-34
1.690801734e-34
2.066404161e-34
2.441181236e-34
2.704148603e-34
1.082787461e-34
1.263481401e-34
1.545774173e-34
1.940818516e-34
2.460131627e-34
3.10471935e-34
3.84204563e-34
4.567671718e-34
5.066527192e-34
1.810829902e-34
2.138577796e-34
2.657114971e-34
3.392390603e-34
4.369242542e-34
5.587403593e-34
6.9758425e-34
8.326881055e-34
9.252460224e-34
3.021039975e-34
3.607766559e-34
4.545338208e-34
5.887558975e-34
7.68264625e-34
9.924770423e-34
1.246962495e-33
1.492570849e-33
1.660810595e-33
5.052189726e-34
6.092663254e-34
7.76794013e-34
1.018257184e-33
1.342537693e-33
1.74770932e-33
2.205998839e-33
2.64597726e-33
2.947948365e-33
8.48571475e-34
1.031795243e-33
1.328485825e-33
1.758197331e-33
2.336887184e-33
3.059941325e-33
3.875840518e-33
4.656729709e-33
5.194142499e-33
1.432084824e-33
1.753078833e-33
2.275082386e-33
3.033829848e-33
4.057677579e-33
5.337073932e-33
6.778749613e-33
8.15639351e-33
9.106940324e-33
2.427657162e-33
2.98792235e-33
3.902016693e-33
5.234334764e-33
7.035084265e-33
9.286066415e-33
1.18210628e-32
1.424191473e-32
1.591469944e-32
4.131369087e-33
5.106726694e-33
6.702174672e-33
9.032788434e-33
1.218746913e-32
1.613333933e-32
2.057714864e-32
2.482032834e-32
2.775038783e-32
7.053841157e-33
8.748966784e-33
1.152768088e-32
1.559468142e-32
2.110772501e-32
2.800968164e-32
3.578646946e-32
4.321269015e-32
4.831972037e-32
1.20769544e-32
1.502026928e-32
1.985397897e-32
2.694152737e-32
3.656395689e-32
4.862536793e-32
6.222825714e-32
7.52190982e-32
8.407124229e-32
2.072636209e-32
2.58356377e-32
3.424083092e-32
4.658759242e-32
6.337965821e-32
8.446249599e-32
1.082748218e-31
1.310236841e-31
1.463038372e-31
3.564699195e-32
4.451962017e-32
5.91409907e-32
8.06615694e-32
1.099925002e-31
1.469004168e-31
1.886864282e-31
2.287130448e-31
2.556851251e-31
6.143673001e-32
7.686163808e-32
1.023284463e-31
1.398993433e-31
1.912438167e-31
2.560488126e-31
3.296706861e-31
4.004711769e-31
4.48421501e-31
1.061177453e-31
1.329860561e-31
1.774448792e-31
2.43226325e-31
3.334449816e-31
4.477956698e-31
5.78335267e-31
7.045731669e-31
7.906596607e-31
1.837570244e-31
2.30701783e-31
3.085997737e-31
4.243023467e-31
5.837619041e-31
7.87065037e-31
1.020741593e-30
1.248486872e-30
1.405259362e-30
3.19193026e-31
4.015911381e-31
5.388301841e-31
7.437424316e-31
1.028059852e-30
1.393535871e-30
1.817631583e-30
2.235418816e-30
2.526642843e-30
5.567112316e-31
7.023043744e-31
9.460387448e-31
1.312601404e-30
1.825990819e-30
2.493451453e-30
3.278087611e-30
4.062182418e-30
4.617659624e-30
9.763546913e-31
1.236096085e-30
1.674004178e-30
2.339214568e-30
3.282912616e-30
4.528744135e-30
6.018557233e-30
7.534730768e-30
8.630254009e-30
1.725564385e-30
2.195355828e-30
2.995151762e-30
4.226796759e-30
6.004344757e-30
8.398183927e-30
1.132291887e-29
1.43652281e-29
1.661337051e-29
3.083046106e-30
3.949311104e-30
5.443698179e-30
7.787035404e-30
1.124448578e-29
1.601637071e-29
2.199527937e-29
2.836750666e-29
3.318784368e-29
5.593903329e-30
7.234028658e-30
1.011275496e-29
1.4731545e-29
2.173080406e-29
3.166686613e-29
4.445965903e-29
5.843388162e-29
6.92414368e-29
1.037059958e-29
1.358573268e-29
1.935113499e-29
2.885608734e-29
4.36968508e-29
6.53960418e-29
9.408868592e-29
1.261442572e-28
1.514076971e-28
1.97981376e-29
2.63781162e-29
3.84715588e-29
5.900616948e-29
9.205753243e-29
1.41751021e-28
2.090161504e-28
2.855603203e-28
3.467648574e-28
3.926275682e-29
5.340976431e-29
8.008885795e-29
1.267204298e-28
2.038832097e-28
3.226607248e-28
4.863988197e-28
6.752348947e-28
8.277637018e-28
8.154580629e-29
1.135630524e-28
1.754177714e-28
2.863057458e-28
4.7394957e-28
7.678822658e-28
1.178156297e-27
1.655416282e-27
2.043545332e-27
1.782837281e-28
2.54304599e-28
4.041517452e-28
6.780974314e-28
1.14905857e-27
1.895053101e-27
2.943832308e-27
4.169936293e-27
5.172205412e-27
4.103382264e-28
5.982214307e-28
9.740438253e-28
1.670168121e-27
2.878185385e-27
4.802408357e-27
7.516251156e-27
1.069829358e-26
1.331380758e-26
9.888934528e-28
1.467280738e-27
2.432971117e-27
4.234380572e-27
7.372708624e-27
1.237885272e-26
1.944485763e-26
2.775291053e-26
3.463725649e-26
2.472227273e-27
3.714061276e-27
6.231531832e-27
1.093778561e-26
1.913573567e-26
3.219788133e-26
5.063775107e-26
7.241972157e-26
9.070487041e-26
6.342889101e-27
9.599456638e-27
1.620387189e-26
2.853273193e-26
4.995134534e-26
8.400854402e-26
1.321576667e-25
1.895326529e-25
2.386820393e-25
1.653333686e-26
2.509809217e-26
4.242689183e-26
7.465601286e-26
1.304393597e-25
2.19034117e-25
3.449082824e-25
4.972328616e-25
6.316907153e-25
4.342106866e-26
6.589195025e-26
1.111722701e-25
1.949943255e-25
3.39622739e-25
5.6973524e-25
9.00368187e-25
1.31079705e-24
1.688861615e-24
1.14185502e-25
1.727925789e-25
2.903302353e-25
5.069958844e-25
8.806376271e-25
1.479757986e-24
2.359491439e-24
3.49676912e-24
4.608573425e-24
2.994075789e-25
4.510872604e-25
7.539954245e-25
1.311328154e-24
2.277459224e-24
3.85590668e-24
6.266862379e-24
9.589312844e-24
1.311530653e-23
7.809384197e-25
1.17053783e-24
1.947048846e-24
3.381143282e-24
5.908938585e-24
1.020300494e-23
1.723172726e-23
2.790846604e-23
4.052010348e-23
2.024951877e-24
3.021099392e-24
5.013731838e-24
8.752357737e-24
1.560659623e-23
2.815382174e-23
5.112849723e-23
9.091218161e-23
1.438003471e-22
5.228024398e-24
7.784366675e-24
1.298089336e-23
2.313379901e-23
4.330077092e-23
8.5129391e-23
1.74056247e-22
3.505932197e-22
6.096078225e-22
1.350533927e-23
2.021414375e-23
3.443535275e-23
6.467362217e-23
1.333734519e-22
3.007664435e-22
7.120019807e-22
1.615759585e-21
3.022912234e-21
3.528948334e-23
5.398615576e-23
9.71691817e-23
2.026218208e-22
4.852782088e-22
1.281134011e-21
3.435296303e-21
8.428423332e-21
1.639578337e-20
9.534420392e-23
1.540518181e-22
3.088414883e-22
7.525847552e-22
2.118203493e-21
6.320393943e-21
1.821890195e-20
4.628098745e-20
9.117399228e-20
2.769138366e-22
4.959642685e-22
1.160878269e-21
3.320105208e-21
1.050993002e-20
3.347294421e-20
9.920616034e-20
2.537353224e-19
4.985880989e-19
9.105396027e-22
1.878019128e-21
5.123215901e-21
1.637955695e-20
5.498669897e-20
1.789786177e-19
5.311809715e-19
1.347441919e-18
2.619978832e-18
3.51127441e-21
8.26664569e-21
2.498219985e-20
8.417672276e-20
2.872772134e-19
9.3205129e-19
2.731114613e-18
6.816176073e-18
1.305844722e-17
1.563360381e-20
3.99332668e-20
1.260898505e-19
4.293938774e-19
1.453728769e-18
4.636800815e-18
1.330639393e-17
3.251351995e-17
6.120456745e-17
7.604463257e-20
1.994244633e-19
6.308270752e-19
2.117641037e-18
7.011845208e-18
2.179954043e-17
6.092448659e-17
1.451690259e-16
2.676998538e-16
3.822017478e-19
9.895368186e-19
3.055931414e-18
9.960170055e-18
3.195474277e-17
9.621905023e-17
2.606360722e-16
6.032348983e-16
1.087862332e-15
1.911681392e-18
4.772571499e-18
1.416126083e-17
4.434921136e-17
1.368527591e-16
3.968418331e-16
1.036902522e-15
2.325237932e-15
4.094794071e-15
9.308847001e-18
2.210641102e-17
6.235338017e-17
1.86100437e-16
5.486552127e-16
1.523108149e-15
3.824186704e-15
8.283339157e-15
1.421631623e-14
4.357216129e-17
9.766139229e-17
2.598084037e-16
7.336497649e-16
2.052363589e-15
5.426716194e-15
1.303001889e-14
2.714712311e-14
4.527186208e-14
1.943691524e-16
4.094095346e-16
1.021050475e-15
2.709959194e-15
7.153368204e-15
1.790846002e-14
4.087228852e-14
8.143164228e-14
1.313594962e-13
8.200855074e-16
1.620105216e-15
3.773324809e-15
9.370832178e-15
2.320616885e-14
5.464095343e-14
1.176605574e-13
2.224610725e-13
3.449299465e-13
3.248635419e-15
6.026827368e-15
1.308970258e-14
3.030008886e-14
7.000701153e-14
1.539548488e-13
3.102107101e-13
5.516287268e-13
8.157998642e-13
1.203531503e-14
2.100404623e-14
4.250954428e-14
9.144183057e-14
1.961543269e-13
4.002924566e-13
7.488664417e-13
1.24197276e-12
1.739460875e-12
4.149075849e-14
6.825494712e-14
1.287187642e-13
2.567555197e-13
5.094444e-13
9.600524413e-13
1.658864304e-12
2.554051171e-12
3.377410456e-12
1.323074298e-13
2.055999122e-13
3.614704639e-13
6.678324182e-13
1.223048703e-12
2.124206118e-12
3.388780232e-12
4.855385527e-12
6.087558222e-12
3.876447496e-13
5.702770331e-13
9.357730599e-13
1.601615245e-12
2.708136765e-12
4.344621483e-12
6.438281091e-12
8.672620471e-12
1.042097653e-11
1.036532651e-12
1.447342384e-12
2.221694449e-12
3.531091926e-12
5.534827047e-12
8.264372015e-12
1.151518463e-11
1.48012397e-11
1.72636957e-11
2.516604126e-12
3.34728731e-12
4.827709994e-12
7.16727069e-12
1.050615616e-11
1.478554919e-11
1.966577929e-11
2.446850518e-11
2.798943268e-11
5.542867171e-12
7.059981667e-12
9.638277515e-12
1.349971531e-11
1.874600058e-11
2.523416423e-11
3.248425435e-11
3.953630211e-11
4.464494259e-11
1.11419396e-11
1.368939096e-11
1.787214676e-11
2.391917032e-11
3.190885498e-11
4.162259757e-11
5.237703464e-11
6.276350678e-11
7.022263274e-11
2.072095617e-11
2.476443774e-11
3.126657754e-11
4.048575741e-11
5.249729965e-11
6.69730279e-11
8.289702925e-11
9.817620653e-11
1.090652843e-10
3.629345362e-11
4.251980202e-11
5.2417049e-11
6.630150514e-11
8.424170252e-11
1.057199391e-10
1.292027806e-10
1.51591232e-10
1.674359472e-10
6.08670939e-11
7.030509575e-11
8.519954501e-11
1.059433633e-10
1.325701374e-10
1.64254223e-10
1.986911265e-10
2.313290794e-10
2.54281525e-10
9.890106105e-11
1.130507216e-10
1.352585597e-10
1.660036423e-10
2.052360121e-10
2.5165619e-10
3.0183768e-10
3.491442998e-10
3.822230314e-10
1.568322514e-10
1.778279949e-10
2.106294101e-10
2.55803786e-10
3.131438373e-10
3.8064513e-10
4.532638171e-10
5.21398016e-10
5.6879635e-10
2.437458413e-10
2.745746511e-10
3.225460836e-10
3.883095849e-10
4.713907849e-10
5.68750336e-10
6.730404947e-10
7.704764352e-10
8.37943622e-10
3.722292196e-10
4.170101778e-10
4.864493425e-10
5.812528689e-10
7.005135812e-10
8.39697288e-10
9.8820883e-10
1.126424001e-09
1.221714917e-09
5.594196572e-10
6.237470547e-10
7.231825405e-10
8.584342759e-10
1.027917322e-09
1.224964359e-09
1.434454195e-09
1.628708806e-09
1.762084435e-09
8.28217095e-10
9.19556432e-10
1.060337966e-09
1.251165939e-09
1.489417728e-09
1.765417439e-09
2.057813814e-09
2.327975088e-09
2.51271941e-09
1.208621439e-09
1.33674856e-09
1.533691396e-09
1.799762182e-09
2.130778125e-09
2.512871502e-09
2.91623397e-09
3.287570295e-09
3.54047121e-09
1.739118161e-09
1.916570876e-09
2.188607805e-09
2.55493543e-09
3.009065473e-09
3.531367921e-09
4.080731466e-09
4.584573461e-09
4.926299e-09
2.467983002e-09
2.710480468e-09
3.081251604e-09
3.578901328e-09
4.193596521e-09
4.897905486e-09
5.635867972e-09
6.310011968e-09
6.765301901e-09
3.454328915e-09
3.781098283e-09
4.279386935e-09
4.945952817e-09
5.766207479e-09
6.70233521e-09
7.679230414e-09
8.56795089e-09
9.165541682e-09
4.768675286e-09
5.20261323e-09
5.862520823e-09
6.742240479e-09
7.820572429e-09
9.046138729e-09
1.031964003e-08
1.147318695e-08
1.2245398e-08
6.492794905e-09
7.060387306e-09
7.921137203e-09
9.064508727e-09
1.04603297e-08
1.203986918e-08
1.36738974e-08
1.514738598e-08
1.612931878e-08
8.718600789e-09
9.449530857e-09
1.055480501e-08
1.201759533e-08
1.379586038e-08
1.579914746e-08
1.786201271e-08
1.971366726e-08
2.094200637e-08
1.154588381e-08
1.247227968e-08
1.386902625e-08
1.571060967e-08
1.793969934e-08
2.043927131e-08
2.300106018e-08
2.528984698e-08
2.680129855e-08
1.507880886e-08
1.62341164e-08
1.797082031e-08
2.025185857e-08
2.300073614e-08
2.606869344e-08
2.919801116e-08
3.198077841e-08
3.381023383e-08
1.942121838e-08
2.083873092e-08
2.29632075e-08
2.574277042e-08
2.907755879e-08
3.278182879e-08
3.654210706e-08
3.987043177e-08
4.204899119e-08
2.467096352e-08
2.638209124e-08
2.893893688e-08
3.227125337e-08
3.625147521e-08
4.065182435e-08
4.509749199e-08
4.901449788e-08
5.156752386e-08
3.091365958e-08
3.294606937e-08
3.597396933e-08
3.990507516e-08
4.457987848e-08
4.972402775e-08
5.489689579e-08
5.94343407e-08
6.237972661e-08
3.821641129e-08
4.05922032e-08
4.41213424e-08
4.868593857e-08
5.40906699e-08
6.00108942e-08
6.593711483e-08
7.111303964e-08
7.445986667e-08
4.662214179e-08
4.935624289e-08
5.34060791e-08
5.862491983e-08
6.47783966e-08
7.148895938e-08
7.817687343e-08
8.399405459e-08
8.774177405e-08
5.614516034e-08
5.924410513e-08
6.382174014e-08
6.969982708e-08
7.660259751e-08
8.409828924e-08
9.153738219e-08
9.79827389e-08
1.021209539e-07
6.676850628e-08
7.022973533e-08
7.532905902e-08
8.185483334e-08
8.948860421e-08
9.774452797e-08
1.059055833e-07
1.129505646e-07
1.174593818e-07
7.844341847e-08
8.225516865e-08
8.785686277e-08
9.500247247e-08
1.033307511e-07
1.123033579e-07
1.211397599e-07
1.287415943e-07
1.335922112e-07
9.109102909e-08
9.523281848e-08
1.013052052e-07
1.090277978e-07
1.179976544e-07
1.276269009e-07
1.370769856e-07
1.45180904e-07
1.503388867e-07
1.046061103e-07
1.090497509e-07
1.155503714e-07
1.237942383e-07
1.33338943e-07
1.435512275e-07
1.535411569e-07
1.620844189e-07
1.675089087e-07
1.1886246e-07
1.235734752e-07
1.304512093e-07
1.391505376e-07
1.491927736e-07
1.599043291e-07
1.703532504e-07
1.792655783e-07
1.8491225e-07
1.337193276e-07
1.386586096e-07
1.458560778e-07
1.549380528e-07
1.653933537e-07
1.765158926e-07
1.873367144e-07
1.965445944e-07
2.023674561e-07
1.490281513e-07
1.541536793e-07
1.616093429e-07
1.709976943e-07
1.817801308e-07
1.932214559e-07
2.043258484e-07
2.137553899e-07
2.197085424e-07
1.646386631e-07
1.699078252e-07
1.77561247e-07
1.871790473e-07
1.982008201e-07
2.098699241e-07
2.211716675e-07
2.307515277e-07
2.367910825e-07
1.804088048e-07
1.857791073e-07
1.935688524e-07
2.033408537e-07
2.145177484e-07
2.263282044e-07
2.377467331e-07
2.47411818e-07
2.534992342e-07
1.962034081e-07
2.016341906e-07
2.095022458e-07
2.193576114e-07
2.306113905e-07
2.424843589e-07
2.53948578e-07
2.636459003e-07
2.697596367e-07
2.119011048e-07
2.173546666e-07
2.252476594e-07
2.351218097e-07
2.463821913e-07
2.582484501e-07
2.696984606e-07
2.793874345e-07
2.854886108e-07
2.273966162e-07
2.328390924e-07
2.407094886e-07
2.505456512e-07
2.61752047e-07
2.73553734e-07
2.849426604e-07
2.945651072e-07
3.006163897e-07
2.426025334e-07
2.480047249e-07
2.558120598e-07
2.655630148e-07
2.766667163e-07
2.883587772e-07
2.996208075e-07
3.09121786e-07
3.150905061e-07
2.574512947e-07
2.627897248e-07
2.70502008e-07
2.801327679e-07
2.910919681e-07
3.026086653e-07
3.136841688e-07
3.230164858e-07
3.288745026e-07
2.718986757e-07
2.771579418e-07
2.847517363e-07
2.942201608e-07
3.049755825e-07
3.162604163e-07
3.270988622e-07
3.362224488e-07
3.419458023e-07
2.85928999e-07
2.910835494e-07
2.985180341e-07
3.077762911e-07
3.182788714e-07
3.292845641e-07
3.398436009e-07
3.487247962e-07
3.542933097e-07
2.994871789e-07
3.045129132e-07
3.117554491e-07
3.207654532e-07
3.309752029e-07
3.416627898e-07
3.519073533e-07
3.605182182e-07
3.659151138e-07
3.125297611e-07
3.174076913e-07
3.244322725e-07
3.331635193e-07
3.430480718e-07
3.533858114e-07
3.632872551e-07
3.716049359e-07
3.768164786e-07
3.250265039e-07
3.297416257e-07
3.365275696e-07
3.449557034e-07
3.54489113e-07
3.644515142e-07
3.739868346e-07
3.819929963e-07
3.870081749e-07
3.369572533e-07
3.414977549e-07
3.480287472e-07
3.561345508e-07
3.652963649e-07
3.748633849e-07
3.840145624e-07
3.916948966e-07
3.965051414e-07
3.483095403e-07
3.526662605e-07
3.589296725e-07
3.666983283e-07
3.75472869e-07
3.846292607e-07
3.933827032e-07
4.00726502e-07
4.053254363e-07
3.590768368e-07
3.632428813e-07
3.692292668e-07
3.76649794e-07
3.850255873e-07
3.937603596e-07
4.021064275e-07
4.091062107e-07
4.134894293e-07
3.6925731e-07
3.732277631e-07
3.789304701e-07
3.859952767e-07
3.939645817e-07
4.022705399e-07
4.102031311e-07
4.168543141e-07
4.210191829e-07
3.788529289e-07
3.826246251e-07
3.880394795e-07
3.94743988e-07
4.02302394e-07
4.101757362e-07
4.176919149e-07
4.239925066e-07
4.279379788e-07
3.878688149e-07
3.91440146e-07
3.965651818e-07
4.029075036e-07
4.100535718e-07
4.174935254e-07
4.245931817e-07
4.305435056e-07
4.342699502e-07
3.963127542e-07
3.996835002e-07
4.045187191e-07
4.104993607e-07
4.172342982e-07
4.242427843e-07
4.309283183e-07
4.365307507e-07
4.400397917e-07
4.041948172e-07
4.073659921e-07
4.119131435e-07
4.17534736e-07
4.23862092e-07
4.304434117e-07
4.367194363e-07
4.419781601e-07
4.452725239e-07
4.115270465e-07
4.145007549e-07
4.187631305e-07
4.240301755e-07
4.299555564e-07
4.361160942e-07
4.419891542e-07
4.469099258e-07
4.499932979e-07
4.183231868e-07
4.211024891e-07
4.25084729e-07
4.300033592e-07
4.355341585e-07
4.41282103e-07
4.4676041e-07
4.513503391e-07
4.542272278e-07
4.24598443e-07
4.271872273e-07
4.308951368e-07
4.35472889e-07
4.406180329e-07
4.459631126e-07
4.510562945e-07
4.553236374e-07
4.579992468e-07
4.303692538e-07
4.327721156e-07
4.362124919e-07
4.404580933e-07
4.452278002e-07
4.501810355e-07
4.54899903e-07
4.588538686e-07
4.613339794e-07
4.356530792e-07
4.37875207e-07
4.410556763e-07
4.44978844e-07
4.493844007e-07
4.539578723e-07
4.583142006e-07
4.619647711e-07
4.642556305e-07
4.404681973e-07
4.425152664e-07
4.454441318e-07
4.490553857e-07
4.531089386e-07
4.573155739e-07
4.613219017e-07
4.646796676e-07
4.667878882e-07
4.448335112e-07
4.467115849e-07
4.493976859e-07
4.527081763e-07
4.564225401e-07
4.602759165e-07
4.639453623e-07
4.670213716e-07
4.689538395e-07
4.487683677e-07
4.504838066e-07
4.529363896e-07
4.559577399e-07
4.593462223e-07
4.628603892e-07
4.662064852e-07
4.690121073e-07
4.70775899e-07
4.522923873e-07
4.538517665e-07
4.56080368e-07
4.588245317e-07
4.619007764e-07
4.650900944e-07
4.681266372e-07
4.706734415e-07
4.722757503e-07
4.554253079e-07
4.56835343e-07
4.588496841e-07
4.613288168e-07
4.641066626e-07
4.669856613e-07
4.697265797e-07
4.720262281e-07
4.73474298e-07
4.581868427e-07
4.594543231e-07
4.612642163e-07
4.634905629e-07
4.65983919e-07
4.685671714e-07
4.710264104e-07
4.730905628e-07
4.743916319e-07
4.60596553e-07
4.61728284e-07
4.633435505e-07
4.653293456e-07
4.675520836e-07
4.698540966e-07
4.720455167e-07
4.738857497e-07
4.750470008e-07
4.626737359e-07
4.636764877e-07
4.651068863e-07
4.668642684e-07
4.688301286e-07
4.708652494e-07
4.728025404e-07
4.744302778e-07
4.754587957e-07
4.644373271e-07
4.653177911e-07
4.665729574e-07
4.681138955e-07
4.69836407e-07
4.716187434e-07
4.733153516e-07
4.747418055e-07
4.756445421e-07
4.659058182e-07
4.666705704e-07
4.677599644e-07
4.690961964e-07
4.705886108e-07
4.721319647e-07
4.736010322e-07
4.748371544e-07
4.75620899e-07
4.670971878e-07
4.677526578e-07
4.686855213e-07
4.698285028e-07
4.711037388e-07
4.72421552e-07
4.736758675e-07
4.747323101e-07
4.754036654e-07
4.680288457e-07
4.685812912e-07
4.693666131e-07
4.703274758e-07
4.71398075e-07
4.725033854e-07
4.73555345e-07
4.744424287e-07
4.750077922e-07
4.687175886e-07
4.691730757e-07
4.698195637e-07
4.706090827e-07
4.714871751e-07
4.723925827e-07
4.73254159e-07
4.739818493e-07
4.744473985e-07
4.691795671e-07
4.695439545e-07
4.700600136e-07
4.706885825e-07
4.713858598e-07
4.721035016e-07
4.727862215e-07
4.733641105e-07
4.737357923e-07
4.694302623e-07
4.697091894e-07
4.701029066e-07
4.705805191e-07
4.711082159e-07
4.716497476e-07
4.721646767e-07
4.726019714e-07
4.728854949e-07
4.694844709e-07
4.696833501e-07
4.699624827e-07
4.702987204e-07
4.706676021e-07
4.710441871e-07
4.714019198e-07
4.717074346e-07
4.719082667e-07
4.69356298e-07
4.694803093e-07
4.69652279e-07
4.698563042e-07
4.700766599e-07
4.702989634e-07
4.705096189e-07
4.706917724e-07
4.708151359e-07
4.690591565e-07
4.691132451e-07
4.691851347e-07
4.692656877e-07
4.693473285e-07
4.694255166e-07
4.694987387e-07
4.695655542e-07
4.696164284e-07
4.686057715e-07
4.68594648e-07
4.685732017e-07
4.685386019e-07
4.68490863e-07
4.684346058e-07
4.683795663e-07
4.683386755e-07
4.683217979e-07
4.680081907e-07
4.679363321e-07
4.678279584e-07
4.676861085e-07
4.675178548e-07
4.67336333e-07
4.67161739e-07
4.670203872e-07
4.669402577e-07
4.672777972e-07
4.671494507e-07
4.669602274e-07
4.667186202e-07
4.664382545e-07
4.661401688e-07
4.658542716e-07
4.656193264e-07
4.654802118e-07
4.664253263e-07
4.662445136e-07
4.659801948e-07
4.656459223e-07
4.65261396e-07
4.648549785e-07
4.644655851e-07
4.641435455e-07
4.639494856e-07
4.654608849e-07
4.65231408e-07
4.648974323e-07
4.644771961e-07
4.639960218e-07
4.634890495e-07
4.630035356e-07
4.626005432e-07
4.623553573e-07
4.643939724e-07
4.641194198e-07
4.637209198e-07
4.632210435e-07
4.626503089e-07
4.620501183e-07
4.614754427e-07
4.609972933e-07
4.607045875e-07
4.632335034e-07
4.629172576e-07
4.624590703e-07
4.618855122e-07
4.612318949e-07
4.605453983e-07
4.598881176e-07
4.59340274e-07
4.590034492e-07
4.619878316e-07
4.616330763e-07
4.611197538e-07
4.604781211e-07
4.597479045e-07
4.589816059e-07
4.58247891e-07
4.57635496e-07
4.572577556e-07
4.606647738e-07
4.602745018e-07
4.597103232e-07
4.590058859e-07
4.582049755e-07
4.573649881e-07
4.565606398e-07
4.558885299e-07
4.554728881e-07
4.592716347e-07
4.588486562e-07
4.58237639e-07
4.574753448e-07
4.566092847e-07
4.557013479e-07
4.548318136e-07
4.541045323e-07
4.536538227e-07
4.578152319e-07
4.573621824e-07
4.567080946e-07
4.558925833e-07
4.549665729e-07
4.539960699e-07
4.5306646e-07
4.522882715e-07
4.51805155e-07
4.5630192e-07
4.558212691e-07
4.551276405e-07
4.542632591e-07
4.532821696e-07
4.522541444e-07
4.512692489e-07
4.504441518e-07
4.499311252e-07
4.547376154e-07
4.542316743e-07
4.535018089e-07
4.525926261e-07
4.515610169e-07
4.504801916e-07
4.494444958e-07
4.485762362e-07
4.480356404e-07
4.531278199e-07
4.525987499e-07
4.518357371e-07
4.508855573e-07
4.498076925e-07
4.486784838e-07
4.475961844e-07
4.466882691e-07
4.461222969e-07
4.514776438e-07
4.509274642e-07
4.501341903e-07
4.49146568e-07
4.480264316e-07
4.468529673e-07
4.457279878e-07
4.447836971e-07
4.44194401e-07
4.497918288e-07
4.492224242e-07
4.484015835e-07
4.473798368e-07
4.462211484e-07
4.450072831e-07
4.438432889e-07
4.428656887e-07
4.422549888e-07
4.480747691e-07
4.474878974e-07
4.466420027e-07
4.455892266e-07
4.443954563e-07
4.431447869e-07
4.419451993e-07
4.409371534e-07
4.403068444e-07
4.463305331e-07
4.457278324e-07
4.448592255e-07
4.437783046e-07
4.425526871e-07
4.412685674e-07
4.400365782e-07
4.390007596e-07
4.383525179e-07
4.445628829e-07
4.439458786e-07
4.430567402e-07
4.41950361e-07
4.406959094e-07
4.393814644e-07
4.381200489e-07
4.370589509e-07
4.363943417e-07
4.427752936e-07
4.42145405e-07
4.412377644e-07
4.401084271e-07
4.388279461e-07
4.374860856e-07
4.361980155e-07
4.351139624e-07
4.344344459e-07
4.409709718e-07
4.403295186e-07
4.394052627e-07
4.382552924e-07
4.369513909e-07
4.355848226e-07
4.342726783e-07
4.331678353e-07
4.324747731e-07
4.391528728e-07
4.385010811e-07
4.375619633e-07
4.363935207e-07
4.350686238e-07
4.336798656e-07
4.323460478e-07
4.312224309e-07
4.305170918e-07
4.373237173e-07
4.366627255e-07
4.357103736e-07
4.345254655e-07
4.331818261e-07
4.317732178e-07
4.304199588e-07
4.292794439e-07
4.285630095e-07
4.354860069e-07
4.34816871e-07
4.338527957e-07
4.326532844e-07
4.312929938e-07
4.298667084e-07
4.284960826e-07
4.273404141e-07
4.266139846e-07
4.336420387e-07
4.32965738e-07
4.3199134e-07
4.307789527e-07
4.29403951e-07
4.279620054e-07
4.265759392e-07
4.254067387e-07
4.246713375e-07
4.317939198e-07
4.311113614e-07
4.301279386e-07
4.289042761e-07
4.275163621e-07
4.260606272e-07
4.246609087e-07
4.234796823e-07
4.227362611e-07
4.299435796e-07
4.292556034e-07
4.282643576e-07
4.270309026e-07
4.256317431e-07
4.241639531e-07
4.22752241e-07
4.215603872e-07
4.208098306e-07
4.280927822e-07
4.274001655e-07
4.264022088e-07
4.251603338e-07
4.237514721e-07
4.222732338e-07
4.208510661e-07
4.196498827e-07
4.188930125e-07
4.262431378e-07
4.25546599e-07
4.245429601e-07
4.232939347e-07
4.218767991e-07
4.203896006e-07
4.189584024e-07
4.177490933e-07
4.169866729e-07
4.243961126e-07
4.236963158e-07
4.226879452e-07
4.214329433e-07
4.200088551e-07
4.185140735e-07
4.170751652e-07
4.158588468e-07
4.150915848e-07
4.22553038e-07
4.218505963e-07
4.208383721e-07
4.195784784e-07
4.181486592e-07
4.166475688e-07
4.152021733e-07
4.139798807e-07
4.132084351e-07
4.207151176e-07
4.200105968e-07
4.189953298e-07
4.177315462e-07
4.162971251e-07
4.147909049e-07
4.133401544e-07
4.121128475e-07
4.113378293e-07
4.188834327e-07
4.18177355e-07
4.171597932e-07
4.158930448e-07
4.144550652e-07
4.129448056e-07
4.114897491e-07
4.102583183e-07
4.094802952e-07
4.170589451e-07
4.163517916e-07
4.15332625e-07
4.140637657e-07
4.126231916e-07
4.111099017e-07
4.096515112e-07
4.084167832e-07
4.076362836e-07
4.152424955e-07
4.145347093e-07
4.135145737e-07
4.122443913e-07
4.108021135e-07
4.092867271e-07
4.078259044e-07
4.065886481e-07
4.058061644e-07
4.134347966e-07
4.127267851e-07
4.117062657e-07
4.104354863e-07
4.089923274e-07
4.074757093e-07
4.060132918e-07
4.047742237e-07
4.039902167e-07
4.116364186e-07
4.109285551e-07
4.099081889e-07
4.086374802e-07
4.07194199e-07
4.056771497e-07
4.042139161e-07
4.029737056e-07
4.021886079e-07
4.09847763e-07
4.091403874e-07
4.081206644e-07
4.068506375e-07
4.054079311e-07
4.038911901e-07
4.024278643e-07
4.011871385e-07
4.004013582e-07
4.080690218e-07
4.073624397e-07
4.063438015e-07
4.050750096e-07
4.036335132e-07
4.021177593e-07
4.006550124e-07
3.994143584e-07
3.986282824e-07
4.063001149e-07
4.055945941e-07
4.045774295e-07
4.033103629e-07
4.018706442e-07
4.003564916e-07
3.988949387e-07
3.976549038e-07
3.968688988e-07
4.045406004e-07
4.038363641e-07
4.028209992e-07
4.015560733e-07
4.001186201e-07
3.986066058e-07
3.971467973e-07
3.959078832e-07
3.951222938e-07
4.027895476e-07
4.020867622e-07
4.010734431e-07
3.998109767e-07
3.983761734e-07
3.968667346e-07
3.954091356e-07
3.941717839e-07
3.933869263e-07
4.010453636e-07
4.003441192e-07
3.993329836e-07
3.980731649e-07
3.966412532e-07
3.951346871e-07
3.93679641e-07
3.924442054e-07
3.916603524e-07
3.993055612e-07
3.986058427e-07
3.975968777e-07
3.963397098e-07
3.949107281e-07
3.934071285e-07
3.919547979e-07
3.90721497e-07
3.899388512e-07
3.975664574e-07
3.968681012e-07
3.958610811e-07
3.946063044e-07
3.931799977e-07
3.916791602e-07
3.902294363e-07
3.889982795e-07
3.882169295e-07
3.95822787e-07
3.951254228e-07
3.941198221e-07
3.928668038e-07
3.91442496e-07
3.899437823e-07
3.884961534e-07
3.872668307e-07
3.864866835e-07
3.940672231e-07
3.933701932e-07
3.923650698e-07
3.911126544e-07
3.896890742e-07
3.881912243e-07
3.867445923e-07
3.855163186e-07
3.847370035e-07
3.92289793e-07
3.915920483e-07
3.90585889e-07
3.89332201e-07
3.879072513e-07
3.864081347e-07
3.849605692e-07
3.83731873e-07
3.829526077e-07
3.904771855e-07
3.89777152e-07
3.887676769e-07
3.875098699e-07
3.860803332e-07
3.845766282e-07
3.831250481e-07
3.818934958e-07
3.811129098e-07
3.886119503e-07
3.879073659e-07
3.86891286e-07
3.856252321e-07
3.841864052e-07
3.826732012e-07
3.81212977e-07
3.799748251e-07
3.791907353e-07
3.866716017e-07
3.859593195e-07
3.849320478e-07
3.836519658e-07
3.82197222e-07
3.80667541e-07
3.791920153e-07
3.779417891e-07
3.771509249e-07
3.846276468e-07
3.83903408e-07
3.828587246e-07
3.815567504e-07
3.800770337e-07
3.785212766e-07
3.770212074e-07
3.757512098e-07
3.749488903e-07
3.824445763e-07
3.817027576e-07
3.806324369e-07
3.792981453e-07
3.77781408e-07
3.761867399e-07
3.746496813e-07
3.733494444e-07
3.725292159e-07
3.800788733e-07
3.793122161e-07
3.782056298e-07
3.768255276e-07
3.752561348e-07
3.736058349e-07
3.720154831e-07
3.706711869e-07
3.698244369e-07
3.774781123e-07
3.766774505e-07
3.755211683e-07
3.740781864e-07
3.724363243e-07
3.707091419e-07
3.690446887e-07
3.676385869e-07
3.667541594e-07
3.745802473e-07
3.737342523e-07
3.725116726e-07
3.709846999e-07
3.692458371e-07
3.67415413e-07
3.656509677e-07
3.641608739e-07
3.63224724e-07
3.713132032e-07
3.704081762e-07
3.690992277e-07
3.674627429e-07
3.655972137e-07
3.636316404e-07
3.617357993e-07
3.601347075e-07
3.591296426e-07
3.675949108e-07
3.666146543e-07
3.65195621e-07
3.634194896e-07
3.613922829e-07
3.592539005e-07
3.571895606e-07
3.554454866e-07
3.54351056e-07
3.633339342e-07
3.622597462e-07
3.60703277e-07
3.58752794e-07
3.565236422e-07
3.541691766e-07
3.518937072e-07
3.499698536e-07
3.487624525e-07
3.584308501e-07
3.572416837e-07
3.555170531e-07
3.533533186e-07
3.508771923e-07
3.482583522e-07
3.457242409e-07
3.43579594e-07
3.422328566e-07
3.527805242e-07
3.514533605e-07
3.495270495e-07
3.471077638e-07
3.443358741e-07
3.414005182e-07
3.385566074e-07
3.361470661e-07
3.346326168e-07
3.462754089e-07
3.447858844e-07
3.426225403e-07
3.399032955e-07
3.367846919e-07
3.334786608e-07
3.302720644e-07
3.275521833e-07
3.258407988e-07
3.388099278e-07
3.371332474e-07
3.346970695e-07
3.316331898e-07
3.281170083e-07
3.243866744e-07
3.207654245e-07
3.176908093e-07
3.157540169e-07
3.302859391e-07
3.283980884e-07
3.25654651e-07
3.222035924e-07
3.182419586e-07
3.14037486e-07
3.099538895e-07
3.064842185e-07
3.042963108e-07
3.206191577e-07
3.184983991e-07
3.154168863e-07
3.115411498e-07
3.070926665e-07