/*--------------------------------*- C++ -*----------------------------------*\
| =========                 |                                                 |
| \\      /  F ield         | OpenFOAM: The Open Source CFD Toolbox           |
|  \\    /   O peration     | Version:  2212                                  |
|   \\  /    A nd           | Website:  www.openfoam.com                      |
|    \\/     M anipulation  |                                                 |
\*---------------------------------------------------------------------------*/
FoamFile
{
    version     2.0;
    format      ascii;
    arch        "LSB;label=32;scalar=64";
    class       volScalarField;
    location    "23.25000000";
    object      C2H5_0;
}
// * * * * * * * * * * * * * * * * * * * * * * * * * * * * * * * * * * * * * //

dimensions      [0 0 0 0 0 0 0];

internalField   nonuniform List<scalar> 
3000
(
4.862827578e-28
5.462793218e-28
6.368127899e-28
7.574542205e-28
9.06972817e-28
1.081302018e-27
1.269934402e-27
1.449907357e-27
1.577194136e-27
1.825714777e-27
2.059248121e-27
2.411495498e-27
2.881938116e-27
3.470094816e-27
4.172653499e-27
4.977418158e-27
5.843473591e-27
6.610993161e-27
4.089321558e-27
4.648551427e-27
5.500122202e-27
6.656366554e-27
8.138084719e-27
9.966703784e-27
1.213514712e-26
1.452137402e-26
1.656186501e-26
7.789043599e-27
8.946986728e-27
1.073609389e-26
1.32168982e-26
1.6477289e-26
2.060004144e-26
2.556280799e-26
3.09676265e-26
3.533102158e-26
1.383099856e-26
1.608207423e-26
1.961491472e-26
2.460896044e-26
3.129913872e-26
3.987287167e-26
5.018725863e-26
6.114024684e-26
6.954874157e-26
2.378324781e-26
2.800819466e-26
3.473387803e-26
4.438943914e-26
5.748993618e-26
7.436473528e-26
9.451013398e-26
1.15385038e-25
1.308292465e-25
4.037487068e-26
4.813549139e-26
6.063359912e-26
7.877882404e-26
1.035815769e-25
1.355345966e-25
1.733164908e-25
2.117029046e-25
2.394008662e-25
6.832702117e-26
8.237167557e-26
1.051911669e-25
1.385778989e-25
1.843939238e-25
2.432983953e-25
3.123360862e-25
3.814576326e-25
4.305007833e-25
1.158192511e-25
1.409677714e-25
1.820930789e-25
2.425678164e-25
3.257041019e-25
4.323002535e-25
5.563341114e-25
6.792264359e-25
7.654577869e-25
1.970152413e-25
2.416923658e-25
3.150875159e-25
4.233645411e-25
5.723077569e-25
7.627800727e-25
9.83182518e-25
1.199954459e-24
1.350928271e-24
3.364559412e-25
4.153597195e-25
5.453947189e-25
7.376199051e-25
1.00205e-24
1.33945268e-24
1.728261965e-24
2.108703308e-24
2.372334578e-24
5.766729473e-25
7.154085367e-25
9.445500347e-25
1.283710329e-24
1.750173356e-24
2.34429786e-24
3.026874031e-24
3.692347715e-24
4.151893428e-24
9.914041536e-25
1.234536698e-24
1.636713524e-24
2.232464561e-24
3.051603416e-24
4.093485137e-24
5.2878484e-24
6.449307406e-24
7.249405992e-24
1.708525086e-24
2.133567503e-24
2.837390049e-24
3.880504388e-24
5.314368324e-24
7.136229705e-24
9.221379986e-24
1.124536031e-23
1.263719405e-23
2.949848564e-24
3.691559226e-24
4.920652627e-24
6.742854165e-24
9.247060502e-24
1.242639251e-23
1.606091331e-23
1.958409153e-23
2.200380698e-23
5.100199591e-24
6.392780238e-24
8.535830734e-24
1.171370133e-23
1.608009507e-23
2.162034059e-23
2.794824659e-23
3.407624149e-23
3.828118979e-23
8.827295045e-24
1.107766579e-23
1.481004227e-23
2.034540553e-23
2.794965747e-23
3.759369921e-23
4.860144237e-23
5.925344593e-23
6.655770636e-23
1.52897808e-23
1.920479762e-23
2.569967982e-23
3.533267012e-23
4.856386776e-23
6.533771469e-23
8.447300821e-23
1.029786517e-22
1.156610154e-22
2.649818786e-23
3.330546907e-23
4.46002588e-23
6.135249513e-23
8.435819435e-23
1.135134773e-22
1.467575112e-22
1.788907252e-22
2.009014071e-22
4.594103127e-23
5.777216856e-23
7.740418167e-23
1.065207609e-22
1.464983542e-22
1.971446997e-22
2.548677231e-22
3.106343359e-22
3.488154522e-22
7.967025376e-23
1.002254848e-22
1.343341668e-22
1.849161612e-22
2.543494285e-22
3.422792729e-22
4.424479874e-22
5.391720186e-22
6.053626251e-22
1.381816884e-22
1.738818671e-22
2.331181843e-22
3.209487752e-22
4.41476448e-22
5.940464968e-22
7.677603029e-22
9.354033438e-22
1.050062196e-21
2.396708119e-22
3.016528097e-22
4.044847333e-22
5.56917515e-22
7.660165046e-22
1.030567031e-21
1.331590934e-21
1.621896785e-21
1.820319857e-21
4.156622403e-22
5.232309812e-22
7.016576548e-22
9.660578749e-22
1.328567658e-21
1.786915508e-21
2.30805497e-21
2.810221488e-21
3.153173595e-21
7.207295987e-22
9.073208321e-22
1.216733455e-21
1.675025455e-21
2.302974433e-21
3.096293578e-21
3.99743431e-21
4.864872393e-21
5.456689188e-21
1.249248709e-21
1.572709596e-21
2.108873274e-21
2.902551863e-21
3.989170021e-21
5.360558122e-21
6.916488225e-21
8.412307929e-21
9.431564243e-21
2.164210323e-21
2.72448173e-21
3.652702357e-21
5.025703903e-21
6.90356881e-21
9.270581255e-21
1.195217501e-20
1.452608937e-20
1.62772421e-20
3.746647298e-21
4.716087626e-21
6.321144974e-21
8.693062728e-21
1.193308604e-20
1.601073796e-20
2.06220137e-20
2.503955149e-20
2.803930295e-20
6.480171521e-21
8.155374629e-21
1.092667314e-20
1.501724736e-20
2.059635081e-20
2.7604524e-20
3.551255182e-20
4.307060663e-20
4.81911975e-20
1.119506594e-20
1.40850344e-20
1.886114068e-20
2.590084439e-20
3.548434605e-20
4.749523721e-20
6.101298028e-20
7.389648341e-20
8.260136532e-20
1.93129371e-20
2.428837493e-20
3.250104071e-20
4.458518225e-20
6.099920654e-20
8.151505619e-20
1.045336478e-19
1.264004857e-19
1.411282243e-19
3.32603153e-20
4.1804964e-20
5.58885672e-20
7.656867403e-20
1.045845156e-19
1.394902751e-19
1.785137945e-19
2.154447001e-19
2.40227929e-19
5.716454031e-20
7.179555946e-20
9.586929689e-20
1.311332423e-19
1.787587839e-19
2.378787214e-19
3.037010657e-19
3.657261942e-19
4.071787748e-19
9.801850424e-20
1.229844715e-19
1.639801336e-19
2.238628141e-19
3.044492911e-19
4.040653133e-19
5.144591869e-19
6.179847954e-19
6.868587326e-19
1.676191649e-19
2.100496821e-19
2.795600381e-19
3.807658462e-19
5.164107542e-19
6.832939146e-19
8.672757055e-19
1.038898573e-18
1.152512009e-18
2.857743319e-19
3.575567097e-19
4.748366961e-19
6.449670443e-19
8.719529739e-19
1.149746771e-18
1.454265088e-18
1.7367009e-18
1.922682587e-18
4.855731882e-19
6.063868379e-19
8.03177849e-19
1.087474553e-18
1.464866921e-18
1.924080947e-18
2.424387972e-18
2.885583127e-18
3.187585192e-18
8.219891735e-19
1.024161975e-18
1.352364868e-18
1.824348898e-18
2.447434803e-18
3.200914121e-18
4.016468937e-18
4.763455114e-18
5.249779816e-18
1.385820254e-18
1.722017666e-18
2.265762535e-18
3.043829911e-18
4.064886533e-18
5.291490103e-18
6.61008247e-18
7.80982823e-18
8.58633086e-18
2.32610568e-18
2.881369626e-18
3.775787835e-18
5.048805099e-18
6.708836035e-18
8.689288519e-18
1.080325827e-17
1.271375319e-17
1.394297121e-17
3.885886114e-18
4.796270075e-18
6.256358271e-18
8.322694309e-18
1.099939827e-17
1.417001439e-17
1.75301114e-17
2.054629867e-17
2.247558468e-17
6.458777885e-18
7.939862278e-18
1.030436301e-17
1.363075879e-17
1.791027915e-17
2.294269273e-17
2.823746351e-17
3.295857304e-17
3.596117041e-17
1.067771449e-17
1.306774695e-17
1.686512434e-17
2.217455201e-17
2.8957748e-17
3.687617774e-17
4.514803781e-17
5.247558021e-17
5.71102057e-17
1.755293814e-17
2.137738222e-17
2.742397324e-17
3.582546637e-17
4.648389348e-17
5.883621608e-17
7.164993143e-17
8.292939242e-17
9.002615983e-17
2.868470021e-17
3.475180564e-17
4.429639457e-17
5.747514939e-17
7.407811621e-17
9.318360787e-17
1.128692619e-16
1.300937994e-16
1.408774816e-16
4.658826951e-17
5.612919245e-17
7.106402449e-17
9.155744334e-17
1.172000858e-16
1.465058451e-16
1.765071936e-16
2.02608954e-16
2.188749873e-16
7.51863135e-17
9.00587228e-17
1.132249504e-16
1.448205031e-16
1.840947003e-16
2.286854611e-16
2.740568341e-16
3.133216625e-16
3.376864121e-16
1.205486883e-16
1.435302675e-16
1.791568536e-16
2.274617541e-16
2.87128166e-16
3.544518154e-16
4.225637428e-16
4.812192548e-16
5.174744344e-16
1.919951738e-16
2.272037688e-16
2.815341242e-16
3.547863247e-16
4.447285617e-16
5.456240182e-16
6.471613587e-16
7.342079638e-16
7.878213295e-16
3.037268999e-16
3.572184466e-16
4.3940023e-16
5.496171604e-16
6.841904052e-16
8.343381666e-16
9.847074529e-16
1.113089598e-15
1.191910909e-15
4.772226966e-16
5.578383351e-16
6.811814967e-16
8.457800321e-16
1.045709018e-15
1.267670449e-15
1.488979188e-15
1.677233572e-15
1.792489549e-15
7.447342862e-16
8.652924883e-16
1.049031151e-15
1.293097944e-15
1.588143207e-15
1.914231615e-15
2.238075445e-15
2.512652062e-15
2.680343324e-15
1.154286496e-15
1.333252247e-15
1.605032284e-15
1.96452956e-15
2.397242715e-15
2.873555147e-15
3.344926374e-15
3.743444064e-15
3.986310071e-15
1.776914922e-15
2.040740114e-15
2.440088394e-15
2.966321486e-15
3.597283983e-15
4.289338633e-15
4.972109758e-15
5.547937249e-15
5.898230601e-15
2.716955027e-15
3.103333438e-15
3.68648659e-15
4.452324828e-15
5.3674495e-15
6.368058335e-15
7.35266013e-15
8.18135577e-15
8.684757534e-15
4.126588408e-15
4.688961863e-15
5.535551751e-15
6.644044461e-15
7.964700228e-15
9.404905656e-15
1.081902381e-14
1.200734109e-14
1.272846034e-14
6.226260453e-15
7.040015731e-15
8.262261364e-15
9.858484508e-15
1.175541904e-14
1.381953995e-14
1.584284022e-14
1.754113109e-14
1.857108156e-14
9.333140978e-15
1.050406499e-14
1.225930123e-14
1.454647924e-14
1.725872557e-14
2.0204724e-14
2.308868319e-14
2.550747068e-14
2.697388797e-14
1.390056588e-14
1.557627126e-14
1.808383709e-14
2.134498938e-14
2.520509786e-14
2.939150469e-14
3.348525377e-14
3.691639136e-14
3.899590655e-14
2.057242575e-14
2.295761521e-14
2.652131328e-14
3.11478281e-14
3.661478964e-14
4.253523091e-14
4.831788454e-14
5.316020973e-14
5.60930707e-14
3.02578258e-14
3.363440102e-14
3.867186683e-14
4.520042034e-14
5.290144685e-14
6.12273736e-14
6.934681111e-14
7.613592478e-14
8.0242488e-14
4.423296344e-14
4.898603718e-14
5.606632337e-14
6.522534289e-14
7.600724254e-14
8.763899744e-14
9.895686759e-14
1.083988452e-13
1.140978643e-13
6.427874104e-14
7.09295083e-14
8.081995278e-14
9.358646761e-14
1.085770697e-13
1.247035314e-13
1.403467903e-13
1.533560861e-13
1.611847508e-13
9.286363601e-14
1.021098875e-13
1.158331776e-13
1.335010122e-13
1.541818128e-13
1.763501996e-13
1.977708524e-13
2.15513488e-13
2.261495747e-13
1.333817434e-13
1.46147029e-13
1.650500734e-13
1.893118446e-13
2.176053654e-13
2.478053498e-13
2.768523724e-13
3.007976492e-13
3.150858091e-13
1.90456984e-13
2.079506869e-13
2.337891045e-13
2.668375859e-13
3.05216505e-13
3.459865376e-13
3.849981691e-13
4.169865511e-13
4.359738298e-13
2.703277864e-13
2.941206011e-13
3.291658932e-13
3.738243139e-13
4.254541896e-13
4.800239053e-13
5.31955523e-13
5.742968739e-13
5.992866507e-13
3.813310016e-13
4.134529155e-13
4.606332228e-13
5.205293587e-13
5.894639941e-13
6.619555777e-13
7.305677182e-13
7.861918421e-13
8.188298048e-13
5.345075002e-13
5.775787681e-13
6.406696429e-13
7.204765796e-13
8.119353372e-13
9.076579355e-13
9.977993861e-13
1.070488579e-12
1.112898409e-12
7.443575899e-13
8.017684406e-13
8.856582266e-13
9.91435382e-13
1.112203893e-12
1.2380871e-12
1.356117951e-12
1.450858063e-12
1.505847512e-12
1.029786834e-12
1.105948562e-12
1.217012913e-12
1.356692866e-12
1.515701098e-12
1.680924887e-12
1.83533332e-12
1.958825184e-12
2.030185156e-12
1.415303448e-12
1.516001002e-12
1.662631335e-12
1.846709702e-12
2.055852951e-12
2.272741713e-12
2.475015944e-12
2.636393523e-12
2.729314371e-12
1.932555993e-12
2.065438977e-12
2.25877861e-12
2.501274239e-12
2.776552621e-12
3.061809768e-12
3.327633612e-12
3.539440098e-12
3.661071563e-12
2.622330547e-12
2.797584331e-12
3.05253253e-12
3.372292402e-12
3.735351509e-12
4.11171805e-12
4.462565221e-12
4.742043891e-12
4.902228397e-12
3.537153253e-12
3.768393587e-12
4.104939565e-12
4.527364746e-12
5.007522435e-12
5.505946004e-12
5.971152194e-12
6.341913098e-12
6.554125032e-12
4.744656302e-12
5.050087379e-12
5.495031302e-12
6.054293998e-12
6.691131486e-12
7.353525911e-12
7.972912639e-12
8.467032882e-12
8.749555133e-12
6.331849713e-12
6.735715241e-12
7.324817755e-12
8.066619454e-12
8.913191119e-12
9.795840685e-12
1.062293931e-11
1.128353358e-11
1.166089057e-11
8.410384331e-12
8.944720457e-12
9.725290741e-12
1.071016915e-11
1.183683324e-11
1.301443634e-11
1.412030007e-11
1.500454641e-11
1.550918285e-11
1.112277991e-11
1.182944363e-11
1.286332141e-11
1.417043948e-11
1.56692187e-11
1.723945873e-11
1.871694148e-11
1.989945508e-11
2.057359603e-11
1.464941539e-11
1.558230795e-11
1.694911087e-11
1.868034673e-11
2.066958559e-11
2.275795608e-11
2.472617561e-11
2.630248856e-11
2.720003901e-11
1.921583235e-11
2.044316249e-11
2.224355559e-11
2.452755862e-11
2.715645746e-11
2.992086249e-11
3.252936426e-11
3.461910559e-11
3.580735549e-11
2.509959912e-11
2.670594027e-11
2.90645481e-11
3.206024945e-11
3.551264831e-11
3.914708046e-11
4.257901402e-11
4.532822402e-11
4.688903694e-11
3.26356583e-11
3.47234617e-11
3.779091002e-11
4.168981166e-11
4.618641724e-11
5.092283987e-11
5.539630871e-11
5.897821346e-11
6.100832216e-11
4.221880598e-11
4.490896205e-11
4.886244432e-11
5.388891161e-11
5.968707243e-11
6.579457128e-11
7.156128926e-11
7.617486029e-11
7.878490133e-11
5.430182537e-11
5.773285031e-11
6.277460912e-11
6.918341655e-11
7.65736213e-11
8.435400942e-11
9.169454973e-11
9.756032327e-11
1.008723373e-10
6.938792876e-11
7.371342085e-11
8.006665711e-11
8.81372303e-11
9.743577499e-11
1.072151703e-10
1.164304505e-10
1.237833916e-10
1.279267004e-10
8.801662956e-11
9.340080477e-11
1.013027929e-10
1.113299617e-10
1.228677008e-10
1.349841273e-10
1.463833035e-10
1.55462937e-10
1.605685556e-10
1.107429783e-10
1.173543482e-10
1.270469216e-10
1.393285083e-10
1.534362086e-10
1.682239168e-10
1.821094656e-10
1.931479688e-10
1.993419688e-10
1.381111581e-10
1.461147165e-10
1.578327305e-10
1.72654852e-10
1.896462873e-10
2.074181072e-10
2.240694104e-10
2.372787359e-10
2.446751352e-10
1.706245507e-10
1.801731231e-10
1.941319084e-10
2.117533452e-10
2.319077608e-10
2.529372421e-10
2.725943021e-10
2.881534779e-10
2.968469764e-10
2.087152862e-10
2.199409051e-10
2.363239871e-10
2.56961251e-10
2.805070667e-10
3.050123322e-10
3.278613157e-10
3.459047617e-10
3.559610593e-10
2.527167312e-10
2.657229587e-10
2.846713659e-10
3.084860846e-10
3.355876223e-10
3.637187991e-10
3.89881584e-10
4.104925365e-10
4.21967141e-10
3.028421753e-10
3.176981845e-10
3.39302462e-10
3.66392353e-10
3.97140786e-10
4.28971762e-10
4.584988552e-10
4.817231168e-10
4.946288538e-10
3.591721243e-10
3.759090821e-10
4.002046998e-10
4.305989347e-10
4.650080914e-10
5.005329722e-10
5.33422451e-10
5.592365914e-10
5.735580496e-10
4.21651185e-10
4.402610478e-10
4.672270772e-10
5.008866027e-10
5.388934996e-10
5.780511038e-10
6.14217577e-10
6.425488034e-10
6.582442009e-10
4.900936688e-10
5.10530222e-10
5.400872966e-10
5.76913874e-10
6.184085104e-10
6.610524547e-10
7.003527539e-10
7.310852695e-10
7.480903365e-10
5.641940827e-10
5.863841761e-10
6.184324353e-10
6.582727044e-10
7.030627675e-10
7.489909364e-10
7.912352157e-10
8.242205325e-10
8.424553125e-10
6.435951776e-10
6.674321895e-10
7.018079292e-10
7.444589399e-10
7.923103576e-10
8.412808715e-10
8.862494228e-10
9.213243294e-10
9.407095027e-10
7.278370536e-10
7.531920355e-10
7.897062986e-10
8.349326374e-10
8.855814537e-10
9.373298494e-10
9.847954825e-10
1.021815447e-09
1.042335188e-09
8.164210981e-10
8.431501445e-10
8.815955291e-10
9.291422028e-10
9.823089721e-10
1.036564528e-09
1.086309153e-09
1.125160082e-09
1.146689929e-09
9.088323443e-10
9.36783687e-10
9.769442805e-10
1.026550537e-09
1.08195701e-09
1.138461554e-09
1.190297972e-09
1.230735627e-09
1.253132307e-09
1.004562817e-09
1.03358505e-09
1.075248931e-09
1.126666103e-09
1.184058232e-09
1.242587871e-09
1.296181535e-09
1.337939717e-09
1.361061799e-09
1.103139357e-09
1.133092627e-09
1.176067958e-09
1.229086767e-09
1.288218823e-09
1.348389193e-09
1.403398381e-09
1.446221188e-09
1.469932449e-09
1.204165328e-09
1.23494298e-09
1.279069744e-09
1.333412561e-09
1.393898292e-09
1.455340576e-09
1.511441963e-09
1.555086701e-09
1.579257511e-09
1.307383771e-09
1.338804764e-09
1.383795034e-09
1.439119441e-09
1.500602283e-09
1.562971753e-09
1.619862164e-09
1.664100379e-09
1.688608186e-09
1.412261673e-09
1.444138702e-09
1.489734542e-09
1.545734383e-09
1.60788794e-09
1.670865256e-09
1.728262086e-09
1.772879798e-09
1.797609234e-09
1.518305256e-09
1.550471358e-09
1.596440131e-09
1.652837528e-09
1.715362367e-09
1.778652343e-09
1.836293018e-09
1.881090526e-09
1.905933365e-09
1.625081557e-09
1.657385791e-09
1.703515812e-09
1.76005665e-09
1.822677477e-09
1.886007566e-09
1.943648804e-09
1.988440398e-09
2.013295478e-09
1.732206814e-09
1.764511525e-09
1.810609152e-09
1.867060385e-09
1.929524117e-09
1.992643242e-09
2.050060451e-09
2.094674177e-09
2.119447369e-09
1.839336995e-09
1.871516245e-09
1.917404153e-09
1.97355221e-09
2.035626775e-09
2.098304553e-09
2.155291418e-09
2.199568942e-09
2.224173152e-09
1.946160936e-09
1.978099647e-09
2.023615834e-09
2.079265691e-09
2.140739285e-09
2.202765528e-09
2.259133737e-09
2.302930258e-09
2.327285461e-09
2.052395657e-09
2.083989126e-09
2.12898634e-09
2.183960954e-09
2.244641562e-09
2.305825908e-09
2.361404936e-09
2.404589111e-09
2.428622382e-09
2.15778328e-09
2.188936887e-09
2.233282251e-09
2.287422159e-09
2.347137165e-09
2.407308756e-09
2.461945625e-09
2.504399457e-09
2.528044966e-09
2.262089073e-09
2.292718061e-09
2.336292766e-09
2.389455719e-09
2.448051518e-09
2.507058622e-09
2.560617596e-09
2.602236248e-09
2.625435222e-09
2.365100228e-09
2.39512948e-09
2.437828464e-09
2.489889025e-09
2.547230566e-09
2.604940109e-09
2.657302283e-09
2.697993805e-09
2.720694423e-09
2.466625065e-09
2.495988851e-09
2.537720426e-09
2.588569482e-09
2.644539705e-09
2.700836687e-09
2.751899466e-09
2.791584414e-09
2.813741647e-09
2.566492463e-09
2.595134139e-09
2.635819529e-09
2.685363711e-09
2.739862865e-09
2.794649655e-09
2.844326102e-09
2.882937069e-09
2.904512452e-09
2.664551364e-09
2.692423002e-09
2.731995808e-09
2.780156794e-09
2.833101646e-09
2.886297152e-09
2.93451524e-09
2.971996284e-09
2.992957641e-09
2.760670243e-09
2.787732211e-09
2.826137788e-09
2.872851517e-09
2.924174448e-09
2.975713188e-09
3.022414946e-09
3.058720955e-09
3.079042066e-09
2.854736496e-09
2.880956982e-09
2.918151745e-09
2.963367549e-09
3.013015571e-09
3.06284666e-09
3.10798725e-09
3.143083231e-09
3.16274347e-09
2.946655705e-09
2.972010204e-09
3.007960883e-09
3.051640551e-09
3.099574252e-09
3.147660327e-09
3.191207063e-09
3.2250674e-09
3.24405134e-09
3.036350794e-09
3.060821559e-09
3.095504409e-09
3.13762121e-09
3.183813664e-09
3.23012977e-09
3.272061112e-09
3.304668788e-09
3.322965788e-09
3.123761057e-09
3.147336537e-09
3.180736527e-09
3.221274211e-09
3.265709865e-09
3.310242328e-09
3.350546855e-09
3.381892671e-09
3.399496456e-09
3.208841104e-09
3.231515372e-09
3.263625368e-09
3.302577164e-09
3.345250719e-09
3.387996025e-09
3.42667142e-09
3.456753218e-09
3.473661454e-09
3.291559732e-09
3.313331916e-09
3.344151872e-09
3.381519491e-09
3.422434817e-09
3.463398509e-09
3.500450567e-09
3.529272463e-09
3.545486348e-09
3.371898753e-09
3.392772482e-09
3.422308647e-09
3.458101324e-09
3.497270395e-09
3.536466011e-09
3.571907682e-09
3.599479332e-09
3.61500319e-09
3.449851804e-09
3.469834671e-09
3.49809883e-09
3.532332395e-09
3.569774276e-09
3.607222339e-09
3.641072812e-09
3.667408712e-09
3.68224961e-09
3.525423164e-09
3.544526213e-09
3.571534961e-09
3.604230967e-09
3.639970857e-09
3.675697913e-09
3.707981763e-09
3.733100588e-09
3.747267971e-09
3.598626587e-09
3.616863833e-09
3.6426379e-09
3.673822796e-09
3.707891132e-09
3.741928861e-09
3.772675243e-09
3.796599229e-09
3.810104583e-09
3.669484183e-09
3.686872166e-09
3.711435777e-09
3.741140149e-09
3.773571776e-09
3.805956169e-09
3.835198078e-09
3.857952454e-09
3.870808988e-09
3.738025352e-09
3.754582717e-09
3.777963016e-09
3.806220883e-09
3.837054288e-09
3.867824887e-09
3.895598484e-09
3.91721095e-09
3.929433306e-09
3.80428577e-09
3.820032893e-09
3.842259404e-09
3.869107578e-09
3.898384201e-09
3.927583414e-09
3.953927407e-09
3.974427657e-09
3.986031647e-09
3.868306455e-09
3.883265096e-09
3.904369244e-09
3.929846752e-09
3.957610357e-09
3.985282834e-09
4.010237922e-09
4.029657219e-09
4.040659586e-09
3.930132898e-09
3.944325892e-09
3.964340568e-09
3.988488127e-09
4.014784239e-09
4.040976323e-09
4.064584701e-09
4.08295549e-09
4.09337369e-09
3.989814271e-09
4.00326525e-09
4.022224421e-09
4.045083979e-09
4.069959385e-09
4.094718611e-09
4.117023527e-09
4.134379096e-09
4.14423111e-09
4.047402698e-09
4.060135849e-09
4.078074214e-09
4.099688539e-09
4.123190846e-09
4.146565509e-09
4.167610877e-09
4.183985053e-09
4.193289214e-09
4.102952613e-09
4.114992456e-09
4.131945149e-09
4.152357467e-09
4.174534714e-09
4.196573488e-09
4.216403542e-09
4.231830428e-09
4.240605275e-09
4.156520171e-09
4.167891375e-09
4.183893696e-09
4.203147378e-09
4.2240477e-09
4.244799305e-09
4.263458307e-09
4.277972054e-09
4.286236195e-09
4.208162733e-09
4.218889949e-09
4.233977139e-09
4.252115432e-09
4.271786767e-09
4.291299684e-09
4.308831667e-09
4.32246627e-09
4.330238277e-09
4.257938406e-09
4.268046129e-09
4.282253173e-09
4.299318964e-09
4.31780881e-09
4.336131037e-09
4.352579585e-09
4.365368719e-09
4.372667024e-09
4.305905645e-09
4.315418092e-09
4.328779555e-09
4.344815178e-09
4.362170376e-09
4.379349221e-09
4.394757289e-09
4.40673416e-09
4.413576975e-09
4.352122902e-09
4.361063913e-09
4.373613796e-09
4.388660866e-09
4.404927429e-09
4.421009338e-09
4.435419093e-09
4.446616323e-09
4.453021569e-09
4.396648322e-09
4.405041278e-09
4.416812907e-09
4.430912181e-09
4.446135148e-09
4.461165565e-09
4.474618263e-09
4.485067783e-09
4.491053034e-09
4.439539493e-09
4.447407242e-09
4.458433172e-09
4.471624443e-09
4.485847759e-09
4.499871009e-09
4.512406888e-09
4.522139866e-09
4.527722298e-09
4.480853219e-09
4.488218027e-09
4.498529965e-09
4.510851968e-09
4.524118393e-09
4.537177592e-09
4.548835797e-09
4.557882566e-09
4.563078921e-09
4.520645342e-09
4.527528847e-09
4.537157594e-09
4.548647942e-09
4.560998976e-09
4.573135962e-09
4.583954477e-09
4.592344487e-09
4.597171043e-09
4.558970588e-09
4.565393767e-09
4.574369173e-09
4.585064303e-09
4.596540138e-09
4.607795416e-09
4.61781102e-09
4.625572805e-09
4.630045351e-09
4.595882445e-09
4.601865591e-09
4.610216525e-09
4.620151661e-09
4.630791139e-09
4.641203849e-09
4.650452085e-09
4.657613231e-09
4.661747052e-09
4.631433062e-09
4.636995769e-09
4.644750097e-09
4.653959229e-09
4.663799819e-09
4.673407716e-09
4.681922869e-09
4.688510003e-09
4.692319869e-09
4.665673177e-09
4.670834329e-09
4.678018901e-09
4.686534775e-09
4.695612565e-09
4.704452004e-09
4.712267095e-09
4.718305874e-09
4.721806032e-09
4.698652055e-09
4.703429826e-09
4.710070476e-09
4.717924586e-09
4.726274279e-09
4.73438022e-09
4.741527007e-09
4.747042117e-09
4.750246292e-09
4.730417449e-09
4.734829303e-09
4.740950852e-09
4.748173451e-09
4.755828377e-09
4.763234392e-09
4.769743377e-09
4.77475854e-09
4.777679932e-09
4.761015579e-09
4.765078276e-09
4.770704538e-09
4.777324651e-09
4.78431678e-09
4.79105507e-09
4.796955513e-09
4.801493497e-09
4.804144788e-09
4.79049111e-09
4.794220718e-09
4.799374521e-09
4.805419959e-09
4.811779924e-09
4.817881342e-09
4.823201284e-09
4.827283917e-09
4.829677277e-09
4.81888716e-09
4.822299064e-09
4.827002263e-09
4.832499654e-09
4.838256774e-09
4.843750854e-09
4.848517139e-09
4.852165326e-09
4.854312423e-09
4.8462453e-09
4.84935422e-09
4.853627721e-09
4.85860253e-09
4.863784848e-09
4.868699832e-09
4.872938137e-09
4.876171886e-09
4.878083894e-09
4.872605571e-09
4.875425577e-09
4.879289363e-09
4.883765926e-09
4.888400237e-09
4.892763114e-09
4.896497979e-09
4.899336418e-09
4.901024032e-09
4.898006508e-09
4.900551038e-09
4.904024192e-09
4.908025751e-09
4.91213764e-09
4.915974181e-09
4.919229043e-09
4.921690451e-09
4.923163897e-09
4.922485162e-09
4.924767044e-09
4.927867779e-09
4.931416511e-09
4.935030395e-09
4.938365192e-09
4.941162421e-09
4.94326425e-09
4.944533301e-09
4.946077137e-09
4.948108606e-09
4.950854295e-09
4.953971351e-09
4.957110514e-09
4.959967022e-09
4.962327956e-09
4.964086859e-09
4.965160848e-09
4.96881662e-09
4.970609342e-09
4.973016545e-09
4.975722087e-09
4.978408723e-09
4.980809298e-09
4.982754282e-09
4.984186143e-09
4.98507398e-09
4.990736422e-09
4.992301513e-09
4.994386008e-09
4.996699247e-09
4.9989545e-09
5.000920444e-09
5.002468863e-09
5.003588826e-09
5.004299009e-09
5.011868016e-09
5.013216063e-09
5.014992879e-09
5.016932109e-09
5.018776116e-09
5.020327716e-09
5.021498035e-09
5.022320531e-09
5.022861166e-09
5.032241577e-09
5.03338266e-09
5.034866104e-09
5.036448741e-09
5.037900673e-09
5.039057241e-09
5.039867046e-09
5.040405821e-09
5.040784635e-09
5.051886023e-09
5.052829737e-09
5.054033427e-09
5.055276046e-09
5.056354146e-09
5.057134064e-09
5.057600093e-09
5.057868236e-09
5.058092592e-09
5.070829059e-09
5.071584533e-09
5.072521425e-09
5.073439795e-09
5.074161421e-09
5.074582178e-09
5.074720359e-09
5.074730332e-09
5.074807245e-09
5.089097214e-09
5.089673132e-09
5.09035555e-09
5.090964671e-09
5.091346333e-09
5.091424566e-09
5.091250054e-09
5.091013717e-09
5.090949868e-09
5.106715879e-09
5.107120499e-09
5.107560164e-09
5.107874301e-09
5.107931698e-09
5.107683229e-09
5.10721044e-09
5.10673908e-09
5.106540831e-09
5.123709338e-09
5.123950514e-09
5.124158569e-09
5.124191285e-09
5.123939347e-09
5.123379221e-09
5.122621866e-09
5.121926221e-09
5.121599628e-09
5.1401008e-09
5.140185997e-09
5.140173036e-09
5.139937225e-09
5.139390143e-09
5.138532665e-09
5.137503781e-09
5.136594065e-09
5.136144894e-09
5.155912408e-09
5.155848722e-09
5.155624815e-09
5.15513273e-09
5.154303994e-09
5.153162762e-09
5.151874746e-09
5.150760676e-09
5.150194411e-09
5.171165245e-09
5.170959418e-09
5.170534131e-09
5.169797417e-09
5.168699847e-09
5.167287784e-09
5.16575242e-09
5.164443235e-09
5.163765097e-09
5.18587931e-09
5.185537743e-09
5.184920163e-09
5.183949879e-09
5.18259565e-09
5.180925035e-09
5.179153523e-09
5.177658004e-09
5.176872957e-09
5.200073457e-09
5.199602225e-09
5.19880097e-09
5.19760761e-09
5.196008279e-09
5.194090768e-09
5.192093743e-09
5.190420234e-09
5.189532992e-09
5.213765285e-09
5.21317014e-09
5.212193375e-09
5.21078688e-09
5.208953397e-09
5.20680004e-09
5.204587585e-09
5.202744e-09
5.201759035e-09
5.226970953e-09
5.226257323e-09
5.225112756e-09
5.223502513e-09
5.221445222e-09
5.219066461e-09
5.216648112e-09
5.214641931e-09
5.213563469e-09
5.239704883e-09
5.238877862e-09
5.237572725e-09
5.235767546e-09
5.233496163e-09
5.230901809e-09
5.228286529e-09
5.226124785e-09
5.224956788e-09
5.251979312e-09
5.251043629e-09
5.249584638e-09
5.247592708e-09
5.245116259e-09
5.242315433e-09
5.239511554e-09
5.23720078e-09
5.235946917e-09
5.263803642e-09
5.262763605e-09
5.261156877e-09
5.25898565e-09
5.256312358e-09
5.253313371e-09
5.250328484e-09
5.247874617e-09
5.2465382e-09
5.275183503e-09
5.274042903e-09
5.272293819e-09
5.269949848e-09
5.267086937e-09
5.263897083e-09
5.260737839e-09
5.258146057e-09
5.256729936e-09
5.286119455e-09
5.284881416e-09
5.282994399e-09
5.280483059e-09
5.277436438e-09
5.274061664e-09
5.270733453e-09
5.268007904e-09
5.266514297e-09
5.29660521e-09
5.295271963e-09
5.293250152e-09
5.290575221e-09
5.287349e-09
5.283793392e-09
5.280299854e-09
5.277443244e-09
5.275873478e-09
5.306625278e-09
5.305197829e-09
5.303042589e-09
5.300205635e-09
5.296801419e-09
5.293066449e-09
5.289408741e-09
5.286421716e-09
5.284775846e-09
5.316151874e-09
5.314629539e-09
5.312339781e-09
5.309339291e-09
5.30575517e-09
5.301838622e-09
5.298014374e-09
5.294894647e-09
5.293170915e-09
5.325140982e-09
5.323520746e-09
5.321091989e-09
5.317922175e-09
5.314151339e-09
5.310045822e-09
5.306047697e-09
5.30278883e-09
5.300982912e-09
5.33352743e-09
5.331803099e-09
5.329226214e-09
5.325875419e-09
5.321904299e-09
5.317595258e-09
5.313409011e-09
5.309998786e-09
5.308102801e-09
5.341218874e-09
5.339379966e-09
5.336639557e-09
5.333088179e-09
5.32889403e-09
5.324357158e-09
5.319959116e-09
5.316377415e-09
5.314378625e-09
5.348088622e-09
5.346118974e-09
5.34319132e-09
5.339409191e-09
5.334957048e-09
5.330155008e-09
5.325508877e-09
5.321725007e-09
5.319604191e-09
5.353967288e-09
5.351843341e-09
5.348693878e-09
5.344637047e-09
5.339875971e-09
5.334754382e-09
5.329807344e-09
5.325776756e-09
5.323506227e-09
5.35863336e-09
5.356322109e-09
5.352902418e-09
5.34850932e-09
5.343367945e-09
5.337850602e-09
5.33252867e-09
5.328189086e-09
5.325730352e-09
5.361802868e-09
5.359259496e-09
5.35550383e-09
5.350690857e-09
5.345072251e-09
5.339055644e-09
5.333258346e-09
5.328525321e-09
5.325826429e-09
5.363118512e-09
5.360283735e-09
5.356105137e-09
5.350761721e-09
5.344537695e-09
5.337884939e-09
5.331479462e-09
5.326241531e-09
5.323234178e-09
5.362138731e-09
5.358935961e-09
5.35422212e-09
5.348205485e-09
5.341210558e-09
5.333745e-09
5.32656005e-09
5.320673672e-09
5.317270219e-09
5.358327467e-09
5.354659911e-09
5.349268945e-09
5.342398825e-09
5.334424178e-09
5.32592305e-09
5.317742817e-09
5.311027456e-09
5.307118075e-09
5.351045502e-09
5.346793408e-09
5.340549899e-09
5.332603595e-09
5.3233915e-09
5.313580149e-09
5.304138914e-09
5.296372727e-09
5.291822967e-09
5.339544534e-09
5.334562847e-09
5.327254499e-09
5.317962815e-09
5.307202154e-09
5.295749538e-09
5.284727611e-09
5.275644355e-09
5.270293504e-09
5.322965306e-09
5.317082055e-09
5.308457487e-09
5.297502168e-09
5.284825809e-09
5.27134211e-09
5.258363947e-09
5.247651826e-09
5.24131254e-09
5.300341235e-09
5.293357048e-09
5.283125285e-09
5.270138712e-09
5.255123627e-09
5.23916093e-09
5.223796397e-09
5.21109968e-09
5.203559383e-09
5.270609082e-09
5.262298254e-09
5.250130545e-09
5.234698491e-09
5.216869553e-09
5.197926638e-09
5.179696426e-09
5.164620695e-09
5.155645294e-09
5.232628069e-09
5.22274161e-09
5.208276222e-09
5.189944474e-09
5.168782881e-09
5.146315104e-09
5.124701268e-09
5.106823126e-09
5.096163523e-09
5.185208642e-09
5.173479713e-09
5.156330266e-09
5.134615835e-09
5.109572953e-09
5.083008066e-09
5.057470465e-09
5.036352322e-09
5.023754126e-09
5.127151583e-09
5.113303631e-09
5.0930714e-09
5.06747882e-09
5.037995995e-09
5.006756409e-09
4.976755497e-09
4.951965757e-09
4.937182321e-09
5.05729751e-09
5.04105523e-09
5.017345606e-09
4.987388492e-09
4.952922926e-09
4.916454433e-09
4.881480299e-09
4.852618784e-09
4.835427433e-09
4.974585833e-09
4.955688893e-09
4.928131812e-09
4.893359361e-09