/*--------------------------------*- C++ -*----------------------------------*\
| =========                 |                                                 |
| \\      /  F ield         | OpenFOAM: The Open Source CFD Toolbox           |
|  \\    /   O peration     | Version:  2212                                  |
|   \\  /    A nd           | Website:  www.openfoam.com                      |
|    \\/     M anipulation  |                                                 |
\*---------------------------------------------------------------------------*/
FoamFile
{
    version     2.0;
    format      ascii;
    arch        "LSB;label=32;scalar=64";
    class       volScalarField;
    location    "23.25000000";
    object      C3H6_0;
}
// * * * * * * * * * * * * * * * * * * * * * * * * * * * * * * * * * * * * * //

dimensions      [0 0 0 0 0 0 0];

internalField   nonuniform List<scalar> 
3000
(
1.195245755e-24
1.342517172e-24
1.564737411e-24
1.860846241e-24
2.227817918e-24
2.65567117e-24
3.118621368e-24
3.560317475e-24
3.872708986e-24
4.486809685e-24
5.059945787e-24
5.924387648e-24
7.078827661e-24
8.522063474e-24
1.024597168e-23
1.222066421e-23
1.434581825e-23
1.622931302e-23
1.004711928e-23
1.141915093e-23
1.350829969e-23
1.634471319e-23
1.997933118e-23
2.446467837e-23
2.978342988e-23
3.563635534e-23
4.064136329e-23
1.912987101e-23
2.196960882e-23
2.635688801e-23
3.243983107e-23
4.04336257e-23
5.054095705e-23
6.270688905e-23
7.595587488e-23
8.665166635e-23
3.395256972e-23
3.947020491e-23
4.812877243e-23
6.03671975e-23
7.676022837e-23
9.776615927e-23
1.230341375e-22
1.498641708e-22
1.704598349e-22
5.834955712e-23
6.86989451e-23
8.517221076e-23
1.088183403e-22
1.408961983e-22
1.822096869e-22
2.315235198e-22
2.826167636e-22
3.204139912e-22
9.898846445e-23
1.179854386e-22
1.485750083e-22
1.929787795e-22
2.536636266e-22
3.318291261e-22
4.242379952e-22
5.18111158e-22
5.858374256e-22
1.67393285e-22
2.01746207e-22
2.575536407e-22
3.391891266e-22
4.51193506e-22
5.951655017e-22
7.638722315e-22
9.327546114e-22
1.052563084e-21
2.835107903e-22
3.449726311e-22
4.45464131e-22
5.932065894e-22
7.962673476e-22
1.05657117e-21
1.359393325e-21
1.659371744e-21
1.869828849e-21
4.818472266e-22
5.909409571e-22
7.701268305e-22
1.034414912e-21
1.397877163e-21
1.862571562e-21
2.40016541e-21
2.928797796e-21
3.29691136e-21
8.221317368e-22
1.01462656e-21
1.331801746e-21
1.800560219e-21
2.445236681e-21
3.267614506e-21
4.215066665e-21
5.141933905e-21
5.784109278e-21
1.407777534e-21
1.745923729e-21
2.304310137e-21
3.130599504e-21
4.266741188e-21
5.713449169e-21
7.37513541e-21
8.994838142e-21
1.011313774e-20
2.417895477e-21
3.009929282e-21
3.989041482e-21
5.439059483e-21
7.432261127e-21
9.966791359e-21
1.28715334e-20
1.569563055e-20
1.764073469e-20
4.162786695e-21
5.196775875e-21
6.908591784e-21
9.444986286e-21
1.293057186e-20
1.73581521e-20
2.242431086e-20
2.734075289e-20
3.072104674e-20
7.180157851e-21
8.982734119e-21
1.196916737e-20
1.639559894e-20
2.247707186e-20
3.019598901e-20
3.901777895e-20
4.756738891e-20
5.343819072e-20
1.240193824e-20
1.554019447e-20
2.074220195e-20
2.84541317e-20
3.904739926e-20
5.2484849e-20
6.782875821e-20
8.268454813e-20
9.287652628e-20
2.144349285e-20
2.690174283e-20
3.595264619e-20
4.937226308e-20
6.780245709e-20
9.116997546e-20
1.178348395e-19
1.436320806e-19
1.613184337e-19
3.710499449e-20
4.659134131e-20
6.232549277e-20
8.565578456e-20
1.176916992e-19
1.582939685e-19
2.046002557e-19
2.493725746e-19
2.800504593e-19
6.424041304e-20
8.07183435e-20
1.080529947e-19
1.485847004e-19
2.042309848e-19
2.74732331e-19
3.550999041e-19
4.327642463e-19
4.859530958e-19
1.112632031e-19
1.398731193e-19
1.873367788e-19
2.577125745e-19
3.543128033e-19
4.766585721e-19
6.160630805e-19
7.507118137e-19
8.428831856e-19
1.927537744e-19
2.424096631e-19
3.247892545e-19
4.469234454e-19
6.145286525e-19
8.267238747e-19
1.068391426e-18
1.301694714e-18
1.461320159e-18
3.339716232e-19
4.201252721e-19
5.630468356e-19
7.749035815e-19
1.065548048e-18
1.43335858e-18
1.852032885e-18
2.255983044e-18
2.532211885e-18
5.786581982e-19
7.280818736e-19
9.759316093e-19
1.343235871e-18
1.846943659e-18
2.484054932e-18
3.208816254e-18
3.907611958e-18
4.385147496e-18
1.002511976e-18
1.261562733e-18
1.691164009e-18
2.327600588e-18
3.199954456e-18
4.302632113e-18
5.55604774e-18
6.76355438e-18
7.588061252e-18
1.736423729e-18
2.18530097e-18
2.929487566e-18
4.031468867e-18
5.540981017e-18
7.447500582e-18
9.612582191e-18
1.169621453e-17
1.311752477e-17
3.006467967e-18
3.783763229e-18
5.071922884e-18
6.978287038e-18
9.587558849e-18
1.287974721e-17
1.661399759e-17
2.020316742e-17
2.264838311e-17
5.202575102e-18
6.547437764e-18
8.775049409e-18
1.206924319e-17
1.657351629e-17
2.224953664e-17
2.867828464e-17
3.484749451e-17
3.90439107e-17
8.996134333e-18
1.132047225e-17
1.516797048e-17
2.085229073e-17
2.86149525e-17
3.838186103e-17
4.942415572e-17
6.000015499e-17
6.718050592e-17
1.554074739e-17
1.955239649e-17
2.618752847e-17
3.597888893e-17
4.93297264e-17
6.609594645e-17
8.501029759e-17
1.030835946e-16
1.153260079e-16
2.681366284e-17
3.372557504e-17
4.514623568e-17
6.197553151e-17
8.488016144e-17
1.135789024e-16
1.458703047e-16
1.766399454e-16
1.974259771e-16
4.619403207e-17
5.807770213e-17
7.768949077e-17
1.065394648e-16
1.457168022e-16
1.946722351e-16
2.495868742e-16
3.017427692e-16
3.36864408e-16
7.943760412e-17
9.981658011e-17
1.333994413e-16
1.827004774e-16
2.494734349e-16
3.326477879e-16
4.2561303e-16
5.135750755e-16
5.725933068e-16
1.363109369e-16
1.711506014e-16
2.2846465e-16
3.12401229e-16
4.25734731e-16
5.663889329e-16
7.229554801e-16
8.70461182e-16
9.690251403e-16
2.333152623e-16
2.926605201e-16
3.900913957e-16
5.32378958e-16
7.238183581e-16
9.604130778e-16
1.222553679e-15
1.468340397e-15
1.631831665e-15
3.981970968e-16
4.98858284e-16
6.637343877e-16
9.037423901e-16
1.225355632e-15
1.62095683e-15
2.057012383e-15
2.463709446e-15
2.732899878e-15
6.77364382e-16
8.472794027e-16
1.124845373e-15
1.527416075e-15
2.064420082e-15
2.721511171e-15
3.441704171e-15
4.10957709e-15
4.549305936e-15
1.147984517e-15
1.43322746e-15
1.897782132e-15
2.568791008e-15
3.459379796e-15
4.542895938e-15
5.723222203e-15
6.811151652e-15
7.523471505e-15
1.937551413e-15
2.413461867e-15
3.185932566e-15
4.296638674e-15
5.762719992e-15
7.535402736e-15
9.453951996e-15
1.121105385e-14
1.235490614e-14
3.255237262e-15
4.043870137e-15
5.319183384e-15
7.143829139e-15
9.538030412e-15
1.241396619e-14
1.550541498e-14
1.831809874e-14
2.013840788e-14
5.441614318e-15
6.738729125e-15
8.827850889e-15
1.180091009e-14
1.567746239e-14
2.030204586e-14
2.523833147e-14
2.969944803e-14
3.256962427e-14
9.046632093e-15
1.116283326e-14
1.455639946e-14
1.935846827e-14
2.557855564e-14
3.294624394e-14
4.075438793e-14
4.776352979e-14
5.224680006e-14
1.495042063e-14
1.837290524e-14
2.38360501e-14
3.152074726e-14
4.140674067e-14
5.303195303e-14
6.526375783e-14
7.617081971e-14
8.310760248e-14
2.454796127e-14
3.003168686e-14
3.874307722e-14
5.092154172e-14
6.647928796e-14
8.464070697e-14
1.036136261e-13
1.204214208e-13
1.310521258e-13
4.002732181e-14
4.872728475e-14
6.247947759e-14
8.158409344e-14
1.058180296e-13
1.339022642e-13
1.630360108e-13
1.886819323e-13
2.048170106e-13
6.478230533e-14
7.844192931e-14
9.992483015e-14
1.295794204e-13
1.669313895e-13
2.099080381e-13
2.541869827e-13
2.929279991e-13
3.171795429e-13
1.04014121e-13
1.252282336e-13
1.584222088e-13
2.039514906e-13
2.608998937e-13
3.25965467e-13
3.925614783e-13
4.50490157e-13
4.86581272e-13
1.655928374e-13
1.98166829e-13
2.488760491e-13
3.179913638e-13
4.038510022e-13
5.012818404e-13
6.003736674e-13
6.860933693e-13
7.392615744e-13
2.61267394e-13
3.106960264e-13
3.872544408e-13
4.909535328e-13
6.189152455e-13
7.631657564e-13
9.089849116e-13
1.034465423e-12
1.111970984e-12
4.083321977e-13
4.824209305e-13
5.966008383e-13
7.503136661e-13
9.387523146e-13
1.149818767e-12
1.36193076e-12
1.543542186e-12
1.655274602e-12
6.318788139e-13
7.415261152e-13
9.096703307e-13
1.134667011e-12
1.408721642e-12
1.713757391e-12
2.018543997e-12
2.278217197e-12
2.43734335e-12
9.677842469e-13
1.127934388e-12
1.372315927e-12
1.697363378e-12
2.090749167e-12
2.52585991e-12
2.958107725e-12
3.324524914e-12
3.548207792e-12
1.466615286e-12
1.697368907e-12
2.047734011e-12
2.510930795e-12
3.067883467e-12
3.679966818e-12
4.284388265e-12
4.794190081e-12
5.104219456e-12
2.198547258e-12
2.526394032e-12
3.021668349e-12
3.672395485e-12
4.449595933e-12
5.297969429e-12
6.130573184e-12
6.829140925e-12
7.252266237e-12
3.259728602e-12
3.718864012e-12
4.408879279e-12
5.309639774e-12
6.37784087e-12
7.535670408e-12
8.664458895e-12
9.606054491e-12
1.017385671e-11
4.780220357e-12
5.413859224e-12
6.360994585e-12
7.589064357e-12
9.034706499e-12
1.058981095e-11
1.209483775e-11
1.334207191e-11
1.409036316e-11
6.933730358e-12
7.795383618e-12
9.076290503e-12
1.072570254e-11
1.265228118e-11
1.470787576e-11
1.66812963e-11
1.83047047e-11
1.927297866e-11
9.949518146e-12
1.110477608e-11
1.281265768e-11
1.499639444e-11
1.75266368e-11
2.020341831e-11
2.275159169e-11
2.483169942e-11
2.606491502e-11
1.412805621e-11
1.56565781e-11
1.790402195e-11
2.075776893e-11
2.403844731e-11
2.748085961e-11
3.073225054e-11
3.33686683e-11
3.492417367e-11
1.985924439e-11
2.185787711e-11
2.478183497e-11
2.847133018e-11
3.26838195e-11
3.707460613e-11
4.119856182e-11
4.452969382e-11
4.649146591e-11
2.764506243e-11
3.02334075e-11
3.400455869e-11
3.873995142e-11
4.412091972e-11
4.97090706e-11
5.494834538e-11
5.918234554e-11
6.168092278e-11
3.813043025e-11
4.146137408e-11
4.630178158e-11
5.236412429e-11
5.924216138e-11
6.638738006e-11
7.310434491e-11
7.855701259e-11
8.179050873e-11
5.215195735e-11
5.64310997e-11
6.264586296e-11
7.043213084e-11
7.928412558e-11
8.851844775e-11
9.725103697e-11
1.04386135e-10
1.086408463e-10
7.082307225e-11
7.634190368e-11
8.437013038e-11
9.445993644e-11
1.05987363e-10
1.180899023e-10
1.296139109e-10
1.390876691e-10
1.447626836e-10
9.568053607e-11
1.028652067e-10
1.133508497e-10
1.265926091e-10
1.418122711e-10
1.578937456e-10
1.732952642e-10
1.860137233e-10
1.936557649e-10
1.289099918e-10
1.38383007e-10
1.522602448e-10
1.698701398e-10
1.902168366e-10
2.118201387e-10
2.325904797e-10
2.49789987e-10
2.601431835e-10
1.736503853e-10
1.862999949e-10
2.04888587e-10
2.285636001e-10
2.560155347e-10
2.852494253e-10
3.134174882e-10
3.367772421e-10
3.508519042e-10
2.343682077e-10
2.514276722e-10
2.765467988e-10
3.086088953e-10
3.458578915e-10
3.85583424e-10
4.238992148e-10
4.556951065e-10
4.748608631e-10
3.173193475e-10
3.404698498e-10
3.745915619e-10
4.181877122e-10
4.688767513e-10
5.229643507e-10
5.751484432e-10
6.184603074e-10
6.44571007e-10
4.311558554e-10
4.626704392e-10
5.09134522e-10
5.68514502e-10
6.37562946e-10
7.112398606e-10
7.82317909e-10
8.413063211e-10
8.76866531e-10
5.877498011e-10
6.306925387e-10
6.940009088e-10
7.748935544e-10
8.689333676e-10
9.692468469e-10
1.065993997e-09
1.146267361e-09
1.194652896e-09
8.033040552e-10
8.617977856e-10
9.480078214e-10
1.058120872e-09
1.186073738e-09
1.322502172e-09
1.454028485e-09
1.563125943e-09
1.62887361e-09
1.09982376e-09
1.17940277e-09
1.296644124e-09
1.446319368e-09
1.620151618e-09
1.805402751e-09
1.983916698e-09
2.131936995e-09
2.221121335e-09
1.507033761e-09
1.615101604e-09
1.774246124e-09
1.977307402e-09
2.213005679e-09
2.464046475e-09
2.705838242e-09
2.906248117e-09
3.026964751e-09
2.064836903e-09
2.211252183e-09
2.426770075e-09
2.70160523e-09
3.02041888e-09
3.359784059e-09
3.686471991e-09
3.957128369e-09
4.120103639e-09
2.826409898e-09
3.024223318e-09
3.315258582e-09
3.686175546e-09
4.116169701e-09
4.573592699e-09
5.013671958e-09
5.378087883e-09
5.597431475e-09
3.862021231e-09
4.128383905e-09
4.520076744e-09
5.018966097e-09
5.596918972e-09
6.211316449e-09
6.802035484e-09
7.290907541e-09
7.585016914e-09
5.263623101e-09
5.620877662e-09
6.14594828e-09
6.814266428e-09
7.587921655e-09
8.409736785e-09
9.199300642e-09
9.852292503e-09
1.024490355e-08
7.150210124e-09
7.627160518e-09
8.327744858e-09
9.218800275e-09
1.024944658e-08
1.134331353e-08
1.239337031e-08
1.326111063e-08
1.378246678e-08
9.673845814e-09
1.030717748e-08
1.123686916e-08
1.241834667e-08
1.37836408e-08
1.523127154e-08
1.661957825e-08
1.776578096e-08
1.845386262e-08
1.302613205e-08
1.386192116e-08
1.508792497e-08
1.664452031e-08
1.844139612e-08
2.034451271e-08
2.216760231e-08
2.367115637e-08
2.457287673e-08
1.744474188e-08
1.853995226e-08
2.014519601e-08
2.218115944e-08
2.452858231e-08
2.701163149e-08
2.938722206e-08
3.134403323e-08
3.25162689e-08
2.321946665e-08
2.464329014e-08
2.672828081e-08
2.936959387e-08
3.241083798e-08
3.562314309e-08
3.86919576e-08
4.121626938e-08
4.272656393e-08
3.069707053e-08
3.253192888e-08
3.521608652e-08
3.861193564e-08
4.251599958e-08
4.663294864e-08
5.055956848e-08
5.378445909e-08
5.571122241e-08
4.028413414e-08
4.262613715e-08
4.604831158e-08
5.037149423e-08
5.533324957e-08
6.055610893e-08
6.552848742e-08
6.960525069e-08
7.203728816e-08
5.24470453e-08
5.54057023e-08
5.972358697e-08
6.516950877e-08
7.140821605e-08
7.796221583e-08
8.418954532e-08
8.928572803e-08
9.232097582e-08
6.770839428e-08
7.140541173e-08
7.679362852e-08
8.35776353e-08
9.133357374e-08
9.946404312e-08
1.071728069e-07
1.134687956e-07
1.172122135e-07
8.663927431e-08
9.120634481e-08
9.785308476e-08
1.062060229e-07
1.157351615e-07
1.25701692e-07
1.351299293e-07
1.428141449e-07
1.473748173e-07
1.098473677e-07
1.154229601e-07
1.235252203e-07
1.336873174e-07
1.452541848e-07
1.573230427e-07
1.687130851e-07
1.779760292e-07
1.834636333e-07
1.379611746e-07
1.446864574e-07
1.544440909e-07
1.666574671e-07
1.805266216e-07
1.949618753e-07
2.085520344e-07
2.195796038e-07
2.26100503e-07
1.716112417e-07
1.796253935e-07
1.912343583e-07
2.057346789e-07
2.221613899e-07
2.392154191e-07
2.55231276e-07
2.681978868e-07
2.758511751e-07
2.114096888e-07
2.208449438e-07
2.344902642e-07
2.514981857e-07
2.707190737e-07
2.906232398e-07
3.092692653e-07
3.243313735e-07
3.332052315e-07
2.579296143e-07
2.689064437e-07
2.847554587e-07
3.044685745e-07
3.2669299e-07
3.496492474e-07
3.711014441e-07
3.88391944e-07
3.985603034e-07
3.116860391e-07
3.24308866e-07
3.425053213e-07
3.650912694e-07
3.90494119e-07
4.166682582e-07
4.410684325e-07
4.606923483e-07
4.722129979e-07
3.731198898e-07
3.874736749e-07
4.081331204e-07
4.337243821e-07
4.624409394e-07
4.919579337e-07
5.194098611e-07
5.414421689e-07
5.54355339e-07
4.42586159e-07
4.587340951e-07
4.819409013e-07
5.106316152e-07
5.427546044e-07
5.756961865e-07
6.062644723e-07
6.307491772e-07
6.450773019e-07
5.203468775e-07
5.383292977e-07
5.641354253e-07
5.959802925e-07
6.315591944e-07
6.679643284e-07
7.016749146e-07
7.286260118e-07
7.443744626e-07
6.06568963e-07
6.264033637e-07
6.548285374e-07
6.898438984e-07
7.288870301e-07
7.687540288e-07
8.055968678e-07
8.35000865e-07
8.521596139e-07
7.013261641e-07
7.230085344e-07
7.540426374e-07
7.92209201e-07
8.346869219e-07
8.779774978e-07
9.179108354e-07
9.497307062e-07
9.68277081e-07
8.04605933e-07
8.281126699e-07
8.617184516e-07
9.029851634e-07
9.488345557e-07
9.954789276e-07
1.038434508e-06
1.072614747e-06
1.092518565e-06
9.163178495e-07
9.41608259e-07
9.777250033e-07
1.022013574e-06
1.071143499e-06
1.121045423e-06
1.166932742e-06
1.203401767e-06
1.224617074e-06
1.036304154e-06
1.06332321e-06
1.101870645e-06
1.149080242e-06
1.201376312e-06
1.254417664e-06
1.303127459e-06
1.341791419e-06
1.364262489e-06
1.164351079e-06
1.193032196e-06
1.233914339e-06
1.283926086e-06
1.339255234e-06
1.395299704e-06
1.446698036e-06
1.487448881e-06
1.511113012e-06
1.300200176e-06
1.330467776e-06
1.373576326e-06
1.42625725e-06
1.48446939e-06
1.54335643e-06
1.597294917e-06
1.640015107e-06
1.664804582e-06
1.443558767e-06
1.475330543e-06
1.520546942e-06
1.57574706e-06
1.636671453e-06
1.698228359e-06
1.754549343e-06
1.799114976e-06
1.824958775e-06
1.594107716e-06
1.627290706e-06
1.674480917e-06
1.732036617e-06
1.795493635e-06
1.859540243e-06
1.918080474e-06
1.964363966e-06
1.991189218e-06
1.751486305e-06
1.785982162e-06
1.835006972e-06
1.894749548e-06
1.960554932e-06
2.026907423e-06
2.087501164e-06
2.135373495e-06
2.163106694e-06
1.915313595e-06
1.951022134e-06
2.001740172e-06
2.063499011e-06
2.131467146e-06
2.199941074e-06
2.262422618e-06
2.311755155e-06
2.340323141e-06
2.085197277e-06
2.122018175e-06
2.174288172e-06
2.237893268e-06
2.307839758e-06
2.378252435e-06
2.442458097e-06
2.493124044e-06
2.522454784e-06
2.260739589e-06
2.298573662e-06
2.352256191e-06
2.41754012e-06
2.489283799e-06
2.561456162e-06
2.62722584e-06
2.679101365e-06
2.709124561e-06
2.44154196e-06
2.480292165e-06
2.535250993e-06
2.602050445e-06
2.675414938e-06
2.749172987e-06
2.816351358e-06
2.869316459e-06
2.89996401e-06
2.627208731e-06
2.666780931e-06
2.722884049e-06
2.79104101e-06
2.865855925e-06
2.941031816e-06
3.009469236e-06
3.063408389e-06
3.094614739e-06
2.817350124e-06
2.857653671e-06
2.914774086e-06
2.984136718e-06
3.060238534e-06
3.136671383e-06
3.206224553e-06
3.261027183e-06
3.292729572e-06
3.011584643e-06
3.052532811e-06
3.110549115e-06
3.180972404e-06
3.25820511e-06
3.335741567e-06
3.406273991e-06
3.4618348e-06
3.493973441e-06
3.209540998e-06
3.251051286e-06
3.309848065e-06
3.381194263e-06
3.459409789e-06
3.53790442e-06
3.609286707e-06
3.665505884e-06
3.698024071e-06
3.41085964e-06
3.452853974e-06
3.512322063e-06
3.584460971e-06
3.663519456e-06
3.742834963e-06
3.814945e-06
3.871728333e-06
3.904572505e-06
3.615193976e-06
3.657598822e-06
3.717635452e-06
3.790444563e-06
3.870214478e-06
3.950221795e-06
4.022944803e-06
4.080203716e-06
4.113323473e-06
3.822211305e-06
3.864957711e-06
3.925466552e-06
3.998831085e-06
4.079189245e-06
4.159767525e-06
4.232996035e-06
4.290647557e-06
4.323995642e-06
4.031593518e-06
4.074617096e-06
4.135508221e-06
4.209321062e-06
4.290152544e-06
4.37118906e-06
4.44482281e-06
4.502789495e-06
4.53632175e-06
4.243037582e-06
4.286278445e-06
4.347468232e-06
4.4216298e-06
4.502827784e-06
4.58421776e-06
4.658163536e-06
4.716373336e-06
4.750048634e-06
4.456255851e-06
4.499658504e-06
4.561069481e-06
4.635487535e-06
4.716953085e-06
4.79859947e-06
4.872770904e-06
4.93115701e-06
4.964937168e-06
4.670976203e-06
4.714489413e-06
4.776050061e-06
4.850639459e-06
4.932281253e-06
5.014094454e-06
5.088411776e-06
5.146912436e-06
5.180762111e-06
4.886942041e-06
4.930518672e-06
4.992163201e-06
5.066845624e-06
5.148579653e-06
5.230477228e-06
5.304866999e-06
5.363425308e-06
5.397311887e-06
5.10391217e-06
5.147509005e-06
5.209177099e-06
5.283880743e-06
5.365629979e-06
5.447536313e-06
5.521931134e-06
5.580494813e-06
5.614388292e-06
5.321660556e-06
5.365238111e-06
5.426874659e-06
5.501533914e-06
5.583227957e-06
5.665073918e-06
5.739412123e-06
5.797933294e-06
5.831806146e-06
5.539976004e-06
5.583498324e-06
5.645053143e-06
5.719608256e-06
5.801182978e-06
5.882905559e-06
5.957130906e-06
6.015565848e-06
6.0493929e-06
5.758661755e-06
5.802096212e-06
5.863523757e-06
5.937920492e-06
6.019317668e-06
6.100859632e-06
6.174920988e-06
6.233229902e-06
6.266988199e-06
5.977535019e-06
6.020852107e-06
6.082111187e-06
6.156300484e-06
6.237467423e-06
6.318776946e-06
6.39262797e-06
6.450774741e-06
6.484443414e-06
6.196426458e-06
6.239599588e-06
6.300653082e-06
6.374590714e-06
6.455479903e-06
6.53651022e-06
6.610109055e-06
6.668061017e-06
6.701621154e-06
6.415179634e-06
6.458184935e-06
6.518999511e-06
6.592645759e-06
6.673214503e-06
6.753923565e-06
6.827232534e-06
6.884960241e-06
6.918394759e-06
6.633650426e-06
6.676466552e-06
6.737012398e-06
6.810331724e-06
6.890541807e-06
6.970891945e-06
7.043877258e-06
7.101354259e-06
7.134647784e-06
6.851706435e-06
6.894314375e-06
6.954564935e-06
7.027525675e-06
7.107343026e-06
7.187300631e-06
7.259932105e-06
7.317134733e-06
7.350273475e-06
7.069226373e-06
7.111609273e-06
7.171540999e-06
7.244115065e-06
7.323509445e-06
7.40304466e-06
7.475295446e-06
7.53220261e-06
7.565174252e-06
7.286099456e-06
7.328242446e-06
7.387834561e-06
7.459997157e-06
7.538941857e-06
7.618028284e-06
7.689874612e-06
7.746467603e-06
7.77926119e-06
7.502224797e-06
7.544114832e-06
7.6033491e-06
7.67507846e-06
7.753550013e-06
7.832164439e-06
7.903585373e-06
7.959847679e-06
7.992453515e-06
7.717510812e-06
7.759136517e-06
7.817997036e-06
7.889274166e-06
7.967252085e-06
8.045374218e-06
8.116351426e-06
8.172268556e-06
8.204678105e-06
7.931874638e-06
7.973226164e-06
8.031699163e-06
8.102507609e-06
8.179974132e-06
8.257586357e-06
8.328103899e-06
8.383663218e-06
8.415869013e-06
8.145241563e-06
8.186310458e-06
8.244384111e-06
8.314709738e-06
8.391649592e-06
8.468736744e-06
8.538780866e-06
8.59397144e-06
8.625966993e-06
8.357544488e-06
8.398323566e-06
8.455987821e-06
8.525818607e-06
8.602218789e-06
8.678767936e-06
8.748326884e-06
8.803139338e-06
8.83491906e-06
8.568723395e-06
8.609206625e-06
8.666453041e-06
8.735778885e-06
8.811628459e-06
8.887628707e-06
8.956692549e-06
9.01111893e-06
9.042678056e-06
8.778724852e-06
8.818907247e-06
8.875728845e-06
8.944541391e-06
9.0198313e-06
9.095273605e-06
9.163834071e-06
9.217867723e-06
9.249202239e-06
8.987501529e-06
9.027379052e-06
9.083770177e-06
9.152062649e-06
9.226785537e-06
9.301662538e-06
9.369712865e-06
9.423348314e-06
9.454454891e-06
9.19501175e-06
9.234581217e-06
9.290537412e-06
9.358304464e-06
9.432454519e-06
9.506760376e-06
9.574295172e-06
9.627528018e-06
9.658403951e-06
9.401219058e-06
9.440478059e-06
9.495995946e-06
9.563233524e-06
9.636806326e-06
9.710536579e-06
9.777551691e-06
9.830378507e-06
9.86102166e-06
9.606091816e-06
9.645038634e-06
9.70011581e-06
9.766821023e-06
9.839813409e-06
9.912964839e-06
9.979457237e-06
1.003187548e-05
1.006228423e-05
9.809602823e-06
9.848236366e-06
9.902871299e-06
9.969042304e-06
1.004145224e-05
1.011402275e-05
1.017999042e-05
1.023199834e-05
1.026217153e-05
1.001172895e-05
1.005004869e-05
1.010424063e-05
1.016987653e-05
1.024170299e-05
1.03136915e-05
1.037913333e-05
1.043072989e-05
1.046066679e-05
1.021245083e-05
1.025045673e-05
1.030420564e-05
1.036930635e-05
1.044054925e-05
1.051195557e-05
1.057687126e-05
1.062805609e-05
1.065775634e-05
1.04117525e-05
1.044944497e-05
1.050275143e-05
1.056731765e-05
1.063797768e-05
1.070880244e-05
1.077319245e-05
1.082396575e-05
1.085342933e-05
1.060962114e-05
1.0647001e-05
1.069986615e-05
1.076389924e-05
1.083397784e-05
1.090422238e-05
1.096808781e-05
1.10184503e-05
1.104767752e-05
1.080604682e-05
1.084311523e-05
1.08955407e-05
1.09590426e-05
1.102854185e-05
1.109820818e-05
1.116155072e-05
1.121150357e-05
1.1240495e-05
1.100102219e-05
1.103778063e-05
1.108976849e-05
1.115274169e-05
1.122166424e-05
1.129075492e-05
1.135357677e-05
1.14031216e-05
1.143187804e-05
1.119454229e-05
1.123099251e-05
1.128254522e-05
1.134499266e-05
1.141334166e-05
1.148185977e-05
1.15441636e-05
1.159330238e-05
1.162182487e-05
1.138660431e-05
1.14227483e-05
1.147386867e-05
1.153579369e-05
1.160357276e-05
1.16715218e-05
1.17333107e-05
1.178204572e-05
1.18103355e-05
1.157720741e-05
1.161304737e-05
1.166373849e-05
1.172514481e-05
1.179235793e-05
1.185974183e-05
1.192101923e-05
1.196935307e-05
1.199741154e-05
1.176635249e-05
1.180189082e-05
1.185215604e-05
1.191304767e-05
1.197969919e-05
1.204652219e-05
1.210729184e-05
1.215522735e-05
1.218305605e-05
1.195404209e-05
1.198928132e-05
1.203912422e-05
1.209950546e-05
1.216559999e-05
1.223186664e-05
1.229213257e-05
1.233967279e-05
1.236727342e-05
1.214028013e-05
1.217522295e-05
1.22246473e-05
1.228452266e-05
1.23500651e-05
1.24157802e-05
1.247554666e-05
1.252269485e-05
1.255006921e-05
1.232507186e-05
1.235972106e-05
1.240873078e-05
1.246810499e-05
1.253310042e-05
1.2598269e-05
1.265754046e-05
1.270430003e-05
1.273145001e-05
1.250842366e-05
1.254278214e-05
1.25913813e-05
1.265025923e-05
1.271471294e-05
1.277934019e-05
1.283812128e-05
1.288449579e-05
1.291142338e-05
1.269034294e-05
1.272441366e-05
1.277260644e-05
1.283099311e-05
1.289491052e-05
1.295900182e-05
1.301729731e-05
1.306329041e-05
1.308999767e-05
1.2870838e-05
1.290462401e-05
1.295241467e-05
1.301031522e-05
1.307370188e-05
1.31372627e-05
1.319507749e-05
1.324069296e-05
1.326718201e-05
1.304991798e-05
1.308342235e-05
1.313081524e-05
1.318823487e-05
1.325109643e-05
1.331413235e-05
1.337147143e-05
1.34167131e-05
1.344298611e-05
1.322759268e-05
1.326081854e-05
1.330781804e-05
1.336476204e-05
1.342710422e-05
1.34896209e-05
1.354648931e-05
1.35913611e-05
1.361742026e-05
1.340387252e-05
1.343682301e-05
1.348343356e-05
1.353990725e-05
1.360173581e-05
1.366373895e-05
1.372014181e-05
1.376464765e-05
1.37904952e-05
1.357876843e-05
1.361144672e-05
1.365767276e-05
1.371368148e-05
1.377500222e-05
1.383649757e-05
1.389244e-05
1.393658387e-05
1.396222206e-05
1.375229177e-05
1.378470102e-05
1.383054701e-05
1.388609611e-05
1.394691483e-05
1.400790813e-05
1.406339528e-05
1.410718116e-05
1.413261226e-05
1.392445426e-05
1.395659763e-05
1.4002068e-05
1.405716283e-05
1.411748532e-05
1.417798229e-05
1.42330193e-05
1.427645117e-05
1.430167742e-05
1.409526789e-05
1.41271485e-05
1.417224767e-05
1.422689353e-05
1.428672553e-05
1.434673187e-05
1.440132383e-05
1.444440564e-05
1.446942931e-05
1.426474479e-05
1.429636577e-05
1.43410981e-05
1.439530023e-05
1.445464744e-05
1.451416877e-05
1.456832074e-05
1.46110564e-05
1.46358797e-05
1.443289723e-05
1.446426162e-05
1.450863143e-05
1.456239501e-05
1.462126301e-05
1.468030489e-05
1.473402182e-05
1.477641518e-05
1.48010403e-05
1.459973743e-05
1.463084824e-05
1.467485974e-05
1.472818983e-05
1.478658412e-05
1.484515195e-05
1.48984387e-05
1.494049351e-05
1.496492258e-05
1.476527751e-05
1.479613766e-05
1.483979495e-05
1.489269648e-05
1.495062237e-05
1.500872143e-05
1.506158268e-05
1.510330258e-05
1.512753766e-05
1.49295293e-05
1.496014162e-05
1.500344866e-05
1.505592637e-05
1.511338898e-05
1.517102429e-05
1.522346455e-05
1.526485299e-05
1.528889605e-05
1.509250421e-05
1.512287139e-05
1.516583196e-05
1.521789036e-05
1.527489454e-05
1.533207087e-05
1.538409436e-05
1.54251546e-05
1.544900747e-05
1.525421302e-05
1.528433759e-05
1.532695521e-05
1.53785985e-05
1.543514875e-05
1.54918705e-05
1.55434811e-05
1.55842161e-05
1.560788045e-05
1.541466556e-05
1.544454983e-05
1.548682773e-05
1.553805973e-05
1.559416011e-05
1.565043119e-05
1.570163234e-05
1.57420447e-05
1.576552197e-05
1.557387045e-05
1.560351646e-05
1.564545746e-05
1.569628146e-05
1.575193543e-05
1.580775917e-05
1.585855371e-05
1.589864554e-05
1.592193689e-05
1.573183458e-05
1.576124401e-05
1.58028504e-05
1.585326905e-05
1.590847934e-05
1.596385825e-05
1.601424827e-05
1.605402106e-05
1.607712726e-05
1.588856259e-05
1.591773667e-05
1.595901006e-05
1.600902518e-05
1.606379352e-05
1.61187291e-05
1.61687157e-05
1.620817012e-05
1.623109145e-05
1.604405615e-05
1.607299548e-05
1.611393665e-05
1.616354893e-05
1.621787583e-05
1.627236823e-05
1.632195125e-05
1.636108692e-05
1.638382302e-05
1.6198313e-05
1.622701746e-05
1.626762604e-05
1.631683478e-05
1.63707191e-05
1.642476678e-05
1.647394442e-05
1.65127596e-05
1.653530931e-05
1.635132586e-05
1.637979433e-05
1.642006854e-05
1.646887123e-05
1.652230976e-05
1.6575909e-05
1.662467737e-05
1.66631686e-05
1.668552969e-05
1.650308097e-05
1.653131108e-05
1.657124731e-05
1.661963915e-05
1.667262606e-05
1.672577036e-05
1.67741229e-05
1.681228451e-05
1.683445345e-05
1.665355636e-05
1.668154416e-05
1.672113649e-05
1.676910978e-05
1.682163591e-05
1.687431524e-05
1.692224206e-05
1.696006564e-05
1.698203721e-05
1.680271974e-05
1.68304593e-05
1.686969892e-05
1.69172423e-05
1.696929433e-05
1.70214943e-05
1.706898131e-05
1.710645499e-05
1.712822191e-05
1.6950526e-05
1.697800891e-05
1.701688343e-05
1.706398104e-05
1.711554046e-05
1.716724127e-05
1.721426925e-05
1.725137691e-05
1.727292933e-05
1.709691429e-05
1.712412911e-05
1.716262171e-05
1.720925215e-05
1.726029416e-05
1.731146937e-05
1.735801278e-05
1.739473313e-05
1.741605812e-05
1.724180472e-05
1.726873632e-05
1.730682484e-05
1.735295998e-05
1.740345213e-05
1.745406731e-05
1.750009304e-05
1.753639859e-05
1.755747946e-05
1.738509466e-05
1.741172348e-05
1.744937933e-05
1.749498304e-05
1.754488376e-05
1.759489499e-05
1.764036094e-05
1.767621683e-05
1.76970325e-05
1.752665474e-05
1.7552956e-05
1.759014304e-05
1.763516975e-05
1.768442677e-05
1.773377899e-05
1.777863256e-05
1.781399537e-05
1.783451968e-05
1.766632471e-05
1.769226755e-05
1.772894087e-05
1.777333407e-05
1.78218828e-05
1.787050815e-05
1.791468473e-05
1.794950127e-05
1.796970222e-05
1.780390927e-05
1.782945591e-05
1.78655606e-05
1.790925141e-05
1.79570133e-05
1.800482952e-05
1.804825098e-05
1.808245713e-05
1.810229624e-05
1.793917419e-05
1.796427911e-05
1.799974916e-05
1.804265492e-05
1.808953599e-05
1.813644495e-05
1.817901837e-05
1.821253808e-05
1.823196983e-05
1.807184302e-05
1.809645227e-05
1.813120958e-05
1.817323275e-05
1.821912237e-05
1.826500893e-05
1.830662565e-05
1.833937024e-05
1.835834169e-05
1.82015948e-05
1.822564552e-05
1.825959923e-05
1.830062662e-05
1.834539683e-05
1.83901282e-05
1.843066331e-05
1.846253118e-05
1.848098185e-05
1.832806325e-05
1.835148341e-05
1.838452967e-05
1.842443227e-05
1.846793769e-05
1.851136355e-05
1.855067616e-05
1.858155308e-05
1.859941518e-05
1.845083785e-05
1.847354649e-05
1.850556883e-05
1.854420237e-05
1.858628101e-05
1.862823454e-05
1.86661689e-05
1.86959291e-05
1.871312825e-05
1.856946747e-05
1.859137542e-05
1.862224584e-05
1.865945234e-05
1.869992752e-05
1.874022759e-05
1.877661536e-05
1.880512352e-05
1.882157997e-05
1.868346693e-05
1.870447809e-05
1.873405913e-05
1.876966956e-05
1.880835314e-05
1.884680783e-05
1.888147163e-05
1.890858585e-05
1.892421638e-05
1.879232684e-05
1.881234027e-05
1.884048798e-05
1.887432618e-05
1.891102317e-05
1.894743482e-05
1.898019313e-05
1.900576909e-05
1.902048952e-05
1.889552693e-05
1.891443962e-05
1.894100772e-05
1.897289566e-05
1.900741033e-05
1.904158204e-05
1.907225544e-05
1.909615164e-05
1.910987997e-05
1.899255286e-05
1.901026325e-05
1.903510828e-05
1.906487259e-05
1.909701595e-05
1.912875944e-05
1.915717815e-05
1.917926203e-05
1.919192214e-05
1.9082916e-05
1.909932819e-05
1.912231556e-05
1.914979509e-05
1.917939351e-05
1.920853806e-05
1.923455036e-05
1.925470515e-05
1.926623087e-05
1.916617555e-05
1.918120393e-05
1.920221463e-05
1.922726877e-05
1.925417325e-05