/*--------------------------------*- C++ -*----------------------------------*\
| =========                 |                                                 |
| \\      /  F ield         | OpenFOAM: The Open Source CFD Toolbox           |
|  \\    /   O peration     | Version:  2212                                  |
|   \\  /    A nd           | Website:  www.openfoam.com                      |
|    \\/     M anipulation  |                                                 |
\*---------------------------------------------------------------------------*/
FoamFile
{
    version     2.0;
    format      ascii;
    arch        "LSB;label=32;scalar=64";
    class       volScalarField;
    location    "23.25000000";
    object      C4H4_0;
}
// * * * * * * * * * * * * * * * * * * * * * * * * * * * * * * * * * * * * * //

dimensions      [0 0 0 0 0 0 0];

internalField   nonuniform List<scalar> 
3000
(
8.363875168e-21
9.391439968e-21
1.094202465e-20
1.300829412e-20
1.556917483e-20
1.855500454e-20
2.178576118e-20
2.486803639e-20
2.704766871e-20
3.135450888e-20
3.535432446e-20
4.138748799e-20
4.944522285e-20
5.95194567e-20
7.15537077e-20
8.533940991e-20
1.001761135e-19
1.133260175e-19
7.017122972e-20
7.974991338e-20
9.433617705e-20
1.141415763e-19
1.395228318e-19
1.708475222e-19
2.079950047e-19
2.488751058e-19
2.838336357e-19
1.335841246e-19
1.534186597e-19
1.840649101e-19
2.265602587e-19
2.824108084e-19
3.530351101e-19
4.380508475e-19
5.306408634e-19
6.053912657e-19
2.371153054e-19
2.756749655e-19
3.36191023e-19
4.217377093e-19
5.363397634e-19
6.8320809e-19
8.598949411e-19
1.047521859e-18
1.191561395e-18
4.076243058e-19
4.799951214e-19
5.952023598e-19
7.605971886e-19
9.850023558e-19
1.274059561e-18
1.619140199e-18
1.976716176e-18
2.241266621e-18
6.918556208e-19
8.247883811e-19
1.038869978e-18
1.349681109e-18
1.774528354e-18
2.321850681e-18
2.969012771e-18
3.626526635e-18
4.100958072e-18
1.170671606e-18
1.41123906e-18
1.802107229e-18
2.373975884e-18
3.158736978e-18
4.167678006e-18
5.350178139e-18
6.534107983e-18
7.374126548e-18
1.984164525e-18
2.414916241e-18
3.119320092e-18
4.155139414e-18
5.579099377e-18
7.404867957e-18
9.52929381e-18
1.163415508e-17
1.311109148e-17
3.374910497e-18
4.140133317e-18
5.397227316e-18
7.251757283e-18
9.802784823e-18
1.306507899e-17
1.683997202e-17
2.055266139e-17
2.313840233e-17
5.763201262e-18
7.11461511e-18
9.341759445e-18
1.2634029e-17
1.716292888e-17
2.294158832e-17
2.960063585e-17
3.611632651e-17
4.063142775e-17
9.877418182e-18
1.225352646e-17
1.617798321e-17
2.198666665e-17
2.99755596e-17
4.015077279e-17
5.184076033e-17
6.323777356e-17
7.110799023e-17
1.698033495e-17
2.114432024e-17
2.803212049e-17
3.823505656e-17
5.226366237e-17
7.010683369e-17
9.056124147e-17
1.104520109e-16
1.241541695e-16
2.926177881e-17
3.654101982e-17
4.859455341e-17
6.645860445e-17
9.101431896e-17
1.222144617e-16
1.579232769e-16
1.925843158e-16
2.164196048e-16
5.052011439e-17
6.322223025e-17
8.427085852e-17
1.154764291e-16
1.583611323e-16
2.128069824e-16
2.750474539e-16
3.353808154e-16
3.768174967e-16
8.734496885e-17
1.094803447e-16
1.461797483e-16
2.005998824e-16
2.753725478e-16
3.70246189e-16
4.786072831e-16
5.835443558e-16
6.555503985e-16
1.511697949e-16
1.897061826e-16
2.536207304e-16
3.484095667e-16
4.786254987e-16
6.437696864e-16
8.322644547e-16
1.014666414e-15
1.139741893e-15
2.618337474e-16
3.288743965e-16
4.400919152e-16
6.050447685e-16
8.31610606e-16
1.118837121e-15
1.446497389e-15
1.763373883e-15
1.98053585e-15
4.537615544e-16
5.703259404e-16
7.637309343e-16
1.050583747e-15
1.444513081e-15
1.943738547e-15
2.512971443e-15
3.063180356e-15
3.440061734e-15
7.866825245e-16
9.892670366e-16
1.32542386e-15
1.823980195e-15
2.508501711e-15
3.375693513e-15
4.364048436e-15
5.318898783e-15
5.972642292e-15
1.364213088e-15
1.716170078e-15
2.30019251e-15
3.166271181e-15
4.35511711e-15
5.860652196e-15
7.575728685e-15
9.231815012e-15
1.036510922e-14
2.366048819e-15
2.977307465e-15
3.991545851e-15
5.495361552e-15
7.558993186e-15
1.017122256e-14
1.314544323e-14
1.601570549e-14
1.797880071e-14
4.103698413e-15
5.164923372e-15
6.925549849e-15
9.535393439e-15
1.311540686e-14
1.764477885e-14
2.279857441e-14
2.77688355e-14
3.116597443e-14
7.116849286e-15
8.958533019e-15
1.201335671e-14
1.654009143e-14
2.274648919e-14
3.059363528e-14
3.951574106e-14
4.811296786e-14
5.398437013e-14
1.233974554e-14
1.553427606e-14
2.083153573e-14
2.867760981e-14
3.942817169e-14
5.300978747e-14
6.843719754e-14
8.328752848e-14
9.341923652e-14
2.138794489e-14
2.692557687e-14
3.610461488e-14
4.969217181e-14
6.82946324e-14
9.177206252e-14
1.184085651e-13
1.440158562e-13
1.614646552e-13
3.705146966e-14
4.664297672e-14
6.253346008e-14
8.603811639e-14
1.181853796e-13
1.587060857e-13
2.046117672e-13
2.486738331e-13
2.786511352e-13
6.414074274e-14
8.073641941e-14
1.082129561e-13
1.488168903e-13
2.042811833e-13
2.740839085e-13
3.530208658e-13
4.286409097e-13
4.799908217e-13
1.109333278e-13
1.396098234e-13
1.870492614e-13
2.570717667e-13
3.525742663e-13
4.72538597e-13
6.079055512e-13
7.372810218e-13
8.249326116e-13
1.916396957e-13
2.41108957e-13
3.228638985e-13
4.433651799e-13
6.074085168e-13
8.130007623e-13
1.044384578e-12
1.264910833e-12
1.413911116e-12
3.30589454e-13
4.157534491e-13
5.563279956e-13
7.631685765e-13
1.044120676e-12
1.395279862e-12
1.789274899e-12
2.163554094e-12
2.415637194e-12
5.693076676e-13
7.155589291e-13
9.566144905e-13
1.310574137e-12
1.790089084e-12
2.387527493e-12
3.055440981e-12
3.687534963e-12
4.11171252e-12
9.784192571e-13
1.228833168e-12
1.640860048e-12
2.244406623e-12
3.059519269e-12
4.071354016e-12
5.197895146e-12
6.259443071e-12
6.9688931e-12
1.677570801e-12
2.104846169e-12
2.806456173e-12
3.831299079e-12
5.210464836e-12
6.915297975e-12
8.804577494e-12
1.057630812e-11
1.175500848e-11
2.868580146e-12
3.594702266e-12
4.78424372e-12
6.516188924e-12
8.837487369e-12
1.169336114e-11
1.484183824e-11
1.777881218e-11
1.972306914e-11
4.890259996e-12
6.118593487e-12
8.12547391e-12
1.10367178e-11
1.492086089e-11
1.967441725e-11
2.488527931e-11
2.971826987e-11
3.290075205e-11
8.308493808e-12
1.037566029e-11
1.374282498e-11
1.860724266e-11
2.506456608e-11
3.292190406e-11
4.148238267e-11
4.93736587e-11
5.454106725e-11
1.406320191e-11
1.752208082e-11
2.313715282e-11
3.121212562e-11
4.187227337e-11
5.476333899e-11
6.871651877e-11
8.149663947e-11
8.981715244e-11
2.370636019e-11
2.945745097e-11
3.875893225e-11
5.206887268e-11
6.953560569e-11
9.051871786e-11
1.130756747e-10
1.335997283e-10
1.468834405e-10
3.978448304e-11
4.928147206e-11
6.45792782e-11
8.635267301e-11
1.147457666e-10
1.486197892e-10
1.847780445e-10
2.17456421e-10
2.38481981e-10
6.644822844e-11
8.201597355e-11
1.069839562e-10
1.423193814e-10
1.880931306e-10
2.423141907e-10
2.997767504e-10
3.51358917e-10
3.843535745e-10
1.104156938e-10
1.35736381e-10
1.761604342e-10
2.330301928e-10
3.061966245e-10
3.922373667e-10
4.827661503e-10
5.634885927e-10
6.148284805e-10
1.824811018e-10
2.233289152e-10
2.882305089e-10
3.789768139e-10
4.949154163e-10
6.302619918e-10
7.716545416e-10
8.96909635e-10
9.761344887e-10
2.998559908e-10
3.651947633e-10
4.684999924e-10
6.120427188e-10
7.941529464e-10
1.005214321e-09
1.224169237e-09
1.416915284e-09
1.538189989e-09
4.897680648e-10
5.933733667e-10
7.563668078e-10
9.814302241e-10
1.264985855e-09
1.591299895e-09
1.927542631e-09
2.221763583e-09
2.405972227e-09
7.949399748e-10
9.577713938e-10
1.212668875e-09
1.562456099e-09
2.000162042e-09
2.500434505e-09
3.01262229e-09
3.4582685e-09
3.736001261e-09
1.281847944e-09
1.535484734e-09
1.930588289e-09
2.469497957e-09
3.139444089e-09
3.900165503e-09
4.674293885e-09
5.344306416e-09
5.760104469e-09
2.053045389e-09
2.444616744e-09
3.051689803e-09
3.874894331e-09
4.891865226e-09
6.039536914e-09
7.200852064e-09
8.201113489e-09
8.819483016e-09
3.265362038e-09
3.864561274e-09
4.789296128e-09
6.03630238e-09
7.567757398e-09
9.286145979e-09
1.101595323e-08
1.249934026e-08
1.341326245e-08
5.156491243e-09
6.065472698e-09
7.462231694e-09
9.335942087e-09
1.162444956e-08
1.417880664e-08
1.67380906e-08
1.892426519e-08
2.026722472e-08
8.083392439e-09
9.450626594e-09
1.154304405e-08
1.433634473e-08
1.7730847e-08
2.150168721e-08
2.526415046e-08
2.846735222e-08
3.043032797e-08
1.257708368e-08
1.461653235e-08
1.772589341e-08
2.185833253e-08
2.685743619e-08
3.238750391e-08
3.788564091e-08
4.255359809e-08
4.540889276e-08
1.941874679e-08
2.243610033e-08
2.702052511e-08
3.308898437e-08
4.040065597e-08
4.845958224e-08
5.644816998e-08
6.321590121e-08
6.735032563e-08
2.974615374e-08
3.417451705e-08
4.088193323e-08
4.972905779e-08
6.035132203e-08
7.202327361e-08
8.356579016e-08
9.33291466e-08
9.928962465e-08
4.519852907e-08
5.164610206e-08
6.138501304e-08
7.419054528e-08
8.951913015e-08
1.063197089e-07
1.229036197e-07
1.36917515e-07
1.454720952e-07
6.811117518e-08
7.742400671e-08
9.14564722e-08
1.09856984e-07
1.318260521e-07
1.558546305e-07
1.795410534e-07
1.995464671e-07
2.117629407e-07
1.017730381e-07
1.151161781e-07
1.351777013e-07
1.614203217e-07
1.926821309e-07
2.268148819e-07
2.604264595e-07
2.888081286e-07
3.061506392e-07
1.507623668e-07
1.697227627e-07
1.98173632e-07
2.353088514e-07
2.794570954e-07
3.275841967e-07
3.749327114e-07
4.149072067e-07
4.393497999e-07
2.213768979e-07
2.480909259e-07
2.881026858e-07
3.402198952e-07
4.020595297e-07
4.693679756e-07
5.355220155e-07
5.913563736e-07
6.255140828e-07
3.221741369e-07
3.594813746e-07
4.152600544e-07
4.877667826e-07
5.736303675e-07
6.669322086e-07
7.585263026e-07
8.357915383e-07
8.830740281e-07
4.646322068e-07
5.162546813e-07
5.932990314e-07
6.932410776e-07
8.113487406e-07
9.394540107e-07
1.065042775e-06
1.170908983e-06
1.235701742e-06
6.639308791e-07
7.34674135e-07
8.400636353e-07
9.764805044e-07
1.137339861e-06
1.311474382e-06
1.481934116e-06
1.625506425e-06
1.713374585e-06
9.398382976e-07
1.035809323e-06
1.178516343e-06
1.362828059e-06
1.579673345e-06
1.813941234e-06
2.042912127e-06
2.235590919e-06
2.353489587e-06
1.317681664e-06
1.446521564e-06
1.637746956e-06
1.884173609e-06
2.173443829e-06
2.485324735e-06
2.789669676e-06
3.045506675e-06
3.201980051e-06
1.829392499e-06
2.000526884e-06
2.25406248e-06
2.580075526e-06
2.961917774e-06
3.372768298e-06
3.773011169e-06
4.109033536e-06
4.314389652e-06
2.514641003e-06
2.739548406e-06
3.072159713e-06
3.498943618e-06
3.997703227e-06
4.53321779e-06
5.053925783e-06
5.490407197e-06
5.756858596e-06
3.42206708e-06
3.714549042e-06
4.146347e-06
4.699225795e-06
5.34387396e-06
6.034465552e-06
6.704549814e-06
7.265212746e-06
7.6069749e-06
4.610555459e-06
4.986976062e-06
5.541733409e-06
6.250515538e-06
7.074976542e-06
7.956051129e-06
8.808967436e-06
9.521103878e-06
9.954445153e-06
6.150445651e-06
6.629911367e-06
7.335290247e-06
8.23450258e-06
9.277858342e-06
1.038996541e-05
1.146380068e-05
1.23583022e-05
1.290154098e-05
8.124569246e-06
8.729033759e-06
9.616707929e-06
1.074570345e-05
1.205226091e-05
1.344110676e-05
1.477854179e-05
1.588983289e-05
1.656327973e-05
1.062903728e-05
1.138332428e-05
1.24889868e-05
1.389191519e-05
1.551112539e-05
1.722744061e-05
1.887558279e-05
2.024145487e-05
2.106729933e-05
1.377371742e-05
1.47054562e-05
1.606870509e-05
1.779433825e-05
1.978056046e-05
2.187981595e-05
2.388989935e-05
2.555124499e-05
2.65533876e-05
1.768234363e-05
1.882181377e-05
2.048591165e-05
2.25873197e-05
2.499942632e-05
2.754139589e-05
2.996834853e-05
3.196879665e-05
3.317262702e-05
2.249220906e-05
2.387209257e-05
2.588359734e-05
2.841767287e-05
3.131849434e-05
3.436666419e-05
3.72685433e-05
3.965399649e-05
4.108611811e-05
2.835339928e-05
3.000843959e-05
3.241670668e-05
3.544353813e-05
3.889914939e-05
4.251997623e-05
4.595727322e-05
4.877534805e-05
5.046325033e-05
3.542753442e-05
3.73941042e-05
4.025066277e-05
4.383276036e-05
4.791161244e-05
5.217363346e-05
5.620845094e-05
5.95078229e-05
6.147950088e-05
4.388600311e-05
4.620158439e-05
4.955939271e-05
5.376077279e-05
5.853267559e-05
6.350547602e-05
6.820058162e-05
7.203023772e-05
7.431376103e-05
5.390768776e-05
5.661027015e-05
6.05228581e-05
6.54079955e-05
7.094296209e-05
7.669601038e-05
8.211377606e-05
8.652218172e-05
8.914521632e-05
6.567620082e-05
6.880360661e-05
7.332411769e-05
7.895678119e-05
8.532375034e-05
9.192511774e-05
9.812636012e-05
0.0001031605526
0.0001061498423
7.937667658e-05
8.296582532e-05
8.814597658e-05
9.458797025e-05
0.0001018534326
0.0001093684235
0.0001164111697
0.0001221157977
0.000125496617
9.519219151e-05
9.927832218e-05
0.0001051673079
0.0001124771505
0.0001207037149
0.0001291934459
0.0001371316602
0.0001435479984
0.0001473435937
0.0001132999184
0.000117915793
0.0001245591667
0.0001327907519
0.0001420357003
0.0001515556772
0.000160437996
0.0001676029718
0.0001718340116
0.0001338671518
0.0001390422701
0.0001464808476
0.0001556821385
0.0001659960286
0.0001765947837
0.0001864633131
0.0001944085908
0.0001990926533
0.0001570473709
0.0001628072314
0.0001710760647
0.0001812878832
0.0001927132668
0.0002044311234
0.0002153203648
0.000224071536
0.0002292226601
0.0001829765263
0.0001893419708
0.0001984694469
0.0002097244228
0.0002222947505
0.0002351627855
0.0002470987504
0.0002566746805
0.0002623030094
0.0002117697454
0.0002187564252
0.0002287635406
0.0002410852834
0.0002548240622
0.0002688633331
0.0002818629054
0.0002922752794
0.0002983868212
0.0002435186404
0.0002511366363
0.0002620364956
0.0002754390417
0.0002903593018
0.0003055803895
0.0003196509797
0.00033090408
0.0003375006028
0.0002782893753
0.0002865429986
0.0002983405684
0.0003128281425
0.000328932251
0.0003453351516
0.0003604746693
0.0003725654037
0.0003796444741
0.0003161216038
0.0003250093903
0.0003377015282
0.000353268636
0.0003705484705
0.000388122846
0.0004043199936
0.0004172381714
0.0004247933343
0.0003570283295
0.0003665432282
0.0003801189839
0.0003967508297
0.000415188301
0.0004339140706
0.0004511489379
0.0004648777772
0.000472898867
0.0004009966746
0.0004111264178
0.0004255675846
0.0004432407844
0.0004628086714
0.0004826569018
0.0005009018206
0.0005154186519
0.0005238922167
0.0004479894786
0.0004587171064
0.0004739989853
0.0004926825247
0.0005133455613
0.0005342795941
0.0005535001906
0.0005687772888
0.0005776869883
0.0004979475946
0.0005092520982
0.0005253444208
0.0005450007927
0.0005667169335
0.0005886936703
0.0006088500296
0.0006248554649
0.0006341827546
0.0005507927086
0.0005626497522
0.0005795177068
0.0006001041579
0.0006228259485
0.0006457972125
0.0006668450473
0.0006835438272
0.0006932684433
0.0006064304917
0.0006188131707
0.0006364184736
0.0006578882876
0.0006815642512
0.0007054780965
0.0007273701758
0.0007447251262
0.0007548256466
0.0006647538859
0.0006776334791
0.0006959354418
0.0007182391759
0.0007428150949
0.0007676173515
0.0007903046112
0.000808277321
0.0008187316976
0.0007256463321
0.000738992971
0.0007579493527
0.0007810360859
0.0008064565236
0.0008320919693
0.0008555246662
0.000874076389
0.0008848624758
0.0007889845712
0.0008027679883
0.0008223361916
0.0008461546239
0.0008723639401
0.0008987774593
0.0009229062451
0.0009419988202
0.0009530950193
0.0008546418453
0.0008688319037
0.0008889695992
0.0009134689556
0.0009404123143
0.000967549888
0.000992326777
0.001011923657
0.00102331036
0.0009224900575
0.0009370572172
0.0009577230001
0.0009828537668
0.001010477893
0.001038287285
0.001063666164
0.001083732573
0.001095388492
0.0009924017769
0.001007317463
0.001028471353
0.00105418584
0.001082439572
0.001110870783
0.001136807733
0.001157307532
0.001169211842
0.001064251882
0.001079488766
0.001101092584
0.001127345351
0.00115618006
0.001185185576
0.001211635551
0.001232533658
0.001244666424
0.001137918912
0.001153451123
0.001175468749
0.001202216966
0.001231586038
0.001261117341
0.001288037078
0.001309300117
0.001321642377
0.001213286199
0.001229089569
0.001251486904
0.00127868823
0.001308544563
0.001338555556
0.001365904085
0.001387500459
0.00140003426
0.001290242667
0.001306292696
0.001329034884
0.001356647778
0.001386946964
0.001417394166
0.001445132859
0.001467032782
0.001479741191
0.001368675515
0.001384948773
0.001408003148
0.001435988733
0.001466689118
0.00149753171
0.001525624289
0.001547799773
0.001560666868
0.001448476305
0.001464950933
0.001488286993
0.001516608952
0.001547671586
0.001578871368
0.001607283861
0.001629708678
0.001642719523
0.001529541644
0.001546197289
0.001569786612
0.001598411089
0.001629799632
0.001661320938
0.001690021603
0.001712671226
0.001725811845
0.001611773189
0.001628590929
0.001652407079
0.001681302561
0.001712983172
0.001744792764
0.001773751998
0.001796603532
0.00180986086
0.001695077581
0.001712039846
0.001736058267
0.001765195472
0.001797136682
0.001829203632
0.001858393866
0.00188142597
0.001894787817
0.001779366327
0.001796456826
0.00182065474
0.001850006492
0.001882179081
0.00191447465
0.001943870245
0.001967063051
0.001980518055
0.001864555674
0.001881759319
0.001906115623
0.001935656732
0.0019680336
0.002000531113
0.002030108253
0.002053443288
0.002066980871
0.001950566463
0.001967869294
0.001992364459
0.002022071603
0.002054627642
0.002087302372
0.002117038957
0.002140499059
0.002154109384
0.002037323968
0.002054713087
0.002079329059
0.002109180669
0.002141892645
0.002174721689
0.002204597232
0.00222816648
0.002241840407
0.002124757742
0.002142221241
0.002166941348
0.002196917495
0.002229763928
0.002262726098
0.002292721631
0.002316385262
0.002330114308
0.002212801452
0.00223032835
0.002255137211
0.002285219502
0.002318180555
0.002351256267
0.00238135424
0.002405098584
0.002418874884
0.002301392718
0.002318972897
0.002343856338
0.002374027812
0.002407085181
0.002440256352
0.002470440545
0.002494252955
0.002508069222
0.002390472946
0.002408097094
0.002433042064
0.002463287099
0.002496423912
0.00252967386
0.002559929297
0.002583798082
0.002597647575
0.002479987168
0.002497646723
0.002522641217
0.002552945435
0.002586146156
0.002619459508
0.002649772374
0.00267368674
0.002687563224
0.002569883878
0.002587570975
0.002612603962
0.002642954144
0.00267620448
0.002709567081
0.002739924647
0.002763874635
0.002777772354
0.002660114873
0.002677822294
0.002702883649
0.002733267653
0.002766554468
0.002799953299
0.002830343845
0.002854320277
0.00286823392
0.002750635094
0.002768356223
0.002793436657
0.002823843344
0.002857154576
0.002890577674
0.002920990422
0.00294498485
0.00295890952
0.002841402471
0.002859131249
0.002884222253
0.002914641411
0.002947965996
0.002981402381
0.003011827427
0.003035832081
0.003049763271
0.00293237777
0.002950108651
0.002975202439
0.003005624716
0.003038952519
0.00307239212
0.003102820374
0.003126828115
0.003140761679
0.003023524443
0.00304125236
0.003066341811
0.003096758655
0.003130080395
0.003163513989
0.003193937118
0.003217941395
0.003231873523
0.003114808481
0.003132528809
0.003157607421
0.003188011015
0.003221318209
0.003254737356
0.003285147728
0.003309142533
0.00332306973
0.003206198279
0.003223906798
0.003248968639
0.00327935185
0.00331263675
0.003346033734
0.003376424368
0.003400404202
0.003414323262
0.00329766449
0.003315357359
0.003340397024
0.003370753349
0.003404008886
0.003437376665
0.003467741182
0.003491701014
0.003505609003
0.003389179901
0.003406853625
0.003431866195
0.003462189712
0.003495409447
0.003528741601
0.003559074178
0.003583009413
0.003596903649
0.003480719304
0.003498370707
0.003523351711
0.003553637037
0.003586815111
0.003620105791
0.003650401124
0.003674307569
0.0036881856
0.00357225937
0.003589885571
0.003614830953
0.003645073198
0.003678204287
0.003711448178
0.003741701436
0.003765575273
0.003779434864
0.003663778538
0.003681376927
0.003706283011
0.003736477743
0.003769557017
0.00380274929
0.003832956086
0.003856793841
0.003870632957
0.003755256902
0.003772825119
0.003797688579
0.003827831786
0.003860854869
0.003893991149
0.003924147501
0.003947946018
0.003961762807
0.003846676104
0.003864212019
0.00388902985
0.003919117906
0.003952080843
0.00398515717
0.004015259473
0.004039015891
0.004052808673
0.003938019235
0.003955520928
0.003980290423
0.004010320059
0.00404321928
0.004076232077
0.00410627707
0.0041299888
0.004143756053
0.004029270739
0.004046736484
0.004071455208
0.004101423481
0.004134255772
0.004167201816
0.004197186557
0.00422085126
0.004234591608
0.004120416322
0.004137844571
0.00416251034
0.004192414608
0.00422517708
0.004258053472
0.004287975315
0.004311590883
0.004325303083
0.004211442869
0.004228832237
0.004253443095
0.004283280994
0.004315971058
0.004348775199
0.004378631765
0.004402196306
0.004415879239
0.004302338361
0.004319687614
0.004344241816
0.004374011233
0.004406626578
0.004439356142
0.004469145305
0.004492657118
0.004506309781
0.004393091803
0.004410399843
0.004434895836
0.004464594893
0.004497133459
0.004529786373
0.004559506233
0.004582963801
0.004596585296
0.004483693147
0.004500959001
0.004525395413
0.004555022444
0.004587482403
0.004620056827
0.004649705694
0.004673107665
0.004686697189
0.00457413323
0.004591356043
0.004615731661
0.004645285195
0.004677664933
0.004710159239
0.004739735616
0.004763080792
0.004776637633
0.00466440371
0.00468158273
0.00470589649
0.004735375237
0.004767673336
0.00480008609
0.004829588659
0.00485287598
0.004866399506
0.004754497007
0.004771631579
0.004795882554
0.004825285386
0.004857500605
0.004889830553
0.004919258158
0.004942486693
0.004955976351
0.004844406246
0.004861495804
0.00488568319
0.004915009131
0.004947140394
0.004979386445
0.005008738079
0.005031907016
0.005045362318
0.004934125208
0.004951169266
0.004975292374
0.005004540584
0.005036586964
0.005068748178
0.005098022969
0.005121131605
0.005134552128
0.005023648282
0.005040646426
0.005064704671
0.005093874435
0.005125835143
0.005157910717
0.00518710792
0.005210155649
0.00522354103
0.005112970416
0.005129922302
0.005153915192
0.005183005911
0.005214880282
0.005246869538
0.005275988522
0.005298974829
0.005312324756
0.005202087081
0.005218992425
0.005242919555
0.005271930733
0.005303718217
0.005335620591
0.005364660829
0.005387585284
0.005400899496
0.005290994226
0.005307852798
0.005331713843
0.005360645081
0.005392345231
0.005424160265
0.005453121326
0.005475983574
0.005489261852
0.005379688245
0.005396499868
0.005420294573
0.005449145557
0.005480758022
0.005512485353
0.005541366892
0.005564166648
0.005577408815
0.005468165942
0.005484930485
0.00550865866
0.005537429156
0.005568953671
0.005600593022
0.005629394775
0.005652131815
0.005665337733
0.005556424498
0.005573141871
0.005596803387
0.005625493231
0.005656929611
0.005688480784
0.005717202559
0.005739876719
0.005753046281
0.005644461446
0.005661131597
0.005684726377
0.005713335472
0.005744683601
0.005776146471
0.00580478814
0.005827399308
0.00584053244
0.005732274635
0.005748897547
0.005772425565
0.005800953871
0.005832213699
0.005863588206
0.005892149703
0.005914697812
0.005927794469
0.005819862215
0.005836437901
0.005859899172
0.005888346705
0.00591951824
0.005950804381
0.005979285693
0.006001770724
0.006014830884
0.005907222605
0.005923751106
0.005947145686
0.005975512509
0.006006595812
0.00603779364
0.006066194803
0.006088616772
0.006101640437
0.005994354472
0.006010835857
0.006034163838
0.006062450056
0.006093445237
0.00612455485
0.006152875945
0.006175234906
0.006188222099
0.006081256717
0.006097691074
0.006120952579
0.006149158337
0.006180065548
0.006211087091
0.006239328237
0.006261624274
0.006274575038
0.006167928446
0.006184315885
0.006207511067
0.006235636546
0.006266455976
0.006297389631
0.006325550983
0.00634778421
0.006360698605
0.00625436896
0.006270709608
0.006293838646
0.006321884057
0.00635261593
0.006383461912
0.00641154366
0.006433714215
0.006446592314
0.006340577732
0.006356871735
0.006379934829
0.006407900409
0.006438544981
0.006469303539
0.006497305896
0.006519413942
0.006532255833
0.006426554397
0.006442801912
0.006465799283
0.006493685297
0.006524242848
0.006554914254
0.006582837463
0.006604883181
0.006617688964
0.006512298732
0.006528499929
0.006551431815
0.006579238546
0.006609709381
0.006640293935
0.006668138256
0.006690121844
0.006702891629
0.006597810643
0.006613965703
0.006636832357
0.006664560107
0.00669494455
0.006725442568
0.006753208283
0.006775129956
0.006787863861
0.006683090154
0.006699199265
0.006722000952
0.006749650037
0.00677994843
0.006810360245
0.006838047649
0.006859907631
0.006872605783
0.00676813739
0.006784200749
0.006806937743
0.006834508491
0.006864721185
0.006895047145
0.006922656543
0.006944455069
0.006957117599
0.006852952565
0.006868970373
0.006891642955
0.006919135702
0.006949263058
0.006979503516
0.007007035224
0.007028772535
0.007041399578
0.006937535965
0.006953508425
0.00697611688
0.007003531967
0.007033574351
0.007063729666
0.007091184002
0.007112860341
0.007125452034
0.007021887934
0.00703781525
0.007060359864
0.007087697631
0.00711765541
0.00714772594
0.00717510322
0.007196718832
0.007209275311
0.007106008856
0.00712189123
0.007144372285
0.007171633068
0.007201506602
0.0072314927
0.007258793237
0.007280348357
0.007292869755
0.007189899134
0.007205736763
0.007228154533
0.007255338659
0.007285128296
0.007315030301
0.007342254391
0.007363749247
0.00737623569
0.00727355917
0.007289352241
0.007311706987
0.007338814764
0.00736852083
0.007398339059
0.00742548698
0.007446921779
0.007459373383
0.007356989329
0.007372738016
0.007395029977
0.007422061686
0.007451684479
0.007481419215
0.00750849121
0.007529866134
0.007542282997
0.00744018991
0.007455894364
0.00747812375
0.007505079634
0.007534619405
0.007564270882
0.00759126715
0.007612582341
0.00762496454
0.007523161092
0.007538821438
0.007560988415
0.007587868663
0.0076173256
0.007646893988
0.007673814662
0.007695070211
0.007707417788
0.007605902881
0.007621519201
0.007643623878
0.007670428604
0.007699802812
0.00772928819
0.007756133316
0.00777732924
0.007789642195
0.007688415026
0.007703987351
0.007726029759
0.00775275898
0.007782050447
0.007811452772
0.00783822228
0.007859358499
0.007871636774
0.007770696928
0.007786225218
0.007808205282
0.00783485888
0.007864067444
0.007893386511
0.007920080177
0.007941156482
0.007953399939
0.007852747508
0.007868231627
0.007890149135
0.007916726821
0.007945852116
0.007975087508
0.008001704901
0.008022720915
0.008034929313
0.007934565052
0.00795000474
0.007971859299
0.007998360551
0.008027401949
0.008056552969
0.008083093391
0.008104048512
0.008116221479
0.008016147001
0.008031541838
0.008053332817
0.008079756816
0.008108713345
0.008137778933
0.008164241339
0.00818513468
0.008197271666
0.008097489705
0.008112839059
0.008134565523
0.008160911064
0.00818978131
0.008218759938
0.008245142834
0.008265973137
0.008278073371
0.008178588104
0.008193891076
0.008215551698
0.008241817081
0.00827059906
0.008299488604
0.008325789925
0.008346555459
0.008358617885
0.00825943535
0.008274690698
0.008296283651
0.008322466548
0.008351157559
0.008379955134
0.008406172091
0.008426870529
0.008438893732
0.008340022339
0.00835522839
0.008376751219
0.008402848511
0.008431444945
0.008460146718
0.008486275618
0.008506903887
0.008518886002
0.008420337166
0.008435491708
0.008456941174
0.008482948757
0.008511445883
0.008540046839
0.008566082863
0.008586636966
0.008598575571
0.00850036448
0.008515464634
0.008536836532
0.008562749089
0.008591140791
0.008619634466
0.00864557142
0.008666046226
0.008677938221
0.008580084747
0.008595126822
0.008616415766
0.008642226502
0.008670504982
0.008698883151
0.008724713168
0.008745102178
0.00875694364
0.008659473418
0.008674452742
0.008695651924
0.008721352263
0.008749507699
0.008777760027
0.008803473241
0.008823768318
0.008835554343
0.008738500007
0.008753410737
0.008774511655
0.008800090906
0.008828111077
0.008856224726
0.008881808911
0.008901999988
0.008913724519
0.008817127094
0.008831962008
0.008852954169
0.008878399158
0.008906269032
0.008934228249
0.008959668426
0.008979743194
0.008991398835
0.008895309271
0.008910059551
0.00893093015
0.008956224832
0.008983926139
0.00901171181
0.009036989845
0.009056933426
0.009068511252
0.008972992058
0.008987647061
0.009008380667
0.009033505725
0.009061016505
0.009088605712
0.009113699906
0.00913349453
0.009144983896
0.009050110839
0.009064657866
0.00908523609
0.009110168551
0.009137462735
0.009164828311
0.009189713001
0.009209337697
0.00922072606
0.009126589856
0.009141013934
0.009161415123
0.009186127977
0.009213174982
0.009240285132
0.00926493033
0.009284360642
0.009295633401
0.009202341324
0.009216625011
0.009236823971
0.009261285852
0.009288050231
0.009314868185
0.009339239294
0.009358447058
0.009369587428
0.00927726473
0.009291387952
0.009311355733
0.009335530662
0.009361971845
0.009388455612
0.009412513218
0.00943146642
0.009442455355
0.009351246387
0.009365186334
0.009384890087
0.009408737316
0.009434809462
0.009460911715
0.009484611503
0.009503274231
0.009514090407
0.009424159319
0.009437890406
0.009457293341
0.009480767333
0.009506419332
0.009532087443
0.009555380264
0.00957371279
0.009584332665
0.009495863549
0.009509357463
0.009528418939
0.009551469497
0.009576645156
0.009601821426
0.009624653549
0.009642612555
0.009653010519
0.009566206859
0.009579432712
0.009598108469
0.009620681055
0.009645319494
0.009669941599
0.009692255167
0.009709794143
0.009719942771
0.009635026083
0.00964795068
0.009666193239
0.009688229502
0.009712265783
0.009736267466
0.009758001178
0.009775071009
0.009784941415
0.009702148978
0.009714737204
0.009732496453
0.00975393498
0.009777300984
0.009800613002
0.009821703039
0.009838252774
0.009847815088
0.009767396678
0.009779612029
0.009796835995
0.009817613291
0.009840238858
0.00986279019
0.009883171375
0.009899149194
0.009908373147
0.009830586752
0.00984239199
0.009859027796
0.009879079495
0.00990089381
0.009922613113
0.009942220298
0.009957574657
0.009966430264
0.009891536806
0.00990289474
0.00991888974
0.009938152023
0.009959085224
0.009979902514
0.009998672174
0.0100133531
0.01002181144
0.009950068567
0.009960942944
0.009976246004
0.009994657196
0.01001464218
0.01003449069
0.01005236266
0.01006632316
0.01007435721
0.01000601234
0.01001636881
0.01003093171
0.01004843401
0.01006740836
0.01008622654
0.01010314587
0.01011634342
0.01012392894
0.01005921167
0.01006901884
0.01008279775
0.01009933902
0.010117247
0.01013498053
0.01015089934
0.01016329739
0.0101704138
0.0101095281
0.01011875854
0.01013171547
0.01014725106
0.01016404563