/*--------------------------------*- C++ -*----------------------------------*\
| =========                 |                                                 |
| \\      /  F ield         | OpenFOAM: The Open Source CFD Toolbox           |
|  \\    /   O peration     | Version:  2212                                  |
|   \\  /    A nd           | Website:  www.openfoam.com                      |
|    \\/     M anipulation  |                                                 |
\*---------------------------------------------------------------------------*/
FoamFile
{
    version     2.0;
    format      ascii;
    arch        "LSB;label=32;scalar=64";
    class       volScalarField;
    location    "23.25000000";
    object      C5H6_0;
}
// * * * * * * * * * * * * * * * * * * * * * * * * * * * * * * * * * * * * * //

dimensions      [0 0 0 0 0 0 0];

internalField   nonuniform List<scalar> 
3000
(
2.283563535e-22
2.565304864e-22
2.990446204e-22
3.556973261e-22
4.259106265e-22
5.077748816e-22
5.963558508e-22
6.808703884e-22
7.406437205e-22
8.573480294e-22
9.670142995e-22
1.132428177e-21
1.353346037e-21
1.629541931e-21
1.95946051e-21
2.337374582e-21
2.744070542e-21
3.104494481e-21
1.920328275e-21
2.18294025e-21
2.582834271e-21
3.125801707e-21
3.821610261e-21
4.680321999e-21
5.698613769e-21
6.819175771e-21
7.777381663e-21
3.657702147e-21
4.201467311e-21
5.041624414e-21
6.206599543e-21
7.737665153e-21
9.673692096e-21
1.200418607e-20
1.454226575e-20
1.659129743e-20
6.494978575e-21
7.552074087e-21
9.21108087e-21
1.155626335e-20
1.46979424e-20
1.872413061e-20
2.356772242e-20
2.871119862e-20
3.265979159e-20
1.116851235e-20
1.315252925e-20
1.631088124e-20
2.084509117e-20
2.699702812e-20
3.492136096e-20
4.438155316e-20
5.418431783e-20
6.14368513e-20
1.895986718e-20
2.260422115e-20
2.84732785e-20
3.699419756e-20
4.864146275e-20
6.364646205e-20
8.138867531e-20
9.941476811e-20
1.124216102e-19
3.208607614e-20
3.868138483e-20
4.939731871e-20
6.507558256e-20
8.659058795e-20
1.142518703e-19
1.466716678e-19
1.79130843e-19
2.021612914e-19
5.438822043e-20
6.619785559e-20
8.551011996e-20
1.139087915e-19
1.52949226e-19
2.030063097e-19
2.612520627e-19
3.189617558e-19
3.594556172e-19
9.251750116e-20
1.134976822e-19
1.479637212e-19
1.988101342e-19
2.687532096e-19
3.581981652e-19
4.616981752e-19
5.63493315e-19
6.343899453e-19
1.579982376e-19
1.950511022e-19
2.561149609e-19
3.463830539e-19
4.705582488e-19
6.290010416e-19
8.115841444e-19
9.902376959e-19
1.114037759e-18
2.708030743e-19
3.359526881e-19
4.435565118e-19
6.02824668e-19
8.218736131e-19
1.100871811e-18
1.421406508e-18
1.73390995e-18
1.949710542e-18
4.655589892e-19
5.797329398e-19
7.685933679e-19
1.048355369e-18
1.433019276e-18
1.922282218e-18
2.483149791e-18
3.028565667e-18
3.404288325e-18
8.023157406e-19
1.001913736e-18
1.332425615e-18
1.822267374e-18
2.495603357e-18
3.351141159e-18
4.330318212e-18
5.280770119e-18
5.934368868e-18
1.385235599e-18
1.733539547e-18
2.3107162e-18
3.166413713e-18
4.342377539e-18
5.835377261e-18
7.54213152e-18
9.196599786e-18
1.033288701e-17
2.39503059e-18
3.002020532e-18
4.008387199e-18
5.500700602e-18
7.551138965e-18
1.015281266e-17
1.312436802e-17
1.600204601e-17
1.797667021e-17
4.145257419e-18
5.202021123e-18
6.954727853e-18
9.554108779e-18
1.312503017e-17
1.76538273e-17
2.282301218e-17
2.782514331e-17
3.125518986e-17
7.1800107e-18
9.018484384e-18
1.206845081e-17
1.659205809e-17
2.280536663e-17
3.068228655e-17
3.966813057e-17
4.835829374e-17
5.431387204e-17
1.24434262e-17
1.564009357e-17
2.094407384e-17
2.881084528e-17
3.961421331e-17
5.330539665e-17
6.891663786e-17
8.400624305e-17
9.434235497e-17
2.157369382e-17
2.712954008e-17
3.63486407e-17
5.00216485e-17
6.879493677e-17
9.257822004e-17
1.196846772e-16
1.458724128e-16
1.638020828e-16
3.741277655e-17
4.706541541e-17
6.308269023e-17
8.683575379e-17
1.194412846e-16
1.60732719e-16
2.077714675e-16
2.531926084e-16
2.842753992e-16
6.488946639e-17
8.165409956e-17
1.094711904e-16
1.507160144e-16
2.073152302e-16
2.789613904e-16
3.605365558e-16
4.39260918e-16
4.931041603e-16
1.125482697e-16
1.416547173e-16
1.899440925e-16
2.615257903e-16
3.597176637e-16
4.839493083e-16
6.253086711e-16
7.616348868e-16
8.548133948e-16
1.951929895e-16
2.457067483e-16
3.294950474e-16
4.536561042e-16
6.238889313e-16
8.391268437e-16
1.083851386e-15
1.319666324e-15
1.480714952e-15
3.384511266e-16
4.260734577e-16
5.713721113e-16
7.865837883e-16
1.081465546e-15
1.454004315e-15
1.877175565e-15
2.284520212e-15
2.562434456e-15
5.866410879e-16
7.38536727e-16
9.903165464e-16
1.363024092e-15
1.873294606e-15
2.517291666e-15
3.247948725e-15
3.95037823e-15
4.429015928e-15
1.016302491e-15
1.279403162e-15
1.715290954e-15
2.360045648e-15
3.24188165e-15
4.353418884e-15
5.612681916e-15
6.821379225e-15
7.643711777e-15
1.759406895e-15
2.214651217e-15
2.968378101e-15
4.082218777e-15
5.603717448e-15
7.518562285e-15
9.683994162e-15
1.175844765e-14
1.316711581e-14
3.043055851e-15
3.829722758e-15
5.131110515e-15
7.052023461e-15
9.671942177e-15
1.296294478e-14
1.667651453e-14
2.022573871e-14
2.263034216e-14
5.257145654e-15
6.614260066e-15
8.857095154e-15
1.216290403e-14
1.666326741e-14
2.230352049e-14
2.865138351e-14
3.470141069e-14
3.878917868e-14
9.069254581e-15
1.140569442e-14
1.526231977e-14
2.093697017e-14
2.86449112e-14
3.827904834e-14
4.908846029e-14
5.935701468e-14
6.62730848e-14
1.561886656e-14
1.963138866e-14
2.62449748e-14
3.595624467e-14
4.911233753e-14
6.55039003e-14
8.38291421e-14
1.011717036e-13
1.128097794e-13
2.684415347e-14
3.371480164e-14
4.501970014e-14
6.157946136e-14
8.394416367e-14
1.117065749e-13
1.426164027e-13
1.71743079e-13
1.912089945e-13
4.60289271e-14
5.775280816e-14
7.70041472e-14
1.051247294e-13
1.429677059e-13
1.897468592e-13
2.415872387e-13
2.902023209e-13
3.225451614e-13
7.871294195e-14
9.863807199e-14
1.312797444e-13
1.7880543e-13
2.425035362e-13
3.208709679e-13
4.072678379e-13
4.878610335e-13
5.412133097e-13
1.341977526e-13
1.679063315e-13
2.22980328e-13
3.02872565e-13
4.094638862e-13
5.39914334e-13
6.829145077e-13
8.155448845e-13
9.028809226e-13
2.280216414e-13
2.847549709e-13
3.771668192e-13
5.106708538e-13
6.878921342e-13
9.035364912e-13
1.138477995e-12
1.355052855e-12
1.496871499e-12
3.85999285e-13
4.809382536e-13
6.350601668e-13
8.567008883e-13
1.1492983e-12
1.503127936e-12
1.886108148e-12
2.236889109e-12
2.465264848e-12
6.507675314e-13
8.086432822e-13
1.063981931e-12
1.429357078e-12
1.908838846e-12
2.484844836e-12
3.104048948e-12
3.667443882e-12
4.032086112e-12
1.092310968e-12
1.353058062e-12
1.77306951e-12
2.370868845e-12
3.150408219e-12
4.0804171e-12
5.073126716e-12
5.970287041e-12
6.547523322e-12
1.824751729e-12
2.252258527e-12
2.937901876e-12
3.908235559e-12
5.165196092e-12
6.654098391e-12
8.231984301e-12
9.648375505e-12
1.055436341e-11
3.032909379e-12
3.728407389e-12
4.838749147e-12
6.400790857e-12
8.410418292e-12
1.077360854e-11
1.32600112e-11
1.547703401e-11
1.688705174e-11
5.013956711e-12
6.136275971e-12
7.919467815e-12
1.041270879e-11
1.359803238e-11
1.731647571e-11
2.120091426e-11
2.464192624e-11
2.68183561e-11
8.242180872e-12
1.00380546e-11
1.287741545e-11
1.682262255e-11
2.182769555e-11
2.762826066e-11
3.364555512e-11
3.894241842e-11
4.227510415e-11
1.346877685e-11
1.631770477e-11
2.079959118e-11
2.698805594e-11
3.478456406e-11
4.3756356e-11
5.300073156e-11
6.1089486e-11
6.615363252e-11
2.187426759e-11
2.635427993e-11
3.336713003e-11
4.299024894e-11
5.503153536e-11
6.879325644e-11
8.288194462e-11
9.513964513e-11
1.027785034e-10
3.529927486e-11
4.228246566e-11
5.316013119e-11
6.799613187e-11
8.643825334e-11
1.073775755e-10
1.286841863e-10
1.471237245e-10
1.585661868e-10
5.659094254e-11
6.738112317e-11
8.410874708e-11
1.067899668e-10
1.348070903e-10
1.664212736e-10
1.984072103e-10
2.259536329e-10
2.429808264e-10
9.011868526e-11
1.066483052e-10
1.321560846e-10
1.66549279e-10
2.087813249e-10
2.561597046e-10
3.038429872e-10
3.447241002e-10
3.699048827e-10
1.425359323e-10
1.676460426e-10
2.062259722e-10
2.579705741e-10
3.211555303e-10
3.916601836e-10
4.622765161e-10
5.225736832e-10
5.595970042e-10
2.238965528e-10
2.617328408e-10
3.196270772e-10
3.968932743e-10
4.907561545e-10
5.949782172e-10
6.989106627e-10
7.873344623e-10
8.414786653e-10
3.49278611e-10
4.058474643e-10
4.920704803e-10
6.06619414e-10
7.451188036e-10
8.982230974e-10
1.050310541e-09
1.179294105e-09
1.258087705e-09
5.410989093e-10
6.250434309e-10
7.525390342e-10
9.212150399e-10
1.124293421e-09
1.347901654e-09
1.569270762e-09
1.756503253e-09
1.870656746e-09
8.32450208e-10
9.561334439e-10
1.143380829e-09
1.390180775e-09
1.686193835e-09
2.011004755e-09
2.331628188e-09
2.602204762e-09
2.766924088e-09
1.271824912e-09
1.452827769e-09
1.726063158e-09
2.084998249e-09
2.514075205e-09
2.983491591e-09
3.445733516e-09
3.835141206e-09
4.071955848e-09
1.929765e-09
2.192946218e-09
2.589216277e-09
3.10824253e-09
3.726897295e-09
4.401996861e-09
5.065461653e-09
5.623647168e-09
5.962886949e-09
2.908160327e-09
3.288471048e-09
3.859799937e-09
4.60617232e-09
5.493566542e-09
6.459820234e-09
7.407850155e-09
8.204596755e-09
8.688603922e-09
4.353167494e-09
4.899469665e-09
5.718500788e-09
6.785997191e-09
8.052341906e-09
9.428540214e-09
1.077671748e-08
1.190852586e-08
1.25956504e-08
6.473044499e-09
7.253248131e-09
8.420809964e-09
9.939366139e-09
1.173703097e-08
1.368693677e-08
1.559400011e-08
1.719277622e-08
1.81623631e-08
9.562583451e-09
1.06704817e-08
1.232560643e-08
1.447398018e-08
1.701194793e-08
1.975929178e-08
2.244110015e-08
2.468537051e-08
2.604439271e-08
1.40362192e-08
1.560044103e-08
1.793340856e-08
2.0955536e-08
2.451792726e-08
2.836559562e-08
3.211324158e-08
3.524317598e-08
3.713546797e-08
2.04721847e-08
2.266769285e-08
2.593669439e-08
3.01624899e-08
3.513214959e-08
4.048694138e-08
4.569070161e-08
5.002838966e-08
5.264713675e-08
2.967020722e-08
3.27328114e-08
3.728497551e-08
4.315670129e-08
5.004550745e-08
5.745056963e-08
6.463163232e-08
7.060768149e-08
7.421144572e-08
4.272547068e-08
4.697009112e-08
5.326814401e-08
6.137429129e-08
7.086267999e-08
8.104002611e-08
9.089157344e-08
9.907885867e-08
1.04011646e-07
6.112268939e-08
6.696669026e-08
7.562333683e-08
8.674267374e-08
9.973097028e-08
1.136359441e-07
1.270748728e-07
1.382306788e-07
1.449470059e-07
8.685638817e-08
9.484973948e-08
1.066720914e-07
1.218301771e-07
1.395035e-07
1.58392645e-07
1.766236498e-07
1.917419822e-07
2.008380732e-07
1.22584869e-07
1.33448497e-07
1.494940376e-07
1.700335139e-07
1.939416468e-07
2.194559281e-07
2.440502135e-07
2.644261632e-07
2.766783538e-07
1.718237326e-07
1.864966536e-07
2.081415248e-07
2.35807409e-07
2.67961579e-07
3.022273422e-07
3.35218157e-07
3.625259542e-07
3.789371769e-07
2.391823692e-07
2.588781502e-07
2.878988369e-07
3.249405352e-07
3.679292024e-07
4.136788615e-07
4.576754693e-07
4.940613136e-07
5.159162572e-07
3.306462751e-07
3.569196226e-07
3.955892587e-07
4.448807245e-07
5.020056679e-07
5.627190948e-07
6.210397219e-07
6.69229679e-07
6.981586922e-07
4.539074483e-07
4.887313652e-07
5.399310962e-07
6.051093412e-07
6.805418657e-07
7.606078043e-07
8.374306599e-07
9.008526186e-07
9.389036349e-07
6.187422071e-07
6.645952208e-07
7.319396869e-07
8.175600584e-07
9.165150083e-07
1.021409753e-06
1.121939065e-06
1.204855951e-06
1.254572609e-06
8.374310866e-07
8.973927843e-07
9.853668302e-07
1.097071099e-06
1.225993819e-06
1.362471515e-06
1.493112769e-06
1.60076191e-06
1.665264653e-06
1.125209113e-06
1.203060611e-06
1.317162206e-06
1.461852789e-06
1.62861086e-06
1.804896354e-06
1.973431643e-06
2.112162499e-06
2.195227851e-06
1.500727685e-06
1.60105196e-06
1.74793366e-06
1.933943982e-06
2.148011906e-06
2.373983278e-06
2.589734164e-06
2.76713383e-06
2.873265407e-06
1.986501371e-06
2.114776393e-06
2.30237492e-06
2.539622565e-06
2.812243852e-06
3.099588077e-06
3.373550027e-06
3.598543368e-06
3.733026767e-06
2.609304905e-06
2.771980661e-06
3.009621599e-06
3.309727862e-06
3.654035795e-06
4.016357956e-06
4.361287908e-06
4.644197364e-06
4.813130091e-06
3.400478713e-06
3.605027782e-06
3.903490456e-06
4.279847781e-06
4.710924119e-06
5.163788944e-06
5.594226437e-06
5.946775969e-06
6.157063441e-06
4.396096781e-06
4.651027403e-06
5.022554243e-06
5.490322467e-06
6.0251732e-06
6.586058167e-06
7.118261409e-06
7.553510253e-06
7.812819761e-06
5.636949949e-06
5.951770968e-06
6.410006547e-06
6.98602041e-06
7.643450051e-06
8.331592323e-06
8.983374075e-06
9.515569162e-06
9.832235804e-06
7.168302178e-06
7.553431038e-06
8.113278858e-06
8.815853323e-06
9.616224364e-06
1.045234986e-05
1.124280411e-05
1.188714537e-05
1.227002727e-05
9.039387751e-06
9.505996035e-06
1.018338618e-05
1.103201275e-05
1.199688492e-05
1.300281647e-05
1.395193544e-05
1.472425536e-05
1.518253979e-05
1.130263391e-05
1.186242962e-05
1.267399733e-05
1.36889334e-05
1.484058757e-05
1.603873995e-05
1.716693115e-05
1.808329821e-05
1.862626513e-05
1.401261515e-05
1.467756659e-05
1.564025005e-05
1.68420136e-05
1.820287664e-05
1.961565786e-05
2.094318169e-05
2.201944568e-05
2.265620008e-05
1.722477014e-05
1.800678247e-05
1.913735679e-05
2.054614902e-05
2.21381471e-05
2.378729647e-05
2.533365439e-05
2.658495912e-05
2.732414746e-05
2.099393768e-05
2.19044987e-05
2.321907067e-05
2.485415839e-05
2.669803572e-05
2.860393772e-05
3.038724841e-05
3.182754225e-05
3.267707124e-05
2.537278967e-05
2.642260588e-05
2.793610013e-05
2.981519591e-05
3.192984171e-05
3.411085989e-05
3.61472642e-05
3.778884093e-05
3.875561745e-05
3.041025478e-05
3.160890107e-05
3.333457075e-05
3.547325136e-05
3.787507956e-05
4.034695481e-05
4.265008936e-05
4.450319017e-05
4.559289973e-05
3.615003233e-05
3.750563848e-05
3.945463307e-05
4.186583477e-05
4.456825763e-05
4.734361036e-05
4.992418411e-05
5.19966865e-05
5.321362441e-05
4.262929157e-05
4.414828607e-05
4.632930424e-05
4.902292751e-05
5.203595616e-05
5.51239233e-05
5.798942252e-05
6.028663369e-05
6.163359792e-05
4.987763645e-05
5.156456325e-05
5.398361162e-05
5.696625791e-05
6.029625224e-05
6.370227779e-05
6.685681346e-05
6.938137686e-05
7.085962262e-05
5.791639284e-05
5.977381012e-05
6.243407908e-05
6.570893096e-05
6.935850746e-05
7.308429239e-05
7.652859318e-05
7.928051077e-05
8.088980027e-05
6.675824677e-05
6.878670979e-05
7.16885677e-05
7.525541108e-05
7.922350399e-05
8.326710613e-05
8.699864089e-05
8.997541374e-05
9.171406751e-05
7.640723269e-05
7.860535608e-05
8.174645401e-05
8.560183094e-05
8.988389162e-05
9.42399563e-05
9.825319705e-05
0.0001014500029
0.0001033150378
8.685904355e-05
8.922363284e-05
9.259910432e-05
9.673657676e-05
0.0001013248854
0.0001059850115
0.0001102717299
0.0001136817086
0.0001156690039
9.810161287e-05
0.000100627851
0.0001042305803
0.0001086410833
0.0001135251771
0.0001184782977
0.0001230279728
0.0001266425482
0.0001287470338
0.0001101159015
0.0001127975834
0.0001166185686
0.0001212908135
0.0001264578908
0.0001316907508
0.0001364910028
0.0001403002304
0.0001425160901
0.0001228768848
0.0001257066515
0.0001297352996
0.000134656192
0.0001400916124
0.0001455892552
0.0001506262904
0.0001546192132
0.0001569400979
0.0001363544586
0.00013932405
0.0001435485584
0.0001487036317
0.0001543913784
0.0001601376036
0.0001653966284
0.0001695616103
0.0001719808594
0.0001505144756
0.0001536149729
0.0001580226618
0.0001633964709
0.0001693195631
0.0001752973136
0.0001807628447
0.0001850877487
0.0001875983011
0.0001653197083
0.0001685417504
0.0001731193598
0.0001786958243
0.000184836663
0.0001910283292
0.0001966844115
0.0002011566082
0.0002037511771
0.0001807307321
0.000184064702
0.0001887986413
0.0001945613249
0.0002009019627
0.0002072895982
0.000213119847
0.0002177264769
0.0002203976815
0.0001967067012
0.0002001428724
0.0002050194105
0.0002109517235
0.0002174740162
0.0002240393773
0.0002300272988
0.0002347554867
0.0002374959593
0.0002132059785
0.000216734613
0.0002217399847
0.0002278252225
0.0002345108962
0.0002412357976
0.0002473650321
0.0002522020509
0.0002550045241
0.0002301865375
0.0002337978505
0.0002389182382
0.0002451397577
0.0002519707568
0.000258837308
0.0002650918149
0.0002700252158
0.0002728825912
0.0002476058605
0.0002512901946
0.000256512025
0.0002628535329
0.0002698122358
0.0002768030233
0.0002831672242
0.000288184937
0.000291090338
0.0002654216288
0.0002691695946
0.0002744796941
0.0002809254094
0.0002879947817
0.0002950930025
0.0003015518883
0.0003066422959
0.0003095891073
0.0002835921908
0.0002873947478
0.0002927804462
0.0002993152103
0.0003064789119
0.000313668468
0.0003202076743
0.0003253596663
0.0003283415623
0.0003020768942
0.0003059254034
0.0003113746018
0.0003179839535
0.0003252264109
0.0003324919739
0.0003390978323
0.0003443008409
0.0003473118044
0.0003208363319
0.000324722589
0.0003302238042
0.0003368940276
0.0003442004809
0.0003515275324
0.0003581871035
0.0003634311261
0.0003664654603
0.0003398325233
0.0003437487795
0.0003492911701
0.0003560093229
0.0003633658524
0.0003707407076
0.0003774417987
0.00038271741
0.0003857697447
0.000359029048
0.0003629680197
0.0003685413995
0.0003752953267
0.0003826888655
0.0003900986821
0.0003968298529
0.0004021282087
0.0004051935021
0.0003783911409
0.0003823460134
0.000387940854
0.0003947191899
0.0004021375234
0.0004095703002
0.0004163208606
0.0004216336942
0.0004247072312
0.0003978857587
0.0004018501826
0.0004074576089
0.0004142497698
0.0004216815272
0.0004291260935
0.0004358860928
0.0004412057074
0.0004442830948
0.0004174816201
0.0004214497043
0.0004270614832
0.0004338576534
0.0004412922909
0.0004487382897
0.0004554985012
0.0004608177574
0.0004638949167
0.0004371492271
0.0004411155274
0.0004467240518
0.0004535151638
0.0004609429427
0.0004683808082
0.0004751327088
0.0004804450086
0.000483518168
0.0004568608675
0.0004608203728
0.0004664186421
0.0004731963522
0.0004806083124
0.0004880292434
0.0004947649899
0.0005000642584
0.0005031299421
0.0004765906037
0.00048053872
0.0004861203167
0.0004928769778
0.0005002649077
0.0005076608379
0.0005143732401
0.0005196539057
0.0005227089225
0.0004963142475
0.0005002467803
0.0005058058456
0.0005125344769
0.0005198908808
0.0005272544469
0.0005339369391
0.0005391939112
0.0005422353429
0.0005160093252
0.0005199224603
0.0005254536677
0.0005321479229
0.0005394659868
0.0005467904941
0.0005534371055
0.0005586657514
0.0005616909397
0.0005356550328
0.0005395453171
0.0005450438442
0.0005516979786
0.0005589715345
0.0005662509225
0.0005728562458
0.0005780523677
0.0005810589011
0.0005552321839
0.0005590965049
0.0005645580058
0.0005711668427
0.0005783903323
0.0005856191391
0.0005921782993
0.00059733811
0.0006003238103
0.0005747231511
0.0005785587168
0.0005839792936
0.0005905381903
0.0005977066291
0.0006048799556
0.0006113885785
0.0006165086771
0.0006194715863
0.0005941118026
0.0005979161217
0.0006032922963
0.0006097971104
0.0006169060512
0.0006240195259
0.0006304737068
0.0006355510555
0.000638489422
0.0006133834358
0.0006171542972
0.0006224829834
0.00062893004
0.0006359755375
0.0006430252818
0.0006494215548
0.0006544534548
0.0006573657207
0.0006325247071
0.0006362601609
0.0006415386376
0.0006479246967
0.0006549032727
0.0006618858669
0.000668221175
0.0006732052436
0.0006760900314
0.0006515235616
0.0006552219001
0.0006604477844
0.0006667700096
0.0006736786195
0.0006805910701
0.0006868627359
0.0006917968846
0.0006946529847
0.0006703691606
0.0006740289001
0.0006792001225
0.0006854560509
0.0006922920516
0.0006991317592
0.0007053374571
0.0007102198699
0.0007130462288
0.0006890518106
0.0006926716743
0.000697786454
0.0007039739671
0.0007107350856
0.0007174998153
0.0007236375445
0.0007284666572
0.0007312623656
0.0007075628924
0.0007111417933
0.0007161986153
0.0007223159117
0.0007290002159
0.0007356880679
0.000741756127
0.0007465306077
0.0007492948896
0.0007258947912
0.0007294318169
0.0007344294101
0.0007404749791
0.0007470808499
0.0007536902322
0.0007596871948
0.0007644059254
0.0007671381274
0.0007440408292
0.0007475352268
0.0007524725431
0.0007584451406
0.0007649712451
0.000771500848
0.0007774255398
0.0007820875981
0.0007847871794
0.0007619952
0.0007654463623
0.0007703225573
0.0007762211821
0.0007826664493
0.0007891152206
0.000794966698
0.0007995713412
0.0008022378644
0.0007797529053
0.0007831603575
0.0007879747725
0.0007937986448
0.0008001622419
0.0008065293645
0.0008123068941
0.0008168535432
0.000819486665
0.0007973096942
0.0008006730823
0.0008054252267
0.000811173768
0.0008174550789
0.0008237399493
0.0008294429892
0.0008339312143
0.0008365306777
0.0008146620061
0.0008179810848
0.0008226706208
0.000828343435
0.0008345420401
0.0008407442487
0.0008463724304
0.0008508019372
0.0008533675634
0.0008318069152
0.000835081538
0.0008397082658
0.0008453051214
0.0008514207786
0.000857540091
0.0008630932035
0.0008674638207
0.0008699955017
0.000848742079
0.0008519721882
0.0008565360322
0.0008620568463
0.000868089474
0.0008741258141
0.0008796037885
0.0008839154554
0.0008864131476
0.0008654656896
0.0008686513071
0.0008731523035
0.000878597127
0.0008845467873
0.0008905002214
0.0008959031165
0.0009001558729
0.0009026195908
0.0008819764269
0.0008851176464
0.0008895559316
0.0008949249348
0.0009007918194
0.0009066625416
0.0009119905313
0.0009161845067
0.0009186143169
0.0008982734164
0.0009013703953
0.0009057461951
0.0009110396558
0.0009168240718
0.0009226123904
0.0009278657513
0.000932001156
0.0009343971721
0.0009143561883
0.0009174091411
0.000921722761
0.000926941052
0.0009326434095
0.000938349735
0.0009435288355
0.0009476059519
0.0009499683291
0.0009302246401
0.0009332338316
0.0009374856479
0.0009426292268
0.0009482500274
0.0009538748608
0.0009589801511
0.0009629993254
0.0009653282568
0.0009458790016
0.0009488447413
0.0009530351927
0.0009581045921
0.0009636444182
0.0009691883406
0.0009742203431
0.0009781819788
0.0009804776902
0.0009613198023
0.0009642424391
0.0009683720194
0.0009733678376
0.000978827343
0.0009842910062
0.000989250307
0.0009931548577
0.0009954176045
0.0009765478416
0.0009794277585
0.0009834970098
0.0009884199028
0.0009937998036
0.0009991839213
0.001004071163
0.001007919126
0.00101014919
0.0009915641605
0.0009944017706
0.0009984112767
0.001003261951
0.001008563018
0.001013868358
0.001018684231
0.001022476143
0.001024673827
0.001006370016
0.001009165758
0.00101311614
0.001017895345
0.001023118395
0.001028345772
0.00103309101
0.001036827441
0.00103899307
0.001020966858
0.001023721194
0.001027613101
0.001032321624
0.001037467517
0.001042617786
0.001047293158
0.001050974707
0.00105310862
0.001035356306
0.001038069715
0.001041903827
0.001046542487
0.001051612114
0.001056686164
0.001061292472
0.001064919762
0.001067022315
0.001049540132
0.00105221311
0.001055990126
0.001060559769
0.001065554051
0.0010705528
0.001075090871
0.001078664546
0.001080736108
0.001063520237
0.001066153293
0.001069873932
0.001074375426
0.00107929531
0.001084219698
0.001088690382
0.001092211104
0.001094252051
0.00107729864
0.001079892294
0.00108355729
0.001087991519
0.00109283797
0.00109768896
0.001102093123
0.001105561568
0.001107572288
0.001090877459
0.001093432239
0.001097042337
0.001101410203
0.0011061842
0.001110962769
0.001115301292
0.001118718148
0.001120699034
0.001104258897
0.001106775339
0.001110331293
0.001114633706
0.001119336242
0.00112404338
0.001128317154
0.001131683117
0.001133634568
0.001117445232
0.001119923874
0.001123426446
0.001127664325
0.001132296402
0.001136933105
0.001141143031
0.001144458804
0.001146381223
0.001130438801
0.001132880187
0.001136330142
0.001140504411
0.001145067035
0.001149634307
0.00115378129
0.001157047581
0.001158941374
0.001143241994
0.001145646667
0.001149044773
0.001153156359
0.001157650541
0.001162149387
0.001166234337
0.001169451855
0.001171317429
0.00115585724
0.001158225744
0.001161572771
0.001165622601
0.00117004935
0.001174480779
0.001178504605
0.001181674062
0.001183511826
0.001168287001
0.001170619881
0.001173916594
0.001177905596
0.001182265922
0.001186630939
0.001190594549
0.001193716655
0.001195527017
0.001180533763
0.001182831562
0.001186078727
0.001190007822
0.001194302731
0.00119860234
0.001202506639
0.001205582104
0.001207365472
0.00119260003
0.001194863286
0.001198061664
0.001201931773
0.001206162266
0.001210397464
0.001214243355
0.001217272883
0.001219029662
0.001204488317
0.001206717566
0.001209867913
0.001213679947
0.001217847019
0.001222018798
0.001225807176
0.00122879147
0.001230522064
0.00121620114
0.001218396915
0.001221499981
0.001225254847
0.001229359484
0.001233468828
0.001237200583
0.001240140339
0.001241845149
0.001227741019
0.001229903845
0.001232960374
0.001236658969
0.00124070215
0.001244750034
0.001248426047
0.001251321954
0.001253001378
0.001239110464
0.001241240864
0.001244251592
0.001247894803
0.001251877495
0.001255864884
0.001259486029
0.00126233877
0.001263993201
0.001250311978
0.001252410467
0.00125537612
0.001258964826
0.001262887986
0.001266815834
0.001270382971
0.001273193224
0.00127482305
0.001261348048
0.001263415134
0.001266336431
0.001269871497
0.001273736069
0.001277605319
0.0012811193
0.00128388773
0.001285493337
0.00127222114
0.001274257327
0.001277134974
0.001280617256
0.001284424171
0.001288235751
0.001291697416
0.001294424681
0.001296006448
0.001282933701
0.001284939481
0.001287774177
0.001291204516
0.001294954691
0.001298709515
0.00130211969
0.001304806439
0.001306364738
0.001293488147
0.001295464007
0.001298256436
0.00130163566
0.001305329997
0.001309028964
0.001312388462
0.00131503533
0.001316570529
0.001303886864
0.001305833281
0.001308584118
0.001311913038
0.001315552421
0.001319196413
0.001322506031
0.001325113643
0.001326626102
0.001314132201
0.001316049642
0.001318759546
0.001322038958
0.001325624254
0.001329214135
0.001332474652
0.00133504362
0.00133653369
0.001324226463
0.001326115387
0.001328785002
0.001332015684
0.001335547739
0.001339084351
0.001342296529
0.001344827447
0.001346295472
0.001334171906
0.001336032758
0.001338662712
0.001341845421
0.001345325058
0.001348809221
0.001351973799
0.001354467246
0.00135591356
0.001343970728
0.00134580394
0.001348394843
0.001351530312
0.001354958329
0.001358390835
0.001361508528
0.001363965063
0.001365389985
0.001353625055
0.001355431045
0.001357983484
0.00136107242
0.001364449584
0.001367831196
0.001370902688
0.001373322845
0.001374726683
0.001363136931
0.001364916099
0.001367430636
0.001370473715
0.001373800757
0.001377132199
0.001380158142
0.001382542427
0.001383925472
0.001372508296
0.001374261021
0.001376738189
0.001379736049
0.001383013659
0.001386295612
0.001389276614
0.001391625501
0.001392988022
0.001381740969
0.001383467605
0.0013859079
0.001388861133
0.001392089949
0.00139532304
0.001398259661
0.00140057358
0.001401915822
0.001390836613
0.001392537485
0.001394941358
0.001397850503
0.0014010311
0.001404215893
0.001407108628
0.001409387959
0.001410710138
0.001399796704
0.001401472098
0.001403839949
0.001406705476
0.001409838355
0.00141297533
0.001415824601
0.001418069662
0.001419371954
0.001408622484
0.001410272642
0.001412604804
0.001415427103
0.001418512668
0.001421602209
0.001424408343
0.001426619376
0.001427901912
0.001417314911
0.00141894002
0.001421236745
0.001424016103
0.001427054644
0.001430097015
0.001432860224
0.001435037375
0.001436300229
0.00142587459
0.001427474768
0.00142973621
0.001432472791
0.001435464458
0.001438459774
0.00144118013
0.001443323429
0.001444566606
0.001434301699
0.001435876982
0.001438103176
0.001440796992
0.001443741763
0.00144668996
0.001449367365
0.001451476704
0.001452700123
0.001442595901
0.001444146225
0.001446337059
0.001448987942
0.001451885587
0.001454786385
0.001457420534
0.001459495636
0.001460699119
0.00145075624
0.00145228142
0.001454436608
0.001457044172
0.001459894215
0.001462747074
0.001465337421
0.00146737781
0.001468561056
0.001458781032
0.00146028074
0.00146239979
0.001464963391
0.001467765061
0.00147056914
0.001473114849
0.001475119813
0.001476282383
0.001466667737
0.001468141479
0.001470223656
0.001472742348
0.001475494536
0.001478248636
0.001480748539
0.001482717095
0.001483858388
0.001474412836
0.001475859924
0.001477904215
0.001480376703
0.001483077907
0.001485780424
0.001488232971
0.001490163829
0.001491283059
0.0014820117
0.001483431223
0.001485436296
0.001487860892
0.001490509165
0.001493158039
0.001495561252
0.001497452772
0.00149854895
0.001489458457
0.00149084926
0.001492813427
0.001495188004
0.001497780906
0.00150037357
0.001502725
0.001504575166
0.001505647079
0.001496745887
0.001498106541
0.001500027727
0.001502349677
0.001504884234
0.001507417573
0.001509714264
0.001511520652
0.001512566848
0.001503865324
0.001505194112
0.001507069824
0.00150933603
0.0015118087
0.001514279021
0.001516517485
0.001518277248
0.001519296028
0.001510806603
0.0015121015
0.001513928815
0.001516135629
0.001518542287
0.001520945308
0.001523121516
0.00152483138
0.0015258208
0.001517558043
0.001518816721
0.001520592276
0.001522735523
0.001525071463
0.00152740232
0.001529511718
0.001531167996
0.001532125873
0.001524106502
0.001525326332
0.001527046346
0.001529121343
0.001531381308
0.001533634593
0.001535672141
0.001537270772
0.001538194711
0.001530437493
0.00153161557
0.001533275878
0.001535277484
0.001537455733
0.001539625564
0.001541585804
0.001543122412
0.001544009843
0.001536535387
0.001537668576
0.00153926469
0.001541187392
0.00154327779
0.00154535792
0.001547235087
0.001548705071
0.001549553307
0.00154238371
0.001543468703
0.001544995907
0.001546833934
0.001548830096
0.001550814056
0.001552602218
0.001554000874
0.00155480718
0.001547965536
0.001548998934
0.001550452403
0.00155219988
0.001554095345
0.001555976636
0.001557669875
0.001558992542
0.001559754226
0.001553263966
0.001554242387
0.001555617334
0.001557268471
0.001559056918
0.001560829233
0.001562421857
0.001563664091
0.001564378606
0.001558262706
0.001559182899
0.001560474754
0.001562024061
0.001563699556
0.001565357038
0.00156684382
0.001568001588
0.001568666646
0.001562946698
0.001563805682
0.001565010284
0.001566452817
0.001568010079
0.001569547595
0.001570924031
0.001571993913
0.001572607603
0.001567302799
0.001568098006
0.00156921181
0.001570543417
0.001571978101
0.001573391525
0.001574654086
0.001575633479
0.001576194385
0.001571320466
0.001572049887
0.001573070166
0.001574287739
0.001575596703
0.00157688318
0.00157802956
0.001578916862
0.001579424167
0.001574992402
0.001575654719
0.001576579756
0.001577681455