/*--------------------------------*- C++ -*----------------------------------*\
| =========                 |                                                 |
| \\      /  F ield         | OpenFOAM: The Open Source CFD Toolbox           |
|  \\    /   O peration     | Version:  2212                                  |
|   \\  /    A nd           | Website:  www.openfoam.com                      |
|    \\/     M anipulation  |                                                 |
\*---------------------------------------------------------------------------*/
FoamFile
{
    version     2.0;
    format      ascii;
    arch        "LSB;label=32;scalar=64";
    class       volScalarField;
    location    "23.25000000";
    object      C6H6_0;
}
// * * * * * * * * * * * * * * * * * * * * * * * * * * * * * * * * * * * * * //

dimensions      [0 0 0 0 0 0 0];

internalField   nonuniform List<scalar> 
3000
(
1.777177213e-24
1.996441649e-24
2.327306759e-24
2.768204925e-24
3.314638056e-24
3.951744431e-24
4.641123453e-24
5.29885558e-24
5.764039938e-24
6.672288106e-24
7.525762918e-24
8.813091991e-24
1.053237933e-23
1.268186648e-23
1.524944899e-23
1.819055514e-23
2.135565557e-23
2.416064522e-23
1.494490343e-23
1.698867409e-23
2.010083861e-23
2.432646815e-23
2.974157959e-23
3.642448071e-23
4.434930916e-23
5.307005294e-23
6.052726465e-23
2.84659691e-23
3.269780693e-23
3.92363071e-23
4.830269485e-23
6.021817197e-23
7.528524983e-23
9.342225678e-23
1.131747939e-22
1.291213281e-22
5.054699696e-23
5.877381448e-23
7.168499035e-23
8.993631024e-23
1.143863433e-22
1.457200452e-22
1.834151688e-22
2.234441346e-22
2.541739536e-22
8.691864847e-23
1.023592068e-22
1.269389966e-22
1.62226364e-22
2.101036485e-22
2.717745566e-22
3.45398249e-22
4.216880024e-22
4.781306498e-22
1.475546588e-22
1.759167459e-22
2.215925275e-22
2.879063518e-22
3.785508811e-22
4.953268862e-22
6.334051855e-22
7.736927696e-22
8.749181698e-22
2.497090284e-22
3.010368415e-22
3.844333098e-22
5.064489781e-22
6.738889309e-22
8.891621195e-22
1.141468324e-21
1.394080985e-21
1.573314833e-21
4.232748686e-22
5.151830378e-22
6.654802176e-22
8.864921175e-22
1.190323252e-21
1.579891164e-21
2.033187175e-21
2.482311315e-21
2.797453705e-21
7.200149738e-22
8.832926702e-22
1.151523695e-21
1.54723454e-21
2.091564649e-21
2.787667617e-21
3.593153669e-21
4.385371614e-21
4.937122737e-21
1.229617049e-21
1.517979975e-21
1.993207817e-21
2.695716829e-21
3.662106952e-21
4.895183737e-21
6.316131835e-21
7.706498305e-21
8.669968971e-21
2.107517665e-21
2.614542786e-21
3.451966657e-21
4.691466809e-21
6.396209346e-21
8.567505331e-21
1.106205801e-20
1.349410766e-20
1.517356997e-20
3.623200346e-21
4.511756052e-21
5.981557265e-21
8.158797531e-21
1.115243406e-20
1.496010977e-20
1.93250466e-20
2.3569731e-20
2.64937825e-20
6.244000724e-21
7.797366767e-21
1.036956659e-20
1.418174692e-20
1.942196613e-20
2.60801661e-20
3.37005852e-20
4.109745164e-20
4.618406635e-20
1.078055887e-20
1.349122499e-20
1.798308679e-20
2.46425297e-20
3.379443658e-20
4.54136668e-20
5.869643596e-20
7.157229078e-20
8.041541554e-20
1.863926126e-20
2.336314417e-20
3.119516572e-20
4.280905468e-20
5.876653613e-20
7.901399174e-20
1.021400414e-19
1.245354931e-19
1.399029528e-19
3.226035452e-20
4.048458964e-20
5.412498266e-20
7.435459484e-20
1.021451946e-19
1.373904365e-19
1.776194788e-19
2.165484298e-19
2.432426749e-19
5.587824035e-20
7.018611236e-20
9.392239404e-20
1.291272461e-19
1.774821527e-19
2.387840702e-19
3.087161595e-19
3.763471206e-19
4.226962485e-19
9.68406299e-20
1.217186077e-19
1.629966915e-19
2.242196287e-19
3.082965497e-19
4.148478157e-19
5.363418804e-19
6.537763267e-19
7.342168396e-19
1.67896692e-19
2.111349161e-19
2.828823186e-19
3.89292134e-19
5.353947447e-19
7.204875067e-19
9.314427799e-19
1.135248127e-18
1.274785301e-18
2.911639272e-19
3.662853293e-19
4.909393395e-19
6.757969174e-19
9.295485834e-19
1.25089806e-18
1.616975853e-18
1.97046466e-18
2.212365642e-18
5.050005263e-19
6.354708326e-19
8.519565931e-19
1.172943326e-18
1.613425199e-18
2.171009511e-18
2.805866039e-18
3.418536267e-18
3.83756985e-18
8.759038796e-19
1.102424024e-18
1.478234787e-18
2.035317422e-18
2.799493032e-18
3.766322459e-18
4.866447892e-18
5.927402993e-18
6.652562221e-18
1.519084187e-18
1.912206154e-18
2.564286334e-18
3.530566414e-18
4.855398804e-18
6.530482058e-18
8.435044216e-18
1.027026761e-17
1.152362422e-17
2.633986779e-18
3.315905211e-18
4.446688067e-18
6.121567144e-18
8.416476472e-18
1.131574941e-17
1.460906825e-17
1.777921698e-17
1.99420771e-17
4.565518469e-18
5.747642187e-18
7.707111845e-18
1.060769827e-17
1.457886479e-17
1.959075455e-17
2.527707341e-17
3.074371209e-17
3.446869706e-17
7.909346769e-18
9.956920648e-18
1.334920564e-17
1.836699166e-17
2.522985657e-17
3.388036511e-17
4.368054569e-17
5.30871999e-17
5.94869808e-17
1.369253679e-17
1.723546345e-17
2.31013226e-17
3.176975762e-17
4.361077999e-17
5.851300828e-17
7.536542343e-17
9.150980174e-17
1.024727237e-16
2.368250027e-17
2.980471426e-17
3.993272938e-17
5.488218256e-17
7.527162927e-17
1.008837682e-16
1.297845246e-16
1.574062659e-16
1.761200274e-16
4.091359473e-17
5.147530104e-17
6.89301046e-17
9.465747294e-17
1.296814295e-16
1.735765468e-16
2.229786193e-16
2.700627924e-16
3.018757364e-16
7.058123047e-17
8.87645105e-17
1.187785932e-16
1.629414067e-16
2.229282496e-16
2.979056616e-16
3.820296179e-16
4.619443649e-16
5.157684937e-16
1.215534115e-16
1.527807565e-16
2.042508121e-16
2.798285075e-16
3.822154445e-16
5.097823384e-16
6.523980368e-16
7.873660526e-16
8.779390619e-16
2.089139112e-16
2.623845452e-16
3.503646126e-16
4.792405065e-16
6.532931968e-16
8.693534102e-16
1.109908307e-15
1.336585874e-15
1.488078834e-15
3.582189153e-16
4.494597036e-16
5.992827295e-16
8.181303992e-16
1.112642337e-15
1.476699826e-15
1.880146169e-15
2.258491723e-15
2.510198998e-15
6.1258144e-16
7.676482277e-16
1.021681161e-15
1.391548519e-15
1.887277296e-15
2.497169693e-15
3.169550968e-15
3.796765305e-15
4.211977933e-15
1.044390658e-15
1.306726766e-15
1.735338654e-15
2.357097812e-15
3.186641847e-15
4.201868863e-15
5.314763759e-15
6.346955992e-15
7.02664629e-15
1.774573051e-15
2.216098665e-15
2.935291368e-15
3.974282856e-15
5.353502558e-15
7.031748733e-15
8.860174376e-15
1.054566211e-14
1.16493617e-14
3.004031259e-15
3.742891244e-15
4.94234084e-15
6.667253605e-15
8.944384687e-15
1.169805367e-14
1.467858606e-14
1.740852865e-14
1.918585619e-14
5.064587154e-15
6.293250992e-15
8.280417033e-15
1.112393877e-14
1.485549161e-14
1.933824095e-14
2.415717803e-14
2.854178174e-14
3.137959867e-14
8.500898823e-15
1.053015623e-14
1.37988837e-14
1.845123949e-14
2.451798055e-14
3.175574463e-14
3.948147419e-14
4.646359413e-14
5.095591605e-14
1.420113243e-14
1.752819305e-14
2.286419303e-14
3.04157847e-14
4.019803739e-14
5.17853654e-14
6.406520239e-14
7.508821177e-14
8.213902745e-14
2.360367916e-14
2.9016375e-14
3.765757714e-14
4.981411312e-14
6.545395971e-14
8.384538495e-14
1.031956977e-13
1.20449571e-13
1.314229663e-13
3.902138193e-14
4.775580482e-14
6.163343956e-14
8.103698774e-14
1.058266135e-13
1.347651897e-13
1.649955927e-13
1.917750463e-13
2.087129718e-13
6.414564769e-14
7.81219958e-14
1.002192231e-13
1.309226006e-13
1.69874255e-13
2.150166968e-13
2.618457577e-13
3.030680994e-13
3.290044146e-13
1.048233776e-13
1.269951074e-13
1.618752069e-13
2.100365195e-13
2.707121115e-13
3.405340234e-13
4.124771171e-13
4.754266672e-13
5.148376486e-13
1.702439207e-13
2.051095657e-13
2.596867229e-13
3.345777234e-13
4.282873068e-13
5.353853295e-13
6.450274398e-13
7.404200576e-13
7.998676317e-13
2.747369333e-13
3.290836323e-13
4.137383755e-13
5.291974232e-13
6.727190344e-13
8.356728987e-13
1.001483735e-12
1.144981928e-12
1.23402815e-12
4.404730947e-13
5.24448013e-13
6.546294011e-13
8.311410315e-13
1.049173996e-12
1.295195246e-12
1.544105656e-12
1.758466151e-12
1.890967786e-12
7.014892346e-13
8.301325401e-13
1.028644414e-12
1.29629803e-12
1.624943854e-12
1.993625658e-12
2.36466918e-12
2.682775301e-12
2.878711316e-12
1.109643253e-12
1.305068316e-12
1.605313247e-12
2.00799031e-12
2.499667514e-12
3.048270119e-12
3.597710583e-12
4.066839742e-12
4.354883855e-12
1.743363603e-12
2.037843297e-12
2.488404586e-12
3.089676312e-12
3.820026909e-12
4.630894609e-12
5.439421687e-12
6.127235225e-12
6.548371967e-12
2.720420795e-12
3.160726879e-12
3.831778039e-12
4.723157927e-12
5.800729537e-12
6.991704862e-12
8.174531813e-12
9.177476704e-12
9.790055855e-12
4.216226984e-12
4.869701151e-12
5.862045018e-12
7.17462162e-12
8.754469301e-12
1.049346379e-11
1.221442017e-11
1.366944086e-11
1.455623587e-11
6.490393719e-12
7.453457644e-12
8.911122366e-12
1.08317439e-11
1.313435144e-11
1.565963274e-11
1.815081256e-11
2.025169311e-11
2.152976275e-11
9.92463865e-12
1.133463985e-11
1.346241584e-11
1.625621184e-11
1.959381383e-11
2.324222653e-11
2.683132472e-11
2.985144475e-11
3.16858735e-11
1.507667035e-11
1.712832972e-11
2.021611188e-11
2.425774726e-11
2.907085512e-11
3.431699059e-11
3.946526742e-11
4.378923556e-11
4.641225708e-11
2.275633213e-11
2.572450949e-11
3.018098437e-11
3.599790896e-11
4.290586372e-11
5.041629787e-11
5.777119192e-11
6.393873524e-11
6.767630352e-11
3.413253655e-11
3.8403634e-11
4.480274555e-11
5.313485337e-11
6.300558074e-11
7.371376167e-11
8.418160611e-11
9.294830888e-11
9.825692262e-11
5.088247048e-11
5.699758284e-11
6.614237838e-11
7.80239918e-11
9.20698951e-11
1.072791606e-10
1.221253122e-10
1.345463582e-10
1.420639092e-10
7.539834504e-11
8.411227754e-11
9.712222796e-11
1.13994234e-10
1.339033911e-10
1.554279886e-10
1.764140034e-10
1.939590197e-10
2.045746191e-10
1.110717473e-10
1.234332826e-10
1.418630249e-10
1.657253496e-10
1.938399122e-10
2.241967969e-10
2.53767077e-10
2.784764937e-10
2.934256139e-10
1.626815302e-10
1.801418452e-10
2.061415122e-10
2.397589149e-10
2.793158042e-10
3.219833391e-10
3.635168462e-10
3.982127686e-10
4.192055894e-10
2.369181739e-10
2.614760554e-10
2.980058816e-10
3.451831863e-10
4.006357046e-10
4.603990052e-10
5.185449843e-10
5.671122443e-10
5.965046442e-10
3.430855467e-10
3.77479939e-10
4.285945202e-10
4.945406779e-10
5.71983242e-10
6.553894707e-10
7.365093067e-10
8.042647941e-10
8.452827897e-10
4.940296322e-10
5.419919241e-10
6.132121129e-10
7.050155569e-10
8.127369738e-10
9.286869143e-10
1.041426761e-09
1.135596913e-09
1.192626265e-09
7.073524501e-10
7.739325118e-10
8.727250798e-10
9.999652183e-10
1.149158197e-09
1.309662293e-09
1.465682359e-09
1.59600931e-09
1.674962189e-09
1.006977091e-09
1.098958093e-09
1.235344509e-09
1.410865278e-09
1.616520497e-09
1.837647515e-09
2.052533225e-09
2.232029073e-09
2.340798804e-09
1.425135189e-09
1.551552279e-09
1.738867685e-09
1.979738197e-09
2.261749519e-09
2.564793386e-09
2.859170419e-09
3.105035932e-09
3.254048722e-09
2.004849635e-09
2.177626233e-09
2.433447392e-09
2.762131235e-09
3.146633914e-09
3.559518517e-09
3.960387588e-09
4.295106123e-09
4.49797514e-09
2.802981126e-09
3.037693537e-09
3.384949763e-09
3.830697932e-09
4.351653508e-09
4.910586036e-09
5.452883944e-09
5.90549339e-09
6.179775643e-09
3.893895586e-09
4.210671689e-09
4.678945244e-09
5.27941786e-09
5.980447727e-09
6.731818441e-09
7.460199642e-09
8.067734972e-09
8.435785307e-09
5.373789373e-09
5.79834021e-09
6.425352463e-09
7.228461436e-09
8.164916151e-09
9.167426825e-09
1.013824497e-08
1.094733202e-08
1.143724148e-08
7.36567991e-09
7.930454334e-09
8.763721453e-09
9.829670698e-09
1.107090461e-08
1.239789004e-08
1.368134252e-08
1.474991061e-08
1.539650891e-08
1.002503142e-08
1.077047405e-08
1.186910185e-08
1.327258443e-08
1.490438639e-08
1.664627454e-08
1.832865621e-08
1.972772412e-08
2.057361839e-08
1.354594032e-08
1.452182252e-08
1.595839533e-08
1.779088926e-08
1.991800126e-08
2.218483928e-08
2.437083535e-08
2.618631298e-08
2.72829284e-08
1.816775518e-08
1.943453847e-08
2.129704272e-08
2.366913072e-08
2.641776905e-08
2.934172613e-08
3.215666049e-08
3.449109829e-08
3.589968034e-08
2.418195559e-08
2.581213796e-08
2.8205849e-08
3.124947336e-08
3.476975296e-08
3.850749824e-08
4.209944315e-08
4.507365441e-08
4.686618913e-08
3.19390673e-08
3.401845584e-08
3.706770723e-08
4.093826143e-08
4.540641483e-08
5.014126115e-08
5.468290897e-08
5.843738687e-08
6.069739387e-08
4.185535166e-08
4.448420108e-08
4.833395115e-08
5.32121053e-08
5.883238451e-08
6.477608745e-08
7.04662855e-08
7.516233829e-08
7.79854931e-08
5.441898122e-08
5.771293734e-08
6.253004817e-08
6.862320731e-08
7.5629361e-08
8.302346861e-08
9.008832534e-08
9.590885984e-08
9.940340615e-08
7.019540249e-08
7.428619388e-08
8.026034374e-08
8.780364706e-08
9.645987665e-08
1.055765383e-07
1.142700224e-07
1.214199176e-07
1.257068375e-07
8.983159592e-08
9.486742418e-08
1.022115867e-07
1.114683711e-07
1.22069688e-07
1.332118512e-07
1.438158244e-07
1.525218533e-07
1.577347734e-07
1.140589712e-07
1.202045623e-07
1.291550026e-07
1.404166752e-07
1.532886063e-07
1.667895551e-07
1.796132053e-07
1.90123483e-07
1.96408306e-07
1.436946835e-07
1.511309774e-07
1.619467356e-07
1.755320274e-07
1.91029644e-07
2.072518647e-07
2.226305314e-07
2.352134888e-07
2.427277529e-07
1.796412207e-07
1.885646918e-07
2.015265504e-07
2.177801494e-07
2.362864289e-07
2.55619817e-07
2.739132308e-07
2.888561368e-07
2.977681176e-07
2.228841854e-07
2.335058073e-07
2.489147592e-07
2.682053539e-07
2.901289107e-07
3.129883671e-07
3.345783521e-07
3.521854257e-07
3.626730089e-07
2.744882801e-07
2.870321591e-07
3.052074218e-07
3.279252092e-07
3.536974646e-07
3.805199529e-07
4.058076632e-07
4.26397837e-07
4.386471954e-07
3.355915808e-07
3.502933035e-07
3.715699389e-07
3.981236777e-07
4.281955574e-07
4.594367185e-07
4.88839499e-07
5.127439055e-07
5.269480269e-07
4.07398261e-07
4.245030089e-07
4.492292281e-07
4.800429326e-07
5.14881201e-07
5.510116337e-07
5.84959606e-07
6.125188681e-07
6.288759788e-07
4.911699878e-07
5.109304802e-07
5.394647217e-07
5.749741035e-07
6.15057451e-07
6.565587776e-07
6.954912577e-07
7.270526673e-07
7.457646036e-07
5.882162586e-07
6.108905899e-07
6.435984611e-07
6.842472297e-07
7.300622342e-07
7.774230692e-07
8.217849252e-07
8.576995948e-07
8.789701652e-07
6.998839701e-07
7.257334054e-07
7.629845789e-07
8.092207061e-07
8.612577804e-07
9.149697138e-07
9.652077616e-07
1.005827798e-06
1.029861029e-06
8.27546526e-07
8.56833315e-07
8.989984603e-07
9.512705028e-07
1.010019924e-06
1.070573597e-06
1.127133051e-06
1.172808675e-06
1.199807494e-06
9.725927809e-07
1.005578044e-06
1.05302587e-06
1.111779438e-06
1.17772755e-06
1.245608895e-06
1.308929908e-06
1.360007206e-06
1.390171851e-06
1.136416099e-06
1.173357833e-06
1.226452312e-06
1.29212674e-06
1.365752374e-06
1.441438985e-06
1.511953932e-06
1.568772326e-06
1.602299028e-06
1.320403771e-06
1.361555e-06
1.420652812e-06
1.493678052e-06
1.575449108e-06
1.659407498e-06
1.737538e-06
1.800428148e-06
1.837507931e-06
1.525926957e-06
1.571533961e-06
1.636981866e-06
1.71777589e-06
1.808146953e-06
1.90082954e-06
1.986984043e-06
2.056265971e-06
2.097083599e-06
1.75433085e-06
1.804631919e-06
1.876765364e-06
1.965731806e-06
2.065141312e-06
2.166984017e-06
2.261555683e-06
2.337537191e-06
2.382270279e-06
2.006927269e-06
2.062151359e-06
2.141292387e-06
2.238818489e-06
2.347686652e-06
2.459106875e-06
2.562471824e-06
2.645447168e-06
2.694265471e-06
2.284986705e-06
2.345352403e-06
2.431808284e-06
2.538263242e-06
2.65699034e-06
2.778385319e-06
2.890901211e-06
2.981150021e-06
3.034214694e-06
2.589731934e-06
2.655446647e-06
2.749508769e-06
2.865242447e-06
2.994207497e-06
3.125953062e-06
3.247958025e-06
3.345744389e-06
3.40320761e-06
2.922332643e-06
2.993591996e-06
3.095535058e-06
3.220877069e-06
3.360436885e-06
3.502886582e-06
3.634698352e-06
3.740270361e-06
3.802275067e-06
3.283901115e-06
3.360888556e-06
3.470970036e-06
3.606229153e-06
3.756717735e-06
3.910202163e-06
4.052117771e-06
4.165707263e-06
4.232387e-06
3.675488938e-06
3.758375529e-06
3.876835409e-06
4.022299187e-06
4.184027351e-06
4.348854086e-06
4.50114974e-06
4.622972222e-06
4.694451108e-06
4.098084686e-06
4.18702897e-06
4.314089566e-06
4.470024331e-06
4.64327986e-06
4.819733534e-06
4.982664711e-06
5.112919439e-06
5.18931221e-06
4.55261215e-06
4.647760303e-06
4.783626546e-06
4.950277683e-06
5.135325592e-06
5.323668165e-06
5.497469876e-06
5.636340069e-06
5.717752209e-06
5.03992997e-06
5.141416035e-06
5.286275778e-06
5.463868115e-06
5.660951074e-06
5.861422284e-06
6.046309482e-06
6.193962654e-06
6.28049059e-06
5.560831733e-06
5.668777915e-06
5.822802351e-06
6.011540667e-06
6.220879579e-06
6.433697515e-06
6.629865634e-06
6.786454021e-06
6.878185363e-06
6.11604659e-06
6.230563613e-06
6.393907784e-06
6.593977438e-06
6.81577212e-06
7.041133927e-06
7.248759515e-06
7.414420572e-06
7.511434406e-06
6.706240345e-06
6.827427864e-06
7.000231251e-06
7.211798893e-06
7.446228867e-06
7.684311527e-06
7.903552964e-06
8.07840993e-06
8.180777142e-06
7.332016939e-06
7.459964002e-06
7.642351172e-06
7.865565529e-06
8.112790878e-06
8.363752072e-06
8.59475035e-06
8.77891286e-06
8.886696484e-06
7.99392029e-06
8.128705827e-06
8.320787128e-06
8.555779842e-06
8.815942125e-06
9.079921148e-06
9.322800694e-06
9.516365423e-06
9.629621017e-06
8.692436411e-06
8.834129749e-06
9.036002033e-06
9.282888538e-06
9.556111743e-06
9.83323045e-06
1.008809998e-05
1.029115132e-05
1.040992735e-05
9.427995751e-06
9.576657142e-06
9.788404513e-06
1.004728493e-05
1.033367645e-05
1.062404023e-05
1.089099364e-05
1.110360436e-05
1.122794259e-05
1.020097572e-05
1.035665688e-05
1.057835144e-05
1.084931149e-05
1.114896312e-05
1.145266187e-05
1.17317791e-05
1.195401108e-05
1.208394697e-05
1.101170332e-05
1.117444797e-05
1.14061506e-05
1.168926251e-05
1.20022514e-05
1.231936052e-05
1.261070844e-05
1.284261332e-05
1.297817644e-05
1.186045793e-05
1.20303023e-05
1.227206338e-05
1.256738677e-05
1.289377644e-05
1.322435779e-05
1.352799109e-05
1.376961098e-05
1.391082536e-05
1.274747402e-05
1.292444742e-05
1.317630756e-05
1.348389035e-05
1.382373164e-05
1.416783447e-05
1.44837965e-05
1.473516463e-05
1.488204921e-05
1.367294401e-05
1.38570693e-05
1.411906008e-05
1.443893934e-05
1.47922713e-05
1.514993323e-05
1.547825683e-05
1.57393982e-05
1.589196715e-05
1.463702103e-05
1.482831512e-05
1.510045977e-05
1.543266253e-05
1.579951338e-05
1.617076124e-05
1.651146956e-05
1.678240161e-05
1.69406647e-05
1.563982167e-05
1.583829599e-05
1.612061006e-05
1.646515414e-05
1.684554211e-05
1.723039282e-05
1.758350009e-05
1.786423324e-05
1.802819623e-05
1.668142865e-05
1.688708965e-05
1.717958162e-05
1.753647638e-05
1.793041054e-05
1.832887194e-05
1.86943842e-05
1.89849225e-05
1.915458743e-05
1.77618935e-05
1.797474299e-05
1.827741494e-05
1.8646662e-05
1.905414303e-05
1.946621468e-05
1.98441305e-05
2.014447212e-05
2.031983766e-05
1.888123899e-05
1.910127465e-05
1.941412275e-05
1.979571671e-05
2.021673769e-05
2.064241156e-05
2.103272271e-05
2.134286051e-05
2.152392223e-05
2.003946162e-05
2.02666773e-05
2.058969243e-05
2.098362149e-05
2.141816857e-05
2.18574298e-05
2.226012186e-05
2.258004388e-05
2.276679457e-05
2.12365339e-05
2.147092004e-05
2.180408824e-05
2.221033482e-05
2.265838791e-05
2.311121542e-05
2.352626842e-05
2.385595831e-05
2.404838823e-05
2.247240655e-05
2.27139505e-05
2.305725348e-05
2.347579481e-05
2.393732817e-05
2.440369531e-05
2.483108424e-05
2.517052173e-05
2.536861888e-05
2.374701059e-05
2.399569692e-05
2.434911249e-05
2.477992112e-05
2.525490397e-05
2.573477908e-05
2.617447443e-05
2.652363572e-05
2.672738605e-05
2.506025928e-05
2.531607007e-05
2.567957257e-05
2.612261688e-05
2.661101392e-05
2.710436088e-05
2.755632911e-05
2.791518727e-05
2.812457492e-05
2.641204995e-05
2.667496509e-05
2.704852577e-05
2.750377042e-05
2.800554235e-05
2.851232105e-05
2.897652506e-05
2.934505036e-05
2.956005784e-05
2.780226576e-05
2.807226316e-05
2.845585052e-05
2.89232569e-05
2.943836086e-05
2.995852768e-05
3.043492721e-05
3.081308745e-05
3.103369586e-05
2.923077723e-05
2.950783311e-05
2.990141322e-05
3.038093983e-05
3.090932983e-05
3.144283807e-05
3.193139009e-05
3.231915089e-05
3.254534007e-05
3.069744377e-05
3.098153283e-05
3.138506967e-05
3.187667246e-05
3.241829979e-05
3.296510004e-05
3.346575909e-05
3.38630842e-05
3.409483291e-05
3.220211507e-05
3.249321069e-05
3.290666638e-05
3.341029912e-05
3.396511269e-05
3.452515321e-05
3.503787171e-05
3.544472325e-05
3.568200928e-05
3.374463229e-05
3.404270672e-05
3.446604182e-05
3.498165637e-05
3.554960306e-05
3.612283007e-05
3.664755868e-05
3.706389733e-05
3.730669768e-05
3.532482931e-05
3.562985384e-05
3.606302753e-05
3.659057415e-05
3.717159907e-05
3.77579571e-05
3.829464491e-05
3.872043018e-05
3.896872116e-05
3.694253375e-05
3.725447884e-05
3.769744917e-05
3.823687673e-05
3.883092354e-05
3.943035568e-05
3.997895049e-05
4.041414088e-05
4.066789823e-05
3.859756795e-05
3.891640338e-05
3.936912744e-05
3.992038368e-05
4.052739484e-05
4.113984294e-05
4.170029152e-05
4.21448447e-05
4.240404367e-05
4.028974988e-05
4.061544487e-05
4.107787896e-05
4.164091071e-05
4.226082764e-05
4.288623263e-05
4.345848083e-05
4.391235383e-05
4.417696928e-05
4.201889393e-05
4.235141724e-05
4.282351705e-05
4.339827037e-05
4.403103372e-05
4.466933573e-05
4.525332877e-05
4.571647805e-05
4.598648458e-05
4.378481166e-05
4.412413171e-05
4.460585242e-05
4.519227281e-05
4.583782263e-05
4.648896119e-05
4.708464375e-05
4.755702541e-05
4.783239736e-05
4.558731242e-05
4.593339737e-05
4.642469382e-05
4.702272635e-05
4.768100224e-05
4.834491648e-05
4.895223287e-05
4.943380272e-05
4.971451428e-05
4.742620403e-05
4.777902185e-05
4.827984862e-05
4.888943808e-05
4.956037934e-05
5.02370081e-05
5.085590239e-05
5.134661606e-05
5.163264133e-05
4.930129322e-05
4.966081178e-05
5.017112332e-05
5.079221433e-05
5.147576009e-05
5.216504206e-05
5.279545821e-05
5.329527125e-05
5.358658429e-05
5.121238617e-05
5.15785733e-05
5.209832398e-05
5.273086112e-05
5.342695048e-05
5.412882431e-05
5.477070627e-05
5.527957423e-05
5.557614909e-05
5.315928895e-05
5.353211246e-05
5.406125671e-05
5.470518457e-05
5.541375667e-05
5.612816111e-05
5.678145289e-05
5.72993314e-05
5.76011422e-05
5.514180781e-05
5.552123562e-05
5.605972793e-05
5.671499125e-05
5.74359854e-05
5.816285933e-05
5.882750513e-05
5.935434995e-05
5.966137087e-05
5.715974964e-05
5.754574975e-05
5.809354477e-05
5.876008849e-05
5.94934442e-05
6.023272677e-05
6.090867099e-05
6.144443808e-05
6.175664343e-05
5.921292214e-05
5.96054627e-05
6.016251531e-05
6.084028462e-05
6.158594173e-05
6.23375724e-05
6.302475976e-05
6.356940532e-05
6.388676956e-05
6.130113419e-05
6.170018353e-05
6.226644886e-05
6.295538927e-05
6.371328796e-05
6.447720656e-05
6.517558214e-05
6.572906265e-05
6.60515604e-05
6.342419597e-05
6.382972263e-05
6.440515611e-05
6.510521353e-05
6.587529441e-05
6.665144119e-05
6.736095045e-05
6.792322272e-05
6.825082881e-05
6.558191925e-05
6.5993892e-05
6.65784494e-05
6.728957011e-05
6.807177425e-05
6.886008994e-05
6.95806788e-05
7.015169999e-05
7.048438944e-05
6.777411747e-05
6.819250535e-05
6.878614279e-05
6.950827356e-05
7.030254252e-05
7.110296837e-05
7.183458319e-05
7.241431086e-05
7.275205893e-05
7.000060593e-05
7.042537824e-05
7.102805226e-05
7.17611403e-05
7.256741618e-05
7.337989397e-05
7.412248165e-05
7.471087374e-05
7.505365592e-05
7.226120189e-05
7.269232822e-05
7.330399575e-05
7.40479888e-05
7.486621426e-05
7.569068634e-05
7.644419428e-05
7.704120916e-05
7.738900119e-05
7.455572467e-05
7.499317491e-05
7.56137933e-05
7.636863962e-05
7.71987579e-05
7.80351672e-05
7.879954335e-05
7.940513983e-05
7.97579177e-05
7.68839957e-05
7.732774005e-05
7.795726711e-05
7.872291549e-05
7.956487041e-05
8.041316047e-05
8.118835333e-05
8.180249066e-05
8.216023063e-05
7.924583861e-05
7.969584759e-05
8.033424156e-05
8.111064133e-05
8.196437732e-05
8.28244923e-05
8.361045094e-05
8.42330888e-05
8.459576739e-05
8.164107922e-05
8.209732366e-05
8.274454324e-05
8.35316443e-05
8.43971064e-05
8.526899106e-05
8.606566511e-05
8.669676366e-05
8.706435766e-05
8.406954562e-05
8.453199667e-05
8.518800102e-05
8.59857538e-05
8.686288766e-05
8.774648739e-05
8.855382705e-05
8.919334688e-05
8.956583333e-05
8.653106811e-05
8.699969724e-05
8.766444596e-05
8.847280146e-05
8.936155333e-05
9.025681411e-05
9.107477013e-05
9.172267229e-05
9.210002851e-05
8.902547921e-05
8.950025821e-05
9.017371135e-05
9.09926211e-05
9.189293784e-05
9.279980626e-05
9.362832995e-05
9.42845759e-05
9.466677946e-05
9.155261362e-05
9.203351459e-05
9.271563264e-05
9.354504871e-05
9.445687773e-05
9.537530097e-05
9.621434415e-05
9.687889579e-05
9.726592449e-05
9.411230817e-05
9.45993035e-05
9.529004737e-05
9.612992233e-05
9.705321162e-05
9.79831374e-05
9.883265241e-05
9.950547203e-05
9.98973039e-05
9.670440168e-05
9.719746405e-05
9.789679505e-05
9.874708193e-05
9.968178e-05
0.0001006231566
0.0001014830962
0.0001021641465
0.0001025607598
9.932873499e-05
9.982783732e-05
0.0001005357171
0.0001013963694
0.0001023424252
0.0001032952013
0.0001041655188
0.0001048547627
0.0001052561358
0.0001019851507
0.0001024902661
0.0001032066567
0.0001040776282
0.0001050349911
0.0001059991158
0.0001068797647
0.0001075771655
0.0001079832771
0.000104673493
0.0001051845949
0.0001059094584
0.0001067907034
0.0001077593231
0.0001087347457
0.0001096256799
0.000110331201
0.0001107420298
0.0001073936074
0.0001079106692
0.0001086439681
0.0001095354409
0.0001105152673
0.0001115019375
0.0001124031109
0.0001131167159
0.0001135322407
0.0001101453403
0.0001106683355
0.0001114100324
0.0001123116874
0.0001133026704
0.0001143005379
0.0001152119046
0.000115933557
0.0001163537565
0.0001129285385
0.0001134574409
0.0001142074981
0.0001151192897
0.0001161213792
0.0001171303934
0.0001180519072
0.0001187815705
0.0001192064232
0.0001157430491
0.0001162778318
0.0001170362117
0.000117958094
0.0001189712396
0.0001199913496
0.0001209229638
0.0001216606009
0.0001220900854
0.0001185887179
0.0001191293541
0.0001198960185
0.0001208279451
0.0001218520955
0.0001228832496
0.0001238249169
0.0001245704902
0.0001250045844
0.0001214653888
0.0001220118513
0.0001227867613
0.0001237286847
0.0001247637877
0.0001258059329
0.0001267576047
0.0001275110756
0.0001279497568
0.0001243729027
0.0001249251632
0.0001257082789
0.0001266601503
0.0001277061518
0.0001287592335
0.0001297208595
0.0001304821877
0.0001309254325
0.0001273110949
0.0001278691244
0.0001286604041
0.0001296221726
0.0001306790163
0.0001317429772
0.0001327145045
0.0001334836477
0.0001339314312
0.0001302797936
0.0001308435612
0.0001316429611
0.000132614573
0.000133682199
0.0001347569782
0.0001357383504
0.0001365152635
0.000136967559
0.000133278816
0.0001338482889
0.000134655762
0.0001356371594
0.0001367155035
0.0001378010351
0.0001387921911
0.0001395768249
0.0001400336034
0.0001363079647
0.0001368831072
0.0001376986023
0.0001386897221
0.0001397787136
0.000140874925
0.0001418757974
0.0001426680973
0.0001431293265
0.0001393670223
0.0001399477948
0.000140771255
0.0001417720267
0.0001428715867
0.0001439783967
0.0001449889092
0.0001457888136
0.0001462544569
0.0001424557448
0.0001430421024
0.0001438734632
0.000144883807
0.0001459938454
0.0001471111609
0.0001481312263
0.0001489386643
0.0001494086795
0.0001455738527
0.0001461657439
0.0001470049309
0.0001480247543
0.0001491451667
0.0001502728794
0.0001513023957
0.0001521172842
0.0001525916217
0.0001487210206
0.000149318385
0.000150165311
0.0001511945052
0.0001523251683
0.00015346315
0.0001545019963
0.0001553242364
0.0001558028372
0.0001518968634
0.0001524996292
0.0001533541902
0.0001543926254
0.000155533392
0.0001566814891
0.00015772952
0.0001585589929
0.0001590417856
0.0001551009199
0.0001557090008
0.0001565710717
0.0001576185912
0.0001587692831
0.0001599273097
0.0001609843487
0.0001618209098
0.0001623078078
0.0001583326329
0.0001589459239
0.0001598153525
0.0001608717656
0.0001620321659
0.0001631998948
0.0001642657268
0.0001651091993
0.0001656000966
0.0001615913241
0.0001622096972
0.0001630862974
0.000164151371
0.000165321214
0.0001664983672
0.000167572728
0.0001684228953
0.0001689176617
0.0001648761663
0.0001654994643
0.0001663830082
0.0001674564563
0.0001686354161
0.0001698216524
0.000170904218
0.0001717608138
0.0001722592896
0.0001681861494
0.0001688141797
0.0001697043875
0.0001707858595
0.0001719735364
0.0001731684374
0.0001742588103
0.0001751215082
0.0001756234974
0.0001715200422
0.000172152569
0.0001730490983
0.0001741381648
0.0001753340698
0.0001765371235
0.0001776348179
0.000178503219
0.0001790084821
0.0001748763494
0.0001755130847
0.0001764155176
0.0001775116552
0.0001787151922
0.0001799257753
0.0001810301995
0.0001819038187
0.0001824120647
0.0001782532634
0.0001788938574
0.0001798016869
0.0001809042604
0.0001821147069
0.0001833320643
0.0001844425029
0.0001853207536
0.0001858316309
0.0001816486133
0.0001822926439
0.0001832052577
0.0001843135015
0.0001855299876
0.0001867532114
0.0001878688045
0.0001887509828
0.0001892640698
0.0001850598098
0.000185706771
0.0001866234364
0.0001877364345
0.0001889579202
0.0001901859267
0.0001913056499
0.0001921909181
0.0001927057135
0.0001884837895
0.0001891330798
0.0001900529263
0.0001911695921
0.0001923948458
0.0001936263527
0.0001947489957
0.0001956363656
0.0001961522788
0.0001919169597
0.0001925678703
0.0001934898734
0.0001946089295
0.0001958365053
0.0001970700101
0.0001981941567
0.0001990824737
0.0001995988157
0.0001953551459
0.0001960068498
0.000196929815
0.0001980497743
0.0001992779917
0.0002005117513
0.0002016357615
0.0002025236905
0.0002030396658
0.0001987935459
0.0001994450875
0.0002003676363
0.0002014867852
0.0002027137115
0.0002039457249
0.0002050677197
0.0002059537342
0.0002064684342
0.0002022266919
0.0002028769789
0.0002037975377
0.0002049139232
0.0002061373599
0.0002073653557
0.0002084832067
0.0002093655806
0.0002098779798
0.0002056484258
0.0002062962237
0.0002072130162
0.0002083244377
0.0002095419126
0.0002107633423
0.000211874667
0.0002127514725
0.0002132604275
0.0002090518905
0.0002096958202
0.000210606865
0.0002117108726
0.0002129196393
0.0002141316787
0.000215233843
0.0002161029535
0.0002166072056
0.0002124295404
0.0002130680802
0.0002139711944
0.0002150650943
0.0002162621404
0.0002174616997
0.0002185518296
0.0002194109304
0.0002199091122
0.0002157731749
0.0002164046673
0.000217297477
0.0002183783463
0.0002195604114
0.0002207441559
0.0002218191581
0.0002226657645
0.0002231564118
0.0002190739964
0.0002196966604
0.0002205766194