/*--------------------------------*- C++ -*----------------------------------*\
| =========                 |                                                 |
| \\      /  F ield         | OpenFOAM: The Open Source CFD Toolbox           |
|  \\    /   O peration     | Version:  2212                                  |
|   \\  /    A nd           | Website:  www.openfoam.com                      |
|    \\/     M anipulation  |                                                 |
\*---------------------------------------------------------------------------*/
FoamFile
{
    version     2.0;
    format      ascii;
    arch        "LSB;label=32;scalar=64";
    class       volScalarField;
    location    "23.25000000";
    object      C7H7;
}
// * * * * * * * * * * * * * * * * * * * * * * * * * * * * * * * * * * * * * //

dimensions      [0 0 0 0 0 0 0];

internalField   nonuniform List<scalar> 
3000
(
4.20436827e-33
4.72986283e-33
5.523147044e-33
6.580730418e-33
7.892003693e-33
9.421332512e-33
1.107642408e-32
1.265563484e-32
1.377258221e-32
1.580776434e-32
1.785705462e-32
2.094956785e-32
2.508199581e-32
3.025091635e-32
3.642713228e-32
4.350213689e-32
5.111368697e-32
5.785472742e-32
3.549869722e-32
4.04209277e-32
4.792061181e-32
5.811023957e-32
7.117623142e-32
8.730887483e-32
1.064446467e-31
1.275027028e-31
1.455062631e-31
6.786361974e-32
7.809740041e-32
9.392089036e-32
1.158807982e-31
1.447664455e-31
1.813205583e-31
2.253503246e-31
2.733237933e-31
3.120650553e-31
1.210733179e-31
1.410697259e-31
1.72481066e-31
2.169334094e-31
2.765521669e-31
3.530412037e-31
4.451519119e-31
5.430497982e-31
6.182570751e-31
2.093781324e-31
2.47134546e-31
3.073065023e-31
3.938084582e-31
5.113433778e-31
6.6295804e-31
8.442014939e-31
1.032233251e-30
1.171485712e-30
3.577842633e-31
4.276098211e-31
5.402083122e-31
7.039440218e-31
9.281389842e-31
1.217461306e-30
1.560117738e-30
1.908765419e-30
2.160637551e-30
6.099342801e-31
7.372430748e-31
9.443979408e-31
1.248027165e-30
1.665500131e-30
2.203277535e-30
2.834731848e-30
3.468002211e-30
3.917930569e-30
1.042127726e-30
1.271908582e-30
1.648275772e-30
2.202811154e-30
2.966761817e-30
3.948370171e-30
5.092860861e-30
6.228865686e-30
7.027148527e-30
1.787712349e-30
2.199350691e-30
2.87675331e-30
3.878195957e-30
5.258870792e-30
7.02851188e-30
9.080620439e-30
1.110278371e-29
1.251331865e-29
3.079905755e-30
3.813222554e-30
5.02393327e-30
6.817615277e-30
9.29090008e-30
1.245419733e-29
1.610761422e-29
1.968950429e-29
2.217557579e-29
5.326720858e-30
6.62762668e-30
8.780292798e-30
1.197379349e-29
1.637673304e-29
2.199839563e-29
2.847189057e-29
3.479606314e-29
3.917037844e-29
9.242267238e-30
1.154286246e-29
1.535572038e-29
2.101697653e-29
2.8820577e-29
3.877101134e-29
5.020456681e-29
6.134623888e-29
6.903419145e-29
1.607677166e-29
2.013581579e-29
2.687033977e-29
3.687514146e-29
5.06628696e-29
6.822606333e-29
8.83754355e-29
1.079748875e-28
1.214755651e-28
2.801965225e-29
3.516891089e-29
4.703956982e-29
6.468093486e-29
8.898769891e-29
1.199268408e-28
1.553808857e-28
1.898218577e-28
2.135161995e-28
4.890586848e-29
6.148206566e-29
8.23747962e-29
1.134313751e-28
1.562142779e-28
2.106394201e-28
2.729531269e-28
3.334273375e-28
3.749954686e-28
8.545378474e-29
1.075559255e-28
1.442876811e-28
1.988964575e-28
2.741120803e-28
3.69751844e-28
4.791813718e-28
5.853017673e-28
6.581962162e-28
1.49434575e-28
1.882515811e-28
2.527781135e-28
3.487162202e-28
4.808357716e-28
6.487667035e-28
8.408067297e-28
1.026926981e-27
1.154700775e-27
2.614740235e-28
3.296119016e-28
4.428969532e-28
6.113314523e-28
8.432482436e-28
1.137924023e-27
1.47474547e-27
1.801012663e-27
2.024887784e-27
4.57714419e-28
5.772748686e-28
7.760695848e-28
1.071627934e-27
1.478499018e-27
1.995292966e-27
2.58573343e-27
3.157388444e-27
3.549456978e-27
8.014852948e-28
1.011211599e-27
1.359928111e-27
1.878326797e-27
2.591787408e-27
3.497655579e-27
4.532121422e-27
5.53315757e-27
6.21938095e-27
1.403741869e-27
1.771532193e-27
2.383025589e-27
3.291904071e-27
4.542384098e-27
6.129399667e-27
7.940731045e-27
9.692505251e-27
1.089270571e-26
2.458851887e-27
3.103665897e-27
4.175595132e-27
5.768416647e-27
7.959023264e-27
1.073769289e-26
1.390708374e-26
1.697014956e-26
1.906737819e-26
4.307214265e-27
5.437393202e-27
7.315776242e-27
1.01059371e-26
1.394126629e-26
1.880294087e-26
2.434389211e-26
2.96944533e-26
3.335492593e-26
7.544757153e-27
9.524989803e-27
1.28151617e-26
1.770006807e-26
2.4410388e-26
3.290931633e-26
4.258629034e-26
5.192099562e-26
5.830069123e-26
1.321427885e-26
1.668249798e-26
2.24425719e-26
3.098923415e-26
4.271983534e-26
5.756167341e-26
7.444027492e-26
9.0700731e-26
1.017997602e-25
2.3139525e-26
2.921066908e-26
3.928826813e-26
5.422937306e-26
7.471505114e-26
1.006003604e-25
1.299937479e-25
1.58265126e-25
1.775324423e-25
4.050800913e-26
5.112860306e-26
6.87458004e-26
9.483929536e-26
1.305693096e-25
1.756447307e-25
2.267345665e-25
2.75777353e-25
3.09136776e-25
7.088700489e-26
8.945099553e-26
1.202180889e-25
1.657325087e-25
2.279558621e-25
3.063005202e-25
3.94899724e-25
4.797459958e-25
5.373260358e-25
1.239936362e-25
1.564096833e-25
2.100777243e-25
2.893508383e-25
3.97515023e-25
5.333813517e-25
6.86617769e-25
8.329448108e-25
9.319751739e-25
2.167779846e-25
2.733149473e-25
3.667971219e-25
5.046288457e-25
6.922528675e-25
9.27264611e-25
1.191475985e-24
1.442926267e-24
1.612553357e-24
3.787945326e-25
4.772652454e-25
6.398313099e-25
8.790000342e-25
1.203662921e-24
1.608971086e-24
2.062935398e-24
2.49328722e-24
2.782522809e-24
6.615694887e-25
8.328115459e-25
1.11499453e-24
1.529074839e-24
2.08933373e-24
2.786044371e-24
3.563024771e-24
4.296299399e-24
4.787051721e-24
1.154968213e-24
1.452262227e-24
1.941095268e-24
2.656251087e-24
3.620189174e-24
4.813537199e-24
6.137823721e-24
7.381314951e-24
8.209623545e-24
2.01588396e-24
2.531119504e-24
3.376158502e-24
4.608111137e-24
6.261365323e-24
8.297674644e-24
1.054490143e-23
1.264318604e-23
1.403366354e-23
3.518754821e-24
4.410172755e-24
5.867909788e-24
7.984568796e-24
1.081098065e-23
1.427238227e-23
1.80688238e-23
2.159183382e-23
2.39133778e-23
6.145072589e-24
7.684924582e-24
1.019464023e-23
1.382223504e-23
1.863925826e-23
2.450112075e-23
3.088706647e-23
3.677364622e-23
4.062954935e-23
1.074324688e-23
1.339989028e-23
1.771350897e-23
2.391681334e-23
3.21032897e-23
4.199638548e-23
5.269552094e-23
6.248802883e-23
6.886218672e-23
1.881689867e-23
2.339685186e-23
3.080223101e-23
4.139193846e-23
5.527295447e-23
7.192211946e-23
8.978806082e-23
1.060180861e-22
1.165138617e-22
3.305062296e-23
4.09460066e-23
5.365345187e-23
7.171400402e-23
9.521587103e-23
1.231797776e-22
1.529427737e-22
1.797715478e-22
1.970062568e-22
5.828084774e-23
7.190418111e-23
9.372154383e-23
1.245260977e-22
1.643023745e-22
2.112349988e-22
2.607659583e-22
3.050620935e-22
3.333281262e-22
1.033126062e-22
1.268691261e-22
1.643942743e-22
2.170097771e-22
2.844021937e-22
3.632344263e-22
4.457180596e-22
5.189021193e-22
5.652951398e-22
1.84366191e-22
2.252432537e-22
2.899986436e-22
3.801418129e-22
4.946480809e-22
6.274244833e-22
7.651642711e-22
8.864284957e-22
9.628132065e-22
3.317061404e-22
4.030089681e-22
5.153208952e-22
6.70522996e-22
8.660379079e-22
1.090793792e-21
1.322011999e-21
1.52406426e-21
1.650578541e-21
6.025627275e-22
7.278162129e-22
9.239836063e-22
1.193099211e-21
1.529365817e-21
1.912712681e-21
2.30397541e-21
2.64352821e-21
2.854982136e-21
1.106645855e-21
1.328663409e-21
1.674447671e-21
2.145503211e-21
2.72956437e-21
3.390238461e-21
4.05969695e-21
4.637094162e-21
4.994951453e-21
2.057147503e-21
2.455069318e-21
3.071574238e-21
3.905968284e-21
4.933244732e-21
6.087206168e-21
7.249142124e-21
8.246018649e-21
8.861411549e-21
3.873901474e-21
4.596567848e-21
5.71091268e-21
7.21038199e-21
9.045158314e-21
1.10940703e-20
1.314643818e-20
1.489986121e-20
1.597895703e-20
7.394393818e-21
8.72705118e-21
1.077371796e-20
1.351443195e-20
1.6851322e-20
2.056047008e-20
2.42613777e-20
2.741365209e-20
2.934946612e-20
1.431002331e-20
1.6810457e-20
2.063843904e-20
2.574571054e-20
3.194142062e-20
3.880650936e-20
4.563925619e-20
5.144864065e-20
5.501181912e-20
2.807724617e-20
3.285946529e-20
4.016498349e-20
4.988900926e-20
6.166044457e-20
7.468278158e-20
8.763057872e-20
9.863291746e-20
1.053788754e-19
5.583856948e-20
6.517588964e-20
7.942500149e-20
9.837427434e-20
1.213025226e-19
1.466686461e-19
1.71901749e-19
1.933571635e-19
2.06518177e-19
1.125026178e-19
1.311340683e-19
1.595717041e-19
1.974144685e-19
2.43259985e-19
2.940683963e-19
3.447108552e-19
3.878505337e-19
4.14344953e-19
2.294872407e-19
2.674973618e-19
3.255987303e-19
4.030909445e-19
4.97251766e-19
6.019697155e-19
7.067188334e-19
7.962291955e-19
8.513192249e-19
4.735616025e-19
5.528202916e-19
6.74310506e-19
8.369802566e-19
1.035592321e-18
1.257654631e-18
1.480975247e-18
1.672716443e-18
1.791138795e-18
9.876510787e-19
1.156383784e-18
1.416080335e-18
1.765739985e-18
2.19552657e-18
2.679615769e-18
3.170105032e-18
3.594173811e-18
3.857597116e-18
2.079493936e-18
2.445527364e-18
3.011914523e-18
3.780031013e-18
4.7323846e-18
5.815449948e-18
6.923939405e-18
7.891912792e-18
8.498806787e-18
4.414585614e-18
5.221599053e-18
6.478574472e-18
8.198379005e-18
1.035356773e-17
1.283433961e-17
1.540679377e-17
1.768429436e-17
1.913250478e-17
9.43612869e-18
1.123887118e-17
1.406841723e-17
1.798014e-17
2.294442427e-17
2.874252264e-17
3.485385795e-17
4.036283455e-17
4.393515099e-17
2.027786301e-17
2.434429175e-17
3.078229634e-17
3.978725727e-17
5.138080488e-17
6.515210919e-17
7.995132853e-17
9.358842336e-17
1.026510573e-16
4.374324844e-17
5.297374974e-17
6.772566548e-17
8.862434619e-17
1.159587765e-16
1.490412653e-16
1.853741807e-16
2.1969624e-16
2.431451677e-16
9.458193275e-17
1.155968618e-16
1.4951703e-16
1.982219469e-16
2.629977762e-16
3.429652868e-16
4.328313925e-16
5.199589489e-16
5.811940634e-16
2.046925199e-16
2.525321403e-16
3.305371767e-16
4.440908541e-16
5.976993264e-16
7.91171634e-16
1.013628618e-15
1.234823938e-15
1.394470765e-15
4.428386948e-16
5.514340312e-16
7.302942461e-16
9.942142559e-16
1.357202587e-15
1.823300064e-15
2.370886844e-15
2.928000744e-15
3.33950456e-15
9.566897035e-16
1.201906616e-15
1.60970233e-15
2.219224166e-15
3.070676566e-15
4.183494138e-15
5.516091279e-15
6.898620316e-15
7.939209744e-15
2.061999048e-15
2.611651739e-15
3.533909648e-15
4.928659404e-15
6.904290885e-15
9.52637912e-15
1.271695065e-14
1.607915206e-14
1.864633624e-14
4.430629839e-15
5.651335153e-15
7.715755969e-15
1.086984946e-14
1.539057236e-14
2.146667031e-14
2.895342658e-14
3.693509047e-14
4.309147054e-14
9.483981516e-15
1.216546634e-14
1.67303137e-14
2.376321538e-14
3.393839006e-14
4.774652145e-14
6.491527433e-14
8.336332415e-14
9.768419273e-14
2.02081072e-14
2.6024919e-14
3.597798444e-14
5.140953068e-14
7.388858159e-14
1.045959191e-13
1.429975335e-13
1.844469651e-13
2.167292729e-13
4.28211097e-14
5.526263516e-14
7.662634173e-14
1.098885383e-13
1.585484184e-13
2.252700649e-13
3.089433807e-13
3.994057192e-13
4.69912143e-13
9.012990257e-14
1.163300143e-13
1.614052562e-13
2.317329032e-13
3.348060475e-13
4.7630283e-13
6.53786837e-13
8.455288132e-13
9.947755058e-13
1.8815913e-13
2.424055406e-13
3.357663014e-13
4.814508948e-13
6.948910397e-13
9.875732914e-13
1.353975644e-12
1.748755787e-12
2.055145489e-12
3.889529134e-13
4.992394533e-13
6.88846571e-13
9.842377645e-13
1.416020715e-12
2.006314831e-12
2.742532277e-12
3.532442915e-12
4.142954533e-12
7.946858139e-13
1.014604897e-12
1.391818048e-12
1.97762929e-12
2.830574423e-12
3.991265081e-12
5.431424e-12
6.968308215e-12
8.150128347e-12
1.601846788e-12
2.031547168e-12
2.766089365e-12
3.901773627e-12
5.546645639e-12
7.771822887e-12
1.051547674e-11
1.342502892e-11
1.564953254e-11
3.17986415e-12
4.001871238e-12
5.401048546e-12
7.552494832e-12
1.06488324e-11
1.48087207e-11
1.99013811e-11
2.526446878e-11
2.933924871e-11
6.206737383e-12
7.745266243e-12
1.035110381e-11
1.433277322e-11
2.002210993e-11
2.760720754e-11
3.682109918e-11
4.645214752e-11
5.372149248e-11
1.189550164e-11
1.471149549e-11
1.945486812e-11
2.665255399e-11
3.685704759e-11
5.034999024e-11
6.660558544e-11
8.346501869e-11
9.610355609e-11
2.235968354e-11
2.739798002e-11
3.583489162e-11
4.854286113e-11
6.641076234e-11
8.983267033e-11
1.178087839e-10
1.465916925e-10
1.68018517e-10
4.11824261e-11
4.99916493e-11
6.465262309e-11
8.656556698e-11
1.171114788e-10
1.567947732e-10
2.037779859e-10
2.517217005e-10
2.871613461e-10
7.427038108e-11
8.931939114e-11
1.142068779e-10
1.511105972e-10
2.021001717e-10
2.677384955e-10
3.447577686e-10
4.227035715e-10
4.799134861e-10
1.310856982e-10
1.562012359e-10
1.974697695e-10
2.581718345e-10
3.412937542e-10
4.47307682e-10
5.705832929e-10
6.943088195e-10
7.844785983e-10
2.263515412e-10
2.672982567e-10
3.341451049e-10
4.316744724e-10
5.640235396e-10
7.312545364e-10
9.239588026e-10
1.115765644e-09
1.254570159e-09
3.823113527e-10
4.475258712e-10
5.533036333e-10
7.063835839e-10
9.122448498e-10
1.169947536e-09
1.46422742e-09
1.754723379e-09
1.963480951e-09
6.315826779e-10
7.330564605e-10
8.965920026e-10
1.131352683e-09
1.444227726e-09
1.832273353e-09
2.271424973e-09
2.70138635e-09
3.008237598e-09
1.020578476e-09
1.174860005e-09
1.421926958e-09
1.773774233e-09
2.23853075e-09
2.809668839e-09
3.450288894e-09
4.072433191e-09
4.513422092e-09
1.613373654e-09
1.842630856e-09
2.207479236e-09
2.722981261e-09
3.39794439e-09
4.219905411e-09
5.133786474e-09
6.014241314e-09
6.634155076e-09
2.495780844e-09
2.828833819e-09
3.355636868e-09
4.094238279e-09
5.052988631e-09
6.210162258e-09
7.48566209e-09
8.704894342e-09
9.557710684e-09
3.779284211e-09
4.252492262e-09
4.99653647e-09
6.03187417e-09
7.364487126e-09
8.958892354e-09
1.07015048e-08
1.23544849e-08
1.350329022e-08
5.604386647e-09
6.26225901e-09
7.29068796e-09
8.711273645e-09
1.052473924e-08
1.267602557e-08
1.500792094e-08
1.720334662e-08
1.871962951e-08
8.14287869e-09
9.038281009e-09
1.043021477e-08
1.233927556e-08
1.475688509e-08
1.760117321e-08
2.065956268e-08
2.351805689e-08
2.548036672e-08
1.159855685e-08
1.279240809e-08
1.463829991e-08
1.715263003e-08
2.031220118e-08
2.399967959e-08
2.793398235e-08
3.158529937e-08
3.407700652e-08
1.620601343e-08
1.776640957e-08
2.016656683e-08
2.341433174e-08
2.746524914e-08
3.215654795e-08
3.712440865e-08
4.170337922e-08
4.481043478e-08
2.222728482e-08
2.422804227e-08
2.729032432e-08
3.140786893e-08
3.650705385e-08
4.236858094e-08
4.853063318e-08
5.417318119e-08
5.798102947e-08
2.994635976e-08
3.246503514e-08
3.6301836e-08
4.142964926e-08
4.773668653e-08
5.493478575e-08
6.244968317e-08
6.928781478e-08
7.387829949e-08
3.966178295e-08
4.27772801e-08
4.750204471e-08
5.378004974e-08
6.145128235e-08
7.014700935e-08
7.916546737e-08
8.732242334e-08
9.277073033e-08
5.167782204e-08
5.546756914e-08
6.119024083e-08
6.87529115e-08
7.793670017e-08
8.827971277e-08
9.893897397e-08
1.08524648e-07
1.148964833e-07
6.629354555e-08
7.083096201e-08
7.765505202e-08
8.662671141e-08
9.745755686e-08
1.095806153e-07
1.219993974e-07
1.331062664e-07
1.4045539e-07
8.379421228e-08
8.91459901e-08
9.71642906e-08
1.076545173e-07
1.202482505e-07
1.342624367e-07
1.485366452e-07
1.612363584e-07
1.696023579e-07
1.044408132e-07
1.10664515e-07
1.199558479e-07
1.320555919e-07
1.465053249e-07
1.624962031e-07
1.786956616e-07
1.930366551e-07
2.024447351e-07
1.284613294e-07
1.356033924e-07
1.462299143e-07
1.600084163e-07
1.76381449e-07
1.944062962e-07
2.125725616e-07
2.285798076e-07
2.390396859e-07
1.560434087e-07
1.641376178e-07
1.761428078e-07
1.916454015e-07
2.099811594e-07
2.30067359e-07
2.502140895e-07
2.678880858e-07
2.793938129e-07
1.873287263e-07
1.963951831e-07
2.098025654e-07
2.270493852e-07
2.473587788e-07
2.695049669e-07
2.916171796e-07
3.109341917e-07
3.234646136e-07
2.224090972e-07
2.324536598e-07
2.472663662e-07
2.66253081e-07
2.885199566e-07
3.126955076e-07
3.367304488e-07
3.576437214e-07
3.711634278e-07
2.613244023e-07
2.723397106e-07
2.88542155e-07
3.092407298e-07
3.334217519e-07
3.59568256e-07
3.854572719e-07
4.078989035e-07
4.2235956e-07
3.040664466e-07
3.160319574e-07
3.335895384e-07
3.559488147e-07
3.81975318e-07
4.100088924e-07
4.376599718e-07
4.615432878e-07
4.768852455e-07
3.505783016e-07
3.634609644e-07
3.823215165e-07
4.062692609e-07
4.340497982e-07
4.638640052e-07
4.931648031e-07
5.183870624e-07
5.345411426e-07
4.007571428e-07
4.145126594e-07
4.346083565e-07
4.600537724e-07
4.894771194e-07
5.20946274e-07
5.517674235e-07
5.782127062e-07
5.951020673e-07
4.544585604e-07
4.690328655e-07
4.902824085e-07
5.171189391e-07
5.48057361e-07
5.810400375e-07
6.132385815e-07
6.407807234e-07
6.583227294e-07
5.115016971e-07
5.268325637e-07
5.491435185e-07
5.772517893e-07
6.095644069e-07
6.439069843e-07
6.773297853e-07
7.058352495e-07
7.239432764e-07
5.716748695e-07
5.876935601e-07
6.109647379e-07
6.402155119e-07
6.737516334e-07
7.092917525e-07
7.437787684e-07
7.731093677e-07
7.91694497e-07
6.347413873e-07
6.513742872e-07
6.754980787e-07
7.057551235e-07
7.403574358e-07
7.769272672e-07
8.123146094e-07
8.423300175e-07
8.613025829e-07
7.004453369e-07
7.176155183e-07
7.424801132e-07
7.736029011e-07
8.091104426e-07
8.46539695e-07
8.826624082e-07
9.132224174e-07
9.324933814e-07
7.685171444e-07
7.861458239e-07
8.116372651e-07
8.434834501e-07
8.797343096e-07
9.178529295e-07
9.545474588e-07
9.855139597e-07
1.004996109e-06
8.386787803e-07
8.566866433e-07
8.826906811e-07
9.151183158e-07
9.519520232e-07
9.905925601e-07
1.027698885e-06
1.05893756e-06
1.078546515e-06
9.106485106e-07
9.289568846e-07
9.553606106e-07
9.882300826e-07
1.025489676e-06
1.064489302e-06
1.101852735e-06
1.133234465e-06
1.152889513e-06
9.84145131e-07
1.002677002e-06
1.029370253e-06
1.062545935e-06
1.100079702e-06
1.139281889e-06
1.17675455e-06
1.208156549e-06
1.227781297e-06
1.058891657e-06
1.077572525e-06
1.10444906e-06
1.137800677e-06
1.175463575e-06
1.214719447e-06
1.252161423e-06
1.283468116e-06
1.302990991e-06
1.13461846e-06
1.153377042e-06
1.180335496e-06
1.213739218e-06
1.251394003e-06
1.290563376e-06
1.3278436e-06
1.358947263e-06
1.378301867e-06
1.211065867e-06
1.229834651e-06
1.25677928e-06
1.290118572e-06
1.327636636e-06
1.366588787e-06
1.403585653e-06
1.434386844e-06
1.453512174e-06
1.287986246e-06
1.30670191e-06
1.333543148e-06
1.366709379e-06
1.40397135e-06
1.44258552e-06
1.47918727e-06
1.509595074e-06
1.528435634e-06
1.365145616e-06
1.383749324e-06
1.410404167e-06
1.443297015e-06
1.480193125e-06
1.518358813e-06
1.55446372e-06
1.584395829e-06
1.602901646e-06
1.442324824e-06
1.460762411e-06
1.487154645e-06
1.519682326e-06
1.556112586e-06
1.593729646e-06
1.629246023e-06
1.658628688e-06
1.676755237e-06
1.519320337e-06
1.537542401e-06
1.5636027e-06
1.595682032e-06
1.631556241e-06
1.668534813e-06
1.703380886e-06
1.732148743e-06
1.749856819e-06
1.595944688e-06
1.6139066e-06
1.639572511e-06
1.671128851e-06
1.706366465e-06
1.742626773e-06
1.776730421e-06
1.804826237e-06
1.822081762e-06
1.67202664e-06
1.68968848e-06
1.714904311e-06
1.745871379e-06
1.780401262e-06
1.815873308e-06
1.849171718e-06
1.876546056e-06
1.893319849e-06
1.747411089e-06
1.764737533e-06
1.789454166e-06
1.819773779e-06
1.853533866e-06
1.888157027e-06
1.920596272e-06
1.947207102e-06
1.963474616e-06
1.821958769e-06
1.838918925e-06
1.863093566e-06
1.892715306e-06
1.92565219e-06
1.959374754e-06
1.990909314e-06
2.016721588e-06
2.032462627e-06
1.895545789e-06
1.912112998e-06
1.93570888e-06
1.964589704e-06
1.996658173e-06
2.029436829e-06
2.060029076e-06
2.085014271e-06
2.100212689e-06
1.968063032e-06
1.984214645e-06
2.007200697e-06
2.03530451e-06
2.066467045e-06
2.098266337e-06
2.127885995e-06
2.152021644e-06
2.166665043e-06
2.039415458e-06
2.055132596e-06
2.077483084e-06
2.104780287e-06
2.135006539e-06
2.165798306e-06
2.194421897e-06
2.217691112e-06
2.231770535e-06
2.109521335e-06
2.124788629e-06
2.146482791e-06
2.172949814e-06
2.202216065e-06
2.231978871e-06
2.259589162e-06
2.281980163e-06
2.295489787e-06
2.178311414e-06
2.193116748e-06
2.214138413e-06
2.239757242e-06
2.268045872e-06
2.296764436e-06
2.323349893e-06
2.34485554e-06
2.357792387e-06
2.245728078e-06
2.260062329e-06
2.28039954e-06
2.305157253e-06
2.332456202e-06
2.360120848e-06
2.3856751e-06
2.406292441e-06
2.418656087e-06
2.311724485e-06
2.325581261e-06
2.345225907e-06
2.369114208e-06
2.395416464e-06
2.422022573e-06
2.446543898e-06
2.466273741e-06
2.478066043e-06
2.376263702e-06
2.389639093e-06
2.408586543e-06
2.431601318e-06
2.456904413e-06
2.482451913e-06
2.505942742e-06
2.524789236e-06
2.536014075e-06
2.439317863e-06
2.452210195e-06
2.470458952e-06
2.492599845e-06
2.516905374e-06
2.541398239e-06
2.563864692e-06
2.581834941e-06
2.592497978e-06
2.500867348e-06
2.513276949e-06
2.530828319e-06
2.552098316e-06
2.57541149e-06
2.598857277e-06
2.620308719e-06
2.637412416e-06
2.647520861e-06
2.560899987e-06
2.572828968e-06
2.589686743e-06
2.610091792e-06
2.632421005e-06
2.654830413e-06
2.675279047e-06
2.691528132e-06
2.701090533e-06
2.61941031e-06
2.630862354e-06
2.647032514e-06
2.666581167e-06
2.687937595e-06
2.709324061e-06
2.728784541e-06
2.744192885e-06
2.753218936e-06
2.676398828e-06
2.687378995e-06
2.702869436e-06
2.721572505e-06
2.74196974e-06
2.762349056e-06
2.780838136e-06
2.795421252e-06
2.803921608e-06
2.731871359e-06
2.742385909e-06
2.757206181e-06
2.775076432e-06
2.794530134e-06
2.8139201e-06
2.831456309e-06
2.845231086e-06
2.853217201e-06
2.785838403e-06
2.795894621e-06
2.810055697e-06
2.827107559e-06
2.845635142e-06
2.864055249e-06
2.880658594e-06
2.893643053e-06
2.90112703e-06
2.838314554e-06
2.847920601e-06
2.861434652e-06
2.877683958e-06
2.895304302e-06
2.912775435e-06
2.928467133e-06
2.940680206e-06
2.947674666e-06
2.88931796e-06
2.898482728e-06
2.911362931e-06
2.926826673e-06
2.94355986e-06
2.960104042e-06
2.974906273e-06
2.986367608e-06
2.99288556e-06
2.938869824e-06
2.94760281e-06
2.959863163e-06
2.974559278e-06
2.990426359e-06
3.006066502e-06
3.020002191e-06
3.030731971e-06
3.036786714e-06
2.986993949e-06
2.99530514e-06
3.0069603e-06
3.020907473e-06
3.035930246e-06
3.050689946e-06
3.063782568e-06
3.073801353e-06
3.079406369e-06
3.033716325e-06
3.041616089e-06
3.052681225e-06
3.06589871e-06
3.080099537e-06
3.094002877e-06
3.106276278e-06
3.115604863e-06
3.12077374e-06
3.079064749e-06
3.086563744e-06
3.097054405e-06
3.109561871e-06
3.122963501e-06
3.136034882e-06
3.147513127e-06
3.156172417e-06
3.160918768e-06
3.123068486e-06
3.130177575e-06
3.140109572e-06
3.151926959e-06
3.164552379e-06
3.176816371e-06
3.187523603e-06
3.195534507e-06
3.199871906e-06
3.165757961e-06
3.172488138e-06
3.181877441e-06
3.193024838e-06
3.204897139e-06
3.216378345e-06
3.226338672e-06
3.233722002e-06
3.237663926e-06
3.207164489e-06
3.213526812e-06
3.222389457e-06
3.232886992e-06
3.244029251e-06
3.254752196e-06
3.263989577e-06
3.270765969e-06
3.27432575e-06
3.247320024e-06
3.253325559e-06
3.26167757e-06
3.271545314e-06
3.281980493e-06
3.291969518e-06
3.300507682e-06
3.306697523e-06
3.309888304e-06
3.286256949e-06
3.291916718e-06
3.299774032e-06
3.309031919e-06
3.318782774e-06
3.328061954e-06
3.335924318e-06
3.341547686e-06
3.344382385e-06
3.324007879e-06
3.329332817e-06
3.336711228e-06
3.345378979e-06
3.354467989e-06
3.363061056e-06
3.370270658e-06
3.375347271e-06
3.377838555e-06
3.360605494e-06
3.365606411e-06
3.372521518e-06
3.380618583e-06
3.389067879e-06
3.396998162e-06
3.403577611e-06
3.408126782e-06
3.410287038e-06
3.396082394e-06
3.400769943e-06
3.407237102e-06
3.41478261e-06
3.422613924e-06
3.429904297e-06
3.43587572e-06
3.439916329e-06
3.441757645e-06
3.430470969e-06
3.43485562e-06
3.440889911e-06
3.44790262e-06
3.455137242e-06
3.461810076e-06
3.467195091e-06
3.470745548e-06
3.472279698e-06
3.463803291e-06
3.467895306e-06
3.4735115e-06
3.480009768e-06
3.486668504e-06
3.49274564e-06
3.497565316e-06
3.500643546e-06
3.501881978e-06
3.496111016e-06
3.499920433e-06
3.505132967e-06
3.511134721e-06
3.517237868e-06
3.522740584e-06
3.527015425e-06
3.529638847e-06
3.530592675e-06
3.52742531e-06
3.530961927e-06
3.535784883e-06
3.541307595e-06
3.546874917e-06
3.551823906e-06
3.555573833e-06
3.557759352e-06
3.558439347e-06
3.557776775e-06
3.561050139e-06
3.565497231e-06
3.570557901e-06
3.575608608e-06
3.580023971e-06
3.583268306e-06
3.585032304e-06
3.585448894e-06
3.5871954e-06
3.590214796e-06
3.594299356e-06
3.598914501e-06
3.603467242e-06
3.607368467e-06
3.610125933e-06
3.611484263e-06
3.611647531e-06
3.615710509e-06
3.618484956e-06
3.622219926e-06
3.626405568e-06
3.630478421e-06
3.633884386e-06
3.636173098e-06
3.637141089e-06
3.637060772e-06
3.643350727e-06
3.645888973e-06
3.649286902e-06
3.653058566e-06
3.656669033e-06
3.659598001e-06
3.661435469e-06
3.662027921e-06
3.661713415e-06
3.670143952e-06
3.672454471e-06
3.675527507e-06
3.678900219e-06
3.682065227e-06
3.684534846e-06
3.685937979e-06
3.686169173e-06
3.685629535e-06
3.696117324e-06
3.698208316e-06
3.700968213e-06
3.703956497e-06
3.706692402e-06
3.708719711e-06
3.70970482e-06
3.709588523e-06
3.708832479e-06
3.721297212e-06
3.723176603e-06
3.725634717e-06
3.728252602e-06
3.730575191e-06
3.732176628e-06
3.732759438e-06
3.732308911e-06
3.731344858e-06
3.745709185e-06
3.747384631e-06
3.749551927e-06
3.751812951e-06
3.753737449e-06
3.754928859e-06
3.755124519e-06
3.754352527e-06
3.753188544e-06
3.769378002e-06
3.770856888e-06
3.77274394e-06
3.774661158e-06
3.776202241e-06
3.776998886e-06
3.776821978e-06
3.775740807e-06
3.774384662e-06
3.792327574e-06
3.793617021e-06
3.795234022e-06
3.79682001e-06
3.797991812e-06
3.798408385e-06
3.797872945e-06
3.796494407e-06
3.79495357e-06
3.814580931e-06
3.815687797e-06
3.817044561e-06
3.818311428e-06
3.819127552e-06
3.819178193e-06
3.818297719e-06
3.816633178e-06
3.81491483e-06
3.836160159e-06
3.837091041e-06
3.838197012e-06
3.839156405e-06
3.839629935e-06
3.83932824e-06
3.838115715e-06
3.836176098e-06
3.834287144e-06
3.857086302e-06
3.85784754e-06
3.85871179e-06
3.859374899e-06
3.859518407e-06
3.858877446e-06
3.857345352e-06
3.855141171e-06
3.853088261e-06
3.877379215e-06
3.877976887e-06
3.878608116e-06
3.878985675e-06
3.878811226e-06
3.877843547e-06
3.876003885e-06
3.873545257e-06
3.871334798e-06
3.897057338e-06
3.897497252e-06
3.897903774e-06
3.89800605e-06
3.897525194e-06
3.896242828e-06
3.894107121e-06
3.891403788e-06
3.889041966e-06
3.916137347e-06
3.916425022e-06
3.916614743e-06
3.916451506e-06
3.915675251e-06
3.914089695e-06
3.91166899e-06
3.908730326e-06
3.906223125e-06
3.934633655e-06
3.934774284e-06
3.93475465e-06
3.934335117e-06
3.933273876e-06
3.93139604e-06
3.928700877e-06
3.925535889e-06
3.922889102e-06
3.952557677e-06
3.952556065e-06
3.952333976e-06
3.951666705e-06
3.950330184e-06
3.948170299e-06
3.94521064e-06
3.941827925e-06
3.939047151e-06
3.9699168e-06
3.969777261e-06
3.969358922e-06
3.968451642e-06
3.966848654e-06
3.964416088e-06
3.961201166e-06
3.95760882e-06
3.954699431e-06
3.986712942e-06
3.98643914e-06
3.985829838e-06
3.984689163e-06
3.982827319e-06
3.980130276e-06
3.976668334e-06
3.972873765e-06
3.969840819e-06
4.002940597e-06
4.002535308e-06
4.001739062e-06
4.000370066e-06
3.998255296e-06
3.995300327e-06
3.991598176e-06
3.987607771e-06
3.98445584e-06
4.018584221e-06
4.018048981e-06
4.017068035e-06
4.015473616e-06
4.013109448e-06
4.009900707e-06
4.005963037e-06
4.001781619e-06
3.998514487e-06
4.033614816e-06
4.032949424e-06
4.031783525e-06
4.02996349e-06
4.027350009e-06
4.023888158e-06
4.019716501e-06
4.015346488e-06
4.011966656e-06
4.047985553e-06
4.047187387e-06
4.04583278e-06
4.043782578e-06
4.040914959e-06
4.037195614e-06
4.032786848e-06
4.02822701e-06
4.024734947e-06
4.061626278e-06
4.060689375e-06
4.059137454e-06
4.056846461e-06
4.053712974e-06
4.049724573e-06
4.04506884e-06
4.040312535e-06
4.036705591e-06
4.074436782e-06
4.073350635e-06
4.071586177e-06
4.069035434e-06
4.065614816e-06
4.061335771e-06
4.056413678e-06
4.051446457e-06
4.047717341e-06
4.086278728e-06
4.085026756e-06
4.083025665e-06
4.080184997e-06
4.076443066e-06
4.071838102e-06
4.066617081e-06
4.061413527e-06
4.05754829e-06
4.096966221e-06
4.095523874e-06
4.093250391e-06
4.090074823e-06
4.085960272e-06
4.08097584e-06
4.075405566e-06
4.069925289e-06
4.065900715e-06
4.106255092e-06
4.10458757e-06
4.101990904e-06
4.098416348e-06
4.093855668e-06
4.088414397e-06
4.082421215e-06
4.076603936e-06
4.072384321e-06
4.113831097e-06
4.111890687e-06
4.108901098e-06
4.104839315e-06
4.099730866e-06
4.093725071e-06
4.087205458e-06
4.080965211e-06
4.076498529e-06
4.119297396e-06
4.117020475e-06
4.113544857e-06
4.1088778e-06
4.103085148e-06
4.096369532e-06
4.089182723e-06
4.082401288e-06
4.077614804e-06
4.122161904e-06
4.119465694e-06
4.115382804e-06
4.10995652e-06
4.103301273e-06
4.095685084e-06
4.087645143e-06
4.08016495e-06
4.074960457e-06
4.121825315e-06
4.118604545e-06
4.113760118e-06
4.107378518e-06
4.099633043e-06
4.090872125e-06
4.08173991e-06
4.07335684e-06
4.067605783e-06
4.117570894e-06
4.113694597e-06
4.107896678e-06
4.100315641e-06
4.091196211e-06
4.080985581e-06
4.070461269e-06
4.060917928e-06
4.05445682e-06
4.108557375e-06
4.103866122e-06
4.096881095e-06
4.087803511e-06
4.076964646e-06
4.064932431e-06
4.052649472e-06
4.041629767e-06
4.034256432e-06
4.093816601e-06
4.088120571e-06
4.079670451e-06
4.068742982e-06
4.055773898e-06
4.041477712e-06
4.026999315e-06
4.014125313e-06
4.005596656e-06
4.072257707e-06
4.065336059e-06
4.055097764e-06
4.041910228e-06
4.026334524e-06
4.009261504e-06
3.992080943e-06
3.976913187e-06
3.966945272e-06
4.04267981e-06
4.034281865e-06
4.021889247e-06
4.005977651e-06
3.987257415e-06
3.966829273e-06
3.946375397e-06
3.92841796e-06
3.916689261e-06
4.003795057e-06
3.99364387e-06
3.978693292e-06
3.959547541e-06
3.93709312e-06
3.912677556e-06
3.888326869e-06
3.867038362e-06
3.853197058e-06
3.954263698e-06
3.942062494e-06
3.924122726e-06
3.901199946e-06
3.874386449e-06
3.845316087e-06
3.816412573e-06
3.791224172e-06
3.774900169e-06
3.89274223e-06
3.878184138e-06
3.856811121e-06
3.829555292e-06
3.797746596e-06
3.763346218e-06
3.729229631e-06
3.699570732e-06
3.680392863e-06
3.817944835e-06
3.800726118e-06
3.775482872e-06
3.743351033e-06
3.705931499e-06
3.665553702e-06
3.625596355e-06
3.590927835e-06
3.568546183e-06
3.728717105e-06
3.708553794e-06
3.679035272e-06
3.64152995e-06
3.59794329e-06
3.551011786e-06