/*--------------------------------*- C++ -*----------------------------------*\
| =========                 |                                                 |
| \\      /  F ield         | OpenFOAM: The Open Source CFD Toolbox           |
|  \\    /   O peration     | Version:  2212                                  |
|   \\  /    A nd           | Website:  www.openfoam.com                      |
|    \\/     M anipulation  |                                                 |
\*---------------------------------------------------------------------------*/
FoamFile
{
    version     2.0;
    format      ascii;
    arch        "LSB;label=32;scalar=64";
    class       volScalarField;
    location    "23.25000000";
    object      C9H8;
}
// * * * * * * * * * * * * * * * * * * * * * * * * * * * * * * * * * * * * * //

dimensions      [0 0 0 0 0 0 0];

internalField   nonuniform List<scalar> 
3000
(
4.746681327e-25
5.332317012e-25
6.216028114e-25
7.39362766e-25
8.853101651e-25
1.055475576e-24
1.239602544e-24
1.415276909e-24
1.539523488e-24
1.782108455e-24
2.010063939e-24
2.353898015e-24
2.813104276e-24
3.387213057e-24
4.072991368e-24
4.858534499e-24
5.703904499e-24
6.453092133e-24
3.991649988e-24
4.537522838e-24
5.368754128e-24
6.497381963e-24
7.943709766e-24
9.728652846e-24
1.18453036e-23
1.417453621e-23
1.616629072e-23
7.603005632e-24
8.733291644e-24
1.047966652e-23
1.290121754e-23
1.608373484e-23
2.010801648e-23
2.495224871e-23
3.022797459e-23
3.448715113e-23
1.350065056e-23
1.569795989e-23
1.914641941e-23
2.402118359e-23
3.055156857e-23
3.892051988e-23
4.898854999e-23
5.967992843e-23
6.788758801e-23
2.321519315e-23
2.733922809e-23
3.390426993e-23
4.332920988e-23
5.6116804e-23
7.25885515e-23
9.225278066e-23
1.126290908e-22
1.277044166e-22
3.941052873e-23
4.698578832e-23
5.91853807e-23
7.689720951e-23
1.011075518e-22
1.322973773e-22
1.691768548e-22
2.066464125e-22
2.336828105e-22
6.669504635e-23
8.040424574e-23
1.026786958e-22
1.352679884e-22
1.799897006e-22
2.374872417e-22
3.048759699e-22
3.723465498e-22
4.202183053e-22
1.130529283e-22
1.376007774e-22
1.777438085e-22
2.36774108e-22
3.179246833e-22
4.219747842e-22
5.430460896e-22
6.630031253e-22
7.471748351e-22
1.923095535e-22
2.359195641e-22
3.075616688e-22
4.132524919e-22
5.586381892e-22
7.445610578e-22
9.596991684e-22
1.171293486e-21
1.318661268e-21
3.284197044e-22
4.054388592e-22
5.323679597e-22
7.200018251e-22
9.781159713e-22
1.307459736e-21
1.686982245e-21
2.058336675e-21
2.315671058e-21
5.628990959e-22
6.983209645e-22
9.219893795e-22
1.253048767e-21
1.708370228e-21
2.288303935e-21
2.954576608e-21
3.604155281e-21
4.052724617e-21
9.677243634e-22
1.205049633e-21
1.59762037e-21
2.17914174e-21
2.978715236e-21
3.995711305e-21
5.161546824e-21
6.295263997e-21
7.076251949e-21
1.667716666e-21
2.082606819e-21
2.769618346e-21
3.787817558e-21
5.187433155e-21
6.965778709e-21
9.00112437e-21
1.097676111e-20
1.233535031e-20
2.879390701e-21
3.603385333e-21
4.803121372e-21
6.581798899e-21
9.026191217e-21
1.212958349e-20
1.56772921e-20
1.911631753e-20
2.147823689e-20
4.978379689e-21
6.240086486e-21
8.331949252e-21
1.143391491e-20
1.56960152e-20
2.110392913e-20
2.728068975e-20
3.326231414e-20
3.736682487e-20
8.616451628e-21
1.081307112e-20
1.445629784e-20
1.985944594e-20
2.728206606e-20
3.669575425e-20
4.744057086e-20
5.783814472e-20
6.496793821e-20
1.492457724e-20
1.87460816e-20
2.508582968e-20
3.44887301e-20
4.740389221e-20
6.377708484e-20
8.245531898e-20
1.005189424e-19
1.128983788e-19
2.586526429e-20
3.250994915e-20
4.353495531e-20
5.988705298e-20
8.234324485e-20
1.108021327e-19
1.432521081e-19
1.746177958e-19
1.961027353e-19
4.484370148e-20
5.639224349e-20
7.555533146e-20
1.039764391e-19
1.429991365e-19
1.924357535e-19
2.487800154e-19
3.032145961e-19
3.404837237e-19
7.776727482e-20
9.783152775e-20
1.311254962e-19
1.804992976e-19
2.482740922e-19
3.341036557e-19
4.318797514e-19
5.262934414e-19
5.909030239e-19
1.348811129e-19
1.697285618e-19
2.275499671e-19
3.132826448e-19
4.309314028e-19
5.798571721e-19
7.49421657e-19
9.130603798e-19
1.02498049e-18
2.339460723e-19
2.944475716e-19
3.948232559e-19
5.436150314e-19
7.477194832e-19
1.005950952e-18
1.299784587e-18
1.583156178e-18
1.776839701e-18
4.057337639e-19
5.107331152e-19
6.84897883e-19
9.429826255e-19
1.296833474e-18
1.744233185e-18
2.252924653e-18
2.743096359e-18
3.077856661e-18
7.035142465e-19
8.856485423e-19
1.187670501e-18
1.635015678e-18
2.247965373e-18
3.022335165e-18
3.901951083e-18
4.748669369e-18
5.326349895e-18
1.219409035e-18
1.535143675e-18
2.058500444e-18
2.833221057e-18
3.893884006e-18
5.232514796e-18
6.75127955e-18
8.211369693e-18
9.206279747e-18
2.112515577e-18
2.659404191e-18
3.565453079e-18
4.905658705e-18
6.738668349e-18
9.049141567e-18
1.166668187e-17
1.41791148e-17
1.588843884e-17
3.65715375e-18
4.603437673e-18
6.170156025e-18
8.48541724e-18
1.164804807e-17
1.562829953e-17
2.012942841e-17
2.444144698e-17
2.736954501e-17
6.32538337e-18
7.960571795e-18
1.066567376e-17
1.465853856e-17
2.010437682e-17
2.694514931e-17
3.4664282e-17
4.204180122e-17
4.70400789e-17
1.092765411e-17
1.374859109e-17
1.84106125e-17
2.528216172e-17
3.463674621e-17
4.636073814e-17
5.95555884e-17
7.213134846e-17
8.062830017e-17
1.885161345e-17
2.370820438e-17
3.172469654e-17
4.35201877e-17
5.954213512e-17
7.956792899e-17
1.020366828e-16
1.233811944e-16
1.37757136e-16
3.246582575e-17
4.080636937e-17
5.455355933e-17
7.473968351e-17
1.020863155e-16
1.36158288e-16
1.742496611e-16
2.102984066e-16
2.344896441e-16
5.579903167e-17
7.00805582e-17
9.357924463e-17
1.280008393e-16
1.744887507e-16
2.321964945e-16
2.964465482e-16
3.569900918e-16
3.974525008e-16
9.56770597e-17
1.200466555e-16
1.600630411e-16
2.185152895e-16
2.971767846e-16
3.944132721e-16
5.021701688e-16
6.032228694e-16
6.70451622e-16
1.636150112e-16
2.050319587e-16
2.728818751e-16
3.716701269e-16
5.040748331e-16
6.66971617e-16
8.465586191e-16
1.014081937e-15
1.124981499e-15
2.789473894e-16
3.490150098e-16
4.634933982e-16
6.29559688e-16
8.511234522e-16
1.122281472e-15
1.419525705e-15
1.695214979e-15
1.87675415e-15
4.739725861e-16
5.91900116e-16
7.83990032e-16
1.06149533e-15
1.429872526e-15
1.878117005e-15
2.366473067e-15
2.816651693e-15
3.111439932e-15
8.023499343e-16
9.996928074e-16
1.320055028e-15
1.780763736e-15
2.388964988e-15
3.124445222e-15
3.920518624e-15
4.649661739e-15
5.12436993e-15
1.352706191e-15
1.68087128e-15
2.211625489e-15
2.971104594e-15
3.967768802e-15
5.16507081e-15
6.452165515e-15
7.623253671e-15
8.381208999e-15
2.270514959e-15
2.812511414e-15
3.685559167e-15
4.928161559e-15
6.548533457e-15
8.481674974e-15
1.054514761e-14
1.241000878e-14
1.360986737e-14
3.792998337e-15
4.681626405e-15
6.106824061e-15
8.123786177e-15
1.073653753e-14
1.383140796e-14
1.71112411e-14
2.005538687e-14
2.193859572e-14
6.304340154e-15
7.750022732e-15
1.005801012e-14
1.330491107e-14
1.748217217e-14
2.239435431e-14
2.756264606e-14
3.21709977e-14
3.510189111e-14
1.042228669e-14
1.27551729e-14
1.646176413e-14
2.164427568e-14
2.826535788e-14
3.599458493e-14
4.406884562e-14
5.122138892e-14
5.574535139e-14
1.713279767e-14
2.086575543e-14
2.676772517e-14
3.496831604e-14
4.537194126e-14
5.742906326e-14
6.993666139e-14
8.094675592e-14
8.787409825e-14
2.799757615e-14
3.391944768e-14
4.323560534e-14
5.6099044e-14
7.230491702e-14
9.095367121e-14
1.101689613e-13
1.269821588e-13
1.375084385e-13
4.547114159e-14
5.478344619e-14
6.936050419e-14
8.936317583e-14
1.143920757e-13
1.429968572e-13
1.722811076e-13
1.977594519e-13
2.13637258e-13
7.338114552e-14
8.789667041e-14
1.105071633e-13
1.413451263e-13
1.796782258e-13
2.232013727e-13
2.674874996e-13
3.05814132e-13
3.295972901e-13
1.176500166e-13
1.400789877e-13
1.748491925e-13
2.219935742e-13
2.802276142e-13
3.45936726e-13
4.124172618e-13
4.696698475e-13
5.050590759e-13
1.873707917e-13
2.217303289e-13
2.747508827e-13
3.462380303e-13
4.340148392e-13
5.324840006e-13
6.315833049e-13
7.165435285e-13
7.688742499e-13
2.963994379e-13
3.485958999e-13
4.287881941e-13
5.363378385e-13
6.676565931e-13
8.141773262e-13
9.609201324e-13
1.086212468e-12
1.163141182e-12
4.65696035e-13
5.443494405e-13
6.646893821e-13
8.252794517e-13
1.020340348e-12
1.23690093e-12
1.452831915e-12
1.636521002e-12
1.748989335e-12
7.267457683e-13
8.44349089e-13
1.023579007e-12
1.261649011e-12
1.549437195e-12
1.867500504e-12
2.183376174e-12
2.451205241e-12
2.614785835e-12
1.126468733e-12
1.301010208e-12
1.566053365e-12
1.916610034e-12
2.338524384e-12
2.802911931e-12
3.262453647e-12
3.650960384e-12
3.887732999e-12
1.734361979e-12
1.991600209e-12
2.380926313e-12
2.893864394e-12
3.50876355e-12
4.183058739e-12
4.848178078e-12
5.409033913e-12
5.750200013e-12
2.652728685e-12
3.0293621e-12
3.597675595e-12
4.343791552e-12
5.235011422e-12
6.209068856e-12
7.167125496e-12
7.973163006e-12
8.462676785e-12
4.031289762e-12
4.5793635e-12
5.40411819e-12
6.483460639e-12
7.768551894e-12
9.168911355e-12
1.054277483e-11
1.169634307e-11
1.239594571e-11
6.087970669e-12
6.880990565e-12
8.071422798e-12
9.62486379e-12
1.1469077e-11
1.347337857e-11
1.543535208e-11
1.707987826e-11
1.807606582e-11
9.138361812e-12
1.027976013e-11
1.19893903e-11
1.421463025e-11
1.684955802e-11
1.970646187e-11
2.249751904e-11
2.483348217e-11
2.624713374e-11
1.363732767e-11
1.527216442e-11
1.771606866e-11
2.088973701e-11
2.463904421e-11
2.869571469e-11
3.265203712e-11
3.595900483e-11
3.795866964e-11
2.023758807e-11
2.25686986e-11
2.60473339e-11
3.055546143e-11
3.58703474e-11
4.161032157e-11
4.719985831e-11
5.186684805e-11
5.468705846e-11
2.987195261e-11
3.318219887e-11
3.811422182e-11
4.449419918e-11
5.200220959e-11
6.009750843e-11
6.797028175e-11
7.45375419e-11
7.850402024e-11
4.386844335e-11
4.855133543e-11
5.55187522e-11
6.451703347e-11
7.508916849e-11
8.647192687e-11
9.752917693e-11
1.06745621e-10
1.1230994e-10
6.411104473e-11
7.071283071e-11
8.052303944e-11
9.317441095e-11
1.080172899e-10
1.239781164e-10
1.394672468e-10
1.523693296e-10
1.601565271e-10
9.326361353e-11
1.025410689e-10
1.163120238e-10
1.340483875e-10
1.54830704e-10
1.771536221e-10
1.987984596e-10
2.168184093e-10
2.276923424e-10
1.350810219e-10
1.480807124e-10
1.673577106e-10
1.921572309e-10
2.211831033e-10
2.52330525e-10
2.825098899e-10
3.076241085e-10
3.227770925e-10
1.948404932e-10
2.13007381e-10
2.399230622e-10
2.745144702e-10
3.149608807e-10
3.583269696e-10
4.00319296e-10
4.352516996e-10
4.56327371e-10
2.799381112e-10
3.052642204e-10
3.427575579e-10
3.908997606e-10
4.471415071e-10
5.073989498e-10
5.657171543e-10
6.142176091e-10
6.434792191e-10
4.007116545e-10
4.359393502e-10
4.880550785e-10
5.549194614e-10
6.3297348e-10
7.16547714e-10
7.973972576e-10
8.646225701e-10
9.051833477e-10
5.715725009e-10
6.204721074e-10
6.927696454e-10
7.854621998e-10
8.935944657e-10
1.009311565e-09
1.121216443e-09
1.21425121e-09
1.2703894e-09
8.125579437e-10
8.803063204e-10
9.804174212e-10
1.10869083e-09
1.2582442e-09
1.418214856e-09
1.572871988e-09
1.701439758e-09
1.779028917e-09
1.151452712e-09
1.245148521e-09
1.383536311e-09
1.560759308e-09
1.767280674e-09
1.988104111e-09
2.201547373e-09
2.378979879e-09
2.486075495e-09
1.626676882e-09
1.756040163e-09
1.947029737e-09
2.191503397e-09
2.476274514e-09
2.780673994e-09
3.074855991e-09
3.319410623e-09
3.467047671e-09
2.291198872e-09
2.469517757e-09
2.732690857e-09
3.069429994e-09
3.461539434e-09
3.88057621e-09
4.285509911e-09
4.622153795e-09
4.825426854e-09
3.217808691e-09
3.463215092e-09
3.82528931e-09
4.288422568e-09
4.827557143e-09
5.403613148e-09
5.960257122e-09
6.42307059e-09
6.702588783e-09
4.50617923e-09
4.843358368e-09
5.340704901e-09
5.97668959e-09
6.716872329e-09
7.507643137e-09
8.271762926e-09
8.907155131e-09
9.290988001e-09
6.292251502e-09
6.754716826e-09
7.436709581e-09
8.30860581e-09
9.323162631e-09
1.040695948e-08
1.145425146e-08
1.232522446e-08
1.285148057e-08
8.760600119e-09
9.393694279e-09
1.032712497e-08
1.152022532e-08
1.290832021e-08
1.439103868e-08
1.582385681e-08
1.701559723e-08
1.773580201e-08
1.216056009e-08
1.302537164e-08
1.430020651e-08
1.592936685e-08
1.782449874e-08
1.984866398e-08
2.180473587e-08
2.343184809e-08
2.441530679e-08
1.682701176e-08
1.800542175e-08
1.974220887e-08
2.196126402e-08
2.454215672e-08
2.729848889e-08
2.996203341e-08
3.217774447e-08
3.35170833e-08
2.320680607e-08
2.480789238e-08
2.716714481e-08
3.018080705e-08
3.368513139e-08
3.742707331e-08
4.104272121e-08
4.405037148e-08
4.58684369e-08
3.189183846e-08
3.405985987e-08
3.725372634e-08
4.133233893e-08
4.607366522e-08
5.113525816e-08
5.602511068e-08
6.009218085e-08
6.255043449e-08
4.365971005e-08
4.658385731e-08
5.089033463e-08
5.63877693e-08
6.277603838e-08
6.959339987e-08
7.617742055e-08
8.165221925e-08
8.496068544e-08
5.952270906e-08
6.344873632e-08
6.922856255e-08
7.660339262e-08
8.516899787e-08
9.430543317e-08
1.031251405e-07
1.104560799e-07
1.148847803e-07
8.078546756e-08
8.602919696e-08
9.374538185e-08
1.035852212e-07
1.150065035e-07
1.271809622e-07
1.389260742e-07
1.486831926e-07
1.54574839e-07
1.091110718e-07
1.160735952e-07
1.263132926e-07
1.393618663e-07
1.54495444e-07
1.706136262e-07
1.861509163e-07
1.990489843e-07
2.06832507e-07
1.465946301e-07
1.557788196e-07
1.692769367e-07
1.864630586e-07
2.063759694e-07
2.27562925e-07
2.479661149e-07
2.648883123e-07
2.750925992e-07
1.958423612e-07
2.078700617e-07
2.25533658e-07
2.480008701e-07
2.740030376e-07
3.016356329e-07
3.282147302e-07
3.502355578e-07
3.63502594e-07
2.600532366e-07
2.756822735e-07
2.986144666e-07
3.277496981e-07
3.614248149e-07
3.971620428e-07
4.314901853e-07
4.59896024e-07
4.769924886e-07
3.430992015e-07
3.632391329e-07
3.927609527e-07
4.302202438e-07
4.734528565e-07
5.192616985e-07
5.631973739e-07
5.995029833e-07
6.213293081e-07
4.495991592e-07
4.753245671e-07
5.129930329e-07
5.607222074e-07
6.15718664e-07
6.738931516e-07
7.295956594e-07
7.755549553e-07
8.031509011e-07
5.849813758e-07
6.175414606e-07
6.65162142e-07
7.254103459e-07
7.947113714e-07
8.678826705e-07
9.37818925e-07
9.954286035e-07
1.029974534e-06
7.555288722e-07
7.963522089e-07
8.559846986e-07
9.313089745e-07
1.017791981e-06
1.108927738e-06
1.195868948e-06
1.267363854e-06
1.310177077e-06
9.684028033e-07
1.019096337e-06
1.093051402e-06
1.186310929e-06
1.293180726e-06
1.405572524e-06
1.512579804e-06
1.600419492e-06
1.652945847e-06
1.231639771e-06
1.293981464e-06
1.384809142e-06
1.499148406e-06
1.629915724e-06
1.767154222e-06
1.897553111e-06
2.00440017e-06
2.068200323e-06
1.554120417e-06
1.630045366e-06
1.740513864e-06
1.879334734e-06
2.037782684e-06
2.203720963e-06
2.361065955e-06
2.489755843e-06
2.566487225e-06
1.945508345e-06
2.037088592e-06
2.170154396e-06
2.337077784e-06
2.527217359e-06
2.725924274e-06
2.91395362e-06
3.067457861e-06
3.158852761e-06
2.416160107e-06
2.525578728e-06
2.684348746e-06
2.883167676e-06
3.109184684e-06
3.344888862e-06
3.567472328e-06
3.748856278e-06
3.856697001e-06
2.977008642e-06
3.106529737e-06
3.294218356e-06
3.528843839e-06
3.795037906e-06
4.072065701e-06
4.333147084e-06
4.545523988e-06
4.671615936e-06
3.639426785e-06
3.791361734e-06
4.01124238e-06
4.285644598e-06
4.596364205e-06
4.919073922e-06
5.222610819e-06
5.469093893e-06
5.615236866e-06
4.415072409e-06
4.591744404e-06
4.847099344e-06
5.165246688e-06
5.524822517e-06
5.897537848e-06
6.247441581e-06
6.531097271e-06
6.699062833e-06
5.315723729e-06
5.519431914e-06
5.813501773e-06
6.17930016e-06
6.591979436e-06
7.018924675e-06
7.419002553e-06
7.742810539e-06
7.934315391e-06
6.353110321e-06
6.5860949e-06
6.922029862e-06
7.339264564e-06
7.809148759e-06
8.294388206e-06
8.748295437e-06
9.115105889e-06
9.331788223e-06
7.538745917e-06
7.803155467e-06
8.183969913e-06
8.656251872e-06
9.18724124e-06
9.73463078e-06
1.02458198e-05
1.065831603e-05
1.090171481e-05
8.883768588e-06
9.181630555e-06
9.610162989e-06
1.014088557e-05
1.073663487e-05
1.134977022e-05
1.192144841e-05
1.238211538e-05
1.265365273e-05
1.039879389e-05
1.073199342e-05
1.121087775e-05
1.180317747e-05
1.246704941e-05
1.314922569e-05
1.378432088e-05
1.429541945e-05
1.459638638e-05
1.209380188e-05
1.246405925e-05
1.299569167e-05
1.365241204e-05
1.438744304e-05
1.514162286e-05
1.584275644e-05
1.640630364e-05
1.673784915e-05
1.397801767e-05
1.438687082e-05
1.497338747e-05
1.569705379e-05
1.650592846e-05
1.733471864e-05
1.810418636e-05
1.872194147e-05
1.908506511e-05
1.605981892e-05
1.650861162e-05
1.715187294e-05
1.794467498e-05
1.882970915e-05
1.97353457e-05
2.057510571e-05
2.124856211e-05
2.164410962e-05
1.834666538e-05
1.883654002e-05
1.95381214e-05
2.040190352e-05
2.136503519e-05
2.234937602e-05
2.326104381e-05
2.399142584e-05
2.442008776e-05
2.084504944e-05
2.137694397e-05
2.213813225e-05
2.307439039e-05
2.411717788e-05
2.518170248e-05
2.616655178e-05
2.695481635e-05
2.741712919e-05
2.356046659e-05
2.413511524e-05
2.495691034e-05
2.596679501e-05
2.70904215e-05
2.823623671e-05
2.929520578e-05
3.014204784e-05
3.063839753e-05
2.649740428e-05
2.711534149e-05
2.799846256e-05
2.908278706e-05
3.028807055e-05
3.15159215e-05
3.264962382e-05
3.355548532e-05
3.408611246e-05
2.965934728e-05
3.032091442e-05
3.126580967e-05
3.242506268e-05
3.371247047e-05
3.502275576e-05
3.62314944e-05
3.719657586e-05
3.776158257e-05
3.304879753e-05
3.375415175e-05
3.476101136e-05
3.599537293e-05
3.736503966e-05
3.875782997e-05
4.004161478e-05
4.106588906e-05
4.166524694e-05
3.66673061e-05
3.7416431e-05
3.848520233e-05
3.979456263e-05
4.124631105e-05
4.272137019e-05
4.407993716e-05
4.516316475e-05
4.579672373e-05
4.05155153e-05
4.130823282e-05
4.243863731e-05
4.382261723e-05
4.535598094e-05
4.69127887e-05
4.834562078e-05
4.948736617e-05
5.015486399e-05
4.459320865e-05
4.542919181e-05
4.662074308e-05
4.807871615e-05
4.969296351e-05
5.133073966e-05
5.283708844e-05
5.403673712e-05
5.473780904e-05
4.88993669e-05
4.977815306e-05
5.103017557e-05
5.256129049e-05
5.425544924e-05
5.597317796e-05
5.755208574e-05
5.880886145e-05
5.954305021e-05
5.343222818e-05
5.435323246e-05
5.566488043e-05
5.726808384e-05
5.904096574e-05
6.083742017e-05
6.2487742e-05
6.380072391e-05
6.456748954e-05
5.818935077e-05
5.91518794e-05
6.052215555e-05
6.219621455e-05
6.404643979e-05
6.592020611e-05
6.764063145e-05
6.900877099e-05
6.98075005e-05
6.316767707e-05
6.417094045e-05
6.559871433e-05
6.734223841e-05
6.926825933e-05
7.121776022e-05
7.300683389e-05
7.442897104e-05
7.525898773e-05
6.836359756e-05
6.940672286e-05
7.089074855e-05
7.270221075e-05
7.470233457e-05
7.672585165e-05
7.858199394e-05
8.005687284e-05
8.091744525e-05
7.377301386e-05
7.485505707e-05
7.639398994e-05
7.827174694e-05
8.034415745e-05
8.243985262e-05
8.436137829e-05
8.588766203e-05
8.677801238e-05
7.939139997e-05
8.051135722e-05
8.210376985e-05
8.40460809e-05
8.618885882e-05
8.835479424e-05
9.033993044e-05
9.191621487e-05
9.283552701e-05
8.52138611e-05
8.637067927e-05
8.801507625e-05
9.002012085e-05
9.223126279e-05
9.446541961e-05
9.651232248e-05
9.813714914e-05
9.908457594e-05
9.123518964e-05
9.242777619e-05
9.412260788e-05
9.618850211e-05
9.846593816e-05
0.0001007662337
0.0001028730037
0.0001045448718
0.0001055195419
9.744991784e-05
9.867714987e-05
0.000100420825
0.0001025456365
0.0001048872463
0.0001072515499
0.0001094162461
0.0001111336231
0.0001121346474
0.0001038523671
0.0001051130995
0.0001069039966
0.0001090857585
0.000111489386
0.0001139155333
0.0001161361858
0.0001178975178
0.0001189239949
0.0001104366934
0.0001117297666
0.0001135662443
0.0001158029674
0.0001182664338
0.00012075224
0.0001230268619
0.0001248305823
0.0001258816036
0.0001171969296
0.0001185211757
0.0001204015827
0.0001226912662
0.0001252123824
0.0001277556535
0.0001300822511
0.0001319267886
0.0001330014432
0.0001241270232
0.0001254812726
0.0001274039551
0.0001297445973
0.000132321174
0.0001349197176
0.0001372962994
0.0001391800855
0.000140277464
0.0001312208716
0.0001326039578
0.0001345672675
0.0001369568739
0.0001395867313
0.0001422383654
0.0001446629506
0.0001465844255
0.0001477036238
0.0001384723526
0.0001398831172
0.0001418854176
0.0001443220089
0.0001470029845
0.0001497055459
0.0001521761716
0.0001541337899
0.0001552739123
0.000145875353
0.0001473126495
0.0001493523213
0.00015183394
0.0001545638963
0.0001573152473
0.0001598299742
0.0001618222098
0.0001629823718
0.0001534237925
0.0001548864899
0.0001569619364
0.0001594866526
0.0001622634828
0.0001650615172
0.0001676184355
0.0001696437855
0.0001708231163
0.0001611116461
0.0001625986319
0.0001647082826
0.0001672741987
0.0001700958322
0.0001729384807
0.0001755357143
0.0001775927027
0.000178790347
0.0001689329625
0.0001704431452
0.0001725854596
0.0001751907148
0.0001780551212
0.0001809403556
0.0001835760659
0.0001856632467
0.0001868783663
0.0001768818806
0.0001784141917
0.000180587662
0.0001832304355
0.000186135629
0.0001890614654
0.0001917338547
0.0001938498138
0.0001950815896
0.0001849526433
0.000186506039
0.0001887091929
0.0001913877066
0.0001943317482
0.0001972962503
0.0002000035643
0.0002021469221
0.0002033945544
0.0001931396092
0.0001947130721
0.000196944474
0.000199656995
0.0002026379952
0.0002056392765
0.0002083798061
0.0002105492187
0.0002118119289
0.0002014372625
0.0002030298023
0.0002052880553
0.0002080328974
0.0002110490181
0.0002140852436
0.0002168573265
0.0002190514868
0.0002203285175
0.0002098402206
0.0002114508749
0.0002137346217
0.0002165101468
0.0002195596026
0.0002226289898
0.0002254310118
0.0002276486508
0.0002289392665
0.0002183432406
0.0002199710756
0.0002222789993
0.0002250836181
0.0002281646768
0.0002312654972
0.0002340958928
0.0002363357795
0.0002376392671
0.0002269412239
0.0002285853346
0.0002309161592
0.0002337483318
0.0002368593154
0.0002399898943
0.0002428471471
0.0002451080895
0.0002464237582
0.0002356292199
0.0002372887303
0.0002396412206
0.0002424994567
0.0002456387414
0.0002487974585
0.0002516801013
0.000253960946
0.0002552881273
0.0002444024279
0.0002460764912
0.0002484494529
0.0002513323118
0.0002544983279
0.0002576836169
0.0002605902316
0.0002628898638
0.0002642279118
0.0002532561991
0.0002549439971
0.0002573362768
0.0002602423668
0.0002634335983
0.0002666439466
0.0002695731639
0.0002718905073
0.0002732387981
0.0002621860361
0.0002638867792
0.0002662972638
0.0002692252422
0.0002724402261
0.0002756741745
0.0002786246731
0.0002809586891
0.000282316621
0.0002711875934
0.0002729005203
0.0002753281362
0.0002782767082
0.0002815140343
0.0002847701756
0.0002877406818
0.0002900903693
0.0002914573622
0.0002802566757
0.0002819810526
0.0002844247657
0.0002873926837
0.000290650993
0.0002939279717
0.0002969172586
0.0002992816531
0.0003006571479
0.0002893892365
0.0002911243569
0.0002935831713
0.000296569234
0.0002998472181
0.0003031437292
0.0003061506152
0.0003085287882
0.0003099122469
0.0002985813759
0.00030032656
0.0003027995171
0.0003058025686
0.0003090989686
0.0003124137562
0.0003154371048
0.0003178281629
0.0003192190677
0.0003078293383
0.0003095839321
0.0003120701101
0.0003150890386
0.0003184026435
0.0003217345
0.0003247732179
0.000327176302
0.0003285741551
0.0003171295089
0.0003188928837
0.0003213913966
0.0003244251333
0.0003277547792
0.0003311025435
0.0003341555802
0.0003365698643
0.0003379741871
0.0003264784113
0.000328249963
0.000330759959
0.000333807477
0.0003371520455
0.0003405146023
0.000343580948
0.0003460056389
0.0003474159716
0.0003358727032
0.0003376518515
0.0003401725128
0.0003432328256
0.0003465912426
0.0003499675205
0.0003530462058
0.0003554805414
0.0003568964423
0.0003453091737
0.0003470953613
0.0003496259025
0.0003526980631
0.0003560692971
0.0003594582676
0.0003625483614
0.00036499161
0.0003664126553
0.0003547847386
0.0003565774307
0.000359117098
0.0003622001972
0.0003655832582
0.0003689839339
0.0003720845428
0.0003745360023
0.0003759617849
0.0003642964373
0.0003660951207
0.0003686431906
0.000371736356
0.000375130294
0.0003785417276
0.000381651994
0.0003841109906
0.0003855411201
0.0003738414286
0.0003756456108
0.0003782013892
0.0003813037838
0.0003847076873
0.0003881289698
0.0003912480712
0.0003937139583
0.0003951480601
0.0003834169863
0.0003852261949
0.000387789016
0.0003908998369
0.0003943128317
0.0003977430911
0.0004008702385
0.000403342396
0.0004047801106
0.0003930204958
0.0003948342777
0.0003974035029
0.0004005219799
0.0004039432274
0.0004073816274
0.0004105160639
0.0004129938971
0.0004144348799
0.0004026494494
0.00040446737
0.0004070423868
0.0004101677814
0.0004135964772
0.0004170422158
0.0004201832154
0.0004226661537
0.0004241100741
0.0004123014423
0.000414123085
0.000416703306
0.0004198349097
0.0004232702824
0.0004267225902
0.0004298694566
0.0004323569528
0.0004338034935
0.0004219741686
0.0004237991335
0.0004263839952
0.0004295211287
0.0004329624382
0.0004364205771
0.0004395726422
0.0004420641712
0.0004435130281
0.0004316654169
0.0004334933206
0.0004360822824
0.0004392242934
0.0004426708297
0.0004461340913
0.000449290714
0.0004517857719
0.0004532366528
0.0004413730661
0.0004432035404
0.0004457960833
0.000448942346
0.0004523934272
0.0004558611314
0.000459021696
0.0004615197987
0.000462972423
0.0004510950805
0.0004529277718
0.0004555233974
0.0004586733104
0.0004621282815
0.0004655997747
0.0004687636894
0.0004712643716
0.0004727184697
0.0004608295049
0.0004626640733
0.0004652623025
0.0004684152876
0.0004718735186
0.0004753481721
0.0004785148674
0.0004810176814
0.0004824729935
0.0004705744594
0.000472410578
0.0004750109493
0.0004781664499
0.0004816273338
0.0004851045418
0.0004882734689
0.0004907779827
0.0004922342584
0.000480328134
0.0004821654873
0.0004847675558
0.0004879250347
0.0004913879859
0.0004948671632
0.0004980377916
0.0005005435878
0.0005020005848
0.0004900887817
0.0004919270646
0.0004945304001
0.0004976893375
0.0005011537888
0.0005046343685
0.000507806184
0.0005103128575
0.0005117703407
0.0004998547109
0.0005016936278
0.0005042978125
0.0005074577035
0.0005109231035
0.000514404534
0.0005175770355
0.0005200841913
0.0005215419312
0.0005096242768
0.0005114635392
0.0005140681657
0.0005172285173
0.0005206943269
0.0005241760682
0.0005273487647
0.0005298560152
0.0005313137862
0.0005193958704
0.0005212351952
0.0005238398633
0.0005270001906
0.000530465879
0.0005339473982
0.0005371198045
0.0005396267659
0.0005410843445
0.0005291679049
0.0005310070121
0.0005336113251
0.000536771147
0.0005402361861
0.0005437169524
0.0005468885836
0.0005493948716
0.0005508520336
0.0005389387995
0.0005407774088
0.0005433809692
0.0005465398022
0.0005500036605
0.0005534831377
0.000556653503
0.0005591587277
0.0005606152448
0.0005487069582
0.000550544785
0.0005531471887
0.0005563045404
0.0005597666745
0.0005632443128
0.000566412907
0.0005689166656
0.0005703723016
0.0005584707437
0.0005603074945
0.0005629083236
0.000566063683
0.0005695235273
0.0005729987521
0.0005761650453
0.0005786669137
0.0005801214192
0.0005682284443
0.0005700638103
0.000572662624
0.0005758154504
0.000579272404
0.0005827446023
0.0005859080266
0.0005884075485
0.0005898606541
0.0005779782323
0.0005798118815
0.0005824082048
0.0005855579134
0.0005890113235
0.0005924798265
0.0005956397594
0.0005981364328
0.000599587841
0.0005877181128
0.0005895496803
0.0005921429893
0.0005952889332
0.0005987380748
0.0006022021361
0.0006053578801
0.0006078511399
0.0006093005149
0.0005974458591
0.0005992749347
0.0006018646394
0.0006050060871
0.0006084501372
0.0006119089063
0.0006150596633
0.0006175488606
0.0006189958157
0.0006071589349
0.0006089850483
0.0006115704704
0.0006147065785
0.000618144585
0.0006215970743
0.0006247419143
0.0006272262908
0.0006286703728
0.0006168543996
0.0006186770019
0.0006212573484
0.0006243871285
0.0006278179722
0.0006312630173
0.0006344008409
0.0006368794981
0.0006383201692
0.0006265287952
0.0006283472372
0.0006309215683
0.0006340438467
0.0006374661959
0.0006409024088
0.0006440319027
0.0006465037653
0.0006479403811
0.0006361780139
0.0006379915197
0.0006405587113
0.0006436720825
0.0006470843402
0.0006505100536
0.0006536296383
0.0006560934116
0.0006575251954
0.0006457971445
0.0006476047815
0.0006501634817
0.0006532662538
0.000656666496
0.0006600796998
0.0006631874696
0.000665641591
0.0006670676053
0.0006553803001
0.0006571809443
0.0006597295236
0.0006628196564
0.0006662055628
0.0006696038319
0.000672697488
0.0006751400723
0.000676559186
0.0006649204258
0.0006667127236
0.0006692492192
0.0006723242562
0.0006756930327
0.0006790734486
0.0006821502248
0.000684579005
0.0006859898591
0.0006744090925
0.0006761914184
0.0006787134743
0.0006817704681
0.000685118765
0.0006884778308
0.0006915344161
0.0006939466807
0.000695347651
0.0006838362809
0.0006856066933
0.0006881114972
0.0006911469321
0.000694470758
0.0006978043116
0.0007008367696
0.0007032292994
0.0007046184598
0.0006931901646
0.000694946361
0.0006974305799
0.0007004402944
0.0007037349307
0.0007070380591
0.0007100417507
0.000712410757
0.000713785844
0.0007024569019
0.0007041961759
0.0007066558961
0.000709635009
0.0007128949291
0.0007161618895
0.0007191314016
0.0007214724719
0.0007228308538
0.0007116204528
0.0007133396547
0.000715770327
0.000718713174
0.000721931977
0.000725156129
0.0007280852169
0.0007303932721
0.0007317319249
0.0007206624356
0.0007223579418
0.0007247543397
0.0007276544244
0.0007308247846
0.0007339985474
0.0007368800978
0.0007391493654
0.0007404648606
0.0007295620435
0.0007312297378
0.0007335859329
0.000736435902
0.0007395495471
0.0007426643829
0.0007454904065
0.0007477144201
0.0007490029256
0.0007382960416
0.000739931313
0.0007422406757
0.0007450323243
0.0007480800494
0.0007511264863
0.000753888147
0.0007560597757
0.0007573170769
0.0007468388649
0.0007484366264
0.0007506918571
0.0007534161745
0.0007563879013
0.0007593556031
0.0007620432921
0.0007641548078
0.0007653763504
0.0007551628373
0.0007567175708
0.0007589107682
0.0007615580295
0.0007644429185
0.0007673208108
0.0007699242736
0.0007719674597
0.0007731484184
0.0007632385283
0.0007647443584
0.0007668671305
0.000769427041
0.000772213663
0.0007749901202
0.0007774986404
0.0007794649481
0.0007806003215
0.0007710352581
0.0007724860578
0.0007745296783
0.0007769915738
0.000779668144
0.0007823312398
0.0007847338821
0.0007866146326
0.0007876993665
0.0007785217529
0.0007799112817
0.000781866892
0.000784219996
0.0007867746696
0.0007893124898
0.0007915983991
0.0007933850303
0.0007944141655
0.0007856669424
0.000786989015
0.0007888478703
0.0007910816017