/*--------------------------------*- C++ -*----------------------------------*\
| =========                 |                                                 |
| \\      /  F ield         | OpenFOAM: The Open Source CFD Toolbox           |
|  \\    /   O peration     | Version:  2212                                  |
|   \\  /    A nd           | Website:  www.openfoam.com                      |
|    \\/     M anipulation  |                                                 |
\*---------------------------------------------------------------------------*/
FoamFile
{
    version     2.0;
    format      ascii;
    arch        "LSB;label=32;scalar=64";
    class       volScalarField;
    location    "23.25000000";
    object      CH2CO_0;
}
// * * * * * * * * * * * * * * * * * * * * * * * * * * * * * * * * * * * * * //

dimensions      [0 0 0 0 0 0 0];

internalField   nonuniform List<scalar> 
3000
(
3.107003148e-22
3.490338749e-22
4.068783561e-22
4.839596951e-22
5.794914997e-22
6.90875525e-22
8.113982719e-22
9.26388256e-22
1.007715501e-21
1.166502699e-21
1.315713983e-21
1.540775134e-21
1.841354678e-21
2.217145191e-21
2.666030475e-21
3.180218144e-21
3.733566281e-21
4.223956978e-21
2.612787386e-21
2.970095697e-21
3.514189156e-21
4.252947465e-21
5.1996605e-21
6.368018654e-21
7.753500463e-21
9.278130548e-21
1.058185986e-20
4.976648082e-21
5.716491775e-21
6.8596046e-21
8.444662926e-21
1.052782181e-20
1.316196871e-20
1.633282514e-20
1.978612146e-20
2.257402194e-20
8.837029744e-21
1.02753077e-20
1.253254259e-20
1.572338412e-20
1.99979342e-20
2.547594225e-20
3.206610487e-20
3.90642884e-20
4.443672084e-20
1.519581239e-20
1.789525413e-20
2.219248933e-20
2.836170876e-20
3.673199808e-20
4.751379885e-20
6.038528087e-20
7.372286496e-20
8.359061945e-20
2.579668406e-20
3.075517069e-20
3.874057569e-20
5.033408817e-20
6.618128886e-20
8.659700288e-20
1.107369542e-19
1.352631503e-19
1.529601833e-19
4.365612697e-20
5.262966527e-20
6.720970204e-20
8.854145586e-20
1.17814646e-19
1.554504245e-19
1.995606107e-19
2.437243741e-19
2.750594671e-19
7.400029364e-20
9.006841397e-20
1.163445676e-19
1.549836335e-19
2.081018196e-19
2.762091941e-19
3.554580239e-19
4.339774938e-19
4.890732041e-19
1.258787693e-19
1.544242806e-19
2.01318571e-19
2.704999023e-19
3.656640404e-19
4.873623222e-19
6.281838287e-19
7.666856987e-19
8.63147238e-19
2.149714752e-19
2.653853855e-19
3.484685134e-19
4.712867511e-19
6.402387928e-19
8.558151273e-19
1.104236626e-18
1.3473116e-18
1.515753239e-18
3.684530743e-19
4.570952567e-19
6.035003878e-19
8.201997069e-19
1.118236417e-18
1.497839728e-18
1.933957357e-18
2.359147706e-18
2.652764726e-18
6.334368296e-19
7.88781237e-19
1.045743628e-18
1.426386165e-18
1.949757621e-18
2.615445909e-18
3.378559039e-18
4.12064868e-18
4.631854725e-18
1.09162609e-18
1.363197952e-18
1.812890475e-18
2.479366299e-18
3.395503288e-18
4.559543003e-18
5.891805556e-18
7.184984846e-18
8.07426747e-18
1.88474343e-18
2.358643739e-18
3.143946907e-18
4.308203923e-18
5.908213407e-18
7.93958007e-18
1.02617799e-17
1.251283972e-17
1.405886545e-17
3.258664572e-18
4.084531526e-18
5.453788109e-18
7.484220971e-18
1.027403538e-17
1.381385735e-17
1.785693814e-17
2.177228993e-17
2.445895204e-17
5.640012927e-18
7.077839424e-18
9.462561919e-18
1.299926436e-17
1.785783906e-17
2.401969387e-17
3.105285649e-17
3.785872677e-17
4.252562799e-17
9.76908044e-18
1.227049695e-17
1.642026337e-17
2.257505691e-17
3.102884806e-17
4.17461391e-17
5.397222576e-17
6.579601079e-17
7.38991357e-17
1.693045269e-17
2.127981956e-17
2.8496384e-17
3.919986709e-17
5.389886625e-17
7.252701e-17
9.376757321e-17
1.142984015e-16
1.283616548e-16
2.935304125e-17
3.691229309e-17
4.945574731e-17
6.805916153e-17
9.360198743e-17
1.259613831e-16
1.628422697e-16
1.984731492e-16
2.22868153e-16
5.090360431e-17
6.403692811e-17
8.582993828e-17
1.181482172e-16
1.625111112e-16
2.186919947e-16
2.826926399e-16
3.444923778e-16
3.867834407e-16
8.828822731e-17
1.110980889e-16
1.489458595e-16
2.050633251e-16
2.820718861e-16
3.795532315e-16
4.90543923e-16
5.976558284e-16
6.709146281e-16
1.531325154e-16
1.927345773e-16
2.584368181e-16
3.558304562e-16
4.894297432e-16
6.5845859e-16
8.507913099e-16
1.036275959e-15
1.163054091e-15
2.655784364e-16
3.343071603e-16
4.483090286e-16
6.172418342e-16
8.488596202e-16
1.141711061e-15
1.474681839e-15
1.79553026e-15
2.014652079e-15
4.604946169e-16
5.797130467e-16
7.774055426e-16
1.070221288e-15
1.471435677e-15
1.978309742e-15
2.554074063e-15
3.1083048e-15
3.486433291e-15
7.981804214e-16
1.004848737e-15
1.347418882e-15
1.854522583e-15
2.548793651e-15
3.425012274e-15
4.419139984e-15
5.374861448e-15
6.026093092e-15
1.382775203e-15
1.740748433e-15
2.333814806e-15
3.21106426e-15
4.410885154e-15
5.923236195e-15
7.636582091e-15
9.281128562e-15
1.039998941e-14
2.393838687e-15
3.01324144e-15
4.038757818e-15
5.554242909e-15
7.62438508e-15
1.022971174e-14
1.317598565e-14
1.599847491e-14
1.791510054e-14
4.140363899e-15
5.210698278e-15
6.981358827e-15
9.594941717e-15
1.315958776e-14
1.763730661e-14
2.268996785e-14
2.751902146e-14
3.079071082e-14
7.152841415e-15
8.999323322e-15
1.205091159e-14
1.654877576e-14
2.267194379e-14
3.034603909e-14
3.898290433e-14
4.721453586e-14
5.277632904e-14
1.233957422e-14
1.551852056e-14
2.076582239e-14
2.848671846e-14
3.897409788e-14
5.208224845e-14
6.678947107e-14
8.076080607e-14
9.01707706e-14
2.125093717e-14
2.671035119e-14
3.57087577e-14
4.892185459e-14
6.682195753e-14
8.912422197e-14
1.140574389e-13
1.376536267e-13
1.534883245e-13
3.652399466e-14
4.587215821e-14
6.125353683e-14
8.378465101e-14
1.142139343e-13
1.51987309e-13
1.940430405e-13
2.336726264e-13
2.601578377e-13
6.262667925e-14
7.857812291e-14
1.047713819e-13
1.430320817e-13
1.945210149e-13
2.581684589e-13
3.287021784e-13
3.948475773e-13
4.388530585e-13
1.070963412e-13
1.342063558e-13
1.786184239e-13
2.432815946e-13
3.299488683e-13
4.365751432e-13
5.541262269e-13
6.637808655e-13
7.363716656e-13
1.825886006e-13
2.284522938e-13
3.033856505e-13
4.120865641e-13
5.571141021e-13
7.346042364e-13
9.291694605e-13
1.1096256e-12
1.228454519e-12
3.10244695e-13
3.874357256e-13
5.131707441e-13
6.94815563e-13
9.359418308e-13
1.229346336e-12
1.549006446e-12
1.843677007e-12
2.036634673e-12
5.251877584e-13
6.543611471e-13
8.640585159e-13
1.165621616e-12
1.563728031e-12
2.045146725e-12
2.566227577e-12
3.043498318e-12
3.354225156e-12
8.854287809e-13
1.100233554e-12
1.44764581e-12
1.944773183e-12
2.597153528e-12
3.380864372e-12
4.223350486e-12
4.98990297e-12
5.486033469e-12
1.48618713e-12
1.84095795e-12
2.41242301e-12
3.225785518e-12
4.286422947e-12
5.551788899e-12
6.902465574e-12
8.123138479e-12
8.90852398e-12
2.482733315e-12
3.064396101e-12
3.997278213e-12
5.317509128e-12
7.027724239e-12
9.053519653e-12
1.120038701e-11
1.312752577e-11
1.436021104e-11
4.126522679e-12
5.072811794e-12
6.583535496e-12
8.708841695e-12
1.144313426e-11
1.465848712e-11
1.804148605e-11
2.105796895e-11
2.297644065e-11
6.821862978e-12
8.348879726e-12
1.077507729e-11
1.416736936e-11
1.850131551e-11
2.356063475e-11
2.88458177e-11
3.352767955e-11
3.648894544e-11
1.121400537e-11
1.365744785e-11
1.752065593e-11
2.288848693e-11
2.969839351e-11
3.759067929e-11
4.577787939e-11
5.298487477e-11
5.751938784e-11
1.832486796e-11
2.220106486e-11
2.829906122e-11
3.671905526e-11
4.732701743e-11
5.953416514e-11
7.2112285e-11
8.311810962e-11
9.000858557e-11
2.976028888e-11
3.585565837e-11
4.53971988e-11
5.849034346e-11
7.487381883e-11
9.359837524e-11
1.127680729e-10
1.294466661e-10
1.398406877e-10
4.802372095e-11
5.752470238e-11
7.232447609e-11
9.251013163e-11
1.17602704e-10
1.460936365e-10
1.750850415e-10
2.001759411e-10
2.157462141e-10
7.69869445e-11
9.166716264e-11
1.14425745e-10
1.452851469e-10
1.834055773e-10
2.264218118e-10
2.699457861e-10
3.07430652e-10
3.3060223e-10
1.225904983e-10
1.45078394e-10
1.797815306e-10
2.265747972e-10
2.840357481e-10
3.485025842e-10
4.133890046e-10
4.690239522e-10
5.032956184e-10
1.938775837e-10
2.28036667e-10
2.805213445e-10
3.509187061e-10
4.368859642e-10
5.328203936e-10
6.289174046e-10
7.109829374e-10
7.613802905e-10
3.045084373e-10
3.559747588e-10
4.347276879e-10
5.398383089e-10
6.675372904e-10
8.093460041e-10
9.507818595e-10
1.071135447e-09
1.144847503e-09
4.749616015e-10
5.518976909e-10
6.691698626e-10
8.249787909e-10
1.013383406e-09
1.221683149e-09
1.428634893e-09
1.604184719e-09
1.711450831e-09
7.356699959e-10
8.498159445e-10
1.023189306e-09
1.252576888e-09
1.528775597e-09
1.832933466e-09
2.134088566e-09
2.388841097e-09
2.544184287e-09
1.131540805e-09
1.299679826e-09
1.554238934e-09
1.88977581e-09
2.292246028e-09
2.733898034e-09
3.169869083e-09
3.53777456e-09
3.761722106e-09
1.728349121e-09
1.974331007e-09
2.345661187e-09
2.833463367e-09
3.416583908e-09
4.054481691e-09
4.682513669e-09
5.211402911e-09
5.532879597e-09
2.62172691e-09
2.979243295e-09
3.517537969e-09
4.222540299e-09
5.062754939e-09
5.979381107e-09
6.879781913e-09
7.636755096e-09
8.096363397e-09
3.949696836e-09
4.466055709e-09
5.241693326e-09
6.254795151e-09
7.458948243e-09
8.769449946e-09
1.005425754e-08
1.113291259e-08
1.178730178e-08
5.910001719e-09
6.651216091e-09
7.762265203e-09
9.209925835e-09
1.092642777e-08
1.279053438e-08
1.461498585e-08
1.614486588e-08
1.707236651e-08
8.78387716e-09
9.841472908e-09
1.142371565e-08
1.348073619e-08
1.59143673e-08
1.855205766e-08
2.112948132e-08
2.328817685e-08
2.459592901e-08
1.296844803e-08
1.44685076e-08
1.670872028e-08
1.961509843e-08
2.30463801e-08
2.67581828e-08
3.037912363e-08
3.340773899e-08
3.524080802e-08
1.90205591e-08
2.113560651e-08
2.428893424e-08
2.837177033e-08
3.3181959e-08
3.83750145e-08
4.343180403e-08
4.76550057e-08
5.02083821e-08
2.771535973e-08
3.067972516e-08
3.509204156e-08
4.079359805e-08
4.749662295e-08
5.471807597e-08
6.173662243e-08
6.758895872e-08
7.112350189e-08
4.012324475e-08
4.425260955e-08
5.038891011e-08
5.830224302e-08
6.758542096e-08
7.75653666e-08
8.724647679e-08
9.530677205e-08
1.001699977e-07
5.770909308e-08
6.342513021e-08
7.1905403e-08
8.281959779e-08
9.559572765e-08
1.093025736e-07
1.22575297e-07
1.336107876e-07
1.402633395e-07
8.245858217e-08
9.032004021e-08
1.01964725e-07
1.169225615e-07
1.343966096e-07
1.531078402e-07
1.71197166e-07
1.862190854e-07
1.952679334e-07
1.170380647e-07
1.277801572e-07
1.43667883e-07
1.640390871e-07
1.877925407e-07
2.131835339e-07
2.376947533e-07
2.580273492e-07
2.70266962e-07
1.649963898e-07
1.795804344e-07
2.011205541e-07
2.286932763e-07
2.607886836e-07
2.950420816e-07
3.280643247e-07
3.554294513e-07
3.718922118e-07
2.310170873e-07
2.506918067e-07
2.797135015e-07
3.16806006e-07
3.599139688e-07
4.058521385e-07
4.500835497e-07
4.867027726e-07
5.087197571e-07
3.212271268e-07
3.476024979e-07
3.864617376e-07
4.360560196e-07
4.93606715e-07
5.548494324e-07
6.137458092e-07
6.624613746e-07
6.91734188e-07
4.435660199e-07
4.787003127e-07
5.304056545e-07
5.963042045e-07
6.726646462e-07
7.538129316e-07
8.317604227e-07
8.961752824e-07
9.348589437e-07
6.082167425e-07
6.547169186e-07
7.230742659e-07
8.100798398e-07
9.107562841e-07
1.017601357e-06
1.120111731e-06
1.204747086e-06
1.255542878e-06
8.280962304e-07
8.892307903e-07
9.790055092e-07
1.093121522e-06
1.224983826e-06
1.364737155e-06
1.498661304e-06
1.609127708e-06
1.675383429e-06
1.119397075e-06
1.199218832e-06
1.316311347e-06
1.464957498e-06
1.636478564e-06
1.818015192e-06
1.991766826e-06
2.134941815e-06
2.220755013e-06
1.502164227e-06
1.605638483e-06
1.757266342e-06
1.949500172e-06
2.170999274e-06
2.405101988e-06
2.628879121e-06
2.813080764e-06
2.923398422e-06
2.000880747e-06
2.13401183e-06
2.328887779e-06
2.57561856e-06
2.859492459e-06
3.159079357e-06
3.445066485e-06
3.680208531e-06
3.820914505e-06
2.645025932e-06
2.814972529e-06
3.063464459e-06
3.377641339e-06
3.738562175e-06
4.118875248e-06
4.481404768e-06
4.779115688e-06
4.957095316e-06
3.469558589e-06
3.684725862e-06
3.99898108e-06
4.395733392e-06
4.850788128e-06
5.329516545e-06
5.785164609e-06
6.158850447e-06
6.382020488e-06
4.5152691e-06
4.78536366e-06
5.179377431e-06
5.676082307e-06
6.244825915e-06
6.842135588e-06
7.409726201e-06
7.87455648e-06
8.151848376e-06
5.828938099e-06
6.164971058e-06
6.654578436e-06
7.270830249e-06
7.97522479e-06
8.713666521e-06
9.414159124e-06
9.986956725e-06
1.032824242e-05
7.463239099e-06
7.877463102e-06
8.480234381e-06
9.237692784e-06
1.010190788e-05
1.100618076e-05
1.186242138e-05
1.256144181e-05
1.297739432e-05
9.476329009e-06
9.982097687e-06
1.071712193e-05
1.163922101e-05
1.26892785e-05
1.378583352e-05
1.482215812e-05
1.566675107e-05
1.616863652e-05
1.193108541e-05
1.254262836e-05
1.343017649e-05
1.454168684e-05
1.580494346e-05
1.712142463e-05
1.836311527e-05
1.937327112e-05
1.997267514e-05
1.489397282e-05
1.562608579e-05
1.668715449e-05
1.801360244e-05
1.951807887e-05
2.108261393e-05
2.255522256e-05
2.375101861e-05
2.445951662e-05
1.843355097e-05
1.930120898e-05
2.055695816e-05
2.212392075e-05
2.389750134e-05
2.573787098e-05
2.746644093e-05
2.88674133e-05
2.969620133e-05
2.261867323e-05
2.363658281e-05
2.510769165e-05
2.694000062e-05
2.900954399e-05
3.11522738e-05
3.316050265e-05
3.478498104e-05
3.57444893e-05
2.751645895e-05
2.869857391e-05
3.040455135e-05
3.252545227e-05
3.491586634e-05
3.738529823e-05
3.969469609e-05
4.155914522e-05
4.265866062e-05
3.319015482e-05
3.454918573e-05
3.650767955e-05
3.893800096e-05
4.167134437e-05
4.448875102e-05
4.711785309e-05
4.923626783e-05
5.048359254e-05
3.969702124e-05
4.124397243e-05
4.347012466e-05
4.622751555e-05
4.932218919e-05
5.250499519e-05
5.54686857e-05
5.785208397e-05
5.925325523e-05
4.708638793e-05
4.883015492e-05
5.133604993e-05
5.443434044e-05
5.790442746e-05
6.146559337e-05
6.477458956e-05
6.743063939e-05
6.898973038e-05
5.539801439e-05
5.734507067e-05
6.013931515e-05
6.358804562e-05
6.744284599e-05
7.13904574e-05
7.505098808e-05
7.798379325e-05
7.970280843e-05
6.466086696e-05
6.681506123e-05
6.990252395e-05
7.370667258e-05
7.795046064e-05
8.228754571e-05
8.630124078e-05
8.951129475e-05
9.139016467e-05
7.489238784e-05
7.725486285e-05
8.063658746e-05
8.479650871e-05
8.942852176e-05
9.415309939e-05
9.851708619e-05
0.0001020013809
0.0001040380148
8.609828703e-05
8.866752044e-05
9.23408094e-05
9.685237693e-05
0.0001018670234
0.0001069723658
0.0001116795519
0.0001154318124
0.0001176223053
9.827284266e-05
0.0001010448003
0.0001050034544
0.0001098583864
0.000115245646
0.0001207207215
0.0001257602132
0.0001297713209
0.0001321101621
0.0001113996541
0.0001143680377
0.0001186027253
0.0001237890564
0.0001295350282
0.000135365061
0.0001407227786
0.0001449812069
0.0001474615545
0.0001254527592
0.0001286093247
0.0001331080483
0.0001386107005
0.0001446982319
0.0001508654443
0.0001565247334
0.0001610170642
0.0001636310475
0.0001403980048
0.0001437329105
0.0001484814799
0.0001542829199
0.0001606923986
0.0001671767171
0.0001731190327
0.0001778305056
0.0001805695495
0.0001561944828
0.0001596967002
0.0001646793649
0.0001707602734
0.0001774703119
0.0001842501075
0.0001904557065
0.0001953707998
0.000198226007
0.0001727962274
0.0001764539054
0.000181653832
0.0001879937289
0.0001949818569
0.0002020346361
0.0002084832314
0.0002135862745
0.0002165490834
0.0001901536502
0.0001939544596
0.000199354216
0.0002059320227
0.0002131752767
0.0002204782313
0.0002271494257
0.0002324248115
0.0002354857383
0.0002082149258
0.0002121463621
0.0002177283323
0.0002245228481
0.0002319982511
0.0002395286759
0.000246402264
0.0002518334499
0.0002549829227
0.0002269272247
0.0002309768621
0.0002367235883
0.0002437138778
0.0002513988186
0.0002591343881
0.0002661893297
0.0002717598349
0.0002749884485
0.0002462377767
0.0002503934696
0.0002562879097
0.0002634536056
0.000271325817
0.0002792435028
0.0002864591237
0.000292152922
0.0002954515541
0.0002660947519
0.0002703448069
0.000276370427
0.0002836910949
0.0002917279045
0.0002998053682
0.0003071617288
0.0003129634104
0.000316323305
0.0002864478487
0.0002907803506
0.0002969202192
0.000304375596
0.0003125552329
0.0003207710856
0.00032824915
0.0003341440338
0.0003375568597
0.000307245837
0.0003116492325
0.0003178872039
0.0003254580309
0.0003337598218
0.0003420937848
0.0003496755354
0.0003556497435
0.0003591076308
0.0003284390163
0.00033290239
0.0003392232211
0.0003468913418
0.0003552958147
0.0003637288084
0.0003713973108
0.0003774378105
0.0003809333711
0.0003499797666
0.0003544928837
0.0003608822883
0.000368630699
0.0003771196331
0.0003856338181
0.0003933732502
0.0003994678699
0.000402994204
0.0003718227626
0.0003763760834
0.0003828207509
0.0003906336185
0.0003991900574
0.0004077688422
0.0004155644954
0.0004217019226
0.0004252526159
0.0003939250887
0.0003985097675
0.0004049973595
0.0004128600136
0.0004214682539
0.0004300962795
0.0004379345416
0.0004441043068
0.0004476734206
0.0004162462906
0.0004208541627
0.0004273732942
0.0004352722027
0.0004439177647
0.000452580873
0.0004604491973
0.0004666416488
0.0004702237051
0.0004387483804
0.0004433719419
0.0004499121518
0.0004578348844
0.0004665044705
0.0004751896615
0.0004830765274
0.0004892828
0.0004928727634
0.0004613958106
0.000466028193
0.0004725799073
0.0004805150903
0.0004891965357
0.0004978919176
0.0005057867849
0.0005119987642
0.000515592022
0.0004841554254
0.0004887903658
0.0004953448565
0.0005032821229
0.0005119643406
0.0005206590746
0.0005285523346
0.0005347626192
0.0005383549595
0.0005069963951
0.0005116282054
0.0005181775461
0.0005261074819
0.0005347804045
0.0005434646481
0.0005513475721
0.000557549434
0.0005611370244
0.0005298901404
0.0005345136741
0.0005410506939
0.0005489647832
0.0005576193036
0.0005662841517
0.0005741488393
0.0005803361846
0.0005839155496
0.0005528102472
0.0005574208664
0.0005639391036
0.0005718296727
0.0005804575844
0.0005890950109
0.000596934338
0.0006031016671
0.0006066696661
0.0005757323769
0.000580325919
0.0005868195746
0.0005946797372
0.000603273675
0.0006118764743
0.0006196840425
0.0006258264113
0.0006293802172
0.0005986341722
0.0006032069177
0.0006096708096
0.0006174944122
0.0006260477941
0.0006346095254
0.0006423796114
0.0006484925936
0.0006520296714
0.0006214951609
0.0006260438011
0.0006324733205
0.0006402548898
0.0006487618605
0.0006572767923
0.0006650043
0.0006710839502
0.0006746020369
0.0006442966585
0.0006488182653
0.0006552093331
0.0006629440251
0.0006713994019
0.0006798624592
0.0006875428734
0.0006935856918
0.0006970827765
0.0006670216708
0.0006715136668
0.0006778626927
0.0006855462441
0.0006939454648
0.0007023521785
0.0007099815201
0.0007159844186
0.0007194587239
0.0006896547967
0.0006941149271
0.0007004187706
0.0007080474519
0.0007163865253
0.0007247329839
0.0007323077676
0.0007382680379
0.0007417180015
0.000712182132
0.0007166084382
0.0007228643713
0.0007304349428
0.0007387104014
0.0007469932056
0.0007545103997
0.0007604256825
0.0007638499405
0.0007345911764
0.0007389819701
0.000745187642
0.0007526973126
0.0007609061683
0.0007691223874
0.0007765793758
0.0007824476321
0.0007858450028
0.0007568707408
0.000761224581
0.0007673779853
0.0007748243725
0.0007829640751
0.0007911112067
0.0007985057534
0.000804325237
0.0008076947055
0.0007790108594
0.0007833265297
0.000789425973
0.0007968070671
0.0008048754648
0.0008129513967
0.0008202816121
0.0008260508443
0.0008293915485
0.0008010027033
0.0008052791912
0.0008113232648
0.000818637394
0.0008266326972
0.0008346356718
0.0008418999816
0.0008476177275
0.0008509289443
0.0008228384985
0.0008270749764
0.000833062529
0.0008403083278
0.000848229075
0.0008561576563
0.0008633547724
0.0008690200184
0.0008723011514
0.0008445114474
0.0008487072541
0.0008546373671
0.0008618137467
0.0008696587733
0.0008775118163
0.0008846407095
0.0008902526426
0.0008935032107
0.0008660156534
0.0008701702781
0.0008760422424
0.0008831483635
0.0008909167721
0.0008986933943
0.0009057532696
0.0009113112586
0.0009145308846
0.0008873460499
0.0008914591168
0.0008972724117
0.0009043076592
0.0009119987931
0.0009196983486
0.0009266886218
0.000932192199
0.0009353806001
0.0009084983335
0.0009125695875
0.0009183238612
0.0009252878211
0.0009329012396
0.0009405232944
0.000947443571
0.0009528924164
0.0009560493946
0.0009294688999
0.0009334981943
0.0009391932456
0.0009460856838
0.0009536211394
0.0009611654498
0.000968015505
0.0009734094308
0.0009765348646
0.0009502547852
0.0009542420692
0.0009598778318
0.0009666986744
0.0009741560919
0.000981622584
0.0009884023451
0.0009937412822
0.0009968351185
0.0009708536095
0.0009747989181
0.000980375445
0.0009871247608
0.0009945042184
0.001001892969
0.001008602499
0.001013886484
0.001016948731
0.000991263525
0.000995166969
0.001000684419
0.001007362403
0.001014664115
0.001021975336
0.001028614818
0.001033843982
0.001036874703
0.001011483168
0.001015344925
0.00102080355
0.001027410509
0.00103463481
0.001041868832
0.001048438555
0.001053613112
0.001056612418
0.001031511612
0.001035331918
0.001040732054
0.001047268393
0.001054415723
0.00106157298
0.001068073329
0.001073193567
0.001076161613
0.00105134833
0.001055127473
0.001060469525
0.001066935735
0.001074006627
0.001081087645
0.001087519087
0.001092585359
0.001095522338
0.001070993149
0.001074731461
0.0010800159
0.001086412546
0.001093407615
0.001100413
0.001106776074
0.001111788791
0.001114694929
0.00109044622
0.001094144073
0.001099371421
0.001105699135
0.001112619064
0.001119549495
0.001125844801
0.001130804425
0.001133679976
0.001109707983
0.001113365781
0.00111853661
0.001124796078
0.001131641613
0.001138497825
0.001144726022
0.001149633053
0.001152478299
0.001128779136
0.001132397313
0.001137512232
0.001143704189
0.001150476127
0.001157258908
0.001163420698
0.001168275679
0.001171090922
0.001147660608
0.001151239621
0.001156299275
0.001162424496
0.001169123678
0.00117583386
0.001181929987
0.00118673349
0.001189519051
0.001166353532
0.001169893859
0.001174898919
0.001180958215
0.001187585518
0.001194223971
0.001200255212
0.001205007834
0.001207764052
0.001184859222
0.001188361356
0.001193312521
0.001199306728
0.00120586306
0.001212430683
0.001218397843
0.001223100208
0.001225827432
0.001203179152
0.001206643602
0.001211541585
0.001217471564
0.00122395786
0.001230455578
0.001236359484
0.001241012231
0.001243710825
0.001221314936
0.00122474222
0.001229587752
0.001235454382
0.001241871594
0.001248300351
0.00125414185
0.001258745634
0.001261415969
0.001239268309
0.001242658955
0.001247452776
0.00125325695
0.001259606047
0.001265966804
0.001271746757
0.001276302245
0.001278944699
0.001257041112
0.001260395653
0.001265138515
0.001270881135
0.001277163096
0.001283456824
0.001289176102
0.001293683971
0.001296298928
0.001274635278
0.001277954249
0.001282646908
0.001288328884
0.001294544698
0.001300772376
0.001306431858
0.001310892789
0.001313480639
0.001292052814
0.001295336756
0.00129997997
0.001305602216
0.001311752873
0.001317915486
0.001323516056
0.001327930736
0.001330491868
0.001309295795
0.001312545246
0.001317139776
0.001322703207
0.001328789702
0.001334888235
0.001340430779
0.001344799896
0.001347334703
0.001326366346
0.001329581847
0.001334128451
0.001339633981
0.001345657305
0.001351692745
0.001357178147
0.00136150239
0.001364011266
0.001343266639
0.001346448725
0.001350948161
0.001356396701
0.001362357844
0.001368331172
0.001373760317
0.001378040373
0.001380523711
0.001359998877
0.001363148084
0.001367601104
0.00137299356
0.001378893506
0.0013848057
0.001390179467
0.001394416021
0.001396874211
0.001376565292
0.00137968215
0.001384089501
0.001389426772
0.0013952665
0.00140111853
0.001406437792
0.001410631525
0.001413064958
0.001392968132
0.001396053167
0.00140041559
0.001405698569
0.001411479046
0.001417271877
0.001422537501
0.001426689088
0.001429098151
0.001409209661
0.001412263393
0.001416581619
0.001421811189
0.001427533376
0.00143326796
0.001438480805
0.001442590917
0.001444975992
0.001425292143
0.001428315087
0.001432589843
0.001437766875
0.00144343172
0.001449109002
0.001454269918
0.001458339216
0.001460700684
0.001441217849
0.001444210512
0.001448442512
0.00145356787
0.00145917631
0.00146479722
0.001469907046
0.001473936185
0.001476274422
0.00145698904
0.001459951923
0.001464141873
0.001469216406
0.001474769366
0.001480334824
0.001485394388
0.001489384016
0.001491699393
0.001472607972
0.001475541568
0.001479690163
0.00148471471
0.0014902131
0.001495724012
0.001500734131
0.001504684885
0.001506977768
0.001488076884
0.00149098168
0.001495089605
0.001500064989
0.001505509706
0.001510966965
0.001515928443
0.001519840952
0.001522111701
0.001503398004
0.001506274476
0.001510342403
0.001515269436
0.001520661362
0.001526065844
0.001530979472
0.001534854354
0.001537103325
0.001518573533
0.001521422151
0.001525450742
0.001530330219
0.00153567022
0.001541022788
0.001545889344
0.001549727205
0.001551954747
0.001533605654
0.001536426877
0.001540416779
0.001545249483
0.001550538409
0.001555839909
0.001560660154
0.001564461591
0.001566668047
0.001548496517
0.001551290798
0.001555242647
0.001560029342
0.001565268026
0.001570519286
0.001575293968
0.001579059566
0.001581245271
0.001563248245
0.001566016024
0.001569930441
0.001574671878
0.001579861134
0.001585062964
0.001589792815
0.001593523144
0.001595688428
0.001577862922
0.00158060463
0.001584482224
0.001589179134
0.001594319758
0.001599472949
0.001604158682
0.0016078543
0.001609999482
0.001592342594
0.001595058651
0.001598900013
0.001603553109
0.001608645875
0.001613751199
0.001618393507
0.001622054957
0.001624180349
0.001606689258
0.001609380073
0.001613185778
0.001617795752
0.001622841413
0.001627899616
0.001632499173
0.00163612698
0.001638232885
0.001620904858
0.001623570827
0.001627341432
0.001631908953
0.001636908235
0.00164192004
0.001646477495
0.001650072165
0.001652158873
0.001634991277
0.00163763278
0.00164136882
0.001645894533
0.001650848135
0.001655814232
0.001660330207
0.001663892225
0.001665960013
0.001648950318
0.00165156772
0.001655269707
0.001659754226
0.001664662812
0.00166958386
0.001674058945
0.001677588768
0.0016796379
0.001662783696
0.001665377342
0.00166904576
0.001673489665
0.00167835386
0.001683230476
0.001687665221
0.001691163278
0.001693193996
0.001676493014
0.001679063225
0.001682698525
0.001687102353
0.001691922736
0.001696755488
0.001701150399
0.001704617079
0.001706629605
0.001690079736
0.001692626807
0.001696229398
0.001700593637
0.001705370729
0.001710160125
0.001714515651
0.001717951295
0.001719945823
0.001703545155
0.001706069345
0.001709639589
0.001713964664
0.001718698916
0.00172344539
0.001727761908
0.001731166803
0.00173314349
0.001716890349
0.001719391876
0.001722930071
0.001727216331
0.001731908106
0.001736612
0.001740889802
0.001744264161
0.001746223123
0.001730116126
0.001732595156
0.001736101526
0.001740349224
0.001744998775
0.001749660319
0.001753899587
0.001757243533
0.001759184832
0.001743222958
0.001745679591
0.001749154266
0.001753363537
0.001757970983
0.001762590261
0.001766791041
0.001770104587
0.001772028217
0.001756210898
0.001758645154
0.001762088144
0.001766258975
0.001770824265
0.001775401187
0.001779563356
0.001782846374
0.001784752246
0.001769079477
0.001771491275
0.001774902447
0.001779034642
0.001783557516
0.001788091771
0.001792214998
0.001795467191
0.001797355111
0.001781827587
0.001784216723
0.001787595762
0.001791688899
0.001796168842
0.001800659849
0.001804743548
0.001807964406
0.001809834056
0.001794453335
0.001796819455
0.00180016583
0.001804219212
0.001808655394
0.001813102246
0.001817145517
0.001820334276
0.001822185183
0.00180695389
0.001809296454
0.001812609366
0.001816621966
0.001821013178
0.001825414572
0.001829416143
0.001832571731
0.001834403239
0.001819325291
0.001821643543
0.001824921875
0.001828892266
0.00183323685
0.001837591011
0.001841549164
0.001844670146
0.00184648138
0.001831562254
0.001833855176
0.001837097435
0.001841023721
0.001845319486
0.001849624087
0.001853536582
0.001856621095
0.001858410927
0.001843657954
0.001845924225
0.001849128481
0.00185300822
0.001857252355
0.001861504428
0.00186536842
0.001868414112
0.001870181122
0.001855603804
0.001857841754
0.001861005572
0.001864835695
0.001869024686
0.00187322053
0.001877032491
0.001880036453
0.001881778889
0.001867389241
0.001869596804
0.001872717177
0.00187649391
0.001880623449
0.001884758549
0.001888514185
0.001891472892
0.001893188637
0.001879001511
0.001881176182
0.001884249478
0.001887968268
0.001892033172
0.001896102116
0.001899796301
0.001902705555
0.001904392097
0.001890425501
0.0018925643
0.001895586201
0.001899241653
0.001903235804
0.001907232219
0.001910858938
0.001913713832
0.001915368242
0.001901643608
0.001903743047
0.001906708514
0.001910294349
0.001914210647
0.001918127165
0.001921679485
0.001924474379
0.0019260933
0.001912635675
0.001914691747
0.001917595
0.001921104037
0.001924934387
0.001928762635
0.001932232708
0.001934961237
0.001936540894
0.001923379022
0.001925387204
0.001928221732
0.001931645902
0.00193538124
0.001939111879
0.001942490983
0.001945146102
0.001946682325
0.001933848584
0.001935803859
0.001938562462
0.001941892872
0.001945523242
0.001949146057
0.001952424687
0.001954998748
0.001956487028
0.001944017175
0.001945914094
0.001948588965
0.001951816005
0.001955330694
0.001958834738
0.001962002758
0.00196448764
0.001965923206
0.001953855907
0.001955688669
0.001958271525
0.001961385035
0.00196477277
0.001968146581
0.001971193434
0.001973580718
0.00197495865
0.001963334759
0.001965097334
0.001967579591
0.00197056909
0.001973818301
0.001977050185
0.001979965163
0.001982246365
0.001983561725
0.001972423305
0.001974109586
0.001976482587
0.001979337558
0.001982436707
0.001985515086
0.001988287666
0.001990454506
0.001991702507
0.001981091586
0.001982695581
0.001984950865
0.001987661096
0.001990599067
0.001993512882
0.001996133107
0.00199817782
0.001999354013
0.001989311113
0.001990827152
0.001992956764
0.001995512732
0.001998279261
0.002001018419
0.002003477314
0.002005392993
0.002006493461
0.001997055945
0.001998478916
0.00200047574
0.002002869018
0.002005455151
0.002008010992
0.002010300996
0.002012081928
0.002013103488
0.002004303804
0.00200562939
0.002007487487
0.002009711161
0.00201210971
0.002014475462
0.002016590842
0.002018232837
0.002019173231
0.002011037162
0.002012262073
0.002013977008
0.002016026066
0.002018232028
0.002020403227
0.002022340451
0.002023841127
0.002024699176
0.002017244224