/*--------------------------------*- C++ -*----------------------------------*\
| =========                 |                                                 |
| \\      /  F ield         | OpenFOAM: The Open Source CFD Toolbox           |
|  \\    /   O peration     | Version:  2212                                  |
|   \\  /    A nd           | Website:  www.openfoam.com                      |
|    \\/     M anipulation  |                                                 |
\*---------------------------------------------------------------------------*/
FoamFile
{
    version     2.0;
    format      ascii;
    arch        "LSB;label=32;scalar=64";
    class       volScalarField;
    location    "23.25000000";
    object      CH2CO;
}
// * * * * * * * * * * * * * * * * * * * * * * * * * * * * * * * * * * * * * //

dimensions      [0 0 0 0 0 0 0];

internalField   nonuniform List<scalar> 
3000
(
3.107003153e-22
3.490338753e-22
4.068783567e-22
4.839596959e-22
5.794915004e-22
6.908755259e-22
8.113982729e-22
9.263882572e-22
1.007715502e-21
1.166502702e-21
1.315713986e-21
1.540775137e-21
1.841354682e-21
2.217145195e-21
2.666030478e-21
3.180218148e-21
3.733566287e-21
4.223956984e-21
2.612787392e-21
2.970095703e-21
3.514189162e-21
4.252947473e-21
5.19966051e-21
6.368018666e-21
7.753500477e-21
9.278130563e-21
1.058185988e-20
4.976648093e-21
5.716491787e-21
6.859604612e-21
8.444662941e-21
1.052782183e-20
1.316196874e-20
1.633282517e-20
1.97861215e-20
2.257402198e-20
8.837029762e-21
1.027530772e-20
1.253254262e-20
1.572338416e-20
1.999793424e-20
2.547594231e-20
3.206610493e-20
3.906428848e-20
4.443672091e-20
1.519581242e-20
1.789525418e-20
2.219248939e-20
2.836170883e-20
3.673199817e-20
4.751379898e-20
6.038528101e-20
7.372286512e-20
8.35906196e-20
2.579668411e-20
3.075517075e-20
3.874057577e-20
5.033408828e-20
6.6181289e-20
8.659700308e-20
1.107369544e-19
1.352631506e-19
1.529601836e-19
4.365612706e-20
5.26296654e-20
6.720970222e-20
8.85414561e-20
1.178146463e-19
1.554504248e-19
1.995606112e-19
2.437243747e-19
2.750594677e-19
7.400029382e-20
9.006841422e-20
1.163445679e-19
1.549836339e-19
2.081018201e-19
2.762091948e-19
3.554580249e-19
4.339774951e-19
4.890732053e-19
1.258787697e-19
1.544242811e-19
2.013185717e-19
2.704999031e-19
3.656640414e-19
4.873623236e-19
6.281838305e-19
7.66685701e-19
8.6314724e-19
2.14971476e-19
2.653853864e-19
3.484685145e-19
4.712867526e-19
6.402387948e-19
8.558151299e-19
1.104236629e-18
1.347311604e-18
1.515753242e-18
3.684530755e-19
4.570952581e-19
6.035003898e-19
8.201997094e-19
1.11823642e-18
1.497839732e-18
1.933957362e-18
2.359147713e-18
2.652764732e-18
6.334368318e-19
7.887812396e-19
1.045743631e-18
1.42638617e-18
1.949757625e-18
2.615445916e-18
3.378559049e-18
4.120648691e-18
4.631854736e-18
1.091626094e-18
1.363197957e-18
1.812890482e-18
2.479366307e-18
3.395503298e-18
4.559543018e-18
5.891805576e-18
7.184984869e-18
8.074267492e-18
1.884743438e-18
2.358643747e-18
3.143946919e-18
4.308203939e-18
5.908213427e-18
7.939580098e-18
1.026177994e-17
1.251283977e-17
1.405886549e-17
3.258664584e-18
4.084531543e-18
5.45378813e-18
7.484220999e-18
1.027403542e-17
1.38138574e-17
1.785693821e-17
2.177229002e-17
2.445895212e-17
5.640012951e-18
7.077839453e-18
9.462561954e-18
1.299926441e-17
1.785783914e-17
2.401969397e-17
3.105285662e-17
3.785872693e-17
4.252562812e-17
9.769080476e-18
1.227049699e-17
1.642026343e-17
2.2575057e-17
3.102884819e-17
4.174613929e-17
5.3972226e-17
6.579601107e-17
7.389913594e-17
1.693045275e-17
2.127981964e-17
2.849638412e-17
3.919986726e-17
5.389886649e-17
7.252701032e-17
9.376757361e-17
1.14298402e-16
1.283616552e-16
2.935304138e-17
3.691229325e-17
4.945574754e-17
6.805916183e-17
9.360198785e-17
1.259613837e-16
1.628422704e-16
1.9847315e-16
2.228681537e-16
5.090360456e-17
6.403692842e-17
8.582993869e-17
1.181482178e-16
1.62511112e-16
2.186919956e-16
2.826926411e-16
3.444923793e-16
3.86783442e-16
8.828822772e-17
1.110980894e-16
1.489458602e-16
2.050633261e-16
2.820718874e-16
3.795532333e-16
4.905439254e-16
5.976558311e-16
6.709146304e-16
1.531325161e-16
1.927345783e-16
2.584368193e-16
3.558304579e-16
4.894297456e-16
6.584585934e-16
8.507913141e-16
1.036275964e-15
1.163054095e-15
2.655784378e-16
3.343071619e-16
4.483090309e-16
6.172418375e-16
8.488596248e-16
1.141711067e-15
1.474681846e-15
1.795530268e-15
2.014652085e-15
4.604946195e-16
5.797130495e-16
7.774055469e-16
1.070221294e-15
1.471435685e-15
1.978309752e-15
2.554074076e-15
3.108304815e-15
3.486433304e-15
7.981804259e-16
1.004848742e-15
1.34741889e-15
1.854522594e-15
2.548793664e-15
3.425012292e-15
4.419140008e-15
5.374861476e-15
6.026093116e-15
1.382775211e-15
1.740748443e-15
2.33381482e-15
3.211064278e-15
4.410885178e-15
5.923236227e-15
7.636582134e-15
9.281128611e-15
1.039998945e-14
2.393838702e-15
3.013241459e-15
4.038757843e-15
5.554242941e-15
7.624385123e-15
1.022971179e-14
1.317598573e-14
1.599847499e-14
1.791510061e-14
4.140363925e-15
5.210698311e-15
6.98135887e-15
9.594941775e-15
1.315958784e-14
1.763730672e-14
2.268996799e-14
2.751902161e-14
3.079071095e-14
7.15284146e-15
8.999323381e-15
1.205091167e-14
1.654877586e-14
2.267194394e-14
3.034603928e-14
3.898290457e-14
4.721453614e-14
5.277632927e-14
1.23395743e-14
1.551852066e-14
2.076582253e-14
2.848671864e-14
3.897409813e-14
5.208224879e-14
6.678947151e-14
8.076080657e-14
9.017077101e-14
2.125093731e-14
2.671035136e-14
3.570875794e-14
4.892185491e-14
6.682195797e-14
8.912422257e-14
1.140574396e-13
1.376536276e-13
1.534883252e-13
3.652399488e-14
4.587215851e-14
6.125353724e-14
8.378465157e-14
1.14213935e-13
1.519873101e-13
1.940430418e-13
2.336726279e-13
2.601578388e-13
6.262667965e-14
7.857812346e-14
1.047713827e-13
1.430320827e-13
1.945210163e-13
2.581684607e-13
3.287021807e-13
3.948475798e-13
4.388530604e-13
1.070963419e-13
1.342063567e-13
1.786184252e-13
2.432815964e-13
3.299488707e-13
4.365751463e-13
5.541262308e-13
6.637808698e-13
7.363716689e-13
1.825886018e-13
2.284522954e-13
3.033856528e-13
4.120865672e-13
5.571141063e-13
7.346042418e-13
9.291694673e-13
1.109625608e-12
1.228454525e-12
3.102446971e-13
3.874357285e-13
5.131707481e-13
6.948155684e-13
9.359418381e-13
1.229346345e-12
1.549006457e-12
1.84367702e-12
2.036634683e-12
5.251877624e-13
6.543611524e-13
8.64058523e-13
1.165621625e-12
1.563728043e-12
2.04514674e-12
2.566227596e-12
3.043498339e-12
3.354225172e-12
8.854287881e-13
1.100233563e-12
1.447645821e-12
1.944773198e-12
2.597153548e-12
3.380864398e-12
4.223350519e-12
4.989903004e-12
5.486033495e-12
1.486187142e-12
1.840957964e-12
2.412423029e-12
3.225785543e-12
4.28642298e-12
5.551788943e-12
6.902465629e-12
8.123138534e-12
8.90852402e-12
2.482733334e-12
3.064396124e-12
3.997278245e-12
5.317509171e-12
7.027724297e-12
9.053519726e-12
1.12003871e-11
1.312752586e-11
1.43602111e-11
4.126522711e-12
5.072811834e-12
6.58353555e-12
8.708841769e-12
1.144313436e-11
1.465848725e-11
1.80414862e-11
2.105796909e-11
2.297644075e-11
6.821863036e-12
8.348879798e-12
1.077507739e-11
1.416736948e-11
1.850131568e-11
2.356063496e-11
2.884581794e-11
3.352767979e-11
3.648894561e-11
1.121400547e-11
1.365744797e-11
1.752065609e-11
2.288848713e-11
2.969839377e-11
3.759067963e-11
4.577787978e-11
5.298487515e-11
5.751938811e-11
1.832486812e-11
2.220106506e-11
2.829906148e-11
3.67190556e-11
4.732701786e-11
5.953416567e-11
7.211228563e-11
8.311811022e-11
9.000858599e-11
2.976028914e-11
3.58556587e-11
4.539719922e-11
5.8490344e-11
7.487381951e-11
9.359837609e-11
1.127680738e-10
1.29446667e-10
1.398406883e-10
4.802372138e-11
5.752470292e-11
7.232447678e-11
9.25101325e-11
1.17602705e-10
1.460936379e-10
1.75085043e-10
2.001759425e-10
2.157462151e-10
7.69869452e-11
9.166716355e-11
1.144257461e-10
1.452851483e-10
1.83405579e-10
2.264218139e-10
2.699457885e-10
3.074306542e-10
3.306022315e-10
1.225904995e-10
1.450783954e-10
1.797815324e-10
2.265747994e-10
2.840357508e-10
3.485025874e-10
4.133890083e-10
4.690239555e-10
5.032956207e-10
1.938775855e-10
2.280366692e-10
2.805213473e-10
3.509187096e-10
4.368859685e-10
5.328203988e-10
6.289174103e-10
7.109829424e-10
7.61380294e-10
3.045084402e-10
3.559747624e-10
4.347276924e-10
5.398383145e-10
6.675372971e-10
8.093460121e-10
9.507818681e-10
1.071135454e-09
1.144847509e-09
4.749616062e-10
5.518976967e-10
6.691698698e-10
8.249787996e-10
1.013383416e-09
1.221683161e-09
1.428634906e-09
1.60418473e-09
1.711450839e-09
7.356700035e-10
8.498159537e-10
1.023189317e-09
1.252576901e-09
1.528775612e-09
1.832933484e-09
2.134088585e-09
2.388841114e-09
2.544184298e-09
1.131540817e-09
1.29967984e-09
1.554238951e-09
1.88977583e-09
2.292246052e-09
2.733898061e-09
3.169869112e-09
3.537774585e-09
3.761722123e-09
1.728349139e-09
1.974331028e-09
2.345661212e-09
2.833463397e-09
3.416583944e-09
4.054481733e-09
4.682513713e-09
5.211402948e-09
5.532879623e-09
2.621726938e-09
2.979243327e-09
3.517538007e-09
4.222540345e-09
5.062754993e-09
5.979381171e-09
6.879781979e-09
7.636755151e-09
8.096363436e-09
3.949696877e-09
4.466055758e-09
5.241693385e-09
6.254795222e-09
7.458948326e-09
8.769450041e-09
1.005425764e-08
1.113291267e-08
1.178730184e-08
5.910001783e-09
6.651216166e-09
7.762265293e-09
9.209925942e-09
1.092642789e-08
1.279053452e-08
1.461498599e-08
1.6144866e-08
1.707236659e-08
8.783877259e-09
9.841473025e-09
1.142371578e-08
1.348073635e-08
1.591436748e-08
1.855205786e-08
2.112948152e-08
2.328817702e-08
2.459592913e-08
1.296844818e-08
1.446850778e-08
1.670872048e-08
1.961509866e-08
2.304638036e-08
2.675818309e-08
3.037912392e-08
3.340773922e-08
3.524080819e-08
1.902055932e-08
2.113560676e-08
2.428893453e-08
2.837177067e-08
3.318195938e-08
3.837501492e-08
4.343180444e-08
4.765500604e-08
5.020838235e-08
2.771536004e-08
3.067972551e-08
3.509204197e-08
4.079359853e-08
4.749662349e-08
5.471807656e-08
6.173662302e-08
6.758895919e-08
7.112350224e-08
4.012324519e-08
4.425261005e-08
5.03889107e-08
5.83022437e-08
6.758542172e-08
7.756536743e-08
8.724647761e-08
9.53067727e-08
1.001699982e-07
5.770909369e-08
6.342513092e-08
7.190540383e-08
8.281959874e-08
9.559572872e-08
1.093025748e-07
1.225752981e-07
1.336107885e-07
1.402633402e-07
8.245858305e-08
9.032004122e-08
1.019647262e-07
1.169225629e-07
1.343966111e-07
1.531078418e-07
1.711971675e-07
1.862190866e-07
1.952679343e-07
1.17038066e-07
1.277801586e-07
1.436678846e-07
1.640390889e-07
1.877925428e-07
2.13183536e-07
2.376947554e-07
2.580273508e-07
2.702669632e-07
1.649963916e-07
1.795804364e-07
2.011205564e-07
2.286932788e-07
2.607886863e-07
2.950420846e-07
3.280643276e-07
3.554294537e-07
3.718922135e-07
2.310170897e-07
2.506918095e-07
2.797135046e-07
3.168060094e-07
3.599139726e-07
4.058521426e-07
4.500835538e-07
4.867027758e-07
5.087197594e-07
3.212271301e-07
3.476025015e-07
3.864617417e-07
4.360560242e-07
4.936067202e-07
5.548494381e-07
6.137458146e-07
6.624613789e-07
6.917341911e-07
4.435660243e-07
4.787003176e-07
5.304056601e-07
5.963042109e-07
6.726646533e-07
7.538129393e-07
8.3176043e-07
8.961752881e-07
9.348589477e-07
6.082167485e-07
6.547169253e-07
7.230742736e-07
8.100798484e-07
9.107562936e-07
1.017601367e-06
1.120111741e-06
1.204747093e-06
1.255542883e-06
8.280962387e-07
8.892307995e-07
9.790055195e-07
1.093121533e-06
1.224983839e-06
1.364737169e-06
1.498661317e-06
1.609127717e-06
1.675383436e-06
1.119397086e-06
1.199218844e-06
1.316311361e-06
1.464957514e-06
1.636478581e-06
1.818015209e-06
1.991766842e-06
2.134941827e-06
2.220755022e-06
1.502164241e-06
1.605638499e-06
1.75726636e-06
1.949500192e-06
2.170999295e-06
2.405102011e-06
2.628879142e-06
2.81308078e-06
2.923398433e-06
2.000880765e-06
2.13401185e-06
2.328887802e-06
2.575618585e-06
2.859492486e-06
3.159079386e-06
3.445066512e-06
3.680208552e-06
3.82091452e-06
2.645025955e-06
2.814972554e-06
3.063464488e-06
3.377641371e-06
3.73856221e-06
4.118875285e-06
4.481404803e-06
4.779115715e-06
4.957095336e-06
3.469558619e-06
3.684725895e-06
3.998981116e-06
4.395733432e-06
4.850788172e-06
5.329516591e-06
5.785164652e-06
6.15885048e-06
6.382020512e-06
4.515269138e-06
4.785363701e-06
5.179377477e-06
5.676082358e-06
6.24482597e-06
6.842135646e-06
7.409726254e-06
7.87455652e-06
8.151848405e-06
5.828938147e-06
6.16497111e-06
6.654578494e-06
7.270830313e-06
7.975224858e-06
8.713666591e-06
9.414159188e-06
9.986956773e-06
1.032824246e-05
7.463239158e-06
7.877463167e-06
8.480234452e-06
9.237692862e-06
1.010190797e-05
1.100618084e-05
1.186242145e-05
1.256144187e-05
1.297739436e-05
9.476329083e-06
9.982097768e-06
1.071712202e-05
1.16392211e-05
1.26892786e-05
1.378583363e-05
1.482215822e-05
1.566675114e-05
1.616863657e-05
1.19310855e-05
1.254262845e-05
1.34301766e-05
1.454168696e-05
1.580494358e-05
1.712142475e-05
1.836311538e-05
1.937327121e-05
1.99726752e-05
1.489397293e-05
1.562608591e-05
1.668715462e-05
1.801360258e-05
1.951807902e-05
2.108261408e-05
2.25552227e-05
2.375101871e-05
2.445951669e-05
1.84335511e-05
1.930120912e-05
2.055695832e-05
2.212392091e-05
2.389750151e-05
2.573787115e-05
2.746644109e-05
2.886741343e-05
2.969620142e-05
2.261867338e-05
2.363658297e-05
2.510769183e-05
2.694000082e-05
2.900954419e-05
3.115227401e-05
3.316050284e-05
3.478498118e-05
3.574448941e-05
2.751645913e-05
2.86985741e-05
3.040455156e-05
3.252545249e-05
3.491586658e-05
3.738529847e-05
3.969469631e-05
4.155914539e-05
4.265866073e-05
3.319015503e-05
3.454918596e-05
3.650767979e-05
3.893800122e-05
4.167134465e-05
4.44887513e-05
4.711785334e-05
4.923626802e-05
5.048359268e-05
3.969702147e-05
4.124397269e-05
4.347012494e-05
4.622751585e-05
4.932218951e-05
5.250499551e-05
5.546868598e-05
5.785208419e-05
5.925325538e-05
4.70863882e-05
4.883015522e-05
5.133605025e-05
5.443434078e-05
5.790442781e-05
6.146559372e-05
6.477458988e-05
6.743063963e-05
6.898973055e-05
5.53980147e-05
5.7345071e-05
6.013931551e-05
6.3588046e-05
6.744284638e-05
7.139045779e-05
7.505098844e-05
7.798379351e-05
7.970280862e-05
6.466086731e-05
6.68150616e-05
6.990252435e-05
7.3706673e-05
7.795046107e-05
8.228754614e-05
8.630124117e-05
8.951129504e-05
9.139016488e-05
7.489238823e-05
7.725486326e-05
8.06365879e-05
8.479650917e-05
8.942852223e-05
9.415309986e-05
9.851708662e-05
0.0001020013812
0.000104038015
8.609828745e-05
8.866752089e-05
9.234080988e-05
9.685237744e-05
0.000101867024
0.0001069723664
0.0001116795524
0.0001154318127
0.0001176223056
9.827284313e-05
0.0001010448008
0.0001050034549
0.000109858387
0.0001152456465
0.0001207207221
0.0001257602137
0.0001297713213
0.0001321101623
0.0001113996546
0.0001143680382
0.0001186027259
0.000123789057
0.0001295350288
0.0001353650616
0.0001407227792
0.0001449812073
0.0001474615548
0.0001254527598
0.0001286093253
0.000133108049
0.0001386107011
0.0001446982325
0.000150865445
0.000156524734
0.0001610170647
0.0001636310478
0.0001403980054
0.0001437329112
0.0001484814806
0.0001542829206
0.0001606923994
0.0001671767178
0.0001731190334
0.000177830506
0.0001805695498
0.0001561944834
0.0001596967009
0.0001646793656
0.0001707602741
0.0001774703126
0.0001842501082
0.0001904557072
0.0001953708003
0.0001982260073
0.0001727962281
0.0001764539061
0.0001816538328
0.0001879937297
0.0001949818577
0.0002020346369
0.0002084832321
0.0002135862751
0.0002165490838
0.0001901536509
0.0001939544604
0.0001993542168
0.0002059320235
0.0002131752776
0.0002204782322
0.0002271494264
0.0002324248121
0.0002354857387
0.0002082149266
0.000212146363
0.0002177283332
0.0002245228489
0.000231998252
0.0002395286768
0.0002464022647
0.0002518334505
0.0002549829232
0.0002269272255
0.0002309768629
0.0002367235892
0.0002437138787
0.0002513988195
0.000259134389
0.0002661893306
0.0002717598355
0.000274988449
0.0002462377775
0.0002503934705
0.0002562879106
0.0002634536065
0.0002713258179
0.0002792435037
0.0002864591245
0.0002921529227
0.0002954515545
0.0002660947527
0.0002703448078
0.000276370428
0.0002836910959
0.0002917279055
0.0002998053692
0.0003071617296
0.000312963411
0.0003163233055
0.0002864478496
0.0002907803516
0.0002969202202
0.000304375597
0.0003125552339
0.0003207710866
0.0003282491509
0.0003341440345
0.0003375568602
0.0003072458379
0.0003116492335
0.0003178872049
0.000325458032
0.0003337598229
0.0003420937858
0.0003496755363
0.0003556497442
0.0003591076314
0.0003284390172
0.000332902391
0.0003392232221
0.0003468913428
0.0003552958158
0.0003637288094
0.0003713973118
0.0003774378112
0.0003809333716
0.0003499797676
0.0003544928847
0.0003608822893
0.0003686307001
0.0003771196342
0.0003856338191
0.0003933732512
0.0003994678707
0.0004029942046
0.0003718227635
0.0003763760844
0.000382820752
0.0003906336196
0.0003991900585
0.0004077688433
0.0004155644964
0.0004217019234
0.0004252526165
0.0003939250897
0.0003985097685
0.0004049973607
0.0004128600147
0.0004214682551
0.0004300962807
0.0004379345426
0.0004441043076
0.0004476734212
0.0004162462916
0.0004208541637
0.0004273732953
0.0004352722039
0.0004439177659
0.0004525808742
0.0004604491983
0.0004666416496
0.0004702237057
0.0004387483814
0.000443371943
0.0004499121529
0.0004578348855
0.0004665044717
0.0004751896627
0.0004830765285
0.0004892828008
0.000492872764
0.0004613958117
0.0004660281941
0.0004725799084
0.0004805150915
0.0004891965369
0.0004978919187
0.000505786786
0.000511998765
0.0005155920226
0.0004841554264
0.0004887903669
0.0004953448577
0.0005032821241
0.0005119643418
0.0005206590758
0.0005285523357
0.00053476262
0.0005383549601
0.0005069963962
0.0005116282065
0.0005181775473
0.0005261074831
0.0005347804057
0.0005434646493
0.0005513475732
0.0005575494348
0.000561137025
0.0005298901415
0.0005345136752
0.0005410506951
0.0005489647844
0.0005576193048
0.0005662841529
0.0005741488404
0.0005803361854
0.0005839155502
0.0005528102483
0.0005574208675
0.0005639391048
0.0005718296739
0.0005804575856
0.000589095012
0.0005969343391
0.0006031016679
0.0006066696667
0.000575732378
0.0005803259202
0.0005868195758
0.0005946797384
0.0006032736762
0.0006118764755
0.0006196840435
0.0006258264121
0.0006293802178
0.0005986341733
0.0006032069188
0.0006096708108
0.0006174944134
0.0006260477953
0.0006346095266
0.0006423796124
0.0006484925944
0.000652029672
0.0006214951619
0.0006260438023
0.0006324733217
0.000640254891
0.0006487618617
0.0006572767934
0.0006650043011
0.000671083951
0.0006746020375
0.0006442966596
0.0006488182665
0.0006552093342
0.0006629440263
0.0006713994031
0.0006798624604
0.0006875428745
0.0006935856926
0.0006970827771
0.0006670216719
0.000671513668
0.0006778626939
0.0006855462453
0.000693945466
0.0007023521797
0.0007099815212
0.0007159844194
0.0007194587245
0.0006896547977
0.0006941149282
0.0007004187718
0.0007080474531
0.0007163865265
0.0007247329851
0.0007323077687
0.0007382680388
0.0007417180021
0.0007121821331
0.0007166084393
0.0007228643724
0.000730434944
0.0007387104026
0.0007469932068
0.0007545104007
0.0007604256833
0.0007638499411
0.0007345911775
0.0007389819712
0.0007451876432
0.0007526973138
0.0007609061695
0.0007691223886
0.0007765793769
0.0007824476329
0.0007858450034
0.0007568707419
0.0007612245822
0.0007673779864
0.0007748243737
0.0007829640763
0.0007911112079
0.0007985057545
0.0008043252378
0.0008076947061
0.0007790108605
0.0007833265308
0.0007894259742
0.0007968070683
0.000804875466
0.0008129513979
0.0008202816132
0.0008260508451
0.0008293915491
0.0008010027043
0.0008052791924
0.000811323266
0.0008186373952
0.0008266326984
0.0008346356729
0.0008418999827
0.0008476177283
0.0008509289448
0.0008228384996
0.0008270749775
0.0008330625302
0.0008403083289
0.0008482290762
0.0008561576575
0.0008633547735
0.0008690200192
0.000872301152
0.0008445114485
0.0008487072552
0.0008546373683
0.0008618137479
0.0008696587744
0.0008775118174
0.0008846407105
0.0008902526434
0.0008935032112
0.0008660156544
0.0008701702792
0.0008760422436
0.0008831483647
0.0008909167732
0.0008986933954
0.0009057532707
0.0009113112594
0.0009145308851
0.000887346051
0.0008914591179
0.0008972724129
0.0009043076604
0.0009119987943
0.0009196983497
0.0009266886228
0.0009321921998
0.0009353806007
0.0009084983345
0.0009125695886
0.0009183238623
0.0009252878223
0.0009329012408
0.0009405232955
0.000947443572
0.0009528924171
0.0009560493951
0.000929468901
0.0009334981954
0.0009391932467
0.000946085685
0.0009536211405
0.0009611654509
0.000968015506
0.0009734094316
0.0009765348652
0.0009502547862
0.0009542420703
0.0009598778329
0.0009666986756
0.0009741560931
0.0009816225851
0.0009884023461
0.0009937412829
0.0009968351191
0.0009708536105
0.0009747989192
0.0009803754461
0.0009871247619
0.0009945042195
0.00100189297
0.0010086025
0.001013886485
0.001016948732
0.000991263526
0.00099516697
0.00100068442
0.001007362404
0.001014664116
0.001021975337
0.001028614819
0.001033843982
0.001036874703
0.001011483169
0.001015344926
0.001020803551
0.001027410511
0.001034634812
0.001041868833
0.001048438556
0.001053613113
0.001056612419
0.001031511613
0.001035331919
0.001040732055
0.001047268394
0.001054415725
0.001061572981
0.00106807333
0.001073193568
0.001076161614
0.001051348331
0.001055127474
0.001060469526
0.001066935736
0.001074006628
0.001081087646
0.001087519088
0.00109258536
0.001095522339
0.00107099315
0.001074731462
0.001080015901
0.001086412547
0.001093407616
0.001100413002
0.001106776075
0.001111788792
0.001114694929
0.001090446221
0.001094144074
0.001099371422
0.001105699136
0.001112619065
0.001119549496
0.001125844802
0.001130804425
0.001133679976
0.001109707984
0.001113365782
0.001118536611
0.001124796079
0.001131641614
0.001138497826
0.001144726022
0.001149633054
0.001152478299
0.001128779137
0.001132397314
0.001137512233
0.00114370419
0.001150476128
0.001157258909
0.001163420699
0.00116827568
0.001171090922
0.001147660609
0.001151239622
0.001156299276
0.001162424498
0.001169123679
0.001175833861
0.001181929988
0.00118673349
0.001189519051
0.001166353533
0.00116989386
0.00117489892
0.001180958216
0.001187585519
0.001194223972
0.001200255212
0.001205007835
0.001207764052
0.001184859223
0.001188361357
0.001193312522
0.001199306729
0.001205863061
0.001212430684
0.001218397844
0.001223100208
0.001225827433
0.001203179153
0.001206643603
0.001211541586
0.001217471565
0.001223957861
0.001230455579
0.001236359485
0.001241012231
0.001243710825
0.001221314936
0.001224742221
0.001229587753
0.001235454383
0.001241871595
0.001248300352
0.001254141851
0.001258745635
0.00126141597
0.00123926831
0.001242658956
0.001247452777
0.001253256951
0.001259606048
0.001265966805
0.001271746757
0.001276302246
0.0012789447
0.001257041113
0.001260395654
0.001265138516
0.001270881136
0.001277163097
0.001283456825
0.001289176103
0.001293683972
0.001296298929
0.001274635279
0.00127795425
0.001282646909
0.001288328885
0.001294544699
0.001300772377
0.001306431859
0.00131089279
0.001313480639
0.001292052815
0.001295336757
0.001299979971
0.001305602217
0.001311752874
0.001317915487
0.001323516057
0.001327930737
0.001330491869
0.001309295796
0.001312545247
0.001317139777
0.001322703208
0.001328789703
0.001334888236
0.001340430779
0.001344799896
0.001347334704
0.001326366347
0.001329581847
0.001334128452
0.001339633982
0.001345657306
0.001351692746
0.001357178148
0.001361502391
0.001364011267
0.001343266639
0.001346448726
0.001350948162
0.001356396702
0.001362357845
0.001368331173
0.001373760318
0.001378040374
0.001380523711
0.001359998878
0.001363148085
0.001367601105
0.001372993561
0.001378893507
0.001384805701
0.001390179467
0.001394416022
0.001396874212
0.001376565293
0.001379682151
0.001384089502
0.001389426773
0.001395266501
0.001401118531
0.001406437793
0.001410631526
0.001413064959
0.001392968133
0.001396053168
0.001400415591
0.00140569857
0.001411479047
0.001417271878
0.001422537502
0.001426689089
0.001429098151
0.001409209661
0.001412263394
0.00141658162
0.00142181119
0.001427533377
0.001433267961
0.001438480806
0.001442590917
0.001444975992
0.001425292144
0.001428315088
0.001432589844
0.001437766876
0.001443431721
0.001449109003
0.001454269918
0.001458339216
0.001460700684
0.00144121785
0.001444210512
0.001448442513
0.001453567871
0.001459176311
0.001464797221
0.001469907046
0.001473936186
0.001476274423
0.001456989041
0.001459951924
0.001464141874
0.001469216407
0.001474769367
0.001480334825
0.001485394389
0.001489384017
0.001491699393
0.001472607972
0.001475541569
0.001479690164
0.001484714711
0.001490213101
0.001495724013
0.001500734132
0.001504684886
0.001506977768
0.001488076885
0.001490981681
0.001495089606
0.00150006499
0.001505509707
0.001510966966
0.001515928444
0.001519840952
0.001522111701
0.001503398004
0.001506274477
0.001510342404
0.001515269437
0.001520661363
0.001526065845
0.001530979473
0.001534854354
0.001537103325
0.001518573534
0.001521422152
0.001525450743
0.00153033022
0.001535670221
0.001541022789
0.001545889344
0.001549727206
0.001551954747
0.001533605654
0.001536426878
0.00154041678
0.001545249484
0.00155053841
0.00155583991
0.001560660155
0.001564461592
0.001566668048
0.001548496518
0.001551290799
0.001555242648
0.001560029343
0.001565268027
0.001570519287
0.001575293969
0.001579059566
0.001581245272
0.001563248246
0.001566016024
0.001569930442
0.001574671879
0.001579861135
0.001585062965
0.001589792816
0.001593523145
0.001595688428
0.001577862923
0.001580604631
0.001584482225
0.001589179135
0.001594319759
0.00159947295
0.001604158683
0.001607854301
0.001609999483
0.001592342595
0.001595058652
0.001598900014
0.001603553109
0.001608645876
0.0016137512
0.001618393508
0.001622054958
0.00162418035
0.001606689259
0.001609380074
0.001613185779
0.001617795753
0.001622841413
0.001627899617
0.001632499174
0.001636126981
0.001638232885
0.001620904859
0.001623570828
0.001627341433
0.001631908954
0.001636908236
0.001641920041
0.001646477496
0.001650072166
0.001652158874
0.001634991277
0.001637632781
0.001641368821
0.001645894534
0.001650848135
0.001655814233
0.001660330208
0.001663892225
0.001665960014
0.001648950319
0.001651567721
0.001655269708
0.001659754227
0.001664662813
0.001669583861
0.001674058945
0.001677588769
0.0016796379
0.001662783697
0.001665377343
0.001669045761
0.001673489666
0.001678353861
0.001683230477
0.001687665222
0.001691163279
0.001693193997
0.001676493015
0.001679063226
0.001682698526
0.001687102354
0.001691922737
0.001696755489
0.0017011504
0.001704617079
0.001706629605
0.001690079737
0.001692626808
0.001696229399
0.001700593638
0.00170537073
0.001710160126
0.001714515652
0.001717951296
0.001719945823
0.001703545156
0.001706069346
0.00170963959
0.001713964665
0.001718698916
0.00172344539
0.001727761909
0.001731166803
0.00173314349
0.001716890349
0.001719391877
0.001722930072
0.001727216332
0.001731908106
0.001736612001
0.001740889803
0.001744264161
0.001746223124
0.001730116127
0.001732595156
0.001736101527
0.001740349225
0.001744998776
0.00174966032
0.001753899587
0.001757243533
0.001759184832
0.001743222959
0.001745679592
0.001749154267
0.001753363538
0.001757970983
0.001762590262
0.001766791041
0.001770104587
0.001772028217
0.001756210899
0.001758645154
0.001762088145
0.001766258976
0.001770824266
0.001775401188
0.001779563356
0.001782846375
0.001784752246
0.001769079478
0.001771491276
0.001774902448
0.001779034643
0.001783557517
0.001788091772
0.001792214999
0.001795467191
0.001797355111
0.001781827587
0.001784216723
0.001787595763
0.0017916889
0.001796168843
0.00180065985
0.001804743548
0.001807964406
0.001809834056
0.001794453336
0.001796819455
0.00180016583
0.001804219213
0.001808655395
0.001813102247
0.001817145518
0.001820334276
0.001822185183
0.001806953891
0.001809296455
0.001812609367
0.001816621967
0.001821013179
0.001825414573
0.001829416144
0.001832571732
0.00183440324
0.001819325292
0.001821643544
0.001824921876
0.001828892266
0.001833236851
0.001837591012
0.001841549165
0.001844670146
0.00184648138
0.001831562255
0.001833855177
0.001837097436
0.001841023722
0.001845319486
0.001849624088
0.001853536582
0.001856621095
0.001858410928
0.001843657954
0.001845924226
0.001849128481
0.00185300822
0.001857252356
0.001861504428
0.00186536842
0.001868414112
0.001870181122
0.001855603805
0.001857841755
0.001861005572
0.001864835695
0.001869024686
0.001873220531
0.001877032492
0.001880036454
0.001881778889
0.001867389241
0.001869596804
0.001872717178
0.001876493911
0.00188062345
0.00188475855
0.001888514186
0.001891472892
0.001893188638
0.001879001512
0.001881176183
0.001884249479
0.001887968269
0.001892033173
0.001896102117
0.001899796301
0.001902705555
0.001904392098
0.001890425502
0.0018925643
0.001895586202
0.001899241654
0.001903235805
0.00190723222
0.001910858939
0.001913713832
0.001915368242
0.001901643608
0.001903743047
0.001906708514
0.00191029435
0.001914210648
0.001918127165
0.001921679486
0.001924474379
0.001926093301
0.001912635675
0.001914691748
0.001917595001
0.001921104038
0.001924934387
0.001928762635
0.001932232708
0.001934961238
0.001936540894
0.001923379023
0.001925387204
0.001928221732
0.001931645903
0.00193538124
0.00193911188
0.001942490983
0.001945146102
0.001946682325
0.001933848585
0.00193580386
0.001938562463
0.001941892873
0.001945523243
0.001949146058
0.001952424688
0.001954998748
0.001956487028
0.001944017176
0.001945914094
0.001948588966
0.001951816005
0.001955330695
0.001958834739
0.001962002759
0.00196448764
0.001965923206
0.001953855908
0.001955688669
0.001958271526
0.001961385035
0.001964772771
0.001968146582
0.001971193434
0.001973580719
0.00197495865
0.00196333476
0.001965097334
0.001967579591
0.001970569091
0.001973818301
0.001977050186
0.001979965164
0.001982246366
0.001983561725
0.001972423305
0.001974109587
0.001976482587
0.001979337559
0.001982436708
0.001985515087
0.001988287667
0.001990454506
0.001991702508
0.001981091587
0.001982695582
0.001984950865
0.001987661097
0.001990599068
0.001993512882
0.001996133107
0.001998177821
0.001999354013
0.001989311114
0.001990827153
0.001992956765
0.001995512733
0.001998279262
0.00200101842
0.002003477315
0.002005392994
0.002006493461
0.001997055945
0.001998478916
0.00200047574
0.002002869018
0.002005455152
0.002008010992
0.002010300996
0.002012081928
0.002013103489
0.002004303804
0.00200562939
0.002007487488
0.002009711162
0.00201210971
0.002014475462
0.002016590843
0.002018232838
0.002019173231
0.002011037163
0.002012262073
0.002013977008
0.002016026066
0.002018232029
0.002020403227
0.002022340451
0.002023841127