/*--------------------------------*- C++ -*----------------------------------*\
| =========                 |                                                 |
| \\      /  F ield         | OpenFOAM: The Open Source CFD Toolbox           |
|  \\    /   O peration     | Version:  2212                                  |
|   \\  /    A nd           | Website:  www.openfoam.com                      |
|    \\/     M anipulation  |                                                 |
\*---------------------------------------------------------------------------*/
FoamFile
{
    version     2.0;
    format      ascii;
    arch        "LSB;label=32;scalar=64";
    class       volScalarField;
    location    "23.25000000";
    object      CH3_0;
}
// * * * * * * * * * * * * * * * * * * * * * * * * * * * * * * * * * * * * * //

dimensions      [0 0 0 0 0 0 0];

internalField   nonuniform List<scalar> 
3000
(
3.09465617e-25
3.475767742e-25
4.050824223e-25
4.817074638e-25
5.766684389e-25
6.873824539e-25
8.071776707e-25
9.214729081e-25
1.002308691e-24
1.16163155e-24
1.309937782e-24
1.533618942e-24
1.832333247e-24
2.205767435e-24
2.651819984e-24
3.162761291e-24
3.712640624e-24
4.200004172e-24
2.600928014e-24
2.955916065e-24
3.496432981e-24
4.230267977e-24
5.1705916e-24
6.330989162e-24
7.706981872e-24
9.221168081e-24
1.05160032e-23
4.95149533e-24
5.686106332e-24
6.821018074e-24
8.394515551e-24
1.046223053e-23
1.307656444e-23
1.62232928e-23
1.965009304e-23
2.241648692e-23
8.786514836e-24
1.02135813e-23
1.245292886e-23
1.561798991e-23
1.985730761e-23
2.528930445e-23
3.182317824e-23
3.876073587e-23
4.408609876e-23
1.509677748e-23
1.777287473e-23
2.203226636e-23
2.814597145e-23
3.643922031e-23
4.71195918e-23
5.98675293e-23
7.30748223e-23
8.284478723e-23
2.560462209e-23
3.051543817e-23
3.842258598e-23
4.98998579e-23
6.558430669e-23
8.578537151e-23
1.096659293e-22
1.339234673e-22
1.514235979e-22
4.328578669e-23
5.216354362e-23
6.658489242e-23
8.767901471e-23
1.166180217e-22
1.538137131e-22
1.973964638e-22
2.410216623e-22
2.719685293e-22
7.32890527e-23
8.916742444e-23
1.151272322e-22
1.532902797e-22
2.057379917e-22
2.729649918e-22
3.511665306e-22
4.286280128e-22
4.829697403e-22
1.245180209e-22
1.526923434e-22
1.989652884e-22
2.672092207e-22
3.610530962e-22
4.810234871e-22
6.198022433e-22
7.562569759e-22
8.512713394e-22
2.123786293e-22
2.62074478e-22
3.439526802e-22
4.649510012e-22
6.313421038e-22
8.435774289e-22
1.088068965e-21
1.327229073e-21
1.492919116e-21
3.635339401e-22
4.508005974e-22
5.948944384e-22
8.081018613e-22
1.101231084e-21
1.47445027e-21
1.903088622e-21
2.320862141e-21
2.609288235e-21
6.241461869e-22
7.768780234e-22
1.029447737e-21
1.403455482e-21
1.917515327e-21
2.571120126e-21
3.320122591e-21
4.048267983e-21
4.549745564e-21
1.074157936e-21
1.340804232e-21
1.782213649e-21
2.436185159e-21
3.334796915e-21
4.476142703e-21
5.781973096e-21
7.049102858e-21
7.920255641e-21
1.852043435e-21
2.316716572e-21
3.086504548e-21
4.227355418e-21
5.794602725e-21
7.783621805e-21
1.005660331e-20
1.225926204e-20
1.377166526e-20
3.197704993e-21
4.006381762e-21
5.346741885e-21
7.333613939e-21
1.006252827e-20
1.352375586e-20
1.74756521e-20
2.130149052e-20
2.392606075e-20
5.526812774e-21
6.932767137e-21
9.263934047e-21
1.271996403e-20
1.746588003e-20
2.348254374e-20
3.034751046e-20
3.698850993e-20
4.154118982e-20
9.559625325e-21
1.200219402e-20
1.605312205e-20
2.205914587e-20
3.030539596e-20
4.075554407e-20
5.267256793e-20
6.419378548e-20
7.208752319e-20
1.654417084e-20
2.078527812e-20
2.782010447e-20
3.825024658e-20
5.256829516e-20
7.070664065e-20
9.138121967e-20
1.113585889e-19
1.250392029e-19
2.864278604e-20
3.600351397e-20
4.821387626e-20
6.631668798e-20
9.116249324e-20
1.226266701e-19
1.584742385e-19
1.930957373e-19
2.167935299e-19
4.960121135e-20
6.237151354e-20
8.355576618e-20
1.149598483e-19
1.580510401e-19
2.126003237e-19
2.747197169e-19
3.346836848e-19
3.757078523e-19
8.590591282e-20
1.080536182e-19
1.44791652e-19
1.992438954e-19
2.739382357e-19
3.684535657e-19
4.760281824e-19
5.798101463e-19
6.507730186e-19
1.487845111e-19
1.871815e-19
2.508653534e-19
3.452328027e-19
4.74630674e-19
6.382807714e-19
8.244257948e-19
1.00388562e-18
1.126513917e-18
2.576587004e-19
3.241987077e-19
4.345371195e-19
5.979821689e-19
8.219892042e-19
1.105108954e-18
1.426898717e-18
1.736874142e-18
1.948515201e-18
4.460950646e-19
5.613455134e-19
7.524012912e-19
1.035285154e-18
1.422741751e-18
1.912047713e-18
2.467656591e-18
3.002315336e-18
3.36699565e-18
7.720416324e-19
9.715283752e-19
1.302096631e-18
1.791259096e-18
2.46071089e-18
3.305284858e-18
4.26316752e-18
5.183752054e-18
5.810877817e-18
1.335395216e-18
1.6803909e-18
2.251789025e-18
3.096687491e-18
4.251823464e-18
5.707301554e-18
7.355631934e-18
8.93727455e-18
1.001305872e-17
2.308066202e-18
2.904051981e-18
3.890510569e-18
5.347764697e-18
7.337616746e-18
9.840963217e-18
1.267091909e-17
1.538112906e-17
1.722103236e-17
3.985263651e-18
5.013402401e-18
6.713768165e-18
9.22272077e-18
1.264339486e-17
1.693868534e-17
2.178381914e-17
2.6413097e-17
2.954862579e-17
6.872649981e-18
8.643199064e-18
1.156846358e-17
1.587865727e-17
2.174420174e-17
2.909276831e-17
3.736045906e-17
4.523783829e-17
5.055890854e-17
1.183381889e-17
1.487629415e-17
1.989692036e-17
2.728179709e-17
3.730917455e-17
4.983795155e-17
6.389046949e-17
7.723588394e-17
8.62219966e-17
2.033864803e-17
2.555308582e-17
3.414533478e-17
4.675786811e-17
6.383841536e-17
8.511228571e-17
1.088881716e-16
1.313825967e-16
1.464741784e-16
3.487929059e-17
4.378821049e-17
5.844286253e-17
7.990249508e-17
1.088748686e-16
1.448278355e-16
1.84844493e-16
2.225422164e-16
2.477302528e-16
5.966288554e-17
7.482761742e-17
9.972232252e-17
1.3607466e-16
1.849793412e-16
2.454131736e-16
3.123661207e-16
3.7513717e-16
4.168881475e-16
1.017577815e-16
1.274601659e-16
1.695548494e-16
2.3082468e-16
3.129175937e-16
4.138855582e-16
5.251682953e-16
6.289506387e-16
6.976392659e-16
1.729775451e-16
2.163249681e-16
2.871275403e-16
3.898035493e-16
5.267492942e-16
6.942999304e-16
8.779228842e-16
1.048192985e-15
1.160292657e-15
2.929565117e-16
3.656534509e-16
4.84032925e-16
6.549940385e-16
8.818639363e-16
1.157841426e-15
1.458442862e-15
1.735490154e-15
1.916876753e-15
4.941371699e-16
6.152914294e-16
8.11903422e-16
1.09454056e-15
1.467525997e-15
1.918426465e-15
2.406356181e-15
2.853181534e-15
3.144045006e-15
8.298104977e-16
1.030322234e-15
1.354477706e-15
1.818102221e-15
2.426238453e-15
3.156518748e-15
3.941343132e-15
4.655294322e-15
5.11732362e-15
1.387024391e-15
1.716361471e-15
2.246538822e-15
3.000623264e-15
3.983316458e-15
5.155041284e-15
6.405247044e-15
7.534827609e-15
8.261516168e-15
2.307285143e-15
2.843811149e-15
3.703520905e-15
4.918915531e-15
6.491675095e-15
8.352925613e-15
1.032399923e-14
1.20925274e-14
1.322355202e-14
3.819877658e-15
4.686430293e-15
6.067860316e-15
8.007915352e-15
1.049939173e-14
1.342430726e-14
1.649746928e-14
1.923507067e-14
2.097544496e-14
6.296026455e-15
7.683287251e-15
9.882258578e-15
1.294789344e-14
1.685209597e-14
2.139548395e-14
2.612848438e-14
3.031229659e-14
3.295552567e-14
1.033837702e-14
1.254008537e-14
1.600781324e-14
2.080248044e-14
2.685111693e-14
3.381982622e-14
4.10079099e-14
4.730484761e-14
5.125407012e-14
1.693185376e-14
2.039895914e-14
2.58202068e-14
3.324490753e-14
4.250744843e-14
5.304935483e-14
6.37865643e-14
7.307803864e-14
7.884334889e-14
2.77026857e-14
3.312995477e-14
4.154637743e-14
5.294556573e-14
6.697386089e-14
8.26876819e-14
9.840658523e-14
1.117428713e-13
1.198527388e-13
4.536678865e-14
5.383850522e-14
6.685616104e-14
8.426201391e-14
1.053265392e-13
1.28421791e-13
1.508963739e-13
1.6929623e-13
1.799932523e-13
7.449853909e-14
8.774399125e-14
1.079034007e-13
1.344844197e-13
1.660318852e-13
1.996804588e-13
2.311199876e-13
2.552883314e-13
2.679839352e-13
1.228078407e-13
1.436542209e-13
1.751045132e-13
2.160274981e-13
2.63665533e-13
3.130166973e-13
3.570486957e-13
3.884060504e-13
4.028515048e-13
2.031496407e-13
2.363055215e-13
2.860027602e-13
3.500533542e-13
4.23644492e-13
4.986717864e-13
5.6500995e-13
6.152105529e-13
6.522419538e-13
3.36459691e-13
3.898194052e-13
4.695766421e-13
5.720988671e-13
6.900624123e-13
8.128361546e-13
9.324398603e-13
1.059141175e-12
1.151251469e-12
5.556831521e-13
6.424899195e-13
7.725759871e-13
9.41289106e-13
1.141084766e-12
1.368521115e-12
1.650386786e-12
1.937286264e-12
2.143931607e-12
9.106693116e-13
1.05346914e-12
1.270079273e-12
1.559734853e-12
1.931029658e-12
2.438650366e-12
3.045238091e-12
3.658692245e-12
4.1029697e-12
1.47564709e-12
1.715488864e-12
2.09120905e-12
2.631129888e-12
3.425149994e-12
4.475280477e-12
5.723539182e-12
6.993662555e-12
7.924205817e-12
2.371977753e-12
2.796539262e-12
3.511792793e-12
4.625584365e-12
6.210088967e-12
8.292431916e-12
1.077852109e-11
1.333225772e-11
1.522689593e-11
3.875924025e-12
4.717890757e-12
6.133613795e-12
8.281283455e-12
1.131369237e-11
1.530207865e-11
2.008500608e-11
2.502807223e-11
2.872108157e-11
6.679811448e-12
8.254196386e-12
1.089326598e-11
1.487517555e-11
2.048416663e-11
2.785318082e-11
3.667485164e-11
4.575817589e-11
5.251089355e-11
1.179597876e-11
1.464783531e-11
1.941466495e-11
2.657731591e-11
3.661301752e-11
4.969276765e-11
6.515638233e-11
8.079890985e-11
9.219894903e-11
2.104150896e-11
2.609004265e-11
3.448721e-11
4.700729929e-11
6.434392618e-11
8.654272804e-11
1.12136498e-10
1.372218734e-10
1.549143122e-10
3.763326116e-11
4.638044432e-11
6.080682395e-11
8.203040276e-11
1.108420504e-10
1.467257645e-10
1.86654586e-10
2.242532991e-10
2.497718455e-10
6.712187178e-11
8.190790887e-11
1.059805131e-10
1.407047984e-10
1.86574266e-10
2.417509962e-10
3.007585808e-10
3.541667151e-10
3.891835173e-10
1.18621231e-10
1.428393619e-10
1.815959825e-10
2.361365868e-10
3.059449547e-10
3.869531619e-10
4.705439025e-10
5.439138762e-10
5.908510438e-10
2.060060856e-10
2.441572323e-10
3.04025706e-10
3.860868706e-10
4.879720714e-10
6.02675723e-10
7.180550463e-10
8.174506292e-10
8.801246501e-10
3.48623139e-10
4.06226649e-10
4.949320078e-10
6.137184727e-10
7.577236672e-10
9.166029007e-10
1.074175116e-09
1.208695256e-09
1.292875006e-09
5.715890301e-10
6.552770284e-10
7.822473613e-10
9.494707123e-10
1.149227704e-09
1.367337311e-09
1.582365586e-09
1.765289258e-09
1.879324675e-09
9.068625106e-10
1.025112809e-09
1.202842632e-09
1.434735666e-09
1.709793142e-09
2.008922272e-09
2.303321406e-09
2.553534711e-09
2.709252833e-09
1.396523558e-09
1.561058645e-09
1.807174882e-09
2.12694788e-09
2.505264092e-09
2.91631167e-09
3.320908962e-09
3.66489525e-09
3.878900247e-09
2.098158854e-09
2.325586403e-09
2.665073488e-09
3.105476669e-09
3.626203026e-09
4.192170046e-09
4.749770464e-09
5.224359877e-09
5.519825199e-09
3.091107308e-09
3.404594292e-09
3.87214975e-09
4.478421591e-09
5.195411603e-09
5.975356473e-09
6.744827691e-09
7.400830693e-09
7.809859203e-09
4.483120973e-09
4.914295879e-09
5.557160068e-09
6.390747838e-09
7.377082656e-09
8.451221068e-09
9.512698308e-09
1.04195045e-08
1.098609479e-08
6.417923275e-09
7.009227105e-09
7.890723542e-09
9.033952924e-09
1.038758165e-08
1.186355338e-08
1.332477913e-08
1.457590302e-08
1.535949374e-08
9.084038659e-09
9.891592327e-09
1.109542755e-08
1.265710606e-08
1.450751636e-08
1.652772e-08
1.853136836e-08
2.025077505e-08
2.133023634e-08
1.272484483e-08
1.382177931e-08
1.545697139e-08
1.757874008e-08
2.00944301e-08
2.284410872e-08
2.557572544e-08
2.79245679e-08
2.94023779e-08
1.76493753e-08
1.912945495e-08
2.133565403e-08
2.419874304e-08
2.759501892e-08
3.131051929e-08
3.500643983e-08
3.818960685e-08
4.019580755e-08
2.42431023e-08
2.622438517e-08
2.917716139e-08
3.300896153e-08
3.755531807e-08
4.253165329e-08
4.748597892e-08
5.175762313e-08
5.445301554e-08
3.297756327e-08
3.560569603e-08
3.9521183e-08
4.460081044e-08
5.062688152e-08
5.722345178e-08
6.379291837e-08
6.945995094e-08
7.30378942e-08
4.441729424e-08
4.786791805e-08
5.300602336e-08
5.966784438e-08
6.756669196e-08
7.620982212e-08
8.481524848e-08
9.223770218e-08
9.692385236e-08
5.922221004e-08
6.370185969e-08
7.036713225e-08
7.900109051e-08
8.922850154e-08
1.004094041e-07
1.115324174e-07
1.211196379e-07
1.271690259e-07
7.81433985e-08
8.388824762e-08
9.242747286e-08
1.0347508e-07
1.165436207e-07
1.308105475e-07
1.449845007e-07
1.571863613e-07
1.648773805e-07
1.02010384e-07
1.092822549e-07
1.200779749e-07
1.340230338e-07
1.504899168e-07
1.684336593e-07
1.862281034e-07
2.015208574e-07
2.111460085e-07
1.317083579e-07
1.407875968e-07
1.542470481e-07
1.716005989e-07
1.920489613e-07
2.142814945e-07
2.36280229e-07
2.551471965e-07
2.67000802e-07
1.681447175e-07
1.79319836e-07
1.958592585e-07
2.171388559e-07
2.421527961e-07
2.692796876e-07
2.960532268e-07
3.189611917e-07
3.333247047e-07
2.122054752e-07
2.257598555e-07
2.457847157e-07
2.71488897e-07
3.016234897e-07
3.342116101e-07
3.662857619e-07
3.936586453e-07
4.107845728e-07
2.647035821e-07
2.808999858e-07
3.047822938e-07
3.353618871e-07
3.711102607e-07
4.096531938e-07
4.474762112e-07
4.796681645e-07
4.997639464e-07
3.263227437e-07
3.453867859e-07
3.734412708e-07
4.092698699e-07
4.510301369e-07
4.959143353e-07
5.398256247e-07
5.770960363e-07
6.003093895e-07
3.975616187e-07
4.196656838e-07
4.521270041e-07
4.934733812e-07
5.41518603e-07
5.929936194e-07
6.43197135e-07
6.856900763e-07
7.120972863e-07
4.786840897e-07
5.039333043e-07
5.409366123e-07
5.879419154e-07
6.423962477e-07
7.005521954e-07
7.570973581e-07
8.048276598e-07
8.344260592e-07
5.696813361e-07
5.98103126e-07
6.396701142e-07
6.923323642e-07
7.53156026e-07
8.179107671e-07
8.806830108e-07
9.335304892e-07
9.662359305e-07
6.702506074e-07
7.01789039e-07
7.478210763e-07
8.059887478e-07
8.729735332e-07
9.440710417e-07
1.012793028e-06
1.070505464e-06
1.106155031e-06
7.797939254e-07
8.143095153e-07
8.645886983e-07
9.279641498e-07
1.000740007e-06
1.077760075e-06
1.152003388e-06
1.214207858e-06
1.252567468e-06
8.974376757e-07
9.347127167e-07
9.889107427e-07
1.057063121e-06
1.135115053e-06
1.21749323e-06
1.296699232e-06
1.362920517e-06
1.403696611e-06
1.022071541e-06
1.061820349e-06
1.119514213e-06
1.191900376e-06
1.274593759e-06
1.361649333e-06
1.445156966e-06
1.514841231e-06
1.557694219e-06
1.15240293e-06
1.194285883e-06
1.25497866e-06
1.330969801e-06
1.417581304e-06
1.508550073e-06
1.595627067e-06
1.668166297e-06
1.712727618e-06
1.28702138e-06
1.330661276e-06
1.393805865e-06
1.47271716e-06
1.562468271e-06
1.656537181e-06
1.746411553e-06
1.821171905e-06
1.867058858e-06
1.424466585e-06
1.469465778e-06
1.534489392e-06
1.615609987e-06
1.707700242e-06
1.804040263e-06
1.895933422e-06
1.972279263e-06
2.019109713e-06
1.563293814e-06
1.609250649e-06
1.6755782e-06
1.758199096e-06
1.851835928e-06
1.949634966e-06
2.042789338e-06
2.120106039e-06
2.167511886e-06
1.702131293e-06
1.748654306e-06
1.815727554e-06
1.899166625e-06
1.993594716e-06
2.092084462e-06
2.185789638e-06
2.263505922e-06
2.311147667e-06
1.839723725e-06
1.886444604e-06
1.953741679e-06
2.037364686e-06
2.131887652e-06
2.230368099e-06
2.32398746e-06
2.401604666e-06
2.449199667e-06
1.974969068e-06
2.021551824e-06
2.088599095e-06
2.171835256e-06
2.265833912e-06
2.363694899e-06
2.456694951e-06
2.533837652e-06
2.581271456e-06
2.106936772e-06
2.153084312e-06
2.219465671e-06
2.301818696e-06
2.394763244e-06
2.49149674e-06
2.583457109e-06
2.659871157e-06
2.70685148e-06
2.234877099e-06
2.280336017e-06
2.345699806e-06
2.426756683e-06
2.518216912e-06
2.61342767e-06
2.704054499e-06
2.779306995e-06
2.825557579e-06
2.358225188e-06
2.402790362e-06
2.466856629e-06
2.546299058e-06
2.635960227e-06
2.729375597e-06
2.818183499e-06
2.891873542e-06
2.937161953e-06
2.476608024e-06
2.520129882e-06
2.582700073e-06
2.660326601e-06
2.747936712e-06
2.839076145e-06
2.925639764e-06
2.997438432e-06
3.041572142e-06
2.589867898e-06
2.632273431e-06
2.693228759e-06
2.768762573e-06
2.85389517e-06
2.942366947e-06
3.02634431e-06
3.095985095e-06
3.138806585e-06
2.698106234e-06
2.739220294e-06
2.798269266e-06
2.871376609e-06
2.953702112e-06
3.039197723e-06
3.120317775e-06
3.187587654e-06
3.228969758e-06
2.801024879e-06
2.840685926e-06
2.897615038e-06
2.968052486e-06
3.047322081e-06
3.129604228e-06
3.207656231e-06
3.272388006e-06
3.312229845e-06
2.898429512e-06
2.936522509e-06
2.991177283e-06
3.058767285e-06
3.134796379e-06
3.213686791e-06
3.288510967e-06
3.350576706e-06
3.388800208e-06
2.990237695e-06
3.026681622e-06
3.07895221e-06
3.143567709e-06
3.216223188e-06
3.291592502e-06
3.363072227e-06
3.422377782e-06
3.458924746e-06
3.076445555e-06
3.11118511e-06
3.160996353e-06
3.222550416e-06
3.291741265e-06
3.363501118e-06
3.431556616e-06
3.488037097e-06
3.522866731e-06
3.157103897e-06
3.190104033e-06
3.237408634e-06
3.295847164e-06
3.361517527e-06
3.429614404e-06
3.494197668e-06
3.547813708e-06
3.580900554e-06
3.232301792e-06
3.26354399e-06
3.308317683e-06
3.363614104e-06
3.425737998e-06
3.490148358e-06
3.551239001e-06
3.601973613e-06
3.633305766e-06
3.302155479e-06
3.331635067e-06
3.373873042e-06
3.426024236e-06
3.484601375e-06
3.545327675e-06
3.602929435e-06
3.650785313e-06
3.680362861e-06
3.366800886e-06
3.394524995e-06
3.434239104e-06
3.483262164e-06
3.538314519e-06
3.595381856e-06
3.649519578e-06
3.694516709e-06
3.722350329e-06
3.426388535e-06
3.45237445e-06
3.489590929e-06
3.535520433e-06
3.587089299e-06
3.640542472e-06
3.691259422e-06
3.733432933e-06
3.759542607e-06
3.481080012e-06
3.505353786e-06
3.54011129e-06
3.582996945e-06
3.63114034e-06
3.681041222e-06
3.728396644e-06
3.767794823e-06
3.792208651e-06
3.531045427e-06
3.553640655e-06
3.585988527e-06
3.625893044e-06
3.670683364e-06
3.717108497e-06
3.761175371e-06
3.797857827e-06
3.82061091e-06
3.576461477e-06
3.597418189e-06
3.627414886e-06
3.664412053e-06
3.705933912e-06
3.748972285e-06
3.789835233e-06
3.823871184e-06
3.84500458e-06
3.61750987e-06
3.636873526e-06
3.664585169e-06
3.69875806e-06
3.737106292e-06
3.77685728e-06
3.814610624e-06
3.846077292e-06
3.865637039e-06
3.654375972e-06
3.672196518e-06
3.697695548e-06
3.729134873e-06
3.764412677e-06
3.800984122e-06
3.835730077e-06
3.864711199e-06
3.882747406e-06
3.687247565e-06
3.703578566e-06
3.726942502e-06
3.75574507e-06
3.788062291e-06
3.821568736e-06
3.853415738e-06
3.880000192e-06
3.896566194e-06
3.716313691e-06
3.731211529e-06
3.752521818e-06
3.778789126e-06
3.808260678e-06
3.838821734e-06
3.86788291e-06
3.89216345e-06
3.907315035e-06
3.741763561e-06
3.755286693e-06
3.774627659e-06
3.798464596e-06
3.825209019e-06
3.852947884e-06
3.879339658e-06
3.901411769e-06
3.915206476e-06
3.763785515e-06
3.775993806e-06
3.793451691e-06
3.814965367e-06
3.839103522e-06
3.864145644e-06
3.887986483e-06
3.907947349e-06
3.920443834e-06
3.782566054e-06
3.793520172e-06
3.809182275e-06
3.828480972e-06
3.850134872e-06
3.872606756e-06
3.894016053e-06
3.91196364e-06
3.923221113e-06
3.798288949e-06
3.808049823e-06
3.822003739e-06
3.839195972e-06
3.858487755e-06
3.878515911e-06
3.897613e-06
3.913645248e-06
3.92372298e-06
3.811134435e-06
3.819762783e-06
3.832095724e-06
3.84728943e-06
3.864340454e-06
3.882050478e-06
3.898953783e-06
3.913167906e-06
3.922124797e-06
3.82127849e-06
3.828834404e-06
3.839632624e-06
3.852934452e-06
3.86786452e-06
3.883380309e-06
3.898206609e-06
3.910698495e-06
3.918592704e-06
3.828892217e-06
3.835434814e-06
3.844783108e-06
3.856297821e-06
3.869224523e-06
3.882667607e-06
3.895531421e-06
3.906395123e-06
3.913283754e-06
3.834141328e-06
3.839728451e-06
3.847709737e-06
3.857539707e-06
3.868577871e-06
3.880066862e-06
3.89107993e-06
3.900407249e-06
3.906346093e-06
3.837185711e-06
3.841873684e-06
3.848568661e-06
3.85681346e-06
3.866074701e-06
3.875724841e-06
3.884995712e-06
3.892875855e-06
3.897919178e-06
3.838179102e-06
3.842022533e-06
3.847509406e-06
3.854265472e-06
3.861857837e-06
3.869780641e-06
3.877414344e-06
3.883933648e-06
3.888134022e-06
3.83726884e-06
3.840320466e-06
3.844674729e-06
3.850035112e-06
3.856062806e-06
3.862365785e-06
3.868463573e-06
3.873705306e-06
3.877113476e-06
3.834595699e-06
3.836906271e-06
3.840200543e-06
3.844254716e-06
3.848817897e-06
3.853604364e-06
3.858263532e-06
3.862307737e-06
3.864972529e-06
3.830293799e-06
3.831911995e-06
3.834215914e-06
3.83704964e-06
3.84024428e-06
3.843613209e-06
3.846926973e-06
3.849850366e-06
3.851818619e-06
3.824490577e-06
3.825462952e-06
3.826843098e-06
3.82853835e-06
3.830456154e-06
3.832502102e-06
3.834559527e-06
3.836435439e-06
3.837751965e-06
3.817306815e-06
3.817677774e-06
3.818197635e-06
3.818832556e-06
3.819560926e-06
3.820374007e-06
3.821259978e-06
3.822158333e-06
3.8228659e-06
3.808856717e-06
3.808668509e-06
3.808388477e-06
3.808037384e-06
3.807659425e-06
3.807325315e-06
3.807120554e-06
3.807107875e-06
3.807247207e-06
3.799248031e-06
3.798540762e-06
3.797518155e-06
3.796251568e-06
3.794846127e-06
3.793446112e-06
3.792227217e-06
3.791366663e-06
3.790976459e-06
3.788582198e-06
3.787393859e-06
3.785682966e-06
3.783567665e-06
3.781209401e-06
3.778820451e-06
3.77665997e-06
3.775011389e-06
3.774128353e-06
3.776954535e-06
3.775321045e-06
3.772973184e-06
3.77007229e-06
3.766831765e-06
3.76352663e-06
3.760493149e-06
3.758113154e-06
3.756772038e-06
3.764454435e-06
3.762409692e-06
3.759473291e-06
3.75584636e-06
3.751790149e-06
3.747637474e-06
3.743795732e-06
3.740737786e-06
3.738971436e-06
3.751165589e-06
3.74874153e-06
3.74526221e-06
3.740965344e-06
3.736156162e-06
3.731220617e-06
3.726631621e-06
3.722946138e-06
3.72078556e-06
3.737166214e-06
3.73439288e-06
3.730413553e-06
3.725499522e-06
3.719996356e-06
3.714338782e-06
3.709059943e-06
3.704794394e-06
3.702268806e-06
3.722529292e-06
3.719434903e-06
3.714995875e-06
3.70951424e-06
3.703372497e-06
3.697050048e-06
3.691135322e-06
3.686334346e-06
3.683471253e-06
3.707322816e-06
3.703933842e-06
3.699072919e-06
3.693070168e-06
3.686341823e-06
3.679408124e-06
3.672908155e-06
3.667613679e-06
3.664438937e-06
3.691610035e-06
3.687951272e-06
3.682703871e-06
3.676223555e-06
3.668957302e-06
3.661462607e-06
3.654424873e-06
3.64867623e-06
3.64521412e-06
3.675449697e-06
3.671544347e-06
3.665943603e-06
3.659026473e-06
3.651267882e-06
3.64325923e-06
3.635728194e-06
3.629562243e-06
3.62583554e-06
3.658896292e-06
3.654766037e-06
3.648842921e-06
3.641527062e-06
3.633318731e-06
3.624840108e-06
3.616857362e-06
3.610308608e-06
3.606338655e-06
3.64200029e-06
3.637665371e-06
3.631448794e-06
3.623769767e-06
3.615151473e-06
3.606243964e-06
3.59784838e-06
3.590949093e-06
3.586755869e-06
3.624808369e-06
3.620287664e-06
3.613804589e-06
3.605795559e-06
3.596804411e-06
3.587506356e-06
3.578734225e-06
3.571514557e-06
3.56711675e-06
3.607363648e-06
3.602674741e-06
3.595950288e-06
3.587642159e-06
3.578312739e-06
3.568659882e-06
3.559545059e-06
3.552033157e-06
3.547448231e-06
3.589705893e-06
3.584865151e-06
3.577922701e-06
3.56934424e-06
3.55970875e-06
3.549734388e-06
3.540308424e-06
3.53253054e-06
3.527774801e-06
3.571871735e-06
3.566894376e-06
3.559755672e-06
3.550933634e-06
3.54102203e-06
3.530757148e-06
3.521049423e-06
3.513030027e-06
3.508118688e-06
3.553894867e-06
3.548795026e-06
3.541480267e-06
3.532439513e-06
3.522279639e-06
3.511753051e-06
3.501790903e-06
3.493552779e-06
3.488500023e-06
3.535806232e-06
3.530597031e-06
3.523124966e-06
3.513888578e-06
3.503506292e-06
3.492744768e-06
3.482553613e-06
3.474117963e-06
3.468937002e-06
3.51763421e-06
3.512327816e-06
3.504715834e-06
3.495305221e-06
3.484724517e-06
3.473752912e-06
3.46335636e-06
3.454742897e-06
3.449446032e-06
3.499404787e-06
3.494012472e-06
3.486276686e-06
3.476711694e-06
3.465954818e-06
3.454796185e-06
3.444216154e-06
3.435443195e-06
3.430041866e-06
3.481141724e-06
3.475673922e-06
3.46782925e-06
3.458128254e-06
3.447215816e-06
3.435891524e-06
3.425148343e-06
3.416232895e-06
3.410737739e-06
3.462866704e-06
3.457333067e-06
3.449393307e-06
3.439573312e-06
3.428524389e-06
3.417054229e-06
3.406166741e-06
3.397124583e-06
3.39154548e-06
3.444599486e-06
3.439008931e-06
3.430986839e-06
3.421063565e-06
3.4098958e-06
3.398298089e-06
3.387283746e-06
3.378129506e-06
3.37247563e-06
3.426358039e-06
3.4207188e-06
3.412626153e-06
3.40261412e-06
3.391343821e-06
3.379635495e-06
3.368510449e-06
3.359257681e-06
3.353537541e-06
3.408158671e-06
3.402478344e-06
3.394326008e-06
3.38423862e-06
3.372880842e-06
3.361077551e-06
3.349856739e-06
3.340517992e-06
3.334739477e-06
3.390016153e-06
3.384301738e-06
3.37609973e-06
3.365949345e-06
3.35451798e-06
3.342634173e-06
3.331331398e-06
3.321918282e-06
3.316088703e-06
3.371943832e-06
3.366201774e-06
3.35795932e-06
3.347757325e-06
3.336265178e-06
3.324314183e-06
3.312942192e-06
3.30346544e-06
3.297591565e-06
3.353953737e-06
3.348189965e-06
3.339915554e-06
3.329672429e-06
3.318131296e-06
3.306125399e-06
3.294695952e-06
3.285165479e-06
3.279253572e-06
3.336056678e-06
3.33027664e-06
3.321978075e-06
3.311703462e-06
3.300124195e-06
3.288074712e-06
3.276598652e-06
3.267023614e-06
3.261079465e-06
3.318262336e-06
3.312471036e-06
3.304155484e-06
3.293858239e-06
3.282250818e-06
3.270168162e-06
3.25865548e-06
3.249044323e-06
3.243073284e-06
3.300579353e-06
3.294781378e-06
3.286455415e-06
3.276143669e-06
3.264517262e-06
3.252411009e-06
3.240870901e-06
3.231231413e-06
3.225238428e-06
3.2830154e-06
3.277214956e-06
3.268884609e-06
3.258565819e-06
3.246928842e-06
3.234807789e-06
3.223248718e-06
3.213588076e-06
3.207577709e-06
3.265577253e-06
3.259778187e-06
3.251448977e-06
3.241129977e-06
3.229490147e-06
3.217362375e-06
3.205792122e-06
3.196116937e-06
3.190093402e-06
3.248270839e-06
3.24247667e-06
3.234153647e-06
3.223840695e-06
3.212205087e-06
3.200078011e-06
3.188503731e-06
3.178820092e-06
3.172787279e-06
3.231101284e-06
3.225315228e-06
3.217003008e-06
3.20670183e-06
3.195076924e-06
3.182957348e-06
3.171385618e-06
3.161699137e-06
3.155660637e-06
3.21407293e-06
3.208297921e-06
3.200000721e-06
3.189716549e-06
3.178108282e-06
3.166002449e-06
3.154439317e-06
3.144755167e-06
3.138714303e-06
3.197189331e-06
3.191428042e-06
3.183149706e-06
3.172887324e-06
3.161301128e-06
3.149214767e-06
3.1376658e-06
3.127988761e-06
3.121948611e-06
3.180453205e-06
3.174708065e-06
3.166452095e-06
3.156215865e-06
3.144656709e-06
3.132595079e-06
3.121065409e-06
3.111399903e-06
3.10536333e-06
3.163866336e-06
3.158139545e-06
3.149909116e-06
3.139703005e-06
3.128175428e-06
3.116143353e-06
3.104637714e-06
3.094987847e-06
3.088957527e-06
3.147429396e-06
3.141722929e-06
3.133520899e-06
3.123348495e-06
3.11185662e-06
3.099858518e-06
3.088381277e-06
3.07875087e-06
3.072729312e-06
3.131141661e-06
3.125457262e-06
3.117286166e-06
3.10715067e-06
3.095698209e-06
3.083738089e-06
3.072293259e-06
3.062685869e-06
3.056675442e-06
3.115000579e-06
3.109339742e-06
3.101201763e-06
3.091105954e-06
3.079696165e-06
3.067777607e-06
3.056368832e-06
3.046787749e-06
3.040790686e-06
3.099001153e-06
3.09336507e-06
3.08526197e-06
3.075208125e-06
3.063843735e-06
3.051969801e-06
3.040600289e-06
3.031048497e-06
3.025066884e-06
3.083135055e-06
3.077524538e-06
3.069457538e-06
3.059447287e-06
3.048130323e-06
3.036303406e-06
3.024975788e-06
3.015455866e-06
3.009491594e-06
3.067389433e-06
3.061804774e-06
3.053774365e-06
3.043808447e-06
3.032539971e-06
3.020761508e-06
3.009477591e-06
2.999991515e-06
2.994046175e-06
3.051745299e-06
3.046186075e-06
3.038191717e-06
3.028269613e-06
3.017049295e-06
3.005319336e-06
2.994079684e-06
2.984628501e-06
2.978703196e-06
3.036175443e-06
3.030640214e-06
3.022679912e-06
3.0127993e-06
3.001624799e-06
2.989941343e-06
2.978744651e-06
2.969327961e-06
2.963422998e-06
3.020641759e-06
3.015127666e-06
3.007197363e-06
2.997353355e-06
2.986219431e-06
2.974577485e-06
2.963419665e-06
2.954034851e-06
2.948149275e-06
3.005091929e-06
2.999594132e-06
2.991686902e-06
2.981871005e-06
2.970768309e-06
2.959158583e-06
2.948031486e-06
2.938672638e-06
2.932803556e-06
2.98945538e-06
2.983966339e-06
2.976071312e-06
2.96627006e-06
2.955183534e-06
2.943590713e-06
2.932480422e-06
2.923136863e-06
2.917278521e-06
2.973638493e-06
2.968147042e-06
2.960248048e-06
2.950441258e-06
2.939348087e-06
2.927748604e-06
2.916633223e-06
2.907287597e-06
2.901430155e-06
2.95751907e-06
2.952009281e-06
2.944083167e-06
2.934241783e-06
2.923108858e-06
2.911468128e-06
2.900315017e-06
2.890940878e-06
2.885068853e-06
2.940940124e-06
2.935389943e-06
2.927404564e-06
2.917488073e-06
2.906268949e-06
2.894538044e-06
2.88330049e-06
2.873859374e-06
2.867949741e-06
2.923703153e-06
2.918082821e-06
2.909994712e-06
2.899948152e-06
2.888579521e-06
2.876691318e-06
2.865304659e-06
2.855742679e-06
2.849762637e-06
2.905561134e-06
2.899831423e-06
2.891583196e-06
2.881333823e-06
2.869731599e-06
2.857596486e-06
2.845973799e-06
2.836217825e-06
2.830122284e-06
2.886211605e-06
2.88032193e-06
2.871839502e-06
2.861293236e-06
2.849348378e-06
2.836849706e-06
2.824877229e-06
2.814830834e-06
2.808559734e-06
2.865290343e-06
2.85917684e-06
2.850366616e-06
2.839404469e-06
2.826978808e-06
2.813968348e-06
2.801500923e-06
2.791040347e-06
2.784515967e-06
2.84236625e-06
2.835949967e-06
2.826696213e-06
2.815170961e-06
2.802093352e-06
2.788387154e-06
2.775244095e-06
2.764214583e-06
2.7573391e-06
2.816938246e-06
2.810123631e-06
2.800286294e-06
2.788019773e-06
2.774083028e-06
2.759458171e-06
2.745420082e-06
2.733633088e-06
2.726286696e-06
2.788435067e-06
2.781108969e-06
2.7705223e-06
2.757303784e-06
2.742262935e-06
2.726455811e-06
2.711262987e-06
2.698494822e-06
2.690534804e-06
2.756218968e-06
2.748250438e-06
2.736722819e-06
2.722308997e-06
2.705881528e-06
2.688588369e-06
2.671941546e-06
2.657934139e-06
2.649195371e-06
2.719594369e-06
2.710835554e-06
2.69815098e-06
2.682268122e-06
2.664136873e-06
2.645017291e-06
2.62658153e-06
2.611046041e-06
2.601343381e-06
2.677822443e-06
2.668110881e-06
2.65403255e-06
2.636381456e-06
2.616200879e-06
2.594885197e-06
2.574297668e-06
2.556921635e-06
2.546054702e-06
2.630142458e-06
2.619305068e-06
2.6035815e-06
2.583845743e-06
2.561252135e-06
2.537353144e-06
2.51423547e-06
2.494694062e-06
2.482454755e-06
2.575800388e-06
2.563659373e-06
2.546033376e-06
2.523891237e-06
2.498517349e-06
2.471646918e-06
2.445622452e-06
2.423594134e-06
2.409777119e-06
2.514084809e-06
2.500465584e-06
2.4806862e-06
2.45582642e-06
2.427320553e-06
2.397111115e-06
2.367827113e-06
2.343013657e-06
2.327429716e-06
2.444369424e-06
2.429110514e-06
2.406947827e-06
2.379088947e-06