/*--------------------------------*- C++ -*----------------------------------*\
| =========                 |                                                 |
| \\      /  F ield         | OpenFOAM: The Open Source CFD Toolbox           |
|  \\    /   O peration     | Version:  2212                                  |
|   \\  /    A nd           | Website:  www.openfoam.com                      |
|    \\/     M anipulation  |                                                 |
\*---------------------------------------------------------------------------*/
FoamFile
{
    version     2.0;
    format      ascii;
    arch        "LSB;label=32;scalar=64";
    class       volScalarField;
    location    "23.25000000";
    object      CH3COCH2_0;
}
// * * * * * * * * * * * * * * * * * * * * * * * * * * * * * * * * * * * * * //

dimensions      [0 0 0 0 0 0 0];

internalField   nonuniform List<scalar> 
3000
(
4.132648144e-25
4.642443819e-25
5.411709852e-25
6.436797928e-25
7.707247338e-25
9.188503851e-25
1.07912878e-24
1.232049046e-24
1.340202407e-24
1.551547879e-24
1.749978739e-24
2.049277799e-24
2.449002632e-24
2.948743288e-24
3.545685494e-24
4.229468053e-24
4.965329594e-24
5.617473162e-24
3.475125316e-24
3.950280675e-24
4.673821175e-24
5.656220544e-24
6.915147742e-24
8.468806293e-24
1.03111848e-23
1.23385982e-23
1.40722674e-23
6.618887001e-24
7.602699616e-24
9.122748716e-24
1.123045069e-23
1.400046341e-23
1.750310137e-23
2.171937242e-23
2.631117739e-23
3.001820111e-23
1.17525171e-23
1.366496794e-23
1.666633697e-23
2.090903499e-23
2.65926058e-23
3.387623399e-23
4.263849236e-23
5.194316004e-23
5.908619904e-23
2.020785713e-23
2.379701049e-23
2.951049931e-23
3.7712796e-23
4.884133801e-23
6.31758119e-23
8.028826079e-23
9.802013823e-23
1.111388418e-22
3.43026486e-23
4.089490249e-23
5.1511247e-23
6.692416748e-23
8.799170199e-23
1.151321504e-22
1.472229554e-22
1.798266688e-22
2.033517608e-22
5.804605106e-23
6.997527006e-23
8.935730547e-23
1.177141684e-22
1.566269108e-22
2.06654878e-22
2.652877992e-22
3.239908123e-22
3.656411543e-22
9.838334673e-23
1.197420216e-22
1.546691457e-22
2.060282808e-22
2.766313538e-22
3.671553646e-22
4.724854329e-22
5.768439341e-22
6.500692091e-22
1.673396931e-22
2.052804498e-22
2.676079064e-22
3.595549467e-22
4.86031714e-22
6.477691258e-22
8.349167286e-22
1.018977559e-21
1.14716702e-21
2.857484728e-22
3.527486491e-22
4.6316395e-22
6.263820026e-22
8.509029426e-22
1.137375213e-21
1.467485818e-21
1.79048442e-21
2.014306021e-21
4.897118762e-22
6.075056267e-22
8.020544712e-22
1.090005372e-21
1.486026491e-21
1.990416309e-21
2.569882941e-21
3.134817355e-21
3.524928019e-21
8.418142643e-22
1.04822526e-21
1.389651652e-21
1.895398415e-21
2.59076407e-21
3.475190256e-21
4.489026584e-21
5.474908618e-21
6.154044048e-21
1.45057708e-21
1.811385569e-21
2.408830388e-21
3.294261156e-21
4.51133757e-21
6.057704375e-21
7.827498019e-21
9.545331564e-21
1.072661426e-20
2.504221111e-21
3.133775532e-21
4.176990196e-21
5.723572894e-21
7.848939888e-21
1.054721899e-20
1.363172856e-20
1.662167217e-20
1.867512271e-20
4.32925659e-21
5.426265961e-21
7.245024587e-21
9.941936346e-21
1.364738186e-20
1.834885159e-20
2.3718583e-20
2.891854651e-20
3.248662163e-20
7.49215499e-21
9.401834154e-21
1.256907963e-20
1.726618429e-20
2.37186779e-20
3.190176617e-20
4.124171143e-20
5.027959368e-20
5.64769009e-20
1.297576813e-20
1.629772017e-20
2.180860004e-20
2.998192224e-20
4.120788588e-20
5.543917437e-20
7.167351179e-20
8.737326989e-20
9.81324794e-20
2.248538876e-20
2.82608481e-20
3.784339495e-20
5.205566508e-20
7.157266728e-20
9.630596584e-20
1.245070896e-19
1.517652291e-19
1.70436201e-19
3.897956398e-20
4.901629093e-20
6.567036388e-20
9.036962146e-20
1.242811426e-19
1.672413042e-19
2.162028177e-19
2.635037176e-19
2.958880644e-19
6.759022446e-20
8.502596162e-20
1.139575967e-19
1.568610262e-19
2.157522852e-19
2.903296106e-19
3.752849441e-19
4.573167664e-19
5.134520239e-19
1.172165227e-19
1.474954212e-19
1.977352252e-19
2.722245174e-19
3.744412842e-19
5.038287052e-19
6.511431288e-19
7.933059262e-19
8.905357327e-19
2.032839019e-19
2.558476273e-19
3.430521268e-19
4.723161489e-19
6.496284068e-19
8.739561871e-19
1.129205006e-18
1.375359718e-18
1.543602314e-18
3.525139214e-19
4.437268401e-19
5.95020471e-19
8.19207931e-19
1.126574813e-18
1.515190592e-18
1.957033375e-18
2.382780109e-18
2.673536003e-18
6.111580904e-19
7.693592076e-19
1.03168879e-18
1.420233105e-18
1.952599839e-18
2.625147083e-18
3.389082093e-18
4.124429042e-18
4.626115826e-18
1.059186111e-18
1.333397701e-18
1.787917529e-18
2.460723347e-18
3.381832158e-18
4.544306249e-18
5.863177668e-18
7.131068975e-18
7.994997683e-18
1.834679562e-18
2.309582635e-18
3.096356356e-18
4.260107595e-18
5.851742011e-18
7.857919573e-18
1.013067184e-17
1.231211655e-17
1.379622671e-17
3.175661213e-18
3.99727091e-18
5.357550508e-18
7.367703207e-18
1.011350268e-17
1.356909175e-17
1.747682203e-17
2.122030384e-17
2.376229012e-17
5.491598191e-18
6.911124823e-18
9.25942765e-18
1.272558931e-17
1.745298938e-17
2.339120805e-17
3.009179835e-17
3.649575554e-17
4.083437711e-17
9.485188285e-18
1.193364154e-17
1.598005047e-17
2.194417729e-17
3.00633803e-17
4.023900701e-17
5.169114925e-17
6.260586694e-17
6.998042812e-17
1.635892875e-17
2.057336942e-17
2.752991158e-17
3.776581725e-17
5.166941759e-17
6.904757229e-17
8.854576684e-17
1.070683546e-16
1.195435967e-16
2.816383325e-17
3.53997674e-17
4.732646426e-17
6.483973358e-17
8.856590202e-17
1.181277148e-16
1.511775764e-16
1.824556303e-16
2.034454709e-16
4.838495909e-17
6.077122947e-17
8.115214079e-17
1.110079904e-16
1.513316431e-16
2.013899932e-16
2.571261998e-16
3.096491215e-16
3.44751897e-16
8.291859784e-17
1.040458013e-16
1.387400708e-16
1.894222482e-16
2.576334736e-16
3.41960166e-16
4.3541929e-16
5.230706763e-16
5.813865427e-16
1.416919123e-16
1.77579499e-16
2.363771078e-16
3.219967493e-16
4.367695226e-16
5.779973634e-16
7.337208042e-16
8.790042534e-16
9.751902528e-16
2.413264294e-16
3.019965829e-16
4.011372398e-16
5.449848312e-16
7.369529162e-16
9.719548548e-16
1.229635218e-15
1.468687917e-15
1.626129375e-15
4.094791023e-16
5.114898297e-16
6.776947527e-16
9.17884691e-16
1.236853193e-15
1.625145722e-15
2.04837267e-15
2.438671708e-15
2.694326201e-15
6.918452152e-16
8.623165028e-16
1.139159617e-15
1.537484111e-15
2.063647755e-15
2.700353504e-15
3.389999553e-15
4.022078741e-15
4.433803196e-15
1.163322808e-15
1.446245506e-15
1.90407725e-15
2.559694436e-15
3.420841741e-15
4.456415134e-15
5.570869528e-15
6.585939572e-15
7.243470251e-15
1.945573446e-15
2.411535037e-15
3.162686867e-15
4.232936986e-15
5.630413993e-15
7.300207216e-15
9.08554462e-15
1.070167813e-14
1.174292321e-14
3.234229592e-15
3.995125348e-15
5.216760994e-15
6.948217426e-15
9.195374538e-15
1.186315707e-14
1.469737364e-14
1.724784515e-14
1.888275596e-14
5.340365014e-15
6.571157236e-15
8.53883581e-15
1.131254501e-14
1.489032575e-14
1.911083582e-14
2.356721918e-14
2.755540497e-14
3.010023138e-14
8.752680171e-15
1.072273541e-14
1.385833972e-14
1.825378222e-14
2.388854406e-14
3.049432852e-14
3.742892283e-14
4.360386699e-14
4.752833535e-14
1.422945992e-14
1.734627037e-14
2.228408931e-14
2.916605609e-14
3.793351468e-14
4.814891825e-14
5.881338909e-14
6.826580358e-14
7.425234025e-14
2.293355324e-14
2.780152001e-14
3.547543653e-14
4.610563562e-14
5.955979747e-14
7.513614134e-14
9.130423581e-14
1.05566883e-13
1.145680494e-13
3.663136025e-14
4.412767744e-14
5.588009721e-14
7.204938541e-14
9.236295589e-14
1.157066859e-13
1.397680583e-13
1.608609467e-13
1.741037535e-13
5.799190308e-14
6.936080327e-14
8.707026249e-14
1.112368587e-13
1.413158806e-13
1.755360562e-13
2.104369872e-13
2.406989494e-13
2.594949992e-13
9.104985154e-14
1.080167862e-13
1.342376448e-13
1.696426289e-13
2.131420603e-13
2.618691936e-13
3.106516616e-13
3.520222031e-13
3.770740924e-13
1.419391915e-13
1.668492235e-13
2.049557923e-13
2.556737823e-13
3.168005601e-13
3.835427377e-13
4.480863494e-13
5.003036058e-13
5.300126697e-13
2.200466283e-13
2.560327474e-13
3.103571761e-13
3.812266587e-13
4.641895462e-13
5.509615295e-13
6.29541848e-13
6.868326766e-13
7.142946057e-13
3.397113328e-13
3.908766578e-13
4.667917981e-13
5.631202653e-13
6.71065616e-13
7.761591317e-13
8.599632647e-13
9.069457318e-13
9.166911199e-13
5.223528168e-13
5.938448092e-13
6.975725797e-13
8.243115561e-13
9.574874145e-13
1.072590841e-12
1.142652179e-12
1.152746798e-12
1.121306421e-12
7.981383033e-13
8.957258975e-13
1.033266984e-12
1.192910618e-12
1.345552332e-12
1.452863648e-12
1.480304763e-12
1.422012899e-12
1.327286061e-12
1.204926945e-12
1.333278696e-12
1.507299747e-12
1.695340912e-12
1.850957505e-12
1.921795024e-12
1.874709262e-12
1.727013595e-12
1.56301167e-12
1.780282291e-12
1.93902202e-12
2.142843227e-12
2.340967029e-12
2.468383201e-12
2.467851981e-12
2.325959226e-12
2.093398068e-12
1.875464319e-12
2.542512147e-12
2.720587379e-12
2.931472551e-12
3.103832237e-12
3.162742684e-12
3.066403206e-12
2.837215782e-12
2.549093711e-12
2.302136392e-12
3.464403381e-12
3.637472653e-12
3.818004401e-12
3.922819005e-12
3.887153755e-12
3.703103181e-12
3.421331075e-12
3.110500224e-12
2.851081707e-12
4.462828056e-12
4.603045398e-12
4.721716115e-12
4.742170751e-12
4.62682386e-12
4.395194199e-12
4.095812344e-12
3.773235817e-12
3.497287054e-12
5.442941867e-12
5.542257355e-12
5.603985823e-12
5.570052191e-12
5.423252025e-12
5.181920397e-12
4.870288689e-12
4.513980153e-12
4.195875782e-12
6.391022206e-12
6.474161471e-12
6.521855572e-12
6.485727703e-12
6.345072914e-12
6.096229706e-12
5.740042007e-12
5.303611993e-12
4.909236653e-12
7.416465899e-12
7.518791862e-12
7.592732705e-12
7.580385623e-12
7.440438569e-12
7.145129856e-12
6.688426408e-12
6.124406615e-12
5.629730307e-12
8.672846273e-12
8.806667122e-12
8.908882063e-12
8.899346245e-12
8.71244404e-12
8.308430943e-12
7.698891653e-12
6.9814537e-12
6.381225937e-12
1.025020214e-11
1.039558604e-11
1.048859386e-11
1.042521902e-11
1.01250905e-11
9.558380647e-12
8.772158776e-12
7.903223637e-12
7.206037189e-12
1.213523239e-11
1.225186826e-11
1.227878341e-11
1.209879908e-11
1.163626464e-11
1.088839566e-11
9.935447529e-12
8.934598504e-12
8.153421876e-12
1.423347013e-11
1.428186517e-11
1.419737973e-11
1.386739062e-11
1.323619504e-11
1.232761419e-11
1.123853981e-11
1.012975934e-11
9.275723029e-12
1.643477662e-11
1.639873447e-11
1.619507747e-11
1.572773868e-11
1.496175775e-11
1.393485534e-11
1.274503997e-11
1.15491806e-11
1.062969066e-11
1.868827486e-11
1.858277002e-11
1.82906606e-11
1.773236273e-11
1.688449625e-11
1.57857849e-11
1.452710211e-11
1.326030719e-11
1.227949418e-11
2.102977132e-11
2.089012569e-11
2.056001767e-11
1.996850028e-11
1.909311168e-11
1.796508243e-11
1.666478006e-11
1.533982174e-11
1.429987035e-11
2.355493791e-11
2.34217751e-11
2.310647739e-11
2.253726745e-11
2.168394606e-11
2.056481526e-11
1.924761298e-11
1.787623453e-11
1.677875039e-11
2.638162343e-11
2.629297481e-11
2.604089041e-11
2.554452866e-11
2.475915687e-11
2.368563019e-11
2.23768078e-11
2.09719676e-11
1.981919892e-11
2.962962942e-11
2.961993664e-11
2.947560736e-11
2.909992406e-11
2.842789501e-11
2.743866603e-11
2.616680551e-11
2.474459632e-11
2.354047882e-11
3.341656488e-11
3.351841641e-11
3.352504412e-11
3.331840963e-11
3.280807662e-11
3.1946633e-11
3.074578141e-11
2.932695815e-11
2.807798264e-11
3.785943014e-11
3.810550473e-11
3.830774708e-11
3.832192522e-11
3.802701623e-11
3.734359196e-11
3.625475892e-11
3.486583785e-11
3.358172512e-11
4.307741503e-11
4.35020634e-11
4.39477692e-11
4.423955893e-11
4.422053684e-11
4.377314276e-11
4.284507665e-11
4.151894967e-11
4.021309786e-11
4.919331142e-11
4.983324614e-11
5.057419463e-11
5.120598846e-11
5.153034022e-11
5.138483111e-11
5.067400393e-11
4.944999456e-11
4.813965325e-11
5.633284654e-11
5.722712336e-11
5.831881272e-11
5.935809149e-11
6.009953841e-11
6.032866865e-11
5.989839694e-11
5.882168673e-11
5.752781243e-11
6.462204988e-11
6.581138694e-11
6.731192608e-11
6.882972105e-11
7.006634897e-11
7.074778632e-11
7.066644191e-11
6.978682074e-11
6.853358169e-11
7.418272728e-11
7.570821614e-11
7.767638094e-11
7.974475501e-11
8.155610052e-11
8.276942004e-11
8.310774134e-11
8.247768216e-11
8.129160407e-11
8.512620886e-11
8.702748802e-11
8.952003467e-11
9.220868651e-11
9.467188773e-11
9.649465202e-11
9.732224915e-11
9.699437205e-11
9.590314979e-11
9.754566541e-11
9.985866204e-11
1.029270469e-10
1.06299222e-10
1.094844403e-10
1.119875779e-10
1.133688236e-10
1.133928895e-10
1.124239286e-10
1.115074616e-10
1.142618548e-10
1.179485834e-10
1.220565699e-10
1.260219981e-10
1.292648045e-10
1.312544037e-10
1.316740538e-10
1.30852845e-10
1.270422103e-10
1.302588201e-10
1.345937207e-10
1.394743004e-10
1.44261173e-10
1.482863567e-10
1.509249752e-10
1.517744974e-10
1.511229638e-10
1.441363737e-10
1.47824722e-10
1.528214987e-10
1.584917894e-10
1.641198812e-10
1.689491446e-10
1.722595305e-10
1.735609732e-10
1.730959493e-10
1.627253775e-10
1.668816873e-10
1.72535132e-10
1.789892854e-10
1.854534054e-10
1.910840593e-10
1.950680967e-10
1.968290531e-10
1.965610609e-10
1.826892216e-10
1.872951127e-10
1.935793375e-10
2.007865224e-10
2.080544605e-10
2.144575172e-10
2.19094595e-10
2.213069373e-10
2.212394045e-10
2.038514537e-10
2.088735438e-10
2.15741521e-10
2.23645525e-10
2.316577965e-10
2.387778583e-10
2.440248168e-10
2.466645695e-10
2.467935899e-10
2.259821034e-10
2.313726435e-10
2.387572195e-10
2.47277844e-10
2.559493895e-10
2.637064618e-10
2.694992109e-10
2.725276259e-10
2.728423014e-10
2.488047773e-10
2.545033372e-10
2.623197234e-10
2.713559484e-10
2.805797291e-10
2.888728635e-10
2.951295685e-10
2.984953209e-10
2.989786504e-10
2.720076282e-10
2.779437259e-10
2.860932969e-10
2.955279777e-10
3.051801748e-10
3.13892628e-10
3.205181708e-10
3.241604627e-10
3.247906861e-10
2.952574202e-10
3.013538712e-10
3.097289363e-10
3.194346071e-10
3.29380936e-10
3.383863438e-10
3.452776225e-10
3.491299092e-10
3.498822261e-10
3.182154876e-10
3.243921622e-10
3.328812594e-10
3.427264822e-10
3.528289959e-10
3.619979324e-10
3.690494504e-10
3.730434663e-10
3.738923838e-10
3.405541276e-10
3.467317606e-10
3.55224969e-10
3.650806184e-10
3.75204332e-10
3.844105596e-10
3.915195327e-10
3.955884687e-10
3.965062349e-10
3.619719105e-10
3.680756205e-10
3.764694197e-10
3.862143638e-10
3.962331858e-10
4.053592628e-10
4.124304195e-10
4.165101576e-10
4.174722321e-10
3.822065603e-10
3.881687939e-10
3.963700848e-10
4.058958097e-10
4.156973142e-10
4.246390724e-10
4.315856385e-10
4.356208795e-10
4.366051911e-10
4.01044428e-10
4.068071506e-10
4.147362368e-10
4.23950098e-10
4.334389233e-10
4.421055996e-10
4.488559338e-10
4.527997197e-10
4.537873765e-10
4.183261062e-10
4.238421717e-10
4.314351249e-10
4.402616089e-10
4.493581641e-10
4.576787722e-10
4.641754074e-10
4.679901554e-10
4.689660144e-10
4.339485069e-10
4.39181142e-10
4.463860954e-10
4.547679414e-10
4.634148651e-10
4.713364837e-10
4.775371598e-10
4.811960681e-10
4.821502196e-10
4.478563495e-10
4.527804657e-10
4.595640892e-10
4.674624702e-10
4.756207736e-10
4.831089381e-10
4.889887845e-10
4.924811894e-10
4.934177205e-10
4.600471063e-10
4.646478546e-10
4.709903724e-10
4.783832331e-10
4.860322176e-10
4.930722661e-10
4.986299417e-10
5.019809593e-10
5.029780693e-10
4.705588389e-10
4.748305071e-10
4.80724848e-10
4.876057316e-10
4.947427067e-10
5.013413064e-10
5.066039743e-10
5.098832451e-10
5.10898309e-10
4.794630712e-10
4.834082354e-10
4.888593489e-10
4.952375331e-10
5.018801245e-10
5.08071846e-10
5.131129059e-10
5.162665198e-10
5.172644583e-10
4.868587576e-10
4.904884733e-10
4.95514691e-10
5.014200153e-10
5.076176331e-10
5.134808159e-10
5.182405288e-10
5.212255361e-10
5.221868069e-10
4.928711604e-10
4.962084655e-10
5.0084789e-10
5.063495186e-10
5.121634605e-10
5.176362838e-10
5.220785569e-10
5.248747608e-10
5.257883794e-10
4.976655023e-10
5.007627179e-10
5.050825154e-10
5.10189165e-10
5.155667883e-10
5.206253152e-10
5.247376556e-10
5.273366939e-10
5.281962383e-10
5.014939526e-10
5.043393613e-10
5.083012614e-10
5.129820082e-10
5.179108278e-10
5.225522267e-10
5.263341369e-10
5.287338847e-10
5.29535377e-10
5.043645033e-10
5.069501435e-10
5.105503739e-10
5.14806295e-10
5.192927261e-10
5.235250241e-10
5.269822873e-10
5.291839938e-10
5.299248149e-10
5.063285144e-10
5.086601751e-10
5.119088278e-10
5.157532679e-10
5.198120868e-10
5.236485936e-10
5.26790245e-10
5.287970233e-10
5.294753641e-10
5.07462846e-10
5.095515054e-10
5.124641019e-10
5.159152053e-10
5.19564739e-10
5.230212111e-10
5.258579414e-10
5.276739755e-10
5.282885703e-10
5.078497381e-10
5.097081801e-10
5.123021747e-10
5.153798088e-10
5.186397366e-10
5.217329674e-10
5.242762968e-10
5.259064346e-10
5.264564434e-10
5.075687208e-10
5.092101632e-10
5.11503454e-10
5.142278691e-10
5.171181986e-10
5.19865321e-10
5.221271776e-10
5.235767301e-10
5.240616941e-10
5.066935349e-10
5.08131056e-10
5.101413366e-10
5.125325633e-10
5.150731484e-10
5.174912916e-10
5.194837997e-10
5.207584426e-10
5.211782729e-10
5.052912032e-10
5.065375009e-10
5.082819782e-10
5.103595587e-10
5.125698741e-10
5.146759957e-10
5.164113676e-10
5.175170921e-10
5.178720677e-10
5.03422049e-10
5.044893451e-10
5.059846248e-10
5.077674976e-10
5.096665375e-10
5.114773409e-10
5.129678178e-10
5.139108991e-10
5.142016628e-10
5.011401272e-10
5.020401369e-10
5.033021851e-10
5.048086432e-10
5.06414877e-10
5.079467679e-10
5.092045804e-10
5.099915494e-10
5.102190979e-10
4.98493815e-10
4.992377463e-10
5.002818853e-10
5.015295658e-10
5.028609194e-10
5.041299773e-10
5.05167311e-10
5.058049218e-10
5.059705862e-10
4.955264377e-10
4.961250019e-10
4.969659199e-10
4.979718063e-10
4.990456515e-10
5.000676052e-10
5.008965646e-10
5.013917563e-10
5.014971756e-10
4.922768678e-10
4.927402936e-10
4.933920571e-10
4.941724838e-10
4.950056294e-10
4.957958311e-10
4.964283999e-10
4.967882523e-10
4.968353403e-10
4.887800679e-10
4.891181143e-10
4.895941805e-10
4.901648364e-10
4.907735166e-10
4.913469136e-10
4.917949125e-10
4.920265972e-10
4.920175058e-10
4.850675664e-10
4.852895346e-10
4.85602761e-10
4.8597869e-10
4.863785514e-10
4.867496563e-10
4.870246981e-10
4.871354287e-10
4.870725076e-10
4.81167867e-10
4.812826096e-10
4.814452612e-10
4.816408614e-10
4.818469485e-10
4.820298091e-10
4.821432544e-10
4.821402358e-10
4.820259928e-10
4.771067954e-10
4.771227245e-10
4.771464796e-10
4.771755013e-10
4.772022419e-10
4.772104121e-10
4.771733275e-10
4.770637075e-10
4.769007694e-10
4.729077917e-10
4.72832886e-10
4.727288412e-10
4.726043853e-10
4.724655782e-10
4.723120918e-10
4.721352114e-10
4.719260353e-10
4.717171103e-10
4.685921568e-10
4.684339684e-10
4.682126446e-10
4.679471622e-10
4.676559669e-10
4.673533156e-10
4.670470064e-10
4.667451768e-10
4.664930204e-10
4.641792606e-10
4.639449224e-10
4.636162711e-10
4.632215656e-10
4.627904958e-10
4.623506116e-10
4.619248457e-10
4.615370869e-10
4.612444707e-10
4.596867191e-10
4.593829529e-10
4.589563647e-10
4.584435965e-10
4.578845176e-10
4.573187608e-10
4.567830925e-10
4.563159199e-10
4.559856045e-10
4.551305472e-10
4.54763673e-10
4.542479881e-10
4.536276823e-10
4.529518134e-10
4.522709653e-10
4.516345141e-10
4.510942101e-10
4.507289211e-10
4.505252921e-10
4.501012385e-10
4.495047587e-10
4.487868162e-10
4.480047361e-10
4.472189972e-10
4.464904366e-10
4.458830308e-10
4.454854389e-10
4.458841508e-10
4.454084667e-10
4.447389701e-10
4.439326813e-10
4.43054338e-10
4.421733314e-10
4.413608828e-10
4.406921378e-10
4.402648422e-10
4.412190758e-10
4.406969428e-10
4.399616999e-10
4.390757615e-10
4.381104864e-10
4.371432643e-10
4.362546959e-10
4.355300975e-10
4.350756126e-10
4.365408705e-10
4.359771171e-10
4.351829087e-10
4.342254424e-10
4.331819664e-10
4.321370219e-10
4.311796514e-10
4.304044026e-10
4.299251476e-10
4.318592769e-10
4.312583928e-10
4.304115294e-10
4.293901028e-10
4.282765758e-10
4.271618568e-10
4.261425582e-10
4.25321577e-10
4.248198681e-10
4.271830563e-10
4.265492077e-10
4.256555494e-10
4.245771989e-10
4.234012111e-10
4.222241371e-10
4.211493502e-10
4.202872707e-10
4.197653157e-10
4.225200648e-10
4.218571096e-10
4.209220875e-10
4.197933413e-10
4.185619461e-10
4.173294278e-10
4.162051704e-10
4.15306346e-10
4.147662406e-10
4.178773226e-10
4.171888267e-10
4.162174641e-10
4.150443668e-10
4.137641053e-10
4.124825647e-10
4.113144468e-10
4.103829559e-10
4.098266821e-10
4.132610802e-10
4.125503329e-10
4.11547267e-10
4.103354045e-10
4.090123301e-10
4.076877228e-10
4.064809618e-10
4.055206152e-10
4.049500411e-10
4.08676879e-10
4.079469093e-10
4.069164126e-10
4.056709369e-10
4.043106406e-10
4.029484781e-10
4.017079161e-10
4.007222656e-10
4.001391462e-10
4.041296093e-10
4.033832007e-10
4.023292028e-10
4.010548568e-10
3.996624927e-10
3.982678655e-10
3.969979867e-10
3.959903348e-10
3.953963137e-10
3.996235635e-10
3.988632699e-10
3.97789378e-10
3.964905198e-10
3.950708304e-10
3.936484309e-10
3.923533792e-10
3.913267897e-10
3.907234022e-10
3.951624867e-10
3.943906465e-10
3.93300166e-10
3.919807929e-10
3.905381338e-10
3.890922792e-10
3.877758768e-10
3.867331858e-10
3.861218618e-10
3.907496233e-10
3.89968374e-10
3.888643282e-10
3.875280998e-10
3.860664638e-10
3.846011188e-10
3.83266884e-10
3.82210711e-10
3.81592779e-10
3.863877608e-10
3.855990527e-10
3.844842017e-10
3.831344624e-10
3.816575029e-10
3.801763014e-10
3.788274667e-10
3.777602264e-10
3.771369176e-10
3.820792706e-10
3.812848798e-10
3.801617388e-10
3.788015389e-10
3.773125928e-10
3.758188595e-10
3.744583886e-10
3.733823022e-10
3.727547547e-10
3.778261456e-10
3.770276863e-10
3.758985431e-10
3.745306598e-10
3.730327687e-10
3.715295394e-10
3.701601449e-10
3.690772512e-10
3.684465147e-10
3.736300357e-10
3.728289722e-10
3.716959031e-10
3.703228597e-10
3.68818791e-10
3.673088325e-10
3.659329919e-10
3.648451585e-10
3.642121988e-10
3.694922796e-10
3.686899373e-10
3.675548235e-10
3.661789079e-10
3.646711743e-10
3.63157003e-10
3.617769745e-10
3.606859087e-10
3.600516124e-10
3.654139353e-10
3.646115114e-10
3.63476053e-10
3.620993354e-10
3.605902137e-10
3.590741135e-10
3.576919513e-10
3.565992105e-10
3.559643893e-10
3.613958076e-10
3.605943809e-10
3.594601111e-10
3.580844605e-10
3.565760089e-10
3.550600484e-10
3.536776169e-10
3.525846184e-10
3.51950014e-10
3.574384735e-10
3.566390138e-10
3.555073118e-10
3.541344114e-10
3.526284861e-10
3.511145345e-10
3.497335222e-10
3.486415531e-10
3.480078412e-10
3.535423058e-10
3.527456823e-10
3.516177856e-10
3.502491473e-10
3.487474186e-10
3.472371606e-10
3.458590929e-10
3.44769319e-10
3.441371137e-10
3.497074946e-10
3.489144843e-10
3.477914999e-10
3.46428478e-10
3.449324443e-10
3.434273945e-10
3.42053646e-10
3.409671206e-10
3.403369786e-10
3.459340668e-10
3.451453619e-10
3.440282771e-10
3.426720809e-10
3.411830826e-10
3.396845988e-10
3.383164046e-10
3.372340768e-10
3.366065011e-10
3.422219044e-10
3.414381194e-10
3.403278113e-10
3.389795172e-10
3.374987495e-10
3.360080451e-10
3.346465117e-10
3.335692342e-10
3.329446779e-10
3.385707608e-10
3.377924389e-10
3.366896842e-10
3.353502464e-10
3.338787711e-10
3.323969266e-10
3.310430421e-10
3.299715784e-10
3.293504485e-10
3.34980276e-10
3.342078954e-10
3.331133784e-10
3.317836393e-10
3.303223959e-10
3.288503699e-10
3.275050134e-10
3.264400447e-10
3.25822705e-10
3.314499902e-10
3.306839695e-10
3.295982901e-10
3.282789899e-10
3.268288059e-10
3.25367445e-10
3.240313954e-10
3.229735271e-10
3.223603021e-10
3.279793564e-10
3.272200598e-10
3.261437411e-10
3.248355263e-10
3.233971267e-10
3.219471752e-10
3.206211194e-10
3.195708871e-10
3.189620642e-10
3.245677515e-10
3.238154938e-10
3.227489885e-10
3.214524205e-10
3.200264365e-10
3.185885448e-10
3.172730854e-10
3.162309606e-10
3.156267936e-10
3.212144868e-10
3.204695377e-10
3.194132347e-10
3.181287968e-10
3.167157743e-10
3.152905069e-10
3.139861693e-10
3.129525647e-10
3.123532762e-10
3.179188174e-10
3.171814055e-10
3.161356353e-10
3.148637402e-10
3.134641471e-10
3.120519905e-10
3.107592294e-10
3.097345037e-10
3.091402875e-10
3.146799503e-10
3.139502671e-10
3.129153074e-10
3.116563032e-10
3.102705364e-10
3.088719057e-10
3.075911114e-10
3.065755739e-10
3.059865975e-10
3.114970524e-10
3.107752556e-10
3.09751336e-10
3.085055124e-10
3.071339044e-10
3.057491496e-10
3.044806537e-10
3.034745685e-10
3.028909753e-10
3.083692571e-10
3.076554737e-10
3.066427806e-10
3.054103742e-10
3.040531988e-10
3.02682611e-10
3.014266912e-10
3.004302814e-10
2.998521926e-10
3.052956706e-10
3.045900001e-10
3.035886803e-10
3.023698796e-10
3.010273577e-10
2.996711744e-10
2.9842806e-10
2.974415108e-10
2.968690274e-10
3.022753775e-10
3.015778944e-10
3.005880594e-10
2.993830096e-10
2.98055314e-10
2.96713724e-10
2.954835999e-10
2.945070625e-10
2.939402672e-10
2.993074458e-10
2.986182023e-10
2.976399314e-10
2.964487385e-10
2.951359986e-10
2.938091468e-10
2.92592158e-10
2.916257526e-10
2.910647111e-10
2.963909313e-10
2.957099591e-10
2.947433031e-10
2.935660379e-10
2.922683441e-10
2.909563358e-10
2.897525909e-10
2.887964096e-10
2.882411723e-10
2.935248813e-10
2.928521945e-10
2.918971782e-10
2.907338798e-10
2.894512874e-10
2.881541923e-10
2.869637673e-10
2.860178767e-10
2.854684805e-10
2.907083386e-10
2.900439349e-10
2.891005602e-10
2.879512395e-10
2.866837724e-10
2.854016281e-10
2.842245697e-10
2.832890135e-10
2.827454826e-10
2.879403443e-10
2.87284207e-10
2.863524553e-10
2.85217098e-10
2.83964752e-10
2.826975675e-10
2.815338961e-10
2.806086976e-10
2.800710449e-10
2.852199399e-10
2.845720398e-10
2.836518742e-10
2.825304437e-10
2.812931897e-10
2.800409487e-10
2.788906613e-10
2.779758255e-10
2.774440541e-10
2.825461698e-10
2.819064663e-10
2.80997834e-10
2.79890274e-10
2.78668061e-10
2.774307246e-10
2.762937975e-10
2.753893131e-10
2.748634172e-10
2.799180818e-10
2.792865246e-10
2.783893589e-10
2.772955958e-10
2.760883534e-10
2.748658632e-10
2.737422547e-10
2.728480963e-10
2.723280622e-10
2.773347278e-10
2.767112581e-10
2.758254799e-10
2.747454252e-10
2.735530665e-10
2.723453468e-10
2.712349994e-10
2.703511293e-10
2.698369367e-10
2.747951621e-10
2.741797137e-10
2.733052334e-10
2.722387856e-10
2.710612091e-10
2.698681699e-10
2.687710126e-10
2.678973825e-10
2.673890053e-10
2.722984386e-10
2.716909388e-10
2.708276577e-10
2.697747039e-10
2.68611796e-10
2.674333343e-10
2.663492848e-10
2.654858375e-10
2.649832449e-10
2.698436047e-10
2.692439751e-10
2.683917863e-10
2.673522039e-10
2.662038398e-10
2.65039842e-10
2.63968808e-10
2.631154789e-10
2.626186357e-10
2.67429692e-10
2.668378487e-10
2.659966376e-10
2.649702947e-10
2.638363395e-10
2.62686682e-10
2.616285624e-10
2.607852802e-10
2.602941478e-10
2.650557012e-10
2.644715547e-10
2.636411985e-10
2.626279535e-10
2.615082621e-10
2.60372811e-10
2.593274957e-10
2.584941822e-10
2.580087184e-10
2.627205803e-10
2.62144034e-10
2.613244006e-10
2.603241001e-10
2.592185146e-10
2.580971238e-10
2.570644921e-10
2.56241061e-10
2.557612188e-10
2.60423193e-10
2.598541413e-10
2.590450849e-10
2.580575597e-10
2.56965905e-10
2.558584111e-10
2.548383268e-10
2.540246802e-10
2.53550406e-10
2.58162275e-10
2.576005983e-10
2.56801954e-10
2.558270112e-10
2.547490859e-10
2.536552993e-10
2.526476024e-10
2.518436234e-10
2.513748525e-10
2.559363741e-10
2.553819326e-10
2.54593506e-10
2.536309161e-10
2.525664784e-10
2.51486168e-10
2.504906602e-10
2.496962012e-10
2.492328504e-10
2.53743771e-10
2.531963942e-10
2.524179465e-10
2.514674248e-10
2.504161702e-10
2.4934904e-10
2.483654623e-10
2.475803262e-10
2.471222825e-10
2.515823769e-10
2.510418485e-10
2.502730745e-10
2.493342533e-10
2.482957825e-10
2.472414377e-10
2.462694368e-10
2.454933492e-10
2.450404527e-10
2.494496027e-10
2.489156401e-10
2.481561381e-10
2.472285276e-10
2.462023019e-10
2.451602003e-10
2.441992823e-10
2.434318519e-10
2.429838712e-10
2.473421976e-10
2.468144244e-10
2.460636552e-10
2.45146592e-10
2.44131872e-10
2.431012588e-10
2.421507246e-10
2.413913888e-10
2.409479879e-10
2.452560536e-10
2.447339632e-10
2.439911971e-10
2.430837757e-10
2.420795422e-10
2.41059364e-10
2.401182253e-10
2.393661794e-10
2.389268735e-10
2.43185974e-10
2.426688842e-10
2.419331337e-10
2.410341206e-10
2.400389734e-10
2.390277694e-10
2.380946418e-10
2.373487473e-10
2.369128467e-10
2.411254077e-10
2.406124046e-10
2.398823419e-10
2.389900695e-10
2.380021036e-10
2.369978716e-10
2.360708425e-10
2.353295151e-10
2.348960558e-10
2.390661513e-10
2.385560224e-10
2.378298807e-10
2.369421216e-10
2.359587796e-10
2.349588161e-10
2.340352874e-10
2.332963636e-10
2.328640245e-10
2.369980268e-10
2.364891838e-10
2.357646438e-10
2.348784651e-10
2.338963669e-10
2.328970836e-10
2.31973591e-10
2.312341737e-10
2.308011816e-10
2.34908545e-10
2.343989379e-10
2.336730008e-10
2.327846021e-10
2.317993561e-10
2.307960756e-10
2.298680884e-10
2.291243766e-10
2.286884016e-10
2.32782571e-10
2.322695947e-10
2.315384467e-10
2.306429872e-10
2.296489887e-10
2.286357283e-10
2.276974368e-10
2.269445462e-10
2.265025905e-10
2.306020117e-10
2.300824116e-10
2.293412842e-10
2.284327065e-10
2.274229338e-10
2.263921871e-10
2.254362904e-10
2.246680739e-10
2.242163628e-10
2.283455524e-10
2.27815332e-10
2.270583691e-10
2.261292311e-10
2.250950528e-10
2.240375861e-10
2.230550951e-10
2.222639781e-10
2.217978598e-10
2.259884713e-10
2.254428121e-10
2.246629534e-10
2.23704284e-10
2.226352957e-10
2.215399772e-10
2.205200532e-10
2.196969016e-10
2.192107692e-10
2.235025713e-10
2.229357712e-10
2.221246671e-10
2.211258631e-10
2.200097748e-10
2.188634631e-10
2.17793317e-10
2.169273592e-10
2.164146078e-10
2.208562634e-10
2.202617082e-10
2.194096809e-10
2.183584663e-10
2.171810671e-10
2.159685854e-10
2.148334657e-10
2.139122941e-10
2.133653298e-10
2.180148467e-10
2.173850231e-10
2.164810939e-10
2.153635654e-10
2.141087913e-10
2.12813019e-10
2.115963201e-10
2.106059987e-10
2.100163161e-10
2.149410207e-10
2.142675861e-10
2.132995858e-10
2.121003688e-10
2.10750504e-10
2.093526161e-10
2.080361368e-10
2.06961443e-10
2.063197899e-10
2.115956667e-10
2.108695872e-10
2.098243694e-10
2.085269065e-10
2.070629435e-10
2.055428274e-10
2.041072095e-10
2.029320339e-10
2.022286781e-10
2.07938923e-10
2.071506908e-10
2.060144627e-10
2.046014555e-10
2.030036381e-10
2.013405101e-10
1.997658788e-10
1.98473802e-10
1.976989119e-10
2.039315671e-10
2.030715047e-10
2.018302868e-10
2.002843039e-10
1.985328646e-10
1.967061003e-10
1.949729177e-10
1.935479726e-10
1.926921162e-10
1.995366973e-10