/*--------------------------------*- C++ -*----------------------------------*\
| =========                 |                                                 |
| \\      /  F ield         | OpenFOAM: The Open Source CFD Toolbox           |
|  \\    /   O peration     | Version:  2212                                  |
|   \\  /    A nd           | Website:  www.openfoam.com                      |
|    \\/     M anipulation  |                                                 |
\*---------------------------------------------------------------------------*/
FoamFile
{
    version     2.0;
    format      ascii;
    arch        "LSB;label=32;scalar=64";
    class       volScalarField;
    location    "23.25000000";
    object      CH3CO;
}
// * * * * * * * * * * * * * * * * * * * * * * * * * * * * * * * * * * * * * //

dimensions      [0 0 0 0 0 0 0];

internalField   nonuniform List<scalar> 
3000
(
8.965794496e-48
1.141760259e-47
1.568369159e-47
2.246053999e-47
3.268389666e-47
4.740388299e-47
6.735182842e-47
9.168239342e-47
1.145574551e-46
9.128456807e-47
1.171704209e-46
1.625382274e-46
2.354222296e-46
3.473501079e-46
5.134614319e-46
7.506547003e-46
1.06619645e-45
1.40149864e-45
4.345356112e-46
5.67385178e-46
8.051601635e-46
1.198843503e-45
1.82746389e-45
2.803769124e-45
4.259487334e-45
6.242631642e-45
8.269236965e-45
1.561637245e-45
2.08521075e-45
3.048904314e-45
4.704097207e-45
7.458443568e-45
1.190521559e-44
1.870685581e-44
2.792352157e-44
3.681152661e-44
4.939421661e-45
6.766536989e-45
1.023196774e-44
1.640030123e-44
2.703457713e-44
4.46799774e-44
7.191844352e-44
1.080611434e-43
1.411391082e-43
1.472114969e-44
2.070297509e-44
3.237498584e-44
5.380887756e-44
9.179848934e-44
1.559330113e-43
2.549366488e-43
3.834147626e-43
4.962928639e-43
4.283801833e-44
6.176990812e-44
9.963127874e-44
1.7093605e-43
2.998880294e-43
5.197236825e-43
8.576373327e-43
1.287775053e-42
1.653589189e-42
1.239246631e-43
1.827232448e-43
3.027075324e-43
5.331175575e-43
9.557122513e-43
1.67985425e-42
2.786953665e-42
4.175035873e-42
5.328267431e-42
3.595290044e-43
5.402456853e-43
9.148834453e-43
1.644774223e-42
2.996234805e-42
5.317467065e-42
8.847821194e-42
1.322399062e-41
1.679959861e-41
1.049636065e-42
1.601709805e-42
2.75997163e-42
5.040197262e-42
9.28873883e-42
1.659171202e-41
2.764881864e-41
4.123898178e-41
5.220981791e-41
3.08572537e-42
4.766131842e-42
8.32294365e-42
1.537676158e-41
2.857238258e-41
5.125382864e-41
8.546686712e-41
1.272524171e-40
1.606939817e-40
9.128506913e-42
1.42312666e-41
2.51012335e-41
4.676840159e-41
8.740276704e-41
1.57214476e-40
2.621991204e-40
3.898122205e-40
4.913354071e-40
2.714377881e-41
4.261322265e-41
7.57164494e-41
1.41929324e-40
2.662869097e-40
4.797888526e-40
8.00054393e-40
1.187949533e-39
1.495450547e-39
8.10303519e-41
1.278671118e-40
2.28411042e-40
4.299744142e-40
8.088269193e-40
1.458709337e-39
2.431506767e-39
3.606479137e-39
4.536975282e-39
2.425853276e-40
3.842383049e-40
6.889731244e-40
1.300736897e-39
2.450858661e-39
4.421880863e-39
7.366725605e-39
1.091597568e-38
1.373196038e-38
7.27659165e-40
1.155636742e-39
2.077587131e-39
3.929782042e-39
7.411266799e-39
1.337102573e-38
2.225924753e-38
3.295211407e-38
4.14736127e-38
2.185312203e-39
3.477002607e-39
6.261647249e-39
1.18570241e-38
2.236825915e-38
4.033763647e-38
6.708421917e-38
9.918522724e-38
1.2469953e-37
6.566694234e-39
1.046056492e-38
1.885699594e-38
3.572329024e-38
6.737585187e-38
1.213961307e-37
2.016223088e-37
2.976522635e-37
3.737388137e-37
1.973253416e-38
3.145417911e-38
5.672382184e-38
1.074429956e-37
2.024843482e-37
3.643369064e-37
6.040469641e-37
8.900530835e-37
1.115790135e-36
5.926311645e-38
9.448606551e-38
1.703660978e-37
3.224586452e-37
6.068613209e-37
1.0898162e-36
1.802590962e-36
2.649538789e-36
3.314675373e-36
1.777875112e-37
2.833902881e-37
5.106082632e-37
9.651216124e-37
1.812583982e-36
3.246302125e-36
5.352622761e-36
7.841995014e-36
9.783927408e-36
5.324148219e-37
8.480913654e-37
1.526064917e-36
2.878429614e-36
5.390238958e-36
9.618709567e-36
1.579372695e-35
2.303987978e-35
2.864148327e-35
1.590381735e-36
2.530428388e-36
4.544194567e-36
8.545851601e-36
1.59403503e-35
2.830813471e-35
4.622805855e-35
6.705942768e-35
8.296681384e-35
4.734354136e-36
7.519963222e-36
1.34668403e-35
2.522511517e-35
4.680814038e-35
8.260505853e-35
1.339459767e-34
1.928974164e-34
2.371803325e-34
1.402988378e-35
2.223273172e-35
3.966615071e-35
7.391297825e-35
1.36238025e-34
2.385020074e-34
3.832678558e-34
5.468646343e-34
6.671017529e-34
4.13347397e-35
6.52993411e-35
1.159383643e-34
2.145973828e-34
3.922047608e-34
6.796935949e-34
1.079998478e-33
1.523265963e-33
1.839837756e-33
1.208859068e-34
1.902113129e-34
3.356402788e-34
6.160589175e-34
1.114077611e-33
1.906698911e-33
2.987885318e-33
4.154847986e-33
4.957669688e-33
3.503142775e-34
5.484442789e-34
9.603417839e-34
1.744482274e-33
3.114100404e-33
5.249233321e-33
8.089084198e-33
1.105827783e-32
1.300410711e-32
1.003856809e-33
1.561845248e-33
2.709124129e-33
4.859523327e-33
8.540529819e-33
1.413725905e-32
2.135740326e-32
2.861717315e-32
3.3083375e-32
2.838030071e-33
4.382098561e-33
7.514868286e-33
1.327826727e-32
2.290940728e-32
3.712394245e-32
5.480594356e-32
7.175931321e-32
8.135670013e-32
7.895688467e-33
1.208076453e-32
2.043857743e-32
3.547933757e-32
5.991286684e-32
9.4739119e-32
1.36242787e-31
1.738095267e-31
1.928186739e-31
2.155750421e-32
3.263048392e-32
5.433752249e-32
9.241134488e-32
1.522682309e-31
2.342174051e-31
3.2712342e-31
4.055523116e-31
4.394058079e-31
5.759475914e-32
8.60923375e-32
1.407740532e-31
2.338990294e-31
3.74927848e-31
5.59342275e-31
7.567066871e-31
9.097200722e-31
9.613297383e-31
1.501228023e-31
2.212047949e-31
3.543130304e-31
5.735662278e-31
8.919143114e-31
1.287215749e-30
1.68319258e-30
1.959306896e-30
2.01784969e-30
3.806216989e-31
5.518447238e-31
8.638279375e-31
1.358967592e-30
2.045071807e-30
2.849330475e-30
3.596056352e-30
4.05001766e-30
4.064917723e-30
9.359974603e-31
1.3329458e-30
2.034697914e-30
3.103876712e-30
4.511525116e-30
6.059896266e-30
7.376759354e-30
8.038897065e-30
7.868855858e-30
2.226598701e-30
3.109549144e-30
4.620040345e-30
6.821978845e-30
9.565048978e-30
1.237889503e-29
1.453763008e-29
1.534400951e-29
1.466900203e-29
5.112201652e-30
6.991723377e-30
1.009599602e-29
1.441328589e-29
1.948322325e-29
2.430114802e-29
2.756317717e-29
2.822673588e-29
2.641043039e-29
1.13086281e-29
1.513017794e-29
2.121263816e-29
2.926427891e-29
3.814784698e-29
4.590944349e-29
5.038915028e-29
5.019266397e-29
4.60829987e-29
2.407548185e-29
3.148954743e-29
4.284652403e-29
5.713203292e-29
7.189694397e-29
8.364761174e-29
8.907886964e-29
8.657312659e-29
7.822751867e-29
4.93156145e-29
6.303973477e-29
8.325929609e-29
1.07403427e-28
1.307176112e-28
1.474105765e-28
1.528009042e-28
1.453907769e-28
1.297062271e-28
9.725972819e-29
1.215267788e-28
1.559132895e-28
1.948815402e-28
2.29945116e-28
2.521293802e-28
2.552856835e-28
2.386734659e-28
2.108859619e-28
1.850033213e-28
2.260909271e-28
2.82124256e-28
3.4240491e-28
3.927963837e-28
4.201778078e-28
4.170577388e-28
3.844693373e-28
3.374517229e-28
3.403935087e-28
4.072659876e-28
4.951416665e-28
5.849436578e-28
6.543951571e-28
6.852086202e-28
6.689506809e-28
6.099540115e-28
5.331577198e-28
6.082752174e-28
7.134763531e-28
8.469026481e-28
9.765107915e-28
1.068619176e-27
1.098612795e-27
1.057850396e-27
9.562820995e-28
8.339465452e-28
1.061099245e-27
1.222268186e-27
1.419967373e-27
1.602599101e-27
1.72050908e-27
1.741121929e-27
1.656693553e-27
1.486527409e-27
1.294189338e-27
1.817586555e-27
2.060437312e-27
2.349381623e-27
2.603441861e-27
2.749889169e-27
2.745159712e-27
2.583704697e-27
2.300487601e-27
1.997518098e-27
3.075687824e-27
3.440173093e-27
3.862802153e-27
4.217853501e-27
4.397403219e-27
4.34037214e-27
4.044022195e-27
3.569503961e-27
3.084712828e-27
5.16943819e-27
5.722323294e-27
6.352235474e-27
6.863993678e-27
7.093200817e-27
6.947952129e-27
6.427721395e-27
5.639052584e-27
4.864558486e-27
8.663192588e-27
9.522629973e-27
1.049688029e-26
1.128170183e-26
1.1620731e-26
1.137079071e-26
1.054441371e-26
9.358552869e-27
8.348626875e-27
1.450083961e-26
1.58826634e-26
1.746553612e-26
1.877540095e-26
1.941326273e-26
1.917732869e-26
1.818935502e-26
1.706083897e-26
1.582503196e-26
2.423277757e-26
2.653848805e-26
2.92517587e-26
3.165178709e-26
3.317072403e-26
3.36990627e-26
3.404944481e-26
3.354324171e-26
3.219682091e-26
4.035825338e-26
4.435807948e-26
4.928844852e-26
5.417188556e-26
5.85461679e-26
6.346466375e-26
6.748629662e-26
6.936926135e-26
6.887612323e-26
6.692560304e-26
7.421672612e-26
8.392184181e-26
9.535058144e-26
1.097333483e-25
1.250142168e-25
1.387943489e-25
1.487465116e-25
1.535940375e-25
1.111354143e-25
1.255745481e-25
1.473921894e-25
1.773018624e-25
2.135035965e-25
2.531673947e-25
2.92756867e-25
3.288141729e-25
3.568775048e-25
1.898398941e-25
2.226899668e-25
2.730563856e-25
3.409324087e-25
4.247737079e-25
5.219596076e-25
6.30334875e-25
7.494152661e-25
8.659583328e-25
3.466990301e-25
4.154172751e-25
5.222336895e-25
6.689925505e-25
8.574597789e-25
1.092054843e-24
1.386928495e-24
1.766895679e-24
2.194818199e-24
6.579448326e-25
7.97820158e-25
1.018917176e-24
1.331383759e-24
1.752999889e-24
2.323827128e-24
3.13438509e-24
4.321124816e-24
5.777007453e-24
1.280093398e-24
1.562686146e-24
2.018035115e-24
2.684069464e-24
3.638193028e-24
5.056449898e-24
7.310982021e-24
1.093045323e-23
1.558087385e-23
2.536935356e-24
3.108772318e-24
4.051211721e-24
5.488303714e-24
7.695302854e-24
1.130236813e-23
1.759012958e-23
2.827816046e-23
4.225893275e-23
5.100357528e-24
6.264920064e-24
8.237523653e-24
1.139871752e-23
1.663337679e-23
2.595186184e-23
4.32754e-23
7.353446727e-23
1.130603967e-22
1.035568836e-23
1.274968597e-23
1.694374261e-23
2.405611319e-23
3.673006397e-23
6.083163612e-23
1.072709595e-22
1.887641424e-22
2.93774858e-22
2.112580976e-23
2.611260854e-23
3.520552539e-23
5.1554427e-23
8.253801443e-23
1.439487463e-22
2.636510469e-22
4.71495267e-22
7.338415109e-22
4.313629329e-23
5.372081225e-23
7.386096282e-23
1.119986237e-22
1.873758008e-22
3.394019589e-22
6.338999833e-22
1.135190297e-21
1.752723409e-21
8.814918725e-23
1.111252072e-22
1.565296127e-22
2.457209998e-22
4.255759767e-22
7.876901852e-22
1.476871097e-21
2.621034865e-21
3.994372241e-21
1.809487003e-22
2.317637887e-22
3.348130425e-22
5.409037137e-22
9.569688547e-22
1.782339278e-21
3.315420476e-21
5.791517084e-21
8.685864269e-21
3.747432837e-22
4.878476651e-22
7.198164843e-22
1.184306061e-21
2.110615848e-21
3.906910304e-21
7.151793632e-21
1.224515084e-20
1.804385952e-20
7.834689724e-22
1.032887987e-21
1.543804399e-21
2.555948237e-21
4.533392541e-21
8.265802387e-21
1.48125428e-20
2.479794937e-20
3.587548469e-20
1.645598538e-21
2.183308348e-21
3.27397555e-21
5.395931812e-21
9.438850816e-21
1.685115716e-20
2.946959588e-20
4.817795612e-20
6.84156083e-20
3.442985243e-21
4.566238468e-21
6.810705126e-21
1.108207364e-20
1.900110051e-20
3.309419344e-20
5.638429639e-20
8.997170135e-20
1.25428298e-19
7.109608812e-21
9.372074014e-21
1.381375938e-20
2.206671352e-20
3.694474523e-20
6.264970326e-20
1.039134421e-19
1.618446111e-19
2.215765621e-19
1.437723114e-20
1.876177938e-20
2.720961229e-20
4.252721798e-20
6.938235138e-20
1.144549264e-19
1.847995533e-19
2.810320491e-19
3.780339036e-19
2.831533305e-20
3.648739982e-20
5.193804058e-20
7.928433997e-20
1.259431649e-19
2.020875554e-19
3.177428421e-19
4.720671542e-19
6.24278782e-19
5.412786979e-20
6.878640264e-20
9.599350112e-20
1.430332954e-19
2.212197016e-19
3.454231096e-19
5.292228277e-19
7.686811828e-19
9.999851653e-19
1.002659325e-19
1.256032846e-19
1.718041028e-19
2.499131339e-19
3.765332404e-19
5.7256223e-19
8.555079695e-19
1.215787477e-18
1.556904927e-18
1.799008158e-19
2.221734977e-19
2.979676313e-19
4.234116848e-19
6.219878247e-19
9.2196775e-19
1.344766956e-18
1.871446032e-18
2.360634498e-18
3.127757039e-19
3.809755119e-19
5.013316014e-19
6.965688863e-19
9.987490428e-19
1.444723921e-18
2.059178833e-18
2.808703569e-18
3.492168628e-18
5.274179877e-19
6.340192334e-19
8.193660274e-19
1.114404603e-18
1.561452502e-18
2.206808753e-18
3.076931646e-18
4.117211787e-18
5.049163584e-18
8.636518302e-19
1.025397074e-18
1.302737737e-18
1.736461984e-18
2.380620229e-18
3.291255518e-18
4.493998067e-18
5.904538258e-18
7.146852564e-18
1.375306657e-18
1.613982228e-18
2.01795754e-18
2.639326731e-18
3.544941928e-18
4.800069093e-18
6.425576746e-18
8.2970927e-18
9.918568158e-18
2.132976091e-18
2.476120839e-18
3.049939029e-18
3.918957345e-18
5.163261028e-18
6.855753717e-18
9.007084476e-18
1.14405895e-17
1.351582354e-17
3.226646548e-18
3.708133166e-18
4.504281544e-18
5.692641411e-18
7.366091388e-18
9.602298424e-18
1.239457413e-17
1.549995326e-17
1.810788419e-17
4.767987097e-18
5.428414714e-18
6.509070344e-18
8.1003783e-18
1.030647919e-17
1.320545558e-17
1.676443876e-17
2.065855209e-17
2.388073156e-17
6.89207361e-18
7.778913005e-18
9.215975825e-18
1.130548123e-17
1.416001934e-17
1.785214178e-17
2.231225141e-17
2.71166242e-17
3.103529277e-17
9.758313012e-18
1.092575184e-17
1.280043408e-17
1.549419625e-17
1.91238431e-17
2.374879847e-17
2.92505955e-17
3.508876323e-17
3.978480336e-17
1.355034198e-17
1.505878757e-17
1.746070928e-17
2.087415999e-17
2.541442354e-17
3.11185829e-17
3.78057753e-17
4.480036051e-17
5.035120017e-17
1.847470494e-17
2.038991778e-17
2.341568162e-17
2.767156951e-17
3.326410519e-17
4.019732748e-17
4.821336829e-17
5.648297705e-17
6.29605155e-17
2.475817514e-17
2.715002806e-17
3.090127852e-17
3.612702178e-17
4.291635847e-17
5.12283083e-17
6.071269043e-17
7.03687313e-17
7.783735894e-17
3.264367345e-17
3.558455986e-17
4.016557257e-17
4.64900953e-17
5.461988337e-17
6.445599462e-17
7.554038105e-17
8.668392671e-17
9.519871418e-17
4.238485911e-17
4.59478065e-17
5.146269971e-17
5.901288227e-17
6.862182846e-17
8.011909845e-17
9.29234671e-17
1.056423033e-16
1.152474586e-16
5.423960306e-17
5.849618133e-17
6.504588753e-17
7.394281537e-17
8.516052788e-17
9.844338993e-17
1.130724462e-16
1.274385578e-16
1.381665768e-16
6.846268649e-17
7.348082803e-17
8.115999846e-17
9.151523006e-17
1.04458232e-16
1.196347991e-16
1.361750031e-16
1.522428828e-16
1.641114455e-16
8.529817404e-17
9.114003715e-17
1.000340641e-16
1.119461309e-16
1.26714238e-16
1.438730028e-16
1.62390002e-16
1.801923502e-16
1.932070885e-16
1.049719786e-16
1.11691994e-16
1.218743484e-16
1.354257191e-16
1.520990675e-16
1.713064462e-16
1.918406597e-16
2.113914318e-16
2.255441018e-16
1.276851541e-16
1.353283962e-16
1.468585016e-16
1.621131728e-16
1.807501333e-16
2.020460021e-16
2.246157635e-16
2.459079934e-16
2.611770137e-16
1.536084554e-16
1.622094586e-16
1.751317061e-16
1.921330718e-16
2.127659119e-16
2.361672008e-16
2.60766576e-16
2.837731103e-16
3.001244558e-16
1.828788733e-16
1.924600051e-16
2.067989693e-16
2.255692228e-16
2.482090491e-16
2.737078908e-16
3.003078087e-16
3.249828915e-16
3.423715629e-16
2.155914925e-16
2.261637658e-16
2.419298415e-16
2.62470737e-16
2.871049563e-16
3.146700577e-16
3.432205878e-16
3.69502852e-16
3.87875813e-16
2.518068625e-16
2.63369638e-16
2.805561358e-16
3.028493852e-16
3.294437236e-16
3.59022984e-16
3.894570941e-16
4.172751591e-16
4.365807159e-16
2.915473291e-16
3.040888599e-16
3.226734822e-16
3.466824389e-16
3.751834343e-16
4.067071388e-16
4.389444601e-16
4.682205738e-16
4.883876997e-16
3.347994866e-16
3.482979746e-16
3.682446115e-16
3.939167725e-16
4.242550909e-16
4.576399517e-16
4.915916076e-16
5.222216854e-16
5.431720183e-16
3.815179937e-16
3.959431425e-16
4.172043473e-16
4.444749107e-16
4.765699933e-16
5.117239183e-16
5.4726953e-16
5.791378921e-16
6.007891809e-16
4.316313059e-16
4.469465712e-16
4.694668859e-16
4.982640187e-16
5.320235291e-16
5.68819691e-16
6.05826789e-16
6.388115982e-16
6.610791006e-16
4.850505501e-16
5.012170714e-16
5.249359199e-16
5.551668192e-16
5.904663138e-16
6.287679281e-16
6.670968549e-16
7.010720007e-16
7.238696991e-16
5.416822109e-16
5.586440499e-16
5.834734115e-16
6.150248382e-16
6.517323168e-16
6.913954789e-16
7.309014624e-16
7.65738312e-16
7.889799951e-16
6.013698356e-16
6.190636394e-16
6.449108604e-16
6.776646531e-16
7.15642469e-16
7.565183749e-16
7.970535358e-16
8.326225482e-16
8.562227688e-16
6.639392571e-16
6.822989604e-16
7.090675218e-16
7.429013063e-16
7.82007787e-16
8.239446494e-16
8.653598135e-16
9.015319829e-16
9.254068907e-16
7.292047845e-16
7.481620962e-16
7.757525554e-16
8.105409804e-16
8.506320467e-16
8.934768547e-16
9.356231882e-16
9.722713198e-16
9.963393747e-16
7.969711714e-16
8.164562484e-16
8.447673063e-16
8.803834102e-16
9.213141631e-16
9.649143134e-16
1.007644795e-15
1.044644626e-15
1.068827202e-15
8.670357594e-16
8.869779562e-16
9.159075583e-16
9.522241317e-16
9.938503585e-16
1.038055152e-15
1.08122589e-15
1.118457059e-15
1.14267895e-15
9.3919068e-16
9.59519302e-16
9.889657115e-16
1.025856591e-15
1.068036159e-15
1.11269815e-15
1.156169539e-15
1.193516421e-15
1.217706249e-15
1.013225031e-15
1.033870053e-15
1.063732855e-15
1.101074113e-15
1.143668226e-15
1.188644418e-15
1.23228214e-15
1.26963454e-15
1.29372508e-15
1.088926972e-15
1.109819699e-15
1.140000715e-15
1.177671729e-15
1.220546038e-15
1.265698914e-15
1.309374783e-15
1.346628501e-15
1.370556926e-15
1.166085706e-15
1.187159363e-15
1.217563456e-15
1.255447841e-15
1.298473397e-15
1.343671793e-15
1.387264447e-15
1.424321719e-15
1.44802977e-15
1.244493304e-15
1.265683547e-15
1.296219323e-15
1.334205725e-15
1.377259781e-15
1.422379596e-15
1.465775038e-15
1.502544856e-15
1.525978945e-15
1.323946365e-15
1.345191721e-15
1.37577211e-15
1.413754862e-15
1.456721514e-15
1.501646262e-15
1.544738263e-15
1.58113659e-15
1.604247836e-15
1.404247493e-15
1.42548971e-15
1.456032436e-15
1.493912078e-15
1.536682758e-15
1.581303976e-15
1.623994345e-15
1.659944223e-15
1.682688442e-15
1.485206573e-15
1.506390896e-15
1.536818842e-15
1.574502503e-15
1.616976333e-15
1.661193847e-15
1.703392572e-15
1.738824145e-15
1.761161779e-15
1.566641841e-15
1.587717222e-15
1.617958682e-15
1.655360347e-15
1.697444359e-15
1.74116642e-15
1.782791709e-15
1.817642156e-15
1.839538168e-15
1.648380764e-15
1.669299988e-15
1.699288836e-15
1.736329493e-15
1.777938727e-15
1.821082036e-15
1.862060245e-15
1.896273646e-15
1.917697374e-15
1.730260707e-15
1.750980471e-15
1.780656229e-15
1.817263915e-15
1.858321413e-15
1.90081104e-15
1.941076528e-15
1.974603664e-15
1.995528646e-15
1.812129426e-15
1.832610346e-15
1.861918184e-15
1.898027945e-15
1.938464644e-15
1.980233858e-15
2.019728757e-15
2.052526868e-15
2.072930643e-15
1.893845373e-15
1.914051953e-15
1.942942617e-15
1.978496379e-15
2.01825093e-15
2.059240955e-15
2.097914888e-15
2.129947378e-15
2.149811267e-15
1.975277846e-15
1.995178402e-15
2.023608081e-15
2.058554462e-15
2.097572978e-15
2.137732691e-15
2.175542432e-15
2.20677855e-15
2.226087425e-15
2.056306997e-15
2.075873539e-15
2.10380369e-15
2.138097758e-15
2.176333505e-15
2.215619076e-15
2.252528182e-15
2.282942673e-15
2.30168472e-15
2.136823712e-15
2.1560318e-15
2.183428928e-15
2.21703191e-15
2.254444959e-15
2.292819466e-15
2.328797872e-15
2.358370623e-15
2.376537093e-15
2.216729378e-15
2.235557961e-15
2.262393374e-15
2.295272333e-15
2.331829179e-15
2.369262186e-15
2.404285787e-15
2.433001455e-15
2.450586423e-15
2.295935574e-15
2.314366802e-15
2.34061634e-15
2.372743833e-15
2.408416991e-15
2.444884113e-15
2.478934339e-15
2.506781977e-15
2.523782098e-15
2.374363675e-15
2.392382709e-15
2.418026455e-15
2.44938017e-15
2.484147759e-15
2.519630225e-15
2.552693604e-15
2.579666296e-15
2.596080569e-15
2.451944411e-15
2.469539217e-15
2.494561207e-15
2.525123595e-15
2.558968916e-15
2.593453119e-15
2.625520854e-15
2.651615351e-15
2.66744489e-15
2.528617378e-15
2.54577852e-15
2.570166446e-15
2.599924349e-15
2.632835466e-15
2.666312525e-15
2.697380074e-15
2.722596443e-15
2.737844257e-15
2.604330522e-15
2.621050959e-15
2.644795869e-15
2.673740152e-15
2.705709477e-15
2.738174811e-15
2.768241475e-15
2.792582763e-15
2.807253543e-15
2.679039605e-15
2.695314483e-15
2.718410491e-15
2.746535684e-15
2.777559576e-15
2.809012483e-15
2.838081023e-15
2.86155293e-15
2.875652855e-15
2.752707661e-15
2.76853412e-15
2.790978123e-15
2.81828207e-15
2.848360441e-15
2.878803705e-15
2.906879963e-15
2.929490541e-15
2.943027088e-15
2.825304458e-15
2.840681435e-15
2.862472837e-15
2.888956364e-15
2.918092315e-15
2.947531823e-15
2.974624369e-15
2.996383732e-15
3.009365505e-15
2.896805961e-15
2.911734009e-15
2.932874462e-15
2.958541055e-15
2.986740517e-15
3.015184902e-15
3.041304706e-15
3.062224762e-15
3.074661326e-15
2.967193812e-15
2.981674924e-15
3.002168079e-15
3.027023585e-15
3.054294991e-15
3.081755295e-15
3.106915412e-15
3.127009612e-15
3.138911348e-15
3.036454826e-15
3.05049227e-15
3.070343544e-15
3.094395886e-15
3.120749857e-15
3.147239219e-15
3.171454502e-15
3.190737612e-15
3.202115575e-15
3.104580505e-15
3.118178671e-15
3.137395028e-15
3.160653941e-15
3.186102997e-15
3.211636359e-15
3.234923196e-15
3.25341108e-15
3.264276879e-15
3.17156658e-15
3.184730835e-15
3.203320582e-15
3.225797368e-15
3.250355663e-15
3.274949502e-15
3.297325566e-15
3.315034995e-15
3.325400675e-15
3.237412574e-15
3.250149127e-15
3.26812173e-15
3.28982903e-15
3.313512099e-15
3.337184182e-15
3.35866821e-15
3.375616683e-15
3.385494624e-15
3.302121393e-15
3.314437173e-15
3.331803078e-15
3.352754667e-15
3.375579204e-15
3.398348361e-15
3.418959948e-15
3.435165533e-15
3.444568356e-15
3.365698942e-15
3.377601486e-15
3.394371963e-15
3.414582554e-15
3.436566205e-15
3.458452124e-15
3.478211539e-15
3.493692728e-15
3.502633211e-15
3.428153766e-15
3.439651114e-15
3.455838116e-15
3.47532319e-15
3.496484364e-15
3.517507406e-15
3.536435426e-15
3.551211003e-15
3.55970201e-15
3.489496724e-15
3.500597327e-15
3.51621335e-15
3.534989e-15
3.555346702e-15
3.575527732e-15
3.593645492e-15
3.607734422e-15
3.615788833e-15
3.54974068e-15
3.560453313e-15
3.575511286e-15
3.593594073e-15
3.613167748e-15
3.63252799e-15
3.649856849e-15
3.66327817e-15
3.670908827e-15
3.608900223e-15
3.619233911e-15
3.633747085e-15
3.651153912e-15
3.669963312e-15
3.688524209e-15
3.705085633e-15
3.717858368e-15
3.725078024e-15
3.666991414e-15
3.676955361e-15
3.690937212e-15
3.707685211e-15
3.725750274e-15
3.743533374e-15
3.75934883e-15
3.771491908e-15
3.778313181e-15
3.724031546e-15
3.733635076e-15
3.747099226e-15
3.763205656e-15
3.780546396e-15
3.797573246e-15
3.81266411e-15
3.824196295e-15
3.830631631e-15
3.780038938e-15
3.789291442e-15
3.802251577e-15
3.817733735e-15
3.834370148e-15
3.850662204e-15
3.865049682e-15
3.875989514e-15
3.882051156e-15
3.835032741e-15
3.843943623e-15
3.856413431e-15
3.871288577e-15
3.88724056e-15
3.902819103e-15
3.916524163e-15
3.926889905e-15
3.932589865e-15
3.889032762e-15
3.897611405e-15
3.909604515e-15
3.923889798e-15
3.939177076e-15
3.954063148e-15
3.967106457e-15
3.976916056e-15
3.982266091e-15
3.942059314e-15
3.950315037e-15
3.961844971e-15
3.975557376e-15
3.990199437e-15
4.00441378e-15
4.016815657e-15
4.026086701e-15
4.031098297e-15
3.994133072e-15
4.002075103e-15
4.013155231e-15
4.026311523e-15
4.04032757e-15
4.053890574e-15
4.065670945e-15
4.074420638e-15
4.079104993e-15
4.045274955e-15
4.0529124e-15
4.063555903e-15
4.076172584e-15
4.089581488e-15
4.102513151e-15
4.113691516e-15
4.12193665e-15
4.126304664e-15
4.095506011e-15
4.102847832e-15
4.11306767e-15
4.125160947e-15
4.137981207e-15
4.150301098e-15
4.160896501e-15
4.16865344e-15
4.172715704e-15
4.144847323e-15
4.15190232e-15
4.161711206e-15
4.173296956e-15
4.18554667e-15
4.197273902e-15
4.207304909e-15
4.214589572e-15
4.218356366e-15
4.193319926e-15
4.200096719e-15
4.209507095e-15
4.220600842e-15
4.232297681e-15
4.243450891e-15
4.252935571e-15
4.259763421e-15
4.263244705e-15
4.240944729e-15
4.247451746e-15
4.256475767e-15
4.267092661e-15
4.27825385e-15
4.288851176e-15
4.297807091e-15
4.304193128e-15
4.307398544e-15
4.287742454e-15
4.293987918e-15
4.302637439e-15
4.312792238e-15
4.323434542e-15
4.333493613e-15
4.341937808e-15
4.347896565e-15
4.350835437e-15
4.333733577e-15
4.339725501e-15
4.348012062e-15
4.357719125e-15
4.367858834e-15
4.377396764e-15
4.385345757e-15
4.390891301e-15
4.393572633e-15
4.378938284e-15
4.384684461e-15
4.392619283e-15
4.401892559e-15
4.411545483e-15
4.42057886e-15
4.428048649e-15
4.433194577e-15
4.435627059e-15
4.423376426e-15
4.428884427e-15
4.436478405e-15
4.445331426e-15
4.454512891e-15
4.463057781e-15
4.470063836e-15
4.474823282e-15
4.477015293e-15
4.467067486e-15
4.472344658e-15
4.479608355e-15
4.488054237e-15
4.496779082e-15
4.504851025e-15
4.511408295e-15
4.515793934e-15
4.517753547e-15
4.51003055e-15
4.515084011e-15
4.522027661e-15
4.530079098e-15
4.538361679e-15
4.545975694e-15
4.552098612e-15
4.556122664e-15
4.557857651e-15
4.552284277e-15
4.55712092e-15
4.563754425e-15
4.571423695e-15
4.579277884e-15
4.586448471e-15
4.59215096e-15
4.5958252e-15
4.597343039e-15
4.593846882e-15
4.598473371e-15
4.604806303e-15
4.612105269e-15
4.61954446e-15
4.626285611e-15
4.631581089e-15
4.634916856e-15
4.636224736e-15
4.634736105e-15
4.63915888e-15
4.645200485e-15
4.652140597e-15
4.659177712e-15
4.665502916e-15
4.670404311e-15
4.673412513e-15
4.674517344e-15
4.674969193e-15
4.679194469e-15
4.684953669e-15
4.691545974e-15
4.69819347e-15
4.704115721e-15
4.708635475e-15
4.711326606e-15
4.712235025e-15
4.714562864e-15
4.718596638e-15
4.724082035e-15
4.730337177e-15
4.736607054e-15
4.742138862e-15
4.74628895e-15
4.748673096e-15
4.749391477e-15
4.753533276e-15
4.757381324e-15
4.762601204e-15
4.768529434e-15
4.774433244e-15
4.779586647e-15
4.78337858e-15
4.785465435e-15
4.785999896e-15
4.791895963e-15
4.795563844e-15
4.800526181e-15
4.806137363e-15
4.811686215e-15
4.816472787e-15
4.819917632e-15
4.821716509e-15
4.822072927e-15
4.829665755e-15
4.833158814e-15
4.837871271e-15
4.843174882e-15
4.848379453e-15
4.852810315e-15
4.855918705e-15
4.857438552e-15
4.857622569e-15
4.866856655e-15
4.870180017e-15
4.874649946e-15
4.879655077e-15
4.88452561e-15
4.888611437e-15
4.891393584e-15
4.892642998e-15
4.892660039e-15
4.903481642e-15
4.906640209e-15
4.910874641e-15
4.915589992e-15
4.920136296e-15
4.923887318e-15
4.926353019e-15
4.92734026e-15
4.927195543e-15
4.939552395e-15
4.94255083e-15
4.946556455e-15
4.950990314e-15
4.955221742e-15
4.958647733e-15
4.96080637e-15
4.961539371e-15
4.961237922e-15
4.975078863e-15
4.977921562e-15
4.981704698e-15
4.985864896e-15
4.989790309e-15
4.992900554e-15
4.994761077e-15
4.995247438e-15
4.994794102e-15
5.010068654e-15
5.012759703e-15
5.016326223e-15
5.020220061e-15
5.023847745e-15
5.026650971e-15
5.028221842e-15
5.028468811e-15
5.027868246e-15
5.044526153e-15
5.047069244e-15
5.05042447e-15
5.054058584e-15
5.05739611e-15
5.059900349e-15
5.061189439e-15
5.061203842e-15
5.0604605e-15
5.078451274e-15
5.080849582e-15
5.083998102e-15
5.087378244e-15
5.090432229e-15
5.092644588e-15
5.093658975e-15
5.093447077e-15
5.092565143e-15
5.111837732e-15
5.114093721e-15
5.117039112e-15
5.120169805e-15
5.12294553e-15
5.124871806e-15
5.125617435e-15
5.125184687e-15
5.124167947e-15
5.144670692e-15
5.146785821e-15
5.149530227e-15
5.152414241e-15
5.154915061e-15
5.156559138e-15
5.157040266e-15
5.156390878e-15
5.155242486e-15
5.176923626e-15
5.178897927e-15
5.181441441e-15
5.184079021e-15
5.186305487e-15
5.187668418e-15
5.18788676e-15
5.187023014e-15
5.185745105e-15
5.208554197e-15
5.210385674e-15
5.212725462e-15
5.215113221e-15
5.217061807e-15
5.218140481e-15
5.218093935e-15
5.217015147e-15
5.215608215e-15
5.239498974e-15
5.241182773e-15
5.24331186e-15
5.245441237e-15
5.247102564e-15
5.247887812e-15
5.247568633e-15
5.246269632e-15
5.244731617e-15
5.269666785e-15
5.271194079e-15
5.273099715e-15
5.27495489e-15
5.276311301e-15
5.276785299e-15
5.276177575e-15
5.27464657e-15
5.272971535e-15
5.298930535e-15
5.300287066e-15
5.301948569e-15
5.303503722e-15
5.304526078e-15
5.304658901e-15
5.303735155e-15
5.301950837e-15
5.300127157e-15
5.327117366e-15
5.328281574e-15
5.329667592e-15
5.330883379e-15
5.331526945e-15
5.3312721e-15
5.329988884e-15
5.327916632e-15
5.325924584e-15
5.353997101e-15
5.35493781e-15
5.356002892e-15
5.356822069e-15
5.357021367e-15
5.356310213e-15
5.354602556e-15
5.352189619e-15
5.349998298e-15
5.379269038e-15
5.379942646e-15
5.380623114e-15
5.380965233e-15
5.380627816e-15
5.379362781e-15
5.377137424e-15
5.374307022e-15
5.371870532e-15
5.402547306e-15
5.4028945e-15
5.403103599e-15
5.402858786e-15
5.401857935e-15
5.399904553e-15
5.397031987e-15
5.393676337e-15
5.390929258e-15
5.4233452e-15
5.423287219e-15
5.422909618e-15
5.421931541e-15
5.420097998e-15
5.417275903e-15
5.413581353e-15
5.409553746e-15
5.406405954e-15
5.44105915e-15
5.440493708e-15
5.439379512e-15
5.437477725e-15
5.43459073e-15
5.430663903e-15
5.425917564e-15
5.421023771e-15
5.417354797e-15
5.454953268e-15
5.453750309e-15
5.45170884e-15
5.44864087e-15
5.444418938e-15
5.439085706e-15
5.432992754e-15
5.426982232e-15
5.422635461e-15
5.464145746e-15
5.462143287e-15
5.458937034e-15
5.454400743e-15
5.44849282e-15
5.441376339e-15
5.433567481e-15
5.426125063e-15
5.420902245e-15
5.467598693e-15
5.464599123e-15
5.459938407e-15
5.453565341e-15
5.445543221e-15
5.436183439e-15
5.42620703e-15
5.41694605e-15
5.410602746e-15
5.464113331e-15
5.459880626e-15
5.453419675e-15
5.444770318e-15
5.43412344e-15
5.421971799e-15
5.409288826e-15
5.397746849e-15
5.389989616e-15
5.452332737e-15
5.446591149e-15
5.437926423e-15
5.426488464e-15
5.412622405e-15
5.397040761e-15
5.38102424e-15
5.366662793e-15
5.357149041e-15
5.430754464e-15
5.423189323e-15
5.411861036e-15
5.397051873e-15
5.379292016e-15
5.359557424e-15
5.339497881e-15
5.321707716e-15
5.310049273e-15
5.397755356e-15
5.388016662e-15
5.373514492e-15
5.354689261e-15
5.332291147e-15
5.307608173e-15
5.282726908e-15
5.260840301e-15
5.246611719e-15
5.351630616e-15
5.339340059e-15
5.321114009e-15
5.297580321e-15
5.269748078e-15
5.239270131e-15
5.208741742e-15
5.182053156e-15
5.164805626e-15
5.290648584e-15
5.275410547e-15
5.252887695e-15
5.223928042e-15
5.189841923e-15
5.152702673e-15
5.115687854e-15
5.083483798e-15
5.062765234e-15
5.213121731e-15
5.194538587e-15
5.167146193e-15
5.132048469e-15
5.090901943e-15
5.046257164e-15
5.001945983e-15
4.963544175e-15
4.938925487e-15
5.117493018e-15
5.095184724e-15
5.062379583e-15
5.020475507e-15