/*--------------------------------*- C++ -*----------------------------------*\
| =========                 |                                                 |
| \\      /  F ield         | OpenFOAM: The Open Source CFD Toolbox           |
|  \\    /   O peration     | Version:  2212                                  |
|   \\  /    A nd           | Website:  www.openfoam.com                      |
|    \\/     M anipulation  |                                                 |
\*---------------------------------------------------------------------------*/
FoamFile
{
    version     2.0;
    format      ascii;
    arch        "LSB;label=32;scalar=64";
    class       volScalarField;
    location    "23.25000000";
    object      CH4_0;
}
// * * * * * * * * * * * * * * * * * * * * * * * * * * * * * * * * * * * * * //

dimensions      [0 0 0 0 0 0 0];

internalField   nonuniform List<scalar> 
3000
(
0.0004199879352
0.0004199879352
0.0004199879352
0.0004199879352
0.0004199879352
0.0004199879352
0.0004199879352
0.0004199879352
0.0004199879352
0.0004199879352
0.0004199879352
0.0004199879352
0.0004199879352
0.0004199879352
0.0004199879352
0.0004199879352
0.0004199879352
0.0004199879352
0.0004199879352
0.0004199879352
0.0004199879352
0.0004199879352
0.0004199879352
0.0004199879352
0.0004199879352
0.0004199879352
0.0004199879352
0.0004199879352
0.0004199879352
0.0004199879352
0.0004199879352
0.0004199879352
0.0004199879352
0.0004199879352
0.0004199879352
0.0004199879352
0.0004199879352
0.0004199879352
0.0004199879352
0.0004199879352
0.0004199879352
0.0004199879352
0.0004199879352
0.0004199879352
0.0004199879352
0.0004199879352
0.0004199879352
0.0004199879352
0.0004199879352
0.0004199879352
0.0004199879352
0.0004199879352
0.0004199879352
0.0004199879352
0.0004199879352
0.0004199879352
0.0004199879352
0.0004199879352
0.0004199879352
0.0004199879352
0.0004199879352
0.0004199879352
0.0004199879352
0.0004199879352
0.0004199879352
0.0004199879352
0.0004199879352
0.0004199879352
0.0004199879352
0.0004199879352
0.0004199879352
0.0004199879352
0.0004199879352
0.0004199879352
0.0004199879352
0.0004199879352
0.0004199879352
0.0004199879352
0.0004199879352
0.0004199879352
0.0004199879352
0.0004199879352
0.0004199879352
0.0004199879352
0.0004199879352
0.0004199879352
0.0004199879352
0.0004199879352
0.0004199879352
0.0004199879352
0.0004199879352
0.0004199879352
0.0004199879352
0.0004199879352
0.0004199879352
0.0004199879352
0.0004199879352
0.0004199879352
0.0004199879352
0.0004199879352
0.0004199879352
0.0004199879352
0.0004199879352
0.0004199879352
0.0004199879352
0.0004199879352
0.0004199879352
0.0004199879352
0.0004199879352
0.0004199879352
0.0004199879352
0.0004199879352
0.0004199879352
0.0004199879352
0.0004199879352
0.0004199879352
0.0004199879352
0.0004199879352
0.0004199879352
0.0004199879352
0.0004199879352
0.0004199879352
0.0004199879352
0.0004199879352
0.0004199879352
0.0004199879352
0.0004199879352
0.0004199879352
0.0004199879352
0.0004199879352
0.0004199879352
0.0004199879352
0.0004199879352
0.0004199879352
0.0004199879352
0.0004199879352
0.0004199879352
0.0004199879352
0.0004199879352
0.0004199879352
0.0004199879352
0.0004199879352
0.0004199879352
0.0004199879352
0.0004199879352
0.0004199879352
0.0004199879352
0.0004199879352
0.0004199879352
0.0004199879352
0.0004199879352
0.0004199879352
0.0004199879352
0.0004199879352
0.0004199879352
0.0004199879352
0.0004199879352
0.0004199879352
0.0004199879352
0.0004199879352
0.0004199879352
0.0004199879352
0.0004199879352
0.0004199879352
0.0004199879352
0.0004199879352
0.0004199879352
0.0004199879352
0.0004199879352
0.0004199879352
0.0004199879352
0.0004199879352
0.0004199879352
0.0004199879352
0.0004199879352
0.0004199879352
0.0004199879352
0.0004199879352
0.0004199879352
0.0004199879352
0.0004199879352
0.0004199879352
0.0004199879352
0.0004199879352
0.0004199879352
0.0004199879352
0.0004199879352
0.0004199879352
0.0004199879352
0.0004199879352
0.0004199879352
0.0004199879352
0.0004199879352
0.0004199879352
0.0004199879352
0.0004199879352
0.0004199879352
0.0004199879352
0.0004199879352
0.0004199879352
0.0004199879352
0.0004199879352
0.0004199879352
0.0004199879352
0.0004199879352
0.0004199879352
0.0004199879352
0.0004199879352
0.0004199879352
0.0004199879352
0.0004199879352
0.0004199879352
0.0004199879352
0.0004199879352
0.0004199879352
0.0004199879352
0.0004199879352
0.0004199879352
0.0004199879352
0.0004199879352
0.0004199879352
0.0004199879352
0.0004199879352
0.0004199879352
0.0004199879352
0.0004199879352
0.0004199879352
0.0004199879352
0.0004199879352
0.0004199879352
0.0004199879352
0.0004199879352
0.0004199879352
0.0004199879352
0.0004199879352
0.0004199879352
0.0004199879352
0.0004199879352
0.0004199879352
0.0004199879352
0.0004199879352
0.0004199879352
0.0004199879352
0.0004199879352
0.0004199879352
0.0004199879352
0.0004199879352
0.0004199879352
0.0004199879352
0.0004199879352
0.0004199879352
0.0004199879352
0.0004199879352
0.0004199879352
0.0004199879352
0.0004199879352
0.0004199879352
0.0004199879352
0.0004199879352
0.0004199879352
0.0004199879352
0.0004199879352
0.0004199879352
0.0004199879352
0.0004199879352
0.0004199879352
0.0004199879352
0.0004199879352
0.0004199879352
0.0004199879352
0.0004199879352
0.0004199879352
0.0004199879352
0.0004199879352
0.0004199879352
0.0004199879352
0.0004199879352
0.0004199879352
0.0004199879352
0.0004199879352
0.0004199879352
0.0004199879352
0.0004199879352
0.0004199879352
0.0004199879352
0.0004199879352
0.0004199879352
0.0004199879352
0.0004199879352
0.0004199879352
0.0004199879352
0.0004199879352
0.0004199879352
0.0004199879352
0.0004199879352
0.0004199879352
0.0004199879352
0.0004199879352
0.0004199879352
0.0004199879352
0.0004199879352
0.0004199879352
0.0004199879352
0.0004199879352
0.0004199879352
0.0004199879352
0.0004199879352
0.0004199879352
0.0004199879352
0.0004199879352
0.0004199879352
0.0004199879352
0.0004199879352
0.0004199879352
0.0004199879352
0.0004199879352
0.0004199879352
0.0004199879352
0.0004199879352
0.0004199879352
0.0004199879352
0.0004199879352
0.0004199879352
0.0004199879352
0.0004199879352
0.0004199879352
0.0004199879352
0.0004199879352
0.0004199879352
0.0004199879352
0.0004199879352
0.0004199879352
0.0004199879352
0.0004199879352
0.0004199879352
0.0004199879352
0.0004199879352
0.0004199879352
0.0004199879352
0.0004199879352
0.0004199879352
0.0004199879352
0.0004199879352
0.0004199879352
0.0004199879352
0.0004199879352
0.0004199879352
0.0004199879352
0.0004199879352
0.0004199879352
0.0004199879352
0.0004199879352
0.0004199879352
0.0004199879352
0.0004199879352
0.0004199879352
0.0004199879352
0.0004199879352
0.0004199879352
0.0004199879352
0.0004199879352
0.0004199879352
0.0004199879352
0.0004199879352
0.0004199879352
0.0004199879352
0.0004199879353
0.0004199879353
0.0004199879353
0.0004199879352
0.0004199879352
0.0004199879352
0.0004199879352
0.0004199879353
0.0004199879353
0.0004199879353
0.0004199879353
0.0004199879353
0.0004199879352
0.0004199879352
0.0004199879353
0.0004199879353
0.0004199879353
0.0004199879353
0.0004199879353
0.0004199879354
0.0004199879354
0.0004199879353
0.0004199879353
0.0004199879353
0.0004199879353
0.0004199879353
0.0004199879354
0.0004199879354
0.0004199879355
0.0004199879355
0.0004199879353
0.0004199879353
0.0004199879353
0.0004199879354
0.0004199879354
0.0004199879355
0.0004199879356
0.0004199879356
0.0004199879356
0.0004199879353
0.0004199879354
0.0004199879354
0.0004199879355
0.0004199879356
0.0004199879357
0.0004199879358
0.0004199879358
0.0004199879359
0.0004199879354
0.0004199879355
0.0004199879356
0.0004199879357
0.0004199879358
0.0004199879359
0.0004199879361
0.0004199879362
0.0004199879363
0.0004199879356
0.0004199879357
0.0004199879358
0.0004199879359
0.0004199879361
0.0004199879363
0.0004199879366
0.0004199879368
0.0004199879369
0.0004199879358
0.0004199879359
0.0004199879361
0.0004199879364
0.0004199879366
0.000419987937
0.0004199879373
0.0004199879376
0.0004199879378
0.0004199879362
0.0004199879364
0.0004199879366
0.000419987937
0.0004199879374
0.0004199879379
0.0004199879384
0.0004199879389
0.0004199879391
0.0004199879368
0.000419987937
0.0004199879374
0.000419987938
0.0004199879387
0.0004199879394
0.0004199879401
0.0004199879407
0.0004199879411
0.0004199879377
0.0004199879381
0.0004199879387
0.0004199879395
0.0004199879405
0.0004199879416
0.0004199879427
0.0004199879436
0.0004199879441
0.000419987939
0.0004199879397
0.0004199879406
0.0004199879418
0.0004199879432
0.0004199879449
0.0004199879465
0.0004199879478
0.0004199879486
0.0004199879412
0.0004199879421
0.0004199879434
0.0004199879452
0.0004199879474
0.0004199879497
0.0004199879521
0.0004199879541
0.0004199879553
0.0004199879444
0.0004199879457
0.0004199879477
0.0004199879504
0.0004199879535
0.000419987957
0.0004199879604
0.0004199879633
0.0004199879651
0.0004199879493
0.0004199879513
0.0004199879542
0.0004199879581
0.0004199879627
0.0004199879677
0.0004199879727
0.0004199879769
0.0004199879795
0.0004199879567
0.0004199879595
0.0004199879638
0.0004199879695
0.0004199879762
0.0004199879835
0.0004199879907
0.0004199879968
0.0004199880005
0.0004199879677
0.0004199879718
0.0004199879781
0.0004199879862
0.0004199879959
0.0004199880065
0.0004199880169
0.0004199880256
0.0004199880309
0.000419987984
0.00041998799
0.000419987999
0.0004199880108
0.0004199880247
0.0004199880399
0.0004199880548
0.0004199880673
0.0004199880749
0.000419988008
0.0004199880167
0.0004199880296
0.0004199880465
0.0004199880664
0.0004199880881
0.0004199881092
0.000419988127
0.0004199881378
0.0004199880432
0.0004199880556
0.000419988074
0.000419988098
0.0004199881263
0.000419988157
0.0004199881869
0.000419988212
0.0004199882271
0.0004199880944
0.000419988112
0.0004199881381
0.000419988172
0.0004199882119
0.0004199882551
0.0004199882971
0.0004199883322
0.0004199883534
0.0004199881684
0.0004199881931
0.0004199882299
0.0004199882774
0.0004199883334
0.0004199883936
0.0004199884522
0.000419988501
0.0004199885304
0.0004199882743
0.0004199883089
0.0004199883604
0.0004199884267
0.0004199885044
0.000419988588
0.0004199886691
0.0004199887366
0.0004199887774
0.0004199884251
0.0004199884732
0.0004199885446
0.0004199886364
0.0004199887438
0.0004199888591
0.0004199889707
0.0004199890635
0.0004199891195
0.0004199886381
0.0004199887044
0.0004199888027
0.000419988929
0.0004199890765
0.0004199892345
0.0004199893873
0.0004199895142
0.0004199895907
0.0004199889363
0.0004199890273
0.000419989162
0.0004199893346
0.0004199895359
0.0004199897512
0.0004199899592
0.0004199901318
0.0004199902358
0.0004199893511
0.0004199894751
0.0004199896583
0.0004199898929
0.0004199901661
0.0004199904579
0.0004199907394
0.0004199909728
0.0004199911133
0.0004199899235
0.0004199900915
0.0004199903393
0.0004199906562
0.0004199910248
0.0004199914179
0.0004199917968
0.0004199921107
0.0004199922996
0.0004199907078
0.0004199909339
0.0004199912671
0.0004199916926
0.000419992187
0.0004199927135
0.0004199932206
0.0004199936404
0.0004199938929
0.0004199917743
0.0004199920768
0.0004199925221
0.0004199930902
0.0004199937491
0.0004199944503
0.0004199951247
0.0004199956828
0.0004199960182
0.000419993214
0.000419993616
0.0004199942074
0.000419994961
0.000419995834
0.0004199967618
0.0004199976533
0.0004199983904
0.0004199988333
0.0004199951425
0.0004199956735
0.0004199964538
0.0004199974468
0.0004199985959
0.0004199998156
0.0004200009863
0.0004200019535
0.0004200025344
0.0004199977058
0.0004199984023
0.0004199994249
0.0004200007247
0.0004200022268
0.0004200038193
0.0004200053461
0.0004200066065
0.0004200073629
0.0004200010855
0.0004200019927
0.0004200033234
0.0004200050127
0.0004200069623
0.0004200090265
0.0004200110034
0.0004200126337
0.0004200136115
0.0004200055053
0.0004200066782
0.000420008397
0.0004200105761
0.0004200130877
0.0004200157432
0.0004200182833
0.0004200203758
0.00042002163
0.0004200112363
0.0004200127412
0.0004200149441
0.0004200177334
0.0004200209436
0.000420024333
0.0004200275706
0.0004200302348
0.0004200318302
0.0004200186033
0.0004200205187
0.0004200233195
0.0004200268611
0.0004200309308
0.0004200352212
0.0004200393138
0.0004200426772
0.0004200446895
0.0004200279898
0.0004200304075
0.0004200339388
0.0004200383978
0.0004200435137
0.0004200488984
0.0004200540269
0.0004200582361
0.0004200607519
0.0004200398413
0.0004200428669
0.000420047281
0.0004200528467
0.0004200592217
0.0004200659203
0.0004200722899
0.0004200775104
0.0004200806272
0.000420054668
0.0004200584211
0.0004200638902
0.0004200707756
0.0004200786487
0.0004200869068
0.000420094746
0.0004201011612
0.0004201049867
0.0004200730446
0.0004200776586
0.0004200843738
0.0004200928148
0.0004201024496
0.0004201125369
0.0004201220954
0.0004201299053
0.0004201345567
0.0004200956083
0.0004201012288
0.0004201093989
0.0004201196521
0.0004201313341
0.0004201435414
0.0004201550876
0.0004201645061
0.000420170108
0.0004201230529
0.0004201298369
0.0004201396856
0.0004201520251
0.0004201660578
0.0004201806932
0.0004201945097
0.0004202057611
0.0004202124441
0.0004201561221
0.0004201642348
0.0004201759974
0.0004201907105
0.0004202074108
0.0004202247939
0.0004202411728
0.0004202544879
0.0004202623859
0.0004201955977
0.0004202052103
0.0004202191298
0.0004202365116
0.0004202562037
0.0004202766598
0.000420295897
0.0004203115086
0.0004203207557
0.0004202422878
0.0004202535741
0.0004202698961
0.000420290244
0.0004203132526
0.0004203371064
0.0004203594953
0.0004203776329
0.0004203883613
0.000420297012
0.0004203101446
0.0004203291124
0.0004203527199
0.0004203793638
0.000420406932
0.0004204327573
0.0004204536428
0.0004204659793
0.0004203605858
0.0004203757326
0.0004203975823
0.0004204247324
0.0004204553178
0.0004204869025
0.0004205164345
0.0004205402771
0.0004205543413
0.0004204338052
0.000420451126
0.0004204760812
0.0004205070409
0.0004205418548
0.0004205777378
0.0004206112268
0.0004206382194
0.0004206541207
0.000420517432
0.0004205370751
0.0004205653426
0.0004206003578
0.0004206396627
0.0004206801
0.0004207177719
0.0004207480874
0.0004207659236
0.00042061218
0.0004206342797
0.000420666046
0.0004207053369
0.0004207493665
0.0004207945843
0.0004208366373
0.0004208704264
0.0004208902822
0.0004207187042
0.0004207433785
0.0004207788068
0.0004208225648
0.000420871521
0.0004209217129
0.0004209683152
0.000421005705
0.0004210276515
0.0004208375919
0.0004208649413
0.0004209041697
0.0004209525558
0.0004210066064
0.0004210619321
0.000421113221
0.0004211543144
0.0004211784086
0.0004209693573
0.0004209994639
0.0004210426044
0.0004210957482
0.0004211550269
0.0004212156119
0.0004212716941
0.0004213165697
0.0004213428553
0.0004211144381
0.0004211473655
0.0004211945046
0.0004212525044
0.0004213171115
0.0004213830482
0.0004214440007
0.0004214927147
0.000421521222
0.0004212731953
0.0004213089897
0.0004213601887
0.0004214231135
0.0004214931172
0.0004215644668
0.0004216303392
0.0004216829265
0.0004217136743
0.0004214459156
0.0004214846062
0.0004215399033
0.000421607794
0.0004216832332
0.0004217600284
0.0004218308453
0.0004218873222
0.0004219203187
0.0004216328144
0.000421674415
0.0004217338269
0.0004218066997
0.0004218875867
0.0004219698347
0.0004220455984
0.0004221059642
0.0004221412078
0.0004218340409
0.0004218785514
0.0004219420759
0.0004220199243
0.0004221062476
0.0004221939328
0.0004222746255
0.0004223388638
0.0004223763449
0.0004220496835
0.0004220970918
0.0004221647095
0.0004222475071
0.0004223392341
0.00042243232
0.0004225179053
0.0004225859861
0.000422625687
0.000422279776
0.0004223300591
0.0004224017357
0.0004224894381
0.0004225865171
0.000422684948
0.0004227753732
0.0004228472534
0.0004228891486
0.000422524303
0.000422577428
0.0004226531157
0.0004227456624
0.0004228480238
0.0004229517276
0.0004230469247
0.0004231225496
0.0004231666075
0.000422783204
0.0004228391294
0.0004229187677
0.0004230160834
0.0004231236424
0.0004232325316
0.0004233324193
0.0004234117245
0.0004234579081
0.0004230563766
0.0004231150527
0.0004231985701
0.0004233005665
0.0004234132244
0.0004235271984
0.0004236316849
0.0004237145979
0.0004237628657
0.0004233436788
0.0004234050487
0.0004234923642
0.0004235989418
0.0004237165888
0.0004238355368
0.0004239445211
0.0004240309631
0.0004240812701
0.0004236449318
0.0004237089332
0.0004237999579
0.0004239110086
0.0004240335259
0.0004241573289
0.0004242707032
0.0004243605899
0.0004244128879
0.0004239599251
0.0004240264911
0.0004241211304
0.0004242365394
0.0004243638013
0.0004244923337
0.0004246099846
0.0004247032274
0.000424757466
0.0004242884209
0.0004243574814
0.0004244556361
0.0004245752834
0.0004247071591
0.0004248402901
0.0004249620996
0.0004250586067
0.0004251147334
0.000424630158
0.0004247016405
0.0004248032081
0.0004249269699
0.0004250633241
0.0004252009193
0.0004253267661
0.0004254264431
0.0004254844041
0.0004249848554
0.0004250586854
0.0004251635609
0.0004252913104
0.0004254320053
0.0004255739273
0.0004257036879
0.0004258064385
0.0004258661786
0.0004253522145
0.0004254283165
0.0004255363933
0.000425668002
0.0004258128977
0.0004259590074
0.0004260925565
0.0004261982832
0.0004262597469
0.0004257319228
0.0004258102203
0.0004259213909
0.0004260567291
0.0004262056847
0.0004263558422
0.0004264930537
0.0004266016582
0.0004266647893
0.0004261236553
0.0004262040719
0.0004263182285
0.0004264571663
0.0004266100406
0.0004267641054
0.0004269048532
0.0004270162372
0.0004270809793
0.0004265270778
0.0004266095371
0.0004267265719
0.0004268689798
0.0004270256321
0.0004271834645
0.0004273276227
0.0004274416881
0.000427507985
0.0004269418484
0.0004270262744
0.0004271460807
0.00042729183
0.0004274521206
0.0004276135818
0.0004277610254
0.0004278776748
0.0004279454707
0.0004273676198
0.0004274539374
0.0004275764095
0.000427725373
0.0004278891638
0.0004280541165
0.0004282047222
0.0004283238591
0.0004283930987
0.0004278040412
0.0004278921766
0.0004280172102
0.0004281692626
0.0004283364175
0.0004285047266
0.0004286583725
0.000428779902
0.0004288505307
0.0004282507602
0.0004283406406
0.0004284681336
0.0004286231518
0.0004287935371
0.0004289650699
0.0004291216365
0.0004292454652
0.0004293174292
0.0004287074243
0.0004287989785
0.0004289288307
0.0004290866943
0.0004292601793
0.0004294348058
0.0004295941759
0.0004297202122
0.000429793459
0.0004291736822
0.0004292668408
0.0004293989545
0.0004295595459
0.0004297360029
0.0004299135961
0.0004300756555
0.00043020381
0.0004302782879
0.0004296491855
0.0004297438809
0.000429878161
0.0004300413657
0.0004302206703
0.0004304011068
0.000430565744
0.0004306959295
0.0004307715883
0.00043013359
0.0004302297566
0.0004303661105
0.0004305318174
0.0004307138489
0.0004308970085
0.0004310641151
0.0004311962468
0.0004312730377
0.0004306265564
0.0004307241304
0.0004308624687
0.0004310305699
0.0004312152112
0.0004314009775
0.0004315704485
0.0004317044442
0.0004317823195
0.0004311277512
0.0004312266712
0.0004313669073
0.0004315372985
0.0004317244364
0.0004319126967
0.0004320844305
0.0004322202104
0.0004322991242
0.0004316368482
0.0004317370546
0.0004318791049
0.0004320516856
0.0004322412107
0.0004324318562
0.0004326057545
0.0004327432416
0.0004328231493
0.0004321535283
0.000432254964
0.0004323987479
0.000432573421
0.0004327652279
0.0004329581537
0.0004331341217
0.0004332732416
0.0004333541001
0.0004326774807
0.0004327800907
0.0004329255306
0.0004331022029
0.0004332961901
0.0004334912952
0.0004336692415
0.0004338099225
0.0004338916904
0.0004332084031
0.0004333121344
0.000433459156
0.0004336377377
0.0004338338077
0.0004340309949
0.0004342108317
0.0004343530049
0.0004344356422
0.0004337460022
0.0004338508041
0.0004339993357
0.0004341797408
0.0004343778
0.000434576976
0.0004347586191
0.0004349022181
0.0004349856863
0.0004342899937
0.0004343958176
0.0004345457908
0.0004347279367
0.0004349278953
0.0004351289708
0.0004353123391
0.0004354573003
0.0004355415625
0.0004348401029
0.0004349469021
0.0004350982514
0.0004352820591
0.0004354838311
0.0004356867203
0.0004358717363
0.0004360179987
0.0004361030195
0.0004353960644
0.0004355037944
0.0004356564571
0.000435841851
0.0004360453542
0.000436249975
0.0004364365644
0.0004365840695
0.000436669815
0.0004359576224
0.0004360662407
0.0004362201567
0.0004364070647
0.0004366122204
0.0004368184945
0.0004370065861
0.0004371552781
0.0004372417157
0.0004365245306
0.0004366339966
0.0004367891088
0.0004369774618
0.0004371841949
0.0004373920472
0.0004375815733
0.0004377313984
0.0004378184971
0.0004370965524
0.0004372068273
0.000437363081
0.0004375528131
0.0004377610519
0.0004379704109
0.0004381613064
0.0004383122137
0.0004383999436
0.0004376734602
0.0004377845071
0.0004379418502
0.0004381328987
0.0004383425747
0.000438553372
0.0004387455751
0.0004388975157
0.0004389858485
0.0004382550358
0.0004383668194
0.0004385252024
0.0004387175073
0.0004389285554
0.0004391407259
0.0004393341774
0.0004394871047
0.0004395760132
0.0004388410701
0.0004389535569
0.0004391129325
0.0004393064368
0.0004395187947
0.0004397322762
0.0004399269199
0.0004400807895
0.0004401702478
0.0004394313628
0.0004395445209
0.000439704844
0.0004398994934
0.0004401131019
0.0004403278353
0.0004405236174
0.0004406783868
0.0004407683702
0.0004400257223
0.0004401395212
0.0004403007489
0.0004404964917
0.0004407112944
0.0004409272234
0.0004411240927
0.0004412797215
0.0004413702066
0.0004406239651
0.000440738376
0.0004409004676
0.0004410972546
0.0004413131977
0.0004415302686
0.0004417281764
0.0004418846262
0.0004419755904
0.0004412259163
0.0004413409116
0.0004415038283
0.0004417016125
0.0004419186452
0.0004421368069
0.0004423357067
0.0004424929409
0.0004425843628
0.0004418314085
0.000441946962
0.0004421106669
0.0004423094039
0.0004425274774
0.0004427466813
0.000442946529
0.0004431045127
0.000443196372
0.000442440282
0.000442556369
0.000442720827
0.0004429204744
0.0004431395424
0.0004433597423
0.0004435604959
0.0004437191958
0.0004438114732
0.0004430523847
0.0004431689814
0.0004433341591
0.0004435346766
0.0004437546953
0.0004439758471
0.0004441774666
0.0004443368511
0.0004444295281
0.0004436675711
0.0004437846551
0.0004439505208
0.0004441518701
0.0004443727976
0.0004445948595
0.0004447973069
0.0004449573459
0.0004450504049
0.0004442857029
0.0004444032528
0.0004445697764
0.0004447719211
0.0004449937176
0.0004452166498
0.0004454198888
0.0004455805538
0.0004456739781
0.0004449066481
0.0004450246436
0.0004451917964
0.0004453947018
0.0004456173295
0.0004458410942
0.0004460450904
0.0004462063541
0.0004463001279
0.000445530281
0.0004456487028
0.0004458164575
0.0004460200908
0.0004462435137
0.0004464680748
0.0004466727956
0.0004468346321
0.0004469287401
0.0004461564819
0.0004462753116
0.0004464436423
0.0004466479721
0.0004468721561
0.0004470974794
0.0004473028935
0.0004474652782
0.0004475597061
0.0004467851367
0.0004469043569
0.000447073239
0.0004472782355
0.0004475031481
0.0004477292011
0.0004479352789
0.0004480981882
0.0004481929223
0.0004474161369
0.000447535731
0.0004477051411
0.000447910776
0.0004481363862
0.0004483631378
0.0004485698512
0.0004487332629
0.0004488282901
0.0004480493791
0.0004481693313
0.0004483392472
0.0004485454936
0.0004487717719
0.0004489991928
0.0004492065148
0.0004493704078
0.0004494657157
0.000448684765
0.0004488050603
0.0004489754607
0.0004491822929
0.0004494092115
0.0004496372735
0.0004498451787
0.0004500095326
0.0004501051095
0.0004493222009
0.000449442825
0.0004496136897
0.0004498210835
0.0004500486156
0.0004502772921
0.0004504857562
0.0004506505519
0.0004507463864
0.0004499615975
0.0004500825369
0.0004502538468
0.0004504617788
0.0004506898992
0.0004509191648
0.0004511281646
0.0004512933838
0.0004513894653
0.0004506028701
0.0004507241118
0.0004508958486
0.0004511042969
0.0004513329813
0.0004515628118
0.0004517723254
0.0004519379505
0.0004520342688
0.0004512459379
0.0004513674695
0.0004515396159
0.0004517485593
0.0004519777848
0.0004522081571
0.0004524181635
0.000452584178
0.0004526807234
0.0004518907238
0.0004520125337
0.000452185073
0.0004523944916
0.0004526242362
0.0004528551284
0.0004530656075
0.0004532319956
0.0004533287588
0.0004525371545
0.0004526592315
0.0004528321479
0.0004530420226
0.0004532722655
0.0004535036567
0.0004537145895
0.000453881336
0.0004539783082
0.0004531851603
0.0004533074937
0.0004534807722
0.0004536910847
0.000453921806
0.0004541536761
0.0004543650443
0.000454532135
0.0004546293077
0.0004538346744
0.000453957254
0.0004541308803
0.0004543416132
0.0004545727938
0.0004548051238
0.0004550169102
0.0004551843311
0.0004552816964
0.0004544856335
0.0004546084496
0.0004547824098
0.0004549935465
0.0004552251684
0.00045545794
0.0004556701279
0.0004558378659
0.000455935416
0.0004551379767
0.0004552610201
0.0004554353012
0.0004556468258
0.0004558788714
0.0004561120673
0.0004563246408
0.0004564926833
0.0004565904108
0.0004557916463
0.000455914908
0.0004560894973
0.0004563013946
0.0004565338473
0.0004567674507
0.0004569803945
0.0004571487295
0.0004572466274
0.0004564465867
0.0004565700582
0.0004567449437
0.000456957199
0.0004571900428
0.0004574240376
0.0004576373372
0.000457805953
0.0004579040144
0.0004571027449
0.0004572264179
0.0004574015879
0.0004576141872
0.0004578474066
0.0004580817774
0.0004582954185
0.0004584643039
0.0004585625223
0.0004577600695
0.0004578839361
0.0004580593796
0.0004582723092
0.0004585058893
0.000458740621
0.0004589545899
0.0004591237341
0.0004592221031
0.0004584185114
0.0004585425639
0.0004587182698
0.0004589315165
0.0004591654429
0.0004594005209
0.0004596148043
0.0004597841966
0.0004598827101
0.0004590780227
0.0004592022536
0.0004593782113
0.0004595917622
0.0004598260206
0.0004600614306
0.0004602760155
0.0004604456455
0.0004605442973
0.0004597385567
0.0004598629586
0.0004600391576
0.000460253
0.0004604875764
0.0004607233042
0.0004609381776
0.000461108035
0.000461206819
0.0004604000675
0.000460524633
0.0004607010629
0.000460915184
0.0004611500644
0.000461386096
0.0004616012448
0.0004617713192
0.0004618702293
0.0004610625092
0.0004611872311
0.0004613638813
0.0004615782684
0.0004618134386
0.0004620497594
0.0004622651704
0.0004624354511
0.0004625344812
0.0004617258358
0.0004618507063
0.0004620275661
0.0004622422059
0.0004624776513
0.0004627142466
0.0004629299059
0.0004631003819
0.0004631995253
0.0004623899996
0.0004625150109
0.000462692069
0.0004629069477
0.0004631426529
0.0004633795068
0.0004635953998
0.0004637660594
0.0004638653091
0.0004630549508
0.0004631800945
0.0004633573388
0.0004635724415
0.0004638083898
0.0004640454853
0.0004642615961
0.0004644324263
0.0004645317746
0.0004637206356
0.0004638459026
0.0004640233199
0.0004642386302
0.0004644748032
0.0004647121212
0.0004649284321
0.0004650994184
0.0004651988569
0.000464386995
0.0004645123747
0.0004646899502
0.0004649054496
0.0004651418264
0.0004653793455
0.000465595836
0.000465766962
0.0004658664806
0.0004650539619
0.0004651794425
0.0004653571588
0.0004655728259
0.0004658093824
0.0004660470773
0.0004662637237
0.0004664349698
0.0004665345568
0.0004657214585
0.0004658470261
0.000466024863
0.0004662406725
0.0004664773799
0.0004667152205
0.0004669319943
0.0004671033372
0.0004672029787
0.000466389393
0.0004665150307
0.0004666929639
0.0004669088852
0.0004671457088
0.0004673836588
0.0004676005255
0.0004677719367
0.0004678716156
0.0004670576543
0.0004671833417
0.0004673613416
0.0004675773376
0.0004678142347
0.0004680522496
0.0004682691667
0.0004684406113
0.0004685403065
0.0004677261075
0.0004678518194
0.0004680298493
0.000468245874
0.0004684827923
0.0004687208167
0.0004689377318
0.0004691091664
0.0004692088518
0.000468394586
0.0004685202913
0.0004686983059
0.0004689143022
0.0004691511763
0.0004693891419
0.0004696059894
0.0004697773601
0.0004698770031
0.0004690628843
0.0004691885442
0.000469366487
0.0004695823839
0.0004698191327
0.0004700569538
0.0004702736523
0.000470444892
0.0004705444521
0.0004697307478
0.000469856314
0.0004700341148
0.0004702498239
0.0004704863462
0.0004707239168
0.0004709403649
0.0004711113899
0.0004712108168
0.000470397862
0.0004705232746
0.000470700846
0.0004709162576
0.0004711524281
0.0004713896163
0.0004716056885
0.0004717763955
0.0004718756269
0.0004710638396
0.0004711890244
0.0004713662587
0.0004715812373
0.000471816901
0.0004720535444
0.0004722690859
0.0004724393476
0.0004725383069
0.0004717282069
0.0004718530726
0.0004720298372
0.0004722442163
0.0004724791834
0.0004727150828
0.0004729299044
0.0004730995651
0.0004731981589
0.0004723903877
0.000472514823
0.0004726909562
0.000472904533
0.0004731385724
0.0004733734859
0.0004735873579
0.0004737562291
0.0004738543442
0.0004730496881
0.0004731735583
0.0004733488645
0.0004735613941
0.0004737942271
0.0004740278634
0.0004742405098
0.0004744083654
0.0004745058661
0.0004737052799
0.0004738284234
0.0004740026684
0.000474213858
0.0004744451519
0.0004746771641
0.0004748882566
0.0004750548279
0.0004751515539
0.0004743561849
0.00047447841
0.0004746513165
0.0004748608197
0.0004750901818
0.000475320161
0.0004755293138
0.0004756942861
0.0004757900492
0.0004750012609
0.000475122343
0.0004752935864
0.0004755009985
0.0004757279707
0.0004759554414
0.0004761622066
0.0004763252152
0.0004764197981
0.0004756391909
0.0004757588701
0.000475928075
0.0004761329291
0.0004763569846
0.0004765814008
0.0004767852655
0.0004769458939
0.000477039049
0.000476268476
0.0004763864554
0.0004765531942
0.0004767549592
0.0004769755
0.000477196244
0.0004773966299
0.0004775544094
0.000477645859
0.0004768874351
0.0004770033808
0.0004771671729
0.000477365254
0.0004775816121
0.0004777979961
0.000477994261
0.0004781486732
0.0004782381105
0.0004774942112
0.0004776077534
0.0004777680681
0.0004779618095
0.0004781732513
0.0004783845223
0.000478575966
0.0004787264473
0.0004788135401
0.0004780867877
0.0004781975241
0.0004783537851
0.0004785424775
0.0004787482117
0.0004789535612
0.0004791394346
0.0004792853848
0.0004793697804
0.0004786630145
0.0004787705158
0.0004789221098
0.0004791050005
0.0004793041916
0.0004795027694
0.0004796822887
0.0004798230823
0.0004799044148
0.0004792206458
0.0004793244637
0.000479470752
0.0004796470606
0.000479838846
0.0004800297793
0.0004802021443
0.0004803371465
0.0004804150461
0.0004797573895
0.0004798570669
0.000479997401
0.0004801663385
0.0004803498514
0.0004805322687
0.0004806966859
0.000480825271
0.0004808993755
0.000480270967