/*--------------------------------*- C++ -*----------------------------------*\
| =========                 |                                                 |
| \\      /  F ield         | OpenFOAM: The Open Source CFD Toolbox           |
|  \\    /   O peration     | Version:  2212                                  |
|   \\  /    A nd           | Website:  www.openfoam.com                      |
|    \\/     M anipulation  |                                                 |
\*---------------------------------------------------------------------------*/
FoamFile
{
    version     2.0;
    format      ascii;
    arch        "LSB;label=32;scalar=64";
    class       volScalarField;
    location    "23.25000000";
    object      CO;
}
// * * * * * * * * * * * * * * * * * * * * * * * * * * * * * * * * * * * * * //

dimensions      [0 0 0 0 0 0 0];

internalField   nonuniform List<scalar> 
3000
(
5.011328387e-24
5.629615682e-24
6.562597328e-24
7.805852916e-24
9.346698613e-24
1.114322698e-23
1.308715504e-23
1.494184441e-23
1.62535828e-23
1.881468352e-23
2.122133297e-23
2.485137544e-23
2.969946452e-23
3.57606417e-23
4.300077457e-23
5.129417866e-23
6.021920737e-23
6.812878679e-23
4.214200946e-23
4.790508465e-23
5.668084336e-23
6.85963784e-23
8.3866044e-23
1.027106544e-22
1.250572823e-22
1.49648252e-22
1.706762825e-22
8.026904587e-23
9.22020872e-23
1.106395122e-22
1.362051373e-22
1.698046954e-22
2.122912154e-22
2.634343977e-22
3.19133092e-22
3.640995248e-22
1.425336761e-22
1.657318603e-22
2.021391145e-22
2.536046392e-22
3.225494491e-22
4.109049993e-22
5.171986443e-22
6.300733153e-22
7.167260215e-22
2.450953616e-22
2.886350313e-22
3.579457327e-22
4.574499269e-22
5.924554821e-22
7.663566395e-22
9.739625546e-22
1.189086295e-21
1.348244672e-21
4.160782882e-22
4.960544055e-22
6.248521082e-22
8.118454759e-22
1.06744717e-21
1.396735047e-21
1.786091663e-21
2.181678075e-21
2.467115971e-21
7.041357152e-22
8.48871157e-22
1.084034589e-21
1.428097399e-21
1.900248735e-21
2.507281415e-21
3.218740716e-21
3.931064169e-21
4.436472221e-21
1.19356098e-21
1.452725918e-21
1.876537638e-21
2.49975248e-21
3.356503057e-21
4.455016327e-21
5.733231676e-21
6.999683077e-21
7.888329411e-21
2.030316098e-21
2.490730601e-21
3.247095104e-21
4.362930372e-21
5.897845929e-21
7.860734364e-21
1.013206394e-20
1.236597977e-20
1.392182128e-20
3.467304687e-21
4.280437624e-21
5.620496895e-21
7.601449255e-21
1.032650012e-20
1.380356067e-20
1.78103854e-20
2.173097531e-20
2.444779381e-20
5.942830645e-21
7.372552675e-21
9.733941305e-21
1.322911462e-20
1.803618996e-20
2.415886432e-20
3.119306592e-20
3.805101993e-20
4.278680946e-20
1.021679032e-20
1.272236177e-20
1.686694374e-20
2.300637992e-20
3.144791056e-20
4.218488912e-20
5.449324643e-20
6.646251297e-20
7.470782599e-20
1.760698834e-20
2.19872085e-20
2.924036145e-20
3.999004227e-20
5.476654257e-20
7.354150029e-20
9.502974744e-20
1.158876152e-19
1.302309777e-19
3.039928772e-20
3.804289139e-20
5.070915491e-20
6.948761749e-20
9.529439194e-20
1.280585861e-19
1.655136687e-19
2.018213241e-19
2.267573869e-19
5.255945201e-20
6.587997447e-20
8.796490342e-20
1.207140361e-19
1.657113389e-19
2.228056175e-19
2.880170274e-19
3.511682785e-19
3.945018231e-19
9.096854933e-20
1.141594519e-19
1.526229711e-19
2.096669344e-19
2.880315585e-19
3.874169677e-19
5.008558212e-19
6.106286451e-19
6.859017402e-19
1.575668508e-19
1.979125439e-19
2.64844701e-19
3.641162181e-19
5.00468586e-19
6.733292569e-19
8.705255011e-19
1.061232966e-18
1.191929389e-18
2.73073615e-19
3.432251554e-19
4.596221225e-19
6.322600829e-19
8.693422754e-19
1.169798185e-18
1.512390169e-18
1.84353474e-18
2.070362897e-18
4.734392659e-19
5.953634853e-19
7.97678595e-19
1.097735638e-18
1.509719413e-18
2.031648586e-18
2.626505511e-18
3.201200897e-18
3.594671287e-18
8.210312814e-19
1.032860479e-18
1.384362957e-18
1.905628952e-18
2.62116421e-18
3.527313456e-18
4.559588722e-18
5.556365248e-18
6.238483649e-18
1.424013041e-18
1.791916456e-18
2.402368388e-18
3.307494759e-18
4.549576499e-18
6.121866613e-18
7.912050841e-18
9.639673588e-18
1.08212749e-17
2.469895542e-18
3.108642681e-18
4.168363217e-18
5.739238688e-18
7.894080083e-18
1.062036975e-17
1.372253081e-17
1.671423839e-17
1.87590604e-17
4.283551372e-18
5.392086472e-18
7.230838389e-18
9.955578998e-18
1.369137433e-17
1.841481576e-17
2.378534751e-17
2.89603561e-17
3.249460221e-17
7.427381444e-18
9.350271995e-18
1.253888163e-17
1.726174733e-17
2.373298975e-17
3.19084317e-17
4.119501411e-17
5.013427837e-17
5.623316508e-17
1.287396256e-17
1.620734443e-17
2.173270574e-17
2.991185152e-17
4.110984566e-17
5.524249711e-17
7.127692055e-17
8.669188431e-17
9.719568951e-17
2.230297283e-17
2.80767726e-17
3.764242224e-17
5.17917001e-17
7.114377735e-17
9.553669661e-17
1.231714897e-16
1.496966073e-16
1.677428685e-16
3.861055601e-17
4.860098876e-17
6.514168439e-17
8.958515316e-17
1.229747627e-16
1.649964369e-16
2.125172966e-16
2.580416163e-16
2.88955136e-16
6.678050374e-17
8.404407513e-17
1.126033042e-16
1.547581444e-16
2.122528137e-16
2.844745606e-16
3.659696327e-16
4.438581063e-16
4.966276359e-16
1.15369173e-16
1.451513353e-16
1.943708249e-16
2.669174985e-16
3.656789229e-16
4.894554673e-16
6.287606612e-16
7.615297842e-16
8.512367141e-16
1.990267113e-16
2.50300377e-16
3.349348346e-16
4.594662353e-16
6.286186282e-16
8.400418009e-16
1.077256627e-15
1.302602219e-15
1.454376835e-15
3.427593379e-16
4.308149828e-16
5.759515269e-16
7.890673938e-16
1.077780627e-15
1.43749693e-15
1.839648227e-15
2.220234396e-15
2.475634418e-15
5.891006543e-16
7.398784798e-16
9.879668641e-16
1.351374318e-15
1.842172427e-15
2.451424394e-15
3.129747078e-15
3.768938123e-15
4.196121734e-15
1.010114636e-15
1.267397683e-15
1.689872382e-15
2.306984489e-15
3.137456581e-15
4.164034948e-15
5.301682985e-15
6.368551186e-15
7.078321612e-15
1.727372456e-15
2.164633647e-15
2.880962036e-15
3.923923221e-15
5.32179156e-15
7.04158131e-15
8.937578753e-15
1.070621333e-14
1.18770402e-14
2.944998956e-15
3.68474085e-15
4.893351323e-15
6.646603268e-15
8.985772169e-15
1.184853454e-14
1.498670322e-14
1.789730451e-14
1.981391206e-14
5.003985778e-15
6.24901071e-15
8.2770082e-15
1.120678224e-14
1.509594022e-14
1.982830044e-14
2.498414042e-14
2.973692051e-14
3.284915993e-14
8.470843598e-15
1.055429941e-14
1.393653723e-14
1.88004891e-14
2.522159979e-14
3.298646378e-14
4.139104274e-14
4.908900232e-14
5.410075433e-14
1.428125312e-14
1.774587005e-14
2.334933029e-14
3.136756338e-14
4.188988834e-14
5.453045547e-14
6.811901282e-14
8.048282609e-14
8.848497185e-14
2.397105793e-14
2.969320864e-14
3.891044757e-14
5.202927543e-14
6.913642102e-14
8.954564526e-14
1.113308459e-13
1.310191975e-13
1.436867559e-13
4.00447399e-14
4.942646865e-14
6.447305379e-14
8.576721757e-14
1.133514518e-13
1.46025679e-13
1.806526578e-13
2.11735603e-13
2.316176611e-13
6.655833471e-14
8.182119022e-14
1.061878657e-13
1.404671615e-13
1.845687748e-13
2.364293487e-13
2.909938111e-13
3.396466816e-13
3.705897148e-13
1.100337209e-13
1.346632666e-13
1.737957621e-13
2.285103503e-13
2.984127108e-13
3.800143591e-13
4.652587155e-13
5.40772001e-13
5.885339304e-13
1.808801989e-13
2.202910598e-13
2.826013586e-13
3.691794506e-13
4.790161752e-13
6.063097662e-13
7.383592803e-13
8.545988352e-13
9.277345548e-13
2.955854844e-13
3.581058963e-13
4.564616327e-13
5.922679469e-13
7.633621639e-13
9.602472127e-13
1.163113494e-12
1.340619578e-12
1.451751245e-12
4.800631879e-13
5.783782441e-13
7.322761697e-13
9.434552623e-13
1.207699e-12
1.509695286e-12
1.818865108e-12
2.087853906e-12
2.255484576e-12
7.747236834e-13
9.279719682e-13
1.166683253e-12
1.492256458e-12
1.896959956e-12
2.356457667e-12
2.824010608e-12
3.228645906e-12
3.479737759e-12
1.242092684e-12
1.478887543e-12
1.845975587e-12
2.343704674e-12
2.958513482e-12
3.652240852e-12
4.354112651e-12
4.958559906e-12
5.332183579e-12
1.97816881e-12
2.340921218e-12
2.900688333e-12
3.655417674e-12
4.582126278e-12
5.621720287e-12
6.667967271e-12
7.564940117e-12
8.117424939e-12
3.129233166e-12
3.680299932e-12
4.526934501e-12
5.662396439e-12
7.048802972e-12
8.595706139e-12
1.014495437e-11
1.146773781e-11
1.227991855e-11
4.916562906e-12
5.746950735e-12
7.017447567e-12
8.712889348e-12
1.07722614e-11
1.305862001e-11
1.533833287e-11
1.727764913e-11
1.846504486e-11
7.672539721e-12
8.914145037e-12
1.080637998e-11
1.331982802e-11
1.635818548e-11
1.971618062e-11
2.305108259e-11
2.587872688e-11
2.760575237e-11
1.189246394e-11
1.373520187e-11
1.653342591e-11
2.023447848e-11
2.468891174e-11
2.959177422e-11
3.444348367e-11
3.854522904e-11
4.104500708e-11
1.830990577e-11
2.102573275e-11
2.513611014e-11
3.05515659e-11
3.704352672e-11
4.416260452e-11
5.118482507e-11
5.710625621e-11
6.070823436e-11
2.800457901e-11
3.198096219e-11
3.798108287e-11
4.585845782e-11
5.526788768e-11
6.55519789e-11
7.566718402e-11
8.417738517e-11
8.934570331e-11
4.255632168e-11
4.834278151e-11
5.705047458e-11
6.844622408e-11
8.201445273e-11
9.679987669e-11
1.113056785e-10
1.234855757e-10
1.308722983e-10
6.426390676e-11
7.263660129e-11
8.520537947e-11
1.016072e-10
1.210795291e-10
1.422426033e-10
1.629590885e-10
1.803238303e-10
1.9084272e-10
9.645461395e-11
1.085057865e-10
1.265569889e-10
1.500530846e-10
1.778760729e-10
2.080440689e-10
2.375176698e-10
2.621860354e-10
2.771147316e-10
1.439202938e-10
1.611819377e-10
1.869873837e-10
2.205003964e-10
2.600945059e-10
3.029372456e-10
3.447226796e-10
3.796515436e-10
4.007731511e-10
2.135288433e-10
2.381433821e-10
2.748774603e-10
3.224873509e-10
3.786233758e-10
4.392560665e-10
4.98306213e-10
5.476152405e-10
5.774148112e-10
3.150775343e-10
3.500329816e-10
4.021200283e-10
4.695091767e-10
5.488275269e-10
6.343671091e-10
7.175723814e-10
7.869943007e-10
8.289321591e-10
4.624775628e-10
5.119308733e-10
5.855230248e-10
6.805889562e-10
7.923153649e-10
9.126487073e-10
1.029583763e-09
1.127089965e-09
1.185983244e-09
6.753886135e-10
7.451092093e-10
8.487422816e-10
9.824396161e-10
1.139370328e-09
1.308214409e-09
1.472172432e-09
1.608843725e-09
1.691400731e-09
9.814591474e-10
1.079435329e-09
1.224926383e-09
1.412420763e-09
1.632275872e-09
1.868638958e-09
2.098063615e-09
2.289302958e-09
2.404872878e-09
1.419373176e-09
1.556637684e-09
1.7603083e-09
2.022551867e-09
2.329828017e-09
2.660017583e-09
2.980480814e-09
3.247699084e-09
3.409322111e-09
2.042957508e-09
2.234705025e-09
2.519039099e-09
2.884909643e-09
3.313402613e-09
3.773769849e-09
4.2206887e-09
4.593634448e-09
4.819503068e-09
2.926663827e-09
3.193752351e-09
3.589625775e-09
4.098808779e-09
4.695020644e-09
5.335679772e-09
5.958013521e-09
6.477958475e-09
6.793425632e-09
4.17280493e-09
4.543753576e-09
5.093403417e-09
5.80023466e-09
6.627924369e-09
7.517731128e-09
8.3829427e-09
9.106967899e-09
9.547255754e-09
5.920989123e-09
6.434604588e-09
7.195533403e-09
8.174053477e-09
9.320225444e-09
1.055333203e-08
1.175392261e-08
1.276056338e-08
1.337432898e-08
8.360252993e-09
9.069031722e-09
1.011906184e-08
1.146955365e-08
1.305219395e-08
1.475650265e-08
1.641841973e-08
1.781490713e-08
1.86687998e-08
1.174442822e-08
1.271888544e-08
1.416257962e-08
1.601985334e-08
1.819770234e-08
2.054550035e-08
2.283866099e-08
2.476992997e-08
2.595422262e-08
1.641127553e-08
1.774533881e-08
1.972197687e-08
2.226562048e-08
2.52501988e-08
2.84711572e-08
3.162220766e-08
3.428172064e-08
3.591701081e-08
2.280585731e-08
2.462342348e-08
2.731665919e-08
3.078337457e-08
3.485334465e-08
3.924989645e-08
4.355714267e-08
4.719940248e-08
4.944426278e-08
3.150847668e-08
3.397116137e-08
3.762037223e-08
4.231836017e-08
4.783610493e-08
5.380098245e-08
5.965118156e-08
6.460559228e-08
6.76649143e-08
4.326726626e-08
4.658327205e-08
5.149645625e-08
5.782160107e-08
6.525164255e-08
7.328706901e-08
8.117349131e-08
8.785899273e-08
9.199263025e-08
5.903515478e-08
6.346905114e-08
7.003692792e-08
7.8490278e-08
8.841886459e-08
9.915658764e-08
1.096974752e-07
1.186371567e-07
1.241683529e-07
8.001048204e-08
8.589353832e-08
9.460428835e-08
1.058100585e-07
1.189649534e-07
1.331860193e-07
1.471423211e-07
1.589770475e-07
1.663000463e-07
1.076800024e-07
1.154205604e-07
1.268744279e-07
1.415974986e-07
1.588667458e-07
1.77519686e-07
1.9581078e-07
2.113107649e-07
2.208969734e-07
1.438624636e-07
1.539557017e-07
1.688785017e-07
1.880401968e-07
2.104884671e-07
2.347044425e-07
2.584204951e-07
2.784937572e-07
2.908958544e-07
1.907504435e-07
2.037867908e-07
2.230412517e-07
2.477320782e-07
2.766131393e-07
3.077165931e-07
3.381262729e-07
3.638230149e-07
3.796764911e-07
2.5094774e-07
2.67619167e-07
2.922130225e-07
3.237010715e-07
3.604650079e-07
3.999785235e-07
4.385309849e-07
4.710431381e-07
4.910648888e-07
3.274994197e-07
3.486028737e-07
3.796926987e-07
4.194265616e-07
4.657205866e-07
5.153629297e-07
5.636832891e-07
6.043387482e-07
6.293225295e-07
4.239116759e-07
4.503490461e-07
4.89239027e-07
5.388443435e-07
5.965063929e-07
6.581831074e-07
7.180610314e-07
7.683124347e-07
7.991211849e-07
5.441589591e-07
5.7693314e-07
6.25068247e-07
6.863373765e-07
7.573821055e-07
8.33168496e-07
9.065399534e-07
9.67948215e-07
1.005503447e-06
6.926764007e-07
7.3288326e-07
7.918366346e-07
8.667113686e-07
9.533086566e-07
1.045425476e-06
1.134348145e-06
1.208561271e-06
1.25382992e-06
8.74336323e-07
9.231526394e-07
9.946073814e-07
1.085155065e-06
1.189601612e-06
1.300384238e-06
1.407007449e-06
1.49573546e-06
1.549714721e-06
1.094408525e-06
1.153076226e-06
1.238802127e-06
1.347185976e-06
1.471871015e-06
1.603733288e-06
1.730263714e-06
1.835250702e-06
1.898951486e-06
1.358504992e-06
1.428312261e-06
1.530138348e-06
1.658583116e-06
1.805949601e-06
1.961343813e-06
2.110008317e-06
2.233002807e-06
2.307432511e-06
1.67251059e-06
1.754770592e-06
1.874554607e-06
2.025309007e-06
2.197811899e-06
2.379186593e-06
2.552193777e-06
2.694918598e-06
2.781063875e-06
2.042502108e-06
2.138530236e-06
2.278126311e-06
2.453423766e-06
2.653487146e-06
2.863244449e-06
3.062746457e-06
3.226869315e-06
3.325679543e-06
2.474658617e-06
2.585749194e-06
2.746975081e-06
2.948994415e-06
3.178969151e-06
3.419423352e-06
3.64747941e-06
3.834585315e-06
3.946957552e-06
2.975166518e-06
3.102569901e-06
3.287175035e-06
3.518002621e-06
3.780126186e-06
4.053465057e-06
4.312008059e-06
4.523574392e-06
4.650337265e-06
3.550122796e-06
3.695023735e-06
3.904659307e-06
4.166253974e-06
4.462613677e-06
4.770863529e-06
5.061669966e-06
5.299041921e-06
5.440947468e-06
4.205439956e-06
4.368937967e-06
4.605130014e-06
4.899291865e-06
5.231792688e-06
5.576788212e-06
5.901450686e-06
6.165827693e-06
6.323540092e-06
4.94675586e-06
5.129848221e-06
5.393974592e-06
5.722318491e-06
6.092656146e-06
6.476013453e-06
6.835925496e-06
7.128345247e-06
7.302433932e-06
5.779351226e-06
5.982918965e-06
6.276190929e-06
6.640124702e-06
7.049762026e-06
7.472865248e-06
7.869204582e-06
8.190533559e-06
8.381468568e-06
6.708076811e-06
6.932872772e-06
7.256316751e-06
7.657026622e-06
8.107185093e-06
8.571171769e-06
9.004891473e-06
9.355819466e-06
9.56396906e-06
7.737285351e-06
7.983928936e-06
8.33838436e-06
8.776826024e-06
9.268473518e-06
9.774228063e-06
1.024605262e-05
1.062709106e-05
1.085272145e-05
8.870794019e-06
9.139766455e-06
9.525877089e-06
1.000277079e-05
1.053661909e-05
1.108477186e-05
1.159519799e-05
1.200668178e-05
1.224995877e-05
1.011184349e-05
1.040348685e-05
1.082170074e-05
1.133753195e-05
1.191403918e-05
1.250497052e-05
1.305427221e-05
1.349636469e-05
1.375735698e-05
1.146307521e-05
1.177759437e-05
1.222816738e-05
1.278319205e-05
1.340256974e-05
1.403641833e-05
1.462465555e-05
1.509735608e-05
1.537604e-05
1.292652097e-05
1.32639881e-05
1.374699078e-05
1.434124449e-05
1.500346855e-05
1.568014339e-05
1.630717379e-05
1.681032744e-05
1.710659273e-05
1.450360397e-05
1.486396504e-05
1.537929233e-05
1.601260262e-05
1.671742756e-05
1.743662292e-05
1.810211584e-05
1.863542472e-05
1.894908119e-05
1.619515014e-05
1.657823322e-05
1.712561638e-05
1.779761758e-05
1.854459321e-05
1.930580566e-05
2.00092579e-05
2.057229365e-05
2.090307841e-05
1.800140861e-05
1.840693335e-05
1.898595357e-05
1.969610352e-05
2.048459334e-05
2.128714034e-05
2.202789304e-05
2.262011012e-05
2.29676952e-05
1.992207969e-05
2.034966774e-05
2.095977084e-05
2.170736874e-05
2.253656946e-05
2.337960886e-05
2.415686507e-05
2.477761434e-05
2.514161442e-05
2.195634889e-05
2.240553478e-05
2.304604661e-05
2.383025148e-05
2.469921315e-05
2.5581763e-05
2.639460538e-05
2.704314781e-05
2.742312796e-05
2.410292562e-05
2.457316784e-05
2.524330985e-05
2.606315925e-05
2.69708053e-05
2.789176362e-05
2.873917195e-05
2.9414692e-05
2.981017523e-05
2.636008508e-05
2.685077716e-05
2.754968186e-05
2.840411025e-05
2.934925724e-05
3.030742124e-05
3.118828942e-05
3.188990802e-05
3.230038256e-05
2.872571236e-05
2.923619363e-05
2.996291954e-05
3.08507761e-05
3.183215266e-05
3.282623721e-05
3.373938941e-05
3.446617628e-05
3.489110245e-05
3.119734735e-05
3.17269132e-05
3.24804592e-05
3.340052474e-05
3.441678954e-05
3.544544457e-05
3.638965051e-05
3.714063566e-05
3.757945232e-05
3.377222969e-05
3.432014128e-05
3.509946002e-05
3.60504628e-05
3.710022137e-05
3.816204801e-05
3.913603704e-05
3.991022151e-05
4.036235199e-05
3.644734284e-05
3.701283606e-05
3.78168464e-05
3.87974768e-05
3.987929692e-05
4.097286242e-05
4.19753365e-05
4.277170205e-05
4.32365596e-05
3.921945667e-05
3.980175039e-05
4.062934876e-05
4.163827257e-05
4.275069836e-05
4.387454954e-05
4.49041949e-05
4.572171283e-05
4.619870549e-05
4.208516801e-05
4.268347146e-05
4.353354211e-05
4.456941254e-05
4.571097705e-05
4.686365239e-05
4.791914999e-05
4.875678903e-05
4.924532399e-05
4.504093873e-05
4.565445815e-05
4.652588225e-05
4.758735062e-05
4.8756587e-05
4.99366273e-05
5.101666207e-05
5.187339528e-05
5.237288274e-05
4.808313119e-05
4.871107563e-05
4.960273928e-05
5.068846434e-05
5.188391563e-05
5.308987335e-05
5.419314228e-05
5.506795308e-05
5.557780958e-05
5.120804072e-05
5.18496271e-05
5.276042829e-05
5.38690843e-05
5.50893119e-05
5.631975921e-05
5.74449782e-05
5.833686558e-05
5.885651689e-05
5.441192517e-05
5.506638262e-05
5.599523713e-05
5.712552079e-05
5.836911161e-05
5.962264721e-05
6.076855703e-05
6.167653993e-05
6.220542346e-05
5.769103146e-05
5.835760493e-05
5.930345136e-05
6.045408757e-05
6.171966009e-05
6.299491492e-05
6.416028606e-05
6.508340704e-05
6.562097389e-05
6.104161919e-05
6.171957246e-05
6.268137631e-05
6.385112296e-05
6.513733216e-05
6.64329741e-05
6.761661077e-05
6.855393899e-05
6.90996556e-05
6.445998133e-05
6.514859947e-05
6.612535648e-05
6.731300828e-05
6.861854961e-05
6.99332872e-05
7.113403058e-05
7.208466416e-05
7.263801362e-05
6.794246227e-05
6.864105354e-05
6.96317923e-05
7.083618378e-05
7.215979627e-05
7.34923816e-05
7.470911226e-05
7.567218016e-05
7.623266321e-05
7.148547324e-05
7.219337054e-05
7.319715445e-05
7.441716222e-05
7.575763078e-05
7.710686166e-05
7.833850139e-05
7.931316471e-05
7.988030052e-05
7.508550533e-05
7.580206726e-05
7.681799594e-05
7.805254028e-05
7.940869729e-05
8.077341876e-05
8.201893183e-05
8.300438475e-05
8.357771141e-05
7.873914032e-05
7.946375183e-05
8.049096204e-05
8.173900791e-05
8.310973429e-05
8.448883949e-05
8.57472334e-05
8.674270373e-05
8.732177852e-05
8.244305942e-05
8.317513221e-05
8.421279831e-05
8.547335591e-05
8.685758156e-05
8.82500122e-05
8.952033799e-05
9.052508737e-05
9.110948691e-05
8.619405026e-05
8.693302288e-05
8.798035697e-05
8.925248178e-05
9.064918564e-05
9.205393196e-05
9.33352842e-05
9.434860804e-05
9.493792823e-05
8.998901211e-05
9.073434983e-05
9.179060155e-05
9.307339411e-05
9.448160385e-05
9.589770425e-05
9.718922062e-05
9.821044783e-05
9.880430371e-05
9.382495975e-05
9.457615427e-05
9.564061033e-05
9.693321562e-05
9.835200698e-05
9.977854736e-05
0.0001010794081
0.0001021079005
0.000102705926
9.769902591e-05
9.845559486e-05
9.952757841e-05
0.0001008291851
0.0001022576809
0.0001036937938
0.0001050032207
0.0001060383727
0.00010664022
0.0001016084627
0.0001023699491
0.0001034488188
0.0001047586581
0.0001061960273
0.0001076408905
0.0001089581463
0.0001099993835
0.0001106047231
0.0001055506418
0.0001063166132
0.0001074017625
0.0001087191071
0.0001101645634
0.0001116173991
0.0001129417856
0.0001139885646
0.0001145970844
0.0001095230541
0.0001102931023
0.0001113839578
0.0001127081206
0.0001141609208
0.0001156209938
0.0001169518516
0.0001180036584
0.0001186150631
0.0001135233086
0.0001142970481
0.0001153930691
0.0001167234015
0.0001181828444
0.0001196494608
0.000120986167
0.0001220425164
0.0001226565274
0.0001175491303
0.0001183261978
0.0001194268745
0.0001207627654
0.00012222819
0.0001237006956
0.0001250426629
0.0001261030973
0.0001267194515
0.0001215983579
0.0001223784115
0.000123483264
0.0001248241378
0.0001262949216
0.0001277727003
0.0001291193756
0.0001301834637
0.0001308019133
0.0001256689411
0.0001264516594
0.0001275602363
0.0001289055517
0.0001303811091
0.0001318635812
0.0001332144439
0.0001342817799
0.0001349020915
0.0001297589375
0.0001305440183
0.0001316558955
0.0001330051439
0.0001344849247
0.0001359715452
0.000137326106
0.0001383963083
0.0001390182623
0.0001338665091
0.0001346536688
0.0001357684483
0.0001371211522
0.0001386046395
0.0001400948969
0.000141452696
0.000142525406
0.0001431487963
0.000137989919
0.0001387788917
0.0001398962001
0.0001412519114
0.0001427386205
0.0001442320346
0.0001455926407
0.0001466675219
0.0001472921547
0.0001421275273
0.0001429180638
0.000144037551
0.0001453958501
0.0001468853266
0.0001483814472
0.0001497444558
0.0001508211924
0.0001514468862
0.0001462777876
0.0001470696544
0.0001481909929
0.0001495514864
0.0001510433047
0.0001525417102
0.0001539067423
0.0001549850386
0.000155611623
0.0001504392429
0.0001512322218
0.0001523551049
0.0001537174249
0.0001552111866
0.0001567114822
0.000158078183
0.0001591577619
0.0001597850774
0.0001546105219
0.0001554044088
0.0001565285498
0.0001578923523
0.0001593876849
0.0001608895014
0.0001622575388
0.0001633381412
0.0001639660385
0.0001587903354
0.0001595849394
0.0001607100704
0.0001620750338
0.000163571589
0.0001650745814
0.0001664436451
0.0001675250286
0.000168153368
0.0001629774716
0.0001637726147
0.0001648984856
0.0001662643096
0.0001677617624
0.0001692656082
0.0001706354083
0.0001717173463
0.0001723459975
0.0001671707935
0.0001679663094
0.0001690926868
0.0001704590912
0.000171957138
0.0001734615364
0.0001748318022
0.0001759140834
0.0001765429244
0.0001713692341
0.000172164968
0.0001732916342
0.0001746583578
0.0001761567154
0.0001776613857
0.0001790318648
0.0001801142918
0.0001807432089
0.0001755717938
0.0001763676013
0.0001774943534
0.0001788611526
0.0001803595574
0.000181864238
0.0001832346949
0.0001843170838
0.000184945971
0.0001797775362
0.0001805732829
0.000181699932
0.00018306658
0.0001845647862
0.0001860692334
0.0001874394488
0.0001885216282
0.0001891503866
0.0001839855851
0.0001847811458
0.0001859075163
0.000187273802
0.0001887715808
0.0001902755678
0.0001916453375
0.0001927271478
0.0001933556854
0.0001881951211
0.0001889903795
0.0001901163078
0.0001914820349
0.0001929791737
0.0001944824893
0.0001958516234
0.0001969329162
0.0001975611473
0.0001924053786
0.0001932002265
0.0001943255606
0.0001956905467
0.0001971868477
0.0001986892959
0.0002000576178
0.0002011382549
0.0002017660999
0.0001966156425
0.0001974099795
0.0001985345784
0.0001998986539
0.0002013939335
0.000202895332
0.0002042626777
0.0002053425309
0.0002059699158
0.0002008252457
0.0002016189786
0.0002027427113
0.000204105719
0.0002055998066
0.0002070999864
0.0002084662035
0.0002095451536
0.0002101720097
0.000205033566
0.0002058266084
0.0002069493535
0.0002083111474
0.000209803885
0.0002113026891
0.0002126676365
0.0002137455731
0.0002143718365
0.0002092400238
0.0002100322956
0.0002111539405
0.0002125143855
0.0002140056265
0.0002155029095
0.0002168664561
0.0002179432767
0.0002185688884
0.0002134440792
0.0002142355062
0.0002153559467
0.0002167149175
0.0002182045262
0.0002197001534
0.0002210621779
0.0002221377877
0.000222762693
0.00021764523
0.0002184357435
0.0002195548831
0.0002209122639
0.0002224001146
0.0002238939613
0.0002252543515
0.0002263286626
0.0002269528106
0.0002218430089
0.0002226325455
0.0002237502949
0.0002251059785
0.0002265919551
0.0002280839059
0.000229442558
0.0002305154891
0.0002311388329
0.0002260369816
0.0002268254826
0.0002279417594
0.0002292956468
0.0002307796418
0.0002322695903
0.0002336264081
0.000234697884
0.0002353203804
0.0002302267449
0.0002310141561
0.0002321288841
0.0002334808837
0.000234962798
0.0002364506456
0.0002378055404
0.0002388754917
0.0002394971004
0.000234411924
0.0002351981954
0.0002363113044
0.0002376613316
0.0002391410736
0.0002406267292
0.0002419796191
0.0002430479816
0.0002436686656
0.0002385921712
0.0002393772566
0.0002404886815
0.0002418366584
0.0002433141433
0.000244797523
0.0002461483321
0.0002472150465
0.0002478347714
0.0002427671634
0.0002435510202
0.0002446607011
0.0002460065556
0.0002474817052
0.0002489627312
0.0002503113895
0.0002513764008
0.0002519951349
0.0002469366009
0.0002477191895
0.0002488270709
0.0002501707363
0.0002516434782
0.0002531220785
0.0002544685209
0.0002555317782
0.000256149492
0.0002511002047
0.0002518814886
0.000252987519
0.0002543289334
0.0002557992003
0.000257275308
0.0002586194742
0.0002596809301
0.0002602975962
0.0002552577145
0.0002560376598
0.0002571417915
0.0002584808972
0.0002599486265
0.0002614221793
0.0002627640128
0.0002638236229
0.0002644392156
0.0002594088874
0.0002601874622
0.0002612896504
0.0002626263935
0.0002640915265
0.0002655624656
0.0002669019133
0.0002679596359
0.0002685741308
0.0002635534943
0.0002643306689
0.0002654308713
0.0002667652008
0.0002682276818
0.0002696959515
0.0002710329628
0.0002720887579
0.0002727021319
0.0002676913185
0.0002684670642
0.0002695652405
0.0002708971075
0.0002723568829
0.0002738224296
0.0002751569555
0.0002762107844
0.0002768230148
0.0002718221518
0.0002725964408
0.0002736925518
0.0002750219085
0.000276478926
0.0002779416968
0.0002792736889
0.0002803255129
0.0002809365773
0.000275945791
0.0002767185959
0.0002778126023
0.0002791394011
0.0002805936079
0.0002820535493
0.0002833829584
0.0002844327383
0.0002850426134
0.0002800620336
0.0002808333262
0.000281925188
0.0002832493797
0.000284700721
0.0002861577773
0.0002874845516
0.0002885322459
0.0002891409072
0.0002841706722
0.0002849404227
0.0002860300972
0.0002873516291
0.0002888000463
0.000290254157
0.0002915782404
0.0002926238035
0.0002932312239
0.0002882714871
0.0002890396628
0.000290127103
0.0002914459169
0.0002928913443
0.0002943424419
0.0002956637707
0.0002967071508
0.0002973132996
0.0002923642374
0.0002931308012
0.0002942159532
0.0002955319822
0.0002969743442
0.0002984223498
0.0002997408496
0.000300781986
0.0003013868267
0.0002964486499
0.0002972135578
0.0002982963582
0.0002996095228
0.000301048729
0.0003024935481
0.0003038091294
0.0003048479485
0.0003054514369
0.000300524404
0.0003012876028
0.0003023679744
0.0003036781776
0.0003051141174
0.000306555634
0.0003078681863
0.0003089045972
0.0003095066786
0.0003045911136
0.0003053525376
0.0003064303843
0.0003077375055
0.0003091700408
0.0003106081097
0.0003119174944
0.0003129513828
0.0003135519883
0.000308648304
0.00030940787
0.0003104830711
0.000311786958
0.0003132159143
0.0003146503517
0.0003159563931
0.0003169876138
0.0003175866559
0.0003126953825
0.0003134529853
0.0003145253871
0.0003158258459
0.0003172510008
0.0003186815723
0.0003199840462
0.000321012414
0.0003216097809
0.0003167316036
0.0003174871086
0.0003185565149
0.000319853298
0.0003212743675
0.0003227007733
0.0003239993931
0.0003250246711
0.0003256202198
0.0003207560254
0.0003215092607
0.0003225754207
0.0003238682118
0.0003252848328
0.00032670669
0.0003280010895
0.0003290229752
0.0003296165234
0.0003247674582
0.0003255182046
0.0003265807985
0.0003278691942
0.000329280904
0.0003306977251
0.0003319874382
0.0003330055469
0.0003335968625
0.0003287644035
0.0003295123824
0.000330571004
0.0003318544927
0.0003332607048
0.0003346718721
0.0003359563089
0.0003369701537
0.0003375589432
0.0003327449833
0.0003334898431
0.0003345439803
0.0003358219168
0.0003372218924
0.0003386266285
0.0003399050474
0.0003409140166
0.0003414999118
0.0003367068611
0.0003374481611
0.0003384971724
0.0003397687495
0.0003411615654
0.0003425589
0.0003438303758
0.0003448337076
0.0003454162499
0.0003406471533
0.000341384346
0.0003424274349
0.0003436916517
0.0003450761642
0.0003464648967
0.0003477282867
0.0003487250406
0.0003493036647
0.0003445623342
0.0003452947457
0.000346330933
0.0003475865601
0.0003489613665
0.0003503400267
0.0003515939332
0.0003525829607
0.0003531569763
0.0003484481374
0.000349174947
0.0003502030411
0.0003514485845
0.000352811983
0.00035417879
0.0003554215224
0.000356401436
0.0003569700104
0.0003522994568
0.0003530196759
0.0003540382431
0.0003552719082
0.0003566218577
0.0003579746792
0.0003592042172
0.0003601733612
0.000360735502
0.0003561102531
0.0003568227055
0.000357830042
0.000359049699
0.0003603837815
0.000361720097
0.0003629340568
0.0003638904812
0.0003644450208
0.0003598734729
0.0003605767769
0.0003615708838
0.0003627740386
0.0003640894283
0.0003654062977
0.0003666019051
0.0003675433449
0.0003680889292
0.0003635809886
0.000364273543
0.0003652521076
0.0003664358799
0.0003677293212
0.0003690233658
0.0003701974396
0.000371121303
0.0003716563855
0.0003672235683
0.0003679035448
0.0003688639306
0.0003700250445
0.0003712928436
0.0003725602404
0.0003737091912
0.0003746125609
0.0003751354039
0.0003707908859
0.0003714562299
0.0003723954795
0.000373530269
0.0003747683045
0.0003760048008
0.0003771246483
0.0003780042985
0.000378512985
0.0003742715823
0.0003749200241
0.0003758348774
0.0003769393126
0.0003781430684
0.0003793440216
0.0003804304353
0.0003812828685
0.0003817753256
0.0003776533863
0.0003782824656
0.0003791693972
0.0003802391338
0.0003814037603
0.0003825642047
0.0003836125733
0.000384434079
0.000384908115
0.0003809233048
0.0003815304097
0.0003823856871
0.0003834161433
0.000384536548
0.0003856512951
0.0003866568239
0.0003874435631
0.0003878969194
0.0003840678844
0.0003846503068
0.0003854700727
0.000386456534
0.0003875275049
0.0003885912756
0.0003895491162
0.0003902972295
0.0003907276472
0.0003870735478
0.0003876285546
0.0003884089319
0.0003893466846
0.0003903630445
0.0003913706333
0.0003922760417
0.0003929817813
0.0003933870812
0.000389926997
0.0003904519171
0.0003911891347
0.0003920736255