/*--------------------------------*- C++ -*----------------------------------*\
| =========                 |                                                 |
| \\      /  F ield         | OpenFOAM: The Open Source CFD Toolbox           |
|  \\    /   O peration     | Version:  2212                                  |
|   \\  /    A nd           | Website:  www.openfoam.com                      |
|    \\/     M anipulation  |                                                 |
\*---------------------------------------------------------------------------*/
FoamFile
{
    version     2.0;
    format      ascii;
    arch        "LSB;label=32;scalar=64";
    class       volScalarField;
    location    "23.25000000";
    object      H2;
}
// * * * * * * * * * * * * * * * * * * * * * * * * * * * * * * * * * * * * * //

dimensions      [0 0 0 0 0 0 0];

internalField   nonuniform List<scalar> 
3000
(
3.256409482e-23
3.65817541e-23
4.264431181e-23
5.072304399e-23
6.073553052e-23
7.240945473e-23
8.504118844e-23
9.709304351e-23
1.05616776e-22
1.222592902e-22
1.378978098e-22
1.614859944e-22
1.929891037e-22
2.323749181e-22
2.794216454e-22
3.333125844e-22
3.913078583e-22
4.427047019e-22
2.73841672e-22
3.112904059e-22
3.683157011e-22
4.45743415e-22
5.449664347e-22
6.674196258e-22
8.126291072e-22
9.724224444e-22
1.109063638e-21
5.215932574e-22
5.991347295e-22
7.189420001e-22
8.85068663e-22
1.103400217e-21
1.379479692e-21
1.711810591e-21
2.073743444e-21
2.365937541e-21
9.261920696e-22
1.076934986e-21
1.313511076e-21
1.647936541e-21
2.095943253e-21
2.670081906e-21
3.360783178e-21
4.094248283e-21
4.657321788e-21
1.592643067e-21
1.875565936e-21
2.325950211e-21
2.97253326e-21
3.849805869e-21
4.97982398e-21
6.328857232e-21
7.726741671e-21
8.760960483e-21
2.703698548e-21
3.223387197e-21
4.060320851e-21
5.275412727e-21
6.936324792e-21
9.076053206e-21
1.160611114e-20
1.417665058e-20
1.603143967e-20
4.575509688e-21
5.516007506e-21
7.044110717e-21
9.279847281e-21
1.234790917e-20
1.629243643e-20
2.091553281e-20
2.554424444e-20
2.882840995e-20
7.755818545e-21
9.439884632e-21
1.219383332e-20
1.624351293e-20
2.181071877e-20
2.894890998e-20
3.72548137e-20
4.548427466e-20
5.125874043e-20
1.319309309e-20
1.618488829e-20
2.109978055e-20
2.835053075e-20
3.832448431e-20
5.107942564e-20
6.583863183e-20
8.035472165e-20
9.046465266e-20
2.253071274e-20
2.781448878e-20
3.652225683e-20
4.939457811e-20
6.710208618e-20
8.969618803e-20
1.157327221e-19
1.412088979e-19
1.588629109e-19
3.86167964e-20
4.790719694e-20
6.325161043e-20
8.596340945e-20
1.172000086e-19
1.569854308e-19
2.026939989e-19
2.472573016e-19
2.78030681e-19
6.638918525e-20
8.267050489e-20
1.096021907e-19
1.494965313e-19
2.043499876e-19
2.741193697e-19
3.540996426e-19
4.318764872e-19
4.854549102e-19
1.144110337e-19
1.428739064e-19
1.900052286e-19
2.598571492e-19
3.55875527e-19
4.778760632e-19
6.17507677e-19
7.530430554e-19
8.462468799e-19
1.975359827e-19
2.4720447e-19
3.295104305e-19
4.515337391e-19
6.192273376e-19
8.321305642e-19
1.075515395e-18
1.31144419e-18
1.473479858e-18
3.415337417e-19
4.280911038e-19
5.715999776e-19
7.844053302e-19
1.076799845e-18
1.447801053e-18
1.871547743e-18
2.281907424e-18
2.563490751e-18
5.91117798e-19
7.418133336e-19
9.917510215e-19
1.362425271e-18
1.871642131e-18
2.517452993e-18
3.25458376e-18
3.967892494e-18
4.457020439e-18
1.023876562e-18
1.286044691e-18
1.720972857e-18
2.36604363e-18
3.252067425e-18
4.375323794e-18
5.656713793e-18
6.895939404e-18
7.745210575e-18
1.774444686e-18
2.230292533e-18
2.986645224e-18
4.108454389e-18
5.649025028e-18
7.601400875e-18
9.827578785e-18
1.197937088e-17
1.345331027e-17
3.076429595e-18
3.86869859e-18
5.18335115e-18
7.133135109e-18
9.810223897e-18
1.32017427e-17
1.706714921e-17
2.080154512e-17
2.335833301e-17
5.335097861e-18
6.711573337e-18
8.995651933e-18
1.238286131e-17
1.703244085e-17
2.292063838e-17
2.962840825e-17
3.610550569e-17
4.053794084e-17
9.253299774e-18
1.164395229e-17
1.561069568e-17
2.14922464e-17
2.956334775e-17
3.978015739e-17
5.141285235e-17
6.263901996e-17
7.031711651e-17
1.604948978e-17
2.02000965e-17
2.708620662e-17
3.729382363e-17
5.129607639e-17
6.901162459e-17
8.916960114e-17
1.08609846e-16
1.218971875e-16
2.783470368e-17
3.503801268e-17
4.698630202e-17
6.469178394e-17
8.896714276e-17
1.196602681e-16
1.545582137e-16
1.881856411e-16
2.111513234e-16
4.826344607e-17
6.075847138e-17
8.147819345e-17
1.121675768e-16
1.542179865e-16
2.073423569e-16
2.676869648e-16
3.25774684e-16
3.654055087e-16
8.365556114e-17
1.053160184e-16
1.412200511e-16
1.943684877e-16
2.671335282e-16
3.589680955e-16
4.631604565e-16
5.633275415e-16
6.315817104e-16
1.449256653e-16
1.824440599e-16
2.446020546e-16
3.365446579e-16
4.622952696e-16
6.208014832e-16
8.003735274e-16
9.727348522e-16
1.090000213e-15
2.508930159e-16
3.158112657e-16
4.23293397e-16
5.821280773e-16
7.990951522e-16
1.072153741e-15
1.380946263e-15
1.676765184e-15
1.877642517e-15
4.339424838e-16
5.461218851e-16
7.317009371e-16
1.005624831e-15
1.379227567e-15
1.848527458e-15
2.378085798e-15
2.884208308e-15
3.227106883e-15
7.496735946e-16
9.431993036e-16
1.263029559e-15
1.734440811e-15
2.376196584e-15
3.18050163e-15
4.085712473e-15
4.948451657e-15
5.531370949e-15
1.293283522e-15
1.626461869e-15
2.176419989e-15
2.98563006e-15
4.084789147e-15
5.458625478e-15
7.000057023e-15
8.464361806e-15
9.450599403e-15
2.227263479e-15
2.799452549e-15
3.742555574e-15
5.12739096e-15
7.003461076e-15
9.340912006e-15
1.195410726e-14
1.442717147e-14
1.608677107e-14
3.827997984e-15
4.807758135e-15
6.419846109e-15
8.781281958e-15
1.197050737e-14
1.592945075e-14
2.03372185e-14
2.44907074e-14
2.726656355e-14
6.563760248e-15
8.235595163e-15
1.098085177e-14
1.499086985e-14
2.038730962e-14
2.705805595e-14
3.445053772e-14
4.138308961e-14
4.599520608e-14
1.122452103e-14
1.406586001e-14
1.872058809e-14
2.549778868e-14
3.458119013e-14
4.575645027e-14
5.807671594e-14
6.956937357e-14
7.717745328e-14
1.913668241e-14
2.394355035e-14
3.179714327e-14
4.318983729e-14
5.838984337e-14
7.699218246e-14
9.738412549e-14
1.162973291e-13
1.287515224e-13
3.251599765e-14
4.060620823e-14
5.378420158e-14
7.282197316e-14
9.809386162e-14
1.288449175e-13
1.623477697e-13
1.932315293e-13
2.13454991e-13
5.504361371e-14
6.858196519e-14
9.05598445e-14
1.221659581e-13
1.638905589e-13
2.143469391e-13
2.689602351e-13
3.189819073e-13
3.515484943e-13
9.279946105e-14
1.153126128e-13
1.517240324e-13
2.038267402e-13
2.722011606e-13
3.543400524e-13
4.426390836e-13
5.229797215e-13
5.749780584e-13
1.557631009e-13
1.929457009e-13
2.528394771e-13
3.380859394e-13
4.492487233e-13
5.818686847e-13
7.234299581e-13
8.513659272e-13
9.33680453e-13
2.602077011e-13
3.211701534e-13
4.189429687e-13
5.573128398e-13
7.365560569e-13
9.488746296e-13
1.173882685e-12
1.375861717e-12
1.505056771e-12
4.324868527e-13
5.316645454e-13
6.899990157e-13
9.127462498e-13
1.19931991e-12
1.536312615e-12
1.890876379e-12
2.207026972e-12
2.408097815e-12
7.149731637e-13
8.750146592e-13
1.129296481e-12
1.484831904e-12
1.939059768e-12
2.469312706e-12
3.023238842e-12
3.513933456e-12
3.824297133e-12
1.175289538e-12
1.431377474e-12
1.836266058e-12
2.398849387e-12
3.112572769e-12
3.939738354e-12
4.797814935e-12
5.55316091e-12
6.028412192e-12
1.920531083e-12
2.326778419e-12
2.965883638e-12
3.848348985e-12
4.960128441e-12
6.23951502e-12
7.557784763e-12
8.711270147e-12
9.433440395e-12
3.118980119e-12
3.757805163e-12
4.757807407e-12
6.13003816e-12
7.847115845e-12
9.809554585e-12
1.181864888e-11
1.356666208e-11
1.465601577e-11
5.032968187e-12
6.028711023e-12
7.579792071e-12
9.695340488e-12
1.232515879e-11
1.53111406e-11
1.834956829e-11
2.097919491e-11
2.261101233e-11
8.068172977e-12
9.606709966e-12
1.199189243e-11
1.522607602e-11
1.922124315e-11
2.372949461e-11
2.829092251e-11
3.221938223e-11
3.464774754e-11
1.284693721e-11
1.520372899e-11
1.884072497e-11
2.374481793e-11
2.976691605e-11
3.652320485e-11
4.33233515e-11
4.915376898e-11
5.274522248e-11
2.03164033e-11
2.389634601e-11
2.939689209e-11
3.677478827e-11
4.578447537e-11
5.583866231e-11
6.590963025e-11
7.45097123e-11
7.97907887e-11
3.190667726e-11
3.730042464e-11
4.555398228e-11
5.657008852e-11
6.995369888e-11
8.481604245e-11
9.963896435e-11
1.122518225e-10
1.199762277e-10
4.976021605e-11
5.78231567e-11
7.011372851e-11
8.644369481e-11
1.061906047e-10
1.280232754e-10
1.497149112e-10
1.681152305e-10
1.793584354e-10
7.705746487e-11
8.901973573e-11
1.071899869e-10
1.312325452e-10
1.601838989e-10
1.920689105e-10
2.23642655e-10
2.503555443e-10
2.666480666e-10
1.1848385e-10
1.361035143e-10
1.627820544e-10
1.979521796e-10
2.4014552e-10
2.864570341e-10
3.321870801e-10
3.707947462e-10
3.943099638e-10
1.808857191e-10
2.066598269e-10
2.455745924e-10
2.967078405e-10
3.578529006e-10
4.247721659e-10
4.906985709e-10
5.462674542e-10
5.800844404e-10
2.741840777e-10
3.116374363e-10
3.680444423e-10
4.419502799e-10
5.300805668e-10
6.263020908e-10
7.209248989e-10
8.00594415e-10
8.490615554e-10
4.126341089e-10
4.667109188e-10
5.47975555e-10
6.541873732e-10
7.805433071e-10
9.182321134e-10
1.053452494e-09
1.167233426e-09
1.236461716e-09
6.165425428e-10
6.941321799e-10
8.105089834e-10
9.622891137e-10
1.142499807e-09
1.338570029e-09
1.530944068e-09
1.692778478e-09
1.791293827e-09
9.145832054e-10
1.025217907e-09
1.190883708e-09
1.406552067e-09
1.662192943e-09
1.939986225e-09
2.21236219e-09
2.441499186e-09
2.581084245e-09
1.346882399e-09
1.503650544e-09
1.738053613e-09
2.04271666e-09
2.403326988e-09
2.794774183e-09
3.178388576e-09
3.501136696e-09
3.697900063e-09
1.96907668e-09
2.189799171e-09
2.519391156e-09
2.947150944e-09
3.452796864e-09
4.001148179e-09
4.53826134e-09
4.990188709e-09
5.265908148e-09
2.85756935e-09
3.166286469e-09
3.626702429e-09
4.223422438e-09
4.927888144e-09
5.691097487e-09
6.438253928e-09
7.066908014e-09
7.450687394e-09
4.116220547e-09
4.54503258e-09
5.183778889e-09
6.0104786e-09
6.985167472e-09
8.040018682e-09
9.072011531e-09
9.94020777e-09
1.047046222e-08
5.884699176e-09
6.476000585e-09
7.355708389e-09
8.492660509e-09
9.831291493e-09
1.127834696e-08
1.2692937e-08
1.38826281e-08
1.460939053e-08
8.348723045e-09
9.157873184e-09
1.036018117e-08
1.191178954e-08
1.373596316e-08
1.570537944e-08
1.762877328e-08
1.924548292e-08
2.023301755e-08
1.175244057e-08
1.285091787e-08
1.448104542e-08
1.658155977e-08
1.904722085e-08
2.170542036e-08
2.42984776e-08
2.647627087e-08
2.780597722e-08
1.641322992e-08
1.789229824e-08
2.008433129e-08
2.290439528e-08
2.620915737e-08
2.976630678e-08
3.323143149e-08
3.613838861e-08
3.791197568e-08
2.273911774e-08
2.471398895e-08
2.763684007e-08
3.13908108e-08
3.578207132e-08
4.050030127e-08
4.508896323e-08
4.893311403e-08
5.127602198e-08
3.124884417e-08
3.386328271e-08
3.772724819e-08
4.268119888e-08
4.846495693e-08
5.466724074e-08
6.068805268e-08
6.572371781e-08
6.878875737e-08
4.259442834e-08
4.602572753e-08
5.108954722e-08
5.756984483e-08
6.512010604e-08
7.319968078e-08
8.102692997e-08
8.756139018e-08
9.153255777e-08
5.758594837e-08
6.205019245e-08
6.862849125e-08
7.703079982e-08
8.679940149e-08
9.722956567e-08
1.073120459e-07
1.157124205e-07
1.20808822e-07
7.721807652e-08
8.297557005e-08
9.14465085e-08
1.022450057e-07
1.147716253e-07
1.281156645e-07
1.409855779e-07
1.516857265e-07
1.581655006e-07
1.026976638e-07
1.100583631e-07
1.20871261e-07
1.346277689e-07
1.505497709e-07
1.674706505e-07
1.837522354e-07
1.972594005e-07
2.054234737e-07
1.35471381e-07
1.448001039e-07
1.584827052e-07
1.758553168e-07
1.959169568e-07
2.171862742e-07
2.376036699e-07
2.545044546e-07
2.646998811e-07
1.772520732e-07
1.889731843e-07
2.061381222e-07
2.278887658e-07
2.529491103e-07
2.794546216e-07
3.04838313e-07
3.258034477e-07
3.384260083e-07
2.300421098e-07
2.446432958e-07
2.659931969e-07
2.92993427e-07
3.240321689e-07
3.567830278e-07
3.880740425e-07
4.138612613e-07
4.293569116e-07
2.96151647e-07
3.141863135e-07
3.405168572e-07
3.737510164e-07
4.118712115e-07
4.519999002e-07
4.902507977e-07
5.217050423e-07
5.405697495e-07
3.782094084e-07
4.002971609e-07
4.324973211e-07
4.730621114e-07
5.194887585e-07
5.682486061e-07
6.14620234e-07
6.52670367e-07
6.754478572e-07
4.791634081e-07
5.059880496e-07
5.450367099e-07
5.941361908e-07
6.502095739e-07
7.089667794e-07
7.647198206e-07
8.103710907e-07
8.376480764e-07
6.022690699e-07
6.345735763e-07
6.815317663e-07
7.404668839e-07
8.076297279e-07
8.778489781e-07
9.443295068e-07
9.986511873e-07
1.031049761e-06
7.510625168e-07
7.896405543e-07
8.456387201e-07
9.157907079e-07
9.955684965e-07
1.07879161e-06
1.157410226e-06
1.221518154e-06
1.259685223e-06
9.293174643e-07
9.750012077e-07
1.041221222e-06
1.124028598e-06
1.218002864e-06
1.315820401e-06
1.408025007e-06
1.483059172e-06
1.527653067e-06
1.140985173e-06
1.194629456e-06
1.272281477e-06
1.369210882e-06
1.478985884e-06
1.593002299e-06
1.700245203e-06
1.787343026e-06
1.839017708e-06
1.390118244e-06
1.452581407e-06
1.542876195e-06
1.655387924e-06
1.782551813e-06
1.914345427e-06
2.038046087e-06
2.138312544e-06
2.197700126e-06
1.680780555e-06
1.752902735e-06
1.857020529e-06
1.986530249e-06
2.132612491e-06
2.283692246e-06
2.425197577e-06
2.539673781e-06
2.607366343e-06
2.016947208e-06
2.099527134e-06
2.218584699e-06
2.366423363e-06
2.532850801e-06
2.704612271e-06
2.865156891e-06
2.994789073e-06
3.071320918e-06
2.40239968e-06
2.49617132e-06
2.631189094e-06
2.798563507e-06
2.986617767e-06
3.180301251e-06
3.36097026e-06
3.506581201e-06
3.592412748e-06
2.840622326e-06
2.946232881e-06
3.098104346e-06
3.286060933e-06
3.496840014e-06
3.713493521e-06
3.915190348e-06
4.077455242e-06
4.172959678e-06
3.334706755e-06
3.452697452e-06
3.622162777e-06
3.831557017e-06
4.065943663e-06
4.306393301e-06
4.529814806e-06
4.709243189e-06
4.814696783e-06
3.887270212e-06
4.018061197e-06
4.205686927e-06
4.437160466e-06
4.695799406e-06
4.960629107e-06
5.206249521e-06
5.403174396e-06
5.5187511e-06
4.500393117e-06
4.644273404e-06
4.850439449e-06
5.104406305e-06
5.387691681e-06
5.67723336e-06
5.945297871e-06
6.15987254e-06
6.285643185e-06
5.175579284e-06
5.332702286e-06
5.557596862e-06
5.8342393e-06
6.142312717e-06
6.456647048e-06
6.747174922e-06
6.979376906e-06
7.115310462e-06
5.913740426e-06
6.084125119e-06
6.327747591e-06
6.627021463e-06
6.959780204e-06
7.298747315e-06
7.611543568e-06
7.861183868e-06
8.007157224e-06
6.715204496e-06
6.898741831e-06
7.160912836e-06
7.48256146e-06
7.839675724e-06
8.202894376e-06
8.537567518e-06
8.804310306e-06
8.960116995e-06
7.579745585e-06
7.776209387e-06
8.056587135e-06
8.400162163e-06
8.781099388e-06
9.1679914e-06
9.523982149e-06
9.80736382e-06
9.97272645e-06
8.506631542e-06
8.715692815e-06
9.01379421e-06
9.378681261e-06
9.782734058e-06
1.019255929e-05
1.056916794e-05
1.086862083e-05
1.104320496e-05
9.494684308e-06
9.715926884e-06
1.003114828e-05
1.041659743e-05
1.084292152e-05
1.127481004e-05
1.167122831e-05
1.198610636e-05
1.216953572e-05
1.054234309e-05
1.077528321e-05
1.110693146e-05
1.151208859e-05
1.195973405e-05
1.241272092e-05
1.28280648e-05
1.315767131e-05
1.33495463e-05
1.1647745e-05
1.189184826e-05
1.223916236e-05
1.266309859e-05
1.313104281e-05
1.360410117e-05
1.403744239e-05
1.438106004e-05
1.458099085e-05
1.280879091e-05
1.306348867e-05
1.342566298e-05
1.386740165e-05
1.435457772e-05
1.484664531e-05
1.52970324e-05
1.565393349e-05
1.586147485e-05
1.402321145e-05
1.428791555e-05
1.466411998e-05
1.512265983e-05
1.562798005e-05
1.613797972e-05
1.660445298e-05
1.697384683e-05
1.71885403e-05
1.528862698e-05
1.556274223e-05
1.595213921e-05
1.642647375e-05
1.694884862e-05
1.747570231e-05
1.795723951e-05
1.833832337e-05
1.855971025e-05
1.660260055e-05
1.688553504e-05
1.728729262e-05
1.777642568e-05
1.83147626e-05
1.885733412e-05
1.935291239e-05
1.974489161e-05
1.997251898e-05
1.796268321e-05
1.825385732e-05
1.866715419e-05
1.917006664e-05
1.972323025e-05
2.028039771e-05
2.078901283e-05
2.119110947e-05
2.142453466e-05
1.936644568e-05
1.966525684e-05
2.008923465e-05
2.060489662e-05
2.117177719e-05
2.174244696e-05
2.226312266e-05
2.26745819e-05
2.291337581e-05
2.081134987e-05
2.11172031e-05
2.155102867e-05
2.207844364e-05
2.265796807e-05
2.324108397e-05
2.377287875e-05
2.419297338e-05
2.443672287e-05
2.229487878e-05
2.260720156e-05
2.305007365e-05
2.358828441e-05
2.417942263e-05
2.477397166e-05
2.531598325e-05
2.574401677e-05
2.599232616e-05
2.381456761e-05
2.413281275e-05
2.458396572e-05
2.513205816e-05
2.573382702e-05
2.633884283e-05
2.689021087e-05
2.732551927e-05
2.757801129e-05
2.536801796e-05
2.569166503e-05
2.61503709e-05
2.670747617e-05
2.731894152e-05
2.793350622e-05
2.849341369e-05
2.893536634e-05
2.919168254e-05
2.69529072e-05
2.728146327e-05
2.774703265e-05
2.831232812e-05
2.89326057e-05
2.955585057e-05
3.012352417e-05
3.057152409e-05
3.083132494e-05
2.856699484e-05
2.889999464e-05
2.937177688e-05
2.994448625e-05
3.057274171e-05
3.120384705e-05
3.1778557e-05
3.223204056e-05
3.249500527e-05
3.020812662e-05
3.05451323e-05
3.102251512e-05
3.160190793e-05
3.223735616e-05
3.287555054e-05
3.345660987e-05
3.39150462e-05
3.418087238e-05
3.187423699e-05
3.221483759e-05
3.269724633e-05
3.328263699e-05
3.392454102e-05
3.456910017e-05
3.515586363e-05
3.56187538e-05
3.588715697e-05
3.356335043e-05
3.390716116e-05
3.439405774e-05
3.49848042e-05
3.563247379e-05
3.628271915e-05
3.68745819e-05
3.734145788e-05
3.761217093e-05
3.527358181e-05
3.562024316e-05
3.611112481e-05
3.670662712e-05
3.735941707e-05
3.801471413e-05
3.861111031e-05
3.908153389e-05
3.935430642e-05
3.700313607e-05
3.735231286e-05
3.784671076e-05
3.844640933e-05
3.910371773e-05
3.976347428e-05
4.03638754e-05
4.083743696e-05
4.111203467e-05
3.87503074e-05
3.910168768e-05
3.959916547e-05
4.020253938e-05
4.086380567e-05
4.152746992e-05
4.213138323e-05
4.260770051e-05
4.288390448e-05
4.051347786e-05
4.086677187e-05
4.136692414e-05
4.197348924e-05
4.263819228e-05
4.330525097e-05
4.39122178e-05
4.439093463e-05
4.466854064e-05
4.229111575e-05
4.264605478e-05
4.314850549e-05
4.375781263e-05
4.442546871e-05
4.509544516e-05
4.570503921e-05
4.618582426e-05
4.646464208e-05
4.40817736e-05
4.443810887e-05
4.494250983e-05
4.555414295e-05
4.62243038e-05
4.689675601e-05
4.75085817e-05
4.799112716e-05
4.827097988e-05
4.588408592e-05
4.624158748e-05
4.674761678e-05
4.736119109e-05
4.803344196e-05
4.87079607e-05
4.932165146e-05
4.980567183e-05
5.008639515e-05
4.769676675e-05
4.805522242e-05
4.85625829e-05
4.917774308e-05
4.985170077e-05
5.052790772e-05
5.114312437e-05
5.162835523e-05
5.190979675e-05
4.951860706e-05
4.987782129e-05
5.038623908e-05
5.100265752e-05
5.167796854e-05
5.235551444e-05
5.297194362e-05
5.345814039e-05
5.374015897e-05
5.134847194e-05
5.170826484e-05
5.221748788e-05
5.283486297e-05
5.351120167e-05
5.418976458e-05
5.480711718e-05
5.529405396e-05
5.55765191e-05
5.318529777e-05
5.354550408e-05
5.405530075e-05
5.467335519e-05
5.535042206e-05
5.602970564e-05
5.664771529e-05
5.713518373e-05
5.741797489e-05
5.502808926e-05
5.538855737e-05
5.589871515e-05
5.651719439e-05
5.719471432e-05
5.787444619e-05
5.849286782e-05
5.898067604e-05
5.926368207e-05
5.687591646e-05
5.723650752e-05
5.774683168e-05
5.836550241e-05
5.904322307e-05
5.972315321e-05
6.03417617e-05
6.082973321e-05
6.111285173e-05
5.872791174e-05
5.908849876e-05
5.959881117e-05
6.021745984e-05
6.089515016e-05
6.157504943e-05
6.219363826e-05
6.268161097e-05
6.296474785e-05
6.058326684e-05
6.094373385e-05
6.145387178e-05
6.207230324e-05
6.27497519e-05
6.342941062e-05
6.404779059e-05
6.453561589e-05
6.481868466e-05
6.244122982e-05
6.280147109e-05
6.331128613e-05
6.39293223e-05
6.460633639e-05
6.528556294e-05
6.590356104e-05
6.63911028e-05
6.667402421e-05
6.430110216e-05
6.466102145e-05
6.517037846e-05
6.578785713e-05
6.646426076e-05
6.714288035e-05
6.776033857e-05
6.824747237e-05
6.853017384e-05
6.616223587e-05
6.652174573e-05
6.703052188e-05
6.76472955e-05
6.832292864e-05
6.900078206e-05
6.961755634e-05
7.01041686e-05
7.038658379e-05
6.80240307e-05
6.83830518e-05
6.889113562e-05
6.950707025e-05
7.018178749e-05
7.085872999e-05
7.147468922e-05
7.196067645e-05
7.224274483e-05
6.988593139e-05
7.024439191e-05
7.075168244e-05
7.136665671e-05
7.204032619e-05
7.271622641e-05
7.333125149e-05
7.381651955e-05
7.409818598e-05
7.174742504e-05
7.210526007e-05
7.261166606e-05
7.32255702e-05
7.389807263e-05
7.457281157e-05
7.518679452e-05
7.567125794e-05
7.595247228e-05
7.360803855e-05
7.396518959e-05
7.447062874e-05
7.50833637e-05
7.575459133e-05
7.642806147e-05
7.704090456e-05
7.752448593e-05
7.780520269e-05
7.546733624e-05
7.582375066e-05
7.632814892e-05
7.693962552e-05
7.760948129e-05
7.828158565e-05
7.889320069e-05
7.937583e-05
7.965600801e-05
7.732491745e-05
7.768054804e-05
7.818383893e-05
7.879397712e-05
7.94623738e-05
8.013302516e-05
8.074333272e-05
8.122494688e-05
8.150454892e-05
7.918041432e-05
7.953521884e-05
8.003734291e-05
8.064607098e-05
8.131293042e-05
8.198205057e-05
8.259097932e-05
8.307152156e-05
8.335051413e-05
8.103348969e-05
8.13874305e-05
8.18883347e-05
8.249558867e-05
8.316084106e-05
8.382836004e-05
8.443584613e-05
8.491526557e-05
8.519361855e-05
8.288383509e-05
8.323687873e-05
8.373651591e-05
8.434223887e-05
8.500582209e-05
8.567167758e-05
8.627766404e-05
8.675591518e-05
8.703360162e-05
8.473116876e-05
8.508328565e-05
8.558161408e-05
8.618575565e-05
8.68476146e-05
8.75117513e-05
8.81161875e-05
8.859322986e-05
8.887022568e-05
8.657523394e-05
8.692639801e-05
8.742338093e-05
8.802589667e-05
8.868598277e-05
8.934835182e-05
8.995119296e-05
9.042699062e-05
9.070327445e-05
8.841579705e-05
8.876598549e-05
8.92615907e-05
8.986244167e-05
9.052071226e-05
9.118127072e-05
9.178247735e-05
9.225699865e-05
9.253255157e-05
9.025264617e-05
9.060183912e-05
9.109603859e-05
9.169519085e-05
9.235160874e-05
9.30103191e-05
9.360985671e-05
9.408307385e-05
9.435787923e-05
9.208558945e-05
9.243376979e-05
9.29265393e-05
9.352396352e-05
9.41784965e-05
9.483532624e-05
9.543316483e-05
9.59050536e-05
9.617909688e-05
9.391445374e-05
9.42616068e-05
9.475292563e-05
9.534859668e-05
9.600121713e-05
9.665613829e-05
9.7252252e-05
9.772279147e-05
9.799606002e-05
9.573908317e-05
9.608519657e-05
9.65750472e-05
9.71689438e-05
9.781962828e-05
9.847261708e-05
9.906698387e-05
9.953615609e-05
9.980863904e-05
9.755933799e-05
9.790440141e-05
9.839276921e-05
9.898487358e-05
9.963360248e-05
0.000100284639
0.0001008772403
0.0001013450301
0.0001016167182
9.937509328e-05
9.97190983e-05
0.0001002059713
0.0001007962689
0.0001014430261
0.0001020920938
0.0001026829142
0.000103149309
0.0001034201944
0.0001011862379
0.0001015291778
0.0001020145465
0.0001026030257
0.0001032477982
0.0001038948839
0.0001044839109
0.0001049489003
0.0001052189767
0.0001029926736
0.0001033345432
0.0001038184003
0.000104405052
0.0001050478299
0.0001056929232
0.000106280147
0.0001067437227
0.000107012985
0.0001047943136
0.0001051351093
0.0001056174494
0.0001062022671
0.0001068430429
0.0001074861361
0.0001080715493
0.0001085337051
0.0001088021492
0.0001065910824
0.0001069308015
0.0001074116212
0.0001079946005
0.0001086333693
0.0001092744572
0.0001098580545
0.0001103187859
0.0001105864087
0.000108382914
0.0001087215555
0.0001092008528
0.0001097819914
0.0001104187504
0.0001110578298
0.0001116396081
0.000112098912
0.0001123657116
0.0001101697522
0.0001105073158
0.0001109850904
0.0001115643877
0.0001121991361
0.0001128362059
0.0001134161638
0.0001138740388
0.0001141400139
0.0001119515489
0.0001122880353
0.0001127642882
0.0001133417454
0.0001139744841
0.0001146095451
0.0001151876828
0.0001156441287
0.000115909279
0.000113728264
0.0001140636749
0.0001145384083
0.0001151140278
0.0001157447595
0.0001163778139
0.0001169541332
0.000117409151
0.0001176734768
0.0001154998646
0.0001158342023
0.0001163074195
0.0001168812052
0.0001175099339
0.0001181409855
0.0001187154896
0.0001191690814
0.0001194325835
0.0001172663242
0.0001175995918
0.0001180712972
0.0001186432542
0.0001192699852
0.0001198990391
0.0001204717322
0.000120923901
0.0001211865811
0.0001190276225
0.0001193598237
0.0001198300223
0.0001204001568
0.0001210248967
0.0001216519591
0.0001222228466
0.0001226735964
0.0001229354565
0.0001207837445
0.0001211148836
0.0001215835815
0.0001221519004
0.0001227746567
0.000123399735
0.0001239688233
0.0001244181588
0.0001246792013
0.0001225346804
0.0001228647621
0.0001233319658
0.0001238984771
0.0001245192583
0.0001251423608
0.000125709657
0.0001261575836
0.0001264178113
0.0001242804247
0.0001246094543
0.000125075171
0.0001256398834
0.0001262586987
0.0001268798342
0.0001274453463
0.0001278918699
0.0001281512863
0.0001260209762
0.000126348959
0.0001268131966
0.0001273761192
0.0001279929785
0.000128612157
0.0001291758934
0.0001296210205
0.000129879629
0.000127756337
0.0001280832789
0.0001285460455
0.000129107188
0.0001297221019
0.0001303393335
0.0001309013034
0.0001313450409
0.0001316028453
0.0001294865127
0.0001298124197
0.0001302737237
0.0001308330964
0.0001314460757
0.0001320613711
0.000132621584
0.000133063939
0.0001333209433
0.0001312115113
0.0001315363897
0.0001319962398
0.0001325538531
0.0001331649091
0.0001337782793
0.0001343367448
0.0001347777247
0.0001350339331
0.0001329313433
0.0001332551994
0.0001337136046
0.000134269469
0.0001348786129
0.0001354900691
0.0001360467971
0.0001364864095
0.0001367418261
0.0001346460208
0.000134968861
0.00013542583
0.0001359799562
0.0001365871995
0.0001371967527
0.000137751753
0.0001381900053
0.0001384446343
0.0001363555571
0.0001366773875
0.0001371329292
0.0001376853276
0.0001382906815
0.0001388983427
0.0001394516249
0.0001398885244
0.0001401423698
0.0001380599658
0.0001383807927
0.0001388349155
0.0001393855962
0.0001399890714
0.0001405948511
0.0001411464243
0.000141581978
0.0001418350436
0.0001397592605
0.0001400790895
0.0001405318016
0.000141080774
0.0001416823806
0.0001422862884
0.0001428361611
0.0001432703752
0.0001435226645
0.0001414534531
0.0001417722897
0.0001422235982
0.000142770871
0.000143370618
0.0001439726623
0.0001445208418
0.0001449537217
0.0001452052376
0.0001431425533
0.0001434604019
0.0001439103132
0.0001444558935
0.0001450537883
0.0001456539762
0.0001462004681
0.0001466320178
0.0001468827623
0.0001448265664
0.0001451434306
0.0001455919495
0.0001461358427
0.0001467318905
0.0001473302266
0.0001478750344
0.0001483052561
0.0001485552301
0.0001465054917
0.0001468213738
0.000147268503
0.000147810712
0.0001484049152
0.0001490014007
0.000149544525
0.0001499734183
0.0001502226214
0.0001481793197
0.00014849422
0.0001489399596
0.0001494804837
0.0001500728407
0.0001506674731
0.0001512089102
0.0001516364715
0.000151884901
0.0001498480288
0.0001501619453
0.0001506062918
0.0001511451259
0.0001517356297
0.0001523284007
0.0001528681417
0.0001532943628
0.0001535420135
0.0001515115812
0.0001518245084
0.0001522674537
0.0001528045866
0.0001533932235
0.0001539841174
0.0001545221463
0.0001549470133
0.0001551938763
0.0001531699172
0.0001534818457
0.0001539233752
0.0001544587879
0.000155045535
0.0001556345266
0.0001561708183
0.0001565943096
0.0001568403714
0.0001548229489
0.0001551338635
0.0001555739547
0.000156107618
0.0001566924407
0.0001572794923
0.0001578140097
0.000158236094
0.0001584813352
0.0001564705512
0.0001567804297
0.0001572190497
0.0001577509211
0.0001583337698
0.0001589188279
0.0001594515188
0.0001598721519
0.0001601165456
0.0001581125519
0.0001584213629
0.0001588584654
0.0001593884858
0.0001599692916
0.0001605522823
0.0001610830749
0.0001615021968
0.0001617457063
0.0001597487186
0.0001600564192
0.0001604919411
0.0001610200303
0.0001615986999
0.0001621795239
0.0001627083221
0.0001631258525
0.0001633684289
0.0001613787439
0.0001616852768
0.000162119134
0.000162645185
0.0001632215948
0.0001638001207
0.000164326798
0.0001647426317
0.0001649842112
0.0001630022275
0.0001633075172
0.0001637395994
0.0001642634724
0.0001648374613
0.0001654135184
0.0001659379108
0.0001663519118
0.000166592412
0.0001646186551
0.0001649226042
0.0001653527689
0.000165874284
0.000166445645
0.0001670190147
0.0001675409126
0.0001679529073
0.0001681922233
0.0001662273754
0.0001665298597
0.0001669579257
0.0001674768541
0.000168045325
0.0001686157307
0.0001691348697
0.0001695446398
0.0001697826398
0.0001678275737
0.0001681284368
0.0001685541765
0.0001690702317
0.0001696354842
0.0001702025807
0.0001707186316
0.0001711259056
0.000171362426
0.0001694182435
0.0001697172915
0.0001701404224
0.0001706532495
0.0001712148782
0.0001717782398
0.0001722907975
0.0001726952421
0.0001729300827
0.0001709981571
0.0001712951517
0.0001717153281
0.000172224493
0.0001727820031
0.0001733411118
0.0001738496841
0.0001742508954
0.0001744838137
0.0001725658346
0.0001728604875
0.0001732772909
0.0001737822697
0.0001743350651
0.0001748892979
0.0001753932946
0.000175790789
0.0001760214953
0.000174119515
0.0001744114814
0.0001748244123
0.0001753245803
0.0001758719518
0.0001764205695
0.0001769192919
0.0001773124983
0.000177540651
0.0001756571293
0.0001759460023
0.0001763544717
0.0001768490944
0.0001773902096
0.0001779323467
0.0001784249786
0.0001788132314
0.0001790384335
0.0001771762787
0.0001774615842
0.0001778649078
0.0001783531325
0.0001788870281
0.0001794216852
0.0001799072868
0.0001802898215
0.0001805116179
0.0001786742199
0.0001789554139
0.0001793528067
0.0001798336584
0.0001803592352
0.0001808852756
0.0001813627805
0.0001817387321
0.000181956609
0.0001801478609
0.0001804243275
0.0001808149033
0.0001812872834
0.0001818033066
0.0001823194567
0.0001827876743
0.0001831560798
0.0001833694664
0.0001815937687
0.0001818648223
0.000182247596
0.0001827102864
0.000183215391
0.0001837202479
0.0001841778709
0.0001845376761
0.0001847459497
0.0001830081935
0.0001832730832
0.000183646978
0.0001840986513
0.0001845913547
0.0001850834002
0.0001855290194
0.0001858790921
0.0001860815859
0.0001843871099
0.0001846450278
0.0001850088885
0.0001854481249
0.0001859268473
0.0001864044705
0.0001868365968
0.0001871757456
0.0001873717601
0.0001857262777
0.0001859763721
0.0001863289836
0.0001867542953
0.0001872173886
0.0001876789167
0.0001880960114
0.0001884230108
0.0001886118298
0.0001870213229
0.0001872627151
0.0001876028281
0.0001880126915
0.000188458476
0.0001889022139
0.0001893027267
0.000189616349
0.0001897972583
0.0001882678382
0.0001884996442
0.000188826006
0.0001892189009