/*--------------------------------*- C++ -*----------------------------------*\
| =========                 |                                                 |
| \\      /  F ield         | OpenFOAM: The Open Source CFD Toolbox           |
|  \\    /   O peration     | Version:  2212                                  |
|   \\  /    A nd           | Website:  www.openfoam.com                      |
|    \\/     M anipulation  |                                                 |
\*---------------------------------------------------------------------------*/
FoamFile
{
    version     2.0;
    format      ascii;
    arch        "LSB;label=32;scalar=64";
    class       volScalarField;
    location    "23.25000000";
    object      I-C4H3_0;
}
// * * * * * * * * * * * * * * * * * * * * * * * * * * * * * * * * * * * * * //

dimensions      [0 0 0 0 0 0 0];

internalField   nonuniform List<scalar> 
3000
(
3.300312085e-25
3.707497741e-25
4.321931751e-25
5.140702967e-25
6.155458195e-25
7.338598433e-25
8.618811742e-25
9.840255094e-25
1.070412705e-24
1.239079193e-24
1.39757398e-24
1.636637799e-24
1.955918551e-24
2.355089685e-24
2.831903339e-24
3.378082309e-24
3.965858199e-24
4.486759616e-24
2.775347617e-24
3.154886639e-24
3.732832052e-24
4.51755381e-24
5.523168648e-24
6.764218736e-24
8.235901297e-24
9.855389547e-24
1.124023321e-23
5.28628103e-24
6.072155701e-24
7.286389768e-24
8.970065932e-24
1.118283306e-23
1.398086912e-23
1.734900725e-23
2.101715788e-23
2.397851363e-23
9.386844703e-24
1.091460823e-23
1.331228189e-23
1.670164854e-23
2.1242149e-23
2.706098319e-23
3.406116705e-23
4.149475773e-23
4.720144768e-23
1.614125278e-23
1.900864614e-23
2.357324313e-23
3.012629391e-23
3.901735891e-23
5.046997276e-23
6.41422819e-23
7.830969266e-23
8.879139086e-23
2.740168064e-23
3.266867025e-23
4.115090451e-23
5.346573248e-23
7.029890106e-23
9.198482293e-23
1.176266935e-22
1.4367884e-22
1.624769323e-22
4.637228745e-23
5.590413387e-23
7.139129919e-23
9.405025424e-23
1.251447392e-22
1.651221091e-22
2.119767061e-22
2.588882135e-22
2.921728871e-22
7.860438213e-23
9.567221533e-23
1.235831967e-22
1.646262756e-22
2.210493246e-22
2.933941467e-22
3.775736139e-22
4.609783424e-22
5.195019514e-22
1.337105894e-22
1.640321214e-22
2.138440415e-22
2.873296389e-22
3.884146196e-22
5.176846232e-22
6.672676441e-22
8.143867074e-22
9.168498098e-22
2.283463906e-22
2.818969113e-22
3.701492356e-22
5.006088755e-22
6.800726336e-22
9.090615157e-22
1.172939095e-21
1.431137503e-21
1.610059103e-21
3.913771791e-22
4.855344264e-22
6.410484692e-22
8.712302045e-22
1.187809912e-21
1.591031063e-21
2.054282692e-21
2.505927178e-21
2.817812215e-21
6.728474712e-22
8.378569665e-22
1.110806827e-21
1.515131863e-21
2.071066003e-21
2.778171525e-21
3.588763386e-21
4.377023736e-21
4.920035569e-21
1.159543966e-21
1.448012258e-21
1.925683372e-21
2.633625428e-21
3.606761856e-21
4.843224814e-21
6.258376957e-21
7.632014186e-21
8.576625447e-21
2.002006813e-21
2.505391852e-21
3.339554351e-21
4.57624813e-21
6.275805655e-21
8.433558176e-21
1.090023868e-20
1.329135304e-20
1.493356809e-20
3.461409422e-21
4.33865947e-21
5.793107305e-21
7.949867926e-21
1.091325665e-20
1.467331628e-20
1.896794605e-20
2.31268999e-20
2.598071848e-20
5.990918501e-21
7.518202472e-21
1.005129562e-20
1.380804162e-20
1.896890302e-20
2.55141309e-20
3.298487689e-20
4.021418905e-20
4.517145158e-20
1.037688485e-20
1.303393237e-20
1.744188546e-20
2.397961273e-20
3.295937471e-20
4.43434651e-20
5.733022407e-20
6.988965134e-20
7.849692962e-20
1.79838173e-20
2.26037894e-20
3.026934794e-20
4.163877127e-20
5.725230032e-20
7.703943413e-20
9.960152471e-20
1.214097227e-19
1.363479515e-19
3.117930396e-20
3.920887092e-20
5.253274315e-20
7.229360882e-20
9.942563661e-20
1.337983417e-19
1.729738521e-19
2.108215833e-19
2.367343748e-19
5.407068168e-20
6.802112349e-20
9.117003267e-20
1.254990629e-19
1.726220898e-19
2.322983877e-19
3.002809707e-19
3.659257122e-19
4.108480045e-19
9.378126943e-20
1.180102956e-19
1.582128467e-19
2.178217811e-19
2.996215953e-19
4.031679521e-19
5.210641682e-19
6.34840271e-19
7.126570243e-19
1.626599844e-19
2.047259737e-19
2.745160206e-19
3.779692133e-19
5.198806671e-19
6.994260069e-19
9.037251202e-19
1.100750096e-18
1.235416001e-18
2.821019702e-19
3.551067994e-19
4.762015388e-19
6.556448619e-19
9.01673246e-19
1.212745069e-18
1.566432338e-18
1.907243033e-18
2.139997986e-18
4.891452801e-19
6.157811406e-19
8.257734997e-19
1.136807405e-18
1.56298421e-18
2.101394533e-18
2.712981266e-18
3.301694658e-18
3.703349225e-18
8.478409334e-19
1.067367562e-18
1.431251445e-18
1.969905691e-18
2.707372323e-18
3.638106768e-18
4.694086266e-18
5.709269992e-18
6.40101941e-18
1.468807538e-18
1.849052841e-18
2.479018111e-18
3.410847522e-18
4.685317846e-18
6.291763051e-18
8.111708436e-18
9.858573891e-18
1.104704707e-17
2.542776518e-18
3.200716743e-18
4.290037822e-18
5.899812067e-18
8.09875257e-18
1.086617521e-17
1.399575787e-17
1.699385434e-17
1.902972694e-17
4.397965577e-18
5.534893105e-18
7.415719096e-18
1.019191165e-17
1.397833978e-17
1.873464949e-17
2.410167286e-17
2.923117637e-17
3.270642089e-17
7.597870945e-18
9.559235683e-18
1.280068505e-17
1.757839347e-17
2.40825275e-17
3.223408304e-17
4.14083093e-17
5.015208937e-17
5.605992139e-17
1.310730776e-17
1.648403905e-17
2.2057813e-17
3.025908112e-17
4.139895524e-17
5.532265735e-17
7.094492117e-17
8.578551254e-17
9.578093807e-17
2.257311115e-17
2.837219431e-17
3.793045593e-17
5.196563382e-17
7.097942976e-17
9.466927695e-17
1.211537668e-16
1.462180416e-16
1.630379287e-16
3.879641727e-17
4.872619685e-17
6.506456078e-17
8.899749612e-17
1.213200017e-16
1.614435266e-16
2.06115844e-16
2.482110681e-16
2.763441125e-16
6.652314405e-17
8.346704098e-17
1.112899694e-16
1.519311395e-16
2.066235648e-16
2.742309673e-16
3.491530889e-16
4.194138611e-16
4.661572348e-16
1.137596039e-16
1.425563263e-16
1.897315854e-16
2.584179107e-16
3.504773681e-16
4.637376149e-16
5.886023783e-16
7.050794026e-16
7.821865868e-16
1.939488417e-16
2.426660434e-16
3.222615371e-16
4.37725502e-16
5.917762204e-16
7.803092542e-16
9.869797335e-16
1.178663302e-15
1.304885394e-15
3.295475236e-16
4.115411617e-16
5.450990476e-16
7.380452631e-16
9.94173665e-16
1.305832875e-15
1.645381216e-15
1.958385234e-15
2.163348109e-15
5.578642768e-16
6.950744725e-16
9.178185965e-16
1.23814402e-15
1.661019327e-15
2.172390271e-15
2.725890976e-15
3.23285584e-15
3.562915026e-15
9.405200259e-16
1.168689366e-15
1.537716579e-15
2.065773601e-15
2.758742752e-15
3.591213144e-15
4.486115451e-15
5.300359784e-15
5.827357566e-15
1.578660255e-15
1.955503995e-15
2.562523882e-15
3.426490939e-15
4.553116971e-15
5.897208382e-15
7.33191777e-15
8.628535001e-15
9.4627834e-15
2.637221059e-15
3.255073548e-15
4.245996706e-15
5.648367142e-15
7.464983524e-15
9.616812507e-15
1.189724463e-14
1.394427745e-14
1.525365245e-14
4.383316545e-15
5.388482062e-15
6.993198268e-15
9.250731029e-15
1.215513403e-14
1.557052123e-14
1.916398041e-14
2.236812033e-14
2.440594115e-14
7.246446875e-15
8.868473433e-15
1.144562158e-14
1.504896224e-14
1.965252866e-14
2.502658097e-14
3.064053626e-14
3.561363375e-14
3.875910458e-14
1.191210827e-14
1.450758481e-14
1.861115131e-14
2.431292827e-14
3.154646052e-14
3.99296645e-14
4.862609255e-14
5.62813279e-14
6.109786034e-14
1.946605788e-14
2.358345175e-14
3.006085614e-14
3.900465884e-14
5.027244564e-14
6.323877655e-14
7.659904703e-14
8.828918111e-14
9.560806201e-14
3.161470148e-14
3.808940136e-14
4.822463009e-14
6.213226264e-14
7.953464424e-14
9.942338794e-14
1.197846427e-13
1.37499722e-13
1.485395784e-13
5.101888296e-14
6.111126498e-14
7.683200107e-14
9.827329446e-14
1.24926044e-13
1.55187602e-13
1.859798578e-13
2.126286121e-13
2.291652617e-13
8.179523499e-14
9.738960565e-14
1.215647325e-13
1.543437055e-13
1.94833612e-13
2.405214018e-13
2.867460524e-13
3.265547748e-13
3.511616878e-13
1.30263256e-13
1.541524741e-13
1.910165704e-13
2.407208079e-13
3.017520628e-13
3.702188997e-13
4.391250522e-13
4.982008429e-13
5.345886071e-13
2.060502874e-13
2.423405009e-13
2.980960846e-13
3.728741526e-13
4.641809533e-13
5.660605864e-13
6.680974016e-13
7.552208491e-13
8.087150543e-13
3.237144933e-13
3.783979652e-13
4.620659815e-13
5.7372224e-13
7.09351038e-13
8.599353986e-13
1.010088454e-12
1.137826243e-12
1.216039224e-12
5.051128424e-13
5.868730771e-13
7.114822032e-13
8.770082898e-13
1.077114892e-12
1.298287497e-12
1.517953892e-12
1.704219304e-12
1.817989067e-12
7.827920752e-13
9.041296137e-13
1.088392598e-12
1.332125078e-12
1.625498039e-12
1.948437877e-12
2.268042247e-12
2.538269952e-12
2.702971209e-12
1.204906728e-12
1.383715884e-12
1.654363454e-12
2.010983012e-12
2.43855063e-12
2.907493401e-12
3.370132147e-12
3.760310685e-12
3.997685667e-12
1.842233706e-12
2.10399455e-12
2.49902039e-12
3.017719126e-12
3.637420268e-12
4.314881439e-12
4.981383736e-12
5.542270637e-12
5.882975876e-12
2.798137145e-12
3.178953554e-12
3.752109548e-12
4.502360974e-12
5.395886289e-12
6.369888328e-12
7.325819815e-12
8.128777514e-12
8.615912985e-12
4.222644427e-12
4.773439437e-12
5.600440165e-12
6.679958478e-12
7.962044128e-12
9.356075314e-12
1.07213848e-11
1.186641573e-11
1.256038332e-11
6.332217934e-12
7.124505453e-12
8.311559055e-12
9.857234854e-12
1.168842106e-11
1.367509361e-11
1.561732691e-11
1.72440632e-11
1.822920119e-11
9.43737158e-12
1.057116527e-11
1.226665553e-11
1.446951792e-11
1.707358584e-11
1.989327658e-11
2.264558084e-11
2.494823224e-11
2.634182915e-11
1.398102062e-11
1.559562423e-11
1.800603704e-11
2.113163165e-11
2.481932384e-11
2.880550131e-11
3.269106693e-11
3.593872027e-11
3.79032839e-11
2.059139835e-11
2.288005311e-11
2.629157868e-11
3.070758106e-11
3.590871627e-11
4.152222351e-11
4.698741474e-11
5.155165681e-11
5.431171148e-11
3.015454211e-11
3.338419136e-11
3.81918527e-11
4.440527885e-11
5.171202994e-11
5.958735497e-11
6.724659358e-11
7.363914615e-11
7.750425688e-11
4.391275398e-11
4.845053755e-11
5.519722531e-11
6.390430893e-11
7.412929483e-11
8.513686903e-11
9.583332045e-11
1.047571254e-10
1.101532379e-10
6.35971296e-11
6.994568126e-11
7.937418293e-11
9.152694195e-11
1.057809364e-10
1.211107041e-10
1.359978577e-10
1.484158102e-10
1.559274364e-10
9.160440234e-11
1.004486498e-10
1.135707036e-10
1.304654185e-10
1.502607893e-10
1.715335173e-10
1.921837917e-10
2.094101642e-10
2.198364663e-10
1.312312195e-10
1.435001631e-10
1.616876559e-10
1.85081739e-10
2.124689848e-10
2.418829581e-10
2.704305721e-10
2.942510906e-10
3.08679436e-10
1.869824766e-10
2.039301891e-10
2.290346291e-10
2.612994848e-10
2.990454231e-10
3.395674212e-10
3.788939428e-10
4.117213454e-10
4.316223257e-10
2.649738813e-10
2.882846161e-10
3.227918928e-10
3.671104656e-10
4.189279012e-10
4.745386509e-10
5.285107259e-10
5.735833384e-10
6.009315807e-10
3.734521641e-10
4.053750887e-10
4.526034761e-10
5.132223774e-10
5.840623696e-10
6.600678294e-10
7.338374511e-10
7.954688694e-10
8.328941904e-10
5.234596167e-10
5.669793768e-10
6.313296997e-10
7.138768986e-10
8.102957861e-10
9.137164568e-10
1.014094764e-09
1.097983086e-09
1.1489567e-09
7.296728454e-10
7.887227279e-10
8.759903164e-10
9.878700822e-10
1.118484008e-09
1.258534922e-09
1.394450771e-09
1.508055974e-09
1.577116528e-09
1.011447889e-09
1.09117256e-09
1.208930809e-09
1.3598077e-09
1.53584737e-09
1.724521213e-09
1.907575525e-09
2.060573347e-09
2.153597426e-09
1.394104066e-09
1.501178575e-09
1.659243447e-09
1.861626381e-09
2.097603727e-09
2.350368361e-09
2.595494041e-09
2.800313741e-09
2.924834936e-09
1.910476148e-09
2.053486869e-09
2.264470044e-09
2.534405298e-09
2.848901109e-09
3.185519848e-09
3.51175422e-09
3.784205213e-09
3.949784414e-09
2.602757035e-09
2.792648063e-09
3.072603212e-09
3.430480952e-09
3.847057378e-09
4.292534724e-09
4.723905799e-09
5.083893421e-09
5.302540161e-09
3.524639328e-09
3.775224135e-09
4.144385201e-09
4.615856754e-09
5.164089779e-09
5.749735601e-09
6.316253885e-09
6.788576358e-09
7.075216005e-09
4.743741991e-09
5.072274263e-09
5.555875793e-09
6.172867385e-09
6.889480621e-09
7.654070699e-09
8.392803305e-09
9.008009312e-09
9.380983168e-09
6.344275718e-09
6.772064784e-09
7.401221654e-09
8.203013779e-09
9.13307536e-09
1.012406496e-08
1.108024792e-08
1.187551663e-08
1.235709131e-08
8.429856673e-09
8.982901484e-09
9.795508424e-09
1.082982835e-08
1.202794737e-08
1.330266736e-08
1.453078582e-08
1.555076937e-08
1.616761867e-08
1.112632362e-08
1.183592532e-08
1.28775163e-08
1.42015654e-08
1.573299489e-08
1.735972902e-08
1.89244657e-08
2.022201049e-08
2.100561902e-08
1.458435194e-08
1.548764983e-08
1.681213543e-08
1.849344627e-08
2.04349697e-08
2.249378155e-08
2.447070658e-08
2.610734817e-08
2.709427349e-08
1.898159682e-08
2.012195841e-08
2.179213978e-08
2.390913443e-08
2.634958876e-08
2.893274396e-08
3.140860009e-08
3.345471313e-08
3.468663641e-08
2.452404904e-08
2.595123504e-08
2.803898018e-08
3.068108856e-08
3.372136541e-08
3.693318769e-08
4.000562224e-08
4.25401074e-08
4.406360414e-08
3.144626358e-08
3.32162872e-08
3.580225579e-08
3.906945643e-08
4.282183293e-08
4.677784802e-08
5.055446288e-08
5.366387338e-08
5.552984964e-08
4.001013951e-08
4.218474972e-08
4.535756991e-08
4.935924234e-08
5.394592873e-08
5.877119395e-08
6.336783173e-08
6.714488318e-08
6.940764917e-08
5.050199966e-08
5.314774185e-08
5.700257995e-08
6.185560857e-08
6.740646274e-08
7.323305058e-08
7.877130591e-08
8.331277446e-08
8.602876446e-08
6.322784333e-08
6.641468776e-08
7.105120736e-08
7.687734866e-08
8.352679253e-08
9.049048766e-08
9.709452019e-08
1.024986055e-07
1.057247961e-07
7.850681674e-08
8.230639181e-08
8.782616593e-08
9.474877552e-08
1.026320434e-07
1.108684101e-07
1.186612257e-07
1.250245265e-07
1.28816646e-07
9.666314351e-08
1.011466593e-07
1.076501687e-07
1.157904679e-07
1.250394069e-07
1.346794713e-07
1.437789143e-07
1.511932214e-07
1.556038743e-07
1.180169492e-07
1.232529401e-07
1.308363496e-07
1.403094791e-07
1.510481894e-07
1.622140436e-07
1.727287908e-07
1.812779316e-07
1.863547707e-07
1.428745675e-07
1.489266122e-07
1.576785536e-07
1.685896988e-07
1.809303367e-07
1.937309936e-07
2.057568574e-07
2.155138302e-07
2.212978653e-07
1.715190002e-07
1.784435844e-07
1.884421826e-07
2.008830565e-07
2.149221089e-07
2.294499226e-07
2.430667608e-07
2.540914594e-07
2.606161806e-07
2.042012001e-07
2.120458758e-07
2.233562278e-07
2.374021561e-07
2.532174371e-07
2.695453018e-07
2.848146585e-07
2.971523762e-07
3.044423048e-07
2.411327617e-07
2.499347246e-07
2.626069941e-07
2.783147843e-07
2.95963333e-07
3.141428197e-07
3.311066955e-07
3.447867161e-07
3.528571254e-07
2.824804447e-07
2.922656043e-07
3.063338282e-07
3.237405265e-07
3.432574847e-07
3.633182163e-07
3.819981397e-07
3.970337023e-07
4.05890566e-07
3.283627589e-07
3.391453276e-07
3.546269191e-07
3.737495022e-07
3.951482025e-07
4.170976018e-07
4.374951839e-07
4.538839533e-07
4.635242932e-07
3.788486162e-07
3.906312718e-07
4.075275486e-07
4.283633651e-07
4.516356547e-07
4.754601267e-07
4.97558234e-07
5.152834023e-07
5.256960176e-07
4.339583415e-07
4.46732633e-07
4.65029198e-07
4.875570766e-07
5.126750647e-07
5.383417727e-07
5.621063774e-07
5.811383772e-07
5.923050591e-07
4.936651924e-07
5.074124401e-07
5.270807232e-07
5.512627292e-07
5.781808004e-07
6.056398928e-07
6.31022369e-07
6.513211589e-07
6.632191553e-07
5.578991582e-07
5.725915681e-07
5.935904178e-07
6.193738703e-07
6.480309475e-07
6.772178658e-07
7.041570419e-07
7.256734543e-07
7.382715579e-07
6.265513491e-07
6.421532535e-07
6.644307023e-07
6.917503335e-07
7.220722314e-07
7.529100006e-07
7.8133412e-07
8.040070789e-07
8.172687299e-07
6.994789423e-07
7.159480965e-07
7.39443187e-07
7.682233488e-07
8.001251359e-07
8.325264847e-07
8.623505742e-07
8.861111711e-07
8.999958294e-07
7.765104199e-07
7.937992946e-07
8.18443847e-07
8.486006842e-07
8.819878766e-07
9.158525333e-07
9.469835145e-07
9.717572788e-07
9.862213737e-07
8.574508724e-07
8.7550797e-07
9.01227938e-07
9.326683384e-07
9.67435335e-07
1.002656027e-06
1.034995186e-06
1.060703602e-06
1.075701384e-06
9.420868442e-07
9.608550211e-07
9.875681511e-07
1.020191531e-06
1.056227408e-06
1.092692078e-06
1.126136857e-06
1.152698709e-06
1.168183006e-06
1.030180157e-06
1.049599222e-06
1.077220093e-06
1.110922497e-06
1.148112984e-06
1.185706649e-06
1.220152221e-06
1.247484772e-06
1.263407642e-06
1.121478991e-06
1.141487363e-06
1.169928753e-06
1.204604345e-06
1.242833449e-06
1.281439752e-06
1.316780361e-06
1.344800357e-06
1.361113654e-06
1.215722493e-06
1.236258003e-06
1.265432004e-06
1.300974351e-06
1.340125709e-06
1.379628226e-06
1.415758314e-06
1.444382836e-06
1.461038676e-06
1.312644118e-06
1.333644684e-06
1.363463628e-06
1.399766782e-06
1.439724805e-06
1.480008132e-06
1.516823282e-06
1.545970449e-06
1.562921607e-06
1.411974498e-06
1.433378687e-06
1.463755925e-06
1.500715331e-06
1.541366148e-06
1.582316806e-06
1.619714521e-06
1.649304073e-06
1.666504307e-06
1.513443921e-06
1.535191416e-06
1.566041959e-06
1.603555203e-06
1.644787443e-06
1.68629462e-06
1.724174955e-06
1.75412873e-06
1.771533041e-06
1.616784448e-06
1.638816433e-06
1.670057482e-06
1.708024903e-06
1.749730331e-06
1.791686477e-06
1.829952557e-06
1.860194869e-06
1.877759716e-06
1.721731741e-06
1.743991212e-06
1.775542583e-06
1.813867761e-06
1.855941783e-06
1.89824309e-06
1.936801509e-06
1.967259451e-06
1.984942916e-06
1.828026608e-06
1.850458622e-06
1.882243077e-06
1.920833221e-06
1.963175279e-06
2.005722048e-06
2.044483187e-06
2.075086861e-06
2.092848775e-06
1.935416314e-06
1.957968173e-06
1.989911683e-06
2.028677923e-06
2.071191797e-06
2.113888717e-06
2.152766973e-06
2.183449661e-06
2.2012517e-06
2.043655668e-06
2.066277067e-06
2.098308996e-06
2.137166602e-06
2.179760624e-06
2.222516971e-06
2.261430926e-06
2.292129212e-06
2.309934959e-06
2.152507929e-06
2.17515105e-06
2.207204292e-06
2.246072816e-06
2.288660021e-06
2.331389791e-06
2.370262317e-06
2.400916161e-06
2.418691154e-06
2.261745528e-06
2.284365107e-06
2.316376166e-06
2.355179538e-06
2.39767775e-06
2.440299733e-06
2.479058053e-06
2.509610832e-06
2.52732258e-06
2.371150646e-06
2.393704002e-06
2.425613038e-06
2.464279608e-06
2.506611475e-06
2.549049285e-06
2.587624986e-06
2.618023504e-06
2.635641489e-06
2.480515649e-06
2.502962696e-06
2.53471353e-06
2.573176067e-06
2.61526906e-06
2.657451118e-06
2.695780138e-06
2.725974605e-06
2.743470277e-06
2.589643407e-06
2.61194664e-06
2.643486729e-06
2.681682394e-06
2.723468763e-06
2.765328255e-06
2.803350832e-06
2.833294829e-06
2.850641576e-06
2.698347505e-06
2.720471967e-06
2.751752363e-06
2.789622646e-06
2.831039351e-06
2.872514152e-06
2.910174757e-06
2.939825174e-06
2.956998293e-06
2.806452354e-06
2.828365594e-06
2.859340875e-06
2.896831516e-06
2.937820135e-06
2.978852713e-06
3.016099959e-06
3.045416926e-06
3.06239358e-06
2.913793232e-06
2.935465245e-06
2.966093436e-06
3.003154323e-06
3.04366094e-06
3.084198241e-06
3.120984778e-06
3.149931584e-06
3.166690752e-06
3.020216238e-06
3.041619404e-06
3.071861882e-06
3.108446936e-06
3.148422015e-06
3.188415337e-06
3.224697734e-06
3.253240729e-06
3.269763157e-06
3.1255782e-06
3.146687207e-06
3.1765086e-06
3.212575648e-06
3.251973894e-06
3.291378747e-06
3.327117366e-06
3.355225866e-06
3.371494004e-06
3.229746516e-06
3.250538284e-06
3.279906358e-06
3.315417005e-06
3.354197216e-06
3.392973174e-06
3.428132036e-06
3.455778215e-06
3.471776161e-06
3.332598958e-06
3.353052559e-06
3.381938103e-06
3.416857586e-06
3.454982502e-06
3.493093048e-06
3.527639697e-06
3.554798479e-06
3.570511915e-06
3.434023438e-06
3.454120007e-06
3.482496715e-06
3.516793761e-06
3.554229905e-06
3.591642279e-06
3.625547634e-06
3.652196583e-06
3.66761271e-06
3.533917733e-06
3.553640388e-06
3.581484736e-06
3.615131415e-06
3.651848933e-06
3.688533969e-06
3.721772184e-06
3.747891391e-06
3.762998863e-06
3.6321892e-06
3.65152295e-06
3.678814074e-06
3.711785651e-06
3.747758152e-06
3.783690117e-06
3.816238435e-06
3.8418104e-06
3.856599262e-06
3.728754452e-06
3.747686111e-06
3.774405685e-06
3.806680471e-06
3.841884865e-06
3.877041298e-06
3.908879906e-06
3.933889429e-06
3.948351048e-06
3.823539029e-06
3.84205713e-06
3.868189241e-06
3.899748447e-06
3.934164783e-06
3.968526337e-06
3.999638221e-06
4.024072288e-06
4.038199291e-06
3.91647705e-06
3.934571759e-06
3.960102788e-06
3.990930376e-06
4.024541686e-06
4.058091968e-06
4.08846277e-06
4.112310438e-06
4.126096643e-06
4.007510858e-06
4.025173886e-06
4.050092387e-06
4.08017493e-06
4.112967067e-06
4.145692484e-06
4.17531036e-06
4.198562651e-06
4.212003006e-06
4.096590654e-06
4.113815179e-06
4.138111761e-06
4.167438295e-06
4.199399785e-06
4.231289384e-06
4.260144867e-06
4.282794655e-06
4.295885176e-06
4.183674134e-06
4.200454712e-06
4.224121924e-06
4.252683814e-06
4.283805697e-06
4.314851022e-06
4.342936883e-06
4.364978789e-06
4.377716496e-06
4.268726113e-06
4.285058604e-06
4.30809082e-06
4.335881621e-06
4.366157309e-06
4.396352246e-06
4.423663363e-06
4.44509365e-06
4.457476508e-06
4.351718161e-06
4.367599645e-06
4.389992956e-06
4.417008279e-06
4.446433407e-06
4.475774046e-06
4.502307271e-06
4.52312374e-06
4.535150599e-06
4.432628229e-06
4.448056934e-06
4.469809038e-06
4.496046421e-06
4.524618707e-06
4.553103196e-06
4.57885723e-06
4.599059126e-06
4.610729663e-06
4.511440289e-06
4.526415512e-06
4.54752561e-06
4.572984393e-06
4.600703501e-06
4.62833191e-06
4.653307179e-06
4.672895086e-06
4.68420975e-06
4.588143967e-06
4.602666007e-06
4.623134702e-06
4.647815901e-06
4.674683305e-06
4.701457497e-06
4.72565603e-06
4.744631782e-06
4.75559174e-06
4.662734195e-06
4.676804278e-06
4.696633473e-06
4.720539664e-06
4.746558522e-06
4.77248202e-06
4.795907335e-06
4.814273922e-06
4.824881005e-06
4.735210856e-06
4.748831069e-06
4.768023876e-06
4.791159078e-06
4.816334106e-06
4.841411967e-06
4.864068957e-06
4.881830439e-06
4.892087091e-06
4.805578447e-06
4.818751674e-06
4.837312318e-06
4.859681882e-06
4.88401923e-06
4.908257932e-06
4.930152754e-06
4.947314176e-06
4.957223404e-06
4.873845747e-06
4.886575604e-06
4.904509336e-06
4.926119838e-06
4.949626977e-06
4.973034293e-06
4.994174268e-06
5.010741574e-06
5.020306904e-06
4.940025494e-06
4.952316267e-06
4.969629277e-06
4.990488416e-06
5.013174022e-06
5.035758915e-06
5.056152424e-06
5.072132382e-06
5.081357808e-06
5.004134069e-06
5.015990658e-06
5.032689993e-06
5.05280649e-06
5.074680341e-06
5.096452855e-06
5.11610924e-06
5.131509363e-06
5.140399308e-06
5.0661912e-06
5.077619062e-06
5.093712546e-06
5.113096049e-06
5.134168916e-06
5.155140072e-06
5.17406955e-06
5.188898025e-06
5.197457296e-06
5.126219662e-06
5.137224756e-06
5.152720917e-06
5.171381911e-06
5.191665464e-06
5.211847161e-06
5.230060728e-06
5.244326346e-06
5.252560095e-06
5.184245005e-06
5.194833742e-06
5.209741737e-06
5.227691454e-06
5.247198163e-06
5.266603089e-06
5.284112439e-06
5.29782453e-06
5.305738215e-06
5.240295277e-06
5.25047447e-06
5.264804017e-06
5.282054357e-06
5.300797407e-06
5.319438943e-06
5.336256386e-06
5.349424753e-06
5.357024104e-06
5.294400772e-06
5.304177592e-06
5.317938903e-06
5.334502353e-06
5.352495555e-06
5.370387694e-06
5.38652608e-06
5.399160943e-06
5.406451922e-06
5.346593782e-06
5.355975709e-06
5.369179432e-06
5.385068991e-06
5.4023267e-06
5.419483965e-06
5.434956613e-06
5.447068548e-06
5.454057325e-06
5.396908365e-06
5.40590315e-06
5.418560305e-06
5.433789415e-06
5.450326455e-06
5.466763823e-06
5.48158445e-06
5.493184339e-06
5.499877252e-06
5.445380121e-06
5.453995744e-06
5.46611767e-06
5.480700146e-06
5.496531738e-06
5.51226457e-06
5.526447227e-06
5.537546205e-06
5.543949738e-06
5.492045981e-06
5.500290616e-06
5.511888918e-06
5.525838888e-06
5.540980582e-06
5.556024551e-06
5.569583563e-06
5.580192973e-06
5.586313724e-06
5.536944014e-06
5.544825991e-06
5.55591249e-06
5.569244335e-06
5.583711942e-06
5.598082976e-06
5.611032884e-06
5.62116423e-06
5.627008888e-06
5.580113233e-06
5.587641009e-06
5.598227698e-06
5.610955994e-06
5.624765532e-06
5.638479746e-06
5.650835255e-06
5.660500163e-06
5.666075483e-06
5.621593427e-06
5.62877555e-06
5.638874548e-06
5.651014018e-06
5.664181651e-06
5.677255301e-06
5.689031229e-06
5.698241406e-06
5.703554187e-06
5.661424991e-06
5.668270076e-06
5.677893588e-06
5.689459052e-06
5.702001041e-06
5.714450465e-06
5.725661697e-06
5.734428898e-06
5.739485962e-06
5.699648776e-06
5.706165474e-06
5.715325757e-06
5.726332086e-06
5.738264739e-06
5.750106313e-06
5.76076776e-06
5.76910375e-06
5.773911925e-06
5.736305943e-06
5.742502923e-06
5.751212246e-06
5.761674324e-06
5.77301395e-06
5.784264044e-06
5.7943906e-06
5.802307127e-06
5.806873227e-06
5.771437836e-06
5.777323753e-06
5.78559437e-06
5.795527051e-06
5.806289923e-06
5.816964857e-06
5.826571366e-06
5.834080132e-06
5.838410941e-06
5.805085851e-06
5.810669333e-06
5.818513449e-06
5.827931525e-06
5.838133838e-06
5.848249848e-06
5.857351066e-06
5.8644637e-06
5.868565958e-06
5.83729133e-06
5.842580953e-06
5.8500107e-06
5.858928866e-06
5.868586701e-06
5.878159902e-06
5.886770472e-06
5.893498505e-06
5.897378892e-06
5.868095448e-06
5.873099721e-06
5.88012713e-06
5.888559956e-06
5.89768925e-06
5.906735603e-06
5.914870019e-06
5.921224866e-06
5.924889991e-06
5.897539117e-06
5.902266463e-06
5.908903443e-06
5.916865343e-06
5.925481856e-06
5.934017141e-06
5.941689727e-06
5.947682658e-06
5.951139048e-06
5.925662887e-06
5.93012163e-06
5.936379943e-06
5.943885152e-06
5.952004442e-06
5.960044224e-06
5.967269104e-06
5.972911232e-06
5.976165317e-06
5.952506861e-06
5.956705207e-06
5.96259645e-06
5.969658994e-06
5.977296386e-06
5.984855995e-06
5.99164707e-06
5.996949324e-06
6.00000743e-06
5.978110597e-06
5.982056623e-06
5.987592205e-06
5.994225879e-06
6.001396437e-06
6.008490933e-06
6.014861855e-06
6.019834966e-06
6.022703296e-06
6.002513015e-06
6.006214653e-06
6.011405772e-06
6.017624113e-06
6.024342611e-06
6.030986757e-06
6.036950901e-06
6.041605376e-06
6.044290004e-06
6.025752293e-06
6.029217309e-06
6.034074931e-06
6.039891185e-06
6.046172075e-06
6.052380303e-06
6.057950734e-06
6.06229683e-06
6.064803681e-06
6.047865734e-06
6.051101714e-06
6.055636542e-06
6.061063634e-06
6.066921005e-06
6.072707371e-06
6.077896807e-06
6.081944499e-06
6.084279332e-06
6.068889619e-06
6.071903941e-06
6.076126381e-06
6.081176865e-06
6.086624391e-06
6.092002528e-06
6.096823285e-06
6.100582226e-06
6.102750607e-06
6.088858998e-06
6.091658801e-06
6.095578914e-06
6.100264919e-06
6.105315794e-06
6.110298834e-06
6.114762764e-06
6.118242224e-06
6.120249492e-06
6.107807423e-06
6.110399565e-06
6.114027006e-06
6.118360153e-06
6.123026998e-06
6.127627479e-06
6.13174587e-06
6.134954662e-06
6.136805882e-06
6.12576658e-06
6.128157578e-06
6.131501509e-06
6.135492804e-06
6.13978754e-06
6.144017271e-06
6.14780072e-06
6.150747088e-06
6.152446984e-06
6.142765793e-06
6.144961743e-06
6.148030712e-06
6.151690392e-06
6.155624065e-06
6.159493937e-06
6.162952168e-06
6.16564364e-06
6.167196502e-06
6.158831349e-06
6.160837809e-06
6.163639587e-06
6.166976912e-06
6.17055945e-06
6.174079176e-06
6.17722079e-06
6.179663964e-06
6.181073523e-06
6.173985586e-06
6.175807427e-06
6.17834878e-06
6.181371742e-06
6.184611617e-06
6.18778938e-06
6.19062151e-06
6.192821771e-06
6.194091024e-06
6.188245688e-06
6.189886879e-06
6.192173259e-06
6.194888191e-06
6.197791973e-06
6.200633938e-06
6.203161787e-06
6.205122918e-06
6.206253891e-06
6.201622096e-06
6.203085426e-06
6.205120558e-06
6.20753161e-06
6.210103353e-06
6.212613029e-06
6.214839246e-06
6.216562913e-06
6.217556347e-06
6.214116462e-06
6.215403164e-06
6.2171885e-06
6.219296948e-06
6.221537396e-06
6.223714786e-06
6.225638653e-06
6.227123723e-06
6.227978667e-06
6.225719038e-06
6.226828308e-06
6.228362322e-06
6.23016567e-06
6.232071225e-06
6.233911731e-06
6.235528107e-06
6.236769779e-06
6.237483055e-06
6.23640543e-06
6.237333809e-06
6.238611093e-06
6.240101934e-06
6.241663339e-06
6.243156373e-06
6.244454366e-06
6.245443066e-06
6.246008603e-06
6.24613261e-06
6.24687321e-06
6.247883346e-06
6.249047936e-06
6.250248643e-06
6.251375902e-06
6.252337214e-06
6.253057222e-06
6.253465232e-06
6.254834128e-06
6.255375687e-06
6.256101864e-06
6.256918382e-06
6.257732555e-06
6.258465915e-06
6.259062833e-06
6.259490631e-06
6.259726603e-06
6.262414493e-06
6.262740229e-06
6.263157587e-06
6.263594052e-06
6.263984183e-06
6.264283203e-06
6.264476216e-06
6.264578524e-06
6.264622048e-06
6.268742709e-06
6.268828992e-06
6.26890268e-06
6.268914514e-06
6.268828654e-06
6.26863767e-06
6.268372717e-06
6.26810423e-06
6.267927637e-06
6.273645067e-06
6.273459883e-06
6.273142846e-06
6.272670109e-06
6.272038727e-06
6.271283583e-06
6.270488957e-06
6.269789816e-06
6.269356667e-06
6.276897307e-06
6.276398566e-06
6.275629094e-06
6.274593436e-06
6.273325972e-06
6.271910445e-06
6.270493434e-06
6.269286497e-06
6.268549948e-06
6.278216438e-06
6.277350148e-06
6.276049258e-06
6.274350674e-06
6.272331899e-06
6.270133953e-06
6.267977341e-06
6.266165344e-06
6.265066475e-06
6.277252552e-06
6.275950951e-06
6.274019706e-06
6.271533242e-06
6.268619596e-06
6.265487638e-06
6.262446243e-06
6.259909039e-06
6.258375225e-06
6.273581156e-06
6.271760891e-06
6.269077817e-06
6.265650426e-06
6.261666556e-06
6.257415964e-06
6.253313475e-06
6.249905535e-06
6.247848996e-06
6.266696645e-06
6.264257144e-06
6.260675944e-06
6.256123752e-06
6.250859572e-06
6.245269811e-06
6.23989624e-06
6.235444701e-06
6.232761405e-06
6.256007693e-06
6.2528299e-06
6.248177725e-06
6.242284033e-06
6.23549268e-06
6.228305417e-06
6.221415552e-06
6.215719135e-06
6.21228824e-06
6.240835453e-06
6.236781134e-06
6.230857711e-06
6.223372117e-06
6.214769236e-06
6.20568792e-06
6.19700123e-06
6.189830395e-06
6.185514457e-06
6.220415525e-06
6.215327387e-06
6.207905337e-06
6.198544405e-06
6.187809258e-06
6.176500664e-06
6.165703134e-06
6.156801866e-06
6.151448055e-06
6.193904719e-06
6.187607566e-06
6.178434283e-06
6.166884194e-06
6.153663078e-06
6.139761337e-06
6.126509718e-06
6.115599335e-06
6.10904188e-06
6.160393518e-06
6.152696715e-06
6.141498137e-06
6.127419747e-06
6.111332204e-06
6.09444578e-06
6.078374671e-06
6.065159987e-06
6.05722405e-06
6.118925073e-06
6.109626507e-06
6.096113076e-06
6.07914974e-06
6.059797906e-06
6.039519891e-06
6.02025198e-06
6.004430058e-06
5.994937164e-06
6.068521205e-06
6.057412897e-06
6.041287915e-06
6.021076282e-06
5.998057617e-06
5.973979509e-06
5.951139078e-06
5.932410643e-06
5.92118569e-06
6.008215515e-06
5.995090941e-06