/*--------------------------------*- C++ -*----------------------------------*\
| =========                 |                                                 |
| \\      /  F ield         | OpenFOAM: The Open Source CFD Toolbox           |
|  \\    /   O peration     | Version:  2212                                  |
|   \\  /    A nd           | Website:  www.openfoam.com                      |
|    \\/     M anipulation  |                                                 |
\*---------------------------------------------------------------------------*/
FoamFile
{
    version     2.0;
    format      ascii;
    arch        "LSB;label=32;scalar=64";
    class       volScalarField;
    location    "23.25000000";
    object      I-C4H51_0;
}
// * * * * * * * * * * * * * * * * * * * * * * * * * * * * * * * * * * * * * //

dimensions      [0 0 0 0 0 0 0];

internalField   nonuniform List<scalar> 
3000
(
1.644256791e-26
1.847121781e-26
2.153240496e-26
2.561162565e-26
3.066726322e-26
3.656181598e-26
4.293999894e-26
4.902538261e-26
5.332930084e-26
6.173247636e-26
6.962888505e-26
8.153934372e-26
9.744631047e-26
1.17333516e-25
1.410889691e-25
1.683002891e-25
1.975840197e-25
2.235359803e-25
1.382712922e-25
1.571804014e-25
1.859743653e-25
2.250701855e-25
2.751711756e-25
3.370018444e-25
4.103229118e-25
4.910078436e-25
5.600024883e-25
2.633691378e-25
3.025223977e-25
3.630170588e-25
4.468999128e-25
5.571427411e-25
6.965444e-25
8.643492578e-25
1.047101114e-24
1.194639564e-24
4.676643529e-25
5.437794444e-25
6.632345472e-25
8.320970363e-25
1.058310453e-24
1.348212057e-24
1.696969979e-24
2.067320772e-24
2.351635209e-24
8.041774183e-25
9.470345448e-25
1.174448481e-24
1.500929674e-24
1.943893662e-24
2.51447722e-24
3.195648776e-24
3.901486915e-24
4.42369824e-24
1.36518603e-24
1.627594045e-24
2.050189574e-24
2.663729719e-24
3.50237925e-24
4.582799024e-24
5.860309115e-24
7.158259666e-24
8.094804155e-24
2.310325409e-24
2.785213929e-24
3.556803892e-24
4.685701397e-24
6.234867564e-24
8.226590177e-24
1.056094485e-23
1.289813488e-23
1.455641898e-23
3.916168714e-24
4.766509529e-24
6.15706956e-24
8.201887133e-24
1.101295406e-23
1.461726366e-23
1.88111901e-23
2.296651808e-23
2.588223755e-23
6.661628944e-24
8.172285623e-24
1.065397784e-23
1.43151223e-23
1.935130258e-23
2.579169598e-23
3.324410934e-23
4.057376524e-23
4.567860527e-23
1.137650303e-23
1.404445701e-23
1.844129828e-23
2.494096086e-23
3.388206995e-23
4.529058271e-23
5.843729403e-23
7.130106198e-23
8.021516006e-23
1.9498901e-23
2.418993293e-23
3.193783723e-23
4.340577944e-23
5.917817678e-23
7.92671593e-23
1.023469354e-22
1.248484291e-22
1.40386932e-22
3.352210332e-23
4.174308294e-23
5.53417867e-23
7.548576613e-23
1.03183101e-22
1.384119833e-22
1.787966846e-22
2.18068802e-22
2.451223313e-22
5.776993197e-23
7.21417834e-23
9.59399563e-23
1.312105158e-22
1.796933909e-22
2.412955234e-22
3.118001748e-22
3.802365012e-22
4.272982168e-22
9.97424857e-23
1.248217585e-22
1.663807785e-22
2.279944108e-22
3.126684944e-22
4.201704263e-22
5.430635371e-22
6.621918478e-22
7.440090576e-22
1.724517507e-22
2.161574463e-22
2.886198583e-22
3.960723725e-22
5.437121088e-22
7.310429867e-22
9.450068187e-22
1.152211106e-21
1.29439192e-21
2.984750597e-22
3.745662593e-22
5.00768131e-22
6.879339202e-22
9.450544962e-22
1.271145943e-21
1.643347861e-21
2.003521244e-21
2.25049827e-21
5.169893941e-22
6.493668284e-22
8.689765695e-22
1.194694327e-21
1.642077311e-21
2.209246947e-21
2.856263538e-21
3.481989929e-21
3.910815308e-21
8.959762924e-22
1.126149086e-21
1.50805681e-21
2.074495715e-21
2.85238128e-21
3.838201059e-21
4.962272659e-21
6.048784386e-21
6.793025648e-21
1.553391958e-21
1.953435037e-21
2.617247033e-21
3.601758102e-21
4.953509695e-21
6.6660009e-21
8.617773872e-21
1.050339523e-20
1.179440294e-20
2.693869057e-21
3.388897534e-21
4.542205172e-21
6.252520437e-21
8.600248636e-21
1.157339651e-20
1.496037392e-20
1.823087713e-20
2.046896198e-20
4.672300258e-21
5.879420677e-21
7.882362106e-21
1.085215385e-20
1.492752301e-20
2.008633216e-20
2.596006925e-20
3.162853715e-20
3.550546523e-20
8.103924081e-21
1.019970434e-20
1.367673186e-20
1.883089944e-20
2.590110576e-20
3.484627939e-20
4.502471702e-20
5.484074799e-20
6.1549972e-20
1.405467337e-20
1.769186537e-20
2.372495691e-20
3.266504794e-20
4.49224901e-20
6.04204778e-20
7.804162042e-20
9.502123595e-20
1.066173792e-19
2.436983032e-20
3.067898746e-20
4.114106972e-20
5.663716837e-20
7.786983038e-20
1.046941069e-19
1.351641237e-19
1.644945621e-19
1.845054955e-19
4.224049695e-20
5.317758847e-20
7.130673914e-20
9.814316817e-20
1.348846792e-19
1.812550347e-19
2.338652556e-19
2.8444298e-19
3.189068022e-19
7.317783088e-20
9.212212799e-20
1.235077866e-19
1.699326947e-19
2.334284021e-19
3.134635138e-19
4.041354719e-19
4.911664963e-19
5.503777181e-19
1.266843106e-19
1.594637165e-19
2.137350568e-19
2.939360255e-19
4.03489995e-19
5.413664562e-19
6.972861833e-19
8.466551038e-19
9.480848263e-19
2.191121536e-19
2.757553069e-19
3.694604131e-19
5.077738025e-19
6.964183936e-19
9.333836998e-19
1.200775525e-18
1.456333813e-18
1.629474847e-18
3.785354489e-19
4.762530966e-19
6.377461635e-19
8.757775801e-19
1.199821683e-18
1.605942387e-18
2.063013828e-18
2.498639901e-18
2.79297549e-18
6.530224981e-19
8.212554806e-19
1.09894788e-18
1.507545328e-18
2.062547807e-18
2.756244082e-18
3.534564828e-18
4.273941674e-18
4.77192629e-18
1.124620699e-18
1.413538286e-18
1.889742852e-18
2.588992992e-18
3.536284117e-18
4.716541968e-18
6.036032415e-18
7.284765966e-18
8.122753803e-18
1.93288619e-18
2.427600248e-18
3.241598005e-18
4.433966819e-18
6.04431452e-18
8.043318771e-18
1.026894955e-17
1.236618631e-17
1.37678098e-17
3.314266616e-18
4.158432794e-18
5.544605945e-18
7.569399939e-18
1.029424505e-17
1.366253047e-17
1.739524433e-17
2.089572392e-17
2.322453729e-17
5.667646695e-18
7.102335502e-18
9.452666028e-18
1.287470478e-17
1.746122219e-17
2.31039894e-17
2.932490809e-17
3.512793909e-17
3.896951543e-17
9.662776319e-18
1.208992842e-17
1.605547568e-17
2.180803502e-17
2.948303458e-17
3.887598604e-17
4.917256754e-17
5.872248235e-17
6.501102457e-17
1.641847629e-17
2.05035023e-17
2.715752367e-17
3.677034574e-17
4.953098298e-17
6.505823396e-17
8.197495578e-17
9.7569206e-17
1.077807118e-16
2.779351345e-17
3.462949798e-17
4.572688981e-17
6.168590349e-17
8.275407932e-17
1.082312168e-16
1.358073099e-16
1.610649288e-16
1.775088869e-16
4.68579312e-17
5.822561551e-17
7.66110151e-17
1.029194768e-16
1.374440634e-16
1.789187712e-16
2.235039103e-16
2.640705668e-16
2.903262452e-16
7.865095612e-17
9.742578875e-17
1.276682843e-16
1.707122038e-16
2.268421112e-16
2.938064014e-16
3.652853795e-16
4.298844295e-16
4.714476985e-16
1.313899964e-16
1.621721964e-16
2.115412414e-16
2.814090891e-16
3.719151581e-16
4.791218986e-16
5.927357723e-16
6.947213898e-16
7.599560067e-16
2.183832381e-16
2.68461884e-16
3.484108881e-16
4.608839873e-16
6.055848902e-16
7.757435581e-16
9.547738976e-16
1.114407835e-15
1.215934389e-15
3.610295113e-16
4.41841015e-16
5.702378507e-16
7.497607687e-16
9.791159699e-16
1.246857458e-15
1.526550956e-15
1.774316038e-15
1.931026723e-15
5.934826333e-16
7.227928115e-16
9.272378638e-16
1.211307465e-15
1.57169047e-15
1.989350822e-15
2.422615722e-15
2.804006892e-15
3.043970977e-15
9.698403072e-16
1.174974766e-15
1.497687761e-15
1.943279045e-15
2.504652691e-15
3.150648048e-15
3.816268267e-15
4.398679674e-15
4.763311414e-15
1.575127671e-15
1.89770721e-15
2.402658519e-15
3.09555379e-15
3.96255823e-15
4.953431628e-15
5.96784187e-15
6.850415016e-15
7.400424285e-15
2.541935731e-15
3.044755559e-15
3.827986149e-15
4.896217318e-15
6.22408087e-15
7.731728182e-15
9.265805101e-15
1.059344435e-14
1.141729588e-14
4.075419843e-15
4.852362574e-15
6.056807206e-15
7.689894711e-15
9.707129042e-15
1.19833004e-14
1.428619369e-14
1.626942963e-14
1.749531647e-14
6.490568132e-15
7.68078736e-15
9.517426391e-15
1.199374995e-14
1.503434844e-14
1.84453303e-14
2.187813966e-14
2.482116964e-14
2.663391071e-14
1.026736338e-14
1.207545615e-14
1.485332736e-14
1.857885885e-14
2.312775267e-14
2.820324218e-14
3.328642263e-14
3.762655666e-14
4.029137206e-14
1.613189077e-14
1.88564555e-14
2.302504486e-14
2.858789891e-14
3.534481999e-14
4.2846486e-14
5.032633873e-14
5.668932992e-14
6.058523399e-14
2.517486278e-14
2.9248657e-14
3.5457198e-14
4.370395466e-14
5.367293842e-14
6.469063965e-14
7.563255144e-14
8.491012797e-14
9.057654665e-14
3.902174586e-14
4.50678824e-14
5.424899204e-14
6.639226958e-14
8.100734493e-14
9.709365688e-14
1.130120865e-13
1.264698688e-13
1.346716174e-13
6.008027954e-14
6.899103385e-14
8.247728692e-14
1.00245399e-13
1.215453562e-13
1.449027027e-13
1.679421437e-13
1.873699158e-13
1.99187743e-13
9.189508743e-14
1.049416835e-13
1.246279995e-13
1.504732347e-13
1.813446509e-13
2.150853399e-13
2.482716307e-13
2.761920325e-13
2.931483359e-13
1.396544408e-13
1.586396968e-13
1.872089735e-13
2.245967779e-13
2.691111895e-13
3.176179573e-13
3.652065837e-13
4.051643093e-13
4.293973707e-13
2.109116923e-13
2.383817951e-13
2.796177535e-13
3.334274016e-13
3.973081394e-13
4.667330604e-13
5.346909437e-13
5.916527089e-13
6.26157702e-13
3.166088126e-13
3.561465594e-13
4.153666818e-13
4.924453755e-13
5.837127313e-13
6.826663207e-13
7.79337015e-13
8.602436948e-13
9.092053752e-13
4.725242715e-13
5.291544295e-13
6.138080877e-13
7.237359536e-13
8.535972989e-13
9.940986796e-13
1.131119158e-12
1.245646547e-12
1.314897653e-12
7.013161674e-13
7.82065022e-13
9.025586429e-13
1.058703371e-12
1.242779395e-12
1.441564362e-12
1.635126392e-12
1.796731437e-12
1.894383007e-12
1.035399707e-12
1.150066594e-12
1.320900764e-12
1.541869855e-12
1.80188174e-12
2.082201054e-12
2.354783952e-12
2.582140979e-12
2.719447093e-12
1.520993983e-12
1.68321438e-12
1.924549684e-12
2.236188663e-12
2.602277416e-12
2.996366433e-12
3.379114249e-12
3.698083345e-12
3.890625193e-12
2.223808108e-12
2.452518268e-12
2.792331187e-12
3.230472453e-12
3.744386241e-12
4.296854857e-12
4.832835291e-12
5.279157225e-12
5.548462195e-12
3.237027723e-12
3.55848374e-12
4.03553679e-12
4.649783397e-12
5.369260231e-12
6.141748336e-12
6.890421984e-12
7.513408486e-12
7.889163884e-12
4.692532955e-12
5.143098537e-12
5.811038975e-12
6.669982214e-12
7.674787653e-12
8.752371447e-12
9.795734048e-12
1.066333233e-11
1.118641887e-11
6.776660542e-12
7.406666876e-12
8.339699837e-12
9.538137884e-12
1.09384139e-11
1.243845891e-11
1.388952322e-11
1.509530354e-11
1.582197621e-11
9.752360082e-12
1.063147266e-11
1.193225006e-11
1.360122785e-11
1.554910773e-11
1.763358936e-11
1.964819386e-11
2.132108089e-11
2.232879165e-11
1.399034645e-11
1.521507013e-11
1.70257311e-11
1.934660693e-11
2.205251317e-11
2.494533731e-11
2.773878307e-11
3.005679657e-11
3.145243106e-11
2.001289326e-11
2.171714158e-11
2.423488613e-11
2.745922116e-11
3.121498236e-11
3.5226648e-11
3.909749298e-11
4.230749103e-11
4.423925227e-11
2.855533734e-11
3.092543258e-11
3.442468182e-11
3.890264871e-11
4.411468112e-11
4.967789338e-11
5.504254599e-11
5.948913153e-11
6.216405062e-11
4.065227446e-11
4.394839255e-11
4.881258348e-11
5.503393378e-11
6.227140498e-11
6.999317249e-11
7.743693683e-11
8.360548951e-11
8.7315702e-11
5.775791886e-11
6.234491884e-11
6.911240807e-11
7.776597334e-11
8.783128363e-11
9.856982696e-11
1.089229761e-10
1.175043917e-10
1.226670051e-10
8.191323569e-11
8.830507736e-11
9.773557595e-11
1.097959182e-10
1.238281272e-10
1.388067147e-10
1.532581135e-10
1.6524635e-10
1.724639796e-10
1.159761953e-10
1.248997642e-10
1.38070203e-10
1.549233619e-10
1.745492991e-10
1.955237967e-10
2.157893867e-10
2.326271203e-10
2.427788288e-10
1.639356009e-10
1.764216289e-10
1.948631826e-10
2.18487201e-10
2.460394929e-10
2.755413696e-10
3.041097469e-10
3.279016131e-10
3.422765479e-10
2.313328061e-10
2.488434049e-10
2.747340844e-10
3.079533752e-10
3.467784542e-10
3.884588962e-10
4.289397382e-10
4.627553185e-10
4.832428219e-10
3.258181195e-10
3.504216434e-10
3.868504456e-10
4.33684715e-10
4.885652042e-10
5.476666092e-10
6.052674016e-10
6.535550689e-10
6.829039783e-10
4.578679014e-10
4.924714994e-10
5.437891092e-10
6.099154146e-10
6.876274999e-10
7.71602918e-10
8.537521434e-10
9.228773348e-10
9.650318548e-10
6.416815848e-10
6.903286657e-10
7.625942649e-10
8.559323849e-10
9.659469064e-10
1.08523273e-09
1.202350292e-09
1.301255215e-09
1.361763671e-09
8.962618162e-10
9.644944485e-10
1.066016449e-09
1.197430803e-09
1.352744394e-09
1.521664513e-09
1.688050936e-09
1.82900608e-09
1.915481641e-09
1.246652418e-09
1.341926541e-09
1.483875936e-09
1.667960839e-09
1.886010015e-09
2.123751065e-09
2.358527169e-09
2.557910097e-09
2.680500713e-09
1.725266273e-09
1.857390666e-09
2.054439845e-09
2.310320486e-09
2.613890053e-09
2.945441737e-09
3.273425615e-09
3.552425029e-09
3.724227226e-09
2.37318023e-09
2.554730343e-09
2.82564091e-09
3.177685286e-09
3.595680074e-09
4.052590987e-09
4.504959383e-09
4.890071695e-09
5.127405605e-09
3.24121384e-09
3.487852663e-09
3.855909343e-09
4.334215204e-09
4.902132152e-09
5.522902988e-09
6.137462712e-09
6.660635545e-09
6.983093384e-09
4.390556391e-09
4.72118217e-09
5.214354585e-09
5.854861327e-09
6.614790242e-09
7.444726342e-09
8.265630669e-09
8.963922651e-09
9.394115298e-09
5.892680744e-09
6.329321423e-09
6.980040051e-09
7.824128612e-09
8.824135155e-09
9.914518576e-09
1.099131108e-08
1.190598433e-08
1.246894253e-08
7.828301843e-09
8.395693261e-09
9.240155804e-09
1.033364546e-08
1.162645302e-08
1.303297186e-08
1.441892375e-08
1.559396062e-08
1.631619503e-08
1.028521575e-08
1.101003553e-08
1.208701509e-08
1.347854203e-08
1.511952368e-08
1.690000297e-08
1.864981649e-08
2.012994249e-08
2.10382217e-08
1.335499126e-08
1.426476876e-08
1.561396778e-08
1.735282409e-08
1.93974249e-08
2.160901788e-08
2.377607597e-08
2.560445644e-08
2.67244119e-08
1.712866231e-08
1.825043757e-08
1.991050646e-08
2.204410934e-08
2.454491768e-08
2.724101158e-08
2.987443509e-08
3.209027316e-08
3.344497425e-08
2.169174978e-08
2.305059786e-08
2.505699582e-08
2.762822095e-08
3.063196756e-08
3.385910479e-08
3.700090804e-08
3.963718594e-08
4.124584677e-08
2.711908037e-08
2.873663879e-08
3.111953605e-08
3.416416225e-08
3.770892058e-08
4.150400799e-08
4.518659188e-08
4.826811983e-08
5.014480903e-08
3.346992578e-08
3.536304984e-08
3.814544031e-08
4.168989322e-08
4.580265888e-08
5.019060526e-08
5.443467423e-08
5.797632626e-08
6.012930176e-08
4.07839321e-08
4.29635492e-08
4.615964651e-08
5.021907617e-08
5.491368257e-08
5.990531207e-08
6.471775805e-08
6.87232269e-08
7.115395751e-08
4.907814938e-08
5.154828652e-08
5.516210862e-08
5.97385531e-08
6.501345061e-08
7.060268382e-08
7.597410834e-08
8.043314932e-08
8.313459963e-08
5.834523427e-08
6.110205741e-08
6.512589442e-08
7.020581265e-08
7.604021743e-08
8.219933509e-08
8.80971414e-08
9.297804917e-08
9.592902418e-08
6.855263105e-08
7.15831028e-08
7.599479514e-08
8.154493011e-08
8.789211156e-08
9.455953113e-08
1.009093096e-07
1.061343299e-07
1.092770241e-07
7.964151825e-08
8.292167893e-08
8.768146364e-08
9.364167056e-08
1.004148127e-07
1.074690427e-07
1.141072365e-07
1.194735564e-07
1.226116087e-07
9.152661057e-08
9.501868301e-08
1.000632121e-07
1.063356078e-07
1.1338704e-07
1.206048531e-07
1.271886202e-07
1.321571386e-07
1.344141139e-07
1.040910355e-07
1.077387508e-07
1.129726404e-07
1.19407482e-07
1.265067595e-07
1.335319734e-07
1.39502193e-07
1.43189353e-07
1.44742387e-07
1.171715284e-07
1.208907343e-07
1.261699003e-07
1.325382428e-07
1.39331071e-07
1.456175224e-07
1.501020245e-07
1.527885998e-07
1.538771592e-07
1.30520053e-07
1.34178186e-07
1.392737896e-07
1.452036719e-07
1.511117734e-07
1.55831835e-07
1.592456422e-07
1.612923513e-07
1.620835963e-07
1.437123434e-07
1.470825754e-07
1.516136618e-07
1.564415853e-07
1.608813303e-07
1.645862043e-07
1.673265023e-07
1.689724322e-07
1.695790114e-07
1.55937521e-07
1.585634113e-07
1.619581633e-07
1.656627725e-07
1.692274452e-07
1.723058845e-07
1.746305558e-07
1.760315964e-07
1.765278029e-07
1.656163743e-07
1.67692022e-07
1.704480866e-07
1.735304621e-07
1.765838968e-07
1.792855043e-07
1.813592006e-07
1.826151585e-07
1.830490693e-07
1.736077488e-07
1.75379315e-07
1.777734118e-07
1.805000628e-07
1.83252615e-07
1.857283964e-07
1.876524406e-07
1.888254451e-07
1.892274567e-07
1.805676382e-07
1.821653329e-07
1.843478625e-07
1.868633472e-07
1.894338074e-07
1.917718291e-07
1.93606482e-07
1.947340658e-07
1.951229233e-07
1.86875465e-07
1.883678022e-07
1.904196761e-07
1.92802518e-07
1.952569284e-07
1.975072066e-07
1.99287242e-07
2.003914071e-07
2.007783752e-07
1.927504898e-07
1.941735575e-07
1.961380574e-07
1.98430693e-07
2.008052375e-07
2.029955049e-07
2.047403812e-07
2.058335914e-07
2.062252331e-07
1.983205796e-07
1.996934204e-07
2.015936014e-07
2.038187808e-07
2.061329557e-07
2.082781695e-07
2.099983515e-07
2.110873293e-07
2.114872921e-07
2.036617705e-07
2.049944554e-07
2.068425545e-07
2.09012347e-07
2.112764265e-07
2.133843362e-07
2.150850972e-07
2.161731552e-07
2.165832874e-07
2.088207335e-07
2.101186148e-07
2.11921113e-07
2.140418374e-07
2.162610576e-07
2.18335404e-07
2.200190628e-07
2.211075065e-07
2.215285449e-07
2.13827418e-07
2.150933752e-07
2.16853715e-07
2.189286269e-07
2.211055102e-07
2.231478431e-07
2.248150635e-07
2.259040274e-07
2.263360191e-07
2.187021217e-07
2.199377514e-07
2.216577915e-07
2.236885436e-07
2.258241844e-07
2.278348872e-07
2.294854303e-07
2.305743766e-07
2.310169395e-07
2.234594355e-07
2.246656809e-07
2.263464758e-07
2.283339096e-07
2.304286831e-07
2.324075508e-07
2.340407105e-07
2.351287288e-07
2.355812161e-07
2.281104496e-07
2.292879347e-07
2.309301513e-07
2.328747266e-07
2.349286793e-07
2.368752447e-07
2.384901022e-07
2.395760932e-07
2.400376997e-07
2.326640012e-07
2.338132084e-07
2.354173489e-07
2.373193756e-07
2.393324408e-07
2.412461591e-07
2.428417334e-07
2.439245227e-07
2.443943559e-07
2.371273966e-07
2.382487597e-07
2.398152801e-07
2.416750433e-07
2.436471588e-07
2.455275119e-07
2.471028479e-07
2.481812587e-07
2.486583867e-07
2.41506842e-07
2.426007949e-07
2.441301665e-07
2.459479917e-07
2.47879163e-07
2.49725717e-07
2.512799378e-07
2.523528365e-07
2.528363219e-07
2.458077126e-07
2.468747133e-07
2.483674532e-07
2.501437389e-07
2.5203407e-07
2.53846505e-07
2.553788411e-07
2.564451661e-07
2.56934089e-07
2.500347294e-07
2.510752702e-07
2.525319543e-07
2.542671847e-07
2.561168915e-07
2.578950146e-07
2.594048184e-07
2.604635969e-07
2.60957071e-07
2.54192081e-07
2.552066914e-07
2.566279568e-07
2.583227045e-07
2.601321159e-07
2.618758633e-07
2.633626139e-07
2.644129708e-07
2.649101545e-07
2.582835111e-07
2.592727561e-07
2.606592982e-07
2.623142195e-07
2.640837725e-07
2.657932053e-07
2.67256507e-07
2.682976685e-07
2.687977708e-07
2.623123839e-07
2.6327686e-07
2.646294263e-07
2.662452531e-07
2.679754836e-07
2.696507788e-07
2.710903557e-07
2.72121648e-07
2.726239324e-07
2.662817344e-07
2.672220641e-07
2.685414465e-07
2.701189758e-07
2.718105069e-07
2.734519469e-07
2.748676339e-07
2.7588848e-07
2.76392266e-07
2.701943075e-07
2.711111336e-07
2.723981591e-07
2.739382425e-07
2.755917722e-07
2.77199732e-07
2.785914655e-07
2.796013791e-07
2.801060416e-07
2.740525898e-07
2.749465693e-07
2.762020917e-07
2.777056234e-07
2.793219118e-07
2.808968465e-07
2.822646529e-07
2.832632324e-07
2.837682006e-07
2.778588351e-07
2.787306336e-07
2.799555245e-07
2.814234312e-07
2.830032879e-07
2.8454572e-07
2.858897051e-07
2.868766259e-07
2.873813804e-07
2.816150865e-07
2.824653727e-07
2.836605138e-07
2.850937438e-07
2.866380166e-07
2.881485235e-07
2.894688616e-07
2.90443869e-07
2.909479393e-07
2.853231946e-07
2.861526352e-07
2.873189111e-07
2.887184255e-07
2.902279889e-07
2.917071922e-07
2.930041158e-07
2.93967017e-07
2.944699784e-07
2.889848334e-07
2.897940895e-07
2.90932381e-07
2.922991451e-07
2.937748912e-07
2.952234459e-07
2.964972361e-07
2.974478933e-07
2.979493632e-07
2.926015154e-07
2.933912381e-07
2.945024171e-07
2.958373931e-07
2.972802228e-07
2.986988082e-07
2.999497856e-07
3.008881092e-07
3.013877442e-07
2.961746045e-07
2.969454322e-07
2.980303565e-07
2.993344976e-07
3.007453126e-07
3.02134624e-07
3.033631412e-07
3.042890832e-07
3.047865756e-07
2.99705328e-07
3.004578836e-07
3.015173934e-07
3.027916381e-07
3.041713352e-07
3.055320767e-07
3.067385108e-07
3.076520594e-07
3.081471339e-07
3.031947881e-07
3.039296774e-07
3.049645917e-07
3.062098598e-07
3.07559325e-07
3.088922034e-07
3.100769498e-07
3.109781239e-07
3.114705347e-07
3.066439727e-07
3.073617824e-07
3.083728971e-07
3.095900859e-07
3.109101901e-07
3.122159096e-07
3.133793769e-07
3.14268221e-07
3.147577493e-07
3.100537656e-07
3.107550623e-07
3.117431477e-07
3.129331297e-07
3.142247249e-07
3.155039829e-07
3.166465875e-07
3.175231682e-07
3.180096193e-07
3.134249558e-07
3.141102853e-07
3.150760851e-07
3.162397056e-07
3.175036223e-07
3.187571054e-07
3.198792683e-07
3.207436699e-07
3.212268709e-07
3.167582466e-07
3.174281335e-07
3.18372364e-07
3.195104396e-07
3.207474844e-07
3.219758659e-07
3.230780087e-07
3.239303304e-07
3.24410128e-07
3.200542644e-07
3.207092117e-07
3.216325611e-07
3.22745879e-07
3.239568331e-07
3.251607706e-07
3.262433128e-07
3.270836658e-07
3.275599242e-07
3.233135663e-07
3.239540557e-07
3.248571842e-07
3.259465015e-07
3.271321197e-07
3.28312253e-07
3.293756101e-07
3.302041148e-07
3.306767144e-07
3.265366481e-07
3.271631401e-07
3.280466798e-07
3.291127233e-07
3.302737331e-07
3.314306837e-07
3.324752648e-07
3.332920491e-07
3.337608842e-07
3.29723951e-07
3.303368854e-07
3.312014407e-07
3.322449075e-07
3.333820089e-07
3.345163782e-07
3.355425848e-07
3.363477821e-07
3.368127601e-07
3.328758684e-07
3.334756645e-07
3.343218131e-07
3.353433702e-07
3.36457236e-07
3.375696052e-07
3.385778302e-07
3.393715778e-07
3.398326176e-07
3.359927515e-07
3.365798092e-07
3.374081023e-07
3.38408388e-07
3.394996635e-07
3.405905936e-07
3.415812198e-07
3.42363658e-07
3.428206888e-07
3.390749154e-07
3.396496157e-07
3.40460579e-07
3.414402031e-07
3.425095071e-07
3.435795383e-07
3.445529387e-07
3.453242093e-07
3.457771698e-07
3.42122644e-07
3.426853495e-07
3.434794843e-07
3.444390294e-07
3.454869545e-07
3.465366068e-07
3.474931435e-07
3.482533892e-07
3.487022263e-07
3.451361948e-07
3.456872507e-07
3.464650346e-07
3.474050567e-07
3.484321703e-07
3.494619435e-07
3.504019678e-07
3.511513313e-07
3.515959999e-07
3.481158026e-07
3.486555376e-07
3.494174258e-07
3.503384557e-07
3.513453004e-07
3.52355675e-07
3.532795271e-07
3.540181508e-07
3.544586124e-07
3.510616843e-07
3.515904111e-07
3.523368371e-07
3.532393813e-07
3.542264765e-07
3.552179137e-07
3.56125923e-07
3.568539482e-07
3.572901708e-07
3.539740415e-07
3.544920579e-07
3.552234349e-07
3.561079767e-07
3.57075819e-07
3.580487616e-07
3.589412467e-07
3.596588135e-07
3.600907707e-07
3.568530641e-07
3.573606535e-07
3.580773753e-07
3.589443759e-07
3.598934404e-07
3.608483136e-07
3.617255824e-07
3.624328293e-07
3.628605e-07
3.596989328e-07
3.601963651e-07
3.608988071e-07
3.617487069e-07
3.62679448e-07
3.6361666e-07
3.644790102e-07
3.65176074e-07
3.655994417e-07
3.625118216e-07
3.629993543e-07
3.636878745e-07
3.64521094e-07
3.654339465e-07
3.663538892e-07
3.672016084e-07
3.678886238e-07
3.683076765e-07
3.652919001e-07
3.657697785e-07
3.664447185e-07
3.672616595e-07
3.681570397e-07
3.690600894e-07
3.698934558e-07
3.705705556e-07
3.709852854e-07
3.680393354e-07
3.685077935e-07
3.691694794e-07
3.699705259e-07
3.708488327e-07
3.717353509e-07
3.725546331e-07
3.732219482e-07
3.736323507e-07
3.707542933e-07
3.712135547e-07
3.718622982e-07
3.726478176e-07
3.735094328e-07
3.743797672e-07
3.751852252e-07
3.758428842e-07
3.762489585e-07
3.734369405e-07
3.738872186e-07
3.745233177e-07
3.752936616e-07
3.761389516e-07
3.769934364e-07
3.777853215e-07
3.784334512e-07
3.788351995e-07
3.760874449e-07
3.76528944e-07
3.771526837e-07
3.77908189e-07
3.787375054e-07
3.795764622e-07
3.803550179e-07
3.809937428e-07
3.813911703e-07
3.787059774e-07
3.791388929e-07
3.797505464e-07
3.804915359e-07
3.813052164e-07
3.82128955e-07
3.828944169e-07
3.835238597e-07
3.839169742e-07
3.812927124e-07
3.817172315e-07
3.823170605e-07
3.830438442e-07
3.838422131e-07
3.846510321e-07
3.854036286e-07
3.860239101e-07
3.86412722e-07
3.838478283e-07
3.842641306e-07
3.848523863e-07
3.855652619e-07
3.863486312e-07
3.871428186e-07
3.878827713e-07
3.884940103e-07
3.888785323e-07
3.863715086e-07
3.867797664e-07
3.873566902e-07
3.880559436e-07
3.88824614e-07
3.896044478e-07
3.903319716e-07
3.909342852e-07
3.913145322e-07
3.888639417e-07
3.892643208e-07
3.898301445e-07
3.905160511e-07
3.912703122e-07
3.92036061e-07
3.927513648e-07
3.933448683e-07
3.937208572e-07
3.913253217e-07
3.917179814e-07
3.922729282e-07
3.929457534e-07
3.936858844e-07
3.94437808e-07
3.951410949e-07
3.95725902e-07
3.960976516e-07
3.937558483e-07
3.941409421e-07
3.946852272e-07
3.953452265e-07
3.960714972e-07
3.968098471e-07
3.975013144e-07
3.980775372e-07
3.984450683e-07
3.961557271e-07
3.965334028e-07
3.970672336e-07
3.977146538e-07
3.984273249e-07
3.991523447e-07
3.998321847e-07
4.003999337e-07
4.007632684e-07
3.985251691e-07
3.988955695e-07
3.994191462e-07
4.000542258e-07
4.007535493e-07
4.014654751e-07
4.021338751e-07
4.026932594e-07
4.030524214e-07
4.008643907e-07
4.012276536e-07
4.017411697e-07
4.023641391e-07
4.030503591e-07
4.0374942e-07
4.044065626e-07
4.049576895e-07
4.053127038e-07
4.031736131e-07
4.035298718e-07
4.040335142e-07
4.046445965e-07
4.053179493e-07
4.060043676e-07
4.066504306e-07
4.07193406e-07
4.075442989e-07
4.054530612e-07
4.058024446e-07
4.062963944e-07
4.068958053e-07
4.075565198e-07
4.082305113e-07
4.088656678e-07
4.09400596e-07
4.097473944e-07
4.077029626e-07
4.080455952e-07
4.085300272e-07
4.091179756e-07
4.097662736e-07
4.104280474e-07
4.11052466e-07
4.115794488e-07
4.119221801e-07
4.099235446e-07
4.102595469e-07
4.107346303e-07
4.113113179e-07
4.119474136e-07
4.125971723e-07
4.132110162e-07
4.13730153e-07
4.140688446e-07
4.121150315e-07
4.124445195e-07
4.129104175e-07
4.134760388e-07
4.141001388e-07
4.147380773e-07
4.153415038e-07
4.158528901e-07
4.161875682e-07
4.142776389e-07
4.146007242e-07
4.150575931e-07
4.156123347e-07
4.162246368e-07
4.168509415e-07
4.174441003e-07
4.179478265e-07
4.182785152e-07
4.164115662e-07
4.16728355e-07
4.171763436e-07
4.177203827e-07
4.183210741e-07
4.189359206e-07
4.195189517e-07
4.200151004e-07
4.203418192e-07
4.185169852e-07
4.188275771e-07
4.192668249e-07
4.198003267e-07
4.203895813e-07
4.209931311e-07
4.215661607e-07
4.220548028e-07
4.223775639e-07
4.205940233e-07
4.208985095e-07
4.213291436e-07
4.218522578e-07
4.224302313e-07
4.230226262e-07
4.235857609e-07
4.240669501e-07
4.243857542e-07
4.226427403e-07
4.229412005e-07
4.23363331e-07
4.238761857e-07
4.244430084e-07
4.250243625e-07
4.255776807e-07
4.26051445e-07
4.263662748e-07
4.246630951e-07
4.249555929e-07
4.253693062e-07
4.258719988e-07
4.264277648e-07
4.269981524e-07
4.275416916e-07
4.280080214e-07
4.283188336e-07
4.266549004e-07
4.269414764e-07
4.273468249e-07
4.278394093e-07
4.28384161e-07
4.289435989e-07
4.294773378e-07
4.299361698e-07
4.302428829e-07
4.286177607e-07
4.288984228e-07
4.292954105e-07
4.29777878e-07
4.303115839e-07
4.308600075e-07
4.313838413e-07
4.318350356e-07
4.321375154e-07
4.305509899e-07
4.308256997e-07
4.312142622e-07
4.316865161e-07
4.322090402e-07
4.327462696e-07
4.332599761e-07
4.337032871e-07
4.340013262e-07
4.324535045e-07
4.327221586e-07
4.331021356e-07
4.335639553e-07
4.340750158e-07
4.34600711e-07
4.351039063e-07
4.355389437e-07
4.358322374e-07
4.343236855e-07
4.345860909e-07
4.349571892e-07
4.354081838e-07
4.359072982e-07
4.364209003e-07
4.36912981e-07
4.373391611e-07
4.376272765e-07
4.361592062e-07
4.364150474e-07
4.367767935e-07
4.372163407e-07
4.377027548e-07
4.382034103e-07
4.386834808e-07
4.390999657e-07
4.393823053e-07
4.379568191e-07
4.38205617e-07
4.38557296e-07
4.389844645e-07
4.394570634e-07
4.399435294e-07
4.404103111e-07
4.408159354e-07
4.410916947e-07
4.397121006e-07
4.399531603e-07
4.402937399e-07
4.407071935e-07
4.411643908e-07
4.416349192e-07
4.420866415e-07
4.424798254e-07
4.427479445e-07
4.414191492e-07
4.41651497e-07
4.419795356e-07
4.423774166e-07
4.428170212e-07
4.432692198e-07
4.437034913e-07
4.440821406e-07
4.443412509e-07
4.430702395e-07
4.432925476e-07
4.436060841e-07
4.439858756e-07
4.444049356e-07
4.448356069e-07
4.452492673e-07
4.456106611e-07
4.458590291e-07
4.446554337e-07
4.448659333e-07
4.451623608e-07
4.455207286e-07
4.459153523e-07
4.463203101e-07
4.467092655e-07
4.470499342e-07
4.472854029e-07
4.461621603e-07
4.463585428e-07
4.466344667e-07
4.469670821e-07
4.473322398e-07
4.477061091e-07
4.480651535e-07
4.48380751e-07
4.486006832e-07
4.475747701e-07
4.477540804e-07
4.480051636e-07
4.483065127e-07
4.486358247e-07
4.489718294e-07
4.492944594e-07
4.495796349e-07
4.497808615e-07
4.488740888e-07
4.490326131e-07
4.492534151e-07
4.495166009e-07
4.498021195e-07
4.500918676e-07
4.503701002e-07
4.506183771e-07
4.507971542e-07
4.500369906e-07
4.501701432e-07
4.503539597e-07
4.505705072e-07
4.50802506e-07
4.510357859e-07
4.512599901e-07
4.514636624e-07
4.516156429e-07
4.510360205e-07
4.511382385e-07
4.512769522e-07
4.514366305e-07
4.516034146e-07
4.517680186e-07
4.519267776e-07
4.520768347e-07
4.521970611e-07
4.518391035e-07
4.519037568e-07
4.519877132e-07
4.520783897e-07
4.52166149e-07
4.522477436e-07
4.523277667e-07
4.524138622e-07
4.524967855e-07
4.524093806e-07
4.524287082e-07
4.52446631e-07
4.524541807e-07
4.52446906e-07
4.52428975e-07
4.524150797e-07
4.524255596e-07
4.524650943e-07
4.527052158e-07
4.526703016e-07
4.526092672e-07
4.52517557e-07
4.523970486e-07
4.522609341e-07
4.521361248e-07
4.520581328e-07
4.520477537e-07
4.526804225e-07
4.525812236e-07
4.524267134e-07
4.522176884e-07
4.519636829e-07
4.516887544e-07
4.514344228e-07
4.51254103e-07
4.511869928e-07
4.522847538e-07
4.521101952e-07
4.518462477e-07
4.515001448e-07
4.510905906e-07
4.506545719e-07
4.502508451e-07
4.499536583e-07
4.498229137e-07
4.514647003e-07
4.512028513e-07
4.508123324e-07
4.503080454e-07
4.49719554e-07
4.490990341e-07
4.485252954e-07
4.480964671e-07
4.478953682e-07
4.501646289e-07
4.498029713e-07
4.492679817e-07
4.485835999e-07
4.477920956e-07
4.469632473e-07
4.461988464e-07
4.456239565e-07
4.453463035e-07
4.483282826e-07
4.478540816e-07
4.471565124e-07