/*--------------------------------*- C++ -*----------------------------------*\
| =========                 |                                                 |
| \\      /  F ield         | OpenFOAM: The Open Source CFD Toolbox           |
|  \\    /   O peration     | Version:  2212                                  |
|   \\  /    A nd           | Website:  www.openfoam.com                      |
|    \\/     M anipulation  |                                                 |
\*---------------------------------------------------------------------------*/
FoamFile
{
    version     2.0;
    format      ascii;
    arch        "LSB;label=32;scalar=64";
    class       volScalarField;
    location    "23.25000000";
    object      I-C4H51;
}
// * * * * * * * * * * * * * * * * * * * * * * * * * * * * * * * * * * * * * //

dimensions      [0 0 0 0 0 0 0];

internalField   nonuniform List<scalar> 
3000
(
1.644256793e-26
1.847121784e-26
2.1532405e-26
2.561162569e-26
3.066726326e-26
3.656181603e-26
4.293999899e-26
4.902538267e-26
5.33293009e-26
6.173247651e-26
6.962888521e-26
8.153934392e-26
9.744631068e-26
1.173335162e-25
1.410889693e-25
1.683002893e-25
1.9758402e-25
2.235359806e-25
1.382712925e-25
1.571804017e-25
1.859743656e-25
2.25070186e-25
2.751711761e-25
3.370018451e-25
4.103229126e-25
4.910078444e-25
5.60002489e-25
2.633691384e-25
3.025223983e-25
3.630170594e-25
4.468999137e-25
5.571427422e-25
6.965444014e-25
8.643492594e-25
1.047101116e-24
1.194639566e-24
4.676643538e-25
5.437794457e-25
6.632345488e-25
8.320970381e-25
1.058310456e-24
1.348212059e-24
1.696969982e-24
2.067320776e-24
2.351635213e-24
8.0417742e-25
9.470345473e-25
1.174448484e-24
1.500929677e-24
1.943893666e-24
2.514477226e-24
3.195648784e-24
3.901486923e-24
4.423698248e-24
1.365186033e-24
1.627594049e-24
2.050189579e-24
2.663729725e-24
3.502379257e-24
4.582799034e-24
5.860309129e-24
7.158259681e-24
8.09480417e-24
2.310325413e-24
2.785213936e-24
3.556803901e-24
4.68570141e-24
6.234867579e-24
8.226590194e-24
1.056094487e-23
1.289813491e-23
1.455641901e-23
3.916168723e-24
4.766509543e-24
6.157069579e-24
8.201887156e-24
1.101295409e-23
1.46172637e-23
1.881119015e-23
2.296651815e-23
2.588223761e-23
6.661628965e-24
8.172285649e-24
1.065397788e-23
1.431512234e-23
1.935130263e-23
2.579169605e-23
3.324410943e-23
4.057376536e-23
4.567860537e-23
1.137650307e-23
1.404445705e-23
1.844129834e-23
2.494096094e-23
3.388207005e-23
4.529058285e-23
5.843729419e-23
7.130106218e-23
8.021516023e-23
1.949890107e-23
2.418993301e-23
3.193783733e-23
4.340577957e-23
5.917817694e-23
7.926715952e-23
1.023469357e-22
1.248484294e-22
1.403869323e-22
3.352210343e-23
4.174308308e-23
5.534178687e-23
7.548576635e-23
1.031831012e-22
1.384119837e-22
1.787966851e-22
2.180688026e-22
2.451223318e-22
5.77699322e-23
7.214178366e-23
9.593995663e-23
1.312105162e-22
1.796933915e-22
2.412955242e-22
3.118001758e-22
3.802365024e-22
4.272982179e-22
9.974248607e-23
1.24821759e-22
1.663807791e-22
2.279944116e-22
3.126684954e-22
4.201704278e-22
5.430635392e-22
6.621918504e-22
7.4400906e-22
1.724517514e-22
2.161574472e-22
2.886198594e-22
3.96072374e-22
5.437121108e-22
7.310429895e-22
9.450068227e-22
1.152211111e-21
1.294391925e-21
2.98475061e-22
3.745662608e-22
5.007681329e-22
6.879339229e-22
9.450545002e-22
1.271145949e-21
1.643347868e-21
2.003521252e-21
2.250498277e-21
5.16989396e-22
6.493668306e-22
8.689765728e-22
1.194694332e-21
1.642077318e-21
2.209246957e-21
2.85626355e-21
3.481989943e-21
3.910815321e-21
8.959762954e-22
1.12614909e-21
1.508056816e-21
2.074495723e-21
2.852381292e-21
3.838201076e-21
4.96227268e-21
6.048784411e-21
6.79302567e-21
1.553391965e-21
1.953435046e-21
2.617247045e-21
3.601758118e-21
4.953509717e-21
6.66600093e-21
8.617773909e-21
1.050339527e-20
1.179440298e-20
2.69386907e-21
3.38889755e-21
4.542205193e-21
6.252520467e-21
8.600248676e-21
1.157339657e-20
1.496037398e-20
1.823087721e-20
2.046896204e-20
4.67230028e-21
5.879420705e-21
7.882362144e-21
1.08521539e-20
1.492752308e-20
2.008633225e-20
2.596006938e-20
3.162853729e-20
3.550546535e-20
8.103924118e-21
1.019970439e-20
1.367673192e-20
1.883089954e-20
2.590110588e-20
3.484627956e-20
4.502471724e-20
5.484074823e-20
6.154997221e-20
1.405467344e-20
1.769186545e-20
2.372495703e-20
3.266504812e-20
4.492249034e-20
6.04204781e-20
7.80416208e-20
9.502123639e-20
1.066173795e-19
2.436983046e-20
3.06789876e-20
4.114106995e-20
5.663716868e-20
7.78698308e-20
1.046941074e-19
1.351641244e-19
1.644945629e-19
1.845054962e-19
4.224049719e-20
5.317758875e-20
7.130673955e-20
9.814316871e-20
1.348846799e-19
1.812550356e-19
2.338652568e-19
2.844429815e-19
3.189068034e-19
7.317783132e-20
9.212212852e-20
1.235077873e-19
1.699326957e-19
2.334284034e-19
3.134635156e-19
4.041354741e-19
4.911664989e-19
5.503777203e-19
1.266843114e-19
1.594637175e-19
2.137350581e-19
2.939360272e-19
4.034899973e-19
5.413664593e-19
6.972861873e-19
8.466551084e-19
9.480848302e-19
2.19112155e-19
2.757553086e-19
3.694604154e-19
5.077738056e-19
6.964183977e-19
9.333837053e-19
1.200775532e-18
1.456333821e-18
1.629474854e-18
3.785354513e-19
4.762530997e-19
6.377461676e-19
8.757775855e-19
1.19982169e-18
1.605942397e-18
2.063013841e-18
2.498639916e-18
2.792975502e-18
6.530225024e-19
8.212554861e-19
1.098947887e-18
1.507545338e-18
2.06254782e-18
2.7562441e-18
3.534564852e-18
4.2739417e-18
4.771926311e-18
1.124620706e-18
1.413538296e-18
1.889742864e-18
2.588993009e-18
3.53628414e-18
4.716542e-18
6.036032456e-18
7.284766012e-18
8.122753839e-18
1.932886202e-18
2.427600265e-18
3.241598027e-18
4.433966848e-18
6.044314561e-18
8.043318826e-18
1.026894962e-17
1.236618638e-17
1.376780986e-17
3.314266637e-18
4.158432823e-18
5.544605983e-18
7.569399992e-18
1.029424512e-17
1.366253057e-17
1.739524445e-17
2.089572406e-17
2.32245374e-17
5.667646733e-18
7.102335552e-18
9.452666094e-18
1.287470487e-17
1.746122231e-17
2.310398956e-17
2.93249083e-17
3.512793932e-17
3.89695156e-17
9.662776383e-18
1.20899285e-17
1.60554758e-17
2.180803519e-17
2.94830348e-17
3.887598633e-17
4.91725679e-17
5.872248274e-17
6.501102487e-17
1.641847641e-17
2.050350246e-17
2.715752388e-17
3.677034603e-17
4.953098336e-17
6.505823446e-17
8.197495639e-17
9.756920666e-17
1.077807123e-16
2.779351366e-17
3.462949827e-17
4.572689019e-17
6.168590397e-17
8.275407996e-17
1.082312176e-16
1.35807311e-16
1.610649299e-16
1.775088877e-16
4.685793159e-17
5.822561598e-17
7.661101572e-17
1.029194776e-16
1.374440645e-16
1.789187726e-16
2.235039121e-16
2.640705686e-16
2.903262465e-16
7.865095674e-17
9.742578948e-17
1.276682853e-16
1.707122051e-16
2.26842113e-16
2.938064038e-16
3.652853824e-16
4.298844325e-16
4.714477006e-16
1.313899974e-16
1.621721976e-16
2.11541243e-16
2.814090914e-16
3.719151612e-16
4.791219026e-16
5.927357771e-16
6.947213946e-16
7.5995601e-16
2.183832399e-16
2.684618862e-16
3.48410891e-16
4.608839912e-16
6.055848954e-16
7.757435646e-16
9.547739053e-16
1.114407842e-15
1.215934395e-15
3.610295144e-16
4.418410188e-16
5.702378557e-16
7.497607753e-16
9.791159786e-16
1.246857469e-15
1.526550969e-15
1.774316051e-15
1.931026731e-15
5.934826385e-16
7.22792818e-16
9.272378722e-16
1.211307476e-15
1.571690485e-15
1.98935084e-15
2.422615743e-15
2.804006912e-15
3.043970991e-15
9.698403157e-16
1.174974777e-15
1.497687775e-15
1.943279063e-15
2.504652714e-15
3.150648077e-15
3.8162683e-15
4.398679706e-15
4.763311436e-15
1.575127684e-15
1.897707228e-15
2.402658542e-15
3.095553819e-15
3.962558266e-15
4.953431674e-15
5.967841922e-15
6.850415065e-15
7.40042432e-15
2.541935754e-15
3.044755588e-15
3.827986185e-15
4.896217364e-15
6.224080928e-15
7.731728253e-15
9.265805182e-15
1.059344442e-14
1.141729593e-14
4.075419881e-15
4.852362622e-15
6.056807264e-15
7.689894784e-15
9.707129133e-15
1.198330051e-14
1.428619382e-14
1.626942975e-14
1.749531655e-14
6.490568194e-15
7.680787436e-15
9.517426485e-15
1.199375007e-14
1.503434859e-14
1.844533047e-14
2.187813986e-14
2.482116982e-14
2.663391083e-14
1.026736348e-14
1.207545627e-14
1.485332751e-14
1.857885904e-14
2.31277529e-14
2.820324245e-14
3.328642293e-14
3.762655693e-14
4.029137225e-14
1.613189092e-14
1.885645569e-14
2.30250451e-14
2.858789921e-14
3.534482035e-14
4.284648642e-14
5.032633919e-14
5.668933032e-14
6.058523426e-14
2.517486303e-14
2.924865731e-14
3.545719839e-14
4.370395512e-14
5.367293897e-14
6.469064029e-14
7.563255212e-14
8.491012855e-14
9.057654705e-14
3.902174626e-14
4.50678829e-14
5.424899264e-14
6.639227028e-14
8.100734576e-14
9.709365783e-14
1.130120875e-13
1.264698696e-13
1.34671618e-13
6.008028018e-14
6.899103461e-14
8.247728782e-14
1.002454001e-13
1.215453574e-13
1.449027041e-13
1.679421452e-13
1.873699171e-13
1.991877439e-13
9.18950884e-14
1.049416847e-13
1.246280009e-13
1.504732363e-13
1.813446528e-13
2.150853421e-13
2.48271633e-13
2.761920345e-13
2.931483373e-13
1.396544423e-13
1.586396985e-13
1.872089756e-13
2.245967804e-13
2.691111924e-13
3.176179607e-13
3.652065872e-13
4.051643122e-13
4.293973727e-13
2.109116945e-13
2.383817978e-13
2.796177566e-13
3.334274054e-13
3.973081438e-13
4.667330654e-13
5.346909488e-13
5.916527131e-13
6.26157705e-13
3.16608816e-13
3.561465635e-13
4.153666866e-13
4.924453812e-13
5.837127379e-13
6.826663282e-13
7.793370225e-13
8.602437009e-13
9.092053795e-13
4.725242769e-13
5.291544358e-13
6.138080951e-13
7.237359621e-13
8.535973087e-13
9.940986906e-13
1.131119169e-12
1.245646555e-12
1.314897659e-12
7.013161756e-13
7.820650315e-13
9.025586538e-13
1.058703383e-12
1.242779409e-12
1.441564378e-12
1.635126408e-12
1.79673145e-12
1.894383016e-12
1.035399719e-12
1.150066608e-12
1.32090078e-12
1.541869873e-12
1.801881761e-12
2.082201078e-12
2.354783975e-12
2.582140998e-12
2.719447106e-12
1.520994e-12
1.6832144e-12
1.924549707e-12
2.23618869e-12
2.602277447e-12
2.996366466e-12
3.379114282e-12
3.698083371e-12
3.890625213e-12
2.223808133e-12
2.452518296e-12
2.79233122e-12
3.230472491e-12
3.744386284e-12
4.296854904e-12
4.832835337e-12
5.279157262e-12
5.548462222e-12
3.237027758e-12
3.558483781e-12
4.035536838e-12
4.649783452e-12
5.369260292e-12
6.141748403e-12
6.890422049e-12
7.513408537e-12
7.889163921e-12
4.692533007e-12
5.143098596e-12
5.811039044e-12
6.669982292e-12
7.67478774e-12
8.752371542e-12
9.795734139e-12
1.06633324e-11
1.118641892e-11
6.776660618e-12
7.406666962e-12
8.339699936e-12
9.538137995e-12
1.093841403e-11
1.243845904e-11
1.388952335e-11
1.509530364e-11
1.582197628e-11
9.752360192e-12
1.063147278e-11
1.19322502e-11
1.360122801e-11
1.554910791e-11
1.763358955e-11
1.964819405e-11
2.132108104e-11
2.232879175e-11
1.399034661e-11
1.521507031e-11
1.70257313e-11
1.934660715e-11
2.205251342e-11
2.494533759e-11
2.773878333e-11
3.005679678e-11
3.145243121e-11
2.001289347e-11
2.171714182e-11
2.423488641e-11
2.745922147e-11
3.121498272e-11
3.522664839e-11
3.909749336e-11
4.230749133e-11
4.423925249e-11
2.855533764e-11
3.092543293e-11
3.442468222e-11
3.890264917e-11
4.411468163e-11
4.967789393e-11
5.504254652e-11
5.948913194e-11
6.216405092e-11
4.06522749e-11
4.394839304e-11
4.881258405e-11
5.503393443e-11
6.227140571e-11
6.999317327e-11
7.743693757e-11
8.360549009e-11
8.731570241e-11
5.77579195e-11
6.234491956e-11
6.91124089e-11
7.776597426e-11
8.783128465e-11
9.856982805e-11
1.089229771e-10
1.175043925e-10
1.226670056e-10
8.191323661e-11
8.830507839e-11
9.773557711e-11
1.097959195e-10
1.238281286e-10
1.388067163e-10
1.532581149e-10
1.652463511e-10
1.724639804e-10
1.159761966e-10
1.248997656e-10
1.380702046e-10
1.549233637e-10
1.745493011e-10
1.955237988e-10
2.157893887e-10
2.326271219e-10
2.4277883e-10
1.639356027e-10
1.764216309e-10
1.948631849e-10
2.184872036e-10
2.460394958e-10
2.755413726e-10
3.041097498e-10
3.279016154e-10
3.422765496e-10
2.313328085e-10
2.488434077e-10
2.747340875e-10
3.079533787e-10
3.467784582e-10
3.884589005e-10
4.289397423e-10
4.627553217e-10
4.832428243e-10
3.25818123e-10
3.504216473e-10
3.8685045e-10
4.3368472e-10
4.885652099e-10
5.476666153e-10
6.052674075e-10
6.535550735e-10
6.829039818e-10
4.578679062e-10
4.924715048e-10
5.437891154e-10
6.099154217e-10
6.876275078e-10
7.716029266e-10
8.537521516e-10
9.228773412e-10
9.650318595e-10
6.416815915e-10
6.903286732e-10
7.625942736e-10
8.559323948e-10
9.659469174e-10
1.085232742e-09
1.202350303e-09
1.301255224e-09
1.361763677e-09
8.962618256e-10
9.64494459e-10
1.066016461e-09
1.197430817e-09
1.35274441e-09
1.521664529e-09
1.688050951e-09
1.829006092e-09
1.91548165e-09
1.246652432e-09
1.341926556e-09
1.483875953e-09
1.667960858e-09
1.886010036e-09
2.123751087e-09
2.35852719e-09
2.557910114e-09
2.680500725e-09
1.725266291e-09
1.857390686e-09
2.054439867e-09
2.310320512e-09
2.613890081e-09
2.945441768e-09
3.273425644e-09
3.552425052e-09
3.724227243e-09
2.373180255e-09
2.55473037e-09
2.82564094e-09
3.177685321e-09
3.595680112e-09
4.052591028e-09
4.504959423e-09
4.890071726e-09
5.127405629e-09
3.241213872e-09
3.4878527e-09
3.855909384e-09
4.33421525e-09
4.902132204e-09
5.522903045e-09
6.137462766e-09
6.660635587e-09
6.983093415e-09
4.390556434e-09
4.721182218e-09
5.214354639e-09
5.854861389e-09
6.614790311e-09
7.444726417e-09
8.265630741e-09
8.963922707e-09
9.394115339e-09
5.8926808e-09
6.329321485e-09
6.980040121e-09
7.824128692e-09
8.824135244e-09
9.914518672e-09
1.099131118e-08
1.19059844e-08
1.246894258e-08
7.828301915e-09
8.39569334e-09
9.240155895e-09
1.033364556e-08
1.162645313e-08
1.303297199e-08
1.441892386e-08
1.559396071e-08
1.63161951e-08
1.028521584e-08
1.101003563e-08
1.208701521e-08
1.347854216e-08
1.511952383e-08
1.690000313e-08
1.864981663e-08
2.012994261e-08
2.103822178e-08
1.335499138e-08
1.426476889e-08
1.561396792e-08
1.735282425e-08
1.939742508e-08
2.160901807e-08
2.377607614e-08
2.560445658e-08
2.6724412e-08
1.712866245e-08
1.825043773e-08
1.991050664e-08
2.204410954e-08
2.45449179e-08
2.724101181e-08
2.98744353e-08
3.209027332e-08
3.344497437e-08
2.169174995e-08
2.305059805e-08
2.505699603e-08
2.762822118e-08
3.063196781e-08
3.385910506e-08
3.700090829e-08
3.963718613e-08
4.124584691e-08
2.711908057e-08
2.873663902e-08
3.11195363e-08
3.416416253e-08
3.770892087e-08
4.15040083e-08
4.518659217e-08
4.826812005e-08
5.01448092e-08
3.346992602e-08
3.536305011e-08
3.814544061e-08
4.168989354e-08
4.580265922e-08
5.019060561e-08
5.443467456e-08
5.797632651e-08
6.012930195e-08
4.078393239e-08
4.296354951e-08
4.615964685e-08
5.021907654e-08
5.491368295e-08
5.990531247e-08
6.471775842e-08
6.872322719e-08
7.115395773e-08
4.907814971e-08
5.154828688e-08
5.516210901e-08
5.973855352e-08
6.501345104e-08
7.060268427e-08
7.597410875e-08
8.043314964e-08
8.313459987e-08
5.834523464e-08
6.110205781e-08
6.512589485e-08
7.020581311e-08
7.604021791e-08
8.219933558e-08
8.809714185e-08
9.297804952e-08
9.592902445e-08
6.855263146e-08
7.158310324e-08
7.599479561e-08
8.154493061e-08
8.789211209e-08
9.455953166e-08
1.0090931e-07
1.061343303e-07
1.092770244e-07
7.964151869e-08
8.29216794e-08
8.768146415e-08
9.36416711e-08
1.004148133e-07
1.074690433e-07
1.14107237e-07
1.194735568e-07
1.22611609e-07
9.152661106e-08
9.501868353e-08
1.000632126e-07
1.063356084e-07
1.133870406e-07
1.206048536e-07
1.271886208e-07
1.32157139e-07
1.344141142e-07
1.04091036e-07
1.077387513e-07
1.12972641e-07
1.194074826e-07
1.265067601e-07
1.33531974e-07
1.395021935e-07
1.431893534e-07
1.447423873e-07
1.171715289e-07
1.208907349e-07
1.261699009e-07
1.325382434e-07
1.393310716e-07
1.456175229e-07
1.50102025e-07
1.527886002e-07
1.538771595e-07
1.305200536e-07
1.341781866e-07
1.392737902e-07
1.452036725e-07
1.51111774e-07
1.558318355e-07
1.592456427e-07
1.612923517e-07
1.620835966e-07
1.437123439e-07
1.47082576e-07
1.516136624e-07
1.564415859e-07
1.608813308e-07
1.645862048e-07
1.673265028e-07
1.689724325e-07
1.695790116e-07
1.559375216e-07
1.585634119e-07
1.619581638e-07
1.65662773e-07
1.692274457e-07
1.72305885e-07
1.746305562e-07
1.760315967e-07
1.765278031e-07
1.656163748e-07
1.676920226e-07
1.704480871e-07
1.735304626e-07
1.765838973e-07
1.792855048e-07
1.81359201e-07
1.826151588e-07
1.830490696e-07
1.736077493e-07
1.753793155e-07
1.777734122e-07
1.805000632e-07
1.832526155e-07
1.857283968e-07
1.87652441e-07
1.888254454e-07
1.892274569e-07
1.805676386e-07
1.821653333e-07
1.843478629e-07
1.868633477e-07
1.894338078e-07
1.917718295e-07
1.936064824e-07
1.94734066e-07
1.951229236e-07
1.868754653e-07
1.883678025e-07
1.904196765e-07
1.928025184e-07
1.952569288e-07
1.975072069e-07
1.992872424e-07
2.003914074e-07
2.007783754e-07
1.927504901e-07
1.941735578e-07
1.961380578e-07
1.984306934e-07
2.008052379e-07
2.029955053e-07
2.047403815e-07
2.058335916e-07
2.062252334e-07
1.983205799e-07
1.996934207e-07
2.015936018e-07
2.038187812e-07
2.06132956e-07
2.082781699e-07
2.099983518e-07
2.110873296e-07
2.114872923e-07
2.036617708e-07
2.049944558e-07
2.068425548e-07
2.090123473e-07
2.112764269e-07
2.133843365e-07
2.150850975e-07
2.161731555e-07
2.165832876e-07
2.088207339e-07
2.101186151e-07
2.119211134e-07
2.140418378e-07
2.162610579e-07
2.183354044e-07
2.200190631e-07
2.211075068e-07
2.215285452e-07
2.138274183e-07
2.150933756e-07
2.168537154e-07
2.189286272e-07
2.211055105e-07
2.231478434e-07
2.248150638e-07
2.259040277e-07
2.263360193e-07
2.18702122e-07
2.199377517e-07
2.216577919e-07
2.236885439e-07
2.258241848e-07
2.278348875e-07
2.294854306e-07
2.305743769e-07
2.310169397e-07
2.234594358e-07
2.246656812e-07
2.263464761e-07
2.2833391e-07
2.304286835e-07
2.324075511e-07
2.340407108e-07
2.351287291e-07
2.355812163e-07
2.281104499e-07
2.29287935e-07
2.309301516e-07
2.328747269e-07
2.349286796e-07
2.36875245e-07
2.384901025e-07
2.395760934e-07
2.400377e-07
2.326640015e-07
2.338132087e-07
2.354173492e-07
2.373193759e-07
2.393324411e-07
2.412461594e-07
2.428417337e-07
2.439245229e-07
2.443943561e-07
2.371273969e-07
2.382487601e-07
2.398152804e-07
2.416750436e-07
2.436471591e-07
2.455275122e-07
2.471028482e-07
2.481812589e-07
2.486583869e-07
2.415068423e-07
2.426007952e-07
2.441301668e-07
2.45947992e-07
2.478791633e-07
2.497257173e-07
2.512799381e-07
2.523528368e-07
2.528363221e-07
2.458077128e-07
2.468747136e-07
2.483674535e-07
2.501437392e-07
2.520340703e-07
2.538465053e-07
2.553788414e-07
2.564451664e-07
2.569340892e-07
2.500347296e-07
2.510752705e-07
2.525319546e-07
2.54267185e-07
2.561168918e-07
2.578950149e-07
2.594048187e-07
2.604635971e-07
2.609570712e-07
2.541920812e-07
2.552066917e-07
2.566279571e-07
2.583227048e-07
2.601321162e-07
2.618758636e-07
2.633626142e-07
2.644129711e-07
2.649101547e-07
2.582835113e-07
2.592727564e-07
2.606592985e-07
2.623142198e-07
2.640837728e-07
2.657932056e-07
2.672565073e-07
2.682976687e-07
2.687977709e-07
2.623123842e-07
2.632768603e-07
2.646294266e-07
2.662452534e-07
2.679754839e-07
2.696507791e-07
2.710903559e-07
2.721216482e-07
2.726239326e-07
2.662817347e-07
2.672220644e-07
2.685414468e-07
2.701189761e-07
2.718105072e-07
2.734519472e-07
2.748676342e-07
2.758884802e-07
2.763922661e-07
2.701943078e-07
2.711111339e-07
2.723981594e-07
2.739382428e-07
2.755917725e-07
2.771997323e-07
2.785914657e-07
2.796013793e-07
2.801060418e-07
2.7405259e-07
2.749465696e-07
2.762020919e-07
2.777056237e-07
2.793219121e-07
2.808968468e-07
2.822646531e-07
2.832632326e-07
2.837682008e-07
2.778588354e-07
2.787306339e-07
2.799555248e-07
2.814234314e-07
2.830032882e-07
2.845457203e-07
2.858897053e-07
2.868766261e-07
2.873813806e-07
2.816150868e-07
2.824653729e-07
2.836605141e-07
2.850937441e-07
2.866380168e-07
2.881485238e-07
2.894688618e-07
2.904438692e-07
2.909479395e-07
2.853231948e-07
2.861526355e-07
2.873189114e-07
2.887184257e-07
2.902279892e-07
2.917071925e-07
2.930041161e-07
2.939670172e-07
2.944699785e-07
2.889848336e-07
2.897940897e-07
2.909323813e-07
2.922991453e-07
2.937748915e-07
2.952234462e-07
2.964972363e-07
2.974478935e-07
2.979493634e-07
2.926015157e-07
2.933912384e-07
2.945024174e-07
2.958373934e-07
2.972802231e-07
2.986988084e-07
2.999497858e-07
3.008881093e-07
3.013877444e-07
2.961746048e-07
2.969454324e-07
2.980303568e-07
2.993344978e-07
3.007453129e-07
3.021346243e-07
3.033631414e-07
3.042890834e-07
3.047865758e-07
2.997053282e-07
3.004578839e-07
3.015173937e-07
3.027916383e-07
3.041713355e-07
3.05532077e-07
3.06738511e-07
3.076520596e-07
3.08147134e-07
3.031947883e-07
3.039296776e-07
3.04964592e-07
3.0620986e-07
3.075593253e-07
3.088922037e-07
3.100769501e-07
3.109781241e-07
3.114705349e-07
3.066439729e-07
3.073617826e-07
3.083728973e-07
3.095900862e-07
3.109101903e-07
3.122159099e-07
3.133793771e-07
3.142682212e-07
3.147577495e-07
3.100537658e-07
3.107550625e-07
3.117431479e-07
3.1293313e-07
3.142247252e-07
3.155039831e-07
3.166465877e-07
3.175231684e-07
3.180096195e-07
3.13424956e-07
3.141102855e-07
3.150760854e-07
3.162397059e-07
3.175036225e-07
3.187571057e-07
3.198792685e-07
3.207436701e-07
3.21226871e-07
3.167582468e-07
3.174281337e-07
3.183723642e-07
3.195104398e-07
3.207474846e-07
3.219758662e-07
3.230780089e-07
3.239303306e-07
3.244101281e-07
3.200542646e-07
3.207092119e-07
3.216325614e-07
3.227458792e-07
3.239568334e-07
3.251607708e-07
3.262433131e-07
3.27083666e-07
3.275599244e-07
3.233135665e-07
3.239540559e-07
3.248571844e-07
3.259465017e-07
3.271321199e-07
3.283122533e-07
3.293756103e-07
3.30204115e-07
3.306767145e-07
3.265366483e-07
3.271631403e-07
3.2804668e-07
3.291127236e-07
3.302737334e-07
3.314306839e-07
3.32475265e-07
3.332920492e-07
3.337608843e-07
3.297239513e-07
3.303368856e-07
3.31201441e-07
3.322449077e-07
3.333820092e-07
3.345163784e-07
3.355425851e-07
3.363477822e-07
3.368127603e-07
3.328758686e-07
3.334756647e-07
3.343218133e-07
3.353433704e-07
3.364572362e-07
3.375696055e-07
3.385778304e-07
3.39371578e-07
3.398326177e-07
3.359927517e-07
3.365798094e-07
3.374081025e-07
3.384083882e-07
3.394996637e-07
3.405905938e-07
3.4158122e-07
3.423636582e-07
3.42820689e-07
3.390749156e-07
3.396496159e-07
3.404605792e-07
3.414402033e-07
3.425095073e-07
3.435795385e-07
3.445529389e-07
3.453242095e-07
3.457771699e-07
3.421226442e-07
3.426853497e-07
3.434794845e-07
3.444390296e-07
3.454869547e-07
3.46536607e-07
3.474931437e-07
3.482533893e-07
3.487022265e-07
3.45136195e-07
3.456872509e-07
3.464650348e-07
3.474050569e-07
3.484321705e-07
3.494619437e-07
3.50401968e-07
3.511513315e-07
3.51596e-07
3.481158028e-07
3.486555378e-07
3.49417426e-07
3.503384559e-07
3.513453007e-07
3.523556752e-07
3.532795273e-07
3.54018151e-07
3.544586126e-07
3.510616845e-07
3.515904113e-07
3.523368373e-07
3.532393815e-07
3.542264768e-07
3.552179139e-07
3.561259232e-07
3.568539484e-07
3.57290171e-07
3.539740417e-07
3.544920581e-07
3.552234351e-07
3.561079769e-07
3.570758192e-07
3.580487618e-07
3.589412469e-07
3.596588137e-07
3.600907708e-07
3.568530643e-07
3.573606537e-07
3.580773755e-07
3.589443761e-07
3.598934406e-07
3.608483138e-07
3.617255826e-07
3.624328295e-07
3.628605001e-07
3.59698933e-07
3.601963653e-07
3.608988073e-07
3.617487071e-07
3.626794482e-07
3.636166602e-07
3.644790104e-07
3.651760741e-07
3.655994418e-07
3.625118218e-07
3.629993545e-07
3.636878747e-07
3.645210942e-07
3.654339467e-07
3.663538894e-07
3.672016086e-07
3.67888624e-07
3.683076767e-07
3.652919003e-07
3.657697787e-07
3.664447187e-07
3.672616597e-07
3.681570399e-07
3.690600896e-07
3.698934559e-07
3.705705558e-07
3.709852855e-07
3.680393356e-07
3.685077937e-07
3.691694797e-07
3.699705261e-07
3.708488329e-07
3.717353511e-07
3.725546333e-07
3.732219484e-07
3.736323508e-07
3.707542935e-07
3.712135549e-07
3.718622984e-07
3.726478178e-07
3.73509433e-07
3.743797674e-07
3.751852253e-07
3.758428844e-07
3.762489586e-07
3.734369407e-07
3.738872188e-07
3.745233179e-07
3.752936618e-07
3.761389518e-07
3.769934366e-07
3.777853217e-07
3.784334514e-07
3.788351996e-07
3.760874451e-07
3.765289442e-07
3.771526839e-07
3.779081892e-07
3.787375056e-07
3.795764624e-07
3.803550181e-07
3.80993743e-07
3.813911704e-07
3.787059776e-07
3.791388931e-07
3.797505466e-07
3.804915361e-07
3.813052166e-07
3.821289552e-07
3.828944171e-07
3.835238599e-07
3.839169743e-07
3.812927126e-07
3.817172317e-07
3.823170607e-07
3.830438444e-07
3.838422133e-07
3.846510323e-07
3.854036288e-07
3.860239103e-07
3.864127221e-07
3.838478285e-07
3.842641308e-07
3.848523865e-07
3.85565262e-07
3.863486314e-07
3.871428188e-07
3.878827715e-07
3.884940105e-07
3.888785324e-07
3.863715087e-07
3.867797666e-07
3.873566904e-07
3.880559438e-07
3.888246142e-07
3.89604448e-07
3.903319718e-07
3.909342854e-07
3.913145323e-07
3.888639419e-07
3.89264321e-07
3.898301446e-07
3.905160513e-07
3.912703124e-07
3.920360612e-07
3.92751365e-07
3.933448685e-07
3.937208573e-07
3.913253219e-07
3.917179816e-07
3.922729284e-07
3.929457535e-07
3.936858846e-07
3.944378082e-07
3.95141095e-07
3.957259021e-07
3.960976517e-07
3.937558485e-07
3.941409422e-07
3.946852274e-07
3.953452267e-07
3.960714974e-07
3.968098473e-07
3.975013146e-07
3.980775374e-07
3.984450684e-07
3.961557273e-07
3.96533403e-07
3.970672338e-07
3.97714654e-07
3.984273251e-07
3.991523448e-07
3.998321849e-07
4.003999339e-07
4.007632685e-07
3.985251693e-07
3.988955697e-07
3.994191464e-07
4.00054226e-07
4.007535495e-07
4.014654752e-07
4.021338753e-07
4.026932595e-07
4.030524215e-07
4.008643909e-07
4.012276538e-07
4.017411699e-07
4.023641393e-07
4.030503593e-07
4.037494202e-07
4.044065627e-07
4.049576896e-07
4.05312704e-07
4.031736133e-07
4.03529872e-07
4.040335144e-07
4.046445967e-07
4.053179495e-07
4.060043678e-07
4.066504307e-07
4.071934062e-07
4.07544299e-07
4.054530614e-07
4.058024448e-07
4.062963945e-07
4.068958055e-07
4.0755652e-07
4.082305115e-07
4.08865668e-07
4.094005961e-07
4.097473945e-07
4.077029627e-07
4.080455954e-07
4.085300274e-07
4.091179758e-07
4.097662737e-07
4.104280476e-07
4.110524662e-07
4.115794489e-07
4.119221802e-07
4.099235447e-07
4.10259547e-07
4.107346305e-07
4.113113181e-07
4.119474138e-07
4.125971725e-07
4.132110164e-07
4.137301531e-07
4.140688447e-07
4.121150316e-07
4.124445197e-07
4.129104176e-07
4.13476039e-07
4.14100139e-07
4.147380775e-07
4.153415039e-07
4.158528902e-07
4.161875684e-07
4.142776391e-07
4.146007244e-07
4.150575932e-07
4.156123349e-07
4.16224637e-07
4.168509416e-07
4.174441005e-07
4.179478266e-07
4.182785153e-07
4.164115664e-07
4.167283552e-07
4.171763438e-07
4.177203828e-07
4.183210743e-07
4.189359208e-07
4.195189519e-07
4.200151005e-07
4.203418193e-07
4.185169854e-07
4.188275772e-07
4.19266825e-07
4.198003268e-07
4.203895815e-07
4.209931313e-07
4.215661608e-07
4.220548029e-07
4.22377564e-07
4.205940234e-07
4.208985097e-07
4.213291437e-07
4.21852258e-07
4.224302315e-07
4.230226264e-07
4.235857611e-07
4.240669502e-07
4.243857543e-07
4.226427404e-07
4.229412007e-07
4.233633312e-07
4.238761859e-07
4.244430085e-07
4.250243627e-07
4.255776809e-07
4.260514451e-07
4.263662749e-07
4.246630953e-07
4.249555931e-07
4.253693064e-07
4.25871999e-07
4.26427765e-07
4.269981526e-07
4.275416918e-07
4.280080215e-07
4.283188337e-07
4.266549006e-07
4.269414766e-07
4.273468251e-07
4.278394094e-07
4.283841611e-07
4.28943599e-07
4.29477338e-07
4.299361699e-07
4.30242883e-07
4.286177608e-07
4.288984229e-07
4.292954106e-07
4.297778782e-07
4.303115841e-07
4.308600076e-07
4.313838414e-07
4.318350358e-07
4.321375155e-07
4.3055099e-07
4.308256998e-07
4.312142624e-07
4.316865162e-07
4.322090404e-07
4.327462697e-07
4.332599762e-07
4.337032872e-07
4.340013263e-07
4.324535046e-07
4.327221588e-07
4.331021357e-07
4.335639554e-07
4.34075016e-07
4.346007111e-07
4.351039064e-07
4.355389438e-07
4.358322375e-07
4.343236857e-07
4.345860911e-07
4.349571894e-07
4.35408184e-07
4.359072983e-07
4.364209004e-07
4.369129812e-07
4.373391612e-07
4.376272766e-07
4.361592063e-07
4.364150476e-07
4.367767937e-07
4.372163409e-07
4.37702755e-07
4.382034104e-07
4.386834809e-07
4.390999658e-07
4.393823054e-07
4.379568192e-07
4.382056171e-07
4.385572961e-07
4.389844646e-07
4.394570635e-07
4.399435295e-07
4.404103112e-07
4.408159355e-07
4.410916947e-07
4.397121007e-07
4.399531604e-07
4.402937401e-07
4.407071937e-07
4.411643909e-07
4.416349194e-07
4.420866416e-07
4.424798255e-07
4.427479445e-07
4.414191493e-07
4.416514971e-07
4.419795357e-07
4.423774167e-07
4.428170213e-07
4.4326922e-07
4.437034914e-07
4.440821407e-07
4.44341251e-07
4.430702396e-07
4.432925478e-07
4.436060842e-07
4.439858758e-07
4.444049358e-07
4.44835607e-07
4.452492674e-07
4.456106612e-07
4.458590292e-07
4.446554338e-07
4.448659334e-07
4.451623609e-07
4.455207287e-07
4.459153524e-07
4.463203102e-07
4.467092656e-07
4.470499343e-07
4.47285403e-07
4.461621604e-07
4.463585429e-07
4.466344668e-07
4.469670822e-07
4.473322399e-07
4.477061092e-07
4.480651536e-07
4.483807511e-07
4.486006833e-07
4.475747702e-07
4.477540805e-07
4.480051637e-07
4.483065128e-07
4.486358248e-07
4.489718295e-07
4.492944595e-07
4.495796349e-07
4.497808615e-07
4.488740889e-07
4.490326132e-07
4.492534152e-07
4.49516601e-07
4.498021196e-07
4.500918677e-07
4.503701003e-07
4.506183772e-07
4.507971542e-07
4.500369907e-07
4.501701433e-07
4.503539598e-07
4.505705073e-07
4.508025061e-07
4.51035786e-07
4.512599901e-07
4.514636624e-07
4.516156429e-07
4.510360205e-07
4.511382386e-07
4.512769523e-07
4.514366305e-07
4.516034147e-07
4.517680187e-07
4.519267777e-07
4.520768348e-07
4.521970611e-07
4.518391036e-07
4.519037568e-07
4.519877132e-07
4.520783897e-07
4.52166149e-07
4.522477436e-07
4.523277667e-07
4.524138622e-07
4.524967856e-07
4.524093807e-07
4.524287082e-07
4.52446631e-07
4.524541807e-07
4.52446906e-07
4.52428975e-07
4.524150797e-07
4.524255596e-07
4.524650943e-07
4.527052159e-07
4.526703016e-07
4.526092672e-07
4.52517557e-07
4.523970485e-07
4.52260934e-07
4.521361248e-07
4.520581328e-07
4.520477537e-07
4.526804225e-07
4.525812235e-07
4.524267133e-07
4.522176884e-07
4.519636828e-07
4.516887544e-07
4.514344228e-07
4.512541029e-07
4.511869928e-07
4.522847537e-07
4.521101952e-07
4.518462476e-07
4.515001447e-07
4.510905905e-07
4.506545718e-07
4.50250845e-07
4.499536582e-07
4.498229137e-07
4.514647002e-07
4.512028512e-07
4.508123323e-07
4.503080453e-07
4.497195538e-07
4.490990339e-07
4.485252952e-07
4.480964669e-07
4.478953681e-07
4.501646288e-07
4.498029711e-07
4.492679815e-07
4.485835997e-07
4.477920954e-07
4.469632471e-07
4.461988462e-07
4.456239563e-07
4.453463033e-07
4.483282825e-07
4.478540814e-07
4.471565122e-07
4.462700455e-07
4.452516279e-07