/*--------------------------------*- C++ -*----------------------------------*\
| =========                 |                                                 |
| \\      /  F ield         | OpenFOAM: The Open Source CFD Toolbox           |
|  \\    /   O peration     | Version:  2212                                  |
|   \\  /    A nd           | Website:  www.openfoam.com                      |
|    \\/     M anipulation  |                                                 |
\*---------------------------------------------------------------------------*/
FoamFile
{
    version     2.0;
    format      ascii;
    arch        "LSB;label=32;scalar=64";
    class       volScalarField;
    location    "23.25000000";
    object      I-C4H3;
}
// * * * * * * * * * * * * * * * * * * * * * * * * * * * * * * * * * * * * * //

dimensions      [0 0 0 0 0 0 0];

internalField   nonuniform List<scalar> 
3000
(
3.300312091e-25
3.707497746e-25
4.321931758e-25
5.140702975e-25
6.155458203e-25
7.338598443e-25
8.618811753e-25
9.840255106e-25
1.070412706e-24
1.239079196e-24
1.397573984e-24
1.636637803e-24
1.955918555e-24
2.355089689e-24
2.831903343e-24
3.378082313e-24
3.965858206e-24
4.486759622e-24
2.775347624e-24
3.154886645e-24
3.732832058e-24
4.517553818e-24
5.523168658e-24
6.764218749e-24
8.235901313e-24
9.855389563e-24
1.124023322e-23
5.286281042e-24
6.072155714e-24
7.28638978e-24
8.970065948e-24
1.118283308e-23
1.398086915e-23
1.734900728e-23
2.101715792e-23
2.397851367e-23
9.386844721e-24
1.091460826e-23
1.331228192e-23
1.670164857e-23
2.124214905e-23
2.706098325e-23
3.406116712e-23
4.149475781e-23
4.720144776e-23
1.614125282e-23
1.900864619e-23
2.357324319e-23
3.012629398e-23
3.9017359e-23
5.046997289e-23
6.414228205e-23
7.830969283e-23
8.879139102e-23
2.74016807e-23
3.266867032e-23
4.11509046e-23
5.346573259e-23
7.029890121e-23
9.198482313e-23
1.176266938e-22
1.436788403e-22
1.624769326e-22
4.637228755e-23
5.590413401e-23
7.139129937e-23
9.405025449e-23
1.251447395e-22
1.651221095e-22
2.119767065e-22
2.588882141e-22
2.921728877e-22
7.860438232e-23
9.567221559e-23
1.235831971e-22
1.646262761e-22
2.210493252e-22
2.933941474e-22
3.775736149e-22
4.609783438e-22
5.195019527e-22
1.337105898e-22
1.640321219e-22
2.138440422e-22
2.873296397e-22
3.884146207e-22
5.176846247e-22
6.672676461e-22
8.143867097e-22
9.168498119e-22
2.283463915e-22
2.818969123e-22
3.701492368e-22
5.006088771e-22
6.800726357e-22
9.090615184e-22
1.172939098e-21
1.431137507e-21
1.610059106e-21
3.913771804e-22
4.85534428e-22
6.410484713e-22
8.712302073e-22
1.187809915e-21
1.591031067e-21
2.054282698e-21
2.505927184e-21
2.817812221e-21
6.728474735e-22
8.378569692e-22
1.110806831e-21
1.515131867e-21
2.071066008e-21
2.778171533e-21
3.588763396e-21
4.377023748e-21
4.920035579e-21
1.159543971e-21
1.448012263e-21
1.925683379e-21
2.633625436e-21
3.606761867e-21
4.84322483e-21
6.258376978e-21
7.63201421e-21
8.57662547e-21
2.002006821e-21
2.505391861e-21
3.339554364e-21
4.576248146e-21
6.275805676e-21
8.433558206e-21
1.090023872e-20
1.329135309e-20
1.493356814e-20
3.461409435e-21
4.338659488e-21
5.793107327e-21
7.949867955e-21
1.091325669e-20
1.467331633e-20
1.896794613e-20
2.31269e-20
2.598071856e-20
5.990918525e-21
7.518202503e-21
1.005129566e-20
1.380804168e-20
1.89689031e-20
2.551413101e-20
3.298487703e-20
4.021418922e-20
4.517145172e-20
1.037688489e-20
1.303393242e-20
1.744188552e-20
2.397961283e-20
3.295937485e-20
4.43434653e-20
5.733022432e-20
6.988965163e-20
7.849692987e-20
1.798381736e-20
2.260378948e-20
3.026934806e-20
4.163877145e-20
5.725230057e-20
7.703943447e-20
9.960152513e-20
1.214097232e-19
1.363479519e-19
3.117930409e-20
3.920887109e-20
5.253274339e-20
7.229360915e-20
9.942563706e-20
1.337983423e-19
1.729738528e-19
2.108215842e-19
2.367343755e-19
5.407068194e-20
6.802112381e-20
9.11700331e-20
1.254990635e-19
1.726220906e-19
2.322983887e-19
3.00280972e-19
3.659257138e-19
4.108480059e-19
9.378126987e-20
1.180102962e-19
1.582128474e-19
2.178217821e-19
2.996215967e-19
4.03167954e-19
5.210641706e-19
6.348402738e-19
7.126570267e-19
1.626599852e-19
2.047259747e-19
2.74516022e-19
3.779692151e-19
5.198806697e-19
6.994260104e-19
9.037251246e-19
1.100750101e-18
1.235416005e-18
2.821019716e-19
3.55106801e-19
4.762015413e-19
6.556448654e-19
9.016732509e-19
1.212745075e-18
1.566432346e-18
1.907243041e-18
2.139997993e-18
4.891452828e-19
6.157811435e-19
8.257735042e-19
1.136807412e-18
1.562984218e-18
2.101394544e-18
2.71298128e-18
3.301694674e-18
3.703349239e-18
8.478409382e-19
1.067367568e-18
1.431251453e-18
1.969905702e-18
2.707372337e-18
3.638106787e-18
4.694086291e-18
5.709270021e-18
6.401019434e-18
1.468807547e-18
1.849052851e-18
2.479018126e-18
3.410847541e-18
4.685317872e-18
6.291763085e-18
8.111708481e-18
9.858573943e-18
1.104704711e-17
2.542776534e-18
3.200716762e-18
4.290037848e-18
5.899812101e-18
8.098752616e-18
1.086617527e-17
1.399575795e-17
1.699385443e-17
1.902972702e-17
4.397965605e-18
5.53489314e-18
7.415719142e-18
1.019191171e-17
1.397833986e-17
1.87346496e-17
2.410167301e-17
2.923117654e-17
3.270642103e-17
7.597870993e-18
9.559235745e-18
1.280068513e-17
1.757839358e-17
2.408252765e-17
3.223408324e-17
4.140830956e-17
5.015208967e-17
5.605992164e-17
1.310730784e-17
1.648403916e-17
2.205781314e-17
3.025908131e-17
4.13989555e-17
5.532265771e-17
7.094492164e-17
8.578551307e-17
9.57809385e-17
2.257311129e-17
2.837219449e-17
3.793045617e-17
5.196563416e-17
7.097943022e-17
9.466927759e-17
1.211537676e-16
1.462180425e-16
1.630379294e-16
3.879641751e-17
4.872619718e-17
6.506456121e-17
8.899749672e-17
1.213200025e-16
1.614435278e-16
2.061158454e-16
2.482110696e-16
2.763441137e-16
6.652314448e-17
8.346704156e-17
1.112899702e-16
1.519311405e-16
2.066235662e-16
2.742309693e-16
3.491530913e-16
4.194138637e-16
4.661572369e-16
1.137596047e-16
1.425563273e-16
1.897315868e-16
2.584179126e-16
3.504773707e-16
4.637376182e-16
5.886023825e-16
7.050794072e-16
7.821865903e-16
1.93948843e-16
2.426660451e-16
3.222615395e-16
4.377255053e-16
5.917762249e-16
7.8030926e-16
9.869797407e-16
1.17866331e-15
1.3048854e-15
3.295475259e-16
4.115411649e-16
5.450990519e-16
7.380452689e-16
9.941736727e-16
1.305832885e-15
1.645381228e-15
1.958385247e-15
2.163348119e-15
5.57864281e-16
6.950744782e-16
9.17818604e-16
1.23814403e-15
1.66101934e-15
2.172390288e-15
2.725890997e-15
3.232855862e-15
3.562915042e-15
9.405200336e-16
1.168689375e-15
1.537716592e-15
2.065773617e-15
2.758742774e-15
3.591213172e-15
4.486115486e-15
5.30035982e-15
5.827357593e-15
1.578660268e-15
1.955504009e-15
2.562523902e-15
3.426490966e-15
4.553117007e-15
5.897208428e-15
7.331917828e-15
8.628535059e-15
9.462783443e-15
2.637221079e-15
3.255073572e-15
4.245996739e-15
5.648367188e-15
7.464983585e-15
9.616812585e-15
1.189724473e-14
1.394427754e-14
1.525365252e-14
4.383316579e-15
5.388482105e-15
6.993198326e-15
9.250731108e-15
1.215513413e-14
1.557052136e-14
1.916398057e-14
2.236812049e-14
2.440594126e-14
7.246446936e-15
8.86847351e-15
1.144562168e-14
1.504896238e-14
1.965252883e-14
2.502658118e-14
3.064053651e-14
3.5613634e-14
3.875910476e-14
1.191210837e-14
1.450758494e-14
1.861115148e-14
2.431292849e-14
3.15464608e-14
3.992966486e-14
4.862609296e-14
5.62813283e-14
6.109786063e-14
1.946605805e-14
2.358345196e-14
3.006085642e-14
3.90046592e-14
5.02724461e-14
6.323877712e-14
7.659904769e-14
8.828918174e-14
9.560806246e-14
3.161470175e-14
3.808940171e-14
4.822463054e-14
6.213226322e-14
7.953464497e-14
9.942338885e-14
1.197846438e-13
1.37499723e-13
1.485395791e-13
5.101888341e-14
6.111126556e-14
7.68320018e-14
9.827329538e-14
1.249260452e-13
1.551876034e-13
1.859798595e-13
2.126286136e-13
2.291652627e-13
8.179523574e-14
9.738960661e-14
1.215647337e-13
1.54343707e-13
1.948336138e-13
2.40521404e-13
2.867460549e-13
3.265547771e-13
3.511616894e-13
1.302632572e-13
1.541524756e-13
1.910165723e-13
2.407208102e-13
3.017520657e-13
3.702189032e-13
4.391250561e-13
4.982008464e-13
5.345886096e-13
2.060502894e-13
2.423405034e-13
2.980960876e-13
3.728741563e-13
4.641809579e-13
5.660605919e-13
6.680974077e-13
7.552208545e-13
8.087150581e-13
3.237144963e-13
3.78397969e-13
4.620659863e-13
5.73722246e-13
7.093510452e-13
8.59935407e-13
1.010088463e-12
1.137826251e-12
1.216039229e-12
5.051128474e-13
5.868730832e-13
7.114822109e-13
8.77008299e-13
1.077114903e-12
1.29828751e-12
1.517953905e-12
1.704219315e-12
1.817989075e-12
7.827920833e-13
9.041296235e-13
1.08839261e-12
1.332125093e-12
1.625498055e-12
1.948437897e-12
2.268042267e-12
2.538269969e-12
2.702971221e-12
1.204906741e-12
1.383715899e-12
1.654363472e-12
2.010983033e-12
2.438550656e-12
2.90749343e-12
3.370132178e-12
3.760310711e-12
3.997685685e-12
1.842233725e-12
2.103994573e-12
2.499020417e-12
3.017719158e-12
3.637420307e-12
4.314881484e-12
4.981383783e-12
5.542270676e-12
5.882975904e-12
2.798137174e-12
3.178953588e-12
3.752109589e-12
4.502361023e-12
5.395886348e-12
6.369888396e-12
7.325819886e-12
8.128777573e-12
8.615913027e-12
4.222644472e-12
4.77343949e-12
5.600440228e-12
6.679958554e-12
7.962044217e-12
9.356075415e-12
1.072138491e-11
1.186641582e-11
1.256038338e-11
6.332218002e-12
7.124505534e-12
8.311559152e-12
9.857234969e-12
1.168842119e-11
1.367509376e-11
1.561732706e-11
1.724406332e-11
1.822920128e-11
9.437371687e-12
1.05711654e-11
1.226665568e-11
1.44695181e-11
1.707358603e-11
1.98932768e-11
2.264558106e-11
2.494823242e-11
2.634182928e-11
1.398102078e-11
1.559562442e-11
1.800603725e-11
2.11316319e-11
2.481932412e-11
2.880550163e-11
3.269106725e-11
3.593872053e-11
3.790328408e-11
2.059139859e-11
2.288005338e-11
2.6291579e-11
3.070758142e-11
3.590871669e-11
4.152222397e-11
4.69874152e-11
5.155165718e-11
5.431171176e-11
3.015454245e-11
3.338419174e-11
3.819185315e-11
4.440527937e-11
5.171203054e-11
5.958735563e-11
6.724659423e-11
7.363914668e-11
7.750425727e-11
4.391275446e-11
4.845053811e-11
5.519722596e-11
6.390430968e-11
7.412929569e-11
8.513686997e-11
9.583332137e-11
1.047571261e-10
1.101532384e-10
6.359713029e-11
6.994568206e-11
7.937418387e-11
9.152694302e-11
1.057809376e-10
1.211107054e-10
1.35997859e-10
1.484158112e-10
1.559274371e-10
9.160440334e-11
1.00448651e-10
1.135707049e-10
1.3046542e-10
1.50260791e-10
1.715335191e-10
1.921837935e-10
2.094101656e-10
2.198364673e-10
1.31231221e-10
1.435001647e-10
1.616876578e-10
1.850817411e-10
2.124689872e-10
2.418829607e-10
2.704305746e-10
2.942510926e-10
3.086794375e-10
1.869824787e-10
2.039301914e-10
2.290346318e-10
2.612994877e-10
2.990454264e-10
3.395674248e-10
3.788939463e-10
4.117213482e-10
4.316223278e-10
2.649738842e-10
2.882846194e-10
3.227918964e-10
3.671104697e-10
4.189279059e-10
4.745386559e-10
5.285107308e-10
5.735833423e-10
6.009315836e-10
3.734521681e-10
4.053750931e-10
4.526034811e-10
5.132223831e-10
5.840623761e-10
6.600678365e-10
7.338374579e-10
7.954688748e-10
8.328941943e-10
5.234596221e-10
5.669793829e-10
6.313297067e-10
7.138769066e-10
8.102957951e-10
9.137164666e-10
1.014094773e-09
1.097983093e-09
1.148956705e-09
7.29672853e-10
7.887227364e-10
8.759903262e-10
9.878700933e-10
1.11848402e-09
1.258534935e-09
1.394450783e-09
1.508055984e-09
1.577116535e-09
1.0114479e-09
1.091172572e-09
1.208930823e-09
1.359807716e-09
1.535847386e-09
1.724521231e-09
1.907575541e-09
2.06057336e-09
2.153597436e-09
1.394104081e-09
1.501178591e-09
1.659243466e-09
1.861626401e-09
2.097603749e-09
2.350368384e-09
2.595494064e-09
2.800313758e-09
2.924834949e-09
1.910476167e-09
2.05348689e-09
2.264470068e-09
2.534405325e-09
2.848901139e-09
3.185519879e-09
3.51175425e-09
3.784205236e-09
3.949784431e-09
2.60275706e-09
2.792648091e-09
3.072603245e-09
3.430480988e-09
3.847057417e-09
4.292534766e-09
4.723905839e-09
5.083893452e-09
5.302540184e-09
3.524639362e-09
3.775224172e-09
4.144385243e-09
4.615856801e-09
5.164089831e-09
5.749735656e-09
6.316253937e-09
6.788576399e-09
7.075216035e-09
4.743742035e-09
5.072274312e-09
5.555875849e-09
6.172867447e-09
6.889480689e-09
7.654070772e-09
8.392803373e-09
9.008009365e-09
9.380983207e-09
6.344275776e-09
6.772064848e-09
7.401221726e-09
8.20301386e-09
9.133075449e-09
1.012406505e-08
1.108024801e-08
1.18755167e-08
1.235709136e-08
8.429856748e-09
8.982901567e-09
9.795508518e-09
1.082982845e-08
1.202794749e-08
1.330266748e-08
1.453078593e-08
1.555076945e-08
1.616761873e-08
1.112632372e-08
1.183592543e-08
1.287751642e-08
1.420156553e-08
1.573299503e-08
1.735972917e-08
1.892446584e-08
2.022201059e-08
2.100561909e-08
1.458435206e-08
1.548764997e-08
1.681213558e-08
1.849344644e-08
2.043496988e-08
2.249378173e-08
2.447070675e-08
2.61073483e-08
2.709427359e-08
1.898159698e-08
2.012195859e-08
2.179213997e-08
2.390913464e-08
2.634958898e-08
2.89327442e-08
3.140860031e-08
3.345471329e-08
3.468663653e-08
2.452404925e-08
2.595123526e-08
2.803898043e-08
3.068108882e-08
3.37213657e-08
3.693318799e-08
4.000562251e-08
4.254010761e-08
4.406360429e-08
3.144626383e-08
3.321628747e-08
3.58022561e-08
3.906945676e-08
4.282183329e-08
4.677784839e-08
5.055446322e-08
5.366387364e-08
5.552984983e-08
4.001013982e-08
4.218475006e-08
4.535757028e-08
4.935924275e-08
5.394592917e-08
5.877119441e-08
6.336783215e-08
6.71448835e-08
6.94076494e-08
5.050200005e-08
5.314774226e-08
5.70025804e-08
6.185560907e-08
6.740646328e-08
7.323305114e-08
7.877130643e-08
8.331277485e-08
8.602876475e-08
6.322784379e-08
6.641468826e-08
7.105120792e-08
7.687734926e-08
8.352679318e-08
9.049048832e-08
9.709452081e-08
1.024986059e-07
1.057247964e-07
7.85068173e-08
8.230639241e-08
8.782616659e-08
9.474877624e-08
1.026320442e-07
1.108684108e-07
1.186612264e-07
1.25024527e-07
1.288166464e-07
9.666314417e-08
1.0114666e-07
1.076501695e-07
1.157904688e-07
1.250394078e-07
1.346794722e-07
1.437789151e-07
1.511932221e-07
1.556038748e-07
1.1801695e-07
1.23252941e-07
1.308363505e-07
1.403094801e-07
1.510481905e-07
1.622140447e-07
1.727287918e-07
1.812779324e-07
1.863547712e-07
1.428745684e-07
1.489266133e-07
1.576785547e-07
1.685897e-07
1.809303379e-07
1.937309949e-07
2.057568585e-07
2.155138311e-07
2.212978659e-07
1.715190013e-07
1.784435855e-07
1.884421838e-07
2.008830578e-07
2.149221103e-07
2.29449924e-07
2.430667621e-07
2.540914603e-07
2.606161813e-07
2.042012013e-07
2.120458772e-07
2.233562292e-07
2.374021576e-07
2.532174387e-07
2.695453034e-07
2.8481466e-07
2.971523773e-07
3.044423056e-07
2.411327631e-07
2.499347262e-07
2.626069958e-07
2.78314786e-07
2.959633348e-07
3.141428215e-07
3.311066972e-07
3.447867174e-07
3.528571263e-07
2.824804463e-07
2.92265606e-07
3.063338301e-07
3.237405285e-07
3.432574867e-07
3.633182183e-07
3.819981415e-07
3.970337037e-07
4.05890567e-07
3.283627607e-07
3.391453295e-07
3.546269212e-07
3.737495043e-07
3.951482048e-07
4.17097604e-07
4.37495186e-07
4.538839549e-07
4.635242943e-07
3.788486183e-07
3.90631274e-07
4.075275509e-07
4.283633675e-07
4.516356572e-07
4.754601292e-07
4.975582362e-07
5.15283404e-07
5.256960189e-07
4.339583437e-07
4.467326353e-07
4.650292005e-07
4.875570792e-07
5.126750674e-07
5.383417754e-07
5.621063799e-07
5.811383792e-07
5.923050605e-07
4.936651948e-07
5.074124427e-07
5.270807259e-07
5.512627321e-07
5.781808034e-07
6.056398958e-07
6.310223717e-07
6.51321161e-07
6.632191569e-07
5.578991609e-07
5.725915709e-07
5.935904209e-07
6.193738734e-07
6.480309507e-07
6.77217869e-07
7.041570448e-07
7.256734566e-07
7.382715596e-07
6.265513521e-07
6.421532566e-07
6.644307056e-07
6.917503369e-07
7.220722349e-07
7.529100041e-07
7.813341231e-07
8.040070814e-07
8.172687317e-07
6.994789454e-07
7.159480998e-07
7.394431905e-07
7.682233525e-07
8.001251396e-07
8.325264883e-07
8.623505776e-07
8.861111737e-07
8.999958313e-07
7.765104232e-07
7.937992982e-07
8.184438508e-07
8.486006881e-07
8.819878806e-07
9.158525372e-07
9.46983518e-07
9.717572816e-07
9.862213757e-07
8.574508759e-07
8.755079737e-07
9.012279419e-07
9.326683425e-07
9.674353391e-07
1.002656031e-06
1.03499519e-06
1.060703604e-06
1.075701386e-06
9.420868479e-07
9.60855025e-07
9.875681553e-07
1.020191536e-06
1.056227412e-06
1.092692083e-06
1.126136861e-06
1.152698712e-06
1.168183008e-06
1.030180161e-06
1.049599226e-06
1.077220097e-06
1.110922501e-06
1.148112988e-06
1.185706653e-06
1.220152225e-06
1.247484775e-06
1.263407645e-06
1.121478995e-06
1.141487367e-06
1.169928758e-06
1.204604349e-06
1.242833453e-06
1.281439756e-06
1.316780365e-06
1.344800361e-06
1.361113656e-06
1.215722497e-06
1.236258008e-06
1.265432009e-06
1.300974355e-06
1.340125714e-06
1.379628231e-06
1.415758318e-06
1.44438284e-06
1.461038678e-06
1.312644122e-06
1.333644689e-06
1.363463633e-06
1.399766787e-06
1.43972481e-06
1.480008137e-06
1.516823287e-06
1.545970453e-06
1.56292161e-06
1.411974503e-06
1.433378692e-06
1.46375593e-06
1.500715336e-06
1.541366153e-06
1.582316812e-06
1.619714526e-06
1.649304077e-06
1.666504309e-06
1.513443926e-06
1.53519142e-06
1.566041964e-06
1.603555208e-06
1.644787448e-06
1.686294625e-06
1.72417496e-06
1.754128734e-06
1.771533044e-06
1.616784453e-06
1.638816438e-06
1.670057488e-06
1.708024908e-06
1.749730336e-06
1.791686483e-06
1.829952562e-06
1.860194873e-06
1.877759719e-06
1.721731746e-06
1.743991217e-06
1.775542589e-06
1.813867766e-06
1.855941788e-06
1.898243095e-06
1.936801514e-06
1.967259455e-06
1.984942919e-06
1.828026613e-06
1.850458627e-06
1.882243083e-06
1.920833227e-06
1.963175285e-06
2.005722054e-06
2.044483192e-06
2.075086865e-06
2.092848778e-06
1.935416319e-06
1.957968178e-06
1.989911688e-06
2.028677929e-06
2.071191803e-06
2.113888722e-06
2.152766978e-06
2.183449665e-06
2.201251703e-06
2.043655673e-06
2.066277073e-06
2.098309002e-06
2.137166607e-06
2.179760629e-06
2.222516976e-06
2.261430931e-06
2.292129215e-06
2.309934962e-06
2.152507934e-06
2.175151056e-06
2.207204297e-06
2.246072821e-06
2.288660027e-06
2.331389796e-06
2.370262322e-06
2.400916165e-06
2.418691157e-06
2.261745533e-06
2.284365112e-06
2.316376172e-06
2.355179544e-06
2.397677756e-06
2.440299739e-06
2.479058058e-06
2.509610836e-06
2.527322583e-06
2.371150651e-06
2.393704007e-06
2.425613044e-06
2.464279614e-06
2.506611481e-06
2.54904929e-06
2.587624991e-06
2.618023508e-06
2.635641492e-06
2.480515654e-06
2.502962702e-06
2.534713535e-06
2.573176073e-06
2.615269066e-06
2.657451124e-06
2.695780143e-06
2.725974609e-06
2.74347028e-06
2.589643412e-06
2.611946646e-06
2.643486735e-06
2.6816824e-06
2.723468768e-06
2.76532826e-06
2.803350837e-06
2.833294832e-06
2.850641579e-06
2.69834751e-06
2.720471973e-06
2.751752368e-06
2.789622652e-06
2.831039356e-06
2.872514157e-06
2.910174762e-06
2.939825178e-06
2.956998296e-06
2.806452359e-06
2.828365599e-06
2.85934088e-06
2.896831522e-06
2.937820141e-06
2.978852718e-06
3.016099964e-06
3.04541693e-06
3.062393583e-06
2.913793237e-06
2.935465251e-06
2.966093442e-06
3.003154329e-06
3.043660946e-06
3.084198247e-06
3.120984783e-06
3.149931588e-06
3.166690755e-06
3.020216243e-06
3.04161941e-06
3.071861888e-06
3.108446941e-06
3.148422021e-06
3.188415343e-06
3.224697739e-06
3.253240733e-06
3.26976316e-06
3.125578205e-06
3.146687212e-06
3.176508605e-06
3.212575654e-06
3.2519739e-06
3.291378753e-06
3.327117371e-06
3.35522587e-06
3.371494007e-06
3.229746521e-06
3.25053829e-06
3.279906363e-06
3.315417011e-06
3.354197222e-06
3.392973179e-06
3.428132041e-06
3.455778219e-06
3.471776164e-06
3.332598964e-06
3.353052564e-06
3.381938108e-06
3.416857591e-06
3.454982507e-06
3.493093054e-06
3.527639702e-06
3.554798483e-06
3.570511918e-06
3.434023442e-06
3.454120013e-06
3.48249672e-06
3.516793766e-06
3.55422991e-06
3.591642285e-06
3.625547638e-06
3.652196587e-06
3.667612713e-06
3.533917738e-06
3.553640394e-06
3.581484742e-06
3.61513142e-06
3.651848939e-06
3.688533975e-06
3.721772189e-06
3.747891394e-06
3.762998865e-06
3.632189205e-06
3.651522955e-06
3.678814079e-06
3.711785656e-06
3.747758157e-06
3.783690122e-06
3.816238439e-06
3.841810403e-06
3.856599264e-06
3.728754457e-06
3.747686116e-06
3.77440569e-06
3.806680476e-06
3.84188487e-06
3.877041303e-06
3.90887991e-06
3.933889432e-06
3.948351051e-06
3.823539034e-06
3.842057135e-06
3.868189246e-06
3.899748452e-06
3.934164788e-06
3.968526342e-06
3.999638226e-06
4.024072291e-06
4.038199293e-06
3.916477055e-06
3.934571763e-06
3.960102793e-06
3.990930381e-06
4.024541691e-06
4.058091973e-06
4.088462774e-06
4.112310442e-06
4.126096646e-06
4.007510862e-06
4.025173891e-06
4.050092392e-06
4.080174935e-06
4.112967072e-06
4.145692488e-06
4.175310364e-06
4.198562654e-06
4.212003008e-06
4.096590658e-06
4.113815183e-06
4.138111766e-06
4.1674383e-06
4.199399789e-06
4.231289389e-06
4.260144871e-06
4.282794658e-06
4.295885178e-06
4.183674138e-06
4.200454717e-06
4.224121928e-06
4.252683819e-06
4.283805702e-06
4.314851027e-06
4.342936887e-06
4.364978792e-06
4.377716499e-06
4.268726117e-06
4.285058608e-06
4.308090824e-06
4.335881626e-06
4.366157313e-06
4.396352251e-06
4.423663367e-06
4.445093653e-06
4.45747651e-06
4.351718165e-06
4.367599649e-06
4.38999296e-06
4.417008284e-06
4.446433411e-06
4.47577405e-06
4.502307274e-06
4.523123743e-06
4.535150602e-06
4.432628233e-06
4.448056938e-06
4.469809042e-06
4.496046426e-06
4.524618712e-06
4.5531032e-06
4.578857234e-06
4.599059128e-06
4.610729665e-06
4.511440293e-06
4.526415517e-06
4.547525615e-06
4.572984398e-06
4.600703505e-06
4.628331914e-06
4.653307183e-06
4.672895089e-06
4.684209753e-06
4.588143971e-06
4.602666011e-06
4.623134706e-06
4.647815905e-06
4.674683309e-06
4.701457501e-06
4.725656034e-06
4.744631784e-06
4.755591742e-06
4.662734199e-06
4.676804282e-06
4.696633477e-06
4.720539668e-06
4.746558526e-06
4.772482024e-06
4.795907338e-06
4.814273924e-06
4.824881007e-06
4.735210859e-06
4.748831073e-06
4.76802388e-06
4.791159082e-06
4.81633411e-06
4.841411971e-06
4.86406896e-06
4.881830442e-06
4.892087093e-06
4.80557845e-06
4.818751678e-06
4.837312322e-06
4.859681886e-06
4.884019234e-06
4.908257935e-06
4.930152757e-06
4.947314178e-06
4.957223406e-06
4.873845751e-06
4.886575607e-06
4.90450934e-06
4.926119842e-06
4.949626981e-06
4.973034296e-06
4.994174271e-06
5.010741576e-06
5.020306906e-06
4.940025497e-06
4.95231627e-06
4.96962928e-06
4.99048842e-06
5.013174026e-06
5.035758919e-06
5.056152427e-06
5.072132384e-06
5.08135781e-06
5.004134073e-06
5.015990662e-06
5.032689997e-06
5.052806494e-06
5.074680345e-06
5.096452858e-06
5.116109243e-06
5.131509366e-06
5.14039931e-06
5.066191203e-06
5.077619065e-06
5.093712549e-06
5.113096053e-06
5.13416892e-06
5.155140075e-06
5.174069553e-06
5.188898027e-06
5.197457297e-06
5.126219665e-06
5.13722476e-06
5.152720921e-06
5.171381914e-06
5.191665467e-06
5.211847164e-06
5.230060731e-06
5.244326349e-06
5.252560097e-06
5.184245008e-06
5.194833745e-06
5.20974174e-06
5.227691457e-06
5.247198167e-06
5.266603092e-06
5.284112441e-06
5.297824532e-06
5.305738216e-06
5.240295279e-06
5.250474474e-06
5.26480402e-06
5.28205436e-06
5.300797411e-06
5.319438946e-06
5.336256389e-06
5.349424755e-06
5.357024105e-06
5.294400774e-06
5.304177595e-06
5.317938906e-06
5.334502356e-06
5.352495558e-06
5.370387696e-06
5.386526082e-06
5.399160944e-06
5.406451924e-06
5.346593785e-06
5.355975712e-06
5.369179435e-06
5.385068994e-06
5.402326703e-06
5.419483968e-06
5.434956616e-06
5.44706855e-06
5.454057326e-06
5.396908368e-06
5.405903153e-06
5.418560308e-06
5.433789418e-06
5.450326458e-06
5.466763826e-06
5.481584453e-06
5.493184341e-06
5.499877254e-06
5.445380123e-06
5.453995746e-06
5.466117672e-06
5.480700149e-06
5.496531741e-06
5.512264573e-06
5.52644723e-06
5.537546207e-06
5.543949739e-06
5.492045984e-06
5.500290618e-06
5.51188892e-06
5.525838891e-06
5.540980584e-06
5.556024554e-06
5.569583565e-06
5.580192975e-06
5.586313725e-06
5.536944016e-06
5.544825993e-06
5.555912493e-06
5.569244338e-06
5.583711945e-06
5.598082978e-06
5.611032886e-06
5.621164232e-06
5.627008889e-06
5.580113236e-06
5.587641011e-06
5.5982277e-06
5.610955996e-06
5.624765534e-06
5.638479748e-06
5.650835257e-06
5.660500165e-06
5.666075484e-06
5.62159343e-06
5.628775552e-06
5.63887455e-06
5.65101402e-06
5.664181653e-06
5.677255303e-06
5.689031231e-06
5.698241408e-06
5.703554188e-06
5.661424994e-06
5.668270078e-06
5.67789359e-06
5.689459054e-06
5.702001043e-06
5.714450467e-06
5.725661699e-06
5.734428899e-06
5.739485963e-06
5.699648778e-06
5.706165476e-06
5.715325759e-06
5.726332089e-06
5.738264741e-06
5.750106315e-06
5.760767762e-06
5.769103751e-06
5.773911926e-06
5.736305945e-06
5.742502925e-06
5.751212248e-06
5.761674326e-06
5.773013952e-06
5.784264046e-06
5.794390602e-06
5.802307128e-06
5.806873228e-06
5.771437838e-06
5.777323755e-06
5.785594372e-06
5.795527053e-06
5.806289925e-06
5.816964859e-06
5.826571368e-06
5.834080133e-06
5.838410942e-06
5.805085853e-06
5.810669335e-06
5.818513451e-06
5.827931527e-06
5.83813384e-06
5.848249849e-06
5.857351068e-06
5.864463701e-06
5.868565958e-06
5.837291332e-06
5.842580955e-06
5.850010702e-06
5.858928868e-06
5.868586703e-06
5.878159903e-06
5.886770473e-06
5.893498507e-06
5.897378893e-06
5.86809545e-06
5.873099723e-06
5.880127132e-06
5.888559958e-06
5.897689251e-06
5.906735604e-06
5.914870021e-06
5.921224867e-06
5.924889992e-06
5.897539118e-06
5.902266465e-06
5.908903444e-06
5.916865345e-06
5.925481858e-06
5.934017142e-06
5.941689728e-06
5.947682659e-06
5.951139049e-06
5.925662889e-06
5.930121631e-06
5.936379945e-06
5.943885153e-06
5.952004444e-06
5.960044226e-06
5.967269106e-06
5.972911233e-06
5.976165318e-06
5.952506862e-06
5.956705208e-06
5.962596452e-06
5.969658996e-06
5.977296387e-06
5.984855996e-06
5.991647071e-06
5.996949325e-06
6.00000743e-06
5.978110598e-06
5.982056625e-06
5.987592206e-06
5.994225881e-06
6.001396438e-06
6.008490934e-06
6.014861856e-06
6.019834967e-06
6.022703297e-06
6.002513017e-06
6.006214654e-06
6.011405774e-06
6.017624114e-06
6.024342612e-06
6.030986758e-06
6.036950902e-06
6.041605377e-06
6.044290004e-06
6.025752294e-06
6.02921731e-06
6.034074932e-06
6.039891187e-06
6.046172077e-06
6.052380304e-06
6.057950735e-06
6.062296831e-06
6.064803682e-06
6.047865735e-06
6.051101715e-06
6.055636544e-06
6.061063635e-06
6.066921006e-06
6.072707372e-06
6.077896808e-06
6.0819445e-06
6.084279333e-06
6.06888962e-06
6.071903942e-06
6.076126382e-06
6.081176866e-06
6.086624392e-06
6.092002529e-06
6.096823286e-06
6.100582227e-06
6.102750608e-06
6.088858999e-06
6.091658802e-06
6.095578915e-06
6.10026492e-06
6.105315795e-06
6.110298835e-06
6.114762765e-06
6.118242225e-06
6.120249493e-06
6.107807424e-06
6.110399566e-06
6.114027007e-06
6.118360154e-06
6.123026999e-06
6.12762748e-06
6.131745871e-06
6.134954663e-06
6.136805883e-06
6.125766581e-06
6.128157579e-06
6.13150151e-06
6.135492805e-06
6.139787541e-06
6.144017272e-06
6.147800721e-06
6.150747089e-06
6.152446985e-06
6.142765794e-06
6.144961744e-06
6.148030713e-06
6.151690393e-06
6.155624066e-06
6.159493938e-06
6.162952169e-06
6.16564364e-06
6.167196502e-06
6.15883135e-06
6.16083781e-06
6.163639588e-06
6.166976913e-06
6.170559451e-06
6.174079177e-06
6.17722079e-06
6.179663964e-06
6.181073523e-06
6.173985587e-06
6.175807428e-06
6.178348781e-06
6.181371743e-06
6.184611618e-06
6.187789381e-06
6.190621511e-06
6.192821771e-06
6.194091024e-06
6.188245689e-06
6.18988688e-06
6.19217326e-06
6.194888192e-06
6.197791973e-06
6.200633939e-06
6.203161788e-06
6.205122919e-06
6.206253891e-06
6.201622097e-06
6.203085427e-06
6.205120558e-06
6.207531611e-06
6.210103353e-06
6.21261303e-06
6.214839247e-06
6.216562913e-06
6.217556348e-06
6.214116462e-06
6.215403164e-06
6.217188501e-06
6.219296948e-06
6.221537397e-06
6.223714787e-06
6.225638653e-06
6.227123723e-06
6.227978667e-06
6.225719038e-06
6.226828308e-06
6.228362323e-06
6.230165671e-06
6.232071225e-06
6.233911731e-06
6.235528107e-06
6.23676978e-06
6.237483055e-06
6.236405431e-06
6.23733381e-06
6.238611094e-06
6.240101934e-06
6.241663339e-06
6.243156373e-06
6.244454367e-06
6.245443066e-06
6.246008604e-06
6.246132611e-06
6.246873211e-06
6.247883347e-06
6.249047937e-06
6.250248644e-06
6.251375902e-06
6.252337214e-06
6.253057223e-06
6.253465232e-06
6.254834129e-06
6.255375687e-06
6.256101864e-06
6.256918383e-06
6.257732556e-06
6.258465915e-06
6.259062833e-06
6.259490632e-06
6.259726603e-06
6.262414493e-06
6.26274023e-06
6.263157588e-06
6.263594052e-06
6.263984184e-06
6.264283203e-06
6.264476216e-06
6.264578524e-06
6.264622048e-06
6.26874271e-06
6.268828993e-06
6.268902681e-06
6.268914514e-06
6.268828654e-06
6.26863767e-06
6.268372717e-06
6.26810423e-06
6.267927637e-06
6.273645067e-06
6.273459883e-06
6.273142847e-06
6.272670109e-06
6.272038727e-06
6.271283583e-06
6.270488957e-06
6.269789817e-06
6.269356667e-06
6.276897308e-06
6.276398566e-06
6.275629094e-06
6.274593436e-06
6.273325972e-06
6.271910445e-06
6.270493434e-06
6.269286497e-06
6.268549948e-06
6.278216438e-06
6.277350148e-06
6.276049258e-06
6.274350673e-06
6.272331899e-06
6.270133953e-06
6.26797734e-06
6.266165344e-06
6.265066475e-06
6.277252552e-06
6.275950951e-06
6.274019706e-06
6.271533242e-06
6.268619596e-06
6.265487638e-06
6.262446242e-06
6.259909039e-06
6.258375225e-06
6.273581156e-06
6.271760891e-06
6.269077816e-06
6.265650425e-06
6.261666556e-06
6.257415964e-06
6.253313474e-06
6.249905535e-06
6.247848996e-06
6.266696644e-06
6.264257143e-06
6.260675943e-06
6.256123751e-06
6.250859571e-06
6.24526981e-06
6.239896239e-06
6.2354447e-06
6.232761405e-06
6.256007693e-06
6.252829899e-06
6.248177724e-06
6.242284032e-06
6.235492679e-06
6.228305416e-06
6.221415551e-06
6.215719134e-06
6.212288239e-06
6.240835452e-06
6.236781133e-06
6.23085771e-06
6.223372116e-06
6.214769235e-06
6.205687919e-06
6.197001228e-06
6.189830394e-06
6.185514456e-06
6.220415524e-06
6.215327386e-06
6.207905336e-06
6.198544404e-06
6.187809256e-06
6.176500662e-06
6.165703132e-06
6.156801865e-06
6.151448055e-06
6.193904717e-06
6.187607564e-06
6.178434282e-06
6.166884192e-06
6.153663076e-06
6.139761335e-06
6.126509716e-06
6.115599334e-06
6.109041879e-06
6.160393516e-06
6.152696713e-06
6.141498135e-06
6.127419744e-06
6.111332201e-06
6.094445777e-06
6.078374669e-06
6.065159985e-06
6.057224048e-06
6.118925071e-06
6.109626504e-06
6.096113073e-06
6.079149737e-06
6.059797902e-06
6.039519888e-06
6.020251977e-06
6.004430056e-06
5.994937162e-06
6.068521202e-06
6.057412894e-06
6.041287912e-06
6.021076278e-06
5.998057613e-06
5.973979505e-06
5.951139074e-06
5.93241064e-06
5.921185688e-06
6.008215511e-06
5.995090937e-06
5.976061356e-06