/*--------------------------------*- C++ -*----------------------------------*\
| =========                 |                                                 |
| \\      /  F ield         | OpenFOAM: The Open Source CFD Toolbox           |
|  \\    /   O peration     | Version:  2212                                  |
|   \\  /    A nd           | Website:  www.openfoam.com                      |
|    \\/     M anipulation  |                                                 |
\*---------------------------------------------------------------------------*/
FoamFile
{
    version     2.0;
    format      ascii;
    arch        "LSB;label=32;scalar=64";
    class       volScalarField;
    location    "23.25000000";
    object      p;
}
// * * * * * * * * * * * * * * * * * * * * * * * * * * * * * * * * * * * * * //

dimensions      [1 -1 -2 0 0 0 0];

internalField   nonuniform List<scalar> 
3000
(
5000.278978
5000.279016
5000.279103
5000.279228
5000.279428
5000.279705
5000.280205
5000.280763
5000.282569
5000.278948
5000.278961
5000.27901
5000.279068
5000.279152
5000.279233
5000.279391
5000.279426
5000.279616
5000.278884
5000.278889
5000.278931
5000.278974
5000.279034
5000.2791
5000.279181
5000.279187
5000.279252
5000.278698
5000.278684
5000.278697
5000.2787
5000.278711
5000.27871
5000.278717
5000.27869
5000.278654
5000.278522
5000.278503
5000.278507
5000.278502
5000.278501
5000.278494
5000.27849
5000.278469
5000.278438
5000.278298
5000.278277
5000.278273
5000.27826
5000.27825
5000.278237
5000.278225
5000.278207
5000.278182
5000.278097
5000.278078
5000.278073
5000.278061
5000.278052
5000.278041
5000.278031
5000.278019
5000.278002
5000.27789
5000.277874
5000.277869
5000.277858
5000.27785
5000.277841
5000.277833
5000.277825
5000.277813
5000.277699
5000.277687
5000.277683
5000.277675
5000.277669
5000.277663
5000.277657
5000.277652
5000.277644
5000.277513
5000.277504
5000.277501
5000.277495
5000.27749
5000.277486
5000.277482
5000.277478
5000.277473
5000.277336
5000.27733
5000.277328
5000.277323
5000.27732
5000.277317
5000.277315
5000.277312
5000.277308
5000.277164
5000.277159
5000.277158
5000.277155
5000.277152
5000.27715
5000.277149
5000.277147
5000.277144
5000.276996
5000.276992
5000.276991
5000.276989
5000.276988
5000.276987
5000.276985
5000.276984
5000.276982
5000.27683
5000.276828
5000.276827
5000.276826
5000.276825
5000.276824
5000.276823
5000.276823
5000.276821
5000.276667
5000.276666
5000.276665
5000.276664
5000.276664
5000.276663
5000.276663
5000.276662
5000.276661
5000.276505
5000.276504
5000.276504
5000.276504
5000.276503
5000.276503
5000.276502
5000.276502
5000.276501
5000.276345
5000.276344
5000.276344
5000.276343
5000.276343
5000.276343
5000.276343
5000.276342
5000.276342
5000.276185
5000.276184
5000.276184
5000.276184
5000.276184
5000.276184
5000.276183
5000.276183
5000.276182
5000.276025
5000.276024
5000.276025
5000.276024
5000.276024
5000.276024
5000.276024
5000.276024
5000.276023
5000.275865
5000.275865
5000.275865
5000.275865
5000.275865
5000.275865
5000.275865
5000.275865
5000.275864
5000.275705
5000.275705
5000.275706
5000.275706
5000.275706
5000.275706
5000.275706
5000.275705
5000.275704
5000.275545
5000.275545
5000.275546
5000.275546
5000.275546
5000.275546
5000.275546
5000.275546
5000.275544
5000.275385
5000.275385
5000.275385
5000.275386
5000.275386
5000.275386
5000.275386
5000.275385
5000.275383
5000.275223
5000.275223
5000.275224
5000.275224
5000.275225
5000.275225
5000.275225
5000.275224
5000.275222
5000.275061
5000.275061
5000.275062
5000.275062
5000.275063
5000.275063
5000.275062
5000.275062
5000.275059
5000.274897
5000.274897
5000.274898
5000.274899
5000.274899
5000.274899
5000.274899
5000.274898
5000.274894
5000.274731
5000.274731
5000.274732
5000.274733
5000.274734
5000.274734
5000.274733
5000.274732
5000.274728
5000.274563
5000.274563
5000.274564
5000.274565
5000.274566
5000.274566
5000.274565
5000.274564
5000.274558
5000.274392
5000.274392
5000.274394
5000.274395
5000.274395
5000.274396
5000.274394
5000.274393
5000.274386
5000.274217
5000.274218
5000.274219
5000.274221
5000.274221
5000.274221
5000.27422
5000.274218
5000.274209
5000.274039
5000.274039
5000.274041
5000.274042
5000.274043
5000.274043
5000.274041
5000.274039
5000.274028
5000.273855
5000.273855
5000.273857
5000.273859
5000.273859
5000.273859
5000.273856
5000.273854
5000.273842
5000.273665
5000.273666
5000.273668
5000.273669
5000.27367
5000.27367
5000.273666
5000.273663
5000.273649
5000.273469
5000.27347
5000.273472
5000.273473
5000.273474
5000.273473
5000.273469
5000.273465
5000.273449
5000.273265
5000.273266
5000.273268
5000.273269
5000.273269
5000.273268
5000.273263
5000.273259
5000.27324
5000.273053
5000.273053
5000.273055
5000.273056
5000.273056
5000.273054
5000.273048
5000.273043
5000.273022
5000.27283
5000.27283
5000.272832
5000.272833
5000.272832
5000.27283
5000.272822
5000.272817
5000.272793
5000.272596
5000.272596
5000.272598
5000.272598
5000.272597
5000.272594
5000.272585
5000.272578
5000.272552
5000.27235
5000.27235
5000.272351
5000.272351
5000.272349
5000.272345
5000.272335
5000.272327
5000.272298
5000.272091
5000.27209
5000.272091
5000.27209
5000.272087
5000.272081
5000.27207
5000.272061
5000.272029
5000.271816
5000.271815
5000.271815
5000.271813
5000.271809
5000.271802
5000.27179
5000.27178
5000.271745
5000.271525
5000.271524
5000.271523
5000.27152
5000.271515
5000.271507
5000.271493
5000.271481
5000.271444
5000.271217
5000.271215
5000.271213
5000.271209
5000.271202
5000.271193
5000.271177
5000.271164
5000.271124
5000.270889
5000.270887
5000.270884
5000.270879
5000.27087
5000.270859
5000.270842
5000.270828
5000.270786
5000.270542
5000.270538
5000.270534
5000.270528
5000.270518
5000.270505
5000.270486
5000.270471
5000.270426
5000.270172
5000.270168
5000.270163
5000.270155
5000.270143
5000.270129
5000.270108
5000.270092
5000.270045
5000.26978
5000.269775
5000.269769
5000.269759
5000.269746
5000.26973
5000.269707
5000.269689
5000.26964
5000.269364
5000.269358
5000.26935
5000.269339
5000.269324
5000.269306
5000.269282
5000.269263
5000.269212
5000.268923
5000.268916
5000.268907
5000.268894
5000.268877
5000.268858
5000.268832
5000.268812
5000.268759
5000.268456
5000.268448
5000.268437
5000.268423
5000.268404
5000.268383
5000.268356
5000.268335
5000.268281
5000.267962
5000.267953
5000.267941
5000.267925
5000.267905
5000.267882
5000.267854
5000.267832
5000.267776
5000.26744
5000.267431
5000.267417
5000.267399
5000.267378
5000.267353
5000.267324
5000.267301
5000.267245
5000.26689
5000.26688
5000.266865
5000.266846
5000.266823
5000.266797
5000.266767
5000.266742
5000.266686
5000.266311
5000.2663
5000.266284
5000.266264
5000.266239
5000.266212
5000.266181
5000.266156
5000.266099
5000.265703
5000.265692
5000.265674
5000.265653
5000.265627
5000.265599
5000.265567
5000.265541
5000.265484
5000.265066
5000.265054
5000.265036
5000.265013
5000.264986
5000.264957
5000.264924
5000.264897
5000.26484
5000.264399
5000.264387
5000.264367
5000.264343
5000.264316
5000.264286
5000.264253
5000.264225
5000.264168
5000.263703
5000.26369
5000.26367
5000.263645
5000.263617
5000.263586
5000.263553
5000.263525
5000.263468
5000.262977
5000.262964
5000.262943
5000.262918
5000.262889
5000.262858
5000.262824
5000.262796
5000.26274
5000.262222
5000.262209
5000.262188
5000.262162
5000.262132
5000.262101
5000.262067
5000.262039
5000.261983
5000.261439
5000.261425
5000.261403
5000.261377
5000.261347
5000.261316
5000.261282
5000.261254
5000.261199
5000.260627
5000.260613
5000.260591
5000.260565
5000.260535
5000.260503
5000.260469
5000.260441
5000.260387
5000.259787
5000.259773
5000.259751
5000.259724
5000.259694
5000.259663
5000.259629
5000.259601
5000.259549
5000.25892
5000.258906
5000.258884
5000.258857
5000.258827
5000.258796
5000.258763
5000.258735
5000.258683
5000.258026
5000.258012
5000.25799
5000.257963
5000.257934
5000.257902
5000.25787
5000.257842
5000.257792
5000.257105
5000.257092
5000.25707
5000.257044
5000.257015
5000.256983
5000.256952
5000.256925
5000.256876
5000.25616
5000.256147
5000.256125
5000.256099
5000.25607
5000.25604
5000.256008
5000.255982
5000.255934
5000.25519
5000.255177
5000.255156
5000.25513
5000.255102
5000.255072
5000.255041
5000.255015
5000.254969
5000.254196
5000.254183
5000.254163
5000.254138
5000.25411
5000.25408
5000.25405
5000.254025
5000.253981
5000.253179
5000.253167
5000.253147
5000.253122
5000.253095
5000.253066
5000.253037
5000.253013
5000.252969
5000.25214
5000.252128
5000.252108
5000.252085
5000.252058
5000.25203
5000.252002
5000.251978
5000.251936
5000.25108
5000.251068
5000.251049
5000.251026
5000.251
5000.250973
5000.250945
5000.250922
5000.250882
5000.249999
5000.249988
5000.249969
5000.249946
5000.249921
5000.249895
5000.249868
5000.249846
5000.249808
5000.248899
5000.248887
5000.248869
5000.248847
5000.248823
5000.248798
5000.248772
5000.248751
5000.248714
5000.247779
5000.247768
5000.247751
5000.24773
5000.247706
5000.247682
5000.247657
5000.247636
5000.247601
5000.246641
5000.246631
5000.246614
5000.246594
5000.246571
5000.246548
5000.246524
5000.246504
5000.24647
5000.245487
5000.245477
5000.24546
5000.245441
5000.245419
5000.245396
5000.245373
5000.245354
5000.245322
5000.244315
5000.244306
5000.24429
5000.244271
5000.24425
5000.244228
5000.244207
5000.244188
5000.244157
5000.243128
5000.243119
5000.243104
5000.243086
5000.243066
5000.243045
5000.243024
5000.243006
5000.242977
5000.241926
5000.241917
5000.241903
5000.241886
5000.241866
5000.241846
5000.241826
5000.241809
5000.241781
5000.24071
5000.240701
5000.240688
5000.240671
5000.240653
5000.240633
5000.240614
5000.240598
5000.240571
5000.23948
5000.239472
5000.239459
5000.239443
5000.239425
5000.239407
5000.239389
5000.239373
5000.239348
5000.238237
5000.238229
5000.238217
5000.238202
5000.238185
5000.238167
5000.23815
5000.238135
5000.238111
5000.236982
5000.236975
5000.236963
5000.236948
5000.236932
5000.236916
5000.236899
5000.236885
5000.236862
5000.235716
5000.235709
5000.235697
5000.235683
5000.235668
5000.235652
5000.235636
5000.235623
5000.235601
5000.234438
5000.234431
5000.23442
5000.234407
5000.234393
5000.234378
5000.234363
5000.23435
5000.234329
5000.23315
5000.233144
5000.233133
5000.233121
5000.233107
5000.233093
5000.233078
5000.233066
5000.233047
5000.231852
5000.231846
5000.231836
5000.231825
5000.231811
5000.231798
5000.231784
5000.231773
5000.231754
5000.230545
5000.230539
5000.23053
5000.230519
5000.230506
5000.230493
5000.23048
5000.23047
5000.230452
5000.229229
5000.229224
5000.229215
5000.229204
5000.229192
5000.22918
5000.229168
5000.229158
5000.229141
5000.227905
5000.2279
5000.227891
5000.227881
5000.22787
5000.227858
5000.227847
5000.227837
5000.227821
5000.226573
5000.226568
5000.22656
5000.22655
5000.22654
5000.226529
5000.226518
5000.226509
5000.226494
5000.225233
5000.225229
5000.225221
5000.225212
5000.225202
5000.225191
5000.225181
5000.225172
5000.225158
5000.223887
5000.223882
5000.223875
5000.223867
5000.223857
5000.223847
5000.223837
5000.223829
5000.223816
5000.222533
5000.222529
5000.222523
5000.222515
5000.222506
5000.222496
5000.222487
5000.222479
5000.222467
5000.221174
5000.22117
5000.221164
5000.221156
5000.221148
5000.221139
5000.22113
5000.221123
5000.221111
5000.219809
5000.219805
5000.219799
5000.219792
5000.219784
5000.219776
5000.219767
5000.219761
5000.21975
5000.218438
5000.218435
5000.218429
5000.218422
5000.218415
5000.218407
5000.218399
5000.218393
5000.218382
5000.217062
5000.217059
5000.217054
5000.217047
5000.21704
5000.217033
5000.217025
5000.217019
5000.21701
5000.215682
5000.215679
5000.215674
5000.215668
5000.215661
5000.215654
5000.215647
5000.215641
5000.215632
5000.214296
5000.214294
5000.214289
5000.214283
5000.214277
5000.21427
5000.214264
5000.214258
5000.21425
5000.212907
5000.212904
5000.2129
5000.212894
5000.212888
5000.212882
5000.212876
5000.212871
5000.212863
5000.211513
5000.211511
5000.211506
5000.211501
5000.211496
5000.21149
5000.211484
5000.211479
5000.211472
5000.210116
5000.210113
5000.210109
5000.210105
5000.210099
5000.210094
5000.210088
5000.210084
5000.210077
5000.208715
5000.208712
5000.208709
5000.208704
5000.208699
5000.208694
5000.208689
5000.208685
5000.208678
5000.20731
5000.207308
5000.207305
5000.2073
5000.207296
5000.207291
5000.207286
5000.207282
5000.207276
5000.205903
5000.205901
5000.205897
5000.205893
5000.205889
5000.205884
5000.20588
5000.205876
5000.20587
5000.204492
5000.20449
5000.204487
5000.204484
5000.204479
5000.204475
5000.204471
5000.204467
5000.204462
5000.203079
5000.203077
5000.203074
5000.203071
5000.203067
5000.203063
5000.203059
5000.203056
5000.20305
5000.201663
5000.201662
5000.201659
5000.201656
5000.201652
5000.201648
5000.201644
5000.201641
5000.201636
5000.200245
5000.200243
5000.200241
5000.200238
5000.200234
5000.200231
5000.200227
5000.200224
5000.20022
5000.198825
5000.198823
5000.198821
5000.198818
5000.198814
5000.198811
5000.198808
5000.198805
5000.198801
5000.197402
5000.1974
5000.197398
5000.197395
5000.197392
5000.197389
5000.197386
5000.197384
5000.197379
5000.195977
5000.195976
5000.195974
5000.195971
5000.195968
5000.195965
5000.195962
5000.19596
5000.195956
5000.194551
5000.194549
5000.194547
5000.194545
5000.194542
5000.194539
5000.194537
5000.194534
5000.194531
5000.193122
5000.193121
5000.193119
5000.193117
5000.193114
5000.193112
5000.193109
5000.193107
5000.193104
5000.191692
5000.191691
5000.19169
5000.191687
5000.191685
5000.191683
5000.19168
5000.191678
5000.191675
5000.190261
5000.19026
5000.190258
5000.190256
5000.190254
5000.190252
5000.190249
5000.190248
5000.190245
5000.188828
5000.188827
5000.188826
5000.188824
5000.188822
5000.188819
5000.188817
5000.188816
5000.188813
5000.187394
5000.187393
5000.187391
5000.18739
5000.187388
5000.187386
5000.187384
5000.187382
5000.18738
5000.185958
5000.185958
5000.185956
5000.185955
5000.185953
5000.185951
5000.185949
5000.185947
5000.185945
5000.184522
5000.184521
5000.18452
5000.184518
5000.184516
5000.184515
5000.184513
5000.184512
5000.184509
5000.183084
5000.183083
5000.183082
5000.183081
5000.183079
5000.183077
5000.183076
5000.183074
5000.183072
5000.181645
5000.181645
5000.181644
5000.181642
5000.181641
5000.181639
5000.181638
5000.181636
5000.181634
5000.180206
5000.180205
5000.180204
5000.180203
5000.180201
5000.1802
5000.180198
5000.180197
5000.180196
5000.178765
5000.178765
5000.178764
5000.178762
5000.178761
5000.17876
5000.178758
5000.178757
5000.178756
5000.177324
5000.177323
5000.177322
5000.177321
5000.17732
5000.177319
5000.177317
5000.177316
5000.177315
5000.175882
5000.175881
5000.17588
5000.175879
5000.175878
5000.175877
5000.175876
5000.175875
5000.175873
5000.174439
5000.174438
5000.174438
5000.174437
5000.174436
5000.174434
5000.174433
5000.174432
5000.174431
5000.172995
5000.172995
5000.172994
5000.172993
5000.172992
5000.172991
5000.17299
5000.172989
5000.172988
5000.171551
5000.171551
5000.17155
5000.171549
5000.171548
5000.171547
5000.171546
5000.171546
5000.171545
5000.170107
5000.170106
5000.170106
5000.170105
5000.170104
5000.170103
5000.170102
5000.170101
5000.1701
5000.168661
5000.168661
5000.16866
5000.16866
5000.168659
5000.168658
5000.168657
5000.168657
5000.168656
5000.167216
5000.167215
5000.167215
5000.167214
5000.167213
5000.167213
5000.167212
5000.167211
5000.16721
5000.16577
5000.165769
5000.165769
5000.165768
5000.165768
5000.165767
5000.165766
5000.165766
5000.165765
5000.164323
5000.164323
5000.164322
5000.164322
5000.164321
5000.16432
5000.16432
5000.164319
5000.164319
5000.162876
5000.162876
5000.162876
5000.162875
5000.162874
5000.162874
5000.162873
5000.162873
5000.162872
5000.161429
5000.161429
5000.161428
5000.161428
5000.161427
5000.161427
5000.161426
5000.161426
5000.161425
5000.159982
5000.159981
5000.159981
5000.15998
5000.15998
5000.159979
5000.159979
5000.159978
5000.159978
5000.158534
5000.158533
5000.158533
5000.158533
5000.158532
5000.158532
5000.158531
5000.158531
5000.15853
5000.157086
5000.157085
5000.157085
5000.157085
5000.157084
5000.157084
5000.157083
5000.157083
5000.157082
5000.155637
5000.155637
5000.155637
5000.155636
5000.155636
5000.155635
5000.155635
5000.155635
5000.155634
5000.154189
5000.154188
5000.154188
5000.154188
5000.154187
5000.154187
5000.154187
5000.154186
5000.154186
5000.15274
5000.15274
5000.152739
5000.152739
5000.152739
5000.152738
5000.152738
5000.152738
5000.152737
5000.151291
5000.151291
5000.15129
5000.15129
5000.15129
5000.151289
5000.151289
5000.151289
5000.151289
5000.149842
5000.149842
5000.149841
5000.149841
5000.149841
5000.14984
5000.14984
5000.14984
5000.14984
5000.148392
5000.148392
5000.148392
5000.148392
5000.148392
5000.148391
5000.148391
5000.148391
5000.148391
5000.146943
5000.146943
5000.146943
5000.146942
5000.146942
5000.146942
5000.146942
5000.146942
5000.146941
5000.145494
5000.145493
5000.145493
5000.145493
5000.145493
5000.145492
5000.145492
5000.145492
5000.145492
5000.144044
5000.144044
5000.144044
5000.144043
5000.144043
5000.144043
5000.144043
5000.144043
5000.144042
5000.142594
5000.142594
5000.142594
5000.142594
5000.142593
5000.142593
5000.142593
5000.142593
5000.142593
5000.141144
5000.141144
5000.141144
5000.141144
5000.141144
5000.141144
5000.141143
5000.141143
5000.141143
5000.139694
5000.139694
5000.139694
5000.139694
5000.139694
5000.139694
5000.139694
5000.139693
5000.139693
5000.138244
5000.138244
5000.138244
5000.138244
5000.138244
5000.138244
5000.138244
5000.138244
5000.138244
5000.136794
5000.136794
5000.136794
5000.136794
5000.136794
5000.136794
5000.136794
5000.136794
5000.136794
5000.135344
5000.135344
5000.135344
5000.135344
5000.135344
5000.135344
5000.135344
5000.135344
5000.135344
5000.133894
5000.133894
5000.133894
5000.133894
5000.133894
5000.133894
5000.133894
5000.133894
5000.133894
5000.132444
5000.132444
5000.132444
5000.132444
5000.132444
5000.132444
5000.132444
5000.132444
5000.132444
5000.130994
5000.130994
5000.130994
5000.130994
5000.130994
5000.130994
5000.130994
5000.130994
5000.130994
5000.129544
5000.129544
5000.129544
5000.129544
5000.129544
5000.129544
5000.129544
5000.129544
5000.129544
5000.128094
5000.128094
5000.128094
5000.128094
5000.128094
5000.128094
5000.128094
5000.128094
5000.128094
5000.126644
5000.126644
5000.126644
5000.126644
5000.126644
5000.126644
5000.126644
5000.126644
5000.126644
5000.125194
5000.125194
5000.125194
5000.125194
5000.125194
5000.125194
5000.125194
5000.125194
5000.125194
5000.123744
5000.123744
5000.123744
5000.123744
5000.123744
5000.123744
5000.123744
5000.123744
5000.123744
5000.122294
5000.122294
5000.122294
5000.122294
5000.122294
5000.122294
5000.122294
5000.122294
5000.122294
5000.120844
5000.120844
5000.120844
5000.120844
5000.120844
5000.120844
5000.120844
5000.120844
5000.120844
5000.119394
5000.119394
5000.119394
5000.119394
5000.119394
5000.119394
5000.119394
5000.119394
5000.119394
5000.117944
5000.117944
5000.117944
5000.117944
5000.117944
5000.117944
5000.117944
5000.117944
5000.117944
5000.116494
5000.116494
5000.116494
5000.116494
5000.116494
5000.116494
5000.116494
5000.116494
5000.116494
5000.115044
5000.115044
5000.115044
5000.115044
5000.115044
5000.115044
5000.115044
5000.115044
5000.115044
5000.113594
5000.113594
5000.113594
5000.113594
5000.113594
5000.113594
5000.113594
5000.113594
5000.113595
5000.112145
5000.112145
5000.112145
5000.112145
5000.112145
5000.112145
5000.112145
5000.112145
5000.112145
5000.110695
5000.110695
5000.110695
5000.110695
5000.110695
5000.110695
5000.110695
5000.110695
5000.110695
5000.109245
5000.109245
5000.109245
5000.109245
5000.109246
5000.109246
5000.109246
5000.109246
5000.109246
5000.107796
5000.107796
5000.107796
5000.107796
5000.107796
5000.107796
5000.107796
5000.107796
5000.107796
5000.106347
5000.106347
5000.106347
5000.106347
5000.106347
5000.106347
5000.106347
5000.106347
5000.106347
5000.104897
5000.104897
5000.104897
5000.104897
5000.104897
5000.104897
5000.104897
5000.104897
5000.104898
5000.103448
5000.103448
5000.103448
5000.103448
5000.103448
5000.103448
5000.103448
5000.103448
5000.103448
5000.101999
5000.101999
5000.101999
5000.101999
5000.101999
5000.101999
5000.101999
5000.101999
5000.101999
5000.10055
5000.10055
5000.10055
5000.10055
5000.10055
5000.10055
5000.10055
5000.10055
5000.10055
5000.099101
5000.099101
5000.099101
5000.099101
5000.099101
5000.099101
5000.099101
5000.099101
5000.099101
5000.097652
5000.097652
5000.097652
5000.097652
5000.097652
5000.097652
5000.097652
5000.097652
5000.097652
5000.096203
5000.096203
5000.096203
5000.096203
5000.096203
5000.096203
5000.096203
5000.096203
5000.096203
5000.094754
5000.094754
5000.094754
5000.094754
5000.094754
5000.094754
5000.094754
5000.094754
5000.094754
5000.093305
5000.093305
5000.093305
5000.093305
5000.093305
5000.093305
5000.093305
5000.093306
5000.093306
5000.091856
5000.091857
5000.091857
5000.091857
5000.091857
5000.091857
5000.091857
5000.091857
5000.091857
5000.090408
5000.090408
5000.090408
5000.090408
5000.090408
5000.090408
5000.090408
5000.090409
5000.090409
5000.08896
5000.08896
5000.08896
5000.08896
5000.08896
5000.08896
5000.08896
5000.08896
5000.088961
5000.087511
5000.087511
5000.087511
5000.087512
5000.087512
5000.087512
5000.087512
5000.087512
5000.087512
5000.086063
5000.086063
5000.086063
5000.086063
5000.086064
5000.086064
5000.086064
5000.086064
5000.086065
5000.084615
5000.084615
5000.084615
5000.084616
5000.084616
5000.084616
5000.084616
5000.084616
5000.084617
5000.083168
5000.083168
5000.083168
5000.083168
5000.083168
5000.083168
5000.083169
5000.083169
5000.08317
5000.08172
5000.08172
5000.081721
5000.081721
5000.081721
5000.081721
5000.081721
5000.081722
5000.081723
5000.080273
5000.080274
5000.080274
5000.080274
5000.080274
5000.080274
5000.080275
5000.080275
5000.080276
5000.078827
5000.078827
5000.078827
5000.078827
5000.078828
5000.078828
5000.078829
5000.078829
5000.07883
5000.077381
5000.077381
5000.077381
5000.077382
5000.077382
5000.077382
5000.077383
5000.077384
5000.077385
5000.075936
5000.075936
5000.075936
5000.075937
5000.075937
5000.075938
5000.075938
5000.075939
5000.075941
5000.074492
5000.074492
5000.074492
5000.074493
5000.074493
5000.074494
5000.074495
5000.074496
5000.074498
5000.073049
5000.07305
5000.07305
5000.07305
5000.07305
5000.073051
5000.073052
5000.073054
5000.073056
5000.071608
5000.071608
5000.071608
5000.071609
5000.071609
5000.07161
5000.071611
5000.071613
5000.071617
5000.070169
5000.070169
5000.070169
5000.070169
5000.07017
5000.070171
5000.070173
5000.070174
5000.070179
5000.068732
5000.068732
5000.068732
5000.068732
5000.068733
5000.068734
5000.068736
5000.068738
5000.068743
5000.067297
5000.067297
5000.067298
5000.067298
5000.067299
5000.0673
5000.067302
5000.067305
5000.067311
5000.065866
5000.065866
5000.065866
5000.065867
5000.065868
5000.065869
5000.065872
5000.065875
5000.065882
5000.064439
5000.064439
5000.064439
5000.064439
5000.064441
5000.064443
5000.064445
5000.064449
5000.064457
5000.063015
5000.063016
5000.063016
5000.063017
5000.063018
5000.06302
5000.063023
5000.063028
5000.063037
5000.061598
5000.061598
5000.061598
5000.061599
5000.0616
5000.061603
5000.061607
5000.061611
5000.061623
5000.060185
5000.060186
5000.060186
5000.060187
5000.060189
5000.060191
5000.060196
5000.060201
5000.060214
5000.05878
5000.05878
5000.058781
5000.058782
5000.058784
5000.058787
5000.058792
5000.058798
5000.058813
5000.057382
5000.057382
5000.057383
5000.057384
5000.057386
5000.05739
5000.057395
5000.057402
5000.057419
5000.055992
5000.055993
5000.055993
5000.055995
5000.055997
5000.056001
5000.056008
5000.056015
5000.056034
5000.054612
5000.054613
5000.054613
5000.054615
5000.054618
5000.054622
5000.054629
5000.054638
5000.054658
5000.053242
5000.053243
5000.053244
5000.053245
5000.053249
5000.053254
5000.053261
5000.053271
5000.053293
5000.051884
5000.051885
5000.051885
5000.051887
5000.051891
5000.051897
5000.051905
5000.051915
5000.05194
5000.050537
5000.050538
5000.05054
5000.050542
5000.050546
5000.050552
5000.050561
5000.050572
5000.050599
5000.049205
5000.049206
5000.049207
5000.04921
5000.049214
5000.049221
5000.049231
5000.049243
5000.049272
5000.047886
5000.047888
5000.047889
5000.047892
5000.047897
5000.047904
5000.047915
5000.047928
5000.047959
5000.046583
5000.046585
5000.046587
5000.04659
5000.046595
5000.046603
5000.046615
5000.046629
5000.046662
5000.045297
5000.045299
5000.045301
5000.045304
5000.04531
5000.045318
5000.045331
5000.045346
5000.045381
5000.044028
5000.04403
5000.044032
5000.044036
5000.044042
5000.044051
5000.044065
5000.04408
5000.044118
5000.042777
5000.042779
5000.042782
5000.042786
5000.042792
5000.042803
5000.042817
5000.042833
5000.042873
5000.041546
5000.041548
5000.041551
5000.041555
5000.041563
5000.041573
5000.041588
5000.041605
5000.041647
5000.040335
5000.040337
5000.04034
5000.040345
5000.040353
5000.040364
5000.04038
5000.040398
5000.040441
5000.039144
5000.039147
5000.03915
5000.039155
5000.039164
5000.039175
5000.039192
5000.039211
5000.039255
5000.037976
5000.037978
5000.037982
5000.037987
5000.037996
5000.038008
5000.038026
5000.038045
5000.038091
5000.036829
5000.036832
5000.036836
5000.036842
5000.036851
5000.036864
5000.036881
5000.036902
5000.036949
5000.035705
5000.035708
5000.035712
5000.035719
5000.035728
5000.035742
5000.03576
5000.035781
5000.03583
5000.034605
5000.034608
5000.034612
5000.034619
5000.034629
5000.034643
5000.034662
5000.034683
5000.034733
5000.033528
5000.033532
5000.033536
5000.033543
5000.033554
5000.033568
5000.033588
5000.033609
5000.03366
5000.032476
5000.032479
5000.032484
5000.032491
5000.032502
5000.032517
5000.032537
5000.032559
5000.032611
5000.031447
5000.031451
5000.031456
5000.031464
5000.031475
5000.03149
5000.031511
5000.031533
5000.031586
5000.030444
5000.030448
5000.030453
5000.030461
5000.030472
5000.030488
5000.030509
5000.030531
5000.030585
5000.029465
5000.029469
5000.029474
5000.029483
5000.029494
5000.02951
5000.029531
5000.029554
5000.029608
5000.028511
5000.028515
5000.028521
5000.028529
5000.028541
5000.028557
5000.028579
5000.028601
5000.028655
5000.027581
5000.027586
5000.027591
5000.0276
5000.027612
5000.027629
5000.02765
5000.027673
5000.027727
5000.026676
5000.026681
5000.026687
5000.026696
5000.026708
5000.026725
5000.026747
5000.026769
5000.026823
5000.025796
5000.025801
5000.025807
5000.025816
5000.025829
5000.025845
5000.025867
5000.02589
5000.025944
5000.02494
5000.024945
5000.024951
5000.02496
5000.024973
5000.02499
5000.025012
5000.025034
5000.025088
5000.024108
5000.024113
5000.024119
5000.024129
5000.024142
5000.024158
5000.02418
5000.024202
5000.024256
5000.0233
5000.023305
5000.023311
5000.023321
5000.023334
5000.02335
5000.023372
5000.023394
5000.023447
5000.022515
5000.02252
5000.022526
5000.022536
5000.022549
5000.022566
5000.022587
5000.022609
5000.022661
5000.021753
5000.021758
5000.021765
5000.021774
5000.021787
5000.021804
5000.021825
5000.021847
5000.021898
5000.021013
5000.021018
5000.021025
5000.021035
5000.021048
5000.021064
5000.021086
5000.021107
5000.021158
5000.020296
5000.020301
5000.020308
5000.020318
5000.020331
5000.020347
5000.020368
5000.020389
5000.020439
5000.0196
5000.019605
5000.019612
5000.019622
5000.019635
5000.019651
5000.019672
5000.019692
5000.019741
5000.018925
5000.01893
5000.018937
5000.018947
5000.01896
5000.018976
5000.018997
5000.019016
5000.019065
5000.018271
5000.018276
5000.018283
5000.018293
5000.018305
5000.018321
5000.018342
5000.018361
5000.018408
5000.017637
5000.017642
5000.017649
5000.017658
5000.017671
5000.017687
5000.017707
5000.017725
5000.017772
5000.017022
5000.017027
5000.017034
5000.017043
5000.017056
5000.017071
5000.017091
5000.017109
5000.017154
5000.016426
5000.016431
5000.016438
5000.016447
5000.016459
5000.016474
5000.016494
5000.016512
5000.016555
5000.015848
5000.015853
5000.01586
5000.015869
5000.015881
5000.015896
5000.015915
5000.015932
5000.015975
5000.015288
5000.015292
5000.015299
5000.015308
5000.01532
5000.015335
5000.015354
5000.01537
5000.015412
5000.014744
5000.014749
5000.014756
5000.014765
5000.014777
5000.014791
5000.014809
5000.014825
5000.014866
5000.014218
5000.014222
5000.014229
5000.014238
5000.01425
5000.014264
5000.014281
5000.014297
5000.014336
5000.013707
5000.013712
5000.013718
5000.013727
5000.013738
5000.013752
5000.013769
5000.013784
5000.013822
5000.013211
5000.013216
5000.013222
5000.013231
5000.013242
5000.013256
5000.013273
5000.013287
5000.013324
5000.012731
5000.012735
5000.012742
5000.01275
5000.012761
5000.012774
5000.012791
5000.012805
5000.01284
5000.012264
5000.012269
5000.012275
5000.012283
5000.012294
5000.012307
5000.012323
5000.012336
5000.012371
5000.011811
5000.011816
5000.011822
5000.01183
5000.011841
5000.011853
5000.011869
5000.011882
5000.011915
5000.011372
5000.011376
5000.011382
5000.01139
5000.0114
5000.011412
5000.011428
5000.01144
5000.011472
5000.010944
5000.010949
5000.010955
5000.010963
5000.010973
5000.010984
5000.010999
5000.011011
5000.011042
5000.010529
5000.010534
5000.010539
5000.010547
5000.010557
5000.010568
5000.010583
5000.010594
5000.010624
5000.010126
5000.01013
5000.010136
5000.010143
5000.010153
5000.010164
5000.010178
5000.010189
5000.010217
5000.009734
5000.009738
5000.009743
5000.009751
5000.00976
5000.009771
5000.009784
5000.009795
5000.009822
5000.009352
5000.009356
5000.009361
5000.009369
5000.009378
5000.009388
5000.009401
5000.009411
5000.009438
5000.008981
5000.008984
5000.00899
5000.008997
5000.009005
5000.009015
5000.009028
5000.009038
5000.009063
5000.008619
5000.008622
5000.008628
5000.008635
5000.008643
5000.008653
5000.008665
5000.008674
5000.008699
5000.008266
5000.00827
5000.008275
5000.008282
5000.00829
5000.008299
5000.008312
5000.00832
5000.008344
5000.007923
5000.007926
5000.007931
5000.007938
5000.007946
5000.007955
5000.007967
5000.007975
5000.007998
5000.007588
5000.007591
5000.007596
5000.007603
5000.007611
5000.007619
5000.007631
5000.007639
5000.00766
5000.007261
5000.007264
5000.007269
5000.007276
5000.007283
5000.007292
5000.007303
5000.00731
5000.007331
5000.006942
5000.006945
5000.00695
5000.006956