/*--------------------------------*- C++ -*----------------------------------*\
| =========                 |                                                 |
| \\      /  F ield         | OpenFOAM: The Open Source CFD Toolbox           |
|  \\    /   O peration     | Version:  2212                                  |
|   \\  /    A nd           | Website:  www.openfoam.com                      |
|    \\/     M anipulation  |                                                 |
\*---------------------------------------------------------------------------*/
FoamFile
{
    version     2.0;
    format      ascii;
    arch        "LSB;label=32;scalar=64";
    class       volScalarField;
    location    "23.25000000";
    object      PC3H4_0;
}
// * * * * * * * * * * * * * * * * * * * * * * * * * * * * * * * * * * * * * //

dimensions      [0 0 0 0 0 0 0];

internalField   nonuniform List<scalar> 
3000
(
1.514704077e-22
1.701585122e-22
1.98358442e-22
2.359365879e-22
2.825095734e-22
3.368107207e-22
3.955671126e-22
4.516262113e-22
4.91274291e-22
5.686850991e-22
6.414275222e-22
7.511477329e-22
8.976841333e-22
1.08088685e-21
1.299724208e-21
1.550397321e-21
1.820161667e-21
2.059233449e-21
1.273767521e-21
1.447959926e-21
1.713212496e-21
2.073366689e-21
2.534901489e-21
3.10449114e-21
3.779931369e-21
4.523208176e-21
5.158793012e-21
2.426180068e-21
2.786863399e-21
3.344145626e-21
4.116881977e-21
5.132448767e-21
6.416629311e-21
7.962462661e-21
9.645989096e-21
1.100512649e-20
4.308165861e-21
5.009344889e-21
6.109775974e-21
7.665352316e-21
9.749250531e-21
1.241985001e-20
1.563263916e-20
1.904434376e-20
2.166347375e-20
7.408154305e-21
8.724166921e-21
1.081912442e-20
1.382669834e-20
1.790732217e-20
2.316358889e-20
2.943860211e-20
3.59408461e-20
4.075150347e-20
1.257621577e-20
1.499354185e-20
1.888652961e-20
2.453851623e-20
3.22642306e-20
4.221715404e-20
5.398569108e-20
6.594252744e-20
7.457005889e-20
2.128292415e-20
2.565763961e-20
3.276559524e-20
4.316509985e-20
5.743615688e-20
7.578408338e-20
9.728836698e-20
1.188187701e-19
1.340950312e-19
3.607609606e-20
4.390951155e-20
5.671947467e-20
7.555651664e-20
1.014523161e-19
1.346555377e-19
1.732903622e-19
2.115696143e-19
2.38429482e-19
6.136752071e-20
7.528382483e-20
9.814539497e-20
1.318721843e-19
1.782659262e-19
2.375954047e-19
3.062477011e-19
3.737691449e-19
4.207953864e-19
1.048013614e-19
1.293787913e-19
1.698828853e-19
2.297583565e-19
3.121246506e-19
4.172208873e-19
5.383295638e-19
6.568317407e-19
7.389492067e-19
1.796256157e-19
2.228398201e-19
2.942142051e-19
3.998579108e-19
5.451546408e-19
7.302161379e-19
9.428290917e-19
1.150114856e-18
1.29325693e-18
3.088086052e-19
3.845410021e-19
5.098134727e-19
6.953816059e-19
9.505319215e-19
1.275063524e-18
1.647090988e-18
2.008869231e-18
2.258088752e-18
5.321817627e-19
6.645765382e-19
8.838074265e-19
1.208722961e-18
1.655351524e-18
2.222835853e-18
2.872330977e-18
3.502772507e-18
3.93630922e-18
9.188366649e-19
1.149869159e-18
1.532714551e-18
2.100304815e-18
2.880330009e-18
3.870647372e-18
5.002749644e-18
6.100170241e-18
6.853877656e-18
1.588640885e-18
1.991261643e-18
2.658791829e-18
3.64865395e-18
5.008724335e-18
6.734433044e-18
8.705486894e-18
1.061427122e-17
1.192405352e-17
2.749578818e-18
3.450537716e-18
4.613120584e-18
6.337308478e-18
8.705926086e-18
1.170990949e-17
1.513866664e-17
1.845661586e-17
2.073179017e-17
4.762552295e-18
5.982024989e-18
8.005089447e-18
1.100563038e-17
1.512696219e-17
2.035177928e-17
2.63121536e-17
3.207640071e-17
3.60267782e-17
8.253813282e-18
1.037418551e-17
1.38923534e-17
1.911043891e-17
2.627638984e-17
3.535784921e-17
4.571289662e-17
5.572193913e-17
6.257795572e-17
1.430998479e-17
1.799521717e-17
2.411031223e-17
3.317971561e-17
4.563217131e-17
6.140779233e-17
7.938769819e-17
9.675820951e-17
1.086510872e-16
2.481616107e-17
3.12188251e-17
4.184319744e-17
5.759877347e-17
7.922625398e-17
1.066151561e-16
1.378162924e-16
1.679444581e-16
1.885618943e-16
4.304164483e-17
5.416174524e-17
7.261301939e-17
9.997100442e-17
1.375136666e-16
1.85037074e-16
2.39146461e-16
2.913648899e-16
3.270794951e-16
7.465406779e-17
9.396058137e-17
1.259912672e-16
1.73471916e-16
2.386032834e-16
3.210070158e-16
4.147716854e-16
5.051978326e-16
5.670037988e-16
1.294728975e-16
1.629790326e-16
2.185564066e-16
3.009133175e-16
4.138299607e-16
5.565987964e-16
7.189263232e-16
8.753440456e-16
9.821687439e-16
2.244970368e-16
2.826175512e-16
3.789951797e-16
5.217466129e-16
7.173437757e-16
9.644513858e-16
1.245143879e-15
1.515338473e-15
1.699680964e-15
3.891231987e-16
4.898766541e-16
6.568839949e-16
9.041035546e-16
1.242569606e-15
1.669737425e-15
2.154387435e-15
2.620313907e-15
2.937797686e-15
6.741206529e-16
8.486371938e-16
1.137764658e-15
1.565435018e-15
2.150363091e-15
2.887653619e-15
3.722931715e-15
4.524669208e-15
5.070128219e-15
1.167027066e-15
1.468993851e-15
1.968946235e-15
2.707764648e-15
3.716985499e-15
4.987115648e-15
6.423461955e-15
7.799461652e-15
8.73384122e-15
2.018480495e-15
2.540282226e-15
3.403501941e-15
4.677657102e-15
6.41546774e-15
8.598413074e-15
1.106165019e-14
1.341587572e-14
1.501086621e-14
3.487101891e-15
4.387285483e-15
5.874973868e-15
8.067740286e-15
1.105286317e-14
1.479408295e-14
1.900466542e-14
2.301769127e-14
2.57291367e-14
6.015700588e-15
7.565477649e-15
1.012360451e-14
1.388764024e-14
1.900037203e-14
2.539076333e-14
3.256072274e-14
3.937192751e-14
4.395940574e-14
1.036010419e-14
1.302163842e-14
1.74084768e-14
2.38500307e-14
3.257656005e-14
4.344919948e-14
5.560446193e-14
6.710790562e-14
7.482752355e-14
1.780591538e-14
2.236326473e-14
2.986188361e-14
4.084609005e-14
5.568075495e-14
7.409575843e-14
9.459846562e-14
1.139183959e-13
1.268302753e-13
3.053130872e-14
3.830784146e-14
5.10773901e-14
6.972997034e-14
9.483148345e-14
1.25860426e-13
1.60246516e-13
1.924932437e-13
2.139464786e-13
5.221083979e-14
6.542731818e-14
8.707876854e-14
1.186028899e-13
1.608542923e-13
2.128359625e-13
2.701436168e-13
3.236016536e-13
3.589905961e-13
8.901428833e-14
1.113734238e-13
1.479043908e-13
2.008974717e-13
2.716002445e-13
3.581289464e-13
4.529819727e-13
5.409566414e-13
5.988872551e-13
1.512482883e-13
1.888798989e-13
2.501773205e-13
3.387314792e-13
4.562835984e-13
5.993220213e-13
7.551603853e-13
8.988160295e-13
9.928853464e-13
2.560358488e-13
3.19009518e-13
4.212396465e-13
5.682554777e-13
7.623373902e-13
9.970350859e-13
1.251068584e-12
1.483744105e-12
1.635227372e-12
4.316581672e-13
5.363782196e-13
7.057460872e-13
9.481019441e-13
1.266145553e-12
1.648214404e-12
2.058936926e-12
2.43264086e-12
2.674510704e-12
7.245361907e-13
8.974914607e-13
1.176087872e-12
1.572612258e-12
2.089686163e-12
2.706567675e-12
3.365039165e-12
3.960132215e-12
4.343017334e-12
1.210367104e-12
1.49393509e-12
1.948726808e-12
2.592355685e-12
3.426106368e-12
4.413705981e-12
5.460329401e-12
6.399832437e-12
7.000781196e-12
2.011740898e-12
2.473068928e-12
3.209565608e-12
4.245678218e-12
5.578678125e-12
7.146199576e-12
8.795449569e-12
1.026601846e-11
1.120129471e-11
3.32576897e-12
4.07020954e-12
5.253011285e-12
6.906794129e-12
9.019641664e-12
1.148611343e-11
1.406269318e-11
1.6345146e-11
1.778879126e-11
5.46703568e-12
6.658247277e-12
8.541610731e-12
1.115849127e-11
1.447839206e-11
1.832595385e-11
2.231727911e-11
2.583073962e-11
2.804134367e-11
8.933779868e-12
1.082348405e-11
1.379634023e-11
1.7901186e-11
2.307266805e-11
2.902373797e-11
3.515562767e-11
4.052099088e-11
4.388010059e-11
1.450896649e-11
1.7480567e-11
2.213221534e-11
2.851528479e-11
3.650236716e-11
4.56306609e-11
5.497586662e-11
6.310657685e-11
6.817355058e-11
2.341328742e-11
2.804523185e-11
3.526040737e-11
4.510120505e-11
5.733403322e-11
7.12233606e-11
8.535639399e-11
9.758770535e-11
1.051777395e-10
3.753477929e-11
4.469185016e-11
5.578726848e-11
7.083182804e-11
8.941589574e-11
1.103861425e-10
1.316031816e-10
1.498755315e-10
1.611702311e-10
5.977053871e-11
7.073443383e-11
8.765360655e-11
1.104667353e-10
1.384798433e-10
1.69907117e-10
2.015371689e-10
2.286555024e-10
2.453592758e-10
9.453113091e-11
1.111860679e-10
1.367756258e-10
1.710978745e-10
2.130096002e-10
2.597779504e-10
3.066217777e-10
3.466214782e-10
3.711825061e-10
1.484792492e-10
1.735744172e-10
2.119740948e-10
2.63224389e-10
3.2548576e-10
3.946219247e-10
4.635696181e-10
5.222323201e-10
5.581550057e-10
2.316028277e-10
2.691206441e-10
3.26307897e-10
4.022861381e-10
4.941562512e-10
5.957221282e-10
6.966226729e-10
7.822039821e-10
8.344896821e-10
3.587423381e-10
4.144118267e-10
4.989675101e-10
6.108426072e-10
7.455484755e-10
8.938905124e-10
1.040769087e-09
1.16501987e-09
1.240789346e-09
5.517889801e-10
6.338012689e-10
7.5797081e-10
9.216487151e-10
1.117992685e-09
1.333477636e-09
1.546233462e-09
1.725830295e-09
1.835200575e-09
8.427894121e-10
9.627849749e-10
1.143942957e-09
1.381954053e-09
1.666531226e-09
1.977941904e-09
2.284693157e-09
2.543216269e-09
2.700514293e-09
1.278306329e-09
1.452728739e-09
1.715385448e-09
2.059467334e-09
2.469695879e-09
2.917497567e-09
3.357765872e-09
3.72836737e-09
3.953751412e-09
1.925500767e-09
2.17743924e-09
2.555967546e-09
3.05056662e-09
3.638779079e-09
4.279499065e-09
4.908429091e-09
5.437302267e-09
5.758814868e-09
2.880560369e-09
3.242238129e-09
3.784546438e-09
4.491512836e-09
5.330400654e-09
6.242384453e-09
7.136182808e-09
7.886910932e-09
8.342962423e-09
4.280302251e-09
4.796405015e-09
5.568830195e-09
6.573629393e-09
7.76336901e-09
9.054197775e-09
1.031700758e-08
1.137596627e-08
1.201839837e-08
6.318010891e-09
7.050081764e-09
8.143812103e-09
9.563605517e-09
1.124101783e-08
1.30569275e-08
1.482952696e-08
1.631284929e-08
1.721107685e-08
9.264786117e-09
1.029692344e-08
1.183626676e-08
1.38302181e-08
1.618035854e-08
1.871817606e-08
2.11892475e-08
2.325225275e-08
2.449913883e-08
1.349778757e-08
1.494386909e-08
1.709667658e-08
1.987889577e-08
2.314967886e-08
2.667219456e-08
3.009331442e-08
3.294332115e-08
3.466311565e-08
1.953674571e-08
2.154942979e-08
2.454010244e-08
2.839593898e-08
3.291691885e-08
3.777312818e-08
4.247870285e-08
4.639176476e-08
4.87501571e-08
2.809023759e-08
3.087220981e-08
3.499813765e-08
4.030515656e-08
4.651215086e-08
5.316387247e-08
5.959684913e-08
6.493878415e-08
6.815535268e-08
4.011411643e-08
4.393249663e-08
4.958536769e-08
5.684077433e-08
6.530790882e-08
7.436373308e-08
8.310769592e-08
9.036014142e-08
9.472382391e-08
5.688616306e-08
6.209124255e-08
6.978469219e-08
7.964050985e-08
9.112051331e-08
1.033777593e-07
1.151964178e-07
1.24989026e-07
1.308773213e-07
8.010175409e-08
8.715080453e-08
9.75551057e-08
1.108616125e-07
1.263349895e-07
1.428308007e-07
1.58716262e-07
1.718661647e-07
1.79768652e-07
1.119937288e-07
1.214800353e-07
1.354640593e-07
1.533220572e-07
1.740562773e-07
1.961293055e-07
2.173604183e-07
2.349198309e-07
2.454665365e-07
1.554778381e-07
1.681651781e-07
1.868462064e-07
2.106691535e-07
2.382891147e-07
2.676529163e-07
2.958644663e-07
3.191770574e-07
3.331719311e-07
2.143251026e-07
2.311881485e-07
2.559902675e-07
2.875770885e-07
3.241474995e-07
3.629759637e-07
4.002389985e-07
4.310050151e-07
4.494644845e-07
2.933622076e-07
3.156330841e-07
3.483543465e-07
3.899728311e-07
4.380920941e-07
4.891164432e-07
5.380289001e-07
5.783782845e-07
6.025743501e-07
3.986991883e-07
4.279197373e-07
4.708071934e-07
5.252867819e-07
5.881909382e-07
6.548062689e-07
7.185918371e-07
7.711634487e-07
8.02670101e-07
5.379802031e-07
5.760587084e-07
6.318896127e-07
7.027210972e-07
7.84394483e-07
8.70772185e-07
9.5338363e-07
1.021407275e-06
1.062148167e-06
7.206500154e-07
7.699203673e-07
8.420861616e-07
9.335238531e-07
1.038811274e-06
1.150011555e-06
1.25623275e-06
1.343609111e-06
1.395903457e-06
9.582241027e-07
1.021504037e-06
1.114092295e-06
1.231252421e-06
1.36596543e-06
1.508041915e-06
1.643580736e-06
1.754952623e-06
1.82155535e-06
1.264545491e-06
1.345189553e-06
1.463057413e-06
1.612004467e-06
1.783012155e-06
1.963098365e-06
2.134660665e-06
2.275467541e-06
2.359598865e-06
1.65600686e-06
1.757948621e-06
1.906779736e-06
2.094590761e-06
2.309883622e-06
2.536249415e-06
2.75158289e-06
2.928089616e-06
3.033448727e-06
2.151712454e-06
2.279489699e-06
2.465825651e-06
2.700621259e-06
2.969335637e-06
3.251400878e-06
3.519297093e-06
3.738587618e-06
3.869345117e-06
2.773551883e-06
2.932308148e-06
3.163544949e-06
3.454475694e-06
3.786866399e-06
4.135159531e-06
4.465403135e-06
4.735330707e-06
4.896095051e-06
3.54615789e-06
3.741614079e-06
4.025955027e-06
4.383132865e-06
4.790483148e-06
5.216534415e-06
5.619790833e-06
5.948878375e-06
6.144632937e-06
4.496723272e-06
4.735114278e-06
5.081472363e-06
5.51583954e-06
6.010300941e-06
6.526463804e-06
7.014100548e-06
7.411388195e-06
7.647397613e-06
5.65465892e-06
5.942632281e-06
6.360478481e-06
6.883610409e-06
7.477969971e-06
8.097169645e-06
8.681011701e-06
9.155852904e-06
9.437540042e-06
7.051085384e-06
7.395561918e-06
7.894720067e-06
8.51856419e-06
9.225942852e-06
9.961357565e-06
1.065338356e-05
1.121519623e-05
1.154799407e-05
8.718163846e-06
9.12616374e-06
9.716557709e-06
1.045311667e-05
1.128660965e-05
1.215129735e-05
1.296328972e-05
1.362127403e-05
1.401045972e-05
1.068828775e-05
1.116672929e-05
1.185809346e-05
1.27190672e-05
1.369134405e-05
1.469783391e-05
1.564100223e-05
1.640384111e-05
1.685436198e-05
1.299317168e-05
1.354865321e-05
1.4350222e-05
1.53466289e-05
1.64695165e-05
1.762939001e-05
1.871399088e-05
1.958955241e-05
2.010585516e-05
1.56628874e-05
1.63014658e-05
1.722166131e-05
1.836346227e-05
1.96475377e-05
2.097102684e-05
2.220600596e-05
2.320106784e-05
2.378694287e-05
1.872490609e-05
1.945188625e-05
2.049802488e-05
2.179377555e-05
2.324799653e-05
2.474362659e-05
2.613630774e-05
2.725632325e-05
2.791477477e-05
2.220320902e-05
2.30229588e-05
2.420099686e-05
2.565755196e-05
2.72889501e-05
2.896325184e-05
3.051909403e-05
3.176801531e-05
3.250116649e-05
2.61175258e-05
2.703332889e-05
2.834766439e-05
2.996995377e-05
3.178341102e-05
3.364072056e-05
3.536315897e-05
3.674332896e-05
3.755236856e-05
3.048274906e-05
3.149670523e-05
3.29500482e-05
3.474093827e-05
3.673905925e-05
3.878141647e-05
4.067179445e-05
4.218391269e-05
4.306908973e-05
3.530855985e-05
3.642153778e-05
3.801485543e-05
3.997510187e-05
4.215818645e-05
4.438533314e-05
4.644292256e-05
4.808607233e-05
4.904667204e-05
4.059927952e-05
4.181092293e-05
4.354345989e-05
4.567175024e-05
4.803786301e-05
5.044733653e-05
5.266944274e-05
5.444115089e-05
5.547562597e-05
4.635394502e-05
4.766272882e-05
4.953209671e-05
5.182517446e-05
5.43703007e-05
5.695760965e-05
5.933970613e-05
6.123616906e-05
6.2342205e-05
5.256658724e-05
5.396991692e-05
5.597224378e-05
5.842509889e-05
6.114336921e-05
6.390218816e-05
6.643823328e-05
6.845447613e-05
6.96291076e-05
5.922667764e-05
6.072102167e-05
6.285115414e-05
6.545725334e-05
6.834116903e-05
7.126372065e-05
7.394639294e-05
7.607649214e-05
7.73162334e-05
6.631969801e-05
6.790072065e-05
7.015236856e-05
7.290394785e-05
7.594480748e-05
7.902214344e-05
8.184314084e-05
8.408046333e-05
8.538144855e-05
7.382765849e-05
7.54904257e-05
7.7856536e-05
8.074490882e-05
8.393306412e-05
8.715538852e-05
9.010573052e-05
9.244318059e-05
9.380131547e-05
8.172999024e-05
8.346912378e-05
8.594204331e-05
8.895787071e-05
9.228303997e-05
9.564001634e-05
9.871032486e-05
0.0001011405796
0.0001025517212
9.000411865e-05
9.181395023e-05
9.438564894e-05
9.751919369e-05
0.0001009707297
0.0001044517292
0.0001076324226
0.0001101480308
0.0001116078121
9.862609434e-05
0.000100500804
0.0001031630655
0.0001064044081
0.0001099715131
0.0001135657961
0.000116847206
0.0001194404675
0.0001209444403
0.0001075711641
0.0001095048957
0.000112249471
0.0001155886781
0.0001192605584
0.0001229573812
0.0001263296341
0.000128992799
0.0001305365194
0.0001168142638
0.0001188012109
0.0001216199253
0.0001250471582
0.0001288130619
0.0001326015412
0.0001360548079
0.0001387802152
0.0001403593051
0.0001263304047
0.00012836486
0.0001312496465
0.00013475507
0.0001386041949
0.0001424736014
0.0001459982494
0.0001487784206
0.0001503886161
0.0001360948752
0.000138171108
0.0001411138577
0.0001446877169
0.0001486095052
0.0001525494048
0.0001561361026
0.0001589638123
0.000160601001
0.000146082785
0.0001481951791
0.0001511880109
0.0001548208645
0.0001588051319
0.0001628054887
0.0001664452832
0.0001693136117
0.0001709738589
0.0001562696313
0.0001584127885
0.000161448142
0.0001651309538
0.0001691679729
0.0001732192196
0.0001769035892
0.0001798059578
0.000181485525
0.0001666315862
0.0001688003712
0.0001718710622
0.000175595257
0.0001796758095
0.0001837688909
0.0001874897787
0.000190419972
0.0001921153279
0.0001771456739
0.0001793352389
0.0001824344901
0.000186191986
0.000190307392
0.0001944337895
0.0001981836215
0.0002011357991
0.0002028436251
0.0001877898873
0.0001899956843
0.0001931171408
0.0001969003647
0.0002010424964
0.0002051942384
0.0002089659304
0.0002119346301
0.0002136518221
0.0001985432637
0.0002007610486
0.0002038987828
0.0002077006744
0.0002118619584
0.0002160316202
0.0002198185758
0.000222798712
0.0002245223787
0.0002093859304
0.0002116117618
0.0002147602706
0.0002185742779
0.000222747689
0.0002269283858
0.0002307244892
0.000233711346
0.0002354388047
0.0002202991286
0.0002225293627
0.0002256835599
0.0002295036291
0.0002336826782
0.0002378680521
0.0002416676558
0.0002446568773
0.0002463856487
0.0002312652218
0.0002334965041
0.0002366517085
0.0002404722694
0.0002446509874
0.0002488351908
0.0002526331002
0.0002556206789
0.0002573484802
0.0002422676911
0.0002444969465
0.0002476488676
0.0002514648161
0.0002556377344
0.0002598154103
0.0002636068666
0.0002665891292
0.0002683138664
0.0002532911212
0.0002555155426
0.0002586602641
0.0002624669426
0.0002666290715
0.0002707953325
0.0002745759929
0.000277549586
0.0002792693456
0.0002643211792
0.0002665382144
0.0002696721773
0.0002734653529
0.0002776121588
0.0002817625641
0.0002855284819
0.0002884903562
0.0002902033968
0.0002753445864
0.0002775519258
0.0002806719089
0.000284447752
0.0002885751333
0.0002927056652
0.0002964532689
0.0002994006634
0.0003011054066
0.0002863490862
0.000288544649
0.0002916477508
0.000295402812
0.0002995070748
0.0003036141146
0.0003073401866
0.0003102706122
0.0003119656336
0.0002973234079
0.0002995053281
0.0003025889474
0.0003063201348
0.0003103979682
0.0003144782726
0.0003181799278
0.0003210911515
0.0003227751714
0.000308257227
0.0003104238403
0.0003134856571
0.0003171902136
0.0003212386656
0.0003252893423
0.0003289640073
0.0003318540356
0.0003335259103
0.0003191411239
0.0003212909539
0.0003243289107
0.0003280043915
0.0003320208447
0.0003360393293
0.0003396847215
0.000342551785
0.000344210498
0.0003299665402
0.0003320982856
0.000335110569
0.0003387548198
0.0003427369681
0.000346721001
0.0003503351086
0.0003531776461
0.0003548222994
0.000340725735
0.0003428382562
0.0003458232791
0.0003494344149
0.0003533802408
0.0003573278452
0.0003609089072
0.0003637255513
0.0003653553569
0.0003514117392
0.0003535040468
0.000356460431
0.0003600368155
0.0003639445684
0.0003678540287
0.0003714005163
0.0003741900787
0.0003758043504
0.0003620183114
0.0003640895538
0.0003670161137
0.00037055634
0.0003744245147
0.0003782943562
0.0003818049549
0.0003845664123
0.0003861645586
0.0003725398927
0.0003745893451
0.0003774850721
0.0003809879436
0.0003848152607
0.0003886442301
0.0003921178221
0.0003948503037
0.0003964318194
0.0003829715632
0.0003849986166
0.0003878626639
0.000391327177
0.0003951125641
0.000398899611
0.0004023352589
0.0004050380335
0.0004066024934
0.0003933089987
0.0003953131502
0.0003981448191
0.0004015701462
0.0004053127196
0.0004090569788
0.0004124539106
0.0004151263745
0.0004166734267
0.0004035484294
0.0004055292724
0.0004083279988
0.0004117134727
0.000415412521
0.0004191132965
0.0004224708904
0.0004251125568
0.0004266419159
0.0004136865993
0.000415643815
0.0004184091569
0.0004217542561
0.0004254092242
0.0004290659734
0.0004323837449
0.0004349942331
0.0004365056746
0.0004237207277
0.0004256540766
0.0004283857029
0.0004316900377
0.0004353005121
0.0004389128318
0.0004421904203
0.000444769446
0.000446262801
0.0004336484725
0.0004355577865
0.000438255466
0.000441518766
0.0004450844612
0.0004486520738
0.0004518892313
0.0004544365975
0.000455911747
0.0004434678946
0.00044535307
0.0004480166615
0.0004512387636
0.0004547595094
0.0004582822508
0.0004614788305
0.0004639944189
0.0004654512896
0.0004531774249
0.0004550384159
0.000457667859
0.0004608486962
0.000464324426
0.000467802234
0.0004709581801
0.0004734419436
0.0004748805027
0.0004627758325
0.000464612645
0.0004672079517
0.0004703475432
0.000473778283
0.0004772111867
0.0004803265254
0.0004827784803
0.000484198732
0.0004722621957
0.0004740748817
0.0004766361281
0.0004797345702
0.0004831204287
0.0004865085387
0.0004895833689
0.0004920035886
0.0004934055701
0.0004816358735
0.000483424526
0.0004859518458
0.0004890093029
0.0004923504623
0.0004956939618
0.0004987284475
0.0005011170562
0.0005025008339
0.0004908964802
0.0004926612284
0.0004951548058
0.000498171503
0.0005014682108
0.000504767347
0.0005077617098
0.0005101188768
0.0005114845434
0.000500043861
0.0005017848661
0.00050424493
0.0005072211455
0.0005104737065
0.0005137287835
0.0005166832962
0.0005190092305
0.0005203569018
0.0005090780692
0.0005107955203
0.0005132223389
0.0005161583979
0.0005193671674
0.0005225785392
0.0005254935191
0.000527788465
0.0005291182773
0.0005179993458
0.0005196934566
0.0005220873321
0.0005249836006
0.0005281489779
0.0005313170419
0.0005341928456
0.0005364570782
0.0005377691857
0.0005268080997
0.000528479105
0.0005308403694
0.0005336972487
0.0005368196715
0.000539944863
0.0005427818812
0.0005450157024
0.000546310275
0.00053550489
0.0005371530429
0.0005394820537
0.0005422999759
0.0005453799147
0.0005484627016
0.0005512613543
0.0005534650892
0.0005547423104
0.0005440904095
0.0005457159788
0.0005480131153
0.0005507925385
0.0005538304919
0.0005568713701
0.0005596321027
0.0005618060962
0.0005630661612
0.0005525654696
0.0005541687371
0.0005564343972
0.0005591758014
0.0005621722921
0.0005651717811
0.0005678950603
0.0005700396743
0.0005712827883
0.0005609309861
0.0005625122447
0.0005647468416
0.0005674507255
0.000570406296
0.0005733649351
0.0005760512457
0.0005781668564
0.000579393233
0.0005691879666
0.0005707475184
0.0005729514781
0.0005756183554
0.0005785335646
0.0005814519095
0.000584101751
0.0005861887464
0.0005873986063
0.000577337499
0.0005788756532
0.0005810494118
0.0005836798086
0.0005865552288
0.0005894338484
0.0005920477323
0.00059410651
0.0005953000797
0.0005853807402
0.0005868978119
0.0005890418137
0.0005916362657
0.0005944724796
0.0005973119531
0.0005998904006
0.0006019213659
0.0006030988763
0.0005933189071
0.0005948152157
0.000596929911
0.0005994889611
0.0006022865592
0.0006050874738
0.0006076310132
0.0006096345773
0.0006107962631
0.0006011532672
0.0006026291351
0.0006047149785
0.0006072391749
0.0006099987534
0.0006127617019
0.0006152708667
0.000617247445
0.0006183935434
0.0006088851308
0.0006103408824
0.0006123983313
0.0006148882253
0.0006176103839
0.0006203359628
0.00062281129
0.0006247613007
0.000625892051
0.0006165158433
0.0006179518042
0.0006199813172
0.0006224374619
0.0006251228021
0.0006278116096
0.0006302536379
0.000632177501
0.0006332931432
0.0006240467793
0.0006254632748
0.0006274653108
0.0006298882593
0.0006325373827
0.0006351900174
0.0006375992859
0.0006394974218
0.0006405981965
0.0006314793358
0.0006328766908
0.0006348517076
0.0006372420118
0.0006398555189
0.000642472578
0.0006448496249
0.0006467224533
0.0006478086011
0.0006388149273
0.0006401934651
0.0006421419186
0.0006445001282
0.0006470786169
0.0006496606953
0.0006520060567
0.0006538539959
0.0006549257565
0.0006460549807
0.0006474150229
0.0006493373661
0.0006516640273
0.0006542080918
0.000656755781
0.0006590699899
0.0006608934559
0.0006619510679
0.000653200931
0.0006545427965
0.000656439479
0.0006587351338
0.0006612453638
0.0006637592505
0.000666042836
0.0006678422422
0.0006688859426
0.0006602542175
0.000661578222
0.0006634496892
0.0006657148745
0.0006681918543
0.0006706725201
0.0006729260066
0.0006747017624
0.0006757317865
0.0006672162797
0.000668522736
0.0006703694283
0.0006726046754
0.0006750489829
0.0006774970032
0.0006797209098
0.0006814734208
0.0006824900013
0.0006740885549
0.0006753777716
0.0006772001245
0.0006794059581
0.0006818181647
0.0006842341082
0.0006864289477
0.0006881586149
0.0006891619823
0.0006808724746
0.0006821447566
0.0006839431995
0.0006861201379
0.0006885008072
0.0006908852353
0.0006930515143
0.0006947587336
0.0006957491153
0.0006875694625
0.0006888251102
0.0006906000668
0.0006927486206
0.0006950983084
0.0006974517746
0.0006995899926
0.0007012751546
0.0007022527753
0.0006941809317
0.0006954202409
0.0006971721283
0.0006992928005
0.0007016120545
0.000703935104
0.0007060457531
0.0007077092426
0.0007086743236
0.0007007082829
0.0007019315448
0.0007036607733
0.0007057540589
0.0007080434177
0.000710336587
0.0007124201514
0.0007140623473
0.0007150151065
0.0007071529025
0.0007083604032
0.0007100673762
0.0007121337615
0.0007143937545
0.0007166575711
0.0007187145268
0.0007203358015
0.0007212764532
0.0007135161603
0.0007147081807
0.0007163932943
0.000718433257
0.0007206644041
0.0007228993856
0.0007249302001
0.0007265309194
0.0007274596741
0.0007197994078
0.0007209762235
0.0007226398661
0.0007246538746
0.0007268566857
0.00072906334
0.0007310684717
0.0007326489943
0.0007335660585
0.0007260039764
0.0007271658574
0.0007288084096
0.0007307969227
0.0007329718971
0.0007351507216
0.0007371306194
0.0007386912966
0.0007395968725
0.0007321311752
0.0007332783856
0.0007349002196
0.0007368636862
0.0007390113123
0.0007411627931
0.0007431178961
0.0007446590712
0.0007455533566
0.0007381822887
0.0007393150864
0.0007409165658
0.000742855424
0.0007449761785
0.0007471007902
0.0007490315263
0.0007505535343
0.0007514367219
0.0007441585742
0.0007452772107
0.0007468586895
0.0007487733661
0.0007508677129
0.0007529659172
0.0007548727029
0.0007563758695
0.0007572481466
0.0007500612583
0.0007511659778
0.0007527278001
0.0007546187094
0.0007566870989
0.0007587593436
0.0007606425824
0.0007621272229
0.0007629887708
0.0007558915328
0.0007569825718
0.0007585250705
0.000760392613
0.0007624354802
0.0007644821974
0.0007663422786
0.0007678086967
0.00076865969
0.0007616505494
0.0007627281355
0.0007642516308
0.0007660961918
0.0007681139545
0.0007701355587
0.0007719728547
0.0007734213408
0.0007742619462
0.0007673394122
0.0007684037632
0.0007699085613
0.0007717305083
0.0007737235642
0.0007757204493
0.0007775353135
0.0007789661426
0.0007797965174
0.0007729591697
0.0007740104918
0.000775496882
0.0007772965616
0.0007792652853
0.000781237821
0.000783030584
0.0007844440123
0.000785264303
0.0007785108023
0.000779549288
0.0007810175399
0.0007827952742
0.0007847400124
0.0007866885393
0.0007884595043
0.0007898557658
0.0007906661053
0.0007839952078
0.0007850210333
0.0007864713927
0.0007882274743
0.0007901485398
0.0007920733635
0.0007938228004
0.0007952021017
0.0007960026066
0.0007894131828
0.0007904265044
0.0007918591882
0.0007935938733
0.0007954915379
0.0007973929208
0.0007991210587
0.0008004835728
0.0008012743396
0.0007947653986
0.0007957663479
0.0007971815379
0.0007988950385
0.0008007695233
0.000802647675
0.0008043546925
0.0008057005512
0.0008064816513
0.0008000523713
0.0008010410504
0.0008024388845
0.0008041313579
0.0008059828219
0.0008078378865
0.0008095239003
0.000810853184
0.0008116246583
0.0008052744264
0.0008062509001
0.000807631463
0.0008093029992
0.0008111315244
0.0008129635657
0.0008146286156
0.0008159413418
0.0008167031931
0.000810431654
0.0008113959421
0.0008127592523
0.0008144098586
0.000816215433
0.0008180244157
0.0008196684475
0.0008209645566
0.0008217167411
0.0008155238572
0.0008164759239
0.0008178219193
0.0008194515021
0.0008212339981
0.0008230197663
0.0008246426115
0.0008259219494
0.0008266643671
0.0008205504906
0.0008214902325
0.0008228187534
0.0008244270962
0.0008261862467
0.0008279484986
0.0008295498498
0.000830812149
0.0008315446314
0.0008255105905
0.000826437823
0.0008277485916
0.0008293353305
0.0008310707008
0.0008328089595
0.0008343883439
0.000835633201
0.0008363554984
0.0008304026966
0.0008313171382
0.0008326097363
0.0008341743322
0.0008358852886
0.0008375988696
0.0008391556182
0.0008403824698
0.0008410942369
0.0008352247666
0.0008361260216
0.000837399866
0.0008389415735
0.0008406272489
0.0008423152255
0.0008438484407
0.0008450565373
0.0008457573178
0.0008399740852
0.0008408616251
0.0008421159409
0.0008436337763
0.0008452930343
0.0008469542006
0.0008484627228
0.0008496511016
0.0008503403126
0.0008446471719
0.0008455203165
0.0008467541099
0.0008482468177
0.0008498782159
0.0008515110499
0.0008529934234
0.0008541608824
0.0008548377991
0.0008492396908
0.000850097589
0.0008513096206
0.0008527756412
0.0008543773965
0.0008559800253
0.0008574344675
0.0008585795406
0.0008592432826
0.000853746368
0.0008545879809
0.0008557767417
0.0008572141828
0.0008587841391
0.0008603543089
0.0008617786834
0.0008628996211
0.0008635491413
0.000858160925
0.0008589850112
0.0008601487028
0.0008615553159
0.000863090922
0.0008646259749
0.0008660177731
0.0008671125292
0.0008677466071
0.0008624760353
0.0008632811413
0.0008644176625
0.0008657908297
0.0008672891252
0.00086878599
0.000870142324
0.0008712085517
0.0008718257929
0.0008666833138
0.0008674677707
0.0008685747152
0.0008699114472
0.0008713690647
0.0008728242618
0.0008741418733
0.0008751769354
0.000875775778
0.0008707733484
0.0008715352779
0.0008726099439
0.0008739068957
0.0008753200813
0.0008767297485
0.0008780050367
0.0008790060307
0.0008795847628
0.0008747357837
0.000875473115
0.0008765125315
0.0008777660375
0.0008791306951
0.0008804906371
0.0008817197095
0.0008826835124
0.0008832402993
0.0008785594657
0.0008792699649
0.0008802709365
0.0008814770698
0.0008827888314
0.0008840945976
0.0008852733464
0.0008861966802
0.0008867296052
0.0008822326529
0.0008829139676
0.0008838731404
0.0008850277972
0.0008862821225
0.000887529114
0.0008886533214
0.00088953284
0.0008900399576
0.0008857432994
0.0008863930179
0.000887306967
0.0008884059786
0.0008895982844
0.0008907818915
0.0008918473611
0.0008926797601
0.0008931591617
0.0008890794064
0.0008896951331
0.0008905604716
0.0008915997419
0.0008927255595
0.0008938413276
0.0008948440419
0.0008956261873
0.0008960760781
0.0008922294377
0.0008928088812
0.0008936223891
0.0008945980551