/*--------------------------------*- C++ -*----------------------------------*\
| =========                 |                                                 |
| \\      /  F ield         | OpenFOAM: The Open Source CFD Toolbox           |
|  \\    /   O peration     | Version:  2212                                  |
|   \\  /    A nd           | Website:  www.openfoam.com                      |
|    \\/     M anipulation  |                                                 |
\*---------------------------------------------------------------------------*/
FoamFile
{
    version     2.0;
    format      ascii;
    arch        "LSB;label=32;scalar=64";
    class       surfaceScalarField;
    location    "23.25000000";
    object      phi;
}
// * * * * * * * * * * * * * * * * * * * * * * * * * * * * * * * * * * * * * //

dimensions      [1 0 -1 0 0 0 0];

oriented        oriented;

internalField   nonuniform List<scalar> 
5690
(
-5.454308299e-11
8.582324651e-10
1.324872077e-11
-1.33868236e-10
1.420988632e-09
-2.669489566e-10
1.983617574e-09
-4.767423698e-10
2.553722243e-09
-7.867296533e-10
3.132185892e-09
-1.194890436e-09
3.693863783e-09
-1.605628073e-09
4.145524349e-09
-1.624458068e-09
4.188619548e-09
2.966584965e-09
-1.156828717e-10
9.454236638e-10
2.849159608e-11
-2.667623863e-10
1.572067933e-09
-4.855636122e-10
2.20241919e-09
-7.663841183e-10
2.834542206e-09
-1.076449369e-09
3.442251076e-09
-1.327359701e-09
3.944774718e-09
-1.358312846e-09
4.176476714e-09
-9.148304242e-10
3.745137564e-09
2.051754443e-09
-1.515568196e-10
1.058779804e-09
3.820073784e-11
-3.348809558e-10
1.75539204e-09
-5.762527694e-10
2.443790719e-09
-8.444803094e-10
3.102770094e-09
-1.077180735e-09
3.674951553e-09
-1.177808333e-09
4.045401622e-09
-1.023171056e-09
4.021839373e-09
-5.494444222e-10
3.271411496e-09
1.502309886e-09
-1.483689219e-10
1.169070575e-09
3.807809052e-11
-3.176061461e-10
1.92462911e-09
-5.216572744e-10
2.647841938e-09
-7.183816533e-10
3.29949436e-09
-8.464056008e-10
3.802975167e-09
-8.319036174e-10
4.03089932e-09
-6.207196194e-10
3.810655594e-09
-2.731837428e-10
2.923875352e-09
1.229125962e-09
-1.31503519e-10
1.266331951e-09
3.42420469e-11
-2.742037171e-10
2.067329382e-09
-4.33342425e-10
2.806980606e-09
-5.671204556e-10
3.433272756e-09
-6.259843957e-10
3.861839211e-09
-5.676251019e-10
3.972540394e-09
-3.839620832e-10
3.626992433e-09
-1.470712709e-10
2.686984024e-09
1.082054749e-09
-1.070330423e-10
1.345082517e-09
2.828243744e-11
-2.181116357e-10
2.178408086e-09
-3.335669239e-10
2.922435317e-09
-4.183290425e-10
3.518034934e-09
-4.37953496e-10
3.88146397e-09
-3.730255872e-10
3.907612166e-09
-2.349100214e-10
3.488876501e-09
-8.192278976e-11
2.533996774e-09
1.000131929e-09
-8.366202183e-11
1.406397444e-09
2.234707916e-11
-1.673650749e-10
2.262110897e-09
-2.492707162e-10
3.004341175e-09
-3.022748356e-10
3.571038874e-09
-3.040093075e-10
3.883198277e-09
-2.472805832e-10
3.850883324e-09
-1.479134903e-10
3.389509248e-09
-4.783436896e-11
2.433917454e-09
9.522975762e-10
-6.330948455e-11
1.452617377e-09
1.708952648e-11
-1.246595498e-10
2.323460795e-09
-1.816433757e-10
3.061325226e-09
-2.144001976e-10
3.603795279e-09
-2.090605057e-10
3.8778584e-09
-1.644761889e-10
3.806299052e-09
-9.522915023e-11
3.320261952e-09
-2.978989785e-11
2.368478215e-09
9.225077713e-10
-4.711472364e-11
1.486917546e-09
1.28144923e-11
-9.162269112e-11
2.367968814e-09
-1.312238569e-10
3.100926417e-09
-1.517081512e-10
3.624279778e-09
-1.445696514e-10
3.870719526e-09
-1.110477032e-10
3.77277679e-09
-6.279090705e-11
3.272005192e-09
-1.901732268e-11
2.324704747e-09
9.034902649e-10
-3.466877217e-11
1.51209125e-09
9.495229514e-12
-6.673235389e-11
2.400032207e-09
-9.428084056e-11
3.128474998e-09
-1.072871684e-10
3.637286289e-09
-1.005486134e-10
3.863980443e-09
-7.601399877e-11
3.748242285e-09
-4.244252286e-11
3.238434048e-09
-1.27749505e-11
2.295036921e-09
8.907150617e-10
-2.538635789e-11
1.530491145e-09
6.986538609e-12
-4.848811441e-11
2.42313372e-09
-6.780498037e-11
3.147791831e-09
-7.626912089e-11
3.645750321e-09
-7.06405701e-11
3.8583517e-09
-5.282455948e-11
3.730426476e-09
-2.922566721e-11
3.214835279e-09
-8.701196286e-12
2.274512378e-09
8.820137601e-10
-1.856070709e-11
1.543922559e-09
5.129211332e-12
-3.523837486e-11
2.43981138e-09
-4.890202266e-11
3.161455316e-09
-5.455409228e-11
3.651402572e-09
-5.013190062e-11
3.853929566e-09
-3.724955811e-11
3.71754399e-09
-2.05369704e-11
3.198122643e-09
-6.127366521e-12
2.260102743e-09
8.758863799e-10
-1.358771445e-11
1.553745205e-09
3.765052938e-12
-2.568716941e-11
2.451910905e-09
-3.545680602e-11
3.171224829e-09
-3.933385896e-11
3.655279859e-09
-3.596150553e-11
3.850557362e-09
-2.66141922e-11
3.708196509e-09
-1.463419181e-11
3.186142589e-09
-4.349959812e-12
2.24981837e-09
8.71536501e-10
-9.980671374e-12
1.560954448e-09
2.771441819e-12
-1.881112933e-11
2.4607415e-09
-2.587224426e-11
3.178285875e-09
-2.859986414e-11
3.658007679e-09
-2.607167463e-11
3.848029275e-09
-1.925941156e-11
3.70138408e-09
-1.058430538e-11
3.177467529e-09
-3.145278162e-12
2.242379365e-09
8.683911588e-10
-7.36869824e-12
1.566274611e-09
2.048526086e-12
-1.386253654e-11
2.467235399e-09
-1.902532862e-11
3.183448654e-09
-2.098985306e-11
3.659972397e-09
-1.910622984e-11
3.846145659e-09
-1.409996058e-11
3.696377683e-09
-7.737866878e-12
3.171105554e-09
-2.278562039e-12
2.236920015e-09
8.661123807e-10
-5.480897379e-12
1.570230767e-09
1.524727155e-12
-1.030171986e-11
2.472056173e-09
-1.412634115e-11
3.187273274e-09
-1.557782838e-11
3.661424001e-09
-1.418240374e-11
3.844750243e-09
-1.047631568e-11
3.692671448e-09
-5.76005186e-12
3.166389328e-09
-1.702704983e-12
2.232862396e-09
8.644096187e-10
-4.119808544e-12
1.573204489e-09
1.146032798e-12
-7.744036257e-12
2.475680362e-09
-1.062372687e-11
3.190152991e-09
-1.172743904e-11
3.662527735e-09
-1.069650555e-11
3.843719298e-09
-7.924239579e-12
3.689899051e-09
-4.37697744e-12
3.162842129e-09
-1.309640097e-12
2.229794736e-09
8.631000339e-10
-3.145752432e-12
1.575475614e-09
8.74524704e-13
-5.919649297e-12
2.478454357e-09
-8.136198422e-12
3.192369498e-09
-9.005730845e-12
3.663397165e-09
-8.243295761e-12
3.842956924e-09
-6.131998445e-12
3.687787803e-09
-3.400418971e-12
3.160110581e-09
-1.01708393e-12
2.227411148e-09
8.620830273e-10
-2.459066034e-12
1.577251915e-09
6.827018677e-13
-4.638212586e-12
2.480633704e-09
-6.396781379e-12
3.194127913e-09
-7.110636946e-12
3.664110971e-09
-6.54191133e-12
3.842388274e-09
-4.900650747e-12
3.686146429e-09
-2.736519845e-12
3.157946352e-09
-8.184134929e-13
2.225492959e-09
8.61264675e-10
-1.992408059e-12
1.578692434e-09
5.518735582e-13
-3.77396062e-12
2.482415385e-09
-5.236568964e-12
3.195590395e-09
-5.865609882e-12
3.664740078e-09
-5.440199813e-12
3.841962673e-09
-4.098718774e-12
3.684804673e-09
-2.299494326e-12
3.15614724e-09
-6.826270596e-13
2.22387603e-09
8.605818694e-10
-1.703037944e-12
1.579925698e-09
4.697373316e-13
-3.249487517e-12
2.48396186e-09
-4.557302946e-12
3.196898045e-09
-5.176863428e-12
3.665359634e-09
-4.884506193e-12
3.841670073e-09
-3.731928868e-12
3.683652094e-09
-2.10875119e-12
3.15452433e-09
-6.215114792e-13
2.222388587e-09
8.59959982e-10
-1.550631509e-12
1.581050702e-09
4.255690089e-13
-2.983359801e-12
2.485394579e-09
-4.232251593e-12
3.198146707e-09
-4.874171741e-12
3.666001595e-09
-4.670967223e-12
3.841466856e-09
-3.642823335e-12
3.682623897e-09
-2.10406164e-12
3.152985505e-09
-6.311918177e-13
2.220915523e-09
8.593285254e-10
-1.516695789e-12
1.582153346e-09
4.139834279e-13
-2.944061961e-12
2.486822004e-09
-4.22674717e-12
3.199429308e-09
-4.937063384e-12
3.666712064e-09
-4.806298229e-12
3.841336093e-09
-3.820495491e-12
3.681637713e-09
-2.258057069e-12
3.151422746e-09
-6.935342481e-13
2.21935085e-09
8.586349446e-10
-1.590101011e-12
1.583311695e-09
4.316919147e-13
-3.113569017e-12
2.488345688e-09
-4.52365944e-12
3.20083938e-09
-5.360528946e-12
3.66754893e-09
-5.303478041e-12
3.841279019e-09
-4.282940696e-12
3.680616908e-09
-2.569101617e-12
3.149708625e-09
-8.002606374e-13
2.217581722e-09
8.578347489e-10
-1.761488588e-12
1.584597096e-09
4.760793468e-13
-3.474083479e-12
2.490058506e-09
-5.096456011e-12
3.202461595e-09
-6.10858518e-12
3.668560952e-09
-6.11995973e-12
3.841290445e-09
-5.007505943e-12
3.679504414e-09
-3.045330921e-12
3.1477463e-09
-9.660726444e-13
2.215502185e-09
8.56868717e-10
-2.025706949e-12
1.586077169e-09
5.456499982e-13
-4.016391855e-12
2.492049203e-09
-5.933029487e-12
3.204378153e-09
-7.169180935e-12
3.669797109e-09
-7.246784547e-12
3.841367972e-09
-5.985800625e-12
3.67824334e-09
-3.677870149e-12
3.145438476e-09
-1.185101822e-12
2.213009263e-09
8.556835407e-10
-2.377475988e-12
1.587815694e-09
6.389037968e-13
-4.729780294e-12
2.49440137e-09
-7.01759377e-12
3.206666056e-09
-8.523058741e-12
3.671302598e-09
-8.663692706e-12
3.84150842e-09
-7.200399782e-12
3.676779955e-09
-4.456080183e-12
3.142694427e-09
-1.45470222e-12
2.210007708e-09
8.542287291e-10
-2.81131777e-12
1.589872516e-09
7.543981912e-13
-5.60292821e-12
2.49719293e-09
-8.332893454e-12
3.209396006e-09
-1.014778047e-11
3.673117471e-09
-1.034557614e-11
3.841706193e-09
-8.627698772e-12
3.675061977e-09
-5.363059033e-12
3.139429914e-09
-1.768098506e-12
2.206412568e-09
8.524606061e-10
-3.31970056e-12
1.59230191e-09
8.902556924e-13
-6.62021086e-12
2.500493479e-09
-9.853705062e-12
3.212629366e-09
-1.200971596e-11
3.675273502e-09
-1.225472105e-11
3.841951286e-09
-1.023268381e-11
3.673039666e-09
-6.374319925e-12
3.135571543e-09
-2.116225466e-12
2.202154411e-09
8.503443582e-10
-3.892449709e-12
1.595150543e-09
1.043794405e-12
-7.760158567e-12
2.504361237e-09
-1.15453892e-11
3.216414529e-09
-1.406287622e-11
3.677790976e-09
-1.433956345e-11
3.842228031e-09
-1.196758468e-11
3.670667363e-09
-7.456767575e-12
3.131060766e-09
-2.486772723e-12
2.19718431e-09
8.478575221e-10
-4.515763274e-12
1.598454913e-09
1.211354762e-12
-8.993696978e-12
2.508839284e-09
-1.336185608e-11
3.220782658e-09
-1.624657479e-11
3.680675627e-09
-1.653292564e-11
3.842514443e-09
-1.377155035e-11
3.667905781e-09
-8.569492816e-12
3.125858718e-09
-2.86477043e-12
2.191479358e-09
8.449927791e-10
-5.17180523e-12
1.602238385e-09
1.388334197e-12
-1.028382649e-11
2.513951431e-09
-1.52449624e-11
3.225743755e-09
-1.848547776e-11
3.683916121e-09
-1.875320136e-11
3.842782149e-09
-1.557241174e-11
3.664724906e-09
-9.664899529e-12
3.119951166e-09
-3.232906461e-12
2.18504721e-09
8.417599853e-10
-5.83877609e-12
1.606508164e-09
1.569036008e-12
-1.158566119e-11
2.519698295e-09
-1.712513545e-11
3.231283238e-09
-2.069139946e-11
3.687482393e-09
-2.090696288e-11
3.842997563e-09
-1.728964583e-11
3.661107603e-09
-1.069125676e-11
3.113352854e-09
-3.573019773e-12
2.177928974e-09
8.381869771e-10
-6.491230212e-12
1.611252718e-09
1.746651962e-12
-1.284730662e-11
2.526054223e-09
-1.892362757e-11
3.237359578e-09
-2.276668899e-11
3.691325495e-09
-2.289343573e-11
3.843124197e-09
-1.883900602e-11
3.657053169e-09
-1.159638275e-11
3.106110411e-09
-3.867508692e-12
2.17020015e-09
8.343193379e-10
-7.100819586e-12
1.616439834e-09
1.913610338e-12
-1.40119529e-11
2.532965254e-09
-2.055594923e-11
3.243903568e-09
-2.460929275e-11
3.695378986e-09
-2.461083918e-11
3.843125716e-09
-2.013841054e-11
3.652580578e-09
-1.233150629e-11
3.098303606e-09
-4.100551687e-12
2.161969204e-09
8.302186434e-10
-7.637664753e-12
1.622015465e-09
2.061965664e-12
-1.502087856e-11
2.540348459e-09
-2.193667738e-11
3.250819385e-09
-2.611939966e-11
3.699561852e-09
-2.596348218e-11
3.842969784e-09
-2.111409212e-11
3.647731012e-09
-1.285490339e-11
3.090044421e-09
-4.259277184e-12
2.153373437e-09
8.259592875e-10
-8.07208908e-12
1.627903864e-09
2.183679659e-12
-1.5816934e-11
2.548093244e-09
-2.298522843e-11
3.257987716e-09
-2.720648223e-11
3.703783138e-09
-2.686880395e-11
3.842632191e-09
-2.170649492e-11
3.642568726e-09
-1.313542884e-11
3.081473368e-09
-4.334831217e-12
2.144572505e-09
8.216243986e-10
-8.376548887e-12
1.634009323e-09
2.271066967e-12
-1.634841354e-11
2.556064934e-09
-2.363171816e-11
3.265271089e-09
-2.779625019e-11
3.707947711e-09
-2.726414992e-11
3.842100304e-09
-2.18751399e-11
3.637179815e-09
-1.315498832e-11
3.072753252e-09
-4.323041572e-12
2.135740227e-09
8.173012923e-10
-8.527717802e-12
1.640219458e-09
2.317523382e-12
-1.657320572e-11
2.564110275e-09
-2.382270582e-11
3.272520731e-09
-2.783713775e-11
3.711962267e-09
-2.711214605e-11
3.841375452e-09
-2.160153307e-11
3.631669117e-09
-1.29093397e-11
3.064061098e-09
-4.224509064e-12
2.127055307e-09
8.1307675e-10
-8.508528667e-12
1.646409803e-09
2.318147426e-12
-1.646271595e-11
2.572064382e-09
-2.352618034e-11
3.279584341e-09
-2.730496894e-11
3.715741161e-09
-2.64035719e-11
3.840474034e-09
-2.088999137e-11
3.626155323e-09
-1.240767672e-11
3.055578831e-09
-4.044166766e-12
2.118691933e-09
8.090326202e-10
-8.309890897e-12
1.652449627e-09
2.270044878e-12
-1.600464412e-11
2.57975903e-09
-2.273462344e-11
3.286314393e-09
-2.620488322e-11
3.719211476e-09
-2.515764425e-11
3.839426767e-09
-1.976673898e-11
3.6207643e-09
-1.167136123e-11
3.047483522e-09
-3.790503696e-12
2.110811249e-09
8.052421987e-10
-7.931741346e-12
1.658208647e-09
2.172663493e-12
-1.520434264e-11
2.587031566e-09
-2.146585726e-11
3.292575949e-09
-2.457075606e-11
3.722316421e-09
-2.341992269e-11
3.838275964e-09
-1.827704082e-11
3.615621454e-09
-1.07316429e-11
3.039938215e-09
-3.474657857e-12
2.10355439e-09
8.017675795e-10
-7.383335188e-12
1.663563824e-09
2.02812945e-12
-1.408488648e-11
2.593733156e-09
-1.976186357e-11
3.298252955e-09
-2.246224588e-11
3.725016813e-09
-2.125785529e-11
3.837071604e-09
-1.648062288e-11
3.610844282e-09
-9.626595702e-12
3.033084294e-09
-3.109644729e-12
2.097037479e-09
7.986578867e-10
-6.682808033e-12
1.668405577e-09
1.84109243e-12
-1.268548786e-11
2.59973584e-09
-1.768535757e-11
3.303252816e-09
-1.995954152e-11
3.727290975e-09
-1.875471113e-11
3.835866793e-09
-1.444630813e-11
3.606535864e-09
-8.397802132e-12
3.027035858e-09
-2.709391217e-12
2.091348981e-09
7.959484416e-10
-5.855743825e-12
1.672643111e-09
1.618214377e-12
-1.105805946e-11
2.604938115e-09
-1.531429566e-11
3.307509041e-09
-1.71564569e-11
3.729133144e-09
-1.600277561e-11
3.834713135e-09
-1.224694106e-11
3.602779915e-09
-7.087957933e-12
3.021876896e-09
-2.289810678e-12
2.086550753e-09
7.936586472e-10
-4.933014933e-12
1.676208314e-09
1.367762299e-12
-9.263131176e-12
2.609268306e-09
-1.273586354e-11
3.310981793e-09
-1.415356677e-11
3.730550876e-09
-1.30971833e-11
3.833656743e-09
-9.95503493e-12
3.599637585e-09
-5.738054012e-12
3.017659964e-09
-1.8668752e-12
2.082679682e-09
7.917917143e-10
-3.948286836e-12
1.679057582e-09
1.099019308e-12
-7.365091726e-12
2.612685234e-09
-1.003958577e-11
3.313656288e-09
-1.105032554e-11
3.731561625e-09
-1.0128377e-11
3.832734775e-09
-7.635966069e-12
3.597145026e-09
-4.384001105e-12
3.01440811e-09
-1.431950642e-12
2.079727701e-09
7.903597326e-10
-2.935745261e-12
1.681171891e-09
8.214734727e-13
-5.427673634e-12
2.615177157e-09
-7.311666871e-12
3.315540256e-09
-7.939960199e-12
3.732189923e-09
-7.179240721e-12
3.8319741e-09
-5.350009345e-12
3.595315763e-09
-3.05885297e-12
3.012116934e-09
-1.005536939e-12
2.077674422e-09
7.893541111e-10
-1.927543036e-12
1.682555325e-09
5.440966487e-13
-3.509445536e-12
2.616759006e-09
-4.629463676e-12
3.316660263e-09
-4.903821699e-12
3.732464292e-09
-4.319577794e-12
3.831389954e-09
-3.145680609e-12
3.594141885e-09
-1.779473831e-12
3.010750656e-09
-6.001021858e-13
2.076494869e-09
7.887539174e-10
-9.520763038e-13
1.683232368e-09
2.749984414e-13
-1.66129646e-12
2.617468248e-09
-2.058425159e-12
3.31705739e-09
-2.008660826e-12
3.7324145e-09
-1.604500765e-12
3.830985867e-09
-1.063491676e-12
3.593600848e-09
-5.473665904e-13
3.010234422e-09
-2.182667024e-13
2.076165524e-09
7.885355734e-10
-3.264301194e-14
1.683244085e-09
2.091874929e-14
7.542245254e-14
2.617360188e-09
3.481795133e-13
3.316784611e-09
6.900951221e-13
3.732072551e-09
9.152646124e-13
3.830760688e-09
8.63414946e-13
3.593652578e-09
5.61093821e-13
3.010536704e-09
1.34133229e-13
2.076592305e-09
7.886696491e-10
8.123184962e-13
1.682644617e-09
-2.128800398e-13
1.667868511e-12
2.616504577e-09
2.549009748e-12
3.315903463e-09
3.152006187e-12
3.731469572e-09
3.207949676e-12
3.830704713e-09
2.61840425e-12
3.594241938e-09
1.544565388e-12
3.01161054e-09
4.551427592e-13
2.077681654e-09
7.891247698e-10
1.569561251e-12
1.681497697e-09
-4.227026636e-13
3.093017409e-12
2.614981092e-09
4.516434523e-12
3.314480096e-09
5.351840512e-12
3.730634228e-09
5.258526175e-12
3.830797969e-09
4.187484928e-12
3.595312779e-09
2.448188826e-12
3.013349823e-09
7.449308693e-13
2.079384917e-09
7.898697048e-10
2.232236497e-12
1.679871837e-09
-6.063946705e-13
4.339932216e-12
2.61287343e-09
6.238097536e-12
3.312581981e-09
7.278440897e-12
3.729593878e-09
7.057744334e-12
3.831018586e-09
5.567943025e-12
3.596802447e-09
3.251647461e-12
3.015666088e-09
1.00191696e-12
2.08163468e-09
7.90871622e-10
2.798317183e-12
1.677836788e-09
-7.632509946e-13
5.40597415e-12
2.610265785e-09
7.712117162e-12
3.31027582e-09
8.931425978e-12
3.72837449e-09
8.605914816e-12
3.831344039e-09
6.760105921e-12
3.598648204e-09
3.948068544e-12
3.018478114e-09
1.225474833e-12
2.084357311e-09
7.920970907e-10
3.269717517e-12
1.675460833e-09
-8.937591666e-13
6.295383615e-12
2.607240086e-09
8.945170019e-12
3.307625963e-09
1.031894802e-11
3.727000632e-09
9.910817697e-12
3.831752163e-09
7.769794299e-12
3.600789226e-09
4.540628249e-12
3.021707335e-09
1.415934577e-12
2.087482029e-09
7.935130131e-10
3.651204881e-12
1.672808822e-09
-9.992125769e-13
7.017298005e-12
2.603873957e-09
9.949984485e-12
3.304693201e-09
1.145520279e-11
3.725495418e-09
1.0985485e-11
3.83222194e-09
8.606818745e-12
3.603167925e-09
5.035379714e-12
3.025278883e-09
1.579744659e-12
2.090937639e-09
7.950927468e-10
3.949475919e-12
1.669940788e-09
-1.081466863e-12
7.58410837e-12
2.600239302e-09
1.074331317e-11
3.301533984e-09
1.235828693e-11
3.723880546e-09
1.18460868e-11
3.832734239e-09
9.282819028e-12
3.605731201e-09
5.438731662e-12
3.029123055e-09
1.717113616e-12
2.094659202e-09
7.968098578e-10
4.172351002e-12
1.66691114e-09
-1.142728076e-12
8.010176155e-12
2.596401501e-09
1.134429885e-11
3.298199935e-09
1.304866478e-11
3.722176292e-09
1.251073061e-11
3.833272235e-09
9.810695938e-12
3.608431158e-09
5.757478869e-12
3.033176303e-09
1.825605576e-12
2.098591053e-09
7.986354779e-10
4.328166782e-12
1.663768303e-09
-1.185343778e-12
8.310753573e-12
2.592419008e-09
1.177317556e-11
3.294737593e-09
1.35480097e-11
3.72040148e-09
1.299869735e-11
3.833821522e-09
1.020456516e-11
3.611225182e-09
5.999511699e-12
3.037381371e-09
1.909322461e-12
2.10268128e-09
8.005448131e-10
4.425297443e-12
1.660554672e-09
-1.211654621e-12
8.501097825e-12
2.588343288e-09
1.205024286e-11
3.291188441e-09
1.387809179e-11
3.718573561e-09
1.332934406e-11
3.834370222e-09
1.047850157e-11
3.614076014e-09
6.17257205e-12
3.041687327e-09
1.971137223e-12
2.106882744e-09
8.025159288e-10
4.471827389e-12
1.657306804e-09
-1.223945713e-12
8.596019832e-12
2.584219077e-09
1.219529846e-11
3.287589083e-09
1.40601792e-11
3.716708628e-09
1.352159096e-11
3.834908843e-09
1.064615924e-11
3.616951523e-09
6.284062828e-12
3.046049433e-09
2.013322351e-12
2.11115344e-09
8.045292073e-10
4.475374881e-12
1.654055794e-09
-1.224383745e-12
8.609583018e-12
2.580084799e-09
1.222715878e-11
3.283971451e-09
1.411449117e-11
3.714821333e-09
1.35934278e-11
3.835429986e-09
1.072059138e-11
3.619824379e-09
6.341118327e-12
3.05042889e-09
2.038032555e-12
2.115456452e-09
8.065672236e-10
4.442980548e-12
1.650827705e-09
-1.214931546e-12
8.554776537e-12
2.575972977e-09
1.216323097e-11
3.280363005e-09
1.405978981e-11
3.712924839e-09
1.356167547e-11
3.835928121e-09
1.071420633e-11
3.622671759e-09
6.350602675e-12
3.054792492e-09
2.047352393e-12
2.119759689e-09
8.086145829e-10
4.380996497e-12
1.647644017e-09
-1.197339304e-12
8.443308335e-12
2.571910672e-09
1.201930026e-11
3.276787038e-09
1.391326709e-11
3.711030877e-09
1.344194177e-11
3.836399398e-09
1.063865757e-11
3.625474951e-09
6.319016672e-12
3.059112163e-09
2.043221727e-12
2.124035507e-09
8.106577853e-10
4.295050336e-12
1.64452213e-09
-1.173187473e-12
8.28562768e-12
2.567920083e-09
1.180957627e-11
3.273263088e-09
1.369057088e-11
3.709149832e-09
1.324855294e-11
3.836841374e-09
1.050463774e-11
3.628218855e-09
6.252340435e-12
3.063364469e-09
2.027430195e-12
2.128260393e-09
8.126851527e-10
4.190087859e-12
1.641475897e-09
-1.143879139e-12
8.091007178e-12
2.564019154e-09
1.154675028e-11
3.269807326e-09
1.340576348e-11
3.70729077e-09
1.299443113e-11
3.837252717e-09
1.03217829e-11
3.630891516e-09
6.156020377e-12
3.067530188e-09
2.00165846e-12
2.132414671e-09
8.146867517e-10
4.070411913e-12
1.638516083e-09
-1.110603964e-12
7.86753944e-12
2.560222061e-09
1.124198083e-11
3.266432874e-09
1.307127329e-11
3.705461472e-09
1.269105031e-11
3.837632966e-09
1.009877825e-11
3.63348375e-09
6.035031746e-12
3.071593888e-09
1.967496771e-12
2.136482152e-09
8.166542291e-10
3.939704447e-12
1.635650754e-09
-1.074354897e-12
7.622175949e-12
2.55653965e-09
1.090494954e-11
3.263150113e-09
1.269794846e-11
3.703668492e-09
1.234855141e-11
3.837982364e-09
9.843449493e-12
3.635988779e-09
5.89390107e-12
3.075543439e-09
1.926382189e-12
2.140449692e-09
8.18580607e-10
3.801090814e-12
1.632885675e-09
-1.035987218e-12
7.360873575e-12
2.552979905e-09
1.054399095e-11
3.259967027e-09
1.229522338e-11
3.701917265e-09
1.197586812e-11
3.838301687e-09
9.56274678e-12
3.638401839e-09
5.736658715e-12
3.079369541e-09
1.879568521e-12
2.144306807e-09
8.204601368e-10
3.657226362e-12
1.630224697e-09
-9.962428076e-13
7.088722897e-12
2.549548411e-09
1.016623714e-11
3.25688953e-09
1.187125281e-11
3.700212205e-09
1.158078749e-11
3.838592092e-09
9.262711058e-12
3.640719843e-09
5.566839611e-12
3.083065372e-09
1.828171839e-12
2.148045415e-09
8.222882278e-10
3.510339324e-12
1.627670089e-09
-9.55738345e-13
6.809998513e-12
2.546248727e-09
9.777727404e-12
3.253921761e-09
1.14330081e-11
3.698556819e-09
1.116999578e-11
3.838855019e-09
8.948568043e-12
3.642941145e-09
5.387545452e-12
3.086626306e-09
1.77321841e-12
2.151659606e-09
8.24061363e-10
3.362251406e-12
1.625222794e-09
-9.149694821e-13
6.528223293e-12
2.543082705e-09
9.383525157e-12
3.251066363e-09
1.098638873e-11
3.696953825e-09
1.074919625e-11
3.839092126e-09
8.624863118e-12
3.645065328e-09
5.201499799e-12
3.090049605e-09
1.715632277e-12
2.155145343e-09
8.257769452e-10
3.214441314e-12
1.622882665e-09
-8.743357222e-13
6.246293405e-12
2.540050784e-09
8.987847692e-12
3.248324713e-09
1.053634739e-11
3.695405234e-09
1.032323576e-11
3.839305188e-09
8.295517061e-12
3.647092943e-09
5.011058251e-12
3.093334045e-09
1.656200475e-12
2.158500122e-09
8.274331239e-10
3.068121521e-12
1.620648669e-09
-8.341614593e-13
5.966592816e-12
2.537152237e-09
8.594166726e-12
3.245697085e-09
1.008698981e-11
3.693912385e-09
9.896183514e-12
3.839495991e-09
7.963824116e-12
3.649025253e-09
4.818227346e-12
3.096479621e-09
1.595579549e-12
2.161722705e-09
8.290286767e-10
2.924270586e-12
1.618519067e-09
-7.947081824e-13
5.69104952e-12
2.53438537e-09
8.205291771e-12
3.243182816e-09
9.641667754e-12
3.692476012e-09
9.471394533e-12
3.839666263e-09
7.632510697e-12
3.650864084e-09
4.624704984e-12
3.099487365e-09
1.534338298e-12
2.164812958e-09
8.305629513e-10
2.783642082e-12
1.616491566e-09
-7.56185243e-13
5.421179584e-12
2.531747732e-09
7.823463494e-12
3.240780497e-09
9.203091567e-12
3.691096362e-09
9.051612982e-12
3.839817702e-09
7.303852569e-12
3.652611745e-09
4.431917785e-12
3.102359199e-09
1.472976411e-12
2.167771722e-09
8.320358178e-10
2.646802352e-12
1.614563461e-09
-7.187498024e-13
5.158150559e-12
2.529236306e-09
7.450443804e-12
3.238488165e-09
8.773437645e-12
3.689773312e-09
8.639078081e-12
3.839951983e-09
6.979746598e-12
3.654270947e-09
4.241052491e-12
3.105097773e-09
1.411912713e-12
2.170600652e-09
8.33447602e-10
2.514180443e-12
1.612731741e-09
-6.825041806e-13
4.902833939e-12
2.526847643e-09
7.087581582e-12
3.236303399e-09
8.354416771e-12
3.688506413e-09
8.235585011e-12
3.840070717e-09
6.66173343e-12
3.655844671e-09
4.053082878e-12
3.107706294e-09
1.351496017e-12
2.173302055e-09
8.347989971e-10
2.386087076e-12
1.610993153e-09
-6.475104353e-13
4.655848433e-12
2.524577928e-09
6.735865946e-12
3.234223386e-09
7.947321084e-12
3.687294912e-09
7.842531271e-12
3.840175413e-09
6.351024992e-12
3.657336057e-09
3.868814607e-12
3.110188379e-09
1.292020422e-12
2.175878739e-09
8.360909745e-10
2.262717651e-12
1.609344271e-09
-6.138175352e-13
4.417616149e-12
2.522423072e-09
6.39600215e-12
3.232244999e-09
7.553096804e-12
3.686137795e-09
7.460970491e-12
3.840267464e-09
6.048570568e-12
3.658748348e-09
3.688915134e-12
3.112547955e-09
1.233734833e-12
2.178333887e-09
8.373247103e-10
2.144179406e-12
1.607781582e-09
-5.81469761e-13
4.188423529e-12
2.520378835e-09
6.068487352e-12
3.230364916e-09
7.172420872e-12
3.685033849e-09
7.091678453e-12
3.840348158e-09
5.75511061e-12
3.660084837e-09
3.513899742e-12
3.114789155e-09
1.17683283e-12
2.180670963e-09
8.385015454e-10
2.030529375e-12
1.606301545e-09
-5.504890803e-13
3.968442611e-12
2.518440919e-09
5.753638366e-12
3.228579694e-09
6.805753346e-12
3.683981717e-09
6.735207634e-12
3.840418677e-09
5.471183434e-12
3.661348827e-09
3.344129897e-12
3.116916251e-09
1.121449547e-12
2.18289365e-09
8.396229702e-10
1.92178294e-12
1.604900626e-09
-5.20867611e-13
3.757720477e-12
2.516604992e-09
5.451591393e-12
3.226885804e-09
6.453356588e-12
3.682979922e-09
6.391912448e-12
3.840480104e-09
5.197140261e-12
3.662543593e-09
3.179847174e-12
3.1189336e-09
1.067682952e-12
2.185005813e-09
8.406906071e-10
1.817902989e-12
1.603575304e-09
-4.925826026e-13
3.556192965e-12
2.514866701e-09
5.1623227e-12
3.225279657e-09
6.115313472e-12
3.682026902e-09
6.061978572e-12
3.840533436e-09
4.933191718e-12
3.663672372e-09
3.02122619e-12
3.120845611e-09
1.015608558e-12
2.187011434e-09
8.417061732e-10
1.718802116e-12
1.602322106e-09
-4.656118023e-13
3.363732957e-12
2.513221726e-09
4.885709208e-12
3.223757654e-09
5.79157024e-12
3.681121041e-09
5.745442261e-12
3.840579597e-09
4.679449881e-12
3.664738349e-09
2.868394639e-12
3.122656701e-09
9.652879151e-13
2.188914554e-09
8.426714383e-10
1.624369148e-12
1.601137641e-09
-4.399285207e-13
3.180183569e-12
2.511665833e-09
4.62157645e-12
3.222316229e-09
5.481976695e-12
3.680260678e-09
5.442219417e-12
3.840619422e-09
4.435940624e-12
3.665744632e-09
2.721421097e-12
3.124371242e-09
9.167655927e-13
2.190719215e-09
8.435881929e-10
1.534486683e-12
1.600018614e-09
-4.154962413e-13
3.005351699e-12
2.51019489e-09
4.369696483e-12
3.220951862e-09
5.186308372e-12
3.679444113e-09
5.152149115e-12
3.840653644e-09
4.202597752e-12
3.66669422e-09
2.580305445e-12
3.125993533e-09
8.700599956e-13
2.192429444e-09
8.444582426e-10
1.449026172e-12
1.598961827e-09
-3.92276975e-13
2.838993859e-12
2.50880487e-09
4.129762111e-12
3.219661092e-09
4.904266521e-12
3.678669633e-09
4.875015962e-12
3.840682914e-09
3.979280206e-12
3.667589996e-09
2.44500945e-12
3.127527787e-09
8.25183464e-13
2.194049246e-09
8.452834142e-10
1.367839317e-12
1.597964186e-09
-3.702346996e-13
2.680825614e-12
2.507491862e-09
3.901392694e-12
3.218440535e-09
4.635475847e-12
3.677935543e-09
4.610536039e-12
3.840707835e-09
3.765790631e-12
3.668434738e-09
2.315426667e-12
3.128978143e-09
7.820127835e-13
2.195582655e-09
8.460654204e-10
1.290752747e-12
1.597022726e-09
-3.493209269e-13
2.530523474e-12
2.506252101e-09
3.684133411e-12
3.217286929e-09
4.379432229e-12
3.67724022e-09
4.358224254e-12
3.840729025e-09
3.561703256e-12
3.669231203e-09
2.191190138e-12
3.130348684e-09
7.409238836e-13
2.197032937e-09
8.468063507e-10
1.21759936e-12
1.596134592e-09
-3.294736707e-13
2.387777712e-12
2.505081953e-09
3.477592056e-12
3.216197102e-09
4.135731293e-12
3.676582049e-09
4.117740902e-12
3.840747023e-09
3.366864643e-12
3.669982018e-09
2.073348352e-12
3.131642262e-09
7.017412302e-13
2.198404564e-09
8.475081101e-10
1.14821322e-12
1.595297022e-09
-3.106343566e-13
2.252296744e-12
2.503977878e-09
3.281463284e-12
3.215167913e-09
3.904095226e-12
3.675959378e-09
3.88889256e-12
3.840762248e-09
3.182601839e-12
3.670688296e-09
1.961255032e-12
3.132863681e-09
6.640269915e-13
2.199701806e-09
8.481721551e-10
1.082494587e-12
1.59450733e-09
-2.927967163e-13
2.123856013e-12
2.502936473e-09
3.095396292e-12
3.214196358e-09
3.684078796e-12
3.675370661e-09
3.672740075e-12
3.840773607e-09
3.007405099e-12
3.671353666e-09
1.853625346e-12
3.134017512e-09
6.280095921e-13
2.200927432e-09
8.488001692e-10
1.020092167e-12
1.593763102e-09
-2.758812913e-13
2.001764522e-12
2.50195473e-09
2.919466387e-12
3.213278663e-09
3.477040044e-12
3.674813076e-09
3.467703351e-12
3.840782957e-09
2.839740666e-12
3.671981666e-09
1.751167991e-12
3.135106106e-09
5.936835524e-13
2.202084922e-09
8.493938368e-10
9.61623749e-13
1.593061498e-09
-2.600487689e-13
1.887729471e-12
2.501028589e-09
2.753279421e-12
3.212413134e-09
3.280270309e-12
3.674286103e-09
3.271459557e-12
3.840791776e-09
2.680230206e-12
3.672572886e-09
1.653620435e-12
3.13613272e-09
5.609520055e-13
2.203177583e-09
8.499547623e-10
9.061472756e-13
1.592400361e-09
-2.450219402e-13
1.779400659e-12
2.500155365e-09
2.594907195e-12
3.211597645e-09
3.091742539e-12
3.673789288e-09
3.08492898e-12
3.840798584e-09
2.528560523e-12
3.673129199e-09
1.560797176e-12
3.13710049e-09
5.297564384e-13
2.204208605e-09
8.504844949e-10
8.530890855e-13
1.591777936e-09
-2.306502514e-13
1.675326675e-12
2.499333176e-09
2.44444885e-12
3.210828523e-09
2.913619956e-12
3.673320113e-09
2.908341036e-12
3.840803833e-09
2.384787972e-12
3.67365269e-09
1.472699931e-12
3.1380126e-09
5.001129687e-13
2.205181173e-09
8.509845977e-10
8.032343001e-13
1.591191855e-09
-2.171377795e-13
1.577649283e-12
2.498558765e-09
2.302511888e-12
3.210103644e-09
2.745224548e-12
3.672877371e-09
2.74115826e-12
3.840807853e-09
2.2485357e-12
3.674145273e-09
1.389114683e-12
3.138872055e-09
4.719609663e-13
2.206098329e-09
8.514565545e-10
7.560886353e-13
1.590640116e-09
-2.043565642e-13
1.48529613e-12
2.497829504e-09
2.168270697e-12
3.209420641e-09
2.585903729e-12
3.672459703e-09
2.582896283e-12
3.840810824e-09
2.119455157e-12
3.674608697e-09
1.309859009e-12
3.139681685e-09
4.452434546e-13
2.206962957e-09
8.519017816e-10