/*--------------------------------*- C++ -*----------------------------------*\
| =========                 |                                                 |
| \\      /  F ield         | OpenFOAM: The Open Source CFD Toolbox           |
|  \\    /   O peration     | Version:  2212                                  |
|   \\  /    A nd           | Website:  www.openfoam.com                      |
|    \\/     M anipulation  |                                                 |
\*---------------------------------------------------------------------------*/
FoamFile
{
    version     2.0;
    format      ascii;
    arch        "LSB;label=32;scalar=64";
    class       surfaceScalarField;
    location    "23.25000000";
    object      phi_0;
}
// * * * * * * * * * * * * * * * * * * * * * * * * * * * * * * * * * * * * * //

dimensions      [1 0 -1 0 0 0 0];

oriented        oriented;

internalField   nonuniform List<scalar> 
5690
(
-5.454303267e-11
8.58232401e-10
1.324871254e-11
-1.338680884e-10
1.420988435e-09
-2.669489787e-10
1.983617375e-09
-4.767428009e-10
2.553721874e-09
-7.867296245e-10
3.132185706e-09
-1.194890643e-09
3.693863701e-09
-1.605628057e-09
4.145524235e-09
-1.624458579e-09
4.188619481e-09
2.966584904e-09
-1.156829456e-10
9.454235608e-10
2.849169546e-11
-2.667621308e-10
1.572067858e-09
-4.855638428e-10
2.202419003e-09
-7.663841317e-10
2.834542217e-09
-1.076449174e-09
3.442250911e-09
-1.327359938e-09
3.944774297e-09
-1.35831268e-09
4.176476412e-09
-9.148308347e-10
3.745137277e-09
2.051754239e-09
-1.515567628e-10
1.058779705e-09
3.820069651e-11
-3.348809114e-10
1.755391889e-09
-5.762524687e-10
2.443790556e-09
-8.444805937e-10
3.102769859e-09
-1.077180985e-09
3.674951415e-09
-1.177808246e-09
4.045401403e-09
-1.023170841e-09
4.021839005e-09
-5.494446568e-10
3.27141092e-09
1.502309389e-09
-1.4836883e-10
1.169070474e-09
3.807804663e-11
-3.176060797e-10
1.924629015e-09
-5.216570407e-10
2.647841685e-09
-7.183816209e-10
3.299494004e-09
-8.464059178e-10
3.802974811e-09
-8.319037194e-10
4.030899136e-09
-6.207197069e-10
3.810655243e-09
-2.731837101e-10
2.923874847e-09
1.229125509e-09
-1.315033329e-10
1.266331834e-09
3.424191174e-11
-2.74203824e-10
2.067329128e-09
-4.333422787e-10
2.806980226e-09
-5.671203022e-10
3.433272241e-09
-6.259843265e-10
3.861838615e-09
-5.676255518e-10
3.972539674e-09
-3.839623846e-10
3.626991755e-09
-1.47071006e-10
2.686983446e-09
1.082054186e-09
-1.070329021e-10
1.345082392e-09
2.828237823e-11
-2.181117678e-10
2.178407848e-09
-3.335668799e-10
2.922435189e-09
-4.183288568e-10
3.51803466e-09
-4.379534625e-10
3.881463501e-09
-3.730257815e-10
3.907611595e-09
-2.349100211e-10
3.488875943e-09
-8.192248881e-11
2.533996197e-09
1.000131352e-09
-8.36619907e-11
1.406397377e-09
2.234705539e-11
-1.673648822e-10
2.2621107e-09
-2.492708746e-10
3.004340839e-09
-3.02274892e-10
3.5710384e-09
-3.04009277e-10
3.883197715e-09
-2.472805051e-10
3.850882747e-09
-1.479133901e-10
3.389508655e-09
-4.783407596e-11
2.433916812e-09
9.522967571e-10
-6.330953719e-11
1.452617362e-09
1.708962013e-11
-1.246594572e-10
2.323460714e-09
-1.816436074e-10
3.061324926e-09
-2.144002857e-10
3.603794865e-09
-2.090603895e-10
3.877857775e-09
-1.644759659e-10
3.806298347e-09
-9.522894512e-11
3.320261226e-09
-2.97899241e-11
2.368477281e-09
9.225065978e-10
-4.711486278e-11
1.486917447e-09
1.281468613e-11
-9.162288485e-11
2.367968529e-09
-1.312241133e-10
3.100926053e-09
-1.517084602e-10
3.624279342e-09
-1.445695031e-10
3.870718972e-09
-1.110473394e-10
3.772776141e-09
-6.279087302e-11
3.272004349e-09
-1.901774852e-11
2.324703727e-09
9.034892689e-10
-3.466913011e-11
1.512091e-09
9.49538545e-12
-6.673249975e-11
2.400031781e-09
-9.428106474e-11
3.128474482e-09
-1.072875038e-10
3.637285703e-09
-1.005484365e-10
3.863979832e-09
-7.601387074e-11
3.748241513e-09
-4.244262425e-11
3.238433112e-09
-1.277523263e-11
2.29503603e-09
8.907142678e-10
-2.53867261e-11
1.530490913e-09
6.986687312e-12
-4.848814577e-11
2.423133481e-09
-6.78050978e-11
3.147791453e-09
-7.626929047e-11
3.645749867e-09
-7.064051506e-11
3.858351163e-09
-5.282461448e-11
3.730425805e-09
-2.922547233e-11
3.214834524e-09
-8.701161643e-12
2.274511516e-09
8.820129012e-10
-1.856084126e-11
1.543922365e-09
5.129384845e-12
-3.523849002e-11
2.439811072e-09
-4.890207453e-11
3.161454896e-09
-5.455425973e-11
3.651402095e-09
-5.013193074e-11
3.853929024e-09
-3.72496038e-11
3.717543349e-09
-2.05367884e-11
3.198121894e-09
-6.12715719e-12
2.260101819e-09
8.758854285e-10
-1.358781391e-11
1.553744936e-09
3.765203474e-12
-2.568727554e-11
2.451910434e-09
-3.545676772e-11
3.171224231e-09
-3.933398317e-11
3.655279155e-09
-3.596153528e-11
3.850556518e-09
-2.661425034e-11
3.708195524e-09
-1.463420203e-11
3.186141532e-09
-4.34970234e-12
2.249817172e-09
8.715351525e-10
-9.98079097e-12
1.560954106e-09
2.771515391e-12
-1.881114905e-11
2.460741034e-09
-2.587211604e-11
3.178285228e-09
-2.859998184e-11
3.658006814e-09
-2.607172406e-11
3.848028244e-09
-1.925934263e-11
3.701382933e-09
-1.058439001e-11
3.177466242e-09
-3.145271338e-12
2.242377781e-09
8.683893668e-10
-7.368668894e-12
1.56627425e-09
2.048493352e-12
-1.38625649e-11
2.46723483e-09
-1.902524633e-11
3.183447891e-09
-2.098993526e-11
3.659971437e-09
-1.910621928e-11
3.846144583e-09
-1.409982188e-11
3.69637644e-09
-7.738192475e-12
3.171104087e-09
-2.278859891e-12
2.236918313e-09
8.661106251e-10
-5.480821551e-12
1.570230424e-09
1.524659487e-12
-1.030171591e-11
2.472055577e-09
-1.41262589e-11
3.187272514e-09
-1.557777468e-11
3.661423064e-09
-1.418241848e-11
3.844749104e-09
-1.047626394e-11
3.692670048e-09
-5.760440532e-12
3.166387718e-09
-1.702975643e-12
2.232860711e-09
8.644079918e-10
-4.119773085e-12
1.573204208e-09
1.145997625e-12
-7.743916355e-12
2.475679919e-09
-1.062362954e-11
3.190152369e-09
-1.17273976e-11
3.662526894e-09
-1.069667997e-11
3.843718239e-09
-7.924270336e-12
3.689897756e-09
-4.377122e-12
3.162840569e-09
-1.309656617e-12
2.229793022e-09
8.63098343e-10
-3.14566533e-12
1.575475376e-09
8.745402935e-13
-5.919524723e-12
2.478453942e-09
-8.136189234e-12
3.192368843e-09
-9.005744551e-12
3.663396313e-09
-8.243566673e-12
3.842955902e-09
-6.132222963e-12
3.68778661e-09
-3.400453351e-12
3.160109185e-09
-1.016856751e-12
2.22740954e-09
8.620813285e-10
-2.458963149e-12
1.577251634e-09
6.827445923e-13
-4.63820123e-12
2.480633186e-09
-6.396804224e-12
3.194127165e-09
-7.110653264e-12
3.66411004e-09
-6.542177862e-12
3.842387122e-09
-4.900939336e-12
3.686145183e-09
-2.736592765e-12
3.157945077e-09
-8.182124376e-13
2.225491475e-09
8.612630046e-10
-1.992379266e-12
1.578692097e-09
5.51856917e-13
-3.774001005e-12
2.482414846e-09
-5.236566902e-12
3.195589668e-09
-5.865714475e-12
3.664739156e-09
-5.440304899e-12
3.841961564e-09
-4.098749578e-12
3.684803487e-09
-2.299689739e-12
3.156145933e-09
-6.827337128e-13
2.223874472e-09
8.605801734e-10
-1.703010319e-12
1.579925377e-09
4.696459211e-13
-3.249527049e-12
2.483961373e-09
-4.55730291e-12
3.196897383e-09
-5.176974915e-12
3.665358814e-09
-4.884437914e-12
3.841669124e-09
-3.731895427e-12
3.683650923e-09
-2.109109384e-12
3.154522892e-09
-6.217707387e-13
2.222386986e-09
8.599583802e-10
-1.550531754e-12
1.581050429e-09
4.254746426e-13
-2.983390164e-12
2.485394113e-09
-4.232216768e-12
3.198146092e-09
-4.874217352e-12
3.666000813e-09
-4.671035429e-12
3.841465862e-09
-3.642973421e-12
3.682622618e-09
-2.104317798e-12
3.152984058e-09
-6.312423162e-13
2.220914043e-09
8.593271067e-10
-1.516592909e-12
1.582153091e-09
4.139312926e-13
-2.944013808e-12
2.486821532e-09
-4.226722945e-12
3.199428667e-09
-4.937208673e-12
3.6667112e-09
-4.80660672e-12
3.84133502e-09
-3.820618132e-12
3.681636489e-09
-2.257973148e-12
3.151421444e-09
-6.933172634e-13
2.219349466e-09
8.586335792e-10
-1.590077853e-12
1.583311441e-09
4.317199804e-13
-3.113470543e-12
2.488345203e-09
-4.523739966e-12
3.200838665e-09
-5.360735246e-12
3.667548017e-09
-5.303754944e-12
3.841277994e-09
-4.282895503e-12
3.68061583e-09
-2.568849809e-12
3.149707435e-09
-7.999478583e-13
2.217580332e-09
8.578332959e-10
-1.761559144e-12
1.584596825e-09
4.761955138e-13
-3.474044238e-12
2.490058002e-09
-5.096563493e-12
3.202460887e-09
-6.108661792e-12
3.668560075e-09
-6.120030247e-12
3.841289439e-09
-5.007382894e-12
3.679503335e-09
-3.045158546e-12
3.147745114e-09
-9.658123997e-13
2.215500758e-09
8.568671698e-10
-2.025835976e-12
1.586076868e-09
5.457795046e-13
-4.016371403e-12
2.492048702e-09
-5.933104792e-12
3.204377491e-09
-7.16917116e-12
3.669796261e-09
-7.246678962e-12
3.841366944e-09
-5.98557748e-12
3.678242186e-09
-3.677850221e-12
3.145437216e-09
-1.184978817e-12
2.213007793e-09
8.556819563e-10
-2.377603518e-12
1.587815385e-09
6.390101224e-13
-4.729725851e-12
2.494400883e-09
-7.017678184e-12
3.206665371e-09
-8.523050561e-12
3.671301738e-09
-8.663498759e-12
3.841507391e-09
-7.20007157e-12
3.676778721e-09
-4.456134856e-12
3.142693031e-09
-1.454702292e-12
2.210006164e-09
8.542271227e-10
-2.811412793e-12
1.589872211e-09
7.545063904e-13
-5.602922301e-12
2.497192438e-09
-8.332955093e-12
3.209395288e-09
-1.014775166e-11
3.673116585e-09
-1.034545034e-11
3.841705132e-09
-8.627365817e-12
3.675060665e-09
-5.3630172e-12
3.139428402e-09
-1.768104591e-12
2.206410914e-09
8.524589233e-10
-3.319760564e-12
1.592301585e-09
8.903314282e-13
-6.620281358e-12
2.500492956e-09
-9.8537091e-12
3.212628633e-09
-1.200967877e-11
3.675272578e-09
-1.225474463e-11
3.841950187e-09
-1.023240025e-11
3.673038363e-09
-6.374145607e-12
3.135570016e-09
-2.116166406e-12
2.20215265e-09
8.503425785e-10
-3.892468885e-12
1.5951502e-09
1.04379716e-12
-7.760245533e-12
2.504360687e-09
-1.154537464e-11
3.216413779e-09
-1.406282458e-11
3.67779003e-09
-1.433963745e-11
3.842226924e-09
-1.196740283e-11
3.670666111e-09
-7.456656824e-12
3.13105927e-09
-2.486639748e-12
2.197182524e-09
8.478557105e-10
-4.515751048e-12
1.598454577e-09
1.21131701e-12
-8.993777065e-12
2.508838738e-09
-1.33618456e-11
3.220781921e-09
-1.624648249e-11
3.680674692e-09
-1.653293679e-11
3.842513305e-09
-1.377151385e-11
3.66790451e-09
-8.569564032e-12
3.125857246e-09
-2.864590355e-12
2.191477638e-09
8.44990997e-10
-5.171767367e-12
1.602238055e-09
1.388293789e-12
-1.028388923e-11
2.513950881e-09
-1.524496529e-11
3.225743023e-09
-1.848541745e-11
3.683915183e-09
-1.875311094e-11
3.842780972e-09
-1.557242144e-11
3.664723568e-09
-9.665060639e-12
3.119949689e-09
-3.232781159e-12
2.185045538e-09
8.417582273e-10
-5.83871516e-12
1.606507818e-09
1.568986198e-12
-1.158567145e-11
2.519697706e-09
-1.712514165e-11
3.231282466e-09
-2.069142585e-11
3.68748145e-09
-2.090682739e-11
3.842996401e-09
-1.728956366e-11
3.661106204e-09
-1.069138848e-11
3.113351303e-09
-3.573053314e-12
2.177927244e-09
8.381852019e-10
-6.49118428e-12
1.611252378e-09
1.746588686e-12
-1.284723568e-11
2.526053648e-09
-1.892357092e-11
3.23735881e-09
-2.276677912e-11
3.691324557e-09
-2.289342653e-11
3.843123042e-09
-1.883885412e-11
3.657051725e-09
-1.159641781e-11
3.106108738e-09
-3.867653046e-12
2.170198279e-09
8.34317498e-10
-7.100797595e-12
1.616439542e-09
1.913598078e-12
-1.401184913e-11
2.53296475e-09
-2.055585951e-11
3.24390282e-09
-2.460944855e-11
3.695377981e-09
-2.461105022e-11
3.843124493e-09
-2.013831944e-11
3.652579122e-09
-1.233144332e-11
3.098301879e-09
-4.100653204e-12
2.161967219e-09
8.302167278e-10
-7.637647625e-12
1.622015174e-09
2.062064627e-12
-1.502087173e-11
2.540347917e-09
-2.193670242e-11
3.250818557e-09
-2.611956902e-11
3.69956073e-09
-2.596375676e-11
3.842968485e-09
-2.111414157e-11
3.647729563e-09
-1.285487492e-11
3.090042725e-09
-4.259253565e-12
2.153371434e-09
8.259573388e-10
-8.072124516e-12
1.627903478e-09
2.183815892e-12
-1.581703871e-11
2.548092558e-09
-2.298537102e-11
3.257986795e-09
-2.720654264e-11
3.703781994e-09
-2.686895298e-11
3.842630877e-09
-2.170665871e-11
3.642567257e-09
-1.313557443e-11
3.081471696e-09
-4.334732061e-12
2.144570553e-09
8.216224756e-10
-8.376660238e-12
1.634008866e-09
2.271138803e-12
-1.634844917e-11
2.556064203e-09
-2.363183297e-11
3.265270184e-09
-2.779621444e-11
3.707946634e-09
-2.726419783e-11
3.842099006e-09
-2.187532408e-11
3.637178307e-09
-1.315526385e-11
3.072751581e-09
-4.322950006e-12
2.135738338e-09
8.172994292e-10
-8.527815224e-12
1.640219037e-09
2.317565392e-12
-1.657306662e-11
2.564109611e-09
-2.382273483e-11
3.272519867e-09
-2.783714845e-11
3.711961205e-09
-2.711221636e-11
3.841374142e-09
-2.160162262e-11
3.631667586e-09
-1.290958366e-11
3.064059415e-09
-4.224485682e-12
2.127053442e-09
8.130749395e-10
-8.508561104e-12
1.646409433e-09
2.31822452e-12
-1.646249336e-11
2.572063752e-09
-2.352616279e-11
3.279583449e-09
-2.730506917e-11
3.715740032e-09
-2.640368907e-11
3.840472673e-09
-2.088995031e-11
3.626153746e-09
-1.240778655e-11
3.055577066e-09
-4.044223829e-12
2.118689977e-09
8.09030781e-10
-8.309906546e-12
1.652449242e-09
2.270140097e-12
-1.600445609e-11
2.579758367e-09
-2.273458675e-11
3.286313423e-09
-2.620499636e-11
3.71921024e-09
-2.515778691e-11
3.839425311e-09
-1.976664653e-11
3.620762623e-09
-1.167133611e-11
3.047481596e-09
-3.790572856e-12
2.110809087e-09
8.052402048e-10
-7.931773155e-12
1.658208207e-09
2.172753616e-12
-1.520425503e-11
2.587030823e-09
-2.146583101e-11
3.292574873e-09
-2.457081919e-11
3.722315055e-09
-2.342007224e-11
3.838274376e-09
-1.82770044e-11
3.615619648e-09
-1.073155016e-11
3.039936143e-09
-3.474674986e-12
2.103552019e-09
8.017653904e-10
-7.383385319e-12
1.663563327e-09
2.028197561e-12
-1.408490296e-11
2.59373232e-09
-1.976187445e-11
3.298251801e-09
-2.246224034e-11
3.725015359e-09
-2.125796045e-11
3.837069899e-09
-1.648064689e-11
3.610842365e-09
-9.626545527e-12
3.033082136e-09
-3.109625683e-12
2.097035002e-09
7.986556039e-10
-6.682866813e-12
1.668405067e-09
1.841110555e-12
-1.268551736e-11
2.599734998e-09
-1.768539792e-11
3.303251673e-09
-1.995950161e-11
3.727289528e-09
-1.875472814e-11
3.835865052e-09
-1.444631296e-11
3.606533882e-09
-8.397832932e-12
3.027033656e-09
-2.709369085e-12
2.091346501e-09
7.959461833e-10
-5.855764794e-12
1.672642642e-09
1.618217588e-12
-1.105806647e-11
2.604937345e-09
-1.531436465e-11
3.307507938e-09
-1.715645723e-11
3.729131734e-09
-1.600274569e-11
3.834711425e-09
-1.224686297e-11
3.602777934e-09
-7.087981469e-12
3.021874685e-09
-2.28977716e-12
2.086548297e-09
7.936564288e-10
-4.932985312e-12
1.676207858e-09
1.367797702e-12
-9.263220584e-12
2.609267524e-09
-1.273596223e-11
3.310980666e-09
-1.415362363e-11
3.730549467e-09
-1.309717466e-11
3.833655074e-09
-9.954885887e-12
3.599635651e-09
-5.738000063e-12
3.017657766e-09
-1.866828313e-12
2.082677202e-09
7.91789565e-10
-3.948269659e-12
1.679057069e-09
1.099028746e-12
-7.365277904e-12
2.612684358e-09
-1.003965578e-11
3.313655119e-09
-1.105037078e-11
3.731560201e-09
-1.012841117e-11
3.832733117e-09
-7.635825439e-12
3.597143114e-09
-4.383948648e-12
3.014405899e-09
-1.431898405e-12
2.079725203e-09
7.903575385e-10
-2.935757594e-12
1.681171352e-09
8.214030379e-13
-5.427807636e-12
2.615176272e-09
-7.311667825e-12
3.3155391e-09
-7.939957629e-12
3.732188489e-09
-7.179312759e-12
3.831972407e-09
-5.34996293e-12
3.595313808e-09
-3.058808854e-12
3.012114673e-09
-1.005547478e-12
2.07767183e-09
7.89351871e-10
-1.92752552e-12
1.682554832e-09
5.440214123e-13
-3.509485833e-12
2.616758184e-09
-4.629462762e-12
3.316659122e-09
-4.903814499e-12
3.732462824e-09
-4.3196865e-12
3.831388196e-09
-3.145726602e-12
3.594139857e-09
-1.779517806e-12
3.010748338e-09
-6.001276398e-13
2.07649226e-09
7.887517158e-10
-9.520232073e-13
1.683231898e-09
2.749905843e-13
-1.661360722e-12
2.61746742e-09
-2.058504776e-12
3.317056217e-09
-2.008682588e-12
3.732413001e-09
-1.604624867e-12
3.830984071e-09
-1.063575029e-12
3.59359881e-09
-5.474221042e-13
3.010232159e-09
-2.182136622e-13
2.076163016e-09
7.885335013e-10
-3.261245108e-14
1.683243575e-09
2.093439174e-14
7.530429441e-14
2.617359299e-09
3.480559197e-13
3.316783405e-09
6.900478322e-13
3.732071065e-09
9.151907001e-13
3.830758937e-09
8.634181073e-13
3.593650614e-09
5.611034196e-13
3.01053455e-09
1.342799923e-13
2.076589928e-09
7.88667699e-10
8.123178864e-13
1.682644079e-09
-2.128898032e-13
1.667788733e-12
2.616503674e-09
2.548933171e-12
3.315902264e-09
3.151969605e-12
3.731468121e-09
3.207951024e-12
3.830703025e-09
2.618546927e-12
3.594240044e-09
1.544662234e-12
3.011608429e-09
4.55281883e-13
2.077679296e-09
7.891228268e-10
1.569566124e-12
1.681497173e-09
-4.227293387e-13
3.093007563e-12
2.614980214e-09
4.516434674e-12
3.314478907e-09
5.351834675e-12
3.730632779e-09
5.258586007e-12
3.830796295e-09
4.187703182e-12
3.595310873e-09
2.448319155e-12
3.013347629e-09
7.449561433e-13
2.079382433e-09
7.898676637e-10
2.232253542e-12
1.679871327e-09
-6.064315591e-13
4.339942923e-12
2.612872562e-09
6.23814745e-12
3.312580794e-09
7.278489771e-12
3.72959241e-09
7.057816562e-12
3.831016869e-09
5.568107951e-12
3.596800456e-09
3.251739796e-12
3.01566376e-09
1.001837112e-12
2.081632037e-09
7.90869476e-10
2.798344447e-12
1.677836289e-09
-7.632969368e-13
5.405990873e-12
2.610264923e-09
7.712184035e-12
3.310274636e-09
8.931509014e-12
3.728372998e-09
8.605944641e-12
3.83134226e-09
6.76014762e-12
3.598646128e-09
3.94808531e-12
3.018475699e-09
1.225387936e-12
2.084354574e-09
7.92094891e-10
3.269755715e-12
1.675460345e-09
-8.937812734e-13
6.29540412e-12
2.607239224e-09
8.945210615e-12
3.307624761e-09
1.031901385e-11
3.726999106e-09
9.910785717e-12
3.831750325e-09
7.769730872e-12
3.600787089e-09
4.540557412e-12
3.021704876e-09
1.41590468e-12
2.087479259e-09
7.935108044e-10
3.651235836e-12
1.672808311e-09
-9.991817746e-13
7.017296217e-12
2.603873046e-09
9.949983848e-12
3.304691933e-09
1.145520963e-11
3.725493819e-09
1.098539916e-11
3.832220017e-09
8.606706059e-12
3.6031657e-09
5.035244334e-12
3.025276361e-09
1.579761956e-12
2.090934841e-09
7.950905279e-10
3.949470851e-12
1.669940212e-09
-1.081411868e-12
7.584090347e-12
2.600238301e-09
1.07432859e-11
3.301532612e-09
1.235822421e-11
3.723878831e-09
1.184595875e-11
3.832732201e-09
9.282729204e-12
3.605728865e-09
5.438618389e-12
3.029120438e-09
1.717136983e-12
2.094656334e-09
7.968075904e-10
4.172321295e-12
1.666910505e-09
-1.142703244e-12
8.010172559e-12
2.596400427e-09
1.134426257e-11
3.298198468e-09
1.304856651e-11
3.722174471e-09
1.251059719e-11
3.833270108e-09
9.810692079e-12
3.608428751e-09
5.757456601e-12
3.033173595e-09
1.825608229e-12
2.098588071e-09
7.986331181e-10
4.328158412e-12
1.663767659e-09
-1.185365169e-12
8.310763497e-12
2.592417918e-09
1.177315032e-11
3.294736094e-09
1.354794841e-11
3.720399629e-09
1.299862557e-11
3.833819382e-09
1.020463061e-11
3.611222766e-09
5.999547601e-12
3.037378605e-09
1.909298499e-12
2.102678193e-09
8.005423715e-10
4.425330088e-12
1.660554064e-09
-1.211702268e-12
8.501103355e-12
2.588342232e-09
1.205025165e-11
3.291186984e-09
1.387812421e-11
3.71857176e-09
1.332935417e-11
3.83436812e-09
1.047854441e-11
3.614073603e-09
6.172575578e-12
3.041684545e-09
1.971108704e-12
2.106879638e-09
8.025134982e-10
4.471879485e-12
1.657306238e-09
-1.223991076e-12
8.596019743e-12
2.584218075e-09
1.219534226e-11
3.287587697e-09
1.406027247e-11
3.716706891e-09
1.3521615e-11
3.834906768e-09
1.064614133e-11
3.616949114e-09
6.284026063e-12
3.046046691e-09
2.013334538e-12
2.111150424e-09
8.045268864e-10
4.475420999e-12
1.654055248e-09
-1.224406268e-12
8.609574885e-12
2.58008383e-09
1.222719426e-11
3.2839701e-09
1.411455094e-11
3.714819615e-09
1.359341355e-11
3.835427921e-09
1.072059238e-11
3.619822005e-09
6.341131208e-12
3.050426227e-09
2.038106044e-12
2.115453549e-09
8.065650103e-10
4.443013337e-12
1.650827147e-09
-1.214934654e-12
8.554747885e-12
2.575971992e-09
1.216321512e-11
3.280361637e-09
1.405979242e-11
3.712923116e-09
1.356166674e-11
3.835926089e-09
1.071431001e-11
3.622669456e-09
6.350716485e-12
3.054789888e-09
2.047439408e-12
2.119756816e-09
8.086123899e-10
4.381020844e-12
1.647643437e-09
-1.197350217e-12
8.443272318e-12
2.571909655e-09
1.201926415e-11
3.276785649e-09
1.391328745e-11
3.711029169e-09
1.344200598e-11
3.836397419e-09
1.063882494e-11
3.625472701e-09
6.319155179e-12
3.059109558e-09
2.043264756e-12
2.124032583e-09
8.106555467e-10
4.295070561e-12
1.644521553e-09
-1.173225825e-12
8.285628228e-12
2.567919075e-09
1.180959214e-11
3.273261724e-09
1.369067146e-11
3.70914817e-09
1.324867644e-11
3.836839434e-09
1.050475137e-11
3.628216606e-09
6.25239702e-12
3.063361837e-09
2.027419648e-12
2.128257425e-09
8.126828854e-10
4.190106606e-12
1.641475359e-09
-1.143931468e-12
8.091063105e-12
2.564018208e-09
1.154683471e-11
3.26980603e-09
1.340590944e-11
3.707289159e-09
1.299452732e-11
3.837250784e-09
1.032179513e-11
3.63088924e-09
6.155969545e-12
3.067527542e-09
2.001620035e-12
2.132411714e-09
8.146845054e-10
4.070433692e-12
1.638515588e-09
-1.110636225e-12
7.867614962e-12
2.560221176e-09
1.124207485e-11
3.266431627e-09
1.307136785e-11
3.705459876e-09
1.269105573e-11
3.837631017e-09
1.009873373e-11
3.63348145e-09
6.034934306e-12
3.071591235e-09
1.967445938e-12
2.136479218e-09
8.166520217e-10
3.939730307e-12
1.635650265e-09
-1.07434948e-12
7.622219897e-12
2.556538761e-09
1.090498192e-11
3.263148846e-09
1.269794171e-11
3.703666858e-09
1.234846977e-11
3.837980384e-09
9.843396643e-12
3.635986468e-09
5.893822299e-12
3.075540778e-09
1.926336396e-12
2.140446765e-09
8.185784355e-10
3.801109487e-12
1.632885151e-09
-1.03596267e-12
7.360867855e-12
2.552978955e-09
1.054395056e-11
3.259965691e-09
1.229515321e-11
3.701915575e-09
1.197575413e-11
3.838299687e-09
9.562696668e-12
3.638399543e-09
5.736629147e-12
3.079366914e-09
1.879568538e-12
2.144303924e-09
8.204580273e-10
3.657223975e-12
1.630224138e-09
-9.962346418e-13
7.08869489e-12
2.549547413e-09
1.016617218e-11
3.256888159e-09
1.187120157e-11
3.700210513e-09
1.158071385e-11
3.838590128e-09
9.262698753e-12
3.640717621e-09
5.566870662e-12
3.08306286e-09
1.828247302e-12
2.148042661e-09
8.222862292e-10
3.510321918e-12
1.62766954e-09
-9.557619491e-13
6.80999459e-12
2.546247762e-09
9.777698083e-12
3.253920451e-09
1.143303581e-11
3.698555221e-09
1.117002462e-11
3.83885317e-09
8.948662318e-12
3.642939058e-09
5.387642372e-12
3.086623953e-09
1.77334089e-12
2.151657017e-09
8.240594858e-10
3.362247577e-12
1.625222304e-09
-9.150063604e-13
6.528266499e-12
2.543081841e-09
9.383562128e-12
3.251065182e-09
1.098650212e-11
3.696952376e-09
1.074933699e-11
3.839090428e-09
8.625081377e-12
3.64506338e-09
5.201644947e-12
3.090047363e-09
1.715733503e-12
2.155142852e-09
8.257751363e-10
3.214469233e-12
1.62288224e-09
-8.743627473e-13
6.246368065e-12
2.540050019e-09
8.987941308e-12
3.248323651e-09
1.05365102e-11
3.69540391e-09
1.032342797e-11
3.839303608e-09
8.295771192e-12
3.64709108e-09
5.011204124e-12
3.093331836e-09
1.656240824e-12
2.158497639e-09
8.274313211e-10
3.06816632e-12
1.620648284e-09
-8.341815442e-13
5.96667128e-12
2.537151531e-09
8.594284151e-12
3.245696098e-09
1.008715115e-11
3.693911135e-09
9.896335328e-12
3.839494474e-09
7.963992177e-12
3.649023434e-09
4.818315623e-12
3.096477432e-09
1.595580318e-12
2.161720226e-09
8.290268842e-10
2.924305508e-12
1.618518711e-09
-7.947350992e-13
5.691119708e-12
2.534384714e-09
8.205392716e-12
3.243181892e-09
9.641781823e-12
3.692474822e-09
9.47144904e-12
3.839664802e-09
7.632543814e-12
3.650862331e-09
4.624703795e-12
3.099485268e-09
1.534340795e-12
2.16481059e-09
8.305612563e-10
2.783658357e-12
1.616491252e-09
-7.562081765e-13
5.421230545e-12
2.531747148e-09
7.823503496e-12
3.240779655e-09
9.203126165e-12
3.691095254e-09
9.05157546e-12
3.839816336e-09
7.303794565e-12
3.652610121e-09
4.431850709e-12
3.102357285e-09
1.472995623e-12
2.167769587e-09
8.320343307e-10
2.646803077e-12
1.614563189e-09
-7.187398957e-13
5.158151211e-12
2.529235788e-09
7.450390141e-12
3.238487398e-09
8.773384458e-12
3.689772302e-09
8.638990581e-12
3.839950746e-09
6.979677027e-12
3.654269497e-09
4.240987569e-12
3.105096083e-09
1.411951219e-12
2.170598797e-09
8.334463687e-10
2.514160519e-12
1.612731475e-09
-6.824574704e-13
4.902764495e-12
2.526847136e-09
7.087447834e-12
3.236302669e-09
8.354304379e-12
3.688505488e-09
8.235496074e-12
3.840069616e-09
6.661706447e-12
3.655843394e-09
4.053088086e-12
3.107704806e-09
1.351561671e-12
2.173300427e-09
8.347979618e-10
2.386040594e-12
1.610992862e-09
-6.474594941e-13
4.655747472e-12
2.524577393e-09
6.73572347e-12
3.234222662e-09
7.947213949e-12
3.687294044e-09
7.842476722e-12
3.840174413e-09
6.351055061e-12
3.657334909e-09
3.868898592e-12
3.110187027e-09
1.292112492e-12
2.175877228e-09
8.360900213e-10
2.262660237e-12
1.609343964e-09
-6.137907991e-13
4.417559509e-12
2.522422525e-09
6.395931664e-12
3.232244281e-09
7.553057656e-12
3.68613695e-09
7.460973027e-12
3.840266505e-09
6.048646535e-12
3.658747249e-09
3.689017092e-12
3.112546644e-09
1.233816386e-12
2.178332387e-09
8.373237411e-10
2.144140267e-12
1.607781284e-09
-5.814614814e-13
4.18844923e-12
2.520378309e-09
6.068512121e-12
3.230364211e-09
7.17247172e-12
3.685033e-09
7.091746243e-12
3.84034718e-09
5.75520991e-12
3.660083709e-09
3.513954803e-12
3.114787801e-09
1.176852469e-12
2.180669408e-09
8.385005228e-10
2.030522097e-12
1.606301263e-09
-5.504813486e-13
3.968525685e-12
2.518440409e-09
5.753724876e-12
3.228578994e-09
6.805870978e-12
3.683980852e-09
6.735324954e-12
3.840417658e-09
5.471286618e-12
3.661347632e-09
3.344130462e-12
3.116914815e-09
1.121396907e-12
2.182892025e-09
8.396219013e-10
1.921798026e-12
1.604900344e-09
-5.208620486e-13
3.757827704e-12
2.516604476e-09
5.451706768e-12
3.226885098e-09
6.453503578e-12
3.682979051e-09
6.392045374e-12
3.840479064e-09
5.197233588e-12
3.662542352e-09
3.179833627e-12
3.118932102e-09
1.067601634e-12
2.185004132e-09
8.40689507e-10
1.817929667e-12
1.603575021e-09
-4.925915079e-13
3.556325617e-12
2.514866184e-09
5.162468612e-12
3.225278955e-09
6.115467014e-12
3.682026039e-09
6.062086813e-12
3.840532398e-09
4.933261443e-12
3.663671121e-09
3.021226348e-12
3.120844094e-09
1.015552415e-12
2.187009725e-09
8.417050499e-10
1.718841925e-12
1.602321838e-09
-4.656304956e-13
3.363897552e-12
2.513221234e-09
4.885888505e-12
3.223756967e-09
5.791716993e-12
3.681120178e-09
5.745503592e-12
3.840578552e-09
4.679485926e-12
3.664737095e-09
2.868398787e-12
3.122655182e-09
9.652703206e-13
2.188912834e-09
8.426702969e-10
1.624422533e-12
1.601137392e-09
-4.39939172e-13
3.180350034e-12
2.511665364e-09
4.621753819e-12
3.222315547e-09
5.482100469e-12
3.680259792e-09
5.442245963e-12
3.840618342e-09
4.435947735e-12
3.665743355e-09
2.721415377e-12
3.124369709e-09
9.167630953e-13
2.190717485e-09
8.435870403e-10
1.534540731e-12
1.600018363e-09
-4.154951906e-13
3.00547431e-12
2.510194412e-09
4.369820816e-12
3.220951162e-09
5.186396775e-12
3.679443195e-09
5.152170612e-12
3.840652529e-09
4.202599997e-12
3.666692912e-09
2.580304204e-12
3.125991979e-09
8.700575586e-13
2.192427701e-09
8.444570805e-10
1.449064246e-12
1.598961558e-09
-3.922759136e-13
2.83906256e-12
2.508804361e-09
4.129819342e-12
3.219660364e-09
4.904324407e-12
3.678668698e-09
4.875051267e-12
3.840681789e-09
3.979308126e-12
3.667588673e-09
2.445036034e-12
3.127526223e-09
8.251893289e-13
2.19404749e-09
8.4528224e-10
1.367856484e-12
1.597963906e-09
-3.702332477e-13
2.680865514e-12
2.507491334e-09
3.901411898e-12
3.218439789e-09
4.635523923e-12
3.677934602e-09
4.610583749e-12
3.840706713e-09
3.765859454e-12
3.668433414e-09
2.315482103e-12
3.128976576e-09
7.820358267e-13
2.195580883e-09
8.460642282e-10
1.290755709e-12
1.59702244e-09
-3.493015742e-13
2.530548216e-12
2.506251564e-09
3.684146184e-12
3.217286162e-09
4.379491732e-12
3.677239256e-09
4.358276968e-12
3.840727882e-09
3.561812071e-12
3.66922986e-09
2.191253786e-12
3.130347089e-09
7.409580789e-13
2.197031128e-09
8.468051235e-10
1.217595291e-12
1.596134282e-09
-3.294339696e-13
2.387779763e-12
2.505081378e-09
3.47760891e-12
3.216196288e-09
4.135814559e-12
3.676581027e-09
4.117811284e-12
3.840745816e-09
3.366999518e-12
3.669980613e-09
2.073408771e-12
3.13164059e-09
7.017720569e-13
2.198402671e-09
8.475068099e-10
1.148207708e-12
1.595296667e-09
-3.106049408e-13
2.252287218e-12
2.503977234e-09
3.281492946e-12
3.21516703e-09
3.904212529e-12
3.675958285e-09
3.889001969e-12
3.840760958e-09
3.182743916e-12
3.670686797e-09
1.961315093e-12
3.132861891e-09
6.64046517e-13
2.19969978e-09
8.481707345e-10
1.08249749e-12
1.594506938e-09
-2.928090851e-13
2.123879879e-12
2.502935775e-09
3.095460504e-12
3.214195422e-09
3.684232741e-12
3.675369509e-09
3.672888959e-12
3.840772238e-09
3.007536015e-12
3.671352061e-09
1.853680879e-12
3.134015596e-09
6.28015022e-13
2.200925252e-09
8.487986049e-10
1.020113006e-12
1.593762712e-09
-2.759245315e-13
2.001853378e-12
2.501954028e-09
2.919575445e-12
3.213277706e-09
3.4772098e-12
3.674811882e-09
3.467862181e-12
3.840781514e-09
2.839851822e-12
3.671979954e-09
1.751204482e-12
3.135104072e-09
5.93666086e-13
2.202082606e-09
8.49392148e-10
9.616592777e-13
1.593061132e-09
-2.600773299e-13
1.887853545e-12
2.50102791e-09
2.753404917e-12
3.212412163e-09
3.280415038e-12
3.67428486e-09
3.271588907e-12
3.840790255e-09
2.680331792e-12
3.672571073e-09
1.653634249e-12
3.136130579e-09
5.609075983e-13
2.203175157e-09
8.499529843e-10
9.061809376e-13
1.592399996e-09
-2.450078073e-13
1.779491325e-12
2.500154673e-09
2.59500061e-12
3.211596631e-09
3.091831972e-12
3.673787975e-09
3.085014781e-12
3.840796982e-09
2.528664746e-12
3.6731273e-09
1.560810219e-12
3.13709825e-09
5.29697243e-13
2.204206079e-09
8.504826447e-10
8.531064312e-13
1.59177753e-09
-2.306126268e-13
1.675347677e-12
2.499332416e-09
2.444489166e-12
3.210827433e-09
2.913665288e-12
3.67331872e-09
2.908400945e-12
3.840802158e-09
2.384892775e-12
3.673650722e-09
1.472732222e-12
3.138010274e-09
5.000677416e-13
2.205178548e-09
8.509826651e-10
8.032352616e-13
1.591191393e-09
-2.17115468e-13
1.577631972e-12
2.498557922e-09
2.302524205e-12
3.210102478e-09
2.745268795e-12
3.67287591e-09
2.741220402e-12
3.84080612e-09
2.24862644e-12
3.674143247e-09
1.389159767e-12
3.138869659e-09
4.719434428e-13
2.206095609e-09
8.514545323e-10
7.560829459e-13
1.590639623e-09
-2.043617296e-13
1.485301601e-12
2.497828614e-09
2.168299164e-12
3.209419428e-09
2.585980978e-12
3.672458201e-09
2.582975194e-12
3.840809044e-09
2.119524921e-12
3.674606615e-09
1.309889379e-12
3.139679231e-09
4.452424046e-13
2.206960166e-09