/*--------------------------------*- C++ -*----------------------------------*\
| =========                 |                                                 |
| \\      /  F ield         | OpenFOAM: The Open Source CFD Toolbox           |
|  \\    /   O peration     | Version:  2212                                  |
|   \\  /    A nd           | Website:  www.openfoam.com                      |
|    \\/     M anipulation  |                                                 |
\*---------------------------------------------------------------------------*/
FoamFile
{
    version     2.0;
    format      ascii;
    arch        "LSB;label=32;scalar=64";
    class       volScalarField;
    location    "23.25000000";
    object      Qdot;
}
// * * * * * * * * * * * * * * * * * * * * * * * * * * * * * * * * * * * * * //

dimensions      [1 -1 -3 0 0 0 0];

internalField   nonuniform List<scalar> 
3000
(
-1.142253715e-15
-1.140188098e-15
-1.136466757e-15
-1.130074603e-15
-1.118956339e-15
-1.098843183e-15
-1.060556166e-15
-9.839371727e-16
-8.249688363e-16
-1.12317204e-15
-1.117419711e-15
-1.107454366e-15
-1.091423867e-15
-1.066276674e-15
-1.027289811e-15
-9.67698218e-16
-8.794095174e-16
-7.576357165e-16
-1.106913919e-15
-1.099264904e-15
-1.08653549e-15
-1.067256517e-15
-1.039433235e-15
-1.000771896e-15
-9.492798021e-16
-8.844108496e-16
-8.081611831e-16
-1.101792482e-15
-1.095924132e-15
-1.086654487e-15
-1.073660066e-15
-1.056754925e-15
-1.036115736e-15
-1.01224691e-15
-9.848767479e-16
-9.484834903e-16
-1.117888835e-15
-1.119375543e-15
-1.122561066e-15
-1.12881986e-15
-1.140113542e-15
-1.158531475e-15
-1.184457763e-15
-1.211955583e-15
-1.220001709e-15
-1.16972451e-15
-1.187118899e-15
-1.216516936e-15
-1.261806245e-15
-1.327681196e-15
-1.417621028e-15
-1.528865709e-15
-1.642995453e-15
-1.714185223e-15
-1.280853704e-15
-1.328071555e-15
-1.406270518e-15
-1.523393166e-15
-1.688090419e-15
-1.904711542e-15
-2.16297412e-15
-2.421655682e-15
-2.597302392e-15
-1.491222225e-15
-1.591787736e-15
-1.757274967e-15
-2.002558617e-15
-2.342575927e-15
-2.781901154e-15
-3.295556605e-15
-3.80206331e-15
-4.151798286e-15
-1.869574984e-15
-2.064006602e-15
-2.383371827e-15
-2.854665833e-15
-3.503293872e-15
-4.33304417e-15
-5.291963458e-15
-6.228117438e-15
-6.876666315e-15
-2.534567839e-15
-2.8931041e-15
-3.48207238e-15
-4.349790649e-15
-5.539517319e-15
-7.052559281e-15
-8.788667169e-15
-1.047279269e-14
-1.163975798e-14
-3.691278996e-15
-4.335935253e-15
-5.395827748e-15
-6.956783164e-15
-9.092861344e-15
-1.179996766e-14
-1.489244317e-14
-1.788038127e-14
-1.994993216e-14
-5.694325916e-15
-6.83711237e-15
-8.718086611e-15
-1.148896911e-14
-1.527730895e-14
-2.006859351e-14
-2.552711669e-14
-3.078825183e-14
-3.442937006e-14
-9.157263785e-15
-1.116652848e-14
-1.447741645e-14
-1.935725313e-14
-2.602683163e-14
-3.445266866e-14
-4.403655884e-14
-5.326081143e-14
-5.963399725e-14
-1.514226059e-14
-1.865789649e-14
-2.445707761e-14
-3.300978311e-14
-4.469981131e-14
-5.946033296e-14
-7.623520628e-14
-9.23690415e-14
-1.034775434e-13
-2.548927237e-14
-3.162296264e-14
-4.175033746e-14
-5.669654327e-14
-7.713106714e-14
-1.029300701e-13
-1.322403075e-13
-1.604249048e-13
-1.797040353e-13
-4.338780451e-14
-5.40713711e-14
-7.172632469e-14
-9.780055609e-14
-1.334657352e-13
-1.785032892e-13
-2.296752484e-13
-2.788939256e-13
-3.121800537e-13
-7.437112057e-14
-9.296325712e-14
-1.237122672e-13
-1.691592856e-13
-2.313620116e-13
-3.099500072e-13
-3.992844564e-13
-4.852671027e-13
-5.435198137e-13
-1.280474533e-13
-1.603922115e-13
-2.139288374e-13
-2.931218295e-13
-4.015999574e-13
-5.387622385e-13
-6.948159665e-13
-8.451871459e-13
-9.473052446e-13
-2.211197529e-13
-2.773971049e-13
-3.70623866e-13
-5.086595389e-13
-6.979373418e-13
-9.375394539e-13
-1.210505711e-12
-1.473989868e-12
-1.653511512e-12
-3.82664475e-13
-4.806345943e-13
-6.430770221e-13
-8.838718251e-13
-1.214501566e-12
-1.633702078e-12
-2.112190831e-12
-2.575215916e-12
-2.892131141e-12
-6.633834912e-13
-8.340934914e-13
-1.11744854e-12
-1.538071688e-12
-2.116636142e-12
-2.851766275e-12
-3.693092784e-12
-4.510075805e-12
-5.072773226e-12
-1.151871765e-12
-1.449734614e-12
-1.944790114e-12
-2.680982063e-12
-3.695932377e-12
-4.989239648e-12
-6.474681424e-12
-7.923992564e-12
-8.930719299e-12
-2.003341536e-12
-2.524032009e-12
-3.390832174e-12
-4.682766968e-12
-6.469179034e-12
-8.754084924e-12
-1.139086095e-11
-1.397970205e-11
-1.579828391e-11
-3.490574683e-12
-4.40299255e-12
-5.924983484e-12
-8.199988296e-12
-1.13576859e-11
-1.541606715e-11
-2.01280334e-11
-2.479196696e-11
-2.811585917e-11
-6.094813785e-12
-7.698567377e-12
-1.038055054e-11
-1.440399335e-11
-2.001530666e-11
-2.727119552e-11
-3.576042444e-11
-4.424894912e-11
-5.040813265e-11
-1.06689688e-11
-1.349858285e-11
-1.824551375e-11
-2.539885119e-11
-3.54347004e-11
-4.850981664e-11
-6.395200043e-11
-7.958536055e-11
-9.11761903e-11
-1.873287559e-11
-2.374837857e-11
-3.219494255e-11
-4.499372345e-11
-6.308017257e-11
-8.685885891e-11
-1.152600795e-10
-1.444372786e-10
-1.666180787e-10
-3.301200248e-11
-4.195089747e-11
-5.707547829e-11
-8.014565217e-11
-1.130292571e-10
-1.567274925e-10
-2.096085865e-10
-2.648551055e-10
-3.080474758e-10
-5.842962369e-11
-7.446371772e-11
-1.017450432e-10
-1.436853006e-10
-2.040701196e-10
-2.853085315e-10
-3.850868126e-10
-4.912936724e-10
-5.7687954e-10
-1.039530732e-10
-1.32927802e-10
-1.825493778e-10
-2.595271083e-10
-3.71636495e-10
-5.24559375e-10
-7.15469325e-10
-9.22808285e-10
-1.095255028e-09
-1.860674561e-10
-2.388671e-10
-3.299683902e-10
-4.727470417e-10
-6.833585709e-10
-9.750054374e-10
-1.34549458e-09
-1.756396751e-09
-2.109231251e-09
-3.353880581e-10
-4.32502193e-10
-6.014732073e-10
-8.693052476e-10
-1.269888724e-09
-1.833542816e-09
-2.562599901e-09
-3.38848563e-09
-4.120132691e-09
-6.094003247e-10
-7.898418028e-10
-1.106690578e-09
-1.615081411e-09
-2.386650447e-09
-3.490339172e-09
-4.943939824e-09
-6.62496229e-09
-8.15881895e-09
-1.117308268e-09
-1.456223528e-09
-2.057216909e-09
-3.033946388e-09
-4.5386758e-09
-6.72675134e-09
-9.6593754e-09
-1.311732749e-08
-1.628503038e-08
-2.069092485e-09
-2.712899516e-09
-3.866279398e-09
-5.765364552e-09
-8.734895975e-09
-1.312173373e-08
-1.33891712e-07
-1.412293652e-07
1.103383708e-07
-3.873511924e-09
-5.110669814e-09
-7.350037658e-09
-1.108501836e-08
-1.69348679e-08
-1.408494194e-07
1.053320164e-07
9.045753216e-08
-3.922544959e-08
-7.336057144e-09
-9.740739194e-09
-1.406341192e-08
-1.365216548e-07
1.10003302e-07
9.196830281e-08
-4.832099833e-08
6.411165426e-08
1.76500491e-07
-1.398872851e-08
-1.335824482e-07
1.15981865e-07
1.011657616e-07
-3.806600974e-08
6.855042544e-08
1.596555748e-07
1.230376328e-07
8.604283301e-08
-1.422524279e-07
1.068196545e-07
8.943285001e-08
2.028357915e-07
-7.625455063e-08
1.34483439e-07
1.984318044e-07
2.353928553e-07
4.135258272e-07
8.99517752e-08
-4.37991162e-08
6.464447075e-08
3.204940723e-08
2.182621676e-07
2.626313156e-07
3.843006516e-07
5.949880842e-07
6.795123543e-07
6.569808148e-08
1.712783389e-07
1.283969793e-07
1.761218179e-07
3.142427423e-07
5.107688678e-07
7.424707325e-07
9.218149496e-07
1.341766005e-06
1.301674368e-07
8.203092994e-08
2.524283897e-07
4.863812733e-07
6.13359435e-07
9.922116349e-07
1.59507549e-06
2.201945479e-06
2.897435747e-06
2.543792396e-07
4.134415216e-07
4.907666023e-07
9.482534101e-07
1.218225926e-06
2.030351051e-06
3.001498991e-06
4.380065067e-06
5.691334088e-06
4.892708796e-07
6.885013934e-07
1.087710685e-06
1.62300404e-06
2.520418053e-06
4.158892163e-06
6.218943994e-06
8.65225134e-06
1.118586748e-05
9.53923866e-07
1.339911217e-06
2.013738441e-06
3.385261737e-06
5.316380975e-06
8.134132135e-06
1.221403393e-05
1.696483954e-05
2.184349623e-05
2.219902742e-06
2.96821004e-06
4.27562128e-06
6.681786956e-06
1.048230737e-05
1.62000096e-05
2.37645241e-05
3.295503295e-05
4.230791862e-05
4.377525718e-06
6.026663e-06
8.745901849e-06
1.352121578e-05
2.084917691e-05
3.171012195e-05
4.617966227e-05
6.348995346e-05
8.182066433e-05
9.274006323e-06
1.229879455e-05
1.782207027e-05
2.698727691e-05
4.124978563e-05
6.185603709e-05
8.90676014e-05
0.0001220669733
0.0001586371596
1.89894294e-05
2.506301871e-05
3.588448003e-05
5.379076846e-05
8.098675567e-05
0.0001199167524
0.0001714687323
0.0002356652735
0.0003124958779
3.884296589e-05
5.086074569e-05
7.208177388e-05
0.0001064924576
0.0001584368089
0.0002322461729
0.0003316608453
0.0004617358381
0.0006232988207
7.92925494e-05
0.0001025359628
0.0001436558531
0.0002097365957
0.0003090104727
0.0004512607225
0.0006497568702
0.0009112951217
0.001268872768
0.0001595813061
0.0002046281445
0.0002839557285
0.0004107990262
0.0006028062153
0.0008852582538
0.001274256719
0.00182930429
0.002633416885
0.0003171217772
0.0004039286064
0.0005566083613
0.0008018809401
0.001180814354
0.001725407429
0.00252638413
0.003724331703
0.005521290201
0.0006215781342
0.0007882412069
0.001082950963
0.001561690657
0.002281690147
0.003373653484
0.005042681976
0.007623434387
0.01154708753
0.001203100017
0.001524237427
0.002086949812
0.002984385448
0.004392090239
0.006590826774
0.01005410041
0.01550291427
0.02376780629
0.002301707913
0.002894591922
0.003942157333
0.005657570046
0.008403129327
0.01279367137
0.01983101875
0.03093403562
0.0475677038
0.004308058132
0.005413810221
0.00738135023
0.01064181216
0.01594078041
0.02452547317
0.0383321289
0.05991521425
0.09167750708
0.00800888651
0.01006238034
0.01373641727
0.01987104153
0.02990615107
0.04616653602
0.0720599829
0.1117989563
0.1691321692
0.01486462552
0.01865939896
0.02545936886
0.03681642152
0.05531261242
0.08491259447
0.131086418
0.2002751456
0.2982386299
0.02763049136
0.03457603622
0.04696930976
0.06749318912
0.1004185206
0.1519403904
0.230183129
0.3445919581
0.5041279913
0.05135758613
0.06383280896
0.08585929908
0.1217340428
0.1779647749
0.2635440871
0.3900473598
0.5713336596
0.8212898789
0.09476808029
0.1164960482
0.1542576362
0.2144056016
0.3061868512
0.442158959
0.6388721067
0.9168411804
1.296426169
0.1716643605
0.2079531919
0.2698668572
0.3661919311
0.5096105367
0.7177541264
1.014660144
1.429857961
1.990577796
0.3017350032
0.3595146866
0.4564033226
0.6042028387
0.8204298279
1.130287383
1.56808299
2.173710581
2.980235567
0.5105875638
0.5985619083
0.7442188335
0.9635930092
1.281303313
1.732928361
2.364974817
3.22765227
4.357654213
0.8303227027
0.9598041952
1.172620892
1.490923535
1.948957253
2.594811389
3.4878684
4.687410602
6.230496376
1.302425459
1.488832234
1.79394769
2.248052044
2.897043877
3.802638766
5.036641449
6.665035998
8.720776577
1.982395844
2.246591102
2.677397874
3.314822563
4.217645015
5.461307971
7.128445554
9.288031142
11.96316091
2.943572073
3.31250168
3.911180322
4.790267633
6.021753752
7.693799796
9.896879335
12.69781392
16.10269988
4.278978419
4.785773343
5.603239509
6.792819928
8.438988964
10.64024624
13.49045052
17.04753824
21.29214192
6.101765657
6.785569368
7.881094415
9.459714081
11.61641261
14.45622541
18.0702837
22.49936991
27.68896315
8.544799733
9.450360708
10.8907664
12.94542367
15.71650748
19.31018327
23.80713961
29.2212944
35.45220634
11.75924378
12.93619705
14.79473342
17.41919048
20.91418001
25.38004008
30.87779182
37.38350532
44.73916257
15.91217154
17.41409009
19.76888348
23.06151147
27.39285851
32.84901954
39.46079336
47.1543788
55.70186441
21.18311804
23.06626011
25.99841512
30.05967995
35.33973683
41.90074338
49.73164771
58.69600667
68.48330953
27.75957434
30.08139682
33.67279764
38.60245271
44.94023154
52.71363975
61.85739695
72.15925267
83.21332263
35.83155489
38.64902475
42.97989
48.87394404
56.37174274
65.45473089
75.99066115
87.67832446
100.0039878
45.5853629
48.95310469
54.09935319
61.0468811
69.79684651
80.27291867
92.26322766
105.3649241
118.9446622
57.19671316
61.16504092
67.19553343
75.27540581
85.35611353
97.29196561
110.7793816
125.3021498
140.0966989
70.82342254
75.43631516
82.4100549
91.68768632
103.1608384
116.603476
131.6092937
147.5384549
163.4881491
86.59794334
91.89104231
99.85444634
110.3786927
123.2860701
138.2602967
154.7829032
172.0821042
189.1088608
104.6201003
110.6188316
119.6032144
131.4035884
145.7644305
162.2708588
180.2848365
198.8966724
216.9065003
124.950477
131.6684198
141.6878596
154.772262
170.5812751
188.5950304
208.0509471
227.8981681
246.7840722
147.6049651
155.0426006
166.0923723
180.4455488
197.6717489
217.1420382
237.9670218
258.9543254
278.5994727
172.5510075
180.6949803
192.7507283
208.3336444
226.9202166
247.770901
269.8700703
291.8864523
312.167465
199.7060201
208.5290157
221.5468055
238.2970814
258.1623754
280.2936218
303.5523861
326.4739944
347.2642341
228.9383437
238.399648
252.3169654
270.1504297
291.1901192
314.4811152
338.7682825
362.4616717
383.6343857
260.0708736
270.117613
284.855299
303.6686158
325.758938
350.0715492
375.243097
399.568742
420.9999537
292.8872539
303.4562514
318.9212615
338.5954766
361.5973549
386.7805036
412.6837934
437.4996749
459.0707156
327.1402511
338.1603678
354.2491622
374.6539193
398.4176855
424.3121541
450.790311
475.9553358
497.5548701
362.5616803
373.9564635
390.558773
411.5568897
435.9272758
462.3706332
489.2668415
514.6438081
536.1708966
398.8730909
410.5635208
427.5661996
449.0182678
473.8393341
500.6707518
527.8326084
553.294697
574.6528966
435.796357
447.7034854
464.9941579
486.762809
511.8823698
538.9466888
566.2319437
591.6532329
612.7632557
473.0633851
485.1106893
502.5809654
524.5345647
549.807954
576.9618507
604.2301962
629.5032866
650.2939771
510.4243033
522.539637
540.0877491
562.1033545
587.399256
614.5026044
641.6340066
666.6606257
687.0714399
547.653718
559.7707892
577.3065701
599.2720924
624.4629447
651.3975813
678.2828647
702.9772111
722.9579262
584.5579173
596.6171408
614.0510389
635.866683
660.8478213
687.5077712
714.0525299
738.3422019
757.8531204
620.9639555
632.9132366
650.1755111
671.7546906
696.4335882
722.7290222
748.8554374
772.6842679
791.6996951
656.7390889
668.5338848
685.5626618
706.8323534
731.1321421
756.9907304
782.6408146
805.9772124
824.4367131
691.7771002
703.3803993
720.1246275
741.0254074
764.8851313
790.2526279
815.3891431
838.1524293
856.0774326
725.9994203
737.3816613
753.8011324
774.2874629
797.6628678
822.5046489
847.0374001
869.2294511
886.6045161
759.3535132
770.4928349
786.5588467
806.6007782
829.4596747
853.6859465
877.6148377
899.2012887
916.009857
791.8131491
802.6966904
818.3940642
837.9517216
860.2235944
883.8372132
907.1177418
928.0665677
944.2982293
823.3838395
833.9903083
849.2732949
868.3163351
889.9964463
912.9510791
935.5470716
955.8351052
971.4841651
854.0276147
864.3463041
879.2114387
897.7181642
918.7668687
941.0286753
962.9136937
982.52462
997.5890282
883.7673619
893.782964
908.2037689
926.1453545
946.5350871
968.0798743
989.2350877
1008.15802
1022.638584
912.5826166
922.2816188
936.2405557
953.5976386
973.3093958
994.120338
1014.532931
1032.761354
1046.661148
940.4634525
949.8370825
963.3225759
980.082274
999.1033571
1019.169361
1038.831361
1056.362341
1069.686271
967.4096
976.4523057
989.457012
1005.611209
1023.933779
1043.248347
1062.155776
1078.98938
1091.743858
993.4265842
1002.135169
1014.654941
1030.199232
1047.81936
1066.379801
1084.532061
1100.670918
1112.86362
1018.523463
1026.896568
1038.929805
1053.862814
1070.77984
1088.586707
1105.986122
1121.435102
1133.074787
1042.711516
1050.749293
1062.29652
1076.619436
1092.835506
1109.892183
1126.543653
1141.309604
1152.405974
1066.003511
1073.707401
1084.770971
1098.487213
1114.006946
1130.31932
1146.23004
1160.321582
1170.885164
1088.413318
1095.785886
1106.369763
1119.484725
1134.314934
1149.891135
1165.070361
1178.497697
1188.539748
1109.955713
1117.00053
1127.11011
1139.630952
1153.780417
1168.630584
1183.089416
1195.864173
1205.39659
1130.646309
1137.367843
1147.009807
1158.945268
1172.424533
1186.5606
1200.311792
1212.44686
1221.482102
1150.501529
1156.90505
1166.087228
1177.44746
1190.268637
1203.704141
1216.76191
1228.271296
1236.822302
1169.538597
1175.630093
1184.361337
1195.157742
1207.334334
1220.084219
1232.464067
1243.362753
1251.442868
1187.775532
1193.561621
1201.851683
1212.096764
1223.643487
1235.723924
1247.442463
1257.746262
1265.369162
1205.231124
1210.718978
1218.578391
1228.2856
1239.218212
1250.646418
1261.721203
1271.446625
1278.626249
1221.924897
1227.122157
1234.562121
1243.745717
1254.080856
1264.874924
1275.324288
1284.488412
1291.238887
1237.877046
1242.79175
1249.824022
1258.498931
1268.253959
1278.432692
1288.275594
1296.89594
1303.231519
1253.108365
1257.748875
1264.385664
1272.567349
1281.760198
1291.342957
1300.598833
1308.693246
1314.628242
1267.640164
1272.015095
1278.268958
1285.973293
1294.62233
1303.628885
1312.317513
1319.904051
1325.452782
1281.494169
1285.612325
1291.496077
1298.739231
1306.863122
1315.313517
1323.454888
1330.551724
1335.728452
1294.692425
1298.562735
1304.08936
1310.88769
1318.505282
1326.419711
1334.033914
1340.65924
1345.478122
1307.25719
1310.888656
1316.071228
1322.441178
1329.571387
1336.970081
1344.077197
1350.249136
1354.72418
1319.210839
1322.612483
1327.464091
1333.422103
1340.083816
1346.986938
1353.606944
1359.343478
1363.4885
1330.575763
1333.756579
1338.290262
1343.852697
1350.06468
1356.492238
1362.644922
1367.963824
1371.79241
1341.374276
1344.343193
1348.57188
1353.754946
1359.535767
1365.50753
1371.212417
1376.13119
1379.656663
1351.628531
1354.394372
1358.330836
1363.150523
1368.518481
1374.053911
1379.330199
1383.866023
1387.101419
1361.36044
1363.931894
1367.588699
1372.060728
1377.033796
1382.151987
1387.01849
1391.188179
1394.146218
1370.591603
1372.977196
1376.366663
1380.506438
1385.10221
1389.821836
1394.296938
1398.116906
1400.809973
1379.343246
1381.551316
1384.685493
1388.50806
1392.743709
1397.082983
1401.184599
1404.670825
1407.110956
1387.636163
1389.674846
1392.565475
1396.085493
1399.977736
1403.954373
1407.699918
1410.867921
1413.066791
1395.490675
1397.367882
1400.02638
1403.258094
1406.823163
1410.454355
1413.860718
1416.725541
1418.694449
1402.926583
1404.649993
1407.087436
1410.044652
1413.298275
1416.600668
1419.684192
1422.260387
1424.010254
1409.963141
1411.54019
1413.767296
1416.463372
1419.420753
1422.410431
1425.186902
1427.488518
1429.029881
1416.619027
1418.056898
1420.084021
1422.531853
1425.207663
1427.900139
1430.384777
1432.425354
1433.768367
1422.912325
1424.217947
1426.055067
1428.267081
1430.675453
1433.085662
1435.293115
1437.085684
1438.240114
1428.860508
1430.040551
1431.697275
1433.685426
1435.839946
1437.982245
1439.926591
1441.483674
1442.458904
1434.48043
1435.541306
1437.026864
1438.802633
1440.71635
1442.604518
1444.299265
1445.632875
1446.437912
1439.788322
1440.736183
1442.059431
1443.633831
1445.319252
1446.966496
1448.424588
1449.546241
1450.189717
1444.799789
1445.640533
1446.809955
1448.193533
1449.662635
1451.081597
1452.315423
1453.236138
1453.726319
1449.529814
1450.269083
1451.292798
1452.495644
1453.759879
1454.962646
1455.984051
1456.714365
1457.059156
1453.992761
1454.635951
1455.521718
1456.553471
1457.62378
1458.621893
1459.442186
1459.992164
1460.199119
1458.202387
1458.75465
1459.509874
1460.379736
1461.266556
1462.071027
1462.700999
1463.080241
1463.156573
1462.171849
1462.638097
1463.269844
1463.986585
1464.699867
1465.321191
1465.771124
1465.988785
1465.941372
1465.913717
1466.298633
1466.813632
1467.385608
1467.934826
1468.382997
1468.662682
1468.727481
1468.562881
1469.439989
1469.748031
1470.152687
1470.58785
1470.982021
1471.266545
1471.385299
1471.305532
1471.02999
1472.762105
1472.997513
1473.297919
1473.603829
1473.851524
1473.98144
1473.948119
1473.731678
1473.351138
1475.890964
1476.057768
1476.259713
1476.443554
1476.552917
1476.53681
1476.359829
1476.014212
1475.534327
1478.836939
1478.938966
1479.047948
1479.116542
1479.095303
1478.941323
1478.62867
1478.160998
1477.587142
1481.609898
1481.650781
1481.672017
1481.631835
1481.487328
1481.203207
1480.76246
1480.179494
1479.516772
1484.219218
1484.202402
1484.140839
1483.998018
1483.737197
1483.330266
1482.768612
1482.076763
1481.330021
1486.673806
1486.602556
1486.462884
1486.223239
1485.852694
1485.329898
1484.654147
1483.859494
1483.033332
1488.982115
1488.859524
1488.646185
1488.315225
1487.841195
1487.209115
1486.425718
1485.534021
1484.632802
1491.152164
1490.981163
1490.698361
1490.2813
1489.709693
1488.974555
1488.089619
1487.106335
1486.134195
1493.191556
1492.974916
1492.626632
1492.128403
1491.464808
1490.632505
1489.651811
1488.582104
1487.542963
1495.107495
1494.847838
1494.437835
1493.863106
1493.112809
1492.188912
1491.117928
1489.966688
1488.864259
1496.906803
1496.606609
1496.138446
1495.491628
1494.659626
1493.649405
1492.493299
1491.265151
1490.102951
1498.595939
1498.257552
1497.734592
1497.019854
1496.11087
1495.019304
1493.782964
1492.48228
1491.263639
1500.181016
1499.806648
1499.232069
1498.45335
1497.471844
1496.303638
1494.991682
1493.622597
1492.350665
1501.667813
1501.259556
1500.636359
1499.797378
1498.747565
1497.50716
1496.123951
1494.690372
1493.36813
1503.061795
1502.621625
1501.952642
1501.056912
1499.942768
1498.634361
1497.184017
1495.689637
1494.319906
1504.368129
1503.897907
1503.185814
1502.236649
1501.061929
1499.689479
1498.175892
1496.624199
1495.209643
1505.591691
1505.093178
1504.340497
1503.341025
1502.109272
1500.676516
1499.103358
1497.497645
1496.040787
1506.737087
1506.211941
1505.421054
1504.374226
1503.088783
1501.599248
1499.969983
1498.313364
1496.816587
1507.80866
1507.258446
1506.431599
1505.340198
1504.004219
1502.461231
1500.779133
1499.074544
1497.540103
1508.810499
1508.236693
1507.376004
1506.242655
1504.859115
1503.265815
1501.53397
1499.784187
1498.214214
1509.746449
1509.150444
1508.257909
1507.085089
1505.656792
1504.016142
1502.237466
1500.445112
1498.841625
1510.620112
1510.003218
1509.08072
1507.870764
1506.400358
1504.715154
1502.8924
1501.059954
1499.424864
1511.434839
1510.798293
1509.847608
1508.602717
1507.092698
1505.365579
1503.501351
1501.63116
1499.966282
1512.193726
1511.538692
1510.56149
1509.283738
1507.736463
1505.969922
1504.066681
1502.160973
1500.468036
1512.89958
1512.227151
1511.225006
1509.916346
1508.334035
1506.530428
1504.590507
1502.651399
1500.932058
1513.554879
1512.866081
1511.840466
1510.502734
1508.887477
1507.049028
1505.074641
1503.104155
1501.360002
1514.161699
1513.457487
1512.409777
1511.044687
1509.398446
1507.527252
1505.520498
1503.52057
1501.753157
1514.721605
1514.002857
1512.934321
1511.543461
1509.86806
1507.966086
1505.928955
1503.901449
1502.112299
1515.235489
1514.502996
1513.41478
1511.999592
1510.296702
1508.365769
1506.300133
1504.246839
1502.43747
1515.703338
1514.957785
1513.850885
1512.412631
1510.683732
1508.725483
1506.633075
1504.555708
1502.727646
1516.123916
1515.365846
1514.241059
1512.780765
1511.027086
1509.042926
1506.925289
1504.825463
1502.980249
1516.49432
1515.724086
1514.581937
1513.100299
1511.322716
1509.313713
1507.172118
1505.051286
1503.190465
1516.809397
1516.027081
1514.867714
1513.364965
1511.563844
1509.530569
1507.365868
1505.22522
1503.350304
1517.060973
1516.266282
1515.089299
1513.565004
1511.73998
1509.682271
1507.494674
1505.334963
1503.447341
1517.236873
1516.428987
1515.233229
1513.686011
1511.835655
1509.752274
1507.541028
1505.362297
1503.463081
1517.319699
1516.497064
1515.280312
1513.707465
1511.828853
1509.717013
1507.47993
1505.281124
1503.3709
1517.285322
1516.445387
1515.203966
1513.600958
1511.689075
1509.543805
1507.276637
1505.055047
1503.133503
1517.101089
1516.239962
1514.968243
1513.328071
1511.37506
1509.188378
1506.883988
1504.634515
1502.699918
1516.723731
1515.835758
1514.525532
1512.837918
1510.832132
1508.59201
1506.239319
1503.953516
1502.002008
1516.096978
1515.174233
1513.813956
1512.06438
1509.98924
1507.678339
1505.261036
1502.92592
1500.950617
1515.14894
1514.180624
1512.754537
1510.923101
1508.755744
1506.34993
1503.844938
1501.441562
1499.431437
1513.789303
1512.761072
1511.248198
1509.308335
1507.018093
1504.48474
1501.860468
1499.362267
1497.300831
1511.906477
1510.799692
1509.172742
1507.089812
1504.636545
1501.932687
1499.147105
1496.518067
1494.381872
1509.364821
1508.155774
1506.380005
1504.109825
1501.442182
1498.512589
1495.511223
1492.70395
1490.460958
1506.002173
1504.661315
1502.693393
1500.180792
1497.234514
1494.009801
1490.723754
1487.677539
1485.285451
1501.62792
1500.119148
1497.906115
1495.083621
1491.780003
1488.174942
1484.519118
1481.158174
1478.562825
1496.0219
1494.301981
1491.780424
1488.56723
1484.811929
1480.724139
1476.595865
1472.82792
1469.961885
1488.934478
1486.952684
1484.048236
1480.349605
1476.03199
1471.341256
1466.619548
1462.335008
1459.116605
1480.088122
1477.78619
1474.413505
1470.120806
1465.114077
1459.682529
1454.228264
1449.300213
1445.633083
1469.180855
1466.493353
1462.55671
1457.548275
1451.710577
1445.384002
1439.041263
1433.326555
1429.100033
1455.891859
1452.747075
1448.141746
1442.284741
1435.461494
1428.072012
1420.670856
1414.012522
1409.103007
1439.889491
1436.210911
1430.825428
1423.97888
1416.006501
1407.376795
1398.737634
1390.968812
1385.242281
1420.841791
1416.550247
1410.269637
1402.288714
1392.999824
1382.949023
1372.888721
1363.838187
1357.153997
1398.429429
1393.44591
1386.155921
1376.897476
1366.12759
1354.478775
1342.818413
1332.317716
1324.533705
1372.360798
1366.609898
1358.202137
1347.531401
1335.126937
1321.716089
1308.290202
1296.182198
1287.161039
1342.388689
1335.802578
1326.180394
1313.978573
1299.805879
1284.491871
1269.158751
1255.307207
1244.9238
1308.327743
1300.850476
1289.935299
1276.107686
1260.062582
1242.737678
1225.390143
1209.689852
1197.839438
1270.071596
1261.663498
1249.401235
1233.885316
1215.902513
1196.502613
1177.078486
1159.465203
1146.07173
1227.60843
1218.250249
1204.61727
1187.390183
1167.451817
1145.965608
1124.457004
1104.916387
1089.940551
1181.033567
1170.730026
1155.7382
1136.822884
1114.965359
1091.441481
1067.902004
1046.476713
1029.923015
1130.557741
1119.340145
1103.040422
1082.509794
1058.828203
1033.379635
1007.928684
984.7228881
966.6450565
1076.509905
1064.4375
1046.921617
1024.900293
999.5498715
972.3550293
945.1787574
920.3596236
900.8639344
1019.333834
1006.493731
987.8938125
964.5571491
937.751659
909.0522848
880.4015421
854.1983051
833.4450235
959.5783881
946.0840655
926.5701995
902.1409328
874.1485754
844.2456315
814.4330485
787.1377709
765.3439924
897.8822748
883.8709215
863.6472893
838.3907587
809.5292237
778.7800773
748.1804567
720.1230192
697.545038
834.9558246
820.5852356
799.8862119
774.1065909
744.7391109
713.5184277
682.50714
654.0715708
631.0100781
771.5664918
757.0125158
736.0947707
710.0992445
680.5752166
649.2973005
618.2786775
589.8113653
566.5558602
708.4971447
693.929214
673.0354942
647.15448
617.8399542
586.8659805
556.2124898
528.0829131
504.8739999
646.490852
632.0810305
611.4539047
585.9673697
557.187847
526.8724927
496.8360536
469.3830259
446.7111582
586.2089743
572.1078363
551.966196
527.1504752
499.2221645
469.7979907
440.9382001
414.4856782
392.5387026
528.2353431
514.5880809
495.1393354
471.1439651
444.3582249
416.3453143
388.8559198
363.6924309
342.7394099
472.9844833
459.9232908
441.355332
418.6219418
393.2260529
366.7717673
340.903187
317.2685071
297.5383422
421.1150728
408.7497442
391.2153943
369.8195621
346.0117664
321.3162892
297.2621082
275.3405178
257.0144419
372.8467075
361.2644548
344.8832069
324.9637827
302.8903423
280.0965541
257.9904621
237.9078706
221.1153008
328.399166
317.6629516
302.5189374
284.1701205
263.9248508
243.1182425
223.0346159
204.8590799
189.6765968
287.8872213
278.0359458
264.178461
247.4507513
229.0770616
210.2886483
192.2460751
175.9911925
162.4444478
251.3279013
242.377668
229.8232598
214.7265002
198.2215502
181.4330096
165.4000533
151.0306066
139.0986797
218.6515371
210.5977576
199.3335
185.8413635
171.1617485
156.3121064
142.2145661
129.6537386
119.2753822
189.7152249
182.5353059
172.5228775
160.5782813
147.6466419
134.6398297
122.3688707
111.5063858
102.5874794
164.3174764
157.9738487
149.1540393
138.6750005
127.3870473
116.0998066
105.5203575
96.22092822
88.64250273
142.2129911
136.6562536
128.9536
119.8391818
110.0707047
100.3603582
91.31929975
83.4308877
77.05715554
123.1267479
118.298767
111.6260716
103.7621021
95.37562643
87.0873689
79.42115165
72.78264432
67.46855219
106.7668279
102.603652
96.86619706
90.13054597
82.98139807
75.9548591
69.49628325
63.94428781
59.54234973
92.83558739
89.27008761
84.3694207
78.63668509
72.57830529
66.65319942
61.2372045
56.6118556
52.97779119
81.03900299
78.00318057
73.84038955
68.98588927
63.87426759
58.89508425
54.36339247
50.51280112
47.51008722
71.09415065
68.52107612
64.9994942
60.9025221
56.59977801
52.41926519
48.62369224
45.40711756
42.91013628
62.73487041
60.56024612
57.5876416
54.13397013
50.51082058
46.9923241
43.79669497
41.08594769
38.98137507
55.71585202
53.87920932
51.36931796
48.45292091
45.39037862
42.40910898
39.68977928
37.36872
35.62009705
49.8150698
48.26059753
46.13425503
43.65852384
41.04902838
38.49306152
36.13998739
34.20445429
32.75064294
44.83491684
43.51199364
41.69781311
39.5763447
37.32479973
35.09693853
33.13889348
31.46781697
30.13063142
40.60197628
39.4653622
37.8999698
36.05696194
34.08191119
32.24484946
30.51464127
28.97543975
27.71857786
36.96549562
35.9752785
34.60329165
33.01526345
31.38011413
29.71879462
28.12591137
26.68536252
25.48309091
33.79508015
32.93528949
31.79983848
30.43818329
28.94717488
27.41801194
25.93223256
24.56482699
23.40096526
31.11212372
30.37687483
29.3453263
28.1011723
26.72803995
25.30440373
23.9016936
22.58972607
21.45768566
28.7280206
28.05731316
27.11242934
25.96512706
24.68743073
23.34767676
22.0106811
20.74759109
19.67028979
26.55704922
25.9400182
25.06637289
23.99786882
22.79698184
21.52474441
20.24510509
19.0454881
18.00265322
24.56665086
23.99355923
23.17788877
22.1732473
21.03497677
19.82233445
18.60957653
17.45197623
16.44731753
22.72889277
22.19160244
21.42322979
20.47137809
19.39054934
18.24244817
17.07490721
15.9617323
15.00102439
21.02101778
20.51336248
19.78490443
18.88569521
17.86141891
16.75784468
15.63638097
14.5732395
13.66180011
19.42645897
18.94757076
18.26288301
17.40695286
16.42320172