/*--------------------------------*- C++ -*----------------------------------*\
| =========                 |                                                 |
| \\      /  F ield         | OpenFOAM: The Open Source CFD Toolbox           |
|  \\    /   O peration     | Version:  2212                                  |
|   \\  /    A nd           | Website:  www.openfoam.com                      |
|    \\/     M anipulation  |                                                 |
\*---------------------------------------------------------------------------*/
FoamFile
{
    version     2.0;
    format      ascii;
    arch        "LSB;label=32;scalar=64";
    class       volVectorField;
    location    "23.25000000";
    object      U_0;
}
// * * * * * * * * * * * * * * * * * * * * * * * * * * * * * * * * * * * * * //

dimensions      [0 1 -1 0 0 0 0];

internalField   nonuniform List<vector> 
3000
(
(0.1354738839 -0.003719132891 6.873598436e-12)
(0.1357857444 -0.006341289609 1.361094573e-11)
(0.1364768291 -0.009876028681 2.710815616e-11)
(0.1376516977 -0.0144756009 5.744820755e-11)
(0.139383717 -0.0203144739 1.292355083e-10)
(0.1414697621 -0.02795211743 4.412695915e-11)
(0.1420251395 -0.03445339494 1.648442075e-11)
(0.1342365256 -0.04151461332 7.408184718e-12)
(0.09171264855 -0.02006831159 1.823388024e-12)
(0.1465022715 -0.008048820117 3.083656627e-11)
(0.148417817 -0.01318227238 5.893139754e-11)
(0.1510380775 -0.01903224869 1.011064938e-10)
(0.1543789003 -0.02504527451 1.663525524e-10)
(0.1577490851 -0.03066149844 2.746120312e-10)
(0.158914244 -0.03493328349 1.296080142e-10)
(0.1535748753 -0.0340604869 6.258264103e-11)
(0.1315809965 -0.02867334174 2.630059975e-11)
(0.07476479889 -0.00791737003 7.220066461e-12)
(0.1640555814 -0.01075561822 5.714885509e-11)
(0.1660080396 -0.01698871672 1.048711936e-10)
(0.1683089188 -0.02337132487 1.698735102e-10)
(0.1700704925 -0.02882635043 2.554707587e-10)
(0.1694421374 -0.03245702512 3.705447047e-10)
(0.1631672501 -0.03289502226 1.926813776e-10)
(0.1464160253 -0.02831980088 9.692042539e-11)
(0.1097450508 -0.01865838303 4.59615597e-11)
(0.04729442965 -0.003396605288 1.300331677e-11)
(0.1832660071 -0.01067895561 6.184952857e-11)
(0.1845009245 -0.01644222446 1.150062438e-10)
(0.1852930096 -0.02176349866 2.02231363e-10)
(0.184124435 -0.02540900457 3.026300045e-10)
(0.1786416914 -0.02660353757 4.246693434e-10)
(0.1654735989 -0.02466936409 2.334263106e-10)
(0.1405195591 -0.01851346013 1.278157003e-10)
(0.09875360324 -0.009817183482 6.338671948e-11)
(0.03910293416 -0.001312755652 1.807443769e-11)
(0.2002447485 -0.00957292154 -8.592683682e-11)
(0.1998522044 -0.01443353468 -2.485911259e-10)
(0.1979378756 -0.01850011313 8.567843891e-11)
(0.1927091184 -0.02062475413 2.263020644e-10)
(0.1818470932 -0.02038330655 2.754652735e-10)
(0.1624818865 -0.01746211834 2.055048619e-10)
(0.1320249998 -0.0119734287 1.30405299e-10)
(0.08844418065 -0.005510958212 6.973463552e-11)
(0.03258008932 -0.0005012446073 2.042125211e-11)
(0.214774668 -0.007874653558 -3.902269405e-11)
(0.2125604122 -0.01164356731 -3.598878612e-11)
(0.2078409553 -0.01451635954 1.110366899e-10)
(0.198867519 -0.01556227149 2.40172569e-10)
(0.1836517401 -0.01464955463 3.522092137e-10)
(0.1601129446 -0.01179160054 2.24844605e-10)
(0.1267703395 -0.007540848301 1.393740877e-10)
(0.08302289095 -0.003132912129 7.531434299e-11)
(0.02998407126 -0.0002316483312 2.225885299e-11)
(0.2259230931 -0.006205345676 -1.355076094e-10)
(0.2218904415 -0.009036013209 -2.901560642e-10)
(0.2145225596 -0.01101316719 1.979107911e-11)
(0.2022990866 -0.01144028338 1.719407526e-10)
(0.1836713468 -0.01036743055 2.374248724e-10)
(0.1572452584 -0.007966788943 1.949944495e-10)
(0.1222859635 -0.004839986283 1.364865865e-10)
(0.07886499175 -0.001873233714 7.936463924e-11)
(0.02805005301 -9.555789136e-05 2.432476877e-11)
(0.2345549073 -0.004730452249 -7.450167935e-11)
(0.2289397693 -0.006793538603 -8.637040722e-11)
(0.2193645219 -0.008123764391 4.57756701e-11)
(0.2046062727 -0.008223476096 1.822238755e-10)
(0.1835319875 -0.007230972232 3.328240251e-10)
(0.1552571358 -0.005366676654 2.259425779e-10)
(0.1194719677 -0.003147683004 1.666646747e-10)
(0.07647047412 -0.001170566776 1.058284365e-10)
(0.02709016632 -5.675142067e-05 3.321669365e-11)
(0.2408582205 -0.003539728243 -8.5820666e-11)
(0.2339299643 -0.005029841278 -1.48100854e-10)
(0.2225828061 -0.005924005784 -2.430249502e-10)
(0.2058905432 -0.005876685404 -1.135269397e-10)
(0.1830650238 -0.005050664115 1.418048519e-10)
(0.1535741452 -0.003655155902 2.20673286e-10)
(0.1173425863 -0.002090762184 3.043388151e-10)
(0.07472245323 -0.0007552093998 2.223205318e-10)
(0.02637615712 -2.886595555e-05 5.915137467e-11)
(0.2455296408 -0.002616968085 -6.535404156e-11)
(0.2375651489 -0.003684730557 -9.771205346e-11)
(0.224858062 -0.004286940649 -1.069428347e-10)
(0.2067426241 -0.004186139758 -1.822679493e-11)
(0.1826950104 -0.003536888858 1.078103174e-10)
(0.1524152814 -0.002514999922 1.665986251e-10)
(0.1159471964 -0.001416924609 1.791060923e-10)
(0.07362512895 -0.0005060901036 1.263909102e-10)
(0.02595917751 -2.057187148e-05 3.93527668e-11)
(0.2488890269 -0.001922709763 1.079400185e-10)
(0.2401252852 -0.002688979836 3.032491643e-10)
(0.226391568 -0.003099311261 1.054875289e-10)
(0.2072356473 -0.002991056117 1.305543266e-10)
(0.1823291694 -0.00249632198 2.632704335e-10)
(0.1515239802 -0.001753742658 1.911707014e-10)
(0.1149237908 -0.0009778811183 1.494297336e-10)
(0.07282964308 -0.0003460475732 9.606948467e-11)
(0.02564920871 -1.272825369e-05 3.037046575e-11)
(0.2513368866 -0.00140949901 9.985602903e-11)
(0.2419693531 -0.001960481894 1.607663843e-10)
(0.2274736595 -0.002243666179 1.23481578e-10)
(0.2075651427 -0.002146801943 1.356543669e-10)
(0.1820565872 -0.001776595679 1.795805972e-10)
(0.1508985558 -0.001238648279 1.70287791e-10)
(0.1142231152 -0.0006871766006 1.495771415e-10)
(0.07229572656 -0.0002430103586 1.043105932e-10)
(0.02544761298 -9.607825773e-06 3.35759175e-11)
(0.253095791 -0.001033642986 1.642639808e-11)
(0.243276811 -0.001432273526 -2.767679645e-11)
(0.2282190049 -0.001630872029 -1.923831693e-10)
(0.207765786 -0.001551243926 -1.549070775e-10)
(0.1818311792 -0.001276581306 6.719468933e-11)
(0.1504309395 -0.0008858333627 1.684461429e-10)
(0.1137105067 -0.0004898984562 2.594122296e-10)
(0.07190626743 -0.0001728774803 2.20613072e-10)
(0.02529761213 -6.519731402e-06 5.744317666e-11)
(0.254373272 -0.0007601822226 -1.800248805e-11)
(0.2442194936 -0.001050406343 -5.233068424e-11)
(0.2287491912 -0.001191876764 -9.638854178e-11)
(0.2079020633 -0.001129313638 -5.108995982e-11)
(0.1816645337 -0.0009262543331 5.520776302e-11)
(0.1500959775 -0.0006411709055 1.171326958e-10)
(0.1133477362 -0.000354271807 1.359697376e-10)
(0.07163312993 -0.0001250345254 9.304628292e-11)
(0.02519362615 -4.761240974e-06 2.795709201e-11)
(0.2552973608 -0.0005615745522 -1.731868801e-11)
(0.2448961824 -0.0007747008209 -2.717734526e-11)
(0.229123416 -0.0008771664459 -1.559520698e-11)
(0.2079904354 -0.000829288451 5.985486819e-11)
(0.181535628 -0.0006790067165 2.113285686e-10)
(0.1498481645 -0.0004694785464 1.213383116e-10)
(0.1130819689 -0.0002592503158 5.8426683e-11)
(0.07143313341 -9.109796846e-05 -3.951295752e-11)
(0.02511619339 -3.11055386e-06 -5.436064129e-12)
(0.2559734645 -0.0004177919946 -6.994847377e-12)
(0.2453898476 -0.0005758480628 -3.848174902e-12)
(0.229395351 -0.0006513909098 1.707778188e-11)
(0.2080543997 -0.0006153932131 6.24380515e-11)
(0.181442807 -0.000503841827 1.086198912e-10)
(0.1496704123 -0.0003485719305 8.289940988e-11)
(0.112892114 -0.0001929237156 4.498958747e-11)
(0.07129105273 -6.776809437e-05 8.970120579e-12)
(0.02506114612 -2.860703295e-06 1.752537673e-12)
(0.2564720083 -0.0003139630731 2.19439796e-12)
(0.2457538853 -0.0004327485339 1.00004582e-11)
(0.229596585 -0.0004896236744 2.744006117e-11)
(0.2081037098 -0.0004629171611 5.157979232e-11)
(0.1813781737 -0.0003796198348 6.736398667e-11)
(0.1495443249 -0.0002632371544 5.692624627e-11)
(0.1127572028 -0.0001464600899 3.625038884e-11)
(0.07118999455 -5.146142639e-05 1.652038168e-11)
(0.02502276958 -3.187779953e-06 4.41671165e-12)
(0.256848416 -0.0002395634765 7.822306034e-12)
(0.2460310358 -0.0003305020031 1.653648487e-11)
(0.2297539278 -0.0003745077107 2.918857146e-11)
(0.2081496241 -0.0003549327438 4.200644198e-11)
(0.1813407178 -0.0002920912055 4.7529699e-11)
(0.1494618096 -0.0002033099252 4.106175838e-11)
(0.112667349 -0.0001138879181 2.827063176e-11)
(0.07112281113 -3.962767545e-05 1.504411437e-11)
(0.02499787213 -3.301095182e-06 4.29456044e-12)
(0.2571430592 -0.0001870329025 1.024850052e-11)
(0.246252223 -0.0002585524826 1.83216954e-11)
(0.2298865419 -0.0002938486549 2.707444775e-11)
(0.2081998764 -0.0002796369343 3.365542466e-11)
(0.1813291493 -0.0002312846281 3.452534994e-11)
(0.1494158602 -0.0001619088599 2.869232622e-11)
(0.1126139739 -9.178710831e-05 1.950250393e-11)
(0.07108253679 -3.142480937e-05 1.037910425e-11)
(0.02498336413 -3.765393727e-06 2.91718323e-12)
(0.2573881679 -0.0001512278181 1.018529255e-11)
(0.2464426399 -0.0002098030323 1.660407683e-11)
(0.2300109478 -0.0002397374414 2.153547323e-11)
(0.2082627765 -0.0002297514352 2.261450789e-11)
(0.1813455956 -0.0001919097809 1.830646122e-11)
(0.1494065767 -0.0001349773798 8.935068476e-12)
(0.1125960695 -7.748076127e-05 3.210933919e-12)
(0.07106832285 -2.564134948e-05 6.484156333e-13)
(0.02497925575 -4.55613034e-06 -3.47343581e-14)
(0.257611002 -0.0001288152123 8.042510316e-12)
(0.2466245999 -0.0001798224878 1.146710053e-11)
(0.2301434214 -0.0002073739501 9.555499355e-12)
(0.2083486883 -0.0002013323389 -7.189143081e-12)
(0.1813949318 -0.0001709928821 -2.409868012e-11)
(0.1494318619 -0.000122472052 -3.321996523e-11)
(0.1126109863 -7.141191273e-05 -2.554136425e-11)
(0.07107872168 -2.26517949e-05 -1.533657339e-11)
(0.02498527856 -5.802739071e-06 -4.871921824e-12)
(0.2578355816 -0.0001168221578 2.820977085e-11)
(0.2468182948 -0.0001642640212 5.746529126e-11)
(0.2302994304 -0.0001913859385 1.062384981e-10)
(0.2084685028 -0.0001883035144 -2.322801839e-10)
(0.181484783 -0.0001624905733 -2.913385193e-10)
(0.1494987307 -0.0001183193558 -2.507499879e-10)
(0.1126612221 -7.128157684e-05 -1.093449322e-10)
(0.07111439356 -2.20524581e-05 -4.861196773e-11)
(0.02500154342 -7.81356114e-06 -1.33967289e-11)
(0.2580832724 -0.0001137929888 1.678420144e-11)
(0.24704198 -0.0001612538254 1.88823362e-11)
(0.2304933044 -0.0001899343157 -1.181776045e-11)
(0.2086327424 -0.0001894773088 -1.412812254e-10)
(0.1816228325 -0.0001661793732 -1.897712498e-10)
(0.1496147371 -0.0001229493324 -1.670880948e-10)
(0.112755204 -7.642358294e-05 -1.04687202e-10)
(0.07118036002 -2.32385188e-05 -5.43781876e-11)
(0.02502922443 -1.047548358e-05 -1.560602969e-11)
(0.2583768678 -0.0001188446371 -5.341747021e-13)
(0.2473163987 -0.0001696945679 -1.253413639e-11)
(0.2307432568 -0.0002020450937 -4.686020961e-11)
(0.2088570264 -0.0002043620386 -1.054249196e-10)
(0.1818218004 -0.0001823023021 -1.316534934e-10)
(0.1497875596 -0.0001370053692 -1.190796694e-10)
(0.1128971097 -8.709933358e-05 -8.414776048e-11)
(0.07128000629 -2.596668311e-05 -4.709466766e-11)
(0.02507024269 -1.378290577e-05 -1.388490705e-11)
(0.2587397829 -0.0001312765002 -1.229097706e-11)
(0.2476633125 -0.000188642067 -2.822403507e-11)
(0.231068927 -0.0002266034996 -5.447630583e-11)
(0.2091586982 -0.0002317786331 -8.42871939e-11)
(0.1820967369 -0.0002095258339 -9.684115444e-11)
(0.1500304947 -0.0001594804742 -8.770271925e-11)
(0.1130976827 -0.0001032944951 -6.459384817e-11)
(0.07142035917 -3.06348724e-05 -3.735397252e-11)
(0.02512710235 -1.802129094e-05 -1.116349519e-11)
(0.2591974808 -0.0001507061593 -1.78937474e-11)
(0.2481068008 -0.0002176061645 -3.346589901e-11)
(0.2314925096 -0.0002631039032 -5.232698932e-11)
(0.2095576986 -0.0002713180529 -6.876216866e-11)
(0.1824650126 -0.0002476193549 -7.405365119e-11)
(0.1503579132 -0.0001902455729 -6.621439847e-11)
(0.1133678847 -0.0001248799151 -4.931706707e-11)
(0.07160844516 -3.707043442e-05 -2.889224202e-11)
(0.02520224628 -2.321400012e-05 -8.689234449e-12)
(0.2597778586 -0.0001767801902 -1.952488037e-11)
(0.2486736117 -0.0002560835503 -3.341075671e-11)
(0.232039138 -0.0003109588155 -4.705490877e-11)
(0.2100771505 -0.0003223929173 -5.667166163e-11)
(0.182947309 -0.0002960587406 -5.827992344e-11)
(0.1507875166 -0.0002288961237 -5.126890851e-11)
(0.113721586 -0.0001516169085 -3.817591128e-11)
(0.07185333422 -4.516434418e-05 -2.246425785e-11)
(0.02529895573 -2.94484814e-05 -6.77739333e-12)
(0.2605115411 -0.0002091676091 -1.904626751e-11)
(0.2493933202 -0.0003035907285 -3.106103413e-11)
(0.2327368399 -0.0003695700577 -4.128133914e-11)
(0.2107430153 -0.0003843679953 -4.746800786e-11)
(0.1835668984 -0.0003542368005 -4.741565076e-11)
(0.1513391083 -0.0002749195941 -4.116400889e-11)
(0.1141741529 -0.0001831312066 -3.056783054e-11)
(0.07216494444 -5.471275436e-05 -1.802546165e-11)
(0.02542071325 -3.675020067e-05 -5.45374472e-12)
(0.2614321658 -0.0002474141758 -1.671109507e-11)
(0.2502985954 -0.0003594515099 -2.603929909e-11)
(0.2336167798 -0.0004380703756 -3.346833979e-11)
(0.2115843304 -0.0004562812869 -4.438681907e-11)
(0.1843499142 -0.0004211937147 -4.352628264e-11)
(0.1520349642 -0.0003274957685 -3.673862785e-11)
(0.1147428717 -0.000218833607 -2.681445117e-11)
(0.07255443429 -6.544389975e-05 -1.570058984e-11)
(0.02557145747 -4.512944543e-05 -4.747114016e-12)
(0.262576339 -0.0002908969525 1.541882413e-11)
(0.2514250722 -0.0004227280721 4.831680107e-11)
(0.2347130331 -0.0005152533587 1.326785376e-10)
(0.2126328742 -0.0005367844283 -1.376051203e-10)
(0.1853249155 -0.0004955722751 -7.222652613e-11)
(0.1528993217 -0.000385461246 -4.483903368e-11)
(0.1154464239 -0.0002578849864 -2.836894164e-11)
(0.07303375485 -7.699075379e-05 -1.560205432e-11)
(0.02575534883 -5.455525684e-05 -4.612864394e-12)
(0.2639835742 -0.0003387643812 1.693027784e-11)
(0.2528112555 -0.0004921344638 2.986872659e-11)
(0.2360624454 -0.0005994650046 2.944045219e-11)
(0.2139229865 -0.0006240394726 -5.00412891e-11)
(0.1865226824 -0.0005755411714 -5.102629912e-11)
(0.1539581758 -0.0004472682605 -3.887831386e-11)
(0.1163047177 -0.0002991841253 -2.607480044e-11)
(0.07361555451 -8.889778854e-05 -1.452145428e-11)
(0.02597676797 -6.496369926e-05 -4.297231825e-12)
(0.2656959993 -0.0003898979461 9.535164465e-12)
(0.2544981929 -0.0005659923415 1.121059443e-11)
(0.2377042461 -0.0006885628299 6.119145619e-13)
(0.2154911235 -0.0007156917442 -2.829331228e-11)
(0.1879757301 -0.0006587913353 -3.517497308e-11)
(0.15523879 -0.0005109991885 -3.049228255e-11)
(0.1173384491 -0.0003413856351 -2.194099276e-11)
(0.07431285107 -0.0001006271413 -1.269003001e-11)
(0.02624017697 -7.625163014e-05 -3.818419554e-12)
(0.2677580015 -0.0004428958463 2.975416821e-12)
(0.2565290798 -0.0006422129641 6.666860901e-13)
(0.2396796107 -0.0007799080555 -8.192001129e-12)
(0.2173753781 -0.0008088772869 -2.123848608e-11)
(0.1897178086 -0.000742564058 -2.638421482e-11)
(0.15676922 -0.000574410558 -2.464569935e-11)
(0.1185687047 -0.0003829506137 -1.920670902e-11)
(0.07513876638 -0.0001115883524 -1.190892048e-11)
(0.02655003173 -8.82831871e-05 -3.712387265e-12)
(0.2702157241 -0.0004960808133 -1.295225553e-12)
(0.2589487185 -0.0007183171771 -4.908112445e-12)
(0.2420310717 -0.000870404812 -1.174031018e-11)
(0.2196148469 -0.0009002866121 -1.957979658e-11)
(0.1917832541 -0.0008237315022 -2.42470105e-11)
(0.1585776992 -0.0006350160755 -2.532733853e-11)
(0.120016451 -0.0004222195115 -2.312673618e-11)
(0.07610618297 -0.0001211723986 -1.631610055e-11)
(0.02691065696 -0.0001008944107 -5.100587828e-12)
(0.2731164691 -0.0005475365638 -8.354962679e-12)
(0.2618028824 -0.0007914928153 -1.296992122e-11)
(0.2448018321 -0.0009565910511 -1.881250215e-11)
(0.222248911 -0.0009862820342 -2.620879189e-11)
(0.1942062721 -0.0008989267849 -3.456801847e-11)
(0.1606919805 -0.000690201879 -4.383155276e-11)
(0.1217020067 -0.0004574982768 -5.101563833e-11)
(0.07722740629 -0.0001287888067 -4.008138137e-11)
(0.02732613306 -0.0001139014541 -9.147528474e-12)
(0.2765079729 -0.0005951700109 -4.216045741e-10)
(0.2651375469 -0.0008586949055 -1.567611913e-10)
(0.2480349547 -0.001034772534 -7.439040478e-11)
(0.2253164045 -0.001063053726 -5.836216735e-11)
(0.19702013 -0.0009647090163 -7.057524105e-11)
(0.1631386171 -0.0007373658407 -1.054758438e-10)
(0.1236444769 -0.000487153453 -1.82477154e-10)
(0.07851380464 -0.0001339009876 -1.483760184e-10)
(0.0278001728 -0.0001271081189 3.115900514e-12)
(0.2804375834 -0.0006367857951 -1.87857419e-10)
(0.2689980292 -0.000916771033 -1.321523054e-10)
(0.2517724646 -0.001101184417 -8.878554544e-11)
(0.2288547058 -0.001126806105 -7.489579762e-11)
(0.2002562957 -0.001017752243 -7.97745362e-11)
(0.1659422197 -0.0007740733459 -9.280906833e-11)
(0.125861189 -0.0005097143847 -9.99379906e-11)
(0.07997546392 -0.0001360580795 -7.061478658e-11)
(0.02833600631 -0.0001403115275 -1.671875318e-11)
(0.2849513483 -0.0006701894131 -9.661440258e-11)
(0.2734280374 -0.0009626119443 -9.651009222e-11)
(0.2560543593 -0.001152191451 -8.291675601e-11)
(0.2328987545 -0.001173975202 -7.554058281e-11)
(0.2039435324 -0.001055046145 -7.445184327e-11)
(0.169124708 -0.0007982103709 -7.342260496e-11)
(0.1283671522 -0.0005239670059 -6.453762248e-11)
(0.08162087105 -0.0001349208739 -4.190750599e-11)
(0.02893627842 -0.0001533076803 -1.242249405e-11)
(0.2900929884 -0.0006933245032 -5.875159931e-11)
(0.2784686047 -0.000993339997 -7.158872651e-11)
(0.2609175333 -0.001184518459 -7.133550126e-11)
(0.2374800255 -0.00120145519 -6.821364722e-11)
(0.2081069952 -0.001074083659 -6.437359116e-11)
(0.1727045959 -0.0008081092641 -5.77238139e-11)
(0.1311745635 -0.0005290228489 -4.572392035e-11)
(0.08345663976 -0.0001302800533 -2.817392542e-11)
(0.02960296469 -0.0001658980108 -8.55393235e-12)
(0.29590274 -0.0007044010063 -4.073918854e-11)
(0.2841569277 -0.001006502133 -5.506491347e-11)
(0.2663946573 -0.001195465004 -5.955752791e-11)
(0.2426255086 -0.001206800422 -5.863703731e-11)
(0.2127673761 -0.001073019338 -5.424938136e-11)
(0.1766963458 -0.0008026451277 -4.644524808e-11)
(0.1342923817 -0.0005243625914 -3.504436789e-11)
(0.08548728286 -0.0001220611368 -2.10154689e-11)
(0.03033730399 -0.0001778929281 -6.372502283e-12)
(0.3024161226 -0.0007020005157 -3.08338891e-11)
(0.2905251697 -0.001000228094 -4.40627056e-11)
(0.2725130593 -0.001183081322 -5.019421756e-11)
(0.2483567345 -0.001188387523 -5.08563412e-11)
(0.2179401329 -0.001050790254 -4.711708035e-11)
(0.181109827 -0.0007813034436 -4.051746821e-11)
(0.1377259958 -0.0005098582245 -3.042705641e-11)
(0.08771504866 -0.0001103188955 -1.820466892e-11)
(0.03113975275 -0.0001891124046 -5.542666575e-12)
(0.3096626773 -0.0006851842644 -2.652673863e-11)
(0.2975992573 -0.000973363605 -4.033595918e-11)
(0.2792936422 -0.00114631167 -5.011917014e-11)
(0.2546888816 -0.001145530723 -5.491228896e-11)
(0.223634834 -0.001007182313 -4.666084267e-11)
(0.1859499008 -0.0007442000316 -4.719773793e-11)
(0.1414770053 -0.0004857672359 -3.532719082e-11)
(0.09013983159 -9.522724686e-05 -2.064237566e-11)
(0.03200996531 -0.0001993881189 -6.214808639e-12)
(0.317664677 -0.0006535892416 -3.475766861e-11)
(0.3053976942 -0.0009255782196 -6.187531888e-11)
(0.2867498823 -0.001085089774 -1.008404827e-10)
(0.2616300158 -0.001078535254 -1.702952818e-10)
(0.2298546572 -0.0009428306951 -1.386245775e-11)
(0.191216144 -0.0006920483976 -1.215909312e-10)
(0.1455431019 -0.0004526973339 -6.062043485e-11)
(0.09275914404 -7.706541716e-05 -2.968965511e-11)
(0.03294679713 -0.0002085662875 -8.295999827e-12)
(0.3264358691 -0.0006074750097 -3.726807351e-11)
(0.3139304742 -0.0008574152905 -6.281044824e-11)
(0.2948869858 -0.001000358321 -8.734417648e-11)
(0.26918053 -0.0009886760749 -9.951379446e-11)
(0.236596093 -0.0008591639667 -6.314925625e-11)
(0.196902747 -0.0006260942485 -6.868439509e-11)
(0.1499180744 -0.0004115502309 -4.786921371e-11)
(0.09556816566 -5.618808291e-05 -2.611291695e-11)
(0.03394830311 -0.0002165043788 -7.554631745e-12)
(0.3359803564 -0.0005477086614 -3.42619251e-11)
(0.3231981728 -0.0007702612717 -5.463294287e-11)
(0.3037012555 -0.0008940006219 -6.949793169e-11)
(0.2773327938 -0.0008780957906 -7.259885869e-11)
(0.2438488282 -0.0007582917087 -6.020887265e-11)
(0.2029985475 -0.0005480283172 -5.13262274e-11)
(0.1545919004 -0.0003634591943 -3.664940529e-11)
(0.0985598342 -3.306420245e-05 -2.078094292e-11)
(0.03501180521 -0.0002231035831 -6.125182717e-12)
(0.3462917285 -0.0004757120961 -2.907376799e-11)
(0.3331913091 -0.0006662614456 -4.481788494e-11)
(0.3131797435 -0.000768722727 -5.460942698e-11)
(0.2860710778 -0.0007496690261 -5.596987493e-11)
(0.2515958765 -0.0006428759111 -4.940202109e-11)
(0.2094872829 -0.0004598958621 -4.024270142e-11)
(0.1595510248 -0.0003097309307 -2.865562481e-11)
(0.1017253563 -8.202456704e-06 -1.643147246e-11)
(0.03613350453 -0.0002283313129 -4.880975902e-12)
(0.3573525398 -0.0003933643547 -2.376039154e-11)
(0.3438900484 -0.0005481606541 -3.599644742e-11)
(0.3233002116 -0.0006278487293 -4.306155266e-11)
(0.2953717263 -0.0006067813401 -4.399945357e-11)
(0.2598138687 -0.0005159044082 -3.967129885e-11)
(0.2163478492 -0.0003639260523 -3.232853612e-11)
(0.1647785988 -0.0002513532544 -2.322452772e-11)
(0.1050534473 1.672229838e-05 -1.350920838e-11)
(0.03730959475 -0.0002334440856 -4.05464115e-12)
(0.3691341455 -0.0003028970041 -1.930313758e-11)
(0.3552642432 -0.0004191385307 -2.907568855e-11)
(0.3340313814 -0.0004751297807 -3.470833264e-11)
(0.3052035658 -0.0004531485023 -3.583628468e-11)
(0.2684735219 -0.0003806048365 -3.318599944e-11)
(0.2235547494 -0.0002623686062 -2.797703997e-11)
(0.1702548335 -0.0001900162478 -2.10231844e-11)
(0.1085307441 4.148875295e-05 -1.278006892e-11)
(0.03853609741 -0.0002378785709 -3.920328916e-12)
(0.3815970822 -0.0002067406138 -1.710963545e-11)
(0.3672739551 -0.0002825968385 -2.552846305e-11)
(0.3453335897 -0.000314490729 -3.067805554e-11)
(0.3155286406 -0.0002925643673 -3.272871323e-11)
(0.2775403725 -0.0002401932262 -3.237611003e-11)
(0.2310788066 -0.000157308336 -3.018322699e-11)
(0.1759575626 -0.000127354017 -2.566373482e-11)
(0.1121431084 6.58291018e-05 -1.701632131e-11)
(0.03980783703 -0.0002411202341 -5.131839416e-12)
(0.3946917361 -0.0001073968409 -3.264517152e-11)
(0.379870219 -0.0001419953342 -3.582688102e-11)
(0.3571596136 -0.0001498325096 -3.723691142e-11)
(0.3263029816 -0.0001287120178 -3.934337545e-11)
(0.286975318 -9.772340006e-05 -4.274873357e-11)
(0.2388876446 -5.053577346e-05 -4.746943419e-11)
(0.1818608182 -6.4868612e-05 -5.005410173e-11)
(0.115876853 8.907182513e-05 -3.561810003e-11)
(0.04111950014 -0.0002430460217 -7.275266395e-12)
(0.4083599171 -7.281355439e-06 -3.526335616e-10)
(0.3929965619 -6.350863045e-07 -1.394005343e-10)
(0.3694560419 1.512781664e-05 -7.646837359e-11)
(0.3374778011 3.476194811e-05 -6.245172507e-11)
(0.2967357807 4.40311749e-05 -6.883674978e-11)
(0.2469464452 5.403171206e-05 -9.252983575e-11)
(0.1879383653 -9.964438253e-07 -1.414007402e-10)
(0.1197157675 0.0001134743445 -1.101477808e-10)
(0.04246551553 -0.0002447116935 1.092815278e-11)
(0.422536037 9.13523454e-05 -1.383325346e-10)
(0.4065900922 0.0001383040653 -1.056806205e-10)
(0.3821642612 0.000176809989 -7.889469114e-11)
(0.3490003898 0.0001944732221 -6.841003949e-11)
(0.3067766303 0.0001824372963 -6.875417673e-11)
(0.2552183832 0.0001545096787 -7.421270841e-11)
(0.1941658724 6.294258298e-05 -7.553561937e-11)
(0.1236405398 0.0001385726027 -5.057841793e-11)
(0.04383993963 -0.0002460366657 -1.084871093e-11)
(0.437147847 0.0001863925188 -6.789164828e-11)
(0.4205822429 0.0002719424919 -7.319010218e-11)
(0.3952212415 0.0003319995728 -6.719241548e-11)
(0.3608148621 0.0003475838674 -6.180875584e-11)
(0.3170504551 0.0003149018633 -5.847315864e-11)
(0.2636654333 0.0002512211335 -5.461367659e-11)
(0.2005153914 0.0001238066416 -4.604662568e-11)
(0.1276343414 0.000161662637 -2.912592266e-11)
(0.04523702065 -0.000246132142 -8.510601586e-12)
(0.4521190031 0.0002761628523 -4.031100904e-11)
(0.4349011079 0.0003980362138 -5.148005028e-11)
(0.4085615129 0.0004782565211 -5.305239719e-11)
(0.3728637273 0.0004918396136 -5.067127643e-11)
(0.3275087814 0.0004396057705 -4.639563804e-11)
(0.2722492511 0.0003426205586 -3.998654453e-11)
(0.2069574661 0.0001808686222 -3.065420089e-11)
(0.131681329 0.0001827466682 -1.851487223e-11)
(0.04665101119 -0.0002451119734 -5.571586321e-12)
(0.4673713356 0.0003593639596 -2.663985586e-11)
(0.4494734457 0.0005148570322 -3.677666453e-11)
(0.4221187664 0.0006137034351 -4.018623081e-11)
(0.3850890927 0.0006254953521 -3.907964415e-11)
(0.3381031437 0.0005551625116 -3.500649265e-11)
(0.2809314752 0.0004275600581 -2.870903324e-11)
(0.2134643579 0.0002337333763 -2.074965596e-11)
(0.1357645699 0.0002018013949 -1.20046283e-11)
(0.04807612043 -0.0002431404185 -3.558735244e-12)
(0.4828263905 0.0004350814398 -1.82310412e-11)
(0.4642260118 0.0006211899245 -2.594245342e-11)
(0.4358269911 0.0007370211806 -2.888442787e-11)
(0.3974336047 0.0007473173051 -2.786358498e-11)
(0.3487857569 0.0006605907817 -2.40290945e-11)
(0.2896744244 0.0005052514579 -1.847074536e-11)
(0.2200089048 0.0002821344179 -1.215594295e-11)
(0.1398675437 0.0002187935797 -6.329507403e-12)
(0.04950662453 -0.0002403812932 -1.738259932e-12)
(0.4984070751 0.0005027395109 -1.174642299e-11)
(0.479087003 0.0007162675679 -1.651969585e-11)
(0.4496216735 0.0008473783591 -1.761895264e-11)
(0.4098413922 0.0008565248121 -1.538815575e-11)
(0.3595102181 0.0007552664364 -1.102039121e-11)
(0.2984416038 0.0005752033601 -6.222195905e-12)
(0.226564828 0.0003259841963 -7.956298348e-13)
(0.1439741799 0.000233373284 1.930741144e-12)
(0.05093718956 -0.0002373143783 1.024862394e-12)
(0.5140389971 0.0005620660711 -5.126352736e-12)
(0.4939872351 0.0007997158548 -5.849520174e-12)
(0.4634407762 0.0009443691795 -2.859624006e-12)
(0.4222588403 0.0009527251105 3.920300974e-12)
(0.3702320876 0.000838863513 1.213181952e-11)
(0.3071981238 0.0006371535649 1.140413789e-11)
(0.233107008 0.000365115183 2.203211884e-11)
(0.1480690045 0.0002456643224 2.111310611e-11)
(0.05236295044 -0.0002338714252 7.143394133e-12)
(0.5296516122 0.0006130361678 2.692288473e-12)
(0.5088611555 0.000871493603 8.010850763e-12)
(0.4772255766 0.001027946005 2.009781856e-11)
(0.4346352618 0.001035854919 4.473925582e-11)
(0.3809094122 0.0009113187358 9.282730313e-11)
(0.3159111084 0.0006910345962 1.179435338e-11)
(0.2396118158 0.0003993610474 9.564065721e-11)
(0.1521377365 0.0002560816768 8.571147855e-11)
(0.05377902736 -0.000229684214 2.06756063e-11)
(0.5451790917 0.0006558105011 7.660954736e-12)
(0.5236476025 0.0009318234241 1.485285063e-11)
(0.4909212985 0.001098349953 2.514837203e-11)
(0.4469233982 0.001106126666 3.800374504e-11)
(0.3915030998 0.0009727999642 4.818576601e-11)
(0.32454995 0.0007369493745 3.598366967e-11)
(0.2460572706 0.0004287775736 4.404593266e-11)
(0.1561672084 0.0002646721394 3.489692401e-11)
(0.05518079638 -0.0002248350742 1.09874261e-11)
(0.5605609361 0.0006906909459 9.525775359e-12)
(0.5382903489 0.0009811252285 1.646712154e-11)
(0.5044775767 0.001156045765 2.390139227e-11)
(0.4590797933 0.001163965781 3.041195959e-11)
(0.4019772019 0.001023647249 3.332801235e-11)
(0.333086501 0.000775116224 3.007313852e-11)
(0.2524231524 0.0004534958327 2.69611548e-11)
(0.160145215 0.0002714842749 1.853557294e-11)
(0.0565641443 -0.0002194295455 5.927599344e-12)
(0.575742371 0.0007180970011 9.353979704e-12)
(0.5527384653 0.001019974809 1.529972687e-11)
(0.5178487694 0.001201679619 2.056007542e-11)
(0.471065047 0.001209969323 2.410895836e-11)
(0.4122991143 0.001064340558 2.484547156e-11)
(0.3414952279 0.0008058540774 2.241670718e-11)
(0.2586911198 0.0004737033074 1.802232928e-11)
(0.1640606717 0.000276575764 1.141805859e-11)
(0.05792533888 -0.0002135687161 3.562758947e-12)
(0.5906745684 0.0007385406966 8.188651692e-12)
(0.5669465245 0.001049069135 1.298180908e-11)
(0.5309941269 0.001236033411 1.670053002e-11)
(0.4828439495 0.001244863556 1.871179308e-11)
(0.4224396787 0.001095468873 1.857499076e-11)
(0.3497532837 0.0008295628639 1.633082914e-11)
(0.2648447532 0.0004896324693 1.25106545e-11)
(0.1679036467 0.0002800248158 7.605474049e-12)
(0.05926103677 -0.0002073436614 2.331191894e-12)
(0.6053147034 0.000752590826 6.720251786e-12)
(0.580874648 0.001069184148 1.045450466e-11)
(0.5438778315 0.001259974671 1.309623959e-11)
(0.4943855158 0.00126946323 1.42667434e-11)
(0.43237321 0.001117700296 1.381250131e-11)
(0.3578405269 0.0008467026593 1.188695148e-11)
(0.270869568 0.0005015477708 8.891238722e-12)
(0.1716653726 0.000281924888 5.302564431e-12)
(0.06056828262 -0.0002008357972 1.611241764e-12)
(0.6196258532 0.000760839307 5.331981655e-12)
(0.5944884129 0.001081133195 8.204597703e-12)
(0.5564689263 0.001274417035 1.012152846e-11)
(0.5056629323 0.00128463627 1.085254939e-11)
(0.4420774556 0.001131752629 1.036431956e-11)
(0.365739491 0.0008577737985 8.824953329e-12)
(0.2767529951 0.0005097370177 6.544961543e-12)
(0.1753382393 0.0002823818901 3.884014693e-12)
(0.06184450962 -0.0001941176457 1.179015232e-12)
(0.6335767807 0.0007638816287 4.238846269e-12)
(0.6077586647 0.001085738879 6.502979358e-12)
(0.5687411597 0.001280293297 7.997582608e-12)
(0.516653431 0.001291275057 8.56952409e-12)
(0.4515334982 0.001138368433 8.21225346e-12)
(0.3734353145 0.0008633003281 7.046717476e-12)
(0.2824843343 0.0005145055936 5.282501647e-12)
(0.1789157676 0.0002815128684 3.17199291e-12)
(0.06308753258 -0.0001872533093 9.717658888e-13)
(0.6471416444 0.0007623052071 3.638662576e-12)
(0.6206612621 0.001083815916 5.641674518e-12)
(0.5806727656 0.001278531052 7.070366353e-12)
(0.5273381091 0.001290271968 7.789299263e-12)
(0.4607256159 0.001138296285 7.73256708e-12)
(0.3809156379 0.0008638174166 6.895232764e-12)
(0.2880546834 0.0005161699852 5.361464199e-12)
(0.1823925659 0.0002794427157 3.319540537e-12)
(0.06429553283 -0.000180299182 1.037303509e-12)
(0.6602996546 0.0007566773351 3.898991344e-12)
(0.6331767632 0.00107615414 6.249542411e-12)
(0.5922461929 0.001270031624 8.259993751e-12)
(0.5377017079 0.001282501548 9.731359873e-12)
(0.4696411084 0.001132276994 1.035512956e-11)