/*--------------------------------*- C++ -*----------------------------------*\
| =========                 |                                                 |
| \\      /  F ield         | OpenFOAM: The Open Source CFD Toolbox           |
|  \\    /   O peration     | Version:  2212                                  |
|   \\  /    A nd           | Website:  www.openfoam.com                      |
|    \\/     M anipulation  |                                                 |
\*---------------------------------------------------------------------------*/
FoamFile
{
    version     2.0;
    format      ascii;
    arch        "LSB;label=32;scalar=64";
    class       volScalarField;
    location    "20.00000000";
    object      A1C2H3_0;
}
// * * * * * * * * * * * * * * * * * * * * * * * * * * * * * * * * * * * * * //

dimensions      [0 0 0 0 0 0 0];

internalField   nonuniform List<scalar> 
3000
(
1.069108177e-26
1.201082729e-26
1.400234429e-26
1.665627109e-26
1.994566759e-26
2.378123742e-26
2.793191948e-26
3.189255757e-26
3.469329059e-26
4.014161227e-26
4.527880861e-26
5.30276021e-26
6.337670895e-26
7.63160033e-26
9.17738897e-26
1.094820379e-25
1.285468206e-25
1.454348332e-25
8.99240727e-26
1.022289653e-25
1.209664846e-25
1.464083829e-25
1.790125927e-25
2.192525531e-25
2.669700646e-25
3.194867464e-25
3.643708234e-25
1.713033535e-25
1.967846255e-25
2.361557614e-25
2.907499745e-25
3.625026526e-25
4.532385145e-25
5.624637288e-25
6.8143638e-25
7.774675602e-25
3.042350647e-25
3.537802921e-25
4.315381296e-25
5.414609836e-25
6.887222174e-25
8.774531674e-25
1.104504614e-24
1.345636502e-24
1.530746884e-24
5.232391208e-25
6.162419449e-25
7.642970045e-25
9.768588497e-25
1.265273708e-24
1.636807727e-24
2.080372333e-24
2.540035251e-24
2.880124612e-24
8.884231165e-25
1.059285106e-24
1.334459119e-24
1.733988959e-24
2.28013872e-24
2.983784376e-24
3.815838491e-24
4.661267925e-24
5.271328929e-24
1.503764643e-24
1.813028548e-24
2.315534462e-24
3.050785643e-24
4.059823674e-24
5.357213063e-24
6.877891934e-24
8.400522778e-24
9.480923368e-24
2.549440541e-24
3.103297946e-24
4.009058734e-24
5.341064988e-24
7.172336026e-24
9.52053999e-24
1.22530715e-23
1.496064178e-23
1.686061614e-23
4.33745134e-24
5.321532265e-24
6.938247874e-24
9.323486539e-24
1.260479913e-23
1.680134574e-23
2.165768027e-23
2.643435445e-23
2.976134485e-23
7.408416123e-24
9.146599531e-24
1.201130742e-23
1.624638063e-23
2.207270385e-23
2.950746757e-23
3.807566644e-23
4.646009973e-23
5.227060015e-23
1.269926921e-23
1.575579537e-23
2.080436466e-23
2.827748875e-23
3.855647495e-23
5.164976216e-23
6.669367016e-23
8.136192928e-23
9.149199607e-23
2.183436203e-23
2.719128698e-23
3.605297639e-23
4.918102174e-23
6.723333912e-23
9.019679932e-23
1.16523742e-22
1.421281654e-22
1.597682513e-22
3.763052993e-23
4.699593718e-23
6.250509962e-23
8.549291434e-23
1.170953352e-22
1.572539996e-22
2.032220865e-22
2.478478584e-22
2.785400276e-22
6.497371122e-23
8.131708389e-23
1.084020343e-22
1.485614278e-22
2.037585804e-22
2.738468392e-22
3.539824091e-22
4.316769159e-22
4.85046811e-22
1.123405489e-22
1.408225824e-22
1.880494402e-22
2.580901215e-22
3.543412307e-22
4.764902946e-22
6.160330895e-22
7.511973098e-22
8.439592762e-22
1.944398748e-22
2.440273382e-22
3.262813025e-22
4.482895316e-22
6.15932881e-22
8.285943451e-22
1.071388424e-21
1.306398042e-21
1.467572669e-21
3.367988402e-22
4.230691528e-22
5.662111236e-22
7.785592227e-22
1.070301171e-21
1.440267963e-21
1.862458524e-21
2.270892584e-21
2.55086374e-21
5.83725989e-22
7.337381292e-22
9.826918924e-22
1.35203722e-21
1.859429024e-21
2.50270613e-21
3.236517217e-21
3.946121691e-21
4.432341628e-21
1.012138193e-21
1.272891956e-21
1.705688007e-21
2.347807217e-21
3.229849599e-21
4.347879955e-21
5.622880461e-21
6.855401376e-21
7.69964218e-21
1.75556926e-21
2.208695566e-21
2.9608561e-21
4.076813196e-21
5.609600062e-21
7.552114696e-21
9.766786341e-21
1.190705752e-20
1.337276178e-20
3.045854014e-21
3.833123642e-21
5.139997054e-21
7.078915604e-21
9.741758762e-21
1.311575681e-20
1.696152035e-20
2.067711163e-20
2.322108607e-20
5.285488744e-21
6.653100839e-21
8.923343114e-21
1.229131835e-20
1.691609585e-20
2.277469543e-20
2.945065049e-20
3.589878581e-20
4.031251924e-20
9.173186286e-21
1.154862712e-20
1.549167596e-20
2.134062312e-20
2.937059388e-20
3.954007019e-20
5.112454373e-20
6.230985208e-20
6.996377873e-20
1.592166343e-20
2.004705316e-20
2.689418251e-20
3.704908348e-20
5.098692672e-20
6.863216375e-20
8.872425506e-20
1.081155788e-19
1.213794494e-19
2.763508991e-20
3.479837033e-20
4.668568573e-20
6.431102133e-20
8.849334353e-20
1.190937804e-19
1.539187018e-19
1.875098497e-19
2.104743629e-19
4.796244284e-20
6.039771826e-20
8.102881631e-20
1.116074478e-19
1.535412011e-19
2.065715293e-19
2.668796309e-19
3.250070614e-19
3.647173439e-19
8.322683648e-20
1.048066371e-19
1.40597223e-19
1.936185822e-19
2.662810813e-19
3.58096427e-19
4.624135054e-19
5.628574006e-19
6.314107168e-19
1.443736918e-19
1.818035637e-19
2.438539295e-19
3.35717506e-19
4.615019388e-19
6.202712324e-19
8.004354234e-19
9.736808574e-19
1.091771075e-18
2.503232642e-19
3.151976554e-19
4.22681467e-19
5.816728352e-19
7.991282654e-19
1.073228186e-18
1.383767088e-18
1.681869313e-18
1.884729716e-18
4.337225749e-19
5.460508107e-19
7.32014715e-19
1.006795717e-18
1.38208133e-18
1.854291771e-18
2.388191201e-18
2.899592905e-18
3.246869261e-18
7.507788341e-19
9.450063505e-19
1.266248008e-18
1.740263891e-18
2.386492327e-18
3.197828302e-18
4.112827388e-18
4.986889081e-18
5.578869648e-18
1.298000601e-18
1.633237166e-18
2.187031989e-18
3.00279859e-18
4.112456882e-18
5.501835336e-18
7.063848432e-18
8.55101847e-18
9.554997583e-18
2.240563467e-18
2.817848286e-18
3.770077316e-18
5.1698062e-18
7.068619193e-18
9.438228573e-18
1.209225678e-17
1.460905437e-17
1.63015988e-17
3.860113937e-18
4.851343075e-18
6.483410702e-18
8.876351885e-18
1.211187017e-17
1.613369234e-17
2.061820547e-17
2.485095258e-17
2.768471856e-17
6.634851038e-18
8.330830172e-18
1.111719723e-17
1.51901291e-17
2.067578218e-17
2.746302614e-17
3.499200377e-17
4.20600828e-17
4.676791167e-17
1.137279917e-17
1.426229025e-17
1.899725823e-17
2.589369988e-17
3.514012945e-17
4.65194421e-17
5.906800642e-17
7.077706451e-17
7.853177889e-17
1.943201554e-17
2.433035394e-17
3.233297785e-17
4.394023183e-17
5.942180986e-17
7.83593999e-17
9.910546738e-17
1.183343841e-16
1.309905676e-16
3.308162303e-17
4.133748395e-17
5.47785651e-17
7.418129218e-17
9.990861962e-17
1.311676148e-16
1.651648189e-16
1.964486721e-16
2.169035083e-16
5.608879787e-17
6.991227938e-17
9.232909215e-17
1.245158932e-16
1.669170287e-16
2.180567378e-16
2.732451378e-16
3.23641596e-16
3.563666372e-16
9.466462143e-17
1.176406163e-16
1.547356018e-16
2.076836884e-16
2.769407599e-16
3.598140111e-16
4.485176876e-16
5.28878665e-16
5.806946953e-16
1.589737384e-16
1.968535911e-16
2.577154839e-16
3.44031308e-16
4.560787846e-16
5.890452056e-16
7.301637531e-16
8.569811958e-16
9.381762305e-16
2.655197506e-16
3.274238833e-16
4.263670825e-16
5.657320903e-16
7.452034196e-16
9.563600015e-16
1.178539724e-15
1.376598734e-15
1.50252748e-15
4.408748103e-16
5.410923723e-16
7.003872741e-16
9.231535357e-16
1.207671066e-15
1.539514352e-15
1.885692281e-15
2.191852808e-15
2.38520843e-15
7.2744763e-16
8.880902031e-16
1.141959617e-15
1.494367926e-15
1.940716726e-15
2.456804154e-15
2.990664225e-15
3.459212826e-15
3.753233743e-15
1.192305496e-15
1.44716581e-15
1.847558773e-15
2.399223029e-15
3.092145813e-15
3.8865316e-15
4.701611375e-15
5.411788541e-15
5.854761097e-15
1.940518446e-15
2.340609546e-15
2.965445541e-15
3.819977377e-15
4.884593568e-15
6.09509662e-15
7.327553507e-15
8.394085109e-15
9.05563665e-15
3.135126072e-15
3.756542408e-15
4.721362769e-15
6.031320776e-15
7.650532528e-15
9.477276247e-15
1.132368911e-14
1.291145315e-14
1.389131209e-14
5.026706608e-15
5.981671744e-15
7.455963788e-15
9.443731303e-15
1.188246606e-14
1.461364748e-14
1.735572677e-14
1.970009695e-14
2.114024137e-14
7.996748572e-15
9.449016881e-15
1.167892163e-14
1.466568426e-14
1.830447975e-14
2.235202319e-14
2.6390774e-14
2.982574357e-14
3.192718534e-14
1.26207203e-14
1.48069136e-14
1.814663215e-14
2.259239031e-14
2.797370446e-14
3.392238597e-14
3.982517075e-14
4.482210097e-14
4.78680456e-14
1.975909124e-14
2.301812668e-14
2.797316622e-14
3.453175311e-14
4.242353035e-14
5.109837599e-14
5.966355114e-14
6.688442621e-14
7.127217234e-14
3.068783921e-14
3.550143027e-14
4.278770668e-14
5.238173438e-14
6.386438329e-14
7.642318687e-14
8.876888039e-14
9.91395117e-14
1.054241674e-13
4.728123287e-14
5.432884051e-14
6.495400739e-14
7.887888361e-14
9.546538187e-14
1.135257724e-13
1.312112984e-13
1.460211661e-13
1.549752805e-13
7.227299227e-14
8.25075446e-14
9.788213321e-14
1.179471951e-13
1.417462829e-13
1.675586899e-13
1.927502494e-13
2.137889608e-13
2.264842285e-13
1.096227733e-13
1.24373749e-13
1.464625559e-13
1.751835595e-13
2.091221825e-13
2.458055699e-13
2.815020358e-13
3.112453519e-13
3.291639912e-13
1.650288889e-13
1.861426592e-13
2.176708281e-13
2.585319103e-13
3.066579049e-13
3.5852051e-13
4.088606473e-13
4.507236933e-13
4.759101107e-13
2.466430297e-13
2.766736647e-13
3.214068193e-13
3.792165099e-13
4.471098918e-13
5.20085024e-13
5.907649716e-13
6.494464152e-13
6.847134651e-13
3.660629533e-13
4.085313093e-13
4.716558618e-13
5.530303065e-13
6.483614487e-13
7.505989261e-13
8.494388692e-13
9.313882615e-13
9.805974075e-13
5.397066342e-13
5.994517435e-13
6.880906012e-13
8.021087172e-13
9.353950637e-13
1.078063054e-12
1.21577566e-12
1.329827422e-12
1.398269113e-12
7.907084453e-13
8.743635705e-13
9.982747124e-13
1.157365568e-12
1.342996562e-12
1.541367784e-12
1.732599479e-12
1.890832406e-12
1.985742082e-12
1.15152769e-12
1.268164605e-12
1.440686454e-12
1.661830126e-12
1.919454335e-12
2.194376487e-12
2.459117659e-12
2.67801961e-12
2.809277348e-12
1.667526203e-12
1.829526281e-12
2.068855893e-12
2.375207227e-12
2.73160839e-12
3.111493593e-12
3.476987556e-12
3.779033128e-12
3.960112114e-12
2.401859868e-12
2.626090652e-12
2.957010306e-12
3.380092739e-12
3.87172528e-12
4.395240182e-12
4.898566186e-12
5.3143532e-12
5.563605321e-12
3.442145028e-12
3.751547589e-12
4.207754601e-12
4.790421273e-12
5.466834127e-12
6.186534792e-12
6.878101063e-12
7.449242554e-12
7.791640369e-12
4.909511999e-12
5.33523939e-12
5.962485446e-12
6.762910644e-12
7.691364958e-12
8.678602904e-12
9.62686567e-12
1.040990105e-11
1.087939622e-11
6.970852129e-12
7.555144483e-12
8.415457493e-12
9.512506674e-12
1.078419215e-11
1.213572414e-11
1.343355153e-11
1.450522663e-11
1.514793724e-11
9.855310272e-12
1.065534966e-11
1.183269572e-11
1.333313012e-11
1.507150971e-11
1.691837692e-11
1.869160509e-11
2.015597767e-11
2.10344815e-11
1.387637842e-11
1.49694376e-11
1.657728462e-11
1.862538814e-11
2.099735242e-11
2.35167549e-11
2.593563695e-11
2.793359054e-11
2.913267744e-11
1.946131134e-11
2.095159474e-11
2.314296173e-11
2.593333144e-11
2.916401892e-11
3.259509374e-11
3.58895141e-11
3.86114029e-11
4.024572224e-11
2.719000693e-11
2.921767645e-11
3.219838839e-11
3.599279815e-11
4.038512601e-11
4.504972955e-11
4.952923336e-11
5.323152158e-11
5.545564258e-11
3.78459549e-11
4.05989311e-11
4.46449376e-11
4.979435189e-11
5.575448305e-11
6.208425668e-11
6.816410177e-11
7.319098057e-11
7.62124505e-11
5.248232298e-11
5.621154074e-11
6.16912792e-11
6.866423545e-11
7.673435274e-11
8.530548262e-11
9.354002671e-11
1.003510631e-10
1.04447083e-10
7.250666058e-11
7.754552089e-11
8.49483843e-11
9.436704321e-11
1.052668679e-10
1.1684399e-10
1.279687356e-10
1.371735938e-10
1.427119128e-10
9.978797291e-11
1.065767454e-10
1.16548718e-10
1.292338602e-10
1.439122936e-10
1.595028956e-10
1.744863848e-10
1.868875275e-10
1.943520645e-10
1.367899497e-10
1.459058181e-10
1.592932343e-10
1.76319314e-10
1.960173513e-10
2.169377381e-10
2.370441805e-10
2.536881778e-10
2.637097017e-10
1.867338059e-10
1.989270898e-10
2.168292173e-10
2.395902362e-10
2.659158623e-10
2.938692525e-10
3.207322593e-10
3.429698865e-10
3.563617927e-10
2.537934042e-10
2.700302158e-10
2.938609529e-10
3.241473684e-10
3.591624922e-10
3.963290955e-10
4.320361841e-10
4.615908805e-10
4.793897541e-10
3.433240156e-10
3.648352245e-10
3.963936248e-10
4.36479778e-10
4.827984119e-10
5.319364424e-10
5.791231134e-10
6.181667276e-10
6.416770409e-10
4.621242278e-10
4.90460125e-10
5.320087678e-10
5.847494447e-10
6.456453506e-10
7.102008931e-10
7.721521873e-10
8.23386213e-10
8.542278884e-10
6.187282274e-10
6.558177452e-10
7.101671976e-10
7.791009826e-10
8.586219847e-10
9.428447028e-10
1.023601302e-09
1.090340907e-09
1.130498235e-09
8.237231315e-10
8.71935911e-10
9.425327716e-10
1.031989003e-09
1.135074366e-09
1.244135219e-09
1.348600131e-09
1.434858008e-09
1.486728148e-09
1.090083451e-09
1.152292613e-09
1.243308162e-09
1.358513817e-09
1.491110161e-09
1.631216317e-09
1.76525809e-09
1.875824834e-09
1.942263903e-09
1.43351265e-09
1.513156066e-09
1.629571834e-09
1.776753658e-09
1.945924726e-09
2.124427158e-09
2.294975398e-09
2.435492988e-09
2.519857809e-09
1.872780185e-09
1.973917194e-09
2.121603918e-09
2.308081667e-09
2.522107276e-09
2.747596493e-09
2.962725554e-09
3.139750875e-09
3.24593464e-09
2.43004087e-09
2.557402252e-09
2.743188688e-09
2.977455561e-09
3.245915624e-09
3.528301445e-09
3.797298866e-09
4.018354687e-09
4.150815154e-09
3.131124334e-09
3.290153462e-09
3.52188236e-09
3.813669145e-09
4.147509215e-09
4.498081412e-09
4.831498484e-09
5.105110058e-09
5.268889256e-09
4.005783705e-09
4.202667051e-09
4.48923584e-09
4.84955628e-09
5.261132198e-09
5.692599917e-09
6.102282744e-09
6.437998933e-09
6.638733886e-09
5.087893705e-09
5.329579604e-09
5.680964429e-09
6.122140346e-09
6.625240706e-09
7.151749675e-09
7.650850145e-09
8.059248804e-09
8.303173189e-09
6.41559125e-09
6.70979648e-09
7.137059053e-09
7.672724826e-09
8.282571097e-09
8.919698759e-09
9.522665786e-09
1.001534387e-08
1.030928094e-08
8.031354428e-09
8.386558715e-09
8.901836327e-09
9.546923313e-09
1.028014849e-08
1.104487818e-08
1.176743041e-08
1.235697988e-08
1.270832736e-08
9.982018521e-09
1.040744768e-08
1.102392742e-08
1.179462975e-08
1.266923729e-08
1.357991335e-08
1.443899522e-08
1.513896625e-08
1.555567411e-08
1.231873045e-08
1.282432927e-08
1.355620814e-08
1.4469932e-08
1.550523737e-08
1.658150369e-08
1.75952271e-08
1.842008057e-08
1.891062273e-08
1.509684536e-08
1.569324168e-08
1.655567457e-08
1.763097344e-08
1.884753119e-08
2.011025597e-08
2.129783021e-08
2.226288129e-08
2.283622251e-08
1.837577076e-08
1.907423234e-08
2.008327029e-08
2.133976893e-08
2.275928813e-08
2.423047783e-08
2.561213031e-08
2.673348536e-08
2.739904438e-08
2.221876511e-08
2.303115096e-08
2.420367189e-08
2.566198187e-08
2.730723293e-08
2.900993829e-08
3.060682867e-08
3.190131731e-08
3.266892737e-08
2.66926983e-08
2.763140613e-08
2.898504033e-08
3.066666965e-08
3.256138534e-08
3.451960213e-08
3.635373213e-08
3.783883625e-08
3.871870396e-08
3.186778179e-08
3.294569296e-08
3.449874544e-08
3.642600467e-08
3.859477777e-08
4.083334461e-08
4.292746559e-08
4.462124677e-08
4.562391021e-08
3.781727584e-08
3.90476992e-08
4.081907059e-08
4.301497758e-08
4.548315724e-08
4.802765253e-08
5.040517241e-08
5.232619908e-08
5.346248578e-08
4.461718086e-08
4.601379653e-08
4.802290394e-08
5.05110887e-08
5.330467727e-08
5.618131667e-08
5.886620765e-08
6.10334829e-08
6.231446819e-08
5.234591897e-08
5.392272282e-08
5.618942186e-08
5.899403291e-08
6.213958444e-08
6.53751202e-08
6.839182809e-08
7.082471881e-08
7.226168504e-08
6.108401095e-08
6.285526044e-08
6.539976918e-08
6.854538224e-08
7.206990355e-08
7.569152641e-08
7.906488237e-08
8.178305028e-08
8.338744701e-08
7.091375286e-08
7.289391462e-08
7.573673996e-08
7.924826957e-08
8.317912456e-08
8.72143688e-08
9.096950384e-08
9.399283858e-08
9.577624406e-08
8.191889571e-08
8.412259512e-08
8.728446191e-08
9.118707635e-08
9.555189372e-08
1.000285456e-07
1.04190808e-07
1.075393626e-07
1.095134465e-07
9.418433059e-08
9.66263034e-08
1.001280865e-07
1.044471262e-07
1.092737108e-07
1.142197204e-07
1.188145965e-07
1.225085252e-07
1.246850125e-07
1.077957814e-07
1.104908275e-07
1.143534869e-07
1.191143859e-07
1.24430634e-07
1.298740309e-07
1.349270686e-07
1.389865667e-07
1.413772034e-07
1.228395062e-07
1.258024457e-07
1.30046964e-07
1.352751758e-07
1.411089935e-07
1.470778057e-07
1.526145411e-07
1.57059788e-07
1.596763077e-07
1.394020091e-07
1.426476398e-07
1.472949636e-07
1.530158891e-07
1.593951148e-07
1.659172914e-07
1.719631791e-07
1.768142828e-07
1.796683746e-07
1.575697623e-07
1.611128201e-07
1.66183803e-07
1.72422723e-07
1.793750535e-07
1.864783906e-07
1.930587366e-07
1.983356813e-07
2.014389597e-07
1.774289405e-07
1.812840613e-07
1.867994106e-07
1.935814209e-07
2.011343408e-07
2.088464114e-07
2.159863096e-07
2.217089057e-07
2.250728814e-07
1.990651673e-07
2.032468509e-07
2.092270771e-07
2.165770276e-07
2.247577427e-07
2.331058305e-07
2.408301025e-07
2.470179391e-07
2.506539915e-07
2.225632758e-07
2.270858522e-07
2.33551221e-07
2.41493658e-07
2.50329033e-07
2.593400697e-07
2.67673208e-07
2.743456088e-07
2.782649603e-07
2.480070823e-07
2.5288468e-07
2.598551681e-07
2.684142809e-07
2.779307806e-07
2.876312874e-07
2.965974034e-07
3.037733849e-07
3.07987077e-07
2.754791763e-07
2.807256932e-07
2.882209466e-07
2.974205174e-07
3.07644153e-07
3.180601875e-07
3.276829621e-07
3.353811957e-07
3.399000668e-07
3.050607261e-07
3.106898022e-07
3.187290986e-07
3.285924574e-07
3.395487368e-07
3.507058435e-07
3.610084832e-07
3.692472604e-07
3.740819258e-07
3.368313011e-07
3.428562944e-07
3.514585089e-07
3.62008492e-07
3.737223755e-07
3.856455414e-07
3.966507388e-07
4.054479403e-07
4.106087742e-07
3.708687119e-07
3.773026767e-07
3.864862512e-07
3.97745165e-07
4.102410256e-07
4.229546417e-07
4.3468454e-07
4.44057608e-07
4.495547278e-07
4.072488691e-07
4.141045365e-07
4.238874533e-07
4.35877042e-07
4.491786313e-07
4.627064582e-07
4.751826212e-07
4.851485364e-07
4.909917889e-07
4.460456597e-07
4.533354217e-07
4.637351805e-07
4.764765994e-07
4.906070182e-07
5.049721581e-07
5.182155446e-07
5.287908059e-07
5.349897565e-07
4.873308431e-07
4.950667391e-07
5.061003381e-07
5.19614131e-07
5.345958057e-07
5.498206788e-07
5.638516223e-07
5.750522312e-07
5.816161545e-07
5.311739656e-07
5.393676714e-07
5.510515923e-07
5.65357674e-07
5.81212338e-07
5.973186646e-07
6.121568572e-07
6.239983061e-07
6.309361789e-07
5.776422931e-07
5.863051127e-07
5.986553099e-07
6.137729531e-07
6.30521633e-07
6.475304204e-07
6.63194902e-07
6.756921652e-07
6.830126622e-07
6.268007616e-07
6.35943622e-07
6.489755149e-07
6.649233417e-07
6.825863488e-07
7.005178835e-07
7.170270345e-07
7.301945637e-07
7.379060545e-07
6.787119455e-07
6.883453934e-07
7.020738624e-07
7.188698401e-07
7.374667661e-07
7.563406101e-07
7.737121494e-07
7.875638717e-07
7.956744201e-07
7.334360414e-07
7.435702428e-07
7.580096286e-07
7.756710692e-07
7.952207863e-07
8.150557779e-07
8.333067638e-07
8.478560835e-07
8.563734487e-07
7.910308674e-07
8.016756088e-07
8.16839715e-07
8.353832782e-07
8.559039437e-07
8.767182025e-07
8.958650376e-07
9.111248402e-07
9.20056479e-07
8.515518765e-07
8.627165684e-07
8.78618666e-07
8.980603666e-07
9.195694299e-07
9.413803649e-07
9.614388046e-07
9.774214635e-07
9.867745346e-07
9.15052182e-07
9.267458642e-07
9.433987e-07
9.637539165e-07
9.862681308e-07
1.009092452e-06
1.030077615e-06
1.046795e-06
1.05657637e-06
9.81582595e-07
9.938139433e-07
1.011229749e-06
1.032513237e-06
1.056048672e-06
1.079902405e-06
1.101828787e-06
1.119292277e-06
1.129508525e-06
1.051191672e-06
1.063969006e-06
1.08215951e-06
1.104385415e-06
1.128957476e-06
1.153855978e-06
1.176737466e-06
1.19495796e-06
1.205615387e-06
1.123925768e-06
1.137257062e-06
1.156233504e-06
1.179415378e-06
1.205038821e-06
1.2309968e-06
1.254846692e-06
1.273834623e-06
1.28493926e-06
1.199829105e-06
1.213721994e-06
1.233495138e-06
1.257645961e-06
1.284334913e-06
1.311366447e-06
1.336197471e-06
1.355962821e-06
1.367520437e-06
1.278943833e-06
1.29340563e-06
1.313985779e-06
1.339117973e-06
1.366885955e-06
1.395004518e-06
1.420828848e-06
1.441381166e-06
1.453397276e-06
1.36131011e-06
1.376347813e-06
1.397744829e-06
1.423870282e-06
1.452730229e-06
1.481948708e-06
1.508777989e-06
1.530126405e-06
1.542606284e-06
1.446966176e-06
1.462586481e-06
1.484809799e-06
1.511939884e-06
1.541904172e-06
1.572234892e-06
1.60008026e-06
1.622233503e-06
1.635182193e-06
1.535948433e-06
1.552157747e-06
1.575216395e-06
1.60336199e-06
1.634442457e-06
1.665897207e-06
1.694769309e-06
1.717735726e-06
1.731158045e-06
1.628291527e-06
1.645095979e-06
1.668998594e-06
1.698170108e-06
1.730378074e-06
1.76296813e-06
1.79287715e-06
1.81666472e-06
1.830565275e-06
1.724028427e-06
1.741433884e-06
1.766188728e-06
1.79639612e-06
1.829742418e-06
1.863478563e-06
1.89443424e-06
1.919050594e-06
1.933433789e-06
1.823190512e-06
1.841202586e-06
1.866817568e-06
1.898070366e-06
1.93256536e-06
1.967457915e-06
1.999469565e-06
2.024922002e-06
2.039792049e-06
1.925807644e-06
1.94443171e-06
1.9709144e-06
2.003221726e-06
2.038875336e-06
2.074934176e-06
2.108010716e-06
2.134306219e-06
2.149667147e-06
2.031908256e-06
2.05114946e-06
2.078507107e-06
2.111877694e-06
2.14869942e-06
2.185934e-06
2.220083965e-06
2.247229219e-06
2.263084886e-06
2.141519423e-06
2.161382695e-06
2.189622244e-06
2.224064461e-06
2.262063402e-06
2.300482778e-06
2.335714343e-06
2.363715751e-06
2.38006985e-06
2.254666944e-06
2.275157009e-06
2.304285117e-06
2.339806982e-06
2.378991858e-06
2.418604711e-06
2.45492571e-06
2.483789406e-06
2.500645475e-06
2.371375408e-06
2.392496799e-06
2.422519848e-06
2.459129053e-06
2.499508226e-06
2.54032288e-06
2.577740826e-06
2.607472692e-06
2.624834121e-06
2.491668271e-06
2.513425335e-06
2.544349452e-06
2.582053376e-06
2.623634872e-06
2.665659312e-06
2.704181412e-06
2.73478709e-06
2.752657135e-06
2.61556792e-06
2.637964833e-06
2.669795898e-06
2.708601627e-06
2.751393151e-06
2.794635046e-06
2.834268219e-06
2.865753129e-06
2.884134912e-06
2.743095735e-06
2.766136509e-06
2.798880176e-06
2.838794517e-06
2.882803473e-06
2.927270191e-06
2.968021088e-06
3.000390433e-06
3.019286956e-06
2.874272158e-06
2.897960651e-06
2.931622351e-06
2.972651853e-06
3.017885359e-06
3.063583985e-06
3.105458999e-06
3.138717784e-06
3.158131932e-06
3.009116742e-06
3.033456666e-06
3.06804163e-06
3.110192592e-06
3.156657498e-06
3.20359485e-06
3.246600133e-06
3.280753175e-06
3.300687723e-06
3.147648211e-06
3.17264314e-06
3.208156403e-06
3.251434893e-06
3.299137798e-06
3.347320441e-06
3.391461918e-06
3.426513854e-06
3.446971477e-06
3.289884507e-06
3.315537888e-06
3.351984304e-06
3.396396169e-06
3.445343431e-06
3.494777695e-06
3.540061077e-06
3.576016377e-06
3.59699965e-06
3.435842845e-06
3.462157999e-06
3.499542249e-06
3.54509313e-06
3.595290883e-06
3.645982873e-06
3.692413669e-06
3.729276645e-06
3.750788053e-06
3.585539755e-06
3.61251989e-06
3.650846492e-06
3.697541831e-06
3.748995997e-06
3.800951605e-06
3.848535133e-06
3.886309948e-06
3.90835189e-06
3.738991128e-06
3.766639341e-06
3.805912659e-06
3.853757715e-06
3.906474011e-06
3.95969893e-06
4.008440327e-06
4.047131001e-06
4.069705794e-06
3.896212252e-06
3.924531538e-06
3.964755788e-06
4.013755645e-06
4.067739599e-06
4.122239331e-06
4.172143562e-06
4.211753982e-06
4.234863867e-06
4.057217847e-06
4.086211101e-06
4.127390365e-06
4.177549938e-06
4.232806899e-06
4.288586766e-06
4.339658637e-06
4.380192564e-06
4.403839708e-06
4.222022099e-06
4.251692124e-06
4.293830351e-06
4.345154401e-06
4.401689545e-06
4.458754703e-06
4.510998864e-06
4.55245994e-06
4.576646441e-06
4.390638693e-06
4.420988205e-06
4.464089221e-06
4.516582359e-06
4.574400702e-06
4.632756143e-06
4.686177102e-06
4.728568853e-06
4.753296746e-06
4.563080844e-06
4.594112473e-06
4.638179987e-06
4.691846681e-06
4.750953085e-06
4.810603649e-06
4.865205775e-06
4.908531622e-06
4.933802876e-06
4.739361317e-06
4.771077617e-06
4.816115224e-06
4.87095981e-06
4.93135899e-06
4.992309371e-06
5.0480969e-06
5.09236016e-06
5.118176686e-06
4.919492458e-06
4.951895905e-06
4.997907095e-06
5.053933777e-06
5.115630307e-06
5.177885061e-06
5.234862103e-06
5.280065994e-06
5.306429648e-06
5.103486211e-06
5.136579208e-06
5.183567367e-06
5.240780227e-06
5.303778548e-06
5.367342094e-06
5.425512641e-06
5.471660286e-06
5.498572867e-06
5.291354136e-06
5.325139017e-06
5.373107433e-06
5.431510433e-06
5.495814856e-06
5.560691486e-06
5.62005941e-06
5.667153841e-06
5.694617095e-06
5.48310743e-06
5.517586459e-06
5.566538324e-06
5.626135312e-06
5.691750021e-06
5.757943901e-06
5.818512962e-06
5.866557121e-06
5.894572745e-06
5.678756931e-06
5.713932309e-06
5.763870721e-06
5.824665432e-06
5.891594489e-06
5.959109662e-06
6.020883509e-06
6.069880253e-06
6.098449892e-06
5.878313138e-06
5.914186999e-06
5.965114967e-06
6.027111024e-06
6.095358371e-06
6.164198759e-06
6.22718093e-06
6.277133026e-06
6.306258276e-06
6.081786209e-06
6.118360624e-06
6.170281066e-06
6.233481983e-06
6.303051439e-06
6.373220842e-06
6.437414766e-06
6.488324899e-06
6.518007305e-06
6.289185967e-06
6.326462943e-06
6.379378682e-06
6.443787862e-06
6.514683125e-06
6.586185223e-06
6.651594219e-06
6.703464984e-06
6.733706039e-06
6.500521889e-06
6.538503366e-06
6.592417135e-06
6.658037867e-06
6.730262512e-06
6.80310086e-06
6.869728132e-06
6.922562033e-06
6.95336318e-06
6.715803099e-06
6.75449095e-06
6.809405386e-06
6.876240843e-06
6.949798317e-06
7.023976338e-06
7.091824968e-06
7.145624412e-06
7.176987034e-06
6.93503835e-06
6.974434378e-06
7.030352015e-06
7.098405245e-06
7.173298854e-06
7.248819829e-06
7.317892769e-06
7.372660059e-06
7.404585479e-06
7.158235994e-06
7.198341921e-06
7.255265183e-06
7.324539098e-06
7.400771996e-06
7.477639052e-06
7.547939109e-06
7.603676431e-06
7.636165903e-06
7.385403932e-06
7.426221398e-06
7.484152584e-06
7.554649943e-06
7.632225114e-06
7.710441199e-06
7.781971016e-06
7.838680423e-06
7.871735123e-06
7.616549557e-06
7.6580801e-06
7.71702137e-06
7.788744756e-06
7.867664985e-06
7.947232847e-06
8.019994875e-06
8.077678265e-06
8.111299275e-06
7.851679658e-06
7.893924704e-06
7.95387805e-06
8.026829841e-06
8.107097683e-06
8.188019825e-06
8.262016288e-06
8.320675374e-06
8.354863666e-06
8.090800306e-06
8.133761143e-06
8.194728361e-06
8.268910688e-06
8.350528415e-06
8.432807049e-06
8.508039896e-06
8.567676164e-06
8.602432577e-06
8.333916686e-06
8.377594436e-06
8.439577081e-06
8.514991772e-06
8.597961315e-06
8.681598296e-06
8.758069133e-06
8.818683792e-06
8.854008995e-06
8.581032883e-06
8.625428463e-06
8.68842779e-06
8.7650763e-06
8.849399161e-06
8.934395895e-06
9.012105906e-06
9.073699814e-06
9.109594267e-06
8.832151591e-06
8.87726566e-06
8.941282551e-06
9.019165865e-06
9.10484301e-06
9.191200339e-06
9.27015017e-06
9.332723743e-06
9.36918764e-06
9.087273734e-06
9.133106626e-06
9.198141489e-06
9.277259996e-06
9.364291711e-06
9.452009763e-06
9.532199377e-06
9.595752471e-06
9.632785669e-06
9.346397967e-06
9.392949602e-06
9.459002243e-06
9.539355574e-06
9.627741277e-06
9.716819267e-06
9.798247758e-06
9.862779511e-06
9.900381434e-06
9.609520031e-06
9.656789801e-06
9.723859257e-06
9.805446074e-06
9.895184074e-06
9.98562005e-06
1.00682854e-05
1.013379403e-05
1.017196355e-05
9.876631922e-06
9.924618543e-06
9.992702866e-06
1.007552059e-05
1.016660778e-05
1.025839829e-05
1.034229706e-05
1.040877961e-05
1.044751489e-05
1.014772083e-05
1.019642215e-05
1.026551813e-05
1.034956261e-05
1.044199405e-05
1.053513376e-05
1.062026067e-05
1.06877127e-05
1.0727011e-05
1.04227678e-05
1.047218057e-05
1.054228339e-05
1.062754842e-05
1.072131689e-05
1.0815798e-05
1.090214548e-05
1.097056061e-05
1.101041805e-05
1.070174605e-05
1.075186561e-05
1.082296842e-05
1.090944525e-05
1.100454055e-05
1.110035219e-05
1.118790971e-05
1.125727917e-05
1.12976904e-05
1.098461893e-05
1.103543883e-05
1.110753217e-05
1.119520878e-05
1.129161703e-05
1.138874442e-05
1.147749776e-05
1.154780969e-05
1.158876754e-05
1.127133734e-05
1.132284891e-05
1.139592007e-05
1.148478037e-05
1.1582483e-05
1.168090648e-05
1.177083674e-05
1.18420755e-05
1.188357048e-05
1.156183675e-05
1.161402851e-05
1.168806072e-05
1.177808351e-05
1.187705614e-05
1.197674996e-05
1.206783247e-05
1.213997764e-05
1.218199744e-05
1.185603358e-05
1.190889058e-05
1.198386202e-05
1.207501979e-05
1.217523087e-05
1.227616175e-05
1.236836472e-05
1.244139006e-05
1.248391885e-05
1.215382095e-05
1.220732398e-05
1.228320668e-05
1.237546419e-05
1.247687336e-05
1.257899886e-05
1.26722818e-05
1.274615392e-05
1.27891716e-05
1.24550639e-05
1.250918857e-05
1.258594705e-05
1.267925967e-05
1.278181595e-05
1.288508252e-05
1.297939444e-05
1.305407138e-05
1.309755272e-05
1.275959388e-05
1.281430959e-05
1.289189936e-05
1.298621124e-05
1.308985088e-05
1.319419171e-05
1.328946908e-05
1.336489865e-05
1.340881229e-05
1.306720276e-05
1.312247151e-05
1.320083739e-05
1.329607937e-05
1.340072354e-05
1.350605616e-05
1.36022207e-05
1.367833866e-05
1.372264607e-05
1.337763627e-05
1.343341139e-05
1.351248569e-05
1.360857301e-05
1.371412533e-05
1.3820349e-05
1.391730528e-05
1.399403343e-05
1.403868772e-05
1.369058719e-05
1.374681196e-05
1.382651254e-05
1.392334247e-05
1.402968627e-05
1.413667932e-05
1.423431222e-05
1.431155638e-05
1.43565012e-05
1.40056883e-05
1.406229457e-05
1.414252275e-05
1.423997215e-05
1.434696779e-05
1.445458484e-05
1.455275707e-05
1.463040509e-05
1.467557339e-05
1.432250548e-05
1.437941225e-05
1.446005094e-05
1.455797373e-05
1.466545592e-05
1.477352522e-05
1.48720749e-05
1.494999474e-05
1.499530767e-05
1.464053115e-05
1.469764324e-05
1.477855498e-05
1.487678005e-05
1.498455541e-05
1.509287635e-05
1.519161474e-05
1.526965279e-05
1.531501877e-05
1.495917863e-05
1.501638549e-05
1.509741081e-05
1.519573997e-05
1.530358496e-05
1.541192612e-05
1.551063588e-05
1.558861553e-05
1.563392944e-05
1.527777775e-05
1.53349525e-05
1.541590865e-05
1.551411509e-05
1.562177443e-05
1.572987207e-05
1.582830608e-05
1.590602689e-05
1.59511696e-05
1.559557217e-05
1.565257099e-05
1.573325107e-05
1.583107855e-05
1.593826439e-05
1.604582183e-05
1.61437027e-05
1.622094015e-05
1.626577844e-05
1.591171887e-05
1.596838084e-05
1.604855369e-05
1.614571643e-05
1.625210851e-05
1.635879642e-05
1.645581702e-05
1.653232309e-05
1.657671009e-05
1.622529042e-05
1.62814379e-05
1.636084872e-05
1.64570324e-05
1.656227928e-05