/*--------------------------------*- C++ -*----------------------------------*\
| =========                 |                                                 |
| \\      /  F ield         | OpenFOAM: The Open Source CFD Toolbox           |
|  \\    /   O peration     | Version:  2212                                  |
|   \\  /    A nd           | Website:  www.openfoam.com                      |
|    \\/     M anipulation  |                                                 |
\*---------------------------------------------------------------------------*/
FoamFile
{
    version     2.0;
    format      ascii;
    arch        "LSB;label=32;scalar=64";
    class       volScalarField;
    location    "20.00000000";
    object      A2;
}
// * * * * * * * * * * * * * * * * * * * * * * * * * * * * * * * * * * * * * //

dimensions      [0 0 0 0 0 0 0];

internalField   nonuniform List<scalar> 
3000
(
8.634188579e-25
9.700221396e-25
1.130888754e-24
1.345263232e-24
1.610969936e-24
1.920795913e-24
2.256076589e-24
2.576006842e-24
2.802244738e-24
3.241929042e-24
3.656899697e-24
4.282831538e-24
5.118816695e-24
6.164039314e-24
7.41271586e-24
8.843168066e-24
1.038320452e-23
1.174739878e-23
7.262731304e-24
8.256730003e-24
9.770370077e-24
1.182561411e-23
1.44594628e-23
1.77101659e-23
2.156494313e-23
2.580742194e-23
2.94333245e-23
1.383602181e-23
1.589452435e-23
1.907514413e-23
2.348561361e-23
2.928231446e-23
3.661268637e-23
4.543685311e-23
5.504857687e-23
6.280694895e-23
2.457431517e-23
2.857707083e-23
3.485918629e-23
4.374005228e-23
5.563771746e-23
7.088604987e-23
8.923068621e-23
1.087131924e-22
1.236695926e-22
4.226721426e-23
4.978142926e-23
6.174376642e-23
7.891828986e-23
1.022219514e-22
1.322420631e-22
1.680828501e-22
2.052249766e-22
2.327056589e-22
7.177245162e-23
8.557835624e-23
1.078131288e-22
1.400967141e-22
1.842285664e-22
2.410879747e-22
3.083248521e-22
3.766437053e-22
4.25943368e-22
1.214937869e-22
1.46484619e-22
1.870914192e-22
2.46507068e-22
3.280489542e-22
4.328949077e-22
5.557877562e-22
6.788404069e-22
7.661553134e-22
2.059944675e-22
2.507534602e-22
3.239519128e-22
4.315989385e-22
5.795970933e-22
7.693757374e-22
9.902189882e-22
1.209048311e-21
1.362609026e-21
3.504939477e-22
4.30025914e-22
5.60688201e-22
7.534652797e-22
1.018668329e-21
1.357848294e-21
1.750360802e-21
2.136440208e-21
2.405351068e-21
5.986929287e-22
7.391786047e-22
9.707164468e-22
1.313017946e-21
1.783939989e-21
2.384875691e-21
3.077433891e-21
3.755146715e-21
4.224814078e-21
1.026330291e-21
1.273381316e-21
1.68144825e-21
2.285495202e-21
3.116348665e-21
4.174696155e-21
5.390728752e-21
6.576408689e-21
7.395260188e-21
1.764716393e-21
2.197721124e-21
2.914025234e-21
3.975196626e-21
5.434424506e-21
7.290655234e-21
9.418789774e-21
1.148853618e-20
1.291449154e-20
3.041563774e-21
3.798603799e-21
5.052275037e-21
6.910493188e-21
9.465094543e-21
1.271137176e-20
1.642728818e-20
2.003471848e-20
2.25158064e-20
5.251854879e-21
6.572985635e-21
8.762433755e-21
1.200879367e-20
1.647078932e-20
2.213657944e-20
2.861460942e-20
3.489533719e-20
3.920971082e-20
9.080851408e-21
1.138327009e-20
1.520099193e-20
2.086296522e-20
2.864378627e-20
3.851821278e-20
4.979878006e-20
6.072542297e-20
6.822429958e-20
1.571763695e-20
1.972623101e-20
2.637556981e-20
3.623864623e-20
4.979089119e-20
6.698244802e-20
8.660998392e-20
1.05608268e-19
1.186377241e-19
2.72258682e-20
3.41999424e-20
4.57715375e-20
6.293780218e-20
8.652234584e-20
1.164306917e-19
1.5056091e-19
1.835790968e-19
2.062122545e-19
4.718752398e-20
5.931457325e-20
7.944014227e-20
1.092982937e-19
1.503163017e-19
2.023194858e-19
2.616416128e-19
3.190069132e-19
3.583135673e-19
8.182069861e-20
1.029002691e-19
1.378879348e-19
1.897975619e-19
2.611029331e-19
3.51485957e-19
4.545587454e-19
5.541974967e-19
6.224471678e-19
1.41920499e-19
1.785517776e-19
2.393573919e-19
3.295728608e-19
4.53485509e-19
6.105212386e-19
7.895586432e-19
9.625814787e-19
1.081071321e-18
2.462288561e-19
3.098728397e-19
4.155223764e-19
5.722674423e-19
7.87535764e-19
1.060295057e-18
1.371192723e-18
1.671567135e-18
1.877226187e-18
4.272842665e-19
5.378441195e-19
7.213740335e-19
9.936464782e-19
1.367520924e-18
1.841139654e-18
2.380834843e-18
2.902112791e-18
3.258926357e-18
7.415718762e-19
9.336063221e-19
1.252368773e-18
1.725207224e-18
2.374363308e-18
3.196480674e-18
4.132988876e-18
5.037227972e-18
5.655984282e-18
1.287129783e-18
1.620633082e-18
2.174166354e-18
2.995105454e-18
4.121864018e-18
5.548334616e-18
7.172613122e-18
8.740240463e-18
9.812514179e-18
2.234062646e-18
2.813154203e-18
3.774144698e-18
5.199006445e-18
7.153946111e-18
9.627737078e-18
1.24430426e-17
1.515860782e-17
1.701509794e-17
3.87735997e-18
4.882648565e-18
6.550501306e-18
9.022529488e-18
1.241252497e-17
1.669958641e-17
2.157499541e-17
2.627411531e-17
2.948436179e-17
6.728193018e-18
8.472740548e-18
1.136611201e-17
1.565244835e-17
2.152660772e-17
2.894911568e-17
3.738228488e-17
4.550233942e-17
5.104430555e-17
1.167140814e-17
1.469730229e-17
1.971355884e-17
2.713996581e-17
3.730859224e-17
5.014377065e-17
6.470854877e-17
7.871400285e-17
8.826061587e-17
2.023655078e-17
2.548110634e-17
3.417027954e-17
4.702341078e-17
6.460287572e-17
8.676157712e-17
1.118660673e-16
1.359651555e-16
1.523647336e-16
3.506286131e-17
4.414366594e-17
5.917730259e-17
8.139106368e-17
1.117297875e-16
1.499040783e-16
1.930654112e-16
2.344079898e-16
2.624823977e-16
6.06942256e-17
7.639590657e-17
1.023656255e-16
1.406858712e-16
1.929280709e-16
2.585178431e-16
3.324879165e-16
4.031485416e-16
4.510052515e-16
1.049325587e-16
1.320336496e-16
1.768033595e-16
2.42751311e-16
3.324579636e-16
4.447776668e-16
5.710534462e-16
6.912787863e-16
7.72442155e-16
1.811309345e-16
2.277996154e-16
3.047794201e-16
4.179358696e-16
5.71439122e-16
7.630023501e-16
9.775584767e-16
1.181020648e-15
1.317848801e-15
3.120581326e-16
3.921907719e-16
5.241298779e-16
7.175792882e-16
9.79144056e-16
1.304274958e-15
1.666810579e-15
2.00899301e-15
2.238079442e-15
5.363725705e-16
6.734783906e-16
8.987330134e-16
1.22799571e-15
1.671465177e-15
2.220157451e-15
2.828812729e-15
3.400208183e-15
3.780797026e-15
9.193963061e-16
1.152987649e-15
1.535770464e-15
2.093290464e-15
2.840787459e-15
3.760710326e-15
4.775157474e-15
5.72173752e-15
6.348641737e-15
1.570916981e-15
1.966906936e-15
2.613852579e-15
3.552202609e-15
4.803759543e-15
6.334706329e-15
8.011853486e-15
9.566351611e-15
1.058949887e-14
2.674374324e-15
3.341792075e-15
4.428391792e-15
5.996941042e-15
8.076781675e-15
1.060381167e-14
1.335220311e-14
1.588124268e-14
1.753484621e-14
4.534313233e-15
5.651826842e-15
7.464039873e-15
1.006607527e-14
1.349385473e-14
1.762807524e-14
2.208959876e-14
2.616373362e-14
2.880928124e-14
7.652848034e-15
9.510266288e-15
1.250908762e-14
1.678950042e-14
2.238835913e-14
2.908797281e-14
3.625892792e-14
4.275544514e-14
4.69443406e-14
1.285170581e-14
1.591397713e-14
2.083415541e-14
2.78120725e-14
3.687017986e-14
4.761941004e-14
5.902767189e-14
6.927980826e-14
7.584375207e-14
2.146506572e-14
2.646950043e-14
3.446823588e-14
4.573473864e-14
6.024350419e-14
7.731375907e-14
9.527514323e-14
1.112865682e-13
1.214668608e-13
3.564106567e-14
4.374282277e-14
5.662049186e-14
7.46292929e-14
9.763017079e-14
1.244569427e-13
1.524425513e-13
1.771930855e-13
1.928242806e-13
5.880809826e-14
7.179471541e-14
9.23179479e-14
1.20807231e-13
1.568908221e-13
1.986122015e-13
2.417703513e-13
2.796486115e-13
3.034177589e-13
9.638799789e-14
1.169913365e-13
1.493597802e-13
1.939572507e-13
2.499742989e-13
3.141937871e-13
3.800862121e-13
4.374981329e-13
4.733087821e-13
1.568748082e-13
1.892188491e-13
2.397316467e-13
3.088134435e-13
3.948788134e-13
4.927379225e-13
5.923718161e-13
6.785920295e-13
7.320729719e-13
2.534489365e-13
3.036852835e-13
3.816829912e-13
4.875822073e-13
6.184820158e-13
7.661590563e-13
9.154261822e-13
1.043783701e-12
1.122997148e-12
4.063675795e-13
4.835685748e-13
6.02752832e-13
7.634473084e-13
9.605987314e-13
1.18139203e-12
1.403066327e-12
1.592589151e-12
1.709012847e-12
6.46470987e-13
7.638748093e-13
9.441440674e-13
1.18559898e-12
1.479765312e-12
1.806975504e-12
2.133474877e-12
2.411163564e-12
2.581047637e-12
1.020281178e-12
1.197016729e-12
1.467005187e-12
1.826407719e-12
2.26144213e-12
2.742343438e-12
3.219534365e-12
3.623494504e-12
3.869733735e-12
1.59736042e-12
1.860826317e-12
2.26139999e-12
2.791607042e-12
3.42959134e-12
4.130880115e-12
4.823302913e-12
5.407050292e-12
5.761762905e-12
2.480862065e-12
2.870000788e-12
3.459035411e-12
4.234632301e-12
5.162908238e-12
6.178182106e-12
7.176227732e-12
8.014606172e-12
8.522667851e-12
3.822307957e-12
4.392048136e-12
5.251003831e-12
6.376712996e-12
7.717591493e-12
9.17762138e-12
1.060734642e-11
1.180459885e-11
1.25284633e-11
5.842703387e-12
6.670080961e-12
7.912986704e-12
9.535076747e-12
1.145903008e-11
1.354574223e-11
1.558226366e-11
1.728306291e-11
1.83093666e-11
8.862169656e-12
1.005466095e-11
1.184035232e-11
1.41621981e-11
1.69058411e-11
1.987137238e-11
2.275711846e-11
2.516160446e-11
2.66101697e-11
1.334140562e-11
1.504827196e-11
1.759704952e-11
2.090030702e-11
2.479086302e-11
2.898348571e-11
3.305302779e-11
3.643727386e-11
3.847336761e-11
1.993949481e-11
2.23672055e-11
2.59834774e-11
3.065685826e-11
3.614539993e-11
4.204474203e-11
4.775853364e-11
5.250236111e-11
5.535336384e-11
2.95942187e-11
3.302739135e-11
3.813040925e-11
4.470873127e-11
5.241528468e-11
6.068011764e-11
6.867027787e-11
7.529501185e-11
7.927305033e-11
4.363328388e-11
4.846308107e-11
5.562861149e-11
6.484573093e-11
7.562040362e-11
8.715340477e-11
9.828577149e-11
1.075054278e-10
1.130380817e-10
6.392791528e-11
7.069050853e-11
8.070726641e-11
9.356774705e-11
1.085734821e-10
1.246089064e-10
1.400670508e-10
1.528576592e-10
1.605295667e-10
9.310438463e-11
1.025329983e-10
1.164789906e-10
1.3435504e-10
1.551795314e-10
1.774017757e-10
1.988006351e-10
2.164940277e-10
2.271031957e-10
1.348345971e-10
1.479298529e-10
1.672755506e-10
1.920379996e-10
2.208448948e-10
2.515486818e-10
2.810880995e-10
3.054986708e-10
3.201326124e-10
1.942343334e-10
2.123592337e-10
2.391068589e-10
2.733019636e-10
3.130349436e-10
3.553415228e-10
3.960135037e-10
4.296093587e-10
4.497479318e-10
2.784077687e-10
3.034158139e-10
3.402871908e-10
3.873750445e-10
4.420329929e-10
5.001816484e-10
5.560498336e-10
6.021836231e-10
6.298377803e-10
3.971902857e-10
4.315980929e-10
4.822877138e-10
5.469633837e-10
6.219709977e-10
7.017116569e-10
7.782877523e-10
8.415076461e-10
8.794064101e-10
5.641593884e-10
6.1137898e-10
6.808945053e-10
7.695200592e-10
8.722263816e-10
9.813477133e-10
1.086097846e-09
1.1725659e-09
1.224407971e-09
7.98007011e-10
8.626579454e-10
9.577776749e-10
1.078962533e-09
1.219310555e-09
1.368349229e-09
1.511374003e-09
1.629428085e-09
1.700219846e-09
1.124397217e-09
1.212725261e-09
1.342611663e-09
1.507990785e-09
1.69941515e-09
1.902606583e-09
2.097552617e-09
2.258459608e-09
2.354968222e-09
1.578472965e-09
1.698910428e-09
1.875931097e-09
2.101206023e-09
2.361833684e-09
2.638383369e-09
2.903661982e-09
3.122624679e-09
3.253983791e-09
2.20822607e-09
2.372139563e-09
2.612962522e-09
2.919289886e-09
3.273540964e-09
3.649319003e-09
4.009730118e-09
4.307228601e-09
4.485745114e-09
3.079007214e-09
3.301691804e-09
3.628741239e-09
4.044577416e-09
4.52529095e-09
5.035081088e-09
5.523967497e-09
5.927537835e-09
6.169761369e-09
4.279528585e-09
4.581523056e-09
5.024904367e-09
5.588443407e-09
6.239684904e-09
6.930152777e-09
7.592241265e-09
8.138819776e-09
8.466951391e-09
5.929799241e-09
6.338615029e-09
6.93864382e-09
7.701017602e-09
8.581760871e-09
9.515342565e-09
1.041046206e-08
1.114945022e-08
1.159318264e-08
8.191528102e-09
8.743903227e-09
9.554399409e-09
1.05838413e-08
1.177275247e-08
1.303269987e-08
1.424059862e-08
1.523782833e-08
1.583672398e-08
1.128162196e-08
1.202642817e-08
1.311895985e-08
1.450616064e-08
1.61077409e-08
1.780458718e-08
1.943109338e-08
2.077388866e-08
2.158041052e-08
1.548947871e-08
1.649142083e-08
1.796069629e-08
1.982559495e-08
2.197794998e-08
2.425766535e-08
2.64424372e-08
2.824596523e-08
2.932927042e-08
2.119880301e-08
2.254304739e-08
2.451364748e-08
2.701388704e-08
2.989837004e-08
3.295244864e-08
3.587852527e-08
3.829359598e-08
3.974418406e-08
2.89146159e-08
3.07124618e-08
3.334706735e-08
3.668829171e-08
4.054119658e-08
4.4618832e-08
4.852410689e-08
5.174650676e-08
5.368176306e-08
3.929595026e-08
4.169160412e-08
4.520078976e-08
4.964884541e-08
5.477518778e-08
6.019753611e-08
6.538812445e-08
6.966943064e-08
7.224001783e-08
5.319437622e-08
5.637279731e-08
6.102632426e-08
6.692124641e-08
7.371045371e-08
8.08867582e-08
8.775199244e-08
9.341161356e-08
9.680854505e-08
7.169796023e-08
7.58936105e-08
8.203295496e-08
8.980437589e-08
9.874742736e-08
1.081924606e-07
1.172209468e-07
1.246588996e-07
1.291210039e-07
9.617952773e-08
1.016857015e-07
1.097373256e-07
1.199206422e-07
1.316278411e-07
1.439797661e-07
1.557756213e-07
1.654853232e-07
1.713066429e-07
1.283472508e-07
1.355254801e-07
1.460140729e-07
1.592663838e-07
1.744846227e-07
1.905220575e-07
2.058201914e-07
2.184003005e-07
2.259368572e-07
1.70294675e-07
1.795835187e-07
1.931442352e-07
2.102587994e-07
2.298869149e-07
2.505437882e-07
2.702228618e-07
2.863870861e-07
2.960623781e-07
2.245465076e-07
2.364689295e-07
2.538574718e-07
2.757753673e-07
3.00876113e-07
3.272527682e-07
3.523444609e-07
3.729282621e-07
3.852368785e-07
2.940960189e-07
3.092646067e-07
3.313641053e-07
3.591817261e-07
3.909889023e-07
4.243580719e-07
4.560514491e-07
4.820147306e-07
4.975235735e-07
3.824301661e-07
4.015494442e-07
4.293731099e-07
4.643443874e-07
5.042640009e-07
5.460706109e-07
5.857107363e-07
6.18135909e-07
6.374827023e-07
4.935388362e-07
5.174041687e-07
5.520930662e-07
5.956257018e-07
6.452304937e-07
6.97084759e-07
7.461651811e-07
7.862503931e-07
8.101393902e-07
6.319058233e-07
6.613986829e-07
7.042143707e-07
7.578598754e-07
8.188771233e-07
8.825409841e-07
9.426902581e-07
9.917379986e-07
1.020933045e-06
8.024805887e-07
8.38560282e-07
8.908725143e-07
9.563103923e-07
1.03060348e-06
1.107970993e-06
1.1809339e-06
1.240335564e-06
1.27565088e-06
1.010631449e-06
1.054323695e-06
1.117593797e-06
1.196610695e-06
1.286155438e-06
1.379228201e-06
1.466842716e-06
1.538059999e-06
1.580349205e-06
1.262082339e-06
1.31446534e-06
1.390226196e-06
1.484691193e-06
1.591548259e-06
1.702407254e-06
1.806578542e-06
1.89112269e-06
1.94126667e-06
1.5628365e-06
1.625025291e-06
1.714859058e-06
1.826696473e-06
1.9529814e-06
2.083756758e-06
2.206429563e-06
2.305839541e-06
2.364733755e-06
1.919091169e-06
1.992221087e-06
2.097735823e-06
2.22889693e-06
2.376749244e-06
2.529589393e-06
2.67272011e-06
2.788540671e-06
2.85708248e-06
2.337147619e-06
2.422357683e-06
2.545163983e-06
2.69759893e-06
2.86915171e-06
3.046193204e-06
3.21172275e-06
3.345483263e-06
3.424559733e-06
2.823320712e-06
2.921737612e-06
3.063426174e-06
3.239057188e-06
3.436408202e-06
3.639747274e-06
3.829575656e-06
3.982770346e-06
4.073246912e-06
3.383851595e-06
3.496574811e-06
3.658695692e-06
3.859392384e-06
4.084577625e-06
4.316244248e-06
4.53220748e-06
4.706277564e-06
4.808987804e-06
4.024826447e-06
4.152914899e-06
4.336958935e-06
4.564516288e-06
4.819486479e-06
5.081421426e-06
5.325271205e-06
5.521589218e-06
5.637325911e-06
4.752103389e-06
4.896563831e-06
5.103946537e-06
5.360065889e-06
5.646666271e-06
5.940701472e-06
6.214087833e-06
6.433944302e-06
6.563451838e-06
5.571248882e-06
5.733026147e-06
5.965074223e-06
6.251347381e-06
6.571300892e-06
6.899143149e-06
7.203600161e-06
7.448192654e-06
7.592160826e-06
6.487484255e-06
6.667453358e-06
6.925393785e-06
7.243290248e-06
7.598184059e-06
7.961402084e-06
8.298336516e-06
8.568761018e-06
8.727820145e-06
7.505642471e-06
7.704602491e-06
7.989554131e-06
8.340411284e-06
8.731686536e-06
9.131701149e-06
9.502383975e-06
9.799628463e-06
9.974345787e-06
8.630134805e-06
8.848804437e-06
9.161771954e-06
9.546788048e-06
9.975732582e-06
1.041380985e-05
1.081937038e-05
1.114431046e-05
1.133518772e-05
9.864926833e-06
1.010394147e-05
1.044581138e-05
1.086604105e-05
1.133378486e-05
1.181103192e-05
1.225245435e-05
1.260585075e-05
1.281332283e-05
1.121352296e-05
1.147343313e-05
1.18449718e-05
1.230132384e-05
1.280883699e-05
1.332620031e-05
1.380432241e-05
1.418682016e-05
1.441125473e-05
1.267895859e-05
1.296022965e-05
1.33620829e-05
1.385532012e-05
1.440341282e-05
1.496167856e-05
1.547719229e-05
1.588932142e-05
1.613101936e-05
1.426379907e-05
1.456681189e-05
1.499950621e-05
1.553024697e-05
1.611957157e-05
1.671936783e-05
1.727282163e-05
1.771499909e-05
1.797419574e-05
1.597014449e-05
1.629519709e-05
1.675914201e-05
1.732786335e-05
1.795891791e-05
1.860071862e-05
1.91925211e-05
1.966505386e-05
1.994192085e-05
1.779963938e-05
1.814694937e-05
1.864244096e-05
1.924948297e-05
1.992261631e-05
2.060674636e-05
2.123717125e-05
2.174026027e-05
2.203490792e-05
1.975348674e-05
2.012319434e-05
2.06504196e-05
2.12959909e-05
2.201140865e-05
2.27380503e-05
2.340724231e-05
2.394098737e-05
2.425346748e-05
2.183246535e-05
2.222463697e-05
2.2783679e-05
2.346786302e-05
2.422563477e-05
2.499483481e-05
2.570281637e-05
2.626722138e-05
2.65975304e-05
2.403694992e-05
2.445158218e-05
2.504242585e-05
2.576518785e-05
2.656525488e-05
2.737693261e-05
2.812361119e-05
2.87185901e-05
2.906667256e-05
2.636693335e-05
2.680395736e-05
2.742649548e-05
2.81876901e-05
2.902987374e-05
2.988382941e-05
3.066900527e-05
3.129438822e-05
3.166014035e-05
2.882205056e-05
2.928133651e-05
2.993537627e-05
3.073475543e-05
3.161876576e-05
3.251468934e-05
3.333806366e-05
3.399360342e-05
3.43768769e-05
3.140160344e-05
3.188296526e-05
3.256823496e-05
3.340545594e-05
3.433090073e-05
3.526838102e-05
3.61295641e-05
3.681494261e-05
3.721554834e-05
3.410458646e-05
3.460778663e-05
3.53239424e-05
3.619857611e-05
3.716496989e-05
3.814350355e-05
3.904202315e-05
3.975685806e-05
4.017457003e-05
3.692971259e-05
3.745446691e-05
3.820109952e-05
3.911263872e-05
4.01194118e-05
4.113841245e-05
4.207372202e-05
4.281757325e-05
4.325213226e-05
3.987543918e-05
4.042142153e-05
4.119806311e-05
4.214593056e-05
4.319243793e-05
4.425124506e-05
4.522273188e-05
4.599510797e-05
4.644622538e-05
4.293999352e-05
4.350684051e-05
4.431297114e-05
4.529652758e-05
4.638205763e-05
4.747994533e-05
4.848693842e-05
4.928730277e-05
4.975466409e-05
4.612139787e-05
4.670871341e-05
4.754376752e-05
4.856231936e-05
4.968610231e-05
5.08222877e-05
5.186406542e-05
5.26918423e-05
5.317511064e-05
4.941749376e-05
5.00248534e-05
5.088822591e-05
5.194103273e-05
5.310224873e-05
5.427590002e-05
5.535169738e-05
5.620627762e-05
5.670509702e-05
5.282596536e-05
5.345292047e-05
5.434397272e-05
5.543025431e-05
5.662804114e-05
5.783828533e-05
5.894730093e-05
5.982804737e-05
6.034204592e-05
5.634436182e-05
5.699044354e-05
5.790850884e-05
5.902745193e-05
6.026091234e-05
6.150684242e-05
6.2648245e-05
6.355449761e-05
6.408329041e-05
5.997011846e-05
6.063484149e-05
6.157923037e-05
6.272999495e-05
6.399820344e-05
6.527888524e-05
6.645181977e-05
6.738290042e-05
6.792609231e-05
6.370057679e-05
6.438344282e-05
6.535344795e-05
6.653517313e-05
6.783718238e-05
6.915166086e-05
7.035525425e-05
7.131047115e-05
7.186765928e-05
6.753300319e-05
6.823350417e-05
6.922840488e-05
7.044021441e-05
7.177506114e-05
7.312236625e-05
7.435573255e-05
7.533438436e-05
7.590516055e-05
7.146460635e-05
7.218222747e-05
7.320129399e-05
7.44423012e-05
7.580901163e-05
7.718816366e-05
7.845040892e-05
7.945178844e-05
8.003574133e-05
7.549255339e-05
7.622677582e-05
7.726927307e-05
7.85385855e-05
7.993618028e-05
8.134619473e-05
8.263642135e-05
8.365981899e-05
8.425653598e-05
7.961398461e-05
8.036428798e-05
8.142947906e-05
8.272620264e-05
8.415370133e-05
8.559359335e-05
8.691090403e-05
8.795561083e-05
8.856467986e-05
8.382602706e-05
8.459189172e-05
8.567904106e-05
8.70022838e-05
8.845870889e-05
8.992749726e-05
9.127099852e-05
9.233630893e-05
9.295732004e-05
8.812580675e-05
8.890671574e-05
9.001509188e-05
9.136396726e-05
9.28483478e-05
9.43450584e-05
9.571386379e-05
9.679907808e-05
9.743162483e-05
9.251045967e-05
9.330590054e-05
9.443477865e-05
9.580840854e-05
9.731978327e-05
9.884345226e-05
0.0001002366851
0.0001013411115
0.0001019847922
9.697714166e-05
9.778660801e-05
9.893527205e-05
0.0001003327894
0.0001018702095
0.000103419886
0.0001048366817
0.0001059596384
0.0001066140571
0.0001015230372
0.00010234603
0.0001035137746
0.0001049343255
0.0001064968572
0.0001080716057
0.000109511114
0.0001106519306
0.0001113166982
0.0001061453668
0.0001069813958
0.000108167528
0.0001096102737
0.0001111970001
0.0001127959023
0.0001142572892
0.0001154153081
0.0001160900429
0.0001108413943
0.0001116899786
0.0001128938189
0.0001143579378
0.0001159679606
0.0001175901175
0.0001190725662
0.0001202471439
0.0001209314724
0.0001156084317
0.000116469101
0.0001176899851
0.0001191746734
0.0001208071147
0.0001224516475
0.0001239543602
0.000125144868
0.0001258384256
0.000120443845
0.0001213161399
0.0001225534192
0.0001240578926
0.0001257118956
0.0001273779471
0.0001289001458
0.000130105971
0.0001308084021
0.0001253450575
0.0001262285305
0.0001274815728
0.0001290050672
0.0001306797974
0.0001323665331
0.0001339074603
0.0001351280062
0.0001358389646
0.0001303095536
0.0001312037691
0.0001324719594
0.0001340137316
0.0001357083775
0.0001374149858
0.0001389739052
0.0001402085919
0.0001409277414
0.0001353348812
0.0001362394161
0.0001375221571
0.000139081485
0.0001407952585
0.0001425209516
0.0001440971484
0.0001453454133
0.0001460724273
0.0001404186539
0.0001413330976
0.0001426298097
0.0001442059932
0.0001459381301
0.0001476821438
0.0001492749252
0.0001505362226
0.0001512707847
0.0001455585525
0.0001464825071
0.0001477926287
0.0001493849894
0.0001511347493
0.0001528963439
0.0001545050387
0.0001557788404
0.0001565206443
0.000150752326
0.0001516854063
0.000153008394
0.0001546162752
0.0001563829419
0.0001581614014
0.0001597853605
0.0001610711556
0.0001618199049
0.0001559977918
0.0001569396255
0.0001582749537
0.0001598977208
0.0001616806017
0.0001634752343
0.0001651138303
0.000166411125
0.0001671665333
0.0001612928366
0.0001622430639
0.000163590225
0.0001652272648
0.0001670256912
0.0001688358286
0.0001704884558
0.0001717967733
0.0001725585642
0.0001666354155
0.0001675936891
0.0001689521931
0.0001706029139
0.0001724162404
0.0001742412378
0.0001759073117
0.0001772261921
0.0001779940987
0.000172023552
0.000172989537
0.0001743589112
0.0001760227424
0.0001778503466
0.0001796895823
0.0001813685393
0.000182697539
0.0001834713042
0.0001774553369
0.0001784287104
0.0001798084995
0.000181484891
0.000183326173
0.0001851790479
0.0001868703448
0.0001882090365
0.0001889884125
0.0001829289276
0.0001839093786
0.0001852991436
0.0001869875658
0.0001888419479
0.0001907078849
0.0001924109988
0.0001937589709
0.0001945437189
0.0001884425467
0.0001894297757
0.0001908290943
0.000192529037
0.0001943959631
0.0001962744067
0.0001979888341
0.0001993456905
0.0002001355807
0.0001939944811
0.0001949882
0.0001963966655
0.0001981076379
0.0001999865726
0.0002018769884
0.0002036022448
0.0002049676043
0.0002057624157
0.0001995830803
0.0002005830116
0.000202000233
0.0002037217628
0.0002056121914
0.000207514065
0.0002092496845
0.0002106231803
0.0002114227003
0.0002052067546
0.0002062126318
0.0002076382329
0.000209369866
0.0002112712933
0.0002131841303
0.0002149296646
0.0002163109442
0.0002171149683
0.000210863974
0.0002118755407
0.0002133091597
0.0002150504596
0.0002169624095
0.0002188857345
0.0002206407528
0.0002220294772
0.0002228378087
0.0002165532658
0.0002175702755
0.0002190115649
0.0002207621118
0.0002226841267
0.0002246174827
0.000226381571
0.0002277774145
0.0002285898645
0.0002222732134
0.0002232954292
0.0002247440548
0.0002265034455
0.0002284350857
0.0002303780336
0.0002321507938
0.0002335534431
0.00023436983
0.000228022454
0.0002290496484
0.0002305052892
0.000232273136
0.0002342139789
0.0002361660967
0.0002379471465
0.0002393563007
0.00024017645
0.0002337996774
0.0002348316317
0.0002362939791
0.0002380699097
0.0002400195492
0.0002419804313
0.0002437694032
0.0002451847732
0.0002460085172
0.0002396036237
0.0002406401276
0.0002421088853
0.0002438925417
0.0002458505876
0.0002478198445
0.0002496163852
0.0002510376932
0.0002518648707
0.0002454330814
0.000246473933
0.0002479488161
0.0002497398545
0.0002517059319
0.000253683189
0.0002554869592
0.0002569139381
0.0002577443942
0.0002512868859
0.0002523318912
0.0002538126258
0.0002556107157
0.0002575844641
0.0002595693615
0.0002613800351
0.0002628124282
0.000263646014
0.0002571639172
0.0002582128897
0.0002596992128
0.0002615040364
0.0002634851095
0.0002654773011
0.0002672945644
0.0002687321249
0.0002695686973
0.0002630630986
0.0002641158589
0.0002656075174
0.0002674187692
0.0002694068338
0.000271405987
0.0002732295383
0.0002746720288
0.0002755114502
0.0002689833942
0.0002700397697
0.0002715365203
0.0002733539065
0.000275348642
0.0002773544366
0.0002791839857
0.0002806311779
0.0002814733157
0.0002749238073
0.0002759836321
0.0002774852405
0.0002793084782
0.0002813095762
0.0002833217039
0.0002851569714
0.0002866086454
0.000287453372
0.0002808833785
0.0002819464926
0.0002834527333
0.00028528155
0.0002872887133
0.0002893068771
0.000291147594
0.0002926035377
0.0002934507303
0.0002868611831
0.0002879274326
0.0002894380881
0.0002912722213
0.0002932851632
0.000295309077
0.0002971549834
0.0002986149925
0.0002994645323
0.0002928563298
0.000293925566
0.0002954404264
0.0002972796225
0.0002992980666
0.0003013274537
0.0003031782988
0.0003046421758
0.0003054939481
0.0002988679576
0.0002999400368
0.0003014588995
0.0003033029134
0.000305326592
0.0003073611849
0.0003092167259
0.0003106842794
0.0003115381733
0.0003048952339
0.000305970017
0.0003074926853
0.0003093412797
0.0003113699334
0.0003134094727
0.0003152694739
0.0003167405182
0.0003175964258
0.0003109373511
0.000312014703
0.0003135409862
0.0003153939301
0.0003174273068
0.0003194715397
0.0003213357718
0.0003228101259
0.000323667942
0.0003169935236
0.0003180733126
0.0003196030246
0.0003214600928
0.000323497946
0.0003255466259
0.0003274148643
0.000328892351
0.0003297519725
0.0003230629837
0.0003241450808
0.0003256780392
0.0003275390108
0.0003295810987
0.0003316339828
0.0003335060066
0.0003349864513
0.0003358477765
0.0003291449769
0.000330229255
0.0003317652799
0.0003336299366
0.0003356760201
0.0003377328681
0.000339608458
0.0003410916872
0.0003419546152
0.0003352387561
0.0003363250888
0.0003378640011
0.0003397321257
0.0003417819659
0.0003438425375
0.0003457214741
0.0003472073137
0.0003480717426
0.0003413435738
0.0003424318344
0.0003439734543
0.0003458448277
0.0003478981837
0.0003499622357
0.0003518442961
0.000353332569
0.0003541983954
0.0003474586737
0.0003485487331
0.0003500928772
0.000351967276
0.0003540239011
0.0003560911839
0.0003579761388
0.0003594666622
0.0003603337789
0.0003535832784
0.0003546750033
0.0003562214819
0.0003580986741
0.0003601583116
0.0003622285645
0.0003641161735
0.0003656087552
0.0003664770491
0.0003597165748
0.0003608098252
0.0003623584382
0.0003642381787
0.0003663005563
0.0003683735016
0.0003702635078
0.0003717579416
0.0003726272913
0.0003658576957
0.0003669523212
0.0003685028537
0.0003703848778
0.0003724497005
0.0003745250365
0.0003764171595
0.0003779132196
0.0003787834914
0.0003720056961
0.0003731015319
0.0003746537475
0.0003765377638
0.0003786047054
0.0003806820968
0.0003825760239
0.0003840734573
0.0003849445014
0.0003781595238
0.0003792563854
0.0003808100191
0.0003826956994
0.0003847643913
0.000386843458
0.0003887388331
0.0003902373512
0.0003911089957
0.0003843179832
0.0003854156599
0.0003869704082
0.0003888573758
0.0003909273936
0.0003930076961
0.0003949041065
0.0003964033734
0.000397275418
0.0003904796905
0.0003915779373
0.0003931334466
0.0003950212615
0.000397092108
0.0003991731304
0.0004010700899
0.0004025697091
0.000403441917
0.0003966430194
0.0003977415472
0.0003992973995
0.0004011855407
0.0004032566259
0.0004053377544
0.0004072346835
0.0004087341815
0.0004096062693
0.0004028060368
0.0004039045004
0.0004054601963
0.0004073480401
0.0004094186568
0.0004114991546
0.0004133953566
0.0004148941632
0.0004157657896
0.0004089664258
0.00041006441
0.0004116193482
0.0004135061435
0.0004155754386
0.000417654416
0.0004195490489
0.000421046475
0.000421917227
0.0004151213981
0.0004162184012
0.0004177718552
0.0004196566933
0.0004217236349
0.0004238000153
0.00042569206
0.0004271872709
0.0004280566484
0.0004212675936
0.0004223630088
0.0004239140993
0.0004257958812
0.000427859221
0.0004299317018
0.0004318199254
0.0004333119119
0.0004341793103
0.0004274009693
0.0004284940636
0.0004300417291
0.0004319191277
0.0004339773592
0.0004360443693
0.0004379272858
0.0004394148318
0.0004402795231
0.0004335166793
0.0004346065706
0.0004361495341
0.0004380209544
0.0004400722679
0.0004421319219
0.0004440077492
0.0004454893981
0.0004463505112
0.000439608949
0.000440694582
0.0004422313167
0.0004440948532
0.000446137089
0.0004481871394
0.0004500537561
0.000451527776
0.000452384276
0.0004456709485
0.00044675107
0.0004482797642
0.0004501331582
0.00045216376
0.0004542015503
0.0004560564527
0.0004575208024
0.0004583714715
0.0004516946715
0.0004527678063
0.0004542863296
0.0004561269287
0.0004581428992
0.0004601653201
0.000462005583
0.0004634578821
0.0004643013021
0.0004576708279
0.0004587352572
0.0004602411302
0.0004620658525
0.0004640637153
0.0004660671679
0.0004678894124
0.0004693269164
0.0004701614555
0.0004635887595
0.0004646425043
0.0004661328754
0.0004679381812
0.0004699139521
0.0004718943218
0.0004736946942
0.0004751142802
0.0004759380846
0.0004694363885
0.0004704771986
0.0004719488304
0.0004737307098
0.0004756798848
0.0004776325304
0.0004794066952
0.0004808048594
0.0004816158542
0.0004752002157
0.0004762255682
0.0004776748369
0.0004794288109
0.0004813463727
0.0004832661392
0.0004850092944
0.0004863821659
0.000487178065
0.000480865377
0.000481872486
0.0004832953978
0.0004850165426
0.0004868969915
0.0004887782466
0.0004904851629
0.00049182854
0.0004926068679
0.0004864157694
0.000487401611
0.0004887938394
0.0004904768356
0.00049231425
0.0004941509514
0.00049581604
0.0004971254479
0.000497883577
0.000491834259
0.0004927956111
0.0004941525575
0.0004957917691
0.0004975798985
0.0004993656951
0.0005009831071
0.0005022538824
0.0005029890841
0.0004971029745
0.0004980364752
0.0004993533544
0.0005009429384