/*--------------------------------*- C++ -*----------------------------------*\
| =========                 |                                                 |
| \\      /  F ield         | OpenFOAM: The Open Source CFD Toolbox           |
|  \\    /   O peration     | Version:  2212                                  |
|   \\  /    A nd           | Website:  www.openfoam.com                      |
|    \\/     M anipulation  |                                                 |
\*---------------------------------------------------------------------------*/
FoamFile
{
    version     2.0;
    format      ascii;
    arch        "LSB;label=32;scalar=64";
    class       volScalarField;
    location    "20.00000000";
    object      A2CH2-2;
}
// * * * * * * * * * * * * * * * * * * * * * * * * * * * * * * * * * * * * * //

dimensions      [0 0 0 0 0 0 0];

internalField   nonuniform List<scalar> 
3000
(
2.818163024e-24
3.16582578e-24
3.690436655e-24
4.389511829e-24
5.255939397e-24
6.266189125e-24
7.359399032e-24
8.402520502e-24
9.140109756e-24
1.058042232e-23
1.193352644e-23
1.397442365e-23
1.670005851e-23
2.010769242e-23
2.417843415e-23
2.884163677e-23
3.386204533e-23
3.830922839e-23
2.369827955e-23
2.693849247e-23
3.187233033e-23
3.857108065e-23
4.71550602e-23
5.774872927e-23
7.031036046e-23
8.41349077e-23
9.594977169e-23
4.51340348e-23
5.184149524e-23
6.220446741e-23
7.657307976e-23
9.545585727e-23
1.193322082e-22
1.480715626e-22
1.793734118e-22
2.046371375e-22
8.013180073e-23
9.316729699e-23
1.136236931e-22
1.425386144e-22
1.812703885e-22
2.309030152e-22
2.90606017e-22
3.540041607e-22
4.026666737e-22
1.377556574e-22
1.622100726e-22
2.011353539e-22
2.570117251e-22
3.328151811e-22
4.304484061e-22
5.469912443e-22
6.677448065e-22
7.570707456e-22
2.337754163e-22
2.786698801e-22
3.509617838e-22
4.559041234e-22
5.993293044e-22
7.840768545e-22
1.002495506e-21
1.224382811e-21
1.384463941e-21
3.954498824e-22
4.766441929e-22
6.08549013e-22
8.015060971e-22
1.066252829e-21
1.406575831e-21
1.805380985e-21
2.204614141e-21
2.487834868e-21
6.699893739e-22
8.152769842e-22
1.052828218e-21
1.402084875e-21
1.882127012e-21
2.497521138e-21
3.213469747e-21
3.922731987e-21
4.420344585e-21
1.139134747e-21
1.397072771e-21
1.82073875e-21
2.44563617e-21
3.305060017e-21
4.403918976e-21
5.675265409e-21
6.925540658e-21
7.79624497e-21
1.944586816e-21
2.399889073e-21
3.150098689e-21
4.258869794e-21
5.783806765e-21
7.729231027e-21
9.970811114e-21
1.21640774e-20
1.368396416e-20
3.332203619e-21
4.132537852e-21
5.454129622e-21
7.409776686e-21
1.00987767e-20
1.352298528e-20
1.745661967e-20
2.129199533e-20
2.39411221e-20
5.728989065e-21
7.13171459e-21
9.451430319e-21
1.288646724e-20
1.760762603e-20
2.361039785e-20
3.049056996e-20
3.718265092e-20
4.179647331e-20
9.877056369e-21
1.233078088e-20
1.639255649e-20
2.240937969e-20
3.067460069e-20
4.116880393e-20
5.317266798e-20
6.482456185e-20
7.28676512e-20
1.70664167e-20
2.135344613e-20
2.845528137e-20
3.897831771e-20
5.342728338e-20
7.174697814e-20
9.263630015e-20
1.127957272e-19
1.269542497e-19
2.953829861e-20
3.702279254e-20
4.943084017e-20
6.782625108e-20
9.308668811e-20
1.250736166e-19
1.61276428e-19
1.946920636e-19
2.211675259e-19
5.118161295e-20
6.423756136e-20
8.589856625e-20
1.180391528e-19
1.622292135e-19
2.183765132e-19
2.828528785e-19
3.469711572e-19
3.876502212e-19
8.873719888e-20
1.114816573e-19
1.492302895e-19
2.052522024e-19
2.822621319e-19
3.799935657e-19
4.916458141e-19
5.99822929e-19
6.735336136e-19
1.538971422e-19
1.934721247e-19
2.591610978e-19
3.566393214e-19
4.905846156e-19
6.604391492e-19
8.542232091e-19
1.041604769e-18
1.1699218e-18
2.669537571e-19
3.357591131e-19
4.499709756e-19
6.194371218e-19
8.522404167e-19
1.147339544e-18
1.48386184e-18
1.809145326e-18
2.031928121e-18
4.631351324e-19
5.827060318e-19
7.811912822e-19
1.075683993e-18
1.480177948e-18
1.992790435e-18
2.57720424e-18
3.141960985e-18
3.528702952e-18
8.036044072e-19
1.011342713e-18
1.356190745e-18
1.867816881e-18
2.570459619e-18
3.460739761e-18
4.475481629e-18
5.455856486e-18
6.127084187e-18
1.394552893e-18
1.755413201e-18
2.3544404e-18
3.243109439e-18
4.463384287e-18
6.009192692e-18
7.770643002e-18
9.471967061e-18
1.063651133e-17
2.420327909e-18
3.04709685e-18
4.087480242e-18
5.630730365e-18
7.749431278e-18
1.043262132e-17
1.348913759e-17
1.644032321e-17
1.845976629e-17
4.200894963e-18
5.28937423e-18
7.095975484e-18
9.775315355e-18
1.345275902e-17
1.810836797e-17
2.340955352e-17
2.852583619e-17
3.20254237e-17
7.291425163e-18
9.181428956e-18
1.231784514e-17
1.696820311e-17
2.334857725e-17
3.142232327e-17
4.061066435e-17
4.947347534e-17
5.553251377e-17
1.265467826e-17
1.593566053e-17
2.137906222e-17
2.944705741e-17
4.051102573e-17
5.450274877e-17
7.041465967e-17
8.575121005e-17
9.622851234e-17
2.195896866e-17
2.765267207e-17
3.7095803e-17
5.1085163e-17
7.025670935e-17
9.448160752e-17
1.220050037e-16
1.485064825e-16
1.665938353e-16
3.809217694e-17
4.796781756e-17
6.433941987e-17
8.857704671e-17
1.217644724e-16
1.636547395e-16
2.111899107e-16
2.568996104e-16
2.880569584e-16
6.604629223e-17
8.316299154e-17
1.115219151e-16
1.534707775e-16
2.108450069e-16
2.831645207e-16
3.650982244e-16
4.43750589e-16
4.97274008e-16
1.144350212e-16
1.440721115e-16
1.931375023e-16
2.656367152e-16
3.646534245e-16
4.892431271e-16
6.301090725e-16
7.650391357e-16
8.566657766e-16
1.980882714e-16
2.49333959e-16
3.340915132e-16
4.591575664e-16
6.296607953e-16
8.437265873e-16
1.085143224e-15
1.31575879e-15
1.471949061e-15
3.424691933e-16
4.309192068e-16
5.770344108e-16
7.922691831e-16
1.085045387e-15
1.451623954e-15
1.863751059e-15
2.256131303e-15
2.521024729e-15
5.9115827e-16
7.434711438e-16
9.947106273e-16
1.364020059e-15
1.865009613e-15
2.490215757e-15
3.190463974e-15
3.854504778e-15
4.301071704e-15
1.018466034e-15
1.279995412e-15
1.710605872e-15
2.341967891e-15
3.195638429e-15
4.256770163e-15
5.439979923e-15
6.556762861e-15
7.304433677e-15
1.750562008e-15
2.198035033e-15
2.933199807e-15
4.00781634e-15
5.455170197e-15
7.245940386e-15
9.232412232e-15
1.109727901e-14
1.233940912e-14
3.000637711e-15
3.763010923e-15
5.012301113e-15
6.831882007e-15
9.271491917e-15
1.227384922e-14
1.55847061e-14
1.867406486e-14
2.072009583e-14
5.127006549e-15
6.419400571e-15
8.530839799e-15
1.159333698e-14
1.567804926e-14
2.067460797e-14
2.614832203e-14
3.122174617e-14
3.456099772e-14
8.728359e-15
1.090661224e-14
1.445295117e-14
1.957223091e-14
2.636021503e-14
3.460769405e-14
4.357763265e-14
5.183167251e-14
5.722854759e-14
1.479863318e-14
1.844586376e-14
2.43603865e-14
3.285265531e-14
4.403990921e-14
5.753277988e-14
7.209387391e-14
8.539064854e-14
9.402493705e-14
2.497656625e-14
3.103862033e-14
4.082587241e-14
5.479585777e-14
7.30688614e-14
9.493440825e-14
1.183382816e-13
1.395409964e-13
1.532123181e-13
4.194399552e-14
5.193831749e-14
6.799628716e-14
9.077010103e-14
1.203330414e-13
1.554153165e-13
1.926484941e-13
2.261084383e-13
2.475312199e-13
7.005520102e-14
8.638813068e-14
1.12493544e-13
1.492639656e-13
1.966161739e-13
2.523283485e-13
3.109489475e-13
3.632055007e-13
3.964309831e-13
1.163208722e-13
1.427624535e-13
1.847911302e-13
2.435662595e-13
3.186340479e-13
4.061884727e-13
4.975250928e-13
5.783034905e-13
6.293191173e-13
1.919298249e-13
2.343139316e-13
3.01295159e-13
3.942751127e-13
5.12040627e-13
6.482063202e-13
7.890614158e-13
9.126847474e-13
9.902602469e-13
3.145763445e-13
3.818186975e-13
4.874584989e-13
6.330099746e-13
8.158315248e-13
1.025423624e-12
1.240476136e-12
1.427851304e-12
1.544726654e-12
5.119803621e-13
6.175398371e-13
7.82395914e-13
1.007855128e-12
1.288743547e-12
1.608123639e-12
1.933297002e-12
2.214693177e-12
2.38923889e-12
8.271543468e-13
9.911067332e-13
1.245662115e-12
1.591278436e-12
2.018488847e-12
2.50045587e-12
2.987614219e-12
3.406532088e-12
3.665060233e-12
1.32620249e-12
1.57815468e-12
1.967123743e-12
2.491566891e-12
3.134993501e-12
3.855581264e-12
4.579047658e-12
5.197585841e-12
5.577554743e-12
2.109759301e-12
2.492911594e-12
3.081229369e-12
3.869232416e-12
4.829266755e-12
5.897147817e-12
6.962714988e-12
7.86898794e-12
8.423429146e-12
3.329621054e-12
3.906394127e-12
4.787498829e-12
5.960410283e-12
7.38015395e-12
8.949594507e-12
1.050693598e-11
1.182529248e-11
1.262891835e-11
5.212744243e-12
6.072538634e-12
7.379774542e-12
9.110064929e-12
1.119208979e-11
1.348071992e-11
1.574043182e-11
1.76454958e-11
1.880310981e-11
8.095647899e-12
9.365520844e-12
1.128771842e-11
1.381873632e-11
1.68480114e-11
2.016121151e-11
2.34182124e-11
2.615417741e-11
2.781219629e-11
1.247258315e-11
1.433173037e-11
1.713463909e-11
2.080802183e-11
2.518356187e-11
2.9947944e-11
3.461346484e-11
3.852039867e-11
4.088256263e-11
1.906433783e-11
2.176404125e-11
2.581960705e-11
3.111245698e-11
3.739030634e-11
4.419926821e-11
5.084448984e-11
5.639426851e-11
5.974315569e-11
2.89147525e-11
3.28055236e-11
3.863174874e-11
4.620731067e-11
5.51591013e-11
6.483487731e-11
7.425035751e-11
8.209562488e-11
8.68219636e-11
4.35256862e-11
4.909419697e-11
5.740936585e-11
6.818594952e-11
8.087852888e-11
9.455655955e-11
1.078330417e-10
1.188738115e-10
1.255163746e-10
6.504504858e-11
7.296430203e-11
8.476063164e-11
1.000052e-10
1.179087384e-10
1.371522116e-10
1.557903517e-10
1.712644758e-10
1.805643041e-10
9.652778515e-11
1.077251701e-10
1.243686929e-10
1.458237565e-10
1.709583067e-10
1.979134418e-10
2.239725952e-10
2.455784815e-10
2.585524586e-10
1.422968713e-10
1.580463436e-10
1.814121734e-10
2.114676017e-10
2.466015147e-10
2.842077898e-10
3.205074651e-10
3.505702666e-10
3.686108151e-10
2.084410361e-10
2.304878077e-10
2.631430729e-10
3.050684105e-10
3.539865879e-10
4.062609398e-10
4.566531366e-10
4.983494445e-10
5.23359368e-10
3.034989405e-10
3.342279084e-10
3.796788103e-10
4.379369593e-10
5.058029777e-10
5.782233821e-10
6.479601386e-10
7.056212915e-10
7.401958696e-10
4.393969465e-10
4.820598652e-10
5.45084819e-10
6.257548811e-10
7.195989739e-10
8.196212306e-10
9.158498244e-10
9.953706644e-10
1.043043152e-09
6.327307082e-10
6.917520302e-10
7.788500222e-10
8.901961658e-10
1.01957153e-09
1.157324228e-09
1.289753146e-09
1.399141822e-09
1.464713753e-09
9.065110569e-10
9.878987796e-10
1.107891477e-09
1.26112665e-09
1.438990354e-09
1.628207532e-09
1.810000149e-09
1.960115901e-09
2.050100385e-09
1.292534118e-09
1.404430411e-09
1.569268917e-09
1.779577836e-09
2.023470423e-09
2.282740089e-09
2.531710675e-09
2.737251071e-09
2.860465979e-09
1.834587125e-09
1.988004435e-09
2.213847442e-09
2.501753132e-09
2.835373593e-09
3.189803881e-09
3.530013002e-09
3.810830422e-09
3.979189251e-09
2.592767436e-09
2.802569459e-09
3.11121941e-09
3.50440242e-09
3.959703485e-09
4.44313776e-09
4.907011978e-09
5.2898618e-09
5.519423497e-09
3.649274715e-09
3.935478598e-09
4.356287004e-09
4.891997109e-09
5.511960574e-09
6.169908848e-09
6.801043456e-09
7.321893764e-09
7.634248877e-09
5.116137331e-09
5.50563402e-09
6.078016815e-09
6.806253945e-09
7.648547283e-09
8.54204406e-09
9.398887348e-09
1.010595191e-08
1.053004126e-08
7.145454487e-09
7.674268408e-09
8.451007027e-09
9.438691055e-09
1.058045438e-08
1.179110178e-08
1.295176431e-08
1.390945637e-08
1.448393913e-08
9.942874095e-09
1.065911064e-08
1.171065335e-08
1.304704986e-08
1.459111462e-08
1.622762238e-08
1.77961026e-08
1.909014448e-08
1.986645427e-08
1.378517701e-08
1.475283514e-08
1.617285395e-08
1.797657215e-08
2.005946619e-08
2.226605247e-08
2.438021665e-08
2.612417612e-08
2.71704237e-08
1.904298993e-08
2.034684508e-08
2.225934205e-08
2.468726644e-08
2.748940752e-08
3.045646979e-08
3.329816272e-08
3.564171496e-08
3.704761111e-08
2.620978371e-08
2.796156846e-08
3.052985518e-08
3.378840575e-08
3.754691818e-08
4.15244109e-08
4.533209389e-08
4.847131975e-08
5.035429676e-08
3.593840359e-08
3.828452431e-08
4.172241055e-08
4.608153604e-08
5.110612852e-08
5.642008007e-08
6.150438092e-08
6.569439706e-08
6.820709557e-08
4.908638737e-08
5.221740618e-08
5.680291629e-08
6.26131963e-08
6.930549724e-08
7.637804429e-08
8.314054305e-08
8.871070097e-08
9.20499449e-08
6.677121465e-08
7.093328769e-08
7.702516285e-08
8.473831085e-08
9.361495173e-08
1.029881475e-07
1.11943595e-07
1.193153708e-07
1.237326971e-07
9.043634844e-08
9.594473471e-08
1.040018628e-07
1.141947674e-07
1.259143176e-07
1.382777626e-07
1.50079714e-07
1.597872436e-07
1.656009068e-07
1.219284414e-07
1.291830729e-07
1.397868027e-07
1.531890074e-07
1.685825833e-07
1.848046166e-07
2.002741891e-07
2.129871106e-07
2.205953105e-07
1.63585354e-07
1.730882838e-07
1.869673244e-07
2.044915093e-07
2.245965042e-07
2.457583381e-07
2.659153971e-07
2.82463474e-07
2.923589094e-07
2.183336697e-07
2.307079809e-07
2.487652613e-07
2.71539926e-07
2.976358696e-07
3.250674928e-07
3.511632289e-07
3.725623511e-07
3.853468205e-07
2.897932076e-07
3.058027488e-07
3.291432666e-07
3.585462837e-07
3.921912518e-07
4.275077408e-07
4.610578357e-07
4.885351097e-07
5.049338476e-07
3.823847581e-07
4.029537179e-07
4.329119568e-07
4.706032309e-07
5.136694797e-07
5.588063401e-07
6.016213394e-07
6.36638445e-07
6.575131875e-07
5.014357167e-07
5.276667868e-07
5.658321391e-07
6.137847156e-07
6.684911571e-07
7.257345932e-07
7.799463571e-07
8.242192623e-07
8.505790336e-07
6.532781503e-07
6.864693022e-07
7.347089132e-07
7.952337609e-07
8.641713215e-07
9.361822024e-07
1.004263866e-06
1.059777106e-06
1.092785708e-06
8.453352494e-07
8.869911541e-07
9.474650368e-07
1.023228576e-06
1.1093774e-06
1.199206121e-06
1.283983366e-06
1.352997211e-06
1.393976487e-06
1.086182079e-06
1.138020665e-06
1.213189854e-06
1.30722187e-06
1.413957518e-06
1.5250475e-06
1.629699227e-06
1.714748355e-06
1.7651765e-06
1.385578921e-06
1.449531409e-06
1.54215671e-06
1.657846723e-06
1.788933512e-06
1.925111644e-06
2.053158699e-06
2.157041455e-06
2.218545901e-06
1.754469818e-06
1.832673349e-06
1.945803552e-06
2.086884382e-06
2.246454705e-06
2.411907792e-06
2.567189094e-06
2.692946985e-06
2.767291773e-06
2.204941829e-06
2.29972423e-06
2.436673263e-06
2.607191336e-06
2.799710677e-06
2.998947844e-06
3.185584099e-06
3.336471831e-06
3.425539695e-06
2.750142599e-06
2.863999359e-06
3.028312586e-06
3.232585385e-06
3.462803679e-06
3.700605621e-06
3.922951618e-06
4.102398595e-06
4.208168381e-06
3.404156339e-06
3.539720372e-06
3.735130967e-06
3.977692895e-06
4.250583837e-06
4.531940664e-06
4.794527893e-06
5.006092645e-06
5.130612939e-06
4.181840873e-06
4.34184616e-06
4.572223149e-06
4.857761859e-06
5.17845248e-06
5.508492643e-06
5.815964575e-06
6.063284e-06
6.208644074e-06
5.098630888e-06
5.285871461e-06
5.555161553e-06
5.888447361e-06
6.26214083e-06
6.646054087e-06
7.00309682e-06
7.289832359e-06
7.458131645e-06
6.170314528e-06
6.387600537e-06
6.699766216e-06
7.085577591e-06
7.517472471e-06
7.960430116e-06
8.371701247e-06
8.701484187e-06
8.894801507e-06
7.412791995e-06
7.662904717e-06
8.021861188e-06
8.464909392e-06
8.960118661e-06
9.467194205e-06
9.937252726e-06
1.031363073e-05
1.053399443e-05
8.841825575e-06
9.127473189e-06
9.537026702e-06
1.004188257e-05
1.06053555e-05
1.118144877e-05
1.171468851e-05
1.214107522e-05
1.239043525e-05
1.04727906e-05
1.07965664e-05
1.126035625e-05
1.18313817e-05
1.246783136e-05
1.311759856e-05
1.37181873e-05
1.41978166e-05
1.447801926e-05
1.232043633e-05
1.268478078e-05
1.320622684e-05
1.38475134e-05
1.456135188e-05
1.528914362e-05
1.596096956e-05
1.649685559e-05
1.680962168e-05
1.439866461e-05
1.480583232e-05
1.538808966e-05
1.610340543e-05
1.689868853e-05
1.770849721e-05
1.845512389e-05
1.905002764e-05
1.939693426e-05
1.672033274e-05
1.717236512e-05
1.781828655e-05
1.861103285e-05
1.94914151e-05
2.03868326e-05
2.121146286e-05
2.18678657e-05
2.225033195e-05
1.929708539e-05
1.979578934e-05
2.050789639e-05
2.138107448e-05
2.234977499e-05
2.333396076e-05
2.423940996e-05
2.495949413e-05
2.537877069e-05
2.213921846e-05
2.26861512e-05
2.346661371e-05
2.442280153e-05
2.54825805e-05
2.655824006e-05
2.754691832e-05
2.833255421e-05
2.878971656e-05
2.525557652e-05
2.585203633e-05
2.670266015e-05
2.774399879e-05
2.889714419e-05
3.006651742e-05
3.114042023e-05
3.199315992e-05
3.248910506e-05
2.865348359e-05
2.930050605e-05
3.022272844e-05
3.135091745e-05
3.259924112e-05
3.386409938e-05
3.502480597e-05
3.594588244e-05
3.648132867e-05
3.233870603e-05
3.303706527e-05
3.403195705e-05
3.524825778e-05
3.659309977e-05
3.795475097e-05
3.920342934e-05
4.019376073e-05
4.076925004e-05
3.631544524e-05
3.706565948e-05
3.81339331e-05
3.943917886e-05
4.088141894e-05
4.234071935e-05
4.367813712e-05
4.473833509e-05
4.535423794e-05
4.058635723e-05
4.138869787e-05
4.253072044e-05
4.392533234e-05
4.546540744e-05
4.702277907e-05
4.8449319e-05
4.957970064e-05
5.023622248e-05
4.515259547e-05
4.600709909e-05
4.722290937e-05
4.870691676e-05
5.034484307e-05
5.200029547e-05
5.351597475e-05
5.471657721e-05
5.541376647e-05
5.001387344e-05
5.092035609e-05
5.220968436e-05
5.378274877e-05
5.551814747e-05
5.727130286e-05
5.887579521e-05
6.014639232e-05
6.088414952e-05
5.516854311e-05
5.612661606e-05
5.748890635e-05
5.91503478e-05
6.098247327e-05
6.283259405e-05
6.452525381e-05
6.586537418e-05
6.664346178e-05
6.061368573e-05
6.162277232e-05
6.305720582e-05
6.48060308e-05
6.673380047e-05
6.867981815e-05
7.04597056e-05
7.186865159e-05
7.268670433e-05
6.63452115e-05
6.740456447e-05
6.891008377e-05
7.074501392e-05
7.276703888e-05
7.480758386e-05
7.667349111e-05
7.815035829e-05
7.900789372e-05
7.2357965e-05
7.346668401e-05
7.50420174e-05
7.696151843e-05
7.907613419e-05
8.120956548e-05
8.316004252e-05
8.470373911e-05
8.56001682e-05
7.864583374e-05
7.980288257e-05
8.144656812e-05
8.344887826e-05
8.565417507e-05
8.787860975e-05
8.991199004e-05
9.152125617e-05
9.245589376e-05
8.520185736e-05
8.640608068e-05
8.811648956e-05
9.019964725e-05
9.249349958e-05
9.480684135e-05
9.692126682e-05
9.859469321e-05
9.956676824e-05
9.201833549e-05
9.326847497e-05
9.504383382e-05
9.720570426e-05
9.958579912e-05
0.0001019857657
0.0001041792107
0.0001059152568
0.0001069239221
9.908693274e-05
0.0001003816422
0.0001022200544
0.0001044583548
0.0001069222185
0.0001094063679
0.0001116766621
0.000113473673
0.0001145180148
0.0001063987794
0.0001077366392
0.0001096361048
0.0001119484278
0.0001144934515
0.0001170592063
0.0001194040562
0.0001212602794
0.0001223393263
0.0001139445668
0.0001153240973
0.0001172825314
0.0001196663676
0.0001222898306
0.0001249345013
0.0001273515106
0.0001292651107
0.000130377842
0.0001217146375
0.0001231343108
0.0001251495611
0.0001276023191
0.0001303014108
0.000133022217
0.0001355089051
0.0001374779789
0.0001386233325
0.0001296990677
0.0001311573194
0.0001332271816
0.0001357462071
0.0001385180473
0.0001413121374
0.0001438659573
0.0001458885463
0.0001470654261
0.0001378877447
0.0001393829841
0.0001415052164
0.0001440878088
0.0001469294659
0.0001497939353
0.0001524122893
0.0001544863925
0.0001556936756
0.0001462704364
0.0001478010556
0.0001499733917
0.0001526168202
0.0001555253282
0.0001584572357
0.0001611374902
0.0001632610753
0.0001644976178
0.0001548368546
0.000156401237
0.0001586213978
0.0001613229154
0.0001642952889
0.0001672916719
0.0001700311707
0.0001722021842
0.0001734668276
0.0001635767121
0.0001651732399
0.0001674389441
0.0001701957999
0.0001732290479
0.0001762869356
0.0001790830125
0.0001812993894
0.0001825909656
0.0001724797728
0.0001741068337
0.0001764158071
0.0001792252579
0.0001823163961
0.0001854328222
0.0001882828113
0.0001905424836
0.0001918598198
0.0001815358968
0.0001831918895
0.0001855418734
0.0001884011937
0.0001915472555
0.0001947192684
0.0001976205146
0.0001999214191
0.0002012633425
0.0001907350785
0.0001924184187
0.0001948071772
0.000197713668
0.0002009117138
0.0002041363872
0.0002070862545
0.0002094263396
0.0002107916814
0.0002000674813
0.0002017766054
0.0002042019318
0.0002071529286
0.0002104000547
0.0002136744953
0.000216670375
0.0002190476072
0.0002204352062
0.0002095234653
0.000211256835
0.0002137165575
0.0002167094366
0.0002200027828
0.0002233241385
0.000226363456
0.000228775825
0.000230184531
0.0002190936123
0.0002208497177
0.0002233417042
0.0002263738891
0.0002297106448
0.0002330761108
0.0002361563317
0.000238601856
0.0002400305323
0.0002287687458
0.0002305461083
0.0002330682705
0.0002361372367
0.0002395146466
0.0002429214716
0.000246040107
0.0002485168375
0.0002499643641
0.0002385399471
0.0002403371219
0.0002428874187
0.0002459906982
0.0002494060673
0.0002528515579
0.000256006169
0.0002585121931
0.0002599774687
0.0002483985687
0.0002502141469
0.0002527905875
0.0002559257719
0.0002593764693
0.0002628579945
0.0002660461964
0.0002685796414
0.0002700615854
0.0002583362441
0.0002601688542
0.0002627695003
0.0002659342444
0.0002694177064
0.0002729327008
0.0002761521661
0.0002787112015
0.0002802087557
0.0002683448949
0.0002701932042
0.0002728161722
0.0002760081957
0.0002795219291
0.0002830678958
0.0002863163568
0.0002888991971
0.0002904113274
0.0002784167359
0.0002802794517
0.0002829229137
0.0002861400035
0.0002896815872
0.0002932561
0.0002965313513
0.0002991362576
0.0003006619549
0.0002885442776
0.0002904201477
0.0002930823329
0.0002963223444
0.0002998894309
0.0003034901363
0.0003067900365
0.0003094153181
0.0003109535997
0.000298720327
0.0003006081402
0.0003032873356
0.0003065481935
0.0003101385106
0.0003137631285
0.0003170856014
0.000319729617
0.0003212795272
0.0003089379869
0.0003108365733
0.0003135311242
0.0003168108231
0.000320422174
0.000324068499
0.0003274115345
0.0003300726933
0.0003316333041
0.0003191906534
0.0003210988847
0.0003238071945
0.0003271037992
0.0003307340631
0.0003343999649
0.0003377616196
0.0003404383816
0.0003420087932
0.0003294720126
0.0003313888017
0.0003341093321
0.0003374209774
0.0003410681095
0.0003447515328
0.0003481299302
0.0003508208066
0.0003524001478
0.000339776036
0.0003417003369
0.0003444316074
0.0003477564978
0.0003514185291
0.0003551174934
0.0003585108238
0.0003612143773
0.0003628018055
0.000350096975
0.0003520277822
0.0003547683699
0.000358104779
0.0003617798153
0.0003654924146
0.000368898935
0.0003716137795
0.0003732084808
0.0003604293548
0.0003623657032
0.0003651142415
0.0003684605113
0.0003721467326
0.0003758711346
0.0003792891679
0.0003820139684
0.0003836151577
0.0003707679676
0.0003727089316
0.0003754641098
0.0003788186495
0.0003825143093
0.0003862487542
0.0003896766887
0.0003924101605
0.0003940170814
0.0003811078655
0.0003830525582
0.0003858131205
0.0003891744055
0.000392877829
0.0003966206289
0.0004000569172
0.0004027978256
0.0004044097499
0.0003914443525
0.0003933919252
0.0003961566695
0.00039952324
0.0004032328233
0.0004069823604
0.0004104255184
0.0004131726782
0.0004147889054
0.000401772977
0.0004037226181
0.0004064903948
0.0004098608546
0.0004135750628
0.0004173297885
0.0004207783942
0.0004235306682
0.0004251505258
0.0004120895231
0.0004140404575
0.0004168101683
0.0004201831831
0.000423900549
0.0004276589819
0.0004311116742
0.0004338679728
0.0004354908152
0.0004223900035
0.0004243414912
0.0004271120877
0.0004304863835
0.0004342055057
0.0004379662301
0.0004414217072
0.0004441809872
0.0004458061955
0.0004326706499
0.0004346219856
0.000437392468
0.0004407668294
0.0004444863706
0.0004482480349
0.0004517050528
0.0004544663164
0.0004560932975
0.0004429279058
0.0004448784172
0.0004476478327
0.0004510211016
0.0004547397866
0.0004585011012
0.0004619584724
0.0004647207658
0.0004663489522
0.000453158417
0.0004551074642
0.0004578749059
0.0004612459792
0.0004649625934
0.0004687223293
0.0004721789208
0.0004749413332
0.0004765701822
0.0004633590238
0.0004653059984
0.0004680706035
0.0004714384317
0.000475151819
0.0004789088056
0.0004823635378
0.0004851252001
0.0004867541931
0.0004735267532
0.0004754710768
0.0004782320253
0.0004815956109
0.0004853046716
0.0004890577951
0.0004925096395
0.0004952697233
0.000496898365
0.0004836588104
0.0004855999341
0.0004883564472
0.0004917148423
0.0004954185316
0.0004991667328
0.000502614711
0.0005053724269
0.0005070002449
0.0004937525713
0.0004956899741
0.0004984413129
0.0005017936181
0.0005054909436
0.0005092332164
0.0005126763978
0.0005154309943
0.0005170575381
0.0005038055745
0.0005057387626
0.0005084842265
0.0005118295886
0.000515519609
0.0005192549979
0.0005226924984
0.0005254432607
0.0005270681011
0.0005138155141
0.0005157440196
0.0005184829448
0.0005218205552
0.000525502378
0.0005292299767
0.0005326609566
0.0005354072052
0.0005370299336
0.0005237802319
0.0005257036121
0.0005284353701
0.0005317644633
0.0005354372428
0.000539156192
0.0005425798546
0.0005453209438
0.0005469411715
0.0005336977106
0.0005356155467
0.0005383395431
0.0005416593944
0.0005453223299
0.0005490318156
0.0005524474054
0.0005551827224
0.0005568000796
0.0005435660668
0.0005454779629
0.0005481936357
0.0005515035599
0.0005551558939
0.0005588551451
0.0005622619463
0.0005649909093
0.0005666050447
0.0005533835439
0.0005552891262
0.0005579959443
0.0005612952938
0.0005649363099
0.0005686245974
0.0005720219316
0.0005747439889
0.0005763545687
0.0005631485056
0.0005650474211
0.0005677448833
0.0005710330463
0.0005746620675
0.0005783387012
0.0005817259263
0.0005844405549
0.0005860472621
0.0005728594295
0.0005747513452
0.0005774389781
0.000580715377
0.0005843317635
0.0005879960911
0.0005913725993
0.0005940793035
0.000595681837
0.0005825149
0.0005843995018
0.0005870768589
0.0005903409485
0.0005939440962
0.0005975955008
0.0006009607168
0.0006036590266
0.0006052571006
0.0005921136025
0.0005939905942
0.0005966572542
0.0005999085198
0.0006034978578
0.0006071357565
0.0006104891356
0.0006131786054
0.0006147719483
0.000601654317
0.0006035234189
0.0006061789844
0.0006094169398
0.0006129919289
0.0006166157697
0.0006199567958
0.0006226370027
0.0006242253563
0.0006111359112
0.0006129968595
0.0006156409549
0.0006188651408
0.0006224252704
0.0006260345307
0.0006293627141
0.0006320332562
0.0006336163747
0.0006205573345
0.0006224098798
0.0006250421498
0.0006282521311
0.0006317969174
0.0006353911008
0.000638705976
0.0006413664702
0.0006429441188
0.0006299176112
0.0006317615169
0.0006343816246
0.0006375769882
0.000641105971
0.0006446846049
0.0006479857274
0.0006506358075
0.0006522077611
0.0006392158339
0.000641050875
0.0006436584994
0.0006468388513
0.0006503515911
0.000653914223
0.0006572011663
0.00065984048
0.0006614065216
0.0006484511565
0.0006502771179
0.0006528719516
0.0006560369139
0.0006595329881
0.0006630791815
0.0006663515335
0.000668979739
0.0006705396578
0.0006576227883
0.0006594394626
0.0006620212091
0.0006651704161
0.0006686494144
0.0006721787449
0.0006754361027
0.0006780528653
0.0006796064537
0.0006667299877
0.0006685371733
0.0006711055432
0.0006742386374
0.0006777001576
0.0006812122065
0.0006844541716
0.0006870591584
0.0006886062095
0.0006757720581
0.0006775695563
0.0006801242642
0.0006832408913
0.0006866845328
0.0006901788816
0.0006934050532
0.0006959979277
0.0006975382312
0.0006847483447
0.0006865359575
0.0006890767177
0.0006921765216
0.0006956018795
0.0006990781024
0.00070228807
0.0007048684854
0.0007064018235
0.0006936582367
0.0006954357636
0.0006979622859
0.0007010449031
0.0007044515615
0.0007079092178
0.0007111025533
0.0007136701453
0.0007151962874
0.0007025011736
0.0007042684092
0.0007067803951
0.0007098454493
0.0007132329745
0.0007166716012
0.0007198478511
0.0007224022299
0.0007239209276
0.000711276661
0.0007130333931
0.0007155305325
0.0007185776303
0.0007219455658
0.0007253646709
0.0007285233485
0.0007310640924
0.0007325750738
0.0007199842979
0.0007217303065
0.0007242122762
0.0007272410054
0.0007305888684
0.0007339879273
0.0007371285087
0.0007396551583
0.0007411581244
0.0007286238206
0.0007303588789
0.0007328253447
0.0007358352758
0.0007391625596
0.0007425410162
0.0007456629399
0.0007481749978
0.0007496696211
0.0007371951681
0.0007389190472
0.0007413696701
0.0007443603645
0.0007476665475
0.0007510238238
0.0007541265001
0.000756623437
0.0007581093641
0.0007456985746
0.0007474110529
0.0007498455027
0.0007528165306
0.000756101097
0.0007594366151
0.0007625194466
0.0007650007188
0.0007664775806
0.0007541346967
0.0007558355754
0.0007582535545
0.0007612045253
0.0007644670009
0.0007677802226
0.0007708426436
0.0007733077261
0.0007747751587
0.0007625047794
0.0007641939074
0.0007665951875
0.0007695257973
0.0007727658068
0.0007760562959
0.0007790978352
0.0007815462766
0.0007830039557
0.0007708108688
0.0007724881781
0.0007748726534
0.0007777827546
0.0007810001044
0.000784267619
0.0007872879931
0.0007897194976
0.0007911671916
0.0007790560746
0.0007807216294
0.0007830893894
0.0007859790865
0.0007891738793
0.0007924184992
0.0007954177421
0.0007978322844
0.0007992699295
0.0007872448849
0.0007888989457
0.0007912503718
0.0007941201463
0.000797292932
0.000800515227
0.0008034938621
0.0008058918408
0.0008073196421
0.0007953835316
0.0007970266363
0.0007993625229
0.0008022133925
0.0008053653586
0.0008085666006
0.0008115258581
0.0008139082908
0.0008153268512
0.0008034804015
0.0008051134643
0.0008074351662
0.0008102688766
0.0008134020788
0.0008165845
0.0008195265807
0.0008218953405
0.0008233058179
0.0008115464808
0.0008131709076
0.000815480512
0.0008182997618
0.000821417393
0.0008245844844
0.0008275128666
0.0008298709574
0.0008312752491
0.0008195958154
0.0008212136336
0.0008235141535
0.0008263228444
0.000829429534
0.000832586379
0.0008355061587
0.0008378580212
0.0008392589678
0.0008276459605
0.0008292599583
0.0008315555389
0.0008343590437
0.0008374611757
0.0008406148015
0.0008435330504
0.0008458848833
0.0008472864837
0.0008357183841
0.0008373322536
0.0008396283825
0.0008424338122
0.0008455398412
0.0008486995673
0.0008516256864
0.000853985761
0.0008553933823
0.0008438387786
0.0008454572493
0.0008477609531
0.0008505774103
0.0008536981545
0.0008568759058
0.0008598219381
0.0008622008771
0.0008636214401
0.0008520372357
0.0008536661877
0.0008559861947
0.0008588249748
0.0008619738461
0.0008651843996
0.0008681652684
0.000870576248
0.0008720183611
0.0008603482179
0.0008619947577
0.0008643416028
0.0008672163173
0.0008704094517
0.0008736705604
0.0008767041792
0.0008791630171
0.0008806370271
0.0008688102642
0.0008704827433
0.0008728687858
0.0008757953685
0.0008790516094
0.0008823839571
0.0008854911578
0.0008880162289
0.0008895341583
0.000877465362
0.0008791733186
0.0008816126418
0.0008846091956
0.0008879498811
0.0008913768109
0.0008945810322
0.0008971929643
0.000898768295
0.0008863579223
0.0008881119226
0.000890620082