/*--------------------------------*- C++ -*----------------------------------*\
| =========                 |                                                 |
| \\      /  F ield         | OpenFOAM: The Open Source CFD Toolbox           |
|  \\    /   O peration     | Version:  2212                                  |
|   \\  /    A nd           | Website:  www.openfoam.com                      |
|    \\/     M anipulation  |                                                 |
\*---------------------------------------------------------------------------*/
FoamFile
{
    version     2.0;
    format      ascii;
    arch        "LSB;label=32;scalar=64";
    class       volScalarField;
    location    "20.00000000";
    object      C5H5_0;
}
// * * * * * * * * * * * * * * * * * * * * * * * * * * * * * * * * * * * * * //

dimensions      [0 0 0 0 0 0 0];

internalField   nonuniform List<scalar> 
3000
(
3.374034543e-23
3.790440211e-23
4.418807247e-23
5.25618625e-23
6.294082007e-23
7.50432376e-23
8.814007351e-23
1.006373768e-22
1.094748094e-22
1.266824594e-22
1.42891343e-22
1.673405199e-22
1.999945867e-22
2.408218185e-22
2.895965433e-22
3.454722832e-22
4.056294144e-22
4.589185035e-22
2.837846199e-22
3.226094405e-22
3.817312403e-22
4.620080321e-22
5.648853579e-22
6.918576955e-22
8.424263358e-22
1.008140069e-21
1.149770806e-21
5.405928184e-22
6.209942623e-22
7.45223969e-22
9.174901299e-22
1.143901265e-21
1.430216737e-21
1.774879511e-21
2.15030486e-21
2.4533407e-21
9.600837788e-22
1.116421846e-21
1.361787138e-21
1.708655239e-21
2.173355386e-21
2.768929047e-21
3.485442256e-21
4.246402204e-21
4.830581731e-21
1.65121474e-21
1.944703305e-21
2.411928516e-21
3.082736503e-21
3.99294611e-21
5.165501854e-21
6.565420437e-21
8.016182763e-21
9.089585116e-21
2.803745684e-21
3.342991686e-21
4.21147085e-21
5.472468814e-21
7.19628732e-21
9.417289583e-21
1.204369529e-20
1.471241427e-20
1.663823532e-20
4.746013411e-21
5.722198613e-21
7.308396973e-21
9.62936293e-21
1.281472755e-20
1.69105517e-20
2.17115097e-20
2.651884338e-20
2.993010679e-20
8.04712088e-21
9.795663298e-21
1.265527774e-20
1.686079852e-20
2.264292522e-20
3.005761404e-20
3.868629553e-20
4.723658491e-20
5.32368606e-20
1.369279918e-20
1.680017568e-20
2.190538096e-20
2.943774131e-20
3.98003092e-20
5.305386008e-20
6.839188462e-20
8.347905786e-20
9.398789853e-20
2.339146616e-20
2.888112827e-20
3.792893077e-20
5.130522666e-20
6.970777851e-20
9.319090635e-20
1.202544986e-19
1.467386116e-19
1.65093256e-19
4.010447093e-20
4.975953324e-20
6.570706641e-20
8.931254397e-20
1.21778438e-19
1.63128578e-19
2.106343226e-19
2.569539961e-19
2.889476174e-19
6.896646628e-20
8.589011725e-20
1.138836391e-19
1.55346448e-19
2.123425834e-19
2.848098632e-19
3.678513452e-19
4.486063336e-19
5.042958411e-19
1.188823667e-19
1.484709563e-19
1.974584608e-19
2.700329072e-19
3.697157464e-19
4.962089077e-19
6.407454626e-19
7.809570893e-19
8.779539622e-19
2.053005094e-19
2.569368155e-19
3.424783257e-19
4.692070064e-19
6.430941052e-19
8.6316798e-19
1.113333121e-18
1.354285062e-18
1.525217147e-18
3.550293065e-19
4.450350924e-19
5.942266941e-19
8.153141688e-19
1.118564154e-18
1.501527421e-18
1.93264688e-18
2.327628618e-18
2.649543183e-18
6.145918446e-19
7.713537759e-19
1.031389397e-18
1.417148364e-18
1.947475916e-18
2.621590401e-18
3.397065397e-18
4.170732861e-18
4.654541132e-18
1.064700696e-18
1.337480144e-18
1.790124802e-18
2.461751776e-18
3.384898165e-18
4.556613721e-18
5.895818331e-18
7.193382275e-18
8.074783766e-18
1.845456122e-18
2.319800307e-18
3.107044884e-18
4.27510607e-18
5.879984697e-18
7.915072655e-18
1.023696916e-17
1.248201244e-17
1.401876115e-17
3.200078071e-18
4.024592899e-18
5.393142699e-18
7.42366014e-18
1.021297038e-17
1.374866081e-17
1.778075499e-17
2.167827266e-17
2.434762431e-17
5.550817013e-18
6.983624009e-18
9.3620091e-18
1.28907766e-17
1.773764093e-17
2.388013686e-17
3.088319383e-17
3.765089159e-17
4.228548291e-17
9.630755119e-18
1.212014602e-17
1.625256359e-17
2.238356424e-17
3.080368245e-17
4.147253161e-17
5.363312269e-17
6.53820689e-17
7.342626754e-17
1.671261246e-17
2.10370871e-17
2.821574037e-17
3.886550409e-17
5.348936683e-17
7.201465869e-17
9.312447566e-17
1.135138999e-16
1.274704065e-16
2.900575966e-17
3.651705585e-17
4.898523132e-17
6.747998234e-17
9.287127066e-17
1.250278086e-16
1.616586492e-16
1.970272942e-16
2.212294829e-16
5.034487418e-17
6.338961753e-17
8.504067248e-17
1.171511061e-16
1.612234322e-16
2.170187554e-16
2.805511672e-16
3.41867696e-16
3.838088421e-16
8.738345488e-17
1.100341875e-16
1.476226038e-16
2.033549803e-16
2.798209293e-16
3.765813209e-16
4.866997618e-16
5.929169205e-16
6.655320337e-16
1.516597647e-16
1.909808454e-16
2.562175961e-16
3.529090196e-16
4.855059812e-16
6.531909303e-16
8.438885905e-16
1.027690823e-15
1.153256977e-15
2.631678333e-16
3.314044124e-16
4.445763057e-16
6.122328754e-16
8.419958248e-16
1.132321131e-15
1.462177591e-15
1.779786804e-15
1.99655621e-15
4.56517675e-16
5.748730542e-16
7.710798178e-16
1.061557614e-15
1.459295034e-15
1.961332394e-15
2.53102158e-15
3.078833247e-15
3.452241049e-15
7.915361649e-16
9.966726209e-16
1.336542432e-15
1.839281986e-15
2.526888123e-15
3.393607247e-15
4.37554841e-15
5.318164089e-15
5.959619862e-15
1.371454954e-15
1.726643065e-15
2.314671226e-15
3.183543943e-15
4.37021776e-15
5.863373198e-15
7.551592588e-15
9.168672909e-15
1.026677984e-14
2.374004279e-15
2.988162392e-15
4.003946204e-15
5.502810511e-15
7.546220362e-15
1.011170931e-14
1.300498668e-14
1.576881775e-14
1.764069279e-14
4.104349391e-15
5.164385807e-15
6.915515419e-15
9.495014162e-15
1.300381455e-14
1.739710542e-14
2.233627649e-14
2.703878969e-14
3.021342668e-14
7.084784295e-15
8.910190453e-15
1.192119071e-14
1.634721e-14
2.235136058e-14
2.984419514e-14
3.82363776e-14
4.619462933e-14
5.154654741e-14
1.220589001e-14
1.53402105e-14
2.050089723e-14
2.806750767e-14
3.829839298e-14
5.101561416e-14
6.519588946e-14
7.858006683e-14
8.754058938e-14
2.097975636e-14
2.634253416e-14
3.515317773e-14
4.803200917e-14
6.537794199e-14
8.683957611e-14
1.106466125e-13
1.329962621e-13
1.478826723e-13
3.596139651e-14
4.509812235e-14
6.007034549e-14
8.187726505e-14
1.111149734e-13
1.470969735e-13
1.867762102e-13
2.238008822e-13
2.483217055e-13
6.144505132e-14
7.693385676e-14
1.02238578e-13
1.389413318e-13
1.878949052e-13
2.477765727e-13
3.13376741e-13
3.741795952e-13
4.141991156e-13
1.04605786e-13
1.307112468e-13
1.732126442e-13
2.345650776e-13
3.159162279e-13
4.147587987e-13
5.222597238e-13
6.211808843e-13
6.858601256e-13
1.773555566e-13
2.210661006e-13
2.919491919e-13
3.937254798e-13
5.278000077e-13
6.895063378e-13
8.640148148e-13
1.023370908e-12
1.126849086e-12
2.993339956e-13
3.719851918e-13
4.892813141e-13
6.567056992e-13
8.756998639e-13
1.137749008e-12
1.418234178e-12
1.672339276e-12
1.836183888e-12
5.026819199e-13
6.224596931e-13
8.149076899e-13
1.087842123e-12
1.442141123e-12
1.862586635e-12
2.308809363e-12
2.709811221e-12
2.966553056e-12
8.395838156e-13
1.035327098e-12
1.348189323e-12
1.788866789e-12
2.356361801e-12
3.024046461e-12
3.726586263e-12
4.352855093e-12
4.751045434e-12
1.394060423e-12
1.710951481e-12
2.214646817e-12
2.919040263e-12
3.818692523e-12
4.867989309e-12
5.962611502e-12
6.930696659e-12
7.542089899e-12
2.300206164e-12
2.808161159e-12
3.61090092e-12
4.725221713e-12
6.136582483e-12
7.768455593e-12
9.456523259e-12
1.093807311e-11
1.186776499e-11
3.770081853e-12
4.575950988e-12
5.841993846e-12
7.586354605e-12
9.777370858e-12
1.228920707e-11
1.486647094e-11
1.711202892e-11
1.851269043e-11
6.135903103e-12
7.400982878e-12
9.376698817e-12
1.207870215e-11
1.544497704e-11
1.927252809e-11
2.316948125e-11
2.654177495e-11
2.863354336e-11
9.913161835e-12
1.187804605e-11
1.492874866e-11
1.907074286e-11
2.419055509e-11
2.996653766e-11
3.580467902e-11
4.082497272e-11
4.392313528e-11
1.589409326e-11
1.891359338e-11
2.357513645e-11
2.986020187e-11
3.757112192e-11
4.620665252e-11
5.487656854e-11
6.228894177e-11
6.684231798e-11
2.528474924e-11
2.987656782e-11
3.692710439e-11
4.637061949e-11
5.787562582e-11
7.067286201e-11
8.344214702e-11
9.430232712e-11
1.009462778e-10
3.990427546e-11
4.681641642e-11
5.737561629e-11
7.143165202e-11
8.844540163e-11
1.072526822e-10
1.259145466e-10
1.417122457e-10
1.513417832e-10
6.247239996e-11
7.277610202e-11
8.844171058e-11
1.091767402e-10
1.341262386e-10
1.615508159e-10
1.886280662e-10
2.11455013e-10
2.253254337e-10
9.702141835e-11
1.122389753e-10
1.35273314e-10
1.656026674e-10
2.019016304e-10
2.416014473e-10
2.806264076e-10
3.134071139e-10
3.332717763e-10
1.494727544e-10
1.717507704e-10
2.053371174e-10
2.493528087e-10
3.017800877e-10
3.588640169e-10
4.147608403e-10
4.615668857e-10
4.898648629e-10
2.284599539e-10
2.608077588e-10
3.094001933e-10
3.728150136e-10
4.480278756e-10
5.29599469e-10
6.092047862e-10
6.756833659e-10
7.15795918e-10
3.464820954e-10
3.930957024e-10
4.628946657e-10
5.536465088e-10
6.60878503e-10
7.767749378e-10
8.895449593e-10
9.835009163e-10
1.040099669e-09
5.215148498e-10
5.8821689e-10
6.8781479e-10
8.168865893e-10
9.68893866e-10
1.132687322e-09
1.291655491e-09
1.423839309e-09
1.503357564e-09
7.792517322e-10
8.740876158e-10
1.015343294e-09
1.197872924e-09
1.412214337e-09
1.642565659e-09
1.86563652e-09
2.05080869e-09
2.162078232e-09
1.156208829e-09
1.290252775e-09
1.489473203e-09
1.74625237e-09
2.047017127e-09
2.369501974e-09
2.681196722e-09
2.939564727e-09
3.094676497e-09
1.704006804e-09
1.892448818e-09
2.171981887e-09
2.531475377e-09
2.951609719e-09
3.401178329e-09
3.834988235e-09
4.194146951e-09
4.409615325e-09
2.4952482e-09
2.75885578e-09
3.149231491e-09
3.650291217e-09
4.23472657e-09
4.859013946e-09
5.460571631e-09
5.958120701e-09
6.256454337e-09
3.631541923e-09
3.998620608e-09
4.541423318e-09
5.236930717e-09
6.04678569e-09
6.910562667e-09
7.741908222e-09
8.42897131e-09
8.84078373e-09
5.254402368e-09
5.763421472e-09
6.515138858e-09
7.476889753e-09
8.595108996e-09
9.786254535e-09
1.093155399e-08
1.18774914e-08
1.24443262e-08
7.5599895e-09
8.26309646e-09
9.300272771e-09
1.062551739e-08
1.216441521e-08
1.380189497e-08
1.537507064e-08
1.667376422e-08
1.745186241e-08
1.081897076e-08
1.178668345e-08
1.321279515e-08
1.503295271e-08
1.71442491e-08
1.938871706e-08
2.154358015e-08
2.332177625e-08
2.438707547e-08
1.540314196e-08
1.673057447e-08
1.868514168e-08
2.117733328e-08
2.406542169e-08
2.713322638e-08
3.007685579e-08
3.250517355e-08
3.395989912e-08
2.182080147e-08
2.363585613e-08
2.630642225e-08
2.970862281e-08
3.364798921e-08
3.78295476e-08
4.183982298e-08
4.514716323e-08
4.712844418e-08
3.076325561e-08
3.323730972e-08
3.687505986e-08
4.150583621e-08
4.68637266e-08
5.254740128e-08
5.799575063e-08
6.248795691e-08
6.517896348e-08
4.316522185e-08
4.652692432e-08
5.146683021e-08
5.77507661e-08
6.50163338e-08
7.271907276e-08
8.009959538e-08
8.618328498e-08
8.982741411e-08
6.028214267e-08
6.483498093e-08
7.152141301e-08
8.002136794e-08
8.984256309e-08
1.00248566e-07
1.102146661e-07
1.184271027e-07
1.233456952e-07
8.378734359e-08
8.993160151e-08
9.895027554e-08
1.104075071e-07
1.23636797e-07
1.376452427e-07
1.510546448e-07
1.621002688e-07
1.687141675e-07
1.158913208e-07
1.241508693e-07
1.362677087e-07
1.516504826e-07
1.693999677e-07
1.88182219e-07
2.061505776e-07
2.209442169e-07
2.297990909e-07
1.594839344e-07
1.705378952e-07
1.867447677e-07
2.073052341e-07
2.310106743e-07
2.560761772e-07
2.800382669e-07
2.997539763e-07
3.115486605e-07
2.182975608e-07
2.330161726e-07
2.545823776e-07
2.819200533e-07
3.134115712e-07
3.466797213e-07
3.78455242e-07
4.045780472e-07
4.201941161e-07
2.9708504e-07
3.165679685e-07
3.450947181e-07
3.812227806e-07
4.227974722e-07
4.666699607e-07
5.085282882e-07
5.429038498e-07
5.634332761e-07
4.018004485e-07
4.274143165e-07
4.648872857e-07
5.122951106e-07
5.667835739e-07
6.242083134e-07
6.789232822e-07
7.237978565e-07
7.505640688e-07
5.397636715e-07
5.731738566e-07
6.220063752e-07
6.837086372e-07
7.545239466e-07
8.290381411e-07
8.999207358e-07
9.579613255e-07
9.925275372e-07
7.197823523e-07
7.629724041e-07
8.260294917e-07
9.055893439e-07
9.967440672e-07
1.092481283e-06
1.183375955e-06
1.257659119e-06
1.3018173e-06
9.521987162e-07
1.007469559e-06
1.088061483e-06
1.189573792e-06
1.305649419e-06
1.427294879e-06
1.542525264e-06
1.636483926e-06
1.692218959e-06
1.24882625e-06
1.318767254e-06
1.420601508e-06
1.548622935e-06
1.694677737e-06
1.84735857e-06
1.991611724e-06
2.108932884e-06
2.178358602e-06
1.622744671e-06
1.710170289e-06
1.837253581e-06
1.996670312e-06
2.178077052e-06
2.367180797e-06
2.545325749e-06
2.689794307e-06
2.775049098e-06
2.087932794e-06
2.195781958e-06
2.352269329e-06
2.548100773e-06
2.770315467e-06
3.001241221e-06
3.218085417e-06
3.393371264e-06
3.496498331e-06
2.658737901e-06
2.789938595e-06
2.979935159e-06
3.217083243e-06
3.485357328e-06
3.763209722e-06
4.023199291e-06
4.232629125e-06
4.355440189e-06
3.349205453e-06
3.506514381e-06
3.733842916e-06
4.016804834e-06
4.335854289e-06
4.665099748e-06
4.972023121e-06
5.218343737e-06
5.362283811e-06
4.172319917e-06
4.358150571e-06
4.626104481e-06
4.958655485e-06
5.332325148e-06
5.716478798e-06
6.073184761e-06
6.358349779e-06
6.524379463e-06
5.139209318e-06
5.355447436e-06
5.666537574e-06
6.051461131e-06
6.482444767e-06
6.923799207e-06
7.33196863e-06
7.656974699e-06
7.845484633e-06
6.258360304e-06
6.506228456e-06
6.862001611e-06
7.300871915e-06
7.790493986e-06
8.289927096e-06
8.749924756e-06
9.114716294e-06
9.325483791e-06
7.535032508e-06
7.814988325e-06
8.215894873e-06
8.708938205e-06
9.257029916e-06
9.813912669e-06
1.032473431e-05
1.072818583e-05
1.096037743e-05
8.97084865e-06
9.282534763e-06
9.727871983e-06
1.027392151e-05
1.087880167e-05
1.149101227e-05
1.205032846e-05
1.249030247e-05
1.274251964e-05
1.056361889e-05
1.09058685e-05
1.139380256e-05
1.199034749e-05
1.26489047e-05
1.331294127e-05
1.39172269e-05
1.439069586e-05
1.466105581e-05
1.230740724e-05
1.267830179e-05
1.320596148e-05
1.384927945e-05
1.455714024e-05
1.526831286e-05
1.59130422e-05
1.641625653e-05
1.670249676e-05
1.419281883e-05
1.458978837e-05
1.515341594e-05
1.583876911e-05
1.659052803e-05
1.73432046e-05
1.802308674e-05
1.855176833e-05
1.885136262e-05
1.620746464e-05
1.662741767e-05
1.722255753e-05
1.794442818e-05
1.873391309e-05
1.952179108e-05
2.023102069e-05
2.078056209e-05
2.109083646e-05
1.833654696e-05
1.877601548e-05
1.93977205e-05
2.015006181e-05
2.097060799e-05
2.178698699e-05
2.251948819e-05
2.308514089e-05
2.340338053e-05
2.056350558e-05
2.101879183e-05
2.16618288e-05
2.243830953e-05
2.328302071e-05
2.412105518e-05
2.487070189e-05
2.544774198e-05
2.577128279e-05
2.287066937e-05
2.333798335e-05
2.399702286e-05
2.479124945e-05
2.565322971e-05
2.65061483e-05
2.726695026e-05
2.785081435e-05
2.8177116e-05
2.523986828e-05
2.571544828e-05
2.638522911e-05
2.719093457e-05
2.806348156e-05
2.892476512e-05
2.969101469e-05
3.027740373e-05
3.060410331e-05
2.765297387e-05
2.81331856e-05
2.880864819e-05
2.96198429e-05
3.049659831e-05
3.136011477e-05
3.212649427e-05
3.271144615e-05
3.303639364e-05
3.009235009e-05
3.057376299e-05
3.12501507e-05
3.206123427e-05
3.293629254e-05
3.379639066e-05
3.455804327e-05
3.513797744e-05
3.545925533e-05
3.254120761e-05
3.302064909e-05
3.369357881e-05
3.449941598e-05
3.536739502e-05
3.621896181e-05
3.697153119e-05
3.754327004e-05
3.785919996e-05
3.498386435e-05
3.545845426e-05
3.612396e-05
3.691992531e-05
3.777600492e-05
3.8614493e-05
3.935413766e-05
3.991490937e-05
4.022404888e-05
3.740592099e-05
3.787308954e-05
3.85276436e-05
3.930964033e-05
4.01495748e-05
4.097100613e-05
4.169439441e-05
4.224182237e-05
4.254295467e-05
3.979436386e-05
4.025185629e-05
4.089237262e-05
4.165683207e-05
4.247694306e-05
4.327789512e-05
4.398218643e-05
4.451426912e-05
4.480638815e-05
4.213760874e-05
4.258347998e-05
4.320730443e-05
4.395117046e-05
4.474832579e-05
4.552590566e-05
4.620872233e-05
4.672380747e-05
4.70061003e-05
4.44254987e-05
4.485810093e-05
4.546299209e-05
4.618369569e-05
4.695527864e-05
4.770708917e-05
4.836648284e-05
4.886323814e-05
4.91350663e-05
4.664926791e-05
4.706723327e-05
4.765133725e-05
4.834676462e-05
4.909063746e-05
4.9814739e-05
5.044915408e-05
5.092653696e-05
5.11874175e-05
4.880148129e-05
4.920370176e-05
4.976552325e-05
5.04339803e-05
5.114844473e-05
5.18433149e-05
5.245155127e-05
5.290877863e-05
5.315836591e-05
5.08759581e-05
5.126156379e-05
5.179993544e-05
5.244011065e-05
5.312386734e-05
5.378836049e-05
5.43695368e-05
5.480605591e-05
5.504412444e-05
5.286768566e-05
5.323602267e-05
5.375007399e-05
5.436100124e-05
5.501310968e-05
5.564641744e-05
5.619993577e-05
5.661539683e-05
5.684182532e-05
5.477272798e-05
5.512333646e-05
5.561246322e-05
5.619348544e-05
5.681332519e-05
5.741493869e-05
5.794045127e-05
5.833468189e-05
5.854943883e-05
5.65881325e-05
5.692072544e-05
5.738456026e-05
5.793529465e-05
5.852252849e-05
5.909220275e-05
5.958958093e-05
5.996256272e-05
6.016569329e-05
5.831183762e-05
5.862628069e-05
5.906466505e-05
5.958497029e-05
6.013950961e-05
6.067723043e-05
6.114653605e-05
6.149838325e-05
6.168999764e-05
5.994258257e-05
6.023887513e-05
6.065183325e-05
6.114177879e-05
6.166375144e-05
6.216970478e-05
6.261116398e-05
6.294210416e-05
6.31223672e-05
6.147982082e-05
6.175807825e-05
6.214579275e-05
6.260563047e-05
6.309535113e-05
6.356989505e-05
6.398387434e-05
6.429423103e-05
6.446335297e-05
6.292363775e-05
6.318407523e-05
6.354686472e-05
6.397700282e-05
6.443494586e-05
6.487858489e-05
6.526556961e-05
6.555574668e-05
6.571397513e-05
6.427467317e-05
6.451759072e-05
6.485588935e-05
6.525686855e-05
6.568364326e-05
6.609700522e-05
6.645758002e-05
6.67280478e-05
6.68756606e-05
6.553404887e-05
6.57598178e-05
6.60741566e-05
6.64466285e-05
6.684295673e-05
6.722677177e-05
6.756160316e-05
6.781288607e-05
6.795018504e-05
6.670330136e-05
6.691235194e-05
6.720334201e-05
6.754804958e-05
6.791474558e-05
6.826982736e-05
6.857964808e-05
6.881231365e-05
6.89396192e-05
6.778431981e-05
6.797713028e-05
6.824544761e-05
6.856320765e-05
6.890115996e-05
6.922838888e-05
6.951398397e-05
6.972863321e-05
6.984627959e-05
6.877928915e-05
6.89563758e-05
6.920274776e-05
6.949443528e-05
6.980459063e-05
7.010489879e-05
7.036709337e-05
7.056435222e-05
7.067268346e-05
6.969063817e-05
6.985254654e-05
7.007773986e-05
7.034427414e-05
7.062762312e-05
7.09019812e-05
7.114162952e-05
7.132214147e-05
7.142150781e-05
7.052099246e-05
7.06682896e-05
7.087309971e-05
7.111543203e-05
7.137299651e-05
7.162240201e-05
7.184037804e-05
7.200479758e-05
7.209555247e-05
7.127313197e-05
7.140639957e-05
7.159164128e-05
7.181074413e-05
7.204356619e-05
7.226903333e-05
7.246622237e-05
7.261520943e-05
7.269770692e-05
7.194995298e-05
7.206978142e-05
7.223628075e-05
7.243313847e-05
7.264227074e-05
7.284482153e-05
7.302211307e-05
7.315632815e-05
7.323092068e-05
7.255443423e-05
7.266141741e-05
7.28100045e-05
7.298560506e-05
7.31721024e-05
7.335275902e-05
7.351104054e-05
7.363114056e-05
7.369817709e-05
7.308960684e-05
7.318433772e-05
7.331584079e-05
7.347116884e-05
7.363608117e-05
7.379585936e-05
7.393601103e-05
7.404264584e-05
7.410247029e-05
7.355852802e-05
7.36415948e-05
7.375683492e-05
7.389286579e-05
7.403723197e-05
7.41771355e-05
7.430002569e-05
7.439383508e-05
7.444678504e-05
7.396425794e-05
7.403624086e-05
7.413602758e-05
7.425372224e-05
7.437856497e-05
7.44995809e-05
7.460606245e-05
7.468767369e-05
7.473407933e-05
7.430983981e-05
7.437130846e-05
7.445643615e-05
7.455673701e-05
7.46630585e-05
7.476615333e-05
7.485706039e-05
7.492708622e-05
7.496726943e-05
7.459828277e-05
7.464979389e-05
7.472103869e-05
7.480486614e-05
7.489364461e-05
7.497976104e-05
7.50559066e-05
7.511494356e-05
7.514921728e-05
7.483254732e-05
7.487464297e-05
7.49327604e-05
7.500100998e-05
7.507319684e-05
7.514325122e-05
7.520542506e-05
7.525405222e-05
7.528271991e-05
7.501553313e-05
7.504873929e-05
7.509446226e-05
7.514800249e-05
7.520452008e-05
7.525940044e-05
7.530836751e-05
7.534714548e-05
7.537050071e-05
7.515006897e-05
7.517489443e-05
7.520893177e-05
7.524860243e-05
7.529034232e-05
7.533090678e-05
7.536740612e-05
7.539687629e-05
7.541520247e-05
7.523890448e-05
7.525584003e-05
7.52788754e-05
7.530548629e-05
7.533330806e-05
7.536038378e-05
7.53851276e-05
7.540581166e-05
7.541938188e-05
7.528470375e-05
7.529422158e-05
7.530691269e-05
7.532124278e-05
7.533597316e-05
7.535035561e-05
7.536402879e-05
7.537642845e-05
7.538550537e-05
7.529004025e-05
7.529259366e-05
7.529557182e-05
7.529836874e-05
7.530080113e-05
7.530325367e-05
7.530651349e-05
7.531111033e-05
7.531594617e-05
7.525739326e-05
7.525341644e-05
7.524728635e-05
7.523926616e-05
7.523016045e-05
7.522141422e-05
7.52148903e-05
7.521214578e-05
7.521298242e-05
7.518914534e-05
7.517905341e-05
7.516439313e-05
7.514624038e-05
7.512632301e-05
7.510707705e-05
7.50913715e-05
7.508172711e-05
7.507879613e-05
7.508758088e-05
7.507176997e-05
7.504913119e-05
7.502149914e-05
7.499146341e-05
7.496238494e-05
7.493807264e-05
7.492195015e-05
7.491547302e-05
7.495488555e-05
7.493373309e-05
7.490364139e-05
7.486715244e-05
7.482765896e-05
7.478938387e-05
7.475701293e-05
7.473481474e-05
7.4725003e-05
7.479314646e-05
7.476701147e-05
7.472996685e-05
7.468521313e-05
7.463689044e-05
7.459002391e-05
7.455011617e-05
7.452222571e-05
7.450928121e-05
7.460435301e-05
7.457357653e-05
7.453005395e-05
7.4477598e-05
7.442104333e-05
7.436616055e-05
7.431921226e-05
7.428599445e-05
7.427010956e-05
7.439039825e-05
7.435530382e-05
7.430575387e-05
7.424612943e-05
7.418190953e-05
7.411955652e-05
7.406603903e-05
7.402784079e-05
7.400919872e-05
7.415308073e-05
7.411397488e-05
7.405882455e-05
7.399253741e-05
7.392118948e-05
7.385188399e-05
7.379224449e-05
7.374939533e-05
7.372817034e-05
7.389410671e-05
7.385127956e-05
7.379093294e-05
7.371846189e-05
7.364049456e-05
7.356472698e-05
7.349938935e-05
7.345220191e-05
7.342855966e-05
7.361509265e-05
7.356881846e-05
7.350365762e-05
7.342545539e-05
7.334134976e-05
7.325958414e-05
7.318894973e-05
7.313772039e-05
7.311181822e-05
7.331756798e-05
7.326810577e-05
7.319849158e-05
7.311498586e-05
7.302519651e-05
7.293787152e-05
7.286232006e-05
7.280732955e-05
7.277931681e-05
7.300297803e-05
7.295057218e-05
7.287684516e-05
7.278843958e-05
7.269339568e-05
7.260092569e-05
7.25208161e-05
7.246233014e-05
7.243234845e-05
7.267268706e-05
7.261756795e-05
7.254004912e-05
7.244712431e-05
7.234723067e-05
7.225000672e-05
7.216567803e-05
7.210394792e-05
7.207213151e-05
7.232798144e-05
7.227036607e-05
7.218935784e-05
7.20922724e-05
7.198791056e-05
7.18863014e-05
7.179807359e-05
7.173333683e-05
7.169981285e-05
7.197007286e-05
7.191016543e-05
7.182595243e-05
7.172504398e-05
7.161657327e-05
7.151092638e-05
7.141910124e-05
7.135158215e-05
7.131647096e-05
7.160010154e-05
7.153809409e-05
7.145094403e-05
7.134653016e-05
7.123428873e-05
7.112493133e-05
7.102979329e-05
7.09597036e-05
7.092311908e-05
7.121913943e-05
7.115521242e-05
7.106537691e-05
7.09577562e-05
7.084206207e-05
7.072930207e-05
7.063111906e-05
7.055865851e-05
7.052070832e-05
7.082819344e-05
7.076251633e-05
7.067023168e-05
7.055968463e-05
7.044083668e-05
7.032496364e-05
7.022398788e-05
7.014934479e-05
7.011013071e-05
7.042820855e-05
7.036094038e-05
7.026642838e-05
7.015321833e-05
7.003149729e-05
6.991278338e-05
6.980925214e-05
6.973260397e-05
6.969222214e-05
7.002007093e-05
6.995136085e-05
6.985482955e-05
6.973920357e-05
6.961487295e-05
6.94935738e-05
6.938771023e-05
6.93092241e-05
6.926776528e-05
6.960461091e-05
6.953459872e-05
6.943624316e-05
6.931843294e-05
6.919173995e-05
6.906809555e-05
6.896010933e-05
6.887994257e-05
6.883749244e-05
6.918260597e-05
6.91114226e-05
6.901142549e-05
6.889164817e-05
6.876282457e-05
6.863706011e-05
6.85271482e-05
6.844544887e-05
6.840208825e-05
6.875478347e-05
6.868255152e-05
6.858108395e-05
6.84595429e-05
6.832880589e-05
6.820113254e-05
6.808947987e-05
6.800638718e-05
6.796219231e-05
6.832182347e-05
6.824865764e-05
6.814587972e-05
6.802276531e-05
6.789031833e-05
6.776093401e-05
6.764771414e-05
6.756335899e-05
6.75184017e-05
6.788436133e-05
6.781036888e-05
6.770643035e-05
6.758192071e-05
6.744795418e-05
6.731704434e-05
6.720242004e-05
6.711692544e-05
6.707127344e-05
6.744299022e-05
6.736827139e-05
6.726331226e-05
6.713757396e-05
6.700226605e-05
6.687000434e-05
6.675412823e-05
6.666760972e-05
6.66213268e-05
6.699826358e-05
6.692291201e-05
6.681706307e-05
6.66902518e-05
6.655376915e-05
6.64203181e-05
6.630333322e-05
6.621589929e-05
6.616904551e-05
6.655069739e-05
6.647480052e-05
6.636818392e-05
6.624044512e-05
6.610294348e-05
6.596845516e-05
6.585049551e-05
6.576224799e-05
6.57148799e-05
6.610077244e-05
6.602441185e-05
6.59171416e-05
6.578861108e-05
6.565023598e-05
6.55148526e-05
6.539604366e-05
6.530707811e-05
6.525924891e-05
6.564893638e-05
6.557218818e-05
6.546437064e-05
6.533517516e-05
6.519606251e-05
6.505991699e-05
6.494037623e-05
6.485078229e-05
6.480254206e-05
6.519560579e-05
6.511854091e-05
6.501027527e-05
6.488053309e-05
6.474080976e-05
6.460402631e-05
6.448386365e-05
6.439372537e-05
6.434512122e-05
6.474116807e-05
6.466385261e-05
6.455523133e-05
6.442505271e-05
6.428483708e-05
6.414753175e-05
6.402685e-05
6.39362462e-05
6.388732241e-05
6.428598325e-05
6.42084788e-05
6.409958801e-05
6.396907574e-05
6.382847826e-05
6.369075937e-05
6.356965471e-05
6.347865924e-05
6.342945748e-05
6.38303858e-05
6.375274968e-05
6.36436696e-05
6.351291946e-05
6.337204309e-05
6.323401179e-05
6.311257413e-05
6.302125623e-05
6.297181567e-05
6.337468622e-05
6.32969718e-05
6.318777712e-05
6.305687832e-05
6.291581906e-05
6.277756974e-05
6.265588316e-05
6.25643077e-05
6.251466517e-05
6.291917269e-05
6.28414296e-05
6.273218986e-05
6.260122548e-05
6.246007282e-05
6.232169357e-05
6.219983664e-05
6.210806443e-05
6.205825456e-05
6.246411255e-05
6.2386387e-05
6.227716688e-05
6.214621431e-05
6.200505164e-05
6.186662468e-05
6.174467086e-05
6.165275886e-05
6.160281424e-05
6.200975383e-05
6.193208878e-05
6.182294851e-05
6.169207979e-05
6.155098485e-05
6.141258689e-05
6.129060488e-05
6.11986065e-05
6.114855776e-05
6.155632665e-05
6.147876209e-05
6.136975772e-05
6.123903995e-05
6.10980852e-05
6.095978785e-05
6.083784187e-05
6.074580717e-05
6.069568313e-05
6.110404462e-05
6.102661776e-05
6.091780148e-05
6.07872972e-05
6.06465502e-05
6.050842032e-05
6.038657043e-05
6.029454634e-05
6.024437409e-05
6.065310626e-05
6.057585176e-05
6.046727217e-05
6.033703966e-05
6.019656345e-05
6.005866348e-05
5.993696586e-05
5.984499634e-05
5.979480134e-05
6.020369633e-05
6.012664648e-05
6.001834893e-05
5.988844254e-05
5.974829596e-05
5.961068422e-05
5.948919139e-05
5.939731761e-05
5.934712375e-05
5.975598726e-05
5.96791722e-05
5.957119899e-05
5.944166947e-05
5.930190745e-05
5.916463843e-05
5.904339947e-05
5.895165992e-05
5.890148952e-05
5.931014053e-05
5.923358843e-05
5.912597909e-05
5.899687387e-05
5.885754774e-05
5.87206723e-05
5.859973302e-05
5.850816357e-05
5.845803744e-05
5.886630815e-05
5.879004539e-05
5.868283694e-05
5.855420037e-05
5.841535812e-05
5.827892374e-05
5.815832677e-05
5.806696071e-05
5.801689804e-05
5.842463421e-05
5.834868553e-05
5.824191267e-05
5.811378633e-05
5.797547279e-05
5.783952372e-05
5.771930862e-05
5.762817662e-05
5.757819496e-05
5.798525642e-05
5.790964513e-05
5.78033405e-05
5.767576337e-05
5.753802048e-05
5.740259788e-05
5.728280116e-05
5.719193124e-05
5.714204636e-05
5.754830783e-05
5.747305596e-05
5.736725034e-05
5.724025909e-05
5.710312607e-05
5.696826814e-05
5.68489233e-05
5.675834074e-05
5.670856656e-05
5.71139186e-05
5.703904707e-05
5.693376963e-05
5.680739881e-05
5.667091241e-05
5.653665454e-05
5.641779214e-05
5.632751944e-05
5.627786789e-05
5.668221788e-05
5.660774668e-05
5.65030252e-05
5.637730758e-05
5.624150227e-05
5.610787727e-05
5.598952503e-05
5.589958196e-05
5.585006298e-05
5.625333573e-05
5.617928415e-05
5.60751453e-05
5.595011211e-05
5.58150205e-05
5.568205886e-05
5.556424196e-05
5.547464573e-05
5.542526735e-05
5.582740512e-05
5.575379193e-05
5.565026162e-05
5.552594302e-05
5.539159623e-05
5.525932665e-05
5.514206816e-05
5.505283387e-05
5.500360251e-05
5.54045639e-05
5.533140768e-05
5.522851141e-05
5.510493695e-05
5.497136526e-05
5.483981532e-05
5.472313699e-05
5.463427838e-05
5.458519941e-05
5.498495674e-05
5.491227616e-05
5.481003954e-05
5.468723881e-05
5.455447246e-05
5.442366964e-05
5.430759309e-05
5.421912371e-05
5.417020236e-05
5.456873694e-05
5.449655111e-05
5.439500041e-05
5.427300386e-05
5.414107416e-05
5.401104719e-05
5.389559547e-05
5.380753043e-05
5.375877313e-05
5.415606793e-05
5.408439688e-05
5.398355972e-05
5.386239964e-05
5.373134027e-05
5.360212092e-05
5.348732073e-05
5.339967897e-05
5.335109516e-05
5.374712457e-05
5.367598969e-05
5.357589585e-05
5.345560756e-05
5.332545629e-05
5.319708155e-05
5.308296589e-05
5.299577313e-05
5.294737762e-05
5.334209394e-05
5.327151856e-05
5.31722009e-05
5.305282413e-05
5.292362473e-05
5.279613946e-05
5.268275093e-05
5.259604319e-05
5.254785897e-05
5.294117567e-05
5.287118568e-05
5.277268116e-05
5.265426162e-05
5.252606615e-05
5.239952608e-05
5.228692063e-05
5.220074834e-05
5.215280987e-05
5.254458172e-05
5.247520623e-05
5.237755705e-05
5.226014819e-05
5.213301949e-05
5.200749461e-05
5.189574573e-05
5.181017825e-05
5.176253509e-05
5.215253562e-05
5.208380769e-05
5.198706257e-05
5.187072746e-05
5.174474185e-05
5.16203201e-05
5.150952331e-05
5.142465377e-05
5.137737438e-05
5.176527119e-05
5.169722863e-05
5.160144409e-05
5.148625757e-05
5.136150785e-05
5.123829893e-05
5.112857642e-05
5.104452664e-05
5.099770224e-05
5.138303118e-05
5.131571741e-05
5.122095933e-05
5.110701008e-05
5.098360854e-05
5.086174799e-05
5.075325343e-05
5.06701787e-05
5.06239269e-05
5.100606551e-05
5.093953071e-05
5.084587602e-05
5.073326915e-05
5.061135095e-05
5.049100413e-05
5.038392725e-05
5.030202097e-05
5.025648903e-05
5.063463019e-05
5.056893256e-05
5.047647136e-05
5.036533135e-05
5.02450582e-05
5.012642474e-05
5.002099583e-05
4.994049352e-05
4.989586098e-05
5.026898708e-05
5.020419462e-05
5.011303287e-05
5.000350709e-05
4.988507159e-05
4.976839006e-05
4.966488457e-05
4.958606742e-05
4.954254796e-05
4.990940571e-05
4.984559855e-05
4.975586155e-05
4.964812482e-05
4.953175569e-05
4.941730895e-05
4.931605207e-05
4.923924993e-05
4.919709233e-05
4.955616802e-05
4.949344162e-05
4.940527871e-05