/*--------------------------------*- C++ -*----------------------------------*\
| =========                 |                                                 |
| \\      /  F ield         | OpenFOAM: The Open Source CFD Toolbox           |
|  \\    /   O peration     | Version:  2212                                  |
|   \\  /    A nd           | Website:  www.openfoam.com                      |
|    \\/     M anipulation  |                                                 |
\*---------------------------------------------------------------------------*/
FoamFile
{
    version     2.0;
    format      ascii;
    arch        "LSB;label=32;scalar=64";
    class       volScalarField;
    location    "20.00000000";
    object      CH2CO_0;
}
// * * * * * * * * * * * * * * * * * * * * * * * * * * * * * * * * * * * * * //

dimensions      [0 0 0 0 0 0 0];

internalField   nonuniform List<scalar> 
3000
(
2.961172658e-21
3.326243582e-21
3.877041984e-21
4.610894524e-21
5.520302991e-21
6.580592599e-21
7.72794598e-21
8.822762575e-21
9.596930956e-21
1.11176452e-20
1.25386487e-20
1.468168368e-20
1.754333566e-20
2.11206467e-20
2.539385315e-20
3.028884171e-20
3.555843284e-20
4.022581128e-20
2.490322764e-20
2.830685107e-20
3.348904292e-20
4.052435804e-20
4.953899112e-20
6.066326719e-20
7.385134655e-20
8.835748617e-20
1.007424763e-19
4.743439744e-20
5.448273535e-20
6.537191672e-20
8.046958214e-20
1.00309469e-19
1.253915125e-19
1.555618737e-19
1.883567991e-19
2.146966703e-19
8.422980576e-20
9.793381081e-20
1.194394772e-19
1.498380164e-19
1.905563648e-19
2.427222948e-19
3.054019082e-19
3.716654985e-19
4.216985475e-19
1.448296903e-19
1.705491859e-19
2.114900572e-19
2.702639968e-19
3.500072996e-19
4.527375535e-19
5.754425253e-19
7.028813019e-19
7.980132206e-19
2.458331029e-19
2.930661854e-19
3.69127978e-19
4.7955076e-19
6.304794591e-19
8.24915834e-19
1.054837522e-18
1.288514838e-18
1.457256892e-18
4.159306198e-19
5.013734839e-19
6.401858004e-19
8.432568958e-19
1.121893468e-18
1.480086911e-18
1.899851072e-18
2.320084371e-18
2.618212177e-18
7.047989792e-19
8.577004173e-19
1.107702447e-18
1.475265655e-18
1.980466048e-18
2.628099615e-18
3.381530877e-18
4.127889418e-18
4.65148653e-18
1.198401066e-18
1.469825764e-18
1.915624979e-18
2.573128385e-18
3.477324859e-18
4.633322802e-18
5.970635099e-18
7.285623195e-18
8.20125223e-18
2.04563185e-18
2.524576683e-18
3.31365719e-18
4.479712777e-18
6.083175996e-18
8.128426608e-18
1.048460371e-17
1.278954967e-17
1.438647027e-17
3.504583507e-18
4.345996287e-18
5.735172133e-18
7.79037974e-18
1.061563557e-17
1.421257693e-17
1.834375914e-17
2.237078771e-17
2.515150871e-17
6.023139024e-18
7.496801179e-18
9.933280146e-18
1.354034986e-17
1.849696779e-17
2.47982898e-17
3.20198715e-17
3.904267808e-17
4.388209292e-17
1.037934967e-17
1.295535431e-17
1.721868726e-17
2.353313575e-17
3.220724636e-17
4.322293273e-17
5.582819252e-17
6.806779847e-17
7.649533251e-17
1.792560667e-17
2.242395251e-17
2.987502706e-17
4.091591959e-17
5.608129197e-17
7.532748422e-17
9.732547821e-17
1.186615282e-16
1.333658051e-16
3.101155723e-17
3.886250579e-17
5.187745487e-17
7.117475172e-17
9.768762766e-17
1.313267786e-16
1.697418444e-16
2.069440175e-16
2.326504803e-16
5.371374318e-17
6.740599736e-17
9.012062961e-17
1.238210251e-16
1.701458256e-16
2.289526175e-16
2.961681311e-16
3.613198119e-16
4.059043549e-16
9.309766351e-17
1.169479575e-16
1.565291246e-16
2.152646855e-16
2.959921326e-16
3.984111745e-16
5.15339263e-16
6.284826675e-16
7.059924318e-16
1.614175647e-16
2.029129443e-16
2.71786972e-16
3.739863178e-16
5.144093497e-16
6.924642388e-16
8.955893932e-16
1.092001027e-15
1.226553891e-15
2.799431313e-16
3.520810869e-16
4.718226836e-16
6.494895832e-16
8.935517334e-16
1.202913955e-15
1.555695552e-15
1.896696228e-15
2.130249669e-15
4.85603473e-16
6.109580869e-16
8.190423845e-16
1.127773903e-15
1.551820211e-15
2.089205233e-15
2.701856668e-15
3.293899456e-15
3.699326809e-15
8.42518951e-16
1.060298988e-15
1.421815176e-15
1.958168585e-15
2.694767745e-15
3.62806919e-15
4.691844666e-15
5.719591959e-15
6.423254375e-15
1.462016672e-15
1.840316889e-15
2.468293959e-15
3.399910385e-15
4.679158286e-15
6.299672494e-15
8.146251467e-15
9.929800284e-15
1.115062844e-14
2.537358606e-15
3.19441898e-15
4.285084293e-15
5.902921464e-15
8.124024064e-15
1.093690221e-14
1.414115464e-14
1.72349888e-14
1.935204585e-14
4.403980584e-15
5.54506949e-15
7.438991096e-15
1.024783722e-14
1.410303481e-14
1.898368355e-14
2.454111936e-14
2.990471829e-14
3.35734746e-14
7.643893287e-15
9.625253129e-15
1.291327468e-14
1.77884213e-14
2.447721442e-14
3.294124021e-14
4.257374477e-14
5.186498662e-14
5.821692233e-14
1.326639827e-14
1.670597856e-14
2.241250895e-14
3.087050693e-14
4.246930665e-14
5.713739345e-14
7.381849461e-14
8.989642464e-14
1.008802082e-13
2.302045789e-14
2.898939363e-14
3.888900562e-14
5.355461491e-14
7.365292293e-14
9.904886817e-14
1.27902766e-13
1.55685348e-13
1.746470589e-13
3.993355491e-14
5.028658762e-14
6.744960117e-14
9.285888963e-14
1.276506189e-13
1.715658943e-13
2.213989549e-13
2.693183004e-13
3.019818217e-13
6.92389946e-14
8.718312634e-14
1.169129404e-13
1.608896431e-13
2.210373897e-13
2.968528902e-13
3.827473405e-13
4.652018299e-13
5.213126186e-13
1.199668767e-13
1.510366477e-13
2.024739004e-13
2.784777878e-13
3.82281053e-13
5.128935351e-13
6.605690702e-13
8.020217784e-13
8.980777371e-13
2.076639978e-13
2.613869481e-13
3.502417608e-13
4.81353625e-13
6.600991443e-13
8.845130863e-13
1.137600043e-12
1.379363796e-12
1.543104462e-12
3.59024415e-13
4.517501898e-13
6.049287506e-13
8.305681941e-13
1.137497507e-12
1.521796874e-12
1.953846649e-12
2.365194982e-12
2.642893647e-12
6.197353114e-13
7.794111552e-13
1.042795835e-12
1.429958106e-12
1.955166079e-12
2.610595429e-12
3.344694484e-12
4.040835822e-12
4.508990332e-12
1.067699382e-12
1.341871404e-12
1.793298106e-12
2.455180972e-12
3.350119064e-12
4.462547329e-12
5.702955055e-12
6.8737248e-12
7.657539039e-12
1.835185034e-12
2.3042895e-12
3.074993162e-12
4.201558224e-12
5.718879359e-12
7.596218168e-12
9.678719204e-12
1.16337366e-11
1.293591322e-11
3.145688776e-12
3.94491624e-12
5.254599104e-12
7.162141637e-12
9.719686691e-12
1.286718358e-11
1.633809363e-11
1.957679792e-11
2.172173787e-11
5.37484241e-12
6.729712909e-12
8.943223016e-12
1.215376759e-11
1.6435944e-11
2.167404821e-11
2.741237499e-11
3.273106088e-11
3.623173982e-11
9.150269056e-12
1.143382311e-11
1.515159986e-11
2.051835872e-11
2.763449372e-11
3.628068199e-11
4.568425714e-11
5.433732479e-11
5.999510225e-11
1.551392894e-11
1.933747414e-11
2.553792066e-11
3.444073412e-11
4.616882437e-11
6.031400086e-11
7.557904784e-11
8.951865309e-11
9.85703636e-11
2.618370188e-11
3.253880889e-11
4.279920884e-11
5.744456655e-11
7.660099175e-11
9.952366559e-11
1.240590537e-10
1.462868674e-10
1.606191605e-10
4.39708514e-11
5.444831993e-11
7.128259736e-11
9.515744224e-11
1.261497093e-10
1.629282297e-10
2.019616981e-10
2.370395085e-10
2.594981248e-10
7.343953993e-11
9.056202818e-11
1.179295088e-10
1.564777502e-10
2.061195966e-10
2.645258453e-10
3.25981318e-10
3.807650509e-10
4.155973426e-10
1.219376889e-10
1.496574507e-10
1.937180462e-10
2.553351572e-10
3.340333127e-10
4.25822588e-10
5.215774966e-10
6.062636975e-10
6.597473124e-10
2.011904939e-10
2.456232653e-10
3.158428024e-10
4.13319248e-10
5.367815413e-10
6.795359259e-10
8.272081866e-10
9.568156004e-10
1.038146374e-09
3.297357767e-10
4.002277383e-10
5.10974738e-10
6.635663429e-10
8.552353877e-10
1.074975814e-09
1.300445858e-09
1.49690095e-09
1.619440858e-09
5.366031839e-10
6.472621065e-10
8.200873242e-10
1.056454248e-09
1.350944756e-09
1.685805886e-09
2.026755542e-09
2.321814543e-09
2.504839293e-09
8.668089297e-10
1.038675898e-09
1.305532641e-09
1.667874042e-09
2.115791603e-09
2.621160911e-09
3.132015551e-09
3.57134372e-09
3.84248395e-09
1.389469925e-09
1.653568249e-09
2.06132058e-09
2.611146549e-09
3.285799982e-09
4.041467459e-09
4.80027016e-09
5.449119959e-09
5.847765097e-09
2.209656405e-09
2.611234621e-09
3.227919277e-09
4.054054134e-09
5.060752122e-09
6.180809938e-09
7.298745769e-09
8.249837454e-09
8.83186736e-09
3.485527883e-09
4.089920869e-09
5.013386082e-09
6.2429977e-09
7.731852817e-09
9.378333319e-09
1.101286249e-08
1.239726168e-08
1.324158967e-08
5.452869855e-09
6.353546677e-09
7.723299202e-09
9.537011292e-09
1.172046598e-08
1.412201221e-08
1.649486643e-08
1.84968719e-08
1.971437688e-08
8.459914453e-09
9.78948107e-09
1.180277341e-08
1.44551285e-08
1.763180295e-08
2.110915184e-08
2.45308711e-08
2.740824665e-08
2.915379221e-08
1.301543267e-08
1.496040904e-08
1.789416072e-08
2.174174673e-08
2.632903412e-08
3.132961307e-08
3.623265324e-08
4.034384725e-08
4.283254245e-08
1.98563554e-08
2.267724235e-08
2.691753408e-08
3.245650051e-08
3.903400962e-08
4.617801065e-08
5.316094907e-08
5.900177578e-08
6.253131387e-08
3.00407123e-08
3.409870343e-08
4.017997761e-08
4.809579455e-08
5.74626842e-08
6.760367372e-08
7.748941534e-08
8.574150793e-08
9.072152574e-08
4.507431181e-08
5.086648825e-08
5.952301747e-08
7.075550191e-08
8.400510903e-08
9.830875555e-08
1.122197468e-07
1.238119448e-07
1.308000295e-07
6.708159634e-08
7.528673219e-08
8.751942278e-08
1.033469533e-07
1.219633125e-07
1.420086157e-07
1.614616973e-07
1.776452591e-07
1.873900099e-07
9.903366378e-08
1.105714168e-07
1.277341191e-07
1.498823695e-07
1.758641361e-07
2.037714529e-07
2.307959152e-07
2.532380926e-07
2.667336675e-07
1.450504769e-07
1.6115761e-07
1.850679815e-07
2.158485462e-07
2.518649869e-07
2.90455881e-07
3.277424199e-07
3.586482608e-07
3.772082628e-07
2.10798008e-07
2.331248858e-07
2.662036019e-07
3.086864125e-07
3.582709214e-07
4.112690211e-07
4.623618079e-07
5.046349781e-07
5.299905539e-07
3.039986352e-07
3.347279552e-07
3.801695699e-07
4.383953935e-07
5.061875135e-07
5.784749892e-07
6.480200471e-07
7.054691305e-07
7.398923252e-07
4.350692142e-07
4.770610272e-07
5.390445653e-07
6.182908628e-07
7.103439289e-07
8.082893019e-07
9.023481389e-07
9.799423328e-07
1.026397423e-06
6.179099485e-07
6.748822666e-07
7.588361421e-07
8.659541493e-07
9.901244417e-07
1.121991142e-06
1.248425347e-06
1.352605993e-06
1.414933981e-06
8.708859588e-07
9.476425835e-07
1.060578041e-06
1.204412955e-06
1.370837079e-06
1.547277948e-06
1.716212714e-06
1.855269247e-06
1.938410839e-06
1.218048491e-06
1.320759544e-06
1.471676699e-06
1.663572744e-06
1.885236359e-06
2.119881469e-06
2.344257216e-06
2.528774788e-06
2.639035661e-06
1.690616108e-06
1.827149457e-06
2.027514183e-06
2.281905699e-06
2.575308685e-06
2.885453299e-06
3.181670811e-06
3.425052739e-06
3.570412508e-06
2.328708943e-06
2.509011035e-06
2.773302566e-06
3.108392559e-06
3.494312422e-06
3.901704677e-06
4.290361177e-06
4.609422919e-06
4.799885257e-06
3.183319493e-06
3.419843412e-06
3.766169379e-06
4.204690101e-06
4.709033918e-06
5.240749404e-06
5.747451398e-06
6.163072975e-06
6.411048324e-06
4.318484332e-06
4.626657238e-06
5.077422577e-06
5.647457905e-06
6.302177283e-06
6.991551044e-06
7.647773508e-06
8.185583595e-06
8.50628754e-06
5.813584595e-06
6.212295881e-06
6.794897166e-06
7.530729145e-06
8.374752356e-06
9.262317258e-06
1.010625784e-05
1.07973054e-05
1.120914533e-05
7.765652405e-06
8.277732678e-06
9.025232929e-06
9.968153672e-06
1.104826494e-05
1.218261988e-05
1.325997263e-05
1.41413222e-05
1.466623322e-05
1.029150766e-05
1.094415567e-05
1.189587605e-05
1.309488315e-05
1.446645321e-05
1.590495812e-05
1.726950684e-05
1.838467427e-05
1.904835406e-05
1.352949612e-05
1.435459801e-05
1.55565448e-05
1.706881672e-05
1.87962653e-05
2.060543708e-05
2.231934824e-05
2.371847871e-05
2.455046326e-05
1.764055492e-05
1.867482997e-05
2.017986136e-05
2.207089359e-05
2.422774927e-05
2.64832197e-05
2.8616906e-05
3.035659123e-05
3.139011129e-05
2.280830668e-05
2.409320893e-05
2.596084109e-05
2.830412032e-05
3.097254295e-05
3.375844403e-05
3.638987766e-05
3.853251949e-05
3.980408613e-05
2.923789004e-05
3.081919963e-05
3.311495973e-05
3.599106746e-05
3.9260719e-05
4.266838836e-05
4.588177449e-05
4.84944312e-05
5.004311678e-05
3.715328491e-05
3.90803386e-05
4.187459803e-05
4.536967035e-05
4.933586613e-05
5.346181846e-05
5.734559522e-05
6.049829555e-05
6.236470506e-05
4.679299023e-05
4.911752929e-05
5.24837935e-05
5.668732172e-05
6.144846262e-05
6.639165041e-05
7.103585893e-05
7.479944389e-05
7.702446328e-05
5.840406115e-05
6.117871424e-05
6.519140393e-05
7.019343418e-05
7.584780354e-05
8.170627135e-05
8.719941207e-05
9.164304908e-05
9.426643043e-05
7.223469677e-05
7.551116241e-05
8.024298694e-05
8.6130857e-05
9.277295081e-05
9.964006537e-05
0.0001060656362
0.0001112539789
0.0001143123039
8.85257675e-05
9.235280535e-05
9.787188907e-05
0.0001047267037
0.0001124433669
0.0001204039458
0.0001278367952
0.000133826704
0.0001373519194
0.0001075018412
0.0001119232026
0.000118290201
0.0001261833879
0.0001350500513
0.0001441764445
0.0001526788945
0.0001595170709
0.0001635350299
0.0001293623988
0.0001344149394
0.0001416803495
0.0001506704782
0.0001607474341
0.0001710957525
0.0001807150336
0.000188435905
0.0001929652042
0.0001542740225
0.0001599860638
0.0001681878782
0.0001783173537
0.0001896467284
0.0002012546469
0.0002120208372
0.0002206450855
0.0002256962906
0.0001823635371
0.0001887530639
0.000197914498
0.0002092079999
0.0002218123054
0.0002346975609
0.0002466224423
0.0002561562723
0.000261731578
0.0002137119177
0.0002207861736
0.0002309152184
0.0002433788589
0.0002572602367
0.0002714201454
0.0002844970059
0.0002949321634
0.0003010254836
0.000248352703
0.0002561080212
0.0002671972906
0.000280818648
0.0002959591319
0.000311371106
0.0003255754339
0.0003368899064
0.000343487349
0.0002862718476
0.0002946939894
0.0003067213012
0.0003214702992
0.0003378329866
0.0003544559236
0.0003697468531
0.0003819061307
0.0003889867785
0.0003274096261
0.0003364745691
0.0003494041456
0.0003652346433
0.000382765597
0.0004005419458
0.0004168642647
0.0004298230031
0.0004373599072
0.0003716642505
0.0003813393254
0.0003951234619
0.0004119753662
0.0004306060296
0.0004494643095
0.0004667508216
0.0004804547424
0.0004884160329
0.0004188967541
0.0004291420137
0.0004437230471
0.0004615247424
0.0004811746473
0.0005010321986
0.0005192062431
0.0005335941195
0.0005419441478
0.0004689366661
0.0004797063698
0.0004950187851
0.0005136896908
0.000534269254
0.0005550350271
0.000574012988
0.0005890185924
0.000597719038
0.0005215880322
0.0005328321453
0.0005488046818
0.0005682577772
0.0005896710225
0.0006112482526
0.0006309419307
0.0006464958526
0.0006555067448
0.0005766354117
0.000588301039
0.0006048586895
0.0006250028855
0.0006471499712
0.0006694386313
0.0006897573943
0.0007057886696
0.0007150692961
0.0006338495738
0.0006458822722
0.0006629481006
0.0006836903783
0.0007064698537
0.0007293688218
0.0007502214836
0.0007666590049
0.0007761686917
0.0006929927095
0.0007053376447
0.0007228343793
0.0007440816507
0.0007673924024
0.0007908013129
0.0008120977238
0.0008288714242
0.0008385701857
0.0007538230537
0.0007664259869
0.0007842773718
0.0008059380471
0.0008296809247
0.000853501701
0.0008751540527
0.0008921958683
0.0009020449322
0.0008160988822
0.0008289069831
0.0008470388878
0.0008690241536
0.0008931032846
0.0009172413679
0.0009391652291
0.0009564098576
0.0009663720763
0.0008795818841
0.0008925443807
0.0009108856806
0.0009331105063
0.0009574343234
0.0009817996227
0.001003914733
0.001021300208
0.001031340368
0.0009440399471
0.000957108624
0.0009755918718
0.0009979757715
0.001022457781
0.001046965375
0.001069196222
0.001086664329
0.001096749374
0.001009249402
0.001022378964
0.001040940876
0.001063408454
0.001087967777
0.001112538402
0.001134814618
0.00115231117
0.001162410343
0.001074996782
0.001088145101
0.001106726885
0.001129208194
0.001153769916
0.001178330268
0.001200586865
0.001218061864
0.001228146796
0.001141080153
0.001154208418
0.001172755961
0.001195186704
0.001219682059
0.001244164944
0.00126634242
0.001283750125
0.001293794861
0.001207310072
0.001220382849
0.001238846796
0.001261168397
0.001285534818
0.001309879174
0.001331923514
0.001349222423
0.001359203414
0.001273510215
0.001286495449
0.001304831183
0.00132699075
0.001351171806
0.001375322627
0.001397185215
0.001414337992
0.001424234046
0.00133951773
0.001352386681
0.001370554238
0.00139250444
0.001416449694
0.001440357865
0.001461995327
0.001478968676
0.001488760885
0.001405183355
0.001417910499
0.001435874415
0.001457573292
0.001481238083
0.001504860159
0.00152623416
0.001542998659
0.001552670308
0.001470371331
0.001482934227
0.001500663342
0.001522074072
0.001545419247
0.001568717184
0.00158979418
0.001606324087
0.001615860545
0.001534959159
0.001547338286
0.001564805524
0.001585896142
0.001608887756
0.001631828608
0.001652579572
0.00166885262
0.001678241217
0.001598837217
0.001611015802
0.001628197918
0.00164894102
0.001671550011
0.001694105604
0.001714505738
0.001730502903
0.001739732807
0.001661908275
0.001673872106
0.001690749429
0.001711121854
0.0017333237
0.0017554703
0.001775498731
0.001791204008
0.001800266097
0.001724086928
0.001735824164
0.001752380326
0.001772362839
0.001794137215
0.001815855182
0.001835494666
0.001850894833
0.00185978156
0.001785298969
0.001796799949
0.00181302162
0.001832598589
0.001853929018
0.001875202473
0.001894439088
0.001909523478
0.001918228746
0.001845480726
0.001856737778
0.001872614397
0.001891773481
0.001912647
0.001933463489
0.001952286347
0.001967046623
0.001975565656
0.001904578365
0.001915585624
0.001931109147
0.001949840986
0.001970247815
0.001990597992
0.002008998954
0.002023428891
0.002031758115
0.001962547191
0.001973300423
0.001988465073
0.002006762996
0.002026696226
0.002046573546
0.002064546948
0.002078642227
0.002086779151
0.002019350948
0.002029847379
0.002044649413
0.00206250916
0.002081964454
0.00210136488
0.002118907279
0.002132665291
0.002140608397
0.002074961124
0.002085199282
0.002099636769
0.002117056228
0.00213603154
0.002154953269
0.002172063203
0.002185482861
0.002193231499
0.00212935628
0.002139335848
0.002153408461
0.002170387421
0.002188882733
0.002207325942
0.002224003698
0.002237085267
0.002244639559
0.002182521397
0.002192243071
0.002205951896
0.002222491819
0.002240508898
0.002258475505
0.002274722914
0.002287467847
0.002294828595
0.002234447253
0.00224391262
0.002257259975
0.002273363784
0.002290905958
0.002308399401
0.002324219642
0.002336630434
0.002343799034
0.002285129834
0.002294341248
0.002307330523
0.002323002411
0.002340074356
0.002357099393
0.002372496815
0.002384576864
0.002391555231
0.002334569773
0.002343530252
0.002356165758
0.002371411005
0.002388018563
0.002404581087
0.002419561044
0.002431314526
0.002438105023
0.002382771828
0.002391484953
0.002403771786
0.002418596604
0.002434746604
0.002450853474
0.002465422179
0.002476853934
0.002483459306
0.002429744392
0.002438214223
0.002450158139
0.00246456952
0.002480269629
0.002495928518
0.002510092905
0.002521208335
0.002527631648
0.002475499042
0.002483730034
0.00249533734
0.002509342929
0.002524601506
0.002539820763
0.002553588369
0.002564393342
0.002570637933
0.002520050121
0.002528047052
0.002539324508
0.002552932481
0.002567758451
0.002582546981
0.002595925834
0.002606426599
0.002612496027
0.002563414352
0.002571182263
0.002582136986
0.002595355947
0.002609758692
0.00262412584
0.002637124362
0.002647327476
0.002653225479
0.002605610486
0.002613154621
0.002623794014
0.0026366329
0.002650622152
0.00266457761
0.00267720453
0.002687116788
0.002692847244
0.002646658986
0.002653984743
0.002664316419
0.002676784416
0.002690370174
0.00270392389
0.002716188165
0.002725816544
0.002731383435
0.002686581734
0.002693694619
0.002703726341
0.002715832811
0.002729025259
0.002742187361
0.00275409811
0.00276344971
0.002768857095
0.002725401769
0.002732307357
0.002742046985
0.0027538014
0.002766610838
0.002779391569
0.002790958009
0.002800040013
0.002805291997
0.002763143051
0.002769846955
0.002779302394
0.002790714282
0.002803151068
0.00281556072
0.002826792118
0.002835611746
0.002840712462
0.002799830251
0.002806338088
0.002815517254
0.002826596147
0.00283867064
0.002850719512
0.002861625135
0.00287018961
0.002875143192
0.002835488564
0.002841805932
0.002850716708
0.002861472103
0.002873194622
0.002884892967
0.002895482046
0.002903798563
0.002908609133
0.002870143538
0.002876275994
0.002884926206
0.002895367527
0.002906748308
0.002918106299
0.002928387991
0.002936463691
0.002941135343
0.002903820932
0.002909773971
0.002918171359
0.002928307924
0.002939357093
0.002950384789
0.002960368149
0.002968210097
0.002972746881
0.00293654658
0.002942325624
0.00295047782
0.002960318818
0.002971046355
0.002981753675
0.002991447634
0.002999062796
0.003003468709
0.002968346284
0.002973956663
0.002981871174
0.002991425641
0.003001841363
0.003012238062
0.003021651403
0.003029046633
0.00303332561
0.002999245709
0.003004692656
0.003012376846
0.003021653651
0.003031767188
0.003041862836
0.00305100418
0.003058186206
0.00306234211
0.003029270306
0.003034558942
0.003042020024
0.003051027847
0.003060848632
0.003070652602
0.003079530388
0.003086505803
0.00309054242
0.003058445229
0.003063580561
0.003070825584
0.003079572912
0.003089110162
0.003098631615
0.003107254097
0.003114029345
0.003117950379
0.003086795282
0.003091782197
0.003098818038
0.003107313151
0.00311657586
0.003125823738
0.003134198971
0.003140780345
0.003144589413
0.003114344863
0.003119188119
0.003126021481
0.003134272447
0.003143269381
0.003152252395
0.003160388231
0.003166781865
0.003170482494
0.003141117918
0.003145822149
0.003152459552
0.003160474223
0.003169213911
0.003177940542
0.003185844623
0.003192056489
0.003195652116
0.003167137912
0.003171707618
0.003178155401
0.003185941408
0.003194432142
0.003202910634
0.00321059039
0.003216626297
0.003220120264
0.003192427794
0.003196867347
0.003203131664
0.003210696416
0.003218946248
0.003227184606
0.003234647254
0.003240512846
0.003243908401
0.003217009978
0.003221323618
0.003227410439
0.003234761125
0.003242777865
0.003250783857
0.003258036402
0.003263737154
0.003267037451
0.003240906327
0.003245098162
0.003251013274
0.00325815686
0.00326594808
0.003273729238
0.00328077847
0.003286319695
0.003289527793
0.003264138138
0.003268212148
0.003273961154
0.003280904389
0.003288477424
0.003296041041
0.003302893541
0.003308280386
0.003311399251
0.003286726133
0.003290686171
0.003296274495
0.003303023912
0.003310385861
0.003317739001
0.003324401139
0.00332963859
0.003332671093
0.003308690463
0.003312540253
0.003317973141
0.003324535058
0.003331692791
0.003338842288
0.003345320229
0.003350413111
0.003353362033
0.003330050696
0.00333379384
0.003339076366
0.003345456893
0.00335241705
0.003359369512
0.003365669219
0.003370622199
0.003373490232
0.003350825826
0.003354465806
0.00335960287
0.003365807911
0.003372576912
0.003379338728
0.003385465965
0.003390283556
0.003393073301
0.003371034276
0.003374574452
0.00337957079
0.003385606049
0.003392190095
0.003398767437
0.003404727775
0.00340941434
0.003412128313
0.003390693898
0.003394137518
0.003398997702
0.003404868686
0.003411273769
0.003417672597
0.003423471418
0.003428031171
0.003430671803
0.00340982199
0.003413172187
0.003417900631
0.003423612659
0.00342984456
0.003436070632
0.003441713133
0.003446150144
0.003448719784
0.003428435298
0.003431695095
0.003436296059
0.003441854264
0.003447918565
0.003453977439
0.003459468636
0.003463786837
0.003466287753
0.003446550027
0.003449722343
0.003454199937
0.003459609272
0.00346551136
0.003471408398
0.003476753136
0.003480956321
0.003483390702
0.003464181857
0.003467269507
0.003471627696
0.003476892938
0.003482638012
0.00348837839
0.003493581342
0.003497673172
0.003500043134
0.003481345949
0.003484351647
0.003488594257
0.003493720015
0.003499313088
0.003504901799
0.003509967476
0.003513951487
0.003516259069
0.003498056962
0.003500983326
0.003505114046
0.003510104766
0.003515550674
0.003520992535
0.003525925286
0.003529804889
0.003532052061
0.003514329062
0.003517178617
0.003521201003
0.003526060972
0.00353136438
0.003536664037
0.003541468061
0.003545246545
0.003547435206
0.003530175938
0.003532951119
0.003536868601
0.003541601953
0.00354676736
0.003551929294
0.003556608638
0.003560289178
0.003562421162
0.003545610815
0.003548313968
0.003552129854
0.003556740576
0.003561772319
0.003566800851
0.003571359421
0.003574945078
0.003577022153
0.003560646467
0.003563279856
0.003566997333
0.003571489269
0.003576391531
0.003581290828
0.00358573239
0.003589226117
0.00359124999
0.003575295229
0.003577861035
0.003581483179
0.003585860034
0.003590636848
0.003595410929
0.003599739115
0.00360314376
0.003605116076
0.003589569014
0.003592069339
0.003595599113
0.00359986446
0.003604519715
0.003609172456
0.003613390767
0.003616709078
0.003618631423
0.003603479319
0.003605916192
0.003609356452
0.003613513736
0.003618051182
0.003622586318
0.003626698132
0.003629932758
0.003631806665
0.003617037247
0.003619412621
0.003622766123
0.003626818665
0.003631241916
0.00363566305
0.003639671623
0.003642825118
0.003644652061
0.003630253512
0.003632569271
0.003635838669
0.003639789669
0.00364410221
0.003648412815
0.003652321287
0.003655396113
0.003657177517
0.00364313845
0.003645396411
0.003648584264
0.003652436809
0.003656641998
0.00366084542
0.003664656817
0.003667655349
0.003669392586
0.003655702038
0.003657903949
0.003661012723
0.003664769785
0.00366887086
0.003672970326
0.003676687563
0.003679612089
0.003681306481
0.003667953893
0.00367010144
0.003673133511
0.003676797954
0.003680798032
0.003684796649
0.003688422536
0.00369127526
0.00369292808
0.003679903287
0.003681998093
0.003684955748
0.003688530331
0.003692432414
0.003696333174
0.003699870416
0.003702653458
0.003704265933
0.003691559151
0.003693602779
0.00369648822
0.003699975597
0.003703782574
0.003707588356
0.003711039554
0.003713754955
0.003715328264
0.003702930082
0.003704924034
0.003707739377
0.003711142101
0.003714856749
0.003718570318
0.003721937972
0.003724587694
0.00372612297
0.003714024343
0.003715970061
0.003718717341
0.00372203786
0.003725662845
0.003729286857
0.003732573365
0.003735159287
0.003736657616
0.003724849861
0.003726748729
0.003729429894
0.003732670557
0.003736208433
0.003739745429
0.003742953088
0.003745477009
0.00374693943
0.003735414224
0.003737267567
0.00373988448
0.003743047532
0.003746500738
0.003749953147
0.003753084146
0.003755547781
0.003756975284
0.003745724672
0.003747533751
0.003750088189
0.003753175768
0.003756546626
0.003759916756
0.003762973176
0.003765378154
0.003766771677
0.003755788078
0.003757554091
0.003760047739
0.003763061871
0.00376635258
0.003769642614
0.003772626421
0.003774974279
0.003776334707
0.003765610929
0.003767335005
0.003769769452
0.003772712045
0.003775924672
0.003779136659
0.003782049695
0.003784341867
0.003785670027
0.003775199294
0.003776882492
0.003779259221
0.003782132054
0.003785268523
0.003788404364
0.003791248335
0.00379348615
0.003794782803
0.003784558789
0.003786202084
0.003788522465
0.003791327176
0.003794389253
0.003797450691
0.003800227152
0.003802411816
0.003803677652
0.003793694522
0.003795298804
0.003797564078
0.00380030215
0.003803291426
0.003806280022
0.003808990361
0.003811122944
0.003812358572
0.003802611043
0.003804177101
0.003806388369
0.003809061107
0.003811978976
0.003814896088
0.003817541502
0.003819622922
0.00382082886
0.003811312273
0.003812840784
0.003814998985
0.003817607496
0.003820455129
0.003823301884
0.003825883357
0.003827914355
0.00382909102
0.003819801422
0.003821292938
0.003823398831
0.003825943996
0.003828722311
0.003831499578
0.003834017848
0.003835998971
0.003837146658
0.003828080912
0.00382953584
0.003831589977
0.003834072425
0.003836782055
0.003839490407
0.003841945939
0.003843877509
0.003844996385
0.003836152276
0.003837570866
0.003839573568
0.003841993641
0.003844634898
0.003847274579
0.003849667529
0.00385154962
0.003852639703
0.003844016073
0.003845398392
0.003847349723
0.003849707446
0.003852280286
0.003854851172
0.003857181355
0.003859013763
0.003860074907
0.003851671787
0.003853017707
0.003854917447
0.003857212492
0.003859716478
0.003862218044
0.003864484898
0.00386626712
0.003867299002
0.00385911775
0.003860426924
0.003862274544
0.003864506204
0.003866940475
0.003869371761
0.003871574324
0.003873305532
0.003874307637
0.003866351068
0.003867622919
0.003869417559
0.00387158472
0.003873947964
0.003876307551
0.003878444434
0.003880123461
0.003881095077
0.003873367576
0.003874601285
0.003876341739
0.003878442866
0.003880733302
0.003883019295
0.003885088675
0.003886714006
0.003887654215
0.003880161825
0.003881356325
0.003883041036
0.003885074162
0.003887289537
0.003889499566
0.003891499185
0.003893068964
0.003893976652
0.003886727107
0.003887881087
0.003889508151
0.003891470892
0.003893608495
0.003895739732
0.003897666917
0.003899178961
0.003900052824
0.003893055533
0.00389416745
0.003895734638
0.003897624219
0.003899680915
0.003901730113
0.003903581816
0.003905033653
0.003905872225
0.003899138175
0.003900206278
0.003901711072
0.003903524375
0.003905496665
0.003907460225
0.003909233091
0.003910622016
0.003911423698
0.003904965265
0.003905987636
0.003907427287
0.003909160925
0.003911045033
0.003912919096
0.003914609551
0.003915932702
0.003916695815
0.003910526475
0.003911501079
0.003912872683
0.003914523101
0.003916315089
0.003918095659
0.003919700032
0.003920954488
0.003921677328
0.003915811256
0.003916736012
0.003918036612
0.003919600211
0.003921296121
0.003922979217
0.003924493882
0.003925676785
0.003926357696
0.003920809254
0.003921682113
0.003922908818
0.003924382104
0.003925978131
0.003927559965
0.003928981509
0.003930090198
0.003930727655
0.003925510772
0.003926329815
0.003927479933
0.003928859688
0.003930352368
0.003931829542
0.003933154951
0.003934187113
0.00393477981
0.003929907277
0.003930670818
0.003931742007
0.00393302547
0.003934411886
0.0039357816
0.003937008453
0.003937962278
0.003938509219
0.003933991928
0.003934698616
0.003935689037
0.003936874092
0.003938152081
0.003939412342
0.003940539002
0.003941413335
0.003941913921
0.00393776008
0.003938409013
0.003939317477
0.003940402832
0.003941571181
0.003942721002
0.003943746789
0.003944541268
0.003944995376
0.003941209763
0.003941800579
0.003942626683
0.003943612034
0.003944670651
0.003945710214
0.003946635557
0.003947350719
0.003947758766
0.003944342073
0.003944875031