/*--------------------------------*- C++ -*----------------------------------*\
| =========                 |                                                 |
| \\      /  F ield         | OpenFOAM: The Open Source CFD Toolbox           |
|  \\    /   O peration     | Version:  2212                                  |
|   \\  /    A nd           | Website:  www.openfoam.com                      |
|    \\/     M anipulation  |                                                 |
\*---------------------------------------------------------------------------*/
FoamFile
{
    version     2.0;
    format      ascii;
    arch        "LSB;label=32;scalar=64";
    class       volScalarField;
    location    "20.00000000";
    object      CH3COCH3;
}
// * * * * * * * * * * * * * * * * * * * * * * * * * * * * * * * * * * * * * //

dimensions      [0 0 0 0 0 0 0];

internalField   nonuniform List<scalar> 
3000
(
0.01368422948
0.01368422948
0.01368422948
0.01368422948
0.01368422948
0.01368422948
0.01368422948
0.01368422948
0.01368422948
0.01368422948
0.01368422948
0.01368422948
0.01368422948
0.01368422948
0.01368422948
0.01368422948
0.01368422948
0.01368422948
0.01368422948
0.01368422948
0.01368422948
0.01368422948
0.01368422948
0.01368422948
0.01368422948
0.01368422948
0.01368422948
0.01368422948
0.01368422948
0.01368422948
0.01368422948
0.01368422948
0.01368422948
0.01368422948
0.01368422948
0.01368422948
0.01368422948
0.01368422948
0.01368422948
0.01368422948
0.01368422948
0.01368422948
0.01368422948
0.01368422948
0.01368422948
0.01368422948
0.01368422948
0.01368422948
0.01368422948
0.01368422948
0.01368422948
0.01368422948
0.01368422948
0.01368422948
0.01368422948
0.01368422948
0.01368422948
0.01368422948
0.01368422948
0.01368422948
0.01368422948
0.01368422948
0.01368422948
0.01368422948
0.01368422948
0.01368422948
0.01368422948
0.01368422948
0.01368422948
0.01368422948
0.01368422948
0.01368422948
0.01368422948
0.01368422948
0.01368422948
0.01368422948
0.01368422948
0.01368422948
0.01368422948
0.01368422948
0.01368422948
0.01368422948
0.01368422948
0.01368422948
0.01368422948
0.01368422948
0.01368422948
0.01368422948
0.01368422948
0.01368422948
0.01368422948
0.01368422948
0.01368422948
0.01368422948
0.01368422948
0.01368422948
0.01368422948
0.01368422948
0.01368422948
0.01368422948
0.01368422948
0.01368422948
0.01368422948
0.01368422948
0.01368422948
0.01368422948
0.01368422948
0.01368422948
0.01368422948
0.01368422948
0.01368422948
0.01368422948
0.01368422948
0.01368422948
0.01368422948
0.01368422948
0.01368422948
0.01368422948
0.01368422948
0.01368422948
0.01368422948
0.01368422948
0.01368422948
0.01368422948
0.01368422948
0.01368422948
0.01368422948
0.01368422948
0.01368422948
0.01368422948
0.01368422948
0.01368422948
0.01368422948
0.01368422948
0.01368422948
0.01368422948
0.01368422948
0.01368422948
0.01368422948
0.01368422948
0.01368422948
0.01368422948
0.01368422948
0.01368422948
0.01368422948
0.01368422948
0.01368422948
0.01368422948
0.01368422948
0.01368422948
0.01368422948
0.01368422948
0.01368422948
0.01368422948
0.01368422948
0.01368422948
0.01368422948
0.01368422948
0.01368422948
0.01368422948
0.01368422948
0.01368422948
0.01368422948
0.01368422948
0.01368422948
0.01368422948
0.01368422948
0.01368422948
0.01368422948
0.01368422948
0.01368422948
0.01368422948
0.01368422948
0.01368422948
0.01368422948
0.01368422948
0.01368422948
0.01368422948
0.01368422948
0.01368422948
0.01368422948
0.01368422948
0.01368422948
0.01368422948
0.01368422948
0.01368422948
0.01368422948
0.01368422948
0.01368422948
0.01368422948
0.01368422948
0.01368422948
0.01368422948
0.01368422948
0.01368422948
0.01368422948
0.01368422948
0.01368422948
0.01368422948
0.01368422948
0.01368422948
0.01368422948
0.01368422948
0.01368422948
0.01368422948
0.01368422948
0.01368422948
0.01368422948
0.01368422948
0.01368422948
0.01368422948
0.01368422948
0.01368422948
0.01368422948
0.01368422948
0.01368422948
0.01368422948
0.01368422948
0.01368422948
0.01368422948
0.01368422948
0.01368422948
0.01368422948
0.01368422948
0.01368422948
0.01368422948
0.01368422948
0.01368422948
0.01368422948
0.01368422948
0.01368422948
0.01368422948
0.01368422948
0.01368422948
0.01368422948
0.01368422948
0.01368422948
0.01368422948
0.01368422948
0.01368422948
0.01368422948
0.01368422948
0.01368422948
0.01368422948
0.01368422948
0.01368422948
0.01368422948
0.01368422948
0.01368422948
0.01368422948
0.01368422948
0.01368422948
0.01368422948
0.01368422948
0.01368422948
0.01368422948
0.01368422948
0.01368422948
0.01368422948
0.01368422948
0.01368422948
0.01368422948
0.01368422948
0.01368422948
0.01368422948
0.01368422948
0.01368422948
0.01368422948
0.01368422948
0.01368422948
0.01368422948
0.01368422948
0.01368422948
0.01368422948
0.01368422948
0.01368422948
0.01368422948
0.01368422947
0.01368422947
0.01368422948
0.01368422948
0.01368422948
0.01368422948
0.01368422948
0.01368422947
0.01368422947
0.01368422947
0.01368422947
0.01368422948
0.01368422948
0.01368422948
0.01368422947
0.01368422947
0.01368422947
0.01368422947
0.01368422947
0.01368422947
0.01368422948
0.01368422948
0.01368422947
0.01368422947
0.01368422947
0.01368422947
0.01368422947
0.01368422947
0.01368422947
0.01368422947
0.01368422947
0.01368422947
0.01368422947
0.01368422947
0.01368422947
0.01368422947
0.01368422947
0.01368422946
0.01368422947
0.01368422947
0.01368422947
0.01368422947
0.01368422947
0.01368422946
0.01368422946
0.01368422946
0.01368422946
0.01368422947
0.01368422947
0.01368422947
0.01368422947
0.01368422946
0.01368422946
0.01368422945
0.01368422945
0.01368422944
0.01368422947
0.01368422947
0.01368422946
0.01368422946
0.01368422945
0.01368422944
0.01368422944
0.01368422943
0.01368422942
0.01368422946
0.01368422946
0.01368422945
0.01368422945
0.01368422944
0.01368422942
0.01368422941
0.0136842294
0.01368422939
0.01368422945
0.01368422945
0.01368422944
0.01368422943
0.01368422941
0.01368422939
0.01368422936
0.01368422934
0.01368422933
0.01368422944
0.01368422943
0.01368422941
0.01368422939
0.01368422936
0.01368422933
0.01368422929
0.01368422926
0.01368422924
0.01368422941
0.0136842294
0.01368422937
0.01368422934
0.01368422929
0.01368422924
0.01368422918
0.01368422913
0.01368422909
0.01368422937
0.01368422934
0.0136842293
0.01368422924
0.01368422917
0.01368422908
0.01368422899
0.01368422891
0.01368422886
0.0136842293
0.01368422925
0.01368422919
0.0136842291
0.01368422898
0.01368422885
0.0136842287
0.01368422858
0.0136842285
0.01368422918
0.01368422911
0.01368422901
0.01368422886
0.01368422868
0.01368422847
0.01368422825
0.01368422806
0.01368422794
0.01368422899
0.01368422888
0.01368422872
0.01368422849
0.01368422821
0.01368422789
0.01368422755
0.01368422726
0.01368422708
0.01368422868
0.01368422852
0.01368422826
0.01368422791
0.01368422748
0.01368422698
0.01368422648
0.01368422604
0.01368422577
0.01368422819
0.01368422794
0.01368422754
0.01368422701
0.01368422635
0.0136842256
0.01368422484
0.01368422419
0.01368422379
0.01368422742
0.01368422703
0.01368422643
0.01368422561
0.01368422462
0.0136842235
0.01368422237
0.01368422141
0.01368422083
0.01368422621
0.01368422561
0.0136842247
0.01368422348
0.01368422199
0.01368422033
0.01368421868
0.01368421727
0.01368421641
0.01368422432
0.01368422343
0.01368422206
0.01368422024
0.01368421804
0.0136842156
0.01368421319
0.01368421114
0.01368420989
0.01368422141
0.01368422008
0.01368421805
0.01368421537
0.01368421214
0.01368420859
0.01368420508
0.01368420212
0.01368420033
0.01368421696
0.01368421499
0.01368421202
0.01368420809
0.0136842034
0.01368419826
0.0136841932
0.01368418895
0.01368418638
0.01368421022
0.01368420734
0.013684203
0.01368419732
0.01368419053
0.01368418315
0.0136841759
0.01368416984
0.01368416616
0.01368420009
0.01368419592
0.01368418965
0.01368418147
0.01368417175
0.01368416119
0.01368415088
0.01368414226
0.01368413705
0.01368418502
0.01368417902
0.01368417003
0.01368415833
0.01368414449
0.01368412951
0.01368411491
0.01368410273
0.01368409538
0.01368416277
0.0136841542
0.01368414141
0.01368412481
0.01368410523
0.0136840841
0.01368406355
0.01368404643
0.01368403611
0.01368413019
0.01368411805
0.01368409997
0.01368407657
0.01368404906
0.01368401943
0.01368399069
0.01368396678
0.01368395239
0.01368408287
0.0136840658
0.01368404042
0.01368400767
0.01368396925
0.01368392799
0.01368388803
0.01368385486
0.01368383492
0.01368401468
0.01368399085
0.01368395547
0.01368390992
0.01368385663
0.01368379954
0.01368374438
0.01368369866
0.0136836712
0.0136839172
0.01368388413
0.01368383515
0.01368377224
0.01368369881
0.01368362034
0.01368354468
0.01368348208
0.01368344454
0.01368377888
0.01368373333
0.01368366597
0.01368357967
0.01368347918
0.01368337201
0.01368326891
0.01368318373
0.01368313269
0.01368358414
0.01368352183
0.01368342985
0.01368331224
0.0136831756
0.0136830302
0.01368289054
0.01368277531
0.01368270631
0.01368331214
0.01368322748
0.01368310271
0.01368294349
0.01368275888
0.01368256278
0.01368237471
0.01368221971
0.01368212695
0.01368293522
0.01368282097
0.01368265283
0.01368243864
0.01368219072
0.0136819278
0.01368167597
0.0136814686
0.01368134457
0.01368241704
0.01368226384
0.01368203869
0.0136817523
0.01368142134
0.01368107084
0.0136807355
0.01368045959
0.01368029463
0.01368171022
0.0136815061
0.01368120644
0.01368082581
0.01368038657
0.01367992197
0.01367947793
0.01367911283
0.01367889462
0.0136807536
0.0136804833
0.01368008692
0.01367958407
0.01367900454
0.01367839226
0.01367780761
0.01367732718
0.0136770401
0.01367946901
0.01367911333
0.01367859224
0.01367793197
0.0136771719
0.01367636976
0.01367560445
0.0136749759
0.01367460036
0.01367775774
0.01367729268
0.01367661198
0.01367575041
0.01367475975
0.01367371529
0.01367271958
0.01367190218
0.01367141388
0.0136754966
0.01367489251
0.01367400913
0.0136728922
0.01367160932
0.01367025807
0.01366897087
0.01366791467
0.01366728379
0.01367253385
0.01367175459
0.01367061601
0.01366917791
0.01366752789
0.01366579164
0.01366413894
0.01366278349
0.01366197399
0.01366868531
0.0136676873
0.01366623036
0.01366439207
0.01366228517
0.01366007037
0.01365796385
0.01365623715
0.01365520616
0.0136637307
0.01366246225
0.01366061213
0.01365828023
0.01365561061
0.01365280723
0.01365014328
0.01364796106
0.01364665849
0.01365741098
0.01365581175
0.01365348127
0.0136505472
0.01364719222
0.0136436732
0.01364033256
0.0136375981
0.01363596665
0.01364942685
0.01364742767
0.01364451712
0.01364085711
0.01363667744
0.013632299
0.01362814723
0.01362475194
0.01362272744
0.01363943903
0.01363696218
0.01363335984
0.01362883568
0.01362367642
0.01361827941
0.01361316841
0.01360899319
0.01360650555
0.01362707075
0.01362403081
0.01361961426
0.01361407511
0.01360776801
0.01360118049
0.01359495116
0.01358986869
0.01358684333
0.01361191274
0.01360821801
0.01360285629
0.01359614159
0.01358850854
0.0135805496
0.01357303552
0.01356691344
0.01356327313
0.01359353071
0.01358908533
0.01358264208
0.01357458546
0.01356544307
0.01355592772
0.01354695991
0.01353966457
0.01353533169
0.01357147546
0.013566182
0.01355851924
0.01354895339
0.01353811855
0.0135268635
0.01351627581
0.01350767684
0.01350257654
0.01354529483
0.01353905736
0.0135300399
0.01351880205
0.013506098
0.01349292788
0.01348056293
0.01347053848
0.01346460122
0.01351454704
0.01350727439
0.01349677451
0.01348371198
0.01346897455
0.01345372845
0.01343944407
0.01342788506
0.01342104915
0.01347881434
0.01347042331
0.01345832526
0.01344330101
0.013426385
0.013408923
0.01339259704
0.01337941109
0.01337162494
0.013437716
0.01342813428
0.01341433855
0.01339723695
0.01337802174
0.01335822943
0.01333976401
0.01332487855
0.01331610238
0.01339092039
0.01338008985
0.01336451742
0.0133452478
0.0133236409
0.01330143296
0.0132807574
0.01326412182
0.01325432872
0.01333815658
0.01332603462
0.01330862875
0.01328712797
0.01326306757
0.01323838999
0.01321546246
0.01319704908
0.01318622551
0.01327921985
0.01326578051
0.01324650808
0.01322274189
0.01319619798
0.01316902879
0.01314383662
0.01312364065
0.01311178627
0.01321397547
0.01319920971
0.01317806157
0.01315202464
0.01312299877
0.01309334737
0.01306590611
0.01304394478
0.01303107178
0.01314235949
0.01312627484
0.0131032651
0.01307498001
0.01304350382
0.01301140923
0.01298176081
0.01295807161
0.0129442037
0.01306437709
0.0130469967
0.01302216125
0.01299167648
0.01295780928
0.01292333752
0.01289154764
0.01286618621
0.01285135731
0.01298009878
0.01296145997
0.01293485443
0.01290224171
0.01286606747
0.01282930831
0.01279546337
0.01276850103
0.01275275377
0.01288965506
0.01286980767
0.01284150486
0.01280685613
0.01276847998
0.01272954343
0.01269374732
0.01266526843
0.01264865268
0.01279323012
0.01277223459
0.01274232194
0.01270574604
0.01266529072
0.0126243034
0.01258667415
0.01255677354
0.01253934491
0.01269105501
0.0126689805
0.01263755726
0.01259917668
0.01255677892
0.01251388048
0.01247454709
0.01244332761
0.01242514603
0.01258340066
0.01256032309
0.01252749772
0.01248744539
0.0124432525
0.01239859231
0.01235769174
0.01232526194
0.01230639039
0.01247057092
0.01244657124
0.01241245888
0.01237087523
0.01232504193
0.0122787759
0.01223645041
0.01220292245
0.01218342576
0.01235289599
0.01232805851
0.01229277871
0.01224980892
0.01220249444
0.01215478231
0.01211117693
0.01207666474
0.01205660861
0.01223072625
0.01220513714
0.01216881175
0.01212460335
0.01207596887
0.0120269717
0.01198223213
0.01194684982
0.01192629985
0.01210442642
0.0120781724
0.0120409238
0.01199562451
0.01194583092
0.01189570896
0.01184997971
0.01181384016
0.01179286114
0.01197437038
0.01194753756
0.01190948706
0.01186324297
0.01181244895
0.01176135978
0.01171478263
0.0116779963
0.01165665154
0.01184093638
0.01181360929
0.01177487577
0.01172782976
0.01167619017
0.01162428722
0.01157699986
0.01153967386
0.01151802466
0.01170450276
0.01167676354
0.01163746236
0.01158975283
0.01153741734
0.0114848486
0.0114369836
0.01139922086
0.01137732609
0.01156544422
0.01153737193
0.011497614
0.0114493738
0.01139648585
0.01134339289
0.01129507683
0.01125697555
0.01123489129
0.01142412848
0.01139579859
0.01135568967
0.01130704532
0.01125374126
0.01120025844
0.01115161131
0.0111132644
0.01109104371
0.01128091351
0.01125239749
0.01121203763
0.01116310866
0.01110951715
0.01105577109
0.01100690577
0.01096840061
0.01094609334
0.01113614512
0.01110751015
0.01106699331
0.01101789185
0.01096413346
0.0109102426
0.01086126462
0.01082268279
0.01080033548
0.01099015501
0.01096146379
0.0109208776
0.01087170811
0.010817895
0.01076396946
0.01071497681
0.010676394
0.01065404981
0.01084325924
0.01081456988
0.01077399551
0.01072485466
0.01067109052
0.01061723197
0.01056831503
0.01052980105
0.01050749977
0.01069575704
0.01066712304
0.01062663515
0.0105776118
0.01052399187
0.01047029359
0.01042153522
0.01038315401
0.01036093209
0.01054792994
0.01051940023
0.01047906708
0.01043024237
0.01037685352
0.01032340055
0.01027487623
0.01023668601
0.01021457665
0.01040004127
0.01037166031
0.01033154384
0.01028299139
0.01022991236
0.01017678172
0.01012855975
0.01009061318
0.01006864639
0.01025233591
0.01022414378
0.01018429987
0.010136086
0.01008338768
0.0100306486
0.00998279039
0.009945134787
0.009923337559
0.0101050402
0.01007707283
0.01003755149
0.009989735517
0.009937481257
0.009885195613
0.009837755944
0.009800433532
0.009778829934
0.009958362203
0.009930651532
0.009891497182
0.009844131775
0.009792377773
0.009740600378
0.009693627785
0.009656675947
0.009635287301
0.009812492004
0.009785066186
0.009746317985
0.009699449517
0.009648245208
0.009597024246
0.009550561356
0.009514012918
0.00949285795
0.009667602231
0.009640485874
0.009602178018
0.009555846952
0.009505235428
0.00945461286
0.00940869677
0.009372580289
0.009351675296
0.009523848669
0.009497063066
0.009459225117
0.009413466396
0.009363484832
0.009313496819
0.00926815947
0.009232499525
0.00921185854
0.009381370965
0.009354934324
0.00931759154
0.009272434989
0.009223115068
0.009173792391
0.009129060945
0.009093878429
0.009073513385
0.009240293406
0.009214221086
0.00917739475
0.00913286546
0.009084233798
0.009035602275
0.008991499486
0.008956811893
0.008936732784
0.009100725739
0.00907503048
0.009038738219
0.008994856935
0.008946935494
0.008899016383
0.00885556096
0.008821382658
0.008801597702
0.00896276403
0.008937456173
0.008901712271
0.008858495764
0.008811302247
0.008764112643
0.008721319594
0.008687662103
0.008668177886
0.008826491527
0.00880157923
0.008766394927
0.00872385635
0.008677404591
0.008630957798
0.008588838769
0.008555711007
0.008536532638
0.008691979536
0.00866746898
0.008632852758
0.008591001987
0.008545302311
0.0084996082
0.008458171789
0.008425580325
0.008406711568
0.008559288286
0.008535183865
0.008501141719
0.008459985672
0.008415045242
0.008370110592
0.008329362648
0.008297311931
0.008278755337
0.00842846777
0.008404772277
0.008371307966
0.008330850911
0.008286674051
0.008242502863
0.008202446771
0.00817093934
0.008152696375
0.008299558569
0.008276273364
0.008243388655
0.008203632489
0.008160220988
0.008116814781
0.008077451722
0.008046488417
0.008028559569
0.008172592646
0.008149717816
0.0081174127
0.008078357211
0.008035710605
0.007993068695
0.007954397891
0.007923978036
0.007906362928
0.008047594101
0.008025128606
0.007993401505
0.00795504462
0.007913160451
0.007871280202
0.007833299141
0.007803420719
0.007786118205
0.007924579892
0.007902521702
0.007871369657
0.007833707663
0.007792581719
0.007751458779
0.007714163425
0.007684823241
0.007667831498
0.007803560516
0.007781906733
0.007751325578
0.007714353329
0.007673979867
0.007633608385
0.007596993367
0.007568187191
0.007551503804
0.00768454065
0.007663287623
0.007633272144
0.007596983249
0.007557355193
0.007517728013
0.007481786804
0.007453509507
0.007437131545
0.007567519751
0.00754666318
0.007517207258
0.007481594251
0.007442703378
0.007403812222
0.007368537292
0.007340782972
0.007324707058
0.007452492615
0.007432027645
0.007403124386
0.007368178884
0.007330015989
0.007291851617
0.007257234582
0.007229996673
0.007214219045
0.007339449897
0.007319371199
0.007291013055
0.007256725898
0.007219280945
0.007181833304
0.007147865055
0.007121136428
0.007105653004
0.00722837859
0.007208680444
0.007180859318
0.007147220694
0.00711048295
0.007073741306
0.007040412129
0.007014185184
0.006998991606
0.007119262469
0.007099938828
0.007072646169
0.00703964573
0.007003603889
0.006967556948
0.006934856628
0.006909123375
0.006894215061
0.007012082499
0.00699312705
0.006966353941
0.006933980903
0.006898623196
0.006863259206
0.006831177125
0.00680592926
0.006791301444
0.006906817204
0.006888223427
0.006861960659
0.006830203893
0.006795518183
0.006760825036
0.006729350254
0.006704579222
0.006690226995
0.006803443009
0.006785204221
0.006759442363
0.00672829048
0.006694264348
0.006660229662
0.006629350995
0.006605048051
0.006590966391
0.00670193455
0.006684043953
0.00665877341
0.006628214826
0.006594835651
0.006561446845
0.006531152932
0.006507309193
0.006493492995
0.006602264955
0.006584715669
0.006559926738
0.006529949741
0.006497204767
0.006464449126
0.006434728491
0.006411334979
0.006397779085
0.006504406095
0.006487191196
0.006462874109
0.006433466916
0.006401343309
0.006369208048
0.006340049146
0.006317096832
0.006303796051
0.006408328816
0.006391441362
0.006367586332
0.006338737134
0.006307222037
0.006275694346
0.006247085615
0.006224565456
0.006211514585
0.006314003146
0.006297436204
0.006274033455
0.006245730461
0.006214811039
0.006183878134
0.006155808031
0.006133710996
0.006120904841
0.006221398474
0.006205145142
0.006182184944
0.006154416421
0.0061240799
0.006093729056
0.006066186095
0.006044503196
0.006031936583
0.006130483722
0.006114537148
0.006092009843
0.006064764142
0.006034997843
0.006005216433
0.005978189212
0.005956911527
0.005944579321
0.006041227487
0.006025580887
0.006003476909
0.005976742496
0.005947533866
0.005918309386
0.005891786617
0.005870905309
0.005858802422
0.005953598176
0.005938244844
0.005916554742
0.005890320222
0.005861656857
0.005832976951
0.005806947478
0.005786453814
0.005774575215
0.005867564118
0.005852497441
0.005831211893
0.005805466026
0.005777335694
0.005749188176
0.005723640996
0.005703526361
0.005691867085
0.005783093668
0.005768307134
0.005747416964
0.005722148683
0.005694539338
0.005666912211
0.005641836488
0.005622092396
0.005610647554
0.005700155295
0.005685642504
0.005665138688
0.005640337114
0.005613236914
0.005586118381
0.005561503459
0.005542121565
0.005530886346
0.00561871766
0.005604472327
0.005584346007
0.005560000459
0.005533397777
0.005506776254
0.005482611671
0.005463583778
0.005452553456
0.005538749682
0.005524765645
0.005505008134
0.005481108136
0.005454991572
0.005428855699
0.005405131191
0.005386449258
0.005375619194
0.005460220599
0.00544649182
0.00542709461
0.005403629902
0.005377988285
0.005352326931
0.005329032442
0.005310688589
0.005300054238
0.005383100019
0.005369620592
0.005350575355
0.005327535895
0.00530235829
0.005277160562
0.005254286247
0.005236272757
0.005225829667
0.005307357964
0.005294122111
0.005275420704
0.005252796671
0.005228072388
0.005203327628
0.005180863857
0.005163173182
0.005152916997
0.005232964901
0.005219966979
0.005201601445
0.005179383242
0.005155101832
0.005130799626
0.005108736987
0.005091361747
0.005081288206
0.005159891777
0.005147126274
0.005129088844
0.0051072671
0.005083418358
0.005059548536
0.005037877833
0.005020810819
0.005010915759
0.005088110041
0.005075571579
0.00505785467
0.005036420239
0.005012994206
0.004989546838
0.004968259096
0.004951493268
0.004941772627
0.005017591665
0.005005274998
0.004987871214
0.004966815175
0.004943802136
0.004920767536
0.004899853997
0.004883382487
0.004873832295
0.004948309158
0.004936209174
0.004919111304
0.00489842496
0.004875815441
0.004853184163
0.004832636287
0.004816452394
0.004807068782
0.004880235583
0.004868347297
0.004851548315
0.004831223189
0.004809007957
0.004786770796
0.004766580256
0.004750677448
0.004741456643
0.004813344561
0.004801663118
0.00478515618
0.004765184014
0.004743354074
0.004721502059
0.004701660742
0.004686032654
0.004676970978
0.004747610278
0.004736130952
0.004719909393
0.004700282145
0.004678828737
0.00465735313
0.004637853134
0.004622493564
0.004613587432
0.004683007493
0.004671725683
0.004655783014
0.004636492855
0.00461540745
0.004594299746
0.004575133375
0.004560036283
0.004551282206
0.004619511537
0.004608422765
0.004592752671
0.004573791982
0.00455306628
0.004532318198
0.004513477962
0.004498637469
0.004490032047
0.004557098313
0.004546198223
0.004530794562
0.004512155931
0.004491781855
0.004471385339
0.004452863948
0.004438274332
0.004429814257
0.004495744302
0.004485028657
0.004469885454
0.004451561672
0.004431531366
0.00441147858
0.004393268943
0.004378924638
0.004370606693
0.004435426557
0.004424891239
0.004410002685
0.004391986741
0.004372292569
0.004352575892
0.004334671116
0.004320566709
0.004312387765
0.004376122703
0.004365763709
0.00435112416
0.004333409244
0.004314043781
0.00429465581
0.004277049195
0.004263179426
0.004255136441
0.004317810943
0.004307624385
0.004293228359
0.004275807853
0.004256763891
0.004237697434
0.004220382472
0.004206742234
0.004198832255
0.004260470055
0.00425045216
0.004236294333
0.004219161816
0.00420043236
0.004181680437
0.004164650815
0.004151235151
0.004143455312
0.004204079401
0.004194226509
0.004180301721
0.004163450966
0.004145029231
0.004126585078
0.004109834675
0.004096638781
0.004088986306
0.004148618939
0.004138927503
0.004125230755
0.004108655731
0.00409053515
0.004072392217
0.00405591511
0.004042934339
0.004035406541
0.004094069234
0.004084535826
0.004071062283
0.004054757161
0.004036931384
0.004019083344
0.004002873813
0.003990103677
0.003982697963
0.004040411491
0.004031032801
0.004017777799
0.004001736954
0.003984199863
0.003966640617
0.003950693153
0.003938129333
0.003930843208
0.003987627585
0.003978400428
0.00396535948
0.003949577507
0.00393232322
0.003915046916
0.003899356233
0.003886994588
0.003879825664
0.003935700115
0.003926621439
0.003913790249
0.003898261973
0.003881284869
0.003864285915
0.00384884697
0.003836683555
0.003829629555
0.003884612475
0.003875679373
0.003863053849
0.003847774351
0.00383106909
0.003814342183
0.003799150202
0.003787181285
0.003780240061
0.00383434895
0.003825558674
0.003813134955
0.003798099595
0.003781661153
0.003765201315
0.003750251825
0.003738473919
0.003731643467
0.003784894839
0.003776244822
0.003764019305
0.003749223766
0.003733047478
0.0037168501
0.003702138975
0.003690548875
0.003683827358
0.003736236619
0.003727724501
0.003715693882
0.003701134219
0.003685215839
0.003669276746
0.003654800265
0.003643395092
0.003636780869
0.003688362153
0.003679985817
0.003668147145
0.003653819847
0.00363815562
0.003622471146
0.003608226068
0.003597003337
0.003590494999
0.003641260948
0.003633018567
0.003621369304
0.003607271379
0.003591858137
0.003576425225
0.003562408883
0.003551366575
0.003544962992
0.003594924476
0.003586814566
0.003575352673
0.003561481749
0.003546317027
0.00353113335
0.003517343765
0.003506480425
0.003500180804
0.00354934656
0.00354136805
0.003530092086
0.003516446537
0.003501528711
0.003486592821
0.003473028845
0.003462343692
0.003456147646
0.003504523834
0.003496676147
0.003485585387
0.003472164479
0.003457492942
0.003442804445
0.003429465924
0.003418958995
0.003412866621
0.003460456268
0.003452739422
0.003441833997
0.003428638068
0.003414213423
0.003399773186
0.003386661159
0.003376333461
0.003370345439
0.003417147777
0.003409562495
0.003398843556
0.003385874213
0.003371698502
0.00335750889
0.003344625806
0.003334479498
0.003328597195
0.003374606884
0.003367154718
0.003356624618
0.003343884966
0.003329961923
0.003316027056
0.003303377019
0.003293415609
0.003287641199
0.003332847433
0.003325530907
0.003315193396
0.003302688279
0.003289023604
0.003275349641
0.003262938672
0.003253167229
0.003247503814
0.003291889332
0.003284712082
0.00327457252
0.003262308778
0.00324891042
0.003235505848
0.003223342153
0.003213767522
0.003208219263
0.00325175928
0.003244726207
0.003234791769
0.003222778496
0.003209656937
0.003196532855
0.003184627088
0.003175258097
0.003169830333
0.003212491445
0.003205608855
0.003195888734
0.003184137517
0.003171306036
0.003158476421
0.003146841918
0.003137689565
0.003132388921
0.003174128041
0.003167403767
0.003157909346
0.003146434474
0.003133909365
0.003121391284
0.003110044258
0.003101121852
0.003095956324
0.003136719718
0.003130163219
0.003120908206
0.003109726816
0.003097527544
0.003085341294
0.003074300941
0.003065624189
0.003060603178
0.00310032573
0.003093948133
0.003084948617
0.003074080767
0.00306223002
0.003050399161
0.003039687673
0.003031274665
0.003026408972
0.003065013775
0.003058827872
0.003050102295
0.003039570897
0.003028094498
0.003016645745
0.003006288186
0.002998159272
0.002993461011
0.003030859433
0.003024879587
0.003016448606
0.003006279233
0.002995205894
0.002984168819
0.002974192821
0.002966370357
0.002961852791
0.002997945136
0.002992187099
0.002984073305
0.002974293826
0.002963654699
0.002953061244
0.002943496511
0.002936004423
0.002931681699
0.002966358614
0.002960839235
0.002953066719
0.002943706734
0.002933534748
0.002923418498
0.002914296098
0.002907159288
0.002903046065
0.002936190787
0.002930927602
0.002923521354
0.002914611422
0.002904940386
0.002895335611
0.002886687043
0.002879930601
0.002876041573
0.002907533095
0.002902543805
0.00289552894
0.002887099606
0.00287796308
0.002868903539
0.002860759584
0.002854407839
0.002850757156
0.002880474323
0.002875776152
0.002869176985
0.002861257607
0.002852687572
0.002844205116
0.002836594509
0.002830669934
0.002827270545
0.002855097001
0.002850705966
0.002844544954
0.00283716239
0.002829187752
0.002821310776
0.002814258747
0.002808780768
0.002805643706
0.002831473529
0.002827403647
0.002821700247
0.002814877441
0.002807522458
0.002800274279
0.002793801044
0.002788784829
0.002785918491
0.002809662232
0.002805924705
0.002800694212
0.002794448778
0.002787731487
0.002781128758
0.002775248065
0.00277070336
0.002768112834
0.002789703581
0.002786306013
0.002781558458
0.002775901346
0.002769832117
0.002763883393
0.002758601233
0.00275453137
0.002752217858
0.002771616859
0.002768562564
0.002764301754
0.002759236118
0.002753816459
0.002748521043
0.002743834661
0.00274023581
0.002738196224
0.002755397542
0.002752685015
0.002748907809
0.002744428185
0.002739649911
0.002734997118
0.002730894421
0.002727755206
0.002725981979
0.002741015678
0.002738638271
0.002735334175
0.002731426062
0.002727270948
0.002723239873
0.002719699351
0.002717000875
0.002715482029
0.002728415449
0.002726361314
0.002723512451
0.002720152379
0.00271659236
0.002713152231
0.002710143418
0.00270785975
0.002706579242
0.002717516059
0.002715768375
0.002713349878
0.002710505986
0.002707503936
0.002704615063
0.002702099558
0.002700198662
0.002699136992
0.002708213968
0.002706751461
0.002704732272
0.002702365391
0.002699876454
0.002697491719
0.002695424705
0.002693869756
0.002693004794
0.002700386369
0.002699184093
0.002697528134
0.002695593305
0.002693566687
0.00269163349
0.002689965627
0.002688716614
0.002688024585
0.002693895688
0.002692926021
0.002691593652
0.002690041968
0.002688423058
0.002686885546
0.0026855651
0.002684580564
0.002684037094
0.002688594792
0.002687828563
0.002686778207
0.002685558838
0.002684291474
0.002683092871
0.002682067875
0.00268130665
0.002680887786
0.002684332503
0.002683740162
0.002682929973
0.002681992193
0.002681020896
0.002680105737
0.002679326009
0.002678748793
0.002678431905
0.002680958997
0.002680511738
0.002679901169
0.002679196232
0.00267846821
0.002677784297
0.002677203153
0.002676773799
0.002676538292
0.002678330708
0.002678001444
0.0026775526
0.002677035317
0.002676502108
0.002676002043
0.002675577583
0.002675264024
0.002675091826
0.002676314387
0.002676078525
0.002675757207
0.002675387122
0.00267500576
0.002674647985
0.002674343899
0.002674118671
0.00267399447
0.002674790105
0.002674626076
0.002674402464
0.002674144583
0.002673878268
0.002673627578
0.002673413465
0.002673253842
0.00267316511
0.002673653111
0.002673542637
0.002673391608
0.002673216688
0.00267303496
0.002672862533
0.002672713795
0.002672601602
0.00267253842
0.002672814558
0.002672742677