/*--------------------------------*- C++ -*----------------------------------*\
| =========                 |                                                 |
| \\      /  F ield         | OpenFOAM: The Open Source CFD Toolbox           |
|  \\    /   O peration     | Version:  2212                                  |
|   \\  /    A nd           | Website:  www.openfoam.com                      |
|    \\/     M anipulation  |                                                 |
\*---------------------------------------------------------------------------*/
FoamFile
{
    version     2.0;
    format      ascii;
    arch        "LSB;label=32;scalar=64";
    class       volScalarField;
    location    "20.00000000";
    object      CH4_0;
}
// * * * * * * * * * * * * * * * * * * * * * * * * * * * * * * * * * * * * * //

dimensions      [0 0 0 0 0 0 0];

internalField   nonuniform List<scalar> 
3000
(
0.0004199879352
0.0004199879352
0.0004199879352
0.0004199879352
0.0004199879352
0.0004199879352
0.0004199879352
0.0004199879352
0.0004199879352
0.0004199879352
0.0004199879352
0.0004199879352
0.0004199879352
0.0004199879352
0.0004199879352
0.0004199879352
0.0004199879352
0.0004199879352
0.0004199879352
0.0004199879352
0.0004199879352
0.0004199879352
0.0004199879352
0.0004199879352
0.0004199879352
0.0004199879352
0.0004199879352
0.0004199879352
0.0004199879352
0.0004199879352
0.0004199879352
0.0004199879352
0.0004199879352
0.0004199879352
0.0004199879352
0.0004199879352
0.0004199879352
0.0004199879352
0.0004199879352
0.0004199879352
0.0004199879352
0.0004199879352
0.0004199879352
0.0004199879352
0.0004199879352
0.0004199879352
0.0004199879352
0.0004199879352
0.0004199879352
0.0004199879352
0.0004199879352
0.0004199879352
0.0004199879352
0.0004199879352
0.0004199879352
0.0004199879352
0.0004199879352
0.0004199879352
0.0004199879352
0.0004199879352
0.0004199879352
0.0004199879352
0.0004199879352
0.0004199879352
0.0004199879352
0.0004199879352
0.0004199879352
0.0004199879352
0.0004199879352
0.0004199879352
0.0004199879352
0.0004199879352
0.0004199879352
0.0004199879352
0.0004199879352
0.0004199879352
0.0004199879352
0.0004199879352
0.0004199879352
0.0004199879352
0.0004199879352
0.0004199879352
0.0004199879352
0.0004199879352
0.0004199879352
0.0004199879352
0.0004199879352
0.0004199879352
0.0004199879352
0.0004199879352
0.0004199879352
0.0004199879352
0.0004199879352
0.0004199879352
0.0004199879352
0.0004199879352
0.0004199879352
0.0004199879352
0.0004199879352
0.0004199879352
0.0004199879352
0.0004199879352
0.0004199879352
0.0004199879352
0.0004199879352
0.0004199879352
0.0004199879352
0.0004199879352
0.0004199879352
0.0004199879352
0.0004199879352
0.0004199879352
0.0004199879352
0.0004199879352
0.0004199879352
0.0004199879352
0.0004199879352
0.0004199879352
0.0004199879352
0.0004199879352
0.0004199879352
0.0004199879352
0.0004199879352
0.0004199879352
0.0004199879352
0.0004199879352
0.0004199879352
0.0004199879352
0.0004199879352
0.0004199879352
0.0004199879352
0.0004199879352
0.0004199879352
0.0004199879352
0.0004199879352
0.0004199879352
0.0004199879352
0.0004199879352
0.0004199879352
0.0004199879352
0.0004199879352
0.0004199879352
0.0004199879352
0.0004199879352
0.0004199879352
0.0004199879352
0.0004199879352
0.0004199879352
0.0004199879352
0.0004199879352
0.0004199879352
0.0004199879352
0.0004199879352
0.0004199879352
0.0004199879352
0.0004199879352
0.0004199879352
0.0004199879352
0.0004199879352
0.0004199879352
0.0004199879352
0.0004199879352
0.0004199879352
0.0004199879352
0.0004199879352
0.0004199879352
0.0004199879352
0.0004199879352
0.0004199879352
0.0004199879352
0.0004199879352
0.0004199879352
0.0004199879352
0.0004199879352
0.0004199879352
0.0004199879352
0.0004199879352
0.0004199879352
0.0004199879352
0.0004199879352
0.0004199879352
0.0004199879352
0.0004199879352
0.0004199879352
0.0004199879352
0.0004199879352
0.0004199879352
0.0004199879352
0.0004199879352
0.0004199879352
0.0004199879352
0.0004199879352
0.0004199879352
0.0004199879352
0.0004199879352
0.0004199879352
0.0004199879352
0.0004199879352
0.0004199879352
0.0004199879352
0.0004199879352
0.0004199879352
0.0004199879352
0.0004199879352
0.0004199879352
0.0004199879352
0.0004199879352
0.0004199879352
0.0004199879352
0.0004199879352
0.0004199879352
0.0004199879352
0.0004199879352
0.0004199879352
0.0004199879352
0.0004199879352
0.0004199879352
0.0004199879352
0.0004199879352
0.0004199879352
0.0004199879352
0.0004199879352
0.0004199879352
0.0004199879352
0.0004199879352
0.0004199879352
0.0004199879352
0.0004199879352
0.0004199879352
0.0004199879352
0.0004199879352
0.0004199879352
0.0004199879352
0.0004199879352
0.0004199879352
0.0004199879352
0.0004199879352
0.0004199879352
0.0004199879352
0.0004199879352
0.0004199879352
0.0004199879352
0.0004199879352
0.0004199879352
0.0004199879352
0.0004199879352
0.0004199879352
0.0004199879352
0.0004199879352
0.0004199879352
0.0004199879352
0.0004199879352
0.0004199879352
0.0004199879352
0.0004199879352
0.0004199879352
0.0004199879352
0.0004199879352
0.0004199879352
0.0004199879352
0.0004199879352
0.0004199879352
0.0004199879352
0.0004199879352
0.0004199879352
0.0004199879352
0.0004199879352
0.0004199879352
0.0004199879352
0.0004199879352
0.0004199879352
0.0004199879352
0.0004199879352
0.0004199879352
0.0004199879352
0.0004199879352
0.0004199879352
0.0004199879352
0.0004199879352
0.0004199879352
0.0004199879352
0.0004199879352
0.0004199879352
0.0004199879352
0.0004199879352
0.0004199879352
0.0004199879352
0.0004199879352
0.0004199879352
0.0004199879352
0.0004199879352
0.0004199879352
0.0004199879352
0.0004199879352
0.0004199879352
0.0004199879352
0.0004199879352
0.0004199879352
0.0004199879352
0.0004199879352
0.0004199879352
0.0004199879352
0.0004199879352
0.0004199879352
0.0004199879352
0.0004199879352
0.0004199879352
0.0004199879352
0.0004199879352
0.0004199879352
0.0004199879352
0.0004199879352
0.0004199879352
0.0004199879352
0.0004199879353
0.0004199879352
0.0004199879352
0.0004199879352
0.0004199879352
0.0004199879352
0.0004199879353
0.0004199879353
0.0004199879353
0.0004199879353
0.0004199879352
0.0004199879352
0.0004199879352
0.0004199879352
0.0004199879353
0.0004199879353
0.0004199879353
0.0004199879353
0.0004199879354
0.0004199879352
0.0004199879352
0.0004199879353
0.0004199879353
0.0004199879353
0.0004199879354
0.0004199879354
0.0004199879354
0.0004199879355
0.0004199879353
0.0004199879353
0.0004199879353
0.0004199879353
0.0004199879354
0.0004199879355
0.0004199879355
0.0004199879356
0.0004199879356
0.0004199879353
0.0004199879353
0.0004199879354
0.0004199879355
0.0004199879355
0.0004199879356
0.0004199879358
0.0004199879359
0.0004199879359
0.0004199879354
0.0004199879354
0.0004199879355
0.0004199879356
0.0004199879358
0.0004199879359
0.0004199879361
0.0004199879363
0.0004199879364
0.0004199879355
0.0004199879356
0.0004199879357
0.0004199879359
0.0004199879361
0.0004199879364
0.0004199879367
0.000419987937
0.0004199879371
0.0004199879357
0.0004199879359
0.0004199879361
0.0004199879364
0.0004199879367
0.0004199879372
0.0004199879376
0.000419987938
0.0004199879383
0.0004199879361
0.0004199879363
0.0004199879366
0.0004199879371
0.0004199879377
0.0004199879384
0.0004199879391
0.0004199879397
0.0004199879401
0.0004199879367
0.000419987937
0.0004199879376
0.0004199879383
0.0004199879392
0.0004199879403
0.0004199879414
0.0004199879423
0.0004199879429
0.0004199879377
0.0004199879382
0.000419987939
0.0004199879401
0.0004199879416
0.0004199879432
0.0004199879449
0.0004199879464
0.0004199879473
0.0004199879392
0.00041998794
0.0004199879413
0.0004199879431
0.0004199879453
0.0004199879478
0.0004199879503
0.0004199879525
0.0004199879539
0.0004199879417
0.000419987943
0.000419987945
0.0004199879477
0.000419987951
0.0004199879548
0.0004199879586
0.0004199879619
0.0004199879639
0.0004199879456
0.0004199879476
0.0004199879506
0.0004199879548
0.0004199879598
0.0004199879655
0.0004199879712
0.000419987976
0.000419987979
0.0004199879518
0.0004199879548
0.0004199879594
0.0004199879656
0.0004199879732
0.0004199879816
0.00041998799
0.0004199879972
0.0004199880015
0.0004199879614
0.000419987966
0.0004199879729
0.0004199879822
0.0004199879934
0.0004199880058
0.0004199880182
0.0004199880286
0.0004199880349
0.0004199879764
0.0004199879832
0.0004199879935
0.0004199880072
0.0004199880237
0.0004199880419
0.0004199880598
0.000419988075
0.0004199880842
0.0004199879993
0.0004199880093
0.0004199880246
0.0004199880448
0.0004199880689
0.0004199880953
0.0004199881213
0.0004199881431
0.0004199881563
0.0004199880341
0.0004199880489
0.0004199880713
0.0004199881006
0.0004199881356
0.0004199881737
0.0004199882111
0.0004199882425
0.0004199882615
0.0004199880867
0.0004199881083
0.0004199881408
0.0004199881832
0.0004199882336
0.0004199882884
0.0004199883419
0.0004199883867
0.0004199884138
0.0004199881654
0.0004199881966
0.0004199882435
0.0004199883044
0.0004199883766
0.0004199884548
0.000419988531
0.0004199885946
0.000419988633
0.0004199882823
0.0004199883271
0.0004199883941
0.0004199884811
0.0004199885838
0.0004199886947
0.0004199888026
0.0004199888925
0.0004199889467
0.0004199884543
0.0004199885182
0.0004199886135
0.0004199887369
0.0004199888821
0.0004199890385
0.0004199891903
0.0004199893165
0.0004199893925
0.0004199887059
0.0004199887963
0.0004199889309
0.0004199891047
0.0004199893086
0.0004199895278
0.00041998974
0.0004199899162
0.000419990022
0.0004199890707
0.0004199891978
0.0004199893866
0.0004199896298
0.0004199899146
0.0004199902197
0.0004199905146
0.000419990759
0.0004199909057
0.0004199895959
0.0004199897734
0.0004199900366
0.0004199903748
0.0004199907697
0.000419991192
0.0004199915993
0.0004199919364
0.0004199921385
0.0004199903463
0.0004199905926
0.000419990957
0.0004199914243
0.0004199919687
0.0004199925498
0.0004199931092
0.0004199935716
0.0004199938487
0.0004199914107
0.0004199917501
0.0004199922515
0.0004199928932
0.0004199936394
0.0004199944343
0.0004199951986
0.0004199958297
0.0004199962078
0.0004199929089
0.0004199933738
0.0004199940595
0.0004199949355
0.0004199959526
0.0004199970343
0.0004199980732
0.0004199989304
0.0004199994436
0.0004199950026
0.0004199956355
0.0004199965679
0.0004199977572
0.0004199991359
0.0004200006005
0.0004200020055
0.000420003164
0.0004200038574
0.0004199979073
0.0004199987641
0.0004200000248
0.0004200016309
0.0004200034902
0.000420005463
0.0004200073538
0.0004200089119
0.0004200098442
0.0004200019089
0.0004200030624
0.000420004758
0.0004200069154
0.00042000941
0.000420012054
0.0004200145859
0.000420016671
0.0004200179185
0.0004200073837
0.0004200089281
0.0004200111963
0.0004200140791
0.0004200174086
0.000420020934
0.0004200243072
0.0004200270838
0.0004200287446
0.0004200148219
0.0004200168786
0.0004200198964
0.0004200237279
0.0004200281484
0.0004200328245
0.0004200372953
0.0004200409735
0.0004200431733
0.0004200248575
0.0004200275811
0.0004200315741
0.0004200366387
0.0004200424759
0.0004200486449
0.0004200545387
0.0004200593853
0.0004200622833
0.0004200383014
0.0004200418876
0.000420047141
0.0004200537979
0.0004200614627
0.0004200695557
0.0004200772822
0.0004200836327
0.0004200874291
0.0004200561811
0.0004200608753
0.0004200677464
0.000420076445
0.0004200864508
0.000420097006
0.0004201070757
0.0004201153478
0.0004201202916
0.0004200797845
0.0004200858915
0.0004200948235
0.0004201061206
0.0004201191024
0.0004201327845
0.000420145827
0.0004201565351
0.0004201629328
0.0004201107079
0.000420118602
0.0004201301391
0.0004201447168
0.0004201614517
0.0004201790723
0.0004201958553
0.0004202096254
0.0004202178494
0.0004201509065
0.0004201610428
0.0004201758449
0.00042019453
0.0004202159574
0.0004202384957
0.0004202599432
0.0004202775278
0.0004202880248
0.0004202027465
0.0004202156711
0.0004202345296
0.0004202583108
0.0004202855521
0.0004203141745
0.0004203413845
0.0004203636756
0.0004203769742
0.000420269055
0.0004202854151
0.0004203092662
0.0004203393113
0.0004203736875
0.0004204097639
0.0004204440229
0.0004204720627
0.0004204887795
0.0004203531656
0.0004203737181
0.0004204036548
0.0004204413235
0.0004204843686
0.0004205294856
0.0004205722789
0.0004206072677
0.0004206281108
0.0004204589569
0.0004204845743
0.0004205218542
0.0004205687075
0.0004206221773
0.000420678145
0.0004207311618
0.0004207744604
0.0004208002306
0.0004205908788
0.0004206225527
0.0004206686019
0.0004207264048
0.0004207922787
0.0004208611308
0.0004209262623
0.0004209793894
0.0004210109778
0.000420753966
0.0004207928059
0.000420849217
0.0004209199353
0.0004210004103
0.0004210843959
0.0004211637261
0.0004212283492
0.0004212667326
0.000420953833
0.0004210010617
0.0004210695857
0.0004211553744
0.0004212528505
0.0004213544169
0.0004214502052
0.0004215281276
0.0004215743585
0.0004211966509
0.0004212535949
0.0004213361267
0.0004214393103
0.0004215563669
0.0004216781349
0.0004217927925
0.000421885931
0.0004219411253
0.0004214891046
0.0004215571793
0.0004216557365
0.0004217787819
0.0004219181469
0.0004220628781
0.0004221989352
0.000422309294
0.0004223746151
0.0004218383284
0.0004219190199
0.0004220357156
0.0004221811998
0.0004223457122
0.000422516268
0.0004226763354
0.0004228059754
0.0004228826167
0.0004222518257
0.0004223466703
0.0004224836832
0.0004226542532
0.0004228468174
0.0004230461131
0.000423232841
0.0004233838469
0.000423473012
0.0004227373767
0.0004228479349
0.0004230074727
0.0004232058018
0.0004234293401
0.0004236602975
0.000423876331
0.0004240507763
0.0004241536598
0.0004233029272
0.0004234307581
0.0004236150208
0.0004238437642
0.0004241011677
0.0004243666655
0.0004246146005
0.0004248145136
0.000424932281
0.0004239564749
0.0004241031095
0.0004243142521
0.000424576002
0.0004248700822
0.0004251729083
0.0004254552493
0.0004256825803
0.0004258163497
0.0004247059513
0.0004248728673
0.0004251129638
0.0004254102065
0.0004257436494
0.0004260864562
0.0004264055763
0.000426662167
0.0004268129922
0.0004255591062
0.0004257477033
0.0004260187135
0.0004263537899
0.0004267291139
0.0004271143775
0.000427472483
0.0004277600402
0.0004279288958
0.0004265233955
0.0004267349741
0.0004270387134
0.0004274137837
0.0004278333027
0.0004282632878
0.0004286623879
0.0004289824602
0.0004291702287
0.0004276058777
0.0004278416201
0.0004281797335
0.0004285967471
0.0004290625392
0.0004295392692
0.0004299811505
0.0004303351099
0.0004305425714
0.0004288131195
0.0004290740737
0.0004294480147
0.0004299086857
0.0004304225679
0.0004309478017
0.0004314340085
0.0004318230355
0.0004320508597
0.0004301511124
0.0004304381804
0.0004308491939
0.0004313549821
0.0004319184912
0.0004324937054
0.0004330255251
0.0004334505985
0.0004336993391
0.0004316252022
0.0004319391302
0.000432388241
0.0004329403386
0.000433554718
0.0004341810953
0.000434759549
0.0004352214389
0.0004354915298
0.0004332400305
0.0004335814039
0.0004340694087
0.0004346687322
0.0004353349244
0.0004360133473
0.000436639185
0.0004371384499
0.0004374302038
0.0004349994902
0.0004353687302
0.0004358961945
0.0004365433815
0.0004372620258
0.0004379930755
0.0004386667762
0.0004392037635
0.0004395173721
0.0004369066929
0.000437304057
0.0004378713158
0.0004385667266
0.0004393381618
0.0004401221216
0.000440843897
0.000441418746
0.0004417542822
0.0004389639504
0.0004393895346
0.0004399966964
0.00044074042
0.0004415646913
0.0004424015543
0.0004431713562
0.0004437840048
0.000444141426
0.0004411727675
0.0004416265118
0.0004422734661
0.0004430653291
0.0004439421989
0.0004448316796
0.0004456492108
0.0004462994033
0.0004466785565
0.0004435338478
0.0004440155426
0.0004447019699
0.0004455415493
0.0004464705114
0.0004474120599
0.0004482767873
0.0004489640857
0.0004493647133
0.0004460471091
0.0004465564043
0.0004472817882
0.0004481684266
0.0004491487232
0.0004501415424
0.0004510527129
0.0004517765086
0.0004521982558
0.00044871171
0.0004492481246
0.0004500117665
0.0004509445894
0.0004519752299
0.0004530182948
0.0004539749526
0.0004547344802
0.0004551769023
0.0004515260849
0.0004520890181
0.0004528900524
0.0004538679872
0.0004549477691
0.0004560398477
0.0004570408527
0.0004578352048
0.0004582977756
0.0004544879857
0.000455076729
0.0004559141399
0.000456935936
0.000458063467
0.0004592031414
0.0004602471894
0.0004610753313
0.0004615574522
0.0004575945315
0.0004582082803
0.0004590809192
0.0004601451687
0.0004613188889
0.0004625045782
0.0004635902205
0.0004644510062
0.0004649520145
0.0004608422608
0.0004614801275
0.0004623867303
0.0004634918889
0.0004647100937
0.0004659400764
0.0004670657397
0.0004679579273
0.0004684771052
0.0004642271892
0.0004648882154
0.0004658274197
0.0004669718277
0.0004682326901
0.000469505126
0.0004706691327
0.0004715913998
0.0004721279833
0.0004677448683
0.0004684280365
0.000469398399
0.0004705803016
0.0004718818941
0.0004731948461
0.0004743954333
0.0004753463915
0.0004758995791
0.0004713904449
0.0004720946909
0.0004730947035
0.0004743122703
0.000475652586
0.0004770040407
0.0004782393784
0.0004792175882
0.0004797865485
0.0004751587217
0.0004758829452
0.0004769110507
0.0004781623941
0.0004795393669
0.0004809272539
0.0004821954629
0.0004831994469
0.0004837833267
0.0004790442153
0.0004797872906
0.0004808418973
0.0004821250902
0.0004835366129
0.0004849588236
0.0004862579914
0.0004872862468
0.0004878841783
0.0004830412131
0.000483801999
0.0004848814941
0.0004861945859
0.0004876385278
0.000489092932
0.000490421128
0.0004914721385
0.0004920832457
0.0004871438279
0.0004879211761
0.0004890239383
0.0004903649695
0.0004918391921
0.0004933236534
0.0004946789428
0.0004957511888
0.0004963745942
0.0004913460484
0.0004921388119
0.0004932632225
0.000494630238
0.0004961326093
0.0004976449991
0.0004990254549
0.0005001174238
0.0005007522532
0.0004956417871
0.0004964488274
0.0004975932803
0.0004989843414
0.0005005127485
0.0005020509585
0.0005034546728
0.0005045648669
0.0005052102546
0.0005000249245
0.0005008451177
0.0005020080281
0.000503421223
0.0005049735831
0.000506535536
0.0005079606298
0.000509087574
0.0005097426675
0.0005044893482
0.0005053215908
0.0005065014033
0.0005079348558
0.0005095091261
0.0005110927854
0.0005125374166
0.0005136796652
0.0005143436284
0.0005090289897
0.0005098722031
0.0005110673977
0.0005125192755
0.0005141134615
0.0005157168393
0.0005171792103
0.0005183353522
0.0005190073689
0.0005136378559
0.0005144909905
0.0005157000884
0.0005171686094
0.0005187807717
0.0005204019354
0.0005218802992
0.0005230489629
0.0005237282395
0.0005183100571
0.0005191720955
0.0005203936638
0.0005218771012
0.0005235053615
0.0005251424399
0.0005266351044
0.0005278149618
0.0005285007296
0.0005230398316
0.0005239097914
0.0005251424463
0.0005266391335
0.0005282816787
0.0005299328658
0.0005314381986
0.000532627968
0.000533319485
0.0005278215659
0.0005286985016
0.0005299409118
0.000531449245
0.0005331043313
0.0005347678903
0.0005362843212
0.0005374827696
0.0005381793216
0.0005326498125
0.000533532817
0.0005347837055
0.0005363021467
0.0005379681017
0.0005396423671
0.0005411683904
0.0005423743356
0.0005430752376
0.0005375193035
0.0005384075092
0.0005396656546
0.0005411927332
0.0005428679578
0.0005445513372
0.0005460855136
0.0005472978248
0.0005480024216
0.0005424249621
0.0005433175416
0.000544581779
0.0005461160925
0.0005477990621
0.0005494900371
0.0005510309938
0.0005522485929
0.0005529562594
0.0005473619111
0.0005482580772
0.0005495272986
0.000551067513
0.0005527567774
0.0005544539041
0.0005560003356
0.0005572221968
0.0005579323381
0.0005523254785
0.0005532244843
0.0005544976384
0.0005560424881
0.0005577366715
0.00055943858
0.0005609892477
0.0005622143976
0.0005629264493
0.0005573112021
0.0005582123405
0.0005594884322
0.0005610367191
0.0005627345194
0.0005644399129
0.0005659936444
0.0005672211616
0.0005679345888
0.0005623148308
0.000563217434
0.0005644955234
0.0005660461163
0.0005677463036
0.0005694539575
0.0005710096454
0.0005722386594
0.000572952957
0.0005673323252
0.0005682357639
0.0005695149652
0.0005710667978
0.0005727682133
0.0005744769737
0.0005760335743
0.0005772632647
0.0005779779561
0.0005723598563
0.0005732635386
0.0005745430188
0.0005760950885
0.0005777966423
0.0005795054239
0.0005810619557
0.0005822915506
0.0005830061879
0.000577393803
0.0005782971732
0.0005795761507
0.0005811275164
0.0005828281857
0.0005845359699
0.0005860915117
0.0005873202867
0.0005880344488
0.0005824307483
0.0005833332862
0.0005846110284
0.0005861608088
0.0005878596357
0.0005895654684
0.0005911191571
0.0005923464333
0.0005930597259
0.000587467475
0.000588368694
0.0005896445165
0.0005911918875
0.0005928879763
0.0005945909657
0.0005961419944
0.0005973671372
0.0005980791913
0.0005925009604
0.0005934004064
0.0005946736704
0.0005962178632
0.0005979103781
0.0005996096919
0.0006011573079
0.0006023797248
0.0006030901961
0.0005975283701
0.0005984256204
0.0005996957309
0.0006012360295
0.0006029241923
0.0006046190554
0.0006061625574
0.0006073816967
0.0006080902643
0.0006025470522
0.0006034417137
0.0006047081176
0.0006062438563
0.0006079269437
0.0006096166356
0.0006111553717
0.0006123707204
0.0006130770861
0.00060755453
0.0006084462382
0.0006097084223
0.0006112389836
0.0006129163243
0.0006146001766
0.0006161335421
0.0006173446242
0.000618048511
0.0006125484957
0.0006134369126
0.0006146944018
0.0006162192138
0.0006178901864
0.0006195675803
0.0006210950151
0.0006223013899
0.0006230025414
0.0006175268024
0.000618411616
0.0006196639711
0.0006211825053
0.0006228465355
0.000624516899
0.0006260378857
0.0006272391458
0.0006279373249
0.0006224874577
0.00062336838
0.0006246151959
0.000626126965
0.0006277835232
0.0006294463288
0.0006309603902
0.00063215616
0.0006328511481
0.000627428616
0.000628305382
0.0006295462859
0.0006310508413
0.00063269944
0.0006343542025
0.0006358608995
0.0006370508333
0.0006377424291
0.0006323485713
0.0006332209376
0.0006344555871
0.0006359525169
0.0006375927086
0.0006392389825
0.000640737912
0.0006419216924
0.0006426097112
0.0006372457502
0.0006381134939
0.0006393415753
0.0006408305022
0.0006424618771
0.0006440992542
0.000645590047
0.0006467673834
0.0006474516559
0.0006421187052
0.0006429816222
0.0006442028489
0.000645683428
0.0006473056116
0.0006489337192
0.0006504160381
0.000651586665
0.0006522670365
0.0006469661071
0.0006478240117
0.0006490381224
0.0006505100395
0.0006521226905
0.000653741189
0.0006552147268
0.0006563784023
0.0006570547321
0.0006517867391
0.0006526394624
0.0006538462196
0.0006553091892
0.0006569119976
0.0006585205786
0.0006599850563
0.0006611415608
0.0006618137209
0.00065657949
0.0006574268789
0.0006586260675
0.0006600798311
0.0006616725162
0.0006632709004
0.0006647260657
0.0006658752004
0.000666543075
0.000661343348
0.0006621852645
0.0006633766902
0.0006648210144
0.0006664033231
0.0006679912587
0.0006694368838
0.0006705784696
0.0006712419544
0.0006660773948
0.0006669137145
0.0006680972029
0.000669531878
0.0006711035828
0.0006726808436
0.0006741167241
0.0006752506001
0.0006759096012
0.0006707808001
0.0006716114119
0.0006727868066
0.0006742116449
0.0006757725423
0.0006773389261
0.0006787648793
0.0006798909017
0.0006805453354
0.000675452816
0.0006762776206
0.0006774447824
0.0006788596169
0.0006804095258
0.0006819648527
0.0006833807162
0.0006844987573
0.000685148549
0.0006800927714
0.0006809116811
0.0006820704868
0.0006834751696
0.0006850139298
0.0006865580409
0.0006879636711
0.0006890736179
0.000689718702
0.0006847000676
0.0006855130051
0.0006866633463
0.0006880577474
0.0006895852183
0.000691117974
0.0006925132452
0.0006936149987
0.0006942553175
0.000689274173
0.0006900810709
0.0006912228531
0.0006926068593
0.0006941229184
0.0006956441974
0.0006970290001
0.0006981224744
0.0006987579777
0.000693814619
0.0006946154191
0.0006957485607
0.0006971220743
0.0006986266161
0.0007001363138
0.0007015105539
0.0007025956752
0.0007032263199
0.0006983209957
0.0006991156482
0.0007002400795
0.0007016030172
0.000703095952
0.0007045939797
0.0007059575773
0.0007070342828
0.0007076600324
0.0007027929478
0.0007035814108
0.0007046970733
0.0007060493654
0.0007075306179
0.0007090169014
0.0007103697898
0.0007114380273
0.0007120588513
0.0007072301708
0.0007080124098
0.0007091192554
0.0007104608444
0.0007119303529
0.0007134048315
0.0007147469565
0.0007158066833
0.0007164225568
0.0007116324074
0.0007124083947
0.0007135063848
0.0007148372249
0.0007162949404
0.0007177575659
0.0007190888843
0.0007201400668
0.0007207509703
0.0007159994443
0.0007167691585
0.0007178582632
0.0007191783192
0.0007206242042
0.0007220749402
0.0007233954195
0.0007244380323
0.0007250439509
0.0007203311086
0.000721094534
0.0007221747318
0.0007234839784
0.0007249180062
0.0007263568267
0.0007276664441
0.0007287004695
0.000729301393
0.0007246272651
0.0007253843915
0.0007264556684
0.0007277540893
0.0007291762431
0.000730603132
0.0007319018736
0.000732927301
0.000733523223
0.0007288878132
0.0007296386352
0.0007307009841
0.0007319885716
0.0007333988435
0.000734813794
0.000736101654
0.0007371184791
0.0007377093972
0.0007331126844
0.0007338572013
0.0007349106215
0.0007361873752
0.0007375857658
0.0007389887791
0.0007402657593
0.0007412739838
0.000741859899
0.0007373018393
0.0007380400544
0.0007390845508
0.0007403504775
0.0007417369949
0.0007431280799
0.000744394189
0.00074539382
0.0007459747363
0.0007414552653
0.0007421871855
0.0007432227686
0.0007444778813
0.0007458525404
0.0007472317128
0.0007484869655
0.0007494780148
0.0007500539392
0.0007455729737
0.0007462986095
0.0007473252942
0.0007485696117
0.0007499324337
0.0007512997152
0.0007525441317
0.0007535266155
0.0007540975573
0.0007496549978
0.0007503743625
0.0007513921681
0.000752625714
0.0007539767254
0.0007553321431
0.0007565657485
0.0007575396866
0.0007581056573
0.0007537013899
0.0007544144994
0.0007554234487
0.0007566462511
0.000757985483
0.0007593290685
0.0007605518916
0.0007615173071
0.0007620783201
0.0007577122187
0.0007584190912
0.00075941921
0.0007606313004
0.0007619587876
0.0007632905761
0.0007645026494
0.0007654595677
0.0007660156377
0.0007616875665
0.0007623882219
0.0007633795382
0.0007645809509
0.0007658967311
0.0007672167607
0.0007684181186
0.0007693665671
0.0007699177098
0.0007656275261
0.0007663219852
0.0007673045289
0.0007684953
0.0007697994127
0.0007711077229
0.0007722984014
0.0007732384082
0.0007737846398
0.000769532197
0.0007702204814
0.0007711942829
0.000772374449
0.0007736669344
0.000774963565
0.0007761436002
0.0007770751934
0.00077761653
0.0007734016811
0.0007740838122
0.0007750489015
0.0007762184989
0.000777499396
0.0007787843859
0.0007799538123
0.0007808770187
0.0007814134756
0.0007772360777
0.0007779120759
0.0007788684815
0.0007800275441
0.0007812968894
0.0007825702741
0.0007837291232
0.0007846439668
0.0007851755576
0.0007810354772
0.0007817053607
0.0007826531079
0.0007838016656
0.0007850594905
0.0007863213002
0.000787469598
0.0007883760983
0.0007889028335
0.0007847999532
0.0007854637368
0.0007864028459
0.0007875409218
0.00078878725
0.0007900375064
0.0007911752708
0.0007920734401
0.0007925953262
0.000788529553
0.0007891872465
0.00079011773
0.0007912453377
0.0007924801816
0.0007937188944
0.0007948461313
0.0007957359725
0.0007962530099
0.0007922242855
0.0007928758913
0.0007937977514
0.0007949148908
0.0007961382471
0.0007973654093
0.0007984821088
0.0007993636109
0.0007998757918
0.0007958841062
0.0007965296169
0.0007974428411
0.0007985494941
0.0007997613384
0.0008009769204
0.0008020830508
0.0008029561852
0.0008034634909
0.0007995088986
0.0008001482937
0.0008010528506
0.0008021489745
0.0008033492545
0.0008045531973
0.0008056486985
0.0008065134129
0.0008070158106
0.0008030984517
0.0008037316938
0.0008046275266
0.0008057130473
0.0008069016744
0.0008080938807
0.0008091786561
0.0008100348678
0.0008105323062
0.0008066524326
0.0008072794619
0.000808166482
0.000809241285
0.0008104181241
0.0008115984476
0.0008126723537
0.0008135199415
0.0008140123461
0.0008101703535
0.0008107910823
0.0008116691602
0.0008127330796
0.000813897937
0.00081506617
0.0008161290047
0.000816967799
0.0008174550661
0.0008136515329
0.0008142658386
0.000815134794
0.0008161875998
0.0008173402091
0.000818496067
0.0008195475555
0.0008203773269
0.0008208593168
0.0008170950512
0.0008177027678
0.0008185623575
0.0008196037414
0.0008207437461
0.0008218868509
0.0008229266291
0.0008237470753
0.0008242236045
0.0008204996998
0.0008211006088
0.0008219505132
0.000822980071
0.0008241070062
0.0008252368665
0.0008262644633
0.0008270751938
0.0008275460263
0.0008238639251
0.0008244577445
0.0008252975526
0.0008263147658
0.0008274280371
0.0008285440264
0.0008295588431
0.0008303593637
0.0008308242012
0.0008271857675
0.0008277721406
0.0008286013332
0.0008296055488
0.0008307044094
0.0008318057431
0.0008328070324
0.0008335967276
0.0008340551998
0.0008304627984
0.0008310412817
0.0008318592142
0.0008328496232
0.0008339331504
0.000835018862
0.0008360057056
0.0008367838214
0.0008372354755
0.0008336920571
0.0008342621076
0.0008350679922
0.0008360436084
0.0008371106802
0.0008381795975
0.000839150885
0.0008399165118
0.000840360803
0.0008368699903
0.0008374309535
0.0008382238428
0.0008391834821
0.0008402327551
0.0008412834786
0.0008422378879
0.0008429899457
0.0008434262284
0.0008399923995
0.0008405434993
0.0008413222709
0.000842264534
0.0008432944246
0.0008443253093
0.0008452612906
0.0008459985169
0.0008464260388
0.0008430544022
0.0008435947317
0.0008443580769
0.000845281336
0.000846290007
0.0008472991498
0.0008482149161
0.0008489358594
0.0008493537572
0.0008460504099
0.0008465789272
0.0008473253446
0.0008482277364
0.000849213091
0.0008501983273
0.0008510918522
0.0008517948716
0.0008522021724
0.0008489741311
0.0008494896589
0.0008502174556
0.0008510968847
0.0008520565716
0.0008530154815
0.0008538845078
0.0008545677822
0.0008549634093
0.0008518186072
0.0008523198387
0.0008530271397
0.0008538812919
0.0008548127232
0.0008557426534
0.0008565847152
0.0008572462615
0.0008576290469
0.0008545762849
0.0008550617974
0.0008557465659
0.0008565729354
0.0008574733195
0.0008583714195
0.0008591838789
0.0008598215849
0.0008601902885
0.0008572391309
0.0008577074074
0.0008583674778
0.0008591634095
0.000860029801
0.0008608930776
0.0008616731782
0.0008622848473
0.000862638185
0.0008597987917
0.0008602482524
0.000860881376
0.0008616441244
0.0008624734926
0.0008632988826
0.0008640438198
0.0008646272291
0.0008649639078
0.0008622467998