/*--------------------------------*- C++ -*----------------------------------*\
| =========                 |                                                 |
| \\      /  F ield         | OpenFOAM: The Open Source CFD Toolbox           |
|  \\    /   O peration     | Version:  2212                                  |
|   \\  /    A nd           | Website:  www.openfoam.com                      |
|    \\/     M anipulation  |                                                 |
\*---------------------------------------------------------------------------*/
FoamFile
{
    version     2.0;
    format      ascii;
    arch        "LSB;label=32;scalar=64";
    class       volScalarField;
    location    "20.00000000";
    object      CO_0;
}
// * * * * * * * * * * * * * * * * * * * * * * * * * * * * * * * * * * * * * //

dimensions      [0 0 0 0 0 0 0];

internalField   nonuniform List<scalar> 
3000
(
1.362331046e-22
1.530279196e-22
1.783708096e-22
2.121419147e-22
2.539979374e-22
3.028025317e-22
3.556158037e-22
4.060101385e-22
4.416441173e-22
5.114400071e-22
5.768034457e-22
6.753921834e-22
8.070593059e-22
9.716738966e-22
1.168325408e-21
1.393603362e-21
1.636144699e-21
1.850998801e-21
1.145434094e-21
1.301952983e-21
1.540284904e-21
1.863876002e-21
2.278542297e-21
2.790301084e-21
3.39714145e-21
4.065006498e-21
4.635794522e-21
2.181291107e-21
2.505297126e-21
3.005891234e-21
3.699995081e-21
4.612184749e-21
5.76563139e-21
7.154037734e-21
8.666271616e-21
9.886824369e-21
3.87236219e-21
4.502082958e-21
5.490317694e-21
6.887221045e-21
8.758449512e-21
1.115641196e-20
1.404101977e-20
1.710427046e-20
1.945563275e-20
6.656724564e-21
7.838242108e-21
9.718996512e-21
1.241891519e-20
1.608191166e-20
2.080005835e-20
2.643236233e-20
3.226853027e-20
3.658609509e-20
1.129697239e-20
1.346661102e-20
1.696052127e-20
2.203285428e-20
2.896586476e-20
3.789720899e-20
4.845736706e-20
5.918630042e-20
6.692761998e-20
1.91121846e-20
2.303763367e-20
2.941534179e-20
3.874607153e-20
5.154998264e-20
6.801125612e-20
8.730398432e-20
1.066201155e-19
1.203253372e-19
3.238862103e-20
3.941642341e-20
5.090861417e-20
6.780752454e-20
9.103860592e-20
1.208252946e-19
1.554853097e-19
1.898275888e-19
2.139262588e-19
5.508756858e-20
6.757236002e-20
8.808201589e-20
1.183392385e-19
1.599610984e-19
2.131904462e-19
2.747880634e-19
3.353763614e-19
3.77578643e-19
9.407971323e-20
1.161325428e-19
1.524762078e-19
2.06202764e-19
2.801137333e-19
3.744285842e-19
4.831255438e-19
5.894992162e-19
6.632261237e-19
1.612886156e-19
2.000787253e-19
2.641465783e-19
3.589777965e-19
4.894093021e-19
6.55551093e-19
8.464542698e-19
1.032615197e-18
1.161212872e-18
2.774196348e-19
3.454418963e-19
4.579596252e-19
6.246318662e-19
8.537982595e-19
1.145282824e-18
1.47944858e-18
1.804495248e-18
2.028615595e-18
4.784408302e-19
5.974656513e-19
7.945509721e-19
1.086623543e-18
1.488045966e-18
1.997944448e-18
2.58125632e-18
3.147418224e-18
3.538303701e-18
8.268386121e-19
1.034795167e-18
1.379395589e-18
1.890229047e-18
2.591985649e-18
3.481922107e-18
4.496416494e-18
5.476028437e-18
6.163055346e-18
1.431127347e-18
1.794070204e-18
2.395875591e-18
3.288285662e-18
4.513913746e-18
6.06560536e-18
7.822587656e-18
9.45845154e-18
1.072594162e-17
2.479603882e-18
3.112407317e-18
4.162275797e-18
5.720029512e-18
7.861692409e-18
1.058265919e-17
1.370507235e-17
1.679514977e-17
1.878029093e-17
4.298817829e-18
5.400853812e-18
7.229748559e-18
9.943649869e-18
1.367376312e-17
1.840712536e-17
2.381458295e-17
2.905212567e-17
3.26220641e-17
7.455302433e-18
9.372606589e-18
1.255490546e-17
1.727689607e-17
2.37649075e-17
3.199191706e-17
4.137818572e-17
5.04548023e-17
5.667052018e-17
1.293235212e-17
1.626576654e-17
2.179889238e-17
3.000869827e-17
4.128667778e-17
5.558251446e-17
7.188547887e-17
8.764466003e-17
9.843833518e-17
2.243696846e-17
2.822998313e-17
3.784625305e-17
5.211391585e-17
7.171101418e-17
9.6546522e-17
1.248611891e-16
1.522240146e-16
1.709622129e-16
3.893274897e-17
4.899763189e-17
6.57055056e-17
9.049388459e-17
1.245372628e-16
1.676720924e-16
2.168376101e-16
2.643383698e-16
2.968606275e-16
6.756493513e-17
8.504891959e-17
1.140723739e-16
1.571294194e-16
2.162533956e-16
2.91150222e-16
3.764955418e-16
4.589278652e-16
5.153522986e-16
1.172654933e-16
1.476333258e-16
1.980414448e-16
2.72814354e-16
3.754689672e-16
5.054742434e-16
6.535680121e-16
7.965584223e-16
8.944042049e-16
2.035372626e-16
2.562758729e-16
3.43808741e-16
4.736273663e-16
6.518059579e-16
8.773784753e-16
1.134230382e-15
1.382123417e-15
1.551684661e-15
3.532791499e-16
4.448530843e-16
5.968178753e-16
8.221358049e-16
1.131276054e-15
1.522463117e-15
1.967654207e-15
2.397072733e-15
2.690643574e-15
6.131383934e-16
7.721076401e-16
1.035849831e-15
1.426758075e-15
1.962826316e-15
2.640749204e-15
3.411708359e-15
4.15479021e-15
4.662433193e-15
1.063947524e-15
1.339817172e-15
1.797352944e-15
2.475161182e-15
3.40405503e-15
4.577792179e-15
5.911346964e-15
7.195388017e-15
8.071750502e-15
1.845629095e-15
2.324120565e-15
3.117352292e-15
4.29170606e-15
5.899692484e-15
7.929346011e-15
1.023250443e-14
1.24472156e-14
1.395684101e-14
3.20005326e-15
4.029386055e-15
5.403423401e-15
7.435915938e-15
1.021579316e-14
1.371979422e-14
1.768961869e-14
2.150045675e-14
2.409375551e-14
5.544568508e-15
6.98053508e-15
9.357835224e-15
1.287054309e-14
1.766806781e-14
2.37046466e-14
3.052983641e-14
3.706742281e-14
4.150688625e-14
9.597708822e-15
1.208064799e-14
1.618729304e-14
2.224695209e-14
3.050811809e-14
4.087996291e-14
5.25770018e-14
6.375071082e-14
7.131839015e-14
1.659320702e-14
2.087875809e-14
2.795828405e-14
3.83867686e-14
5.257226508e-14
7.033360942e-14
9.030185659e-14
1.093133354e-13
1.221478648e-13
2.864261201e-14
3.602242606e-14
4.819540011e-14
6.608906096e-14
9.036284425e-14
1.206551293e-13
1.545833284e-13
1.867572178e-13
2.083941335e-13
4.934639755e-14
6.201793575e-14
8.288173652e-14
1.134722875e-13
1.548340594e-13
2.062476741e-13
2.635761736e-13
3.176861816e-13
3.539120878e-13
8.481769827e-14
1.064985221e-13
1.421184965e-13
1.941854805e-13
2.643122148e-13
3.510780469e-13
4.473259515e-13
5.376818842e-13
5.978651769e-13
1.453860248e-13
1.823243019e-13
2.428545317e-13
3.310163103e-13
4.492195399e-13
5.946888258e-13
7.551054299e-13
9.047900701e-13
1.003923717e-12
2.48412321e-13
3.110310232e-13
4.133338618e-13
5.617170726e-13
7.596283326e-13
1.001720082e-12
1.266930795e-12
1.512746766e-12
1.674539138e-12
4.229042856e-13
5.284444206e-13
7.00270658e-13
9.48308562e-13
1.277198019e-12
1.676802447e-12
2.111411213e-12
2.511333418e-12
2.772821131e-12
7.170202222e-13
8.937349366e-13
1.180303893e-12
1.591769077e-12
2.133810863e-12
2.787563619e-12
3.493073473e-12
4.137324762e-12
4.555670627e-12
1.210160485e-12
1.503877835e-12
1.978087592e-12
2.654958034e-12
3.540317031e-12
4.599740669e-12
5.733698495e-12
6.761006076e-12
7.423404698e-12
2.032266425e-12
2.516509657e-12
3.294547523e-12
4.397979849e-12
5.830356932e-12
7.530154738e-12
9.334166581e-12
1.095535793e-11
1.199332783e-11
3.394314426e-12
4.185675933e-12
5.450532354e-12
7.232127532e-12
9.526428394e-12
1.222578284e-11
1.50660534e-11
1.759797293e-11
1.92078035e-11
5.635993663e-12
6.917141103e-12
8.953513314e-12
1.180128199e-11
1.543845808e-11
1.968063071e-11
2.410605262e-11
2.801990556e-11
3.049169863e-11
9.299442128e-12
1.13530425e-11
1.459842338e-11
1.910349234e-11
2.480946499e-11
3.140695289e-11
3.823164037e-11
4.422140802e-11
4.798007247e-11
1.524202355e-11
1.850007175e-11
2.361856037e-11
3.067085053e-11
3.952894252e-11
4.968410378e-11
6.010381029e-11
6.918247709e-11
7.48452897e-11
2.480691293e-11
2.992154265e-11
3.790923584e-11
4.883328423e-11
6.244298153e-11
7.791764861e-11
9.367296681e-11
1.073071516e-10
1.157642061e-10
4.007834033e-11
4.802231784e-11
6.035625834e-11
7.710232514e-11
9.78017914e-11
1.211542799e-10
1.447582139e-10
1.65055667e-10
1.775818611e-10
6.425957897e-11
7.646753408e-11
9.531439444e-11
1.207253606e-10
1.519013503e-10
1.86815889e-10
2.218697466e-10
2.518394204e-10
2.702497626e-10
1.022273599e-10
1.207926782e-10
1.492990533e-10
1.874808672e-10
2.339980768e-10
2.857406068e-10
3.37370745e-10
3.812823342e-10
4.081465145e-10
1.613380466e-10
1.892856359e-10
2.319795435e-10
2.888127492e-10
3.576058582e-10
4.336520617e-10
5.091115612e-10
5.729908852e-10
6.11929364e-10
2.525910086e-10
2.942535116e-10
3.575972672e-10
4.414403886e-10
5.42326747e-10
6.53223741e-10
7.627188014e-10
8.550286855e-10
9.111205375e-10
3.922964639e-10
4.538320513e-10
5.469778975e-10
6.696256587e-10
8.16417372e-10
9.769666626e-10
1.13479176e-09
1.267368072e-09
1.347709968e-09
6.044108564e-10
6.945058097e-10
8.303358e-10
1.00834917e-09
1.22038895e-09
1.451271407e-09
1.677362037e-09
1.866690568e-09
1.981159405e-09
9.238724695e-10
1.054709409e-09
1.251256666e-09
1.507767853e-09
1.812016359e-09
2.142004754e-09
2.464057216e-09
2.733019439e-09
2.895317611e-09
1.401279482e-09
1.589855737e-09
1.872240857e-09
2.239415865e-09
2.67329799e-09
3.142273906e-09
3.598635319e-09
3.978889745e-09
4.20797095e-09
2.109428429e-09
2.37935141e-09
2.782419433e-09
3.304811043e-09
3.920091419e-09
4.583153298e-09
5.226757711e-09
5.761984801e-09
6.083997895e-09
3.152414814e-09
3.536343918e-09
4.108250771e-09
4.847358719e-09
5.715413031e-09
6.648465117e-09
7.552190828e-09
8.302512031e-09
8.75345039e-09
4.6782433e-09
5.221207306e-09
6.028292352e-09
7.068759639e-09
8.287739333e-09
9.595091903e-09
1.08590521e-08
1.190704962e-08
1.253636392e-08
6.896220845e-09
7.66011963e-09
8.793519041e-09
1.025154512e-08
1.195611138e-08
1.378081582e-08
1.554228518e-08
1.70012116e-08
1.78767484e-08
1.010082902e-08
1.117053504e-08
1.275514908e-08
1.478990548e-08
1.716445105e-08
1.970235954e-08
2.214930644e-08
2.417430729e-08
2.538908389e-08
1.470430971e-08
1.619592552e-08
1.84025629e-08
2.123167048e-08
2.452827551e-08
2.804717995e-08
3.143674668e-08
3.424025186e-08
3.592179793e-08
2.128086577e-08
2.335287679e-08
2.641467328e-08
3.033516018e-08
3.489796386e-08
3.976365961e-08
4.444744365e-08
4.832034915e-08
5.064365973e-08
3.062618113e-08
3.349447422e-08
3.772903132e-08
4.314565072e-08
4.944388174e-08
5.615564293e-08
6.261430534e-08
6.795518485e-08
7.116074628e-08
4.383689283e-08
4.779489399e-08
5.363400902e-08
6.109735967e-08
6.976995907e-08
7.900869933e-08
8.789925201e-08
9.525459108e-08
9.967344235e-08
6.24156696e-08
6.786118007e-08
7.589052976e-08
8.614806857e-08
9.806362137e-08
1.107568957e-07
1.229769212e-07
1.330961608e-07
1.391844586e-07
8.840860113e-08
9.58792579e-08
1.068909116e-07
1.209546099e-07
1.372910813e-07
1.546999191e-07
1.714737757e-07
1.853835921e-07
1.937695071e-07
1.245825695e-07
1.348021724e-07
1.49863263e-07
1.690982086e-07
1.914475659e-07
2.152806666e-07
2.382731276e-07
2.573755622e-07
2.689213325e-07
1.746509824e-07
1.885891291e-07
2.091302582e-07
2.353687287e-07
2.658716406e-07
2.984323513e-07
3.298947347e-07
3.560931577e-07
3.719745353e-07
2.435564285e-07
2.625038529e-07
2.904306454e-07
3.261157975e-07
3.676308728e-07
4.120012024e-07
4.549534584e-07
4.908085913e-07
5.126125615e-07
3.378180936e-07
3.634796495e-07
4.01310058e-07
4.496720691e-07
5.059821739e-07
5.662455228e-07
6.24694688e-07
6.736098551e-07
7.03449358e-07
4.659496715e-07
5.005558747e-07
5.515841359e-07
6.168491368e-07
6.929039655e-07
7.744041065e-07
8.535949805e-07
9.200255399e-07
9.606671292e-07
6.389495182e-07
6.853858354e-07
7.538712495e-07
8.414995996e-07
9.436888734e-07
1.053317176e-06
1.160005376e-06
1.24968232e-06
1.304679628e-06
8.708585312e-07
9.328091722e-07
1.024184173e-06
1.141129712e-06
1.277575488e-06
1.424071995e-06
1.566803398e-06
1.686956157e-06
1.760779188e-06
1.179372628e-06
1.261472616e-06
1.382560202e-06
1.537536574e-06
1.718386887e-06
1.912634524e-06
2.10200954e-06
2.261568945e-06
2.359717136e-06
1.58648617e-06
1.694472282e-06
1.853698385e-06
2.057433137e-06
2.295133573e-06
2.550419652e-06
2.799316816e-06
3.009076863e-06
3.13816306e-06
2.119131313e-06
2.259979583e-06
2.467562056e-06
2.733014981e-06
3.042530873e-06
3.374747161e-06
3.698479198e-06
3.971196444e-06
4.138990108e-06
2.809767619e-06
2.9918031e-06
3.259896605e-06
3.602416618e-06
4.001377283e-06
4.429130028e-06
4.845506815e-06
5.195917556e-06
5.411334067e-06
3.696868348e-06
3.929832207e-06
4.272607983e-06
4.710003505e-06
5.21874213e-06
5.763347326e-06
6.29262555e-06
6.737366947e-06
7.010402839e-06
4.825246433e-06
5.120306572e-06
5.553948327e-06
6.106449929e-06
6.747918099e-06
7.433263819e-06
8.097969488e-06
8.655401595e-06
8.997006935e-06
6.246165626e-06
6.615859998e-06
7.158461812e-06
7.848562432e-06
8.648106414e-06
9.500372957e-06
1.03249984e-05
1.101492226e-05
1.143681693e-05
8.017191201e-06
8.475297288e-06
9.146655685e-06
9.998820732e-06
1.098381856e-05
1.203106477e-05
1.304164043e-05
1.388492605e-05
1.439936615e-05
1.020174889e-05
1.076307681e-05
1.158437989e-05
1.262463878e-05
1.382400659e-05
1.509562736e-05
1.631919037e-05
1.73373297e-05
1.795683534e-05
1.286838039e-05
1.354850233e-05
1.454192369e-05
1.579734751e-05
1.724093503e-05
1.876702109e-05
2.02310045e-05
2.144561192e-05
2.218267044e-05
1.608971348e-05
1.690462949e-05
1.809284476e-05
1.959094082e-05
2.130884521e-05
2.311947429e-05
2.485104799e-05
2.628333404e-05
2.715009385e-05
1.994116807e-05
2.090693236e-05
2.23125823e-05
2.408063328e-05
2.610246592e-05
2.822696198e-05
3.02523593e-05
3.192260446e-05
3.293057498e-05
2.449945985e-05
2.563178376e-05
2.72769113e-05
2.934129326e-05
3.169543718e-05
3.416163539e-05
3.650549895e-05
3.843255312e-05
3.959232507e-05
2.984096578e-05
3.115481828e-05
3.306030837e-05
3.544582242e-05
3.815871756e-05
4.099227094e-05
4.36770487e-05
4.587787916e-05
4.719887695e-05
3.604002802e-05
3.754925389e-05
3.973430412e-05
4.246355418e-05
4.555904425e-05
4.878280339e-05
5.182822084e-05
5.431752667e-05
5.580780252e-05
4.316727488e-05
4.488424878e-05
4.736589538e-05
5.045874017e-05
5.395750904e-05
5.75909999e-05
6.1013628e-05
6.380353406e-05
6.546960967e-05
5.128803389e-05
5.322336522e-05
5.601608418e-05
5.948918501e-05
6.340830354e-05
6.746732074e-05
7.128025219e-05
7.438009006e-05
7.622684887e-05
6.046090287e-05
6.262320223e-05
6.573859953e-05
6.960507857e-05
7.395767467e-05
7.845399979e-05
8.266663921e-05
8.608281716e-05
8.811344744e-05
7.073653218e-05
7.313224609e-05
7.657884476e-05
8.084806081e-05
8.564311766e-05
9.058436468e-05
9.520233195e-05
9.893829139e-05
0.0001011542776
8.215665643e-05
8.478997224e-05
8.857309804e-05
9.325054013e-05
9.849282057e-05
0.0001038824036
0.000108907544
0.0001129637962
0.0001153649544
9.475339762e-05
9.762621705e-05
0.0001017479793
0.0001068352723
0.000112525361
0.0001183625747
0.0001237930652
0.0001281672988
0.0001307518503
0.0001085488468
0.0001116608229
0.0001161201826
0.0001216151942
0.0001277496451
0.0001340298433
0.0001398603818
0.0001445476301
0.0001473123066
0.0001235549168
0.0001269035474
0.0001316964617
0.000137593497
0.0001441650699
0.000150879926
0.0001571019878
0.0001620948435
0.0001650350173
0.0001397734491
0.0001433542163
0.0001484738462
0.0001547639138
0.0001617618819
0.0001688997142
0.0001755018595
0.0001807907249
0.0001839005564
0.0001571965449
0.0001610030929
0.0001664400603
0.0001731111924
0.0001805217038
0.000188067846
0.0001950360639
0.0002006094244
0.000203882021
0.0001758070911
0.0001798314298
0.0001855741093
0.0001926117205
0.0002004181944
0.0002083553962
0.0002156734686
0.0002215181787
0.0002249457589
0.000195579441
0.0001998121674
0.0002058470001
0.0002132342673
0.0002214178099
0.000229726651
0.000237376525
0.0002434780971
0.0002470521547
0.0002164802151
0.0002209107425
0.0002272225591
0.0002349408104
0.0002434806347
0.0002521399387
0.0002601020956
0.000266444983
0.000270156447
0.0002384691836
0.0002430859721
0.0002496583147
0.0002576874131
0.0002665612512
0.0002755484891
0.0002838022997
0.0002903701686
0.0002942095552
0.0002615001984
0.000266290978
0.0002731064121
0.0002814251261
0.0002906096237
0.0002999012961
0.0003084253564
0.0003152013399
0.0003191588943
0.0002855221418
0.0002904741253
0.0002975145351
0.0003061008864
0.0003155719715
0.000325143965
0.0003339164058
0.0003408833374
0.0003449491632
0.0003104798683
0.0003155799484
0.0003228268091
0.0003316583935
0.0003413916142
0.0003512195247
0.0003602182925
0.0003673589162
0.0003715230921
0.0003363151155
0.0003415500439
0.0003489846692
0.0003580389457
0.0003680097732
0.0003780691952
0.0003872723008
0.0003945694571
0.0003988221385
0.0003629673678
0.0003683239147
0.0003759276759
0.0003851822219
0.0003953663172
0.0004056330969
0.0004150188326
0.0004224556196
0.0004267871268
0.0003903746601
0.0003958397533
0.0004035942698
0.0004130270026
0.000423400446
0.0004338508982
0.0004433980221
0.0004509579317
0.000455358825
0.0004184743118
0.0004240351551
0.0004319224565
0.0004415118204
0.0004520513053
0.0004626623947
0.0004723502852
0.0004800173164
0.000484478457
0.0004472035859
0.0004528477579
0.0004608504186
0.0004705755396
0.000481258531
0.0004920080206
0.0005018168011
0.0005095755513
0.0005140881508
0.0004765002711
0.0004822158052
0.0004903170526
0.0005001578622
0.0005109627236
0.0005218292922
0.0005317399288
0.0005395756645
0.0005441313231
0.0005063031855
0.0005120786324
0.0005202624313
0.0005301997628
0.0005411058532
0.0005520691837
0.0005620635587
0.0005699622684
0.0005745530028
0.0005365526061
0.0005423770803
0.0005506281957
0.0005606438542
0.000571631598
0.0005826724413
0.0005927334048
0.0006006818351
0.0006053000977
0.0005671906247
0.0005730538373
0.0005813578772
0.0005914346875
0.0006024856213
0.000613585837
0.0006236972393
0.0006316829169
0.0006363216068
0.0005981614374
0.0006040537161
0.0006123971577
0.0006225189921
0.0006336157909
0.0006447583689
0.0006549050756
0.0006629163173
0.0006675687849
0.0006294115714
0.0006353238698
0.0006436940709
0.00065384586
0.0006649723455
0.0006761414107
0.0006863093046
0.0006943352161
0.0006989952616
0.0006608900551
0.0006668139533
0.0006751991513
0.0006853668806
0.0006965080144
0.0007076888177
0.0007178647882
0.0007258952545
0.000730557122
0.0006925485384
0.0006984762353
0.0007068655356
0.0007170362302
0.0007281780953
0.0007393569929
0.0007495289156
0.0007575545844
0.0007622129518
0.0007243413676
0.0007302656676
0.000738649024
0.0007488107233
0.0007599404954
0.0007711049185
0.0007812616274
0.0007892738864
0.0007939238524
0.0007562256219
0.0007621399164
0.0007705081046
0.0007806498295
0.0007917557403
0.0008028941585
0.0008130254116
0.0008210163616
0.0008256534301
0.0007881611165
0.000794059362
0.0008024039478
0.0008125156622
0.0008235869568
0.0008346888349
0.0008447852756
0.0008527477002
0.0008573677628
0.0008201103779
0.0008259870706
0.0008343003744
0.0008443729424
0.0008553998327
0.0008664555841
0.0008765086989
0.0008844360318
0.0008890353493
0.0008520385952
0.000857888744
0.000866163803
0.0008761889427
0.0008871625574
0.0008981634947
0.0009081655692
0.0009160518597
0.0009206270428
0.0008839135525
0.000889732651
0.0008979631791
0.0009079334152
0.0009188457481
0.0009297840323
0.0009397281057
0.000947567984
0.000952115973
0.0009157055464
0.0009214895436
0.0009296698913
0.0009395785061
0.0009504223642
0.000961290953
0.0009711707722
0.0009789594137
0.0009834774589
0.0009473872914
0.000953132563
0.0009612576762
0.0009710986616
0.0009818676123
0.0009926602089
0.001002470183
0.001010203273
0.001014688915
0.0009789338168
0.0009846371361
0.0009927025161
0.001002470525
0.001013158845
0.001023869847
0.001033605002
0.001041278703
0.001045729751
0.001010322357
0.001015980867
0.001023982531
0.001033672831
0.001044275455
0.001054899906
0.001064555841
0.001072166756
0.001076581274
0.001041532238
0.001047143424
0.001055077867
0.001064686294
0.001075198767
0.001085732309
0.001095305154
0.001102850297
0.00110722658
0.001072544764
0.001078106427
0.001085970585
0.0010954935
0.00110591193
0.001116350756
0.001125837133
0.001133313894
0.001137650453
0.001103343099
0.00110885333
0.001116644545
0.001126078792
0.001136399806
0.001146740617
0.001156137599
0.001163543721
0.001167839265
0.001133912153
0.001139369311
0.001147085297
0.001156428166
0.001166648865
0.001176888831
0.001186193906
0.001193527449
0.001197780872
0.00116423847
0.001169641158
0.001177279972
0.001186529155
0.00119664708
0.001206783795
0.001215994834
0.001223254154
0.001227464515
0.001194310119
0.001199657162
0.001207217171
0.001216370736
0.001226383822
0.001236415276
0.001245530494
0.001252714217
0.001256880731
0.001224116585
0.001229407013
0.001236886867
0.001245943218
0.001255849766
0.001265774302
0.001274792235
0.001281899232
0.001286021253
0.001253648668
0.001258881695
0.001266280305
0.001275238153
0.001285036794
0.001294853081
0.001303772554
0.001310801919
0.00131487893
0.001282898387
0.001288073395
0.001295389903
0.001304248239
0.001313937904
0.001323644907
0.001332465006
0.001339416037
0.001343447638
0.001311858884
0.001316975405
0.001324209168
0.001332967236
0.001342547127
0.001352144076
0.001360864127
0.001367736308
0.001371722203
0.001340524336
0.00134558204
0.001352732605
0.001361389878
0.001370859443
0.001380345809
0.001388965354
0.001395758335
0.001399698324
0.001368889873
0.001373888555
0.00138095564
0.001389511795
0.001398870704
0.001408246178
0.001416764951
0.001423478534
0.001427372504
0.001396951499
0.001401891062
0.001408874542
0.001417329443
0.001426577564
0.001435842032
0.001444259944
0.001450894066
0.001454741983
0.001424706017
0.001429586464
0.001436486353
0.001444840028
0.001453977408
0.001463130932
0.001471448052
0.001478002772
0.001481804671
0.001452150959
0.001456972384
0.001463788819
0.001472041446
0.001481068291
0.001490111092
0.001498327628
0.001504803116
0.001508559096
0.001479284526
0.0014840471
0.001490780329
0.001498932218
0.001507848879
0.001516781317
0.001524897604
0.001531294127
0.001535004343
0.001506105522
0.001510809487
0.001517459858
0.001525511437
0.00153431839
0.001543140951
0.001551157437
0.001557475349
0.001561140006
0.0015326133
0.001537258962
0.001543826909
0.001551778711
0.001560476546
0.001569189827
0.001577107059
0.001583346794
0.001586966142
0.001558807715
0.001563395432
0.001569881469
0.001577734118
0.001586323525
0.001594928221
0.001602746834
0.001608908894
0.001612483222
0.001584689066
0.001589219248
0.001595623954
0.001603378157
0.001611859913
0.001620356807
0.001628077515
0.001634162461
0.001637692095
0.001610258062
0.001614731159
0.001621055175
0.00162871171
0.001637086669
0.00164547662
0.001653100204
0.001659108653
0.001662593947
0.001635515773
0.001639932274
0.001646176291
0.001653735998
0.001662005082
0.001670289016
0.001677816318
0.001683748931
0.001687190269
0.001660463596
0.001664824022
0.001670988777
0.001678452551
0.001686616741
0.00169479564
0.001702227554
0.001708085034
0.001711482821
0.00168510322
0.001689408119
0.00169549439
0.001702863171
0.001710923496
0.001718998395
0.001726335858
0.001732118943
0.001735473606
0.001709436595
0.001713686539
0.001719695134
0.001726969904
0.001734927438
0.00174289941
0.001750143399
0.001755852858
0.001759164841
0.0017334659
0.001737661482
0.001743593238
0.001750775011
0.001758630864
0.001766501022
0.001773652545
0.001779289171
0.001782558932
0.001757193518
0.001761335346
0.001767191125
0.001774280944
0.001782036255
0.00178980574
0.001796865835
0.001802430441
0.001805658452
0.00178062201
0.001784710707
0.00179049139
0.001797490319
0.001805146255
0.001812816234
0.001819785958
0.001825279378
0.001828466119
0.001803754093
0.001807790293
0.001813496776
0.001820405901
0.001827963647
0.001835535306
0.001842415736
0.001847838817
0.001850984778
0.001826592622
0.001830576967
0.001836210158
0.001843030579
0.001850491337
0.001857965879
0.001864758106
0.001870111705
0.001873217382
0.001849140565
0.001853073707
0.001858634523
0.001865367351
0.001872732335
0.001880110974
0.001886816099
0.001892101083
0.001895166976
0.001871400994
0.001875283586
0.001880772953
0.001887419305
0.001894689738
0.001901973697
0.00190859283
0.001913810071
0.001916836685
0.001893377064
0.001897209763
0.00190262861
0.00190918961
0.001916366718
0.001923557226
0.001930091481
0.001935241855
0.001938229697
0.001915071999
0.001918855464
0.001924204721
0.001930681496
0.00193776651
0.001944864796
0.001951315289
0.001956399674
0.001959349253
0.001936489082
0.001940223971
0.00194550457
0.001951898244
0.001958892394
0.00196589969
0.001972267537
0.00197728681
0.001980198632
0.001957631639
0.00196131861
0.001966531479
0.001972843177
0.00197974769
0.001986665223
0.001992951538
0.001997906575
0.002000781149
0.001978503032
0.001982142741
0.001987288805
0.001993519647
0.002000335746
0.002007164739
0.002013370631
0.002018262305
0.002021100134
0.001999106647
0.002002699745
0.002007779926
0.002013931024
0.002020659925
0.002027401595
0.002033528167
0.002038357346
0.002041158933
0.002019445885
0.00202299302
0.002028008231
0.002034080691
0.002040723602
0.002047379157
0.002053427504
0.00205819505
0.002060960894
0.002039524153
0.002043025966
0.002047977115
0.002053972032
0.002060530151
0.002067100787
0.002073071996
0.002077778762
0.002080509357
0.002059344854
0.002062801982
0.002067689964
0.002073608425
0.002080082936
0.002086569839
0.002092464984
0.002097111816
0.002099807651
0.002078911383
0.002082324452
0.002087150156
0.002092993233
0.002099385307
0.002105789647
0.00211160979
0.002116197522
0.00211885908
0.002098227113
0.002101596743
0.002106361045
0.002112129795
0.002118440587
0.002124763518
0.002130509706
0.00213503916
0.002137666918
0.002117295389
0.002120622191
0.002125325951
0.002131021416
0.002137252062
0.002143494721
0.002149167981
0.002153639966
0.002156234391
0.002136119519
0.002139404092
0.002144048156
0.002149671358
0.002155822973
0.002161986472
0.002167587813
0.002172003122
0.002174564672
0.002154702759
0.002157945691
0.002162530888
0.002168082826
0.0021741565
0.002180241928
0.002185772335
0.00219013174
0.002192660861
0.002173048305
0.002176250167
0.002180777303
0.002186258952
0.002192255747
0.00219826416
0.00220372459
0.002208028842
0.002210525969
0.002191159269
0.002194320617
0.002198790475
0.002204202778
0.00221012372
0.002216056142
0.002221447518
0.002225697341
0.00222816289
0.002209038665
0.002212160034
0.002216573367
0.002221917231
0.002227763305
0.002233620716
0.002238943921
0.002243140005
0.002245574374
0.00222668938
0.002229771278
0.002234128804
0.002239405092
0.002245177234
0.002250960562
0.00225621643
0.002260359424
0.002262762987
0.002244114137
0.002247157047
0.002251459441
0.00225666896
0.002262368043
0.002268078151
0.002273267455
0.002277357961
0.002279731063
0.002261315463
0.002264319827
0.002268567708
0.0022737112
0.002279338022
0.002284975693
0.002290099131
0.002294137688
0.002296480634
0.002278295621
0.002281261837
0.002285455759
0.002290533882
0.002296089145
0.002301655064
0.002306713239
0.002310700307
0.002313013359
0.002295056554
0.002297984961
0.002302125395
0.002307138702
0.002312622989
0.002318117714
0.002323111111
0.002327047055
0.002329330414
0.002311599794
0.002314490659
0.002318577971
0.002323526883
0.002328940627
0.002334364562
0.002339293516
0.002343178578
0.002345432373
0.002327926355
0.002330779857
0.002334814281
0.002339699056
0.002345042503
0.002350395854
0.002355260516
0.002359094784
0.002361319052
0.002344036611
0.002346852813
0.00235083442
0.00235565511
0.002360928272
0.002366211001
0.002371011288
0.002374794662
0.002376989326
0.002359930133
0.002362708962
0.002366637619
0.002371394021
0.002376596621
0.002381808386
0.002386543928
0.002390276069
0.002392440911
0.002375605517
0.002378346722
0.002382222047
0.002386913645
0.002392045047
0.002397185134
0.002401855205
0.002405535487
0.002407670113
0.002391060163
0.002393763286
0.002397584588
0.002402210482
0.002407269616
0.002412336853
0.002416940299
0.00242056774
0.002422671546
0.002406290043
0.002408954368
0.002412720588
0.002417279414
0.002422264682
0.002427257353
0.0024317925
0.002435365695
0.002437437823
0.002421289435
0.00242391394
0.002427623576
0.002432113419
0.002437022599
0.002441938333
0.002446402892
0.002449919934
0.002451959227
0.002436050639
0.002438633943
0.00244228497
0.002446703265
0.002451533401
0.002456369066
0.002460760029
0.002464218425
0.002466223374
0.002450563682
0.002453103985
0.002456693777
0.00246103721
0.002465784497
0.002470536082
0.002474849616
0.0024782462
0.002480214895
0.002464816033
0.002467311057
0.0024708363
0.002475100703
0.002479760376
0.002484422879
0.002488654219
0.002491985069
0.002493915152
0.002478792323
0.002481239259
0.002484695872
0.002488876128
0.002493442358
0.002498009678
0.002502153034
0.002505413398
0.002507302014
0.002492474125
0.002494869578
0.002498252644
0.002502342604
0.002506808407
0.002511273258
0.002515321737
0.002518505973
0.002520349744
0.002505839784
0.00250817974
0.002511483452
0.002515475874
0.002519833049
0.002524186905
0.002528132463
0.002531234006
0.002533029007
0.002518864356
0.002521144158
0.002524361795
0.002528248316
0.002532487423
0.002536720501
0.00254055394
0.002543565304
0.00254530707
0.002531519661
0.002533734014
0.00253685795
0.00254062911
0.002544739501
0.002548840802
0.002552551817
0.00255546464
0.002557148196
0.002543774507
0.002545917512
0.00254893927
0.002552584584
0.002556554502
0.002560511927
0.002564089222
0.002566894371
0.002568514299
0.002555595088
0.002557660315
0.002560570678
0.002564078784
0.002567895536
0.002571696078
0.002575127563
0.002577815301
0.002579365843
0.002566945602
0.002568926205
0.002571715385
0.002575074264
0.002578724486
0.002582354521
0.002585627593
0.002588187818
0.002589663024
0.002577789084
0.00257967796
0.002582335842
0.002585533125
0.002589003135
0.002592448798
0.002595550714
0.002597973272
0.002599367189
0.002588088464
0.002589878465
0.002592394905
0.00259541826
0.002598694511
0.002601942172
0.002604860503
0.002607135565
0.002608442474
0.002597807823
0.002599492006
0.002601857205
0.002604694801
0.002607764405
0.002610801228
0.00261352439
0.002615642892
0.002616857564
0.002606913821
0.002608485739
0.002610690662
0.00261333169
0.002616183014
0.00261899757
0.002621515403
0.002623469516
0.002624587501
0.002615377226
0.002616831244
0.002618868066
0.002621303301
0.00262392659
0.0026265095
0.002628813868
0.002630597484
0.002631615394
0.002623174469
0.002624506084
0.002626368655
0.002628591013
0.002630979009
0.002633323568
0.002635408932
0.00263701812
0.002637933902
0.002630289126
0.002631495273
0.002633179547
0.002635184607