/*--------------------------------*- C++ -*----------------------------------*\
| =========                 |                                                 |
| \\      /  F ield         | OpenFOAM: The Open Source CFD Toolbox           |
|  \\    /   O peration     | Version:  2212                                  |
|   \\  /    A nd           | Website:  www.openfoam.com                      |
|    \\/     M anipulation  |                                                 |
\*---------------------------------------------------------------------------*/
FoamFile
{
    version     2.0;
    format      ascii;
    arch        "LSB;label=32;scalar=64";
    class       volScalarField;
    location    "20.00000000";
    object      H2_0;
}
// * * * * * * * * * * * * * * * * * * * * * * * * * * * * * * * * * * * * * //

dimensions      [0 0 0 0 0 0 0];

internalField   nonuniform List<scalar> 
3000
(
1.837176774e-22
2.063691373e-22
2.40549156e-22
2.860957024e-22
3.425453946e-22
4.083653776e-22
4.795906359e-22
5.475527895e-22
5.95608339e-22
6.897051482e-22
7.778601434e-22
9.108240893e-22
1.088397199e-21
1.31040123e-21
1.575606825e-21
1.879413889e-21
2.206498543e-21
2.496242469e-21
1.544676889e-21
1.755763498e-21
2.077181174e-21
2.513572695e-21
3.072776587e-21
3.762903395e-21
4.581238773e-21
5.481856036e-21
6.251555784e-21
2.941545757e-21
3.3784828e-21
4.053545251e-21
4.989540057e-21
6.219594648e-21
7.774942102e-21
9.647081557e-21
1.168615703e-20
1.333190329e-20
5.221859052e-21
6.070989917e-21
7.403521364e-21
9.28705058e-21
1.181007052e-20
1.504320893e-20
1.893238371e-20
2.306231268e-20
2.623237138e-20
8.976084233e-21
1.056908115e-20
1.310476479e-20
1.674474563e-20
2.168295025e-20
2.804340255e-20
3.563594065e-20
4.350301436e-20
4.932279082e-20
1.523186482e-20
1.815665405e-20
2.286646209e-20
2.970368353e-20
3.904853069e-20
5.108627077e-20
6.531861185e-20
7.977767457e-20
9.020979372e-20
2.576625201e-20
3.105688116e-20
3.965217019e-20
5.222646931e-20
6.948008713e-20
9.166047069e-20
1.17654109e-19
1.436773311e-19
1.621397827e-19
4.365820605e-20
5.312749222e-20
6.861095202e-20
9.13767741e-20
1.226699194e-19
1.627894132e-19
2.094677342e-19
2.557131908e-19
2.881606687e-19
7.424026394e-20
9.10560715e-20
1.186775603e-19
1.594211098e-19
2.154596663e-19
2.871153865e-19
3.700239318e-19
4.51562424e-19
5.083490001e-19
1.267577103e-19
1.564468926e-19
2.053680351e-19
2.776744501e-19
3.771259428e-19
5.040073747e-19
6.502106626e-19
7.932664326e-19
8.924029695e-19
2.172514272e-19
2.694471757e-19
3.556402794e-19
4.831921622e-19
6.58587476e-19
8.819555009e-19
1.138568704e-18
1.388776485e-18
1.561598006e-18
3.735808814e-19
4.650727512e-19
6.163818982e-19
8.40463649e-19
1.148494314e-18
1.540216215e-18
1.989261288e-18
2.426061797e-18
2.727163126e-18
6.441692804e-19
8.042316488e-19
1.069220891e-18
1.461844758e-18
2.001369881e-18
2.686678155e-18
3.470954675e-18
4.232663856e-18
4.757366218e-18
1.113200516e-18
1.392895414e-18
1.856315725e-18
2.543206876e-18
3.486843971e-18
4.684296964e-18
6.052742866e-18
7.380462938e-18
8.295692796e-18
1.926931091e-18
2.415277848e-18
3.224993188e-18
4.425749672e-18
6.075486148e-18
8.168231358e-18
1.055804459e-17
1.287497376e-17
1.447212463e-17
3.339128477e-18
4.190997889e-18
5.604361688e-18
7.701551337e-18
1.058470113e-17
1.424505632e-17
1.842867076e-17
2.248172896e-17
2.52594604e-17
5.789701343e-18
7.273779425e-18
9.736827537e-18
1.339202312e-17
1.841617442e-17
2.479092854e-17
3.206921672e-17
3.911126117e-17
4.393525682e-17
1.00416288e-17
1.262405114e-17
1.691044256e-17
2.327099503e-17
3.201074724e-17
4.309315765e-17
5.573651181e-17
6.796201446e-17
7.633693723e-17
1.741906507e-17
2.190903506e-17
2.936201352e-17
4.042054405e-17
5.561198776e-17
7.486842793e-17
9.68280787e-17
1.180547657e-16
1.325931677e-16
3.022086153e-17
3.802367051e-17
5.097616068e-17
7.019373681e-17
9.658954816e-17
1.300407635e-16
1.681775765e-16
2.050318249e-16
2.302695009e-16
5.243840551e-17
6.599475041e-17
8.849845097e-17
1.218855648e-16
1.67737805e-16
2.25834661e-16
2.920535261e-16
3.560297597e-16
3.998320293e-16
9.100154581e-17
1.145501568e-16
1.536408142e-16
2.116326227e-16
2.912640201e-16
3.921387476e-16
5.07085618e-16
6.181088459e-16
6.941034626e-16
1.579403282e-16
1.988413246e-16
2.667335435e-16
3.674413283e-16
5.05701293e-16
6.807981034e-16
8.802570403e-16
1.072842407e-15
1.204625084e-15
2.741347305e-16
3.451655258e-16
4.630587622e-16
6.379042486e-16
8.778829177e-16
1.181693616e-15
1.527632606e-15
1.86150535e-15
2.08987754e-15
4.758133996e-16
5.991491788e-16
8.038219577e-16
1.107289853e-15
1.52365317e-15
2.050520566e-15
2.650122839e-15
3.228481941e-15
3.623875623e-15
8.258028313e-16
1.039909438e-15
1.395128719e-15
1.921620655e-15
2.643620243e-15
3.5566757e-15
4.595036364e-15
5.595850698e-15
6.279565933e-15
1.432971691e-15
1.804524713e-15
2.420753422e-15
3.333654483e-15
4.584728357e-15
6.165567638e-15
7.961656145e-15
9.691057455e-15
1.087137987e-14
2.485773546e-15
3.130226251e-15
4.198584551e-15
5.780254271e-15
7.945958948e-15
1.067958287e-14
1.378157485e-14
1.676444229e-14
1.879767017e-14
4.309969178e-15
5.426949862e-15
7.277561817e-15
1.001500925e-14
1.37590662e-14
1.847840394e-14
2.382513247e-14
2.895773128e-14
3.245049633e-14
7.467660638e-15
9.401681308e-15
1.260352997e-14
1.733459395e-14
2.379610378e-14
3.192642422e-14
4.111887941e-14
4.992397804e-14
5.59032356e-14
1.292659829e-14
1.627072557e-14
2.180172853e-14
2.996313334e-14
4.108962083e-14
5.505885989e-14
7.081292636e-14
8.586214997e-14
9.605462022e-14
2.234842126e-14
2.812038121e-14
3.765538397e-14
5.170090521e-14
7.080652858e-14
9.47282549e-14
1.216223313e-13
1.47227792e-13
1.645138768e-13
3.857704121e-14
4.851648172e-14
6.491155037e-14
8.901147989e-14
1.217044269e-13
1.625033463e-13
2.081992694e-13
2.515324156e-13
2.806739229e-13
6.64616975e-14
8.352824624e-14
1.116284739e-13
1.528290951e-13
2.085368496e-13
2.777828524e-13
3.549952767e-13
4.278729066e-13
4.766634784e-13
1.142357375e-13
1.434363486e-13
1.914107804e-13
2.615367293e-13
3.559863118e-13
4.72846144e-13
6.024768504e-13
7.241720187e-13
8.052294117e-13
1.958111714e-13
2.455611043e-13
3.27085637e-13
4.458254873e-13
6.05026442e-13
8.00950514e-13
1.017006328e-12
1.218607933e-12
1.352125339e-12
3.345699014e-13
4.189071631e-13
5.566926056e-13
7.565410086e-13
1.023095933e-12
1.34915515e-12
1.706352159e-12
2.037427659e-12
2.255336623e-12
5.69579289e-13
7.117245668e-13
9.43146558e-13
1.277213605e-12
1.720175145e-12
2.258379047e-12
2.843728845e-12
3.382361726e-12
3.734545085e-12
9.656972646e-13
1.203702509e-12
1.589663603e-12
2.143840222e-12
2.873883601e-12
3.75438538e-12
4.704597438e-12
5.572304955e-12
6.135753056e-12
1.629854041e-12
2.025440951e-12
2.664121539e-12
3.575754334e-12
4.768190368e-12
6.195067825e-12
7.722335561e-12
9.105965068e-12
9.998118227e-12
2.737035792e-12
3.389224913e-12
4.437106445e-12
5.92324401e-12
7.852424087e-12
1.014178808e-11
1.257152389e-11
1.47550366e-11
1.615303733e-11
4.571332991e-12
5.637146765e-12
7.340677359e-12
9.740176956e-12
1.283022604e-11
1.646584578e-11
2.029128828e-11
2.370144888e-11
2.586968798e-11
7.590100101e-12
9.315540637e-12
1.205813534e-11
1.589356312e-11
2.079223952e-11
2.65058209e-11
3.246628828e-11
3.773779824e-11
4.106704621e-11
1.252313418e-11
1.528885503e-11
1.965968211e-11
2.572713761e-11
3.341212569e-11
4.229801857e-11
5.149010557e-11
5.955779676e-11
6.462045568e-11
2.052425387e-11
2.491195439e-11
3.18052944e-11
4.13032303e-11
5.323355385e-11
6.691124772e-11
8.094570316e-11
9.317424868e-11
1.008019623e-10
3.340032015e-11
4.02880172e-11
5.10450892e-11
6.575714135e-11
8.408695442e-11
1.049295866e-10
1.261512909e-10
1.445167631e-10
1.559089504e-10
5.395333876e-11
6.465049124e-11
8.125979127e-11
1.038119376e-10
1.316901229e-10
1.631438176e-10
1.949386436e-10
2.222815261e-10
2.391565907e-10
8.648580984e-11
1.029230328e-10
1.283007877e-10
1.625202828e-10
2.045076111e-10
2.515353896e-10
2.987563743e-10
3.391328306e-10
3.639381287e-10
1.375392398e-10
1.625323763e-10
2.009121535e-10
2.523252249e-10
3.149719722e-10
3.846679612e-10
4.542249129e-10
5.133930478e-10
5.495955355e-10
2.169623734e-10
2.545774238e-10
3.120478242e-10
3.885657326e-10
4.812073125e-10
5.836428273e-10
6.85315189e-10
7.71406261e-10
8.238947242e-10
3.394413709e-10
3.954958481e-10
4.807382847e-10
5.935978868e-10
7.294446589e-10
8.788279228e-10
1.026381762e-09
1.150824795e-09
1.226466172e-09
5.266713897e-10
6.094201292e-10
7.347112862e-10
8.99749664e-10
1.097371971e-09
1.313635805e-09
1.526356897e-09
1.705151977e-09
1.81355749e-09
8.103541125e-10
9.314108504e-10
1.113989722e-09
1.3533985e-09
1.638761841e-09
1.949730641e-09
2.254512299e-09
2.509964942e-09
2.664537795e-09
1.236406441e-09
1.411996445e-09
1.675906728e-09
2.0205795e-09
2.429772538e-09
2.874073913e-09
3.308232283e-09
3.671298934e-09
3.890657893e-09
1.870733358e-09
2.123365375e-09
2.501914902e-09
2.99458286e-09
3.577455536e-09
4.208396972e-09
4.823409934e-09
5.336803939e-09
5.646661057e-09
2.807083855e-09
3.167766717e-09
3.706784152e-09
4.406159648e-09
5.23111647e-09
6.121769363e-09
6.988145277e-09
7.710340571e-09
8.145891136e-09
4.177646625e-09
4.688800826e-09
5.450904947e-09
6.437096179e-09
7.597330258e-09
8.847095799e-09
1.006060023e-08
1.107089128e-08
1.167980071e-08
6.167200066e-09
6.886440803e-09
7.956572314e-09
9.338069979e-09
1.095956136e-08
1.270253901e-08
1.439209035e-08
1.579701757e-08
1.664325796e-08
9.031786538e-09
1.00367706e-08
1.152925429e-08
1.345180825e-08
1.570343619e-08
1.811898367e-08
2.045668105e-08
2.239834273e-08
2.356727687e-08
1.312297773e-08
1.45175016e-08
1.658489858e-08
1.924260406e-08
2.234876765e-08
2.567476379e-08
2.888866087e-08
3.155543833e-08
3.316038278e-08
1.891878029e-08
2.084030499e-08
2.368432211e-08
2.733330109e-08
3.158959863e-08
3.613909679e-08
4.052932301e-08
4.416928731e-08
4.635956996e-08
2.706217149e-08
2.969100442e-08
3.357585773e-08
3.855114037e-08
4.43438674e-08
5.052580762e-08
5.648436067e-08
6.142143835e-08
6.439199605e-08
3.840850145e-08
4.197903941e-08
4.724790133e-08
5.398426401e-08
6.181435743e-08
7.015862133e-08
7.819291288e-08
8.484592681e-08
8.884855468e-08
5.408371109e-08
5.889822594e-08
6.599331744e-08
7.505048133e-08
8.556202024e-08
9.674882447e-08
1.075090801e-07
1.164138163e-07
1.21770156e-07
7.555545417e-08
8.20005726e-08
9.148692608e-08
1.035789735e-07
1.175921013e-07
1.324857501e-07
1.46796364e-07
1.586307269e-07
1.657470036e-07
1.047178389e-07
1.132834884e-07
1.258760833e-07
1.419048632e-07
1.604530323e-07
1.801399939e-07
1.990347626e-07
2.146469088e-07
2.240303407e-07
1.439891095e-07
1.552896918e-07
1.71883711e-07
1.929759941e-07
2.173472873e-07
2.431782544e-07
2.679391025e-07
2.88378217e-07
3.006548913e-07
1.964210478e-07
2.112185673e-07
2.329223868e-07
2.604702541e-07
2.922520697e-07
3.25887193e-07
3.58085589e-07
3.846346285e-07
4.005684339e-07
2.658179662e-07
2.850466166e-07
3.132167317e-07
3.489200904e-07
3.900458839e-07
4.335017567e-07
4.750414297e-07
5.092506706e-07
5.297625823e-07
3.568615686e-07
3.81652849e-07
4.179293622e-07
4.638388316e-07
5.166348482e-07
5.723310217e-07
6.254898169e-07
6.692093969e-07
6.953960148e-07
4.752358051e-07
5.069428189e-07
5.532834952e-07
6.118411082e-07
6.790701275e-07
7.498719636e-07
8.173397422e-07
8.727486121e-07
9.058983891e-07
6.277436957e-07
6.67962789e-07
7.266729766e-07
8.007472553e-07
8.856453645e-07
9.748989906e-07
1.059807492e-06
1.129435399e-06
1.17104053e-06
8.224059321e-07
8.729933407e-07
9.467483496e-07
1.039659457e-06
1.14596092e-06
1.257515096e-06
1.363454832e-06
1.450193305e-06
1.501954884e-06
1.068529263e-06
1.131610022e-06
1.22346599e-06
1.338996004e-06
1.470940641e-06
1.609149764e-06
1.740168565e-06
1.84726658e-06
1.911090504e-06
1.376731631e-06
1.454697802e-06
1.568086835e-06
1.710469995e-06
1.872787369e-06
2.042489912e-06
2.203067969e-06
2.334108323e-06
2.412089714e-06
1.75891127e-06
1.854406656e-06
1.993112303e-06
2.167000542e-06
2.364866037e-06
2.571333697e-06
2.766331115e-06
2.925184625e-06
3.019579251e-06
2.228148892e-06
2.344038029e-06
2.512148103e-06
2.722548556e-06
2.961508098e-06
3.210362987e-06
3.444937975e-06
3.635694408e-06
3.748876348e-06
2.798536097e-06
2.937856391e-06
3.139691834e-06
3.391875221e-06
3.677738176e-06
3.974838456e-06
4.254337465e-06
4.481215347e-06
4.615625275e-06
3.484929078e-06
3.650826528e-06
3.890847328e-06
4.190229079e-06
4.528932107e-06
4.880229624e-06
5.210053434e-06
5.477294853e-06
5.635380361e-06
4.302634223e-06
4.49828509e-06
4.780976914e-06
5.132976117e-06
5.530424164e-06
5.941800676e-06
6.327254286e-06
6.639000827e-06
6.823125131e-06
5.267040405e-06
5.495562974e-06
5.825310591e-06
6.23519417e-06
6.69708952e-06
7.174185197e-06
7.620314638e-06
7.980457999e-06
8.192834762e-06
6.39321989e-06
6.657581118e-06
7.038538415e-06
7.511265595e-06
8.04293655e-06
8.590969352e-06
9.102380293e-06
9.514452726e-06
9.757077692e-06
7.695525807e-06
7.998454165e-06
8.434418556e-06
8.97449107e-06
9.580713979e-06
1.020429691e-05
1.078502977e-05
1.125209949e-05
1.152669236e-05
9.187219917e-06
9.531125299e-06
1.002542208e-05
1.063671854e-05
1.132156349e-05
1.202458942e-05
1.2678009e-05
1.320259909e-05
1.351055963e-05
1.088012331e-05
1.126700252e-05
1.182236361e-05
1.250805058e-05
1.327479453e-05
1.406034353e-05
1.478906323e-05
1.537309865e-05
1.571547945e-05
1.27842767e-05
1.321568285e-05
1.383420848e-05
1.459667674e-05
1.544773921e-05
1.631802512e-05
1.712386804e-05
1.776865205e-05
1.814614819e-05
1.490779969e-05
1.538481726e-05
1.606794377e-05
1.690877831e-05
1.784569761e-05
1.880205448e-05
1.968605037e-05
2.039226858e-05
2.080522291e-05
1.725679644e-05
1.778003658e-05
1.852853391e-05
1.944851823e-05
2.047196484e-05
2.151486946e-05
2.247728303e-05
2.324503102e-05
2.369345246e-05
1.983534337e-05
2.040495787e-05
2.121895302e-05
2.221810349e-05
2.332792472e-05
2.445704853e-05
2.549743253e-05
2.632626141e-05
2.680985282e-05
2.264554801e-05
2.326125857e-05
2.414027981e-05
2.521790338e-05
2.641319159e-05
2.762747379e-05
2.874473917e-05
2.963371309e-05
3.015190522e-05
2.568766355e-05
2.634880207e-05
2.729183762e-05
2.844660557e-05
2.972578159e-05
3.102351533e-05
3.221601123e-05
3.316377098e-05
3.371575931e-05
2.896024163e-05
2.966579723e-05
3.067136256e-05
3.190139289e-05
3.32622972e-05
3.464122133e-05
3.590681838e-05
3.691164648e-05
3.749642821e-05
3.24603071e-05
3.3208976e-05
3.427518425e-05
3.55781268e-05
3.701811199e-05
3.847550264e-05
3.981167467e-05
4.087155817e-05
4.148796767e-05
3.618354079e-05
3.69737759e-05
3.809840746e-05
3.947152691e-05
4.098754669e-05
4.252030429e-05
4.392420502e-05
4.503689392e-05
4.56836352e-05
4.012445983e-05
4.095451794e-05
4.213508602e-05
4.357533959e-05
4.516403141e-05
4.676876054e-05
4.82372933e-05
4.940035302e-05
5.007602884e-05
4.427658859e-05
4.514457365e-05
4.637838427e-05
4.788249223e-05
4.954025162e-05
5.12133324e-05
5.274321194e-05
5.395406961e-05
5.46572069e-05
4.863261636e-05
4.953651819e-05
5.082072357e-05
5.238523175e-05
5.41082779e-05
5.584592852e-05
5.743373483e-05
5.868971942e-05
5.941879127e-05
5.318454016e-05
5.41222684e-05
5.545391366e-05
5.707524788e-05
5.88596805e-05
6.065801128e-05
6.230023593e-05
6.359861263e-05
6.435205713e-05
5.79237929e-05
5.889320634e-05
6.026926976e-05
6.194378271e-05
6.378563081e-05
6.564069036e-05
6.733377607e-05
6.867177557e-05
6.944801182e-05
6.284135789e-05
6.384028952e-05
6.525771692e-05
6.698172802e-05
6.88769914e-05
7.078480589e-05
7.252518006e-05
7.390002347e-05
7.46974652e-05
6.792787117e-05
6.895414945e-05
7.040988328e-05
7.217971248e-05
7.41243968e-05
7.608100315e-05
7.78651062e-05
7.927402609e-05
8.009109327e-05
7.317371326e-05
7.422517997e-05
7.571618381e-05
7.752817999e-05
7.951832632e-05
8.151980007e-05
8.33441094e-05
8.478436761e-05
8.561949626e-05
7.856909158e-05
7.964361684e-05
8.116689591e-05
8.301746068e-05
8.504917016e-05
8.709164892e-05
8.895269897e-05
9.042160167e-05
9.12732522e-05
8.410411492e-05
8.51996096e-05
8.675222782e-05
8.863783527e-05
9.070728973e-05
9.27869927e-05
9.468139179e-05
9.617630208e-05
9.70429664e-05
8.976886058e-05
9.08832866e-05
9.246238062e-05
9.437959368e-05
9.648307266e-05
9.85963168e-05
0.0001005207611
0.0001020391096
0.000102919317
9.555343511e-05
9.668481379e-05
9.828760453e-05
0.0001002330883
0.0001023669829
0.0001045101962
0.0001064614812
0.0001080007748
0.0001088930971
0.0001014480289
0.0001025944478
0.0001042182496
0.0001061887821
0.0001083496062
0.0001105193383
0.0001124943683
0.0001140521972
0.0001149552528
0.0001074429654
0.0001086025833
0.0001102448113
0.0001122372919
0.0001144216911
0.000116614622
0.0001186104173
0.0001201844609
0.0001210969179
0.0001135287441
0.0001146997956
0.0001163579714
0.0001183694271
0.0001205741854
0.0001227871317
0.0001248008344
0.0001263888659
0.000127309445
0.0001196960798
0.0001208768779
0.0001225486331
0.0001245762238
0.0001267982685
0.0001290281881
0.0001310570665
0.0001326569559
0.0001335844324
0.0001259359353
0.0001271248735
0.0001288079531
0.0001308489742
0.0001330853791
0.0001353293748
0.0001373708262
0.0001389805427
0.0001399137478
0.0001322395507
0.000133435104
0.0001351273677
0.000137179252
0.0001394272397
0.0001416825607
0.0001437341129
0.0001453517267
0.0001462895485
0.000138598467
0.0001397991928
0.0001414986155
0.0001435589341
0.0001458158762
0.0001480799188
0.0001501392311
0.0001517629134
0.0001527042975
0.0001450045465
0.0001462090841
0.0001479137555
0.0001499802173
0.0001522436341
0.0001545139415
0.0001565788039
0.0001582068274
0.0001591507769
0.0001514499884
0.0001526570581
0.000154365182
0.0001564356323
0.0001587031916
0.0001609774522
0.0001630457848
0.0001646765226
0.0001656220976
0.0001579273407
0.0001591357429
0.0001608456352
0.0001629180536
0.0001651875683
0.0001674636138
0.0001695334648
0.0001711653893
0.0001721117064
0.0001644295092
0.0001656381225
0.000167348209
0.0001694207069
0.000171690132
0.0001739659345
0.0001760354776
0.0001776671585
0.00017861339
0.0001709497622
0.0001721575416
0.0001738663553
0.0001759371724
0.0001782046016
0.0001804782703
0.0001825458018
0.0001841759041
0.0001851212767
0.0001774817331
0.0001786877078
0.0001803938856
0.0001824613862
0.0001847250479
0.0001869948249
0.0001890587606
0.0001906860418
0.0001916298354
0.0001840194201
0.000185222691
0.0001869249703
0.0001889876393
0.0001912458921
0.0001935101484
0.0001955690193
0.0001971923269
0.0001981338726
0.0001905571836
0.0001917569203
0.0001934541355
0.0001955105737
0.0001977619017
0.0002000191325
0.0002020715809
0.0002036898491
0.000204628528
0.0001970897409
0.0001982851796
0.0001999762578
0.0002020251775
0.0002042681851
0.0002065170046
0.0002085617801
0.0002101740265
0.0002111092676
0.00020361216
0.0002048025998
0.0002064865571
0.0002085267771
0.0002107601843
0.0002129993208
0.0002150352754
0.0002166405976
0.000217571876
0.0002101198509
0.0002113046516
0.0002129805887
0.0002150110294
0.0002172336659
0.0002194619569
0.0002214880403
0.0002230856123
0.0002240124471
0.0002166085563
0.000217787135
0.0002194542331
0.0002214739117
0.0002236847117
0.0002259010981
0.0002279163534
0.0002295054222
0.0002304273746
0.000223074341
0.0002242461688
0.0002259036857
0.0002279117106
0.0002301097076
0.0002323132287
0.0002343167875
0.0002358966692
0.0002368133403
0.0002295135795
0.0002306781794
0.0002323254447
0.0002343210111
0.0002365053324
0.0002386951203
0.0002406861981
0.0002422562743
0.000243167303
0.0002359229448
0.0002370798878
0.0002387162991
0.0002406986839
0.0002428685451
0.00024504382
0.0002470217109
0.0002485814253
0.0002494864866
0.0002422993944
0.0002434482972
0.0002450733163
0.0002470418728
0.0002491965728
0.0002513566373
0.0002533207103
0.0002548695648
0.0002557683674
0.000248640158
0.0002497806799
0.0002513938283
0.0002533479823
0.0002554868979
0.0002576311321
0.0002595808259
0.0002611183774
0.0002620106617
0.0002549427236
0.0002560745637
0.0002576754191
0.0002596146635
0.0002617372448
0.0002638651014
0.0002657999203
0.0002673257772
0.0002682113135
0.0002612048239
0.0002623277189
0.0002639159113
0.0002658398019
0.0002679455672
0.0002700565667
0.0002719760763
0.0002734898949
0.0002743684814
0.0002674244233
0.0002685381443
0.0002701133526
0.0002720215038
0.0002741100349
0.0002762037612
0.0002781075843
0.0002796090658
0.0002804805269
0.0002735997042
0.0002747040547
0.000276266003
0.0002781580838
0.0002802290217
0.0002823051174
0.0002841929296
0.0002856818172
0.0002865460016
0.000279729054
0.0002808238673
0.0002823723218
0.0002842480516
0.000286301092
0.0002883592543
0.0002902307809
0.0002917068564
0.0002925636353
0.0002858110523
0.0002868961894
0.000288430955
0.0002902901
0.0002923249895
0.0002943649661
0.0002962199779
0.0002976830594
0.0002985323249
0.0002918444583
0.0002929198056
0.0002944407233
0.0002962830928
0.000298299625
0.0003003212102
0.0003021595203
0.0003036094588
0.0003044511226
0.0002978281991
0.0002988936666
0.0003004006102
0.0003022260533
0.0003042240647
0.000306227096
0.0003080485564
0.0003094852339
0.0003103192254
0.0003037613575
0.0003048168767
0.0003063097506
0.000308118153
0.0003100975199
0.0003120818741
0.0003138863729
0.0003153096995
0.0003161359646
0.0003096431614
0.0003106886837
0.00031216742
0.0003139587007
0.000315919336
0.0003178849264
0.0003196723843
0.000321082296
0.0003219007959
0.0003154729728
0.0003165084677
0.0003179730239
0.0003197471328
0.0003216889825
0.0003236357557
0.0003254061235
0.0003268025803
0.00032761329
0.0003212502778
0.0003222757312
0.0003237260882
0.000325483003
0.0003274060436
0.0003293339764
0.0003310872327
0.0003324702161
0.0003332731233
0.0003269746768
0.0003279900897
0.0003294262496
0.0003311659735
0.0003330702093
0.0003349793062
0.0003367154544
0.0003380849659
0.0003388800699
0.0003326458755
0.0003336512625
0.0003350732464
0.0003367958058
0.0003386812663
0.0003405715569
0.0003422906234
0.0003436466824
0.0003444339931
0.0003382636759
0.0003392590641
0.0003406669107
0.000342372353
0.0003442390903
0.000346110627
0.0003478126587
0.0003491553012
0.0003499348379
0.0003438279689
0.0003448133963
0.00034620716
0.0003478955514
0.0003497436384
0.0003515964941
0.0003532815569
0.0003546108332
0.0003553826242
0.0003493387257
0.0003503142407
0.0003516939899
0.0003533654136
0.0003551949418
0.000357029208
0.0003586973843
0.0003600133585
0.0003607774396
0.0003547959914
0.0003557616511
0.000357127467
0.0003587820217
0.0003605930991
0.000362408884
0.0003640602714
0.0003653630194
0.0003661194336
0.0003601998777
0.0003611557475
0.0003625077226
0.0003641455206
0.0003659382701
0.0003677356967
0.0003693704064
0.0003706600148
0.0003714088114
0.000365550557
0.0003664967094
0.0003678349464
0.0003694561122
0.00037123067
0.0003730098745
0.0003746280298
0.0003759045948
0.0003766458286
0.0003708482564
0.0003717847702
0.0003731093807
0.0003747140494
0.0003764705637
0.0003782316942
0.000379833429
0.0003810970553
0.0003818307862
0.0003760932524
0.0003770202121
0.0003783313154
0.000379919632
0.000381658261
0.0003834014759
0.0003849869336
0.0003862377334
0.0003869640258
0.0003812858658
0.0003822033606
0.0003835010833
0.0003850732008
0.0003867941119
0.0003885195787
0.000390088911
0.0003913270031
0.0003920459251
0.0003864264569
0.0003873345805
0.000388619055
0.0003901751337
0.0003918785023
0.0003935863964
0.0003951397621
0.000396365271
0.0003970768941
0.0003915154213
0.000392414271
0.0003936856348
0.0003952258413
0.0003969118496
0.0003986023532
0.0004001399175
0.0004013529726
0.0004020573715
0.0003965531854
0.0003974428617
0.000398701257
0.0004002257634
0.0004018945994
0.0004035679006
0.000405089834
0.0004062905691
0.0004069878207
0.0004015402036
0.0004024208096
0.0004036663822
0.000405175365
0.0004068272217
0.0004084835137
0.000409989991
0.0004111785436
0.000411868727
0.000406476954
0.0004073485952
0.000408581494
0.0004100751336
0.000411710208
0.000413349688
0.0004148408882
0.0004160173985
0.0004167005949
0.0004113639359
0.0004122267194
0.0004134470961
0.0004149255758
0.0004165440686
0.000418166937
0.000419643042
0.0004208076529
0.0004214839447
0.0004162016665
0.0004170557009
0.000418263709
0.0004197272148
0.000421329329
0.0004229357893
0.0004243969834
0.0004255498398
0.0004262193105
0.0004209906784
0.0004218360736
0.0004230318682
0.0004244805878
0.0004260665287
0.0004276567862
0.0004291032555
0.0004302445038
0.000430907238
0.0004257315172
0.0004265683837
0.0004277521212
0.0004291862436
0.0004307562179
0.0004323304793
0.0004337624115
0.000434892199
0.0004355482821
0.0004304247391
0.0004312531881
0.0004324250254
0.0004338447406
0.0004353989559
0.0004369574289
0.0004383750124
0.0004394934874
0.0004401430049
0.0004350709091
0.0004358910518
0.0004370511462
0.0004384566446
0.000439995309
0.0004415382018
0.0004429416254
0.0004440489364
0.0004446919742
0.0004396705987
0.0004404825464
0.0004416310553
0.0004430225273
0.0004445458486
0.0004460733694
0.0004474628219
0.0004485591174
0.0004491957615
0.0004442243842
0.0004450282481
0.0004461653285
0.000447542964
0.0004490511499
0.0004505635063
0.0004519391762
0.0004530246044
0.0004536549405
0.0004487328454
0.0004495287362
0.0004506545443
0.0004520185324
0.0004535117896
0.0004550091885
0.0004563712633
0.0004574459719
0.0004580700855
0.0004531965633
0.0004539845909
0.0004550992824
0.0004564498111
0.000457928345
0.0004594109919
0.0004607596582
0.0004618237938
0.0004624417698
0.000457616119
0.0004583963927
0.0004595001216
0.0004608373775
0.000462301392
0.0004637694907
0.0004651049335
0.0004661586416
0.0004667705642
0.000461992092
0.0004627647198
0.0004638576389
0.0004651818068
0.0004666315035
0.0004680852558
0.000469407658
0.0004704510826
0.0004710570351
0.0004663250586
0.0004670901473
0.0004681724076
0.0004694836698
0.0004709192479
0.000472358853
0.0004736683952
0.0004747016782
0.0004753017429
0.0004706155902
0.0004713732452
0.0004724449952
0.0004737435314
0.0004751651871
0.000476590841
0.0004778877009
0.0004789109821
0.0004795052397
0.0004748642512
0.0004756145759
0.0004766759617
0.0004779619484
0.0004793698742
0.0004807817693
0.000482066121
0.0004830795372
0.000483668067
0.0004790715972
0.0004798146928
0.0004808658573
0.000482139467
0.0004835338511
0.000484932175
0.0004862041885
0.0004872078732
0.0004877907522
0.0004832381717
0.000483974137
0.0004850152193
0.0004862766198
0.000487657645
0.0004890425801
0.0004903024204
0.0004912965027
0.0004918738057
0.0004873645035
0.0004880934339
0.0004891245687
0.0004903739223
0.000491741765
0.000493113487
0.0004943613125
0.0004953459168
0.0004959177154
0.0004914511022
0.0004921730895
0.0004931944058
0.0004944318678
0.0004957866968
0.0004971453732
0.0004983813348
0.000499356579
0.0004999229411
0.0004954984535
0.0004962135846
0.0004972252047
0.000498450922
0.0004997928962
0.0005011386845
0.0005023629237
0.0005033289178
0.0005038899066
0.0004995070122
0.0005002153685
0.0005012174063
0.0005024315152
0.0005037607816
0.0005050938268
0.0005063064731
0.0005072633175
0.0005078189903
0.0005034771946
0.00050417885
0.0005051714089
0.0005063740327
0.0005076907235
0.0005090111549
0.0005102123228
0.0005111601057
0.0005117105126
0.0005074093675
0.0005081043871
0.0005090875575
0.0005102788029
0.0005115830315
0.0005128909588
0.0005140807443
0.0005150195383
0.0005155647201
0.0005113038354
0.0005119922729
0.0005129661288
0.0005141460821
0.0005154379383
0.0005167334464
0.0005179119219
0.0005188417807
0.0005193817664
0.0005151608241
0.000515842719
0.0005168073137
0.0005179760351
0.0005192555793
0.0005205387223
0.0005217059309
0.0005226268835
0.0005231616877
0.0005189804601
0.0005196558343
0.0005206111953
0.0005217687128
0.0005230359682
0.0005243067614
0.000525462709
0.0005263747543
0.0005269043735
0.0005227627462
0.0005234315993
0.0005243777219
0.000525524023
0.0005267789668
0.000528037377
0.0005291820239
0.0005300851229
0.0005306095305
0.0005265075316
0.0005271698356
0.0005281066751
0.000529241697
0.0005304842492
0.0005317301835
0.0005328634329
0.0005337575001
0.0005342766417
0.0005302144764
0.0005308701693
0.0005317976316
0.0005329212499
0.0005341512602
0.000535384552
0.0005365062373
0.0005373911299
0.0005379049168
0.0005338830104
0.0005345319887
0.0005354499197
0.0005365619343
0.0005377791667
0.00053899956
0.00054010943
0.0005409849356
0.0005414932374
0.0005375122865
0.0005381543964
0.0005390625688
0.0005401626889
0.000541366804
0.0005425739349
0.0005436716365
0.0005445374595
0.0005450400961
0.0005411011277
0.0005417361553
0.0005426342549
0.0005437220809
0.000544912616
0.0005461059928
0.0005471910519
0.0005480467981
0.0005485435302
0.0005446479704
0.0005452756306
0.0005461632404
0.0005472382446
0.0005484145927
0.000549593573
0.0005506653742
0.0005515105341
0.000552001054
0.0005481508035
0.0005487707283
0.0005496473119
0.0005507088183
0.0005518702043
0.0005530339727
0.0005540917374
0.0005549256691
0.0005554095901
0.0005516071067
0.0005522188333
0.0005530837176
0.0005541308803
0.0005552763386
0.0005564238822
0.0005574666474
0.0005582885596
0.0005587654064
0.0005550137909
0.0005556167494
0.0005564691073
0.0005575008904
0.0005586292418
0.0005597593281
0.0005607859258
0.0005615948614
0.0005620640606
0.0005583671426
0.000558960645
0.0005597994802
0.0005608146382
0.0005619244697
0.0005630356266
0.0005640446658
0.0005648394885
0.0005653003612
0.0005616627797
0.0005622460101
0.000563070143
0.0005640672061
0.0005651568543
0.0005662473541
0.0005672372079
0.0005680165923
0.000568468348
0.0005648956204
0.0005654676286
0.0005662756879
0.0005672529503
0.000568320491
0.0005693883419
0.0005703571402
0.0005711195673
0.0005715613027
0.0005680598722
0.0005686195703
0.0005694099893
0.0005703655077
0.0005714087548
0.0005724517002
0.0005733973312
0.0005741410916
0.0005745717925
0.0005711490485
0.0005716952133
0.0005724662337
0.0005733978332
0.0005744143476
0.0005754298787
0.0005763500025
0.0005770732074
0.000577491757
0.0005741560166
0.0005746872976
0.0005754369828
0.0005763422745
0.0005773293865
0.0005783147673
0.0005792068418
0.0005799074469
0.0005803126393
0.0005770730814
0.000577588017
0.0005783142757
0.0005791906882
0.0005801455349
0.0005810978435
0.0005819591653
0.0005826350049
0.0005830255675
0.0005798921111
0.0005803891523
0.0005810897743
0.0005819345995
0.0005828541785
0.0005837703652
0.000584598126
0.0005852469608
0.0005856215829
0.0005826047036
0.000583082247
0.000583754951
0.0005845654054
0.000585446646