/*--------------------------------*- C++ -*----------------------------------*\
| =========                 |                                                 |
| \\      /  F ield         | OpenFOAM: The Open Source CFD Toolbox           |
|  \\    /   O peration     | Version:  2212                                  |
|   \\  /    A nd           | Website:  www.openfoam.com                      |
|    \\/     M anipulation  |                                                 |
\*---------------------------------------------------------------------------*/
FoamFile
{
    version     2.0;
    format      ascii;
    arch        "LSB;label=32;scalar=64";
    class       volScalarField;
    location    "20.00000000";
    object      I-C4H51_0;
}
// * * * * * * * * * * * * * * * * * * * * * * * * * * * * * * * * * * * * * //

dimensions      [0 0 0 0 0 0 0];

internalField   nonuniform List<scalar> 
3000
(
2.474016407e-25
2.77917894e-25
3.239672261e-25
3.853329638e-25
4.613922086e-25
5.500804676e-25
6.460553123e-25
7.376360728e-25
8.02395624e-25
9.288476588e-25
1.047625692e-24
1.226785909e-24
1.46606619e-24
1.765232465e-24
2.122631175e-24
2.532061866e-24
2.97286757e-24
3.363350869e-24
2.080525648e-24
2.364999118e-24
2.798182699e-24
3.386354511e-24
4.140098672e-24
5.0703606e-24
6.173486176e-24
7.387561506e-24
8.42518445e-24
3.962712848e-24
4.551727008e-24
5.461799361e-24
6.723731756e-24
8.382244417e-24
1.047950039e-23
1.300407408e-23
1.575390214e-23
1.797343215e-23
7.036423586e-24
8.181503989e-24
9.978588662e-24
1.251897565e-23
1.592216974e-23
2.028358808e-23
2.553040204e-23
3.110242841e-23
3.537977129e-23
1.209901775e-23
1.424809333e-23
1.766919496e-23
2.258066909e-23
2.924453881e-23
3.78285357e-23
4.807633127e-23
5.869564166e-23
6.65521906e-23
2.053872876e-23
2.448619228e-23
3.084337579e-23
4.007307503e-23
5.268930401e-23
6.894296967e-23
8.816190438e-23
1.076889655e-22
1.217790834e-22
3.475684064e-23
4.190049266e-23
5.350736888e-23
7.048939381e-23
9.379389342e-23
1.237566493e-22
1.588746556e-22
1.940363919e-22
2.189849806e-22
5.89145825e-23
7.170597523e-23
9.262380526e-23
1.233840568e-22
1.65672022e-22
2.198948859e-22
2.829902429e-22
3.455077277e-22
3.893773707e-22
1.002192889e-22
1.229443275e-22
1.602773861e-22
2.153552373e-22
2.91122217e-22
3.880203839e-22
5.001520448e-22
6.104448866e-22
6.872666328e-22
1.711652827e-22
2.113044817e-22
2.774569789e-22
3.752531048e-22
5.097941639e-22
6.8147947e-22
8.79344053e-22
1.072974401e-21
1.207173578e-21
2.934218474e-22
3.640158029e-22
4.80619177e-22
6.532243528e-22
8.906442962e-22
1.193082438e-21
1.540598782e-21
1.879471034e-21
2.113547707e-21
5.045909357e-22
6.283574546e-22
8.331056719e-22
1.136443146e-21
1.553583153e-21
2.084220234e-21
2.692575466e-21
3.284298918e-21
3.692238606e-21
8.699397896e-22
1.086432197e-21
1.444965917e-21
1.976415863e-21
2.707004995e-21
3.635164396e-21
4.696999849e-21
5.727657616e-21
6.438668803e-21
1.502760779e-21
1.880804833e-21
2.507354566e-21
3.436342561e-21
4.712783886e-21
6.331716366e-21
8.178043446e-21
9.964316433e-21
1.120806935e-20
2.599680177e-21
3.258965531e-21
4.352213173e-21
5.973479053e-21
8.200189975e-21
1.102011782e-20
1.422292239e-20
1.728386661e-20
1.949352133e-20
4.501889916e-21
5.650442677e-21
7.555858194e-21
1.038274258e-20
1.426854952e-20
1.920317062e-20
2.48542313e-20
3.036776308e-20
3.405279028e-20
7.801377928e-21
9.800474424e-21
1.311775312e-20
1.803958012e-20
2.480325805e-20
3.338452607e-20
4.318492141e-20
5.267092794e-20
5.914906925e-20
1.352545428e-20
1.700251168e-20
2.277322143e-20
3.133519918e-20
4.309832236e-20
5.801342108e-20
7.502972276e-20
9.148453379e-20
1.027542652e-19
2.345722103e-20
2.950185379e-20
3.953494593e-20
5.442101371e-20
7.486969784e-20
1.007899359e-19
1.303497081e-19
1.589242767e-19
1.784960231e-19
4.069212698e-20
5.119667153e-20
6.86337225e-20
9.450476274e-20
1.30039279e-19
1.75072523e-19
2.264149879e-19
2.760322561e-19
3.100108819e-19
7.060432068e-20
8.885518575e-20
1.191518165e-19
1.641008676e-19
2.25832211e-19
3.040495954e-19
3.932031868e-19
4.79338626e-19
5.3831316e-19
1.22524152e-19
1.542285349e-19
2.068578941e-19
2.849350165e-19
3.921472544e-19
5.279616181e-19
6.827233777e-19
8.322033317e-19
9.345217331e-19
2.126488007e-19
2.67716435e-19
3.591243112e-19
4.947144675e-19
6.808645764e-19
9.166119133e-19
1.185160897e-18
1.444456037e-18
1.621887288e-18
3.690909729e-19
4.647253484e-19
6.234546015e-19
8.588637888e-19
1.181967949e-18
1.591015502e-18
2.056784841e-18
2.506308753e-18
2.813787657e-18
6.406287849e-19
8.066864666e-19
1.082255493e-18
1.490841562e-18
2.05142947e-18
2.760799728e-18
3.568100197e-18
4.346799335e-18
4.879155087e-18
1.111851574e-18
1.400122759e-18
1.878387014e-18
2.58725173e-18
3.559346947e-18
4.78867894e-18
6.186721441e-18
7.534212015e-18
8.454762296e-18
1.929339595e-18
2.429595909e-18
3.259282019e-18
4.488406074e-18
6.172844183e-18
8.301276745e-18
1.071951984e-17
1.304797581e-17
1.463715517e-17
3.346825787e-18
4.214512844e-18
5.652943889e-18
7.782494512e-18
1.069838656e-17
1.437892198e-17
1.855542619e-17
2.257154189e-17
2.530906832e-17
5.802912891e-18
7.306809124e-18
9.798462307e-18
1.348414578e-17
1.852512268e-17
2.487921221e-17
3.207801723e-17
3.898851927e-17
4.369115845e-17
1.005441271e-17
1.265836729e-17
1.696931842e-17
2.333919654e-17
3.203893737e-17
4.298555553e-17
5.536222605e-17
6.721736194e-17
7.526780117e-17
1.740430112e-17
2.19068161e-17
2.935372865e-17
4.034219996e-17
5.53228424e-17
7.413094995e-17
9.534213931e-17
1.156043321e-16
1.293274188e-16
3.008980581e-17
3.786114314e-17
5.069902173e-17
6.960983854e-17
9.533354972e-17
1.275416357e-16
1.637516775e-16
1.982267336e-16
2.215006264e-16
5.193996963e-17
6.53223849e-17
8.739662584e-17
1.19844652e-16
1.638622714e-16
2.187937279e-16
2.803184821e-16
3.38662004e-16
3.778979773e-16
8.948382373e-17
1.124621514e-16
1.50296173e-16
2.057684993e-16
2.807731534e-16
3.74005629e-16
4.779640445e-16
5.760861083e-16
6.417774804e-16
1.538068116e-16
1.931224073e-16
2.577149947e-16
3.521322778e-16
4.792987698e-16
6.366382865e-16
8.111724135e-16
9.7502215e-16
1.084157393e-15
2.636402747e-16
3.306234473e-16
4.403878203e-16
6.002587201e-16
8.146062176e-16
1.078397464e-15
1.369293894e-15
1.640729183e-15
1.82049626e-15
4.504662273e-16
5.640177969e-16
7.495318277e-16
1.018607132e-15
1.37749566e-15
1.816500248e-15
2.297428326e-15
2.743186345e-15
3.036577562e-15
7.668867013e-16
9.582711859e-16
1.269857632e-15
1.719644868e-15
2.316046772e-15
3.040681858e-15
3.82879314e-15
4.554004471e-15
5.028181322e-15
1.300231111e-15
1.620682234e-15
2.140340955e-15
2.88648412e-15
3.869412403e-15
5.054915223e-15
6.334273365e-15
7.502546385e-15
8.261166812e-15
2.194482717e-15
2.727104215e-15
3.587027213e-15
4.81445123e-15
6.419944392e-15
8.341083016e-15
1.039738048e-14
1.22602804e-14
1.34614614e-14
3.685275155e-15
4.563392706e-15
5.974271851e-15
7.97521506e-15
1.057266032e-14
1.365504108e-14
1.692640147e-14
1.986623865e-14
2.174847327e-14
6.155190233e-15
7.590230316e-15
9.883897023e-15
1.311460776e-14
1.727504887e-14
2.217000602e-14
2.732049745e-14
3.191183096e-14
3.483106633e-14
1.022021721e-14
1.2543426e-14
1.623614484e-14
2.140023397e-14
2.799581849e-14
3.568849104e-14
4.371346346e-14
5.081076647e-14
5.52930668e-14
1.686346782e-14
2.058742855e-14
2.647254076e-14
3.46419456e-14
4.498904357e-14
5.695279517e-14
6.932854389e-14
8.019026509e-14
8.700614967e-14
2.763969301e-14
3.354777754e-14
4.282954748e-14
5.561803147e-14
7.168111469e-14
9.009627038e-14
1.089911417e-13
1.25454198e-13
1.357230187e-13
4.498464326e-14
5.425941948e-14
6.874414893e-14
8.855359601e-14
1.132331282e-13
1.4129454e-13
1.698648652e-13
1.945887705e-13
2.099245911e-13
7.267798315e-14
8.708344863e-14
1.094495743e-13
1.398165315e-13
1.77352458e-13
2.196992716e-13
2.625020181e-13
2.993088647e-13
3.220235224e-13
1.165288791e-13
1.386665661e-13
1.72843076e-13
2.189227215e-13
2.754564248e-13
3.387694111e-13
4.023349564e-13
4.566809688e-13
4.900656729e-13
1.853817381e-13
2.190477505e-13
2.70740575e-13
3.3997843e-13
4.243312191e-13
5.181591879e-13
6.117831628e-13
6.914105516e-13
7.401249045e-13
2.925790182e-13
3.432586477e-13
4.206786787e-13
5.237380778e-13
6.484845696e-13
7.863829249e-13
9.232169363e-13
1.039051908e-12
1.109660643e-12
4.580730473e-13
5.336229485e-13
6.484884726e-13
8.005257611e-13
9.834670735e-13
1.184559677e-12
1.383109062e-12
1.550495784e-12
1.652207903e-12
7.114555999e-13
8.230426339e-13
9.919492292e-13
1.214350647e-12
1.480529809e-12
1.771652443e-12
2.05783283e-12
2.298229089e-12
2.443910466e-12
1.096204786e-12
1.259579789e-12
1.505885212e-12
1.828677061e-12
2.213161265e-12
2.631804437e-12
3.041752998e-12
3.385041611e-12
3.592595436e-12
1.675761157e-12
1.913014067e-12
2.269413683e-12
2.734531627e-12
3.286190967e-12
3.884503227e-12
4.468412429e-12
4.956057504e-12
5.250313856e-12
2.542072444e-12
2.884021671e-12
3.396055934e-12
4.061802162e-12
4.84845694e-12
5.698695913e-12
6.526031048e-12
7.215374521e-12
7.630661985e-12
3.827586768e-12
4.317032449e-12
5.047860757e-12
5.994966696e-12
7.110384936e-12
8.31232352e-12
9.47890865e-12
1.044900476e-11
1.103264265e-11
5.722052545e-12
6.418201068e-12
7.455090665e-12
8.794951439e-12
1.036834507e-11
1.205931375e-11
1.369693255e-11
1.505644781e-11
1.587347288e-11
8.496020063e-12
9.480497408e-12
1.094363572e-11
1.28294817e-11
1.503837434e-11
1.740685088e-11
1.969622031e-11
2.159409299e-11
2.273362646e-11
1.253371093e-11
1.391873569e-11
1.597319596e-11
1.861524126e-11
2.170288692e-11
2.500685353e-11
2.819510463e-11
3.083486481e-11
3.241864173e-11
1.837903375e-11
2.031853901e-11
2.319054388e-11
2.687654024e-11
3.11755014e-11
3.57672159e-11
4.019138935e-11
4.385031683e-11
4.604403992e-11
2.680013942e-11
2.950495305e-11
3.350404213e-11
3.862723487e-11
4.459135461e-11
5.095080212e-11
5.706941113e-11
6.212411068e-11
6.515250037e-11
3.888025754e-11
4.26389339e-11
4.818834129e-11
5.52856929e-11
6.353366648e-11
7.231394423e-11
8.074955094e-11
8.771020473e-11
9.187698206e-11
5.614593838e-11
6.135358719e-11
6.903223869e-11
7.883718734e-11
9.021255819e-11
1.023021591e-10
1.138995339e-10
1.234563964e-10
1.291711852e-10
8.074862289e-11
8.794729001e-11
9.854864185e-11
1.120650339e-10
1.277202792e-10
1.44330365e-10
1.602379104e-10
1.733262749e-10
1.811420467e-10
1.157221636e-10
1.256583044e-10
1.402742815e-10
1.588821924e-10
1.80399594e-10
2.031901101e-10
2.249782393e-10
2.428734885e-10
2.535416259e-10
1.653481029e-10
1.79055924e-10
1.991992407e-10
2.248102999e-10
2.54381079e-10
2.856499541e-10
3.154912985e-10
3.399559544e-10
3.545127808e-10
2.356726874e-10
2.545972459e-10
2.823834657e-10
3.176746246e-10
3.5837255e-10
4.013500298e-10
4.423058517e-10
4.758287737e-10
4.957395391e-10
3.352351086e-10
3.61416797e-10
3.998398438e-10
4.486120871e-10
5.048208992e-10
5.641392869e-10
6.206276161e-10
6.668247543e-10
6.942306207e-10
4.760854746e-10
5.124384142e-10
5.657907314e-10
6.335241701e-10
7.11611085e-10
7.940603384e-10
8.726255726e-10
9.369130733e-10
9.750542349e-10
6.751931781e-10
7.259236693e-10
8.0043397e-10
8.951415598e-10
1.004509367e-09
1.120237496e-09
1.230793822e-09
1.321492855e-09
1.375412975e-09
9.563700878e-10
1.027594838e-09
1.132377511e-09
1.26588852e-09
1.420575e-09
1.584933869e-09
1.742698014e-09
1.872768933e-09
1.950430698e-09
1.352854226e-09
1.453484394e-09
1.601902579e-09
1.79171438e-09
2.012711997e-09
2.248947696e-09
2.477268671e-09
2.666860719e-09
2.780793736e-09
1.910709055e-09
2.05365119e-09
2.26516591e-09
2.536950585e-09
2.855337088e-09
3.198208337e-09
3.532361602e-09
3.8122268e-09
3.981738353e-09
2.693172756e-09
2.89683947e-09
3.199311167e-09
3.589989611e-09
4.050698524e-09
4.550749563e-09
5.042336154e-09
5.457738757e-09
5.711443032e-09
3.786007655e-09
4.076003115e-09
4.50818127e-09
5.06909899e-09
5.734579948e-09
6.46197772e-09
7.182542905e-09
7.796230342e-09
8.173908004e-09
5.303695375e-09
5.714326111e-09
6.327873016e-09
7.126956569e-09
8.078919147e-09
9.124141261e-09
1.016432705e-08
1.105434871e-08
1.160484812e-08
7.395894712e-09
7.970868889e-09
8.830744249e-09
9.951620597e-09
1.128749066e-08
1.275337139e-08
1.42090557e-08
1.544950543e-08
1.621239601e-08
1.025271353e-08
1.104407642e-08
1.222558586e-08
1.37608027e-08
1.558000579e-08
1.755638977e-08
1.948526263e-08
2.107810956e-08
2.19929448e-08
1.410559127e-08
1.516956035e-08
1.6749862e-08
1.8784893e-08
2.116007216e-08
2.367317336e-08
2.60052815e-08
2.771670984e-08
2.839466177e-08
1.921711759e-08
2.060461601e-08
2.264513309e-08
2.522819967e-08
2.815596549e-08
3.109110833e-08
3.351264666e-08
3.483513033e-08
3.52743778e-08
2.58466248e-08
2.758424519e-08
3.009642927e-08
3.318063951e-08
3.648890232e-08
3.944624673e-08
4.138637839e-08
4.23465265e-08
4.255633562e-08
3.41657741e-08
3.621943189e-08
3.910180219e-08
4.243393229e-08
4.560167064e-08
4.802491207e-08
4.955584941e-08
5.019957435e-08
5.020033122e-08
4.406770968e-08
4.62720144e-08
4.921090558e-08
5.211569339e-08
5.474560398e-08
5.676374613e-08
5.797543092e-08
5.83605529e-08
5.817993578e-08
5.473439427e-08
5.660278201e-08
5.903469671e-08
6.157541187e-08
6.387730037e-08
6.562680657e-08
6.661255689e-08
6.679973788e-08
6.646826248e-08
6.472735716e-08
6.639649972e-08
6.857360724e-08
7.089443149e-08
7.300799484e-08
7.459813601e-08
7.543862152e-08
7.548314534e-08
7.503049697e-08
7.428378009e-08
7.585197525e-08
7.79091023e-08
8.01232826e-08
8.214824142e-08
8.366076018e-08
8.441983293e-08
8.436835289e-08
8.382167697e-08
8.356356498e-08
8.509327071e-08
8.710958059e-08
8.929267077e-08
9.129662305e-08
9.278916008e-08
9.351467176e-08
9.340509181e-08
9.278865636e-08
9.266620068e-08
9.419412162e-08
9.621533233e-08
9.841326622e-08
1.004387501e-07
1.01949625e-07
1.02676168e-07
1.025388929e-07
1.018743587e-07
1.016462025e-07
1.031916767e-07
1.052418459e-07
1.074795717e-07
1.095509073e-07
1.111040832e-07
1.118561301e-07
1.117156177e-07
1.110224218e-07
1.105271742e-07
1.120983357e-07
1.141876126e-07
1.164761152e-07
1.186052064e-07
1.202146002e-07
1.210092579e-07
1.208853498e-07
1.201809779e-07
1.193137914e-07
1.209119324e-07
1.230419362e-07
1.253834514e-07
1.275742058e-07
1.292469877e-07
1.300960756e-07
1.300049415e-07
1.293050412e-07
1.280010094e-07
1.29623547e-07
1.317910148e-07
1.341826409e-07
1.364340568e-07
1.381729447e-07
1.390844083e-07
1.390391336e-07
1.383575108e-07
1.36580327e-07
1.382227132e-07
1.404218474e-07
1.428578805e-07
1.451660443e-07
1.469707812e-07
1.479495856e-07
1.479605133e-07
1.473090765e-07
1.450434439e-07
1.467003155e-07
1.489241942e-07
1.513975336e-07
1.537568259e-07
1.556250776e-07
1.566737559e-07
1.567486944e-07
1.561374058e-07
1.533839329e-07
1.550497455e-07
1.57291102e-07
1.597940332e-07
1.621978144e-07
1.641257009e-07
1.652447056e-07
1.653890885e-07
1.648259576e-07
1.615975962e-07
1.632669355e-07
1.655185449e-07
1.6804314e-07
1.704841237e-07
1.724665441e-07
1.736545045e-07
1.738715559e-07
1.733626896e-07
1.696820838e-07
1.713497888e-07
1.73604631e-07
1.761429363e-07
1.786133959e-07
1.806442508e-07
1.81898198e-07
1.821891239e-07
1.817388331e-07
1.776361955e-07
1.792973865e-07
1.815486952e-07
1.840928129e-07
1.865847101e-07
1.886570822e-07
1.899726704e-07
1.903368815e-07
1.899478318e-07
1.854591393e-07
1.871092035e-07
1.893504677e-07
1.918925964e-07
1.943976795e-07
1.965040007e-07
1.978757336e-07
1.983110891e-07
1.979844827e-07
1.931498931e-07
1.947844597e-07
1.970094129e-07
1.995418763e-07
2.020517712e-07
2.04183987e-07
2.056054458e-07
2.06108508e-07
2.058442805e-07
2.007067331e-07
2.023216502e-07
2.045242629e-07
2.070395414e-07
2.095458429e-07
2.11695573e-07
2.131596402e-07
2.137259254e-07
2.135229462e-07
2.081269352e-07
2.097182553e-07
2.118927358e-07
2.143835036e-07
2.168778661e-07
2.190365579e-07
2.205356283e-07
2.211598455e-07
2.210161105e-07
2.154066319e-07
2.169706055e-07
2.191114087e-07
2.21570575e-07
2.240448001e-07
2.26203871e-07
2.277300439e-07
2.284063129e-07
2.283191249e-07
2.225407929e-07
2.240738684e-07
2.261757106e-07
2.28596462e-07
2.310425799e-07
2.33193544e-07
2.347387939e-07
2.3546084e-07
2.3542697e-07
2.295232973e-07
2.31022126e-07
2.330800029e-07
2.35455844e-07
2.378661863e-07
2.400007652e-07
2.415570892e-07
2.423184113e-07
2.423342422e-07
2.363470704e-07
2.378085138e-07
2.398177195e-07
2.42142511e-07
2.44509774e-07
2.466199899e-07
2.481795313e-07
2.489735459e-07
2.490351961e-07
2.430042614e-07
2.444254001e-07
2.463815458e-07
2.48649538e-07
2.509668354e-07
2.530450888e-07
2.546002402e-07
2.554204013e-07
2.555238294e-07
2.494864444e-07
2.508645877e-07
2.527636193e-07
2.549694806e-07
2.572303884e-07
2.592695204e-07
2.608130069e-07
2.616529041e-07
2.617939978e-07
2.557848322e-07
2.571175273e-07
2.58955741e-07
2.610945823e-07
2.632931735e-07
2.652865159e-07
2.668114606e-07
2.676648997e-07
2.678395489e-07
2.618904908e-07
2.631755311e-07
2.649495873e-07
2.670169819e-07
2.69147854e-07
2.710892669e-07
2.725892435e-07
2.734503095e-07
2.736544663e-07
2.677945499e-07
2.69029983e-07
2.707369168e-07
2.727289152e-07
2.747872113e-07
2.76671112e-07
2.781401827e-07
2.790032896e-07
2.792330164e-07
2.734884025e-07
2.746725356e-07
2.763097663e-07
2.782229076e-07
2.802043301e-07
2.820257123e-07
2.834584559e-07
2.843183836e-07
2.845698915e-07
2.789638898e-07
2.80095295e-07
2.816606315e-07
2.834919499e-07
2.853927689e-07
2.871472137e-07
2.885387434e-07
2.893906647e-07
2.896603432e-07
2.842134693e-07
2.852909855e-07
2.867826291e-07
2.885296565e-07
2.903467115e-07
2.92030392e-07
2.933763647e-07
2.942158629e-07
2.945003022e-07
2.892303604e-07
2.902530942e-07
2.916696378e-07
2.93330401e-07
2.950610981e-07
2.966707765e-07
2.979673948e-07
2.987904735e-07
2.990864801e-07
2.940086681e-07
2.949759913e-07
2.963164156e-07
2.978894297e-07
2.995317323e-07
3.010647513e-07
3.023087585e-07
3.031118444e-07
3.034164519e-07
2.985434817e-07
2.99455027e-07
3.007186923e-07
3.022029497e-07
3.037553646e-07
3.052096331e-07
3.063983023e-07
3.071782423e-07
3.074887168e-07
3.028309487e-07
3.036866026e-07
3.048732378e-07
3.062681925e-07
3.077297515e-07
3.091037246e-07
3.102348425e-07
3.109888956e-07
3.113027375e-07
3.068683241e-07
3.076682175e-07
3.087779053e-07
3.100834534e-07
3.114536895e-07
3.12746345e-07
3.138181911e-07
3.145440156e-07
3.148589577e-07
3.106539948e-07
3.113984912e-07
3.124316505e-07
3.13648107e-07
3.149270278e-07
3.161378378e-07
3.171491596e-07
3.178447975e-07
3.181588005e-07
3.141874825e-07
3.148771644e-07
3.158345296e-07
3.169626019e-07
3.181506592e-07
3.192795585e-07
3.202295439e-07
3.208934012e-07
3.21204647e-07
3.174694246e-07
3.181050778e-07
3.189876763e-07
3.200284356e-07
3.211264919e-07
3.221738446e-07
3.230620912e-07
3.236929168e-07
3.239997993e-07
3.205015378e-07
3.210841349e-07
3.218932621e-07
3.228481119e-07
3.238574058e-07
3.248239689e-07
3.256504523e-07
3.262473145e-07
3.265484296e-07
3.232865653e-07
3.238172472e-07
3.24554441e-07
3.254250853e-07
3.263471944e-07
3.272340811e-07
3.279991213e-07
3.285613838e-07
3.288555178e-07
3.258282107e-07
3.26308269e-07
3.269752826e-07
3.27763692e-07
3.286004966e-07
3.294091384e-07
3.301133661e-07
3.306406626e-07
3.309267804e-07
3.28131063e-07
3.285619203e-07
3.291606953e-07
3.298690742e-07
3.306227193e-07
3.313548287e-07
3.319991515e-07
3.324913609e-07
3.327685929e-07
3.302005123e-07
3.30583704e-07
3.311163434e-07
3.317470965e-07
3.324199556e-07
3.330774885e-07
3.33663058e-07
3.341202787e-07
3.343879085e-07
3.32042662e-07
3.323798173e-07
3.328485593e-07
3.334042593e-07
3.339988983e-07
3.345840189e-07
3.351121977e-07
3.355347236e-07
3.357921748e-07
3.336642374e-07
3.339570617e-07
3.343642537e-07
3.348476103e-07
3.353667537e-07
3.358817992e-07
3.363541303e-07
3.367424271e-07
3.369892508e-07
3.350724945e-07
3.353227521e-07
3.356708269e-07
3.360846569e-07
3.365311545e-07
3.36978603e-07
3.373967802e-07
3.377514626e-07
3.379873249e-07
3.362751292e-07
3.364846274e-07
3.367760797e-07
3.371232793e-07
3.375000762e-07
3.378825159e-07
3.382483561e-07
3.385701663e-07
3.387948367e-07
3.372801904e-07
3.374507639e-07
3.376881295e-07
3.379716484e-07
3.382817566e-07
3.386018571e-07
3.389172746e-07
3.392070622e-07
3.394204025e-07
3.380959958e-07
3.382294933e-07
3.384153291e-07
3.386381467e-07
3.388846188e-07
3.391451057e-07
3.394120882e-07
3.396707918e-07
3.39872745e-07
3.387310536e-07
3.38829325e-07
3.389661913e-07
3.391312954e-07
3.393172011e-07
3.395208315e-07
3.39741419e-07
3.399700489e-07
3.401606293e-07
3.391939895e-07
3.392588746e-07
3.393493192e-07
3.394596861e-07
3.395880912e-07
3.397376331e-07
3.399138979e-07
3.401135202e-07
3.402928044e-07
3.394934797e-07
3.395267982e-07
3.39573342e-07
3.396319197e-07
3.397058673e-07
3.398040801e-07
3.399381094e-07
3.401098324e-07
3.402779505e-07
3.396381905e-07
3.396417328e-07
3.396468574e-07
3.396565508e-07
3.396790446e-07
3.397286628e-07
3.398225435e-07
3.399675044e-07
3.401246319e-07
3.396367239e-07
3.396122439e-07
3.39578381e-07
3.395420384e-07
3.395160287e-07
3.395197473e-07
3.395755521e-07
3.396949061e-07
3.398412573e-07
3.394975702e-07
3.394467786e-07
3.393763009e-07
3.392967032e-07
3.392250748e-07
3.39185537e-07
3.392053129e-07
3.393002228e-07
3.394360435e-07
3.392290662e-07
3.391536254e-07
3.390488387e-07
3.389286905e-07
3.388142522e-07
3.387340389e-07
3.38719797e-07
3.387914248e-07
3.389169872e-07
3.388393603e-07
3.387408795e-07
3.38604017e-07
3.384459387e-07
3.382914153e-07
3.381730364e-07
3.381267434e-07
3.381762428e-07
3.382918396e-07
3.383363819e-07
3.382164143e-07
3.380496311e-07
3.378561531e-07
3.376641788e-07
3.375100663e-07
3.374336375e-07
3.37462147e-07
3.375680871e-07
3.377278175e-07
3.375878571e-07
3.373932272e-07
3.371667854e-07
3.369398983e-07
3.367524006e-07
3.366476944e-07
3.366563321e-07
3.367529362e-07
3.370210908e-07
3.368625707e-07
3.366420838e-07
3.363850163e-07
3.36125655e-07
3.359070328e-07
3.357758459e-07
3.357657051e-07
3.358533021e-07
3.362233473e-07
3.360476388e-07
3.358031989e-07
3.355177438e-07
3.352282447e-07
3.34980668e-07
3.34824732e-07
3.347968772e-07
3.34875801e-07
3.353414435e-07
3.351498552e-07
3.348832795e-07
3.345715739e-07
3.342541699e-07
3.339797161e-07
3.338006951e-07
3.337561588e-07
3.338267457e-07
3.343819391e-07
3.34175717e-07
3.338887358e-07
3.335528156e-07
3.332096351e-07
3.32910288e-07
3.327097771e-07
3.326495579e-07
3.327121438e-07
3.333510927e-07
3.331314203e-07
3.32825678e-07
3.324674779e-07
3.321005458e-07
3.317781955e-07
3.315577193e-07
3.314827799e-07
3.315376986e-07
3.322548603e-07
3.320228596e-07
3.316999152e-07
3.313212706e-07
3.309325085e-07
3.305889519e-07
3.303499649e-07
3.302612308e-07
3.303088121e-07
3.310988959e-07
3.308556288e-07
3.305169575e-07
3.301196055e-07
3.297108341e-07
3.293477758e-07
3.290916623e-07
3.289900211e-07
3.290305894e-07
3.298885551e-07
3.296350241e-07
3.292820194e-07
3.288676014e-07
3.284405421e-07
3.280595963e-07
3.277876711e-07
3.276739722e-07
3.277078451e-07
3.286288992e-07
3.283660497e-07
3.280000251e-07
3.275700894e-07
3.271263667e-07
3.267290592e-07
3.26442569e-07
3.263176231e-07
3.263451107e-07
3.273247019e-07
3.270534232e-07
3.266756156e-07
3.262316197e-07
3.257727644e-07
3.253605349e-07
3.250606595e-07
3.249252393e-07
3.249466431e-07
3.259804563e-07
3.257015844e-07
3.253131556e-07
3.248564699e-07
3.243839221e-07
3.239581267e-07
3.236459808e-07
3.235008212e-07
3.235164338e-07
3.24600384e-07
3.243147029e-07
3.239167433e-07
3.234486537e-07
3.229637659e-07
3.225256804e-07
3.222023155e-07
3.220481141e-07
3.220582187e-07
3.231884436e-07
3.228966879e-07
3.224902188e-07
3.220119307e-07
3.215159713e-07
3.210667937e-07
3.207332003e-07
3.205706187e-07
3.205754884e-07
3.217483413e-07
3.214511978e-07
3.210371748e-07
3.20549816e-07
3.200439728e-07
3.195848268e-07
3.192419365e-07
3.190716007e-07
3.190714987e-07
3.202835402e-07
3.199816505e-07
3.195609663e-07
3.190655908e-07
3.185509747e-07
3.180829125e-07
3.177316004e-07
3.175541023e-07
3.175492817e-07
3.187972715e-07
3.184912342e-07
3.180647213e-07
3.175623127e-07
3.170399612e-07
3.16563967e-07
3.162050539e-07
3.160209523e-07
3.160116559e-07
3.17292545e-07
3.169829173e-07
3.165513515e-07
3.160428264e-07
3.155137071e-07
3.150307003e-07
3.146649553e-07
3.144747771e-07
3.144612375e-07
3.157721593e-07
3.154594598e-07
3.150235627e-07
3.145097743e-07
3.139747885e-07
3.134856268e-07
3.131137697e-07
3.129180109e-07
3.12900451e-07
3.142387132e-07
3.139234234e-07
3.134838656e-07
3.12965607e-07
3.124255931e-07
3.119310757e-07
3.115537793e-07
3.113529067e-07
3.113315391e-07
3.126946155e-07
3.123771823e-07
3.119345859e-07
3.114125932e-07
3.108683304e-07
3.103692012e-07
3.099870934e-07
3.097815458e-07
3.097565737e-07
3.111420957e-07
3.10822933e-07
3.103778748e-07
3.098528306e-07
3.093050418e-07
3.088019921e-07
3.084156588e-07
3.082058481e-07
3.081774652e-07
3.095832141e-07
3.092627051e-07
3.088157185e-07
3.082882548e-07
3.077376101e-07
3.07231282e-07
3.068412691e-07
3.066275816e-07
3.065959725e-07
3.080198716e-07
3.076983701e-07
3.072499484e-07
3.067206498e-07
3.061677695e-07
3.056587585e-07
3.052655739e-07
3.050483717e-07
3.050137121e-07
3.064538189e-07
3.061316516e-07
3.056822503e-07
3.051516566e-07
3.045971142e-07
3.040859719e-07
3.036900881e-07
3.034697104e-07
3.034321674e-07
3.048866663e-07
3.045641342e-07
3.04114173e-07
3.035827822e-07
3.030271075e-07
3.025143443e-07
3.021162001e-07
3.018929645e-07
3.018526969e-07
3.03319892e-07
3.029972724e-07
3.025471377e-07
3.020154086e-07
3.014590901e-07
3.00945178e-07
3.005451806e-07
3.003193839e-07
3.002765427e-07
3.017548512e-07
3.014323985e-07
3.009824458e-07
3.004508006e-07
2.998942883e-07
2.99379663e-07
2.989781901e-07
2.987501097e-07
2.987048383e-07
3.001927833e-07
2.998707315e-07
2.99421287e-07
2.988901136e-07
2.983338217e-07
2.978188852e-07
2.974162866e-07
2.971861817e-07
2.971386159e-07
2.986348206e-07
2.98313384e-07
2.97864747e-07
2.973344013e-07
2.967787104e-07
2.962638328e-07
2.958604324e-07
2.956285445e-07
2.955788133e-07
2.970819951e-07
2.967613697e-07
2.963138142e-07
2.957846224e-07
2.952298817e-07
2.947154037e-07
2.943115006e-07
2.94078055e-07
2.9402628e-07
2.955352449e-07
2.952156102e-07
2.947693866e-07
2.942416471e-07
2.936881765e-07
2.93174411e-07
2.927702809e-07
2.925354868e-07
2.92481783e-07
2.939954213e-07
2.936769405e-07
2.932322774e-07
2.927062628e-07
2.921543547e-07
2.916415879e-07
2.912374846e-07
2.910015355e-07
2.909460103e-07
2.924632931e-07
2.921461151e-07
2.917032204e-07
2.911791786e-07
2.906290993e-07
2.901175927e-07
2.89713748e-07
2.894768218e-07
2.894195749e-07
2.909395519e-07
2.906238114e-07
2.901828736e-07
2.896610292e-07
2.891130201e-07
2.886030103e-07
2.881996345e-07
2.879618926e-07
2.879030147e-07
2.894248142e-07
2.891106329e-07
2.886718216e-07
2.881523769e-07
2.876066546e-07
2.870983538e-07
2.866956345e-07
2.864572204e-07
2.863967915e-07
2.879196236e-07
2.876071098e-07
2.871705764e-07
2.866537109e-07
2.861104673e-07
2.856040619e-07
2.852021624e-07
2.849631988e-07
2.849012855e-07
2.864244484e-07
2.861136976e-07
2.856795745e-07
2.851654446e-07
2.846248449e-07
2.841204933e-07
2.837195492e-07
2.834801341e-07
2.834167861e-07
2.849396778e-07
2.846307715e-07
2.84199171e-07
2.836879078e-07
2.83150088e-07
2.826479167e-07
2.822480306e-07
2.820082314e-07
2.819434762e-07
2.834656125e-07
2.831586167e-07
2.827296286e-07
2.822213342e-07
2.816863963e-07
2.811864935e-07
2.80787728e-07
2.805475736e-07
2.804814099e-07
2.820024498e-07
2.816974125e-07
2.812710999e-07
2.807658421e-07
2.802338465e-07
2.797362536e-07
2.793386212e-07
2.790980919e-07
2.79030482e-07
2.805502616e-07
2.802472087e-07
2.798236021e-07
2.793214061e-07
2.787923618e-07
2.782970615e-07
2.779005115e-07
2.776595261e-07
2.775903859e-07
2.791089629e-07
2.788078929e-07
2.783869815e-07
2.778878183e-07
2.773616691e-07
2.768685695e-07
2.764729716e-07
2.762313725e-07
2.761605613e-07
2.7767827e-07
2.773791458e-07
2.769608656e-07
2.764646372e-07
2.759412432e-07
2.75450158e-07
2.750552827e-07
2.748128183e-07
2.747401271e-07
2.76257645e-07
2.759603834e-07
2.755446023e-07
2.750511215e-07
2.745302362e-07
2.7404086e-07
2.736463542e-07
2.734026595e-07
2.733278e-07
2.748462259e-07
2.745506843e-07
2.741371818e-07
2.736461474e-07
2.731273889e-07
2.726392671e-07
2.722446273e-07
2.719992034e-07
2.719217977e-07
2.734427405e-07
2.731487003e-07
2.727371429e-07
2.722481087e-07
2.717309249e-07
2.712434189e-07
2.708479601e-07
2.70600153e-07
2.705197255e-07
2.720454037e-07
2.717525491e-07
2.713424609e-07
2.708547984e-07
2.703384259e-07
2.698506721e-07
2.694534944e-07
2.692024745e-07
2.69118447e-07
2.706517971e-07
2.70359691e-07
2.69950418e-07
2.694632733e-07
2.689466898e-07
2.684575547e-07
2.680575068e-07
2.678022501e-07
2.67713942e-07
2.692587337e-07
2.689667892e-07
2.685574586e-07
2.680697027e-07
2.67551574e-07
2.67059604e-07
2.666552468e-07
2.663945189e-07
2.663011524e-07
2.678621094e-07
2.675695577e-07
2.671590326e-07
2.666692067e-07
2.661478282e-07
2.65651197e-07
2.652407662e-07
2.649731103e-07
2.648738222e-07
2.664567451e-07
2.661626011e-07
2.657494312e-07
2.652556874e-07
2.647289231e-07
2.642253773e-07
2.638067479e-07
2.635304781e-07
2.634243387e-07
2.65036227e-07
2.647392522e-07
2.643216225e-07
2.638216635e-07
2.632868831e-07
2.627736887e-07
2.623443427e-07
2.620575432e-07
2.619435824e-07
2.635927505e-07
2.632914166e-07
2.628670957e-07
2.623581143e-07
2.618121329e-07
2.612860252e-07
2.608430254e-07
2.605435572e-07
2.60420797e-07
2.621169787e-07
2.618094323e-07
2.613757239e-07
2.608543472e-07
2.602933703e-07
2.597505111e-07
2.592904823e-07
2.589759985e-07
2.588434924e-07
2.605979254e-07
2.602819566e-07
2.59835657e-07
2.592978982e-07
2.587174767e-07
2.581534232e-07
2.57672546e-07
2.573405159e-07
2.571973944e-07
2.590228719e-07
2.586958906e-07
2.582332568e-07
2.576744811e-07
2.570694819e-07
2.564791708e-07
2.559731893e-07
2.556209358e-07
2.554664575e-07
2.573773316e-07
2.570363534e-07
2.565530856e-07
2.559679948e-07
2.553325933e-07
2.547103485e-07
2.541745986e-07
2.537993483e-07
2.536329564e-07
2.55645072e-07
2.552867182e-07
2.547779634e-07
2.541606056e-07
2.53488307e-07
2.528278753e-07
2.522573388e-07
2.518562897e-07
2.516776753e-07
2.538082075e-07
2.534287223e-07
2.528891028e-07
2.52232915e-07
2.515166114e-07
2.508112366e-07
2.502006273e-07
2.49771039e-07
2.495802113e-07
2.51847373e-07
2.514426628e-07
2.508663365e-07
2.501642265e-07