/*--------------------------------*- C++ -*----------------------------------*\
| =========                 |                                                 |
| \\      /  F ield         | OpenFOAM: The Open Source CFD Toolbox           |
|  \\    /   O peration     | Version:  2212                                  |
|   \\  /    A nd           | Website:  www.openfoam.com                      |
|    \\/     M anipulation  |                                                 |
\*---------------------------------------------------------------------------*/
FoamFile
{
    version     2.0;
    format      ascii;
    arch        "LSB;label=32;scalar=64";
    class       volScalarField;
    location    "20.00000000";
    object      p;
}
// * * * * * * * * * * * * * * * * * * * * * * * * * * * * * * * * * * * * * //

dimensions      [1 -1 -2 0 0 0 0];

internalField   nonuniform List<scalar> 
3000
(
3000.52603
3000.526094
3000.526239
3000.526446
3000.526783
3000.52724
3000.528085
3000.528997
3000.532033
3000.525978
3000.525999
3000.526081
3000.526176
3000.526316
3000.526447
3000.526712
3000.526762
3000.527078
3000.525875
3000.525883
3000.525953
3000.526025
3000.526127
3000.526237
3000.526377
3000.526386
3000.526499
3000.525562
3000.525536
3000.525558
3000.525563
3000.525582
3000.525578
3000.525589
3000.525543
3000.525483
3000.525271
3000.525239
3000.525247
3000.525238
3000.525237
3000.525226
3000.52522
3000.525185
3000.525133
3000.524896
3000.524859
3000.524854
3000.524831
3000.524814
3000.524791
3000.524772
3000.524743
3000.5247
3000.524562
3000.52453
3000.524523
3000.524502
3000.524486
3000.524469
3000.524453
3000.524433
3000.524404
3000.524215
3000.524188
3000.524181
3000.524162
3000.524148
3000.524133
3000.524121
3000.524107
3000.524087
3000.523899
3000.523878
3000.523872
3000.523858
3000.523848
3000.523838
3000.523829
3000.523819
3000.523806
3000.523588
3000.523572
3000.523567
3000.523557
3000.52355
3000.523542
3000.523536
3000.52353
3000.523521
3000.523293
3000.523282
3000.523279
3000.523272
3000.523267
3000.523262
3000.523257
3000.523253
3000.523247
3000.523006
3000.522997
3000.522995
3000.52299
3000.522987
3000.522983
3000.52298
3000.522977
3000.522973
3000.522726
3000.52272
3000.522719
3000.522715
3000.522713
3000.522711
3000.522709
3000.522707
3000.522704
3000.52245
3000.522446
3000.522445
3000.522443
3000.522441
3000.52244
3000.522438
3000.522437
3000.522435
3000.522179
3000.522176
3000.522175
3000.522173
3000.522173
3000.522171
3000.522171
3000.52217
3000.522168
3000.521909
3000.521907
3000.521907
3000.521906
3000.521905
3000.521904
3000.521904
3000.521903
3000.521902
3000.521642
3000.52164
3000.52164
3000.521639
3000.521639
3000.521638
3000.521638
3000.521637
3000.521637
3000.521375
3000.521374
3000.521374
3000.521374
3000.521373
3000.521373
3000.521373
3000.521372
3000.521372
3000.52111
3000.521109
3000.521109
3000.521109
3000.521109
3000.521109
3000.521108
3000.521108
3000.521107
3000.520845
3000.520844
3000.520845
3000.520844
3000.520844
3000.520844
3000.520844
3000.520844
3000.520843
3000.520581
3000.52058
3000.52058
3000.52058
3000.52058
3000.52058
3000.52058
3000.52058
3000.520579
3000.520316
3000.520316
3000.520316
3000.520316
3000.520316
3000.520316
3000.520316
3000.520316
3000.520315
3000.520052
3000.520052
3000.520052
3000.520052
3000.520052
3000.520052
3000.520052
3000.520052
3000.520051
3000.519787
3000.519787
3000.519787
3000.519788
3000.519788
3000.519788
3000.519788
3000.519787
3000.519786
3000.519521
3000.519522
3000.519522
3000.519523
3000.519523
3000.519523
3000.519523
3000.519522
3000.51952
3000.519255
3000.519255
3000.519256
3000.519257
3000.519257
3000.519257
3000.519257
3000.519256
3000.519254
3000.518987
3000.518988
3000.518989
3000.518989
3000.51899
3000.51899
3000.51899
3000.518989
3000.518985
3000.518717
3000.518718
3000.518719
3000.51872
3000.518721
3000.518721
3000.51872
3000.51872
3000.518715
3000.518445
3000.518446
3000.518447
3000.518449
3000.51845
3000.51845
3000.518449
3000.518448
3000.518441
3000.518169
3000.51817
3000.518172
3000.518173
3000.518175
3000.518175
3000.518174
3000.518173
3000.518163
3000.517889
3000.51789
3000.517892
3000.517894
3000.517895
3000.517896
3000.517894
3000.517892
3000.517881
3000.517603
3000.517604
3000.517607
3000.517609
3000.51761
3000.517611
3000.517608
3000.517606
3000.517592
3000.51731
3000.517311
3000.517314
3000.517317
3000.517318
3000.517319
3000.517315
3000.517313
3000.517295
3000.517008
3000.517009
3000.517013
3000.517016
3000.517018
3000.517018
3000.517013
3000.51701
3000.516988
3000.516696
3000.516697
3000.516701
3000.516704
3000.516706
3000.516706
3000.5167
3000.516696
3000.516669
3000.516372
3000.516373
3000.516377
3000.51638
3000.516382
3000.516381
3000.516373
3000.516368
3000.516337
3000.516033
3000.516034
3000.516038
3000.516041
3000.516042
3000.516041
3000.516031
3000.516025
3000.515988
3000.515677
3000.515678
3000.515682
3000.515685
3000.515685
3000.515683
3000.515671
3000.515663
3000.515621
3000.515302
3000.515302
3000.515307
3000.515309
3000.515308
3000.515304
3000.51529
3000.51528
3000.515232
3000.514904
3000.514905
3000.514908
3000.51491
3000.514907
3000.514902
3000.514885
3000.514872
3000.514818
3000.514482
3000.514482
3000.514485
3000.514485
3000.514481
3000.514473
3000.514453
3000.514438
3000.514378
3000.514031
3000.51403
3000.514032
3000.514031
3000.514025
3000.514014
3000.513991
3000.513974
3000.513907
3000.51355
3000.513548
3000.513548
3000.513545
3000.513536
3000.513523
3000.513497
3000.513476
3000.513403
3000.513034
3000.513031
3000.513029
3000.513023
3000.513012
3000.512995
3000.512966
3000.512942
3000.512863
3000.51248
3000.512476
3000.512472
3000.512464
3000.512449
3000.512429
3000.512396
3000.512369
3000.512284
3000.511886
3000.51188
3000.511874
3000.511862
3000.511844
3000.51182
3000.511783
3000.511753
3000.511663
3000.511248
3000.51124
3000.511231
3000.511216
3000.511194
3000.511167
3000.511126
3000.511093
3000.510996
3000.510563
3000.510553
3000.510541
3000.510522
3000.510497
3000.510465
3000.51042
3000.510384
3000.510283
3000.509828
3000.509816
3000.509801
3000.509778
3000.509749
3000.509713
3000.509664
3000.509625
3000.509519
3000.50904
3000.509027
3000.509008
3000.508982
3000.508948
3000.508908
3000.508856
3000.508814
3000.508704
3000.508197
3000.508182
3000.50816
3000.50813
3000.508092
3000.508048
3000.507992
3000.507948
3000.507834
3000.507298
3000.50728
3000.507255
3000.507221
3000.507179
3000.507131
3000.507072
3000.507026
3000.506909
3000.506339
3000.50632
3000.50629
3000.506253
3000.506207
3000.506156
3000.506095
3000.506045
3000.505927
3000.50532
3000.505298
3000.505266
3000.505225
3000.505176
3000.505121
3000.505057
3000.505005
3000.504886
3000.504239
3000.504216
3000.50418
3000.504136
3000.504084
3000.504026
3000.50396
3000.503906
3000.503785
3000.503095
3000.50307
3000.503032
3000.502985
3000.50293
3000.502869
3000.502802
3000.502746
3000.502625
3000.501888
3000.501862
3000.501821
3000.501772
3000.501714
3000.501651
3000.501582
3000.501525
3000.501404
3000.500618
3000.50059
3000.500548
3000.500496
3000.500436
3000.500372
3000.500302
3000.500243
3000.500122
3000.499284
3000.499256
3000.499212
3000.499158
3000.499097
3000.499031
3000.49896
3000.4989
3000.498781
3000.497888
3000.497859
3000.497814
3000.497758
3000.497696
3000.497629
3000.497557
3000.497497
3000.497379
3000.49643
3000.4964
3000.496354
3000.496298
3000.496234
3000.496166
3000.496095
3000.496034
3000.495918
3000.49491
3000.494881
3000.494833
3000.494777
3000.494712
3000.494644
3000.494573
3000.494513
3000.494399
3000.493331
3000.493301
3000.493254
3000.493196
3000.493132
3000.493064
3000.492993
3000.492933
3000.492822
3000.491693
3000.491663
3000.491615
3000.491558
3000.491494
3000.491426
3000.491356
3000.491297
3000.491188
3000.489998
3000.489968
3000.489921
3000.489864
3000.4898
3000.489733
3000.489664
3000.489605
3000.489499
3000.488247
3000.488218
3000.488171
3000.488114
3000.488051
3000.487985
3000.487917
3000.48786
3000.487757
3000.486443
3000.486414
3000.486367
3000.486312
3000.48625
3000.486184
3000.486118
3000.486062
3000.485963
3000.484586
3000.484558
3000.484512
3000.484458
3000.484397
3000.484333
3000.484268
3000.484213
3000.484117
3000.48268
3000.482652
3000.482607
3000.482554
3000.482494
3000.482432
3000.482369
3000.482316
3000.482223
3000.480725
3000.480698
3000.480654
3000.480602
3000.480544
3000.480483
3000.480422
3000.480371
3000.480282
3000.478724
3000.478698
3000.478655
3000.478605
3000.478548
3000.478489
3000.47843
3000.478381
3000.478295
3000.476679
3000.476653
3000.476612
3000.476563
3000.476509
3000.476451
3000.476394
3000.476346
3000.476265
3000.474591
3000.474567
3000.474527
3000.47448
3000.474427
3000.474372
3000.474317
3000.474271
3000.474192
3000.472463
3000.47244
3000.472401
3000.472356
3000.472305
3000.472252
3000.472199
3000.472154
3000.47208
3000.470297
3000.470274
3000.470237
3000.470193
3000.470144
3000.470093
3000.470043
3000.47
3000.469929
3000.468094
3000.468072
3000.468037
3000.467994
3000.467947
3000.467898
3000.46785
3000.467809
3000.467741
3000.465856
3000.465835
3000.465801
3000.465761
3000.465716
3000.465669
3000.465622
3000.465584
3000.465519
3000.463585
3000.463565
3000.463533
3000.463494
3000.463451
3000.463406
3000.463362
3000.463325
3000.463264
3000.461283
3000.461264
3000.461233
3000.461196
3000.461155
3000.461112
3000.46107
3000.461035
3000.460977
3000.458951
3000.458933
3000.458904
3000.458869
3000.458829
3000.458789
3000.458748
3000.458715
3000.45866
3000.456592
3000.456575
3000.456546
3000.456513
3000.456476
3000.456437
3000.456399
3000.456367
3000.456315
3000.454206
3000.454189
3000.454163
3000.454131
3000.454095
3000.454058
3000.454022
3000.453992
3000.453943
3000.451795
3000.451779
3000.451754
3000.451724
3000.45169
3000.451655
3000.451621
3000.451592
3000.451546
3000.44936
3000.449345
3000.449321
3000.449293
3000.449261
3000.449228
3000.449195
3000.449168
3000.449124
3000.446904
3000.44689
3000.446867
3000.44684
3000.446809
3000.446778
3000.446747
3000.446722
3000.446681
3000.444426
3000.444413
3000.444391
3000.444366
3000.444337
3000.444307
3000.444278
3000.444254
3000.444215
3000.441929
3000.441917
3000.441896
3000.441872
3000.441845
3000.441817
3000.441789
3000.441767
3000.44173
3000.439414
3000.439402
3000.439383
3000.43936
3000.439334
3000.439308
3000.439282
3000.43926
3000.439226
3000.436881
3000.43687
3000.436851
3000.43683
3000.436806
3000.436781
3000.436756
3000.436736
3000.436704
3000.434332
3000.434321
3000.434304
3000.434284
3000.434261
3000.434237
3000.434214
3000.434195
3000.434165
3000.431767
3000.431757
3000.431741
3000.431722
3000.431701
3000.431678
3000.431657
3000.431639
3000.431611
3000.429189
3000.429179
3000.429164
3000.429146
3000.429126
3000.429105
3000.429085
3000.429068
3000.429041
3000.426597
3000.426588
3000.426574
3000.426557
3000.426538
3000.426518
3000.426499
3000.426483
3000.426458
3000.423992
3000.423984
3000.42397
3000.423954
3000.423937
3000.423918
3000.4239
3000.423885
3000.423862
3000.421376
3000.421368
3000.421355
3000.42134
3000.421323
3000.421306
3000.421289
3000.421275
3000.421253
3000.418748
3000.418741
3000.418729
3000.418715
3000.418699
3000.418683
3000.418667
3000.418654
3000.418634
3000.416111
3000.416104
3000.416093
3000.416079
3000.416065
3000.416049
3000.416034
3000.416022
3000.416003
3000.413463
3000.413457
3000.413447
3000.413434
3000.41342
3000.413406
3000.413392
3000.41338
3000.413362
3000.410807
3000.410801
3000.410791
3000.41078
3000.410766
3000.410753
3000.41074
3000.410729
3000.410712
3000.408142
3000.408137
3000.408128
3000.408116
3000.408104
3000.408092
3000.408079
3000.408069
3000.408054
3000.40547
3000.405465
3000.405456
3000.405445
3000.405434
3000.405422
3000.405411
3000.405401
3000.405387
3000.40279
3000.402785
3000.402777
3000.402767
3000.402756
3000.402745
3000.402734
3000.402726
3000.402712
3000.400103
3000.400098
3000.400091
3000.400082
3000.400072
3000.400061
3000.400051
3000.400043
3000.40003
3000.39741
3000.397406
3000.397398
3000.39739
3000.39738
3000.397371
3000.397361
3000.397354
3000.397342
3000.394711
3000.394707
3000.3947
3000.394692
3000.394683
3000.394674
3000.394665
3000.394658
3000.394647
3000.392006
3000.392002
3000.391996
3000.391988
3000.39198
3000.391972
3000.391963
3000.391957
3000.391946
3000.389296
3000.389293
3000.389287
3000.38928
3000.389272
3000.389264
3000.389256
3000.38925
3000.389241
3000.386581
3000.386578
3000.386573
3000.386566
3000.386559
3000.386551
3000.386544
3000.386538
3000.386529
3000.383862
3000.383859
3000.383854
3000.383848
3000.383841
3000.383834
3000.383827
3000.383822
3000.383814
3000.381139
3000.381136
3000.381131
3000.381125
3000.381119
3000.381112
3000.381106
3000.381101
3000.381094
3000.378412
3000.378409
3000.378404
3000.378399
3000.378393
3000.378387
3000.378381
3000.378376
3000.378369
3000.375681
3000.375678
3000.375674
3000.375669
3000.375663
3000.375658
3000.375652
3000.375648
3000.375641
3000.372947
3000.372944
3000.37294
3000.372936
3000.37293
3000.372925
3000.37292
3000.372916
3000.37291
3000.370209
3000.370207
3000.370203
3000.370199
3000.370194
3000.370189
3000.370185
3000.370181
3000.370175
3000.367469
3000.367467
3000.367464
3000.36746
3000.367455
3000.36745
3000.367446
3000.367443
3000.367437
3000.364726
3000.364724
3000.364721
3000.364717
3000.364713
3000.364709
3000.364705
3000.364702
3000.364697
3000.361981
3000.361979
3000.361976
3000.361973
3000.361969
3000.361965
3000.361961
3000.361958
3000.361954
3000.359234
3000.359232
3000.359229
3000.359226
3000.359222
3000.359218
3000.359215
3000.359212
3000.359208
3000.356484
3000.356482
3000.35648
3000.356477
3000.356473
3000.35647
3000.356467
3000.356464
3000.35646
3000.353732
3000.353731
3000.353729
3000.353726
3000.353723
3000.353719
3000.353716
3000.353714
3000.353711
3000.350979
3000.350978
3000.350975
3000.350973
3000.35097
3000.350967
3000.350964
3000.350962
3000.350959
3000.348224
3000.348223
3000.348221
3000.348218
3000.348216
3000.348213
3000.34821
3000.348208
3000.348205
3000.345468
3000.345467
3000.345465
3000.345462
3000.34546
3000.345457
3000.345455
3000.345453
3000.34545
3000.34271
3000.342709
3000.342707
3000.342705
3000.342703
3000.3427
3000.342698
3000.342696
3000.342694
3000.339951
3000.33995
3000.339948
3000.339946
3000.339944
3000.339942
3000.33994
3000.339938
3000.339936
3000.337191
3000.33719
3000.337188
3000.337186
3000.337184
3000.337182
3000.337181
3000.337179
3000.337177
3000.334429
3000.334429
3000.334427
3000.334425
3000.334424
3000.334422
3000.33442
3000.334419
3000.334417
3000.331667
3000.331666
3000.331665
3000.331664
3000.331662
3000.33166
3000.331659
3000.331657
3000.331656
3000.328904
3000.328903
3000.328902
3000.328901
3000.328899
3000.328898
3000.328896
3000.328895
3000.328894
3000.32614
3000.32614
3000.326139
3000.326137
3000.326136
3000.326134
3000.326133
3000.326132
3000.326131
3000.323376
3000.323375
3000.323374
3000.323373
3000.323372
3000.32337
3000.323369
3000.323368
3000.323367
3000.320611
3000.32061
3000.320609
3000.320608
3000.320607
3000.320606
3000.320605
3000.320604
3000.320603
3000.317845
3000.317845
3000.317844
3000.317843
3000.317842
3000.317841
3000.31784
3000.317839
3000.317838
3000.315079
3000.315079
3000.315078
3000.315077
3000.315076
3000.315075
3000.315074
3000.315073
3000.315073
3000.312312
3000.312312
3000.312311
3000.31231
3000.31231
3000.312309
3000.312308
3000.312307
3000.312307
3000.309546
3000.309545
3000.309544
3000.309544
3000.309543
3000.309542
3000.309541
3000.309541
3000.30954
3000.306778
3000.306778
3000.306777
3000.306777
3000.306776
3000.306775
3000.306775
3000.306774
3000.306774
3000.304011
3000.30401
3000.30401
3000.304009
3000.304009
3000.304008
3000.304007
3000.304007
3000.304007
3000.301243
3000.301243
3000.301242
3000.301242
3000.301241
3000.30124
3000.30124
3000.30124
3000.301239
3000.298475
3000.298475
3000.298474
3000.298474
3000.298473
3000.298473
3000.298472
3000.298472
3000.298472
3000.295707
3000.295707
3000.295706
3000.295706
3000.295705
3000.295705
3000.295705
3000.295704
3000.295704
3000.292939
3000.292939
3000.292938
3000.292938
3000.292937
3000.292937
3000.292937
3000.292937
3000.292936
3000.290171
3000.29017
3000.29017
3000.29017
3000.290169
3000.290169
3000.290169
3000.290169
3000.290168
3000.287402
3000.287402
3000.287402
3000.287401
3000.287401
3000.287401
3000.287401
3000.287401
3000.287401
3000.284634
3000.284634
3000.284634
3000.284633
3000.284633
3000.284633
3000.284633
3000.284632
3000.284633
3000.281866
3000.281865
3000.281865
3000.281865
3000.281865
3000.281865
3000.281864
3000.281864
3000.281864
3000.279097
3000.279097
3000.279097
3000.279097
3000.279097
3000.279096
3000.279096
3000.279096
3000.279096
3000.276329
3000.276329
3000.276329
3000.276329
3000.276329
3000.276328
3000.276328
3000.276328
3000.276329
3000.273561
3000.273561
3000.273561
3000.273561
3000.27356
3000.27356
3000.27356
3000.27356
3000.273561
3000.270793
3000.270793
3000.270793
3000.270793
3000.270793
3000.270793
3000.270793
3000.270793
3000.270793
3000.268025
3000.268025
3000.268025
3000.268025
3000.268025
3000.268025
3000.268025
3000.268025
3000.268025
3000.265257
3000.265257
3000.265257
3000.265257
3000.265257
3000.265257
3000.265257
3000.265257
3000.265257
3000.26249
3000.26249
3000.26249
3000.262489
3000.262489
3000.26249
3000.26249
3000.26249
3000.26249
3000.259722
3000.259722
3000.259722
3000.259722
3000.259722
3000.259722
3000.259722
3000.259722
3000.259723
3000.256955
3000.256955
3000.256955
3000.256955
3000.256955
3000.256955
3000.256955
3000.256955
3000.256956
3000.254188
3000.254188
3000.254188
3000.254188
3000.254188
3000.254188
3000.254188
3000.254188
3000.254189
3000.251421
3000.251421
3000.251421
3000.251421
3000.251421
3000.251421
3000.251421
3000.251421
3000.251422
3000.248654
3000.248654
3000.248654
3000.248654
3000.248654
3000.248655
3000.248655
3000.248655
3000.248655
3000.245888
3000.245888
3000.245888
3000.245888
3000.245888
3000.245888
3000.245888
3000.245889
3000.245889
3000.243122
3000.243122
3000.243122
3000.243122
3000.243122
3000.243122
3000.243122
3000.243122
3000.243123
3000.240356
3000.240356
3000.240356
3000.240356
3000.240356
3000.240356
3000.240356
3000.240357
3000.240357
3000.23759
3000.23759
3000.23759
3000.23759
3000.23759
3000.23759
3000.237591
3000.237591
3000.237591
3000.234824
3000.234824
3000.234825
3000.234825
3000.234825
3000.234825
3000.234825
3000.234826
3000.234826
3000.232059
3000.232059
3000.232059
3000.232059
3000.23206
3000.23206
3000.23206
3000.23206
3000.232061
3000.229294
3000.229294
3000.229294
3000.229295
3000.229295
3000.229295
3000.229295
3000.229296
3000.229296
3000.22653
3000.22653
3000.22653
3000.22653
3000.22653
3000.22653
3000.226531
3000.226531
3000.226532
3000.223765
3000.223765
3000.223765
3000.223766
3000.223766
3000.223766
3000.223766
3000.223767
3000.223767
3000.221001
3000.221001
3000.221001
3000.221002
3000.221002
3000.221002
3000.221002
3000.221003
3000.221003
3000.218237
3000.218237
3000.218238
3000.218238
3000.218238
3000.218238
3000.218239
3000.218239
3000.218239
3000.215474
3000.215474
3000.215474
3000.215474
3000.215475
3000.215475
3000.215475
3000.215475
3000.215476
3000.212711
3000.212711
3000.212711
3000.212711
3000.212711
3000.212712
3000.212712
3000.212712
3000.212713
3000.209948
3000.209948
3000.209948
3000.209948
3000.209948
3000.209949
3000.209949
3000.209949
3000.20995
3000.207185
3000.207185
3000.207185
3000.207186
3000.207186
3000.207186
3000.207187
3000.207187
3000.207187
3000.204423
3000.204423
3000.204423
3000.204423
3000.204424
3000.204424
3000.204424
3000.204425
3000.204425
3000.201661
3000.201661
3000.201661
3000.201661
3000.201662
3000.201662
3000.201662
3000.201663
3000.201663
3000.198899
3000.198899
3000.1989
3000.1989
3000.1989
3000.1989
3000.198901
3000.198901
3000.198902
3000.196138
3000.196138
3000.196138
3000.196138
3000.196139
3000.196139
3000.196139
3000.19614
3000.19614
3000.193377
3000.193377
3000.193377
3000.193377
3000.193378
3000.193378
3000.193378
3000.193379
3000.193379
3000.190616
3000.190616
3000.190616
3000.190617
3000.190617
3000.190617
3000.190618
3000.190618
3000.190618
3000.187856
3000.187856
3000.187856
3000.187856
3000.187856
3000.187857
3000.187857
3000.187857
3000.187858
3000.185096
3000.185096
3000.185096
3000.185096
3000.185096
3000.185097
3000.185097
3000.185097
3000.185098
3000.182336
3000.182336
3000.182336
3000.182336
3000.182337
3000.182337
3000.182337
3000.182338
3000.182338
3000.179576
3000.179576
3000.179577
3000.179577
3000.179577
3000.179578
3000.179578
3000.179578
3000.179579
3000.176817
3000.176817
3000.176817
3000.176818
3000.176818
3000.176818
3000.176819
3000.176819
3000.17682
3000.174058
3000.174058
3000.174059
3000.174059
3000.174059
3000.17406
3000.17406
3000.17406
3000.174061
3000.1713
3000.1713
3000.1713
3000.1713
3000.171301
3000.171301
3000.171301
3000.171302
3000.171303
3000.168542
3000.168542
3000.168542
3000.168542
3000.168543
3000.168543
3000.168543
3000.168544
3000.168544
3000.165784
3000.165784
3000.165784
3000.165784
3000.165785
3000.165785
3000.165786
3000.165786
3000.165787
3000.163026
3000.163026
3000.163027
3000.163027
3000.163027
3000.163028
3000.163028
3000.163029
3000.163029
3000.160269
3000.160269
3000.16027
3000.16027
3000.16027
3000.160271
3000.160271
3000.160272
3000.160273
3000.157513
3000.157513
3000.157513
3000.157513
3000.157514
3000.157514
3000.157515
3000.157515
3000.157516
3000.154756
3000.154757
3000.154757
3000.154757
3000.154758
3000.154758
3000.154759
3000.154759
3000.15476
3000.152001
3000.152001
3000.152001
3000.152002
3000.152002
3000.152003
3000.152003
3000.152004
3000.152005
3000.149246
3000.149246
3000.149246
3000.149247
3000.149247
3000.149248
3000.149249
3000.14925
3000.149251
3000.146492
3000.146492
3000.146492
3000.146493
3000.146493
3000.146494
3000.146495
3000.146496
3000.146498
3000.143738
3000.143739
3000.143739
3000.143739
3000.14374
3000.143741
3000.143742
3000.143743
3000.143746
3000.140986
3000.140987
3000.140987
3000.140988
3000.140988
3000.14099
3000.140991
3000.140992
3000.140995
3000.138236
3000.138236
3000.138237
3000.138237
3000.138238
3000.138239
3000.138241
3000.138243
3000.138246
3000.135488
3000.135488
3000.135488
3000.135489
3000.13549
3000.135491
3000.135493
3000.135495
3000.1355
3000.132742
3000.132742
3000.132742
3000.132743
3000.132744
3000.132746
3000.132748
3000.132751
3000.132756
3000.129998
3000.129999
3000.129999
3000.13
3000.130001
3000.130003
3000.130006
3000.130009
3000.130016
3000.127259
3000.127259
3000.12726
3000.12726
3000.127262
3000.127264
3000.127267
3000.127271
3000.12728
3000.124524
3000.124524
3000.124525
3000.124525
3000.124527
3000.12453
3000.124534
3000.124538
3000.124548
3000.121794
3000.121794
3000.121795
3000.121796
3000.121798
3000.121801
3000.121805
3000.12181
3000.121823
3000.11907
3000.119071
3000.119071
3000.119072
3000.119075
3000.119078
3000.119083
3000.11909
3000.119104
3000.116354
3000.116355
3000.116355
3000.116357
3000.116359
3000.116363
3000.116369
3000.116377
3000.116393
3000.113647
3000.113647
3000.113648
3000.11365
3000.113653
3000.113657
3000.113664
3000.113673
3000.113692
3000.11095
3000.110951
3000.110951
3000.110953
3000.110956
3000.110962
3000.11097
3000.110979
3000.111002
3000.108265
3000.108265
3000.108266
3000.108268
3000.108272
3000.108278
3000.108287
3000.108298
3000.108324
3000.105593
3000.105594
3000.105595
3000.105597
3000.105601
3000.105608
3000.105619
3000.105631
3000.105661
3000.102936
3000.102937
3000.102938
3000.102941
3000.102946
3000.102954
3000.102965
3000.102979
3000.103013
3000.100297
3000.100298
3000.1003
3000.100303
3000.100308
3000.100317
3000.10033
3000.100346
3000.100383
3000.097677
3000.097678
3000.09768
3000.097683
3000.097689
3000.097699
3000.097714
3000.097731
3000.097773
3000.095078
3000.09508
3000.095081
3000.095085
3000.095092
3000.095103
3000.095119
3000.095138
3000.095185
3000.092502
3000.092504
3000.092507
3000.092511
3000.092519
3000.092531
3000.092548
3000.092569
3000.09262
3000.089953
3000.089955
3000.089957
3000.089962
3000.089971
3000.089984
3000.090003
3000.090026
3000.090081
3000.08743
3000.087433
3000.087436
3000.087441
3000.08745
3000.087465
3000.087486
3000.087511
3000.08757
3000.084938
3000.084941
3000.084944
3000.08495
3000.08496
3000.084976
3000.084999
3000.085026
3000.08509
3000.082478
3000.082481
3000.082484
3000.082491
3000.082502
3000.082519
3000.082544
3000.082573
3000.082641
3000.080051
3000.080055
3000.080059
3000.080067
3000.080079
3000.080097
3000.080123
3000.080154
3000.080227
3000.077661
3000.077665
3000.07767
3000.077678
3000.077691
3000.077711
3000.077738
3000.077771
3000.077848
3000.075309
3000.075314
3000.075319
3000.075328
3000.075342
3000.075363
3000.075392
3000.075426
3000.075507
3000.072997
3000.073002
3000.073007
3000.073017
3000.073032
3000.073054
3000.073085
3000.073121
3000.073206
3000.070727
3000.070732
3000.070738
3000.070748
3000.070764
3000.070788
3000.07082
3000.070858
3000.070946
3000.068499
3000.068505
3000.068511
3000.068523
3000.06854
3000.068564
3000.068598
3000.068637
3000.068729
3000.066316
3000.066322
3000.066329
3000.066341
3000.066359
3000.066385
3000.06642
3000.066461
3000.066556
3000.064179
3000.064185
3000.064193
3000.064206
3000.064225
3000.064251
3000.064287
3000.064329
3000.064427
3000.062089
3000.062096
3000.062104
3000.062117
3000.062137
3000.062164
3000.062202
3000.062245
3000.062346
3000.060047
3000.060054
3000.060063
3000.060075
3000.060096
3000.060125
3000.060165
3000.060208
3000.060311
3000.058051
3000.058059
3000.058068
3000.058083
3000.058105
3000.058136
3000.058175
3000.058219
3000.058324
3000.056107
3000.056115
3000.056125
3000.056142
3000.056164
3000.056194
3000.056235
3000.05628
3000.056386
3000.054215
3000.054223
3000.054233
3000.054249
3000.054271
3000.054302
3000.054344
3000.054389
3000.054496
3000.052369
3000.052378
3000.052389
3000.052405
3000.052428
3000.05246
3000.052502
3000.052548
3000.052656
3000.050575
3000.050584
3000.050595
3000.050611
3000.050635
3000.050667
3000.05071
3000.050756
3000.050865
3000.04883
3000.048839
3000.04885
3000.048868
3000.048892
3000.048925
3000.048968
3000.049014
3000.049123
3000.047135
3000.047144
3000.047156
3000.047174
3000.047198
3000.047231
3000.047275
3000.047321
3000.04743
3000.045489
3000.045499
3000.045511
3000.045529
3000.045554
3000.045587
3000.045631
3000.045676
3000.045785
3000.043893
3000.043903
3000.043915
3000.043934
3000.043959
3000.043992
3000.044036
3000.044081
3000.044189
3000.042345
3000.042355
3000.042367
3000.042386
3000.042412
3000.042445
3000.042489
3000.042533
3000.042641
3000.040845
3000.040855
3000.040868
3000.040886
3000.040912
3000.040945
3000.040989
3000.041033
3000.041139
3000.039391
3000.039402
3000.039415
3000.039434
3000.039459
3000.039492
3000.039536
3000.039579
3000.039684
3000.037984
3000.037994
3000.038008
3000.038027
3000.038052
3000.038086
3000.038128
3000.038171
3000.038275
3000.036622
3000.036632
3000.036646
3000.036665
3000.036691
3000.036723
3000.036766
3000.036808
3000.03691
3000.035304
3000.035315
3000.035328
3000.035347
3000.035373
3000.035405
3000.035447
3000.035489
3000.035589
3000.03403
3000.03404
3000.034053
3000.034073
3000.034098
3000.03413
3000.034172
3000.034212
3000.03431
3000.032797
3000.032807
3000.032821
3000.03284
3000.032865
3000.032897
3000.032938
3000.032977
3000.033073
3000.031605
3000.031615
3000.031628
3000.031647
3000.031672
3000.031704
3000.031744
3000.031782
3000.031876
3000.030453
3000.030463
3000.030476
3000.030495
3000.03052
3000.03055
3000.03059
3000.030627
3000.030719
3000.029339
3000.029348
3000.029362
3000.029381
3000.029405
3000.029435
3000.029474
3000.02951
3000.029599
3000.028262
3000.028272
3000.028285
3000.028303
3000.028327
3000.028357
3000.028395
3000.02843
3000.028517
3000.027221
3000.027231
3000.027244
3000.027262
3000.027286
3000.027315
3000.027352
3000.027386
3000.02747
3000.026215
3000.026224
3000.026237
3000.026255
3000.026279
3000.026307
3000.026344
3000.026376
3000.026458
3000.025242
3000.025251
3000.025264
3000.025282
3000.025305
3000.025333
3000.025368
3000.0254
3000.025479
3000.024301
3000.024311
3000.024323
3000.024341
3000.024363
3000.02439
3000.024425
3000.024456
3000.024532
3000.023392
3000.023401
3000.023413
3000.023431
3000.023453
3000.023479
3000.023513
3000.023542
3000.023616
3000.022512
3000.022521
3000.022533
3000.02255
3000.022572
3000.022598
3000.022631
3000.022659
3000.02273
3000.021661
3000.02167
3000.021682
3000.021698
3000.021719
3000.021745
3000.021777
3000.021804
3000.021873
3000.020837
3000.020846
3000.020858
3000.020874
3000.020895
3000.020919
3000.02095
3000.020976
3000.021043
3000.02004
3000.020048
3000.02006
3000.020076
3000.020096
3000.02012
3000.02015
3000.020175
3000.020239
3000.019268
3000.019276
3000.019288
3000.019303
3000.019323
3000.019346
3000.019375
3000.019399
3000.019461
3000.01852
3000.018528
3000.018539
3000.018554
3000.018573
3000.018596
3000.018624
3000.018647
3000.018707
3000.017795
3000.017803
3000.017814
3000.017829
3000.017847
3000.017869
3000.017897
3000.017918
3000.017976
3000.017092
3000.0171
3000.017111
3000.017125
3000.017143
3000.017164
3000.017191
3000.017212
3000.017267
3000.016411
3000.016418
3000.016429
3000.016443
3000.01646
3000.016481
3000.016507
3000.016526
3000.016579
3000.015749
3000.015756
3000.015767
3000.01578
3000.015798
3000.015817
3000.015842
3000.015861
3000.015912
3000.015107
3000.015114
3000.015124
3000.015137
3000.015154
3000.015173
3000.015197
3000.015215
3000.015264
3000.014483
3000.01449
3000.0145
3000.014513
3000.014529
3000.014547
3000.014571
3000.014588
3000.014634
3000.013877
3000.013883
3000.013893
3000.013906
3000.013921
3000.013939
3000.013962
3000.013978
3000.014023
3000.013287
3000.013293
3000.013303
3000.013315
3000.01333
3000.013347
3000.01337
3000.013385
3000.013428
3000.012713
3000.01272
3000.012729
3000.012741
3000.012755
3000.012772
3000.012793
3000.012808
3000.012849
3000.012155
3000.012161
3000.01217
3000.012181
3000.012196
3000.012212
3000.012232
3000.012246
3000.012285
3000.011611
3000.011617
3000.011625
3000.011637
3000.01165
3000.011666
3000.011686
3000.011699
3000.011736