/*--------------------------------*- C++ -*----------------------------------*\
| =========                 |                                                 |
| \\      /  F ield         | OpenFOAM: The Open Source CFD Toolbox           |
|  \\    /   O peration     | Version:  2212                                  |
|   \\  /    A nd           | Website:  www.openfoam.com                      |
|    \\/     M anipulation  |                                                 |
\*---------------------------------------------------------------------------*/
FoamFile
{
    version     2.0;
    format      ascii;
    arch        "LSB;label=32;scalar=64";
    class       surfaceScalarField;
    location    "20.00000000";
    object      phi_0;
}
// * * * * * * * * * * * * * * * * * * * * * * * * * * * * * * * * * * * * * //

dimensions      [1 0 -1 0 0 0 0];

oriented        oriented;

internalField   nonuniform List<scalar> 
5690
(
-5.46144531e-11
8.583849947e-10
1.326637083e-11
-1.340559051e-10
1.421268201e-09
-2.673324793e-10
1.984030249e-09
-4.774330286e-10
2.554308935e-09
-7.879314119e-10
3.133035794e-09
-1.196562801e-09
3.694728571e-09
-1.608322682e-09
4.146995109e-09
-1.625684345e-09
4.187652161e-09
2.965913492e-09
-1.15571764e-10
9.454884015e-10
2.846922485e-11
-2.66458849e-10
1.572154845e-09
-4.849628786e-10
2.202532925e-09
-7.653351629e-10
2.834681624e-09
-1.074852892e-09
3.442553988e-09
-1.325102687e-09
3.944978586e-09
-1.355330592e-09
4.177223003e-09
-9.122359661e-10
3.744557225e-09
2.05367747e-09
-1.516392806e-10
1.058907953e-09
3.822012144e-11
-3.350767101e-10
1.755592125e-09
-5.766134574e-10
2.444069707e-09
-8.450579958e-10
3.103125951e-09
-1.077943004e-09
3.675438735e-09
-1.17880209e-09
4.045837608e-09
-1.024292065e-09
4.022713089e-09
-5.509432378e-10
3.271208439e-09
1.502734364e-09
-1.483092343e-10
1.169156338e-09
3.806079953e-11
-3.174789951e-10
1.924761805e-09
-5.21457629e-10
2.648048943e-09
-7.180979669e-10
3.299766298e-09
-8.460447853e-10
3.803385357e-09
-8.314871644e-10
4.031279821e-09
-6.201255049e-10
3.811351384e-09
-2.731314548e-10
2.924214449e-09
1.229603013e-09
-1.315601515e-10
1.266461918e-09
3.42544283e-11
-2.743302764e-10
2.067531984e-09
-4.335670877e-10
2.807286163e-09
-5.674543772e-10
3.433653704e-09
-6.264060341e-10
3.862337009e-09
-5.681138117e-10
3.972987528e-09
-3.842704572e-10
3.627507958e-09
-1.473203994e-10
2.687264411e-09
1.08228262e-09
-1.07031351e-10
1.345211593e-09
2.828160877e-11
-2.181079203e-10
2.178608622e-09
-3.33562009e-10
2.922740318e-09
-4.183237867e-10
3.518415555e-09
-4.37928881e-10
3.881942178e-09
-3.730295643e-10
3.908088245e-09
-2.349039762e-10
3.489382362e-09
-8.199418793e-11
2.534354615e-09
1.000288393e-09
-8.368987469e-11
1.40654781e-09
2.235366708e-11
-1.674249606e-10
2.262343732e-09
-2.493656878e-10
3.004680964e-09
-3.023999637e-10
3.571449828e-09
-3.041374722e-10
3.883679726e-09
-2.474043603e-10
3.851355181e-09
-1.479733762e-10
3.38995141e-09
-4.784925823e-11
2.434230491e-09
9.524391156e-10
-6.331882091e-11
1.452774137e-09
1.709252327e-11
-1.246788236e-10
2.323703729e-09
-1.816711525e-10
3.061673235e-09
-2.144351505e-10
3.604213795e-09
-2.09093413e-10
3.878337977e-09
-1.645153975e-10
3.806777176e-09
-9.526236096e-11
3.320698392e-09
-2.982484313e-11
2.368792975e-09
9.226142797e-10
-4.712726461e-11
1.487083564e-09
1.281785018e-11
-9.165044493e-11
2.368226903e-09
-1.312647407e-10
3.10128753e-09
-1.51759538e-10
3.624708576e-09
-1.446195202e-10
3.871197938e-09
-1.110900983e-10
3.773247738e-09
-6.281084715e-11
3.272419137e-09
-1.901607003e-11
2.324998202e-09
9.035982212e-10
-3.467524808e-11
1.512261329e-09
9.497482409e-12
-6.674648507e-11
2.400298141e-09
-9.430125482e-11
3.128842314e-09
-1.073144121e-10
3.637721734e-09
-1.005781792e-10
3.864461698e-09
-7.604612644e-11
3.748715675e-09
-4.247213539e-11
3.238845137e-09
-1.279656512e-11
2.295322635e-09
8.908016598e-10
-2.539038453e-11
1.530663956e-09
6.987752426e-12
-4.849830589e-11
2.423406065e-09
-6.782073588e-11
3.148164748e-09
-7.6291512e-11
3.646192516e-09
-7.066663601e-11
3.858836827e-09
-5.285217153e-11
3.730901212e-09
-2.924819285e-11
3.215241158e-09
-8.712058119e-12
2.274786503e-09
8.820896013e-10
-1.856007134e-11
1.544094653e-09
5.129373875e-12
-3.523929025e-11
2.440085285e-09
-4.890502684e-11
3.161830481e-09
-5.456359126e-11
3.651851084e-09
-5.014994407e-11
3.854423187e-09
-3.727738204e-11
3.718028658e-09
-2.057001257e-11
3.198533796e-09
-6.153983938e-12
2.260370479e-09
8.759356187e-10
-1.358130233e-11
1.553912576e-09
3.763381509e-12
-2.567731296e-11
2.452181297e-09
-3.544546163e-11
3.171598629e-09
-3.9328369e-11
3.655733992e-09
-3.59681789e-11
3.851063001e-09
-2.663698766e-11
3.708697474e-09
-1.466878138e-11
3.186565598e-09
-4.380962121e-12
2.250082665e-09
8.715546599e-10
-9.96548327e-12
1.561110712e-09
2.767348666e-12
-1.878404313e-11
2.460999859e-09
-2.583696135e-11
3.17865155e-09
-2.856825197e-11
3.658465285e-09
-2.605720188e-11
3.848551953e-09
-1.927292206e-11
3.701913197e-09
-1.062454618e-11
3.177917227e-09
-3.191521197e-12
2.242649646e-09
8.683631413e-10
-7.340210373e-12
1.566410203e-09
2.040720131e-12
-1.380929219e-11
2.467468942e-09
-1.895266675e-11
3.183794928e-09
-2.091524615e-11
3.660427867e-09
-1.905241771e-11
3.846689126e-09
-1.408784718e-11
3.696948628e-09
-7.772439071e-12
3.171601821e-09
-2.336493299e-12
2.237213702e-09
8.660266484e-10
-5.432140166e-12
1.570330852e-09
1.511491829e-12
-1.020771042e-11
2.472244513e-09
-1.399310798e-11
3.187580327e-09
-1.542927487e-11
3.661864035e-09
-1.405302863e-11
3.845312881e-09
-1.040099749e-11
3.693296598e-09
-5.753418668e-12
3.166954242e-09
-1.728190956e-12
2.233188475e-09
8.642984564e-10
-4.041674372e-12
1.57324761e-09
1.124915894e-12
-7.590736468e-12
2.475793575e-09
-1.040068091e-11
3.19039027e-09
-1.146579316e-11
3.662929147e-09
-1.044513317e-11
3.844292221e-09
-7.735458985e-12
3.690586923e-09
-4.281783221e-12
3.163500566e-09
-1.27793543e-12
2.230184626e-09
8.630205196e-10
-3.026520529e-12
1.575431642e-09
8.424885293e-13
-5.682883597e-12
2.478449937e-09
-7.785280081e-12
3.192492665e-09
-8.581154673e-12
3.66372502e-09
-7.813962041e-12
3.843525027e-09
-5.776601955e-12
3.688549561e-09
-3.178751092e-12
3.160902713e-09
-9.483473118e-13
2.22795422e-09
8.62072171e-10
-2.28613915e-12
1.577081487e-09
6.36293655e-13
-4.293137973e-12
2.480456934e-09
-5.882070818e-12
3.194081597e-09
-6.482600322e-12
3.664325548e-09
-5.897708574e-12
3.842940133e-09
-4.345478705e-12
3.686997329e-09
-2.367127221e-12
3.158924359e-09
-6.86566782e-13
2.226273657e-09
8.613856029e-10
-1.750081198e-12
1.578344635e-09
4.869331196e-13
-3.288241693e-12
2.481995094e-09
-4.508117632e-12
3.195301472e-09
-4.970239186e-12
3.664787668e-09
-4.519294477e-12
3.842489187e-09
-3.318615639e-12
3.685796648e-09
-1.786857948e-12
3.157392599e-09
-4.808180523e-13
2.224967615e-09
8.609047834e-10
-1.370145238e-12
1.579333879e-09
3.809001134e-13
-2.577870583e-12
2.483202818e-09
-3.539971383e-12
3.196263572e-09
-3.908586132e-12
3.665156281e-09
-3.557691145e-12
3.84213829e-09
-2.613718142e-12
3.684852673e-09
-1.405304182e-12
3.156184183e-09
-3.745421713e-13
2.22393685e-09
8.605302397e-10
-1.112477785e-12
1.580137555e-09
3.088019326e-13
-2.098860001e-12
2.484189199e-09
-2.892508129e-12
3.197057218e-09
-3.206327503e-12
3.665470099e-09
-2.930142682e-12
3.841862103e-09
-2.16196791e-12
3.684084496e-09
-1.173584815e-12
3.155195797e-09
-3.250291537e-13
2.223088292e-09
8.602052091e-10
-9.621720564e-13
1.580833666e-09
2.660602093e-13
-1.827789293e-12
2.485054815e-09
-2.544100885e-12
3.197773529e-09
-2.855272042e-12
3.665781269e-09
-2.640063659e-12
3.841646893e-09
-1.958706734e-12
3.683403137e-09
-1.057151709e-12
3.154294239e-09
-2.794625386e-13
2.2223106e-09
8.599257453e-10
-9.006025e-13
1.58148646e-09
2.47808198e-13
-1.725667252e-12
2.485879878e-09
-2.430520071e-12
3.19847838e-09
-2.766359762e-12
3.666117107e-09
-2.596855382e-12
3.841477387e-09
-1.953459231e-12
3.682759739e-09
-1.062780056e-12
3.153403558e-09
-2.754751622e-13
2.221523292e-09
8.59650269e-10
-9.206111995e-13
1.582155099e-09
2.519717298e-13
-1.77993848e-12
2.486739204e-09
-2.537113876e-12
3.199235555e-09
-2.929490933e-12
3.666509483e-09
-2.802090933e-12
3.841349985e-09
-2.160413645e-12
3.68211806e-09
-1.211875198e-12
3.152455017e-09
-3.252703931e-13
2.220636685e-09
8.593249977e-10
-1.026948171e-12
1.582902595e-09
2.794520442e-13
-2.004866453e-12
2.487717122e-09
-2.896137036e-12
3.200126824e-09
-3.399108218e-12
3.667012453e-09
-3.311402578e-12
3.841262278e-09
-2.607354627e-12
3.681414011e-09
-1.49796472e-12
3.151345626e-09
-4.141237131e-13
2.219552842e-09
8.589108734e-10
-1.222113269e-12
1.58379383e-09
3.308774283e-13
-2.405702812e-12
2.488900711e-09
-3.515051522e-12
3.201236172e-09
-4.183890639e-12
3.667681291e-09
-4.143244082e-12
3.841221631e-09
-3.322887206e-12
3.680593653e-09
-1.951468173e-12
3.149974206e-09
-5.618434508e-13
2.218163217e-09
8.583490298e-10
-1.51232834e-12
1.584898327e-09
4.078306118e-13
-2.995441295e-12
2.490383824e-09
-4.41408546e-12
3.202654816e-09
-5.309108547e-12
3.668576314e-09
-5.322405247e-12
3.841234927e-09
-4.331597249e-12
3.679602844e-09
-2.592216407e-12
3.148234825e-09
-7.753973712e-13
2.216346397e-09
8.575736326e-10
-1.902926544e-12
1.586289518e-09
5.117358369e-13
-3.784712765e-12
2.49226561e-09
-5.609159647e-12
3.204479263e-09
-6.794513539e-12
3.669761668e-09
-6.869999751e-12
3.841310414e-09
-5.651295632e-12
3.678384141e-09
-3.431420329e-12
3.146014949e-09
-1.059837415e-12
2.213974815e-09
8.565137957e-10
-2.398022556e-12
1.588043833e-09
6.437078647e-13
-4.781211043e-12
2.494648799e-09
-7.110575112e-12
3.206808628e-09
-8.650706649e-12
3.6713018e-09
-8.794133727e-12
3.841453841e-09
-7.286065287e-12
3.676876073e-09
-4.469768756e-12
3.143198654e-09
-1.415016566e-12
2.210920064e-09
8.550987798e-10
-2.998303643e-12
1.590238126e-09
8.040107983e-13
-5.985088828e-12
2.497635585e-09
-8.916002929e-12
3.209739542e-09
-1.087076631e-11
3.673256564e-09
-1.108260414e-11
3.84166568e-09
-9.22071424e-12
3.675014184e-09
-5.694493989e-12
3.139672435e-09
-1.836020355e-12
2.207061591e-09
8.532627603e-10
-3.699503265e-12
1.592946001e-09
9.916279876e-13
-7.385914622e-12
2.501321997e-09
-1.100586735e-11
3.213359496e-09
-1.342447413e-11
3.675675172e-09
-1.369674786e-11
3.841937955e-09
-1.141548049e-11
3.672732918e-09
-7.075724856e-12
3.135332681e-09
-2.311130123e-12
2.202296998e-09
8.509516312e-10
-4.49082624e-12
1.596232974e-09
1.203854246e-12
-8.959559647e-12
2.505790731e-09
-1.333889236e-11
3.217738829e-09
-1.625332198e-11
3.678589602e-09
-1.656706942e-11
3.842251704e-09
-1.380320222e-11
3.669969052e-09
-8.565517147e-12
3.130094997e-09
-2.822078523e-12
2.196553561e-09
8.481295537e-10
-5.353791104e-12
1.600150799e-09
1.435965646e-12
-1.066609027e-11
2.511103031e-09
-1.584941024e-11
3.22292215e-09
-1.926803086e-11
3.682008224e-09
-1.959182114e-11
3.842575495e-09
-1.628929714e-11
3.66666653e-09
-1.00986465e-11
3.123904348e-09
-3.34446477e-12
2.189799382e-09
8.4478509e-10
-6.261590531e-12
1.604731359e-09
1.681031363e-12
-1.244881747e-11
2.517290259e-09
-1.844671411e-11
3.228920048e-09
-2.234909112e-11
3.685910602e-09
-2.263933727e-11
3.842865743e-09
-1.875555882e-11
3.662782753e-09
-1.159636143e-11
3.116745153e-09
-3.849641001e-12
2.182052663e-09
8.4093545e-10
-7.179180569e-12
1.60998064e-09
1.929900044e-12
-1.423497501e-11
2.524346054e-09
-2.10171481e-11
3.235702222e-09
-2.535105294e-11
3.690244508e-09
-2.555457585e-11
3.843069267e-09
-2.106766956e-11
3.658295848e-09
-1.297240431e-11
3.108649889e-09
-4.307210539e-12
2.173387471e-09
8.366282403e-10
-8.064268725e-12
1.615873489e-09
2.171420341e-12
-1.593831053e-11
2.532220097e-09
-2.342926391e-11
3.243193176e-09
-2.811077803e-11
3.694926023e-09
-2.816978328e-11
3.843128273e-09
-2.308604022e-11
3.653212107e-09
-1.414091065e-11
3.099704761e-09
-4.688127847e-12
2.16393469e-09
8.31940113e-10
-8.869304353e-12
1.622349873e-09
2.392920179e-12
-1.746373855e-11
2.540814532e-09
-2.554207542e-11
3.251271513e-09
-3.045931786e-11
3.699843266e-09
-3.031840524e-11
3.842987362e-09
-2.467866582e-11
3.647572368e-09
-1.502491483e-11
3.090051011e-09
-4.967702791e-12
2.153877479e-09
8.269724106e-10
-9.544481423e-12
1.629313395e-09
2.580960025e-12
-1.871394256e-11
2.549983993e-09
-2.721596295e-11
3.259773534e-09
-3.22364135e-11
3.704863717e-09
-3.185068008e-11
3.842601629e-09
-2.573425993e-11
3.641455949e-09
-1.556420842e-11
3.07988096e-09
-5.128098784e-12
2.14344137e-09
8.218443119e-10
-1.004160217e-11
1.636632668e-09
2.722328794e-12
-1.959746913e-11
2.55953986e-09
-2.832521632e-11
3.268501281e-09
-3.330592163e-11
3.709844423e-09
-3.264874685e-11
3.841944454e-09
-2.617360752e-11
3.63498081e-09
-1.572122194e-11
3.069428575e-09
-5.15986777e-12
2.132880016e-09
8.16684444e-10
-1.031848144e-11
1.644145938e-09
2.805211878e-12
-2.003750492e-11
2.569258884e-09
-2.877071958e-11
3.277234496e-09
-3.357003697e-11
3.71464374e-09
-3.263896329e-11
3.84101338e-09
-2.595734154e-11
3.628299188e-09
-1.548406725e-11
3.0589553e-09
-5.062373118e-12
2.122458322e-09
8.116220705e-10
-1.034337383e-11
1.651668909e-09
2.820402797e-12
-1.998018544e-11
2.578895695e-09
-2.849091858e-11
3.285745229e-09
-3.298003407e-11
3.719132855e-09
-3.179937921e-11
3.839832725e-09
-2.508889697e-11
3.621588705e-09
-1.486636486e-11
3.048732768e-09
-4.843116367e-12
2.112435072e-09
8.067789536e-10
-1.009879821e-11
1.659005309e-09
2.762397945e-12
-1.940116817e-11
2.588198065e-09
-2.746927992e-11
3.29381334e-09
-3.154172491e-11
3.7232053e-09
-3.016119803e-11
3.838452198e-09
-2.361240814e-11
3.615039914e-09
-1.390419695e-11
3.039024556e-09
-4.516257529e-12
2.103047132e-09
8.022626953e-10
-9.584077178e-12
1.665959202e-09
2.630183789e-12
-1.830924111e-11
2.596923228e-09
-2.573678714e-11
3.301240885e-09
-2.931456115e-11
3.726783073e-09
-2.780400541e-11
3.836941641e-09
-2.160607711e-11
3.608841985e-09
-1.265084579e-11
3.030069323e-09
-4.100630809e-12
2.094496916e-09
7.981620638e-10
-8.816085166e-12
1.67234772e-09
2.42756698e-12
-1.674622251e-11
2.604853365e-09
-2.336896402e-11
3.307863626e-09
-2.640465097e-11
3.729818759e-09
-2.484594016e-11
3.835382929e-09
-1.917260684e-11
3.603168651e-09
-1.117057935e-11
3.022067294e-09
-3.617876413e-12
2.086944212e-09
7.945441866e-10
-7.827915818e-12
1.678012701e-09
2.16293515e-12
-1.478294342e-11
2.611808392e-09
-2.047775865e-11
3.313558441e-09
-2.295281785e-11
3.732293817e-09
-2.143042084e-11
3.833860531e-09
-1.642807023e-11
3.598166299e-09
-9.532068496e-12
3.015171291e-09
-3.090851062e-12
2.080502993e-09
7.914533349e-10
-6.665625811e-12
1.682829852e-09
1.848474002e-12
-1.251193811e-11
2.617654703e-09
-1.719974135e-11
3.318246243e-09
-1.911999068e-11
3.734214066e-09
-1.771211622e-11
3.832452656e-09
-1.34917673e-11
3.593945949e-09
-7.803793204e-12
3.009483316e-09
-2.544957478e-12
2.075244156e-09
7.889083769e-10
-5.383574076e-12
1.686714492e-09
1.498934415e-12
-1.00381327e-11
2.622309261e-09
-1.368273774e-11
3.321890848e-09
-1.507236123e-11
3.735603689e-09
-1.384391618e-11
3.83122421e-09
-1.047684066e-11
3.590578873e-09
-6.048060902e-12
3.005054536e-09
-1.999551126e-12
2.071195645e-09
7.869088254e-10
-4.038979097e-12
1.689623314e-09
1.130156668e-12
-7.468576518e-12
2.625738858e-09
-1.007199981e-11
3.324494271e-09
-1.096683688e-11
3.736498525e-09
-9.964488201e-12
3.830221861e-09
-7.481175188e-12
3.588095559e-09
-4.318237268e-12
3.001891597e-09
-1.441399047e-12
2.068318806e-09
7.854674261e-10
-2.686920064e-12
1.691552618e-09
7.576153124e-13
-4.903834877e-12
2.627955773e-09
-6.500048351e-12
3.326090484e-09
-6.942436809e-12
3.736940913e-09
-6.193213839e-12
3.829472637e-09
-4.588204582e-12
3.586490549e-09
-2.651717967e-12
2.99995511e-09
-9.112698936e-13
2.066578357e-09
7.845561561e-10
-1.37603006e-12
1.692533455e-09
3.951933342e-13
-2.430546616e-12
2.629010289e-09
-3.077394975e-12
3.326737332e-09
-3.110551404e-12
3.73697407e-09
-2.62091551e-12
3.828983001e-09
-1.860512e-12
3.585730145e-09
-1.049449129e-12
2.999144047e-09
-4.144163381e-13
2.065943324e-09
7.841417398e-10
-1.462148733e-13
1.692625254e-09
5.441533997e-14
-1.184256294e-13
2.6289825e-09
1.079426475e-13
3.326510964e-09
4.385622523e-13
3.73664345e-09
6.728877078e-13
3.828748676e-09
6.387737087e-13
3.585764259e-09
3.915871709e-13
2.999391233e-09
4.090283028e-14
2.066294009e-09
7.841826428e-10
9.727566137e-13
1.691908611e-09
-2.561133138e-13
1.980409702e-12
2.627974847e-09
2.991771624e-12
3.325499602e-09
3.644813509e-12
3.735990408e-09
3.641794629e-12
3.828751695e-09
2.904885367e-12
3.586501169e-09
1.65986199e-12
3.000636257e-09
4.536749615e-13
2.067500196e-09
7.84636318e-10
1.960524554e-12
1.690478658e-09
-5.305709949e-13
3.830601435e-12
2.62610477e-09
5.531492936e-12
3.323798711e-09
6.468349576e-12
3.735053552e-09
6.260336697e-12
3.828959708e-09
4.900465955e-12
3.58786104e-09
2.803448638e-12
3.002733275e-09
8.218331466e-13
2.069481812e-09
7.854581515e-10
2.807796908e-12
1.688436891e-09
-7.66030056e-13
5.418240854e-12
2.623494326e-09
7.713099336e-12
3.321503853e-09
8.898358814e-12
3.733868293e-09
8.52094181e-12
3.829337126e-09
6.630199703e-12
3.589751782e-09
3.809276539e-12
3.005554198e-09
1.144795889e-12
2.072146293e-09
7.866029477e-10
3.513736105e-12
1.685885211e-09
-9.620557479e-13
6.743466005e-12
2.620264597e-09
9.539072628e-12
3.318708246e-09
1.093969999e-11
3.732467666e-09
1.042878321e-11
3.829848043e-09
8.098259719e-12
3.592082306e-09
4.668202207e-12
3.008984256e-09
1.421910434e-12
2.075392586e-09
7.880248586e-10
4.083889215e-12
1.682921432e-09
-1.120110865e-12
7.817276697e-12
2.61653121e-09
1.102518174e-11
3.315500342e-09
1.261018304e-11
3.730882665e-09
1.199990884e-11
3.830458318e-09
9.315898349e-12
3.594766318e-09
5.385616993e-12
3.012914539e-09
1.654069388e-12
2.079124134e-09
7.896789283e-10
4.527996209e-12
1.679636333e-09
-1.242896814e-12
8.657772182e-12
2.612401434e-09
1.219585236e-11
3.311962262e-09
1.393620317e-11
3.729142315e-09
1.325789473e-11
3.831136627e-09
1.030038584e-11
3.597723827e-09
5.971784446e-12
3.017243141e-09
1.852819221e-12
2.0832431e-09
7.91531748e-10
4.858274716e-12
1.676111913e-09
-1.333854648e-12
9.287217248e-12
2.607972492e-09
1.308049966e-11
3.30816898e-09
1.494886618e-11
3.727273949e-09
1.422982685e-11
3.831855667e-09
1.10705857e-11
3.600883069e-09
6.436550553e-12
3.021877176e-09
2.013001178e-12
2.08766665e-09
7.935447495e-10
5.088114821e-12
1.672420571e-09
-1.396772337e-12
9.729883772e-12
2.603330723e-09
1.371103456e-11
3.304187829e-09
1.568185231e-11
3.725303131e-09
1.494515662e-11
3.832592363e-09
1.164743493e-11
3.604180791e-09
6.791079145e-12
3.026733533e-09
2.136266773e-12
2.092321463e-09
7.956810165e-10
5.231085911e-12
1.668624979e-09
-1.435493944e-12
1.001034468e-11
2.598551465e-09
1.411974053e-11
3.300078434e-09
1.616924391e-11
3.723253628e-09
1.543374743e-11
3.83332786e-09
1.205238788e-11
3.607562151e-09
7.047141628e-12
3.03173878e-09
2.227942294e-12
2.097140663e-09
7.97908959e-10
5.300265734e-12
1.664778435e-09
-1.45372158e-12
1.015232499e-11
2.593699406e-09
1.433785655e-11
3.295892902e-09
1.644410183e-11
3.721147383e-09
1.572461744e-11
3.834047344e-09
1.230627685e-11
3.610980492e-09
7.216019123e-12
3.036829038e-09
2.291843558e-12
2.102064839e-09
8.002008027e-10
5.307825145e-12
1.660925504e-09
-1.454893975e-12
1.017798635e-11
2.588829245e-09
1.439470093e-11
3.291676188e-09
1.653762448e-11
3.71900446e-09
1.584531032e-11
3.834739659e-09
1.24289832e-11
3.614396819e-09
7.308496377e-12
3.041949525e-09
2.331228385e-12
2.107042107e-09
8.02532031e-10
5.264799331e-12
1.657102825e-09
-1.442120274e-12
1.010752273e-11
2.583986521e-09
1.431715797e-11
3.287466553e-09
1.647862877e-11
3.716842989e-09
1.582146941e-11
3.835396818e-09
1.243917184e-11
3.617779117e-09
7.334790026e-12
3.047053906e-09
2.349138496e-12
2.112027758e-09
8.048811694e-10
5.180992205e-12
1.653339986e-09
-1.418153495e-12
9.958979298e-12
2.579208534e-09
1.41294285e-11
3.283296104e-09
1.629327376e-11
3.714679144e-09
1.567658398e-11
3.836013508e-09
1.235410212e-11
3.621101599e-09
7.304441506e-12
3.052103567e-09
2.348435204e-12
2.116983765e-09
8.072296045e-10
5.064969574e-12
1.649660407e-09
-1.385390132e-12
9.748222275e-12
2.574525282e-09
1.385296128e-11
3.279191364e-09
1.600495367e-11
3.712527151e-09
1.54318633e-11
3.836586598e-09
1.218951378e-11
3.624343948e-09
7.226241466e-12
3.057066839e-09
2.331788079e-12
2.121878218e-09
8.095613924e-10
4.924109342e-12
1.646082184e-09
-1.345886271e-12
9.489008373e-12
2.569960382e-09
1.350650927e-11
3.275173863e-09
1.563431564e-11
3.710399344e-09
1.510621259e-11
3.837114701e-09
1.195957937e-11
3.627490581e-09
7.108186782e-12
3.061918231e-09
2.301657677e-12
2.126684747e-09
8.118630498e-10
4.764685905e-12
1.642618881e-09
-1.301383395e-12
9.193117188e-12
2.565531951e-09
1.310626915e-11
3.271260711e-09
1.519936508e-11
3.708306248e-09
1.471628601e-11
3.83759778e-09
1.167691272e-11
3.630529954e-09
6.957468876e-12
3.066637675e-09
2.260285188e-12
2.13138193e-09
8.141233348e-10
4.59197329e-12
1.639280247e-09
-1.253339232e-12
8.870519981e-12
2.561253404e-09
1.266607263e-11
3.267465158e-09
1.471563082e-11
3.70625669e-09
1.427659556e-11
3.838036814e-09
1.13526199e-11
3.633453929e-09
6.780485367e-12
3.071209809e-09
2.209689528e-12
2.135952725e-09
8.16333024e-10
4.410355619e-12
1.636072852e-09
-1.202960343e-12
8.52956567e-12
2.557134194e-09
1.219760636e-11
3.263797118e-09
1.419636647e-11
3.704257929e-09
1.379965814e-11
3.838433522e-09
1.099638151e-11
3.636257206e-09
6.582871777e-12
3.075623318e-09
2.151670862e-12
2.140383926e-09
8.184846947e-10
4.223437694e-12
1.633000648e-09
-1.151234375e-12
8.177170738e-12
2.55318046e-09
1.171064318e-11
3.260263645e-09
1.365277111e-11
3.702315801e-09
1.329616499e-11
3.838790128e-09
1.061655604e-11
3.638936814e-09
6.369545997e-12
3.079870328e-09
2.087819415e-12
2.144665652e-09
8.205725139e-10
4.034150534e-12
1.630065458e-09
-1.098960594e-12
7.819003401e-12
2.549395607e-09
1.12132712e-11
3.256869377e-09
1.309421506e-11
3.700434857e-09
1.277516327e-11
3.83910918e-09
1.022029646e-11
3.641491681e-09
6.144763481e-12
3.083945861e-09
2.019527945e-12
2.148790887e-09
8.225920417e-10
3.844848913e-12
1.627267387e-09
-1.046777829e-12
7.459656485e-12
2.5457808e-09
1.071211384e-11
3.253616919e-09
1.252846202e-11
3.698618509e-09
1.22442403e-11
3.839393401e-09
9.813674351e-12
3.643922246e-09
5.912178784e-12
3.087847356e-09
1.948006886e-12
2.152755059e-09
8.245400485e-10
3.657397705e-12
1.624605178e-09
-9.951892304e-13
7.102801036e-12
2.542335396e-09
1.021252591e-11
3.250507194e-09
1.196186798e-11
3.696869167e-09
1.170968933e-11
3.83964558e-09
9.401793523e-12
3.646230142e-09
5.674907051e-12
3.091574242e-09
1.874305113e-12
2.15655566e-09
8.264143535e-10
3.473249689e-12
1.622076513e-09
-9.445842012e-13
6.751327063e-12
2.539057319e-09
9.718777076e-12
3.247539744e-09
1.139957245e-11
3.695188371e-09
1.117667539e-11
3.839868477e-09
8.988913304e-12
3.648417904e-09
5.435606516e-12
3.095127549e-09
1.799353962e-12
2.160191913e-09
8.282137075e-10
3.293508346e-12
1.619678261e-09
-8.952566783e-13
6.407452623e-12
2.535943375e-09
9.2341807e-12
3.244713016e-09
1.084559934e-11
3.693576952e-09
1.064925061e-11
3.840064826e-09
8.57833539e-12
3.650488819e-09
5.196242154e-12
3.098509642e-09
1.723706722e-12
2.163664448e-09
8.299374142e-10
3.119000508e-12
1.617406685e-09
-8.474245273e-13
6.072867684e-12
2.532989507e-09
8.761310195e-12
3.242024574e-09
1.030314235e-11
3.69203512e-09
1.013070909e-11
3.840237259e-09
8.172822658e-12
3.652446706e-09
4.958509164e-12
3.101723956e-09
1.648349952e-12
2.166974608e-09
8.315857642e-10
2.95032885e-12
1.615257601e-09
-8.012445627e-13
5.748835489e-12
2.530191001e-09
8.302154578e-12
3.239471255e-09
9.774781862e-12
3.690562493e-09
9.623827561e-12
3.840388213e-09
7.774825835e-12
3.654295707e-09
4.724915458e-12
3.104773866e-09
1.57387032e-12
2.170125653e-09
8.331596346e-10
2.787924015e-12
1.613226502e-09
-7.568249835e-13
5.436300415e-12
2.527542624e-09
7.85821584e-12
3.237049339e-09
9.262447086e-12
3.689158262e-09
9.130649625e-12
3.840520011e-09
7.387251689e-12
3.656039106e-09
4.496275485e-12
3.107664843e-09
1.500313561e-12
2.173121615e-09
8.346599483e-10
2.63201919e-12
1.611308716e-09
-7.142330961e-13
5.13571813e-12
2.525038926e-09
7.430150899e-12
3.234754907e-09
8.767942036e-12
3.687820471e-09
8.65429021e-12
3.840633663e-09
7.011050013e-12
3.657682346e-09
4.27286561e-12
3.110403027e-09
1.428220819e-12
2.17596626e-09
8.360881693e-10
2.482634663e-12
1.609499541e-09
-6.734594984e-13
4.848003576e-12
2.522673557e-09
7.020395539e-12
3.232582515e-09
8.292475753e-12
3.686548391e-09
8.194443305e-12
3.840731695e-09
6.645923355e-12
3.659230866e-09
4.055688294e-12
3.112993262e-09
1.357807383e-12
2.178664141e-09
8.374459768e-10
2.340872302e-12
1.60779343e-09
-6.347618311e-13
4.573414281e-12
2.520441015e-09
6.628104406e-12
3.230527825e-09
7.835746949e-12
3.685340748e-09
7.750646108e-12
3.840816796e-09
6.293273801e-12
3.660688239e-09
3.845234481e-12
3.115441302e-09
1.289283044e-12
2.181220093e-09
8.387352599e-10
2.205688147e-12
1.606185634e-09
-5.978918223e-13
4.311022662e-12
2.518335681e-09
6.251976672e-12
3.228586871e-09
7.397979009e-12
3.684194746e-09
7.324913583e-12
3.840889862e-09
5.953932263e-12
3.66205922e-09
3.642083429e-12
3.117753151e-09
1.222887944e-12
2.183639289e-09
8.39958148e-10
2.076423052e-12
1.60467191e-09
-5.626985018e-13
4.061026597e-12
2.516351077e-09
5.893653646e-12
3.226754244e-09
6.979759597e-12
3.68310864e-09
6.917154283e-12
3.840952468e-09
5.628065975e-12
3.663348309e-09
3.446459136e-12
3.119934758e-09
1.158733587e-12
2.185927014e-09
8.411168816e-10
1.954043228e-12
1.603247261e-09
-5.293945248e-13
3.823533092e-12
2.514481587e-09
5.552533371e-12
3.225025244e-09
6.580804071e-12
3.68208037e-09
6.527366324e-12
3.841005905e-09
5.315866416e-12
3.664559809e-09
3.258583819e-12
3.121992041e-09
1.096935103e-12
2.188088663e-09
8.422138168e-10
1.837965994e-12
1.60190711e-09
-4.978146861e-13
3.598046113e-12
2.512721507e-09
5.22822569e-12
3.223395064e-09
6.200887623e-12
3.681107708e-09
6.155496387e-12
3.841051297e-09
5.017420688e-12
3.665697885e-09
3.078591856e-12
3.12393087e-09
1.037568458e-12
2.190129687e-09
8.432513853e-10
1.728046935e-12
1.600646993e-09
-4.679300799e-13
3.384300761e-12
2.511065254e-09
4.920409495e-12
3.221858956e-09
5.839743486e-12
3.680188374e-09
5.801406416e-12
3.841089634e-09
4.732726324e-12
3.666766565e-09
2.906552197e-12
3.125757044e-09
9.806853179e-13
2.192055554e-09
8.442320706e-10
1.624081525e-12
1.599462589e-09
-4.396773759e-13
3.181956813e-12
2.509507378e-09
4.628679436e-12
3.220412233e-09
5.497005112e-12
3.679320048e-09
5.464848409e-12
3.841121791e-09
4.46167771e-12
3.667769735e-09
2.742461123e-12
3.127476261e-09
9.263085919e-13
2.193871706e-09
8.451583792e-10
1.525871684e-12
1.598349718e-09
-4.130010734e-13
2.990662228e-12
2.508042588e-09
4.352589942e-12
3.219050305e-09
5.172235192e-12
3.678500403e-09
5.145485552e-12
3.84114854e-09
4.204083131e-12
3.668711138e-09
2.586254234e-12
3.129094089e-09
8.744379535e-13
2.195583522e-09
8.460328171e-10
1.433205789e-12
1.597304353e-09
-3.878410851e-13
2.81003472e-12
2.506665759e-09
4.091643558e-12
3.217768696e-09
4.864922964e-12
3.677727124e-09
4.842895852e-12
3.841170567e-09
3.959671088e-12
3.669594362e-09
2.437811576e-12
3.130615949e-09
8.250516101e-13
2.197196282e-09
8.468578686e-10
1.345863687e-12
1.596322625e-09
-3.641357272e-13
2.639669652e-12
2.505371953e-09
3.845301906e-12
3.216563064e-09
4.574498417e-12
3.676997927e-09
4.556587463e-12
3.841188478e-09
3.728104151e-12
3.670422846e-09
2.296967075e-12
3.132047086e-09
7.781100982e-13
2.198715139e-09
8.476359786e-10
1.263617673e-12
1.595400829e-09
-3.418214656e-13
2.479144093e-12
2.504156426e-09
3.612993509e-12
3.215429215e-09
4.300343392e-12
3.676310577e-09
4.286011515e-12
3.84120281e-09
3.508990508e-12
3.671199867e-09
2.163516375e-12
3.13339256e-09
7.335589465e-13
2.200145096e-09
8.483695375e-10
1.186235297e-12
1.594535428e-09
-3.208337689e-13
2.328022674e-12
2.503014639e-09
3.394123169e-12
3.214363114e-09
4.041803842e-12
3.675662896e-09
4.030575403e-12
3.841214038e-09
3.301896081e-12
3.671928546e-09
2.037224864e-12
3.134657231e-09
6.91331791e-13
2.201490989e-09
8.490608692e-10
1.113481797e-12
1.593723053e-09
-3.011076944e-13
2.185862837e-12
2.501942258e-09
3.188080327e-12
3.213360896e-09
3.798200993e-12
3.675052776e-09
3.789654927e-12
3.841222584e-09
3.106354997e-12
3.672611846e-09
1.917834708e-12
3.135845751e-09
6.513530439e-13
2.202757471e-09
8.497122221e-10
1.045122429e-12
1.592960509e-09
-2.825784823e-13
2.052219837e-12
2.50093516e-09
2.994246989e-12
3.212418869e-09
3.568841459e-12
3.674478181e-09
3.562605138e-12
3.84122882e-09
2.921879344e-12
3.673252571e-09
1.805071226e-12
3.136962559e-09
6.135399451e-13
2.203949002e-09
8.50325762e-10
9.809245456e-13
1.592244767e-09
-2.651821032e-13
1.926651061e-12
2.499989434e-09
2.81200458e-12
3.211533516e-09
3.353025973e-12
3.67393716e-09
3.348769944e-12
3.841233076e-09
2.747967454e-12
3.673853374e-09
1.698648398e-12
3.138011878e-09
5.778049396e-13
2.205069845e-09
8.509035669e-10
9.206593719e-13
1.591572963e-09
-2.488557172e-13
1.808719741e-12
2.499101373e-09
2.640739784e-12
3.210701496e-09
3.150057192e-12
3.673427842e-09
3.147490329e-12
3.841235643e-09
2.584111328e-12
3.674416752e-09
1.598273603e-12
3.138997715e-09
5.440570647e-13
2.206124062e-09
8.514476239e-10
8.641034994e-13
1.590942398e-09
-2.335380545e-13
1.697998127e-12
2.498267479e-09
2.479849598e-12
3.209919644e-09
2.959246098e-12
3.672948446e-09
2.958111368e-12
3.841236778e-09
2.429802636e-12
3.674945061e-09
1.503651882e-12
3.139923866e-09
5.122037424e-13
2.20711551e-09
8.519598277e-10
8.110400855e-13
1.590350527e-09
-2.191697301e-13
1.594070071e-12
2.497484449e-09
2.328745394e-12
3.209184969e-09
2.779917373e-12
3.672497274e-09
2.779988027e-12
3.841236707e-09
2.284538024e-12
3.675440511e-09
1.414489186e-12
3.140793915e-09
4.821518918e-13
2.208047847e-09
8.524419795e-10
7.612598872e-13
1.589794961e-09
-2.056935002e-13
1.496533112e-12
2.496749175e-09
2.186856344e-12
3.208494645e-09
2.611413759e-12
3.672072716e-09
2.61249007e-12
3.841235631e-09
2.147823452e-12
3.675905178e-09
1.330495519e-12
3.141611243e-09
4.538090337e-13