/*--------------------------------*- C++ -*----------------------------------*\
| =========                 |                                                 |
| \\      /  F ield         | OpenFOAM: The Open Source CFD Toolbox           |
|  \\    /   O peration     | Version:  2212                                  |
|   \\  /    A nd           | Website:  www.openfoam.com                      |
|    \\/     M anipulation  |                                                 |
\*---------------------------------------------------------------------------*/
FoamFile
{
    version     2.0;
    format      ascii;
    arch        "LSB;label=32;scalar=64";
    class       volScalarField;
    location    "20.00000000";
    object      Qdot;
}
// * * * * * * * * * * * * * * * * * * * * * * * * * * * * * * * * * * * * * //

dimensions      [1 -1 -3 0 0 0 0];

internalField   nonuniform List<scalar> 
3000
(
-4.664460446e-16
-4.724797874e-16
-4.813493548e-16
-4.926096378e-16
-5.053152458e-16
-5.173221748e-16
-5.237964264e-16
-5.140730961e-16
-4.653340785e-16
-6.104216971e-16
-6.34402823e-16
-6.699221306e-16
-7.159555052e-16
-7.708000012e-16
-8.313838434e-16
-8.921143107e-16
-9.426083847e-16
-9.601563499e-16
-8.572273245e-16
-9.160976583e-16
-1.004706622e-15
-1.122927571e-15
-1.270710923e-15
-1.446962351e-15
-1.646258085e-15
-1.850548087e-15
-1.999024563e-15
-1.264759768e-15
-1.38892553e-15
-1.579177614e-15
-1.839834043e-15
-2.176906107e-15
-2.594225948e-15
-3.082792694e-15
-3.594226063e-15
-3.972936664e-15
-1.934011049e-15
-2.17805901e-15
-2.558335519e-15
-3.090489391e-15
-3.79396101e-15
-4.680398036e-15
-5.72407809e-15
-6.799833444e-15
-7.575751808e-15
-3.038242663e-15
-3.498646864e-15
-4.226579237e-15
-5.261787025e-15
-6.649451587e-15
-8.410629381e-15
-1.047538635e-14
-1.256358919e-14
-1.403553079e-14
-4.877568287e-15
-5.724486644e-15
-7.079300339e-15
-9.028461849e-15
-1.166275122e-14
-1.501107381e-14
-1.890739261e-14
-2.278386354e-14
-2.54900247e-14
-7.968989303e-15
-9.500604531e-15
-1.197292841e-14
-1.555877217e-14
-2.042770017e-14
-2.661116832e-14
-3.375583832e-14
-4.077865283e-14
-4.565377377e-14
-1.320513683e-14
-1.594268459e-14
-2.039133331e-14
-2.68793889e-14
-3.571146052e-14
-4.691009396e-14
-5.97758008e-14
-7.231721511e-14
-8.100316772e-14
-2.21266089e-14
-2.697865166e-14
-3.490218648e-14
-4.65017239e-14
-6.231399414e-14
-8.23314169e-14
-1.052316184e-13
-1.274307758e-13
-1.428010484e-13
-3.739485773e-14
-4.594273708e-14
-5.995137784e-14
-8.051227122e-14
-1.085627957e-13
-1.440274222e-13
-1.844791003e-13
-2.23551522e-13
-2.506309494e-13
-6.360979565e-14
-7.860251627e-14
-1.032369938e-13
-1.394598672e-13
-1.889026931e-13
-2.513553825e-13
-3.224469304e-13
-3.909585695e-13
-4.385204467e-13
-1.087265163e-13
-1.349396051e-13
-1.780924993e-13
-2.416292376e-13
-3.283855246e-13
-4.378968465e-13
-5.623850657e-13
-6.821892535e-13
-7.655401097e-13
-1.865093252e-13
-2.322347329e-13
-3.076168298e-13
-4.187151273e-13
-5.704496504e-13
-7.618720641e-13
-9.792286452e-13
-1.188213842e-12
-1.334078375e-12
-3.207851522e-13
-4.004171631e-13
-5.318398414e-13
-7.256739333e-13
-9.904386862e-13
-1.324237787e-12
-1.702703815e-12
-2.065831885e-12
-2.321562981e-12
-5.528183194e-13
-6.913444745e-13
-9.20168246e-13
-1.257890126e-12
-1.719333554e-12
-2.30088063e-12
-2.958475188e-12
-3.576542068e-12
-4.037449033e-12
-9.541014064e-13
-1.194901278e-12
-1.592986822e-12
-2.181018218e-12
-2.985309126e-12
-4.000950138e-12
-5.156491644e-12
-6.282826753e-12
-7.040007285e-12
-1.648546664e-12
-2.066906045e-12
-2.758959646e-12
-3.781791988e-12
-5.181299511e-12
-6.948477685e-12
-8.955898215e-12
-1.088997511e-11
-1.223026208e-11
-2.851052389e-12
-3.577698815e-12
-4.78035669e-12
-6.558700222e-12
-8.992771849e-12
-1.206670373e-11
-1.555816724e-11
-1.891654844e-11
-2.124678629e-11
-4.93454947e-12
-6.196605229e-12
-8.286439159e-12
-1.137818252e-11
-1.561185769e-11
-2.096052949e-11
-2.703789547e-11
-3.288421472e-11
-3.690788356e-11
-8.546722873e-12
-1.073907386e-11
-1.437118571e-11
-1.97476052e-11
-2.711405941e-11
-3.642605792e-11
-4.701326098e-11
-5.720510605e-11
-6.412082264e-11
-1.481356357e-11
-1.862351155e-11
-2.493894334e-11
-3.429349612e-11
-4.712017165e-11
-6.334806168e-11
-8.181555655e-11
-9.96129551e-11
-1.117099235e-10
-2.569514633e-11
-3.232075505e-11
-4.331046077e-11
-5.960212316e-11
-8.196325216e-11
-1.102875624e-10
-1.425659837e-10
-1.737255107e-10
-1.949594897e-10
-4.460921536e-11
-5.614314573e-11
-7.528942461e-11
-1.037037646e-10
-1.427581425e-10
-1.923120601e-10
-2.489005769e-10
-3.036673323e-10
-3.411398223e-10
-7.752849518e-11
-9.763616157e-11
-1.310497314e-10
-1.807108701e-10
-2.491002256e-10
-3.360872019e-10
-4.357215985e-10
-5.325161503e-10
-5.991576718e-10
-1.349205711e-10
-1.700456076e-10
-2.284956369e-10
-3.155418384e-10
-4.357354514e-10
-5.891363915e-10
-7.655921213e-10
-9.37964042e-10
-1.057737851e-09
-2.351968996e-10
-2.967196642e-10
-3.992889389e-10
-5.524545029e-10
-7.647168425e-10
-1.036892437e-09
-1.35182175e-09
-1.661832305e-09
-1.880078549e-09
-4.108887827e-10
-5.19025995e-10
-6.997597939e-10
-9.706269668e-10
-1.347833697e-09
-1.83454058e-09
-2.402149613e-09
-2.966680542e-09
-3.371188174e-09
-7.197991289e-10
-9.10722053e-10
-1.230864471e-09
-1.712946388e-09
-2.388561724e-09
-3.267402986e-09
-4.302814075e-09
-5.34639388e-09
-6.111318409e-09
-1.265337395e-09
-1.604318152e-09
-2.175127165e-09
-3.039913935e-09
-4.261693548e-09
-5.867323015e-09
-7.783208244e-09
-9.746267392e-09
-1.122557342e-08
-2.234018415e-09
-2.840026916e-09
-3.865923253e-09
-5.43204289e-09
-7.666883693e-09
-1.064077933e-08
-1.424410316e-08
-1.220591224e-07
-1.249889997e-07
-3.965490239e-09
-5.057867611e-09
-6.919282722e-09
-9.787367169e-09
-1.392954752e-08
-1.235736544e-07
1.037064246e-07
9.633495685e-08
9.024001551e-08
-7.085135495e-09
-9.073486933e-09
-1.248844688e-08
-1.218585265e-07
1.044623856e-07
9.382742051e-08
-2.383875799e-08
-3.857832213e-08
1.831956599e-07
-1.275893693e-08
-1.641894985e-08
-1.268133158e-07
9.735673365e-08
8.23114163e-08
-4.258138915e-08
6.07575059e-08
1.605879472e-07
3.045504301e-08
-1.272411681e-07
1.00115897e-07
8.801330235e-08
-3.516300414e-08
6.601000476e-08
1.545878471e-07
1.263510651e-07
1.937708222e-07
1.632971281e-07
8.736715736e-08
-2.957906326e-08
1.816784565e-07
4.05530497e-08
9.211403477e-09
8.184232759e-08
1.258458487e-07
2.795756087e-07
4.42379597e-07
1.808411405e-07
5.204950641e-08
1.376298492e-07
-1.38160531e-08
2.611760745e-07
2.720023589e-07
4.79497615e-07
6.643741165e-07
7.318485157e-07
3.248438916e-08
1.144053372e-07
1.82763417e-07
3.217065708e-07
2.943537953e-07
6.662580285e-07
9.505435595e-07
1.271506579e-06
1.500966216e-06
1.818648375e-07
2.423578211e-07
2.486643867e-07
4.172481659e-07
7.118305504e-07
1.180845888e-06
1.78384407e-06
2.533867669e-06
3.36214855e-06
2.491306282e-07
3.694488331e-07
6.102010561e-07
1.060073016e-06
1.493067656e-06
2.401233666e-06
3.758411857e-06
5.407414146e-06
7.077678006e-06
6.148268977e-07
8.49750746e-07
1.33230175e-06
2.073751483e-06
3.224300889e-06
5.168188082e-06
7.930070548e-06
1.153213105e-05
1.511935123e-05
1.268614868e-06
1.788834515e-06
2.598533119e-06
4.127265747e-06
6.648442216e-06
1.081725249e-05
1.67354787e-05
2.42523714e-05
3.193316189e-05
2.631176089e-06
3.602424367e-06
5.357138069e-06
8.620493367e-06
1.402550518e-05
2.268358362e-05
3.522568898e-05
5.089239935e-05
6.703602305e-05
5.333987926e-06
7.400036169e-06
1.117515912e-05
1.802828791e-05
2.948163235e-05
4.77552664e-05
7.357315095e-05
0.0001058274189
0.0001387172376
1.116324299e-05
1.537819104e-05
2.347759033e-05
3.78973991e-05
6.184958282e-05
9.920902809e-05
0.0001520512204
0.0002169545341
0.000282173896
2.353674298e-05
3.249536648e-05
4.934456111e-05
7.920970368e-05
0.0001286220616
0.000204307387
0.0003093536783
0.0004366906113
0.0005627972454
4.9970858e-05
6.850885184e-05
0.0001036686866
0.0001649031401
0.0002646838552
0.0004149190098
0.0006194023678
0.0008625857999
0.001100400768
0.0001061520045
0.0001446068412
0.0002166229959
0.0003404013808
0.0005381824188
0.0008299493486
0.001218727979
0.001673847939
0.00211636363
0.0002247575179
0.0003032493994
0.0004487853102
0.0006942703387
0.001078744567
0.00163403473
0.002360601182
0.003204485996
0.004041704582
0.0004719757946
0.0006298532322
0.0009186018188
0.001396574488
0.002130501975
0.003171714482
0.004525219642
0.006123454331
0.007479886553
0.0009791128266
0.00129114952
0.001853103701
0.00276763856
0.004150988991
0.00610507053
0.008649712251
0.01125440189
0.01358230315
0.001998777225
0.002603283545
0.003678179348
0.005407722704
0.00802180455
0.01169193616
0.0159377045
0.02047591864
0.02449915874
0.004003922594
0.005154513918
0.007188235528
0.01047222045
0.01535141441
0.02155195832
0.02901762635
0.03698708168
0.0441101903
0.007868107976
0.01004340993
0.01392374061
0.0199156172
0.02818794942
0.03907196748
0.05218092867
0.06634808473
0.07931052084
0.01526899418
0.01942903698
0.02611005164
0.03629065046
0.05065576222
0.06950749762
0.09239223644
0.1176088435
0.141360867
0.02872019167
0.03557032485
0.04712144207
0.06454186475
0.08895427122
0.1209819746
0.1601487141
0.2039297538
0.2462397373
0.05185751299
0.06352527442
0.08300905344
0.1121108912
0.1525923186
0.2054499599
0.2698754048
0.3419144223
0.4130023055
0.09159402358
0.1110315882
0.1431753548
0.1906490133
0.2558445857
0.3396196967
0.4398069319
0.5504520783
0.6623431757
0.1590154605
0.1907679657
0.2426515428
0.3180127589
0.4191870053
0.5454639142
0.6920569441
0.8521972998
1.021192114
0.2723446175
0.3230097594
0.4043921015
0.5196863767
0.6694752212
0.8497738096
1.053936439
1.27961901
1.53355431
0.4595652613
0.537529108
0.6598760739
0.827727683
1.037958354
1.283808913
1.562225254
1.883325371
2.269124392
0.7580788285
0.8718822155
1.045805398
1.276933484
1.558822584
1.887233642
2.271269298
2.738841037
3.326112757
1.208683469
1.364968111
1.598701487
1.903519795
2.274503916
2.718017322
3.26123445
3.950228628
4.831883837
1.848230275
2.052831452
2.356505492
2.753765849
3.248110461
3.862144432
4.642556273
5.651721504
6.943199632
2.714143073
2.978012147
3.372683363
3.898983172
4.573738106
5.438012913
6.557524275
8.008372487
9.845308707
3.863301395
4.208289842
4.731773453
5.444730694
6.379933176
7.597486501
9.180793389
11.21536162
13.74888106
5.387649013
5.847891332
6.555073816
7.532488559
8.82991361
10.52607078
12.71865712
15.49515038
18.88442858
7.417337763
8.038506756
9.000235587
10.33894799
12.12130035
14.44189607
17.40613039
21.09210738
25.49421915
10.11904097
10.95765516
12.26009183
14.07533591
16.4845356
19.59237428
23.50137907
28.2645314
33.82195973
13.69435078
14.81747108
16.5613227
18.98493231
22.17876164
26.24803067
31.27737899
37.27427655
44.10076241
18.37795738
19.86217775
22.16076384
25.33785416
29.48472519
34.69342712
41.01101436
48.3744616
56.5401883
24.4331899
26.36275303
29.33876535
33.42277561
38.69473284
45.21547387
52.97016784
61.796097
71.31348535
32.14455868
34.60854517
38.38952638
43.53579738
50.10010522
58.08982342
67.39976564
77.73486392
88.54647749
41.80737615
44.89608036
49.60884325
55.96710665
63.9770091
73.56649038
84.50819442
96.33968168
108.3098289
53.7150344
57.51575819
63.28013819
70.98651244
80.57200694
91.85630633
104.4559158
117.7049823
130.6164936
68.1449332
72.73755444
79.66006844
88.82938152
100.0890908
113.1201806
127.3483545
141.8686663
155.4258285
85.34445807
90.7972514
98.96540368
109.6848467
122.680225
137.4632624
153.2351168
168.8178063
182.6575106
105.5187432
111.8850189
121.3630919
133.6882651
148.44133
164.9356968
182.1166517
198.5019516
212.2096153
128.8220983
136.1382323
146.9653663
160.9196587
177.4151968
195.5411401
213.9592366
230.8553428
243.9834432
155.3547976
163.640121
175.83128
191.409172
209.601826
229.252416
248.7178461
265.8167206
277.8578791
185.1663657
194.4251611
207.9752144
225.1489601
244.9749159
266.0348688
286.3473047
303.2779467
313.8469008
218.2656234
228.4904452
243.3810542
262.113896
283.5066959
305.8449748
326.7400724
343.2874242
352.0061089
254.6358542
265.8161893
282.0256963
302.2823547
325.1398637
348.5781397
369.9623638
385.9108335
392.4745658
294.2601717
306.3857061
323.8997712
345.5625755
369.7921547
394.3086937
416.0750263
431.2778354
435.4715602
337.1147788
350.1289009
368.8432742
391.9332277
417.538288
443.0896359
465.1871424
479.5738759
481.2812404
383.0781799
396.9981028
416.9537031
441.455992
468.4263784
495.0107505
517.4457626
531.0227633
530.2277546
432.2451896
447.0662802
468.2603643
494.179985
522.5338227
550.1880466
573.0191629
585.8633862
582.6451601
484.6505888
500.3762094
522.8186958
550.1778382
579.9564274
608.7484435
632.0767484
644.3245884
638.846818
540.3530006
556.9923785
580.7019455
609.5344057
640.7942598
670.8126559
694.7689691
706.601945
699.098371
599.4255196
616.9905312
641.9894421
672.3333883
705.136739
736.4789762
761.209966
772.8391183
763.5970081
661.9439341
680.4453401
706.7536853
738.6439289
773.0490392
805.8098483
831.4645444
843.1150771
832.458102
727.9742712
747.4179416
775.0480441
808.5087746
844.5611171
878.8221504
905.5399369
917.437203
905.7089256
797.5611565
817.9447106
846.8962668
881.9349075
919.6598769
955.4812552
983.3819602
995.7394556
983.2882742
870.7179584
892.0280862
922.2843746
958.8869056
998.2843755
1035.698388
1064.874713
1077.884396
1065.050485
947.4191601
969.6297401
1001.155026
1039.28287
1080.323636
1119.330591
1149.842865
1163.667872
1150.772401
1027.595021
1050.666042
1083.404154
1122.992561
1165.616555
1206.182615
1238.055723
1252.825387
1240.162122
1111.128389
1135.005615
1168.879599
1209.837372
1253.95344
1296.010224
1329.232467
1345.039473
1332.868695
1197.853458
1222.468748
1257.381453
1299.591843
1345.078875
1388.52456
1423.048197
1439.947617
1428.492222
1287.55628
1312.828467
1348.663918
1391.986481
1438.695655
1483.397333
1519.140523
1537.150486
1526.594035
1379.976876
1405.813095
1442.438506
1486.711753
1534.469671
1580.266694
1617.11657
1636.220265
1626.706717
1474.812769
1501.110145
1538.378434
1583.423069
1632.035565
1678.743642
1716.560233
1736.708965
1728.343805
1571.723778
1598.371375
1636.124027
1681.746609
1731.003019
1778.418812
1817.039555
1838.156564
1831.009031
1670.337852
1697.21878
1735.288934
1781.285782
1830.963469
1878.869466
1918.114054
1940.098834
1934.204957
1770.257688
1797.251295
1835.466909
1881.628089
1931.497034
1979.666481
2019.341828
2042.074694
2037.440881
1871.06786
1898.051901
1936.238898
1982.352141
2032.17943
2080.381152
2120.286267
2143.632964
2140.239912
1972.34216
1999.194895
2037.180164
2083.034591
2132.588658
2180.591606
2220.522217
2244.338407
2242.145125
2073.650882
2100.253025
2137.867199
2183.256755
2232.31127
2279.888669
2319.641487
2343.776948
2342.724736
2174.567798
2200.80427
2237.884225
2282.610733
2330.948044
2377.881076
2417.257581
2441.560048
2441.576355
2274.676616
2300.438081
2336.829094
2380.704887
2428.118971
2474.199915
2513.009638
2537.328235
2538.33019
2373.57677
2398.760916
2434.318471
2477.168573
2523.467457
2568.502293
2606.565571
2630.753709
2632.651369
2470.888426
2495.400997
2529.992209
2571.656049
2616.663746
2660.474198
2697.624334
2721.542164
2724.241408
2566.256633
2590.012206
2623.516922
2663.849629
2707.407507
2749.832528
2785.917461
2809.433845
2812.838876
2659.354668
2682.277199
2714.588701
2753.461928
2795.429639
2836.326419
2871.20989
2894.203904
2898.219387
2749.886462
2771.909589
2802.935013
2840.2374
2880.493361
2919.737867
2953.300127
2975.662151
2980.194978
2837.588256
2858.655414
2888.315866
2923.953144
2962.394632
2999.881743
3032.019861
3053.652279
3058.612989
2922.229513
2942.293857
2970.524285
3004.419079
3040.961979
3076.605266
3107.233084
3128.050644
3133.354536
3003.613155
3022.637339
3049.386183
3081.477543
3116.055816
3149.787027
3178.834816
3198.764701
3204.332648
3081.575212
3099.531033
3124.759694
3155.002423
3187.567336
3219.335631
3246.7495
3265.731152
3271.490174
3155.983977
3172.851916
3196.534083
3224.897881
3255.417049
3285.188047
3310.929159
3328.913898
3334.797504
3226.73873
3242.507413
3264.628276
3291.096767
3319.553053
3347.307733
3371.351366
3388.301843
3394.250197
3293.768144
3308.433739
3328.989125
3353.558777
3379.949094
3405.682591
3428.017098
3443.906631
3449.866556
3357.028421
3370.594001
3389.589455
3412.268447
3436.602501
3460.322835
3480.948524
3495.760343
3501.685198
3416.501251
3428.976132
3446.425966
3467.233026
3489.53202
3511.258803
3530.186782
3543.913213
3549.76267
3472.191644
3483.590716
3499.517057
3518.480287
3538.775633
3558.538764
3575.789777
3588.431388
3594.171132
3524.125701
3534.468765
3548.900608
3566.056335
3584.388375
3602.226759
3617.83003
3629.394773
3634.996146
3572.348369
3581.659486
3594.631775
3610.023425
3626.440203
3642.400511
3656.392621
3666.894974
3672.334576
3616.921211
3625.228082
3636.780825
3650.457855
3665.013934
3679.149415
3691.573223
3701.033358
3706.292627
3657.920249
3665.253622
3675.431053
3687.447931
3700.20328
3712.572644
3723.476266
3731.919243
3736.984025
3695.433881
3701.826994
3710.676789
3721.092044
3732.111
3742.777369
3752.213221
3759.668233
3764.528347
3729.560908
3735.048973
3742.62152
3751.496866
3760.84717
3769.877115
3777.901026
3784.400684
3789.049499
3760.408685
3765.028412
3771.376144
3778.77567
3786.527589
3793.990248
3800.660651
3806.240324
3810.674347
3788.091403
3791.880569
3797.057354
3803.046794
3809.272327
3815.238603
3820.615795
3825.313005
3829.531489
3812.728509
3815.725565
3819.786161
3824.432238
3829.204398
3833.746244
3837.891727
3841.7456
3845.750173
3834.443266
3836.686993
3839.686558
3843.0564
3846.448582
3849.638367
3852.614254
3855.665025
3859.459349
3853.361459
3854.890659
3856.884323
3859.044947
3861.130371
3863.040319
3864.908818
3867.197389
3870.786839
3869.610238
3870.463463
3871.505952
3872.523819
3873.375046
3874.076751
3874.89971
3876.467264
3879.858636
3883.31709
3883.532411
3883.677725
3883.618352
3883.306867
3882.87088
3882.709399
3883.597057
3886.798307
3894.608945
3894.223755
3893.52489
3892.452527
3891.048388
3889.54386
3888.457959
3888.706488
3891.726492
3903.611397
3902.662246
3901.170966
3899.148318
3896.719864
3894.214255
3892.262594
3891.912159
3894.7605
3910.448047
3908.9705
3906.737146
3903.825152
3900.438762
3896.9976
3894.237253
3893.327204
3896.013983
3915.239933
3913.268464
3910.341801
3906.599457
3902.319356
3898.006047
3894.492315
3893.061013
3895.596686
3918.105076
3915.672977
3912.100075
3907.58429
3902.472406
3897.348083
3893.134352
3891.219026
3893.614258
3919.158095
3916.297413
3912.123557
3906.889053
3901.004902
3895.128319
3890.265949
3887.902586
3890.168127
3918.509912
3915.251399
3910.520028
3904.619263
3898.01988
3891.447332
3885.985581
3883.208839
3885.355416
3916.267519
3912.640605
3907.393268
3900.876397
3893.616286
3886.401566
3880.38754
3877.230683
3879.268913
3912.533814
3908.566588
3902.842926
3895.757778
3887.888893
3880.083274
3873.561899
3870.056757
3871.99707
3907.407484
3903.126693
3896.964437
3889.356515
3880.928266
3872.580498
3865.594518
3861.77146
3863.624034
3900.982945
3896.413998
3889.848981
3881.761481
3872.820751
3863.977089
3856.567076
3852.455002
3854.229717
3893.350314
3888.517302
3881.583484
3873.057325
3863.648513
3854.352749
3846.55713
3842.183472
3843.889867
3884.595423
3879.52114
3872.250643
3863.324515
3853.489582
3843.783097
3835.638197
3831.028935
3832.676179
3874.799862
3869.505835
3861.928986
3852.639403
3842.417938
3832.339764
3823.879851
3819.059534
3820.656404
3864.04104
3858.547567
3850.692952
3841.074317
3830.503603
3820.090491
3811.347836
3806.339617
3807.894479
3852.392283
3846.718468
3838.612983
3828.697656
3817.812751
3807.099249
3798.104189
3792.929856
3794.450659
3839.922927
3834.086725
3825.755642
3815.574013
3804.40783
3793.426361
3784.207372
3778.887396
3780.381664
3826.698445
3820.716705
3812.18373
3801.764301
3790.347693
3779.128643
3769.712406
3764.265983
3765.740818
3812.780573
3806.669083
3797.956425
3787.325885
3775.687733
3764.259537
3754.671019
3749.116117
3750.578201
3798.227445
3792.00098
3783.129414
3772.312723
3760.480027
3748.869256
3739.131782
3733.485196
3734.940795
3783.093737
3776.766104
3767.755043
3756.775512
3744.773475
3733.004927
3723.140258
3717.417657
3718.872635
3767.430812
3761.014898
3751.882454
3740.761826
3728.61395
3716.710734
3706.739144
3700.955126
3702.41495
3751.286865
3744.794684
3735.557737
3724.316268
3712.044436
3700.028062
3689.968414
3684.136555
3685.606312
3734.707072
3728.14981
3718.824071
3707.480608
3695.105173
3682.995637
3672.865456
3666.998365
3668.482772
3717.733738
3711.121797
3701.721874
3690.293932
3677.833798
3665.649664
3655.465211
3649.574577
3651.077999
3700.406439
3693.749481
3684.288938
3672.792775
3660.265481
3648.023961
3637.800306
3631.89695
3633.423411
3682.762164
3676.069154
3666.560571
3655.011259
3642.433058
3630.150092
3619.901178
3613.995102
3615.548305
3664.835454
3658.114699
3648.569731
3636.981228
3624.367161
3612.057492
3601.796203
3595.896637
3597.479974
3646.658537
3639.917726
3630.347156
3618.732371
3606.096342
3593.773588
3583.511815
3577.627261
3579.243834
3628.261454
3621.507697
3611.921493
3600.29235
3587.647194
3575.323917
3565.072616
3559.210894
3560.863525
3609.67219
3602.91205
3593.319412
3581.686913
3569.044465
3556.732238
3546.50149
3540.669776
3542.361028
3590.916786
3584.156319
3574.565727
3562.940011
3550.311168
3538.020635
3527.819702
3522.024572
3523.756759
3572.019457
3565.26424
3555.683506
3544.0739
3531.468683
3519.209623
3509.046999
3503.294466
3505.069667
3553.002698
3546.25786
3536.694165
3525.109243
3512.536852
3500.318234
3490.201696
3484.497245
3486.317319
3533.887379
3527.157634
3517.617571
3506.0652
3493.53407
3481.364108
3471.300762
3465.649384
3467.51598
3514.692834
3507.982505
3498.472121
3486.959509
3474.477361
3462.36356
3452.359887
3446.766109
3448.680674
3495.436938
3488.749985
3479.274815
3467.808554
3455.382442
3443.331647
3433.393541
3427.861451
3429.825234
3476.136167
3469.476208
3460.041307
3448.627413
3436.263765
3424.282204
3414.415004
3408.948273
3410.962325
3456.80563
3450.175965
3440.785937
3429.429885
3417.134542
3405.227855
3395.436375
3390.03827
3392.103432
3437.459077
3430.862701
3421.521726
3410.228476
3398.006717
3386.179985
3376.468529
3371.141911
3373.258789
3418.108856
3411.548476
3402.26032
3391.034337
3378.890899
3367.148654
3357.521017
3352.268326
3354.437246
3398.765815
3392.243847
3383.011874
3371.857129
3359.796204
3348.142423
3338.60187
3333.425082
3335.646012
3379.439112
3372.957681
3363.784834
3352.704788
3340.73
3329.168066
3319.71728
3314.617833
3316.890264
3360.135915
3353.696829
3344.585602
3333.583159
3321.697499
3310.230124
3300.871109
3295.849771
3298.172551
3340.86095
3334.465657
3325.418024
3314.495438
3302.701156
3291.330247
3282.064165
3277.120845
3279.491935
3321.615848
3315.265359
3306.282659
3295.441388
3283.739807
3272.466249
3263.293178
3258.426652
3260.842807
3302.398242
3296.093012
3287.175776
3276.41625
3264.807484
3253.630822
3244.549405
3239.756934
3242.213295
3283.20055
3276.940305
3268.087995
3257.409278
3245.891832
3234.809815
3225.816767
3221.093597
3223.583185
3264.008382
3257.791875
3249.002519
3238.401837
3226.972044
3215.979996
3207.069451
3202.408169
3204.921304
3244.798513
3238.623182
3229.892878
3219.364983
3208.016248
3197.106236
3188.268895
3183.658638
3186.182284
3225.536348
3219.397881
3210.720143
3200.256467
3188.97828
3178.138046
3169.360109
3164.785619
3167.302723
3206.172865
3200.064627
3191.429547
3181.01714
3169.793832
3159.005452
3150.267317
3145.707861
3148.196724
3186.640997
3180.553323
3171.946537
3161.566742
3150.375954
3139.614221
3130.888956
3126.317133
3128.750908
3166.851482
3160.770827
3152.172262
3141.799134
3130.610003
3119.840531
3111.092127
3106.472625
3108.819046
3146.688258
3140.596194
3131.978612
3121.577086
3110.348158
3099.525236
3090.706702
3085.995063
3088.216512
3126.003516
3119.875609
3111.202965
3100.726801
3089.40372
3078.46798
3069.519348
3064.660847
3066.714886
3104.612638
3098.417212
3089.642883
3079.032464
3067.545521
3056.421514
3047.267866
3042.196619
3044.03709
3082.289271
3075.98614
3067.051091
3056.231174
3044.492845
3033.086678
3023.636337
3018.274752
3019.853541
3058.760928
3052.30015
3043.131161
3032.008732
3019.911379
3008.108586
2998.251663
2992.510377
2993.779853
3033.705554
3027.026313
3017.534419
3005.996835
2993.410788
2981.07468
2970.682156
2964.460579
2965.376677
3006.749565
2999.779311
2989.858621
2977.772289
2964.544579
2951.515332
2940.438911
2933.626455
2934.152243
2977.467964
2970.121951
2959.649069
2946.858887
2932.812917
2918.907683
2906.980635
2899.458681
2899.568132
2945.387052
2937.568438
2926.402733
2912.732628
2897.669089
2882.683403
2869.722557
2861.367141
2861.048686
2909.990354
2901.591027
2889.575951
2874.830772
2858.530114
2842.240886
2828.049931
2818.735007
2817.994309
2870.728206
2861.630486
2848.596188
2832.565196
2814.7919
2796.962167
2781.33633
2770.937437
2769.798702
2827.031346
2817.110691
2802.878076
2785.340234
2765.849051
2746.234598
2728.966649
2717.364682
2715.86981
2778.328622
2767.45741
2751.843739
2732.574881
2711.119082
2689.476905
2670.364326
2657.449066
2655.653988
2724.068658
2712.121041
2694.947048
2673.728859
2650.070379
2626.168777
2605.021835
2590.694867
2588.662633
2663.744956
2650.602694
2631.701057
2608.331626
2582.252776
2555.882707
2532.533016
2516.70974
2514.500273
2596.923546
2582.482595
2561.707436
2536.012942
2507.32916
2478.316279
2452.625375
2435.235925
2432.89293
2523.27187
2507.449412
2484.68632
2456.533204
2425.106096
2393.32275
2365.190175
2346.179276
2343.71541
2442.587261
2425.328707
2400.504626
2369.811414
2335.561177
2300.937526
2270.307921
2249.634016
2247.016138
2354.82304
2336.108469
2309.200671
2275.948508
2238.864736
2201.39814
2168.266978
2145.901223
2143.038172
2260.110135
2239.959593
2211.002914
2175.243826
2135.39371
2095.155625
2059.573385
2035.499415
2032.235059
2158.7722
2137.24928
2106.340831
2068.202837
2025.735943
1982.875768
1944.950577
1919.166076
1915.28035
2051.332456
2028.545697
1995.846453
1955.534888
1910.683975
1865.429609
1825.328577
1797.849611
1793.069553
1938.51107
1914.612899
1880.345827
1838.140584
1791.218314
1743.873499
1701.8231
1672.691788
1666.713339
1821.212611
1796.395784
1760.84052
1717.089345
1668.481177
1619.419985
1575.705757
1545.001154
1537.520616
1700.503987
1674.995763
1638.480232
1593.588595
1543.742438
1493.401385
1448.366936
1416.217998
1406.969965
1577.584058
1551.638564
1514.528203
1468.946557
1418.359946
1367.228125
1321.27294
1287.871373
1276.668035
1453.746703
1427.636103
1390.321515
1344.530803
1293.736299
1242.343629
1195.91865
1161.528625
1148.294173
1330.339374
1304.344452
1267.228268
1221.724465
1171.273726
1120.177135
1073.776745
1038.738242
1023.532125
1208.719065
1183.119748
1146.603334
1101.881544
1052.328303
1002.09549
956.2446578
920.9678121
903.9921032
1090.207395
1065.273586
1029.744008
986.2824606
938.1645465
889.3551528
844.5911847
809.5405331
791.1293375
976.0462702
952.0292333
917.8467679
876.0910257
829.9117673
783.0564142
739.9059683
705.5755396
686.1677315
867.3556708
844.4801618
811.9666817
772.3145548
728.5243805
684.1029014
643.0563537
609.938748
590.0385683
765.0954213
743.5528293
712.9815512
675.769588
634.7492646
593.1704241
554.6571216
523.2118521
503.3451382
670.0333303
649.9762066
621.5635106
587.0562683
549.1037349
510.6895727
475.0590021
445.6880688
426.3765904
582.7224596
564.2608925
538.1610441
506.544497
471.8673574
436.8457323
404.3642624
377.4068938
359.0804878
503.4905536
486.6909217
462.994624
434.375331
403.0904756
371.6045479
342.4153792
318.0474066
300.9678508
432.4454474
417.3323312
396.0704782
370.4920854
342.6277849
314.6510226
288.6593334
266.9497228
251.510489
369.5087606
356.0752705
337.2222047
314.6007395
290.0477301
265.3921226
242.697576
223.6513417
209.9063321
314.3873512
302.5604628
286.0054368
266.1213022
244.7215379
223.4043375
203.779987
187.3103903
175.3063148
266.4997901
256.1886593
241.7978532
224.6561732
206.2133325
187.9276265
171.1620843
157.1156236
146.8186989
225.4593041
216.5595688
204.1762984
189.4852246
173.7530516
158.2341056
144.0736059
132.2479939
123.5614953
190.562386
182.9512979
172.3939865
159.920789
146.62922
133.5887357
121.7545431
111.9171867
104.7005612
161.1431847
154.6900348
145.7670051
135.2687265
124.1378986
113.2790388
103.483561
95.38835643
89.47512137
136.5322608
131.1040494
123.6216984
114.8551359
105.6073324
96.63759324
88.59778659
81.99910407
77.21207487
116.0807344
111.546987
105.3166587
98.04675534
90.41584514
83.05703557
76.50462151
71.16789935
67.33107477
99.17885406
95.41538839
90.25861886
84.26474347
78.00304515
71.9982736
66.6866934
62.3956726
59.34268656
85.26857248
82.16016743
77.91234933
72.99251606
67.87515177
62.9930255
58.70144842
55.26238326
52.84193799
73.85069122
71.2927584
67.80531609
63.7785179
59.60558229
55.64201259
52.17689339
49.42028992
47.49881133
64.48743781
62.38682292
59.52813378
56.23510836
52.83202891
49.61016249
46.80475929
44.58492231
43.04725978
56.80153501
55.07662413
52.7319374
50.03471092
47.25132267
44.61990047
42.33216986
40.52510739
39.27343629
50.4727813
49.05308902
47.1237913
44.90443279
42.61301968
40.44391214
38.55356903
37.05402453
36.11139529
45.23311945
44.0585554
42.46089185
40.61974839
38.7129536
36.89895256
35.30622439
34.15544369
33.41989299
40.86067342
39.8805507
38.5441794
36.9980238
35.38690772
33.84078448
32.60706742
31.65300063
30.97070463
37.17340866
36.34534914
35.21173146
33.89195789
32.50493376
31.31268078
30.25104626
29.37380476
28.72497099
34.02267823
33.31154774
32.33262668
31.21960736
30.14175822
29.07748172
28.10347647
27.28151381
26.65374345
31.28739755
30.67021023
29.90484004
28.9946328
28.0144226
27.03782289
26.13162649
25.35223569
24.74383176
28.99468161
28.49696484
27.80159746
26.97076615
26.0699554
25.16410197
24.31549572
23.58529938
23.02561667
26.97391195
26.51934939
25.88219159
25.11672662
24.28107609
23.43599727
22.64783882
21.98640736
21.44714006
25.12725386
24.70856221
24.11938863
23.40806135
22.62897871
21.84598692
21.13277429
20.50582147
19.97185164
23.42957634
23.04055692
22.49169539
21.82847028
21.10755745
20.39927166
19.72684266