/*--------------------------------*- C++ -*----------------------------------*\
| =========                 |                                                 |
| \\      /  F ield         | OpenFOAM: The Open Source CFD Toolbox           |
|  \\    /   O peration     | Version:  2212                                  |
|   \\  /    A nd           | Website:  www.openfoam.com                      |
|    \\/     M anipulation  |                                                 |
\*---------------------------------------------------------------------------*/
FoamFile
{
    version     2.0;
    format      ascii;
    arch        "LSB;label=32;scalar=64";
    class       volVectorField;
    location    "20.00000000";
    object      U;
}
// * * * * * * * * * * * * * * * * * * * * * * * * * * * * * * * * * * * * * //

dimensions      [0 1 -1 0 0 0 0];

internalField   nonuniform List<vector> 
3000
(
(0.2258177467 -0.006204346154 4.080956859e-12)
(0.2263553926 -0.01058386291 8.128079259e-12)
(0.2275195265 -0.01647551406 1.608053648e-11)
(0.2294969129 -0.02416501355 3.377903821e-11)
(0.2324094747 -0.03387649723 8.421648414e-11)
(0.2359180233 -0.04669378298 2.593634552e-11)
(0.2368970603 -0.05739790968 9.761103478e-12)
(0.2238475701 -0.06934393112 4.393709057e-12)
(0.15308741 -0.03367157352 1.078295565e-12)
(0.2441591646 -0.01339944584 1.803957504e-11)
(0.2473468406 -0.02194507231 3.475972742e-11)
(0.2517123488 -0.0316761659 6.083667646e-11)
(0.2572813063 -0.04169142945 1.038827572e-10)
(0.2629118755 -0.05100513669 1.762809136e-10)
(0.2648398747 -0.05815309921 8.08873362e-11)
(0.255991007 -0.05662662503 3.754692695e-11)
(0.2192445792 -0.04767472322 1.547338615e-11)
(0.1246804298 -0.0131699441 4.214608661e-12)
(0.273417703 -0.01792902205 3.311582501e-11)
(0.2766692447 -0.02832637617 6.143840987e-11)
(0.2804998797 -0.03897157965 1.021274531e-10)
(0.2834295278 -0.0480715164 1.618471496e-10)
(0.2823811423 -0.05412103865 2.478603994e-10)
(0.2719036524 -0.05487173053 1.214488775e-10)
(0.2439899717 -0.04722639836 5.807988558e-11)
(0.1827738453 -0.03114324443 2.689689148e-11)
(0.07875333147 -0.005714728096 7.544051446e-12)
(0.3054486905 -0.01778403 3.599178211e-11)
(0.3075079233 -0.0273884683 6.733891462e-11)
(0.3088339866 -0.03625459858 1.178328395e-10)
(0.3068936902 -0.0423298454 1.763101055e-10)
(0.2977700177 -0.044309829 2.410101834e-10)
(0.2758298764 -0.04110240813 1.35993381e-10)
(0.2342819319 -0.03082566041 7.429105962e-11)
(0.1646535912 -0.01634220898 3.662097213e-11)
(0.06524540048 -0.002192604343 1.041757385e-11)
(0.3337169132 -0.01595523953 -3.932941699e-11)
(0.333058894 -0.02406241541 -9.892058563e-11)
(0.3298685854 -0.03084613825 5.594591451e-11)
(0.3211501589 -0.03438957528 1.319329638e-10)
(0.3030480709 -0.03398775982 1.585521927e-10)
(0.2707588629 -0.02912505889 1.189702996e-10)
(0.219998925 -0.0199706691 7.546763349e-11)
(0.1473521596 -0.009191071715 4.035593313e-11)
(0.05426706449 -0.0008373659933 1.18278872e-11)
(0.3579647309 -0.01311928511 -1.851312911e-11)
(0.3542742303 -0.01940203008 -1.223902549e-11)
(0.3464149732 -0.02419213162 6.685615912e-11)
(0.3314633413 -0.0259330376 1.391102486e-10)
(0.3061122161 -0.02441209836 2.124826882e-10)
(0.2668828996 -0.01964978033 1.306359905e-10)
(0.2113209518 -0.01256784322 8.153215597e-11)
(0.138404855 -0.005219900809 4.423994549e-11)
(0.04999841283 -0.000386786998 1.309767339e-11)
(0.3765212175 -0.01034157439 -5.813044397e-11)
(0.3697977429 -0.0150623679 -9.770167374e-11)
(0.3575207779 -0.01836119087 2.551606078e-11)
(0.3371475725 -0.0190713934 1.026986882e-10)
(0.3061028936 -0.01728458986 1.400987597e-10)
(0.2620566523 -0.01328217273 1.154923734e-10)
(0.2037919132 -0.008070733989 8.128110811e-11)
(0.1314227884 -0.003121583455 4.740822562e-11)
(0.04673756589 -0.0001571901031 1.456517093e-11)
(0.3909276679 -0.007882227239 -3.895398554e-11)
(0.3815682037 -0.01132198853 -3.662046336e-11)
(0.3656138431 -0.01354121492 3.088644783e-11)
(0.3410184247 -0.01370529348 1.131567661e-10)
(0.3058981029 -0.0120525871 2.185065972e-10)
(0.2587743049 -0.008944582587 1.396105651e-10)
(0.1991340582 -0.005247861867 1.017028763e-10)
(0.1274638096 -0.001951111369 6.435813854e-11)
(0.04515846186 -9.446103131e-05 2.033698744e-11)
(0.4014206395 -0.005898639356 -5.249530065e-11)
(0.3898721053 -0.008383717205 -9.101326952e-11)
(0.3709629345 -0.009876072948 -1.552456395e-10)
(0.3431426724 -0.009795613229 -7.563467009e-11)
(0.3051014514 -0.008420107783 8.949507847e-11)
(0.2559496813 -0.006093031982 1.366346692e-10)
(0.1955639022 -0.003486093474 1.907774229e-10)
(0.1245306229 -0.001258248915 1.302876311e-10)
(0.04395560901 -4.695354673e-05 3.579982917e-11)
(0.4092150586 -0.004360614997 -4.219793273e-11)
(0.3959400806 -0.006141077024 -6.322191272e-11)
(0.3747643225 -0.007146232411 -7.00095835e-11)
(0.3445726526 -0.006976967213 -1.354000315e-11)
(0.3044948524 -0.00589606194 6.434469721e-11)
(0.2540289861 -0.00419229075 1.012867967e-10)
(0.1932490415 -0.002362956539 1.102996646e-10)
(0.1227119433 -0.0008439729203 7.743169629e-11)
(0.04326746697 -3.421439257e-05 2.429431972e-11)
(0.4148077107 -0.003203590864 5.12008165e-11)
(0.4002007207 -0.004481455613 1.240688712e-10)
(0.3773131846 -0.005166522277 5.028965237e-11)
(0.3453869642 -0.004985221595 7.279346683e-11)
(0.3038770009 -0.004161662539 1.640269042e-10)
(0.2525349658 -0.002923579866 1.147634059e-10)
(0.1915345741 -0.001630947327 9.001516987e-11)
(0.1213780072 -0.0005770793723 5.816823043e-11)
(0.04274608346 -2.089746525e-05 1.844244433e-11)
(0.4188887 -0.002348060217 4.783817163e-11)
(0.4032757621 -0.003266695603 7.970243074e-11)
(0.3791180575 -0.003739478666 6.141597581e-11)
(0.3459376448 -0.003577506035 7.416961892e-11)
(0.3034241266 -0.00296154818 1.04621857e-10)
(0.2514940621 -0.002065036808 1.00553949e-10)
(0.190368226 -0.001146644098 8.988779534e-11)
(0.1204895412 -0.0004060125408 6.412691767e-11)
(0.04241163074 -1.626157468e-05 2.079507805e-11)
(0.4218140524 -0.001721124029 2.928238232e-12)
(0.40544898 -0.002385528554 -2.92715062e-11)
(0.3803541686 -0.002717040907 -1.518775621e-10)
(0.3462658941 -0.00258409257 -1.022901758e-10)
(0.3030420667 -0.002127455387 3.886857436e-11)
(0.2507082263 -0.001476734039 1.025809867e-10)
(0.1895074679 -0.0008177596002 1.692998638e-10)
(0.1198346926 -0.0002893750973 1.382254379e-10)
(0.04215900436 -1.123956239e-05 3.782221184e-11)
(0.4239371598 -0.001264453537 -1.17114837e-11)
(0.4070144415 -0.001747635071 -3.326710979e-11)
(0.3812321546 -0.001983551255 -6.162054791e-11)
(0.3464875881 -0.001879273516 -3.057422322e-11)
(0.3027589458 -0.001542215063 3.360892902e-11)
(0.2501447167 -0.001068295055 7.147209185e-11)
(0.1888978766 -0.0005916330236 8.411479512e-11)
(0.1193752172 -0.0002101911797 5.842687002e-11)
(0.04198458034 -8.775990121e-06 1.756814967e-11)
(0.4254646208 -0.0009319312475 -8.664038958e-12)
(0.4081299659 -0.001285853826 -1.39008285e-11)
(0.3818437713 -0.001456212587 -6.950107766e-12)
(0.346623156 -0.001376543802 3.798534705e-11)
(0.3025326578 -0.00112777091 1.233908295e-10)
(0.2497206844 -0.0007806298866 7.255924128e-11)
(0.1884446866 -0.0004325754119 3.248351605e-11)
(0.1190332529 -0.0001539660696 -2.614076242e-11)
(0.04185280944 -6.357622347e-06 -5.153076492e-12)
(0.426572643 -0.0006899035208 -2.416557286e-12)
(0.4089344435 -0.0009508561557 2.78978022e-13)
(0.3822791384 -0.001075461959 1.294241245e-11)
(0.3467125336 -0.001015499779 3.959690758e-11)
(0.3023613719 -0.0008315803299 6.617118287e-11)
(0.249408816 -0.0005758273299 4.98300085e-11)
(0.1881141722 -0.000319868403 2.596973373e-11)
(0.1187852063 -0.0001141283064 3.433399922e-12)
(0.04175782064 -4.616123004e-06 4.589622065e-13)
(0.427373435 -0.0005133051909 2.299086572e-12)
(0.4095116811 -0.0007071266756 7.492688901e-12)
(0.3825857098 -0.0007993295508 1.810557709e-11)
(0.3467668157 -0.0007544902434 3.230067778e-11)
(0.3022268484 -0.0006178809058 4.13065864e-11)
(0.2491736473 -0.0004280524302 3.457816165e-11)
(0.1878671043 -0.0002380816088 2.181921178e-11)
(0.1186008192 -8.479898416e-05 9.741971681e-12)
(0.04168650475 -3.145419338e-06 2.601777109e-12)
(0.4279559454 -0.0003843257592 5.057963098e-12)
(0.4099294783 -0.0005293442953 1.054844005e-11)
(0.3828047275 -0.0005982401787 1.832803855e-11)
(0.346801326 -0.0005646317241 2.606139355e-11)
(0.3021240246 -0.0004623072909 2.932942266e-11)
(0.2489983562 -0.000320079795 2.537581923e-11)
(0.1876844457 -0.0001772173707 1.756829799e-11)
(0.1184648995 -6.270243772e-05 9.415486356e-12)
(0.04163408314 -2.426125795e-06 2.708878023e-12)
(0.4283811024 -0.0002902155439 6.300360061e-12)
(0.4102330952 -0.0003997929532 1.132230538e-11)
(0.3829620035 -0.0004518889307 1.681371323e-11)
(0.3468231831 -0.0004265577507 2.102768247e-11)
(0.3020455543 -0.0003491380472 2.182979995e-11)
(0.248867418 -0.0002413177712 1.858177571e-11)
(0.1875492575 -0.0001327163333 1.300211826e-11)
(0.1183641031 -4.59605463e-05 7.115085986e-12)
(0.04159515555 -1.303381587e-06 2.040275876e-12)
(0.4286965547 -0.0002220568769 6.316251955e-12)
(0.4104586796 -0.0003060614402 1.040092155e-11)
(0.3830795843 -0.0003461759555 1.374706701e-11)
(0.3468411304 -0.0003269797564 1.503231799e-11)
(0.3019900773 -0.0002677092768 1.354335503e-11)
(0.2487739747 -0.0001846612378 9.935110625e-12)
(0.1874532604 -0.0001010720695 5.92062293e-12)
(0.1182937383 -3.352195969e-05 2.63822478e-12)
(0.04156758334 -5.87807354e-08 6.000075018e-13)
(0.428938537 -0.0001736952934 4.947643868e-12)
(0.4106340641 -0.0002397115058 7.02069659e-12)
(0.383175056 -0.0002715753843 5.879961519e-12)
(0.3468631067 -0.0002569457372 -3.593360227e-12)
(0.301958137 -0.0002107149199 -1.243685168e-11)
(0.2487140971 -0.0001453405683 -1.629819748e-11)
(0.1873912434 -7.985151728e-05 -1.250499769e-11)
(0.1182497058 -2.56745181e-05 -7.790939045e-12)
(0.0415500004 -1.036607417e-06 -2.551719402e-12)
(0.4291367089 -0.0001408213686 1.243062047e-11)
(0.4107825146 -0.0001948117152 2.397932431e-11)
(0.3832638503 -0.0002214676205 4.515480399e-11)
(0.3468972013 -0.0002103349601 -1.498332384e-10)
(0.3019524398 -0.0001734079423 -1.7851668e-10)
(0.2486882945 -0.0001197106164 -1.583548583e-10)
(0.1873627596 -6.680485604e-05 -6.749784309e-11)
(0.1182304582 -2.0868879e-05 -2.971473373e-11)
(0.04154493113 -3.028361813e-06 -8.133732342e-12)
(0.4293178451 -0.0001213930576 5.368188351e-12)
(0.4109264285 -0.0001689093976 2.218333504e-12)
(0.3833631379 -0.0001936743534 -2.048790476e-11)
(0.3469556751 -0.0001861704734 -9.634680732e-11)
(0.3019811832 -0.0001555705053 -1.214745049e-10)
(0.2487004679 -0.0001084540516 -1.066180514e-10)
(0.187370124 -6.092995837e-05 -6.45717944e-11)
(0.1182376236 -1.74043335e-05 -3.321835871e-11)
(0.0415510456 -4.225918069e-06 -9.562369719e-12)
(0.429508821 -0.0001131526375 -3.812885935e-12)
(0.4110892976 -0.0001586107158 -1.357305445e-11)
(0.3834920418 -0.0001838280896 -3.593362611e-11)
(0.3470526001 -0.000179098036 -7.049717443e-11)
(0.302051854 -0.0001522200148 -8.540638827e-11)
(0.2487538396 -0.0001074039305 -7.721917173e-11)
(0.1874139511 -6.185777205e-05 -5.39918881e-11)
(0.118272382 -1.623040165e-05 -3.009588731e-11)
(0.0415691931 -6.281517702e-06 -8.87806695e-12)
(0.4297347263 -0.000115166241 -1.009589263e-11)
(0.4112932157 -0.0001626995269 -2.134380651e-11)
(0.3836690479 -0.0001906712316 -3.820372219e-11)
(0.3472039598 -0.0001882471866 -5.616775816e-11)
(0.3021823663 -0.0001628996745 -6.338930563e-11)
(0.2488669706 -0.0001172679084 -5.736952556e-11)
(0.187510314 -7.040653782e-05 -4.220296697e-11)
(0.1183444455 -1.795901246e-05 -2.436777916e-11)
(0.04160219835 -9.561676855e-06 -7.281724887e-12)
(0.4300255958 -0.0001278922149 -1.298477616e-11)
(0.4115662511 -0.0001821985018 -2.359396457e-11)
(0.3839196879 -0.0002160879972 -3.57447711e-11)
(0.3474321226 -0.0002166961834 -4.583940502e-11)
(0.3023895321 -0.0001910933162 -4.878618001e-11)
(0.2490530886 -0.0001401529708 -4.345528802e-11)
(0.1876695431 -8.691029113e-05 -3.228265744e-11)
(0.118460976 -2.183221432e-05 -1.886527533e-11)
(0.04165328818 -1.396736436e-05 -5.665953231e-12)
(0.4304165079 -0.00015164339 -1.344245045e-11)
(0.411942104 -0.0002175937319 -2.269417267e-11)
(0.3842758905 -0.0002607253177 -3.145568765e-11)
(0.3477670162 -0.0002649713843 -3.737503048e-11)
(0.3027013109 -0.0002375828662 -3.809700759e-11)
(0.2493360768 -0.0001772766372 -3.33273342e-11)
(0.187911014 -0.0001127658807 -2.4700203e-11)
(0.1186359991 -2.876865042e-05 -1.447482123e-11)
(0.04172812612 -2.009925671e-05 -4.356237089e-12)
(0.4309485096 -0.0001871969551 -1.258163406e-11)
(0.41246048 -0.0002700843651 -2.03863177e-11)
(0.3847754115 -0.0003261199137 -2.686391827e-11)
(0.3482438649 -0.0003347837408 -3.061237555e-11)
(0.3031496058 -0.0003038976441 -3.03465267e-11)
(0.2497439843 -0.0002299018566 -2.618069494e-11)
(0.1882572661 -0.0001491176028 -1.933131128e-11)
(0.1188844109 -3.918889642e-05 -1.134336843e-11)
(0.04183209565 -2.822042008e-05 -3.421737268e-12)
(0.4316705834 -0.0002352709887 -1.081457834e-11)
(0.4131692723 -0.0003407274298 -1.699748795e-11)
(0.3854644809 -0.0004135867218 -2.199328816e-11)
(0.3489065273 -0.000427549625 -2.837443955e-11)
(0.3037749248 -0.0003914327062 -2.710589463e-11)
(0.2503124066 -0.0002991851912 -2.260758828e-11)
(0.1887369259 -0.0001967748724 -1.639006316e-11)
(0.1192254512 -5.333393539e-05 -9.549413586e-12)
(0.0419723454 -3.865048054e-05 -2.87873743e-12)
(0.4326399104 -0.0002964828968 4.228171177e-12)
(0.4141245981 -0.0004304122778 1.710649057e-11)
(0.3863974762 -0.0005241739655 5.182912038e-11)
(0.3498067045 -0.0005443138973 -1.130973973e-10)
(0.304624933 -0.0005010788919 -4.835144602e-11)
(0.2510830865 -0.0003857441235 -2.727988501e-11)
(0.1893832711 -0.0002561046203 -1.676239407e-11)
(0.119681136 -7.122707649e-05 -9.132210817e-12)
(0.04215680353 -5.161169487e-05 -2.690555629e-12)
(0.4339229697 -0.0003711042474 6.748646661e-12)
(0.4153918859 -0.0005394783044 1.043945835e-11)
(0.3876379937 -0.0006581858975 6.909400876e-12)
(0.3510049742 -0.0006852467703 -3.723089849e-11)
(0.3057554549 -0.0006328092061 -3.156131951e-11)
(0.2521047385 -0.0004893889859 -2.264031443e-11)
(0.1902349413 -0.0003268664231 -1.487095283e-11)
(0.1202769132 -9.265711154e-05 -8.211077783e-12)
(0.04239460207 -6.727465663e-05 -2.421465981e-12)
(0.4355955581 -0.0004588855096 4.511532636e-12)
(0.4170457962 -0.0006674692896 4.385752798e-12)
(0.3892586207 -0.0008148786534 -2.421252123e-12)
(0.3525703853 -0.0008493204181 -1.767742009e-11)
(0.3072298914 -0.0007853653499 -2.014097915e-11)
(0.2534323501 -0.0006088658097 -1.698663337e-11)
(0.1913351811 -0.0004080311014 -1.209234447e-11)
(0.1210409597 -0.000117090408 -6.96178098e-12)
(0.04269568961 -8.569860591e-05 -2.092819386e-12)
(0.4377429139 -0.0005588787326 1.782070988e-12)
(0.4191702846 -0.0008128709299 4.716428392e-13)
(0.3913409088 -0.0009921463689 -4.499451326e-12)
(0.3545803198 -0.001033996053 -1.149867257e-11)
(0.3091189682 -0.0009559938658 -1.416842831e-11)
(0.2551268438 -0.0007416768676 -1.32340283e-11)
(0.1927314954 -0.0004976871559 -1.036489568e-11)
(0.1220039349 -0.0001436629275 -6.47207859e-12)
(0.04307078474 -0.0001068348294 -2.032298922e-12)
(0.4404592164 -0.0006692967877 -1.593554678e-13)
(0.4218580253 -0.0009729184824 -1.899447647e-12)
(0.393974682 -0.001186304824 -5.572703307e-12)
(0.357119663 -0.001235025872 -9.946579518e-12)
(0.3114997815 -0.001140299662 -1.275266563e-11)
(0.2572540544 -0.0008840011223 -1.3723488e-11)
(0.1944746833 -0.000593016798 -1.287458697e-11)
(0.123198236 -0.0001711849152 -9.191576362e-12)
(0.04353106686 -0.0001305103011 -2.909812538e-12)
(0.4438468819 -0.0007874220445 -3.887308852e-12)
(0.4252096265 -0.001143476726 -6.410612554e-12)
(0.397257133 -0.00139197573 -9.764093057e-12)
(0.3602797658 -0.001446378474 -1.416964798e-11)
(0.3144546483 -0.00133223852 -1.945638448e-11)
(0.2598835522 -0.001030746916 -2.562659776e-11)
(0.1966177906 -0.0006903829399 -3.087581812e-11)
(0.124657257 -0.0001982044397 -2.359675906e-11)
(0.04408792077 -0.000156437045 -5.418927788e-12)
(0.4480154288 -0.0009095780967 -3.05481265e-10)
(0.4293323981 -0.001319022278 -9.938446803e-11)
(0.4012914491 -0.001602109563 -4.713342678e-11)
(0.3641569185 -0.001660325012 -3.630259886e-11)
(0.3180694775 -0.00152427462 -4.371952756e-11)
(0.2630870321 -0.001175743873 -6.804901693e-11)
(0.1992147135 -0.0007855122644 -1.18002368e-10)
(0.1264144131 -0.0002231005369 -8.75842777e-11)
(0.04475258025 -0.0001842225989 -6.983570209e-13)
(0.4530800478 -0.001031181216 -1.232028968e-10)
(0.4343388001 -0.001492745975 -8.823623448e-11)
(0.4061850941 -0.001808165227 -5.947670836e-11)
(0.3688504743 -0.001867700662 -4.841037278e-11)
(0.322431814 -0.001707710262 -5.037202586e-11)
(0.2669364431 -0.001312072921 -5.870026972e-11)
(0.2023186394 -0.0008737696159 -6.418796567e-11)
(0.1285021035 -0.0002442073016 -4.353641536e-11)
(0.04553577139 -0.0002133918384 -1.033264531e-11)
(0.4591598025 -0.001146879531 -6.646591804e-11)
(0.4403444938 -0.001656788321 -6.684798524e-11)
(0.4120476688 -0.002000457284 -5.587040809e-11)
(0.3744605509 -0.002058343144 -4.883801646e-11)
(0.3276285053 -0.00187317458 -4.702441312e-11)
(0.2715018305 -0.001432508046 -4.617955917e-11)
(0.2059803099 -0.0009504902342 -4.064226296e-11)
(0.1309505938 -0.0002599451779 -2.612531424e-11)
(0.04644733175 -0.0002434105445 -7.757064072e-12)
(0.466375481 -0.001250786036 -4.093408306e-11)
(0.447466018 -0.001802610429 -4.898498099e-11)
(0.4189883841 -0.002168665237 -4.70863442e-11)
(0.3810853722 -0.002221689628 -4.347893722e-11)
(0.3337430847 -0.002011237192 -4.025024111e-11)
(0.2768490119 -0.001530029652 -3.591564493e-11)
(0.2102462307 -0.001011333968 -2.845642847e-11)
(0.1337869198 -0.0002689455969 -1.750704165e-11)
(0.04749585189 -0.000273711098 -5.317464983e-12)
(0.4748470507 -0.001336799665 -2.756334917e-11)
(0.4558180561 -0.001921488157 -3.648270608e-11)
(0.4271131407 -0.002302478417 -3.833910205e-11)
(0.3888182818 -0.002347489357 -3.682150124e-11)
(0.3408529438 -0.00211309014 -3.357854938e-11)
(0.2830371797 -0.001598352899 -2.859581146e-11)
(0.2151569129 -0.001052616669 -2.15545846e-11)
(0.1370338606 -0.000270150636 -1.292043806e-11)
(0.04868835085 -0.0003037159499 -3.917589141e-12)
(0.4846906882 -0.001399000031 -2.010170307e-11)
(0.4655102936 -0.002005101095 -2.827842531e-11)
(0.436521259 -0.002392330041 -3.158008998e-11)
(0.3977445238 -0.00242656927 -3.148626738e-11)
(0.3490264284 -0.002171227824 -2.890925099e-11)
(0.2901165738 -0.001632411489 -2.481505357e-11)
(0.2207452621 -0.001071581288 -1.863239452e-11)
(0.140709054 -0.0002628788931 -1.115719979e-11)
(0.05003000997 -0.000332858061 -3.400188728e-12)
(0.4960153659 -0.001432085854 -1.652134292e-11)
(0.4766438906 -0.002046166847 -2.481164745e-11)
(0.4473019437 -0.002430150089 -3.056986787e-11)
(0.4079379287 -0.002451569888 -3.384625155e-11)
(0.3583200217 -0.002180044515 -2.837222704e-11)
(0.2981263716 -0.001628737973 -2.992687858e-11)
(0.227035219 -0.001066577564 -2.209311724e-11)
(0.1448243021 -0.0002468515728 -1.284419098e-11)
(0.05152397729 -0.0003605962288 -3.866540556e-12)
(0.5089189933 -0.001431817629 -2.057651757e-11)
(0.4893076248 -0.002039058423 -3.765792499e-11)
(0.4595306007 -0.002410056035 -6.674626576e-11)
(0.4194576669 -0.002417566812 -1.299030669e-10)
(0.3687757823 -0.002136279783 -4.956105849e-13)
(0.3070929253 -0.001585700473 -9.247519715e-11)
(0.2340407277 -0.001037138956 -4.204246561e-11)
(0.1493850966 -0.0002221828178 -1.926491262e-11)
(0.05317124689 -0.0003864257093 -5.284877437e-12)
(0.5234842283 -0.001395410586 -2.123458733e-11)
(0.5035738724 -0.001980326381 -3.624503643e-11)
(0.4732652241 -0.002328889411 -5.238230418e-11)
(0.4323453027 -0.002322492262 -6.352114098e-11)
(0.380419236 -0.002039251615 -3.763331688e-11)
(0.3170284808 -0.001503566878 -4.494443211e-11)
(0.2417650978 -0.0009839518404 -3.039775958e-11)
(0.1543903872 -0.0001893363419 -1.6363136e-11)
(0.05497061604 -0.00040988224 -4.716704749e-12)
(0.5397740713 -0.001321829022 -1.933084526e-11)
(0.5194945868 -0.001869057981 -3.090029897e-11)
(0.4885430372 -0.002186528115 -3.975208263e-11)
(0.4466223115 -0.00216730654 -4.235076497e-11)
(0.3932578237 -0.001890860745 -3.501741028e-11)
(0.3279304112 -0.001384409439 -3.079412607e-11)
(0.2502007515 -0.0009087428148 -2.217138919e-11)
(0.159832576 -0.0001490715054 -1.261263397e-11)
(0.05691870773 -0.0004305459568 -3.71906767e-12)
(0.5578276261 -0.001211929471 -1.643992543e-11)
(0.5370976636 -0.001707010156 -2.532670545e-11)
(0.5053777464 -0.001985919239 -3.093475291e-11)
(0.4622883473 -0.001955888141 -3.191494543e-11)
(0.4072800974 -0.001695361334 -2.835930481e-11)
(0.3397810722 -0.001231856221 -2.343542879e-11)
(0.2593294041 -0.0008140824705 -1.683543187e-11)
(0.1656977729 -0.0001023744822 -9.689151774e-12)
(0.05901002085 -0.0004480463531 -2.878351779e-12)
(0.5776562265 -0.001068431516 -1.343962502e-11)
(0.5563838548 -0.001498493371 -2.034461434e-11)
(0.5237574912 -0.001732828668 -2.43451438e-11)
(0.4793202357 -0.001694671526 -2.493942426e-11)
(0.4224555396 -0.001458958581 -2.259074991e-11)
(0.3525480999 -0.001050774898 -1.853583699e-11)
(0.2691225082 -0.0007031823342 -1.338413772e-11)
(0.1719662578 -5.055119129e-05 -7.805691471e-12)
(0.06123704223 -0.0004621586099 -2.343415712e-12)
(0.5992406447 -0.0008957103778 -1.088360888e-11)
(0.5773248654 -0.001250025699 -1.639366679e-11)
(0.5436440101 -0.001435357665 -1.9584476e-11)
(0.4976721035 -0.00139210303 -2.02710241e-11)
(0.4387353493 -0.001189298477 -1.88543875e-11)
(0.3661854752 -0.0008468982908 -1.59798429e-11)
(0.2795422978 -0.0005795284935 -1.205870759e-11)
(0.1786136921 4.722567621e-06 -7.358170557e-12)
(0.06358951856 -0.0004731961417 -2.262471065e-12)
(0.6225293167 -0.0006994259131 -9.74544734e-12)
(0.599862432 -0.000969757036 -1.453412545e-11)
(0.5649726441 -0.001103212916 -1.749256145e-11)
(0.5172760843 -0.001057871993 -1.873055998e-11)
(0.4560534687 -0.0008947726242 -1.858767784e-11)
(0.3806343958 -0.0006263046972 -1.728683629e-11)
(0.290542513 -0.000445975743 -1.458265779e-11)
(0.1856090429 5.903421455e-05 -9.69351428e-12)
(0.06605790142 -0.0004843024232 -2.958821853e-12)
(0.647438636 -0.0004860749652 -2.137446304e-11)
(0.6239093061 -0.0006668491712 -2.241991689e-11)
(0.5876539935 -0.000747017459 -2.249964787e-11)
(0.5380444144 -0.0007022947912 -2.323683393e-11)
(0.474328792 -0.0005841758937 -2.457274896e-11)
(0.3958254089 -0.0003948417516 -2.616200679e-11)
(0.3020702449 -0.000307226416 -2.688989674e-11)
(0.1929166558 0.0001131843896 -1.916404017e-11)
(0.06863116752 -0.0004926280928 -4.470048533e-12)
(0.6738542992 -0.0002624917888 -2.760728856e-10)
(0.6493510155 -0.0003507539744 -1.024326117e-10)
(0.6115759953 -0.0003774485904 -5.170134612e-11)
(0.5598715223 -0.0003354315308 -3.843144736e-11)
(0.4934667865 -0.0002657862092 -3.860599121e-11)
(0.4116796028 -0.0001573756763 -4.850406695e-11)
(0.3140636004 -0.0001682085602 -8.118753947e-11)
(0.2005033231 0.0001648716703 -5.514561385e-11)
(0.07129591168 -0.0004975674608 2.843299359e-12)
(0.7016357442 -3.547443535e-05 -1.036249154e-10)
(0.6760503548 -3.072825625e-05 -7.564007742e-11)
(0.6366081654 -4.838091098e-06 -5.300237164e-11)
(0.5826378167 3.279863104e-05 -4.30867358e-11)
(0.513362891 5.225893844e-05 -4.056126823e-11)
(0.4281121767 7.772761827e-05 -4.092902684e-11)
(0.326456847 -2.563660637e-05 -4.035270393e-11)
(0.2083301245 0.000218223775 -2.700354671e-11)
(0.0740385704 -0.0005012672454 -6.458336929e-12)
(0.7306200977 0.000188708669 -4.842218847e-11)
(0.7038510367 0.0002845311779 -5.032225375e-11)
(0.662604866 0.0003611262949 -4.43469734e-11)
(0.6062124405 0.0003932304676 -3.932482947e-11)
(0.5339052361 0.0003638492257 -3.591699925e-11)
(0.4450320861 0.0003032290363 -3.234257336e-11)
(0.3391891278 0.0001166334474 -2.649422326e-11)
(0.2163509447 0.0002736153321 -1.673447745e-11)
(0.07684475053 -0.0005039360306 -4.956647886e-12)
(0.7606249203 0.0004043215194 -2.730921503e-11)
(0.7325802568 0.0005871281105 -3.411328111e-11)
(0.6894077755 0.0007115819982 -3.434260755e-11)
(0.6304556383 0.0007379806464 -3.214840651e-11)
(0.5549759438 0.0006613384879 -2.892500298e-11)
(0.4623447508 0.0005198974391 -2.453057161e-11)
(0.3521931022 0.0002529438284 -1.856792659e-11)
(0.2245238332 0.0003250184485 -1.117891501e-11)
(0.07970043453 -0.0005038496921 -3.371057387e-12)
(0.7914559659 0.0006068165434 -1.731241888e-11)
(0.7620558193 0.0008710448014 -2.362082319e-11)
(0.7168519628 0.00104010433 -2.54759955e-11)
(0.6552236218 0.001061215998 -2.450456694e-11)
(0.5764546991 0.0009401829493 -2.176770303e-11)
(0.479956092 0.0007239490309 -1.773842974e-11)
(0.3653966062 0.0003803294822 -1.276402955e-11)
(0.2328094495 0.000371769621 -7.372990828e-12)
(0.08259156048 -0.0005010276948 -2.186291463e-12)
(0.8229142511 0.0007928135291 -1.148400003e-11)
(0.7920922286 0.001131800288 -1.625406459e-11)
(0.7447706138 0.001341845709 -1.798968512e-11)
(0.6803718074 0.001358444139 -1.728172676e-11)
(0.5982213354 0.001196814595 -1.487090207e-11)
(0.4977715502 0.0009124879212 -1.140299363e-11)
(0.3787316068 0.0004977890331 -7.483211519e-12)
(0.241167049 0.0004138007436 -3.883180838e-12)
(0.08550422054 -0.0004959047439 -1.063393068e-12)
(0.8548011332 0.0009600599023 -7.30689844e-12)
(0.8225050227 0.001366399228 -1.029066608e-11)
(0.7729986734 0.001613559197 -1.102774006e-11)
(0.7057579232 0.001626619343 -9.751752524e-12)
(0.6201582712 0.00142878662 -7.114245909e-12)
(0.5156991112 0.001083517799 -3.897997007e-12)
(0.3921322139 0.0006045649341 -4.041800332e-13)
(0.2495568063 0.0004509834114 1.296228326e-12)
(0.08842458162 -0.0004889061256 6.765661042e-13)
(0.8869232036 0.001107260674 -3.42025158e-12)
(0.853115016 0.001573113637 -4.11656132e-12)
(0.8013762722 0.001853360632 -2.72964871e-12)
(0.7312445894 0.001863945942 6.059492299e-13)
(0.6421522965 0.00163464726 4.944531311e-12)
(0.5336503864 0.00123588076 7.252028e-12)
(0.405535186 0.0007004791401 1.456016115e-11)
(0.2579401056 0.0004822646233 1.356591314e-11)
(0.09134022626 -0.0004814024169 4.550960105e-12)
(0.9190962311 0.001233925603 8.355436489e-13)
(0.8837517286 0.001751279433 3.202439176e-12)
(0.8297515454 0.00206050662 8.437364291e-12)
(0.7567015365 0.002069661155 1.791591069e-11)
(0.6640962509 0.001813727834 3.326684399e-11)
(0.551541851 0.001368994049 1.021321312e-11)
(0.4188807791 0.0007849223957 6.399130694e-11)
(0.266280437 0.0005086052201 5.600495582e-11)
(0.09423961208 -0.0004725275941 1.312043306e-11)
(0.9511482635 0.001340217533 3.426472941e-12)
(0.9142560932 0.001901107967 6.890163992e-12)
(0.8579828607 0.002235210838 1.185928467e-11)
(0.7820073556 0.002243897208 1.769137139e-11)
(0.6858903546 0.001966089386 2.253928764e-11)
(0.5692958491 0.001482830084 2.102823749e-11)
(0.4321135401 0.0008577067832 2.745848493e-11)
(0.2745446745 0.0005305507826 2.151553598e-11)
(0.09711115873 -0.000461943016 6.734786569e-12)
(0.9829218217 0.001426802707 4.350562228e-12)
(0.9444823772 0.002023488658 7.662852168e-12)
(0.8859404047 0.002378432721 1.134658158e-11)
(0.8070507343 0.00238748585 1.464756645e-11)
(0.7074431089 0.002092362417 1.643556758e-11)
(0.5868411693 0.001577762908 1.599654979e-11)
(0.4451825996 0.0009190473457 1.505100483e-11)
(0.2827023858 0.0005482130183 1.055458876e-11)
(0.09994442819 -0.0004499072915 3.399894485e-12)
(1.014275311 0.001494717885 4.313728563e-12)
(0.9742994404 0.002119815908 7.106590539e-12)
(0.9135072468 0.00249169435 9.658224765e-12)
(0.8317313159 0.002501793898 1.14817786e-11)
(0.7286719621 0.002193615688 1.205278025e-11)
(0.6041135318 0.001654469874 1.121666189e-11)
(0.4580420212 0.0009693349819 9.280724195e-12)
(0.2907259499 0.0005617115288 5.99461206e-12)
(0.1027301501 -0.0004366995086 1.884713814e-12)
(1.045083723 0.001545257813 3.832878496e-12)
(1.003591371 0.002191841488 6.086482818e-12)
(0.9405798894 0.002576925102 7.864947058e-12)
(0.8559601511 0.002588587569 8.878548949e-12)
(0.7495036617 0.002271256834 8.910172639e-12)
(0.6210558493 0.001713879267 7.952495657e-12)
(0.4706509857 0.001009100813 6.188642303e-12)
(0.2985907936 0.0005712104435 3.808898153e-12)
(0.1054600868 -0.0004225752526 1.173670567e-12)
(1.075238754 0.001579881257 3.205842081e-12)
(1.032257609 0.002241550215 4.988148207e-12)
(0.9670683913 0.002636328554 6.261556336e-12)
(0.8796598105 0.002649913187 6.851395337e-12)
(0.7698743482 0.002326940547 6.679141353e-12)
(0.6376182949 0.001757111652 5.800249222e-12)
(0.482973833 0.001038987575 4.380635048e-12)
(0.3062754294 0.000576928177 2.633718616e-12)
(0.1081270333 -0.000407760331 8.037459481e-13)
(1.104648459 0.001600134647 2.608555273e-12)
(1.060212658 0.002271057439 4.016481209e-12)
(0.9928961397 0.002672270657 4.967528216e-12)
(0.9027642144 0.002687993994 5.35100698e-12)
(0.7897294307 0.002362486558 5.144404886e-12)
(0.6537582163 0.001785423284 4.416228879e-12)
(0.4949800043 0.001059719852 3.303356627e-12)
(0.3137614276 0.0005791264167 1.974831028e-12)
(0.1107248017 -0.0003924527625 6.023614606e-13)
(1.133236558 0.001607591108 2.157069611e-12)
(1.087385473 0.002282525733 3.316351309e-12)
(1.017999348 0.002687186736 4.098391797e-12)
(0.9252182362 0.002705141767 4.423435953e-12)
(0.8090232868 0.002379806833 4.277965854e-12)
(0.6694399172 0.001800153864 3.708098963e-12)
(0.5066438965 0.001072075697 2.807091912e-12)
(0.3210333333 0.0005780971136 1.699302916e-12)
(0.1132481952 -0.0003768257022 5.23473381e-13)
(1.160941488 0.001603802909 1.970743997e-12)
(1.113718626 0.002278098887 3.06750658e-12)
(1.042326352 0.002683506047 3.872539387e-12)
(0.946977136 0.002703683176 4.307334868e-12)
(0.8277188258 0.00238084338 4.320438859e-12)
(0.6846343372 0.001802680635 3.888682328e-12)
(0.5179446445 0.001076860686 3.045459123e-12)
(0.3280785414 0.0005741502126 1.89473245e-12)
(0.1156929683 -0.0003610300799 5.938633971e-13)
(1.187715294 0.001590265677 2.266896397e-12)
(1.139167311 0.002259851305 3.644228063e-12)
(1.065836762 0.002663592773 4.842449328e-12)
(0.9680058716 0.002685900691 5.741806823e-12)
(0.8457869499 0.002367516972 6.142868006e-12)
(0.6993186524 0.001794379735 5.796568888e-12)
(0.5288658486 0.001074885514 4.658265584e-12)
(0.3348871381 0.0005676031347 2.937154963e-12)
(0.1180557771 -0.0003451968133 9.268866293e-13)