/*--------------------------------*- C++ -*----------------------------------*\
| =========                 |                                                 |
| \\      /  F ield         | OpenFOAM: The Open Source CFD Toolbox           |
|  \\    /   O peration     | Version:  2212                                  |
|   \\  /    A nd           | Website:  www.openfoam.com                      |
|    \\/     M anipulation  |                                                 |
\*---------------------------------------------------------------------------*/
FoamFile
{
    version     2.0;
    format      ascii;
    arch        "LSB;label=32;scalar=64";
    class       volVectorField;
    location    "20.00000000";
    object      U_0;
}
// * * * * * * * * * * * * * * * * * * * * * * * * * * * * * * * * * * * * * //

dimensions      [0 1 -1 0 0 0 0];

internalField   nonuniform List<vector> 
3000
(
(0.2258177589 -0.006200956543 4.085113191e-12)
(0.2263548926 -0.01058332113 8.140618018e-12)
(0.2275193661 -0.01647659269 1.609365404e-11)
(0.2294969878 -0.02416568717 3.354633697e-11)
(0.2324095796 -0.03387664682 8.189986969e-11)
(0.2359180712 -0.04669369646 2.575817148e-11)
(0.2368970533 -0.05739778807 9.768535606e-12)
(0.223847541 -0.06934385525 4.398528406e-12)
(0.1530873864 -0.03367155143 1.079192214e-12)
(0.2441592846 -0.01339780545 1.803858852e-11)
(0.2473459679 -0.02194459557 3.474746407e-11)
(0.2517119509 -0.03167645976 6.078602345e-11)
(0.2572813261 -0.04169176996 1.037013894e-10)
(0.2629120124 -0.05100534604 1.746480803e-10)
(0.2648399694 -0.05815317788 8.074578415e-11)
(0.2559910262 -0.0566266127 3.751370438e-11)
(0.2192445503 -0.04767466977 1.546666643e-11)
(0.1246803906 -0.0131699155 4.213721837e-12)
(0.273417865 -0.01792888788 3.309411793e-11)
(0.2766688143 -0.02832624963 6.137633212e-11)
(0.2804995451 -0.0389714629 1.019722977e-10)
(0.2834293896 -0.04807150083 1.615513383e-10)
(0.2823811352 -0.0541211044 2.47437438e-10)
(0.2719036984 -0.05487181304 1.212424901e-10)
(0.2439900151 -0.04722644911 5.800198161e-11)
(0.1827738612 -0.03114325328 2.687361314e-11)
(0.07875332 -0.005714723595 7.53944376e-12)
(0.3054487673 -0.01778441457 3.596485309e-11)
(0.3075078897 -0.02738856077 6.724399386e-11)
(0.3088338964 -0.03625446556 1.177624825e-10)
(0.306893592 -0.04232972698 1.761330281e-10)
(0.2977699533 -0.04430978094 2.377913162e-10)
(0.2758298583 -0.04110241684 1.358643093e-10)
(0.2342819454 -0.03082569375 7.425901345e-11)
(0.1646536122 -0.01634223899 3.660047155e-11)
(0.06524541168 -0.002192615152 1.041278435e-11)
(0.3337169034 -0.01595550431 -3.967976477e-11)
(0.3330590003 -0.02406251365 -1.104258536e-10)
(0.3298686464 -0.03084610602 5.567615407e-11)
(0.3211501586 -0.0343895188 1.319126586e-10)
(0.3030480398 -0.03398770982 1.584488655e-10)
(0.2707588324 -0.02912502956 1.189678785e-10)
(0.2199989112 -0.01997066453 7.544614973e-11)
(0.1473521624 -0.009191083356 4.034594443e-11)
(0.05426707481 -0.000837373455 1.182587055e-11)
(0.3579646969 -0.01311932056 -1.858280921e-11)
(0.354274298 -0.01940205318 -1.254728889e-11)
(0.3464150376 -0.02419215167 6.682779655e-11)
(0.3314633788 -0.02593304691 1.388795483e-10)
(0.3061122265 -0.02441209114 2.101001027e-10)
(0.2668828919 -0.01964976298 1.304792828e-10)
(0.211320939 -0.01256782752 8.15590441e-11)
(0.1384048474 -0.005219893838 4.425154267e-11)
(0.04999841312 -0.0003867860098 1.30995666e-11)
(0.376521201 -0.0103415213 -5.89537583e-11)
(0.3697977455 -0.01506234728 -1.054953455e-10)
(0.3575207912 -0.01836120458 2.496567751e-11)
(0.337147592 -0.01907141374 1.025846086e-10)
(0.3061029111 -0.0172846041 1.399197302e-10)
(0.2620566613 -0.01328217617 1.155279581e-10)
(0.2037919132 -0.008070728687 8.130724042e-11)
(0.1314227838 -0.003121575459 4.741851089e-11)
(0.04673756185 -0.0001571865493 1.456734807e-11)
(0.3909276712 -0.007882197474 -3.945928742e-11)
(0.3815681862 -0.01132197129 -3.736706524e-11)
(0.3656138291 -0.01354121155 3.043711583e-11)
(0.3410184207 -0.01370529751 1.127629311e-10)
(0.3058981073 -0.01205259557 2.17741101e-10)
(0.2587743123 -0.008944590815 1.393321383e-10)
(0.1991340636 -0.005247865822 1.016336582e-10)
(0.1274638108 -0.001951110629 6.440016322e-11)
(0.04515846 -9.445983537e-05 2.035785296e-11)
(0.4014206472 -0.005898644403 -5.264678448e-11)
(0.3898720989 -0.008383716446 -9.150538636e-11)
(0.3709629247 -0.009876066604 -1.516997939e-10)
(0.3431426637 -0.009795607496 -7.351385394e-11)
(0.3051014466 -0.008420106058 8.94432824e-11)
(0.2559496811 -0.006093034273 1.363876834e-10)
(0.1955639047 -0.003486097385 1.902394347e-10)
(0.1245306254 -0.001258251853 1.276111614e-10)
(0.04395560987 -4.695446798e-05 3.590367266e-11)
(0.4092150613 -0.004360625549 -4.223674774e-11)
(0.3959400845 -0.006141082384 -6.325604741e-11)
(0.3747643236 -0.007146231547 -7.025494935e-11)
(0.3445726504 -0.006976963725 -1.336010299e-11)
(0.3044948487 -0.005896058171 6.423979075e-11)
(0.2540289831 -0.004192288621 1.012058755e-10)
(0.1932490404 -0.002362956732 1.102118795e-10)
(0.1227119439 -0.0008439745388 7.750410928e-11)
(0.04326746813 -3.421529035e-05 2.432427138e-11)
(0.4148077093 -0.003203591925 5.211012188e-11)
(0.4002007244 -0.004481457833 1.340306365e-10)
(0.3773131885 -0.005166524634 5.083713841e-11)
(0.3453869665 -0.004985222596 7.264897368e-11)
(0.3038770011 -0.004161661774 1.621091387e-10)
(0.2525349646 -0.002923578145 1.146704031e-10)
(0.1915345727 -0.001630945898 8.998791166e-11)
(0.1213780066 -0.0005770789129 5.816447991e-11)
(0.04274608367 -2.08974856e-05 1.844165932e-11)
(0.4188886986 -0.002348056238 4.772577361e-11)
(0.403275762 -0.003266694426 8.033598486e-11)
(0.3791180586 -0.003739480063 6.134026159e-11)
(0.3459376466 -0.003577507876 7.416913669e-11)
(0.3034241282 -0.002961549385 1.045390998e-10)
(0.2514940629 -0.002065036952 1.005259562e-10)
(0.1903682259 -0.00114664342 8.983131105e-11)
(0.1204895407 -0.0004060116872 6.417274123e-11)
(0.04241163045 -1.626121464e-05 2.079089786e-11)
(0.4218140524 -0.001721122028 3.034602777e-12)
(0.4054489785 -0.002385527242 -2.88500938e-11)
(0.3803541676 -0.002717040566 -1.494114596e-10)
(0.3462658941 -0.002584092935 -9.987164726e-11)
(0.3030420674 -0.00212745619 3.90842968e-11)
(0.2507082272 -0.001476734778 1.024783706e-10)
(0.1895074686 -0.0008177598666 1.679619746e-10)
(0.1198346928 -0.0002893748953 1.427166956e-10)
(0.04215900427 -1.123938568e-05 3.79951482e-11)
(0.4239371605 -0.001264454386 -1.157931757e-11)
(0.4070144411 -0.001747635019 -3.307666452e-11)
(0.3812321539 -0.001983550557 -6.12438686e-11)
(0.3464875876 -0.001879272924 -3.030210677e-11)
(0.3027589456 -0.001542214907 3.361756678e-11)
(0.2501447169 -0.001068295296 7.146368854e-11)
(0.1888978771 -0.0005916333909 8.405378257e-11)
(0.1193752176 -0.0002101914195 5.84802336e-11)
(0.04198458055 -8.776049614e-06 1.756690808e-11)
(0.4254646212 -0.000931932481 -8.60328893e-12)
(0.4081299664 -0.001285854345 -1.381984408e-11)
(0.3818437716 -0.00145621243 -6.881266905e-12)
(0.3466231559 -0.001376543402 3.81602494e-11)
(0.3025326576 -0.00112777052 1.212165286e-10)
(0.2497206843 -0.0007806296898 7.266952181e-11)
(0.1884446866 -0.0004325754516 3.230571892e-11)
(0.1190332531 -0.0001539662503 -3.025833191e-11)
(0.04185280967 -6.357718427e-06 -5.288937453e-12)
(0.4265726429 -0.0006899037606 -2.413459756e-12)
(0.408934444 -0.0009508564171 2.821085775e-13)
(0.3822791389 -0.001075462184 1.292026832e-11)
(0.3467125339 -0.001015499849 3.954521432e-11)
(0.302361372 -0.0008315802264 6.622823488e-11)
(0.249408816 -0.0005758271526 4.977466846e-11)
(0.1881141721 -0.0003198682782 2.594572304e-11)
(0.1187852063 -0.0001141282977 3.349081849e-12)
(0.04175782074 -4.616144036e-06 4.650375389e-13)
(0.4273734348 -0.000513304836 2.28471304e-12)
(0.4095116811 -0.0007071265992 7.473523068e-12)
(0.3825857099 -0.0007993297251 1.807818397e-11)
(0.3467668158 -0.0007544904445 3.225611083e-11)
(0.3022268486 -0.0006178810258 4.12657572e-11)
(0.2491736474 -0.0004280524413 3.454676677e-11)
(0.1878671042 -0.0002380815509 2.181171238e-11)
(0.1186008192 -8.479892459e-05 9.745722309e-12)
(0.04168650473 -3.145398781e-06 2.604156258e-12)
(0.4279559453 -0.0003843255371 5.048513731e-12)
(0.409929478 -0.000529344178 1.053664667e-11)
(0.3828047273 -0.0005982401761 1.831630164e-11)
(0.3468013259 -0.000564631792 2.604928865e-11)
(0.3021240246 -0.0004623073936 2.931952199e-11)
(0.2489983562 -0.0003200798825 2.537384745e-11)
(0.1876844457 -0.0001772174101 1.757190513e-11)
(0.1184648994 -6.270243504e-05 9.419808872e-12)
(0.04163408309 -2.426116018e-06 2.710376277e-12)
(0.4283811024 -0.0002902156023 6.298731255e-12)
(0.410233095 -0.000399792945 1.1321039e-11)
(0.3829620034 -0.0004518888722 1.681414952e-11)
(0.3468231829 -0.0004265577093 2.10300181e-11)
(0.3020455542 -0.0003491380513 2.183376115e-11)
(0.2488674179 -0.000241317813 1.858712569e-11)
(0.1875492574 -0.0001327163824 1.30068982e-11)
(0.1183641031 -4.596058243e-05 7.118000253e-12)
(0.04159515552 -1.303395583e-06 2.041113133e-12)
(0.4286965546 -0.0002220569989 6.317809197e-12)
(0.4104586795 -0.000306061491 1.040367102e-11)
(0.3830795842 -0.0003461759383 1.37513127e-11)
(0.3468411302 -0.0003269797182 1.503779241e-11)
(0.3019900772 -0.0002677092483 1.354899689e-11)
(0.2487739746 -0.0001846612275 9.940692641e-12)
(0.1874532603 -0.0001010720822 5.922545217e-12)
(0.1182937382 -3.352198614e-05 2.637741247e-12)
(0.04156758329 -5.879447097e-08 5.99547827e-13)
(0.4289385369 -0.0001736953253 4.951481429e-12)
(0.4106340641 -0.0002397115353 7.031308453e-12)
(0.383175056 -0.0002715754057 5.899215754e-12)
(0.3468631066 -0.0002569457441 -3.595232523e-12)
(0.3019581369 -0.0002107149104 -1.244980706e-11)
(0.248714097 -0.000145340554 -1.625125828e-11)
(0.1873912433 -7.985151224e-05 -1.248399557e-11)
(0.1182497057 -2.567452327e-05 -7.790036364e-12)
(0.04155000033 -1.036611349e-06 -2.553361653e-12)
(0.4291367088 -0.0001408213392 1.250608676e-11)
(0.4107825145 -0.0001948117156 2.412846296e-11)
(0.3832638502 -0.0002214676416 4.025376912e-11)
(0.3468972012 -0.0002103349813 -1.476707727e-10)
(0.3019524397 -0.0001734079566 -1.757705757e-10)
(0.2486882944 -0.0001197106198 -1.572243214e-10)
(0.1873627595 -6.680485179e-05 -6.733027073e-11)
(0.1182304581 -2.086887734e-05 -2.967803326e-11)
(0.04154493105 -3.028363142e-06 -8.131153096e-12)
(0.429317845 -0.000121393036 5.431667053e-12)
(0.4109264284 -0.0001689093925 2.366865007e-12)
(0.3833631378 -0.0001936743565 -2.02859085e-11)
(0.346955675 -0.000186170487 -9.637709852e-11)
(0.3019811831 -0.0001555705186 -1.215451741e-10)
(0.2487004678 -0.00010845406 -1.06400712e-10)
(0.1873701239 -6.092996346e-05 -6.44849731e-11)
(0.1182376235 -1.740433676e-05 -3.321081296e-11)
(0.04155104552 -4.225918497e-06 -9.565721576e-12)
(0.4295088209 -0.0001131526392 -3.783547655e-12)
(0.4110892975 -0.0001586107199 -1.35136461e-11)
(0.3834920417 -0.0001838280846 -3.583469902e-11)
(0.3470526 -0.0001790980349 -7.040278839e-11)
(0.3020518539 -0.0001522200188 -8.533345887e-11)
(0.2487538395 -0.0001074039362 -7.715469322e-11)
(0.187413951 -6.185777714e-05 -5.398464487e-11)
(0.1182723819 -1.623040654e-05 -3.010626622e-11)
(0.04156919302 -6.281520104e-06 -8.882324059e-12)
(0.4297347262 -0.0001151662389 -1.008769464e-11)
(0.4112932156 -0.0001626995313 -2.132815916e-11)
(0.3836690478 -0.0001906712271 -3.818205049e-11)
(0.3472039597 -0.0001882471856 -5.614666842e-11)
(0.3021823662 -0.000162899674 -6.337655225e-11)
(0.2488669705 -0.0001172679084 -5.736870651e-11)
(0.1875103139 -7.04065413e-05 -4.221080434e-11)
(0.1183444454 -1.795901331e-05 -2.437324682e-11)
(0.04160219828 -9.561677405e-06 -7.283091047e-12)
(0.4300255957 -0.0001278922027 -1.298066676e-11)
(0.4115662511 -0.0001821984993 -2.358708377e-11)
(0.3839196878 -0.0002160879926 -3.573659848e-11)
(0.3474321225 -0.0002166961823 -4.583253266e-11)
(0.302389532 -0.0001910933139 -4.878171726e-11)
(0.2490530885 -0.0001401529678 -4.345316206e-11)
(0.187669543 -8.691029113e-05 -3.228080083e-11)
(0.1184609759 -2.183221139e-05 -1.886313993e-11)
(0.04165328812 -1.396736246e-05 -5.66501627e-12)
(0.4304165078 -0.0001516433682 -1.343551052e-11)
(0.411942104 -0.0002175937235 -2.268349379e-11)
(0.3842758904 -0.0002607253124 -3.144285129e-11)
(0.3477670162 -0.0002649713801 -3.736202613e-11)
(0.3027013109 -0.0002375828612 -3.808512927e-11)
(0.2493360768 -0.000177276634 -3.331725116e-11)
(0.1879110139 -0.0001127658787 -2.469225105e-11)
(0.1186359991 -2.876864647e-05 -1.44697271e-11)
(0.04172812607 -2.009925406e-05 -4.354605075e-12)
(0.4309485095 -0.0001871969329 -1.257280824e-11)
(0.41246048 -0.000270084354 -2.037296842e-11)
(0.3847754115 -0.0003261199046 -2.684796786e-11)
(0.3482438649 -0.0003347837344 -3.059534404e-11)
(0.3031496058 -0.0003038976401 -3.033164034e-11)
(0.2497439843 -0.0002299018509 -2.616911441e-11)
(0.1882572661 -0.0001491175976 -1.932324174e-11)
(0.1188844109 -3.918889201e-05 -1.133876175e-11)
(0.04183209562 -2.822041787e-05 -3.420364877e-12)
(0.4316705834 -0.0002352709717 -1.080308372e-11)
(0.4131692723 -0.000340727421 -1.698199308e-11)
(0.3854644809 -0.0004135867128 -2.19631478e-11)
(0.3489065273 -0.0004275496168 -2.830910015e-11)
(0.3037749248 -0.0003914326975 -2.706989436e-11)
(0.2503124066 -0.0002991851831 -2.259199719e-11)
(0.1887369259 -0.0001967748689 -1.638294697e-11)
(0.1192254512 -5.333393134e-05 -9.546087537e-12)
(0.04197234538 -3.865047863e-05 -2.877802396e-12)
(0.4326399105 -0.0002964828865 4.237591128e-12)
(0.4141245981 -0.0004304122694 1.716211019e-11)
(0.3863974762 -0.000524173956 6.018658711e-11)
(0.3498067046 -0.0005443138904 -1.115850348e-10)
(0.3046249331 -0.0005010788837 -4.791684671e-11)
(0.2510830866 -0.0003857441143 -2.718808243e-11)
(0.1893832712 -0.0002561046149 -1.674427651e-11)
(0.119681136 -7.122707062e-05 -9.128105536e-12)
(0.04215680353 -5.161169204e-05 -2.689723446e-12)
(0.4339229697 -0.0003711042364 6.845224056e-12)
(0.4153918859 -0.0005394782968 1.050593412e-11)
(0.3876379937 -0.0006581858905 7.103215265e-12)
(0.3510049742 -0.0006852467653 -3.678196803e-11)
(0.305755455 -0.0006328091997 -3.13821848e-11)
(0.2521047385 -0.0004893889774 -2.259489113e-11)
(0.1902349413 -0.0003268664151 -1.486067693e-11)
(0.1202769133 -9.265710199e-05 -8.20808641e-12)
(0.04239460209 -6.72746532e-05 -2.420677566e-12)
(0.4355955582 -0.0004588855 4.567800989e-12)
(0.4170457962 -0.0006674692813 4.476248594e-12)
(0.3892586207 -0.0008148786456 -2.340009501e-12)
(0.3525703854 -0.0008493204112 -1.754811321e-11)
(0.3072298914 -0.0007853653459 -2.008579394e-11)
(0.2534323501 -0.0006088658064 -1.696978062e-11)
(0.1913351811 -0.0004080310937 -1.208632069e-11)
(0.1210409598 -0.0001170903979 -6.958936954e-12)
(0.04269568964 -8.569860019e-05 -2.091980411e-12)
(0.4377429139 -0.0005588787274 1.802207655e-12)
(0.4191702847 -0.0008128709223 5.100938271e-13)
(0.3913409089 -0.0009921463632 -4.45506897e-12)
(0.3545803198 -0.001033996047 -1.145969286e-11)
(0.3091189683 -0.0009559938606 -1.414908041e-11)
(0.2551268439 -0.000741676862 -1.322510741e-11)
(0.1927314954 -0.0004976871481 -1.036079883e-11)
(0.122003935 -0.0001436629203 -6.470811537e-12)
(0.04307078479 -0.0001068348245 -2.032148939e-12)
(0.4404592165 -0.0006692967847 -1.485005564e-13)
(0.4218580254 -0.0009729184782 -1.881512664e-12)
(0.393974682 -0.001186304819 -5.551877359e-12)
(0.3571196631 -0.001235025867 -9.929670744e-12)
(0.3114997815 -0.001140299659 -1.274288879e-11)
(0.2572540545 -0.0008840011191 -1.372047221e-11)
(0.1944746833 -0.0005930167901 -1.287501075e-11)
(0.1231982361 -0.0001711849063 -9.190627763e-12)
(0.04353106691 -0.0001305102947 -2.911175984e-12)
(0.4438468819 -0.0007874220421 -3.874502406e-12)
(0.4252096266 -0.001143476721 -6.40511984e-12)
(0.3972571331 -0.001391975729 -9.756880517e-12)
(0.3602797658 -0.001446378469 -1.41629133e-11)
(0.3144546483 -0.00133223852 -1.945576767e-11)
(0.2598835523 -0.001030746916 -2.561899881e-11)
(0.1966177907 -0.0006903829357 -3.088173091e-11)
(0.124657257 -0.0001982044322 -2.355564067e-11)
(0.04408792082 -0.0001564370403 -5.361214052e-12)
(0.4480154289 -0.0009095780968 -3.015088824e-10)
(0.4293323982 -0.001319022276 -9.888653089e-11)
(0.4012914492 -0.001602109563 -4.722231165e-11)
(0.3641569186 -0.001660325009 -3.633657321e-11)
(0.3180694776 -0.001524274617 -4.369306317e-11)
(0.2630870321 -0.001175743875 -6.809068597e-11)
(0.1992147136 -0.0007855122645 -1.231006716e-10)
(0.1264144132 -0.0002231005335 -9.163332577e-11)
(0.04475258031 -0.0001842225955 2.284039634e-12)
(0.4530800479 -0.001031181218 -1.22749947e-10)
(0.4343388002 -0.001492745975 -8.842758662e-11)
(0.4061850942 -0.001808165232 -5.957373648e-11)
(0.3688504743 -0.00186770066 -4.84198013e-11)
(0.3224318141 -0.001707710261 -5.037109625e-11)
(0.2669364432 -0.001312072921 -5.86661883e-11)
(0.2023186395 -0.0008737696162 -6.420155056e-11)
(0.1285021035 -0.0002442073014 -4.346135795e-11)
(0.04553577144 -0.0002133918365 -1.025409726e-11)
(0.4591598026 -0.001146879538 -6.657887537e-11)
(0.4403444939 -0.001656788324 -6.694266927e-11)
(0.4120476689 -0.00200045729 -5.586839688e-11)
(0.3744605509 -0.002058343144 -4.880565736e-11)
(0.3276285053 -0.001873174579 -4.700252177e-11)
(0.2715018305 -0.001432508046 -4.617393509e-11)
(0.2059803099 -0.0009504902369 -4.063658689e-11)
(0.1309505939 -0.0002599451786 -2.611816743e-11)
(0.0464473318 -0.0002434105446 -7.759976038e-12)
(0.466375481 -0.001250786049 -4.095554224e-11)
(0.447466018 -0.001802610433 -4.897296527e-11)
(0.4189883842 -0.002168665241 -4.704779953e-11)
(0.3810853722 -0.00222168963 -4.34383582e-11)
(0.3337430847 -0.002011237195 -4.021948876e-11)
(0.2768490119 -0.001530029656 -3.589845603e-11)
(0.2102462308 -0.001011333971 -2.844964993e-11)
(0.1337869199 -0.0002689456007 -1.750585795e-11)
(0.04749585193 -0.0002737110984 -5.317635436e-12)
(0.4748470507 -0.001336799684 -2.754716559e-11)
(0.4558180562 -0.001921488163 -3.645368308e-11)
(0.4271131407 -0.00230247842 -3.83067386e-11)
(0.3888182818 -0.002347489359 -3.679350322e-11)
(0.3408529438 -0.002113090142 -3.355734087e-11)
(0.2830371797 -0.001598352904 -2.8581581e-11)
(0.2151569129 -0.001052616676 -2.154652901e-11)
(0.1370338606 -0.0002701506434 -1.291673335e-11)
(0.04868835087 -0.0003037159519 -3.916553619e-12)
(0.4846906882 -0.00139900005 -2.008772883e-11)
(0.4655102936 -0.002005101104 -2.825961214e-11)
(0.436521259 -0.002392330044 -3.156164097e-11)
(0.3977445238 -0.002426569273 -3.147040124e-11)
(0.3490264284 -0.002171227829 -2.889787589e-11)
(0.2901165738 -0.001632411495 -2.480442123e-11)
(0.2207452621 -0.001071581294 -1.862667426e-11)
(0.140709054 -0.0002628789015 -1.115517914e-11)
(0.05003000999 -0.0003328580635 -3.399791307e-12)
(0.4960153658 -0.001432085866 -1.651195684e-11)
(0.4766438906 -0.002046166856 -2.479313356e-11)
(0.4473019437 -0.0024301501 -3.053310365e-11)
(0.4079379287 -0.002451569894 -3.378760691e-11)
(0.3583200216 -0.002180044517 -2.835221834e-11)
(0.2981263715 -0.001628737976 -2.985663401e-11)
(0.227035219 -0.00106657757 -2.205632586e-11)
(0.1448243021 -0.0002468515819 -1.283497012e-11)
(0.05152397729 -0.0003605962312 -3.86562647e-12)
(0.5089189933 -0.001431817635 -2.052879741e-11)
(0.4893076248 -0.002039058429 -3.751887239e-11)
(0.4595306007 -0.002410056045 -6.638658523e-11)
(0.4194576669 -0.002417566821 -1.293331325e-10)
(0.3687757823 -0.00213627979 -6.17558832e-13)
(0.3070929252 -0.001585700477 -9.204484361e-11)
(0.2340407276 -0.001037138958 -4.181172916e-11)
(0.1493850965 -0.0002221828235 -1.920294179e-11)
(0.05317124688 -0.000386425712 -5.276141869e-12)
(0.5234842282 -0.001395410592 -2.119931479e-11)
(0.5035738723 -0.001980326385 -3.614701219e-11)
(0.473265224 -0.002328889418 -5.216677944e-11)
(0.4323453026 -0.00232249227 -6.32129376e-11)
(0.3804192359 -0.00203925162 -3.755098478e-11)
(0.3170284807 -0.001503566882 -4.474586098e-11)
(0.2417650978 -0.0009839518451 -3.030582442e-11)
(0.1543903871 -0.0001893363462 -1.634277603e-11)
(0.05497061601 -0.0004098822416 -4.715012523e-12)
(0.5397740712 -0.001321829027 -1.932051202e-11)
(0.5194945867 -0.001869057986 -3.086575493e-11)
(0.4885430371 -0.002186528116 -3.967792325e-11)
(0.4466223115 -0.002167306545 -4.225210247e-11)
(0.3932578237 -0.001890860753 -3.496792385e-11)
(0.3279304111 -0.001384409446 -3.074672921e-11)
(0.2502007515 -0.0009087428199 -2.215583218e-11)
(0.1598325759 -0.0001490715088 -1.261185734e-11)
(0.05691870769 -0.0004305459583 -3.719770022e-12)
(0.557827626 -0.001211929473 -1.643874083e-11)
(0.5370976635 -0.00170701016 -2.531965607e-11)
(0.5053777463 -0.00198591924 -3.091797962e-11)
(0.4622883472 -0.001955888144 -3.189351854e-11)
(0.4072800974 -0.001695361338 -2.83475591e-11)
(0.3397810721 -0.001231856228 -2.342886071e-11)
(0.259329404 -0.0008140824785 -1.683427637e-11)
(0.1656977728 -0.0001023744874 -9.689293091e-12)
(0.0590100208 -0.0004480463544 -2.878374456e-12)
(0.5776562264 -0.001068431513 -1.343765169e-11)
(0.5563838547 -0.001498493374 -2.034104475e-11)
(0.5237574912 -0.00173282867 -2.433964958e-11)
(0.4793202357 -0.001694671528 -2.493337029e-11)
(0.4224555395 -0.001458958581 -2.258670737e-11)
(0.3525480999 -0.001050774901 -1.853347215e-11)
(0.2691225081 -0.0007031823431 -1.338299551e-11)
(0.1719662577 -5.055119733e-05 -7.805221398e-12)
(0.06123704218 -0.0004621586113 -2.343318011e-12)
(0.5992406446 -0.0008957103757 -1.088060427e-11)
(0.5773248653 -0.001250025704 -1.638949751e-11)
(0.54364401 -0.001435357665 -1.957999396e-11)
(0.4976721034 -0.001392103032 -2.026744348e-11)
(0.4387353492 -0.001189298479 -1.88533141e-11)
(0.3661854751 -0.0008468982928 -1.598229879e-11)
(0.2795422977 -0.0005795284969 -1.206391879e-11)
(0.178613692 4.722566478e-06 -7.363903352e-12)
(0.06358951851 -0.0004731961435 -2.26464087e-12)
(0.6225293167 -0.0006994259072 -9.741211005e-12)
(0.5998624319 -0.0009697570343 -1.452984398e-11)
(0.564972644 -0.001103212913 -1.749090716e-11)
(0.5172760843 -0.001057871993 -1.87345929e-11)
(0.4560534687 -0.0008947726266 -1.860144348e-11)
(0.3806343958 -0.000626304699 -1.731036702e-11)
(0.290542513 -0.0004459757486 -1.460365876e-11)
(0.1856090428 5.903421146e-05 -9.721991882e-12)
(0.06605790137 -0.0004843024252 -2.963090632e-12)
(0.647438636 -0.0004860749551 -2.132883602e-11)
(0.6239093061 -0.0006668491687 -2.23851842e-11)
(0.5876539935 -0.0007470174561 -2.249234221e-11)
(0.5380444144 -0.0007022947908 -2.325863658e-11)
(0.4743287919 -0.0005841758916 -2.462018825e-11)
(0.3958254089 -0.0003948417494 -2.617795975e-11)
(0.3020702448 -0.0003072264162 -2.676160657e-11)
(0.1929166558 0.0001131843881 -1.91598151e-11)
(0.06863116749 -0.0004926280941 -4.488562625e-12)
(0.6738542992 -0.0002624917772 -2.756778458e-10)
(0.6493510154 -0.0003507539704 -1.021426623e-10)
(0.6115759953 -0.0003774485842 -5.159691581e-11)
(0.5598715223 -0.0003354315305 -3.844617152e-11)
(0.4934667865 -0.0002657862053 -3.859721715e-11)
(0.4116796027 -0.0001573756706 -4.794909053e-11)
(0.3140636003 -0.0001682085569 -7.905155486e-11)
(0.2005033231 0.0001648716712 -5.168659079e-11)
(0.07129591165 -0.0004975674609 5.166021745e-13)
(0.7016357442 -3.547442191e-05 -1.032982492e-10)
(0.6760503548 -3.07282509e-05 -7.540005671e-11)
(0.6366081654 -4.838083901e-06 -5.292204224e-11)
(0.5826378167 3.279863219e-05 -4.311775682e-11)
(0.513362891 5.225893882e-05 -4.064926045e-11)
(0.4281121767 7.772762319e-05 -4.093820299e-11)
(0.326456847 -2.563660034e-05 -4.011404002e-11)
(0.2083301245 0.0002182237791 -2.698473223e-11)
(0.07403857038 -0.0005012672459 -6.490764033e-12)
(0.7306200977 0.0001887086783 -4.827682045e-11)
(0.7038510367 0.0002845311856 -5.021332828e-11)
(0.6626048661 0.000361126303 -4.431141736e-11)
(0.6062124405 0.0003932304722 -3.934550147e-11)
(0.5339052361 0.0003638492267 -3.59792205e-11)
(0.4450320861 0.0003032290381 -3.242124796e-11)
(0.3391891278 0.0001166334539 -2.654490779e-11)
(0.2163509447 0.000273615337 -1.679758747e-11)
(0.07684475051 -0.0005039360289 -4.969117925e-12)
(0.7606249203 0.0004043215275 -2.725659311e-11)
(0.7325802568 0.0005871281195 -3.406785711e-11)
(0.6894077755 0.0007115820062 -3.432023155e-11)
(0.6304556383 0.0007379806511 -3.214849075e-11)
(0.5549759438 0.0006613384922 -2.89457442e-11)
(0.4623447508 0.0005198974428 -2.456588086e-11)
(0.3521931022 0.0002529438333 -1.860349987e-11)
(0.2245238332 0.0003250184552 -1.120561589e-11)
(0.07970043453 -0.0005038496915 -3.379276608e-12)
(0.7914559659 0.0006068165474 -1.728809945e-11)
(0.7620558194 0.0008710448066 -2.359353649e-11)
(0.7168519629 0.001040104338 -2.545406673e-11)
(0.6552236218 0.001061216005 -2.449200289e-11)
(0.5764546991 0.0009401829583 -2.176599886e-11)
(0.4799560921 0.0007239490394 -1.774565258e-11)
(0.3653966062 0.0003803294877 -1.277460139e-11)
(0.2328094495 0.0003717696269 -7.381086067e-12)
(0.08259156049 -0.0005010276946 -2.188940472e-12)
(0.8229142512 0.0007928135345 -1.146831122e-11)
(0.7920922286 0.001131800293 -1.623375814e-11)
(0.7447706139 0.001341845716 -1.797024547e-11)
(0.6803718074 0.001358444148 -1.726713141e-11)
(0.5982213354 0.001196814602 -1.486371434e-11)
(0.4977715503 0.0009124879286 -1.140336528e-11)
(0.3787316068 0.0004977890422 -7.486328805e-12)
(0.241167049 0.0004138007494 -3.884108862e-12)
(0.08550422056 -0.0004959047434 -1.063325652e-12)
(0.8548011332 0.0009600599027 -7.296253379e-12)
(0.8225050228 0.001366399232 -1.027618805e-11)
(0.7729986735 0.001613559203 -1.101149689e-11)
(0.7057579232 0.001626619352 -9.736327719e-12)
(0.6201582712 0.001428786629 -7.111842915e-12)
(0.5156991113 0.001083517805 -3.910566957e-12)
(0.3921322139 0.0006045649406 -4.153988529e-13)
(0.2495568064 0.0004509834168 1.30012934e-12)
(0.08842458164 -0.0004889061236 6.844605934e-13)
(0.8869232036 0.001107260672 -3.412744636e-12)
(0.8531150161 0.001573113636 -4.098284033e-12)
(0.8013762722 0.001853360632 -2.689451145e-12)
(0.7312445895 0.001863945949 6.38798753e-13)
(0.6421522966 0.001634647269 4.984132703e-12)
(0.5336503865 0.001235880767 7.237910826e-12)
(0.4055351861 0.0007004791462 1.43972827e-11)
(0.2579401056 0.0004822646274 1.341044407e-11)
(0.09134022629 -0.0004814024153 4.557972629e-12)
(0.9190962311 0.001233925599 8.537376001e-13)
(0.8837517287 0.001751279433 3.263561573e-12)
(0.8297515455 0.002060506621 8.52796364e-12)
(0.7567015366 0.00206966116 1.817845112e-11)
(0.664096251 0.001813727839 3.849315819e-11)
(0.5515418511 0.001368994053 1.462547698e-11)
(0.4188807792 0.0007849224003 6.293053457e-11)
(0.266280437 0.0005086052244 5.389682348e-11)
(0.09423961211 -0.0004725275944 1.280028698e-11)
(0.9511482636 0.001340217534 3.432997804e-12)
(0.9142560933 0.001901107966 6.924725942e-12)
(0.8579828608 0.002235210837 1.195232112e-11)
(0.7820073556 0.002243897207 1.776387794e-11)
(0.6858903547 0.001966089388 2.26452301e-11)
(0.5692958492 0.001482830089 2.101720492e-11)
(0.4321135401 0.0008577067868 2.719256486e-11)
(0.2745446746 0.0005305507837 2.129034942e-11)
(0.09711115877 -0.0004619430151 6.73746688e-12)
(0.9829218218 0.001426802707 4.354181677e-12)
(0.9444823773 0.00202348866 7.672172946e-12)
(0.8859404047 0.002378432718 1.13749615e-11)
(0.8070507343 0.002387485847 1.469085417e-11)
(0.707443109 0.002092362415 1.643572187e-11)
(0.5868411693 0.00157776291 1.595721965e-11)
(0.4451825996 0.0009190473526 1.501464997e-11)
(0.2827023859 0.0005482130217 1.055181886e-11)
(0.09994442822 -0.000449907292 3.409689336e-12)
(1.014275311 0.001494717878 4.321349628e-12)
(0.9742994405 0.002119815909 7.116258119e-12)
(0.9135072468 0.002491694348 9.669841213e-12)
(0.8317313159 0.002501793896 1.149529251e-11)
(0.7286719621 0.002193615687 1.205750315e-11)
(0.6041135319 0.001654469873 1.120778895e-11)
(0.4580420212 0.000969334983 9.272042555e-12)
(0.29072595 0.0005617115289 5.994550365e-12)
(0.1027301501 -0.0004366995086 1.885755412e-12)
(1.045083723 0.001545257805 3.841750624e-12)
(1.003591371 0.002191841487 6.098793639e-12)
(0.9405798894 0.002576925098 7.878391066e-12)
(0.8559601511 0.002588587566 8.89131862e-12)
(0.7495036617 0.00227125683 8.9197193e-12)
(0.6210558493 0.001713879266 7.957240392e-12)
(0.4706509857 0.001009100816 6.191400334e-12)
(0.2985907936 0.0005712104445 3.811254373e-12)
(0.1054600868 -0.0004225752526 1.174518891e-12)
(1.075238754 0.001579881248 3.213028174e-12)
(1.032257609 0.002241550212 4.998872328e-12)
(0.9670683913 0.002636328548 6.27417765e-12)
(0.8796598106 0.002649913185 6.864176366e-12)
(0.7698743482 0.002326940544 6.690494213e-12)
(0.637618295 0.001757111649 5.809086797e-12)
(0.482973833 0.001038987575 4.386916383e-12)
(0.3062754294 0.0005769281765 2.637474026e-12)
(0.1081270333 -0.0004077603308 8.049083153e-13)
(1.104648459 0.001600134637 2.613702959e-12)
(1.060212658 0.002271057433 4.024425515e-12)
(0.9928961396 0.002672270651 4.977264161e-12)
(0.9027642144 0.002687993991 5.361294703e-12)
(0.7897294307 0.002362486555 5.154034072e-12)
(0.6537582163 0.001785423281 4.424243902e-12)
(0.4949800043 0.00105971985 3.309217109e-12)
(0.3137614276 0.000579126413 1.97829153e-12)
(0.1107248017 -0.0003924527618 6.034170894e-13)
(1.133236558 0.001607591097 2.160987985e-12)
(1.087385473 0.002282525724 3.322416336e-12)
(1.017999348 0.002687186726 4.105891863e-12)
(0.9252182361 0.002705141761 4.431458104e-12)
(0.8090232868 0.002379806833 4.285592676e-12)
(0.6694399172 0.001800153863 3.714574958e-12)
(0.5066438964 0.001072075695 2.811900708e-12)
(0.3210333333 0.0005780971109 1.70217241e-12)
(0.1132481952 -0.0003768257027 5.243578029e-13)
(1.160941488 0.0016038029 1.974069796e-12)
(1.113718625 0.00227809888 3.072498386e-12)
(1.042326352 0.002683506039 3.878425606e-12)
(0.946977136 0.00270368317 4.313231389e-12)
(0.8277188257 0.002380843375 4.325664208e-12)
(0.6846343371 0.001802680632 3.892902575e-12)
(0.5179446445 0.001076860683 3.048484075e-12)
(0.3280785414 0.0005741502103 1.896484632e-12)
(0.1156929683 -0.0003610300811 5.94410629e-13)
(1.187715294 0.001590265675 2.269126255e-12)
(1.139167311 0.002259851301 3.646696801e-12)
(1.065836762 0.00266359277 4.843523761e-12)
(0.9680058715 0.002685900685 5.74020763e-12)
(0.8457869498 0.002367516963 6.139117748e-12)
(0.6993186524 0.001794379727 5.792114703e-12)
(0.5288658485 0.001074885508 4.654475029e-12)
(0.3348871381 0.0005676031329 2.93459709e-12)
(0.1180557771 -0.000345196814 9.260545374e-13)