/*--------------------------------*- C++ -*----------------------------------*\
| =========                 |                                                 |
| \\      /  F ield         | OpenFOAM: The Open Source CFD Toolbox           |
|  \\    /   O peration     | Version:  2212                                  |
|   \\  /    A nd           | Website:  www.openfoam.com                      |
|    \\/     M anipulation  |                                                 |
\*---------------------------------------------------------------------------*/
FoamFile
{
    version     2.0;
    format      ascii;
    arch        "LSB;label=32;scalar=64";
    class       volScalarField;
    location    "19.75000000";
    object      A1C2H_0;
}
// * * * * * * * * * * * * * * * * * * * * * * * * * * * * * * * * * * * * * //

dimensions      [0 0 0 0 0 0 0];

internalField   nonuniform List<scalar> 
3000
(
5.952777087e-24
6.687179172e-24
7.795385599e-24
9.272167453e-24
1.110251459e-23
1.32367245e-23
1.554622224e-23
1.774992771e-23
1.930823061e-23
2.234930868e-23
2.520781007e-23
2.951941155e-23
3.527775627e-23
4.247713294e-23
5.107763037e-23
6.092995656e-23
7.153674351e-23
8.093262193e-23
5.006096571e-23
5.690700594e-23
6.733174048e-23
8.148612407e-23
9.962468711e-23
1.22010542e-22
1.485555757e-22
1.777694396e-22
2.027374319e-22
9.535225131e-23
1.095272879e-22
1.314285804e-22
1.61797091e-22
2.017086019e-22
2.521771489e-22
3.129272491e-22
3.790955086e-22
4.325026408e-22
1.69318371e-22
1.968755134e-22
2.401231349e-22
3.012577359e-22
3.831543506e-22
4.881079136e-22
6.143647834e-22
7.484435552e-22
8.513666053e-22
2.911491369e-22
3.428681582e-22
4.25198512e-22
5.433935169e-22
7.037569813e-22
9.103227398e-22
1.156920231e-21
1.412450913e-21
1.601497954e-21
4.942522047e-22
5.892504914e-22
7.422386397e-22
9.643515271e-22
1.267955386e-21
1.659083394e-21
2.121556201e-21
2.591431612e-21
2.930471778e-21
8.364098995e-22
1.008325504e-21
1.287647849e-21
1.696317868e-21
2.25712589e-21
2.97814309e-21
3.823192997e-21
4.669272577e-21
5.269583388e-21
1.417739703e-21
1.72556533e-21
2.228948255e-21
2.96917361e-21
3.986782168e-21
5.291552753e-21
6.809775325e-21
8.314042746e-21
9.369577191e-21
2.411605337e-21
2.958458441e-21
3.856823836e-21
5.182160676e-21
7.005282756e-21
9.336778857e-21
1.203469405e-20
1.468823824e-20
1.653639582e-20
4.118424725e-21
5.084228459e-21
6.675910842e-21
9.028882837e-21
1.226578908e-20
1.639611458e-20
2.115594522e-20
2.581357485e-20
2.904133139e-20
7.058932136e-21
8.757185781e-21
1.156217109e-20
1.571411131e-20
2.142478174e-20
2.869883013e-20
3.705644807e-20
4.52053504e-20
5.083314704e-20
1.213612394e-20
1.511260153e-20
2.003636883e-20
2.733053417e-20
3.736063735e-20
5.011943797e-20
6.474715216e-20
7.897365229e-20
8.877524314e-20
2.091627308e-20
2.612048548e-20
3.47386829e-20
4.751269822e-20
6.507391185e-20
8.739013645e-20
1.129352406e-19
1.377350786e-19
1.547922197e-19
3.611660694e-20
4.519961825e-20
6.025250832e-20
8.257203436e-20
1.132497363e-19
1.522045904e-19
1.967448654e-19
2.39929533e-19
2.695948299e-19
6.245154682e-20
7.828307001e-20
1.045340441e-19
1.434666193e-19
1.969693745e-19
2.648692008e-19
3.424392002e-19
4.175764376e-19
4.691432529e-19
1.08101335e-19
1.356675244e-19
1.813936561e-19
2.492202546e-19
3.424169377e-19
4.606408863e-19
5.956167828e-19
7.262651923e-19
8.15866612e-19
1.872614363e-19
2.352237971e-19
3.14804049e-19
4.328592141e-19
5.950524321e-19
8.007326333e-19
1.035443427e-18
1.262503406e-18
1.41814511e-18
3.245690439e-19
4.079717399e-19
5.463817752e-19
7.517223755e-19
1.033805691e-18
1.391426296e-18
1.799368388e-18
2.193844309e-18
2.464132904e-18
5.627894499e-19
7.077611382e-19
9.483790526e-19
1.305364052e-18
1.795720336e-18
2.41725162e-18
3.126024037e-18
3.811162978e-18
4.280451897e-18
9.761627092e-19
1.228081895e-18
1.646242e-18
2.266635213e-18
3.118728875e-18
4.198558956e-18
5.429639556e-18
6.619328194e-18
7.434033212e-18
1.693576073e-18
2.131249628e-18
2.857772766e-18
3.93563198e-18
5.415876148e-18
7.29137906e-18
9.429052722e-18
1.149431048e-17
1.290830886e-17
2.938788285e-18
3.699067637e-18
4.961102219e-18
6.833310822e-18
9.404070038e-18
1.266055893e-17
1.637125445e-17
1.995522018e-17
2.240838073e-17
5.100221381e-18
6.420720133e-18
8.612589644e-18
1.186381134e-17
1.632723586e-17
2.197970572e-17
2.841846732e-17
3.463519778e-17
3.888911241e-17
8.852016679e-18
1.114522116e-17
1.495127708e-17
2.059582017e-17
2.83428313e-17
3.815018223e-17
4.931716686e-17
6.009437896e-17
6.746594544e-17
1.536383034e-17
1.934558287e-17
2.595304994e-17
3.574964568e-17
4.919033112e-17
6.619768604e-17
8.555236463e-17
1.042208445e-16
1.169832336e-16
2.666397181e-17
3.357595357e-17
4.504318237e-17
6.203895119e-17
8.534519039e-17
1.148177995e-16
1.483341454e-16
1.806377128e-16
2.027057153e-16
4.626707122e-17
5.826150292e-17
7.815403395e-17
1.076225834e-16
1.480060842e-16
1.990324636e-16
2.570049161e-16
3.128234216e-16
3.509189379e-16
8.025681146e-17
1.010602814e-16
1.355469132e-16
1.866016993e-16
2.565062996e-16
3.44739339e-16
4.448591483e-16
5.411315429e-16
6.067528222e-16
1.391490966e-16
1.752049669e-16
2.34940774e-16
3.232999994e-16
4.441465792e-16
5.964672686e-16
7.690323175e-16
9.346819682e-16
1.047405205e-15
2.410885822e-16
3.035162195e-16
4.068650556e-16
5.595690173e-16
7.681195323e-16
1.03052376e-15
1.327199185e-15
1.611365646e-15
1.804329869e-15
4.173132348e-16
5.252536273e-16
7.037765739e-16
9.671923216e-16
1.326296657e-15
1.777135394e-15
2.285561759e-15
2.771228191e-15
3.100151364e-15
7.214572956e-16
9.077560202e-16
1.215504785e-15
1.668819672e-15
2.285427543e-15
3.057443518e-15
3.925358853e-15
4.751666926e-15
5.309490897e-15
1.245313386e-15
1.566113029e-15
2.095257253e-15
2.873048734e-15
3.928133111e-15
5.244775138e-15
6.719406675e-15
8.117753982e-15
9.058122527e-15
2.14539503e-15
2.696206541e-15
3.603099388e-15
4.932746664e-15
6.730516259e-15
8.965112349e-15
1.145671386e-14
1.380837374e-14
1.538274653e-14
3.687432965e-15
4.629831535e-15
6.17808228e-15
8.441145588e-15
1.148906629e-14
1.526005165e-14
1.944302038e-14
2.336982286e-14
2.598529383e-14
6.32042389e-15
7.925961879e-15
1.055686657e-14
1.438863913e-14
1.952593438e-14
2.584805294e-14
3.281958144e-14
3.932454929e-14
4.363259965e-14
1.079897729e-14
1.352063223e-14
1.796700141e-14
2.441595433e-14
3.301718922e-14
4.353817784e-14
5.506355518e-14
6.574582695e-14
7.277660768e-14
1.83838973e-14
2.297092773e-14
3.043872122e-14
4.121844218e-14
5.551150718e-14
7.287719997e-14
9.176354988e-14
1.091421483e-13
1.205048796e-13
3.116828803e-14
3.884847115e-14
5.130270114e-14
6.918434939e-14
9.273990191e-14
1.211492098e-13
1.518068112e-13
1.798018025e-13
1.979800912e-13
5.260300833e-14
6.536778584e-14
8.597612876e-14
1.153908649e-13
1.538646624e-13
1.999011448e-13
2.491751226e-13
2.938138155e-13
3.225959598e-13
8.833530764e-14
1.093794815e-13
1.431904876e-13
1.911406446e-13
2.533833062e-13
3.272443021e-13
4.056316275e-13
4.760735706e-13
5.211733946e-13
1.475338897e-13
1.819235431e-13
2.3688817e-13
3.143055123e-13
4.139988947e-13
5.312895222e-13
6.547000011e-13
7.64710256e-13
8.346552744e-13
2.449605753e-13
3.006325233e-13
3.891204117e-13
5.128628915e-13
6.709023366e-13
8.552243985e-13
1.047503903e-12
1.217552932e-12
1.324945798e-12
4.041740874e-13
4.934095608e-13
6.344283149e-13
8.301776978e-13
1.078100284e-12
1.364751147e-12
1.661266506e-12
1.921501776e-12
2.08480086e-12
6.624299092e-13
8.039973065e-13
1.026398636e-12
1.332816406e-12
1.717684448e-12
2.158896339e-12
2.611591778e-12
3.006017205e-12
3.252036624e-12
1.078091418e-12
1.300322053e-12
1.647379475e-12
2.122006152e-12
2.713302738e-12
3.385609449e-12
4.070094633e-12
4.662417765e-12
5.029821353e-12
1.741718489e-12
2.086871393e-12
2.622749465e-12
3.350304736e-12
4.249597729e-12
5.264127918e-12
6.289561248e-12
7.171335999e-12
7.7155007e-12
2.792487733e-12
3.32288345e-12
4.141700937e-12
5.2456748e-12
6.600075808e-12
8.116859223e-12
9.639665866e-12
1.094158623e-11
1.174134625e-11
4.442275911e-12
5.248847112e-12
6.487283528e-12
8.146023297e-12
1.016683215e-11
1.241459209e-11
1.465742852e-11
1.656494026e-11
1.773190388e-11
7.0106785e-12
8.224814625e-12
1.007954462e-11
1.254846635e-11
1.553687769e-11
1.884029917e-11
2.211817625e-11
2.489298443e-11
2.658438875e-11
1.097554349e-11
1.278542554e-11
1.553712351e-11
1.917924983e-11
2.356163483e-11
2.837877217e-11
3.313492885e-11
3.714455404e-11
3.958096873e-11
1.704541905e-11
1.971849772e-11
2.376463853e-11
2.90921923e-11
3.546836765e-11
4.244198627e-11
4.929715444e-11
5.505555467e-11
5.854514039e-11
2.626100497e-11
3.017449318e-11
3.607448145e-11
4.380660027e-11
5.301646692e-11
6.304454231e-11
7.286430755e-11
8.108726933e-11
8.605886053e-11
4.01400829e-11
4.582296168e-11
5.435978379e-11
6.550080682e-11
7.871486734e-11
9.304651695e-11
1.070332167e-10
1.187140321e-10
1.257624475e-10
6.088084948e-11
6.907103297e-11
8.133520366e-11
9.728140023e-11
1.161240836e-10
1.36490246e-10
1.563081193e-10
1.728206872e-10
1.82768453e-10
9.164631301e-11
1.033684368e-10
1.208722136e-10
1.435569475e-10
1.702743108e-10
1.990654148e-10
2.270107445e-10
2.502497698e-10
2.642310793e-10
1.369606257e-10
1.53631735e-10
1.784642605e-10
2.105551111e-10
2.482425036e-10
2.887496202e-10
3.279816692e-10
3.605529883e-10
3.801277367e-10
2.032593911e-10
2.268323177e-10
2.618700267e-10
3.070360438e-10
3.59946689e-10
4.166883523e-10
4.715423671e-10
5.170210127e-10
5.443294885e-10
2.996511716e-10
3.328087399e-10
3.820002771e-10
4.452737672e-10
5.192363989e-10
5.984009102e-10
6.748118288e-10
7.380915375e-10
7.760641165e-10
4.38967839e-10
4.853855147e-10
5.54136967e-10
6.424025376e-10
7.453858787e-10
8.554291888e-10
9.615045545e-10
1.049270526e-09
1.101911425e-09
6.39208808e-10
7.039093956e-10
7.996044425e-10
9.222592478e-10
1.065134102e-09
1.217587087e-09
1.364380698e-09
1.485748067e-09
1.558518628e-09
9.255210343e-10
1.015353103e-09
1.148054553e-09
1.317898728e-09
1.515465708e-09
1.726022712e-09
1.928577677e-09
2.095952346e-09
2.196287966e-09
1.332906401e-09
1.457188938e-09
1.640583902e-09
1.875019982e-09
2.147393458e-09
2.437377671e-09
2.716130376e-09
2.946367808e-09
3.084373975e-09
1.90991479e-09
2.081304715e-09
2.333976149e-09
2.656622029e-09
3.031090502e-09
3.429423326e-09
3.812090122e-09
4.128052684e-09
4.317440609e-09
2.723668514e-09
2.959325946e-09
3.306460055e-09
3.749314055e-09
4.262836636e-09
4.808679944e-09
5.332788284e-09
5.765434602e-09
6.024776665e-09
3.86667752e-09
4.189827875e-09
4.665502412e-09
5.271844197e-09
5.974394773e-09
6.720689703e-09
7.436967692e-09
8.028150448e-09
8.382561433e-09
5.466054048e-09
5.908077996e-09
6.558323169e-09
7.386593135e-09
8.345631398e-09
9.363828445e-09
1.034073458e-08
1.114693906e-08
1.163032269e-08
7.695929484e-09
8.299153054e-09
9.186036944e-09
1.031501266e-08
1.162144816e-08
1.300781501e-08
1.433757738e-08
1.543490496e-08
1.60929482e-08
1.079412362e-08
1.161553342e-08
1.282260061e-08
1.43582856e-08
1.613441198e-08
1.801842228e-08
1.982506767e-08
2.131585956e-08
2.22100118e-08
1.50844269e-08
1.620060148e-08
1.784009e-08
1.992485178e-08
2.233486743e-08
2.489031968e-08
2.734031151e-08
2.936192169e-08
3.057466324e-08
2.100623642e-08
2.251986653e-08
2.474224678e-08
2.75668899e-08
3.08307912e-08
3.429048465e-08
3.760675715e-08
4.034312033e-08
4.198490635e-08
2.915373976e-08
3.120220701e-08
3.420872738e-08
3.80283637e-08
4.244019708e-08
4.711519979e-08
5.159557139e-08
5.529237076e-08
5.751073025e-08
4.032735657e-08
4.309395094e-08
4.715303401e-08
5.230781032e-08
5.825949236e-08
6.456426625e-08
7.060542926e-08
7.558984036e-08
7.858121034e-08
5.560070108e-08
5.932917394e-08
6.479767388e-08
7.17396213e-08
7.975176211e-08
8.823663836e-08
9.636513086e-08
1.030712823e-07
1.070962515e-07
7.640686296e-08
8.142012059e-08
8.877060379e-08
9.809805326e-08
1.088594101e-07
1.202520933e-07
1.311638189e-07
1.401652301e-07
1.45567934e-07
1.046482301e-07
1.11372048e-07
1.212273575e-07
1.337284718e-07
1.481457555e-07
1.634036057e-07
1.780135054e-07
1.900637681e-07
1.972961544e-07
1.42834262e-07
1.518269078e-07
1.650032661e-07
1.817102015e-07
2.009698762e-07
2.213445858e-07
2.408478947e-07
2.569306821e-07
2.66582288e-07
1.942513898e-07
2.062399398e-07
2.237996716e-07
2.460546259e-07
2.716979949e-07
2.988138532e-07
3.247598978e-07
3.461490101e-07
3.58982594e-07
2.631683713e-07
2.790922501e-07
3.02406807e-07
3.319406704e-07
3.659528709e-07
4.018990324e-07
4.362778416e-07
4.646073226e-07
4.816002726e-07
3.550787549e-07
3.761405885e-07
4.069638948e-07
4.459873382e-07
4.90899879e-07
5.383361594e-07
5.836772573e-07
6.210210523e-07
6.434124297e-07
4.769794736e-07
5.047026868e-07
5.452539085e-07
5.965596995e-07
6.555650291e-07
7.178394247e-07
7.773210697e-07
8.262810274e-07
8.556233162e-07
6.376810176e-07
6.739729466e-07
7.27026845e-07
7.941009132e-07
8.711759844e-07
9.524508811e-07
1.030017056e-06
1.093816233e-06
1.132029715e-06
8.481408024e-07
8.953593485e-07
9.643411426e-07
1.051478641e-06
1.151513649e-06
1.256896399e-06
1.357375943e-06
1.439952525e-06
1.489379649e-06
1.121807776e-06
1.182828846e-06
1.271910136e-06
1.384332367e-06
1.5132585e-06
1.648928227e-06
1.778148832e-06
1.884244931e-06
1.94770118e-06
1.474965412e-06
1.553248814e-06
1.667439734e-06
1.811403369e-06
1.976309416e-06
2.149630792e-06
2.314519382e-06
2.449757763e-06
2.530574952e-06
1.927057656e-06
2.026704339e-06
2.171932339e-06
2.354821411e-06
2.564049732e-06
2.783663789e-06
2.992323933e-06
3.163265195e-06
3.265322819e-06
2.500967017e-06
2.62676273e-06
2.809931157e-06
3.040322836e-06
3.303534407e-06
3.579415952e-06
3.841172815e-06
4.055345581e-06
4.183085953e-06
3.223220183e-06
3.380660253e-06
3.609679155e-06
3.89737411e-06
4.225572637e-06
4.569044413e-06
4.894448509e-06
5.160345922e-06
5.318769306e-06
4.124095358e-06
4.319385523e-06
4.603167624e-06
4.959176706e-06
5.364683141e-06
5.788378476e-06
6.189161126e-06
6.516198376e-06
6.710835217e-06
5.237607338e-06
5.477636479e-06
5.826052695e-06
6.262533567e-06
6.758904612e-06
7.276672793e-06
7.765648689e-06
8.164078404e-06
8.400937019e-06
6.601350836e-06
6.893632851e-06
7.31742382e-06
7.847563832e-06
8.449451179e-06
9.076203133e-06
9.667118551e-06
1.014790345e-05
1.043339305e-05
8.256189345e-06
8.608773233e-06
9.119415967e-06
9.757260909e-06
1.048021168e-05
1.123170737e-05
1.193903618e-05
1.25136812e-05
1.28545118e-05
1.024578547e-05
1.06671348e-05
1.127666657e-05
1.203689856e-05
1.289710145e-05
1.378968448e-05
1.46283777e-05
1.530872677e-05
1.571178912e-05
1.261597862e-05
1.311482368e-05
1.383562826e-05
1.47332997e-05
1.574728521e-05
1.679757386e-05
1.778277198e-05
1.858077706e-05
1.905300731e-05
1.541402611e-05
1.599919415e-05
1.684375836e-05
1.789399212e-05
1.907829876e-05
2.030284605e-05
2.144956601e-05
2.237703811e-05
2.292527282e-05
1.868773354e-05
1.9367964e-05
2.034861478e-05
2.156628335e-05
2.293710413e-05
2.435204174e-05
2.567485233e-05
2.674320568e-05
2.737403378e-05
2.248450821e-05
2.326826126e-05
2.439689487e-05
2.579629284e-05
2.736911797e-05
2.898980001e-05
3.050250041e-05
3.172250111e-05
3.244211932e-05
2.685037512e-05
2.774564205e-05
2.903345779e-05
3.062798249e-05
3.24172544e-05
3.425791701e-05
3.597323269e-05
3.735476302e-05
3.816884114e-05
3.182899789e-05
3.28431221e-05
3.430037239e-05
3.610222682e-05
3.812102262e-05
4.01944742e-05
4.212378311e-05
4.367563142e-05
4.458919299e-05
3.746074662e-05
3.860026269e-05
4.023603032e-05
4.225596099e-05
4.451571556e-05
4.683307001e-05
4.898616992e-05
5.071585402e-05
5.173317686e-05
4.378185111e-05
4.505234871e-05
4.687435996e-05
4.912143967e-05
5.163171951e-05
5.420218213e-05
5.658710698e-05
5.85007369e-05
5.962527667e-05
5.082367232e-05
5.222968958e-05
5.424416962e-05
5.672563219e-05
5.949396723e-05
6.232467923e-05
6.494756934e-05
6.704975278e-05
6.828409124e-05
5.861211705e-05
6.015706619e-05
6.236864044e-05
6.50897714e-05
6.812154791e-05
7.121749231e-05
7.408252013e-05
7.637631134e-05
7.77221297e-05
6.716721172e-05
6.885333819e-05
7.126498062e-05
7.422906428e-05
7.752747909e-05
8.089144726e-05
8.400079741e-05
8.648768834e-05
8.794576469e-05
7.65028426e-05
7.833121667e-05
8.094424369e-05
8.415256458e-05
8.771863751e-05
9.135125268e-05
9.470515261e-05
9.738510296e-05
9.895533185e-05
8.662666061e-05
8.859719929e-05
9.141130562e-05
9.486319963e-05
9.869583874e-05
0.0001025956307
0.0001061924263
0.0001090639279
0.0001107453593
9.754014181e-05
9.965165747e-05
0.000102664989
0.0001063579378
0.0001104540501
0.0001146175736
0.0001184538428
0.0001215140125
0.0001233049072
0.0001092387882
0.0001114890597
0.0001146983171
0.0001186280783
0.0001229827177
0.000127404706
0.0001314754023
0.0001347200979
0.0001366179948
0.0001217124492
0.0001240983107
0.0001274988772
0.0001316596419
0.0001362661855
0.0001409397302
0.0001452383488
0.0001486623011
0.0001506640943
0.0001349457417
0.0001374631843
0.0001410492706
0.0001454338409
0.0001502841843
0.0001552009329
0.0001597196912
0.0001633166464
0.0001654186676
0.0001489185455
0.000151562827
0.0001553276264
0.0001599276038
0.0001650123683
0.0001701627317
0.0001748927571
0.0001786556243
0.0001808537283
0.0001636065492
0.0001663723078
0.0001703081572
0.0001751141364
0.0001804228792
0.0001857962408
0.00019072776
0.0001946487594
0.0001969384085
0.0001789818285
0.0001818631961
0.0001859617353
0.0001909634958
0.0001964849182
0.0002020698404
0.0002071923641
0.0002112631708
0.000213639518
0.0001950134324
0.0001980041458
0.0002022564724
0.0002074431641
0.0002131653115
0.0002189497326
0.0002242522325
0.0002284641137
0.0002309220813
0.0002116679653
0.0002147614703
0.0002191582867
0.0002245186048
0.0002304290546
0.0002364004744
0.0002418715476
0.0002462154906
0.0002487498431
0.0002289101469
0.0002320996961
0.0002366314449
0.0002421537918
0.000248239827
0.0002543854758
0.0002600134964
0.0002644803253
0.0002670857367
0.000246703342
0.0002499820831
0.0002546390708
0.0002603117019
0.0002665604674
0.0002728674597
0.0002786407142
0.0002832211947
0.0002858923084
0.0002650100499
0.0002683711047
0.0002731436111
0.0002789547656
0.0002853534067
0.0002918088761
0.0002977156832
0.0003024006153
0.0003051320964
0.0002837923494
0.0002872288829
0.0002921072573
0.0002980452707
0.0003045810539
0.0003111722704
0.000317201085
0.0003219813825
0.000324767964
0.0003030122958
0.0003065175754
0.0003114923183
0.0003175457197
0.0003242061354
0.0003309206053
0.0003370601061
0.0003419268645
0.0003447633859
0.0003226322684
0.0003261997134
0.0003312615454
0.0003374191384
0.0003441919864
0.0003510175352
0.0003572566982
0.0003622012508
0.00036508269
0.0003426152694
0.0003462384918
0.0003513784099
0.0003576293383
0.0003645027979
0.0003714276377
0.000377755795
0.0003827697586
0.000385691258
0.0003629251754
0.0003665980123
0.0003718073344
0.000378141135
0.0003851038197
0.0003921166024
0.0003985234891
0.0004035987993
0.0004065556865
0.000383526945
0.0003872434836
0.0003925138828
0.0003989205248
0.0004059615245
0.0004130513819
0.000419527171
0.0004246561094
0.0004276439122
0.0004043867845
0.0004081413801
0.0004134649097
0.0004199348241
0.0004270437352
0.0004342003076
0.000440735635
0.0004459108479
0.0004489253053
0.0004254722767
0.0004292595651
0.0004346286753
0.0004411527739
0.000448319719
0.0004555331742
0.0004621191548
0.0004673336658
0.0004703707351
0.0004467524752
0.0004505673801
0.0004559749277
0.0004625446141
0.0004697602532
0.0004770212966
0.0004836495328
0.0004888967488
0.0004919526093
0.0004681979699
0.0004720357057
0.0004774749578
0.0004840821314
0.0004913376655
0.0004986375425
0.0005053001265
0.0005105738393
0.000513644893
0.0004897809256
0.0004936369966
0.0004991016295
0.0005057386836
0.0005130258515
0.000520356345
0.0005270458551
0.0005323402387
0.0005354231087
0.0005114750989
0.0005153452961
0.0005208293896
0.0005274892042
0.0005348002753
0.0005421536968
0.0005488631899
0.0005541727942
0.0005572643213
0.0005332558362
0.0005371362306
0.0005426342598
0.000549310191
0.0005566379529
0.0005640071304
0.0005707301307
0.0005760498725
0.0005791471099
0.0005551000555
0.0005589869907
0.000564493814
0.0005711796804
0.0005785174234
0.0005858956862
0.000592626171
0.000597951323
0.0006010515301
0.0005769862159
0.0005808762984
0.0005863871448
0.0005930772108
0.0006004187105
0.000607799871
0.0006145322546
0.0006198584327
0.0006229590676
0.0005988942763
0.0006027843652
0.0006082948192
0.0006149837775
0.0006223232749
0.0006297016092
0.0006364307249
0.0006417538741
0.0006448525857
0.0006208056462
0.000624692842
0.000630198828
0.0006368817802
0.0006442139612
0.000651584188
0.0006583052693
0.0006636216491
0.0006667162685
0.0006427031306
0.0006465847636
0.0006520825289
0.0006587549661
0.0006660749393
0.0006734321986
0.0006801408599
0.0006854470288
0.0006885355604
0.0006645708697
0.0006684444879
0.0006739305869
0.0006805883689
0.0006878916443
0.0006952314753
0.0007019236917
0.0007072164916
0.0007102971044
0.0006863942767
0.0006902576338
0.00069572891
0.0007023682454
0.0007096507117
0.0007169690311
0.000723641119
0.00072891766
0.0007319886783
0.000708159976
0.0007120110193
0.0007174645889
0.0007240820141
0.0007313399166
0.0007386329959
0.0007452815929
0.0007505392373
0.000753599132
0.0007298557362
0.0007336925953
0.0007391258306
0.0007457181905
0.0007529481096
0.0007602125539
0.0007668345987
0.000772070946
0.0007751183255
0.0007514704062
0.000755291381
0.0007607018944
0.0007672663227
0.0007744651525
0.0007816978796
0.0007882905941
0.0007935034661
0.0007965370679
0.0007729938505
0.0007767974004
0.0007821830286
0.0007887169291
0.0007958818578
0.0008030800781
0.0008096409486
0.0008148283752
0.0008178470578
0.0007944168896
0.0007982016222
0.0008035604108
0.0008100614391
0.0008171899285
0.0008243511254
0.0008308778852
0.0008360380904
0.0008390408248
0.0008157312417
0.0008194959015
0.0008248260897
0.0008312921349
0.0008383819012
0.0008455038115
0.0008519944235
0.0008571258121
0.0008601116745
0.0008369294696
0.0008406729253
0.0008459729292
0.0008524020956
0.0008594510904
0.0008665316859
0.0008729843261
0.0008780854706
0.0008810536348
0.0008580049311
0.0008617261592
0.000866994555
0.0008733851438
0.000880391535
0.0008874290047
0.000893842046
0.0008989116742
0.0009018614042
0.0008789517177
0.0008826497909
0.0008878852994
0.0008942357916
0.0009011979459
0.0009081906786
0.0009145626759
0.0009195996592
0.0009225303026
0.0008997645706
0.0009034386685
0.000908640144
0.0009149491867
0.0009218656546
0.0009288122239
0.0009351418998
0.000940145242
0.0009430562237
0.0009204388199
0.0009240882295
0.0009292546596
0.0009355210585
0.0009423905627
0.0009492897133
0.0009555759459
0.0009605447736
0.00096343559
0.0009409703403
0.0009445944424
0.0009497249582
0.0009559476708
0.0009627690945
0.0009696197312
0.0009758615434
0.0009807950968
0.0009836653102
0.000961355535
0.0009649538024
0.0009700476527
0.0009762257784
0.0009829981562
0.0009897993327
0.0009959958812
0.001000893505
0.001003742739
0.0009815912873
0.0009851632711
0.0009902198271
0.0009963525905
0.001003075096
0.001009826004
0.00101597657
0.001020837707
0.001023665641
0.001001674922
0.00100522024
0.001010238964
0.001016325725
0.001022997667
0.001029697627
0.001035801606
0.00104062579
0.001043432154
0.001021604175
0.001025122512
0.001030102964
0.001036143189
0.001042763995
0.001049412448
0.001055469343
0.001060256187
0.001063040761
0.001041377164
0.001044868263
0.001049810085
0.001055803346
0.001062372554
0.001068969048
0.001074978457
0.001079727653
0.00108249026
0.001060992352
0.001064456011
0.001069358924
0.00107530489
0.001081822135
0.001088366314
0.001094327926
0.001099039234
0.001101779738
0.001080448524
0.001083884589
0.001088748378
0.001094646795
0.001101111811
0.001107603415
0.001113516999
0.001118190242
0.001120908543
0.001099744756
0.001103153119
0.001107977634
0.001113828329
0.001120240927
0.001126679774
0.001132545174
0.001137180236
0.001139876267
0.001118880392
0.001122260983
0.001127046134
0.001132849002
0.001139209068
0.001145595052
0.001151412179
0.001156008993
0.001158682719
0.001137855015
0.001141207803
0.001145953548
0.001151708545
0.001158016035
0.00116434912
0.001170117946
0.001174676495
0.001177327908
0.001156668432
0.001159993418
0.00116469976
0.001170406895
0.001176661832
0.001182942043
0.001188662596
0.001193182908
0.001195812025
0.001175320649
0.001178617864
0.001183284852
0.00118894419
0.001195146646
0.001201374063
0.001207046424
0.001211528564
0.001214135425
0.001193811856
0.001197081359
0.001201709079
0.001207320729
0.00121347083
0.001219645584
0.001225269875
0.001229713946
0.001232298612
0.001212142408
0.001215384281
0.001219972853
0.001225536967
0.001231634883
0.00123775715
0.001243333538
0.001247739674
0.001250302226
0.001230312808
0.001233527156
0.001238076732
0.001243593498
0.001249639441
0.001255709439
0.001261238126
0.00126560649
0.001268147023
0.001248323695
0.001251510642
0.001256021401
0.001261491041
0.00126748526
0.001273503243
0.001278984463
0.001283315245
0.00128583387
0.001266175826
0.001269335516
0.001273807663
0.001279230428
0.001285173204
0.001291139457
0.001296573475
0.001300866885
0.001303363728
0.001283870068
0.001287002658
0.001291436419
0.001296812588
0.001302704229
0.001308619067
0.001314006172
0.001318262443
0.00132073764
0.001301407379
0.001304513042
0.001308908663
0.001314238536
0.001320079377
0.001325943138
0.001331283643
0.001335503024
0.00133795672
0.001318788801
0.001321867721
0.001326225463
0.001331509362
0.001337299759
0.001343112802
0.001348407038
0.001352589791
0.001355022142
0.001336015446
0.001339067817
0.001343387956
0.001348626218
0.001354366543
0.001360129247
0.001365377559
0.001369523961
0.001371935128
0.001353088484
0.001356114507
0.001360397331
0.001365590307
0.001371280947
0.001376993702
0.001382196449
0.001386306785
0.001388696934
0.001370009129
0.001373009013
0.001377254818
0.001382402868
0.001388044221
0.001393707427
0.001398864975
0.001402939536
0.001405308839
0.001386778633
0.001389752589
0.001393961676
0.001399065167
0.001404657636
0.001410271699
0.00141538442
0.0014194235
0.001421772127
0.001403398262
0.001406346505
0.001410519178
0.001415578477
0.001421122467
0.001426687794
0.001431756058
0.001435759951
0.001438088074
0.001419869291
0.001422792033
0.001426928593
0.001431944068
0.001437439979
0.001442956972
0.001447981144
0.001451950139
0.001454257925
0.001436192977
0.001439090429
0.001443191171
0.001448163178
0.001453611401
0.00145908045
0.001464060885
0.001467995258
0.00147028287
0.001452370545
0.001455242907
0.001459308116
0.001464236998
0.001469637906
0.001475059382
0.001479996413
0.001483896428
0.001486164016
0.001468403159
0.001471250621
0.001475280563
0.001480166639
0.001485520578
0.001490894822
0.001495788756
0.001499654651
0.001501902352
0.001484291891
0.001487114625
0.001491109541
0.001495953099
0.001501260375
0.001506587688
0.001511438791
0.001515270771
0.001517498701
0.001500037686
0.001502835841
0.001506795935
0.001511597217
0.001516858087
0.001522138714
0.001526947199
0.001530745423
0.001532953673
0.001515641316
0.001518415007
0.001522340439
0.001527099626
0.001532314276
0.00153754839
0.0015423144
0.00154607897
0.001548267593
0.001531103322
0.001533852624
0.001537743491
0.00154246069
0.001547629215
0.001552816893
0.001557540477
0.00156127142
0.001563440424
0.00154642395
0.001549148882
0.001553005201
0.001557680417
0.0015628028
0.001567943998
0.001572625094
0.00157632234
0.001578471674
0.001561603068
0.001564303581
0.00156812527
0.001572758379
0.00157783446
0.001582928982
0.00158756738
0.001591230739
0.001593360281
0.001576640071
0.00157931603
0.001583102882
0.001587693607
0.001592723044
0.001597770505
0.001602365813
0.001605994947
0.001608104486
0.001591533772
0.001594184937
0.001597936592
0.001602484462
0.00160746669
0.001612466471
0.001617018077
0.001620612463
0.001622701677
0.00160628227
0.001608908271
0.001612624179
0.001617128487
0.001622062671
0.001627013871
0.001631520896
0.001635079795
0.001637148231
0.001620882805
0.001623483115
0.001627162501
0.001631622255
0.001636507238
0.001641408619
0.001645869861
0.001649392272
0.001651439319
0.0016353316
0.001637905507
0.001641547324
0.001645961197
0.001650795437
0.001655645358
0.001660059242
0.001663543854
0.001665568721
0.00164962369
0.001652170261
0.001655773149
0.001660139412
0.001664920916
0.001669717274
0.001674081784
0.001677526932
0.001679528614
0.001663752741
0.001666270789
0.001669833016
0.001674149479
0.001678875736
0.001683615888
0.001687928508
0.001691332123
0.001693309374
0.001677710869
0.001680198915
0.001683718328
0.001687982268
0.001692650174
0.001697330872
0.001701588521
0.001704948077
0.001706899385
0.001691488465
0.0016939447
0.001697418653
0.001701626752
0.001706232542
0.001710849867
0.001715048841
0.001718361312
0.00172028487
0.001705074021
0.001707496247
0.001710921548
0.001715069839
0.001719609032
0.001724158331
0.001728294253
0.001731556079
0.001733449767
0.001718453915
0.001720839517
0.001724212412
0.001728296238
0.00173276359
0.001737239441
0.001741307227
0.001744514282
0.001746375652
0.001731612288
0.001733958246
0.001737274395
0.001741288387
0.001745677867
0.001750074054
0.001754067893
0.001757215481
0.001759041753
0.001744531028
0.00174683391
0.001750088384
0.00175402645
0.001758331233
0.001762640746
0.001766554111
0.001769636975
0.001771425046
0.001757189799
0.001759445761
0.001762633053
0.001766488401
0.001770700901
0.001774915969
0.001778741649
0.001781754002
0.00178350047
0.001769566158
0.001771770969
0.001774885023
0.001778650207
0.001782762135
0.001786874302
0.001790604478
0.001793540067
0.001795241268
0.001781635769
0.001783784852
0.001786819132
0.00179048614
0.001794488605
0.001798488837
0.001802115194
0.001804967395
0.001806619463
0.001793372739
0.001795461234
0.001798408821
0.001801969195
0.001805852855
0.001809731698
0.001813245575
0.001816007522
0.001817606462
0.001804750065
0.001806772922
0.001809626642
0.001813071652
0.0018168269
0.001820574689
0.001823967272
0.001826632014
0.001828173804
0.001815740211
0.001817692303
0.001820444897
0.001823765742
0.001827382951
0.001830990049
0.001834252611
0.001836813303
0.001838293999
0.001826315799
0.001828192057
0.001830836376
0.001834024435
0.001837494229
0.001840951318
0.001844075476
0.001846525593
0.001847941461
0.001836450393
0.001838245962
0.001840775189
0.001843822292
0.001847135854
0.001850434245