/*--------------------------------*- C++ -*----------------------------------*\
| =========                 |                                                 |
| \\      /  F ield         | OpenFOAM: The Open Source CFD Toolbox           |
|  \\    /   O peration     | Version:  2212                                  |
|   \\  /    A nd           | Website:  www.openfoam.com                      |
|    \\/     M anipulation  |                                                 |
\*---------------------------------------------------------------------------*/
FoamFile
{
    version     2.0;
    format      ascii;
    arch        "LSB;label=32;scalar=64";
    class       volScalarField;
    location    "19.75000000";
    object      A2CH3-2;
}
// * * * * * * * * * * * * * * * * * * * * * * * * * * * * * * * * * * * * * //

dimensions      [0 0 0 0 0 0 0];

internalField   nonuniform List<scalar> 
3000
(
3.334101755e-23
3.745434291e-23
4.366131547e-23
5.193264847e-23
6.218427123e-23
7.413780412e-23
8.707310955e-23
9.941588116e-23
1.081438064e-22
1.251766473e-22
1.411868768e-22
1.653357994e-22
1.975878106e-22
2.379109217e-22
2.860815935e-22
3.412636539e-22
4.006713865e-22
4.53296921e-22
2.803873585e-22
3.187314607e-22
3.77119532e-22
4.563970564e-22
5.579896368e-22
6.833709435e-22
8.320474634e-22
9.956718781e-22
1.135515519e-21
5.340601026e-22
6.134532989e-22
7.361206088e-22
9.062120969e-22
1.129753129e-21
1.412423233e-21
1.752679453e-21
2.123282327e-21
2.422411193e-21
9.483381826e-22
1.102683426e-21
1.344909726e-21
1.687319492e-21
2.14601555e-21
2.733851633e-21
3.441005743e-21
4.191969665e-21
4.768433009e-21
1.630702106e-21
1.920375996e-21
2.381501386e-21
3.043501672e-21
3.941683959e-21
5.098641418e-21
6.47981326e-21
7.911019182e-21
8.969855821e-21
2.768265348e-21
3.300342787e-21
4.157216593e-21
5.401252311e-21
7.101712207e-21
9.292387651e-21
1.18826595e-20
1.451439286e-20
1.641332896e-20
4.684662008e-21
5.647547067e-21
7.212008475e-21
9.500935708e-21
1.264197568e-20
1.66803346e-20
2.141339117e-20
2.615221539e-20
2.951450882e-20
7.940642353e-21
9.664748858e-21
1.248415634e-20
1.663009994e-20
2.232964584e-20
2.963756512e-20
3.814101407e-20
4.656630285e-20
5.247827321e-20
1.3507204e-20
1.657008604e-20
2.160176224e-20
2.90248747e-20
3.923604762e-20
5.229458953e-20
6.740542228e-20
8.226773977e-20
9.261914507e-20
2.306696718e-20
2.847636373e-20
3.73912633e-20
5.057009561e-20
6.869978775e-20
9.183346749e-20
1.184929713e-19
1.445800601e-19
1.626585237e-19
3.953652945e-20
4.904833239e-20
6.475886819e-20
8.80136158e-20
1.199987198e-19
1.607402157e-19
2.075507278e-19
2.531922431e-19
2.847131977e-19
6.797350964e-20
8.464456695e-20
1.122222737e-19
1.530764386e-19
2.09254432e-19
2.807157026e-19
3.6264465e-19
4.423264198e-19
4.97224532e-19
1.17150481e-19
1.462989385e-19
1.945689122e-19
2.661153643e-19
3.644746158e-19
4.894663789e-19
6.325428738e-19
7.714451527e-19
8.669810619e-19
2.022864047e-19
2.531597423e-19
3.374699722e-19
4.624801389e-19
6.343038675e-19
8.524873198e-19
1.101954264e-18
1.343828472e-18
1.509981602e-18
3.497863391e-19
4.384575711e-19
5.85487393e-19
8.035459218e-19
1.103210909e-18
1.483512729e-18
1.917976334e-18
2.338814102e-18
2.627635704e-18
6.054671068e-19
7.598632417e-19
1.015971806e-18
1.395863332e-18
1.917850628e-18
2.580013522e-18
3.336002572e-18
4.067753575e-18
4.569603682e-18
1.048836312e-18
1.31746969e-18
1.763192326e-18
2.424409794e-18
3.332840813e-18
4.484838734e-18
5.799434476e-18
7.071178527e-18
7.942914718e-18
1.817884871e-18
2.2850166e-18
3.060239925e-18
4.210335813e-18
5.79026126e-18
7.79326476e-18
1.007811469e-17
1.228754169e-17
1.380140577e-17
3.152137761e-18
3.964112326e-18
5.311793545e-18
7.311237226e-18
1.005768249e-17
1.353882815e-17
1.750860428e-17
2.134601131e-17
2.397446012e-17
5.467407577e-18
6.878386329e-18
9.220466853e-18
1.269523848e-17
1.746774538e-17
2.351578543e-17
3.041096742e-17
3.707431653e-17
4.163741298e-17
9.485581407e-18
1.193695527e-17
1.600615209e-17
2.204315363e-17
3.033388058e-17
4.083841967e-17
5.281135595e-17
6.437869674e-17
7.229838675e-17
1.645991383e-17
2.071817655e-17
2.77867295e-17
3.827281752e-17
5.267143076e-17
7.091076029e-17
9.169406436e-17
1.117675652e-16
1.255075181e-16
2.856592506e-17
3.596193117e-17
4.823841406e-17
6.644824243e-17
9.14475204e-17
1.231065448e-16
1.591695253e-16
1.939889276e-16
2.178147577e-16
4.95794258e-17
6.24234777e-17
8.374088756e-17
1.153555147e-16
1.587458945e-16
2.136760702e-16
2.762214439e-16
3.365837333e-16
3.778712779e-16
8.605156513e-17
1.083530375e-16
1.453609237e-16
2.002308604e-16
2.755110474e-16
3.707678605e-16
4.791718429e-16
5.837324822e-16
6.55213586e-16
1.493427395e-16
1.880561878e-16
2.522832046e-16
3.474751249e-16
4.78011477e-16
6.430851664e-16
8.308074967e-16
1.011737154e-15
1.135338242e-15
2.591381069e-16
3.263179444e-16
4.377343946e-16
6.027853463e-16
8.289700534e-16
1.114764659e-15
1.439463657e-15
1.752098572e-15
1.965468462e-15
4.495118811e-16
5.660304262e-16
7.591872494e-16
1.045140959e-15
1.436670947e-15
1.930857034e-15
2.491619954e-15
3.030833818e-15
3.39837327e-15
7.793627878e-16
9.813087889e-16
1.315884192e-15
1.810777037e-15
2.487628915e-15
3.340764725e-15
4.30728755e-15
5.235077793e-15
5.866431478e-15
1.35031757e-15
1.699969697e-15
2.278818135e-15
3.134100623e-15
4.30217512e-15
5.771879891e-15
7.433534855e-15
9.02512813e-15
1.010590506e-14
2.337337547e-15
2.941902922e-15
3.94179545e-15
5.417165662e-15
7.428479886e-15
9.953591042e-15
1.280124584e-14
1.552142409e-14
1.736369605e-14
4.040823761e-15
5.084267793e-15
6.807943642e-15
9.346923521e-15
1.280049414e-14
1.712449294e-14
2.198561628e-14
2.66137007e-14
2.973802744e-14
6.974899258e-15
8.771672026e-15
1.173536587e-14
1.609171282e-14
2.200115477e-14
2.937555987e-14
3.763485141e-14
4.546688115e-14
5.073380896e-14
1.201618367e-14
1.510123425e-14
2.01806675e-14
2.762791399e-14
3.769707556e-14
5.021286686e-14
6.416812469e-14
7.733958074e-14
8.615751473e-14
2.065301349e-14
2.593131146e-14
3.46029383e-14
4.727817227e-14
6.434932876e-14
8.547031163e-14
1.088987799e-13
1.308924817e-13
1.455415219e-13
3.540018337e-14
4.439267154e-14
5.91281554e-14
8.058960267e-14
1.093631765e-13
1.447728493e-13
1.838198142e-13
2.202536107e-13
2.443826502e-13
6.048420126e-14
7.572797024e-14
1.006317238e-13
1.367517862e-13
1.849266049e-13
2.438538078e-13
3.084065097e-13
3.682370451e-13
4.076158752e-13
1.029667327e-13
1.286583194e-13
1.704848265e-13
2.308611702e-13
3.109154675e-13
4.081793019e-13
5.139602113e-13
6.112963253e-13
6.749380557e-13
1.745710941e-13
2.175871806e-13
2.873423171e-13
3.874959819e-13
5.194287207e-13
6.785469442e-13
8.502576705e-13
1.007055329e-12
1.108870435e-12
2.946252915e-13
3.661197856e-13
4.815454557e-13
6.462950174e-13
8.617836376e-13
1.119630227e-12
1.395609749e-12
1.645627404e-12
1.806833821e-12
4.94759175e-13
6.126259154e-13
8.019986541e-13
1.070563625e-12
1.419179731e-12
1.832869147e-12
2.27191012e-12
2.666449619e-12
2.919049979e-12
8.263260681e-13
1.018939806e-12
1.326792322e-12
1.760400665e-12
2.318775247e-12
2.975710473e-12
3.66692237e-12
4.283080613e-12
4.674836752e-12
1.372006109e-12
1.68382038e-12
2.179434129e-12
2.872505967e-12
3.757672204e-12
4.790045008e-12
5.866986509e-12
6.819416696e-12
7.42091487e-12
2.263750675e-12
2.763551848e-12
3.553387137e-12
4.649764224e-12
6.038358924e-12
7.643867029e-12
9.304624677e-12
1.076217996e-11
1.167680365e-11
3.710226713e-12
4.503135526e-12
5.748789066e-12
7.465011915e-12
9.620627857e-12
1.209181998e-11
1.462732899e-11
1.683647115e-11
1.821440346e-11
6.038327216e-12
7.283026119e-12
9.226870845e-12
1.188522092e-11
1.519702877e-11
1.896256552e-11
2.279630976e-11
2.611385913e-11
2.81716523e-11
9.755280288e-12
1.168846109e-11
1.468988086e-11
1.876487022e-11
2.380174736e-11
2.948405469e-11
3.522742371e-11
4.016616722e-11
4.321398292e-11
1.564062303e-11
1.861134327e-11
2.319749719e-11
2.93807925e-11
3.696670905e-11
4.546211023e-11
5.399123701e-11
6.128318716e-11
6.576257239e-11
2.488110151e-11
2.939867893e-11
3.633511434e-11
4.562564522e-11
5.694409823e-11
6.95336791e-11
8.209566908e-11
9.27795133e-11
9.931558946e-11
3.926682813e-11
4.60671881e-11
5.645549928e-11
7.028387655e-11
8.702188814e-11
1.055242451e-10
1.238835122e-10
1.39425096e-10
1.488985709e-10
6.147435913e-11
7.161153845e-11
8.702383615e-11
1.074234219e-10
1.319691879e-10
1.589499906e-10
1.855892323e-10
2.08047145e-10
2.216934976e-10
9.547255192e-11
1.104446264e-10
1.331072988e-10
1.629472339e-10
1.986605579e-10
2.377202079e-10
2.76116435e-10
3.083696196e-10
3.279150254e-10
1.470909548e-10
1.690108883e-10
2.020574651e-10
2.453660614e-10
2.96951768e-10
3.531204617e-10
4.081224916e-10
4.541806693e-10
4.820274092e-10
2.248318887e-10
2.566629342e-10
3.044795993e-10
3.668831012e-10
4.408983771e-10
5.211738304e-10
5.995174359e-10
6.649453533e-10
7.044258371e-10
3.410099667e-10
3.868861024e-10
4.555822802e-10
5.449032097e-10
6.504490549e-10
7.645292677e-10
8.755390173e-10
9.680347015e-10
1.023757682e-09
5.13346257e-10
5.790083731e-10
6.770572227e-10
8.041285245e-10
9.537904284e-10
1.115070429e-09
1.271614367e-09
1.401795913e-09
1.480117704e-09
7.671904951e-10
8.60579289e-10
9.996881237e-10
1.179459277e-09
1.390584954e-09
1.617510507e-09
1.837296745e-09
2.019771019e-09
2.129435817e-09
1.138607716e-09
1.270668483e-09
1.466959983e-09
1.719997641e-09
2.016430091e-09
2.334333525e-09
2.641668628e-09
2.896480954e-09
3.049489693e-09
1.678651517e-09
1.864425079e-09
2.140038064e-09
2.494559109e-09
2.908983936e-09
3.352570329e-09
3.78074082e-09
4.135339074e-09
4.348127547e-09
2.459261931e-09
2.71936142e-09
3.104617204e-09
3.599239313e-09
4.176359792e-09
4.793069731e-09
5.3875639e-09
5.879456584e-09
6.174490548e-09
3.581381294e-09
3.943988434e-09
4.48031858e-09
5.167776688e-09
5.968603341e-09
6.823156363e-09
7.646017976e-09
8.326366874e-09
8.73429855e-09
5.1860893e-09
5.689649338e-09
6.43354743e-09
7.38570952e-09
8.493349187e-09
9.67387543e-09
1.080957936e-08
1.174804865e-08
1.231062828e-08
7.469836531e-09
8.166692012e-09
9.195041625e-09
1.050967052e-08
1.203712952e-08
1.366343346e-08
1.522680407e-08
1.651809606e-08
1.729209725e-08
1.070522689e-08
1.16665113e-08
1.30837601e-08
1.489361613e-08
1.699430233e-08
1.922898304e-08
2.137584947e-08
2.314850039e-08
2.421100402e-08
1.526928646e-08
1.65915037e-08
1.853930673e-08
2.102438034e-08
2.390621349e-08
2.696960389e-08
2.991111441e-08
3.233931137e-08
3.37948054e-08
2.168178463e-08
2.349563669e-08
2.616579251e-08
2.956971052e-08
3.351404373e-08
3.770424136e-08
4.172605518e-08
4.504547952e-08
4.703537829e-08
3.065697885e-08
3.313918188e-08
3.679094468e-08
4.144292239e-08
4.682985545e-08
5.254951578e-08
5.803747103e-08
6.256648608e-08
6.528186002e-08
4.317317328e-08
4.656222722e-08
5.15454079e-08
5.788953567e-08
6.523167824e-08
7.302374438e-08
8.049808064e-08
8.666597574e-08
9.036451707e-08
6.056573741e-08
6.518289548e-08
7.196857302e-08
8.060274026e-08
9.059007275e-08
1.011852355e-07
1.113460385e-07
1.197305228e-07
1.247590594e-07
8.465073622e-08
9.09277576e-08
1.001489138e-07
1.11876292e-07
1.254354777e-07
1.398148978e-07
1.536021315e-07
1.649788393e-07
1.718030446e-07
1.178880583e-07
1.264037208e-07
1.389086811e-07
1.548053987e-07
1.731777066e-07
1.926553676e-07
2.113276436e-07
2.267350454e-07
2.359783635e-07
1.63594838e-07
1.751226187e-07
1.920448026e-07
2.135482138e-07
2.383910731e-07
2.647210161e-07
2.899580673e-07
3.107818307e-07
3.232760127e-07
2.262219241e-07
2.417916936e-07
2.646398002e-07
2.936625068e-07
3.271805453e-07
3.626950671e-07
3.967296389e-07
4.248110654e-07
4.41661041e-07
3.117079462e-07
3.326849071e-07
3.634581961e-07
4.0253361e-07
4.476456872e-07
4.95431209e-07
5.412166139e-07
5.789901608e-07
6.016561746e-07
4.279268714e-07
4.561112187e-07
4.974448681e-07
5.499104395e-07
6.104594839e-07
6.745770114e-07
7.35996706e-07
7.866616352e-07
8.170615786e-07
5.852454286e-07
6.229962127e-07
6.783416788e-07
7.485657549e-07
8.295779099e-07
9.153345598e-07
9.974595632e-07
1.065190234e-06
1.105824674e-06
7.972059536e-07
8.47592252e-07
9.214369422e-07
1.015094329e-06
1.123092755e-06
1.237369475e-06
1.346768088e-06
1.43696622e-06
1.491068173e-06
1.081347581e-06
1.148329205e-06
1.24645841e-06
1.370857871e-06
1.514234297e-06
1.665872421e-06
1.810974227e-06
1.930564935e-06
2.002275928e-06
1.460173862e-06
1.548812337e-06
1.678614115e-06
1.843078077e-06
2.032521582e-06
2.232766789e-06
2.424279363e-06
2.582049888e-06
2.67662202e-06
1.962267526e-06
2.07896596e-06
2.24977644e-06
2.466068887e-06
2.715046475e-06
2.978043679e-06
3.229414621e-06
3.436384732e-06
3.560385733e-06
2.623543226e-06
2.77631076e-06
2.999793239e-06
3.28258693e-06
3.607865342e-06
3.951192381e-06
4.279099001e-06
4.548893976e-06
4.710437494e-06
3.488616652e-06
3.687350145e-06
3.977897452e-06
4.345266775e-06
4.767457302e-06
5.212667337e-06
5.637492398e-06
5.986741148e-06
6.195713726e-06
4.612255352e-06
4.869028698e-06
5.24417137e-06
5.718088134e-06
6.262169033e-06
6.835298242e-06
7.381617264e-06
7.830325652e-06
8.098601394e-06
6.060862143e-06
6.390207699e-06
6.87100147e-06
7.477764531e-06
8.173557795e-06
8.905621089e-06
9.60263108e-06
1.017451125e-05
1.051613881e-05
7.913889985e-06
8.333017873e-06
8.944352709e-06
9.714998885e-06
1.059760459e-05
1.15249967e-05
1.240686057e-05
1.312958805e-05
1.35609334e-05
1.026504005e-05
1.079405161e-05
1.156494251e-05
1.25355548e-05
1.364565736e-05
1.481042977e-05
1.591650007e-05
1.682187018e-05
1.736169897e-05
1.322333881e-05
1.388535698e-05
1.484911007e-05
1.606099283e-05
1.744501613e-05
1.889499324e-05
2.026988205e-05
2.139384032e-05
2.206332511e-05
1.691384228e-05
1.773505284e-05
1.892930282e-05
2.042899419e-05
2.213907201e-05
2.392777492e-05
2.562124318e-05
2.700376962e-05
2.782641125e-05
2.147790897e-05
2.248749691e-05
2.395409364e-05
2.579319079e-05
2.788692781e-05
3.007328382e-05
3.213993241e-05
3.382476782e-05
3.482622455e-05
2.70729599e-05
2.830292981e-05
3.008765972e-05
3.232244238e-05
3.486245266e-05
3.751028081e-05
4.000903789e-05
4.204324967e-05
4.325107365e-05
3.387166636e-05
3.535654266e-05
3.750868065e-05
4.01995302e-05
4.325275402e-05
4.643003106e-05
4.942344274e-05
5.185683829e-05
5.330012482e-05
4.206053711e-05
4.383694744e-05
4.640864559e-05
4.961927047e-05
5.325608447e-05
5.703401005e-05
6.058735464e-05
6.34717601e-05
6.518072079e-05
5.183791179e-05
5.394406458e-05
5.698959509e-05
6.07860858e-05
6.507923511e-05
6.953112791e-05
7.371138515e-05
7.709981596e-05
7.910529174e-05
6.341140417e-05
6.588647845e-05
6.946135755e-05
7.391110585e-05
7.893449826e-05
8.413456548e-05
8.900928111e-05
9.295503717e-05
9.52879705e-05
7.69948731e-05
7.987834438e-05
8.403837168e-05
8.920889679e-05
9.503630728e-05
0.0001010583372
0.0001066944287
0.0001112501507
0.0001139410384
9.280502818e-05
9.613595787e-05
0.0001009362104
0.0001068939401
0.0001135976785
0.0001205137089
0.0001269762605
0.0001321929855
0.0001352713334
0.0001110577978
0.0001148741152
0.0001203679372
0.0001271769935
0.0001348265887
0.0001427056039
0.0001500566982
0.0001559829496
0.0001594767511
0.0001319645988
0.0001363024049
0.0001425404332
0.0001502614697
0.0001589224208
0.0001678291266
0.0001761267546
0.0001828077013
0.0001867429558
0.0001557286496
0.0001606215684
0.0001676508305
0.0001763399638
0.0001860726029
0.0001960663211
0.0002053634089
0.0002128401182
0.0002172404075
0.0001825414607
0.0001880200607
0.0001958831755
0.0002055910469
0.0002164495498
0.0002275832671
0.0002379268462
0.0002462356541
0.000251121786
0.000212579622
0.0002186709271
0.0002274054323
0.0002381764261
0.0002502079978
0.0002625275926
0.0002739581346
0.0002831301463
0.0002885198746
0.0002460019881
0.0002527290876
0.0002623669105
0.0002742385464
0.0002874827986
0.0003010264609
0.0003135773882
0.0003236381163
0.0003295459402
0.0002829473342
0.0002903291007
0.0003008961805
0.0003138986889
0.0003283872164
0.0003431850657
0.0003568824396
0.0003678515816
0.0003742886251
0.0003235325345
0.0003315834507
0.0003430995128
0.000357255593
0.0003730117471
0.0003890856445
0.0004039480268
0.0004158393769
0.0004228133449
0.0003678512855
0.0003765813762
0.0003890598541
0.0004043846073
0.0004214234568
0.000438787
0.0004548254777
0.0004676469635
0.0004751621691
0.0004159733746
0.000425388237
0.0004388363309
0.0004553373548
0.0004736658184
0.0004923245036
0.0005095428592
0.0005232966909
0.0005313541466
0.0004679444724
0.0004780453947
0.0004924642516
0.0005101418783
0.0005297590079
0.0005497105372
0.0005681055471
0.0005827884635
0.000591386027
0.0005237864105
0.0005345705661
0.0005499555646
0.0005688032199
0.0005897006122
0.0006109353228
0.0006304971609
0.0006461007554
0.000655233321
0.0005834978926
0.0005949585971
0.0006112997171
0.0006313043792
0.0006534666893
0.0006759680803
0.0006966808052
0.0007131919151
0.0007228516401
0.0006470555779
0.000659182594
0.0006764648527
0.0006976075864
0.0007210131193
0.0007447584506
0.0007666005556
0.0007840016965
0.0007941782538
0.0007144154713
0.0007271953488
0.0007453992832
0.0007676558266
0.0007922771824
0.0008172381235
0.0008401831262
0.0008584529574
0.0008691338039
0.0007855145513
0.0007989309891
0.0008180331679
0.0008413745517
0.0008671793018
0.0008933226077
0.0009173396622
0.0009364534671
0.0009476241213
0.0008602725717
0.0008743067899
0.0008942803378
0.0009186735179
0.0009456248928
0.0009729130879
0.0009979676024
0.001017897771
0.001029542092
0.0009385939722
0.0009532250849
0.0009740402066
0.0009994486929
0.001027506264
0.001055898319
0.001081952563
0.001102669068
0.001114769527
0.001020369844
0.001035575223
0.001057199714
0.001083584183
0.001112704525
0.001142156509
0.001169170203
0.001190641056
0.001203179001
0.001105479897
0.001121235523
0.001143635259
0.001170954138
0.001201091456
0.001231557164
0.001259488031
0.001281679716
0.001294635622
0.001193794392
0.00121007518
0.001233214576
0.001261424593
0.001292531318
0.001323962844
0.001352767135
0.001375645014
0.001388998715
0.001285175997
0.001301956102
0.001325798537
0.001354855226
0.001386882556
0.001419230834
0.001448863803
0.001472392486
0.001486123388
0.001379481542
0.001396734638
0.001421242844
0.001451101006
0.0014839994
0.001517214689
0.001547631025
0.001571774706
0.001585861979
0.001476563658
0.001494263186
0.001519399594
0.001550013711
0.001583733334
0.001617765649
0.001648919865
0.001673642623
0.001688065378
0.001576272279
0.001594391666
0.001620118715
0.001651443315
0.001685934427
0.001720733925
0.001752580698
0.001777846761
0.001792584199
0.001678455999
0.001696968855
0.001723249257
0.001755239233
0.001790452531
0.001825969843
0.001858464309
0.001884238285
0.001899269829
0.001782963289
0.001801843569
0.001828640544
0.001861251425
0.001897138332
0.001933324848
0.001966422858
0.001992669929
0.002007975341
0.001889643564
0.001908865711
0.001936143178
0.001969331362
0.002005844275
0.002042652383
0.002076310712
0.002102996802
0.002118556273
0.001998348114
0.00201788717
0.002045609911
0.002079332853
0.002116425344
0.002153808628
0.002187985155
0.002215077065
0.002230871299
0.002108930891
0.002128762598
0.002156896385
0.002191112753
0.002228739734
0.002266653136
0.002301306983
0.0023287725
0.002344782773
0.002221249182
0.002241350049
0.002269861751
0.002304531546
0.002342649398
0.00238104934
0.002416140983
0.002443948965
0.002460157179
0.002335164149
0.002355511516
0.002384369172
0.002419453821
0.002458020492
0.002496864972
0.002532356324
0.002560476769
0.002576865484
0.002450541275
0.002471113348
0.002500286229
0.002535748651
0.002574723723
0.00261397238
0.002649826852
0.002678230939
0.002694783405
0.002567250702
0.002588026583
0.002617485228
0.002653289876
0.002692634612
0.002732248774
0.002768431311
0.00279709143
0.0028137916
0.002685167489
0.002706127193
0.002735843425
0.002771956314
0.002811633683
0.002851576385
0.002888053485
0.002916943254
0.002933775795
0.002804171788
0.002825296245
0.002855243186
0.002891631894
0.002931606577
0.002971842568
0.003008582289
0.003037676554
0.003054626848
0.002924148956
0.002945420009
0.00297557207
0.003012205735
0.003052444116
0.003092939852
0.003129911799
0.003159186629
0.003176240768
0.003044989603
0.003066390001
0.003096722867
0.00313357217
0.003174042316
0.003214765934
0.00325194124
0.00328137391
0.003298518687
0.003166589596
0.003188102975
0.003218593585
0.00325563072
0.00329630235
0.003337223638
0.003374574938
0.003404143903
0.003421366801
0.003288850019
0.003310460881
0.003341087398
0.003378286036
0.00341913048
0.003460220841
0.003497722231
0.003527407102
0.003544696273
0.003411677088
0.003433370781
0.003464112559
0.003501447809
0.003542437966
0.003583670366
0.003621297363
0.003651078872
0.00366842312
0.003534982058
0.003556744744
0.003587582284
0.003625030645
0.00366614093
0.003707489851
0.003745219349
0.003775079312
0.003792468075
0.003658681097
0.003680499724
0.00371141464
0.003748953946
0.003790160232
0.003831601617
0.003869411832
0.00389933311
0.003916756432
0.003782695133
0.003804557407
0.003835532377
0.003873141752
0.003914421314
0.003955932505
0.003993802926
0.00402376938
0.00404121789
0.003906949698
0.003928844046
0.003959862771
0.00399752257
0.004038854028
0.004080413709
0.004118325043
0.004148321499
0.004165786385
0.004031374741
0.004053290287
0.004084337442
0.004122029199
0.00416339246
0.004204980601
0.004242914721
0.004272926922
0.004290399908
0.004155904463
0.004177830989
0.004208892184
0.004246598559
0.004287974754
0.004329572551
0.004367512441
0.004397527009
0.00441500033
0.004280477131
0.004302405049
0.00433346678
0.004371171504
0.004412542935
0.00445413275
0.004492062453
0.004522066843
0.004539533219
0.004405034895
0.004426955216
0.004458004824
0.004495692646
0.00453704272
0.004578608023
0.004616512589
0.004646495049
0.004663947662
0.004529523605
0.004551427907
0.004582453531
0.004620110165
0.004661423346
0.004702948659
0.004740814089
0.00477076362
0.004788196091
0.00465389263
0.004675773025
0.004706763564
0.004744375638
0.004785637386
0.004827108227
0.004864921426
0.004894827743
0.004912234106
0.004778094672
0.004799943784
0.004830888851
0.004868443862
0.00490964058
0.004951043408
0.004988792138
0.005018645626
0.00503602031
0.004902085592
0.004923896531
0.00495478642
0.004992272679
0.005033391663
0.005074713828
0.005112386656
0.00514217834
0.005159516144
0.005025824251
0.005047590581
0.005078416226
0.005115822818
0.005156852198
0.00519808189
0.005235668148
0.005265389656
0.00528268573
0.005149272333
0.005170988042
0.005201740982
0.005239057717
0.005279986426
0.005321112629
0.00535860237
0.005388245897
0.005405495722
0.005272394186
0.005294053667
0.005324726012
0.005361943391
0.005402761107
0.005443773557
0.005481157511
0.005510715786
0.005527915152
0.005395156675
0.005416754702
0.005447339097
0.005484448267
0.005525145377
0.005566034512
0.005603304049
0.005632770304
0.005649915296
0.005517529034
0.005539060736
0.005569550331
0.005606543051
0.005647110606
0.005687867528
0.005725014619
0.005754382561
0.005771469539
0.005639482722
0.005660943567
0.005691331986
0.00572820059
0.005768630265
0.005809246699
0.00584626388
0.005875527662
0.005892553246
0.005760991294
0.005782377068
0.005812658383
0.005849395742
0.005889679799
0.005930148056
0.005967028396
0.005996182589
0.006013143642
0.005882030272
0.005903337057
0.005933505759
0.005970105251
0.006010236505
0.006050549449
0.006087286515
0.006116326084
0.006133219697
0.006002577022
0.00602380118
0.006053852155
0.006090307633
0.006130279417
0.006170430429
0.006207018258
0.006235938538
0.006252762019
0.006122610641
0.006143748798
0.006173677303
0.006209983069
0.006249789203
0.006289772149
0.006326205218
0.00635500189
0.006371752748
0.006242111849
0.006263160878
0.006292962518
0.006329113292
0.006368748053
0.006408557256
0.006444830456
0.006473499528
0.006490175461
0.006361062886
0.006382019892
0.006411690598
0.006447681495
0.00648713959
0.006526769801
0.00656287841
0.006591416193
0.006608015076
0.006479447417
0.00650030972
0.006529845731
0.006565672234
0.006604948771
0.006644395142
0.006680334803
0.006708737895
0.006725257769
0.006597250435
0.006618015562
0.006647413401
0.00668307134
0.006722161806
0.006761419865
0.006797186559
0.006825451826
0.006841890889
0.006714458181
0.006735123848
0.00676438031
0.006799865839
0.006838766071
0.006877831699
0.006913421726
0.006941546284
0.006957902877
0.006831058055
0.006851622158
0.006880734289
0.006916043864
0.006954750032
0.006993619437
0.007029029396
0.007057010594
0.007073283195
0.006947038544
0.006967499145
0.006996464226
0.007031594589
0.007070103169
0.007108772865
0.00714399963
0.007171835038
0.007188022251
0.007062389143
0.00708274446
0.00711155999
0.007146508145
0.007184815901
0.007223282691
0.007258323396
0.007286010782
0.007302111329
0.007177100282
0.007197348678
0.007226012363
0.00726077556
0.007298879522
0.007337140471
0.007371992489
0.007399529813
0.007415542525
0.007291163261
0.007311303235
0.007339812967
0.007374388684
0.007412286129
0.00745033855
0.007484999474
0.007512384867
0.007528308673
0.007404570181
0.007424600353
0.007452954201
0.007487340124
0.007525028555
0.007562869984
0.007597337612
0.007624569363
0.007640403285
0.007517313873
0.007537232979
0.007565429168
0.007599623175
0.007637100303
0.007674728481
0.007709000791
0.007736077333
0.007751820476
0.007629387831
0.007649194709
0.007677231611
0.007711231752
0.007748495473
0.007785908323
0.007819983459
0.007846903352
0.007862554892
0.007740786145
0.007760479723
0.007788355836
0.007822160312
0.007859208685
0.007896404292
0.00793028054
0.007957042454
0.007972601632
0.007851503418
0.007871082705
0.007898796638
0.007932403782
0.007969235004
0.008006211586
0.008039887351
0.008066490048
0.008081956155
0.007961534691
0.00798099876
0.008008549211
0.008041957461
0.008078569842
0.008115325726
0.008148799505
0.008175241815
0.008190614182
0.008070875345
0.008090223319
0.008117609055
0.008150816927
0.008187208857
0.008223742442
0.008257012795
0.008283293593
0.008298571574
0.008179520995
0.00819875203
0.008225971857
0.008258977914
0.008295147825
0.008331457548
0.008364523058
0.008390641234
0.008405824189
0.008287467364
0.008306580624
0.008333633363
0.008366436171
0.008402382495
0.00843846678
0.008471326015
0.008497280437
0.00851236771
0.008394710131
0.008413704765
0.008440589207
0.008473187294
0.008508908407
0.008544765613
0.008577417065
0.008603206537
0.008618197429
0.008501244747
0.008520119856
0.008546834718
0.008579226514
0.008614720669
0.008650349018
0.008682791045
0.00870841425
0.008723307989
0.008607066211
0.008625820809
0.008652364679
0.008684548441
0.008719813692
0.008755211185
0.008787441924
0.00881289736
0.008827693059
0.008712168794
0.00873080176
0.008757173025
0.008789146753
0.008824180851
0.008859345163
0.008891362436
0.008916648334
0.008931344942
0.008816545707
0.008835055726
0.008861252485
0.008893013814
0.008927814085
0.008962742439
0.008994543626
0.009019657852
0.009034254095
0.008920188693
0.008938574182
0.008964594145
0.008996140214
0.009030703409
0.009065392417
0.009096974313
0.009121914243
0.009136408552
0.009023087538
0.00904134656
0.009067186919
0.009098514209
0.009132836325
0.009167281803
0.009198640438
0.009223402815
0.009237793235
0.009125229492
0.00914335965
0.009169016923
0.009200121072
0.009234197136
0.009268393874
0.0092995243
0.009324105061
0.009338389152
0.009226598584
0.009244596895
0.00927006675
0.009300942322
0.009334766134
0.009368707638
0.009399603681
0.00942399775
0.009438172465
0.009327174833
0.009345037581
0.009370314623
0.009400954848
0.009434518687
0.009468196864
0.009498850834
0.009523051893
0.009537113435
0.009426933344
0.009444655914
0.00946973344
0.00950012991
0.009533424192
0.009566829008
0.00959723137
0.009621231588
0.009635175255
0.009525843304
0.009543419988
0.009568289712
0.009598432046
0.009631444945
0.009664564024
0.009694703034
0.009718492775
0.009732312784
0.009623866873
0.00964129066
0.009665942413
0.009695817877
0.009728534905
0.009761353107
0.009791214413
0.009814781911
0.009828471212
0.009720958005
0.009738220351
0.009762641753
0.009792234859
0.009824638418
0.009857137377
0.009886703595
0.009910034621
0.009923584693
0.009817061214
0.009834151802
0.009858327916
0.00988762
0.009919688914
0.009951846567
0.009981096846
0.01000417436
0.01001757501
0.009912110339
0.00992901683
0.00995292981
0.009981898605
0.01001360765
0.01004539776
0.01007430735
0.01009711116
0.01011035034
0.01000602734
0.01002273513
0.01004636388
0.0100749831
0.01010630255
0.01013769427
0.01016623411
0.01018874055
0.01020180415
0.01009872121
0.0101152132
0.01013853304
0.010166772
0.01019766723
0.01022862465
0.01025676104
0.0102789427
0.01029181441
0.01019008704
0.01020634344
0.01022932584
0.01025714912
0.01028758023
0.01031806213
0.01034575639
0.01036758191
0.0103802431
0.01028000534
0.01029600353
0.01031861592
0.01034598313
0.01037590471
0.01040586426
0.01043307261
0.01045450657
0.01046693624
0.01036834165
0.01038405607
0.01040626172
0.01043312742
0.01046248849
0.01049187323
0.01051854672
0.0105395496
0.01055172439
0.01045494666
0.01047034883
0.01049210686
0.01051842056
0.01054716463
0.01057591657
0.01060200125
0.0106225296
0.01063442386
0.01053965678
0.01055471538
0.01057598091
0.01060168732
0.01062975267
0.01065780866
0.01068324592
0.01070325268
0.0107148387
0.01062229531
0.01063697642
0.01065770092
0.01068274039
0.01071006062
0.0107373529
0.01076208008
0.01078151507
0.01079276338
0.01070267433
0.01071694177
0.01073707359
0.01076138279
0.01078788764
0.01081434477
0.01083829599
0.01085710664
0.01086798645
0.01078059729
0.01079441314
0.01081389827
0.01083741117
0.01086302762
0.01088857561
0.01091168296
0.01092981526
0.01094029506
0.01085586237
0.01086918765
0.0108879707
0.01091061981
0.01093527352
0.0109598374
0.01098203235
0.01099943207
0.01100948032
0.01092826666
0.01094106217
0.01095908759
0.0109808055
0.01100442257
0.01102792823
0.0110491434
0.01106575749
0.01107534351
0.01099761106
0.01100983838
0.01102705193
0.01104777313
0.01107028217
0.01109265845
0.01111282964
0.01112860789
0.01113770279
0.01106370588
0.01107532849
0.01109167889
0.0111113418
0.01113267624
0.01115385736
0.01117292576
0.01118782263
0.01119640044
0.01112637686
0.01113736147
0.01115280215
0.01117135139
0.01119145195
0.01121138009
0.01122929467
0.01124327115
0.01125130992
0.01118547161
0.01119578939
0.01121028046