/*--------------------------------*- C++ -*----------------------------------*\
| =========                 |                                                 |
| \\      /  F ield         | OpenFOAM: The Open Source CFD Toolbox           |
|  \\    /   O peration     | Version:  2212                                  |
|   \\  /    A nd           | Website:  www.openfoam.com                      |
|    \\/     M anipulation  |                                                 |
\*---------------------------------------------------------------------------*/
FoamFile
{
    version     2.0;
    format      ascii;
    arch        "LSB;label=32;scalar=64";
    class       volScalarField;
    location    "19.75000000";
    object      AC3H4;
}
// * * * * * * * * * * * * * * * * * * * * * * * * * * * * * * * * * * * * * //

dimensions      [0 0 0 0 0 0 0];

internalField   nonuniform List<scalar> 
3000
(
1.389661881e-22
1.561106304e-22
1.819814463e-22
2.164565679e-22
2.591855864e-22
3.090082086e-22
3.629228832e-22
4.143678621e-22
4.507460713e-22
5.217393713e-22
5.884704056e-22
6.891237155e-22
8.235509004e-22
9.9161863e-22
1.192395188e-21
1.422395388e-21
1.670008294e-21
1.88935283e-21
1.168661468e-21
1.32848064e-21
1.571843574e-21
1.902274267e-21
2.325714669e-21
2.848307075e-21
3.467994508e-21
4.149985139e-21
4.732856911e-21
2.225975768e-21
2.556888586e-21
3.068168986e-21
3.777114541e-21
4.708839126e-21
5.887015156e-21
7.305211551e-21
8.849893551e-21
1.009667011e-20
3.952697106e-21
4.596011924e-21
5.605617171e-21
7.032789603e-21
8.944646195e-21
1.139476163e-20
1.434219757e-20
1.74722339e-20
1.987494747e-20
6.796806917e-21
8.004174905e-21
9.926157015e-21
1.26853907e-20
1.642903684e-20
2.125126435e-20
2.700802299e-20
3.297332493e-20
3.738658242e-20
1.153819883e-20
1.375591085e-20
1.732738222e-20
2.251255408e-20
2.960011328e-20
3.873090309e-20
4.952722068e-20
6.049635087e-20
6.841116379e-20
1.952578782e-20
2.353911673e-20
3.005983083e-20
3.960013653e-20
5.269206931e-20
6.95240498e-20
8.925154733e-20
1.090030846e-19
1.230172072e-19
3.309679494e-20
4.028291375e-20
5.203427428e-20
6.931467028e-20
9.307051928e-20
1.235301084e-19
1.589726948e-19
1.940895076e-19
2.187307467e-19
5.629836229e-20
6.906453072e-20
9.003668202e-20
1.20976399e-19
1.63536821e-19
2.179651472e-19
2.809474723e-19
3.428939794e-19
3.860388927e-19
9.614369252e-20
1.186901914e-19
1.558477136e-19
2.107774128e-19
2.863424179e-19
3.827641666e-19
4.938816364e-19
6.026132659e-19
6.779647479e-19
1.64789236e-19
2.044346658e-19
2.69916567e-19
3.668429289e-19
5.001576309e-19
6.699691894e-19
8.650765559e-19
1.055311514e-18
1.186691628e-18
2.833152726e-19
3.528006505e-19
4.677452117e-19
6.380263768e-19
8.721776351e-19
1.170029968e-18
1.511511833e-18
1.843627406e-18
2.072444085e-18
4.882861034e-19
6.097775916e-19
8.109680294e-19
1.109175401e-18
1.519139178e-18
2.040107916e-18
2.63645426e-18
3.215402368e-18
3.613598384e-18
8.431347334e-19
1.055176056e-18
1.406583167e-18
1.927628614e-18
2.643794136e-18
3.553188125e-18
4.592972475e-18
5.601110119e-18
6.293640446e-18
1.457918096e-18
1.827501972e-18
2.440325884e-18
3.349199192e-18
4.598210223e-18
6.183317555e-18
7.994172541e-18
9.748234703e-18
1.095205024e-17
2.523601835e-18
3.167128721e-18
4.234595515e-18
5.817992732e-18
7.993648615e-18
1.075355983e-17
1.390454078e-17
1.695449694e-17
1.904622052e-17
4.371575592e-18
5.491246116e-18
7.349029015e-18
1.010499967e-17
1.389136248e-17
1.869291811e-17
2.417218545e-17
2.947284588e-17
3.310626373e-17
7.576988888e-18
9.524005409e-18
1.275515527e-17
1.754878316e-17
2.41339512e-17
3.248251893e-17
4.20058295e-17
5.12147754e-17
5.752459798e-17
1.313818768e-17
1.652251759e-17
2.213968597e-17
3.047341625e-17
4.192066746e-17
5.643016784e-17
7.297629198e-17
8.897069848e-17
9.992613745e-17
2.278828902e-17
2.866928303e-17
3.843113203e-17
5.291406525e-17
7.280599087e-17
9.80143698e-17
1.26753657e-16
1.54526659e-16
1.735457566e-16
3.95361359e-17
4.975352216e-17
6.671403404e-17
9.187640416e-17
1.264323568e-16
1.702155325e-16
2.201190235e-16
2.683319824e-16
3.013414438e-16
6.860532394e-17
8.63538671e-17
1.158157686e-16
1.595220396e-16
2.195358113e-16
2.955577822e-16
3.821831009e-16
4.658499424e-16
5.231184013e-16
1.190634745e-16
1.498902085e-16
2.01058889e-16
2.769578982e-16
3.811554989e-16
5.131110848e-16
6.634224674e-16
8.085505854e-16
9.078572261e-16
2.066482584e-16
2.601825801e-16
3.490340645e-16
4.808046016e-16
6.616567628e-16
8.906070743e-16
1.151297717e-15
1.40288921e-15
1.574976702e-15
3.586650246e-16
4.516181053e-16
6.058678771e-16
8.34567111e-16
1.148336765e-15
1.545369483e-15
1.997199924e-15
2.433011216e-15
2.730946198e-15
6.22464182e-16
7.83822778e-16
1.051522549e-15
1.448284793e-15
1.992363489e-15
2.680394647e-15
3.462825893e-15
4.216945111e-15
4.732117455e-15
1.080093948e-15
1.360101148e-15
1.824487626e-15
2.512424014e-15
3.455167383e-15
4.646366261e-15
5.999719592e-15
7.302789534e-15
8.192120435e-15
1.873576475e-15
2.35922861e-15
3.164310954e-15
4.356172984e-15
5.988079508e-15
8.047859157e-15
1.038513267e-14
1.263258919e-14
1.416450258e-14
3.248403085e-15
4.090118938e-15
5.484637369e-15
7.547362804e-15
1.036849792e-14
1.392438877e-14
1.795287946e-14
2.181993181e-14
2.445142936e-14
5.628156517e-15
7.085515102e-15
9.498169497e-15
1.306300775e-14
1.793157073e-14
2.405733605e-14
3.098315446e-14
3.761695405e-14
4.212165867e-14
9.742079801e-15
1.226192302e-14
1.642949946e-14
2.257887849e-14
3.096208523e-14
4.148681015e-14
5.335590485e-14
6.469367419e-14
7.237230872e-14
1.684225177e-14
2.119135195e-14
2.837567494e-14
3.895820505e-14
5.335277172e-14
7.137530432e-14
9.163658515e-14
1.109265541e-13
1.239488244e-13
2.907154972e-14
3.656054247e-14
4.891329079e-14
6.707065132e-14
9.170134979e-14
1.224380506e-13
1.568629798e-13
1.895070714e-13
2.114597554e-13
5.008374529e-14
6.29423115e-14
8.411351343e-14
1.15153819e-13
1.571223309e-13
2.092884555e-13
2.674543122e-13
3.223532639e-13
3.59106629e-13
8.608226027e-14
1.080823353e-13
1.442258881e-13
1.970565738e-13
2.682095726e-13
3.562423475e-13
4.538927785e-13
5.455630681e-13
6.06620628e-13
1.475488169e-13
1.850297276e-13
2.464475853e-13
3.358994242e-13
4.55828387e-13
6.034167745e-13
7.661654863e-13
9.180224479e-13
1.01859288e-12
2.520995939e-13
3.156359961e-13
4.194354519e-13
5.699847602e-13
7.707785921e-13
1.01638863e-12
1.285445888e-12
1.534821042e-12
1.698952981e-12
4.291677574e-13
5.362509195e-13
7.105848287e-13
9.622349186e-13
1.295903213e-12
1.701301292e-12
2.142198758e-12
2.54789811e-12
2.81315843e-12
7.27616295e-13
9.069083956e-13
1.197649521e-12
1.615092478e-12
2.164991426e-12
2.828200175e-12
3.543894809e-12
4.197431412e-12
4.621799345e-12
1.228004575e-12
1.525995372e-12
2.007092412e-12
2.693772699e-12
3.591934711e-12
4.666645875e-12
5.816935611e-12
6.859015642e-12
7.530928146e-12
2.062165928e-12
2.553437369e-12
3.342747635e-12
4.462133222e-12
5.915174143e-12
7.639442474e-12
9.469376903e-12
1.111382807e-11
1.216667312e-11
3.444140435e-12
4.246959151e-12
5.530096114e-12
7.337386883e-12
9.664707051e-12
1.240283112e-11
1.528382169e-11
1.785198671e-11
1.948483741e-11
5.718535908e-12
7.018185251e-12
9.083915865e-12
1.197265785e-11
1.566205579e-11
1.996501628e-11
2.445374152e-11
2.842350032e-11
3.093056353e-11
9.435315288e-12
1.151849835e-11
1.481055222e-11
1.938028314e-11
2.516798914e-11
3.185980084e-11
3.878189754e-11
4.48570411e-11
4.866922609e-11
1.546417109e-11
1.876903325e-11
2.396095067e-11
3.111422152e-11
4.00989068e-11
5.039893555e-11
6.096704809e-11
7.017485365e-11
7.591813892e-11
2.516750539e-11
3.035543799e-11
3.845743875e-11
4.953753951e-11
6.334130363e-11
7.903625856e-11
9.501552883e-11
1.088432809e-10
1.174202923e-10
4.065920906e-11
4.8716747e-11
6.122676109e-11
7.821150346e-11
9.920551042e-11
1.228897852e-10
1.468286318e-10
1.674137653e-10
1.801173449e-10
6.518778048e-11
7.75697982e-11
9.668506107e-11
1.224574141e-10
1.540761674e-10
1.894859321e-10
2.250364367e-10
2.554303246e-10
2.7410106e-10
1.036980318e-10
1.225273615e-10
1.514387481e-10
1.901624836e-10
2.373392618e-10
2.89814794e-10
3.421757763e-10
3.867085292e-10
4.139524867e-10
1.636473488e-10
1.919912947e-10
2.352903939e-10
2.929288181e-10
3.626962077e-10
4.398191173e-10
5.16346812e-10
5.81130226e-10
6.206196238e-10
2.561824919e-10
2.984341449e-10
3.626737647e-10
4.477030472e-10
5.500174857e-10
6.624854483e-10
7.735329051e-10
8.671524593e-10
9.240403691e-10
3.978243039e-10
4.60227176e-10
5.546872283e-10
6.790681915e-10
8.279386187e-10
9.90767036e-10
1.150838418e-09
1.285306144e-09
1.366796096e-09
6.128216464e-10
7.041810904e-10
8.419221623e-10
1.022448897e-09
1.237495803e-09
1.471669667e-09
1.701001425e-09
1.893058662e-09
2.009184206e-09
9.365040833e-10
1.069166592e-09
1.268468536e-09
1.52859753e-09
1.837171542e-09
2.171895746e-09
2.49861805e-09
2.771520685e-09
2.936217474e-09
1.419965418e-09
1.611149484e-09
1.897468039e-09
2.26981007e-09
2.709878005e-09
3.185644438e-09
3.648728648e-09
4.034684471e-09
4.267254789e-09
2.136576485e-09
2.410179257e-09
2.818802528e-09
3.348506075e-09
3.97257043e-09
4.645324332e-09
5.298587594e-09
5.842067858e-09
6.169169407e-09
3.190991957e-09
3.580034627e-09
4.159678549e-09
4.909008709e-09
5.789411467e-09
6.736187647e-09
7.6537067e-09
8.415917572e-09
8.874245172e-09
4.73153294e-09
5.281459065e-09
6.099115781e-09
7.153626473e-09
8.389694204e-09
9.716203122e-09
1.099959272e-08
1.206448172e-08
1.270436949e-08
6.967105531e-09
7.740210418e-09
8.88765585e-09
1.03644676e-08
1.209208379e-08
1.394286299e-08
1.573100978e-08
1.721330397e-08
1.81035561e-08
1.019015877e-08
1.127150434e-08
1.287398083e-08
1.493281279e-08
1.733716036e-08
1.990907975e-08
2.239109786e-08
2.44470143e-08
2.568134613e-08
1.480758787e-08
1.631284558e-08
1.854056408e-08
2.139833434e-08
2.473075109e-08
2.829088114e-08
3.172326083e-08
3.456468072e-08
3.627023737e-08
2.138193935e-08
2.346770876e-08
2.655097344e-08
3.050099179e-08
3.510112866e-08
4.00102294e-08
4.473936606e-08
4.865244123e-08
5.100097664e-08
3.068578036e-08
3.356306227e-08
3.781201609e-08
4.324903632e-08
4.957376676e-08
5.631690405e-08
6.28084361e-08
6.817781026e-08
7.140024173e-08
4.377266016e-08
4.772430644e-08
5.355449205e-08
6.100711357e-08
6.966787917e-08
7.889393503e-08
8.777058663e-08
9.511063871e-08
9.951582707e-08
6.206860142e-08
6.747167334e-08
7.5436751e-08
8.560884229e-08
9.74193458e-08
1.099914435e-07
1.22081311e-07
1.320760264e-07
1.380747532e-07
8.748831322e-08
9.484234658e-08
1.056754145e-07
1.194983733e-07
1.355346976e-07
1.525937269e-07
1.689910936e-07
1.825442873e-07
1.906794692e-07
1.225802437e-07
1.325424395e-07
1.4720743e-07
1.659051173e-07
1.875803442e-07
2.10623741e-07
2.327644575e-07
2.510620128e-07
2.620461489e-07
1.70704094e-07
1.841323687e-07
2.038868476e-07
2.29054811e-07
2.582099235e-07
2.891875059e-07
3.189405801e-07
3.435260065e-07
3.582866113e-07
2.362432833e-07
2.542478505e-07
2.807181365e-07
3.144181776e-07
3.534303119e-07
3.948581322e-07
4.346342879e-07
4.674980878e-07
4.872313343e-07
3.248529391e-07
3.488566072e-07
3.84125379e-07
4.289954991e-07
4.809033452e-07
5.359950581e-07
5.888714882e-07
6.325534594e-07
6.587853783e-07
4.437412819e-07
4.755479002e-07
5.222533069e-07
5.816315257e-07
6.502757795e-07
7.230888772e-07
7.929472203e-07
8.50648884e-07
8.85302245e-07
6.019788803e-07
6.438483394e-07
7.052920838e-07
7.833505864e-07
8.735248973e-07
9.69116434e-07
1.060788263e-06
1.136490261e-06
1.181953808e-06
8.108264464e-07
8.655534054e-07
9.458134321e-07
1.047697125e-06
1.165302193e-06
1.289885614e-06
1.409296818e-06
1.507873709e-06
1.567068981e-06
1.084068045e-06
1.155060245e-06
1.259101757e-06
1.391062926e-06
1.543253708e-06
1.704345654e-06
1.858648568e-06
1.985971494e-06
2.06241136e-06
1.438333307e-06
1.529684142e-06
1.663461009e-06
1.832979815e-06
2.028293762e-06
2.234837833e-06
2.432518535e-06
2.595535317e-06
2.693367982e-06
1.893389924e-06
2.009939114e-06
2.180476658e-06
2.3963561e-06
2.644809475e-06
2.907263516e-06
3.158211744e-06
3.364994465e-06
3.489027152e-06
2.472386652e-06
2.619762567e-06
2.835212512e-06
3.107636565e-06
3.420776414e-06
3.751151001e-06
4.066681823e-06
4.32643346e-06
4.482130881e-06
3.202027304e-06
3.386664857e-06
3.656323905e-06
3.996868763e-06
4.387769996e-06
4.799608312e-06
5.192427492e-06
5.515443011e-06
5.708901287e-06
4.112657495e-06
4.34178643e-06
4.676071452e-06
5.097661866e-06
5.58086124e-06
6.089152568e-06
6.573259569e-06
6.970838725e-06
7.208730083e-06
5.23824788e-06
5.519847682e-06
5.930222441e-06
6.447027432e-06
7.038388827e-06
7.659410518e-06
8.249934267e-06
8.734229727e-06
9.02368822e-06
6.61625975e-06
6.958978684e-06
7.457829099e-06
8.085094187e-06
8.801604816e-06
9.552694182e-06
1.026565516e-05
1.084945145e-05
1.119795705e-05
8.287380305e-06
8.700417461e-06
9.300876619e-06
1.005469631e-05
1.091419288e-05
1.181343954e-05
1.266543636e-05
1.3361917e-05
1.3777151e-05
1.029511768e-05
1.07880725e-05
1.150379391e-05
1.240081947e-05
1.34216359e-05
1.448750536e-05
1.549538721e-05
1.631786017e-05
1.680754188e-05
1.26852476e-05
1.326793158e-05
1.411281044e-05
1.516988111e-05
1.637044822e-05
1.762139269e-05
1.880188677e-05
1.976348352e-05
2.033519304e-05
1.550507319e-05
1.618727429e-05
1.717511798e-05
1.840889052e-05
1.980732536e-05
2.126135409e-05
2.263066734e-05
2.374402488e-05
2.440501742e-05
1.880250459e-05
1.959376705e-05
2.073798098e-05
2.216452992e-05
2.377819059e-05
2.545241959e-05
2.702582731e-05
2.830276369e-05
2.905978188e-05
2.262510511e-05
2.353448893e-05
2.484773422e-05
2.648213662e-05
2.832716735e-05
3.023736537e-05
3.20288021e-05
3.347999755e-05
3.433908868e-05
2.701902048e-05
2.805485681e-05
2.954870578e-05
3.140462763e-05
3.349551213e-05
3.565566118e-05
3.767733016e-05
3.93120268e-05
4.027837248e-05
3.202784766e-05
3.319750093e-05
3.488210518e-05
3.697140752e-05
3.93205496e-05
4.174243879e-05
4.400445689e-05
4.583018982e-05
4.690795538e-05
3.769148999e-05
3.900113762e-05
4.08849236e-05
4.32173061e-05
4.583465642e-05
4.85275271e-05
5.103762078e-05
5.305999223e-05
5.425220234e-05
4.404504974e-05
4.549948961e-05
4.758889587e-05
5.017159418e-05
5.306433985e-05
5.603459789e-05
5.879786341e-05
6.102036974e-05
6.232881546e-05
5.111780972e-05
5.272030442e-05
5.501957235e-05
5.785712281e-05
6.102945365e-05
6.428046113e-05
6.729919903e-05
6.972311735e-05
7.114829819e-05
5.893235135e-05
6.0684516e-05
6.319554334e-05
6.628962509e-05
6.974258597e-05
7.327454036e-05
7.654817002e-05
7.917250814e-05
8.071361084e-05
6.750384914e-05
6.940558739e-05
7.212785013e-05
7.547721023e-05
7.920864431e-05
8.30185483e-05
8.654360418e-05
8.936511418e-05
9.102002797e-05
7.683957123e-05
7.888906117e-05
8.181960559e-05
8.542006844e-05
8.942465123e-05
9.350637176e-05
9.727657883e-05
0.0001002898314
0.0001020551975
8.693860347e-05
8.913233265e-05
9.226583589e-05
9.611039366e-05
0.0001003797532
0.0001047241639
0.0001087305858
0.0001119280997
0.0001137993921
9.77918025e-05
0.0001001246488
0.0001034535425
0.0001075325197
0.0001120554345
0.0001166506319
0.0001208818829
0.0001242543019
0.0001262259336
0.0001093819713
0.0001118473241
0.0001153619739
0.0001196632556
0.0001244259186
0.0001292575004
0.000133700009
0.0001372363168
0.0001393017679
0.0001216842401
0.0001242741556
0.0001279630852
0.0001324723979
0.0001374587323
0.0001425101234
0.0001471484357
0.000150836199
0.0001529881583
0.0001346666286
0.00013737201
0.0001412221607
0.0001459233904
0.0001511154039
0.000156368215
0.0001611853239
0.0001650109532
0.0001672414702
0.0001482907562
0.0001511015526
0.0001550985649
0.0001599741001
0.0001653522612
0.0001707866666
0.0001757643541
0.0001797133721
0.0001820140114
0.0001625126677
0.0001654180818
0.0001695465887
0.0001745776743
0.0001801212971
0.0001857164172
0.0001908355981
0.0001948929071
0.0001972549016
0.0001772837373
0.0001802724346
0.0001845163559
0.0001896834462
0.0001953710709
0.0002011053466
0.0002063464023
0.0002104965424
0.0002129109401
0.0001925516154
0.0001956119289
0.0001999547572
0.0002052378557
0.0002110476134
0.0002168991628
0.0002222422573
0.0002264696485
0.0002289274503
0.0002082611848
0.0002113813093
0.0002158063792
0.0002211853584
0.0002270953111
0.0002330422599
0.0002384676296
0.0002427567939
0.0002452490783
0.0002243554993
0.0002275236691
0.0002320144051
0.0002374692978
0.0002434577465
0.0002494785252
0.0002549667395
0.0002593024975
0.0002618205315
0.0002407766764
0.0002439813255
0.0002485214621
0.0002540327203
0.0002600784772
0.0002661520818
0.0002716842684
0.0002760519102
0.0002785872444
0.0002574667269
0.0002606966281
0.0002652704015
0.0002708191183
0.0002769017393
0.0002830079528
0.0002885659888
0.0002929514167
0.0002954959652
0.0002743683063
0.000277612688
0.0002822049957
0.000287773092
0.0002938730689
0.0002999926427
0.0003055593098
0.0003099491537
0.0003124952574
0.0002914253769
0.0002946740182
0.0002992705485
0.0003048409207
0.0003109398346
0.0003170546313
0.0003226137363
0.0003269954423
0.0003295359182
0.0003085837759
0.0003118270799
0.0003164144115
0.0003219710452
0.0003280516806
0.0003341447797
0.0003396812426
0.0003440431377
0.0003465713129
0.0003257916881
0.0003290207355
0.0003335864083
0.0003391144579
0.0003451608831
0.000351216653
0.0003567165653
0.0003610478977
0.0003635576319
0.0003430000252
0.0003462066086
0.0003507391694
0.0003562250081
0.0003622226222
0.0003682267609
0.0003736774172
0.0003779683778
0.0003804540735
0.0003601627144
0.0003633393564
0.0003678283817
0.0003732596242
0.0003791951771
0.0003851347265
0.0003905246322
0.0003947663578
0.0003972229612
0.0003772369046
0.0003803768617
0.00038481296
0.0003901784623
0.0003960400499
0.0004019033866
0.0004072222465
0.000411406808
0.0004138298014
0.0003941830968
0.0003972803502
0.0004016551483
0.0004069449878
0.000412722027
0.0004184988338
0.0004237375235
0.0004278579022
0.0004302432893
0.0004109652067
0.0004140144439
0.0004183205587
0.0004235259981
0.0004292091853
0.0004348904076
0.0004400409317
0.0004440909852
0.0004464352712
0.0004275505696
0.0004305471572
0.0004347781568
0.0004398915961
0.0004454728523
0.0004510506418
0.0004561060821
0.0004600805028
0.0004623806704
0.0004439098954
0.0004468498461
0.0004510002023
0.0004560151204
0.000461487527
0.0004669551765
0.0004719096322
0.0004758039003
0.0004780573823
0.0004600171827
0.0004628971174
0.0004669621525
0.000471873042
0.0004772307696
0.0004825826415
0.0004874311643
0.0004912414968
0.0004934461471
0.0004758495997
0.0004786667072
0.0004826425362
0.0004874448341
0.0004926830667
0.0004979145176
0.0005026530438
0.0005063763416
0.0005085304042
0.0004913873398
0.0004941393339
0.0004980228051
0.0005027128211
0.0005078276779
0.0005129349812
0.0005175602624
0.0005211940561
0.0005232961346
0.0005066134581
0.000509298535
0.0005130871691
0.000517662013
0.0005226504703
0.0005276307387
0.0005321402721
0.0005356826682
0.0005377316952
0.0005215136948
0.0005241304901
0.0005278224207
0.0005322799301
0.0005371397437
0.0005419908531
0.0005463828134
0.0005498324414
0.000551827648
0.0005360762911
0.0005386238378
0.0005422177522
0.0005465564234
0.0005512860531
0.0005560065679
0.0005602797414
0.000563635703
0.0005655765897
0.0005502918005
0.0005527694888
0.0005562645722
0.0005604834917
0.0005650820292
0.000569671132
0.0005738248531
0.0005770866731
0.000578972982
0.0005641529012
0.0005665604399
0.0005699563209
0.0005740551025
0.0005785222025
0.000582979626
0.0005870137175
0.0005901812974
0.0005920129861
0.0005776542104
0.0005799915906
0.0005832882913
0.0005872670149
0.0005916028305
0.0005959287946
0.0005998435113
0.0006029170861
0.0006046943024
0.0005907921043
0.0005930595656
0.0005962574536
0.0006001166095
0.000604321732
0.0006085168845
0.0006123128607
0.0006152929585
0.0006170160177
0.000603564545
0.0006057625439
0.0006088622889
0.0006126027254
0.0006166781283
0.0006207434905
0.0006244216917
0.0006273090959
0.0006289784594
0.0006159709152
0.0006181000964
0.0006211026297
0.0006247255051
0.0006286724931
0.0006326094094
0.0006361710875
0.0006389668027
0.0006405830584
0.0006280118634
0.0006300730331
0.0006329795107
0.0006364862496
0.0006403064114
0.0006441165035
0.0006475631561
0.0006502683766
0.0006518322209
0.0006396891572
0.000641683259
0.0006444950281
0.0006478872818
0.0006515824474
0.0006552675725
0.0006586009062
0.0006612169874
0.0006627292089
0.0006510055477
0.0006529336413
0.0006556522101
0.0006589318199
0.0006625040225
0.0006660662359
0.0006692881323
0.000671816565
0.0006732780297
0.0006619646442
0.0006638278853
0.0006664548955
0.0006696238613
0.0006730753025
0.0006765168233
0.0006796293094
0.0006820716964
0.0006834833346
0.0006725707982
0.0006743704213
0.0006769076242
0.0006799680747
0.0006833010934
0.0006866242747
0.0006896294956
0.0006919875309
0.0006933503251
0.0006828289973
0.0006845663004
0.0006870155348
0.0006899697024
0.0006931867475
0.0006963940488
0.0006992942442
0.0007015696943
0.0007028846686
0.0006927447699
0.0006944211
0.000696784273
0.0006996344706
0.0007027380763
0.0007058320402
0.0007086295224
0.0007108242104
0.000712092421
0.0007023240976
0.000703940839
0.0007062199091
0.0007089685097
0.0007119612737
0.0007149445043
0.0007176416398
0.0007197574299
0.0007209799571
0.0007115733364
0.0007131319
0.0007153288621
0.0007179782814
0.0007208628462
0.00072373799
0.0007263371827
0.0007283759678
0.0007295539081
0.0007204991457
0.0007220009595
0.0007241178318
0.0007266705124
0.0007294495483
0.0007322192786
0.0007347229554
0.000736686646
0.0007378211059
0.0007291084243
0.0007305549251
0.0007325937382
0.0007350521363
0.0007377283274
0.00074039533
0.0007428059281
0.0007446964422
0.0007457885326
0.0007374082544
0.0007388008812
0.0007407636676
0.0007431302415
0.0007457062731
0.0007482732339
0.0007505931899
0.0007524124448
0.000753463276
0.0007454058514
0.0007467460392
0.0007486348255
0.0007509120254
0.000753390573
0.0007558601676
0.000758091908
0.0007598418126
0.0007608524901
0.0007531085201
0.0007543976946
0.000756214494
0.0007584047531
0.0007607884735
0.0007631633578
0.0007653092911
0.00076699174
0.000767963361
0.0007605236151
0.0007617631884
0.0007635099945
0.0007656157224
0.0007679072455
0.0007701900483
0.0007722525578
0.0007738694257
0.0007748030757
0.0007676585073
0.0007688498742
0.0007705286561
0.0007725522319
0.0007747541543
0.0007769474707
0.0007789289089
0.0007804820458
0.0007813787965
0.0007745205541
0.0007756650889
0.0007772777864
0.000779221554
0.0007813364334
0.0007834428192
0.0007853455028
0.0007868367309
0.0007876976374
0.0007811170738
0.0007822161277
0.0007837646482
0.0007856309117
0.0007876612623
0.0007896832295
0.0007915094355
0.0007929405454
0.0007937666449
0.0007874553234
0.0007885102225
0.0007899964376
0.0007917874581
0.0007937357466
0.00079567576
0.0007974277222
0.0007988004709
0.000799592781
0.0007935424793
0.0007945545229
0.0007959802663
0.0007976982588
0.000799566902
0.0008014273761
0.0008031072829
0.0008044233913
0.0008051829087
0.0007993856214
0.0008003560808
0.0008017231466
0.0008033702783
0.0008051616404
0.0008069449372
0.0008085549292
0.0008098160806
0.0008105437804
0.00080499172
0.0008059218373
0.0008072319786
0.000808810367
0.0008105267581
0.0008122351852
0.0008137773538
0.0008149851929
0.0008156820277
0.0008103676244
0.0008112586122
0.0008125135399
0.0008140252518
0.0008156689262
0.0008173047358
0.000818781122
0.0008199372538
0.0008206041532
0.0008155200541
0.0008163730945
0.000817574477
0.0008190215272
0.0008205946832
0.000822160071
0.0008235726645
0.0008246786538
0.0008253165244
0.0008204555909
0.0008212718357
0.0008224212981
0.0008238056497
0.0008253104283
0.0008268075331
0.0008281582723
0.0008292156434
0.0008298253681
0.0008251806738
0.0008259612439
0.0008270603683
0.0008283839318
0.0008298224171
0.0008312533209
0.0008325440923
0.0008335543289
0.0008341367672
0.000829701594
0.0008304475799
0.000831497905
0.0008327625388
0.000834136758
0.0008355034857
0.0008367361244
0.0008377006696
0.0008382566574
0.0008340244922
0.0008347369538
0.0008357399754
0.000836947486
0.0008382594097
0.0008395639297
0.0008407402194
0.0008416604759
0.0008421908259
0.0008381553561
0.0008388353232
0.0008397924945
0.0008409446371
0.0008421961797
0.0008434404042
0.000844562078
0.0008454394087
0.0008459449104
0.0008421000194
0.0008427484921
0.0008436612242
0.0008447597031
0.0008459527236
0.0008471385098
0.0008482072504
0.0008490429786
0.0008495243987
0.0008458641616
0.0008464821105
0.0008473517731
0.0008483982426
0.0008495345455
0.0008506636957
0.0008516811365
0.0008524765469
0.0008529346295
0.0008494533079
0.0008500416748
0.000850869597
0.0008518656621
0.0008529469981
0.0008540212613
0.0008549889872
0.000855745326
0.0008561807931
0.0008528728304
0.0008534325287
0.0008542199995
0.0008551672171
0.0008561952845
0.0008572163569
0.000858135905
0.0008588543812
0.0008592679332
0.0008561279492
0.0008566598648
0.0008574081341
0.0008583080138
0.0008592844592
0.0008602539857
0.0008611268467
0.0008618086325
0.0008622009484
0.0008592237346
0.0008597287261
0.0008604390056
0.0008612930109
0.0008622194307
0.0008631390057
0.0008639666245
0.0008646128562
0.0008649845944
0.000862165109
0.0008626440086
0.0008633174727
0.000864127022
0.0008650049631
0.0008658761322
0.0008666599092
0.0008672716882
0.0008676234866
0.0008649568494
0.0008654104635
0.0008660482501
0.0008668147177
0.0008676456795
0.00086846994
0.0008692112324
0.0008697896258
0.0008701221027
0.00086760359
0.0008680326999
0.0008686359116
0.0008693606291
0.0008701460639
0.0008709248668
0.0008716249892
0.000872171031
0.0008724847853
0.0008701098252
0.0008705151877
0.0008710848925
0.0008717691498
0.0008725104647
0.0008732452154
0.0008739054415
0.0008744201332
0.000874715745
0.0008724799126
0.0008728622607
0.000873399493
0.0008740445395
0.0008747430972
0.0008754351571
0.0008760567204
0.000876541032
0.0008768190634
0.0008747180757
0.0008750781194
0.0008755838811
0.0008761909268
0.0008768480472
0.0008774987346
0.0008780828297
0.0008785377007
0.0008787986958
0.0008768284076
0.0008771668344
0.0008776420956
0.0008782123122
0.0008788292734
0.0008794398649
0.0008799876487
0.0008804139889
0.0008806584745
0.0008788148735
0.0008791323491
0.0008795780492
0.0008801125713
0.0008806906109
0.0008812623426
0.0008817749353
0.0008821736253
0.0008824021117
0.0008806813141
0.0008809784829
0.0008813955314
0.0008818954575
0.0008824357736
0.0008829698424
0.0008834483283
0.0008838202209
0.000884033202
0.0008824314481
0.0008827089341
0.0008830982115
0.0008835646049
0.0008840683574
0.0008845659218
0.0008850113507
0.0008853572713
0.0008855552252
0.0008840688751
0.0008843272822
0.0008846896407
0.0008851235307
0.0008855918424
0.0008860540237
0.0008864674116
0.0008867881591
0.0008869715484
0.0008855970778
0.0008858369906
0.000886173255
0.0008865756377
0.0008870095948
0.0008874374781
0.0008878198083
0.0008881161557
0.0008882854282
0.0008870194243
0.0008872414082
0.0008875523764
0.0008879242154
0.000888324869
0.0008887195041
0.0008890717276
0.0008893444227
0.0008895000113
0.0008883391689
0.0008885437707
0.0008888302144
0.0008891724417
0.0008895408083
0.0008899032102
0.0008902262467
0.0008904760125
0.0008906183362
0.0008895594535
0.000889747202
0.0008900098671
0.0008903233834
0.0008906604453
0.0008909915951
0.0008912863333
0.0008915138686
0.0008916433319
0.0008906833078
0.0008908547135
0.0008910943204
0.0008913799956
0.0008916867014
0.0008919875463
0.0008922548444
0.0008924608238
0.0008925778174
0.000891713648
0.0008918692035
0.0008920864473
0.0008923451207
0.0008926223854
0.0008928938391
0.0008931345246
0.0008933195986
0.0008934244992
0.0008926532758
0.0008927934558
0.000892989006
0.0008932214858
0.0008934701907
0.0008937131328
0.0008939280024
0.0008940927973
0.0008941859675
0.0008935048754
0.0008936301363
0.0008938046367
0.0008940116998
0.0008942326916
0.0008944479674
0.0008946377864
0.0008947829034
0.0008948646914
0.0008942710103
0.0008943817898
0.0008945358576
0.0008947182489
0.0008949123391
0.0008951007579
0.0008952662588
0.0008953922736
0.0008954630126
0.0008949541188
0.0008950508353
0.0008951850603
0.0008953434912
0.0008955114544
0.0008956737886
0.00089581567
0.0008959231308
0.0008959831382
0.0008955565088
0.0008956395607
0.0008957545043
0.0008958896512
0.0008960322234
0.0008961692061
0.0008962881305
0.0008963775572
0.0008964271335
0.0008960803535
0.000896150118
0.0008962463114
0.0008963588141
0.0008964766906
0.0008965890134
0.000896685605
0.0008967574864
0.000896796914
0.000896527686
0.0008965845183
0.0008966624612
0.0008967529206
0.0008968467533
0.0008969350638
0.0008970099057
0.0008970646978
0.0008970942395
0.0008969003965
0.0008969446285
0.0008970047873
0.0008970737634
0.0008971441589
0.0008972090578
0.0008972626897
0.0008973008131
0.0008973207107
0.0008972002304
0.00089723217
0.0008972749766
0.000897322987
0.000897370504
0.0008974125432
0.0008974454587
0.0008974672965
0.0008974777691
0.0008974287915
0.0008974487216
0.0008974745726
0.0008975020907
0.0008975272389
0.0008975469193
0.0008975595644
0.0008975654607
0.0008975667038
0.0008975875477
0.0008975957267
0.0008976049825
0.0008976124377
0.0008976156774
0.0008976134492
0.0008976062217
0.0008975964806
0.0008975886654
0.0008976778443
0.0008976745059
0.0008976674922
0.0008976552713
0.0008976370149
0.0008976132786
0.0008975865293
0.0008975614162
0.0008975446898
0.0008977009219
0.0008976862774
0.0008976632882
0.0008976317389
0.0008975923552
0.0008975474658
0.0008975015025
0.0008974612465
0.0008974357334
0.000897657945
0.000897632187
0.0008975934895
0.0008975429268
0.0008974827476
0.0008974170224
0.0008973521161
0.0008972969155
0.0008972627207
0.0008975500396
0.000897513347
0.0008974591894
0.0008973899046
0.000897309236
0.0008972229649
0.0008971393609
0.0008970693918
0.0008970266059
0.0008973783415
0.0008973308866
0.0008972615077
0.0008971737816
0.0008970729179
0.0008969663793
0.0008968643116
0.0008967797398
0.0008967284459
0.0008971440533
0.0008970860106
0.0008970016531
0.0008968957721
0.000896775015
0.0008966484954
0.0008965282057
0.0008964292026
0.0008963694861
0.0008968485103
0.0008967800675
0.0008966809938
0.0008965572697
0.000896416951
0.0008962707695
0.0008961325305
0.0008960192925
0.000895951253
0.0008964932528
0.0008964146233
0.0008963011338
0.0008961599273
0.0008960004357
0.0008958349719
0.0008956791146
0.0008955518862
0.0008954756516
0.0008960801017
0.0008959915387
0.0008958639923