/*--------------------------------*- C++ -*----------------------------------*\
| =========                 |                                                 |
| \\      /  F ield         | OpenFOAM: The Open Source CFD Toolbox           |
|  \\    /   O peration     | Version:  2212                                  |
|   \\  /    A nd           | Website:  www.openfoam.com                      |
|    \\/     M anipulation  |                                                 |
\*---------------------------------------------------------------------------*/
FoamFile
{
    version     2.0;
    format      ascii;
    arch        "LSB;label=32;scalar=64";
    class       volScalarField;
    location    "19.75000000";
    object      C4H61;
}
// * * * * * * * * * * * * * * * * * * * * * * * * * * * * * * * * * * * * * //

dimensions      [0 0 0 0 0 0 0];

internalField   nonuniform List<scalar> 
3000
(
5.460962363e-24
6.134688536e-24
7.151335533e-24
8.506106444e-24
1.018523124e-23
1.214311381e-23
1.4261802e-23
1.628343842e-23
1.771299509e-23
2.050282247e-23
2.312515592e-23
2.708053507e-23
3.236312822e-23
3.896769589e-23
4.685762435e-23
5.589595603e-23
6.56264153e-23
7.424601073e-23
4.592495816e-23
5.220538179e-23
6.176882966e-23
7.475378458e-23
9.139374769e-23
1.119300931e-22
1.362819877e-22
1.630822149e-22
1.859873623e-22
8.747430107e-23
1.004782022e-22
1.205700192e-22
1.484294959e-22
1.850435338e-22
2.313423893e-22
2.870733399e-22
3.477748032e-22
3.967694583e-22
1.553293736e-22
1.806097555e-22
2.202842749e-22
2.763679578e-22
3.514983043e-22
4.477806418e-22
5.636062144e-22
6.866074462e-22
7.81027031e-22
2.670945306e-22
3.145405452e-22
3.900687954e-22
4.984985729e-22
6.456128683e-22
8.351122435e-22
1.061335947e-21
1.295754791e-21
1.469182846e-21
4.534173015e-22
5.405668691e-22
6.809152025e-22
8.84677225e-22
1.163197482e-21
1.522010701e-21
1.946274269e-21
2.377328864e-21
2.688357762e-21
7.673060835e-22
9.250181201e-22
1.181263029e-21
1.556169017e-21
2.070643515e-21
2.732090899e-21
3.507323594e-21
4.283500975e-21
4.834214815e-21
1.300606795e-21
1.583000152e-21
2.044794093e-21
2.723862879e-21
3.657397934e-21
4.854370264e-21
6.247159731e-21
7.62714724e-21
8.595475487e-21
2.212360222e-21
2.71403312e-21
3.538177019e-21
4.754016935e-21
6.426516372e-21
8.56538952e-21
1.104040963e-20
1.347472511e-20
1.517019324e-20
3.778164589e-21
4.664175691e-21
6.12435702e-21
8.282932599e-21
1.125241494e-20
1.504150585e-20
1.940809528e-20
2.368092815e-20
2.664201947e-20
6.475732619e-21
8.033681347e-21
1.060692733e-20
1.441584801e-20
1.965472322e-20
2.632781731e-20
3.399496204e-20
4.147063541e-20
4.663348675e-20
1.113345728e-20
1.386402806e-20
1.838101085e-20
2.507255912e-20
3.427401382e-20
4.597873296e-20
5.939796413e-20
7.244912759e-20
8.144094895e-20
1.91882081e-20
2.396246586e-20
3.18686576e-20
4.358732903e-20
5.969769798e-20
8.017023498e-20
1.0360489e-19
1.263558458e-19
1.420037769e-19
3.313271587e-20
4.146531566e-20
5.527458065e-20
7.575013288e-20
1.038933298e-19
1.396298371e-19
1.804903023e-19
2.201071459e-19
2.473215508e-19
5.729189497e-20
7.181545392e-20
9.589763077e-20
1.316136781e-19
1.80696138e-19
2.429861948e-19
3.141474718e-19
3.830769588e-19
4.303833718e-19
9.917013451e-20
1.24458849e-19
1.664071555e-19
2.286300113e-19
3.141268926e-19
4.225832926e-19
5.464075852e-19
6.662619021e-19
7.484604944e-19
1.717900742e-19
2.157898351e-19
2.887952435e-19
3.97096792e-19
5.458897254e-19
7.345767557e-19
9.498958665e-19
1.158196252e-18
1.300978901e-18
2.977534004e-19
3.74265429e-19
5.012401252e-19
6.896156185e-19
9.483933775e-19
1.276467565e-18
1.650705696e-18
2.01259022e-18
2.260547712e-18
5.162921758e-19
6.492863987e-19
8.700246141e-19
1.197515733e-18
1.647359078e-18
2.21753982e-18
2.867753894e-18
3.496287085e-18
3.926803654e-18
8.955128086e-19
1.126618597e-18
1.510230585e-18
2.079367315e-18
2.861061557e-18
3.851676797e-18
4.981046359e-18
6.072443752e-18
6.819838414e-18
1.553653989e-18
1.955167254e-18
2.621665548e-18
3.610472775e-18
4.968420201e-18
6.688970389e-18
8.650030987e-18
1.054465864e-17
1.184183351e-17
2.695987682e-18
3.39345329e-18
4.551219469e-18
6.26874753e-18
8.627112462e-18
1.16145526e-17
1.501867315e-17
1.830653425e-17
2.055701646e-17
4.678844769e-18
5.890244862e-18
7.901023693e-18
1.08836318e-17
1.497829142e-17
2.016375832e-17
2.607055411e-17
3.177366283e-17
3.56761221e-17
8.120669489e-18
1.022441107e-17
1.371601341e-17
1.889420843e-17
2.600116711e-17
3.49982418e-17
4.524261826e-17
5.51294249e-17
6.189195783e-17
1.409448184e-17
1.774726486e-17
2.380882778e-17
3.279603586e-17
4.512626157e-17
6.072848109e-17
7.848409012e-17
9.561019368e-17
1.073181633e-16
2.446101381e-17
3.080193264e-17
4.132174726e-17
5.691333791e-17
7.829403239e-17
1.053316358e-16
1.360788853e-16
1.657135552e-16
1.859583149e-16
4.244451929e-17
5.34479797e-17
7.169700412e-17
9.873088325e-17
1.357779282e-16
1.825885448e-16
2.357713549e-16
2.869781756e-16
3.219262674e-16
7.362605169e-17
9.271075388e-17
1.243481249e-16
1.711848013e-16
2.353139336e-16
3.162572226e-16
4.081052052e-16
4.964236438e-16
5.566233394e-16
1.276526987e-16
1.607296589e-16
2.155301364e-16
2.96589186e-16
4.074515081e-16
5.471875713e-16
7.054954199e-16
8.574592155e-16
9.608693377e-16
2.211700176e-16
2.784399283e-16
3.732501578e-16
5.133378278e-16
7.046580487e-16
9.453826275e-16
1.217546942e-15
1.478235774e-15
1.655257429e-15
3.82835117e-16
4.818575521e-16
6.456310612e-16
8.872835889e-16
1.216718982e-15
1.630309746e-15
2.096730292e-15
2.542271312e-15
2.844019085e-15
6.618510175e-16
8.327578758e-16
1.115080659e-15
1.530942997e-15
2.096607169e-15
2.80483974e-15
3.601048536e-15
4.35908763e-15
4.870824581e-15
1.142426504e-15
1.436721913e-15
1.922148623e-15
2.635679534e-15
3.603593601e-15
4.811455613e-15
6.164254158e-15
7.447071018e-15
8.309746981e-15
1.968144077e-15
2.473447943e-15
3.305413962e-15
4.525206745e-15
6.174445916e-15
8.224421291e-15
1.051016849e-14
1.266753593e-14
1.411183515e-14
3.382780023e-15
4.247318317e-15
5.667653718e-15
7.743744386e-15
1.053984809e-14
1.399927737e-14
1.783665225e-14
2.143902514e-14
2.383840775e-14
5.798235341e-15
7.271124976e-15
9.684666263e-15
1.319986058e-14
1.791271625e-14
2.371250596e-14
3.010805181e-14
3.607558389e-14
4.002770615e-14
9.90677443e-15
1.24035683e-14
1.648258179e-14
2.239872699e-14
3.028933416e-14
3.994108633e-14
5.051424527e-14
6.031395534e-14
6.676385781e-14
1.686503525e-14
2.107308878e-14
2.79238989e-14
3.781300741e-14
5.092518991e-14
6.685614171e-14
8.418211478e-14
1.001249055e-13
1.105488555e-13
2.859319255e-14
3.563884515e-14
4.706411651e-14
6.346839673e-14
8.5077807e-14
1.111399583e-13
1.392646498e-13
1.649467135e-13
1.816231235e-13
4.825700121e-14
5.996716377e-14
7.887286256e-14
1.058573766e-13
1.411524979e-13
1.833854788e-13
2.285884732e-13
2.695391447e-13
2.959433245e-13
8.103714766e-14
1.003426717e-13
1.313602428e-13
1.753487982e-13
2.324490192e-13
3.002076711e-13
3.721186842e-13
4.36740752e-13
4.781144491e-13
1.35344845e-13
1.66893262e-13
2.173167667e-13
2.883379592e-13
3.797947552e-13
4.873949121e-13
6.006092863e-13
7.015305406e-13
7.65696722e-13
2.247223525e-13
2.757947548e-13
3.569718779e-13
4.704908836e-13
6.154732498e-13
7.845667518e-13
9.609602182e-13
1.116959842e-12
1.215479915e-12
3.707821025e-13
4.526450818e-13
5.820130702e-13
7.61589886e-13
9.890293625e-13
1.251997346e-12
1.524014734e-12
1.762749389e-12
1.912556662e-12
6.077018128e-13
7.375732002e-13
9.416001458e-13
1.222702172e-12
1.575772911e-12
1.980532268e-12
2.395826206e-12
2.757664179e-12
2.983357337e-12
9.890234766e-13
1.192894019e-12
1.51127842e-12
1.946692466e-12
2.489137152e-12
3.105898697e-12
3.733832131e-12
4.27721749e-12
4.614265922e-12
1.597826151e-12
1.914463796e-12
2.406069449e-12
3.073516294e-12
3.898511936e-12
4.829223522e-12
5.769936706e-12
6.578859516e-12
7.07806505e-12
2.561790192e-12
3.048367305e-12
3.799537981e-12
4.812306267e-12
6.054811696e-12
7.446283066e-12
8.843278886e-12
1.003763647e-11
1.077132075e-11
4.075292112e-12
4.815230052e-12
5.951355116e-12
7.473060116e-12
9.326921183e-12
1.138898254e-11
1.344652576e-11
1.519644607e-11
1.626699862e-11
6.431532267e-12
7.545368268e-12
9.246877967e-12
1.151183976e-11
1.425337446e-11
1.728389475e-11
2.02909801e-11
2.28365554e-11
2.438822837e-11
1.006889815e-11
1.172927234e-11
1.425366199e-11
1.759492427e-11
2.161529473e-11
2.603450488e-11
3.039777363e-11
3.407618083e-11
3.631133386e-11
1.563743572e-11
1.808971599e-11
2.180164292e-11
2.668913885e-11
3.253864351e-11
3.893624935e-11
4.522519736e-11
5.050797531e-11
5.37093367e-11
2.409193773e-11
2.768220147e-11
3.309489915e-11
4.018841627e-11
4.86376466e-11
5.783753037e-11
6.684633066e-11
7.439021766e-11
7.895124768e-11
3.6824938e-11
4.203852539e-11
4.987039017e-11
6.009142861e-11
7.221435767e-11
8.536264073e-11
9.819450666e-11
1.089109146e-10
1.153774025e-10
5.585331918e-11
6.336731197e-11
7.461897209e-11
8.924873592e-11
1.065359566e-10
1.252210013e-10
1.434031216e-10
1.585528306e-10
1.676795892e-10
8.407934936e-11
9.483400423e-11
1.108932121e-10
1.317059401e-10
1.562187174e-10
1.826343633e-10
2.082742536e-10
2.295962738e-10
2.424243222e-10
1.256545083e-10
1.409503502e-10
1.637345251e-10
1.931786348e-10
2.277581646e-10
2.649254443e-10
3.009233334e-10
3.308099911e-10
3.487714767e-10
1.86484734e-10
2.081143452e-10
2.402640099e-10
2.817078588e-10
3.302591213e-10
3.823269956e-10
4.326639364e-10
4.743984561e-10
4.994590651e-10
2.749297077e-10
3.053563722e-10
3.504973062e-10
4.085621813e-10
4.764384776e-10
5.490912181e-10
6.192194055e-10
6.772978537e-10
7.121499226e-10
4.027676518e-10
4.453672026e-10
5.084652695e-10
5.894759949e-10
6.83999228e-10
7.850075798e-10
8.823784735e-10
9.629454759e-10
1.011269457e-09
5.86522429e-10
6.459102422e-10
7.337510471e-10
8.46344997e-10
9.775087445e-10
1.117474693e-09
1.252252706e-09
1.363690398e-09
1.430508393e-09
8.492835386e-10
9.317560765e-10
1.053592539e-09
1.209541694e-09
1.390960094e-09
1.584321965e-09
1.770347685e-09
1.924070738e-09
2.016223895e-09
1.223194411e-09
1.337324629e-09
1.505750066e-09
1.721069158e-09
1.971255846e-09
2.237642939e-09
2.493731378e-09
2.705258729e-09
2.832050974e-09
1.752843179e-09
1.910282204e-09
2.142405727e-09
2.438843845e-09
2.782933261e-09
3.148988926e-09
3.500676756e-09
3.791074138e-09
3.965138824e-09
2.499866098e-09
2.716420788e-09
3.035446991e-09
3.442492024e-09
3.914552291e-09
4.416383431e-09
4.898276591e-09
5.296094863e-09
5.534559418e-09
3.549169982e-09
3.846248283e-09
4.283595967e-09
4.8411628e-09
5.487297405e-09
6.173759272e-09
6.832681113e-09
7.37655558e-09
7.702603334e-09
5.017297951e-09
5.42384238e-09
6.021978757e-09
6.784005232e-09
7.666502154e-09
8.603592578e-09
9.502795357e-09
1.024492295e-08
1.068988219e-08
7.063600274e-09
7.618664844e-09
8.43488315e-09
9.474123456e-09
1.067698667e-08
1.195370513e-08
1.317848591e-08
1.418926165e-08
1.479539041e-08
9.905019488e-09
1.066118602e-08
1.177261432e-08
1.318699602e-08
1.482328341e-08
1.655940573e-08
1.822455989e-08
1.95987302e-08
2.042291038e-08
1.383543354e-08
1.486330512e-08
1.637349559e-08
1.829448494e-08
2.051596824e-08
2.287228576e-08
2.5131926e-08
2.69966945e-08
2.811529495e-08
1.925057912e-08
2.064461982e-08
2.26921131e-08
2.529559006e-08
2.830531662e-08
3.149695596e-08
3.45572885e-08
3.708286087e-08
3.859805726e-08
2.667952874e-08
2.856551576e-08
3.133476619e-08
3.485489214e-08
3.892319874e-08
4.323659741e-08
4.737219883e-08
5.078520656e-08
5.283301338e-08
3.682341844e-08
3.936769101e-08
4.310260533e-08
4.784897482e-08
5.333325054e-08
5.914705914e-08
6.472087198e-08
6.932082242e-08
7.208090634e-08
5.060149579e-08
5.402195783e-08
5.904193231e-08
6.541977273e-08
7.278757279e-08
8.059691523e-08
8.808327601e-08
9.426135983e-08
9.796818897e-08
6.920346301e-08
7.378184004e-08
8.049944003e-08
8.903155135e-08
9.888522774e-08
1.093269749e-07
1.19335021e-07
1.275927852e-07
1.325465077e-07
9.414545292e-08
1.00239558e-07
1.091777688e-07
1.20525117e-07
1.336236937e-07
1.474972753e-07
1.607884141e-07
1.717501794e-07
1.78323183e-07
1.273247797e-07
1.353785494e-07
1.471839242e-07
1.621594647e-07
1.794302299e-07
1.977041189e-07
2.151915797e-07
2.295978629e-07
2.382265645e-07
1.710657998e-07
1.816138435e-07
1.970603441e-07
2.166286137e-07
2.39158301e-07
2.629488562e-07
2.856621823e-07
3.043223774e-07
3.154638564e-07
2.28145484e-07
2.418081942e-07
2.617858036e-07
2.870406522e-07
3.160373408e-07
3.46550635e-07
3.755544561e-07
3.992466478e-07
4.132799514e-07
3.017819406e-07
3.192470092e-07
3.447295579e-07
3.768446401e-07
4.135679539e-07
4.520110641e-07
4.883108475e-07
5.177287463e-07
5.351103664e-07
3.955619743e-07
4.175485695e-07
4.495360308e-07
4.89683365e-07
5.353451109e-07
5.828224782e-07
6.273263183e-07
6.63292388e-07
6.845066765e-07
5.132772503e-07
5.404800577e-07
5.799175944e-07
6.291657068e-07
6.848208034e-07
7.423473546e-07
7.961318284e-07
8.395157959e-07
8.650712291e-07
6.586410621e-07
6.916653865e-07
7.393597233e-07
7.985804113e-07
8.652675542e-07
9.34053102e-07
9.982488387e-07
1.049952422e-06
1.08037165e-06
8.349055122e-07
8.742026484e-07
9.308384758e-07
1.001085438e-06
1.080042574e-06
1.161346281e-06
1.237105341e-06
1.29803515e-06
1.333839132e-06
1.044845176e-06
1.091049661e-06
1.157559835e-06
1.239953816e-06
1.332423468e-06
1.427490362e-06
1.51593621e-06
1.586966857e-06
1.628654409e-06
1.291634396e-06
1.345390435e-06
1.422689589e-06
1.518325206e-06
1.625492645e-06
1.735491876e-06
1.837665988e-06
1.919599915e-06
1.967625362e-06
1.578365923e-06
1.640276757e-06
1.729207439e-06
1.839082647e-06
1.962011063e-06
2.087975199e-06
2.204784397e-06
2.298311909e-06
2.353062687e-06
1.907886893e-06
1.978475723e-06
2.079759361e-06
2.204716659e-06
2.344287641e-06
2.487056257e-06
2.619223498e-06
2.724885207e-06
2.786660653e-06
2.28264302e-06
2.362321163e-06
2.476515624e-06
2.617192145e-06
2.77405365e-06
2.934223449e-06
3.082244117e-06
3.200397471e-06
3.269389854e-06
2.704535931e-06
2.793576767e-06
2.921040902e-06
3.077826936e-06
3.252349799e-06
3.430232865e-06
3.594338289e-06
3.725129734e-06
3.801408481e-06
3.174797965e-06
3.273316324e-06
3.414181865e-06
3.587188258e-06
3.779432306e-06
3.975023987e-06
4.155153785e-06
4.29849796e-06
4.38199797e-06
3.693888427e-06
3.801825628e-06
3.955977034e-06
4.145012323e-06
4.354703312e-06
4.567661161e-06
4.76344588e-06
4.919013091e-06
5.009527899e-06
4.261415327e-06
4.378530298e-06
4.545593287e-06
4.750151544e-06
4.976670064e-06
5.206305063e-06
5.417060238e-06
5.584273114e-06
5.681453449e-06
4.876086366e-06
5.0019533e-06
5.181292721e-06
5.40055288e-06
5.642936044e-06
5.888216868e-06
6.112949125e-06
6.29098889e-06
6.394346861e-06
5.535692229e-06
5.669705039e-06
5.860432427e-06
6.09326942e-06
6.350225574e-06
6.609795982e-06
6.847221138e-06
7.03504338e-06
7.143962166e-06
6.237123881e-06
6.378507425e-06
6.5794981e-06
6.824505524e-06
7.094441496e-06
7.366650191e-06
7.615222574e-06
7.811581762e-06
7.925330357e-06
6.976423827e-06
7.12425147e-06
7.334170513e-06
7.589693853e-06
7.870753509e-06
8.153695035e-06
8.411646555e-06
8.615128044e-06
8.732880248e-06
7.748869321e-06
7.902086041e-06
8.119421907e-06
8.383600717e-06
8.673712898e-06
8.965277472e-06
9.230664387e-06
9.43972219e-06
9.560578819e-06
8.54908358e-06
8.706533473e-06
8.929637581e-06
9.200454479e-06
9.497387854e-06
9.79531755e-06
1.006607247e-05
1.027907079e-05
1.040208391e-05
9.371169463e-06
9.531626258e-06
9.758756542e-06
1.003409053e-05
1.033551258e-05
1.063746097e-05
1.091144742e-05
1.11267038e-05
1.125090175e-05
1.020885885e-05
1.037105792e-05
1.060042418e-05
1.087810564e-05
1.118164284e-05
1.148523522e-05
1.176030218e-05
1.197613021e-05
1.210054216e-05
1.105567034e-05
1.121834068e-05
1.144814959e-05
1.172601441e-05
1.202931085e-05
1.233220223e-05
1.260623604e-05
1.28209857e-05
1.294466477e-05
1.190506786e-05
1.206696256e-05
1.229546034e-05
1.257140075e-05
1.287217268e-05
1.31721012e-05
1.344307298e-05
1.365516709e-05
1.377721098e-05
1.275061307e-05
1.291053719e-05
1.313604819e-05
1.340805843e-05
1.370414274e-05
1.399897658e-05
1.426498329e-05
1.447294877e-05
1.459251742e-05
1.35861057e-05
1.374294034e-05
1.39639004e-05
1.423011567e-05
1.451951073e-05
1.480728715e-05
1.506658537e-05
1.52690786e-05
1.538540832e-05
1.440570674e-05
1.455842891e-05
1.477341238e-05
1.503214014e-05
1.531303813e-05
1.559199387e-05
1.584302555e-05
1.603885144e-05
1.615126541e-05
1.52040412e-05
1.535173886e-05
1.555947902e-05
1.580922218e-05
1.608003261e-05
1.63486253e-05
1.659003555e-05
1.677816029e-05
1.688607536e-05
1.597627826e-05
1.611816067e-05
1.631756344e-05
1.655703547e-05
1.68163998e-05
1.707332087e-05
1.73039679e-05
1.748352565e-05
1.758645577e-05
1.671818835e-05
1.685359182e-05
1.704374294e-05
1.72718753e-05
1.751867349e-05
1.776285286e-05
1.798181083e-05
1.815210501e-05
1.824966153e-05
1.74261776e-05
1.755456692e-05
1.773473334e-05
1.795067597e-05
1.818402554e-05
1.84146293e-05
1.862118497e-05
1.878168471e-05
1.887357401e-05
1.809730116e-05
1.821826741e-05
1.838789353e-05
1.859100933e-05
1.881025816e-05
1.902668018e-05
1.92203242e-05
1.937065692e-05
1.945667581e-05
1.872925786e-05
1.884251304e-05
1.900121265e-05
1.919106702e-05
1.939578101e-05
1.959762962e-05
1.977804383e-05
1.991798467e-05
1.99980141e-05
1.932036874e-05
1.942573799e-05
1.957328288e-05
1.974962939e-05
1.993957618e-05
2.012665726e-05
2.029369873e-05
2.042315774e-05
2.04971553e-05
1.986954265e-05
1.996695462e-05
2.010326076e-05
2.026602403e-05
2.044115389e-05
2.061345139e-05
2.076713448e-05
2.088614235e-05
2.095413389e-05
2.037623188e-05
2.046570783e-05
2.059081992e-05
2.074007679e-05
2.090050181e-05
2.105815677e-05
2.119863399e-05
2.130732691e-05
2.136939788e-05
2.084038071e-05
2.092202306e-05
2.103609818e-05
2.117205794e-05
2.131803044e-05
2.146131939e-05
2.158886186e-05
2.168746626e-05
2.174375285e-05
2.126236973e-05
2.133635029e-05
2.143964142e-05
2.156262592e-05
2.169451683e-05
2.182383034e-05
2.193880853e-05
2.202762607e-05
2.207830668e-05
2.164295813e-05
2.170950656e-05
2.18023464e-05
2.191277062e-05
2.203104854e-05
2.214687054e-05
2.224973577e-05
2.232912898e-05
2.237441598e-05
2.198322605e-05
2.204261887e-05
2.212540433e-05
2.222375795e-05
2.23289693e-05
2.243185761e-05
2.252312471e-05
2.259350364e-05
2.263363579e-05
2.228451866e-05
2.233706887e-05
2.241024672e-05
2.249707697e-05
2.258982766e-05
2.268039598e-05
2.276062738e-05
2.282243735e-05
2.285767283e-05
2.254839309e-05
2.259444075e-05
2.265849444e-05
2.273439051e-05
2.281532926e-05
2.289423104e-05
2.296402242e-05
2.301773304e-05
2.304834326e-05
2.277656928e-05
2.281647303e-05
2.287191091e-05
2.293749004e-05
2.300729358e-05
2.307520756e-05
2.313517526e-05
2.318127074e-05
2.320753485e-05
2.297088519e-05
2.300501479e-05
2.30523598e-05
2.310825503e-05
2.316761519e-05
2.322523292e-05
2.32760029e-05
2.33149737e-05
2.33371739e-05
2.313325687e-05
2.316198674e-05
2.320176744e-05
2.324861718e-05
2.329822979e-05
2.334624491e-05
2.338844343e-05
2.342077918e-05
2.34391967e-05
2.326564334e-05
2.328934714e-05
2.332209019e-05
2.336052933e-05
2.340108486e-05
2.344018418e-05
2.347442998e-05
2.350061354e-05
2.351552536e-05
2.337001644e-05
2.338906245e-05
2.341528637e-05
2.344593895e-05
2.34781149e-05
2.350897102e-05
2.353586899e-05
2.355637163e-05
2.356804779e-05
2.344833516e-05
2.346308268e-05
2.348329276e-05
2.350676611e-05
2.353122079e-05
2.355448625e-05
2.35746223e-05
2.358989995e-05
2.359860139e-05
2.350252452e-05
2.351332091e-05
2.352800524e-05
2.354488534e-05
2.356225309e-05
2.357855578e-05
2.359249298e-05
2.360298328e-05
2.360896026e-05
2.353445834e-05
2.354163683e-05
2.355126325e-05
2.356211123e-05
2.357299881e-05
2.358293862e-05
2.359121432e-05
2.359733447e-05
2.360082538e-05
2.354594575e-05
2.354982377e-05
2.355483773e-05
2.356018738e-05
2.356517139e-05
2.356931782e-05
2.35724416e-05
2.357458691e-05
2.357581748e-05
2.353872082e-05
2.353959898e-05
2.354042201e-05
2.354077808e-05
2.354040333e-05
2.353929394e-05
2.353774641e-05
2.353628942e-05
2.353547225e-05
2.351443516e-05
2.351259654e-05
2.350962541e-05
2.35054627e-05
2.350024125e-05
2.349438092e-05
2.348861309e-05
2.348390314e-05
2.348123746e-05
2.347465285e-05
2.347036274e-05
2.34639691e-05
2.345573209e-05
2.344614297e-05
2.343600367e-05
2.342643688e-05
2.341880012e-05
2.341447184e-05
2.342084753e-05
2.341435341e-05
2.340488387e-05
2.339298685e-05
2.33794763e-05
2.33654974e-05
2.335252361e-05
2.334226328e-05
2.333644518e-05
2.335440118e-05
2.334593303e-05
2.333370951e-05
2.331853711e-05
2.330151919e-05
2.328410814e-05
2.326809064e-05
2.325548765e-05
2.32483397e-05
2.327660437e-05
2.326637506e-05
2.325169549e-05
2.323360351e-05
2.321346104e-05
2.319299436e-05
2.317426868e-05
2.315958234e-05
2.315125217e-05
2.318865764e-05
2.317686357e-05
2.316000272e-05
2.313931918e-05
2.311640494e-05
2.309322942e-05
2.307210445e-05
2.305557338e-05
2.304619676e-05
2.309167382e-05
2.30784956e-05
2.305970609e-05
2.303673245e-05
2.301137053e-05
2.298580462e-05
2.296256388e-05
2.294440699e-05
2.293410845e-05
2.298668102e-05
2.297228425e-05
2.295179766e-05
2.292681018e-05
2.289929745e-05
2.287163273e-05
2.28465357e-05
2.282695329e-05
2.281584671e-05
2.287462617e-05
2.285916228e-05
2.283719029e-05
2.281044143e-05
2.278104911e-05
2.275155185e-05
2.272483541e-05
2.270401022e-05
2.269219948e-05
2.275637888e-05
2.273998597e-05
2.271672161e-05
2.268844151e-05
2.265741672e-05
2.262632947e-05
2.259820927e-05
2.257630765e-05
2.256388725e-05
2.263273561e-05
2.261553932e-05
2.259115815e-05
2.256155608e-05
2.252912345e-05
2.249666659e-05
2.246733854e-05
2.24445115e-05
2.243156724e-05
2.250442382e-05
2.24865382e-05
2.246119956e-05
2.243046536e-05
2.239682864e-05
2.236320196e-05
2.233284357e-05
2.230922794e-05
2.229583749e-05
2.237210618e-05
2.235363459e-05
2.232748281e-05
2.229578836e-05
2.226113192e-05
2.222651617e-05
2.219528797e-05
2.21710074e-05
2.215724095e-05
2.223638463e-05
2.221742067e-05
2.219058632e-05
2.2158087e-05
2.212257739e-05
2.208713573e-05
2.205518257e-05
2.20303486e-05
2.201626943e-05
2.209780421e-05
2.207843286e-05
2.205103402e-05
2.201787012e-05
2.198165754e-05
2.194553702e-05
2.191298935e-05
2.188770238e-05
2.187336742e-05
2.195685749e-05
2.193715598e-05
2.190929945e-05
2.187559747e-05
2.18388172e-05
2.180215009e-05
2.176912518e-05
2.174347539e-05
2.172893577e-05
2.181399007e-05
2.179402758e-05
2.176580981e-05
2.17316837e-05
2.16944573e-05
2.165736237e-05
2.162396541e-05
2.159803365e-05
2.158333515e-05
2.166960476e-05
2.164944273e-05
2.162095022e-05
2.158650212e-05
2.154893856e-05
2.151152216e-05
2.147784729e-05
2.145170588e-05
2.143688944e-05
2.152406486e-05
2.150375796e-05
2.147506716e-05
2.144038825e-05
2.140258486e-05
2.136494198e-05
2.133107322e-05
2.130478666e-05
2.128988879e-05
2.13776962e-05
2.135729271e-05
2.132847157e-05
2.129364295e-05
2.125568638e-05
2.121790158e-05
2.118391371e-05
2.11575394e-05
2.114259255e-05
2.12307906e-05
2.121033325e-05
2.118144144e-05
2.114653529e-05
2.110850249e-05
2.107065082e-05
2.10366102e-05
2.101019904e-05
2.099523198e-05
2.108360886e-05
2.10631356e-05
2.103422625e-05
2.099930575e-05
2.096126457e-05
2.092341234e-05
2.088937763e-05
2.08629746e-05
2.084801277e-05
2.093638321e-05
2.091592745e-05
2.088704712e-05
2.08521681e-05
2.081417829e-05
2.07763839e-05
2.074240675e-05
2.071605149e-05
2.070111729e-05
2.078931981e-05
2.076891092e-05
2.074010057e-05
2.070531182e-05
2.066742584e-05
2.062974058e-05
2.059586637e-05
2.056959366e-05
2.055470674e-05
2.06426011e-05
2.062226477e-05
2.05935602e-05
2.055890418e-05
2.052116807e-05
2.048363687e-05
2.044990531e-05
2.042374559e-05
2.040892313e-05
2.049638807e-05
2.047614676e-05
2.044757928e-05
2.041309334e-05
2.037554686e-05
2.033820872e-05
2.030465435e-05
2.027863409e-05
2.026389105e-05
2.035082218e-05
2.033069537e-05
2.030229213e-05
2.02680084e-05
2.023068628e-05
2.019357512e-05
2.016022788e-05
2.013437003e-05
2.011971935e-05
2.020602728e-05
2.018603182e-05
2.015781622e-05
2.012376245e-05
2.008669471e-05
2.004983977e-05
2.001672551e-05
1.999104985e-05
1.997650268e-05
2.00621114e-05
2.004226179e-05
2.001425402e-05
1.998045416e-05
1.994366639e-05
1.990709271e-05
1.987423353e-05
1.984875699e-05
1.983432287e-05
1.991916825e-05
1.989947692e-05
1.987169428e-05
1.983816892e-05
1.980168274e-05
1.976541156e-05
1.973282624e-05
1.970756318e-05
1.969325021e-05
1.977727865e-05
1.975775612e-05
1.973021321e-05
1.969697948e-05
1.966081344e-05
1.962486273e-05
1.95925671e-05
1.956752961e-05
1.95533446e-05
1.963651184e-05
1.961716696e-05
1.958987602e-05
1.955694839e-05
1.952111788e-05
1.948550263e-05
1.945350988e-05
1.942870803e-05
1.941465664e-05
1.949692665e-05
1.947776676e-05
1.945073796e-05
1.94181284e-05
1.938264611e-05
1.934737866e-05
1.931569965e-05
1.929114171e-05
1.927722858e-05
1.935857258e-05
1.933960368e-05
1.931284534e-05
1.928056361e-05
1.924543984e-05
1.921053019e-05
1.917917369e-05
1.915486633e-05
1.91410952e-05
1.92214908e-05
1.920271773e-05
1.91762365e-05
1.914429038e-05
1.910953333e-05
1.907498941e-05
1.904396237e-05
1.901991084e-05
1.900628466e-05
1.908571503e-05
1.906714158e-05
1.904094265e-05
1.900933821e-05
1.897495422e-05
1.894078214e-05
1.891008987e-05
1.888629821e-05
1.887281921e-05
1.895127242e-05
1.893290143e-05
1.890698871e-05
1.887573048e-05
1.884172425e-05
1.880792852e-05
1.877757493e-05
1.875404606e-05
1.874071589e-05
1.881818424e-05
1.880001776e-05
1.877439404e-05
1.87434852e-05
1.870986002e-05
1.867644375e-05
1.864643151e-05
1.862316742e-05
1.860998716e-05
1.868646663e-05
1.8668506e-05
1.864317307e-05
1.861261566e-05
1.857937356e-05
1.854633865e-05
1.851666936e-05
1.849367122e-05
1.848064149e-05
1.855613119e-05
1.853837716e-05
1.851333597e-05
1.848313102e-05
1.845027297e-05
1.84176203e-05
1.838829463e-05
1.836556291e-05
1.835268397e-05
1.842718567e-05
1.840963844e-05
1.838488924e-05
1.835503693e-05
1.832256301e-05
1.829029256e-05
1.826131044e-05
1.823884501e-05
1.822611677e-05
1.829963448e-05
1.828229383e-05
1.825783626e-05
1.822833607e-05
1.819624561e-05
1.816435665e-05
1.813571737e-05
1.811351767e-05
1.810093978e-05
1.817347928e-05
1.815634466e-05
1.813217787e-05
1.810302872e-05
1.807132048e-05
1.803981174e-05
1.801151412e-05
1.798957919e-05
1.797715111e-05
1.80487196e-05
1.803179018e-05
1.800791297e-05
1.797911338e-05
1.794778571e-05
1.791665551e-05
1.788869803e-05
1.78670267e-05
1.785474778e-05
1.792535343e-05
1.790862821e-05
1.788503917e-05
1.78565874e-05
1.782563839e-05
1.779488486e-05
1.776726586e-05
1.774585685e-05
1.773372637e-05
1.780337795e-05
1.778685587e-05
1.77635535e-05
1.773544775e-05
1.770487545e-05
1.767449671e-05
1.764721454e-05
1.762606664e-05
1.761408394e-05
1.768279031e-05
1.766647035e-05
1.764345325e-05
1.761569186e-05
1.758549453e-05
1.755548894e-05
1.752854225e-05
1.750765446e-05
1.749581903e-05
1.756358863e-05
1.754746999e-05
1.752473704e-05
1.749731877e-05
1.746749516e-05
1.743786164e-05
1.741124958e-05
1.739062141e-05
1.737893303e-05
1.744577324e-05
1.742985547e-05
1.740740615e-05
1.738033046e-05
1.735088019e-05
1.732161858e-05
1.729534127e-05
1.727497297e-05
1.726343189e-05
1.732934817e-05
1.731363146e-05
1.729146611e-05
1.726473364e-05
1.723565766e-05
1.720676926e-05
1.718082818e-05
1.716072116e-05
1.714932834e-05
1.721432315e-05
1.719880855e-05
1.717692887e-05
1.715054195e-05
1.71218432e-05
1.709333139e-05
1.706773003e-05
1.704788738e-05
1.703664475e-05
1.710071601e-05
1.708540592e-05
1.706381547e-05
1.703777875e-05
1.700946302e-05
1.698133414e-05
1.695607883e-05
1.693650594e-05
1.692541685e-05
1.698855592e-05
1.69734545e-05
1.695215952e-05
1.69264811e-05
1.689855788e-05
1.687082229e-05
1.684592321e-05
1.682662868e-05
1.681569837e-05
1.68778872e-05
1.686300108e-05
1.684201137e-05
1.681670386e-05
1.67891878e-05
1.676186133e-05
1.673733389e-05
1.671833061e-05
1.670756691e-05
1.676877417e-05
1.675411323e-05
1.673344334e-05
1.67085253e-05
1.668143801e-05
1.665454378e-05
1.663041035e-05
1.661171696e-05
1.660113113e-05
1.666130708e-05
1.664688544e-05
1.662655609e-05
1.660205388e-05
1.657542613e-05
1.654899687e-05
1.652528898e-05
1.650693164e-05
1.649653947e-05
1.655560917e-05
1.65414465e-05
1.652148652e-05
1.649743671e-05
1.647131093e-05
1.64453917e-05
1.642215268e-05
1.640416726e-05
1.639399038e-05
1.645184497e-05
1.643796801e-05
1.641841652e-05
1.639486872e-05
1.63693022e-05
1.634395379e-05
1.632124196e-05
1.630367674e-05
1.629374426e-05
1.635022978e-05
1.633667412e-05
1.631758314e-05
1.629460316e-05
1.626967204e-05
1.624497498e-05
1.622286753e-05
1.620578634e-05
1.619613671e-05
1.62510403e-05
1.623785251e-05
1.621929004e-05
1.619696405e-05
1.617276759e-05
1.614882677e-05
1.612742411e-05
1.611090992e-05
1.610159321e-05
1.615462629e-05
1.614186632e-05
1.612391988e-05
1.61023588e-05
1.607902446e-05
1.605597434e-05
1.603540505e-05
1.601956411e-05
1.601064442e-05
1.606142283e-05
1.604916671e-05
1.603194727e-05
1.601129184e-05
1.598898088e-05
1.596699122e-05
1.594741743e-05
1.593238362e-05
1.592394179e-05
1.597196303e-05
1.596030577e-05
1.594395272e-05
1.592437863e-05
1.590329184e-05
1.588257363e-05
1.586419661e-05
1.585013609e-05
1.584227247e-05
1.588689091e-05
1.587595058e-05
1.586063614e-05
1.584235915e-05
1.582274254e-05
1.580355387e-05
1.578661957e-05
1.577373523e-05
1.576657241e-05
1.58069765e-05
1.579689698e-05
1.578282926e-05
1.576610975e-05
1.574825986e-05
1.57309114e-05
1.571571547e-05
1.570425109e-05
1.569793642e-05
1.573312683e-05
1.572407895e-05
1.571150515e-05
1.569665223e-05
1.568092064e-05
1.56657802e-05
1.565267229e-05
1.564291594e-05
1.563762351e-05
1.566639148e-05
1.565857493e-05
1.5647784e-05
1.563515867e-05
1.562195537e-05
1.560945115e-05
1.55988377e-05
1.559112386e-05
1.558705579e-05
1.560796516e-05
1.560160981e-05
1.559293405e-05
1.558295083e-05
1.557274573e-05
1.556336756e-05
1.555571258e-05
1.555042259e-05
1.554780912e-05
1.555918511e-05
1.555455113e-05
1.554836611e-05
1.554149258e-05
1.553481452e-05
1.552911223e-05
1.552493538e-05
1.552249545e-05
1.552159365e-05
1.552152148e-05
1.551889794e-05
1.551562024e-05
1.551237377e-05
1.550980619e-05
1.550838452e-05
1.550825558e-05
1.550913185e-05
1.551022241e-05
1.549655925e-05
1.549626093e-05
1.54963431e-05
1.549728404e-05
1.549945656e-05
1.55029656e-05
1.550749473e-05
1.551218469e-05
1.551556644e-05
1.548597036e-05
1.54883322e-05