/*--------------------------------*- C++ -*----------------------------------*\
| =========                 |                                                 |
| \\      /  F ield         | OpenFOAM: The Open Source CFD Toolbox           |
|  \\    /   O peration     | Version:  2212                                  |
|   \\  /    A nd           | Website:  www.openfoam.com                      |
|    \\/     M anipulation  |                                                 |
\*---------------------------------------------------------------------------*/
FoamFile
{
    version     2.0;
    format      ascii;
    arch        "LSB;label=32;scalar=64";
    class       volScalarField;
    location    "19.75000000";
    object      C9H8_0;
}
// * * * * * * * * * * * * * * * * * * * * * * * * * * * * * * * * * * * * * //

dimensions      [0 0 0 0 0 0 0];

internalField   nonuniform List<scalar> 
3000
(
1.310885729e-22
1.47261146e-22
1.716654196e-22
2.041862457e-22
2.444930796e-22
2.914914016e-22
3.423498099e-22
3.908785225e-22
4.251945574e-22
4.921633956e-22
5.551116411e-22
6.500592067e-22
7.768661056e-22
9.354065674e-22
1.124801691e-21
1.341763855e-21
1.575340312e-21
1.782250851e-21
1.102413291e-21
1.253172784e-21
1.482740191e-21
1.794439747e-21
2.193876573e-21
2.686844775e-21
3.271403982e-21
3.914734606e-21
4.464565127e-21
2.099791483e-21
2.411945849e-21
2.894243304e-21
3.563000883e-21
4.441908835e-21
5.553297662e-21
6.891100841e-21
8.348219555e-21
9.524320188e-21
3.728630103e-21
4.335477378e-21
5.28785121e-21
6.634121642e-21
8.437601002e-21
1.0748827e-20
1.352918196e-20
1.648178627e-20
1.87482975e-20
6.411515979e-21
7.550442023e-21
9.363472936e-21
1.196629423e-20
1.549772468e-20
2.004659504e-20
2.54770208e-20
3.11041681e-20
3.526725149e-20
1.088413297e-20
1.29761297e-20
1.634514525e-20
2.12363854e-20
2.792217207e-20
3.65353644e-20
4.671967017e-20
5.706699176e-20
6.453313606e-20
1.841892966e-20
2.220475459e-20
2.835582797e-20
3.735532019e-20
4.970510655e-20
6.558292577e-20
8.419212071e-20
1.028239905e-19
1.160436841e-19
3.122063469e-20
3.799939066e-20
4.908459508e-20
6.5385405e-20
8.779458557e-20
1.165274803e-19
1.499608899e-19
1.830869872e-19
2.063313493e-19
5.310696249e-20
6.514944173e-20
8.493271901e-20
1.141185117e-19
1.542662396e-19
2.056090827e-19
2.650209926e-19
3.234557899e-19
3.641548346e-19
9.069354074e-20
1.119619055e-19
1.470130037e-19
1.988287761e-19
2.70110031e-19
3.610656416e-19
4.658838455e-19
5.684514384e-19
6.39531203e-19
1.554476746e-19
1.928456224e-19
2.546153671e-19
3.460469639e-19
4.718040045e-19
6.319888386e-19
8.160354062e-19
9.954857604e-19
1.119417801e-18
2.672546213e-19
3.328008681e-19
4.412291886e-19
6.018570261e-19
8.227340837e-19
1.103700917e-18
1.42582387e-18
1.739111522e-18
1.954956413e-18
4.606059264e-19
5.752100443e-19
7.649949406e-19
1.046296824e-18
1.433019584e-18
1.924454409e-18
2.486993728e-18
3.033121232e-18
3.408743602e-18
7.95338781e-19
9.953595367e-19
1.326845465e-18
1.818352995e-18
2.493919379e-18
3.351760358e-18
4.332600206e-18
5.283587666e-18
5.936859459e-18
1.375271411e-18
1.723903944e-18
2.301987522e-18
3.159337892e-18
4.337544234e-18
5.832794445e-18
7.540995549e-18
9.195623793e-18
1.0331198e-17
2.380544323e-18
2.987590805e-18
3.994544901e-18
5.488182535e-18
7.540505317e-18
1.014396389e-17
1.311632404e-17
1.599338682e-17
1.796653682e-17
4.12376173e-18
5.179960754e-18
6.932430463e-18
9.532172181e-18
1.310389625e-17
1.76332652e-17
2.280192887e-17
2.780211076e-17
3.122956122e-17
7.147469466e-18
8.9841148e-18
1.203209954e-17
1.655399e-17
2.276586357e-17
3.06411751e-17
3.962463696e-17
4.831155464e-17
5.426369179e-17
1.239341974e-17
1.558590136e-17
2.088464815e-17
2.874596272e-17
3.954430162e-17
5.32312995e-17
6.883947051e-17
8.392719894e-17
9.426160462e-17
2.149648354e-17
2.70441003e-17
3.625257719e-17
4.991451314e-17
6.867882061e-17
9.245820607e-17
1.195683419e-16
1.457669681e-16
1.637079246e-16
3.729494037e-17
4.693313102e-17
6.293219796e-17
8.666818211e-17
1.19265252e-16
1.605664783e-16
2.076410751e-16
2.531209713e-16
2.842592153e-16
6.471627418e-17
8.145870063e-17
1.092504868e-16
1.504791677e-16
2.070909208e-16
2.78803411e-16
3.605181734e-16
4.394421664e-16
4.934642306e-16
1.123140874e-16
1.413933371e-16
1.896614031e-16
2.612579021e-16
3.595488214e-16
4.840242002e-16
6.258148346e-16
7.627160295e-16
8.563932444e-16
1.949339249e-16
2.4543353e-16
3.29248263e-16
4.53549083e-16
6.24149222e-16
8.401209562e-16
1.086033747e-15
1.323363195e-15
1.485695511e-15
3.383332689e-16
4.260170896e-16
5.71522857e-16
7.872577466e-16
1.083240644e-15
1.457766645e-15
1.883984032e-15
2.295090354e-15
2.576136205e-15
5.871783615e-16
7.393899726e-16
9.919145638e-16
1.366185423e-15
1.879421761e-15
2.528450284e-15
3.266527604e-15
3.977897831e-15
4.463866444e-15
1.018866327e-15
1.283000671e-15
1.721062329e-15
2.370001452e-15
3.259303234e-15
4.382976248e-15
5.659611612e-15
6.888814018e-15
7.727731145e-15
1.767368463e-15
2.225490283e-15
2.984934672e-15
4.109233244e-15
5.64863137e-15
7.591647639e-15
9.796427386e-15
1.191648162e-14
1.336155496e-14
3.064259848e-15
3.858261087e-15
5.173728012e-15
7.119523075e-15
9.780735612e-15
1.313505254e-14
1.693517888e-14
2.058301837e-14
2.30653434e-14
5.309111452e-15
6.683856284e-15
8.959743767e-15
1.232250089e-14
1.691507807e-14
2.269359015e-14
2.922680242e-14
3.548454963e-14
3.973389463e-14
9.189827477e-15
1.156682753e-14
1.54981552e-14
2.129894238e-14
2.920692754e-14
3.91350339e-14
5.033130127e-14
6.102636271e-14
6.8269716e-14
1.588750979e-14
1.99900711e-14
2.6767134e-14
3.674976872e-14
5.032834579e-14
6.732922903e-14
8.644195174e-14
1.046384237e-13
1.169224962e-13
2.742356178e-14
3.448802351e-14
4.614052745e-14
6.326859555e-14
8.650304525e-14
1.154973641e-13
1.479708354e-13
1.787644201e-13
1.994726649e-13
4.72446329e-14
5.937428121e-14
7.934534401e-14
1.08626057e-13
1.482154853e-13
1.974244505e-13
2.522930385e-13
3.040799137e-13
3.387498282e-13
8.120249051e-14
1.019554397e-13
1.360501104e-13
1.858859644e-13
2.530054878e-13
3.360479169e-13
4.281628019e-13
5.146365439e-13
5.722329122e-13
1.391846791e-13
1.745408964e-13
2.324771384e-13
3.168581886e-13
4.299886939e-13
5.692106828e-13
7.227335957e-13
8.659821831e-13
9.608515417e-13
2.378087726e-13
2.977434647e-13
3.956588034e-13
5.37673867e-13
7.270852213e-13
9.587722644e-13
1.212577364e-12
1.447816086e-12
1.602643813e-12
4.04839477e-13
5.058523787e-13
6.703037577e-13
9.076884609e-13
1.222441963e-12
1.604859066e-12
2.020763179e-12
2.403464469e-12
2.653687862e-12
6.863699468e-13
8.554984549e-13
1.129758229e-12
1.523537423e-12
2.042264e-12
2.66787711e-12
3.343000796e-12
3.959490028e-12
4.359801604e-12
1.158393081e-12
1.439491575e-12
1.89331648e-12
2.541070607e-12
3.388318039e-12
4.402106425e-12
5.487188966e-12
6.470195936e-12
7.104019318e-12
1.945269568e-12
2.408692153e-12
3.153258464e-12
4.209188848e-12
5.579860301e-12
7.206383743e-12
8.93258317e-12
1.048381393e-11
1.147697547e-11
3.2489079e-12
4.006217014e-12
5.216616216e-12
6.921455912e-12
9.116845284e-12
1.169975047e-11
1.441742294e-11
1.684000321e-11
1.838029051e-11
5.394385866e-12
6.620361712e-12
8.568991187e-12
1.129397652e-11
1.477422901e-11
1.883326089e-11
2.30675257e-11
2.681224317e-11
2.917718371e-11
8.900503692e-12
1.086559711e-11
1.397103218e-11
1.828171297e-11
2.374132029e-11
3.005377678e-11
3.658346056e-11
4.231420343e-11
4.591027515e-11
1.458768866e-11
1.770520815e-11
2.260280674e-11
2.935056609e-11
3.782590897e-11
4.754201815e-11
5.751100498e-11
6.619679901e-11
7.161448403e-11
2.374120486e-11
2.863505027e-11
3.627776218e-11
4.672973006e-11
5.975092979e-11
7.45560771e-11
8.962939852e-11
1.026731709e-10
1.107638979e-10
3.835535288e-11
4.595613747e-11
5.775697028e-11
7.377880901e-11
9.358254782e-11
1.159239543e-10
1.385054382e-10
1.579233361e-10
1.699065813e-10
6.149509379e-11
7.317522519e-11
9.120683686e-11
1.155180056e-10
1.453439248e-10
1.787457037e-10
2.122800787e-10
2.409501852e-10
2.585619968e-10
9.782645577e-11
1.155884456e-10
1.428607774e-10
1.793888151e-10
2.238901215e-10
2.733891687e-10
3.227797243e-10
3.64785882e-10
3.904840703e-10
1.543878072e-10
1.811251346e-10
2.21969382e-10
2.763390877e-10
3.421487135e-10
4.148952649e-10
4.870791953e-10
5.481847022e-10
5.854319644e-10
2.417029181e-10
2.815598046e-10
3.421571222e-10
4.223631599e-10
5.188708601e-10
6.249524216e-10
7.296909813e-10
8.179896033e-10
8.716434737e-10
3.753768455e-10
4.342433855e-10
5.233474042e-10
6.406705164e-10
7.810861389e-10
9.346584568e-10
1.08562219e-09
1.212433005e-09
1.289280234e-09
5.783310313e-10
6.645149662e-10
7.944460381e-10
9.647245801e-10
1.167546244e-09
1.388386559e-09
1.604639425e-09
1.785727225e-09
1.895212678e-09
8.839968803e-10
1.009149239e-09
1.197153037e-09
1.442508211e-09
1.73351714e-09
2.049138417e-09
2.35716317e-09
2.614406379e-09
2.769631681e-09
1.340797391e-09
1.521172615e-09
1.79127071e-09
2.142459509e-09
2.557439044e-09
3.005971352e-09
3.44242924e-09
3.806093609e-09
4.025178448e-09
2.018417483e-09
2.276589004e-09
2.662098e-09
3.161715313e-09
3.750150664e-09
4.384261471e-09
4.999747195e-09
5.511580593e-09
5.819516389e-09
3.016545606e-09
3.38373833e-09
3.930694203e-09
4.637524526e-09
5.467629943e-09
6.359850661e-09
7.223994898e-09
7.941433851e-09
8.372604672e-09
4.477017189e-09
4.996274789e-09
5.768081889e-09
6.763006093e-09
7.928547473e-09
9.178502196e-09
1.038689734e-08
1.138877854e-08
1.199038492e-08
6.600628693e-09
7.331109646e-09
8.414845322e-09
9.808849502e-09
1.143839396e-08
1.318259972e-08
1.486619079e-08
1.626049792e-08
1.709720412e-08
9.670347873e-09
1.069314663e-08
1.220810278e-08
1.41531272e-08
1.64225719e-08
1.884771408e-08
2.118552206e-08
2.311988509e-08
2.428012061e-08
1.408326057e-08
1.550928824e-08
1.761853365e-08
2.032215734e-08
2.347168783e-08
2.68325908e-08
3.006893995e-08
3.274485654e-08
3.434935528e-08
2.03944176e-08
2.237506223e-08
2.530108225e-08
2.904638577e-08
3.340341579e-08
3.804735677e-08
4.251519022e-08
4.620728153e-08
4.842064982e-08
2.93768406e-08
3.211837625e-08
3.616421284e-08
4.133662878e-08
4.734681609e-08
5.374640897e-08
5.98988364e-08
6.498091537e-08
6.802730157e-08
4.210338975e-08
4.588643722e-08
5.146424343e-08
5.858783153e-08
6.685699446e-08
7.565465181e-08
8.410762987e-08
9.108799194e-08
9.527231318e-08
6.005808074e-08
6.526386665e-08
7.293344455e-08
8.271986663e-08
9.407060335e-08
1.061386329e-07
1.17728698e-07
1.272978969e-07
1.330345967e-07
8.528686449e-08
9.243261096e-08
1.029533662e-07
1.163679428e-07
1.319160491e-07
1.484378321e-07
1.643001602e-07
1.773956685e-07
1.852476707e-07
1.206009498e-07
1.303874862e-07
1.447883533e-07
1.631390227e-07
1.84396487e-07
2.069759973e-07
2.286498331e-07
2.465434703e-07
2.572748963e-07
1.698495319e-07
1.832251826e-07
2.028984966e-07
2.279553166e-07
2.569687985e-07
2.877780103e-07
3.173487358e-07
3.41764615e-07
3.564119658e-07
2.382833095e-07
2.565292883e-07
2.833563113e-07
3.175113614e-07
3.570476401e-07
3.990241301e-07
4.39313915e-07
4.725868818e-07
4.9255473e-07
3.330353304e-07
3.578792418e-07
3.94397057e-07
4.408771332e-07
4.946699328e-07
5.517800704e-07
6.066019952e-07
6.518889607e-07
6.790776423e-07
4.637512137e-07
4.975167197e-07
5.471383159e-07
6.10285442e-07
6.833610024e-07
7.609471684e-07
8.354405385e-07
8.969993564e-07
9.339734583e-07
6.434060242e-07
6.892080803e-07
7.565093405e-07
8.421463725e-07
9.412475344e-07
1.046480105e-06
1.147546618e-06
1.231098553e-06
1.281305721e-06
8.893489664e-07
9.513448842e-07
1.042433276e-06
1.158332968e-06
1.29246239e-06
1.434917626e-06
1.571777938e-06
1.684969274e-06
1.753018354e-06
1.224617942e-06
1.308324342e-06
1.431303538e-06
1.587778213e-06
1.768879232e-06
1.961261152e-06
2.14614763e-06
2.299122199e-06
2.391127133e-06
1.679561587e-06
1.792245316e-06
1.957786624e-06
2.168410619e-06
2.412197498e-06
2.671213467e-06
2.92020574e-06
3.126291707e-06
3.250282145e-06
2.293793826e-06
2.444940304e-06
2.666964475e-06
2.949431301e-06
3.27636754e-06
3.623751988e-06
3.957745818e-06
4.234245656e-06
4.400635776e-06
3.118482343e-06
3.320336857e-06
3.616797582e-06
3.993897202e-06
4.430300209e-06
4.893957877e-06
5.339734497e-06
5.708786527e-06
5.93088149e-06
4.218935375e-06
4.487101264e-06
4.880844243e-06
5.381523062e-06
5.96074629e-06
6.575956823e-06
7.167290457e-06
7.656746896e-06
7.951251224e-06
5.677400548e-06
6.031463525e-06
6.551113349e-06
7.211552079e-06
7.975164149e-06
8.785756362e-06
9.564468188e-06
1.020870885e-05
1.059618395e-05
7.595927681e-06
8.060059257e-06
8.740862933e-06
9.605478433e-06
1.06043278e-05
1.166370412e-05
1.268054491e-05
1.35211306e-05
1.402636567e-05
1.009908136e-05
1.070255843e-05
1.158709331e-05
1.270934817e-05
1.400437991e-05
1.537624828e-05
1.669147751e-05
1.777755783e-05
1.842975607e-05
1.333622878e-05
1.41137975e-05
1.52524408e-05
1.669533181e-05
1.835800854e-05
2.011668386e-05
2.180024236e-05
2.318856984e-05
2.402131343e-05
1.748309205e-05
1.847510228e-05
1.992615328e-05
2.176224847e-05
2.387446731e-05
2.610463763e-05
2.823574463e-05
2.999024842e-05
3.104119631e-05
2.274224484e-05
2.399448189e-05
2.582385511e-05
2.813482813e-05
3.078822169e-05
3.358402512e-05
3.625017639e-05
3.844104761e-05
3.975134873e-05
2.934230425e-05
3.090551714e-05
3.318597958e-05
3.606149009e-05
3.935601563e-05
4.281944654e-05
4.611479377e-05
4.881708903e-05
5.043052118e-05
3.753569516e-05
3.94647158e-05
4.227455276e-05
4.581051856e-05
4.985240022e-05
5.409106906e-05
5.811423233e-05
6.140604988e-05
6.336792241e-05
4.759469176e-05
4.994722241e-05
5.336844826e-05
5.766475962e-05
6.256384625e-05
6.768819116e-05
7.25396114e-05
7.649993596e-05
7.885581652e-05
5.980596307e-05
6.264106878e-05
6.675723833e-05
7.191502217e-05
7.778169705e-05
8.390179865e-05
8.968078005e-05
9.438712174e-05
9.718146254e-05
7.446378655e-05
7.784017204e-05
8.273391173e-05
8.885249837e-05
9.579431813e-05
0.0001030165037
0.0001098181207
0.000115344088
0.0001186188329
9.186225484e-05
9.583642573e-05
0.0001015868293
0.0001087606001
0.0001168788611
0.0001253022977
0.0001332143475
0.0001396272942
0.0001434205456
0.0001122868882
0.0001169113056
0.000123591348
0.0001319066484
0.0001412930792
0.0001510065499
0.0001601067179
0.0001674655908
0.0001718104065
0.0001360061092
0.0001413274443
0.0001490015616
0.000158533853
0.0001692676133
0.0001803466448
0.0001907000289
0.0001990535205
0.0002039768958
0.000163263036
0.0001693206195
0.000178042583
0.0001888539797
0.000200999114
0.0002135035932
0.0002251606945
0.0002345457778
0.0002400678542
0.0001942680105
0.0002010925525
0.0002109037379
0.0002230410407
0.0002366444956
0.0002506168667
0.0002636121204
0.000274053013
0.0002801865344
0.0002291922087
0.0002368048413
0.0002477329608
0.0002612262584
0.0002763165279
0.0002917806224
0.0003061315016
0.0003176390777
0.000324389103
0.0002681625912
0.0002765742628
0.0002886325939
0.000303494464
0.0003200808849
0.0003370413947
0.0003527480873
0.0003653197296
0.0003726835929
0.0003112583577
0.0003204695831
0.0003336566954
0.0003498819997
0.0003679546828
0.0003863972507
0.0004034428787
0.0004170627419
0.0004250302427
0.0003585089684
0.0003685099214
0.000382809878
0.0004003761142
0.0004199064633
0.0004397983379
0.0004581496639
0.0004727893036
0.0004813430983
0.0004098937157
0.0004206646311
0.0004360476153
0.0004549157666
0.0004758575139
0.000497148693
0.0005167572447
0.000532376554
0.0005414927168
0.0004653427468
0.0004768545895
0.0004932778961
0.0005133936983
0.0005356843703
0.0005583091441
0.0005791126737
0.0005956610644
0.0006053097793
0.0005247393853
0.0005369547357
0.0005543640535
0.0005756595929
0.0005992223091
0.0006231011083
0.0006450253015
0.0006624430636
0.0006725894114
0.0005879235556
0.0006007976562
0.0006191285653
0.0006415241166
0.0006662696243
0.0006913110755
0.0007142714261
0.0007324912005
0.0007430960038
0.0006546960898
0.0006681779993
0.0006873576088
0.0007107636222
0.0007365924712
0.0007626955695
0.0007865993392
0.0008055476431
0.0008165683371
0.0007248236861
0.0007388574901
0.0007588061437
0.0007831252997
0.0008099300709
0.0008369863855
0.0008617345767
0.0008813333297
0.0008927248277
0.0007980442938
0.0008125703247
0.0008332033123
0.0008583325692
0.0008860000795
0.0009138959203
0.0009393852007
0.0009595532042
0.000971268734
0.0008740727099
0.0008890287374
0.0009102579573
0.0009360905295
0.0009645039489
0.0009931224341
0.001019246963
0.001039901297
0.001051893188
0.0009526061973
0.000967928556
0.0009896640845
0.001016091301
0.001045132132
0.001074355109
0.001101008223
0.001122065532
0.001134285937
0.001033329959
0.001048954589
0.001071106123
0.001098019129
0.001127569007
0.001157278793
0.001184354532
0.001205732178
0.00121813372
0.001115922334
0.001131785715
0.001154263863
0.001181555139
0.001211497434
0.001241578352
0.001268972791
0.001290589866
0.001303126204
0.001200059609
0.001216099578
0.00123881699
0.001266381665
0.001296602861
0.001326942564
0.001354554962
0.001376333147
0.001388959457
0.001285420366
0.001301576815
0.001324449134
0.001352186102
0.001382576962
0.001413067534
0.001440801279
0.00146266556
0.001475338928
0.001371689326
0.001387904773
0.001410851421
0.001438664248
0.001469120749
0.001499659596
0.001527422975
0.001549302206
0.001561981949
0.001458560651
0.001474780694
0.001497725493
0.001525523126
0.001555947198
0.001586437732
0.001614144504
0.001635971844
0.001648619746
0.001545740709
0.001561914371
0.001584786
0.0016124833
0.001642783358
0.001673135496
0.001700705315
0.001722418531
0.001734999013
0.001632950314
0.001649030276
0.001671762598
0.001699280693
0.001729372
0.00175950249
0.001786861171
0.001808402834
0.00182088306
0.001719926453
0.001735869209
0.001758401455
0.001785667955
0.001815472821
0.001845305415
0.001872385073
0.00189370265
0.001906052576
0.001806423562
0.001822189476
0.001844466331
0.001871415404
0.001900863252
0.00193032875
0.00195706782
0.001978113684
0.001990306065
0.001892214359
0.001907767667
0.001929739253
0.001956311592
0.001985338905
0.002014375087
0.002040718249
0.002061449616
0.002073459963
0.001977090317
0.001992399059
0.002014020838
0.002040163538
0.002068713706
0.002097265171
0.002123163202
0.002143542005
0.002155348518
0.002060861792
0.002075897704
0.002097130319
0.002122796669
0.002150819769
0.0021788377
0.002204247251
0.002224239973
0.002235823444
0.002143357873
0.002158096241
0.002178905303
0.002204054533
0.002231507033
0.002258948907
0.002283832243
0.002303409706
0.0023147534
0.002224426005
0.002238845485
0.002259201323
0.002283798296
0.002310642723
0.002337471976
0.002361796673
0.002380933807
0.002392023329
0.002303931404
0.002318013828
0.002337891213
0.002361906088
0.002388110668
0.002414296331
0.002438034948
0.002456710538
0.002467533691
0.002381756336
0.002395486501
0.002414864349
0.00243827223
0.002463810494
0.002489326813
0.002512456556
0.002530652975
0.002541199614
0.002457799269
0.002471164724
0.002490025791
0.002512806359
0.002537656754
0.002562482801
0.002584985169
0.002602688115
0.00261294999
0.002531973955
0.002544964777
0.002563295353
0.002585432498
0.002609577989
0.002633697269
0.002655557711
0.002672755937
0.002682726545
0.002604208445
0.002616817024
0.002634606629
0.002656088087
0.002679515766
0.002702915836
0.002724123406
0.002740808457
0.002750482892
0.002674444084
0.002686664912
0.002703905998
0.002724722998
0.002747423703
0.002770095794
0.002790642823
0.002806808779
0.002816183588
0.002742634493
0.002754463959
0.002771151626
0.002791298546
0.002813266496
0.002835205158
0.00285508693
0.002870730163
0.002879803205
0.002808744561
0.002820180753
0.002836312476
0.002855786523
0.002877018968
0.002898221726
0.002917436179
0.002932555117
0.002941325433
0.002872749454
0.002883791979
0.002899367349
0.00291816825
0.002938665143
0.002959132177
0.002977679616
0.002992274523
0.003000742209
0.002934633659
0.00294528347
0.002960303954
0.002978433668
0.002998197359
0.003017931201
0.003035814028
0.003049886801
0.00305805289
0.002994390069
0.003004649301
0.003019118021
0.003036580474
0.003055615422
0.003074620677
0.003091843144
0.003105397116
0.003113263473
0.003052019112
0.003061890936
0.003075812457
0.003092613297
0.003110925806
0.003129208892
0.003145776872
0.003158816637
0.003166385852
0.003107527928
0.003117016417
0.00313039656
0.003146542925
0.003164140905
0.003181709815
0.003197630588
0.003210161837
0.003217437135
0.003160929604
0.003170039603
0.003182885271
0.00319838559
0.003215278329
0.003232142414
0.003247424474
0.003259453846
0.003266439001
0.003212242455
0.003220979474
0.003233298492
0.00324816229
0.003264360258
0.00328053003
0.003295182909
0.003306717853
0.003313417109
0.003261489365
0.00326985947
0.003281660444
0.003295898176
0.003311412838
0.003326899789
0.003340933898
0.003351982552
0.003358400553
0.003308697179
0.003316706905
0.003327999091
0.003341621986
0.003356465638
0.003371282079
0.003384708562
0.003395279637
0.003401421363
0.003353896144
0.003361552409
0.003372345599
0.003385365523
0.003399551145
0.003413710057
0.003426540662
0.003436643342
0.00344251405
0.003397119396
0.00340442943
0.003414733847
0.003427163179
0.0034407043
0.003454219209
0.003466466171
0.003476110024
0.003481715196
0.003438402495
0.00344537377
0.003455199979
0.003467051502
0.003479962088
0.003492846945
0.003504522882
0.00351371778
0.003519063077
0.003477783
0.003484423178
0.003493782005
0.003505068812
0.003517363157
0.003529632238
0.003540750062
0.003549506107
0.003554597328
0.003515300088
0.00352161697
0.003530519432
0.003541254841
0.003552947481
0.003564615298
0.00357518813
0.003583515593
0.003588358636
0.003550994199
0.003556995689
0.00356545294
0.003575650425
0.003586756055
0.003597837278
0.003607878381
0.003615787645
0.003620388476
0.003584906718
0.003590600799
0.003598624085
0.003608297216
0.003618830628
0.003629340015
0.003638862732
0.003646364243
0.003650728872
0.003617079729
0.003622474434
0.00363007505
0.003639237442
0.003649213466
0.003659165807
0.003668183505
0.003675287733
0.003679422182
0.003647555851
0.003652659192
0.003659848438
0.003668513699
0.003677947148
0.003687357208
0.003695883235
0.003702600632
0.003706510918
0.003676378055
0.003681197987
0.003687987107
0.00369616878
0.003705074394
0.003713956868
0.003722004503
0.003728345474
0.003732037589
0.003703589508
0.003708133908
0.003714534005
0.00372224551
0.003730637907
0.00373900737
0.003746589791
0.003752564661
0.003756044554
0.003729233321
0.003733509938
0.003739531995
0.003746786599
0.003754680239
0.003762551112
0.003769681358
0.003775300347
0.003778573909
0.003753352423
0.003757368901
0.003763023716
0.003769834514
0.003777243664
0.00378463018
0.003791321123
0.003796594326
0.003799667378
0.003775989449
0.00377975332
0.003785051541
0.003791431386
0.00379837008
0.003805286253
0.003811550573
0.003816487935
0.003819366217
0.0037971866
0.003800705261
0.003805657328
0.003811618868
0.003818100903
0.003824560506
0.003830410673
0.00383502198
0.003837711141
0.003816985562
0.003820266273
0.003824882437
0.003830438068
0.00383647698
0.003842493535
0.003847941793
0.003852236657
0.003854742248
0.003835427421
0.003838477297
0.003842767601
0.003847929464
0.003853538525
0.003859125292
0.003864183648
0.003868171498
0.003870498968
0.003852552602
0.003855378611
0.003859352898
0.00386413289
0.003869325082
0.003874495037
0.00387917525
0.003882865324
0.003885020012
0.003868400812
0.003871009771
0.003874677662
0.003879087411
0.003883875441
0.003888641284
0.003892954861
0.003896356201
0.003898343335
0.003883011004
0.003885409572
0.00388878047
0.00389283134
0.003897227629
0.003901601774
0.003905559965
0.003908681411
0.003910506105
0.003896421338
0.003898616023
0.003901699116
0.003905402209
0.003909418881
0.003913413448
0.003917027238
0.003919877428
0.003921544679
0.003908669164
0.003910666318
0.003913470574
0.003916836741
0.003920485611
0.003924112423
0.003927392535
0.003929979899
0.003931494587
0.00391979099
0.003921596806
0.003924130969
0.003927170766
0.003930463382
0.003933733976
0.003936690868
0.003939023631
0.003940390518
0.003929822475
0.00393144299
0.003933715582
0.003936439308
0.003939386917
0.003942312536
0.003944956403
0.003947042584
0.003948266313
0.003938798417
0.003940239512
0.003942258835
0.003944676525
0.00394729008
0.003949881677
0.003952222452
0.003954069865
0.003955154961
0.003946752747
0.00394802015
0.003949794291
0.003951915714
0.003954205881
0.003956474121
0.003958521475
0.003960137729
0.003961088601
0.003953718533
0.003954817818
0.003956354645
0.003958189311
0.003960166471
0.003962121733
0.003963885082
0.003965277587
0.003966098527
0.003959727977
0.003960664567
0.003961971736
0.003963528899
0.003965203151
0.003966855536
0.00396834404
0.003969520005
0.003970215191
0.003964812426
0.003965591596
0.003966676554
0.003967965211
0.003969346379
0.003970705709
0.003971928281
0.003972894719
0.003973468216
0.003969002378
0.003969629255
0.003970499242
0.003971528143
0.003972625779
0.003973701608
0.003974666912
0.003975430645
0.003975886407
0.003972327493
0.003972807063
0.003973469115
0.003974246766
0.003975070155
0.003975871768
0.00397658823
0.003977155888
0.00397749776
0.003974816606
0.003975153712
0.003975614669
0.003976149335
0.003976707502
0.003977243924
0.003977719731
0.003978097761
0.003978329479
0.00397649774
0.003976697088
0.003976963595
0.003977263308
0.00397756502
0.003977845021
0.003978088129
0.003978282795
0.003978407991
0.00397739812
0.003977464283
0.003977542796
0.003977615356
0.003977669132
0.003977701229
0.003977719368
0.003977736755
0.00397775896
0.003977544193
0.003977481611
0.003977378397
0.003977231384
0.003977045495
0.003976837963
0.00397663864
0.00397648466
0.0039764073
0.003976961636
0.003976774621
0.00397649577
0.00397613654
0.003975719021
0.003975279895
0.0039748704
0.003974550792
0.003974377198
0.003975675382
0.00397536812
0.003974919542
0.00397435524
0.00397371389
0.00397305097
0.003972438381
0.003971958718
0.003971692122
0.003973709629
0.003973286185
0.003972673617
0.003971911176
0.003971053567
0.003970174423
0.003969365609
0.003968731301
0.00396837484
0.003971087863
0.00397055218
0.003969781191
0.003968827341
0.003967760817
0.003966672797
0.003965674423
0.003964890717
0.003964447434
0.003967832873
0.003967188777
0.003966264768
0.003965126038
0.003963857727
0.003962567956
0.003961386487
0.003960458471
0.003959931317
0.003963966767
0.00396321797
0.003962146182
0.003960828903
0.003959365717
0.003957881105
0.003956522806
0.003955455414
0.003954847248
0.003959510996
0.003958661098
0.003957446611
0.003955956923
0.003954305561
0.003952632805
0.00395110375
0.003949901759
0.003949215351
0.003954486372
0.003953538862
0.003952186602
0.003950530453
0.00394869741
0.003946842999
0.003945149071
0.003943817107
0.003943055135
0.003948913093
0.003947871353
0.00394638609
0.003944569243
0.003942560814
0.003940531035
0.00393867793
0.00393722047
0.003936385527
0.003942810772
0.003941678081
0.003940064443
0.003938092486
0.003935914766
0.003933715707
0.003931708938
0.003930130316
0.003929224907
0.003936198472
0.003934978009
0.003933240485
0.00393111884
0.003928777732
0.003926415293
0.003924260202
0.003922564612
0.003921591161
0.003929094751
0.003927789603
0.003925932546
0.003923666474
0.003921167713
0.00391864762
0.003916349394
0.003914540906
0.003913501763
0.003921517724
0.00392013089
0.003918158534
0.003915753144
0.003913102318
0.003910430153
0.003907993843
0.003906076419
0.003904973869
0.003913485141
0.00391201955
0.003909936026
0.003907396315
0.003904598888
0.003901780112
0.003899210665
0.003897188187
0.003896024469
0.003905014494
0.003903473019
0.00390128239
0.003898613274
0.003895674625
0.003892714626
0.00389001693
0.003887893239
0.003886670571
0.003896123143
0.003894508629
0.003892214919
0.003889421278
0.003886346772
0.003883250935
0.003880429887
0.003878208838
0.003876929448
0.003886828488
0.003885143785
0.003882751033
0.003879837799
0.003876632864
0.003873406656
0.003870467246
0.003868152784
0.003866818962
0.003877148179
0.003875396195
0.003872908541
0.003869880783
0.003866551024
0.003863200117
0.003860147545
0.003857743805
0.003856357963
0.003867100385
0.003865284152
0.003862705931
0.003859568999
0.003856120349
0.003852650774
0.003849490603
0.003847002032
0.003845566786
0.003856704138
0.003854826899
0.003852162812
0.003848922498
0.003845361398
0.003841779733
0.00383851807
0.003835949589
0.003834467853
0.003845979806
0.00384404519
0.003841300455
0.00383796317
0.003834296779
0.003830610375
0.003827254092
0.003824611279
0.003823086383
0.003834949831
0.003832961947
0.00383014243
0.00382671541
0.003822951843
0.003819169088
0.003815726075
0.003813015382
0.003811451208
0.003823639416
0.003821602926
0.00381871532
0.00381520686
0.003811355473
0.003807486087
0.003803965545
0.00380119454
0.003799595673
0.00381207719
0.003809997458
0.003807049498
0.003803469229
0.003799540939
0.00379559632
0.003792009081
0.003789186719
0.003787558605
0.003800296001
0.00379817927
0.003795179984
0.003791539186
0.00378754682
0.003783540402
0.003779899282
0.003777036179
0.003775385294
0.003788333779
0.00378618736
0.003783147342
0.003779459275
0.003775417939
0.003771365568
0.003767685696
0.003764794409
0.003763128419
0.003776234422
0.003774066889
0.003770998569
0.003767278801
0.003763206233
0.00375912652
0.003755425663
0.003752520923
0.003750848819
0.003764048645
0.003761870013
0.003758787904
0.003755054602
0.003750971486
0.003746886098
0.003743184907
0.003740283802
0.003738615984
0.003751834689
0.003749656555
0.003746577449
0.003742851599
0.003738781774
0.003734715624
0.003731037764
0.003728159805
0.003726508103
0.003739658782
0.003737494411
0.003734437479
0.003730742979
0.003726713509
0.003722694763
0.003719066872
0.00371623391
0.0037146115
0.003727595213
0.00372545953
0.003722446286
0.003718809863
0.003714850881
0.00371091074
0.003707362147
0.003704598083
0.003703019275
0.003715725882
0.003713635334
0.003710689415
0.003707140301
0.00370328458
0.00369945675
0.003696018901
0.003693349148
0.003691829022
0.003704139158
0.003702111428
0.003699258139
0.003695827457
0.003692109643
0.003688429455
0.003685135
0.003682585663
0.003681139536
0.003692927952
0.003690981485
0.003688247092
0.003684966911
0.00368142238
0.003677925531
0.003674807048
0.003672403828
0.003671046558
0.003682186924
0.003680340266
0.003677751002
0.003674653061
0.003671316422
0.003668037342
0.00366512575
0.003662892595
0.003661637754