/*--------------------------------*- C++ -*----------------------------------*\
| =========                 |                                                 |
| \\      /  F ield         | OpenFOAM: The Open Source CFD Toolbox           |
|  \\    /   O peration     | Version:  2212                                  |
|   \\  /    A nd           | Website:  www.openfoam.com                      |
|    \\/     M anipulation  |                                                 |
\*---------------------------------------------------------------------------*/
FoamFile
{
    version     2.0;
    format      ascii;
    arch        "LSB;label=32;scalar=64";
    class       volScalarField;
    location    "19.75000000";
    object      CH3COCH3;
}
// * * * * * * * * * * * * * * * * * * * * * * * * * * * * * * * * * * * * * //

dimensions      [0 0 0 0 0 0 0];

internalField   nonuniform List<scalar> 
3000
(
0.01368422948
0.01368422948
0.01368422948
0.01368422948
0.01368422948
0.01368422948
0.01368422948
0.01368422948
0.01368422948
0.01368422948
0.01368422948
0.01368422948
0.01368422948
0.01368422948
0.01368422948
0.01368422948
0.01368422948
0.01368422948
0.01368422948
0.01368422948
0.01368422948
0.01368422948
0.01368422948
0.01368422948
0.01368422948
0.01368422948
0.01368422948
0.01368422948
0.01368422948
0.01368422948
0.01368422948
0.01368422948
0.01368422948
0.01368422948
0.01368422948
0.01368422948
0.01368422948
0.01368422948
0.01368422948
0.01368422948
0.01368422948
0.01368422948
0.01368422948
0.01368422948
0.01368422948
0.01368422948
0.01368422948
0.01368422948
0.01368422948
0.01368422948
0.01368422948
0.01368422948
0.01368422948
0.01368422948
0.01368422948
0.01368422948
0.01368422948
0.01368422948
0.01368422948
0.01368422948
0.01368422948
0.01368422948
0.01368422948
0.01368422948
0.01368422948
0.01368422948
0.01368422948
0.01368422948
0.01368422948
0.01368422948
0.01368422948
0.01368422948
0.01368422948
0.01368422948
0.01368422948
0.01368422948
0.01368422948
0.01368422948
0.01368422948
0.01368422948
0.01368422948
0.01368422948
0.01368422948
0.01368422948
0.01368422948
0.01368422948
0.01368422948
0.01368422948
0.01368422948
0.01368422948
0.01368422948
0.01368422948
0.01368422948
0.01368422948
0.01368422948
0.01368422948
0.01368422948
0.01368422948
0.01368422948
0.01368422948
0.01368422948
0.01368422948
0.01368422948
0.01368422948
0.01368422948
0.01368422948
0.01368422948
0.01368422948
0.01368422948
0.01368422948
0.01368422948
0.01368422948
0.01368422948
0.01368422948
0.01368422948
0.01368422948
0.01368422948
0.01368422948
0.01368422948
0.01368422948
0.01368422948
0.01368422948
0.01368422948
0.01368422948
0.01368422948
0.01368422948
0.01368422948
0.01368422948
0.01368422948
0.01368422948
0.01368422948
0.01368422948
0.01368422948
0.01368422948
0.01368422948
0.01368422948
0.01368422948
0.01368422948
0.01368422948
0.01368422948
0.01368422948
0.01368422948
0.01368422948
0.01368422948
0.01368422948
0.01368422948
0.01368422948
0.01368422948
0.01368422948
0.01368422948
0.01368422948
0.01368422948
0.01368422948
0.01368422948
0.01368422948
0.01368422948
0.01368422948
0.01368422948
0.01368422948
0.01368422948
0.01368422948
0.01368422948
0.01368422948
0.01368422948
0.01368422948
0.01368422948
0.01368422948
0.01368422948
0.01368422948
0.01368422948
0.01368422948
0.01368422948
0.01368422948
0.01368422948
0.01368422948
0.01368422948
0.01368422948
0.01368422948
0.01368422948
0.01368422948
0.01368422948
0.01368422948
0.01368422948
0.01368422948
0.01368422948
0.01368422948
0.01368422948
0.01368422948
0.01368422948
0.01368422948
0.01368422948
0.01368422948
0.01368422948
0.01368422948
0.01368422948
0.01368422948
0.01368422948
0.01368422948
0.01368422948
0.01368422948
0.01368422948
0.01368422948
0.01368422948
0.01368422948
0.01368422948
0.01368422948
0.01368422948
0.01368422948
0.01368422948
0.01368422948
0.01368422948
0.01368422948
0.01368422948
0.01368422948
0.01368422948
0.01368422948
0.01368422948
0.01368422948
0.01368422948
0.01368422948
0.01368422948
0.01368422948
0.01368422948
0.01368422948
0.01368422948
0.01368422948
0.01368422948
0.01368422948
0.01368422948
0.01368422948
0.01368422948
0.01368422948
0.01368422948
0.01368422948
0.01368422948
0.01368422948
0.01368422948
0.01368422948
0.01368422948
0.01368422948
0.01368422948
0.01368422948
0.01368422948
0.01368422948
0.01368422948
0.01368422948
0.01368422948
0.01368422948
0.01368422948
0.01368422948
0.01368422948
0.01368422948
0.01368422948
0.01368422948
0.01368422948
0.01368422948
0.01368422948
0.01368422948
0.01368422948
0.01368422948
0.01368422948
0.01368422948
0.01368422948
0.01368422948
0.01368422948
0.01368422948
0.01368422948
0.01368422948
0.01368422947
0.01368422947
0.01368422948
0.01368422948
0.01368422948
0.01368422948
0.01368422948
0.01368422947
0.01368422947
0.01368422947
0.01368422947
0.01368422948
0.01368422948
0.01368422948
0.01368422947
0.01368422947
0.01368422947
0.01368422947
0.01368422947
0.01368422947
0.01368422948
0.01368422947
0.01368422947
0.01368422947
0.01368422947
0.01368422947
0.01368422947
0.01368422947
0.01368422947
0.01368422947
0.01368422947
0.01368422947
0.01368422947
0.01368422947
0.01368422947
0.01368422947
0.01368422946
0.01368422946
0.01368422947
0.01368422947
0.01368422947
0.01368422947
0.01368422947
0.01368422946
0.01368422946
0.01368422946
0.01368422945
0.01368422947
0.01368422947
0.01368422947
0.01368422946
0.01368422946
0.01368422945
0.01368422945
0.01368422944
0.01368422944
0.01368422947
0.01368422946
0.01368422946
0.01368422946
0.01368422945
0.01368422944
0.01368422943
0.01368422942
0.01368422941
0.01368422946
0.01368422946
0.01368422945
0.01368422944
0.01368422943
0.01368422941
0.0136842294
0.01368422938
0.01368422937
0.01368422945
0.01368422944
0.01368422943
0.01368422942
0.0136842294
0.01368422937
0.01368422934
0.01368422932
0.0136842293
0.01368422943
0.01368422942
0.0136842294
0.01368422938
0.01368422934
0.0136842293
0.01368422926
0.01368422922
0.01368422919
0.0136842294
0.01368422938
0.01368422935
0.01368422931
0.01368422926
0.01368422919
0.01368422912
0.01368422906
0.01368422901
0.01368422935
0.01368422932
0.01368422927
0.0136842292
0.01368422911
0.01368422901
0.0136842289
0.01368422879
0.01368422873
0.01368422926
0.01368422922
0.01368422914
0.01368422903
0.01368422888
0.01368422872
0.01368422854
0.01368422838
0.01368422828
0.01368422913
0.01368422905
0.01368422892
0.01368422874
0.01368422852
0.01368422825
0.01368422798
0.01368422773
0.01368422758
0.0136842289
0.01368422877
0.01368422857
0.01368422829
0.01368422793
0.01368422752
0.0136842271
0.01368422672
0.01368422649
0.01368422853
0.01368422833
0.01368422801
0.01368422757
0.01368422702
0.01368422639
0.01368422574
0.01368422517
0.01368422482
0.01368422793
0.01368422761
0.01368422712
0.01368422644
0.01368422559
0.01368422463
0.01368422365
0.0136842228
0.01368422227
0.01368422698
0.01368422649
0.01368422572
0.01368422468
0.01368422339
0.01368422194
0.01368422047
0.01368421921
0.01368421843
0.01368422548
0.01368422472
0.01368422355
0.01368422197
0.01368422003
0.01368421786
0.01368421568
0.01368421381
0.01368421267
0.01368422312
0.01368422197
0.01368422019
0.01368421782
0.01368421493
0.01368421171
0.01368420849
0.01368420576
0.01368420409
0.01368421945
0.01368421771
0.01368421506
0.01368421152
0.01368420725
0.01368420252
0.01368419782
0.01368419384
0.01368419142
0.01368421379
0.0136842112
0.01368420726
0.01368420205
0.01368419578
0.01368418888
0.01368418206
0.01368417632
0.01368417282
0.01368420514
0.01368420132
0.01368419553
0.01368418791
0.01368417878
0.01368416879
0.01368415896
0.01368415071
0.0136841457
0.01368419203
0.01368418644
0.013684178
0.01368416694
0.01368415376
0.0136841394
0.01368412532
0.01368411352
0.01368410638
0.01368417233
0.01368416422
0.01368415203
0.01368413611
0.0136841172
0.01368409668
0.01368407663
0.01368405986
0.01368404972
0.01368414301
0.01368413133
0.01368411384
0.01368409108
0.01368406416
0.01368403501
0.0136840066
0.01368398289
0.01368396858
0.0136840997
0.01368408303
0.01368405813
0.01368402582
0.01368398771
0.01368394658
0.01368390657
0.01368387322
0.01368385312
0.01368403628
0.01368401267
0.01368397746
0.0136839319
0.01368387831
0.01368382061
0.0136837646
0.01368371801
0.01368368995
0.01368394417
0.01368391093
0.0136838615
0.01368379769
0.01368372283
0.01368364241
0.01368356453
0.01368349985
0.01368346095
0.01368381143
0.01368376499
0.01368369604
0.01368360727
0.01368350339
0.01368339206
0.0136832845
0.01368319534
0.01368314179
0.01368362163
0.01368355719
0.0136834617
0.01368333905
0.01368319587
0.01368304283
0.01368289527
0.01368277319
0.01368269996
0.01368335237
0.01368326359
0.01368313227
0.01368296399
0.01368276803
0.01368255905
0.01368235798
0.01368219187
0.01368209234
0.01368297348
0.01368285203
0.01368267273
0.01368244345
0.01368217707
0.01368189359
0.01368162131
0.01368139667
0.01368126216
0.0136824447
0.01368227976
0.01368203666
0.01368172641
0.01368136668
0.01368098456
0.01368061808
0.01368031605
0.01368013533
0.01368171295
0.01368149051
0.01368116316
0.01368074611
0.0136802634
0.01367975145
0.0136792611
0.01367885735
0.01367861589
0.01368070884
0.0136804109
0.013679973
0.01367941598
0.01367877226
0.01367809051
0.01367743827
0.01367690166
0.01367658089
0.01367934259
0.01367894618
0.01367836422
0.01367762497
0.01367677187
0.0136758695
0.01367500709
0.01367429805
0.01367387435
0.01367749936
0.01367697543
0.01367620709
0.01367523232
0.01367410885
0.01367292187
0.01367178849
0.01367085725
0.01367030092
0.01367503409
0.01367434632
0.0136733387
0.01367206186
0.01367059197
0.01366904064
0.01366756059
0.01366634519
0.01366561926
0.01367176613
0.01367086961
0.01366955737
0.01366789634
0.0136659863
0.01366397245
0.01366205264
0.01366047691
0.01365953596
0.01366747381
0.01366631375
0.01366461722
0.01366247203
0.0136600079
0.01365741237
0.01365493992
0.01365291162
0.0136517007
0.01366188958
0.01366040003
0.01365822356
0.01365547434
0.01365231976
0.01364900018
0.01364584051
0.01364324984
0.01364170358
0.01365469598
0.01365279898
0.01365002954
0.01364653501
0.01364252962
0.01363831903
0.01363431468
0.01363103346
0.01362907575
0.01364552341
0.01364312837
0.01363963496
0.01363523173
0.01363019068
0.01362489722
0.01361986785
0.01361574976
0.01361329392
0.01363394991
0.0136309537
0.01362658753
0.01362109067
0.01361480548
0.01360821368
0.0136019576
0.01359683962
0.01359378944
0.01361950369
0.01361579148
0.01361038736
0.01360359232
0.01359583347
0.0135877073
0.01358000471
0.01357371006
0.01356996163
0.01360166864
0.01359711561
0.01359049458
0.01358218077
0.01357270209
0.01356278986
0.01355340779
0.01354575017
0.01354119452
0.01357989287
0.0135743668
0.01356634006
0.01355627596
0.01354482065
0.0135328616
0.01352156037
0.01351234934
0.01350687568
0.01355359993
0.01354696464
0.01353733853
0.01352528809
0.01351159618
0.01349732833
0.01348386887
0.01347291574
0.01346641464
0.01352220224
0.01351432158
0.01350290348
0.01348863345
0.01347245004
0.01345561862
0.01343977034
0.01342689385
0.01341926
0.01348511576
0.01347585798
0.01346246256
0.01344575015
0.01342683397
0.01340720018
0.01338874865
0.01337378189
0.01336492196
0.01344177502
0.01343101717
0.01341547258
0.0133961131
0.01337424461
0.01335159345
0.01333034866
0.01331314918
0.01330298323
0.01339164761
0.0133792797
0.01336143327
0.01333924662
0.01331423513
0.01328838413
0.01326419122
0.01324464337
0.01323310746
0.01333424715
0.01332017547
0.01329989859
0.01327473497
0.01324642761
0.01321723641
0.01318997765
0.01316799586
0.01315504382
0.01326914391
0.01325329382
0.01323048663
0.01320223632
0.01317052445
0.01313789577
0.01310749346
0.01308302426
0.01306862863
0.01319597765
0.01317829964
0.01315289788
0.01312149142
0.01308631049
0.01305019198
0.0130166097
0.01298963236
0.01297378469
0.01311447499
0.0130949432
0.01306691597
0.01303232488
0.01299365533
0.01295403987
0.01291728238
0.01288780846
0.01287051886
0.01302444837
0.01300306075
0.01297241076
0.01293464726
0.0128925139
0.01284943856
0.01280955034
0.01277762234
0.01275891858
0.01292579919
0.012902577
0.01286933972
0.01282845536
0.01278292547
0.01273646918
0.01269353203
0.01265922122
0.0126391474
0.0128185189
0.01279350558
0.01275774748
0.01271383072
0.01266501112
0.01261529141
0.01256942118
0.01253282489
0.01251143978
0.01270268801
0.01267594752
0.01263776357
0.01259093659
0.01253896987
0.01248613882
0.01243748158
0.01239872
0.01237609521
0.01257847312
0.01255008784
0.01250959849
0.01246001332
0.01240507344
0.01234931314
0.01229804088
0.01225725367
0.01223347161
0.01244612214
0.01241619048
0.01237353818
0.01232137244
0.01226365995
0.01220517765
0.01215148381
0.01210882651
0.01208397832
0.01230595788
0.01227459167
0.01222993719
0.01217538956
0.01211512666
0.01205414969
0.01199824458
0.01195388503
0.01192806856
0.01215837032
0.01212569217
0.01207921078
0.01202249643
0.01195992191
0.01189669273
0.01183879904
0.01179291389
0.01176623166
0.01200380794
0.01196994851
0.01192182625
0.01186317227
0.01179853663
0.01173330799
0.01167365648
0.01162642786
0.01159898521
0.01184276832
0.01180786376
0.01175829374
0.01169793485
0.01163149564
0.01156452602
0.0115033515
0.01145496394
0.01142686727
0.01167578847
0.01163997791
0.01158915694
0.01152733138
0.01145934888
0.01139089832
0.01132843597
0.0112790736
0.01125042881
0.01150343507
0.0114668584
0.01141498383
0.01135192966
0.01128266299
0.0112129893
0.01114947143
0.01109931552
0.01107022661
0.01132629509
0.01128909087
0.01123635773
0.01117230959
0.01110201322
0.0110313687
0.01096702185
0.01091624869
0.01088681661
0.01114496666
0.01110727039
0.01105386897
0.01098905516
0.01091797595
0.01084660458
0.01078164715
0.01073042623
0.01070074784
0.01096005083
0.01092199334
0.01086810711
0.0108027472
0.0107311219
0.01065925699
0.01059389725
0.01054238982
0.01051255716
0.01077214391
0.01073385017
0.01067965401
0.01061395686
0.01054201011
0.01046987243
0.01040430696
0.0103526649
0.01032276451
0.01058183075
0.0105434188
0.0104890777
0.0104232399
0.01035118266
0.01027897903
0.01021339156
0.01016175654
0.01013186905
0.01038967895
0.01035125916
0.01029692713
0.01023113188
0.0101591603
0.01008708259
0.01002164319
0.009970146094
0.009940345911
0.01019623388
0.01015790842
0.01010372782
0.01003814416
0.009966438836
0.009894663307
0.009829527886
0.009778288535
0.00974864371
0.01000201477
0.009963877246
0.009909978364
0.009844760709
0.009773486291
0.009702173312
0.009637483462
0.009586610477
0.009557182647
0.009807511515
0.00976964684
0.0097161477
0.009651435704
0.009580740822
0.009510034862
0.00944591789
0.009395508797
0.009366353262
0.009613182367
0.009575666779
0.009522673202
0.009458591867
0.009388609299
0.009318639163
0.009255208367
0.009205349839
0.009176515708
0.009419452403
0.009382353596
0.00932995943
0.009266619427
0.009197466499
0.009128345775
0.009065700882
0.009016469106
0.008987999525
0.009226712619
0.009190090008
0.00913837751
0.009075875676
0.009007654837
0.008939482506
0.008877710255
0.008829171402
0.008801103826
0.009035319643
0.008999224713
0.008948265062
0.008886685029
0.00881948457
0.008752345742
0.008691520569
0.008643731343
0.008616097853
0.008845595972
0.008810072696
0.008759926587
0.008699339524
0.008633234395
0.008567201141
0.008507385936
0.008460394174
0.008433221826
0.008657830629
0.008622915935
0.00857363425
0.00851409967
0.008449152375
0.008384284622
0.008325531544
0.008279376849
0.008252688032
0.008472280191
0.008438004468
0.00838962898
0.008331195603
0.008267457132
0.008203803596
0.008146154909
0.008100869301
0.008074682113
0.0082891701
0.008255557713
0.008208121826
0.008150828457
0.008088339241
0.00802593837
0.007969427291
0.007925035864
0.007899364482
0.008108696195
0.008075766016
0.008029295495
0.007973171911
0.00791196278
0.007850843695
0.007795495231
0.007752016797
0.007726871843
0.007931026405
0.00789879233
0.007853306036
0.007798373858
0.007738466976
0.007678650393
0.007624482154
0.007581929872
0.007557318769
0.007756302542
0.007724774004
0.007680284607
0.007626558143
0.007567967916
0.007509467029
0.007456490019
0.007414871996
0.007390799309
0.007584642169
0.007553824623
0.00751033928
0.007457826339
0.007400560281
0.00734338161
0.007291600969
0.007250920832
0.007227388587
0.007416140477
0.007386035868
0.007343556869
0.007292259526
0.007236319076
0.007180463262
0.007129878969
0.007090136402
0.007067144391
0.007250872154
0.00722147935
0.007180004727
0.007129920043
0.00707530133
0.007020763879
0.006971371406
0.006932562647
0.006910108711
0.007088893223
0.007060208422
0.007019732512
0.006970853198
0.006917547749
0.006864319719
0.006816110634
0.006778228938
0.006756309223
0.006930242811
0.006902259913
0.006862773877
0.006815088907
0.006763084301
0.00671115293
0.006664115453
0.006627151514
0.006605760711
0.00677494485
0.006747655803
0.006709148097
0.006662643269
0.006611923726
0.006561273013
0.006515392517
0.006479334852
0.006458466414
0.006623009688
0.006596404794
0.006558861604
0.006513520046
0.006464066967
0.006414678186
0.006369937657
0.006334772953
0.00631441929
0.00647443561
0.006448503804
0.006411909428
0.006367712057
0.006319504505
0.006271356675
0.006227737119
0.006193450547
0.006173603202
0.006329210249
0.006303939352
0.00626827655
0.006225202474
0.006178217609
0.006131287912
0.006088768721
0.006055344211
0.006035994019
0.006187311907
0.006162688847
0.006127939145
0.006085966028
0.006040179488
0.005994443638
0.005953002917
0.00592042341
0.005901560636
0.006048710767
0.006024721771
0.005990865736
0.00594997012
0.005905356358
0.005860788928
0.005820403779
0.005788651444
0.005770265908
0.005913370002
0.005890000774
0.005857018249
0.005817175829
0.005773708413
0.005730283124
0.005690929898
0.005659986326
0.005642067512
0.005781246794
0.005758482662
0.005726352975
0.005687538848
0.005645190717
0.005602880684
0.005564535204
0.005534381573
0.005516918723
0.005652293254
0.005630119299
0.005598821442
0.005561010316
0.005519754006
0.00547853196
0.005441169706
0.00541178693
0.00539476913
0.005526457253
0.005504858423
0.005474371207
0.005437537585
0.00539734542
0.005357183891
0.005320780171
0.005292149023
0.005275565273
0.005403683174
0.005382644376
0.005352946564
0.005317064898
0.005277909155
0.005238780635
0.005203310721
0.005175411944
0.005159251218
0.005283912579
0.005263418762
0.005234489179
0.005199534002
0.005161387054
0.005123264129
0.005088703378
0.005061517777
0.005045769079
0.005167084806
0.005147121032
0.005118938659
0.005084884697
0.005047719127
0.005010574593
0.004976898549
0.004950407068
0.004935059476
0.005053137507
0.005033688999
0.005006233054
0.004973055315
0.004936844015
0.004900650977
0.004867835455
0.004842019242
0.004827061945
0.004942007106
0.004923059305
0.004896309306
0.004863983161
0.004828699414
0.004793431358
0.004761452512
0.004736292975
0.004721715302
0.004833629208
0.004815167804
0.004789103622
0.004757604868
0.004723222415
0.00468885328
0.004657687666
0.004633166515
0.004618957967
0.004727938964
0.004709949928
0.00468455183
0.004653856736
0.004620349832
0.004586854059
0.004556478678
0.004532577968
0.004518728234
0.004624871386
0.004607340997
0.004582589678
0.004552675027
0.004520018478
0.004487371053
0.004457763389
0.004434465541
0.004420964518
0.004524361624
0.004507276483
0.004483153093
0.00445399621
0.004422165405
0.004390341888
0.004361479936
0.004338767763
0.004325605567
0.004426345198
0.004409692241
0.004386178399
0.004357757174
0.004326728112
0.00429570466
0.004267566943
0.004245423667
0.004232590645
0.004330758193
0.004314524703
0.004291602513
0.004263895413
0.004233644716
0.004203398098
0.004175963689
0.004154372952
0.004141859688
0.004237537434
0.004221711043
0.004199363101
0.004172349182
0.004142854105
0.004113361718
0.004086610242
0.004065556116
0.004053353437
0.004146620623
0.004131189319
0.004109398717
0.004083057627
0.004054296065
0.004025535933
0.00399944758
0.003978914567
0.003967013545
0.004057946465
0.004042898588
0.004021648912
0.003995960895
0.003967911383
0.00393986216
0.00391441768
0.00389439072
0.003882782673
0.003971454758
0.003956779001
0.003936054332
0.003911000221
0.003883641931
0.0038562829
0.003831463607
0.003811928071
0.003800604565
0.003887086479
0.003872771882
0.003852556788
0.003828118002
0.003801430736
0.003774741806
0.003750529568
0.00373147126
0.003720424105
0.003804783837
0.003790819783
0.003771099317
0.003747257853
0.003721222042
0.003695183735
0.003671560968
0.003652966116
0.003642187367
0.003724490333
0.003710866545
0.003691626232
0.003668364655
0.003642961339
0.003617554781
0.003594504446
0.003576359698
0.003565841646
0.00364615079
0.003632857323
0.003614083153
0.003591384582
0.003566595402
0.003541802312
0.003519307899
0.003501600317
0.003491335492
0.003569711381
0.00355673861
0.003538417026
0.003516265125
0.003492072309
0.003467874988
0.003445920508
0.003428637556
0.003418618719
0.003495119638
0.003482458256
0.003464576143
0.003442955105
0.003419341454
0.00339572277
0.003374292743
0.003357422283
0.00334764242
0.003422324463
0.003409965468
0.003392510142
0.003371404679
0.003348353553
0.003325296926
0.003304376368
0.003287906647
0.003278358967
0.00335127613
0.003339210819
0.003322170014
0.003301565336
0.00327906064
0.00325655003
0.00323612444
0.003220044081
0.003210722007
0.003281926276
0.003270146234
0.003253508091
0.003233389898
0.003211416063
0.003189435952
0.003169491299
0.003153789291
0.003144686457
0.003214227892
0.003202724984
0.003186478036
0.003166832501
0.003145374471
0.003123909849
0.003104432556
0.003089098245
0.00308020849
0.003148135305
0.003136901669
0.003121034832
0.003101848584
0.0030808918
0.003059928148
0.003040905083
0.003025928158
0.003017245517
0.003083604166
0.003072632199
0.003057134757
0.003038394871
0.003017925251
0.002997448529
0.002978866988
0.002964237472
0.002955756175
0.003020591419
0.003009873775
0.002994735367
0.002976429345
0.002956433276
0.002936429901
0.002918277595
0.002903985838
0.0028957003
0.002959055285
0.002948584861
0.002933795473
0.002915911229
0.002896375546
0.002876832384
0.002859097425
0.00284513409
0.002837038907
0.002898955232
0.002888725163
0.002874275111
0.002856800963
0.002837712932
0.002818617281
0.00280128817
0.002787644223
0.002779734165
0.002840251949
0.002830255595
0.002816135519
0.002799060168
0.002780407479
0.002761747051
0.002744812666
0.002731479367
0.002723749375
0.002782907316
0.00277313826
0.002759339108
0.00274265163
0.002724422376
0.002706185288
0.002689634868
0.002676603761
0.00266904894
0.002726884378
0.002717336416
0.002703849435
0.002687539265
0.00266972193
0.002651896688
0.002635719824
0.002622982729
0.002615598341
0.002672147315
0.002662814445
0.002649631172
0.002633688095
0.002616271541
0.002598847026
0.002583033649
0.002570582651
0.002563364114
0.002618661411
0.002609537833
0.002596650082
0.002581064216
0.002564037672
0.00254700313
0.002531543499
0.002519370941
0.002512313819
0.002566393029
0.002557473132
0.00254487299
0.00252963478
0.002512987826
0.002496332855
0.002481217547
0.002469316021
0.002462416024
0.002515309584
0.002506587942
0.002494267754
0.002479367958
0.002463090519
0.002446805057
0.002432024958
0.002420387299
0.002413640276
0.002465379513
0.00245685088
0.002444803245
0.002430232928
0.002414315258
0.002398389576
0.002383935871
0.002372555148
0.002365957085
0.002416572257
0.002408231562
0.002396449324
0.002382199844
0.002366632524
0.002351057213
0.00233692138
0.002325790892
0.002319337907
0.002368858238
0.002360700578
0.002349176821
0.002335239829
0.002320013751
0.002304779719
0.00229095352
0.002280066793
0.002273755135
0.002322208844
0.002314229482
0.002302957523
0.00228932495
0.002274431319
0.002259529783
0.002246005263
0.00223535604
0.002229182086
0.002276596415
0.002268790778
0.002257764166
0.002244428223
0.002229858547
0.002215281029
0.00220205051
0.002191632757
0.002185593013
0.002231994243
0.002224357919
0.00221357043
0.002200523607
0.002186269697
0.002172008025
0.002159064108
0.00214887201
0.002142963108
0.002188376575
0.002180905313
0.002170350954
0.002157586016
0.002143639991
0.002129686301
0.002117021865
0.002107049829
0.002101268532
0.002145718626
0.002138408341
0.00212808135
0.002115591347
0.002101945635
0.002088292375
0.002075900591
0.002066143254
0.002060486459
0.002103996615
0.002096843388
0.002086738242
0.002074516515
0.002061163868
0.002047803815
0.002035678151
0.002026130389
0.002020595133
0.002063187807
0.002056187896
0.002046299324
0.00203433952
0.002021273029
0.002008199303
0.001996333547
0.00198699049
0.001981573961
0.002023270589
0.002016420439
0.002006743435
0.00199503953
0.00198225265
0.001969458744
0.001957847028
0.001948704083
0.00194340363
0.001984224561
0.00197752082
0.001968050671
0.001956596999
0.001944083584
0.0019315634
0.001920200236
0.001911253116
0.001906066271
0.001946030669
0.00193947021
0.001930202525
0.001918993816
0.001906748168
0.001894496064
0.001883376391
0.001874621156
0.001869545654
0.001908671366
0.001902251316
0.001893182067
0.001882213504
0.001870230427
0.001858241285
0.001847360528
0.00183879363
0.001833827441
0.001872130821
0.001865848596
0.001856974172
0.001846241454
0.001834516334
0.001822785633
0.001812139783
0.001803758131
0.001798899497
0.00183639517
0.001830248519
0.001821565792
0.001811065214
0.001799594111
0.001788118029
0.001777703728
0.001769504765
0.001764752245
0.001801452813
0.001795439876
0.001786946276
0.00177667483
0.00176545459
0.001754230118
0.001744044773
0.001736026563
0.001731379087
0.001767294768
0.001761414135
0.001753107745
0.001743063234
0.001732091618
0.001721116696
0.00171115861
0.001703319945
0.001698776877
0.001733915057
0.001728165844
0.001720045508
0.001710226679
0.001699502514
0.001688776186
0.001679044699
0.001671385217
0.001666946425
0.001701311142
0.001695693077
0.001687758514
0.001678165207
0.00166768855
0.001657211138
0.001647706789
0.001640227102
0.001635893036
0.001669484384
0.001663997892
0.001656249831
0.001646883135
0.001636655455
0.001626428736
0.001617153434
0.001609855269
0.00160562704
0.001638440514
0.001633086812
0.001625527123
0.001616389545
0.001606413901
0.0015964413
0.001587398493
0.001580284826
0.001576164293
0.001608190082
0.001602971278
0.001595603105
0.001586698729
0.001576979954
0.00156726672
0.001558461566
0.001551536757
0.001547526597
0.001578748874
0.001573668047
0.001566495937
0.001557830575
0.001548375437
0.001538928808
0.001530368317
0.001523638221
0.001519741999
0.001550138235
0.001545199518
0.00153822952
0.001529810838
0.00152062817
0.001511457496
0.001503150641
0.001496622692
0.001492844906
0.001522385272
0.001517593901
0.001510833643
0.001502671239
0.001493772023
0.001484888842
0.001476846613
0.001470529862
0.00146687596
0.001495522887
0.001490885226
0.001484343937
0.001476449369
0.001467846743
0.001459264774
0.001451500163
0.001445405251
0.001441881614
0.001469589588
0.001465113102
0.001458801578
0.001451188301
0.001442897487
0.001434632532
0.001427160418
0.001421299473
0.001417913343
0.001444629039
0.001440322228
0.001434252711
0.001426935917
0.001418974013
0.001411043734
0.001403880665
0.001398267104
0.001395026463
0.001420689286
0.001416561541
0.001410747518
0.001403743866
0.001396129528
0.001388553083
0.001381716907
0.001376365135
0.001373278512
0.001397821639
0.001393883039
0.001388338928
0.001381666146
0.001374419109
0.001367216646
0.001360726016
0.001355650997
0.001352727209
0.001376079204
0.001372340226
0.001367080956
0.001360757303
0.001353897764
0.001347089752
0.00134096348
0.001336180196
0.001333428021
0.001355515047
0.001351986207
0.001347026692
0.001341070285
0.00133461813
0.001328224546
0.001322480819
0.001318003626
0.001315431404
0.001336180047
0.001332871467
0.001328225972
0.001322654002
0.001316627904
0.001310667286
0.00130532277
0.001301164654
0.001298779844
0.001318120491
0.001315041405
0.001310722839
0.001305550679
0.001299967098
0.001294455508
0.00128952437
0.001285696157
0.00128350486
0.001301375501
0.001298533727
0.001294552881
0.001289793153
0.001284665285
0.001279615234
0.001275108141
0.001271617683
0.001269624166
0.001285974446
0.001283375846
0.001279740625
0.001275402257
0.001270738999
0.001266158397
0.001262081557
0.001258932977
0.001257139228
0.001271934477
0.001269582442
0.001266297138
0.001262384494
0.001258189495
0.001254080716
0.00125043504
0.001247628078
0.001246033431
0.001259258373
0.001257153376
0.001254218047
0.001250730187
0.001247001076
0.001243360215
0.001240140679
0.001237670221
0.001236271103
0.001247932885
0.001246072134
0.00124348214
0.001240412304
0.001237140165
0.001233956576
0.001231151862
0.001229007708
0.001227797526
0.001237927735
0.001236304981
0.001234050735
0.001231386089
0.001228555267
0.001225811452
0.00122340393
0.001221570847
0.001220540058
0.001229195424
0.001227800938
0.001225867919
0.001223589639
0.001221177912
0.001218849799
0.001216815885
0.001215273966
0.001214410332
0.001221671925
0.001220492671
0.001218861715
0.001216945413
0.001214924564
0.001212982192
0.001211293076
0.001210018407
0.001209307428
0.001215278273
0.00121429828
0.001212946151
0.001211362644
0.001209699402
0.001208107977
0.001206730693
0.00120569628
0.001205121773
0.001209923
0.001209123915
0.001208024126
0.001206740498
0.001205397792
0.001204119041
0.001203017795
0.001202194679
0.001201739468
0.001205505259
0.001204867033
0.001203990861
0.001202971749
0.001201910183
0.001200903908
0.001200041548
0.001199400016
0.001199046659
0.001201918408
0.001201420084
0.0012007377
0.001199946695
0.001199126114
0.001198351805
0.001197691321
0.001197202104
0.001196933593
0.001199053813
0.001198674336
0.00119815595
0.001197556994
0.00119693803
0.001196356396
0.001195862304
0.001195497658
0.00119529804
0.001196804554
0.001196523533
0.001196140479
0.001195699156
0.001195244593
0.001194818902
0.00119445841
0.00119419299
0.001194047847
0.001195068764
0.00119486715
0.001194592803
0.001194277405
0.001193953297
0.00119365041
0.001193394281
0.001193205754
0.001193102522
0.00119375239
0.001193612993
0.001193423474
0.001193205795
0.001192982239
0.001192773292
0.001192596363
0.00119246574
0.001192393857
0.001192771201
0.001192679041
0.001192553663
0.001192409468
0.001192261026
0.001192121742
0.001192003104
0.001191914799
0.001191865696
0.001192051988
0.001191994459
0.001191915919
0.001191825102
0.001191730884
0.001191641548
0.001191564427