/*--------------------------------*- C++ -*----------------------------------*\
| =========                 |                                                 |
| \\      /  F ield         | OpenFOAM: The Open Source CFD Toolbox           |
|  \\    /   O peration     | Version:  2212                                  |
|   \\  /    A nd           | Website:  www.openfoam.com                      |
|    \\/     M anipulation  |                                                 |
\*---------------------------------------------------------------------------*/
FoamFile
{
    version     2.0;
    format      ascii;
    arch        "LSB;label=32;scalar=64";
    class       volScalarField;
    location    "19.75000000";
    object      CH3COCH2_0;
}
// * * * * * * * * * * * * * * * * * * * * * * * * * * * * * * * * * * * * * //

dimensions      [0 0 0 0 0 0 0];

internalField   nonuniform List<scalar> 
3000
(
6.584024974e-24
7.396151921e-24
8.621636652e-24
1.025469019e-23
1.22787091e-23
1.463873002e-23
1.719257554e-23
1.962942974e-23
2.135259384e-23
2.471879969e-23
2.787974772e-23
3.264750734e-23
3.901501902e-23
4.697594636e-23
5.648615505e-23
6.73805875e-23
7.910932338e-23
8.949915898e-23
5.536651896e-23
6.293660428e-23
7.446377183e-23
9.011485091e-23
1.101712135e-22
1.349237576e-22
1.642750765e-22
1.965773518e-22
2.241849668e-22
1.054526289e-22
1.211259832e-22
1.453420128e-22
1.789197425e-22
2.230483908e-22
2.788489357e-22
3.460166778e-22
4.191744897e-22
4.782229426e-22
1.872418938e-22
2.177098046e-22
2.655249043e-22
3.331150154e-22
4.236580324e-22
5.39690474e-22
6.79273042e-22
8.275013138e-22
9.412848943e-22
3.219447335e-22
3.791221152e-22
4.701400823e-22
6.008047109e-22
7.780830096e-22
1.00643239e-21
1.279030038e-21
1.561498117e-21
1.770471204e-21
5.464824137e-22
6.514972294e-22
8.206132164e-22
1.06613556e-21
1.401729593e-21
1.834059798e-21
2.345238974e-21
2.864589983e-21
3.239323292e-21
9.247068212e-22
1.114730187e-21
1.423467043e-21
1.875161487e-21
2.494994252e-21
3.291876727e-21
4.225818827e-21
5.160877602e-21
5.824308679e-21
1.56723834e-21
1.907450733e-21
2.463782783e-21
3.281847573e-21
4.406431106e-21
5.848321785e-21
7.526049584e-21
9.188314693e-21
1.035469161e-20
2.665603342e-21
3.269923451e-21
4.262671221e-21
5.727205263e-21
7.74174237e-21
1.031794803e-20
1.329894268e-20
1.623083312e-20
1.827281182e-20
4.55165105e-21
5.618822508e-21
7.377518253e-21
9.97730479e-21
1.355362733e-20
1.811690077e-20
2.337550166e-20
2.85210508e-20
3.208685982e-20
7.800524352e-21
9.67679456e-21
1.277572616e-20
1.736261952e-20
2.367131845e-20
3.170684096e-20
4.093907073e-20
4.994049113e-20
5.615691724e-20
1.340944266e-20
1.669752051e-20
2.213659878e-20
3.01938937e-20
4.127298004e-20
5.536565445e-20
7.152210855e-20
8.723497585e-20
9.806038788e-20
2.310789481e-20
2.885621269e-20
3.837519218e-20
5.248389644e-20
7.187930877e-20
9.65255208e-20
1.247368236e-19
1.521243069e-19
1.70960802e-19
3.989588561e-20
4.992729217e-20
6.655146412e-20
9.119998251e-20
1.250776465e-19
1.680943557e-19
2.172772997e-19
2.649619988e-19
2.977178393e-19
6.897780085e-20
8.646019264e-20
1.154477568e-19
1.584375289e-19
2.175137802e-19
2.924842775e-19
3.781291772e-19
4.610857352e-19
5.180177184e-19
1.1938289e-19
1.498198221e-19
2.003064934e-19
2.751920379e-19
3.780843968e-19
5.086031742e-19
6.576111948e-19
8.018377484e-19
9.007491421e-19
2.067779062e-19
2.597284426e-19
3.47582783e-19
4.779080208e-19
6.569524662e-19
8.839940522e-19
1.143072778e-18
1.393699184e-18
1.565490968e-18
3.583500408e-19
4.504151831e-19
6.031966872e-19
8.298507947e-19
1.141202122e-18
1.535914306e-18
1.98615235e-18
2.421515437e-18
2.719812447e-18
6.212847542e-19
7.812933738e-19
1.046861645e-18
1.440850318e-18
1.982015744e-18
2.667923841e-18
3.45008343e-18
4.206140518e-18
4.723993139e-18
1.077484761e-18
1.355498503e-18
1.81696022e-18
2.501574073e-18
3.441839626e-18
4.633364936e-18
5.991740854e-18
7.304406582e-18
8.203305836e-18
1.869121502e-18
2.352069071e-18
3.153723588e-18
4.343007262e-18
5.97621486e-18
8.045453111e-18
1.040386604e-17
1.268231905e-17
1.424224694e-17
3.242982594e-18
4.081799757e-18
5.474166278e-18
7.539652411e-18
1.03757043e-17
1.396812505e-17
1.806147317e-17
2.201490842e-17
2.47209007e-17
5.627405377e-18
7.084125758e-18
9.502041887e-18
1.308844421e-17
1.801184854e-17
2.424661991e-17
3.134845368e-17
3.820519375e-17
4.289693681e-17
9.765697262e-18
1.22951381e-17
1.64931671e-17
2.271882388e-17
3.126310796e-17
4.20793998e-17
5.43948034e-17
6.628001037e-17
7.440924988e-17
1.694731345e-17
2.133867008e-17
2.86256614e-17
3.942942006e-17
5.425141166e-17
7.300599491e-17
9.434837784e-17
1.149335092e-16
1.290058553e-16
2.940791228e-17
3.702990345e-17
4.967474949e-17
6.841532037e-17
9.411337032e-17
1.266095663e-16
1.635632118e-16
1.991787161e-16
2.235086834e-16
5.102063233e-17
6.424530774e-17
8.617766008e-17
1.186670533e-16
1.631889384e-16
2.194426299e-16
2.833521017e-16
3.448853916e-16
3.868802183e-16
8.848811134e-17
1.114220022e-16
1.494394974e-16
2.057200012e-16
2.827775507e-16
3.800362575e-16
4.9039468e-16
5.965095522e-16
6.688380396e-16
1.533927085e-16
1.931347613e-16
2.589764917e-16
3.563652732e-16
4.895581986e-16
6.574367694e-16
8.476229351e-16
1.030183373e-15
1.154411577e-15
2.657115813e-16
3.34509804e-16
4.484036644e-16
6.166858958e-16
8.46508042e-16
1.135671764e-15
1.462595682e-15
1.775729343e-15
1.988359624e-15
4.598201049e-16
5.787526899e-16
7.754546836e-16
1.06569245e-15
1.461359664e-15
1.958097796e-15
2.518281475e-15
3.053381849e-15
3.415778738e-15
7.946982671e-16
9.999227136e-16
1.338937594e-15
1.838312332e-15
2.517578782e-15
3.368053688e-15
4.324179915e-15
5.234469753e-15
5.848981759e-15
1.371189167e-15
1.72448132e-15
2.307236035e-15
3.163858718e-15
4.325921846e-15
5.776115915e-15
7.400375418e-15
8.940640291e-15
9.976447441e-15
2.360998721e-15
2.967387868e-15
3.965844126e-15
5.429842766e-15
7.409422191e-15
9.870202902e-15
1.26142018e-14
1.520422174e-14
1.693820824e-14
4.055067084e-15
5.092073562e-15
6.795929564e-15
9.286766112e-15
1.264194973e-14
1.679372058e-14
2.139972577e-14
2.572414153e-14
2.860461859e-14
6.943562088e-15
8.709149962e-15
1.160282134e-14
1.58182391e-14
2.147132907e-14
2.843005452e-14
3.610553526e-14
4.326885852e-14
4.801353228e-14
1.184684327e-14
1.483708362e-14
1.972360468e-14
2.681352062e-14
3.627361343e-14
4.78503535e-14
6.053785549e-14
7.230171297e-14
8.00463281e-14
2.012735567e-14
2.516037469e-14
3.335780595e-14
4.519753193e-14
6.090669038e-14
8.000697432e-14
1.007952176e-13
1.199365778e-13
1.324577981e-13
3.402773825e-14
4.243815398e-14
5.608546906e-14
7.569735142e-14
1.015594827e-13
1.327875201e-13
1.665281008e-13
1.973732187e-13
2.174194115e-13
5.720167328e-14
7.113943312e-14
9.366307394e-14
1.258536464e-13
1.68026099e-13
2.185815775e-13
2.727988158e-13
3.220085719e-13
3.53786092e-13
9.553215909e-14
1.184106724e-13
1.552184651e-13
2.0751705e-13
2.755661324e-13
3.565443403e-13
4.427500455e-13
5.204557447e-13
5.703351587e-13
1.583680282e-13
1.95516304e-13
2.54997756e-13
3.389949373e-13
4.475275862e-13
5.757430949e-13
7.112774488e-13
8.326769097e-13
9.101937526e-13
2.603569654e-13
3.199341996e-13
4.14845978e-13
5.480202687e-13
7.188788053e-13
9.192901349e-13
1.129753178e-12
1.317218785e-12
1.436404948e-12
4.241246198e-13
5.183461597e-13
6.67633426e-13
8.756914216e-13
1.140680729e-12
1.449303614e-12
1.771377566e-12
2.056827138e-12
2.237677285e-12
6.841820641e-13
8.308774319e-13
1.061908636e-12
1.381503618e-12
1.785310073e-12
2.251972692e-12
2.735628963e-12
3.161907718e-12
3.430936966e-12
1.092721518e-12
1.317205641e-12
1.668278885e-12
2.149677369e-12
2.752004614e-12
3.44109468e-12
4.148192238e-12
4.765523811e-12
5.151897289e-12
1.72851157e-12
2.065734512e-12
2.588591968e-12
3.29745265e-12
4.172375885e-12
5.157556127e-12
6.149918002e-12
6.99775603e-12
7.515788129e-12
2.710985182e-12
3.207977067e-12
3.970018386e-12
4.987064938e-12
6.216410553e-12
7.562500175e-12
8.867315456e-12
9.924071849e-12
1.052477002e-11
4.222394467e-12
4.94102753e-12
6.026801461e-12
7.443773781e-12
9.100477436e-12
1.082451674e-11
1.236448058e-11
1.344997889e-11
1.392912309e-11
6.539741032e-12
7.559043186e-12
9.069224528e-12
1.097765996e-11
1.309404546e-11
1.510190598e-11
1.659749508e-11
1.726073527e-11
1.717376623e-11
1.007052595e-11
1.148417056e-11
1.352422587e-11
1.598579206e-11
1.849638494e-11
2.05020145e-11
2.14059797e-11
2.094494454e-11
1.97203352e-11
1.53645153e-11
1.725995629e-11
1.989615245e-11
2.286569802e-11
2.550358729e-11
2.695397283e-11
2.6529992e-11
2.433413209e-11
2.172265567e-11
2.303019692e-11
2.542319897e-11
2.856953705e-11
3.173830843e-11
3.389022955e-11
3.39756756e-11
3.162212741e-11
2.769670282e-11
2.410164467e-11
3.344197899e-11
3.614635976e-11
3.937700934e-11
4.199138539e-11
4.268066731e-11
4.065822039e-11
3.64129946e-11
3.148148552e-11
2.758690278e-11
4.617127682e-11
4.866215332e-11
5.110217509e-11
5.206433388e-11
5.044608891e-11
4.633020168e-11
4.100786033e-11
3.586853642e-11
3.202470017e-11
5.9448876e-11
6.095627573e-11
6.164239813e-11
6.027673068e-11
5.653531542e-11
5.129001177e-11
4.572680551e-11
4.055083418e-11
3.656876694e-11
7.069337941e-11
7.078674285e-11
6.958351561e-11
6.649053211e-11
6.182167963e-11
5.636857014e-11
5.064449685e-11
4.495360389e-11
4.037462425e-11
7.879216226e-11
7.794614558e-11
7.584661146e-11
7.231439293e-11
6.759863345e-11
6.194861178e-11
5.546981502e-11
4.866521359e-11
4.323093589e-11
8.563447181e-11
8.46886653e-11
8.263212893e-11
7.919157395e-11
7.423341871e-11
6.767940728e-11
5.980627322e-11
5.170404872e-11
4.552547118e-11
9.387862682e-11
9.305230426e-11
9.09848605e-11
8.711380074e-11
8.107217261e-11
7.2942895e-11
6.355857084e-11
5.444506483e-11
4.780223824e-11
1.041419684e-10
1.029816853e-10
1.001622276e-10
9.498791079e-11
8.725391088e-11
7.752879092e-11
6.705071174e-11
5.736836048e-11
5.050256891e-11
1.149369304e-10
1.128597397e-10
1.086514801e-10
1.018191147e-10
9.256492978e-11
8.180310243e-11
7.07963915e-11
6.089764566e-11
5.395151958e-11
1.243098961e-10
1.211596926e-10
1.156271079e-10
1.075791522e-10
9.751112829e-11
8.638140913e-11
7.528507839e-11
6.538021765e-11
5.841742029e-11
1.315615568e-10
1.277128919e-10
1.214872674e-10
1.130060558e-10
1.028419213e-10
9.184433137e-11
8.092798815e-11
7.112455791e-11
6.416486653e-11
1.374565424e-10
1.334567387e-10
1.272268757e-10
1.189736993e-10
1.092190349e-10
9.866473463e-11
8.80854129e-11
7.844104848e-11
7.148704034e-11
1.43233434e-10
1.395133761e-10
1.337716973e-10
1.261823737e-10
1.171505911e-10
1.072379941e-10
9.710630555e-11
8.766803736e-11
8.072361825e-11
1.498987847e-10
1.467328037e-10
1.417848394e-10
1.351303025e-10
1.270369912e-10
1.179259994e-10
1.08352674e-10
9.918392663e-11
9.226736825e-11
1.581077794e-10
1.556628763e-10
1.517080378e-10
1.461894004e-10
1.392225995e-10
1.310818137e-10
1.222073847e-10
1.134060198e-10
1.065594274e-10
1.682560605e-10
1.666551891e-10
1.638557443e-10
1.596599024e-10
1.540209629e-10
1.470544075e-10
1.390663273e-10
1.307759008e-10
1.240718428e-10
1.805986186e-10
1.799526176e-10
1.784677284e-10
1.757953752e-10
1.71717935e-10
1.661765125e-10
1.593161723e-10
1.517309429e-10
1.452760945e-10
1.953093373e-10
1.957310222e-10
1.957302741e-10
1.948048116e-10
1.925581566e-10
1.88738947e-10
1.832993582e-10
1.766626142e-10
1.705978213e-10
2.125063402e-10
2.141130731e-10
2.157765332e-10
2.168398077e-10
2.167202858e-10
2.14955198e-10
2.112694092e-10
2.058645114e-10
2.003606592e-10
2.322567331e-10
2.351657096e-10
2.386749947e-10
2.419734814e-10
2.442863093e-10
2.449213005e-10
2.433419814e-10
2.394760814e-10
2.347255158e-10
2.545705241e-10
2.588894444e-10
2.644128001e-10
2.701770147e-10
2.752108456e-10
2.785776818e-10
2.794494651e-10
2.774309816e-10
2.736349233e-10
2.793902148e-10
2.852053885e-10
2.928794143e-10
3.012995235e-10
3.09296968e-10
3.156808204e-10
3.193085258e-10
3.194208963e-10
3.167742769e-10
3.065807474e-10
3.13944618e-10
3.238554644e-10
3.350566592e-10
3.461849578e-10
3.557924543e-10
3.624097855e-10
3.648852909e-10
3.635611873e-10
3.359234683e-10
3.44843605e-10
3.570106846e-10
3.710323057e-10
3.85359058e-10
3.982925825e-10
4.080379699e-10
4.130390857e-10
4.131771181e-10
3.671168121e-10
3.775483091e-10
3.91913406e-10
4.086956229e-10
4.261743436e-10
4.424187288e-10
4.553272026e-10
4.629480517e-10
4.646847407e-10
3.9978521e-10
4.116280457e-10
4.280521146e-10
4.474332271e-10
4.679026121e-10
4.873300274e-10
5.033483685e-10
5.136734542e-10
5.172270389e-10
4.334963845e-10
4.465988215e-10
4.648680933e-10
4.8659553e-10
5.097954446e-10
5.321897023e-10
5.512308737e-10
5.643291836e-10
5.695878561e-10
4.677864232e-10
4.819557755e-10
5.017975453e-10
5.25549673e-10
5.511665216e-10
5.763063941e-10
5.982436036e-10
6.13776303e-10
6.206057228e-10
5.021929024e-10
5.172080795e-10
5.383234331e-10
5.637738807e-10
5.915405417e-10
6.191260867e-10
6.434151028e-10
6.610219681e-10
6.692577125e-10
5.36306816e-10
5.519610447e-10
5.740812921e-10
6.010079e-10
6.304805781e-10
6.598543319e-10
6.859597141e-10
7.052562535e-10
7.14705123e-10
5.699287075e-10
5.861109694e-10
6.090089384e-10
6.368203573e-10
6.673338448e-10
6.97886992e-10
7.252793678e-10
7.458640796e-10
7.563100371e-10
6.029669426e-10
6.19319413e-10
6.42480613e-10
6.706411144e-10
7.016215667e-10
7.327873096e-10
7.609511208e-10
7.82417137e-10
7.936295299e-10
6.347757685e-10
6.510137635e-10
6.740376203e-10
7.020771983e-10
7.330089304e-10
7.642614506e-10
7.927050764e-10
8.146526331e-10
8.263951127e-10
6.649097266e-10
6.807949817e-10
7.033431189e-10
7.308493404e-10
7.612709231e-10
7.921309209e-10
8.203973734e-10
8.424455882e-10
8.544847693e-10
6.930291909e-10
7.083601944e-10
7.30143876e-10
7.567593733e-10
7.862659142e-10
8.163071794e-10
8.439834288e-10
8.657803571e-10
8.778935493e-10
7.188618819e-10
7.334707124e-10
7.542478295e-10
7.796703543e-10
8.079161866e-10
8.36770673e-10
8.634945789e-10
8.847249849e-10
8.967065676e-10
7.421872105e-10
7.559381259e-10
7.7551198e-10
7.994943e-10
8.261942376e-10
8.535548102e-10
8.790193522e-10
8.994100087e-10
9.110762372e-10
7.628304989e-10
7.756185485e-10
7.93836277e-10
8.161848896e-10
8.411135922e-10
8.667343817e-10
8.906892872e-10
9.100118721e-10
9.212040678e-10
7.806613995e-10
7.924105672e-10
8.091607145e-10
8.297332261e-10
8.52722783e-10
8.764174146e-10
8.986684918e-10
9.16740313e-10
9.273265241e-10
7.955936802e-10
8.062545253e-10
8.214638061e-10
8.401651718e-10
8.611012303e-10
8.827393322e-10
9.031459188e-10
9.198288032e-10
9.297041154e-10
8.075848608e-10
8.171317794e-10
8.307612432e-10
8.475391768e-10
8.663560106e-10
8.858584487e-10
9.043294291e-10
9.195271646e-10
9.286128978e-10
8.166349403e-10
8.250632046e-10
8.371040437e-10
8.519439216e-10
8.686188296e-10
8.859521077e-10
9.024409481e-10
9.1609568e-10
9.243377349e-10
8.227839428e-10
8.301066699e-10
8.405758966e-10
8.534954491e-10
8.680428411e-10
8.832130643e-10
8.977122789e-10
9.098002392e-10
9.171668506e-10
8.261083412e-10
8.323535171e-10
8.412896982e-10
8.523337357e-10
8.647991998e-10
8.778459375e-10
8.903813389e-10
9.009082412e-10
9.073873717e-10
8.26716604e-10
8.31924259e-10
8.393834525e-10
8.486188157e-10
8.590734005e-10
8.700637124e-10
8.806887284e-10
8.896850949e-10
8.952816652e-10
8.247441932e-10
8.289637953e-10
8.350157887e-10
8.425266566e-10
8.510615307e-10
8.600843459e-10
8.688746093e-10
8.763912362e-10
8.81124346e-10
8.203483388e-10
8.236364432e-10
8.283613551e-10
8.342449927e-10
8.409665855e-10
8.481275581e-10
8.551759085e-10
8.612796118e-10
8.651798646e-10
8.137028697e-10
8.161210414e-10
8.196063123e-10
8.239692975e-10
8.289949744e-10
8.344118832e-10
8.398238622e-10
8.445935938e-10
8.477006037e-10
8.049933096e-10
8.06606319e-10
8.089440947e-10
8.118990317e-10
8.153533183e-10
8.19152034e-10
8.230419109e-10
8.265652952e-10
8.289254232e-10
7.944123789e-10
7.952866592e-10
7.965715515e-10
7.982342563e-10
8.002455982e-10
8.025566133e-10
8.050439456e-10
8.074142522e-10
8.090785973e-10
7.821559822e-10
7.8235833e-10
7.826855312e-10
7.831726593e-10
7.838706896e-10
7.848261836e-10
7.860328938e-10
7.873464425e-10
7.883690946e-10
7.684197168e-10
7.680162147e-10
7.674799338e-10
7.669070146e-10
7.664202884e-10
7.661516906e-10
7.66199628e-10
7.665536064e-10
7.669901565e-10
7.533959016e-10
7.524510406e-10
7.511432315e-10
7.496230697e-10
7.480772221e-10
7.467132277e-10
7.457221749e-10
7.452128388e-10
7.451191341e-10
7.372711104e-10
7.358470902e-10
7.338564378e-10
7.314978428e-10
7.290141258e-10
7.266791179e-10
7.247651989e-10
7.234864221e-10
7.229175479e-10
7.202241759e-10
7.183803618e-10
7.157914989e-10
7.126983034e-10
7.093924579e-10
7.062052895e-10
7.034797346e-10
7.01521872e-10
7.005313393e-10
7.024246288e-10
7.002171471e-10
6.97110071e-10
6.933804039e-10
6.893618243e-10
6.854349163e-10
6.820031407e-10
6.79452168e-10
6.780912851e-10
6.840315298e-10
6.815129835e-10
6.779626474e-10
6.736884266e-10
6.690595814e-10
6.644982932e-10
6.604592476e-10
6.573961413e-10
6.557135465e-10
6.651926539e-10
6.624119419e-10
6.584879988e-10
6.537546142e-10
6.486106835e-10
6.435129185e-10
6.38958672e-10
6.354589957e-10
6.335003294e-10
6.460439866e-10
6.430462127e-10
6.388128866e-10
6.336990448e-10
6.281277432e-10
6.225837508e-10
6.175992705e-10
6.137329364e-10
6.11540632e-10
6.267094907e-10
6.235359475e-10
6.190520142e-10
6.136297172e-10
6.077112711e-10
6.018036141e-10
5.964667077e-10
5.922978833e-10
5.899110579e-10
6.073011053e-10
6.039893205e-10
5.993081774e-10
5.936428142e-10
5.874500658e-10
5.812537217e-10
5.756351133e-10
5.712222472e-10
5.686766736e-10
5.879189397e-10
5.845027738e-10
5.79672583e-10
5.738231102e-10
5.674217229e-10
5.610042929e-10
5.551678053e-10
5.505637479e-10
5.478918928e-10
5.686516275e-10
5.651614118e-10
5.602253009e-10
5.542444943e-10
5.476932376e-10
5.411152388e-10
5.351180577e-10
5.30370256e-10
5.276013701e-10
5.495768088e-10
5.460395142e-10
5.410358206e-10
5.3497058e-10
5.283216738e-10
5.216368935e-10
5.155298937e-10
5.106806412e-10
5.078408889e-10
5.307617102e-10
5.272011382e-10
5.221636851e-10
5.160553775e-10
5.093548783e-10
5.026107727e-10
4.96438887e-10
4.915256138e-10
4.886382314e-10
5.122637946e-10
5.087007846e-10
5.036591779e-10
4.975440051e-10
4.908322203e-10
4.840703408e-10
4.778729572e-10
4.729285461e-10
4.700140199e-10
4.941314591e-10
4.905841034e-10
4.855640407e-10
4.794734216e-10
4.727853375e-10
4.660417724e-10
4.598531466e-10
4.549062639e-10
4.519825206e-10
4.764047586e-10
4.728886206e-10
4.679122049e-10
4.618731618e-10
4.552388765e-10
4.485446966e-10
4.423943685e-10
4.374698007e-10
4.345524041e-10
4.591161367e-10
4.556444696e-10
4.507305199e-10
4.447660618e-10
4.382112139e-10
4.315929133e-10
4.255061202e-10
4.206251085e-10
4.177274566e-10
4.422911519e-10
4.38875111e-10
4.340394673e-10
4.281689636e-10
4.217151493e-10
4.15195075e-10
4.091931535e-10
4.043737214e-10
4.015072407e-10
4.259491836e-10
4.225980325e-10
4.178538486e-10
4.120933894e-10
4.057585642e-10
3.993553281e-10
3.934561007e-10
3.887133686e-10
3.858877029e-10
4.10104112e-10
4.068254182e-10
4.021834414e-10
3.965461796e-10
3.903450396e-10
3.840739099e-10
3.782920516e-10
3.736385371e-10
3.70861727e-10
3.947649615e-10
3.915647821e-10
3.870336165e-10
3.815300906e-10
3.754744307e-10
3.693477e-10
3.636950836e-10
3.591409833e-10
3.564196369e-10
3.799365065e-10
3.768195606e-10
3.724059131e-10
3.670443479e-10
3.611433967e-10
3.551707247e-10
3.496567417e-10
3.452101947e-10
3.425496468e-10
3.656198325e-10
3.625896621e-10
3.582985703e-10
3.530851554e-10
3.473458843e-10
3.415346145e-10
3.361664723e-10
3.318338038e-10
3.292382636e-10
3.518128539e-10
3.488719713e-10
3.447070134e-10
3.396461592e-10
3.340735659e-10
3.284290162e-10
3.232120107e-10
3.18997956e-10
3.164706436e-10
3.385107864e-10
3.356608092e-10
3.316242952e-10
3.267188664e-10
3.213162344e-10
3.158419624e-10
3.107797264e-10
3.066876347e-10
3.042309056e-10
3.257065755e-10
3.22948349e-10
3.190414945e-10
3.142930219e-10
3.090621549e-10
3.03760198e-10
2.988549264e-10
2.948869465e-10
2.925024047e-10
3.133912813e-10
3.10724989e-10
3.069480721e-10
3.023569438e-10
2.972983774e-10
2.921694691e-10
2.87422122e-10
2.835793693e-10
2.812679701e-10
3.015544229e-10
2.989796861e-10
2.953321878e-10
2.908978206e-10
2.860110118e-10
2.810547757e-10
2.764652605e-10
2.72747967e-10
2.705101086e-10
2.901842834e-10
2.877002496e-10
2.841809798e-10
2.799019717e-10
2.751854686e-10
2.704005916e-10
2.65967925e-10
2.623755731e-10
2.602111795e-10
2.792681796e-10
2.768736011e-10
2.734808097e-10
2.693550761e-10
2.648066674e-10
2.601910533e-10
2.559135057e-10
2.524449476e-10
2.503535414e-10
2.68792697e-10
2.664860008e-10
2.632174765e-10
2.592423698e-10
2.548592179e-10
2.504101228e-10
2.462853458e-10
2.429389085e-10
2.409196766e-10
2.587438955e-10
2.565232442e-10
2.533764008e-10
2.495488159e-10
2.453275734e-10
2.410417252e-10
2.370668635e-10
2.338404419e-10
2.318922922e-10
2.491074855e-10
2.469708312e-10
2.439427841e-10
2.402592509e-10
2.361961628e-10
2.320698653e-10
2.282416549e-10
2.251327927e-10
2.232544052e-10
2.398689793e-10
2.378141103e-10
2.349017422e-10
2.31358506e-10
2.274494985e-10
2.23478723e-10
2.19793577e-10
2.167995381e-10
2.149894087e-10
2.310138206e-10
2.290384017e-10
2.262384201e-10
2.228315109e-10
2.190722688e-10
2.152527327e-10
2.117068157e-10
2.088246461e-10
2.070811253e-10
2.225274935e-10
2.20629101e-10
2.179380872e-10
2.146633804e-10
2.110494132e-10
2.073766483e-10
2.039659404e-10
2.011925215e-10
1.995138475e-10
2.143956137e-10
2.125717652e-10
2.099862171e-10
2.068394843e-10
2.033661835e-10
1.998355939e-10
1.96555946e-10
1.938880405e-10
1.922723683e-10
2.066040027e-10
2.048521828e-10
2.023685507e-10
1.993455042e-10
1.960081916e-10
1.926151043e-10
1.89462285e-10
1.868965765e-10
1.853420027e-10
1.991387483e-10
1.974564305e-10
1.950711483e-10
1.921674783e-10
1.889614476e-10
1.857011541e-10
1.826708902e-10
1.802040167e-10
1.787086005e-10
1.919862543e-10
1.903709186e-10
1.880804295e-10
1.852918355e-10
1.822123873e-10
1.790801802e-10
1.761681902e-10
1.737967726e-10
1.72358554e-10
1.851332865e-10
1.835824269e-10
1.813832042e-10
1.787054221e-10
1.757478929e-10
1.727390955e-10
1.699411184e-10
1.676617843e-10
1.662787993e-10
1.785669996e-10
1.770781339e-10
1.749666973e-10
1.723955202e-10
1.695553067e-10
1.666652977e-10
1.639771163e-10
1.617865205e-10
1.604568136e-10
1.722749223e-10
1.708456487e-10
1.68818567e-10
1.66349861e-10
1.636224392e-10
1.60846673e-10
1.582641334e-10
1.561589737e-10
1.54880609e-10
1.662449995e-10
1.648729751e-10
1.629269101e-10
1.605566321e-10
1.579375726e-10
1.552715953e-10
1.527906225e-10
1.507676533e-10
1.495387227e-10
1.604656555e-10
1.591485848e-10
1.572802827e-10
1.550044821e-10
1.524894611e-10
1.499289224e-10
1.475455321e-10
1.45601575e-10
1.444202054e-10
1.549257421e-10
1.536613763e-10
1.518676854e-10
1.496825165e-10
1.472673246e-10
1.448079879e-10
1.425182962e-10
1.406502487e-10
1.395146077e-10
1.49614549e-10
1.484007076e-10
1.46678556e-10
1.445802905e-10
1.422608418e-10
1.398985918e-10
1.37698823e-10
1.359036647e-10
1.348119652e-10
1.445217978e-10
1.433563698e-10
1.417027803e-10
1.396878063e-10
1.374601419e-10
1.351909898e-10
1.330774813e-10
1.313522791e-10
1.303027824e-10
1.396376342e-10
1.385185775e-10
1.36930662e-10
1.349954983e-10
1.328557921e-10
1.306758794e-10
1.286450858e-10
1.269869974e-10
1.259780158e-10
1.349526229e-10
1.338779689e-10
1.323529462e-10
1.304942285e-10
1.284387857e-10
1.263443864e-10
1.243928821e-10
1.227991581e-10
1.21829057e-10
1.304577373e-10
1.294255909e-10
1.279607844e-10
1.261752777e-10
1.242005299e-10
1.221880506e-10
1.203125306e-10
1.187805165e-10
1.178477152e-10
1.2614435e-10
1.251528886e-10
1.237457218e-10
1.220303018e-10
1.20132827e-10
1.181988101e-10
1.163960911e-10
1.149232274e-10
1.140261999e-10
1.220042212e-10
1.21051694e-10
1.19699692e-10
1.180513601e-10
1.162278658e-10
1.143689867e-10
1.126360062e-10
1.112198285e-10
1.103571035e-10
1.180294871e-10
1.171142144e-10
1.158150023e-10
1.142308806e-10
1.124782054e-10
1.106912707e-10
1.090250856e-10
1.076632234e-10
1.068333845e-10
1.142126474e-10
1.133330191e-10
1.120843203e-10
1.105616484e-10
1.088767603e-10
1.071587057e-10
1.0555649e-10
1.04246666e-10
1.034483505e-10
1.105465523e-10
1.097010265e-10
1.085006607e-10
1.07036797e-10
1.054167865e-10
1.037646731e-10
1.022237159e-10
1.009637435e-10
1.001956422e-10
1.070243879e-10
1.062114884e-10
1.050573671e-10
1.036497747e-10
1.02091863e-10
1.005028766e-10
9.902057947e-11
9.780836148e-11
9.706921705e-11
1.036396637e-10
1.028579785e-10
1.017481039e-10
1.003943588e-10
9.889588273e-11
9.736732818e-11
9.594120195e-11
9.477472807e-11
9.40633344e-11
1.003861987e-10
9.963437789e-11
9.856684015e-11
9.72646245e-11
9.582303562e-11
9.435233369e-11
9.297999525e-11
9.185733963e-11
9.117254027e-11
9.725810792e-11
9.65348615e-11
9.550783529e-11
9.425493351e-11
9.286779507e-11
9.145247875e-11
9.013164773e-11
8.905096649e-11
8.839165326e-11
9.424978951e-11
9.355388521e-11
9.256562668e-11
9.135992173e-11
9.002490474e-11
8.866261543e-11
8.739111081e-11
8.635063936e-11
8.571575092e-11
9.135591199e-11
9.068617306e-11
8.973501678e-11
8.857448649e-11
8.728936581e-11
8.597784945e-11
8.475358599e-11
8.375163635e-11
8.314015667e-11
8.857140186e-11
8.792670492e-11
8.701106083e-11
8.589377425e-11
8.46564246e-11
8.339352772e-11
8.221451249e-11
8.124947053e-11
8.066042732e-11
8.589143156e-11
8.527070444e-11
8.438905485e-11
8.331316862e-11
8.212156071e-11
8.090522654e-11
7.976955538e-11
7.883987807e-11
7.827234127e-11
8.331140782e-11
8.271362749e-11
8.186452408e-11
8.082827891e-11
7.968047554e-11
7.850874017e-11
7.741459424e-11
7.651880701e-11
7.597188718e-11
8.082696043e-11
8.025115091e-11
7.943321193e-11
7.843492908e-11
7.732908142e-11
7.620007005e-11
7.514571245e-11
7.428240649e-11
7.375525338e-11
7.843393139e-11
7.787916181e-11
7.709106921e-11
7.612914717e-11
7.50634911e-11
7.397541444e-11
7.295918694e-11
7.212701668e-11
7.161881769e-11
7.612836451e-11
7.559374718e-11
7.483424394e-11
7.39071552e-11
7.288000782e-11
7.183115858e-11
7.085147851e-11
7.004915916e-11
6.955913796e-11
7.390649531e-11
7.339118388e-11
7.265907148e-11
7.176535942e-11
7.077511569e-11
6.97638653e-11
6.881922255e-11
6.804552779e-11
6.757294302e-11
7.176474129e-11
7.1267929e-11
7.056206491e-11
6.970034089e-11
6.874547051e-11
6.777026597e-11
6.68592202e-11
6.611298002e-11
6.565712403e-11
6.969969232e-11
6.922061035e-11
6.853990574e-11
6.77088463e-11
6.678789069e-11
6.58472517e-11
6.496842976e-11
6.424852847e-11
6.380872623e-11
6.770810118e-11
6.724601707e-11
6.658943459e-11
6.578777888e-11
6.489934841e-11
6.399186458e-11
6.314395816e-11
6.244933258e-11
6.20249407e-11
6.578687403e-11
6.534109015e-11
6.470764186e-11
6.393418909e-11
6.307696046e-11
6.220128883e-11
6.138305221e-11
6.071269013e-11
6.030309595e-11
6.393306043e-11
6.350291256e-11
6.289165787e-11
6.214526498e-11
6.131797869e-11
6.047284133e-11
5.968308942e-11
5.903602805e-11
5.8640649e-11
6.214384291e-11
6.172869876e-11
6.113874244e-11
6.041832173e-11
5.961977961e-11
5.880396129e-11
5.804156762e-11
5.741689231e-11
5.703517518e-11
6.041652546e-11
6.001578319e-11
5.944627328e-11
5.875078994e-11
5.797985261e-11
5.719219836e-11
5.64560931e-11
5.585293591e-11
5.548435624e-11
5.874852067e-11
5.836160724e-11
5.781173274e-11
5.714020207e-11
5.639578619e-11
5.563519866e-11
5.492436635e-11
5.434190443e-11
5.398596572e-11
5.713733515e-11
5.67637044e-11
5.623269246e-11
5.558417586e-11
5.48652517e-11
5.413068797e-11
5.344416464e-11
5.288161816e-11
5.253785082e-11
5.558055263e-11
5.521968323e-11
5.470679654e-11
5.408039992e-11
5.338598469e-11
5.26764516e-11
5.201332083e-11
5.146994999e-11
5.113790966e-11
5.407581436e-11
5.372720702e-11
5.323173974e-11
5.262660787e-11
5.195576108e-11
5.127030964e-11
5.062969734e-11
5.01047981e-11
4.978406324e-11
5.262079647e-11
5.228397033e-11
5.18052427e-11
5.122055178e-11
5.057236937e-11
4.991008766e-11
4.929115495e-11
4.878405308e-11
4.847422121e-11
5.121318423e-11
5.088767253e-11
5.042502457e-11
4.985997502e-11
4.923357941e-11
4.859358264e-11
4.799551613e-11
4.750555881e-11
4.720624126e-11
4.985064319e-11
4.953598797e-11
4.908877172e-11
4.854257742e-11
4.793710642e-11
4.731852406e-11
4.674052301e-11
4.626706762e-11
4.597788225e-11
4.853078691e-11
4.822653263e-11
4.779410283e-11
4.726598033e-11
4.6680571e-11
4.608253046e-11
4.552379045e-11
4.506619014e-11
4.478675181e-11
4.725114214e-11
4.695682771e-11
4.653853018e-11
4.602768413e-11
4.546145525e-11
4.488306255e-11
4.434275569e-11
4.390034145e-11
4.363025002e-11
4.600911209e-11
4.572426166e-11
4.531941886e-11
4.482502385e-11
4.427705786e-11
4.371737511e-11
4.319462643e-11
4.27666857e-11
4.250551155e-11
4.480193938e-11
4.45260528e-11
4.413395167e-11
4.365513172e-11
4.312445032e-11
4.25824696e-11
4.207633016e-11
4.166208217e-11
4.140934939e-11
4.362666963e-11
4.335921188e-11
4.297908869e-11
4.251489664e-11
4.200043548e-11
4.147505045e-11
4.098446766e-11
4.058303625e-11
4.0338204e-11
4.248011814e-11
4.222050787e-11
4.185153335e-11
4.140093031e-11
4.090151258e-11
4.039148839e-11
3.991527482e-11
3.952565976e-11
3.928810253e-11
4.135884863e-11
4.110645817e-11
4.074770758e-11
4.030954181e-11
3.982385142e-11
3.932779456e-11
3.886459663e-11
3.848564485e-11
3.825463263e-11
4.025916857e-11
4.001328887e-11
3.966373897e-11
3.923672342e-11
3.876327903e-11
3.827960878e-11
3.782787741e-11
3.745825622e-11
3.723293616e-11
3.917709896e-11
3.893694674e-11
3.859545669e-11
3.817814903e-11
3.771528158e-11
3.724220563e-11
3.680017154e-11
3.643834632e-11
3.621772738e-11
3.810839697e-11
3.78731017e-11
3.753840011e-11
3.712918818e-11
3.667502495e-11
3.621052222e-11
3.577617874e-11
3.542039769e-11
3.52033405e-11
3.704856869e-11
3.681716758e-11
3.648784625e-11
3.608494051e-11
3.563739679e-11
3.517921001e-11
3.475030708e-11
3.439859645e-11
3.418381046e-11
3.599290393e-11
3.5764342e-11
3.543885658e-11
3.504029204e-11
3.459707487e-11
3.414271598e-11
3.371676721e-11
3.336694002e-11
3.315299048e-11
3.493653235e-11
3.470966794e-11
3.438634681e-11
3.398999581e-11
3.35486212e-11
3.309539309e-11
3.266970101e-11
3.231938211e-11
3.210470891e-11
3.387450119e-11
3.364811781e-11
3.332518074e-11
3.292877895e-11
3.248660555e-11
3.203164298e-11
3.160334486e-11
3.125001606e-11
3.103296659e-11
3.280187551e-11
3.257470132e-11
3.22502896e-11