/*--------------------------------*- C++ -*----------------------------------*\
| =========                 |                                                 |
| \\      /  F ield         | OpenFOAM: The Open Source CFD Toolbox           |
|  \\    /   O peration     | Version:  2212                                  |
|   \\  /    A nd           | Website:  www.openfoam.com                      |
|    \\/     M anipulation  |                                                 |
\*---------------------------------------------------------------------------*/
FoamFile
{
    version     2.0;
    format      ascii;
    arch        "LSB;label=32;scalar=64";
    class       volScalarField;
    location    "19.75000000";
    object      CH3CO;
}
// * * * * * * * * * * * * * * * * * * * * * * * * * * * * * * * * * * * * * //

dimensions      [0 0 0 0 0 0 0];

internalField   nonuniform List<scalar> 
3000
(
7.418366245e-45
9.441400412e-45
1.296020764e-44
1.854677221e-44
2.696804334e-44
3.908316492e-44
5.549313404e-44
7.553215343e-44
9.448204941e-44
7.699840861e-44
9.877868646e-44
1.369383552e-43
1.98212509e-43
2.922634516e-43
4.318139973e-43
6.311968189e-43
8.971302802e-43
1.181152634e-42
3.682230121e-43
4.805449266e-43
6.815228426e-43
1.014168431e-42
1.545200222e-42
2.370092977e-42
3.601163772e-42
5.282047392e-42
7.005538925e-42
1.32542638e-42
1.768823322e-42
2.584767317e-42
3.985929989e-42
6.317599101e-42
1.00837505e-41
1.585075514e-41
2.368166429e-41
3.125402817e-41
4.195224163e-42
5.7437579e-42
8.680412484e-42
1.390736359e-41
2.292072319e-41
3.788656418e-41
6.101611582e-41
9.176258325e-41
1.19967471e-40
1.250683995e-41
1.757845145e-41
2.747398729e-41
4.564775946e-41
7.787226484e-41
1.323188632e-40
2.164714602e-40
3.258574546e-40
4.221513318e-40
3.639948097e-41
5.245451465e-41
8.456424478e-41
1.450519851e-40
2.545017462e-40
4.412606928e-40
7.28689169e-40
1.095124013e-39
1.407265854e-39
1.05306347e-40
1.551790974e-40
2.569644005e-40
4.52498343e-40
8.113643065e-40
1.426906417e-39
2.369147845e-39
3.552239425e-39
4.536412073e-39
3.055375071e-40
4.588515116e-40
7.767567386e-40
1.396409812e-39
2.544620042e-39
4.518793753e-39
7.525066526e-39
1.125675832e-38
1.430848132e-38
8.921198428e-40
1.360599678e-39
2.343795626e-39
4.280473953e-39
7.891949642e-39
1.410662885e-38
2.352798008e-38
3.512318887e-38
4.448679757e-38
2.623206912e-39
4.049673987e-39
7.070219288e-39
1.306450933e-38
2.42885603e-38
4.36037078e-38
7.277748259e-38
1.084550026e-37
1.369944863e-37
7.762779928e-39
1.209656574e-38
2.133309934e-38
3.975866334e-38
7.435014581e-38
1.338558832e-37
2.234680145e-37
3.325336598e-37
4.191433059e-37
2.309378263e-38
3.624091248e-38
6.439187751e-38
1.207507741e-37
2.267286074e-37
4.089361639e-37
6.826785972e-37
1.01463002e-36
1.276728477e-36
6.898516302e-38
1.088261337e-37
1.944163166e-37
3.661878769e-37
6.894980103e-37
1.245017653e-36
2.078004297e-36
3.085243908e-36
3.87692836e-36
2.067002397e-37
3.273318334e-37
5.870815184e-37
1.109218493e-36
2.092484444e-36
3.780848995e-36
6.308467015e-36
9.357915611e-36
1.174635666e-35
6.20683594e-37
9.856666609e-37
1.772804475e-36
3.356700287e-36
6.339977236e-36
1.145910893e-35
1.911237501e-35
2.832818251e-35
3.55294069e-35
1.866560733e-36
2.970099717e-36
5.352515966e-36
1.014933434e-35
1.918374082e-35
3.467548972e-35
5.780698887e-35
8.559846021e-35
1.073266061e-34
5.618572169e-36
8.952961717e-36
1.615615812e-35
3.066325402e-35
5.797989488e-35
1.047875041e-34
1.746023182e-34
2.583692515e-34
3.238966218e-34
1.692184119e-35
2.69902264e-35
4.874799145e-35
9.256841539e-35
1.750491136e-34
3.162724812e-34
5.267085214e-34
7.791622628e-34
9.767406658e-34
5.09765512e-35
8.135757442e-35
1.470160692e-34
2.79223966e-34
5.279270093e-34
9.533706181e-34
1.58663712e-33
2.345931172e-33
2.943259318e-33
1.535587914e-34
2.451595332e-34
4.430913633e-34
8.414508891e-34
1.590205435e-33
2.869598544e-33
4.771438781e-33
7.049777339e-33
8.856050408e-33
4.624204621e-34
7.383265596e-34
1.33424982e-33
2.532660633e-33
4.782526015e-33
8.620943174e-33
1.431649492e-32
2.11262646e-32
2.651456904e-32
1.391592385e-33
2.221527221e-33
4.012731117e-33
7.610510861e-33
1.435347184e-32
2.583277432e-32
4.282339882e-32
6.308186993e-32
7.906321853e-32
4.18323973e-33
6.675111e-33
1.204688622e-32
2.281739397e-32
4.295493925e-32
7.71340173e-32
1.275434721e-31
1.874094641e-31
2.344223769e-31
1.255438487e-32
2.001709473e-32
3.607696823e-32
6.819559867e-32
1.280437281e-31
2.291917837e-31
3.776214362e-31
5.528829749e-31
6.895789877e-31
3.758720998e-32
5.985809561e-32
1.07668536e-31
2.029458176e-31
3.796399811e-31
6.764996774e-31
1.109050841e-30
1.615599729e-30
2.006688988e-30
1.121574498e-31
1.783016981e-31
3.198183315e-31
6.004536317e-31
1.117519994e-30
1.979171921e-30
3.222427054e-30
4.661574669e-30
5.756343663e-30
3.331364721e-31
5.283209141e-31
9.440062026e-31
1.762882059e-30
3.258453572e-30
5.723415271e-30
9.233028862e-30
1.323121147e-29
1.620899115e-29
9.834355007e-31
1.55451925e-30
2.763335571e-30
5.123762583e-30
9.384947351e-30
1.63064912e-29
2.598856388e-29
3.678328374e-29
4.458843287e-29
2.879824027e-30
4.532383712e-30
8.002467776e-30
1.470116421e-29
2.661283952e-29
4.559877091e-29
7.155202797e-29
9.967552484e-29
1.191965599e-28
8.345993051e-30
1.306121008e-29
2.286100474e-29
4.150325839e-29
7.402143989e-29
1.246199882e-28
1.917830189e-28
2.619235306e-28
3.079629754e-28
2.387252138e-29
3.70913629e-29
6.421013621e-29
1.148570657e-28
2.011023019e-28
3.313333214e-28
4.979512295e-28
6.639357885e-28
7.648416332e-28
6.718360244e-29
1.034471405e-28
1.766542816e-28
3.103048901e-28
5.312746839e-28
8.529050605e-28
1.246178992e-27
1.615260103e-27
1.816795469e-27
1.853702569e-28
2.822789771e-28
4.741113438e-28
8.148218627e-28
1.358444077e-27
2.115508432e-27
2.991750021e-27
3.754454763e-27
4.110226673e-27
4.995158373e-28
7.505458683e-28
1.235915939e-27
2.070184741e-27
3.346400006e-27
5.033182213e-27
6.861090628e-27
8.306800802e-27
8.828963851e-27
1.309192726e-27
1.936217437e-27
3.115477177e-27
5.066198499e-27
7.907508563e-27
1.144083986e-26
1.498055878e-26
1.745039088e-26
1.797709452e-26
3.323251891e-27
4.825376645e-27
7.561412903e-27
1.189220673e-26
1.785567211e-26
2.476844682e-26
3.107205699e-26
3.476782766e-26
3.469602708e-26
8.135987288e-27
1.156908099e-26
1.759872052e-26
2.667904918e-26
3.841442767e-26
5.096652345e-26
6.117191511e-26
6.572706861e-26
6.357677789e-26
1.913555765e-26
2.65838985e-26
3.914449038e-26
5.704074949e-26
7.859094816e-26
9.961169753e-26
1.143812657e-25
1.181356373e-25
1.109589332e-25
4.309004213e-26
5.836331294e-26
8.299607193e-26
1.1602695e-25
1.528105143e-25
1.85053447e-25
2.035681848e-25
2.02577755e-25
1.852811318e-25
9.265874513e-26
1.221584616e-25
1.67501763e-25
2.244465796e-25
2.826205127e-25
3.274951862e-25
3.460574346e-25
3.329677851e-25
2.976381904e-25
1.899833194e-25
2.435371167e-25
3.217592319e-25
4.133433812e-25
4.9835335e-25
5.541041221e-25
5.645500026e-25
5.274878785e-25
4.627687113e-25
3.713743629e-25
4.627080254e-25
5.89182066e-25
7.266070935e-25
8.410066007e-25
9.00612063e-25
8.887481948e-25
8.10272321e-25
7.007245182e-25
6.931543404e-25
8.397030768e-25
1.03174271e-24
1.224397308e-24
1.365299952e-24
1.414359072e-24
1.358390974e-24
1.214257052e-24
1.039466707e-24
1.23934061e-24
1.461428782e-24
1.736417637e-24
1.989348492e-24
2.145931135e-24
2.16042465e-24
2.028764809e-24
1.785727656e-24
1.518604782e-24
2.133368278e-24
2.453435802e-24
2.827391628e-24
3.139468565e-24
3.29072651e-24
3.233863959e-24
2.980767655e-24
2.591613555e-24
2.194532156e-24
3.558303425e-24
4.001740373e-24
4.490199317e-24
4.854372859e-24
4.967352549e-24
4.784296974e-24
4.340713809e-24
3.732895624e-24
3.14838748e-24
5.792114702e-24
6.392307682e-24
7.016621629e-24
7.42502117e-24
7.455332727e-24
7.066138331e-24
6.323991454e-24
5.377695906e-24
4.50869864e-24
9.265207174e-24
1.007657025e-23
1.088060194e-23
1.134029963e-23
1.124153023e-23
1.053991028e-23
9.339414343e-24
7.869287967e-24
6.569436933e-24
1.464547023e-23
1.576940591e-23
1.685396158e-23
1.742359341e-23
1.71805516e-23
1.606472922e-23
1.424183152e-23
1.21131894e-23
1.049194222e-23
2.295160193e-23
2.458190984e-23
2.616763678e-23
2.703187884e-23
2.674952468e-23
2.526473167e-23
2.298557948e-23
2.078854726e-23
1.87584636e-23
3.569066724e-23
3.819109814e-23
4.073649007e-23
4.237616099e-23
4.257227457e-23
4.159564032e-23
4.05186722e-23
3.865610294e-23
3.616367997e-23
5.502482058e-23
5.908040316e-23
6.35667543e-23
6.732517912e-23
7.029366462e-23
7.359601528e-23
7.578686094e-23
7.557807381e-23
7.293119703e-23
8.410858297e-23
9.113474387e-23
1.000715706e-22
1.106923196e-22
1.234174206e-22
1.362458476e-22
1.466031591e-22
1.516407207e-22
1.502748851e-22
1.287580261e-22
1.424817388e-22
1.6450518e-22
1.92599658e-22
2.249592753e-22
2.582554989e-22
2.873823327e-22
3.058540972e-22
3.095129617e-22
2.074489927e-22
2.388946035e-22
2.861146387e-22
3.470600511e-22
4.182991636e-22
4.934567575e-22
5.618456128e-22
6.089522169e-22
6.240192309e-22
3.576794468e-22
4.204383398e-22
5.148783734e-22
6.383448572e-22
7.84612188e-22
9.405351594e-22
1.082941761e-21
1.181064095e-21
1.214504991e-21
6.442056428e-22
7.647445016e-22
9.474933024e-22
1.1882346e-21
1.474033225e-21
1.775733712e-21
2.043980888e-21
2.221592905e-21
2.281640148e-21
1.195863578e-21
1.423329234e-21
1.769061137e-21
2.223470541e-21
2.75610403e-21
3.30316792e-21
3.771579097e-21
4.076449608e-21
4.196012394e-21
2.264410365e-21
2.685888878e-21
3.322846202e-21
4.148526649e-21
5.093021502e-21
6.034470216e-21
6.832337339e-21
7.396256181e-21
7.712117305e-21
4.319769906e-21
5.078243988e-21
6.209315755e-21
7.645670125e-21
9.251874579e-21
1.084395353e-20
1.227109782e-20
1.348700321e-20
1.443543496e-20
8.17522799e-21
9.487630256e-21
1.141634212e-20
1.382947161e-20
1.652553617e-20
1.931019053e-20
2.212410941e-20
2.505498749e-20
2.782553846e-20
1.513944251e-20
1.733259933e-20
2.053657978e-20
2.456368538e-20
2.921252315e-20
3.442527042e-20
4.046398389e-20
4.774340986e-20
5.526985457e-20
2.728126902e-20
3.090234724e-20
3.624096206e-20
4.313672773e-20
5.157378393e-20
6.197750637e-20
7.546416595e-20
9.3167773e-20
1.121210954e-19
4.803342446e-20
5.410074401e-20
6.324227367e-20
7.55469697e-20
9.162624389e-20
1.131850562e-19
1.433310235e-19
1.845831559e-19
2.29059664e-19
8.337711236e-20
9.383565309e-20
1.100351398e-19
1.328330498e-19
1.644586266e-19
2.095685525e-19
2.754279489e-19
3.668437194e-19
4.646746008e-19
1.438890836e-19
1.624340954e-19
1.919812515e-19
2.352836392e-19
2.982200349e-19
3.915753042e-19
5.304932463e-19
7.228844168e-19
9.256563092e-19
2.48291993e-19
2.818914195e-19
3.367886833e-19
4.198808561e-19
5.445031127e-19
7.330954113e-19
1.014470346e-18
1.399461472e-18
1.797346026e-18
4.296719899e-19
4.91299433e-19
5.939979196e-19
7.529424673e-19
9.955153861e-19
1.364669278e-18
1.911007188e-18
2.645212141e-18
3.387488364e-18
7.461091901e-19
8.594053763e-19
1.050743447e-18
1.3506359e-18
1.811107246e-18
2.508732462e-18
3.526000603e-18
4.864124215e-18
6.185823238e-18
1.298142179e-18
1.504963887e-18
1.856775767e-18
2.410680179e-18
3.259221787e-18
4.530499424e-18
6.349507497e-18
8.687150096e-18
1.09416081e-17
2.256210835e-18
2.628210203e-18
3.262284674e-18
4.25893012e-18
5.77343606e-18
8.00784896e-18
1.113776171e-17
1.506386963e-17
1.876024768e-17
3.901724144e-18
4.5571663e-18
5.672240928e-18
7.414403973e-18
1.003074054e-17
1.382263946e-17
1.901676538e-17
2.537467934e-17
3.1218821e-17
6.685467629e-18
7.812355e-18
9.720519031e-18
1.267544316e-17
1.705135648e-17
2.32740891e-17
3.16068247e-17
4.156180928e-17
5.049824292e-17
1.130645315e-17
1.319261794e-17
1.636579185e-17
2.122793697e-17
2.832012608e-17
3.821215232e-17
5.116442723e-17
6.627445642e-17
7.952691498e-17
1.881287636e-17
2.188300125e-17
2.700904352e-17
3.477392418e-17
4.592592609e-17
6.118538232e-17
8.073425001e-17
1.030197628e-16
1.22127283e-16
3.072458772e-17
3.55831468e-17
4.362967024e-17
5.567563802e-17
7.271200442e-17
9.559406734e-17
1.243005191e-16
1.563085363e-16
1.831559962e-16
4.917359814e-17
5.665157038e-17
6.893389024e-17
8.710666729e-17
1.124266939e-16
1.45835973e-16
1.869231273e-16
2.317786958e-16
2.686113095e-16
7.705601726e-17
8.825808399e-17
1.065061401e-16
1.331991151e-16
1.698617082e-16
2.174309081e-16
2.748454116e-16
3.362836667e-16
3.857217566e-16
1.181859972e-16
1.345340221e-16
1.609519561e-16
1.991741337e-16
2.509644793e-16
3.171102665e-16
3.95555532e-16
4.779445571e-16
5.429882029e-16
1.774403511e-16
2.007085587e-16
2.380202702e-16
2.914442503e-16
3.62912883e-16
4.528555681e-16
5.578025882e-16
6.661233551e-16
7.50070658e-16
2.608821898e-16
2.932201707e-16
3.446939265e-16
4.176711844e-16
5.141401563e-16
6.339001924e-16
7.715422346e-16
9.112574036e-16
1.017671159e-15
3.758532078e-16
4.197876853e-16
4.892375717e-16
5.86795048e-16
7.143339991e-16
8.706473262e-16
1.047718263e-15
1.224699857e-15
1.357329804e-15
5.310255581e-16
5.894572635e-16
6.81221055e-16
8.090221136e-16
9.743117073e-16
1.174417413e-15
1.398086454e-15
1.618470664e-15
1.78115505e-15
7.364430724e-16
8.126244729e-16
9.314990378e-16
1.095625222e-15
1.30575451e-15
1.557266757e-15
1.834941858e-15
2.104949589e-15
2.301498774e-15
1.003437465e-15
1.100814268e-15
1.251840348e-15
1.458688679e-15
1.721016373e-15
2.031699449e-15
2.370792418e-15
2.696522168e-15
2.930588432e-15
1.344230649e-15
1.466404852e-15
1.654805668e-15
1.910906056e-15
2.232822456e-15
2.610327306e-15
3.017989557e-15
3.405191359e-15
3.680130301e-15
1.771830226e-15
1.922447395e-15
2.153453564e-15
2.465247172e-15
2.853909158e-15
3.30548593e-15
3.788327976e-15
4.242169376e-15
4.560899449e-15
2.299696214e-15
2.482316353e-15
2.760974275e-15
3.134570391e-15
3.596620158e-15
4.128821239e-15
4.692630507e-15
5.217466785e-15
5.582334145e-15
2.941339222e-15
3.15929804e-15
3.490268382e-15
3.931193194e-15
4.472475207e-15
5.090864557e-15
5.740336808e-15
6.33949798e-15
6.75215401e-15
3.709865649e-15
3.966133486e-15
4.353489838e-15
4.866440801e-15
5.491732423e-15
6.200617267e-15
6.939116585e-15
7.614723099e-15
8.076021501e-15
4.617492224e-15
4.914538396e-15
5.361577116e-15
5.950196591e-15
6.662967453e-15
7.46516732e-15
8.294528067e-15
9.047345539e-15
9.557264858e-15
5.675056647e-15
6.014726867e-15
6.523798807e-15
7.190479685e-15
7.992693199e-15
8.889359032e-15
9.809740548e-15
1.063908141e-14
1.119667732e-14
6.891552777e-15
7.27496655e-15
7.847340063e-15
8.593074067e-15
9.485041758e-15
1.047553453e-14
1.148533592e-14
1.238901289e-14
1.299240269e-14
8.273717608e-15
8.701191204e-15
9.336953736e-15
1.016123027e-14
1.11415261e-14
1.222336048e-14
1.331919896e-14
1.429353189e-14
1.493991173e-14
9.825693472e-15
1.029669234e-14
1.099469538e-14
1.189545541e-14
1.296089344e-14
1.412974804e-14
1.53065005e-14
1.634637517e-14
1.703206852e-14
1.154878325e-14
1.206190582e-14
1.281975513e-14
1.379340126e-14
1.493907609e-14
1.618886781e-14
1.743977169e-14
1.853874616e-14
1.92592806e-14
1.344130956e-14
1.399430243e-14
1.480839286e-14
1.584985335e-14
1.706923946e-14
1.839225632e-14
1.970906295e-14
2.085951502e-14
2.160972297e-14
1.549858205e-14
1.608838482e-14
1.695397643e-14
1.805681829e-14
1.934192127e-14
2.072900533e-14
2.21021769e-14
2.329548457e-14
2.406962266e-14
1.771297016e-14
1.833578667e-14
1.924711713e-14
2.040370103e-14
2.174525197e-14
2.318602209e-14
2.460496174e-14
2.583170761e-14
2.662358925e-14
2.007407337e-14
2.072546501e-14
2.167589156e-14
2.287755998e-14
2.426524254e-14
2.574834586e-14
2.720164998e-14
2.845184038e-14
2.925497552e-14
2.256897634e-14
2.324397231e-14
2.422613587e-14
2.5463425e-14
2.688612422e-14
2.839950479e-14
2.987522657e-14
3.113851625e-14
3.194625287e-14
2.518257332e-14
2.587579242e-14
2.6881796e-14
2.81446615e-14
2.959072362e-14
3.112189709e-14
3.260781091e-14
3.387372496e-14
3.467938723e-14
2.789794426e-14
2.860372277e-14
2.962531641e-14
3.090336387e-14
3.23608567e-14
3.38971808e-14
3.538103825e-14
3.66391838e-14
3.74362024e-14
3.069676462e-14
3.140928507e-14
3.243805003e-14
3.372076137e-14
3.517772617e-14
3.670665807e-14
3.817642754e-14
3.941668916e-14
4.01987202e-14
3.3559731e-14
3.427314715e-14
3.530067307e-14
3.657762135e-14
3.802230836e-14
3.953164136e-14
4.097572503e-14
4.218843885e-14
4.294946863e-14
3.646698621e-14
3.71755403e-14
3.819358968e-14
3.94546363e-14
4.087571757e-14
4.235379156e-14
4.376121478e-14
4.493731813e-14
4.567175183e-14
3.939852917e-14
4.009665813e-14
4.109731412e-14
4.233278346e-14
4.371953846e-14
4.515542001e-14
4.651599023e-14
4.764714452e-14
4.834987769e-14
4.23345973e-14
4.30170257e-14
4.399281984e-14
4.519364826e-14
4.653611922e-14
4.791974892e-14
4.922418243e-14
5.030286857e-14
5.09693413e-14
4.525601198e-14
4.591782995e-14
4.686184821e-14
4.801970532e-14
4.930882079e-14
5.063112712e-14
5.187114344e-14
5.289073001e-14
5.351696394e-14
4.814447982e-14
4.878120535e-14
4.968717135e-14
5.079455316e-14
5.202221971e-14
5.327519976e-14
5.444358471e-14
5.539837014e-14
5.598098933e-14
5.098284558e-14
5.159047096e-14
5.245280669e-14
5.350310093e-14
5.466226412e-14
5.583903281e-14
5.692967218e-14
5.781490273e-14
5.835113971e-14
5.375529466e-14
5.433031761e-14
5.514418243e-14
5.613170769e-14
5.721638407e-14
5.831119437e-14
5.931908077e-14
6.013094693e-14
6.061863559e-14
5.644750528e-14
5.698694576e-14
5.774825527e-14
5.866827587e-14
5.967355894e-14
6.068179605e-14
6.160301229e-14
6.233862637e-14
6.277618352e-14
5.904675227e-14
5.954815624e-14
6.025358301e-14
6.110230246e-14
6.202434559e-14
6.294249871e-14
6.377418101e-14
6.443153888e-14
6.481793638e-14
6.15419657e-14
6.200339748e-14
6.2650356e-14
6.342489189e-14
6.426087176e-14
6.5086487e-14
6.582677181e-14
6.64047019e-14
6.673943138e-14
6.39237488e-14
6.434377367e-14
6.4930392e-14
6.562873548e-14
6.637679957e-14
6.710841784e-14
6.775637559e-14
6.825447819e-14
6.853751014e-14
6.618436005e-14
6.656201894e-14
6.708709956e-14
6.770806258e-14
6.836726418e-14
6.900434761e-14
6.955990705e-14
6.997848655e-14
7.021022557e-14
6.831766494e-14
6.865244286e-14
6.911541531e-14
6.965856858e-14
7.022879269e-14
7.077164293e-14
7.1235509e-14
7.15755018e-14
7.175673959e-14
7.031906283e-14
7.06108528e-14
7.10117203e-14
7.147732485e-14
7.195920798e-14
7.240887957e-14
7.278244765e-14
7.304534797e-14
7.31772154e-14
7.218539431e-14
7.243445828e-14
7.277374053e-14
7.316267531e-14
7.355752204e-14
7.391573337e-14
7.420100252e-14
7.438878796e-14
7.447270748e-14
7.391483417e-14
7.412176217e-14
7.440043628e-14
7.471412418e-14
7.502382268e-14
7.529286709e-14
7.549235408e-14
7.560741275e-14
7.564505206e-14
7.550677446e-14
7.56724434e-14
7.589188445e-14
7.613221849e-14
7.635915721e-14
7.654181594e-14
7.665847205e-14
7.670353249e-14
7.669676024e-14
7.696170203e-14
7.708723493e-14
7.724915762e-14
7.741842902e-14
7.756541597e-14
7.766487471e-14
7.770200647e-14
7.768007133e-14
7.763091552e-14
7.828107393e-14
7.836780045e-14
7.847420291e-14
7.857503219e-14
7.864521831e-14
7.866498839e-14
7.862618328e-14
7.854046768e-14
7.845107713e-14
7.946719372e-14
7.951661271e-14
7.956972327e-14
7.960499542e-14
7.960180282e-14
7.9545648e-14
7.943470591e-14
7.92885808e-14
7.916118992e-14
8.052309125e-14
8.053683568e-14
8.05390633e-14
8.051186762e-14
8.043892343e-14
8.031079279e-14
8.013166362e-14
7.992860451e-14
7.976550168e-14
8.145240773e-14
8.143221233e-14
8.138610106e-14
8.12996762e-14
8.116075241e-14
8.096471976e-14
8.072144731e-14
8.046498858e-14
8.026848793e-14
8.225928755e-14
8.220695947e-14
8.211514717e-14
8.197283152e-14
8.177179108e-14
8.151200084e-14
8.120867317e-14
8.09023677e-14
8.067478449e-14
8.294827797e-14
8.28656704e-14
8.273085186e-14
8.253603943e-14
8.227678848e-14
8.195740816e-14
8.159811412e-14
8.124549835e-14
8.098912762e-14
8.352423717e-14
8.341322602e-14
8.323812045e-14
8.299422215e-14
8.268066829e-14
8.230584723e-14
8.189463906e-14
8.149920301e-14
8.121630154e-14
8.399225109e-14
8.385471465e-14
8.364203736e-14
8.335244742e-14
8.298846392e-14
8.256229801e-14
8.210315964e-14
8.166832171e-14
8.136109284e-14
8.435755909e-14
8.41953605e-14
8.394779868e-14
8.361586609e-14
8.320526145e-14
8.273176352e-14
8.222858411e-14
8.17576703e-14
8.14282516e-14
8.462548828e-14
8.44404607e-14
8.416065293e-14
8.378965747e-14
8.333615014e-14
8.281922552e-14
8.227577792e-14
8.177200503e-14
8.142245841e-14
8.480139619e-14
8.459533049e-14
8.428584981e-14
8.387898227e-14
8.338618008e-14
8.282960692e-14
8.224953046e-14
8.171599297e-14
8.134829708e-14
8.489062144e-14
8.466525605e-14
8.432859623e-14
8.388894263e-14
8.336032635e-14
8.276774019e-14
8.215452755e-14
8.159418769e-14
8.12102323e-14
8.489844167e-14
8.465545465e-14
8.429401934e-14
8.382454852e-14
8.326345934e-14
8.26383415e-14
8.199532899e-14
8.141100966e-14
8.101259181e-14
8.483003848e-14
8.457104134e-14
8.41871358e-14
8.369069016e-14
8.310032043e-14
8.244598975e-14
8.17763507e-14
8.117073099e-14
8.075955265e-14
8.469046847e-14
8.441700164e-14
8.401282685e-14
8.349211581e-14
8.287550279e-14
8.219511031e-14
8.150185113e-14
8.08774638e-14
8.045513083e-14
8.448463993e-14
8.419816967e-14
8.377581828e-14
8.323341412e-14
8.259343622e-14
8.188996238e-14
8.117592088e-14
8.053515186e-14
8.010317416e-14
8.421729452e-14
8.391921107e-14
8.348066514e-14
8.291900082e-14
8.225837606e-14
8.153462998e-14
8.080247571e-14
8.014756506e-14
7.970735759e-14
8.38929934e-14
8.358461016e-14
8.313174041e-14
8.255310921e-14
8.187439549e-14
8.113301617e-14
8.038525227e-14
7.971829644e-14
7.927118098e-14
8.351610724e-14
8.319866092e-14
8.273322716e-14
8.21397837e-14
8.144538066e-14
8.068883959e-14
7.992780602e-14
7.925076113e-14
7.879796872e-14
8.309080936e-14
8.276546088e-14
8.22891136e-14
8.168287617e-14
8.097502828e-14
8.020563328e-14
7.943351114e-14
7.874819709e-14
7.829087093e-14
8.262107153e-14
8.228890773e-14
8.180319057e-14
8.118604446e-14
8.046684524e-14
7.968674536e-14
7.890556201e-14
7.821366727e-14
7.7752866e-14
8.211066143e-14
8.17726978e-14
8.127905109e-14
8.065275294e-14
7.992415001e-14
7.913534114e-14
7.834697607e-14
7.765006294e-14
7.718676422e-14
8.156314108e-14
8.12203263e-14
8.072009167e-14
8.008627457e-14
7.935007546e-14
7.855440662e-14
7.776059772e-14
7.706010799e-14
7.659521223e-14
8.098187098e-14
8.063509056e-14
8.012951567e-14
7.948969472e-14
7.874757301e-14
7.794675299e-14
7.71491032e-14
7.644636397e-14
7.598069822e-14
8.037002344e-14
8.002009593e-14
7.951033879e-14
7.886591639e-14
7.811941798e-14
7.731502206e-14
7.65150061e-14
7.581123572e-14
7.534555756e-14
7.973059142e-14
7.937826772e-14
7.886539723e-14
7.821766697e-14
7.746821575e-14
7.666169236e-14
7.586066348e-14
7.515697746e-14
7.46919789e-14
7.906638751e-14
7.871235791e-14
7.819735305e-14
7.754750426e-14
7.679640824e-14
7.598908562e-14
7.518828219e-14
7.448569902e-14
7.402201035e-14
7.838004486e-14
7.802494216e-14
7.750870028e-14
7.685782311e-14
7.610628032e-14
7.529937315e-14
7.449992537e-14
7.379937238e-14
7.333756594e-14
7.76740251e-14
7.731842877e-14
7.680176757e-14
7.615086126e-14
7.539996666e-14
7.459458281e-14
7.379751922e-14
7.309983819e-14
7.264043209e-14
7.695062677e-14
7.659506769e-14
7.60787369e-14
7.542870921e-14
7.467945927e-14
7.387660594e-14
7.30828597e-14
7.238881233e-14
7.193227396e-14
7.621199179e-14
7.585695436e-14
7.534163632e-14
7.469331368e-14
7.394661349e-14
7.314720384e-14
7.235761902e-14
7.166789232e-14
7.121464182e-14
7.546011295e-14
7.510603813e-14
7.459235355e-14
7.394648495e-14
7.320315458e-14
7.240801434e-14
7.162335211e-14
7.093856361e-14
7.048897722e-14
7.469684175e-14
7.434412971e-14
7.383264093e-14
7.318990295e-14
7.245068469e-14
7.166055859e-14
7.088150316e-14
7.020220588e-14
6.97566191e-14
7.39238967e-14
7.357291006e-14
7.306412656e-14
7.242513239e-14
7.169069216e-14
7.09062484e-14
7.013341214e-14
6.946009916e-14
6.901880975e-14
7.314287043e-14
7.279393644e-14
7.228831705e-14
7.165361675e-14
7.092455436e-14
7.01463915e-14
6.938032059e-14
6.871342962e-14
6.827670047e-14
7.235523735e-14
7.200865048e-14
7.150660746e-14
7.087669437e-14
7.015354647e-14
6.938219828e-14
6.862337762e-14
6.796329524e-14
6.753135705e-14
7.156236101e-14
7.121838556e-14
7.072028855e-14
7.00956044e-14
6.937884817e-14
6.861478801e-14
6.786364577e-14
6.72107113e-14
6.678376512e-14
7.076550084e-14
7.042437319e-14
6.993055232e-14
6.931149098e-14
6.860154874e-14
6.784519428e-14
6.710210627e-14
6.64566155e-14
6.603483509e-14
6.996581854e-14
6.962774909e-14
6.913849739e-14
6.852540657e-14
6.782265213e-14
6.70743702e-14
6.633966416e-14
6.57018729e-14
6.528540696e-14
6.916438433e-14
6.882955953e-14
6.834513617e-14
6.773832272e-14
6.704308343e-14
6.630319375e-14
6.557715323e-14
6.494728057e-14
6.453625483e-14
6.836218286e-14
6.803076705e-14
6.75513999e-14
6.695113263e-14
6.626369355e-14
6.553247266e-14
6.481534062e-14
6.419357205e-14
6.378809123e-14
6.756011887e-14
6.723225601e-14
6.675814412e-14
6.616465678e-14
6.548526423e-14
6.476294908e-14
6.405493135e-14
6.344142154e-14
6.304157119e-14
6.675902254e-14
6.643483787e-14
6.596615378e-14
6.537964792e-14
6.47085127e-14
6.399530397e-14
6.329657241e-14
6.269144796e-14
6.22972961e-14
6.595965462e-14
6.563925616e-14
6.517614809e-14
6.459679575e-14
6.393409613e-14
6.323016138e-14
6.254085679e-14
6.194421867e-14
6.155581738e-14
6.516271114e-14
6.484619117e-14
6.438878506e-14
6.381673128e-14
6.31626158e-14
6.246809227e-14
6.17883272e-14
6.120025303e-14
6.081763994e-14
6.436882795e-14
6.40562643e-14
6.360466573e-14
6.304003086e-14
6.239462093e-14
6.17096183e-14
6.103947954e-14
6.04600258e-14
6.00832254e-14
6.357858486e-14
6.327004218e-14
6.282433814e-14
6.226722003e-14
6.163061235e-14
6.095521523e-14
6.029476622e-14
5.97239702e-14
5.935299516e-14
6.279250951e-14
6.248804045e-14
6.204830098e-14
6.149877703e-14
6.087104587e-14
6.020531614e-14
5.955459922e-14
5.899248094e-14
5.862733326e-14
6.201108087e-14
6.171072717e-14
6.127700696e-14
6.073513602e-14
6.011633535e-14
5.946031439e-14
5.881935292e-14
5.826591687e-14
5.790658905e-14
6.123473243e-14
6.093852594e-14
6.051086577e-14
5.997668994e-14
5.936685547e-14
5.872056626e-14
5.80893666e-14
5.754460352e-14
5.719107964e-14
6.046385491e-14
6.017181854e-14
5.975024668e-14
5.922379302e-14
5.86229441e-14
5.798639323e-14
5.736494675e-14
5.682883523e-14
5.6481092e-14
5.969879839e-14
5.941094706e-14
5.899548054e-14
5.847676269e-14
5.788490418e-14
5.725808381e-14
5.664636873e-14
5.611887689e-14
5.577688476e-14
5.893987381e-14
5.865621526e-14
5.824686113e-14
5.773588084e-14
5.715300485e-14
5.653589459e-14
5.59338779e-14
5.541496505e-14
5.507868928e-14
5.818735346e-14
5.790788904e-14
5.750464549e-14
5.700139407e-14
5.642748162e-14
5.582005039e-14
5.522768973e-14
5.471730806e-14
5.43867099e-14
5.744147024e-14
5.716619561e-14
5.676905298e-14
5.62735126e-14
5.570853524e-14
5.5110743e-14
5.452798848e-14
5.402608478e-14
5.370112268e-14
5.670241524e-14
5.643132092e-14
5.604026254e-14
5.555240734e-14
5.499632846e-14
5.440812785e-14
5.383492382e-14
5.334144123e-14
5.302207209e-14
5.597033305e-14
5.570340477e-14
5.531840753e-14
5.483820438e-14
5.429098028e-14
5.371231792e-14
5.314860453e-14
5.266348412e-14
5.234966457e-14
5.524531413e-14
5.49825329e-14
5.460356736e-14
5.413097616e-14
5.359255654e-14
5.302337378e-14
5.246908808e-14
5.199227019e-14
5.168395774e-14
5.452738339e-14
5.42687251e-14
5.3895755e-14
5.343072815e-14
5.290105571e-14
5.234128858e-14
5.179636483e-14
5.132778982e-14
5.102494367e-14
5.38164841e-14
5.35619185e-14
5.319489928e-14
5.273737972e-14
5.221638873e-14
5.16659665e-14
5.113033518e-14
5.066994304e-14
5.037252431e-14
5.311245602e-14
5.286194484e-14
5.250082107e-14
5.205073963e-14
5.153835167e-14
5.099719313e-14
5.047077792e-14
5.001850631e-14
4.972647722e-14
5.241500667e-14
5.216850056e-14
5.181320144e-14
5.137047106e-14
5.086658897e-14
5.03345962e-14
4.981730817e-14
4.937308787e-14
4.908640931e-14
5.172367498e-14
5.148110879e-14
5.113154128e-14
5.069604818e-14
5.020054688e-14
4.967759517e-14
4.916932316e-14
4.873307019e-14
4.845169703e-14
5.103778638e-14
5.079907266e-14
5.045511182e-14
5.002670308e-14
4.953941597e-14
4.902533904e-14
4.852593507e-14
4.809753826e-14
4.782141164e-14
5.035639926e-14
5.012141969e-14
4.978289628e-14
4.936136436e-14
4.888206314e-14
4.837663198e-14
4.788589046e-14
4.746519345e-14
4.719422924e-14
4.967824235e-14
4.944683654e-14
4.911352038e-14
4.869858176e-14
4.822695148e-14
4.772984692e-14
4.724747693e-14
4.683425373e-14
4.65683265e-14
4.900164421e-14
4.877359561e-14
4.844517472e-14
4.803644258e-14
4.757205116e-14
4.708282941e-14
4.660841953e-14
4.620234286e-14
4.594126483e-14
4.832445659e-14
4.809947586e-14
4.777553183e-14
4.737248577e-14
4.691474533e-14
4.643279573e-14
4.596577072e-14
4.556637305e-14
4.530986778e-14
4.764397413e-14
4.742167989e-14
4.710165958e-14
4.670360929e-14
4.625173306e-14
4.57762294e-14
4.531579996e-14
4.492242759e-14
4.46700987e-14
4.695685503e-14
4.673675282e-14
4.641993751e-14
4.60259833e-14
4.557893775e-14
4.510878438e-14
4.465389107e-14
4.42656527e-14
4.401694842e-14
4.625904729e-14
4.604050746e-14
4.572598489e-14
4.533497511e-14
4.489142906e-14
4.442520382e-14
4.397445779e-14
4.359016988e-14
4.334434527e-14
4.554572957e-14
4.532797184e-14
4.501460492e-14
4.462509358e-14
4.418336764e-14
4.37192655e-14
4.327088994e-14
4.288902257e-14
4.264510165e-14
4.481129081e-14
4.459336426e-14
4.427975581e-14
4.388996308e-14
4.344798387e-14
4.298376631e-14
4.253554405e-14
4.215417229e-14
4.19109138e-14
4.404932826e-14
4.383008715e-14
4.351455529e-14
4.312233733e-14
4.26776026e-14
4.221055945e-14
4.175979352e-14
4.137656074e-14
4.113243194e-14
4.325267125e-14
4.303076629e-14
4.271133163e-14
4.231416513e-14
4.186372682e-14
4.13906582e-14
4.093415355e-14
4.054625427e-14
4.029941816e-14
4.241346577e-14
4.218734593e-14
4.186173443e-14
4.14567212e-14
4.09971924e-14
4.05144189e-14
4.004849461e-14
3.965268541e-14
3.940100731e-14
4.152332001e-14
4.129124708e-14
4.095691269e-14
4.054081097e-14
4.006840608e-14
3.957181587e-14
3.909235545e-14
3.868500253e-14
3.842608233e-14
4.057351859e-14
4.033359774e-14
3.998776929e-14
3.955705723e-14
3.90676713e-14
3.855281255e-14
3.80553628e-14
3.763253375e-14
3.736376922e-14
3.955531009e-14
3.930553925e-14
3.894529567e-14
3.84962722e-14
3.798560571e-14
3.744783071e-14
3.692775485e-14
3.648536139e-14
3.620404698e-14
3.846026905e-14
3.819860908e-14
3.782098576e-14
3.734991204e-14