/*--------------------------------*- C++ -*----------------------------------*\
| =========                 |                                                 |
| \\      /  F ield         | OpenFOAM: The Open Source CFD Toolbox           |
|  \\    /   O peration     | Version:  2212                                  |
|   \\  /    A nd           | Website:  www.openfoam.com                      |
|    \\/     M anipulation  |                                                 |
\*---------------------------------------------------------------------------*/
FoamFile
{
    version     2.0;
    format      ascii;
    arch        "LSB;label=32;scalar=64";
    class       volScalarField;
    location    "19.75000000";
    object      CH3CO_0;
}
// * * * * * * * * * * * * * * * * * * * * * * * * * * * * * * * * * * * * * //

dimensions      [0 0 0 0 0 0 0];

internalField   nonuniform List<scalar> 
3000
(
7.418367654e-45
9.441402562e-45
1.296021116e-44
1.854677806e-44
2.696805302e-44
3.908318043e-44
5.549315786e-44
7.553218768e-44
9.448209374e-44
7.699842582e-44
9.877871261e-44
1.369383979e-43
1.982125805e-43
2.922635708e-43
4.318141913e-43
6.311971248e-43
8.971307376e-43
1.181153255e-42
3.682231211e-43
4.805450911e-43
6.81523113e-43
1.01416889e-42
1.545201004e-42
2.37009429e-42
3.601165909e-42
5.282050682e-42
7.005543424e-42
1.325426913e-42
1.768824128e-42
2.584768653e-42
3.985932305e-42
6.31760314e-42
1.008375747e-41
1.585076674e-41
2.368168238e-41
3.125405266e-41
4.195226399e-42
5.743761288e-42
8.680418169e-42
1.390737357e-41
2.29207409e-41
3.788659521e-41
6.101616794e-41
9.176266391e-41
1.199675781e-40
1.250684834e-41
1.75784641e-41
2.747400848e-41
4.564779666e-41
7.787233078e-41
1.323189779e-40
2.164716499e-40
3.258577401e-40
4.221516995e-40
3.63995091e-41
5.245455603e-41
8.456431214e-41
1.450520992e-40
2.545019396e-40
4.412610102e-40
7.286896571e-40
1.095124691e-39
1.407266666e-39
1.053064278e-40
1.551792083e-40
2.569645621e-40
4.524985762e-40
8.113646152e-40
1.426906748e-39
2.369148042e-39
3.552239247e-39
4.536411399e-39
3.055376826e-40
4.588516951e-40
7.767568658e-40
1.396409655e-39
2.544618998e-39
4.518790536e-39
7.525059031e-39
1.125674439e-38
1.430846125e-38
8.921199602e-40
1.360599387e-39
2.343794096e-39
4.280469082e-39
7.891936761e-39
1.410659912e-38
2.352792047e-38
3.512308773e-38
4.448665959e-38
2.623205465e-39
4.049669567e-39
7.070206924e-39
1.306447743e-38
2.428848467e-38
4.360354529e-38
7.277717325e-38
1.084544981e-37
1.369938164e-37
7.762769444e-39
1.209654088e-38
2.133303788e-38
3.975851583e-38
7.434981352e-38
1.338551979e-37
2.234667553e-37
3.325316657e-37
4.191407134e-37
2.309373564e-38
3.624081045e-38
6.439163981e-38
1.207502286e-37
2.267274244e-37
4.089338082e-37
6.826744077e-37
1.014623571e-36
1.276720262e-36
6.898500001e-38
1.08825797e-37
1.944155647e-37
3.661862159e-37
6.894945389e-37
1.245010994e-36
2.077992877e-36
3.085226893e-36
3.87690718e-36
2.066997815e-37
3.273309221e-37
5.870795595e-37
1.109214335e-36
2.092476118e-36
3.780833742e-36
6.308442061e-36
9.357880004e-36
1.174631366e-35
6.206825517e-37
9.856646577e-37
1.772800343e-36
3.356691929e-36
6.339961433e-36
1.145908183e-35
1.911233375e-35
2.832812765e-35
3.5529344e-35
1.866558888e-36
2.970096296e-36
5.352509264e-36
1.014932171e-35
1.918371912e-35
3.467545687e-35
5.780694627e-35
8.559841351e-35
1.073265609e-34
5.618569976e-36
8.952957827e-36
1.615615118e-35
3.066324296e-35
5.797988092e-35
1.047874938e-34
1.746023251e-34
2.583692901e-34
3.238966907e-34
1.69218409e-35
2.699022609e-35
4.87479925e-35
9.256842289e-35
1.750491407e-34
3.162725526e-34
5.267086702e-34
7.791625112e-34
9.767409933e-34
5.09765581e-35
8.135758655e-35
1.470160946e-34
2.792240224e-34
5.279271299e-34
9.533708523e-34
1.586637518e-33
2.345931754e-33
2.943260034e-33
1.535588142e-34
2.451595712e-34
4.430914359e-34
8.414510319e-34
1.590205705e-33
2.869599011e-33
4.771439493e-33
7.049778294e-33
8.856051533e-33
4.624205099e-34
7.383266371e-34
1.33424996e-33
2.532660889e-33
4.782526461e-33
8.620943875e-33
1.431649589e-32
2.11262658e-32
2.65145704e-32
1.391592461e-33
2.221527342e-33
4.012731324e-33
7.610511216e-33
1.435347242e-32
2.583277513e-32
4.282339982e-32
6.308187101e-32
7.906321974e-32
4.183239823e-33
6.675111141e-33
1.204688644e-32
2.281739434e-32
4.295493978e-32
7.713401792e-32
1.275434727e-31
1.874094643e-31
2.344223773e-31
1.255438494e-32
2.001709481e-32
3.607696836e-32
6.819559881e-32
1.280437283e-31
2.291917836e-31
3.776214352e-31
5.528829729e-31
6.895789861e-31
3.75872099e-32
5.985809545e-32
1.076685358e-31
2.02945817e-31
3.796399801e-31
6.764996754e-31
1.109050836e-30
1.615599722e-30
2.006688982e-30
1.121574493e-31
1.783016973e-31
3.198183302e-31
6.004536293e-31
1.11751999e-30
1.979171915e-30
3.222427039e-30
4.661574646e-30
5.756343647e-30
3.331364707e-31
5.283209116e-31
9.440061987e-31
1.762882052e-30
3.258453561e-30
5.72341525e-30
9.233028822e-30
1.323121141e-29
1.62089911e-29
9.834354968e-31
1.554519243e-30
2.76333556e-30
5.123762564e-30
9.384947319e-30
1.630649114e-29
2.598856377e-29
3.678328355e-29
4.458843274e-29
2.879824016e-30
4.532383692e-30
8.002467744e-30
1.470116415e-29
2.661283942e-29
4.559877074e-29
7.155202764e-29
9.967552431e-29
1.191965595e-28
8.345993018e-30
1.306121002e-29
2.286100464e-29
4.150325822e-29
7.402143961e-29
1.246199877e-28
1.917830179e-28
2.619235292e-28
3.079629744e-28
2.387252128e-29
3.709136273e-29
6.421013591e-29
1.148570652e-28
2.011023011e-28
3.3133332e-28
4.979512267e-28
6.639357847e-28
7.648416305e-28
6.718360213e-29
1.0344714e-28
1.766542808e-28
3.103048887e-28
5.312746816e-28
8.529050564e-28
1.246178985e-27
1.615260093e-27
1.816795462e-27
1.85370256e-28
2.822789757e-28
4.741113414e-28
8.148218586e-28
1.358444071e-27
2.11550842e-27
2.991750002e-27
3.754454738e-27
4.110226656e-27
4.99515835e-28
7.505458642e-28
1.235915932e-27
2.070184729e-27
3.346399988e-27
5.033182184e-27
6.861090581e-27
8.306800741e-27
8.82896381e-27
1.309192719e-27
1.936217425e-27
3.115477158e-27
5.066198467e-27
7.907508515e-27
1.144083979e-26
1.498055867e-26
1.745039074e-26
1.797709443e-26
3.323251871e-27
4.825376612e-27
7.561412853e-27
1.189220666e-26
1.785567199e-26
2.476844665e-26
3.107205674e-26
3.476782736e-26
3.469602689e-26
8.135987234e-27
1.156908091e-26
1.75987204e-26
2.6679049e-26
3.84144274e-26
5.096652306e-26
6.117191457e-26
6.572706801e-26
6.357677751e-26
1.913555752e-26
2.658389831e-26
3.914449009e-26
5.704074907e-26
7.859094758e-26
9.961169672e-26
1.143812647e-25
1.181356362e-25
1.109589325e-25
4.309004182e-26
5.836331251e-26
8.299607129e-26
1.160269491e-25
1.528105131e-25
1.850534454e-25
2.035681828e-25
2.025777531e-25
1.852811306e-25
9.265874446e-26
1.221584607e-25
1.675017617e-25
2.244465777e-25
2.826205104e-25
3.274951833e-25
3.460574311e-25
3.329677817e-25
2.976381885e-25
1.89983318e-25
2.435371147e-25
3.217592292e-25
4.133433778e-25
4.983533458e-25
5.541041169e-25
5.645499968e-25
5.27487873e-25
4.627687082e-25
3.713743599e-25
4.627080214e-25
5.891820608e-25
7.266070873e-25
8.410065933e-25
9.006120543e-25
8.887481852e-25
8.102723125e-25
7.007245135e-25
6.931543345e-25
8.397030692e-25
1.0317427e-24
1.224397297e-24
1.36529994e-24
1.414359058e-24
1.358390959e-24
1.214257039e-24
1.0394667e-24
1.239340599e-24
1.461428768e-24
1.73641762e-24
1.989348473e-24
2.145931114e-24
2.160424628e-24
2.028764785e-24
1.785727636e-24
1.518604771e-24
2.133368258e-24
2.453435778e-24
2.827391601e-24
3.139468534e-24
3.290726477e-24
3.233863924e-24
2.98076762e-24
2.591613527e-24
2.194532141e-24
3.558303391e-24
4.001740333e-24
4.490199271e-24
4.85437281e-24
4.967352498e-24
4.784296921e-24
4.340713756e-24
3.732895583e-24
3.148387459e-24
5.792114645e-24
6.392307615e-24
7.016621556e-24
7.425021094e-24
7.455332649e-24
7.066138251e-24
6.323991375e-24
5.377695848e-24
4.508698611e-24
9.265207078e-24
1.007657014e-23
1.088060182e-23
1.134029951e-23
1.124153011e-23
1.053991016e-23
9.339414227e-24
7.869287885e-24
6.569436893e-24
1.464547008e-23
1.576940573e-23
1.68539614e-23
1.742359323e-23
1.718055141e-23
1.606472903e-23
1.424183134e-23
1.211318928e-23
1.049194217e-23
2.295160168e-23
2.458190956e-23
2.616763649e-23
2.703187855e-23
2.674952439e-23
2.526473136e-23
2.298557919e-23
2.078854707e-23
1.875846352e-23
3.569066686e-23
3.819109771e-23
4.073648964e-23
4.237616055e-23
4.25722741e-23
4.15956398e-23
4.051867169e-23
3.865610261e-23
3.616367985e-23
5.502482001e-23
5.908040253e-23
6.356675364e-23
6.732517843e-23
7.029366383e-23
7.359601436e-23
7.578685998e-23
7.55780732e-23
7.293119682e-23
8.410858216e-23
9.113474295e-23
1.000715696e-22
1.106923184e-22
1.234174192e-22
1.362458459e-22
1.466031573e-22
1.516407196e-22
1.502748848e-22
1.28758025e-22
1.424817374e-22
1.645051784e-22
1.925996561e-22
2.249592728e-22
2.582554956e-22
2.873823293e-22
3.058540952e-22
3.095129612e-22
2.07448991e-22
2.388946014e-22
2.86114636e-22
3.470600477e-22
4.182991588e-22
4.934567512e-22
5.618456063e-22
6.089522132e-22
6.240192301e-22
3.57679444e-22
4.204383362e-22
5.148783686e-22
6.383448508e-22
7.84612179e-22
9.405351476e-22
1.082941749e-21
1.181064089e-21
1.21450499e-21
6.442056378e-22
7.64744495e-22
9.474932934e-22
1.188234588e-21
1.474033208e-21
1.775733691e-21
2.043980867e-21
2.221592895e-21
2.281640147e-21
1.195863569e-21
1.423329222e-21
1.76906112e-21
2.223470519e-21
2.756104e-21
3.303167882e-21
3.771579062e-21
4.076449592e-21
4.196012392e-21
2.264410347e-21
2.685888855e-21
3.322846171e-21
4.148526609e-21
5.09302145e-21
6.034470151e-21
6.83233728e-21
7.396256157e-21
7.712117309e-21
4.319769874e-21
5.078243948e-21
6.209315703e-21
7.645670058e-21
9.251874491e-21
1.084395342e-20
1.227109773e-20
1.348700318e-20
1.443543499e-20
8.175227937e-21
9.487630191e-21
1.141634203e-20
1.38294715e-20
1.652553602e-20
1.931019035e-20
2.212410927e-20
2.505498749e-20
2.782553857e-20
1.513944243e-20
1.733259923e-20
2.053657965e-20
2.45636852e-20
2.92125229e-20
3.442527013e-20
4.046398369e-20
4.774340996e-20
5.526985488e-20
2.72812689e-20
3.090234709e-20
3.624096184e-20
4.313672743e-20
5.157378352e-20
6.197750591e-20
7.54641657e-20
9.316777338e-20
1.121210962e-19
4.803342427e-20
5.410074376e-20
6.324227332e-20
7.554696921e-20
9.162624323e-20
1.131850555e-19
1.433310233e-19
1.84583157e-19
2.29059666e-19
8.337711206e-20
9.383565271e-20
1.100351392e-19
1.32833049e-19
1.644586256e-19
2.095685514e-19
2.754279491e-19
3.668437222e-19
4.646746054e-19
1.438890832e-19
1.624340949e-19
1.919812506e-19
2.352836379e-19
2.982200333e-19
3.915753028e-19
5.304932474e-19
7.228844231e-19
9.256563189e-19
2.482919924e-19
2.818914188e-19
3.367886821e-19
4.198808542e-19
5.445031103e-19
7.330954096e-19
1.014470349e-18
1.399461485e-18
1.797346045e-18
4.29671989e-19
4.912994319e-19
5.939979177e-19
7.529424644e-19
9.955153824e-19
1.364669276e-18
1.911007195e-18
2.645212166e-18
3.3874884e-18
7.461091889e-19
8.594053749e-19
1.050743444e-18
1.350635896e-18
1.811107241e-18
2.50873246e-18
3.526000618e-18
4.86412426e-18
6.185823301e-18
1.298142178e-18
1.504963885e-18
1.856775763e-18
2.410680173e-18
3.259221779e-18
4.530499422e-18
6.349507523e-18
8.687150174e-18
1.094160821e-17
2.256210833e-18
2.628210202e-18
3.26228467e-18
4.258930111e-18
5.773436049e-18
8.007848958e-18
1.113776175e-17
1.506386976e-17
1.876024785e-17
3.901724143e-18
4.5571663e-18
5.672240923e-18
7.414403961e-18
1.003074052e-17
1.382263945e-17
1.901676545e-17
2.537467954e-17
3.121882126e-17
6.68546763e-18
7.812355002e-18
9.720519026e-18
1.267544314e-17
1.705135646e-17
2.327408909e-17
3.16068248e-17
4.156180959e-17
5.049824334e-17
1.130645316e-17
1.319261795e-17
1.636579184e-17
2.122793695e-17
2.832012604e-17
3.821215231e-17
5.11644274e-17
6.62744569e-17
7.95269156e-17
1.881287637e-17
2.188300128e-17
2.700904351e-17
3.477392415e-17
4.592592603e-17
6.118538231e-17
8.073425027e-17
1.030197635e-16
1.221272839e-16
3.072458775e-17
3.558314685e-17
4.362967025e-17
5.567563798e-17
7.271200434e-17
9.559406733e-17
1.243005195e-16
1.563085373e-16
1.831559975e-16
4.917359818e-17
5.665157044e-17
6.893389026e-17
8.710666724e-17
1.124266938e-16
1.458359729e-16
1.869231278e-16
2.317786971e-16
2.686113112e-16
7.705601733e-17
8.825808409e-17
1.065061402e-16
1.33199115e-16
1.698617081e-16
2.17430908e-16
2.748454122e-16
3.362836686e-16
3.857217589e-16
1.181859973e-16
1.345340223e-16
1.609519561e-16
1.991741336e-16
2.50964479e-16
3.171102665e-16
3.955555328e-16
4.779445595e-16
5.429882058e-16
1.774403513e-16
2.00708559e-16
2.380202704e-16
2.914442502e-16
3.629128827e-16
4.52855568e-16
5.578025892e-16
6.66123358e-16
7.500706617e-16
2.608821901e-16
2.932201712e-16
3.446939266e-16
4.176711842e-16
5.141401557e-16
6.33900192e-16
7.715422356e-16
9.112574071e-16
1.017671164e-15
3.758532082e-16
4.197876858e-16
4.892375719e-16
5.867950476e-16
7.143339982e-16
8.706473254e-16
1.047718264e-15
1.224699861e-15
1.357329809e-15
5.310255585e-16
5.89457264e-16
6.812210551e-16
8.090221129e-16
9.743117057e-16
1.174417412e-15
1.398086455e-15
1.618470669e-15
1.781155057e-15
7.364430727e-16
8.126244734e-16
9.314990376e-16
1.095625221e-15
1.305754508e-15
1.557266755e-15
1.834941859e-15
2.104949594e-15
2.301498781e-15
1.003437465e-15
1.100814269e-15
1.251840347e-15
1.458688676e-15
1.72101637e-15
2.031699445e-15
2.370792419e-15
2.696522175e-15
2.93058844e-15
1.344230649e-15
1.466404852e-15
1.654805667e-15
1.910906052e-15
2.232822451e-15
2.610327301e-15
3.017989557e-15
3.405191366e-15
3.68013031e-15
1.771830225e-15
1.922447394e-15
2.153453562e-15
2.465247168e-15
2.853909152e-15
3.305485924e-15
3.788327976e-15
4.242169384e-15
4.560899459e-15
2.299696212e-15
2.482316352e-15
2.760974273e-15
3.134570386e-15
3.596620151e-15
4.128821232e-15
4.692630505e-15
5.217466794e-15
5.582334156e-15
2.94133922e-15
3.159298039e-15
3.490268379e-15
3.931193188e-15
4.472475198e-15
5.090864549e-15
5.740336806e-15
6.339497989e-15
6.752154022e-15
3.709865647e-15
3.966133484e-15
4.353489833e-15
4.866440793e-15
5.491732412e-15
6.200617256e-15
6.939116581e-15
7.614723108e-15
8.076021514e-15
4.617492221e-15
4.914538395e-15
5.361577111e-15
5.950196581e-15
6.662967439e-15
7.465167307e-15
8.294528062e-15
9.047345548e-15
9.557264872e-15
5.675056644e-15
6.014726865e-15
6.523798801e-15
7.190479673e-15
7.992693183e-15
8.889359016e-15
9.809740542e-15
1.063908142e-14
1.119667734e-14
6.891552773e-15
7.274966547e-15
7.847340055e-15
8.593074054e-15
9.485041739e-15
1.047553451e-14
1.148533591e-14
1.23890129e-14
1.29924027e-14
8.273717603e-15
8.7011912e-15
9.336953727e-15
1.016123025e-14
1.114152608e-14
1.222336046e-14
1.331919896e-14
1.429353191e-14
1.493991175e-14
9.825693466e-15
1.029669234e-14
1.099469537e-14
1.189545539e-14
1.296089342e-14
1.412974801e-14
1.530650049e-14
1.634637518e-14
1.703206854e-14
1.154878324e-14
1.206190581e-14
1.281975512e-14
1.379340124e-14
1.493907607e-14
1.618886779e-14
1.743977168e-14
1.853874617e-14
1.925928062e-14
1.344130956e-14
1.399430242e-14
1.480839285e-14
1.584985333e-14
1.706923943e-14
1.83922563e-14
1.970906294e-14
2.085951504e-14
2.160972299e-14
1.549858205e-14
1.608838481e-14
1.695397642e-14
1.805681827e-14
1.934192124e-14
2.07290053e-14
2.210217689e-14
2.329548458e-14
2.406962268e-14
1.771297015e-14
1.833578666e-14
1.924711712e-14
2.0403701e-14
2.174525194e-14
2.318602206e-14
2.460496173e-14
2.583170763e-14
2.662358927e-14
2.007407335e-14
2.0725465e-14
2.167589154e-14
2.287755996e-14
2.42652425e-14
2.574834583e-14
2.720164997e-14
2.84518404e-14
2.925497554e-14
2.256897633e-14
2.324397229e-14
2.422613585e-14
2.546342497e-14
2.688612419e-14
2.839950476e-14
2.987522656e-14
3.113851626e-14
3.194625289e-14
2.51825733e-14
2.58757924e-14
2.688179598e-14
2.814466147e-14
2.959072358e-14
3.112189705e-14
3.260781089e-14
3.387372497e-14
3.467938725e-14
2.789794424e-14
2.860372275e-14
2.962531638e-14
3.090336384e-14
3.236085665e-14
3.389718076e-14
3.538103823e-14
3.663918381e-14
3.743620242e-14
3.06967646e-14
3.140928505e-14
3.243805001e-14
3.372076133e-14
3.517772612e-14
3.670665802e-14
3.817642752e-14
3.941668917e-14
4.019872022e-14
3.355973097e-14
3.427314713e-14
3.530067304e-14
3.657762131e-14
3.802230831e-14
3.953164131e-14
4.0975725e-14
4.218843885e-14
4.294946864e-14
3.646698619e-14
3.717554028e-14
3.819358965e-14
3.945463626e-14
4.087571752e-14
4.235379152e-14
4.376121476e-14
4.493731814e-14
4.567175184e-14
3.939852914e-14
4.009665811e-14
4.109731409e-14
4.233278341e-14
4.371953842e-14
4.515541996e-14
4.651599021e-14
4.764714452e-14
4.83498777e-14
4.233459728e-14
4.301702568e-14
4.399281981e-14
4.519364822e-14
4.653611917e-14
4.791974888e-14
4.92241824e-14
5.030286857e-14
5.096934131e-14
4.525601195e-14
4.591782993e-14
4.686184818e-14
4.801970528e-14
4.930882074e-14
5.063112707e-14
5.187114341e-14
5.289073001e-14
5.351696395e-14
4.814447979e-14
4.878120532e-14
4.968717132e-14
5.079455311e-14
5.202221966e-14
5.327519971e-14
5.444358468e-14
5.539837014e-14
5.598098934e-14
5.098284555e-14
5.159047093e-14
5.245280666e-14
5.350310089e-14
5.466226407e-14
5.583903277e-14
5.692967215e-14
5.781490273e-14
5.835113971e-14
5.375529463e-14
5.433031758e-14
5.51441824e-14
5.613170764e-14
5.721638402e-14
5.831119432e-14
5.931908074e-14
6.013094693e-14
6.06186356e-14
5.644750525e-14
5.698694573e-14
5.774825524e-14
5.866827582e-14
5.967355889e-14
6.068179601e-14
6.160301226e-14
6.233862637e-14
6.277618352e-14
5.904675224e-14
5.954815621e-14
6.025358298e-14
6.110230242e-14
6.202434554e-14
6.294249867e-14
6.377418099e-14
6.443153888e-14
6.481793638e-14
6.154196567e-14
6.200339745e-14
6.265035597e-14
6.342489185e-14
6.426087172e-14
6.508648696e-14
6.582677178e-14
6.64047019e-14
6.673943138e-14
6.392374877e-14
6.434377365e-14
6.493039197e-14
6.562873544e-14
6.637679953e-14
6.71084178e-14
6.775637557e-14
6.825447819e-14
6.853751014e-14
6.618436002e-14
6.656201891e-14
6.708709953e-14
6.770806254e-14
6.836726414e-14
6.900434757e-14
6.955990703e-14
6.997848654e-14
7.021022557e-14
6.831766491e-14
6.865244283e-14
6.911541528e-14
6.965856855e-14
7.022879265e-14
7.07716429e-14
7.123550897e-14
7.157550179e-14
7.175673959e-14
7.03190628e-14
7.061085278e-14
7.101172027e-14
7.147732481e-14
7.195920794e-14
7.240887953e-14
7.278244763e-14
7.304534796e-14
7.31772154e-14
7.218539428e-14
7.243445826e-14
7.27737405e-14
7.316267528e-14
7.3557522e-14
7.391573334e-14
7.42010025e-14
7.438878795e-14
7.447270748e-14
7.391483414e-14
7.412176215e-14
7.440043625e-14
7.471412414e-14
7.502382265e-14
7.529286705e-14
7.549235406e-14
7.560741274e-14
7.564505206e-14
7.550677443e-14
7.567244338e-14
7.589188442e-14
7.613221846e-14
7.635915717e-14
7.65418159e-14
7.665847203e-14
7.670353248e-14
7.669676023e-14
7.696170201e-14
7.70872349e-14
7.724915759e-14
7.741842899e-14
7.756541594e-14
7.766487468e-14
7.770200644e-14
7.768007132e-14
7.763091551e-14
7.82810739e-14
7.836780042e-14
7.847420288e-14
7.857503216e-14
7.864521828e-14
7.866498836e-14
7.862618325e-14
7.854046767e-14
7.845107712e-14
7.946719369e-14
7.951661269e-14
7.956972325e-14
7.960499539e-14
7.960180279e-14
7.954564797e-14
7.943470589e-14
7.928858078e-14
7.916118991e-14
8.052309122e-14
8.053683565e-14
8.053906327e-14
8.051186759e-14
8.043892339e-14
8.031079276e-14
8.01316636e-14
7.992860449e-14
7.976550167e-14
8.14524077e-14
8.143221231e-14
8.138610103e-14
8.129967617e-14
8.116075238e-14
8.096471973e-14
8.072144729e-14
8.046498856e-14
8.026848791e-14
8.225928752e-14
8.220695945e-14
8.211514714e-14
8.197283149e-14
8.177179105e-14
8.151200082e-14
8.120867315e-14
8.090236769e-14
8.067478447e-14
8.294827794e-14
8.286567038e-14
8.273085183e-14
8.253603941e-14
8.227678845e-14
8.195740814e-14
8.15981141e-14
8.124549833e-14
8.09891276e-14
8.352423714e-14
8.3413226e-14
8.323812042e-14
8.299422212e-14
8.268066826e-14
8.230584721e-14
8.189463904e-14
8.149920299e-14
8.121630152e-14
8.399225106e-14
8.385471463e-14
8.364203734e-14
8.33524474e-14
8.29884639e-14
8.256229799e-14
8.210315962e-14
8.16683217e-14
8.136109282e-14
8.435755906e-14
8.419536047e-14
8.394779865e-14
8.361586607e-14
8.320526143e-14
8.27317635e-14
8.22285841e-14
8.175767028e-14
8.142825158e-14
8.462548825e-14
8.444046068e-14
8.416065291e-14
8.378965744e-14
8.333615012e-14
8.281922551e-14
8.22757779e-14
8.177200501e-14
8.142245839e-14
8.480139617e-14
8.459533046e-14
8.428584979e-14
8.387898225e-14
8.338618006e-14
8.28296069e-14
8.224953044e-14
8.171599295e-14
8.134829706e-14
8.489062141e-14
8.466525603e-14
8.432859621e-14
8.388894261e-14
8.336032634e-14
8.276774017e-14
8.215452754e-14
8.159418767e-14
8.121023228e-14
8.489844165e-14
8.465545463e-14
8.429401932e-14
8.38245485e-14
8.326345932e-14
8.263834148e-14
8.199532897e-14
8.141100964e-14
8.101259179e-14
8.483003845e-14
8.457104132e-14
8.418713578e-14
8.369069014e-14
8.310032041e-14
8.244598974e-14
8.177635069e-14
8.117073097e-14
8.075955262e-14
8.469046844e-14
8.441700162e-14
8.401282683e-14
8.349211579e-14
8.287550278e-14
8.21951103e-14
8.150185111e-14
8.087746377e-14
8.045513081e-14
8.44846399e-14
8.419816965e-14
8.377581826e-14
8.32334141e-14
8.259343621e-14
8.188996236e-14
8.117592086e-14
8.053515183e-14
8.010317414e-14
8.42172945e-14
8.391921105e-14
8.348066512e-14
8.291900081e-14
8.225837605e-14
8.153462997e-14
8.080247569e-14
8.014756504e-14
7.970735757e-14
8.389299338e-14
8.358461014e-14
8.313174039e-14
8.255310919e-14
8.187439547e-14
8.113301616e-14
8.038525225e-14
7.971829642e-14
7.927118096e-14
8.351610722e-14
8.31986609e-14
8.273322715e-14
8.213978369e-14
8.144538065e-14
8.068883957e-14
7.9927806e-14
7.925076111e-14
7.879796869e-14
8.309080934e-14
8.276546086e-14
8.228911358e-14
8.168287615e-14
8.097502827e-14
8.020563327e-14
7.943351113e-14
7.874819707e-14
7.82908709e-14
8.26210715e-14
8.22889077e-14
8.180319055e-14
8.118604444e-14
8.046684523e-14
7.968674535e-14
7.8905562e-14
7.821366724e-14
7.775286598e-14
8.211066141e-14
8.177269778e-14
8.127905107e-14
8.065275292e-14
7.992415e-14
7.913534113e-14
7.834697605e-14
7.765006292e-14
7.718676419e-14
8.156314106e-14
8.122032628e-14
8.072009165e-14
8.008627456e-14
7.935007545e-14
7.855440661e-14
7.776059771e-14
7.706010797e-14
7.659521221e-14
8.098187096e-14
8.063509054e-14
8.012951565e-14
7.948969471e-14
7.8747573e-14
7.794675298e-14
7.714910318e-14
7.644636395e-14
7.598069819e-14
8.037002342e-14
8.002009591e-14
7.951033877e-14
7.886591638e-14
7.811941798e-14
7.731502206e-14
7.651500608e-14
7.581123569e-14
7.534555754e-14
7.97305914e-14
7.93782677e-14
7.886539721e-14
7.821766695e-14
7.746821574e-14
7.666169236e-14
7.586066346e-14
7.515697744e-14
7.469197887e-14
7.906638749e-14
7.871235789e-14
7.819735304e-14
7.754750425e-14
7.679640823e-14
7.598908561e-14
7.518828217e-14
7.4485699e-14
7.402201032e-14
7.838004484e-14
7.802494214e-14
7.750870027e-14
7.68578231e-14
7.610628032e-14
7.529937314e-14
7.449992535e-14
7.379937236e-14
7.333756592e-14
7.767402508e-14
7.731842875e-14
7.680176755e-14
7.615086125e-14
7.539996665e-14
7.45945828e-14
7.379751921e-14
7.309983817e-14
7.264043206e-14
7.695062675e-14
7.659506767e-14
7.607873689e-14
7.54287092e-14
7.467945927e-14
7.387660593e-14
7.308285969e-14
7.238881231e-14
7.193227393e-14
7.621199177e-14
7.585695434e-14
7.53416363e-14
7.469331367e-14
7.394661349e-14
7.314720384e-14
7.235761901e-14
7.16678923e-14
7.121464179e-14
7.546011293e-14
7.510603812e-14
7.459235353e-14
7.394648494e-14
7.320315457e-14
7.240801434e-14
7.16233521e-14
7.093856359e-14
7.048897719e-14
7.469684173e-14
7.434412969e-14
7.383264092e-14
7.318990294e-14
7.245068468e-14
7.166055858e-14
7.088150315e-14
7.020220585e-14
6.975661907e-14
7.392389668e-14
7.357291004e-14
7.306412654e-14
7.242513238e-14
7.169069216e-14
7.09062484e-14
7.013341213e-14
6.946009913e-14
6.901880972e-14
7.314287042e-14
7.279393642e-14
7.228831703e-14
7.165361674e-14
7.092455436e-14
7.01463915e-14
6.938032058e-14
6.871342959e-14
6.827670044e-14
7.235523734e-14
7.200865046e-14
7.150660745e-14
7.087669436e-14
7.015354647e-14
6.938219828e-14
6.862337761e-14
6.796329522e-14
6.753135703e-14
7.156236099e-14
7.121838554e-14
7.072028854e-14
7.00956044e-14
6.937884817e-14
6.861478801e-14
6.786364576e-14
6.721071128e-14
6.67837651e-14
7.076550082e-14
7.042437318e-14
6.99305523e-14
6.931149097e-14
6.860154873e-14
6.784519428e-14
6.710210626e-14
6.645661548e-14
6.603483507e-14
6.996581853e-14
6.962774908e-14
6.913849738e-14
6.852540657e-14
6.782265212e-14
6.707437019e-14
6.633966415e-14
6.570187288e-14
6.528540694e-14
6.916438432e-14
6.882955951e-14
6.834513616e-14
6.773832272e-14
6.704308342e-14
6.630319374e-14
6.557715322e-14
6.494728055e-14
6.453625481e-14
6.836218285e-14
6.803076703e-14
6.755139989e-14
6.695113263e-14
6.626369355e-14
6.553247266e-14
6.481534062e-14
6.419357203e-14
6.378809121e-14
6.756011886e-14
6.723225599e-14
6.675814411e-14
6.616465677e-14
6.548526422e-14
6.476294907e-14
6.405493134e-14
6.344142152e-14
6.304157117e-14
6.675902253e-14
6.643483785e-14
6.596615377e-14
6.537964791e-14
6.470851269e-14
6.399530397e-14
6.32965724e-14
6.269144794e-14
6.229729607e-14
6.59596546e-14
6.563925615e-14
6.517614808e-14
6.459679575e-14
6.393409613e-14
6.323016137e-14
6.254085679e-14
6.194421865e-14
6.155581736e-14
6.516271112e-14
6.484619115e-14
6.438878505e-14
6.381673127e-14
6.31626158e-14
6.246809227e-14
6.178832719e-14
6.120025302e-14
6.081763992e-14
6.436882794e-14
6.405626428e-14
6.360466572e-14
6.304003085e-14
6.239462092e-14
6.17096183e-14
6.103947953e-14
6.046002578e-14
6.008322538e-14
6.357858485e-14
6.327004217e-14
6.282433813e-14
6.226722003e-14
6.163061235e-14
6.095521523e-14
6.029476621e-14
5.972397019e-14
5.935299514e-14
6.27925095e-14
6.248804044e-14
6.204830097e-14
6.149877703e-14
6.087104587e-14
6.020531614e-14
5.955459922e-14
5.899248092e-14
5.862733324e-14
6.201108086e-14
6.171072716e-14
6.127700695e-14
6.073513602e-14
6.011633535e-14
5.946031439e-14
5.881935291e-14
5.826591686e-14
5.790658903e-14
6.123473242e-14
6.093852593e-14
6.051086577e-14
5.997668994e-14
5.936685547e-14
5.872056626e-14
5.80893666e-14
5.754460351e-14
5.719107962e-14
6.04638549e-14
6.017181853e-14
5.975024667e-14
5.922379301e-14
5.86229441e-14
5.798639324e-14
5.736494675e-14
5.682883522e-14
5.648109198e-14
5.969879838e-14
5.941094705e-14
5.899548054e-14
5.847676269e-14
5.788490418e-14
5.725808381e-14
5.664636873e-14
5.611887688e-14
5.577688474e-14
5.89398738e-14
5.865621525e-14
5.824686112e-14
5.773588084e-14
5.715300485e-14
5.653589459e-14
5.59338779e-14
5.541496504e-14
5.507868926e-14
5.818735345e-14
5.790788903e-14
5.750464548e-14
5.700139407e-14
5.642748163e-14
5.582005039e-14
5.522768972e-14
5.471730804e-14
5.438670988e-14
5.744147023e-14
5.71661956e-14
5.676905297e-14
5.62735126e-14
5.570853524e-14
5.5110743e-14
5.452798847e-14
5.402608477e-14
5.370112266e-14
5.670241523e-14
5.643132091e-14
5.604026253e-14
5.555240733e-14
5.499632846e-14
5.440812785e-14
5.383492382e-14
5.334144121e-14
5.302207207e-14
5.597033304e-14
5.570340476e-14
5.531840752e-14
5.483820438e-14
5.429098028e-14
5.371231792e-14
5.314860453e-14
5.26634841e-14
5.234966455e-14
5.524531412e-14
5.498253288e-14
5.460356735e-14
5.413097616e-14
5.359255654e-14
5.302337378e-14
5.246908808e-14
5.199227018e-14
5.168395772e-14
5.452738338e-14
5.426872509e-14
5.3895755e-14
5.343072815e-14
5.290105571e-14
5.234128858e-14
5.179636483e-14
5.13277898e-14
5.102494365e-14
5.381648409e-14
5.356191849e-14
5.319489927e-14
5.273737972e-14
5.221638874e-14
5.16659665e-14
5.113033517e-14
5.066994303e-14
5.037252429e-14
5.311245601e-14
5.286194483e-14
5.250082106e-14
5.205073962e-14
5.153835167e-14
5.099719314e-14
5.047077792e-14
5.001850629e-14
4.97264772e-14
5.241500666e-14
5.216850055e-14
5.181320143e-14
5.137047106e-14
5.086658897e-14
5.03345962e-14
4.981730816e-14
4.937308786e-14
4.908640929e-14
5.172367497e-14
5.148110878e-14
5.113154127e-14
5.069604818e-14
5.020054688e-14
4.967759517e-14
4.916932316e-14
4.873307018e-14
4.845169701e-14
5.103778637e-14
5.079907265e-14
5.045511181e-14
5.002670308e-14
4.953941597e-14
4.902533904e-14
4.852593507e-14
4.809753825e-14
4.782141162e-14
5.035639925e-14
5.012141968e-14
4.978289627e-14
4.936136436e-14
4.888206314e-14
4.837663198e-14
4.788589045e-14
4.746519344e-14
4.719422922e-14
4.967824234e-14
4.944683653e-14
4.911352038e-14
4.869858176e-14
4.822695149e-14
4.772984692e-14
4.724747693e-14
4.683425371e-14
4.656832648e-14
4.900164421e-14
4.87735956e-14
4.844517471e-14
4.803644258e-14
4.757205116e-14
4.708282942e-14
4.660841953e-14
4.620234284e-14
4.594126482e-14
4.832445658e-14
4.809947585e-14
4.777553183e-14
4.737248577e-14
4.691474533e-14
4.643279573e-14
4.596577071e-14
4.556637303e-14
4.530986777e-14
4.764397413e-14
4.742167988e-14
4.710165957e-14
4.670360929e-14
4.625173306e-14
4.577622941e-14
4.531579996e-14
4.492242758e-14
4.467009868e-14
4.695685502e-14
4.673675281e-14
4.64199375e-14
4.60259833e-14
4.557893776e-14
4.510878439e-14
4.465389107e-14
4.426565269e-14
4.401694841e-14
4.625904729e-14
4.604050745e-14
4.572598488e-14
4.533497511e-14
4.489142907e-14
4.442520382e-14
4.397445778e-14
4.359016987e-14
4.334434526e-14
4.554572956e-14
4.532797183e-14
4.501460492e-14
4.462509358e-14
4.418336765e-14
4.37192655e-14
4.327088994e-14
4.288902256e-14
4.264510164e-14
4.48112908e-14
4.459336426e-14
4.427975581e-14
4.388996308e-14
4.344798388e-14
4.298376632e-14
4.253554405e-14
4.215417228e-14
4.191091378e-14
4.404932825e-14
4.383008714e-14
4.351455529e-14
4.312233733e-14
4.267760261e-14
4.221055945e-14
4.175979352e-14
4.137656073e-14
4.113243192e-14
4.325267124e-14
4.303076628e-14
4.271133162e-14
4.231416514e-14
4.186372683e-14
4.13906582e-14
4.093415355e-14
4.054625425e-14
4.029941814e-14
4.241346577e-14
4.218734592e-14
4.186173443e-14
4.14567212e-14
4.099719241e-14
4.051441891e-14
4.004849461e-14
3.965268539e-14
3.940100728e-14
4.152332001e-14
4.129124707e-14
4.095691269e-14
4.054081097e-14
4.006840609e-14
3.957181588e-14
3.909235544e-14
3.868500251e-14
3.842608231e-14
4.057351859e-14
4.033359773e-14
3.998776929e-14
3.955705724e-14
3.906767131e-14
3.855281255e-14
3.80553628e-14
3.763253373e-14
3.73637692e-14
3.955531009e-14
3.930553925e-14
3.894529568e-14
3.84962722e-14
3.798560572e-14
3.744783072e-14
3.692775485e-14
3.648536137e-14
3.620404695e-14
3.846026905e-14
3.819860908e-14
3.782098576e-14