/*--------------------------------*- C++ -*----------------------------------*\
| =========                 |                                                 |
| \\      /  F ield         | OpenFOAM: The Open Source CFD Toolbox           |
|  \\    /   O peration     | Version:  2212                                  |
|   \\  /    A nd           | Website:  www.openfoam.com                      |
|    \\/     M anipulation  |                                                 |
\*---------------------------------------------------------------------------*/
FoamFile
{
    version     2.0;
    format      ascii;
    arch        "LSB;label=32;scalar=64";
    class       volScalarField;
    location    "19.75000000";
    object      CH3COCH2;
}
// * * * * * * * * * * * * * * * * * * * * * * * * * * * * * * * * * * * * * //

dimensions      [0 0 0 0 0 0 0];

internalField   nonuniform List<scalar> 
3000
(
6.584024483e-24
7.396151242e-24
8.621635686e-24
1.025468884e-23
1.227870723e-23
1.463872753e-23
1.719257236e-23
1.962942589e-23
2.13525895e-23
2.471879735e-23
2.787974455e-23
3.26475029e-23
3.901501282e-23
4.697593784e-23
5.648614369e-23
6.73805728e-23
7.910930512e-23
8.949913758e-23
5.536651175e-23
6.29365947e-23
7.446375857e-23
9.011483245e-23
1.101711881e-22
1.349237234e-22
1.642750316e-22
1.96577295e-22
2.241848996e-22
1.054526096e-22
1.21125958e-22
1.453419782e-22
1.789196943e-22
2.230483242e-22
2.788488451e-22
3.460165578e-22
4.191743371e-22
4.782227631e-22
1.872418473e-22
2.177097445e-22
2.655248223e-22
3.331149017e-22
4.236578754e-22
5.396902602e-22
6.79272759e-22
8.275009567e-22
9.412844798e-22
3.219446305e-22
3.791219842e-22
4.701399065e-22
6.008044707e-22
7.780826824e-22
1.006431952e-21
1.27902947e-21
1.561497417e-21
1.77047041e-21
5.464822068e-22
6.514969745e-22
8.206128866e-22
1.066135128e-21
1.401729033e-21
1.834059087e-21
2.345238109e-21
2.864588986e-21
3.239322227e-21
9.247064595e-22
1.11472977e-21
1.423466554e-21
1.875160925e-21
2.494993645e-21
3.291876137e-21
4.225818357e-21
5.160877354e-21
5.824308681e-21
1.567237844e-21
1.907450266e-21
2.463782428e-21
3.2818475e-21
4.406431608e-21
5.848323281e-21
7.526052544e-21
9.188319412e-21
1.03546978e-20
2.66560302e-21
3.269923554e-21
4.262672206e-21
5.727207884e-21
7.74174775e-21
1.031795761e-20
1.329895788e-20
1.623085458e-20
1.827283812e-20
4.551651957e-21
5.618825024e-21
7.377523852e-21
9.977315721e-21
1.355364672e-20
1.811693235e-20
2.337554876e-20
2.852111435e-20
3.208693548e-20
7.800528966e-21
9.676803526e-21
1.277574316e-20
1.736264985e-20
2.367136906e-20
3.170691959e-20
4.09391836e-20
4.994063874e-20
5.615708924e-20
1.340945535e-20
1.669754268e-20
2.213663795e-20
3.019396007e-20
4.127308615e-20
5.536581321e-20
7.152232876e-20
8.723525555e-20
9.806070714e-20
2.310792111e-20
2.885625612e-20
3.837526538e-20
5.248401542e-20
7.187949165e-20
9.6525784e-20
1.247371752e-19
1.52124739e-19
1.709612837e-19
3.989592935e-20
4.992736156e-20
6.655157642e-20
9.12001576e-20
1.25077904e-19
1.680947094e-19
2.172777503e-19
2.649625286e-19
2.977184119e-19
6.89778595e-20
8.64602825e-20
1.154478963e-19
1.584377361e-19
2.175140679e-19
2.924846476e-19
3.78129616e-19
4.610862158e-19
5.180182112e-19
1.193829512e-19
1.498199127e-19
2.003066271e-19
2.751922234e-19
3.78084632e-19
5.086034426e-19
6.576114679e-19
8.018379972e-19
9.007493584e-19
2.067779496e-19
2.597285045e-19
3.475828671e-19
4.779081213e-19
6.569525639e-19
8.83994116e-19
1.143072774e-18
1.393699093e-18
1.565490809e-18
3.583500465e-19
4.5041519e-19
6.031966874e-19
8.298507696e-19
1.141202042e-18
1.535914137e-18
1.986152068e-18
2.421515041e-18
2.719811976e-18
6.212847127e-19
7.812933164e-19
1.046861555e-18
1.440850172e-18
1.982015512e-18
2.667923501e-18
3.450082977e-18
4.206139969e-18
4.723992533e-18
1.077484679e-18
1.355498394e-18
1.816960065e-18
2.50157385e-18
3.441839317e-18
4.633364534e-18
5.991740375e-18
7.304406051e-18
8.203305278e-18
1.8691214e-18
2.35206894e-18
3.153723411e-18
4.343007024e-18
5.976214556e-18
8.045452752e-18
1.040386565e-17
1.268231865e-17
1.424224654e-17
3.242982497e-18
4.081799635e-18
5.474166121e-18
7.539652213e-18
1.037570407e-17
1.396812479e-17
1.806147292e-17
2.201490819e-17
2.472090047e-17
5.627405304e-18
7.08412567e-18
9.502041779e-18
1.308844408e-17
1.801184839e-17
2.424661977e-17
3.134845357e-17
3.820519367e-17
4.289693672e-17
9.765697223e-18
1.229513806e-17
1.649316705e-17
2.271882383e-17
3.12631079e-17
4.207939976e-17
5.439480339e-17
6.628001041e-17
7.440924987e-17
1.694731344e-17
2.133867008e-17
2.86256614e-17
3.942942006e-17
5.425141167e-17
7.300599493e-17
9.434837792e-17
1.149335094e-16
1.290058553e-16
2.940791231e-17
3.702990349e-17
4.967474954e-17
6.841532043e-17
9.411337037e-17
1.266095663e-16
1.635632119e-16
1.991787163e-16
2.235086834e-16
5.102063237e-17
6.424530781e-17
8.617766016e-17
1.186670534e-16
1.631889385e-16
2.1944263e-16
2.83352102e-16
3.44885392e-16
3.868802183e-16
8.848811141e-17
1.114220023e-16
1.494394975e-16
2.057200013e-16
2.827775508e-16
3.800362577e-16
4.903946804e-16
5.965095528e-16
6.688380395e-16
1.533927086e-16
1.931347615e-16
2.589764919e-16
3.563652734e-16
4.895581988e-16
6.574367697e-16
8.476229359e-16
1.030183374e-15
1.154411577e-15
2.657115815e-16
3.345098043e-16
4.484036647e-16
6.166858962e-16
8.465080423e-16
1.135671765e-15
1.462595684e-15
1.775729345e-15
1.988359624e-15
4.598201052e-16
5.787526904e-16
7.754546843e-16
1.06569245e-15
1.461359664e-15
1.958097797e-15
2.518281478e-15
3.053381853e-15
3.415778738e-15
7.946982678e-16
9.999227145e-16
1.338937595e-15
1.838312333e-15
2.517578783e-15
3.36805369e-15
4.324179921e-15
5.234469759e-15
5.848981758e-15
1.371189168e-15
1.724481322e-15
2.307236037e-15
3.163858721e-15
4.325921849e-15
5.77611592e-15
7.400375428e-15
8.940640303e-15
9.976447441e-15
2.360998722e-15
2.967387871e-15
3.965844131e-15
5.429842773e-15
7.409422198e-15
9.870202912e-15
1.261420182e-14
1.520422176e-14
1.693820824e-14
4.055067088e-15
5.09207357e-15
6.795929573e-15
9.286766125e-15
1.264194974e-14
1.67937206e-14
2.13997258e-14
2.572414157e-14
2.860461859e-14
6.943562098e-15
8.709149977e-15
1.160282136e-14
1.581823912e-14
2.14713291e-14
2.843005456e-14
3.610553533e-14
4.32688586e-14
4.801353229e-14
1.184684329e-14
1.483708365e-14
1.972360471e-14
2.681352065e-14
3.627361348e-14
4.785035358e-14
6.053785562e-14
7.230171312e-14
8.004632812e-14
2.01273557e-14
2.516037473e-14
3.3357806e-14
4.5197532e-14
6.090669047e-14
8.000697446e-14
1.007952178e-13
1.19936578e-13
1.324577981e-13
3.40277383e-14
4.243815404e-14
5.608546914e-14
7.569735154e-14
1.015594828e-13
1.327875203e-13
1.665281012e-13
1.973732191e-13
2.174194115e-13
5.720167335e-14
7.113943322e-14
9.366307408e-14
1.258536466e-13
1.680260992e-13
2.185815779e-13
2.727988163e-13
3.220085725e-13
3.537860918e-13
9.55321592e-14
1.184106726e-13
1.552184653e-13
2.075170503e-13
2.755661327e-13
3.565443409e-13
4.427500464e-13
5.204557455e-13
5.703351584e-13
1.583680284e-13
1.955163043e-13
2.549977564e-13
3.389949378e-13
4.475275868e-13
5.757430958e-13
7.112774504e-13
8.32676911e-13
9.10193752e-13
2.603569657e-13
3.199342001e-13
4.148459786e-13
5.480202694e-13
7.188788062e-13
9.192901365e-13
1.12975318e-12
1.317218787e-12
1.436404947e-12
4.241246203e-13
5.183461604e-13
6.676334269e-13
8.756914227e-13
1.14068073e-12
1.449303617e-12
1.77137757e-12
2.056827141e-12
2.237677283e-12
6.841820649e-13
8.30877433e-13
1.061908637e-12
1.38150362e-12
1.785310076e-12
2.251972696e-12
2.735628969e-12
3.161907722e-12
3.430936963e-12
1.09272152e-12
1.317205642e-12
1.668278887e-12
2.149677372e-12
2.752004618e-12
3.441094686e-12
4.148192247e-12
4.765523817e-12
5.151897284e-12
1.728511572e-12
2.065734515e-12
2.588591972e-12
3.297452654e-12
4.172375891e-12
5.157556137e-12
6.149918016e-12
6.997756037e-12
7.51578812e-12
2.710985185e-12
3.207977072e-12
3.970018392e-12
4.987064945e-12
6.216410562e-12
7.56250019e-12
8.867315473e-12
9.924071855e-12
1.052477001e-11
4.222394472e-12
4.941027538e-12
6.026801469e-12
7.443773792e-12
9.100477448e-12
1.082451676e-11
1.236448059e-11
1.344997889e-11
1.392912307e-11
6.53974104e-12
7.559043198e-12
9.069224541e-12
1.097765998e-11
1.309404548e-11
1.5101906e-11
1.659749509e-11
1.726073527e-11
1.717376621e-11
1.007052596e-11
1.148417057e-11
1.352422589e-11
1.598579207e-11
1.849638495e-11
2.050201452e-11
2.140597972e-11
2.094494455e-11
1.972033522e-11
1.536451532e-11
1.725995631e-11
1.989615247e-11
2.286569803e-11
2.55035873e-11
2.695397285e-11
2.652999204e-11
2.433413215e-11
2.172265573e-11
2.303019694e-11
2.542319898e-11
2.856953706e-11
3.173830843e-11
3.389022956e-11
3.397567566e-11
3.162212753e-11
2.769670295e-11
2.410164477e-11
3.3441979e-11
3.614635977e-11
3.937700933e-11
4.199138539e-11
4.268066735e-11
4.065822054e-11
3.641299483e-11
3.148148572e-11
2.75869029e-11
4.617127681e-11
4.86621533e-11
5.110217507e-11
5.206433392e-11
5.044608907e-11
4.633020197e-11
4.100786066e-11
3.586853665e-11
3.202470029e-11
5.944887596e-11
6.095627572e-11
6.164239819e-11
6.027673087e-11
5.653531576e-11
5.129001219e-11
4.572680589e-11
4.055083441e-11
3.656876706e-11
7.069337943e-11
7.078674296e-11
6.958351586e-11
6.64905325e-11
6.182168011e-11
5.636857062e-11
5.064449723e-11
4.495360413e-11
4.037462438e-11
7.879216248e-11
7.794614594e-11
7.584661194e-11
7.231439348e-11
6.759863399e-11
6.194861226e-11
5.54698154e-11
4.866521384e-11
4.323093605e-11
8.563447229e-11
8.468866589e-11
8.263212956e-11
7.919157455e-11
7.423341924e-11
6.767940775e-11
5.98062736e-11
5.170404899e-11
4.552547137e-11
9.387862746e-11
9.305230493e-11
9.098486114e-11
8.711380131e-11
8.107217312e-11
7.294289547e-11
6.355857126e-11
5.444506513e-11
4.780223844e-11
1.041419691e-10
1.029816859e-10
1.001622282e-10
9.498791133e-11
8.72539114e-11
7.752879143e-11
6.70507122e-11
5.73683608e-11
5.050256913e-11
1.14936931e-10
1.128597403e-10
1.086514807e-10
1.018191152e-10
9.256493034e-11
8.180310299e-11
7.0796392e-11
6.0897646e-11
5.39515198e-11
1.243098966e-10
1.211596932e-10
1.156271084e-10
1.075791528e-10
9.751112891e-11
8.638140974e-11
7.528507891e-11
6.5380218e-11
5.841742051e-11
1.315615573e-10
1.277128925e-10
1.21487268e-10
1.130060565e-10
1.02841922e-10
9.184433202e-11
8.09279887e-11
7.112455827e-11
6.416486676e-11
1.37456543e-10
1.334567394e-10
1.272268764e-10
1.189737e-10
1.092190356e-10
9.866473533e-11
8.808541348e-11
7.844104885e-11
7.148704058e-11
1.432334346e-10
1.395133768e-10
1.33771698e-10
1.261823745e-10
1.171505919e-10
1.072379948e-10
9.710630617e-11
8.766803775e-11
8.07236185e-11
1.498987853e-10
1.467328044e-10
1.417848401e-10
1.351303033e-10
1.27036992e-10
1.179260003e-10
1.083526747e-10
9.918392704e-11
9.22673685e-11
1.581077801e-10
1.55662877e-10
1.517080387e-10
1.461894013e-10
1.392226004e-10
1.310818146e-10
1.222073854e-10
1.134060202e-10
1.065594276e-10
1.682560612e-10
1.666551899e-10
1.638557451e-10
1.596599033e-10
1.540209639e-10
1.470544084e-10
1.390663281e-10
1.307759013e-10
1.24071843e-10
1.805986193e-10
1.799526184e-10
1.784677292e-10
1.757953761e-10
1.71717936e-10
1.661765136e-10
1.593161731e-10
1.517309434e-10
1.452760948e-10
1.95309338e-10
1.957310229e-10
1.95730275e-10
1.948048126e-10
1.925581577e-10
1.887389481e-10
1.832993591e-10
1.766626147e-10
1.705978216e-10
2.125063409e-10
2.141130739e-10
2.157765342e-10
2.168398088e-10
2.16720287e-10
2.149551993e-10
2.112694102e-10
2.05864512e-10
2.003606596e-10
2.322567338e-10
2.351657104e-10
2.386749957e-10
2.419734826e-10
2.442863106e-10
2.449213019e-10
2.433419825e-10
2.39476082e-10
2.347255162e-10
2.545705248e-10
2.588894452e-10
2.644128012e-10
2.701770159e-10
2.75210847e-10
2.785776833e-10
2.794494664e-10
2.774309823e-10
2.736349237e-10
2.793902155e-10
2.852053894e-10
2.928794154e-10
3.012995248e-10
3.092969696e-10
3.15680822e-10
3.193085272e-10
3.19420897e-10
3.167742773e-10
3.065807482e-10
3.139446189e-10
3.238554655e-10
3.350566606e-10
3.461849595e-10
3.557924561e-10
3.624097869e-10
3.648852917e-10
3.635611878e-10
3.359234691e-10
3.44843606e-10
3.570106858e-10
3.710323072e-10
3.853590597e-10
3.982925843e-10
4.080379714e-10
4.130390865e-10
4.131771186e-10
3.671168129e-10
3.775483101e-10
3.919134072e-10
4.086956245e-10
4.261743454e-10
4.424187307e-10
4.553272041e-10
4.629480526e-10
4.646847412e-10
3.997852109e-10
4.116280467e-10
4.280521159e-10
4.474332287e-10
4.67902614e-10
4.873300294e-10
5.033483702e-10
5.136734552e-10
5.172270394e-10
4.334963854e-10
4.465988225e-10
4.648680946e-10
4.865955317e-10
5.097954465e-10
5.321897043e-10
5.512308754e-10
5.643291846e-10
5.695878567e-10
4.677864241e-10
4.819557765e-10
5.017975467e-10
5.255496747e-10
5.511665236e-10
5.763063961e-10
5.982436054e-10
6.137763041e-10
6.206057235e-10
5.021929034e-10
5.172080806e-10
5.383234345e-10
5.637738825e-10
5.915405437e-10
6.191260888e-10
6.434151046e-10
6.610219692e-10
6.692577132e-10
5.363068171e-10
5.519610459e-10
5.740812936e-10
6.010079018e-10
6.304805802e-10
6.59854334e-10
6.859597159e-10
7.052562546e-10
7.147051238e-10
5.699287086e-10
5.861109706e-10
6.0900894e-10
6.368203591e-10
6.673338468e-10
6.978869941e-10
7.252793696e-10
7.458640808e-10
7.56310038e-10
6.029669437e-10
6.193194143e-10
6.424806146e-10
6.706411163e-10
7.016215688e-10
7.327873117e-10
7.609511225e-10
7.824171381e-10
7.936295308e-10
6.347757697e-10
6.510137649e-10
6.740376219e-10
7.020772001e-10
7.330089324e-10
7.642614525e-10
7.927050781e-10
8.146526343e-10
8.263951136e-10
6.649097279e-10
6.807949832e-10
7.033431206e-10
7.308493422e-10
7.61270925e-10
7.921309227e-10
8.20397375e-10
8.424455894e-10
8.544847703e-10
6.930291923e-10
7.083601958e-10
7.301438776e-10
7.56759375e-10
7.86265916e-10
8.163071812e-10
8.439834303e-10
8.657803583e-10
8.778935502e-10
7.188618833e-10
7.334707139e-10
7.54247831e-10
7.796703559e-10
8.079161883e-10
8.367706747e-10
8.634945803e-10
8.84724986e-10
8.967065686e-10
7.421872119e-10
7.559381273e-10
7.755119816e-10
7.994943016e-10
8.261942392e-10
8.535548118e-10
8.790193536e-10
8.994100098e-10
9.110762382e-10
7.628305002e-10
7.756185498e-10
7.938362785e-10
8.161848911e-10
8.411135937e-10
8.667343831e-10
8.906892885e-10
9.100118732e-10
9.212040687e-10
7.806614009e-10
7.924105685e-10
8.091607159e-10
8.297332275e-10
8.527227844e-10
8.764174159e-10
8.98668493e-10
9.16740314e-10
9.27326525e-10
7.955936815e-10
8.062545266e-10
8.214638074e-10
8.401651731e-10
8.611012317e-10
8.827393335e-10
9.031459199e-10
9.198288042e-10
9.297041163e-10
8.075848621e-10
8.171317807e-10
8.307612444e-10
8.475391781e-10
8.663560118e-10
8.858584498e-10
9.043294301e-10
9.195271656e-10
9.286128987e-10
8.166349415e-10
8.250632058e-10
8.371040449e-10
8.519439228e-10
8.686188307e-10
8.859521087e-10
9.024409491e-10
9.160956809e-10
9.243377358e-10
8.22783944e-10
8.301066711e-10
8.405758977e-10
8.534954503e-10
8.680428421e-10
8.832130652e-10
8.977122797e-10
9.098002401e-10
9.171668514e-10
8.261083424e-10
8.323535182e-10
8.412896993e-10
8.523337368e-10
8.647992008e-10
8.778459383e-10
8.903813397e-10
9.009082421e-10
9.073873725e-10
8.267166051e-10
8.319242601e-10
8.393834535e-10
8.486188167e-10
8.590734014e-10
8.700637131e-10
8.806887291e-10
8.896850957e-10
8.95281666e-10
8.247441942e-10
8.289637963e-10
8.350157896e-10
8.425266575e-10
8.510615315e-10
8.600843465e-10
8.688746099e-10
8.76391237e-10
8.811243468e-10
8.203483397e-10
8.236364441e-10
8.28361356e-10
8.342449935e-10
8.409665861e-10
8.481275587e-10
8.551759091e-10
8.612796125e-10
8.651798653e-10
8.137028706e-10
8.161210422e-10
8.196063131e-10
8.239692982e-10
8.28994975e-10
8.344118837e-10
8.398238627e-10
8.445935945e-10
8.477006044e-10
8.049933105e-10
8.066063198e-10
8.089440955e-10
8.118990323e-10
8.153533187e-10
8.191520344e-10
8.230419114e-10
8.265652958e-10
8.289254239e-10
7.944123797e-10
7.952866599e-10
7.965715522e-10
7.982342569e-10
8.002455986e-10
8.025566136e-10
8.050439461e-10
8.074142528e-10
8.09078598e-10
7.82155983e-10
7.823583307e-10
7.826855318e-10
7.831726598e-10
7.8387069e-10
7.848261838e-10
7.860328942e-10
7.873464431e-10
7.883690952e-10
7.684197175e-10
7.680162153e-10
7.674799343e-10
7.66907015e-10
7.664202887e-10
7.661516909e-10
7.661996284e-10
7.66553607e-10
7.669901571e-10
7.533959022e-10
7.524510413e-10
7.51143232e-10
7.4962307e-10
7.480772223e-10
7.467132279e-10
7.457221751e-10
7.452128393e-10
7.451191347e-10
7.37271111e-10
7.358470907e-10
7.338564383e-10
7.314978431e-10
7.29014126e-10
7.26679118e-10
7.247651991e-10
7.234864226e-10
7.229175485e-10
7.202241765e-10
7.183803623e-10
7.157914993e-10
7.126983037e-10
7.09392458e-10
7.062052896e-10
7.034797348e-10
7.015218725e-10
7.005313399e-10
7.024246293e-10
7.002171476e-10
6.971100713e-10
6.933804041e-10
6.893618244e-10
6.854349163e-10
6.820031408e-10
6.794521685e-10
6.780912857e-10
6.840315303e-10
6.81512984e-10
6.779626477e-10
6.736884268e-10
6.690595815e-10
6.644982932e-10
6.604592478e-10
6.573961418e-10
6.55713547e-10
6.651926543e-10
6.624119423e-10
6.58487999e-10
6.537546144e-10
6.486106835e-10
6.435129185e-10
6.389586722e-10
6.354589961e-10
6.335003299e-10
6.46043987e-10
6.430462131e-10
6.388128869e-10
6.336990449e-10
6.281277432e-10
6.225837508e-10
6.175992707e-10
6.137329368e-10
6.115406325e-10
6.267094911e-10
6.235359478e-10
6.190520144e-10
6.136297173e-10
6.077112711e-10
6.018036141e-10
5.964667078e-10
5.922978837e-10
5.899110584e-10
6.073011057e-10
6.039893208e-10
5.993081776e-10
5.936428143e-10
5.874500658e-10
5.812537217e-10
5.756351134e-10
5.712222476e-10
5.68676674e-10
5.8791894e-10
5.845027741e-10
5.796725832e-10
5.738231103e-10
5.674217229e-10
5.610042929e-10
5.551678054e-10
5.505637483e-10
5.478918933e-10
5.686516277e-10
5.651614121e-10
5.602253011e-10
5.542444944e-10
5.476932376e-10
5.411152387e-10
5.351180578e-10
5.303702563e-10
5.276013706e-10
5.495768091e-10
5.460395144e-10
5.410358207e-10
5.349705801e-10
5.283216738e-10
5.216368934e-10
5.155298938e-10
5.106806415e-10
5.078408893e-10
5.307617105e-10
5.272011385e-10
5.221636853e-10
5.160553775e-10
5.093548783e-10
5.026107726e-10
4.964388871e-10
4.915256142e-10
4.886382318e-10
5.122637948e-10
5.087007849e-10
5.03659178e-10
4.975440051e-10
4.908322203e-10
4.840703407e-10
4.778729573e-10
4.729285465e-10
4.700140203e-10
4.941314594e-10
4.905841036e-10
4.855640408e-10
4.794734216e-10
4.727853375e-10
4.660417723e-10
4.598531466e-10
4.549062642e-10
4.51982521e-10
4.764047588e-10
4.728886208e-10
4.67912205e-10
4.618731618e-10
4.552388765e-10
4.485446965e-10
4.423943685e-10
4.37469801e-10
4.345524044e-10
4.591161369e-10
4.556444698e-10
4.5073052e-10
4.447660618e-10
4.382112138e-10
4.315929132e-10
4.255061202e-10
4.206251088e-10
4.177274569e-10
4.422911521e-10
4.388751112e-10
4.340394674e-10
4.281689636e-10
4.217151493e-10
4.151950749e-10
4.091931536e-10
4.043737216e-10
4.015072411e-10
4.259491838e-10
4.225980327e-10
4.178538487e-10
4.120933894e-10
4.057585642e-10
3.99355328e-10
3.934561007e-10
3.887133688e-10
3.858877032e-10
4.101041121e-10
4.068254184e-10
4.021834415e-10
3.965461796e-10
3.903450395e-10
3.840739098e-10
3.782920517e-10
3.736385373e-10
3.708617273e-10
3.947649617e-10
3.915647822e-10
3.870336165e-10
3.815300906e-10
3.754744306e-10
3.693477e-10
3.636950837e-10
3.591409835e-10
3.564196372e-10
3.799365066e-10
3.768195608e-10
3.724059131e-10
3.670443479e-10
3.611433966e-10
3.551707247e-10
3.496567418e-10
3.452101949e-10
3.425496471e-10
3.656198326e-10
3.625896623e-10
3.582985704e-10
3.530851554e-10
3.473458842e-10
3.415346144e-10
3.361664723e-10
3.31833804e-10
3.292382639e-10
3.51812854e-10
3.488719714e-10
3.447070135e-10
3.396461592e-10
3.340735659e-10
3.284290162e-10
3.232120107e-10
3.189979562e-10
3.164706439e-10
3.385107865e-10
3.356608094e-10
3.316242953e-10
3.267188664e-10
3.213162343e-10
3.158419624e-10
3.107797264e-10
3.066876349e-10
3.042309058e-10
3.257065756e-10
3.229483491e-10
3.190414946e-10
3.142930219e-10
3.090621548e-10
3.037601979e-10
2.988549264e-10
2.948869467e-10
2.92502405e-10
3.133912814e-10
3.107249892e-10
3.069480722e-10
3.023569438e-10
2.972983774e-10
2.92169469e-10
2.874221221e-10
2.835793695e-10
2.812679703e-10
3.01554423e-10
2.989796862e-10
2.953321879e-10
2.908978206e-10
2.860110118e-10
2.810547757e-10
2.764652606e-10
2.727479672e-10
2.705101088e-10
2.901842835e-10
2.877002497e-10
2.841809799e-10
2.799019717e-10
2.751854685e-10
2.704005916e-10
2.65967925e-10
2.623755733e-10
2.602111797e-10
2.792681797e-10
2.768736012e-10
2.734808098e-10
2.693550761e-10
2.648066673e-10
2.601910532e-10
2.559135057e-10
2.524449478e-10
2.503535417e-10
2.687926971e-10
2.664860009e-10
2.632174765e-10
2.592423698e-10
2.548592178e-10
2.504101227e-10
2.462853458e-10
2.429389087e-10
2.409196768e-10
2.587438956e-10
2.565232443e-10
2.533764008e-10
2.495488159e-10
2.453275734e-10
2.410417251e-10
2.370668635e-10
2.33840442e-10
2.318922924e-10
2.491074856e-10
2.469708313e-10
2.439427842e-10
2.402592509e-10
2.361961627e-10
2.320698652e-10
2.282416549e-10
2.251327928e-10
2.232544054e-10
2.398689793e-10
2.378141104e-10
2.349017423e-10
2.31358506e-10
2.274494985e-10
2.234787229e-10
2.19793577e-10
2.167995383e-10
2.149894089e-10
2.310138207e-10
2.290384018e-10
2.262384201e-10
2.228315109e-10
2.190722687e-10
2.152527327e-10
2.117068157e-10
2.088246463e-10
2.070811254e-10
2.225274936e-10
2.206291011e-10
2.179380873e-10
2.146633804e-10
2.110494132e-10
2.073766482e-10
2.039659404e-10
2.011925216e-10
1.995138476e-10
2.143956138e-10
2.125717653e-10
2.099862171e-10
2.068394843e-10
2.033661834e-10
1.998355939e-10
1.96555946e-10
1.938880407e-10
1.922723685e-10
2.066040027e-10
2.048521828e-10
2.023685508e-10
1.993455042e-10
1.960081916e-10
1.926151042e-10
1.89462285e-10
1.868965766e-10
1.853420029e-10
1.991387484e-10
1.974564306e-10
1.950711484e-10
1.921674783e-10
1.889614475e-10
1.857011541e-10
1.826708903e-10
1.802040168e-10
1.787086007e-10
1.919862544e-10
1.903709187e-10
1.880804295e-10
1.852918355e-10
1.822123872e-10
1.790801802e-10
1.761681903e-10
1.737967727e-10
1.723585541e-10
1.851332866e-10
1.83582427e-10
1.813832042e-10
1.787054221e-10
1.757478929e-10
1.727390955e-10
1.699411184e-10
1.676617844e-10
1.662787994e-10
1.785669997e-10
1.770781339e-10
1.749666973e-10
1.723955202e-10
1.695553066e-10
1.666652977e-10
1.639771163e-10
1.617865206e-10
1.604568137e-10
1.722749224e-10
1.708456488e-10
1.688185671e-10
1.66349861e-10
1.636224391e-10
1.60846673e-10
1.582641335e-10
1.561589738e-10
1.548806091e-10
1.662449996e-10
1.648729752e-10
1.629269102e-10
1.605566321e-10
1.579375726e-10
1.552715953e-10
1.527906226e-10
1.507676534e-10
1.495387228e-10
1.604656556e-10
1.591485849e-10
1.572802827e-10
1.550044821e-10
1.524894611e-10
1.499289224e-10
1.475455321e-10
1.456015751e-10
1.444202055e-10
1.549257421e-10
1.536613763e-10
1.518676855e-10
1.496825165e-10
1.472673246e-10
1.448079879e-10
1.425182962e-10
1.406502488e-10
1.395146078e-10
1.49614549e-10
1.484007076e-10
1.46678556e-10
1.445802905e-10
1.422608418e-10
1.398985918e-10
1.37698823e-10
1.359036648e-10
1.348119653e-10
1.445217978e-10
1.433563699e-10
1.417027803e-10
1.396878063e-10
1.374601419e-10
1.351909898e-10
1.330774813e-10
1.313522792e-10
1.303027825e-10
1.396376343e-10
1.385185776e-10
1.369306621e-10
1.349954983e-10
1.32855792e-10
1.306758794e-10
1.286450858e-10
1.269869974e-10
1.259780159e-10
1.349526229e-10
1.338779689e-10
1.323529462e-10
1.304942285e-10
1.284387857e-10
1.263443864e-10
1.243928821e-10
1.227991582e-10
1.218290571e-10
1.304577374e-10
1.29425591e-10
1.279607844e-10
1.261752777e-10
1.242005299e-10
1.221880506e-10
1.203125307e-10
1.187805166e-10
1.178477153e-10
1.261443501e-10
1.251528886e-10
1.237457218e-10
1.220303018e-10
1.201328269e-10
1.1819881e-10
1.163960912e-10
1.149232275e-10
1.140261999e-10
1.220042212e-10
1.210516941e-10
1.19699692e-10
1.180513601e-10
1.162278658e-10
1.143689867e-10
1.126360062e-10
1.112198285e-10
1.103571036e-10
1.180294871e-10
1.171142144e-10
1.158150023e-10
1.142308806e-10
1.124782053e-10
1.106912707e-10
1.090250856e-10
1.076632235e-10
1.068333845e-10
1.142126475e-10
1.133330192e-10
1.120843203e-10
1.105616484e-10
1.088767603e-10
1.071587057e-10
1.055564901e-10
1.04246666e-10
1.034483506e-10
1.105465523e-10
1.097010265e-10
1.085006608e-10
1.07036797e-10
1.054167865e-10
1.037646731e-10
1.022237159e-10
1.009637436e-10
1.001956422e-10
1.070243879e-10
1.062114884e-10
1.050573671e-10
1.036497747e-10
1.02091863e-10
1.005028766e-10
9.902057948e-11
9.780836154e-11
9.706921712e-11
1.036396637e-10
1.028579785e-10
1.017481039e-10
1.003943588e-10
9.889588271e-11
9.736732817e-11
9.594120196e-11
9.477472812e-11
9.406333447e-11
1.003861987e-10
9.963437792e-11
9.856684017e-11
9.72646245e-11
9.58230356e-11
9.435233368e-11
9.297999526e-11
9.185733969e-11
9.117254034e-11
9.725810795e-11
9.653486153e-11
9.550783531e-11
9.425493351e-11
9.286779505e-11
9.145247873e-11
9.013164774e-11
8.905096655e-11
8.839165333e-11
9.424978954e-11
9.355388524e-11
9.256562669e-11
9.135992172e-11
9.002490473e-11
8.866261542e-11
8.739111081e-11
8.635063941e-11
8.571575098e-11
9.135591201e-11
9.068617309e-11
8.97350168e-11
8.857448649e-11
8.728936579e-11
8.597784943e-11
8.475358599e-11
8.37516364e-11
8.314015673e-11
8.857140189e-11
8.792670495e-11
8.701106085e-11
8.589377425e-11
8.465642459e-11
8.339352771e-11
8.22145125e-11
8.124947057e-11
8.066042738e-11
8.589143159e-11
8.527070447e-11
8.438905486e-11
8.331316862e-11
8.212156069e-11
8.090522652e-11
7.976955538e-11
7.883987811e-11
7.827234132e-11
8.331140785e-11
8.271362751e-11
8.18645241e-11
8.082827891e-11
7.968047553e-11
7.850874015e-11
7.741459424e-11
7.651880705e-11
7.597188723e-11
8.082696045e-11
8.025115093e-11
7.943321194e-11
7.843492907e-11
7.73290814e-11
7.620007003e-11
7.514571245e-11
7.428240653e-11
7.375525342e-11
7.843393141e-11
7.787916183e-11
7.709106922e-11
7.612914716e-11
7.506349108e-11
7.397541442e-11
7.295918694e-11
7.212701672e-11
7.161881773e-11
7.612836453e-11
7.55937472e-11
7.483424395e-11
7.390715519e-11
7.28800078e-11
7.183115856e-11
7.085147851e-11
7.00491592e-11
6.955913801e-11
7.390649533e-11
7.33911839e-11
7.265907149e-11
7.176535941e-11
7.077511568e-11
6.976386528e-11
6.881922255e-11
6.804552782e-11
6.757294306e-11
7.176474131e-11
7.126792902e-11
7.056206492e-11
6.970034088e-11
6.874547049e-11
6.777026596e-11
6.68592202e-11
6.611298005e-11
6.565712408e-11
6.969969233e-11
6.922061037e-11
6.853990574e-11
6.770884629e-11
6.678789068e-11
6.584725168e-11
6.496842977e-11
6.42485285e-11
6.380872627e-11
6.77081012e-11
6.724601709e-11
6.65894346e-11
6.578777887e-11
6.48993484e-11
6.399186457e-11
6.314395816e-11
6.244933261e-11
6.202494073e-11
6.578687404e-11
6.534109017e-11
6.470764187e-11
6.393418908e-11
6.307696045e-11
6.220128882e-11
6.138305221e-11
6.071269016e-11
6.030309599e-11
6.393306045e-11
6.350291258e-11
6.289165787e-11
6.214526498e-11
6.131797868e-11
6.047284132e-11
5.968308942e-11
5.903602808e-11
5.864064903e-11
6.214384293e-11
6.172869878e-11
6.113874245e-11
6.041832173e-11
5.96197796e-11
5.880396128e-11
5.804156762e-11
5.741689233e-11
5.703517521e-11
6.041652547e-11
6.00157832e-11
5.944627328e-11
5.875078993e-11
5.797985259e-11
5.719219835e-11
5.645609311e-11
5.585293593e-11
5.548435627e-11
5.874852069e-11
5.836160726e-11
5.781173274e-11
5.714020206e-11
5.639578618e-11
5.563519865e-11
5.492436635e-11
5.434190445e-11
5.398596576e-11
5.713733517e-11
5.676370442e-11
5.623269246e-11
5.558417586e-11
5.486525169e-11
5.413068796e-11
5.344416464e-11
5.288161819e-11
5.253785085e-11
5.558055264e-11
5.521968325e-11
5.470679655e-11
5.408039991e-11
5.338598468e-11
5.267645159e-11
5.201332084e-11
5.146995001e-11
5.113790969e-11
5.407581437e-11
5.372720703e-11
5.323173975e-11
5.262660787e-11
5.195576107e-11
5.127030963e-11
5.062969735e-11
5.010479813e-11
4.978406327e-11
5.262079648e-11
5.228397034e-11
5.18052427e-11
5.122055178e-11
5.057236936e-11
4.991008765e-11
4.929115496e-11
4.87840531e-11
4.847422124e-11
5.121318424e-11
5.088767254e-11
5.042502458e-11
4.985997502e-11
4.92335794e-11
4.859358263e-11
4.799551614e-11
4.750555883e-11
4.720624129e-11
4.98506432e-11
4.953598799e-11
4.908877172e-11
4.854257742e-11
4.793710641e-11
4.731852405e-11
4.674052301e-11
4.626706764e-11
4.597788228e-11
4.853078692e-11
4.822653264e-11
4.779410283e-11
4.726598033e-11
4.668057099e-11
4.608253045e-11
4.552379046e-11
4.506619016e-11
4.478675184e-11
4.725114214e-11
4.695682772e-11
4.653853019e-11
4.602768413e-11
4.546145524e-11
4.488306254e-11
4.434275569e-11
4.390034146e-11
4.363025005e-11
4.600911209e-11
4.572426167e-11
4.531941886e-11
4.482502385e-11
4.427705785e-11
4.37173751e-11
4.319462643e-11
4.276668572e-11
4.250551158e-11
4.480193939e-11
4.452605281e-11
4.413395167e-11
4.365513171e-11
4.312445031e-11
4.258246959e-11
4.207633016e-11
4.166208218e-11
4.140934941e-11
4.362666964e-11
4.335921188e-11
4.297908869e-11
4.251489664e-11
4.200043547e-11
4.147505044e-11
4.098446766e-11
4.058303627e-11
4.033820402e-11
4.248011815e-11
4.222050788e-11
4.185153335e-11
4.140093031e-11
4.090151257e-11
4.039148838e-11
3.991527482e-11
3.952565978e-11
3.928810255e-11
4.135884864e-11
4.110645818e-11
4.074770759e-11
4.030954181e-11
3.982385141e-11
3.932779455e-11
3.886459663e-11
3.848564486e-11
3.825463265e-11
4.025916858e-11
4.001328888e-11
3.966373897e-11
3.923672342e-11
3.876327902e-11
3.827960877e-11
3.782787741e-11
3.745825624e-11
3.723293618e-11
3.917709897e-11
3.893694674e-11
3.859545669e-11
3.817814903e-11
3.771528157e-11
3.724220562e-11
3.680017154e-11
3.643834634e-11
3.62177274e-11
3.810839698e-11
3.78731017e-11
3.753840011e-11
3.712918817e-11
3.667502494e-11
3.621052221e-11
3.577617874e-11
3.54203977e-11
3.520334052e-11
3.70485687e-11
3.681716759e-11
3.648784625e-11
3.60849405e-11
3.563739678e-11
3.517921e-11
3.475030708e-11
3.439859646e-11
3.418381048e-11
3.599290393e-11
3.576434201e-11
3.543885658e-11
3.504029203e-11
3.459707486e-11
3.414271597e-11
3.371676721e-11
3.336694003e-11
3.31529905e-11
3.493653236e-11
3.470966795e-11
3.438634681e-11
3.39899958e-11
3.354862119e-11
3.309539308e-11
3.266970101e-11
3.231938213e-11
3.210470893e-11
3.387450119e-11
3.364811781e-11
3.332518074e-11
3.292877894e-11
3.248660554e-11
3.203164297e-11
3.160334486e-11
3.125001608e-11
3.103296662e-11
3.280187551e-11
3.257470132e-11
3.22502896e-11
3.18514773e-11