/*--------------------------------*- C++ -*----------------------------------*\
| =========                 |                                                 |
| \\      /  F ield         | OpenFOAM: The Open Source CFD Toolbox           |
|  \\    /   O peration     | Version:  2212                                  |
|   \\  /    A nd           | Website:  www.openfoam.com                      |
|    \\/     M anipulation  |                                                 |
\*---------------------------------------------------------------------------*/
FoamFile
{
    version     2.0;
    format      ascii;
    arch        "LSB;label=32;scalar=64";
    class       volScalarField;
    location    "19.75000000";
    object      H2;
}
// * * * * * * * * * * * * * * * * * * * * * * * * * * * * * * * * * * * * * //

dimensions      [0 0 0 0 0 0 0];

internalField   nonuniform List<scalar> 
3000
(
3.998371243e-22
4.491655226e-22
5.236016507e-22
6.227942918e-22
7.457352415e-22
8.890860762e-22
1.04421066e-21
1.192229376e-21
1.296897621e-21
1.501161712e-21
1.693161833e-21
1.982763932e-21
2.369541028e-21
2.8531095e-21
3.430788592e-21
4.092550647e-21
4.804988411e-21
5.436091758e-21
3.362501848e-21
3.822337369e-21
4.522546985e-21
5.473270027e-21
6.691602814e-21
8.195218103e-21
9.978197521e-21
1.194043719e-20
1.361748974e-20
6.404632157e-21
7.356742362e-21
8.827810445e-21
1.086760539e-20
1.354838542e-20
1.693826138e-20
2.101872961e-20
2.54631252e-20
2.905038022e-20
1.137279617e-20
1.322375675e-20
1.612861679e-20
2.023491095e-20
2.573574977e-20
3.278527954e-20
4.126571152e-20
5.027152559e-20
5.718466952e-20
1.955593643e-20
2.302980396e-20
2.855977598e-20
3.649870779e-20
4.727001408e-20
6.114463978e-20
7.770812012e-20
9.487162593e-20
1.075695532e-19
3.319798077e-20
3.957883356e-20
4.985475423e-20
6.477365139e-20
8.516614142e-20
1.114374617e-19
1.425008767e-19
1.740615118e-19
1.968341944e-19
5.618005809e-20
6.772730103e-20
8.648885058e-20
1.139384385e-19
1.516068495e-19
2.000362112e-19
2.567966204e-19
3.136261965e-19
3.539479512e-19
9.522687346e-20
1.159029398e-19
1.497142243e-19
1.994337759e-19
2.677846483e-19
3.554236737e-19
4.573998912e-19
5.584387841e-19
6.293371173e-19
1.619829548e-19
1.987140661e-19
2.590556179e-19
3.480760754e-19
4.705318878e-19
6.271343013e-19
8.083484713e-19
9.865823599e-19
1.110719877e-18
2.766268442e-19
3.414981416e-19
4.484086048e-19
6.064535753e-19
8.238709099e-19
1.101297732e-18
1.421007408e-18
1.733852487e-18
1.950655456e-18
4.741353483e-19
5.882040698e-19
7.76610065e-19
1.055488764e-18
1.439064802e-18
1.927650403e-18
2.489017658e-18
3.036365903e-18
3.414375678e-18
8.151611071e-19
1.015085985e-18
1.345807034e-18
1.835743782e-18
2.509448968e-18
3.36643628e-18
4.348955432e-18
5.304525665e-18
5.962882042e-18
1.404907717e-18
1.754465711e-18
2.333335275e-18
3.191344085e-18
4.370900862e-18
5.869843522e-18
7.585664247e-18
9.251426363e-18
1.03971246e-17
2.425885974e-18
3.035975909e-18
4.047052127e-18
5.546215444e-18
7.606782455e-18
1.022331056e-17
1.321500058e-17
1.611563597e-17
1.810819914e-17
4.194754016e-18
5.258128757e-18
7.021358981e-18
9.636388883e-18
1.323007032e-17
1.779077516e-17
2.300100591e-17
2.804783105e-17
3.151147479e-17
7.260962189e-18
9.11253157e-18
1.218386991e-17
1.673965423e-17
2.299949773e-17
3.094037297e-17
4.000644216e-17
4.878184057e-17
5.480019184e-17
1.257799165e-17
1.57995315e-17
2.11447839e-17
2.907432102e-17
3.996852403e-17
5.378366101e-17
6.954872408e-17
8.479989537e-17
9.525404121e-17
2.180067442e-17
2.740267137e-17
3.669940367e-17
5.049173037e-17
6.943871358e-17
9.345938678e-17
1.208600541e-16
1.473562244e-16
1.655109766e-16
3.78014718e-17
4.753893643e-17
6.370077024e-17
8.767875212e-17
1.206150204e-16
1.623620546e-16
2.099689039e-16
2.559883391e-16
2.87509553e-16
6.556694307e-17
8.248786058e-17
1.105748538e-16
1.522454472e-16
2.094789037e-16
2.820089672e-16
3.646982309e-16
4.446072778e-16
4.993294118e-16
1.137541913e-16
1.431518641e-16
1.919509953e-16
2.643486792e-16
3.637737681e-16
4.897476084e-16
6.333309411e-16
7.720502388e-16
8.670257255e-16
1.973926487e-16
2.484591168e-16
3.332274955e-16
4.589800602e-16
6.316528915e-16
8.503848313e-16
1.099624932e-15
1.340352839e-15
1.50512679e-15
3.425718522e-16
4.312671501e-16
5.784907021e-16
7.968688473e-16
1.09666826e-15
1.476333493e-15
1.908812382e-15
2.326377872e-15
2.612104899e-15
5.945725316e-16
7.486025455e-16
1.004247798e-15
1.383380593e-15
1.903731998e-15
2.562472338e-15
3.312536569e-15
4.036420539e-15
4.531554034e-15
1.031958155e-15
1.299404587e-15
1.743215057e-15
2.40123297e-15
3.304017145e-15
4.446367413e-15
5.746382733e-15
7.000307429e-15
7.857531725e-15
1.790966206e-15
2.255230297e-15
3.025461277e-15
4.16703329e-15
5.732467028e-15
7.71208354e-15
9.963309767e-15
1.213307605e-14
1.361533979e-14
3.107667319e-15
3.913309422e-15
5.249451117e-15
7.228794876e-15
9.941274124e-15
1.336861426e-14
1.726250822e-14
2.101172581e-14
2.357052554e-14
5.390690178e-15
6.788017734e-15
9.104415942e-15
1.253366396e-14
1.722901628e-14
2.315545317e-14
2.988030055e-14
3.63467247e-14
4.075437465e-14
9.346366666e-15
1.176816732e-14
1.578050191e-14
2.171541416e-14
2.983243689e-14
4.006351242e-14
5.165436092e-14
6.278071587e-14
7.03521095e-14
1.619343604e-14
2.038657514e-14
2.732830902e-14
3.758512758e-14
5.159304694e-14
6.9218212e-14
8.914530445e-14
1.082321948e-13
1.211932137e-13
2.803008758e-14
3.528022639e-14
4.727125327e-14
6.496435874e-14
8.908467414e-14
1.193666047e-13
1.535165806e-13
1.861378173e-13
2.082309243e-13
4.845881969e-14
6.097212839e-14
8.16429911e-14
1.120912367e-13
1.535075429e-13
2.053622988e-13
2.63658422e-13
3.191598695e-13
3.566277805e-13
8.364514285e-14
1.051926033e-13
1.40734147e-13
1.929768246e-13
2.638447069e-13
3.522808906e-13
4.513289134e-13
5.452530801e-13
6.084157368e-13
1.441017155e-13
1.810985988e-13
2.420127413e-13
3.31322443e-13
4.520749774e-13
6.021682717e-13
7.695241105e-13
9.274803584e-13
1.0332278e-12
2.476770305e-13
3.109759997e-13
4.149688216e-13
5.669741549e-13
7.716967819e-13
1.024986222e-12
1.305947782e-12
1.569703193e-12
1.745379112e-12
4.245290126e-13
5.323696497e-13
7.090820609e-13
9.664543332e-13
1.311515959e-12
1.736159842e-12
2.204423366e-12
2.641349015e-12
2.930712135e-12
7.253425229e-13
9.081503076e-13
1.206803578e-12
1.639966349e-12
2.21769366e-12
2.92436717e-12
3.698503703e-12
4.416010707e-12
4.888254354e-12
1.23480129e-12
1.542902135e-12
2.044497815e-12
2.768549011e-12
3.72858478e-12
4.895003405e-12
6.163562256e-12
7.330848942e-12
8.094061699e-12
2.093489793e-12
2.609350328e-12
3.445873486e-12
4.646945577e-12
6.229123437e-12
8.137320135e-12
1.019653229e-11
1.207690352e-11
1.329790572e-11
3.533181925e-12
4.390561533e-12
5.774776535e-12
7.750499991e-12
1.033470547e-11
1.342688651e-11
1.67365294e-11
1.973483272e-11
2.166808081e-11
5.933157458e-12
7.346640173e-12
9.61764285e-12
1.28383464e-11
1.701905755e-11
2.198016319e-11
2.724530872e-11
3.197678704e-11
3.500607801e-11
9.909170812e-12
1.221902434e-11
1.5910852e-11
2.111079127e-11
2.780699159e-11
3.568520166e-11
4.397451002e-11
5.136377254e-11
5.606191071e-11
1.645251746e-11
2.019181488e-11
2.613528114e-11
3.444675023e-11
4.506194213e-11
5.744258373e-11
7.035781294e-11
8.177991511e-11
8.899346664e-11
2.714502029e-11
3.313860212e-11
4.261033726e-11
5.575828185e-11
7.241076352e-11
9.166479743e-11
1.11581664e-10
1.290617874e-10
1.400307392e-10
4.448764272e-11
5.399598876e-11
6.893373369e-11
8.951486276e-11
1.153657654e-10
1.450017971e-10
1.754097759e-10
2.019041496e-10
2.184299738e-10
7.239708e-11
8.732277936e-11
1.106327317e-10
1.425116918e-10
1.822281964e-10
2.273875163e-10
2.73366328e-10
3.131554296e-10
3.378360974e-10
1.169477347e-10
1.401283804e-10
1.761194236e-10
2.249861411e-10
2.853907258e-10
3.535392331e-10
4.224236055e-10
4.816601529e-10
5.182175662e-10
1.874681148e-10
2.230876523e-10
2.780794247e-10
3.522272758e-10
4.432020182e-10
5.450923617e-10
6.473955416e-10
7.348655129e-10
7.88600283e-10
2.981437451e-10
3.5230531e-10
4.354733479e-10
5.468787168e-10
6.826181144e-10
8.336217263e-10
9.843139612e-10
1.112490784e-09
1.190912211e-09
4.703368021e-10
5.518548543e-10
6.763977684e-10
8.422093288e-10
1.042947475e-09
1.264891291e-09
1.485164445e-09
1.671666111e-09
1.785365355e-09
7.359104832e-10
8.574000112e-10
1.042142521e-09
1.286725192e-09
1.581104578e-09
1.904792492e-09
2.224489465e-09
2.494090433e-09
2.657951634e-09
1.141949056e-09
1.321317124e-09
1.592890847e-09
1.950599825e-09
2.378904878e-09
2.847577175e-09
3.308535486e-09
3.695947112e-09
3.930822835e-09
1.757276041e-09
2.019728898e-09
2.415550841e-09
2.93455609e-09
3.55315403e-09
4.227221845e-09
4.887843076e-09
5.441518023e-09
5.776533777e-09
2.681608205e-09
3.062383546e-09
3.634677369e-09
4.382092312e-09
5.269401391e-09
6.232828155e-09
7.174262373e-09
7.961561421e-09
8.437261855e-09
4.058112569e-09
4.606133063e-09
5.42730834e-09
6.49605723e-09
7.760528543e-09
9.129352999e-09
1.0463737e-08
1.157778564e-08
1.225028535e-08
6.090491294e-09
6.873217819e-09
8.043008935e-09
9.560924779e-09
1.135158775e-08
1.328513126e-08
1.516633498e-08
1.673485737e-08
1.768110252e-08
9.066011262e-09
1.017582897e-08
1.183067155e-08
1.397240895e-08
1.64926124e-08
1.92079723e-08
2.184534919e-08
2.404183698e-08
2.536619975e-08
1.338621786e-08
1.494873953e-08
1.727392604e-08
2.027633367e-08
2.380136369e-08
2.759185998e-08
3.126767533e-08
3.432564158e-08
3.616851859e-08
1.960735797e-08
2.179204472e-08
2.503720633e-08
2.92187925e-08
3.411805168e-08
3.937641763e-08
4.446798267e-08
4.869948779e-08
5.124873947e-08
2.849262987e-08
3.152608391e-08
3.602448156e-08
4.180956999e-08
4.857411016e-08
5.582155958e-08
6.282944045e-08
6.864889836e-08
7.215441402e-08
4.107814061e-08
4.526037623e-08
5.145249654e-08
5.94008727e-08
6.867752833e-08
7.860023455e-08
8.818366841e-08
9.613724163e-08
1.009285714e-07
5.875416958e-08
6.447833436e-08
7.294066557e-08
8.378408464e-08
9.641782459e-08
1.099119492e-07
1.229317534e-07
1.337323286e-07
1.402394481e-07
8.336398506e-08
9.114043493e-08
1.026207744e-07
1.173077665e-07
1.343931086e-07
1.526184138e-07
1.701872546e-07
1.847550651e-07
1.935323536e-07
1.173238975e-07
1.278094606e-07
1.432695162e-07
1.630186594e-07
1.859597091e-07
2.104013353e-07
2.33941236e-07
2.534500951e-07
2.652034833e-07
1.637672326e-07
1.777994595e-07
1.984641031e-07
2.248248212e-07
2.554031747e-07
2.879411105e-07
3.192478248e-07
3.451766065e-07
3.607936034e-07
2.267107864e-07
2.453462749e-07
2.727583321e-07
3.076782011e-07
3.481277557e-07
3.911130772e-07
4.324263595e-07
4.666148273e-07
4.871968841e-07
3.112394329e-07
3.357953191e-07
3.71874691e-07
4.177717607e-07
4.708588411e-07
5.271948562e-07
5.812727254e-07
6.259801478e-07
6.528764192e-07
4.237028631e-07
4.558001729e-07
5.029054463e-07
5.627432983e-07
6.31849129e-07
7.050742163e-07
7.752681505e-07
8.332321691e-07
8.680731517e-07
5.71915562e-07
6.13522594e-07
6.745122664e-07
7.518738743e-07
8.410749121e-07
9.354422757e-07
1.025768719e-06
1.10026063e-06
1.144989361e-06
7.653478685e-07
8.188206487e-07
8.971096619e-07
9.962646768e-07
1.110404541e-06
1.230952196e-06
1.34615391e-06
1.441024971e-06
1.49792253e-06
1.015291979e-06
1.08340806e-06
1.183014164e-06
1.308972636e-06
1.453717538e-06
1.606319904e-06
1.751908842e-06
1.871620691e-06
1.943321852e-06
1.3349845e-06
1.420965587e-06
1.546538938e-06
1.70508314e-06
1.886951236e-06
2.078342212e-06
2.260614243e-06
2.410245498e-06
2.499739826e-06
1.739666288e-06
1.847184732e-06
2.004013544e-06
2.201698927e-06
2.428053444e-06
2.665810477e-06
2.891822176e-06
3.077043386e-06
3.187657254e-06
2.246561885e-06
2.379726215e-06
2.573711603e-06
2.817828566e-06
3.096825602e-06
3.389305728e-06
3.666805233e-06
3.893816147e-06
4.029172375e-06
2.874765275e-06
3.038080928e-06
3.275675702e-06
3.574166161e-06
3.914651193e-06
4.270873848e-06
4.608181976e-06
4.883608951e-06
5.047563355e-06
3.645026e-06
3.843329327e-06
4.131438497e-06
4.492765436e-06
4.904117774e-06
5.333595252e-06
5.73943941e-06
6.070196561e-06
6.266754413e-06
4.57943917e-06
4.817805561e-06
5.163650494e-06
5.596624127e-06
6.088555193e-06
6.601078946e-06
7.084389788e-06
7.477513461e-06
7.710730751e-06
5.701053288e-06
5.984683402e-06
6.39563614e-06
6.909206092e-06
7.491523914e-06
8.096921958e-06
8.666610096e-06
9.129085145e-06
9.402982016e-06
7.033419222e-06
7.367510213e-06
7.850908446e-06
8.45393581e-06
9.136291944e-06
9.84417442e-06
1.050890291e-05
1.104750582e-05
1.136599681e-05
8.600110382e-06
8.98972115e-06
9.552676792e-06
1.025370221e-05
1.104533788e-05
1.186484398e-05
1.263280974e-05
1.325391184e-05
1.362055274e-05
1.04242468e-05
1.087416692e-05
1.152338112e-05
1.233040209e-05
1.3239916e-05
1.417949393e-05
1.505819273e-05
1.576743975e-05
1.618540562e-05
1.252805264e-05
1.304268011e-05
1.378428166e-05
1.470456991e-05
1.57397214e-05
1.680687299e-05
1.78027588e-05
1.860503162e-05
1.90770482e-05
1.493247273e-05
1.551572381e-05
1.635513353e-05
1.739507891e-05
1.85625126e-05
1.976349125e-05
2.088195098e-05
2.178127752e-05
2.230957534e-05
1.765687941e-05
1.831211501e-05
1.925390965e-05
2.041869829e-05
2.172374659e-05
2.306355936e-05
2.430883613e-05
2.53083401e-05
2.589462955e-05
2.071868509e-05
2.144850205e-05
2.249618368e-05
2.378981857e-05
2.523653382e-05
2.67188941e-05
2.809405311e-05
2.919593496e-05
2.984139911e-05
2.413275201e-05
2.493905011e-05
2.609514325e-05
2.752043004e-05
2.911155762e-05
3.073887272e-05
3.224580063e-05
3.345134409e-05
3.41566453e-05
2.791146804e-05
2.879544549e-05
3.006148671e-05
3.162003703e-05
3.335702518e-05
3.513041611e-05
3.676984761e-05
3.807944596e-05
3.884474293e-05
3.206463271e-05
3.302679546e-05
3.440334906e-05
3.609560781e-05
3.797864491e-05
3.989799167e-05
4.166955685e-05
4.308275386e-05
4.390772619e-05
3.65993818e-05
3.763956635e-05
3.912625952e-05
4.095155288e-05
4.297962605e-05
4.504363196e-05
4.694591911e-05
4.846146048e-05
4.934533856e-05
4.15201502e-05
4.263755718e-05
4.423312993e-05
4.618972963e-05
4.836069914e-05
5.056696921e-05
5.259759851e-05
5.421349075e-05
5.515508936e-05
4.682867159e-05
4.802190772e-05
4.972427379e-05
5.180947319e-05
5.412015838e-05
5.646528755e-05
5.862099233e-05
6.033456667e-05
6.133232111e-05
5.252401384e-05
5.379113981e-05
5.559745535e-05
5.780765404e-05
6.025392715e-05
6.273359515e-05
6.501030818e-05
6.681828776e-05
6.787029173e-05
5.860264846e-05
5.994123094e-05
6.184796851e-05
6.41787624e-05
6.675564757e-05
6.936471803e-05
7.175766082e-05
7.365622981e-05
7.476027421e-05
6.505855201e-05
6.64657183e-05
6.846874416e-05
7.091501905e-05
7.361679421e-05
7.634941591e-05
7.885318947e-05
8.083806306e-05
8.199167531e-05
7.188333698e-05
7.335583104e-05
7.545048417e-05
7.800651079e-05
8.082681075e-05
8.367651954e-05
8.628519523e-05
8.835168953e-05
8.955217283e-05
7.906640868e-05
8.060064768e-05
8.278181914e-05
8.544134839e-05
8.837326762e-05
9.133308752e-05
9.404029702e-05
9.618339809e-05
9.742787025e-05
8.659514468e-05
8.818727513e-05
9.04494868e-05
9.320584386e-05
9.624203766e-05
9.93045802e-05
0.0001021036035
0.0001043180348
0.0001056034663
9.445509262e-05
9.610104556e-05
9.843852729e-05
0.0001012847035
0.0001044174866
0.0001075750472
0.000110458898
0.0001127391858
0.0001140624363
0.0001026301825
0.000104325727
0.0001067324913
0.0001096612331
0.0001128826747
0.0001161273254
0.0001190888327
0.0001214293685
0.0001227872226
0.0001111029491
0.0001128437437
0.0001153136572
0.0001183175511
0.0001216195653
0.000124943243
0.0001279751288
0.0001303702291
0.0001317594294
0.0001198547604
0.0001216364017
0.0001241632534
0.0001272348058
0.0001306092373
0.0001340038264
0.0001370987791
0.0001395427403
0.0001409600192
0.0001288660482
0.0001306841168
0.0001332616809
0.0001363933938
0.000139832097
0.0001432895068
0.0001464402478
0.0001489273985
0.000150369507
0.0001381165369
0.0001399666395
0.0001425887345
0.0001457731739
0.0001492680863
0.000152780321
0.0001559796674
0.0001585044149
0.0001599681491
0.0001475854668
0.000149463275
0.0001521238167
0.0001553536753
0.0001588968833
0.0001624561061
0.0001656970254
0.0001682538981
0.0001697361236
0.0001572518091
0.0001591530934
0.0001618461426
0.0001651142958
0.0001686980937
0.0001722966826
0.0001755723422
0.0001781560269
0.0001796536994
0.0001670944687
0.0001690151294
0.0001717349336
0.0001750344879
0.0001786514283
0.0001822820254
0.0001855858348
0.0001881912087
0.0001897013921
0.0001770924736
0.0001790285663
0.0001817695951
0.00018509393
0.0001887368675
0.0001923924197
0.0001957180663
0.0001983402238
0.0001998601058
0.0001872251471
0.0001891729045
0.0001919298798
0.0001952726813
0.0001989348082
0.0002026086012
0.0002059500788
0.0002085843537
0.000210111258
0.0001974722633
0.0001994281126
0.0002021960316
0.0002055513202
0.000209226194
0.0002129118784
0.0002162635103
0.0002189054925
0.0002204368885
0.0002078141829
0.0002097747591
0.0002125489125
0.0002159110631
0.0002195926277
0.0002232842384
0.0002266406934
0.0002292862412
0.0002308197507
0.0002182319705
0.0002201941255
0.0002229701099
0.0002263338659
0.0002300164654
0.0002337084344
0.0002370647374
0.0002397099853
0.0002412433875
0.0002287074917
0.0002306683001
0.0002334420253
0.0002368025068
0.000240480893
0.0002441680561
0.0002475195935
0.0002501609561
0.0002516921893
0.0002392234918
0.0002411802532
0.000243947945
0.000247300651
0.000250969986
0.0002546475836
0.000257990104
0.0002606242763
0.0002621514384
0.0002497636559
0.0002517138941
0.0002544720931
0.0002578128998
0.0002614687523
0.0002651324264
0.0002684620368
0.0002710859911
0.0002726073379
0.000260312652
0.0002622541119
0.0002649996684
0.0002683248225
0.0002719631609
0.0002756089471
0.0002789221055
0.0002815330857
0.000283047028
0.000270856158
0.0002727868003
0.0002755168664
0.0002788229756
0.0002824401566
0.0002860644726
0.0002893579779
0.0002919534919
0.0002934585906
0.0002813808748
0.0002832988681
0.0002860108876
0.0002892949072
0.0002928876619
0.0002964872937
0.0002997582732
0.0003023360823
0.0003038310433
0.0002918745258
0.0002937782383
0.0002964699337
0.0002997291522
0.0003032945695
0.0003068666545
0.0003101125487
0.0003126706571
0.0003141543249
0.0003023258455
0.0003042138351
0.000306883194
0.0003101152157
0.0003136507241
0.0003171927335
0.0003204112802
0.000322947922
0.0003244192724
0.0003127245594
0.0003145955625
0.0003172408225
0.0003204435495
0.0003239468973
0.0003274566167
0.0003306458336
0.0003331594599
0.000334617593
0.0003230613542
0.0003249142751
0.0003275339076
0.0003307055212
0.0003341747564
0.0003376502652
0.0003408084324
0.0003432976974
0.0003447418298
0.0003333278434
0.0003351617422
0.0003377544366
0.0003408933776
0.0003443268268
0.0003477664786
0.0003508921203
0.0003533558677
0.0003547853245
0.0003435165262
0.0003453306075
0.0003478952549
0.0003510002044
0.0003543964523
0.000357798854
0.0003608907206
0.0003633279694
0.0003647421765
0.0003536207441
0.0003554143453
0.0003579500225
0.0003610198827
0.0003643777513
0.0003677417433
0.0003707987934
0.0003732087245
0.000374607201
0.0003636346335
0.0003654072138
0.0003679131674
0.0003709470429
0.0003742655719
0.0003775902083
0.0003806115913
0.0003829935343
0.0003843758847
0.0003735530779
0.0003753042072
0.0003777798385
0.0003807770185
0.0003840554457
0.0003873399755
0.0003903250153
0.0003926784351
0.0003940443423
0.0003833716584
0.000385101007
0.0003875458578
0.0003905057985
0.0003937435413
0.0003969873905
0.0003999355691
0.0004022600542
0.0004036092722
0.0003930866049
0.0003947939336
0.000397207672
0.0004001299807
0.0004033266187
0.000406529373
0.0004094403157
0.0004117355661
0.0004130679137
0.0004026947473
0.0004043798984
0.000406762306
0.0004096467252
0.0004128019839
0.0004159633729
0.0004188368335
0.0004211026501
0.0004224180044
0.0004121934685
0.0004138563567
0.0004162073168
0.0004190537103
0.0004221674456
0.0004252873271
0.0004281231752
0.000430359449
0.0004316577395
0.0004215806586
0.000423221263
0.000425540749
0.0004283490883
0.000431421272
0.0004344996189
0.0004372978267
0.0004395045297
0.0004407857329
0.0004308546707
0.0004324730277
0.0004347610927
0.0004375314446
0.0004405621515
0.0004435990382
0.0004463596696
0.0004485368453
0.0004498009797
0.0004400142792
0.0004416104752
0.0004438672428
0.000446599758
0.0004495891536
0.0004525847441
0.0004553079438
0.0004574556994
0.0004587028206
0.0004490586401
0.0004506328057
0.0004528584608
0.0004555533639
0.0004585016929
0.0004614562301
0.0004641422139
0.0004662607126
0.0004674909087
0.0004579872538
0.0004595395575
0.0004617343389
0.0004643919182
0.000467299495
0.0004702132905
0.0004728623362
0.0004749517902
0.0004761651785
0.0004667999297
0.0004683305734
0.0004704947659
0.0004731153657
0.0004759825645
0.0004788559896
0.0004814684292
0.0004835290934
0.000484725816
0.0004754967541
0.0004770059679
0.0004791398962
0.0004817239083
0.0004845511552
0.0004873846327
0.0004899608447
0.0004919930112
0.000493173232
0.0004840780595
0.0004855660976
0.0004876701204
0.0004902179773
0.0004930057426
0.0004957997392
0.0004983401422
0.0005003441346
0.0005015080365
0.0004925443977
0.0004940115347
0.0004960860391
0.0004985982074
0.0005013469985
0.0005041020182
0.0005066070647
0.0005085832337
0.0005097310156
0.0005008965135
0.0005023430409
0.0005043884378
0.0005068654129
0.0005095757682
0.000512292346
0.0005147625167
0.0005167112357
0.0005178431099
0.0005091353207
0.0005105615439
0.0005125782638
0.0005150205645
0.0005176930481
0.0005203717448
0.0005228075441
0.0005247292053
0.0005258453956
0.0005172618806
0.0005186681161
0.0005206566052
0.0005230647695
0.0005256999664
0.0005283413636
0.0005307433151
0.0005326383265
0.0005337390659
0.000525277382
0.0005266639553
0.0005286246722
0.0005309992531
0.0005335977649
0.000536202461
0.0005385711036
0.0005404398855
0.0005415254146
0.0005331831237
0.000534550367
0.0005364837801
0.000538825342
0.0005413877828
0.0005439563891
0.0005462922738
0.0005481352562
0.0005492058216
0.0005409804983
0.0005423287486
0.000544235333
0.0005465444488
0.0005490714422
0.0005516045792
0.0005539082659
0.0005557258862
0.0005567817389
0.0005486709771
0.0005500005748
0.0005518808101
0.0005541580586
0.0005566502341
0.000559148529
0.0005614205836
0.0005632132842
0.0005642546786
0.0005562560975
0.0005575673845
0.0005594217531
0.0005616677159
0.000564125707
0.0005665897908
0.0005688307829
0.0005705990097
0.0005716262023
0.0005637374504
0.0005650307692
0.0005668597543
0.0005690750142
0.0005714994556
0.0005739299607
0.0005761404617
0.0005778846621
0.0005788979105
0.0005711166696
0.0005723923627
0.0005741964466
0.0005763815857
0.0005787731114
0.0005811706697
0.0005833512507
0.000585071872
0.0005860714342
0.0005783954231
0.0005796538312
0.0005814334944
0.0005835890923
0.0005859483334
0.0005883135746
0.0005904648049
0.0005921622937
0.0005931484273
0.0005855754035
0.0005868168651
0.0005885725847
0.0005906992172
0.0005930268012
0.0005953603513
0.0005974827971
0.0005991575974
0.0006001305588
0.0005926583209
0.0005938831714
0.0005956154205
0.0005977136584
0.0006000102077
0.0006023126875
0.0006044069106
0.0006060594633
0.0006070195071
0.0005996458963
0.0006008544673
0.000602563714
0.0006046341222
0.0006069002527
0.0006091722769
0.0006112388336
0.0006128695757
0.0006138169543
0.0006065398552
0.0006077324743
0.0006094191809
0.0006114623177
0.0006136986378
0.0006159408139
0.0006179802544
0.0006195896177
0.0006205245811
0.0006133419228
0.0006145189132
0.0006161835355
0.0006181999514
0.0006204070616
0.0006226199892
0.0006246328564
0.0006262212676
0.0006271440624
0.0006200538192
0.0006212154991
0.0006228584862
0.0006248487236
0.0006270272154
0.0006292114853
0.0006311983144
0.0006327661942
0.0006336770641
0.0006266772553
0.0006278239376
0.0006294457313
0.0006314103238
0.0006335607795
0.0006357169733
0.0006376782913
0.000639226054
0.0006401252388
0.000633213929
0.0006343459214
0.0006359469559
0.0006378864283
0.0006400094201
0.0006421381096
0.0006440744349
0.0006456024882
0.0006464902241
0.0006396655228
0.0006407831274
0.000642363829
0.0006442786964
0.0006463747865
0.0006484765335
0.0006503883754
0.00065189712
0.0006527736392
0.0006460337006
0.0006471372136
0.0006486980008
0.0006505887686
0.0006526585087
0.0006547338646
0.0006566217231
0.0006581115524
0.000658977083
0.0006523201058
0.0006534098177
0.0006549511005
0.0006568182644
0.0006588621955
0.0006609117011
0.0006627760667
0.0006642473668
0.0006651021325
0.0006585263589
0.0006596025545
0.0006611247347
0.0006629687802
0.0006649874324
0.0006670116178
0.0006688529713
0.0006703061207
0.0006711503411
0.0006646540566
0.0006657170144
0.0006672204854
0.0006690418881
0.0006710357806
0.0006730351649
0.0006748539774
0.000676289347
0.0006771232372
0.0006707047698
0.0006717547624
0.0006732399092
0.0006750391345
0.0006770087755
0.0006789838669
0.0006807805994
0.0006821985524
0.0006830223231
0.0006766800426
0.0006777173366
0.0006791845359
0.0006809620389
0.0006829079254
0.0006848592211
0.0006866343248
0.0006880352165
0.000688849074
0.0006825813914
0.0006836062476
0.0006850558673
0.0006868120931
0.0006887347111
0.0006906626971
0.0006924166132
0.0006938007912
0.000694604937
0.0006884103039
0.0006894229769
0.0006908553767
0.0006925907601
0.0006944905844
0.0006963957358
0.0006981288954
0.0006994966993
0.0007002913308
0.0006941682386
0.0006951689772
0.0006965845082
0.0006982994737
0.0007001769681
0.0007020597487
0.0007037725729
0.0007051243345
0.0007059096442
0.0006998566239
0.0007008456706
0.0007022446757
0.0007039396376
0.0007057952545
0.0007076561171
0.0007093490169
0.0007106850599
0.0007114612357
0.0007054768572
0.0007064544488
0.000707837262
0.0007095126245
0.0007113468053
0.0007131861913
0.0007148595673
0.0007161802075
0.0007169474328
0.0007110303045
0.0007119966715
0.0007133636186
0.0007150197753
0.00071683295
0.0007186512895
0.0007203055321
0.000721611077
0.0007223695303
0.0007165182993
0.0007174736663
0.0007188250643
0.0007204623983
0.0007222549852
0.0007240526967
0.0007256881856
0.0007269789344
0.0007277287893
0.0007219421415
0.0007228867267
0.0007242228837
0.0007258417675
0.0007276141732
0.000729391663
0.0007310087671
0.0007322850102
0.0007330264354
0.0007273030958
0.0007282371111
0.000729558326
0.0007311591208
0.0007329117395
0.0007346694017
0.0007362684784
0.0007375304971
0.0007382636558
0.0007326023899
0.0007335260402
0.0007348326024
0.0007364156578
0.0007381488706
0.0007398870862
0.0007414684805
0.0007427165466
0.0007434415963
0.0007378412115
0.0007387546947
0.0007400468834
0.0007416125362
0.0007433267106
0.0007450458461
0.0007466098903
0.0007478442648
0.0007485613569
0.0007430207047
0.000743924211
0.0007452022942
0.0007467508677
0.0007484463558
0.0007501467624
0.0007516937741
0.0007529147065
0.0007536239854
0.0007481419653
0.0007490356762
0.0007502999097
0.0007518317122
0.000753508849
0.0007551908604
0.0007567211409
0.0007579288676
0.00075863047
0.0007532060339
0.0007540901214
0.0007553407471
0.0007568560694
0.0007585151709
0.0007601791008
0.000761692933
0.000762887675
0.0007635817285
0.0007582138876
0.0007590885124
0.0007603257561
0.0007618248694
0.000763466229
0.0007651123679
0.0007666100126
0.0007677919735
0.000768478595
0.0007631664284
0.0007640317383
0.000765255807
0.0007667389589
0.0007683628435
0.0007699914546
0.0007714731466
0.0007726425085
0.0007733218026
0.0007680644688
0.0007689205961
0.0007701316744
0.0007715990846
0.0007732057293
0.0007748170425
0.0007762829857
0.0007774399054
0.000778111961
0.0007729087139
0.0007737557719
0.0007749540173
0.0007764058716
0.0007779954732
0.0007795896784
0.0007810400385
0.0007821846415
0.0007828495292
0.0007776997376
0.0007785378172
0.0007797233542
0.000781159797
0.0007827325055
0.0007843097436
0.0007857446401
0.0007868770141
0.0007875347813
0.0007824379549
0.0007832671189
0.0007844400318
0.0007858611574
0.0007874170653
0.0007889774175
0.000790396913
0.000791517099
0.0007921677656
0.0007871235872
0.0007879438647
0.0007891041884
0.0007905100293
0.0007920491592
0.0007935926334
0.0007949967214
0.0007961047036
0.0007967482552
0.0007917566213
0.0007925679999
0.0007937157095
0.0007951062232
0.0007966285124
0.0007981550275
0.0007995436167
0.0008006393103
0.000801275691
0.0007963367615
0.0007971391785
0.0007982741764
0.0007996492294
0.0008011545117
0.0008026638787
0.0008040367761
0.0008051200125
0.0008057491165
0.0008008633745
0.0008016567069
0.0008027788076
0.0008041381571
0.0008056261422
0.0008071180428
0.0008084749329
0.0008095454435
0.000810167105
0.0008053354276
0.00080611948
0.0008072283938
0.0008085716666
0.0008100419167
0.0008115158787
0.0008128563011
0.000813913699
0.0008145276813
0.0008097514211
0.0008105259131
0.000811621227
0.0008129478966
0.0008143998003
0.0008158551717
0.0008171784961
0.0008182222559
0.0008188282398
0.0008141093164
0.0008148738682
0.0008159550266
0.0008172643883
0.0008186971332
0.0008201330535
0.0008214384537
0.0008224678907
0.0008230654621
0.0008184064626
0.0008191605808
0.0008202268636
0.0008215180093
0.0008229305538
0.0008243459255
0.0008256323531
0.0008266466021
0.0008272352395
0.0008226395241
0.0008233825869
0.0008244330895
0.0008257048821
0.0008270959274
0.0008284893878
0.0008297555466
0.0008307535419
0.000831332605
0.0008268044144
0.0008275356575
0.0008285692707
0.0008298203208
0.0008311882855
0.0008325581819
0.0008338025053
0.0008347829632
0.0008353516825
0.00083089624
0.0008316147446
0.0008326301382
0.0008338587839
0.000835201783
0.0008365461516
0.0008377667849
0.00083872819
0.0008392856598
0.0008349092615
0.0008356139453
0.0008366095552
0.0008378138478
0.0008391296778
0.0008404462315
0.0008416410212
0.0008425816197
0.0008431267942
0.0008388368767
0.0008395264892
0.0008405005118
0.0008416782099
0.0008429643435
0.0008442504682
0.0008454169621
0.0008463347629
0.0008468664578
0.0008426716324
0.0008433447558
0.0008442951505
0.0008454437254
0.0008466973211
0.0008479500866
0.0008490855446
0.000849978331
0.0008504952317
0.0008464052747
0.0008470603319
0.000847984834
0.0008491014876
0.0008503194118
0.0008515355991
0.0008526370225
0.0008535023761
0.0008540030527
0.0008500288404
0.000850664112
0.0008515602584
0.0008526419566
0.0008538208243
0.0008549969705
0.0008560611468
0.0008568964868
0.0008573794182
0.0008535327952
0.0008541464457
0.0008550116141
0.0008560551384
0.0008571913735
0.0008583238366
0.0008593474031
0.0008601500404
0.0008606136479
0.0008569072209
0.0008574973359