/*--------------------------------*- C++ -*----------------------------------*\
| =========                 |                                                 |
| \\      /  F ield         | OpenFOAM: The Open Source CFD Toolbox           |
|  \\    /   O peration     | Version:  2212                                  |
|   \\  /    A nd           | Website:  www.openfoam.com                      |
|    \\/     M anipulation  |                                                 |
\*---------------------------------------------------------------------------*/
FoamFile
{
    version     2.0;
    format      ascii;
    arch        "LSB;label=32;scalar=64";
    class       surfaceScalarField;
    location    "19.75000000";
    object      phi_0;
}
// * * * * * * * * * * * * * * * * * * * * * * * * * * * * * * * * * * * * * //

dimensions      [1 0 -1 0 0 0 0];

oriented        oriented;

internalField   nonuniform List<scalar> 
5690
(
-5.460896294e-11
8.582882282e-10
1.326429589e-11
-1.340428561e-10
1.421106827e-09
-2.672966175e-10
1.983803468e-09
-4.773660425e-10
2.554013001e-09
-7.878106899e-10
3.132663014e-09
-1.19637794e-09
3.694292327e-09
-1.608034859e-09
4.146469471e-09
-1.625462696e-09
4.187245394e-09
2.965612003e-09
-1.155727776e-10
9.453921776e-10
2.846898706e-11
-2.664616399e-10
1.571995748e-09
-4.849653724e-10
2.202306748e-09
-7.653383056e-10
2.834385606e-09
-1.074854317e-09
3.442178653e-09
-1.325107941e-09
3.944545619e-09
-1.355359522e-09
4.176720701e-09
-9.122790212e-10
3.744163416e-09
2.053333059e-09
-1.51625084e-10
1.058800503e-09
3.821668415e-11
-3.350420626e-10
1.755412944e-09
-5.765494871e-10
2.443814434e-09
-8.449563018e-10
3.102792491e-09
-1.077804101e-09
3.67502696e-09
-1.178631987e-09
4.045374163e-09
-1.02412282e-09
4.02221148e-09
-5.507992361e-10
3.270839519e-09
1.502533816e-09
-1.483006674e-10
1.169042342e-09
3.805879399e-11
-3.1745901e-10
1.924571013e-09
-5.21422596e-10
2.647777572e-09
-7.180455158e-10
3.299415826e-09
-8.459792088e-10
3.802960313e-09
-8.314207144e-10
4.030815602e-09
-6.20088283e-10
3.81087899e-09
-2.73103148e-10
2.923854266e-09
1.229430778e-09
-1.315448217e-10
1.266336284e-09
3.425069149e-11
-2.742965353e-10
2.06732302e-09
-4.335106939e-10
2.806991969e-09
-5.67375657e-10
3.433280594e-09
-6.263127702e-10
3.861897644e-09
-5.680204743e-10
3.972523396e-09
-3.84207325e-10
3.627065568e-09
-1.472886946e-10
2.686935613e-09
1.082142135e-09
-1.070198556e-10
1.34507769e-09
2.827872087e-11
-2.180843503e-10
2.178387179e-09
-3.335242868e-10
2.922432162e-09
-4.182745551e-10
3.518031046e-09
-4.378766919e-10
3.881499731e-09
-3.72982428e-10
3.907629193e-09
-2.348742628e-10
3.488957569e-09
-8.197999441e-11
2.534041076e-09
1.000162209e-09
-8.367810347e-11
1.406405358e-09
2.235062856e-11
-1.674009185e-10
2.262110037e-09
-2.49328535e-10
3.004359966e-09
-3.023533115e-10
3.571055732e-09
-3.040894537e-10
3.883235823e-09
-2.473634111e-10
3.85090345e-09
-1.479495717e-10
3.389543582e-09
-4.784170512e-11
2.433933346e-09
9.523203568e-10
-6.330976537e-11
1.452624866e-09
1.708997798e-11
-1.246603867e-10
2.323460794e-09
-1.816438547e-10
3.061343347e-09
-2.144021793e-10
3.603814069e-09
-2.090605281e-10
3.877894594e-09
-1.644886941e-10
3.806331346e-09
-9.524638229e-11
3.320301164e-09
-2.981842991e-11
2.368505533e-09
9.2250186e-10
-4.711932998e-11
1.486928419e-09
1.281562049e-11
-9.163456476e-11
2.367976067e-09
-1.312416453e-10
3.100950519e-09
-1.517322706e-10
3.624304837e-09
-1.445931671e-10
3.870755642e-09
-1.110696474e-10
3.772807747e-09
-6.279971922e-11
3.27203108e-09
-1.901324272e-11
2.32471908e-09
9.034887254e-10
-3.466877658e-11
1.51210161e-09
9.495669693e-12
-6.673394268e-11
2.400041244e-09
-9.428336886e-11
3.128500052e-09
-1.072938542e-10
3.637315269e-09
-1.005586059e-10
3.86402057e-09
-7.603096235e-11
3.748280141e-09
-4.246323488e-11
3.238463513e-09
-1.279343604e-11
2.295049274e-09
8.906953471e-10
-2.538505531e-11
1.530500447e-09
6.986293219e-12
-4.848808868e-11
2.423144209e-09
-6.780635242e-11
3.147818313e-09
-7.627517221e-11
3.645784106e-09
-7.065145952e-11
3.858396796e-09
-5.284058821e-11
3.730469568e-09
-2.92417956e-11
3.214864857e-09
-8.710409092e-12
2.274517772e-09
8.819849055e-10
-1.855580236e-11
1.543928086e-09
5.128212692e-12
-3.523118884e-11
2.439819475e-09
-4.889371426e-11
3.161480831e-09
-5.455100528e-11
3.651441151e-09
-5.013805201e-11
3.853984089e-09
-3.726823916e-11
3.717599921e-09
-2.056482768e-11
3.198161275e-09
-6.152238418e-12
2.260105179e-09
8.758326032e-10
-1.357789759e-11
1.553743546e-09
3.76247007e-12
-2.567077416e-11
2.451912349e-09
-3.543659891e-11
3.171246375e-09
-3.931841004e-11
3.655322949e-09
-3.595873923e-11
3.850624705e-09
-2.663000215e-11
3.708271008e-09
-1.466491494e-11
3.186196102e-09
-4.379924208e-12
2.249820057e-09
8.714527397e-10
-9.962773851e-12
1.560939706e-09
2.766637697e-12
-1.877889677e-11
2.460728409e-09
-2.582999364e-11
3.17829726e-09
-2.856029778e-11
3.65805339e-09
-2.6049808e-11
3.848114234e-09
-1.926736249e-11
3.701488539e-09
-1.062127625e-11
3.177550073e-09
-3.190472044e-12
2.242389064e-09
8.682621963e-10
-7.338091235e-12
1.566237565e-09
2.040198462e-12
-1.38053267e-11
2.467195426e-09
-1.894710729e-11
3.183439066e-09
-2.090894181e-11
3.660015312e-09
-1.904662136e-11
3.84625195e-09
-1.408354797e-11
3.696525506e-09
-7.769929331e-12
3.171236659e-09
-2.335665125e-12
2.236954719e-09
8.659263415e-10
-5.430509356e-12
1.570156864e-09
1.511044373e-12
-1.020457816e-11
2.471969317e-09
-1.398864653e-11
3.187223192e-09
-1.542422015e-11
3.661450934e-09
-1.404832978e-11
3.844876075e-09
-1.03974987e-11
3.692874617e-09
-5.751552774e-12
3.166590597e-09
-1.727507723e-12
2.232930781e-09
8.641987472e-10
-4.040380621e-12
1.573072574e-09
1.124510545e-12
-7.588127214e-12
2.475517079e-09
-1.039705499e-11
3.19003208e-09
-1.146179177e-11
3.662515529e-09
-1.044125993e-11
3.843855668e-09
-7.732631911e-12
3.690165724e-09
-4.280418628e-12
3.163138014e-09
-1.277479626e-12
2.22992799e-09
8.629212295e-10
-3.02546703e-12
1.575255807e-09
8.421642024e-13
-5.680674754e-12
2.478172477e-09
-7.78236763e-12
3.192133629e-09
-8.577952352e-12
3.663311036e-09
-7.81086088e-12
3.843088664e-09
-5.774297905e-12
3.688128992e-09
-3.177464321e-12
3.160541021e-09
-9.480145118e-13
2.227698348e-09
8.619731938e-10
-2.285262866e-12
1.576905037e-09
6.36061057e-13
-4.291382922e-12
2.480178714e-09
-5.87973479e-12
3.193721917e-09
-6.480064336e-12
3.663911281e-09
-5.895269982e-12
3.842503949e-09
-4.343475375e-12
3.686577388e-09
-2.36588374e-12
3.15856343e-09
-6.863540214e-13
2.2260184e-09
8.612868006e-10
-1.749349286e-12
1.57816769e-09
4.867840537e-13
-3.28695058e-12
2.481716218e-09
-4.5063142e-12
3.194941276e-09
-4.968254765e-12
3.664373184e-09
-4.517309506e-12
3.842053202e-09
-3.316929888e-12
3.685377254e-09
-1.785876016e-12
3.157032312e-09
-4.806828272e-13
2.224712907e-09
8.608061983e-10
-1.369581038e-12
1.579156475e-09
3.808082222e-13
-2.57694189e-12
2.482923335e-09
-3.538591332e-12
3.195902923e-09
-3.906947319e-12
3.664741632e-09
-3.556015075e-12
3.84170243e-09
-2.612412039e-12
3.684433648e-09
-1.404744126e-12
3.155824345e-09
-3.744429601e-13
2.223682648e-09
8.604319492e-10
-1.112088756e-12
1.57995973e-09
3.087472154e-13
-2.09812298e-12
2.48390919e-09
-2.891398171e-12
3.196696163e-09
-3.205005434e-12
3.66505523e-09
-2.928701831e-12
3.841426284e-09
-2.16099101e-12
3.683665691e-09
-1.17314982e-12
3.154836327e-09
-3.248145619e-13
2.222834558e-09
8.601071496e-10
-9.618761141e-13
1.580655507e-09
2.660117777e-13
-1.827102297e-12
2.484774427e-09
-2.543186451e-12
3.197412124e-09
-2.85417097e-12
3.665366217e-09
-2.638876714e-12
3.841211107e-09
-1.957898306e-12
3.68298459e-09
-1.056599e-12
3.153935218e-09
-2.791861472e-13
2.22205726e-09
8.598278228e-10
-9.002679684e-13
1.581308056e-09
2.477368443e-13
-1.725028018e-12
2.48559918e-09
-2.429654626e-12
3.198116682e-09
-2.765321952e-12
3.665701924e-09
-2.595767312e-12
3.841041648e-09
-1.952579706e-12
3.682341502e-09
-1.062190623e-12
3.153044965e-09
-2.752539307e-13
2.22127032e-09
8.595524971e-10
-9.202448802e-13
1.581976489e-09
2.518909438e-13
-1.779351747e-12
2.486458198e-09
-2.536202426e-12
3.198873606e-09
-2.928501889e-12
3.666094153e-09
-2.800942717e-12
3.840914295e-09
-2.159432813e-12
3.681700053e-09
-1.211374203e-12
3.152096731e-09
-3.251208675e-13
2.220384093e-09
8.592274497e-10
-1.026623475e-12
1.582723774e-09
2.793669333e-13
-2.004254648e-12
2.487435844e-09
-2.895180289e-12
3.199764654e-09
-3.398060359e-12
3.666596985e-09
-3.310141134e-12
3.840826623e-09
-2.606250237e-12
3.680996185e-09
-1.497439641e-12
3.150987598e-09
-4.139610123e-13
2.219300634e-09
8.588135468e-10
-1.221783189e-12
1.583614798e-09
3.307729197e-13
-2.405040226e-12
2.488619163e-09
-3.514059491e-12
3.200873744e-09
-4.182724467e-12
3.667265666e-09
-4.141890713e-12
3.840785989e-09
-3.321658384e-12
3.680176043e-09
-1.950721869e-12
3.149616503e-09
-5.615887639e-13
2.217911406e-09
8.582518487e-10
-1.511939778e-12
1.584719065e-09
4.077093386e-13
-2.994722567e-12
2.490101953e-09
-4.412993844e-12
3.202292056e-09
-5.307781276e-12
3.668160476e-09
-5.320898368e-12
3.840799264e-09
-4.330262138e-12
3.679185455e-09
-2.591216986e-12
3.147877515e-09
-7.751271733e-13
2.216095012e-09
8.574766063e-10
-1.902501258e-12
1.586109977e-09
5.11609278e-13
-3.783906855e-12
2.491983346e-09
-5.607894443e-12
3.2041161e-09
-6.792949096e-12
3.669345553e-09
-6.868270569e-12
3.840874655e-09
-5.649793945e-12
3.677966953e-09
-3.430307552e-12
3.145658057e-09
-1.05960172e-12
2.213723936e-09
8.564170436e-10
-2.397557707e-12
1.587863966e-09
6.435961366e-13
-4.780272592e-12
2.494366073e-09
-7.109098105e-12
3.206444986e-09
-8.648864595e-12
3.670885316e-09
-8.792110754e-12
3.841017932e-09
-7.284289291e-12
3.676459109e-09
-4.46859384e-12
3.142842238e-09
-1.414685398e-12
2.210669828e-09
8.550023759e-10
-2.997758676e-12
1.590057858e-09
8.03903208e-13
-5.983986664e-12
2.497352282e-09
-8.91430825e-12
3.20937531e-09
-1.086860792e-11
3.672839621e-09
-1.108019828e-11
3.841229626e-09
-9.218606191e-12
3.674597502e-09
-5.693189342e-12
3.139316626e-09
-1.835477805e-12
2.206812148e-09
8.531667052e-10
-3.69885668e-12
1.592765227e-09
9.914637364e-13
-7.384603547e-12
2.501037977e-09
-1.100387924e-11
3.212994544e-09
-1.342189619e-11
3.675257699e-09
-1.369387838e-11
3.841501751e-09
-1.141303776e-11
3.672316546e-09
-7.074241909e-12
3.13497762e-09
-2.310462812e-12
2.202048516e-09
8.508559969e-10
-4.490053105e-12
1.59605161e-09
1.203608186e-12
-8.957964319e-12
2.505505884e-09
-1.333647802e-11
3.21737303e-09
-1.625025895e-11
3.678171488e-09
-1.65637087e-11
3.841815283e-09
-1.380036456e-11
3.669553011e-09
-8.563778119e-12
3.129740804e-09
-2.821435881e-12
2.196306189e-09
8.480344894e-10
-5.352843686e-12
1.59996876e-09
1.435692656e-12
-1.06641783e-11
2.510817228e-09
-1.584651504e-11
3.222555333e-09
-1.926449622e-11
3.681589323e-09
-1.958795977e-11
3.842138826e-09
-1.62859453e-11
3.666250927e-09
-1.009653628e-11
3.123551169e-09
-3.343843784e-12
2.189553231e-09
8.446906969e-10
-6.260453193e-12
1.604548498e-09
1.680767759e-12
-1.244661222e-11
2.517003297e-09
-1.844335268e-11
3.228552016e-09
-2.234503424e-11
3.685490802e-09
-2.26349438e-11
3.842428865e-09
-1.875167513e-11
3.66236778e-09
-1.1593862e-11
3.116393213e-09
-3.848911988e-12
2.181807884e-09
8.408417613e-10
-7.177879336e-12
1.609796792e-09
1.929599119e-12
-1.423246404e-11
2.524057725e-09
-2.101329696e-11
3.235332821e-09
-2.534632552e-11
3.689823755e-09
-2.554959131e-11
3.84263222e-09
-2.106337898e-11
3.657881645e-09
-1.296965251e-11
3.108299434e-09
-4.306337409e-12
2.173144278e-09
8.3653534e-10
-8.062802358e-12
1.615688523e-09
2.171032911e-12
-1.593542055e-11
2.531930245e-09
-2.342486562e-11
3.242822299e-09
-2.810529238e-11
3.694504294e-09
-2.81641782e-11
3.842691087e-09
-2.308144903e-11
3.652798745e-09
-1.413806019e-11
3.099355989e-09
-4.687182338e-12
2.163693313e-09
8.318481751e-10
-8.867631493e-12
1.622163675e-09
2.392455821e-12
-1.746041283e-11
2.540523019e-09
-2.553709654e-11
3.250899056e-09
-3.045318062e-11
3.699420535e-09
-3.031225137e-11
3.842550107e-09
-2.467375697e-11
3.647159985e-09
-1.502197958e-11
3.089704112e-09
-4.966705858e-12
2.153638125e-09
8.268816026e-10
-9.542580384e-12
1.62912584e-09
2.580448862e-12
-1.871017432e-11
2.549690675e-09
-2.721044237e-11
3.259399369e-09
-3.222984473e-11
3.704439932e-09
-3.184411856e-11
3.842164425e-09
-2.572900602e-11
3.641044781e-09
-1.556110006e-11
3.079536156e-09
-5.126998161e-12
2.143204185e-09
8.217546966e-10
-1.003949906e-11
1.636443629e-09
2.72177809e-12
-1.959331585e-11
2.559244593e-09
-2.831927103e-11
3.26812528e-09
-3.329905301e-11
3.709419557e-09
-3.264188878e-11
3.841507429e-09
-2.61680837e-11
3.634571074e-09
-1.571793211e-11
3.069086045e-09
-5.158666998e-12
2.132645053e-09
8.165959885e-10
-1.031621832e-11
1.643955287e-09
2.804615677e-12
-2.003309106e-11
2.568961524e-09
-2.876448136e-11
3.276856577e-09
-3.356288204e-11
3.714217842e-09
-3.263188118e-11
3.84057664e-09
-2.595169887e-11
3.627890986e-09
-1.548072638e-11
3.058615099e-09
-5.061181443e-12
2.122225543e-09
8.115347282e-10
-1.03409959e-11
1.651476541e-09
2.819763816e-12
-1.997562535e-11
2.57859614e-09
-2.848448696e-11
3.285365392e-09
-3.297264709e-11
3.718706022e-09
-3.179221461e-11
3.83939635e-09
-2.508330735e-11
3.621182057e-09
-1.486312266e-11
3.048394856e-09
-4.842026638e-12
2.112204416e-09
8.06692696e-10
-1.009635699e-11
1.658811181e-09
2.761733924e-12
-1.939651724e-11
2.587896306e-09
-2.746275475e-11
3.293431646e-09
-3.153430395e-11
3.722777615e-09
-3.015418932e-11
3.838016249e-09
-2.360704116e-11
3.614634841e-09
-1.390111703e-11
3.038688894e-09
-4.515269714e-12
2.102818536e-09
8.021774855e-10
-9.581632489e-12
1.665763336e-09
2.62951724e-12
-1.830457596e-11
2.596619326e-09
-2.573033826e-11
3.300857413e-09
-2.930736993e-11
3.726354613e-09
-2.779736353e-11
3.836506186e-09
-2.16010484e-11
3.608438516e-09
-1.264796478e-11
3.02973585e-09
-4.099706762e-12
2.094270294e-09
7.980778322e-10
-8.813710356e-12
1.672150158e-09
2.426914325e-12
-1.674170033e-11
2.604547397e-09
-2.336280877e-11
3.307478481e-09
-2.639790416e-11
3.729389634e-09
-2.483977732e-11
3.834948049e-09
-1.916797853e-11
3.602766757e-09
-1.116794606e-11
3.021735863e-09
-3.61702584e-12
2.086719401e-09
7.944608451e-10
-7.825691058e-12
1.677813514e-09
2.162315021e-12
-1.477872803e-11
2.611500483e-09
-2.047208773e-11
3.313171793e-09
-2.294666359e-11
3.731864172e-09
-2.142484867e-11
3.833426283e-09
-1.642391415e-11
3.597765901e-09
-9.529730004e-12
3.014841704e-09
-3.090132097e-12
2.080279811e-09
7.913707545e-10
-6.663611888e-12
1.68262917e-09
1.847916426e-12
-1.250814361e-11
2.617345053e-09
-1.719469382e-11
3.317858305e-09
-1.911456097e-11
3.733784043e-09
-1.770727794e-11
3.832019046e-09
-1.348820817e-11
3.593546943e-09
-7.801785845e-12
3.009155395e-09
-2.544399738e-12
2.075022482e-09
7.888264325e-10
-5.381803485e-12
1.686512489e-09
1.498462226e-12
-1.003485265e-11
2.621998103e-09
-1.367840963e-11
3.321501828e-09
-1.506776271e-11
3.735173409e-09
-1.383987533e-11
3.830791203e-09
-1.047393712e-11
3.590181108e-09
-6.046426554e-12
3.004728098e-09
-1.998834038e-12
2.070975168e-09
7.868276529e-10
-4.037479146e-12
1.689420192e-09
1.129766787e-12
-7.465883791e-12
2.625426431e-09
-1.006845832e-11
3.32410438e-09
-1.096314719e-11
3.736068101e-09
-9.961227214e-12
3.829789424e-09
-7.478928837e-12
3.58769885e-09
-4.316966103e-12
3.001566387e-09
-1.440820038e-12
2.068099389e-09
7.853868815e-10
-2.685713502e-12
1.69134861e-09
7.572969637e-13
-4.90172891e-12
2.627642349e-09
-6.497322627e-12
3.325699947e-09
-6.939643861e-12
3.736510449e-09
-6.190712134e-12
3.829040724e-09
-4.586483891e-12
3.58609469e-09
-2.650748855e-12
2.999630814e-09
-9.108730417e-13
2.066359745e-09
7.844760877e-10
-1.375124365e-12
1.692328813e-09
3.949490108e-13
-2.428984646e-12
2.628696173e-09
-3.075447322e-12
3.32634638e-09
-3.108585068e-12
3.736543642e-09
-2.619192207e-12
3.828551523e-09
-1.859210082e-12
3.585334922e-09
-1.04871308e-12
2.998820382e-09
-4.141563001e-13
2.065725193e-09
7.840620023e-10
-1.456087792e-13
1.692420217e-09
5.424737452e-14
-1.173753902e-13
2.628667985e-09
1.091903977e-13
3.326119823e-09
4.397651076e-13
3.736213105e-09
6.738848386e-13
3.828317537e-09
6.396292766e-13
3.585369385e-09
3.919929241e-13
2.999068052e-09
4.108348241e-14
2.066076023e-09
7.841030981e-10
9.73075015e-13
1.691703394e-09
-2.562134486e-13
1.980966011e-12
2.627660193e-09
2.992372232e-12
3.325108464e-09
3.645320899e-12
3.73556019e-09
3.642157267e-12
3.828320752e-09
2.90515848e-12
3.58610649e-09
1.660046754e-12
3.000313178e-09
4.537862677e-13
2.06728226e-09
7.845568347e-10
1.96059283e-12
1.69027346e-09
-5.306034776e-13
3.830696806e-12
2.625790191e-09
5.531484686e-12
3.323407724e-09
6.468239039e-12
3.734623501e-09
6.260158586e-12
3.82852886e-09
4.900260835e-12
3.587466345e-09
2.803392207e-12
3.002410049e-09
8.218587979e-13
2.069263773e-09
7.853786233e-10
2.807658564e-12
1.688231882e-09
-7.659829783e-13
5.417939645e-12
2.623179999e-09
7.712553112e-12
3.321113114e-09
8.89769675e-12
3.733438414e-09
8.520282907e-12
3.828906263e-09
6.629623726e-12
3.58935688e-09
3.809006385e-12
3.00523063e-09
1.14471715e-12
2.07192797e-09
7.865232949e-10
3.513421288e-12
1.685680507e-09
-9.619408152e-13
6.742837968e-12
2.619950646e-09
9.538112108e-12
3.318317814e-09
1.093855495e-11
3.732037908e-09
1.042771345e-11
3.829417045e-09
8.097412976e-12
3.591687041e-09
4.667769907e-12
3.008660195e-09
1.421773881e-12
2.075173841e-09
7.879450418e-10
4.083436409e-12
1.682717108e-09
-1.119957057e-12
7.816397037e-12
2.616217706e-09
1.102391251e-11
3.315110235e-09
1.260869049e-11
3.730452972e-09
1.199854862e-11
3.830027091e-09
9.314912016e-12
3.594370598e-09
5.385097957e-12
3.012589912e-09
1.653935956e-12
2.078904897e-09
7.895989568e-10
4.52745511e-12
1.679432425e-09
-1.242727436e-12
8.656723623e-12
2.612088396e-09
1.219438543e-11
3.311572473e-09
1.393455898e-11
3.728712666e-09
1.325643688e-11
3.830705152e-09
1.029939955e-11
3.597327649e-09
5.971266063e-12
3.016917969e-09
1.852601157e-12
2.083023486e-09
7.914515624e-10
4.857695855e-12
1.675908414e-09
-1.333685146e-12
9.286114747e-12
2.607659897e-09
1.307902147e-11
3.307779491e-09
1.494731442e-11
3.726844343e-09
1.422850565e-11
3.83142396e-09
1.10697551e-11
3.600486479e-09
6.436149441e-12
3.021551557e-09
2.012868177e-12
2.08744676e-09
7.934644645e-10
5.087563491e-12
1.672217439e-09
-1.396623768e-12
9.728891871e-12
2.603018527e-09
1.37097973e-11
3.303798598e-09
1.56806295e-11
3.724873533e-09
1.494420645e-11
3.832160434e-09
1.164691911e-11
3.603783867e-09
6.790903834e-12
3.026407626e-09
2.136249167e-12
2.092101486e-09
7.956007676e-10
5.230661776e-12
1.668422139e-09
-1.435392003e-12
1.000965059e-11
2.598239564e-09
1.411897595e-11
3.299689342e-09
1.61685943e-11
3.722823947e-09
1.543341091e-11
3.8328957e-09
1.205239316e-11
3.607164991e-09
7.047313195e-12
3.031412784e-09
2.228066221e-12
2.096920823e-09
7.978288783e-10
5.300074508e-12
1.664575744e-09
-1.453685812e-12
1.015209372e-11
2.593387598e-09
1.433777027e-11
3.295503737e-09
1.644428034e-11
3.720717476e-09
1.572514164e-11
3.833614934e-09
1.230702891e-11
3.610583226e-09
7.216674348e-12
3.036503186e-09
2.292123169e-12
2.101845383e-09
8.001210245e-10
5.307946822e-12
1.660722738e-09
-1.454937831e-12
1.017836843e-11
2.588517224e-09
1.439550726e-11
3.291286651e-09
1.653890628e-11
3.718574129e-09
1.584695447e-11
3.834306964e-09
1.243068536e-11
3.613999608e-09
7.309761776e-12
3.041624137e-09
2.331703395e-12
2.106823388e-09
8.024527521e-10
5.265303247e-12
1.656899696e-09
-1.442264833e-12
1.010867472e-11
2.583673905e-09
1.431911031e-11
3.287076276e-09
1.648131319e-11
3.716411982e-09
1.582452328e-11
3.834963786e-09
1.244204484e-11
3.617382167e-09
7.336803269e-12
3.046729431e-09
2.34989777e-12
2.111810307e-09
8.048026879e-10
5.181967224e-12
1.653136151e-09
-1.418427488e-12
9.961079452e-12
2.57889486e-09
1.413280241e-11
3.282904635e-09
1.62976795e-11
3.714247146e-09
1.568140534e-11
3.835580084e-09
1.235845245e-11
3.620705176e-09
7.307394564e-12
3.051780565e-09
2.349568579e-12
2.116768251e-09
8.071522942e-10
5.066522151e-12
1.649455451e-09
-1.385817877e-12
9.751470904e-12
2.574209986e-09
1.385803869e-11
3.278798142e-09
1.6011435e-11
3.712093783e-09
1.54388591e-11
3.836152725e-09
1.219572696e-11
3.623948367e-09
7.230385361e-12
3.056745947e-09
2.333353274e-12
2.121665385e-09
8.09485668e-10
4.926351158e-12
1.645875613e-09
-1.346481794e-12
9.493615214e-12
2.56964278e-09
1.351359792e-11
3.274778201e-09
1.564326586e-11
3.709964132e-09
1.511579833e-11
3.836680285e-09
1.196805367e-11
3.627096201e-09
7.113789497e-12
3.061600179e-09
2.30371618e-12
2.12647544e-09
8.117893882e-10
4.767723488e-12
1.642410107e-09
-1.302166813e-12
9.199294476e-12
2.565211229e-09
1.311571495e-11
3.270861798e-09
1.521121719e-11
3.707868611e-09
1.47288971e-11
3.837162681e-09
1.168801499e-11
3.630137189e-09
6.964778783e-12
3.066323342e-09
2.262939071e-12
2.131177181e-09
8.140523173e-10
4.595910329e-12
1.639068583e-09
-1.254354288e-12
8.878493023e-12
2.56092863e-09
1.26782496e-11
3.267062072e-09
1.473085305e-11
3.705815966e-09
1.429271218e-11
3.837600874e-09
1.136670866e-11
3.633063256e-09
6.789730821e-12
3.070900244e-09
2.213057413e-12
2.135753783e-09
8.162653504e-10
4.41530997e-12
1.635857527e-09
-1.204259947e-12
8.539583595e-12
2.556804324e-09
1.221288569e-11
3.263388823e-09
1.421543912e-11
3.703813391e-09
1.381977889e-11
3.837996573e-09
1.101384232e-11
3.635869154e-09
6.59429247e-12
3.075319703e-09
2.155846663e-12
2.140192221e-09
8.184211737e-10
4.229543458e-12
1.632780816e-09
-1.152855852e-12
8.18949438e-12
2.552844334e-09
1.172938052e-11
3.259848978e-09
1.367614624e-11
3.70186664e-09
1.332074778e-11
3.838351984e-09
1.063779975e-11
3.638551978e-09
6.383417807e-12
3.079573973e-09
2.092881246e-12
2.144482772e-09
8.205140618e-10
4.041530143e-12
1.629840194e-09
-1.100928151e-12
7.833887359e-12
2.549051944e-09
1.123581845e-11
3.256447046e-09
1.312229275e-11
3.699980162e-09
1.280461339e-11
3.838669638e-09
1.024572897e-11
3.641110748e-09
6.161382881e-12
3.083658242e-09
2.025575174e-12
2.148618601e-09
8.225396892e-10
3.853597544e-12
1.627035681e-09
-1.049117791e-12
7.477333286e-12
2.545428219e-09
1.07388109e-11
3.253185536e-09
1.256161624e-11
3.69815729e-09
1.227895295e-11
3.83895226e-09
9.843673319e-12
3.643546003e-09
5.931819586e-12
3.087570121e-09
1.955158678e-12
2.152595321e-09
8.244949321e-10
3.667606043e-12
1.624365949e-09
-9.979252458e-13
7.123450783e-12
2.541972437e-09
1.024366329e-11
3.250065296e-09
1.200046673e-11
3.696400391e-09
1.17500648e-11
3.83920264e-09
9.43669643e-12
3.645859427e-09
5.697794245e-12
3.091309152e-09
1.882663889e-12
2.156410562e-09
8.263776802e-10
3.485017046e-12
1.621828618e-09
-9.477302371e-13
6.775067221e-12
2.538682421e-09
9.754573471e-12
3.247085789e-09
1.144394877e-11
3.694710971e-09
1.122307518e-11
3.839423523e-09
9.029017542e-12
3.648053562e-09
5.461929749e-12
3.094876408e-09
1.808993956e-12
2.160063614e-09
8.281867266e-10
3.306913342e-12
1.619420505e-09
-8.988280924e-13
6.434379544e-12
2.535554886e-09
9.274795001e-12
3.244245382e-09
1.089597023e-11
3.693089824e-09
1.070188958e-11
3.839617644e-09
8.623800544e-12
3.650131731e-09
5.226040102e-12
3.098274299e-09
1.734579125e-12
2.163555143e-09
8.299213126e-10
3.134082677e-12
1.617137837e-09
-8.514425587e-13
6.103114136e-12
2.532585739e-09
8.806892765e-12
3.241541595e-09
1.035963471e-11
3.691537122e-09
1.01896961e-11
3.839787652e-09
8.223711111e-12
3.65209781e-09
4.99173046e-12
3.101506332e-09
1.660563868e-12
2.166886321e-09
8.315818492e-10
2.967109249e-12
1.614976424e-09
-8.057219993e-13
5.782537428e-12
2.529770278e-09
8.352855067e-12
3.23897126e-09
9.837530575e-12
3.690052445e-09
9.689284508e-12
3.839935984e-09
7.831212855e-12
3.653955981e-09
4.761988899e-12
3.104575534e-09
1.587520731e-12
2.170060756e-09
8.331693353e-10
2.806437121e-12
1.612931748e-09
-7.617652195e-13
5.473533486e-12
2.527103258e-09
7.914146514e-12
3.236530662e-09
9.33157731e-12
3.688634999e-09
9.202638742e-12
3.840065005e-09
7.44968914e-12
3.655708994e-09
4.537321079e-12
3.10748784e-09
1.515275284e-12
2.173082721e-09
8.346845894e-10
2.652278963e-12
1.610999135e-09
-7.196444409e-13
5.176378049e-12
2.524579229e-09
7.491123683e-12
3.234215978e-09
8.843746039e-12
3.687282405e-09
8.73360703e-12
3.840175202e-09
7.079671519e-12
3.657362923e-09
4.317588315e-12
3.110249832e-09
1.444483762e-12
2.175955715e-09
8.36129069e-10
2.50455389e-12
1.609173936e-09
-6.793275717e-13
4.892295277e-12
2.522191458e-09
7.087173551e-12
3.232021167e-09
8.375202601e-12
3.685994445e-09
8.280887e-12
3.840269532e-09
6.720089127e-12
3.658923634e-09
4.103972304e-12
3.112865827e-09
1.375363466e-12
2.178684243e-09
8.375044355e-10
2.364921444e-12
1.607450216e-09
-6.411975372e-13
4.621596322e-12
2.519934705e-09
6.700638009e-12
3.229942135e-09
7.924978726e-12
3.684770136e-09
7.843334226e-12
3.840351129e-09
6.37282174e-12
3.660394006e-09
3.897011966e-12
3.1153415e-09
1.308130697e-12
2.181273107e-09
8.388125623e-10
2.231686752e-12
1.605823339e-09
-6.048350223e-13
4.362749624e-12
2.517803626e-09
6.329394327e-12
3.227975424e-09
7.493376154e-12
3.683606085e-09
7.424015463e-12
3.840420381e-09
6.038993438e-12
3.661778883e-09
3.697457489e-12
3.117682923e-09
1.243051475e-12
2.183727512e-09
8.400555954e-10
2.103908107e-12
1.604289414e-09
-5.700310878e-13
4.116152784e-12
2.515791428e-09
5.976223009e-12
3.226115252e-09
7.081480794e-12
3.682500679e-09
7.022792116e-12
3.840478937e-09
5.718743526e-12
3.663082828e-09
3.505514475e-12
3.119896086e-09
1.180217905e-12
2.186052754e-09
8.412357784e-10
1.983290028e-12
1.602843259e-09
-5.37194541e-13
3.882156313e-12
2.513892556e-09
5.64035428e-12
3.224356967e-09
6.688969402e-12
3.681451924e-09
6.639674009e-12
3.840528136e-09
5.412270716e-12
3.664310189e-09
3.321376912e-12
3.121986949e-09
1.119759497e-12
2.188254264e-09
8.423554908e-10
1.869018616e-12
1.601480283e-09
-5.061078324e-13
3.660174513e-12
2.512101271e-09
5.32134513e-12
3.222695738e-09
6.315605316e-12
3.680457604e-09
6.274597479e-12
3.840569123e-09
5.119633389e-12
3.665465157e-09
3.145137567e-12
3.123961418e-09
1.061754559e-12
2.190337543e-09
8.43417192e-10
1.760940876e-12
1.600196016e-09
-4.76733971e-13
3.450040025e-12
2.510411996e-09
5.018921896e-12
3.221126807e-09
5.961114472e-12
3.67951543e-09
5.927388557e-12
3.840602888e-09
4.840793678e-12
3.666551769e-09
2.976854316e-12
3.125825308e-09
1.006233572e-12
2.192308084e-09
8.444233796e-10
1.658820343e-12
1.598986133e-09
-4.489776002e-13
3.251419879e-12
2.508819308e-09
4.732692361e-12
3.219645491e-09
5.62509467e-12
3.678623061e-09
5.597747081e-12
3.840630285e-09
4.575608668e-12
3.667573904e-09
2.816522318e-12
3.127584316e-09
9.531982625e-13
2.194171322e-09
8.453765541e-10
1.562461791e-12
1.597846447e-09
-4.227850718e-13
3.063894241e-12
2.507317911e-09
4.462171163e-12
3.218247196e-09
5.307067256e-12
3.67777815e-09
5.285293384e-12
3.840652072e-09
4.323860344e-12
3.668535299e-09
2.664066294e-12
3.129244008e-09
9.026551695e-13
2.195932621e-09
8.462792114e-10
1.47165863e-12
1.596772924e-09
-3.981168904e-13
2.886996508e-12
2.505902656e-09
4.206771783e-12
3.216927439e-09
5.006470725e-12
3.676978389e-09
4.989567662e-12
3.84066894e-09
4.085246878e-12
3.669439555e-09
2.519341631e-12
3.130809806e-09
8.545982907e-13
2.197597259e-09
8.471338316e-10
1.38617403e-12
1.595761699e-09
-3.749197967e-13
2.720283497e-12
2.504568602e-09
3.965873515e-12
3.215681884e-09
4.72267781e-12
3.676221526e-09
4.71003148e-12
3.840681526e-09
3.85938943e-12
3.67029012e-09
2.382152345e-12
3.132286958e-09
8.089835982e-13
2.199170379e-09
8.479428469e-10
1.305744838e-12
1.594809088e-09
-3.531124134e-13
2.563324924e-12
2.503311042e-09
3.7388588e-12
3.214506378e-09
4.454995307e-12
3.675505374e-09
4.446068402e-12
3.840690406e-09
3.645844408e-12
3.67109028e-09
2.252261738e-12
3.133680496e-09
7.657261472e-13
2.200656933e-09
8.487086092e-10
1.23010614e-12
1.593911594e-09
-3.326029655e-13
2.415664299e-12
2.502125503e-09
3.525097575e-12
3.213396958e-09
4.202680942e-12
3.674827813e-09
4.196993909e-12
3.840696089e-09
3.444108812e-12
3.671843143e-09
2.129391304e-12
3.134995207e-09
7.247283719e-13
2.202061653e-09
8.49433376e-10
1.159002484e-12
1.593065906e-09
-3.133121507e-13
2.276808627e-12
2.501007739e-09
3.323921847e-12
3.212349849e-09
3.964963508e-12
3.674186793e-09
3.962078781e-12
3.840699019e-09
3.253624845e-12
3.672551634e-09
2.013223739e-12
3.136235638e-09
6.858935268e-13
2.203389043e-09
8.501193029e-10
1.092181787e-12
1.592268905e-09
-2.95180225e-13
2.146243938e-12
2.499953736e-09
3.134626717e-12
3.211361477e-09
3.741063164e-12
3.673580366e-09
3.740569237e-12
3.840699589e-09
3.073795832e-12
3.673218498e-09
1.903409325e-12
3.137406077e-09
6.491155163e-13
2.204643367e-09
8.50768431e-10
1.02939172e-12
1.59151766e-09
-2.781554273e-13
2.023458675e-12
2.498959716e-09
2.956494595e-12
3.210428471e-09
3.530184582e-12
3.673006696e-09
3.531700985e-12
3.840698154e-09
2.904007046e-12
3.673846298e-09
1.799575504e-12
3.13851056e-09
6.142721644e-13
2.205828646e-09
8.513826863e-10
9.703810553e-13
1.590809429e-09
-2.621748864e-13
1.907962903e-12
2.498022137e-09
2.788816194e-12
3.20954766e-09
3.331512403e-12
3.672464044e-09
3.33469835e-12
3.840695038e-09
2.743640323e-12
3.674437436e-09
1.701342729e-12
3.139552872e-09
5.812420412e-13
2.206948672e-09
8.519638922e-10
9.148942994e-13
1.590141652e-09
-2.471561372e-13
1.799293712e-12
2.497137687e-09
2.630905808e-12
3.208716066e-09
3.144231883e-12
3.671950761e-09
3.148784578e-12
3.840690526e-09
2.592086685e-12
3.674994151e-09
1.608350742e-12
3.140536566e-09
5.499172385e-13
2.208007021e-09
8.525137815e-10
8.626736386e-13
1.589511949e-09
-2.330131628e-13
1.696996732e-12
2.496303293e-09
2.482108111e-12
3.207930915e-09
2.967564251e-12
3.671465299e-09
2.973206386e-12
3.840684879e-09
2.448770945e-12
3.675518536e-09
1.520279476e-12
3.141464972e-09
5.202021211e-13
2.209007045e-09
8.530339801e-10
8.134758814e-13
1.588918111e-09
-2.196830332e-13
1.600610224e-12
2.495516112e-09
2.341791614e-12
3.207189651e-09
2.800784116e-12
3.671006236e-09
2.8072625e-12
3.840678349e-09
2.313161883e-12
3.676012551e-09
1.43683852e-12
3.142341193e-09
4.920006251e-13
2.209951858e-09
8.535259913e-10