/*--------------------------------*- C++ -*----------------------------------*\
| =========                 |                                                 |
| \\      /  F ield         | OpenFOAM: The Open Source CFD Toolbox           |
|  \\    /   O peration     | Version:  2212                                  |
|   \\  /    A nd           | Website:  www.openfoam.com                      |
|    \\/     M anipulation  |                                                 |
\*---------------------------------------------------------------------------*/
FoamFile
{
    version     2.0;
    format      ascii;
    arch        "LSB;label=32;scalar=64";
    class       volScalarField;
    location    "19.75000000";
    object      Qdot;
}
// * * * * * * * * * * * * * * * * * * * * * * * * * * * * * * * * * * * * * //

dimensions      [1 -1 -3 0 0 0 0];

internalField   nonuniform List<scalar> 
3000
(
-1.220258802e-15
-1.227779565e-15
-1.238498873e-15
-1.251288995e-15
-1.263804319e-15
-1.270918304e-15
-1.261290803e-15
-1.209946618e-15
-1.062981888e-15
-1.414538938e-15
-1.445634553e-15
-1.490981755e-15
-1.548223057e-15
-1.61345295e-15
-1.680010706e-15
-1.736668681e-15
-1.764757114e-15
-1.729743337e-15
-1.755628833e-15
-1.835133887e-15
-1.954202922e-15
-2.111935273e-15
-2.307284407e-15
-2.537586104e-15
-2.794211543e-15
-3.05136512e-15
-3.223910864e-15
-2.329478255e-15
-2.502191758e-15
-2.766690805e-15
-3.128922329e-15
-3.597306156e-15
-4.177388622e-15
-4.856780684e-15
-5.56700253e-15
-6.085021179e-15
-3.28383064e-15
-3.629665088e-15
-4.16896309e-15
-4.924522065e-15
-5.924806578e-15
-7.187379825e-15
-8.676228466e-15
-1.021159396e-14
-1.131327203e-14
-4.870785728e-15
-5.530325054e-15
-6.574009559e-15
-8.059911695e-15
-1.005415586e-14
-1.258809709e-14
-1.556126683e-14
-1.856825601e-14
-2.06822835e-14
-7.526194129e-15
-8.746798198e-15
-1.070064926e-14
-1.351379778e-14
-1.731871174e-14
-2.215819624e-14
-2.779221667e-14
-3.339760579e-14
-3.730747306e-14
-1.200052811e-14
-1.421520074e-14
-1.779154959e-14
-2.298103236e-14
-3.003048052e-14
-3.89863464e-14
-4.933666059e-14
-5.951035229e-14
-6.657110169e-14
-1.958932539e-14
-2.355461018e-14
-2.999984933e-14
-3.940210513e-14
-5.220406102e-14
-6.843904139e-14
-8.709254763e-14
-1.052751824e-13
-1.178676004e-13
-3.252851932e-14
-3.95628892e-14
-5.105155463e-14
-6.787221772e-14
-9.080415178e-14
-1.198366844e-13
-1.530512345e-13
-1.852473703e-13
-2.075399195e-13
-5.468097755e-14
-6.707915886e-14
-8.739893166e-14
-1.172244594e-13
-1.579162103e-13
-2.093648122e-13
-2.680486224e-13
-3.247288526e-13
-3.640135068e-13
-9.272388869e-14
-1.144754468e-13
-1.502163075e-13
-2.027718094e-13
-2.745105864e-13
-3.651294672e-13
-4.682864498e-13
-5.676965183e-13
-6.367107137e-13
-1.582067904e-13
-1.962437337e-13
-2.588631848e-13
-3.510662217e-13
-4.769754684e-13
-6.359295284e-13
-8.166474996e-13
-9.905643357e-13
-1.111538772e-12
-2.711168827e-13
-3.374785033e-13
-4.468867188e-13
-6.081508368e-13
-8.284503891e-13
-1.106482438e-12
-1.422341609e-12
-1.726078062e-12
-1.937764152e-12
-4.660577669e-13
-5.81647265e-13
-7.724298869e-13
-1.053872483e-12
-1.438486503e-12
-1.923840586e-12
-2.474997969e-12
-3.00479342e-12
-3.374650908e-12
-8.029593304e-13
-1.004062096e-12
-1.336281011e-12
-1.826710755e-12
-2.497166601e-12
-3.343255651e-12
-4.303879627e-12
-5.227143251e-12
-5.872389451e-12
-1.385651075e-12
-1.735248714e-12
-2.313195363e-12
-3.166882117e-12
-4.334365322e-12
-5.807872686e-12
-7.480813398e-12
-9.091021075e-12
-1.021258972e-11
-2.394096314e-12
-3.001517178e-12
-4.006297825e-12
-5.491252007e-12
-7.522812083e-12
-1.008744478e-11
-1.299952522e-11
-1.580390989e-11
-1.775225266e-11
-4.1403848e-12
-5.195465288e-12
-6.941678764e-12
-9.523687552e-12
-1.305757981e-11
-1.752012738e-11
-2.258847646e-11
-2.746364338e-11
-3.084736257e-11
-7.16609389e-12
-8.998632704e-12
-1.203307981e-11
-1.652220405e-11
-2.266921054e-11
-3.04348799e-11
-3.925830409e-11
-4.774610369e-11
-5.358802885e-11
-1.241179789e-11
-1.559518653e-11
-2.08690809e-11
-2.867557323e-11
-3.937130838e-11
-5.289153955e-11
-6.826289798e-11
-8.305991385e-11
-9.309994149e-11
-2.151268208e-11
-2.704491009e-11
-3.621505585e-11
-4.979776739e-11
-6.842150575e-11
-9.198306309e-11
-1.187957057e-10
-1.446348478e-10
-1.621969786e-10
-3.73152336e-11
-4.693594414e-11
-6.289324195e-11
-8.654855902e-11
-1.190158729e-10
-1.601404317e-10
-2.070049448e-10
-2.522439544e-10
-2.830712833e-10
-6.478287066e-11
-8.153071681e-11
-1.093315502e-10
-1.505888689e-10
-2.072940069e-10
-2.792422328e-10
-3.614022727e-10
-4.409157098e-10
-4.953187683e-10
-1.125895781e-10
-1.417869529e-10
-1.903042576e-10
-2.624117389e-10
-3.617099363e-10
-4.88007971e-10
-6.326659022e-10
-7.731981911e-10
-8.699513238e-10
-1.959372728e-10
-2.469407304e-10
-3.318116672e-10
-4.58201958e-10
-6.327175889e-10
-8.554433866e-10
-1.111637596e-09
-1.36189898e-09
-1.53579742e-09
-3.415650944e-10
-4.308996578e-10
-5.798330371e-10
-8.022281064e-10
-1.110423236e-09
-1.505600193e-09
-1.962843303e-09
-2.412940745e-09
-2.729824543e-09
-5.967197016e-10
-7.537414618e-10
-1.016172166e-09
-1.409468946e-09
-1.957155294e-09
-2.663813909e-09
-3.487921641e-09
-4.307558551e-09
-4.894921391e-09
-1.045353707e-09
-1.322586138e-09
-1.787442864e-09
-2.487421533e-09
-3.468382003e-09
-4.744386735e-09
-6.247696212e-09
-7.762877264e-09
-8.873669376e-09
-1.837665874e-09
-2.329889992e-09
-3.158724334e-09
-4.414387463e-09
-6.188350238e-09
-8.51959058e-09
-1.130126695e-08
-1.415149267e-08
-1.629989146e-08
-3.244582398e-09
-4.124555939e-09
-5.614199299e-09
-7.888195928e-09
-1.113307378e-08
-1.545092777e-08
-1.449117852e-07
-1.50558775e-07
1.248816795e-07
-5.759518908e-09
-7.345758446e-09
-1.004863195e-08
-1.421309478e-08
-1.444565081e-07
-1.527590526e-07
1.169191372e-07
1.062157299e-07
9.766139551e-08
-1.029112672e-08
-1.317846781e-08
-1.805706333e-08
-1.502715758e-07
1.181110985e-07
1.026525192e-07
-4.120746795e-08
2.169855703e-07
7.474970829e-08
-1.845372495e-08
-1.480780574e-07
1.222248733e-07
1.076902761e-07
-3.816530343e-08
8.685820609e-08
4.785805879e-08
3.533375118e-08
1.52621604e-07
1.21594161e-07
1.116858065e-07
-2.989929451e-08
-5.777288063e-08
5.546724618e-08
2.642727669e-08
2.583908593e-07
1.984178265e-07
1.475027242e-07
-3.086124073e-08
-4.977208847e-08
7.250205551e-08
1.739301039e-07
1.21643295e-07
1.868428908e-07
2.415255968e-07
3.911766195e-07
4.292411523e-07
7.112743909e-08
1.904734313e-07
2.813509976e-07
8.150389144e-08
2.559435199e-07
2.557592334e-07
5.98278057e-07
7.769862997e-07
1.097707995e-06
2.795974998e-07
2.404267829e-07
2.995339261e-07
4.58464282e-07
3.960713731e-07
7.795947579e-07
1.177030317e-06
1.744031069e-06
2.327440253e-06
1.734769535e-07
2.212068107e-07
6.18082139e-07
7.73010074e-07
1.185108704e-06
1.644743412e-06
2.525069686e-06
3.730082599e-06
4.651737873e-06
6.175318838e-07
4.627015905e-07
8.437275958e-07
1.406950125e-06
2.187981841e-06
3.57560466e-06
5.476431154e-06
7.757495708e-06
1.026147413e-05
8.469894911e-07
1.336159953e-06
1.937545535e-06
2.890987317e-06
4.762045229e-06
7.510164378e-06
1.153038848e-05
1.664824324e-05
2.190889213e-05
1.762077254e-06
2.481260379e-06
3.790608901e-06
5.931311192e-06
9.803220174e-06
1.576479109e-05
2.444468299e-05
3.526992074e-05
4.659196632e-05
3.933957646e-06
5.235366973e-06
7.843009118e-06
1.258972834e-05
2.054641884e-05
3.323360013e-05
5.12119998e-05
7.412500784e-05
9.780582557e-05
7.841494606e-06
1.077949678e-05
1.631663258e-05
2.639377224e-05
4.314929921e-05
6.964604454e-05
0.0001074379776
0.0001544583681
0.0002026544296
1.648468649e-05
2.271338915e-05
3.461983543e-05
5.559762732e-05
9.083485489e-05
0.0001454468173
0.0002224727721
0.0003173851094
0.0004132336818
3.511285706e-05
4.825909724e-05
7.322979304e-05
0.0001173464474
0.0001900905803
0.0003012845811
0.0004551572755
0.00064159453
0.0008272796923
7.527559905e-05
0.0001029932192
0.0001555643895
0.0002466979305
0.000394668685
0.000616995031
0.0009182616237
0.001276028201
0.001627197835
0.0001620249762
0.0002200336091
0.0003291321415
0.0005156264492
0.0008127144818
0.001248987247
0.00182729469
0.002500331859
0.003154045711
0.0003482351098
0.0004691356011
0.0006929497472
0.001069355893
0.001656733492
0.002500189782
0.003594882812
0.004850484733
0.006073076274
0.0007447786734
0.0009932979824
0.00144696642
0.002196486241
0.003343445558
0.004959156154
0.00702955419
0.009406696945
0.0115393132
0.001576581381
0.002080122592
0.002987076274
0.004461701725
0.006684456297
0.009789590036
0.01375850112
0.01799445628
0.02193969603
0.003287798866
0.004291352563
0.006079016888
0.008954622635
0.01327338443
0.01928806074
0.02655406052
0.03460940428
0.04225560633
0.006726477544
0.008693650223
0.01217630914
0.01778095263
0.02613556727
0.03725974677
0.05122193564
0.06710896716
0.08276336364
0.013472503
0.01728174033
0.024053802
0.03471379877
0.05010518659
0.07127840573
0.09848535932
0.1306263561
0.1636783512
0.02649070141
0.03385199954
0.04625893913
0.06573579562
0.0944462085
0.1345343646
0.1874054738
0.2519060136
0.3203553103
0.05071885057
0.06382195904
0.08650621523
0.1221100184
0.1748973105
0.2494973012
0.3492647254
0.4721631602
0.6038272505
0.09450879769
0.1181938992
0.1590860347
0.2232271779
0.3184273864
0.452777817
0.6305355569
0.8448098714
1.071581046
0.1741287896
0.2165399631
0.2894601164
0.4031684236
0.570049853
0.800173569
1.092817079
1.429356658
1.780197525
0.3197399656
0.394976881
0.5230670438
0.7194042884
0.9991382559
1.367214912
1.808146394
2.292393604
2.804503358
0.5865973783
0.717192462
0.9351456084
1.258472339
1.697184671
2.239847784
2.855618247
3.526011874
4.27401491
1.066269193
1.282582655
1.63241988
2.127737978
2.761843831
3.505810862
4.336622108
5.276678857
6.393460287
1.884327974
2.216726105
2.734180024
3.432084116
4.286523983
5.273276562
6.408305479
7.765479504
9.447467958
3.170365959
3.638511234
4.34426365
5.26781457
6.387517307
7.711832264
9.308072006
11.2964932
13.8041613
5.025219043
5.642889671
6.562187558
7.764268347
9.251990374
11.0787347
13.36215555
16.26211828
19.91906012
7.54620842
8.34550828
9.542225559
11.13485592
13.16216761
15.72556235
18.98995808
23.14747548
28.33637368
10.89770895
11.94626863
13.53642004
15.69352204
18.49849333
22.10046231
26.70769934
32.5319907
39.68467346
15.34812753
16.74963462
18.89892783
21.85395079
25.73890716
30.75012421
37.12908909
45.08488239
54.66638025
21.26719072
23.15960639
26.08134129
30.12492961
35.45867826
42.31814455
50.95887585
61.55358061
74.04073631
29.11832052
31.67191627
35.62654633
41.10881034
48.3252535
57.5350943
68.97809556
82.74421421
98.60012576
39.45040761
42.86878524
48.16400065
55.49156856
65.08397844
77.19931688
92.02008672
109.4937626
129.1398255
52.89126999
57.40891144
64.39522156
74.02412867
86.53426101
102.1479798
120.9372551
142.6341666
166.4218648
70.13109213
76.00838099
85.0708775
97.49454185
113.4965257
133.219244
156.559795
182.9499394
211.1348567
91.89856135
99.41390425
110.9599761
126.6924405
146.7719025
171.2079986
199.6493077
231.132653
263.8534018
118.9306751
128.3699871
142.8134693
162.368685
187.0982385
216.8194718
250.8523177
287.7377685
325.0025655
151.9388457
163.5830616
181.3258822
205.1945462
235.1076421
270.6268298
310.6605402
353.1509816
394.8342337
191.5748717
205.6865815
227.0996136
255.7258919
291.2919378
333.0399953
379.3857127
427.5718438
473.4215042
238.400972
255.211686
280.6170826
314.3782063
355.9825053
404.2926849
457.1564415
511.0232719
560.6882034
292.8682222
312.5679991
342.2255451
381.4174492
429.349451
484.4520966
543.9399885
603.3884322
656.4384862
355.3071443
378.0382354
412.1380202
456.9697229
511.4224007
573.4530766
639.5953075
704.4685752
760.4472353
425.93283
451.7885274
490.4514441
541.0496575
602.1311097
671.1559838
743.9328754
814.0677656
872.4084065
504.8650253
533.894209
577.1807115
633.6078219
701.3649465
777.4025755
856.7712646
931.8380935
992.1899206
592.1617738
624.3822286
672.3090088
734.5762157
809.0299967
892.0574619
977.7881945
1057.676381
1119.656955
687.8684118
723.2688475
775.8336151
843.9556549
925.0413351
1014.874683
1106.943371
1191.464335
1254.783508
792.0629184
830.6444958
887.8508171
961.6830166
1049.273576
1145.891749
1244.168302
1333.185037
1397.652481
904.905324
946.5950551
1008.280671
1087.799331
1181.831255
1285.108852
1389.487229
1482.91129
1548.432774
1026.434018
1071.201284
1137.345338
1222.432309
1322.782334
1432.606119
1542.996788
1640.776097
1707.339941
1156.883601
1204.660361
1275.16673
1365.71176
1472.261595
1588.518078
1704.832274
1806.931622
1874.587819
1296.419612
1347.144671
1421.924453
1517.816254
1630.438253
1752.996419
1875.125528
1981.503001
2050.338122
1445.253527
1498.864788
1577.8235
1678.93584
1797.475872
1926.167217
2053.960407
2164.542909
2234.653807
1603.604397
1660.030134
1743.054787
1849.230666
1973.489728
2108.08808
2241.330906
2355.991519
2427.460386
1771.657951
1830.807625
1917.753627
2028.789407
2158.506087
2298.709469
2437.105727
2555.644943
2628.517684
1949.525762
2011.28119
2101.960141
2217.591308
2352.426928
2497.843275
2641.001665
2763.133867
2837.403072
2137.207614
2201.415316
2295.584807
2415.474728
2555.002556
2705.140475
2852.567005
2977.91285
3053.506057
2334.559795
2401.025191
2498.381506
2622.114125
2765.813486
2920.07866
3071.175093
3199.259908
3276.033316
2541.271284
2609.7552
2709.929454
2837.006437
2984.262065
3141.95938
3296.027516
3426.28536
3504.022723
2756.848978
2827.066674
2929.624602
3059.467036
3209.573557
3369.914584
3526.165824
3657.948505
3736.364659
2980.612335
3052.23505
3156.680374
3288.634764
3440.805864
3602.921039
3760.490361
3893.080525
3971.828759
3211.697161
3284.356019
3390.137052
3523.485126
3676.866691
3839.821295
3997.784651
4130.411904
4209.094308
3449.067799
3522.359736
3628.878743
3762.850361
3916.536719
4079.349648
4236.743683
4368.602688
4446.782555
3691.536558
3765.031884
3871.656564
4005.444924
4158.49722
4320.161482
4476.004504
4606.274013
4683.489411
3937.789002
4011.040118
4117.116544
4249.894825
4401.360545
4560.86444
4714.177592
4842.039473
4917.817171
4186.413544
4258.964332
4363.830638
4494.76923
4643.701934
4800.049946
4949.877669
5074.535089
5148.404119
4435.933744
4507.32916
4610.329318
4738.612835
4884.091227
5036.323778
5181.752778
5302.446855
5373.951139
4684.841742
4754.637169
4855.134241
4979.977617
5121.123219
5268.334582
5408.510662
5524.535068
5593.244649
4931.631346
4999.401326
5096.789698
5217.452766
5353.445608
5494.799425
5628.94174
5739.654865
5805.17544
5174.829487
5240.175537
5333.891692
5449.691815
5579.783686
5714.525725
5841.938163
5946.772658
6008.753202
5413.02496
5475.582213
5565.113781
5675.436202
5798.961206
5926.429144
6046.508708
6144.978297
6203.116739
5644.893585
5704.336144
5789.229016
5893.53477
6009.917047
6129.547227
6241.789405
6333.493091
6387.540077
5869.21924
5925.264134
6005.127591
6102.95892
6211.71754
6323.048761
6427.050123
6511.673853
6561.434607
6084.910392
6137.320158
6211.830007
6302.813347
6403.564547
6506.239149
6601.697208
6679.013281
6724.347861
6291.012033
6339.595963
6408.495837
6492.342588
6584.799485
6678.561856
6765.272685
6835.137197
6875.959283
6486.713213
6531.327395
6594.428285
6670.933466
6754.903602
6839.596584
6917.450446
6979.799085
7016.073544
6671.350255
6711.896491
6769.074816
6838.114007
6913.495052
6989.054538
7058.029913
7112.872441
7144.61192
6844.406206
6880.830036
6932.02444
6993.549262
7060.3232
7126.771322
7186.927716
7234.341458
7261.602246
7005.506989
7037.794952
7083.002086
7137.034533
7195.260708
7252.697985
7304.167867
7344.290543
7367.167922
7154.414769
7182.591088
7221.860636
7268.486575
7318.293931
7366.890723
7409.87094
7442.893109
7461.51641
7291.019113
7315.141975
7348.571157
7387.933275
7429.512113
7469.499714
7504.242666
7530.400048
7544.92759
7415.326507
7435.484092
7463.211859
7495.502334
7529.095862
7560.757496
7587.562344
7607.128226
7617.742294
7527.448738
7543.755135
7565.956262
7591.409374
7617.305295
7640.967272
7660.171384
7673.449286
7680.351275
7627.590626
7640.181762
7657.060997
7675.945878
7694.468222
7710.491428
7722.462232
7729.778983
7733.184803
7716.037527
7725.067208
7736.853609
7749.467285
7760.968641
7769.740526
7774.867907
7776.567217
7776.703034
7793.142953
7798.779087
7805.720662
7812.381517
7817.235786
7819.162953
7817.852273
7814.288875
7811.38724
7859.316593
7861.737672
7864.096401
7865.13813
7863.733884
7859.235349
7851.901159
7843.435567
7837.731953
7915.012971
7914.404837
7912.452124
7908.218258
7900.952756
7890.453929
7877.514386
7864.508279
7856.238042
7960.7209
7957.273834
7951.286421
7942.125431
7929.399318
7913.326705
7895.198715
7878.01094
7867.406711
7996.953833
7990.85997
7981.116336
7967.377341
7949.59003
7928.366664
7905.461714
7884.444896
7871.734368
8024.241191
8015.692271
8002.469501
7984.498568
7962.044287
7936.085847
7908.806511
7884.304234
7869.708344
8043.120688
8032.306122
8015.877247
7994.014254
7967.278729
7936.990321
7905.727389
7878.071907
7861.803375
8054.131639
8041.236894
8021.868655
7996.444696
7965.802431
7931.575975
7896.706158
7866.216596
7848.478789
8057.80923
8043.014493
8020.965532
7992.300812
7958.112913
7920.325091
7882.209246
7849.190234
7830.176325
8054.679697
8038.158814
8013.678223
7982.080413
7944.692905
7903.703604
7862.685431
7827.426128
7807.318514
8045.256351
8027.175998
8000.502216
7966.265206
7926.007801
7882.158999
7838.564142
7801.337604
7780.307549
8030.036375
8010.55545
7981.915456
7945.318472
7902.503714
7856.118763
7810.254266
7771.317101
7749.524576
8009.498324
7988.767523
7958.376293
7919.683328
7874.606082
7825.989312
7778.143388
7737.735661
7715.329348
7984.100238
7962.261801
7930.321996
7889.781506
7842.718733
7792.155348
7742.597393
7700.942746
7678.060172
7954.278317
7931.465905
7898.167749
7856.012582
7807.223359
7754.979567
7703.960395
7661.266329
7638.034117
7920.446052
7896.784754
7862.306072
7818.753586
7768.479323
7714.802662
7662.554912
7619.013209
7595.547415
7882.993769
7858.600198
7823.106598
7778.358935
7726.82376
7671.943576
7618.682252
7574.469511
7550.876028
7842.28852
7817.270989
7780.916149
7735.160636
7682.571905
7626.699961
7572.623079
7527.901322
7504.276334
7798.674232
7773.133003
7736.059035
7689.468685
7636.0176
7579.34877
7524.63809
7479.555438
7455.985912
7752.472116
7726.499684
7688.837577
7641.571656
7587.433949
7530.146987
7474.968794
7429.660179
7406.224379
7703.981235
7677.66266
7639.532766
7591.737426
7537.074102
7479.332452
7423.838376
7378.426279
7355.194288
7653.479227
7626.892491
7588.405046
7540.213992
7485.172104
7427.12474
7371.452597
7326.047791
7303.082043
7601.223085
7574.439483
7535.695169
7487.23035
7431.943801
7373.726083
7318.000716
7272.703014
7250.058816
7547.449924
7520.534521
7481.625073
7432.997414
7377.587771
7319.322308
7263.656432
7218.555423
7196.281467
7492.377456
7465.389811
7426.398751
7377.708937
7322.286271
7264.083776
7208.578808
7163.754585
7141.89345
7436.187888
7409.1994
7370.20308
7321.542434
7266.206174
7208.166324
7152.9132
7108.437055
7087.02569
7379.013451
7352.140159
7313.20879
7264.660147
7209.499926
7151.712192
7096.792153
7052.727255
7031.79744
7321.043645
7294.320381
7255.571583
7207.210121
7152.306538
7094.850957
7040.336287
6996.738321
6976.317102
7262.486668
7235.904564
7197.434599
7149.327535
7094.75261
7037.700443
6983.655154
6940.572919
6920.683017
7203.489079
7177.065826
7138.910896
7091.135303
7036.953165
6980.367567
6926.848043
6884.324009
6864.984206
7144.179552
7117.940271
7080.120485
7032.745144
6979.01251
6922.949134
6870.004742
6828.075585
6809.301085
7084.673955
7058.644396
7021.142146
6974.258185
6921.025023
6865.532613
6813.206268
6771.903363
6753.706123
7025.077134
6999.280257
6962.130158
6915.766543
6863.076073
6808.196886
6756.525558
6715.875431
6698.264475
6965.483553
6939.9397
6903.165863
6857.353055
6805.24244
6751.012826
6700.02807
6660.052842
6643.034552
6905.977859
6880.704668
6844.331535
6799.091397
6747.592726
6694.04384
6643.77235
6604.490172
6588.068569
6846.635782
6821.648321
6785.696459
6741.007335
6690.187934
6637.34649
6587.810613
6549.236061
6533.413058
6787.525146
6762.836461
6727.323985
6683.233397
6633.08369
6580.97146
6532.189379
6494.333743
6479.10936
6728.70632
6704.327395
6669.269307
6625.774736
6576.328416
6524.963495
6476.949807
6439.821465
6425.19405
6670.232942
6646.172908
6611.581577
6568.681484
6519.96514
6469.362153
6422.128214
6385.732928
6371.699352
6612.152568
6588.418966
6554.304613
6512.010665
6464.032107
6414.202337
6367.756523
6332.097695
6318.653526
6554.507176
6531.106095
6497.476891
6455.802025
6408.562793
6359.514614
6313.862632
6278.941555
6266.081217
6497.333649
6474.269892
6441.132248
6400.07966
6353.586529
6305.325619
6260.470773
6226.286857
6214.003774
6440.664184
6417.94135
6385.299963
6344.874625
6299.12859
6251.658337
6207.601817
6174.152813
6162.439546
6384.526709
6362.147305
6330.005326
6290.210344
6245.210708
6198.532463
6155.273589
6122.555785
6111.404156
6328.945285
6306.910838
6275.27004
6236.106873
6191.851423
6145.964718
6103.501153
6071.509554
6060.910758
6273.94047
6252.251631
6221.112564
6182.581202
6139.066386
6093.969141
6052.297084
6021.025566
6010.970266
6219.529653
6198.186296
6167.548418
6129.647552
6086.868637
6042.557343
6001.671699
5971.113159
5961.591577
6165.727355
6144.728661
6114.590465
6077.317633
6035.268854
5991.738742
5951.633285
5921.779765
5912.781762
6112.5455
6091.89004
6062.249166
6025.60089
5984.275581
5941.520776
5902.188292
5873.031102
5864.546246
6059.993667
6039.679473
6010.53281
5974.504718
5933.895438
5891.9091
5853.341517
5824.871341
5816.888973
6008.079309
5988.103942
5959.44772
5924.034663
5884.1333
5842.907755
5805.096264
5777.303258
5769.812548
5956.807953
5937.168559
5908.998439
5874.194592
5834.992468
5794.519323
5757.454489
5730.328368
5723.318365
5906.183364
5886.876736
5859.187882
5824.986841
5786.474801
5746.745054
5710.416917
5683.947041
5677.40671
5856.207686
5837.230309
5810.017464
5776.41233
5738.580828
5699.584967
5663.983136
5638.158574
5632.076836
5806.881537
5788.229634
5761.487184
5728.470643
5691.309812
5653.037909
5618.151644
5592.961245
5587.326992
5758.204055
5739.873631
5713.59566
5681.160053
5644.659768
5607.101557
5572.919845
5548.352288
5543.154395
5710.172883
5692.159754
5666.340092
5634.477474
5598.6274
5561.772351
5528.283968
5504.327804
5499.55511
5662.784059
5645.083877
5619.716138
5588.418319
5553.207941
5517.045307
5484.238867
5460.882533
5456.523799
5616.031793
5598.640061
5573.717656
5542.976226
5508.394841
5472.913689
5440.777658
5418.009468
5414.053291
5569.908086
5552.820151
5528.336285
5498.142601
5464.179264
5429.36846
5397.891134
5375.699221
5372.133886
5524.402146
5507.613169
5483.560794
5453.905923
5420.54932
5386.397453
5355.566868
5333.93906
5330.752317
5479.499541
5463.004431
5439.376148
5410.250745
5377.488955
5343.984164
5313.787918
5292.711518
5289.890269
5435.18101
5418.974306
5395.762207
5367.15453
5334.9764
5302.106072
5272.531009
5251.992454
5249.522315
5391.420866
5375.496524
5352.691847
5324.591468
5292.981978
5260.732338
5231.764082
5211.748444
5209.613181
5348.184937
5332.536042
5310.128758
5282.524236
5251.46545
5219.820859
5191.443101
5171.933376
5170.114207
5305.427953
5290.046314
5268.024526
5240.900886
5210.372537
5179.314517
5151.508012
5132.484176
5130.958934
5263.09032
5247.965885
5226.314886
5199.638409
5169.630521
5139.136529
5111.87778
5093.315559
5092.057756
5221.094305
5206.214525
5184.915997
5158.660026
5129.143616
5099.185071
5072.444518
5054.313853
5053.291673
5179.339438
5164.688323
5143.718852
5117.848765
5088.786581
5059.326787
5033.066676
5015.3299
5014.505221
5137.697292
5123.254229
5102.583448
5077.03252
5048.398004
5019.389684
4993.561512
4976.171272
4975.498801
5096.005739
5081.744242
5061.331157
5036.037499
5007.773873
4979.155723
4953.697151
4936.594077
4936.020708
5054.062419
5039.948212
5019.718956
4994.624849
4966.659514
4938.352883
4913.184439
4896.294723
4895.759281
5011.618132
4997.607408
4977.442832
4952.501203
4924.742469
4896.647674
4871.66924
4854.902224
4854.335704
4968.369408
4954.365317
4934.17014
4909.313009
4881.646228
4853.638575
4828.725771
4811.971676
4811.298091
4923.875819
4909.754452
4889.534035
4864.641601
4836.925156
4808.85094
4783.851643
4766.979627
4766.117503
4877.646573
4863.432482
4843.074126
4817.999708
4790.061206
4761.734057
4736.465344
4719.322059
4718.186568
4829.294446
4814.895816
4794.262403
4768.829745
4740.463048
4711.661044
4685.906899
4668.31575
4666.821319
4778.267245
4763.57407
4742.503307
4716.505011
4687.468425
4657.932359
4631.442459
4613.203669
4611.266767
4723.948573
4708.833183
4687.137511
4660.334604
4630.350385
4599.783495
4572.273401
4553.164954
4550.706581
4665.664278
4649.982055
4627.449458
4599.572389
4568.32801
4536.397512
4507.550378
4487.329804
4484.277055
4602.692201
4586.282979
4562.679022
4533.430337
4500.581755
4466.922496
4436.392617
4414.799464
4411.085393
4534.275622
4516.966048
4492.037423
4461.096404
4426.273609
4390.494046
4357.912296
4334.671167
4330.23218
4459.640623
4441.247656
4414.727396
4381.756859
4344.571882
4306.262544
4271.243735
4246.067682
4240.837838
4378.017376
4358.352984
4329.967465
4294.622787
4254.680244
4213.424685
4175.576827
4148.17097
4142.072864
4288.665139
4267.542209
4237.019892
4198.960241
4155.870322
4111.258489
4070.193861
4040.259247
4033.19172
4190.900568
4168.13993
4135.221731
4094.123288
4047.51697
3999.160746
3954.50868
3921.746606
3913.570289
4084.128714
4059.567115
4024.018114
3979.588949
3929.135032
3876.685601
3828.106841
3792.224146
3782.746722
3967.875892
3941.374633
3902.996727
3854.992797
3800.416171
3743.582693
3690.785187
3651.501289
3640.465212
3841.823325
3813.277199
3771.922125
3720.163686
3661.264058
3599.832983
3542.588881
3499.645476
3486.721557
3705.840187
3675.186222
3630.768263
3575.155817
3511.825933
3445.680095
3383.843616
3337.017953
3321.808358
3560.014302
3527.239759
3479.747294
3420.27604
3352.518262
3281.654729
3215.180334
3164.302666
3146.356354
3404.678407
3369.827401
3319.332409
3256.104076
3184.044099
3108.589597
3037.549618
2982.524794
2961.367092
3240.429594
3203.607716
3150.272333
3083.503303
3007.399769
2927.622428
2852.222989
2793.055267
2768.231107
3068.139423
3029.515828
2973.595189
2903.61997
2823.868917
2740.185112
2660.778853
2597.597877
2568.725529
2888.95243
2848.759009
2790.599872
2717.869289
2635.00266
2547.977875
2465.071712
2398.156482
2364.98583
2704.271352
2662.798881
2602.833869
2527.907761
2442.585564
2352.928373
2267.184354
2196.981101
2159.448248
2515.728422
2473.319846
2412.057514
2335.592084
2248.588102
2157.136568
2069.363811
1996.493292
1954.762272
2325.143225
2282.184435
2220.195617
2142.925838
2055.107001
1962.806929
1873.942848
1799.192972
1753.676096
2134.468689
2091.377236
2029.278181
1951.995696
1864.295286
1772.170016
1683.249728
1607.550873
1558.901966
1945.727454
1902.939563
1841.372312
1764.899226
1678.284247
1587.39629
1499.510401
1423.893316
1372.972467
1760.941196
1718.897354
1658.507713
1583.666833
1499.100419
1410.506351
1324.749389
1250.288764
1198.102302
1582.055734
1541.185133
1482.598844
1410.181441
1328.582227
1243.284031
1160.698204
1088.448321
1036.072382
1410.865348
1371.569746
1315.367958
1246.101103
1168.302986
1087.201037
1008.722671
939.654876
888.1552841
1248.940875
1211.578839
1158.274716
1092.791237
1019.508261
943.3631071
869.7823396
804.7395504
755.2664149
1097.567623
1062.440559
1012.459318
951.2737803
883.0748859
812.4855401
744.5126034
684.4071686
637.6590416
957.7008007
925.0425845
878.707654
822.2018006
759.4966497
695.1033895
633.1820088
578.2104648
534.4197727
829.9482728
799.9213795
757.4508607
706.0323911
649.2251159
590.9099801
534.534691
484.8920605
445.3249594
714.7021813
687.4904279
649.1044467
602.6454597
551.5331924
498.8354926
448.976714
404.7370032
369.1800186
611.9587859
587.4441534
552.9656137
510.9280112
465.433788
419.1964022
375.2446417
336.308776
304.8425931
520.5584629
498.6958712
468.0487622
431.2621971
391.1942258
350.6821222
312.3502247
278.4824276
251.0296863
440.9365256
421.6281568
394.6487937
362.402552
327.4501547
292.2968722
259.2013784
230.0616977
206.4203937
371.8742566
354.9748877
331.4364876
303.4207192
273.2035169
242.9757636
214.6668598
189.8451221
169.7246937
312.4879965
297.8220403
277.4581422
253.3207459
227.4143776
201.6386084
177.629666
156.676419
139.7315638
261.8305411
249.2031052
231.7230556
211.0875636
189.0465509
167.2334474
147.0264615
129.4799205
115.3398364
218.9345507
208.1413292
193.2444093
175.7270093
157.1037542
138.768562
121.8750986
107.2824341
95.57423133
182.8495301
173.6852417
161.0721346
146.2954772
130.6557652
115.3341103
101.2908573
89.22384306
79.58984321
152.6697926
144.9347362
134.3167937
121.920828
108.855187
96.11423588
84.49356302
74.55893434
66.66874792
127.5542325
121.0592898
112.1652132
101.8147485
90.94606476
80.39149242
70.80775226
62.65328612
56.21012911
106.7384613
101.3084975
93.88876353
85.278202
76.26598863
67.5456526
59.65765164
52.97373705
47.71733897
89.54059444
85.01650995
78.84580922
71.70143626
64.24376601
57.04801342
50.5581758
45.07647817
40.78186821
75.36205048
71.60169301
66.48004149
60.56064171
54.3932655
48.45327108
43.10463797
38.5931547
35.13202319
63.68504531
60.56334797
56.3155435
51.41119901
46.30593751
41.39110462
36.96420536
33.30568623
30.49860365
54.06700005
51.47522315
47.94973977
43.88003126
39.64212519
35.55704685
31.95553762
28.94721769
26.60720209
46.13350644
43.97812791
41.04517324
37.65643564
34.12127555
30.79782103
27.80700602
25.28454821
23.32418381
39.57013193
37.77126039
35.32009351
32.49912418
29.62077347
26.83385652
24.31574792
22.19102925
20.53770643
34.11315993
32.60313284
30.59867459
28.276811
25.84568101
23.49222502
21.36291802
19.56197116
18.15843267
29.61198011
28.37297612
26.67993707
24.71548679
22.65754113
20.66160833
18.8506963
17.31697384
16.16081733
25.85273294
24.80308174
23.36864977
21.70209882
19.95226084
18.24979888
16.701764
15.42456706
14.44040073
22.67225191
21.78081075
20.56085995
19.140081
17.64352896
16.18378699
14.88477328
13.78939086
12.93713988
19.97199764
19.21124575
18.16794368
16.94942407
15.66297503
14.43375721
13.3133971
12.35760118
11.61377126