/*--------------------------------*- C++ -*----------------------------------*\
| =========                 |                                                 |
| \\      /  F ield         | OpenFOAM: The Open Source CFD Toolbox           |
|  \\    /   O peration     | Version:  2212                                  |
|   \\  /    A nd           | Website:  www.openfoam.com                      |
|    \\/     M anipulation  |                                                 |
\*---------------------------------------------------------------------------*/
FoamFile
{
    version     2.0;
    format      ascii;
    arch        "LSB;label=32;scalar=64";
    class       volScalarField;
    location    "19.75000000";
    object      SC3H5;
}
// * * * * * * * * * * * * * * * * * * * * * * * * * * * * * * * * * * * * * //

dimensions      [0 0 0 0 0 0 0];

internalField   nonuniform List<scalar> 
3000
(
1.165718771e-22
1.309563423e-22
1.526625073e-22
1.815880614e-22
2.17439072e-22
2.592420231e-22
3.044784552e-22
3.476427454e-22
3.7816545e-22
4.376709531e-22
4.936609681e-22
5.781137349e-22
6.909052387e-22
8.31923922e-22
1.000387962e-21
1.193372522e-21
1.401134238e-21
1.585175245e-21
9.803922389e-22
1.114493133e-21
1.31869559e-21
1.595958115e-21
1.951267811e-21
2.389779203e-21
2.90976579e-21
3.482031758e-21
3.971124534e-21
1.867478985e-21
2.145158297e-21
2.574194402e-21
3.169107008e-21
3.950975062e-21
4.939667365e-21
6.129789302e-21
7.426064295e-21
8.47234605e-21
3.316346214e-21
3.856213901e-21
4.70348313e-21
5.901198285e-21
7.505699441e-21
9.561962215e-21
1.203563981e-20
1.466260187e-20
1.667916132e-20
5.703071149e-21
6.716383531e-21
8.329480411e-21
1.064532055e-20
1.378745302e-20
1.783495346e-20
2.266694483e-20
2.767407084e-20
3.137850564e-20
9.682451409e-21
1.15439126e-20
1.454172667e-20
1.889415107e-20
2.484359191e-20
3.250836262e-20
4.157147283e-20
5.077985874e-20
5.74243232e-20
1.638718724e-20
1.97562026e-20
2.523018224e-20
3.323925448e-20
4.423023731e-20
5.836149662e-20
7.492414937e-20
9.150740562e-20
1.032738113e-19
2.778014244e-20
3.381330992e-20
4.367950755e-20
5.818820207e-20
7.813435827e-20
1.03710013e-19
1.334705992e-19
1.629584497e-19
1.836503435e-19
4.726069935e-20
5.798001011e-20
7.559006244e-20
1.015705821e-19
1.373104004e-19
1.830177825e-19
2.359102982e-19
2.879344466e-19
3.241694172e-19
8.072041135e-20
9.965442373e-20
1.308592815e-19
1.769907386e-19
2.404545692e-19
3.214380058e-19
4.147673734e-19
5.060955957e-19
5.693879776e-19
1.383729738e-19
1.716707693e-19
2.266699198e-19
3.080825203e-19
4.200634154e-19
5.627060388e-19
7.266030421e-19
8.864120365e-19
9.967821249e-19
2.379323595e-19
2.963005068e-19
3.928574762e-19
5.359039873e-19
7.326127931e-19
9.828460107e-19
1.269743868e-18
1.54878152e-18
1.741034204e-18
4.101284574e-19
5.121964665e-19
6.812266102e-19
9.317746695e-19
1.276231828e-18
1.713974054e-18
2.215070594e-18
2.701563702e-18
3.036178661e-18
7.082804265e-19
8.864471447e-19
1.181724352e-18
1.619560029e-18
2.221379647e-18
2.98560663e-18
3.859442544e-18
4.706710638e-18
5.288748624e-18
1.224911206e-18
1.535497342e-18
2.050510421e-18
2.814350242e-18
3.864092865e-18
5.196364478e-18
6.718433111e-18
8.192815152e-18
9.20471267e-18
2.120585778e-18
2.66146349e-18
3.558686477e-18
4.889607902e-18
6.718425804e-18
9.038452532e-18
1.168731952e-17
1.42513457e-17
1.600985499e-17
3.673979091e-18
4.615188118e-18
6.176912846e-18
8.493777635e-18
1.167699341e-17
1.571385113e-17
2.032066275e-17
2.477745517e-17
2.783251183e-17
6.368821483e-18
8.005747016e-18
1.072237452e-17
1.475282784e-17
2.028982362e-17
2.730982055e-17
3.531791834e-17
4.30619265e-17
4.836813781e-17
1.104489688e-17
1.389063824e-17
1.861402907e-17
2.562200278e-17
3.524858187e-17
4.745085777e-17
6.136643216e-17
7.481845115e-17
8.403271647e-17
1.916027641e-17
2.410608117e-17
3.231587057e-17
4.449659266e-17
6.122717557e-17
8.243014922e-17
1.066039162e-16
1.299656825e-16
1.459643733e-16
3.32466764e-17
4.184056357e-17
5.610657203e-17
7.727222281e-17
1.063405924e-16
1.431723682e-16
1.851543372e-16
2.257154796e-16
2.534868002e-16
5.77000218e-17
7.263058905e-17
9.741553817e-17
1.341850227e-16
1.846758399e-16
2.486372706e-16
3.215226378e-16
3.919211335e-16
4.401089459e-16
1.001523413e-16
1.260884666e-16
1.691406736e-16
2.330028606e-16
3.206793272e-16
4.317170683e-16
5.582055923e-16
6.803364202e-16
7.63908987e-16
1.738517477e-16
2.188996088e-16
2.936683595e-16
4.045577924e-16
5.567572536e-16
7.49442338e-16
9.688484187e-16
1.180603392e-15
1.325446782e-15
3.017877469e-16
3.800172181e-16
5.098381216e-16
7.023249975e-16
9.664228179e-16
1.300615954e-15
1.680948064e-15
2.047808082e-15
2.298612457e-15
5.238330691e-16
6.596531822e-16
8.849906324e-16
1.218979437e-15
1.676995411e-15
2.256216323e-15
2.914932733e-15
3.549834644e-15
3.983576025e-15
9.090903057e-16
1.144816295e-15
1.535775199e-15
2.114958281e-15
2.908698228e-15
3.911663935e-15
5.051202515e-15
6.148437882e-15
6.89730907e-15
1.577194297e-15
1.986107508e-15
2.663997574e-15
3.66759793e-15
5.041788791e-15
6.77634903e-15
8.744661324e-15
1.063739658e-14
1.192755908e-14
2.734977432e-15
3.443805168e-15
4.618195333e-15
6.355376842e-15
8.731365465e-15
1.172628715e-14
1.511937433e-14
1.83765909e-14
2.059315922e-14
4.739389451e-15
5.966866609e-15
7.999012382e-15
1.100173303e-14
1.510275667e-14
2.026297506e-14
2.609734713e-14
3.168589613e-14
3.548091992e-14
8.205089473e-15
1.03278237e-14
1.38387216e-14
1.901933205e-14
2.608211494e-14
3.494943266e-14
4.494975516e-14
5.450270291e-14
6.097271495e-14
1.418766671e-14
1.785205125e-14
2.390545689e-14
3.282244443e-14
4.495194221e-14
6.013906086e-14
7.721327989e-14
9.346945692e-14
1.044439545e-13
2.449417301e-14
3.08053508e-14
4.121563802e-14
5.651827382e-14
7.727722366e-14
1.031832423e-13
1.32198754e-13
1.597140454e-13
1.782181389e-13
4.220661374e-14
5.304519804e-14
7.08910626e-14
9.705675763e-14
1.32435679e-13
1.764124932e-13
2.254486387e-13
2.717318869e-13
3.027179887e-13
7.255916532e-14
9.110758994e-14
1.215813493e-13
1.661260214e-13
2.261213304e-13
3.003517901e-13
3.826943053e-13
4.599960305e-13
5.114844071e-13
1.243983963e-13
1.560072201e-13
2.078043994e-13
2.832468629e-13
3.843968141e-13
5.08879046e-13
6.461517806e-13
7.742405208e-13
8.590715013e-13
2.125961765e-13
2.661945515e-13
3.537613625e-13
4.80772157e-13
6.501782583e-13
8.574019162e-13
1.084414244e-12
1.29482427e-12
1.433312419e-12
3.620045942e-13
4.523694418e-13
5.994923503e-13
8.118745141e-13
1.093490508e-12
1.435660539e-12
1.807804533e-12
2.15024569e-12
2.3741478e-12
6.13880048e-13
7.652395792e-13
1.010701591e-12
1.363160062e-12
1.827488518e-12
2.38752845e-12
2.991915524e-12
3.543824478e-12
3.902203346e-12
1.036212698e-12
1.287889387e-12
1.694256963e-12
2.274345478e-12
3.033179523e-12
3.941269577e-12
4.913293973e-12
5.793913998e-12
6.361722646e-12
1.740144351e-12
2.155260381e-12
2.822332241e-12
3.768560304e-12
4.99709425e-12
6.455230816e-12
8.002956479e-12
9.393926534e-12
1.028449657e-11
2.905716573e-12
3.584410263e-12
4.669484662e-12
6.198367072e-12
8.167941408e-12
1.048603881e-11
1.292584913e-11
1.510119197e-11
1.648437872e-11
4.821625178e-12
5.920768801e-12
7.668687359e-12
1.011456345e-11
1.324058537e-11
1.688912149e-11
2.06976708e-11
2.40675737e-11
2.619632252e-11
7.94549221e-12
9.707536242e-12
1.249441074e-11
1.636713437e-11
2.127836443e-11
2.696466501e-11
3.285470825e-11
3.803020879e-11
4.128039793e-11
1.299337285e-11
1.578756954e-11
2.018303605e-11
2.624993539e-11
3.388715755e-11
4.266508804e-11
5.169666606e-11
5.95874725e-11
6.452068646e-11
2.106979495e-11
2.544944827e-11
3.230281016e-11
4.170197089e-11
5.345509547e-11
6.688003161e-11
8.06229592e-11
9.258875674e-11
1.000576711e-10
3.385301256e-11
4.063223583e-11
5.118726117e-11
6.557780434e-11
8.346800387e-11
1.038055987e-10
1.245661702e-10
1.426417386e-10
1.539632383e-10
5.385617679e-11
6.420882257e-11
8.024981678e-11
1.019999296e-10
1.289029473e-10
1.593784809e-10
1.904582656e-10
2.175837702e-10
2.34666025e-10
8.479856003e-11
1.003814355e-10
1.244108384e-10
1.56816981e-10
1.967027316e-10
2.417163527e-10
2.874884997e-10
3.271625384e-10
3.510683903e-10
1.321504676e-10
1.552546631e-10
1.907023987e-10
2.382246986e-10
2.963482393e-10
3.614272857e-10
4.264811901e-10
4.801985117e-10
5.122240314e-10
2.039706805e-10
2.377072315e-10
2.891624795e-10
3.576033574e-10
4.403506752e-10
5.307935399e-10
6.165004598e-10
6.855767738e-10
7.254154687e-10
3.122260588e-10
3.607307714e-10
4.34077318e-10
5.302316869e-10
6.429694763e-10
7.591071689e-10
8.650158508e-10
9.452872889e-10
9.873932023e-10
4.746773274e-10
5.431277255e-10
6.448310661e-10
7.731357183e-10
9.149588985e-10
1.054133948e-09
1.17040812e-09
1.245206682e-09
1.272666363e-09
7.162886273e-10
8.095139073e-10
9.409793037e-10
1.099869175e-09
1.266642207e-09
1.414532017e-09
1.513996575e-09
1.546081456e-09
1.525132212e-09
1.061732353e-09
1.178207586e-09
1.33950402e-09
1.524026617e-09
1.698845783e-09
1.82191797e-09
1.854196671e-09
1.785811667e-09
1.671955163e-09
1.533662672e-09
1.672483095e-09
1.855956428e-09
2.046498913e-09
2.191530462e-09
2.232318892e-09
2.129908454e-09
1.904873848e-09
1.671438966e-09
2.152472438e-09
2.302791495e-09
2.484546982e-09
2.638036244e-09
2.689207688e-09
2.573523797e-09
2.27934815e-09
1.88467518e-09
1.554317315e-09
2.90886927e-09
3.043108769e-09
3.174525153e-09
3.220151867e-09
3.096247123e-09
2.763469809e-09
2.273189696e-09
1.761624121e-09
1.394915507e-09
3.732016787e-09
3.802050919e-09
3.810961111e-09
3.666164036e-09
3.306921185e-09
2.758540539e-09
2.140502225e-09
1.59822267e-09
1.247981687e-09
4.46741411e-09
4.415628633e-09
4.233660116e-09
3.852801815e-09
3.274375479e-09
2.594507047e-09
1.950544981e-09
1.44245543e-09
1.131450707e-09
4.912829099e-09
4.707205324e-09
4.323228003e-09
3.750178449e-09
3.055868056e-09
2.360142605e-09
1.763565566e-09
1.314884205e-09
1.045029139e-09
4.942120602e-09
4.612980492e-09
4.101575495e-09
3.454231958e-09
2.765180501e-09
2.130711607e-09
1.608226582e-09
1.219350214e-09
9.850309536e-10
4.619410217e-09
4.245568828e-09
3.716761637e-09
3.103293326e-09
2.489394495e-09
1.940902345e-09
1.491433775e-09
1.154108499e-09
9.485821934e-10
4.140514168e-09
3.790706807e-09
3.316992249e-09
2.786479048e-09
2.26478001e-09
1.798482325e-09
1.411730945e-09
1.116519158e-09
9.337795155e-10
3.670255445e-09
3.373456606e-09
2.97660525e-09
2.534502487e-09
2.097346015e-09
1.701005266e-09
1.365729444e-09
1.104317796e-09
9.394775031e-10
3.279444497e-09
3.037624434e-09
2.713270846e-09
2.34862695e-09
1.982504769e-09
1.643656068e-09
1.350196344e-09
1.115936041e-09
9.652008241e-10
2.979249657e-09
2.784968557e-09
2.521771244e-09
2.22133343e-09
1.9135339e-09
1.621816269e-09
1.362644605e-09
1.150525003e-09
1.011066597e-09
2.759721559e-09
2.604620479e-09
2.391608298e-09
2.143868548e-09
1.884216634e-09
1.631763479e-09
1.401381283e-09
1.207837329e-09
1.07765198e-09
2.607235652e-09
2.484206228e-09
2.312497727e-09
2.108562062e-09
1.889502089e-09
1.670695947e-09
1.465341082e-09
1.288026196e-09
1.165804431e-09
2.509359231e-09
2.412948098e-09
2.275880526e-09
2.109253284e-09
1.925449869e-09
1.736512608e-09
1.553831725e-09
1.391397903e-09
1.276409647e-09
2.456046046e-09
2.38224796e-09
2.27500362e-09
2.141102087e-09
1.98894679e-09
1.827518775e-09
1.666253129e-09
1.518145835e-09
1.410136636e-09
2.439506999e-09
2.38542996e-09
2.304581013e-09
2.200236875e-09
2.077381582e-09
1.942133943e-09
1.801827898e-09
1.668092102e-09
1.567184499e-09
2.45374498e-09
2.417291084e-09
2.360386077e-09
2.283406099e-09
2.188353722e-09
2.078641684e-09
1.959372752e-09
1.840466e-09
1.747061646e-09
2.494075934e-09
2.473674277e-09
2.438894444e-09
2.387693698e-09
2.319449712e-09
2.235007338e-09
2.137138028e-09
2.033750561e-09
1.948431922e-09
2.556731396e-09
2.551126593e-09
2.537012292e-09
2.510318138e-09
2.46810242e-09
2.408781489e-09
2.332738144e-09
2.245624997e-09
2.169058769e-09
2.638559813e-09
2.646651852e-09
2.651894225e-09
2.648518325e-09
2.631539176e-09
2.597098887e-09
2.543186381e-09
2.473016564e-09
2.405849651e-09
2.73681924e-09
2.75754983e-09
2.780843281e-09
2.799520581e-09
2.806815435e-09
2.796774258e-09
2.76504592e-09
2.712300061e-09
2.655165644e-09
2.849047062e-09
2.881327856e-09
2.921278905e-09
2.96057133e-09
2.990915872e-09
3.004471257e-09
2.994663604e-09
2.959672008e-09
2.913122423e-09
2.972990526e-09
3.015667897e-09
3.070754e-09
3.129011822e-09
3.180894893e-09
3.216907716e-09
3.228540289e-09
3.211449303e-09
3.17613166e-09
3.106581319e-09
3.158429906e-09
3.226999895e-09
3.302355086e-09
3.374029527e-09
3.431169627e-09
3.463459698e-09
3.464184311e-09
3.439941884e-09
3.247939004e-09
3.307662524e-09
3.388006773e-09
3.478584021e-09
3.568148524e-09
3.644839359e-09
3.696697846e-09
3.714097149e-09
3.700565646e-09
3.395423916e-09
3.461847155e-09
3.552250748e-09
3.656064154e-09
3.7616222e-09
3.855968373e-09
3.925241793e-09
3.95792515e-09
3.954556407e-09
3.547849955e-09
3.619758064e-09
3.718588893e-09
3.833853368e-09
3.953033013e-09
4.062255763e-09
4.146647105e-09
4.193039899e-09
4.199124636e-09
3.704462775e-09
3.780877024e-09
3.886558126e-09
4.010661998e-09
4.140552503e-09
4.26189772e-09
4.359049255e-09
4.417446423e-09
4.432139853e-09
3.8646358e-09
3.944031916e-09
4.054371815e-09
4.184821472e-09
4.322726747e-09
4.45354123e-09
4.561094881e-09
4.629710263e-09
4.65206152e-09
4.026315998e-09
4.107367528e-09
4.220481165e-09
4.355011915e-09
4.498437927e-09
4.636197699e-09
4.751839339e-09
4.828851691e-09
4.857835693e-09
4.187781141e-09
4.269339126e-09
4.383576256e-09
4.520151224e-09
4.666807153e-09
4.809140229e-09
4.930638457e-09
5.014235088e-09
5.04878523e-09
4.347528177e-09
4.42859575e-09
4.542506988e-09
4.679305438e-09
4.827107205e-09
4.97181439e-09
5.097055146e-09
5.185472085e-09
5.22451183e-09
4.504185579e-09
4.583900284e-09
4.696218521e-09
4.831627424e-09
4.978701752e-09
5.123774298e-09
5.250790165e-09
5.342347184e-09
5.384818769e-09
4.656466981e-09
4.734088815e-09
4.843717249e-09
4.976324996e-09
5.121012027e-09
5.264644695e-09
5.391637735e-09
5.484766947e-09
5.529655928e-09
4.803157662e-09
4.878059969e-09
4.984062504e-09
5.112652537e-09
5.253505559e-09
5.394104263e-09
5.519461815e-09
5.612729206e-09
5.659084125e-09
4.943121418e-09
5.014782848e-09
5.116374853e-09
5.239917917e-09
5.375699572e-09
5.511883447e-09
5.634186966e-09
5.726306857e-09
5.773253828e-09
5.075317165e-09
5.143313858e-09
5.239852441e-09
5.35749703e-09
5.487172037e-09
5.617770343e-09
5.73579783e-09
5.82564076e-09
5.872393211e-09
5.198817641e-09
5.262815337e-09
5.353788956e-09
5.464850057e-09
5.587574892e-09
5.711619499e-09
5.824342445e-09
5.910937306e-09
5.956801368e-09
5.312825484e-09
5.372571538e-09
5.45758906e-09
5.56153556e-09
5.676645774e-09
5.793360166e-09
5.899936079e-09
5.982467529e-09
6.02684374e-09
5.41668426e-09
5.471999662e-09
5.550779134e-09
5.647220382e-09
5.754216291e-09
5.863002061e-09
5.962763699e-09
6.040565913e-09
6.082947963e-09
5.509883694e-09
5.560655241e-09
5.633012654e-09
5.721684649e-09
5.820216108e-09
5.920637873e-09
6.013080222e-09
6.085627981e-09
6.125599196e-09
5.592059438e-09
5.638232182e-09
5.704070493e-09
5.784822138e-09
5.874673013e-09
5.966442521e-09
6.051208421e-09
6.118106434e-09
6.155334627e-09
5.662988273e-09
5.704558367e-09
5.763856968e-09
5.83663671e-09
5.917709528e-09
6.000669601e-09
6.077534755e-09
6.138505937e-09
6.17273716e-09
5.722579854e-09
5.759587843e-09
5.812392637e-09
5.87723573e-09
5.949536863e-09
6.023645635e-09
6.092503552e-09
6.147376842e-09
6.178428479e-09
5.770866076e-09
5.803390685e-09
5.849804819e-09
5.906821362e-09
5.970446972e-09
6.035762753e-09
6.096610039e-09
6.145308177e-09
6.173061718e-09
5.807988985e-09
5.836141388e-09
5.876316699e-09
5.925680516e-09
5.980803396e-09
6.037470368e-09
6.090392644e-09
6.132920239e-09
6.157313982e-09
5.834187963e-09
5.858106545e-09
5.892235685e-09
5.934174071e-09
5.981031457e-09
6.029266327e-09
6.074424938e-09
6.110857028e-09
6.13187893e-09
5.849786742e-09
5.869632297e-09
5.897941544e-09
5.932725869e-09
5.971608229e-09
6.011687886e-09
6.049307528e-09
6.079778794e-09
6.097459571e-09
5.855180618e-09
5.87113198e-09
5.893874674e-09
5.921811813e-09
5.953052606e-09
5.985302819e-09
6.015660118e-09
6.040354829e-09
6.054761436e-09
5.85082413e-09
5.863074199e-09
5.880524784e-09
5.901949332e-09
5.925915717e-09
5.95070084e-09
5.974113925e-09
5.993256674e-09
6.004486205e-09
5.837219381e-09
5.845971517e-09
5.858420148e-09
5.873687399e-09
5.890771839e-09
5.908485523e-09
5.925304568e-09
5.939151824e-09
5.947325891e-09
5.81490512e-09
5.820369887e-09
5.828117575e-09
5.837597205e-09
5.848209943e-09
5.859266808e-09
5.869865542e-09
5.878698016e-09
5.883957614e-09
5.784446639e-09
5.786838885e-09
5.790193146e-09
5.794263584e-09
5.798825952e-09
5.803654177e-09
5.808422325e-09
5.812538143e-09
5.815039021e-09
5.746426552e-09
5.745962802e-09
5.7452338e-09
5.74427724e-09
5.743215751e-09
5.742250556e-09
5.741587172e-09
5.741295833e-09
5.741204361e-09
5.701436459e-09
5.698332618e-09
5.693829767e-09
5.688227804e-09
5.681968994e-09
5.67564695e-09
5.669954607e-09
5.665571693e-09
5.663061208e-09
5.650069523e-09
5.644538869e-09
5.636567879e-09
5.626697728e-09
5.615663702e-09
5.604417841e-09
5.594097621e-09
5.585940218e-09
5.581187849e-09
5.59291394e-09
5.585165395e-09
5.57402574e-09
5.560257005e-09
5.544861658e-09
5.529117309e-09
5.514564554e-09
5.502947351e-09
5.496131276e-09
5.530547284e-09
5.520783954e-09
5.50676674e-09
5.489458708e-09
5.470104553e-09
5.450275886e-09
5.431876642e-09
5.417108653e-09
5.408405773e-09
5.46353171e-09
5.451949677e-09
5.43533588e-09
5.414835296e-09
5.391910882e-09
5.368398069e-09
5.34652618e-09
5.328908041e-09
5.318492043e-09
5.392409967e-09
5.379197313e-09
5.36025637e-09
5.336895657e-09
5.31077351e-09
5.283960476e-09
5.258975269e-09
5.238797062e-09
5.226836831e-09
5.317702177e-09
5.303038224e-09
5.282026938e-09
5.256122839e-09
5.227157878e-09
5.197410581e-09
5.169655073e-09
5.147194626e-09
5.133852975e-09
5.23990332e-09
5.223958075e-09
5.201119816e-09
5.172972394e-09
5.141500792e-09
5.109165967e-09
5.078965553e-09
5.054487159e-09
5.03991985e-09
5.15948138e-09
5.142415152e-09
5.11797932e-09
5.087871293e-09
5.054209718e-09
5.019614042e-09
4.987275601e-09
4.961029118e-09
4.94538413e-09
5.07687607e-09
5.058839256e-09
5.033020972e-09
5.001217348e-09
4.965662538e-09
4.929112159e-09
4.894923524e-09
4.867143796e-09
4.850560819e-09
4.992498091e-09
4.973631091e-09
4.946631099e-09
4.913379057e-09
4.876207699e-09
4.837988079e-09
4.802217822e-09
4.773124383e-09
4.755734503e-09
4.906728839e-09
4.887162105e-09
4.859166842e-09
4.824695841e-09
4.78616469e-09
4.74654072e-09
4.709438202e-09
4.67923522e-09
4.661160769e-09
4.819920518e-09
4.799774701e-09
4.770956522e-09
4.735478585e-09
4.695824799e-09
4.655041133e-09
4.616836782e-09
4.585713201e-09
4.567067744e-09
4.732396585e-09
4.711782765e-09
4.682300288e-09
4.646010448e-09
4.605452095e-09
4.56373367e-09
4.524639434e-09
4.492769282e-09
4.473657717e-09
4.644452468e-09
4.623472461e-09
4.593471013e-09
4.556547876e-09
4.515284581e-09
4.472837283e-09
4.433047235e-09
4.400590059e-09
4.381108813e-09
4.556356511e-09
4.53510323e-09
4.504715372e-09
4.467321782e-09
4.425535477e-09
4.38254692e-09
4.342237974e-09
4.309339386e-09
4.28957668e-09
4.4683511e-09
4.446908952e-09
4.416255069e-09
4.378538835e-09
4.336394597e-09
4.293034989e-09
4.252367696e-09
4.219159991e-09
4.199196168e-09
4.380653907e-09
4.359099235e-09
4.328288156e-09
4.290382845e-09
4.248029783e-09
4.204452848e-09
4.163572261e-09
4.130175088e-09
4.110082977e-09
4.293459245e-09
4.271860773e-09
4.240990432e-09
4.203016183e-09
4.160588367e-09
4.116932305e-09
4.075968872e-09
4.04248995e-09
4.022335262e-09
4.206939465e-09
4.185358768e-09
4.154516874e-09
4.116581232e-09
4.074198636e-09
4.030587103e-09
3.989657581e-09
3.95619343e-09
3.936035171e-09
4.121246395e-09
4.099738363e-09
4.069003075e-09
4.031201834e-09
3.988971282e-09
3.945514369e-09
3.904722747e-09
3.871359423e-09
3.851250321e-09
4.036512778e-09
4.015126086e-09
3.984566683e-09
3.946984714e-09
3.905000816e-09
3.861796018e-09
3.821234426e-09
3.788048261e-09
3.768035188e-09
3.952853702e-09
3.931631265e-09
3.901308801e-09
3.864020868e-09
3.822366937e-09
3.779500105e-09
3.739249704e-09
3.706308023e-09
3.686432421e-09
3.870367993e-09
3.849347412e-09
3.819315357e-09
3.782386906e-09
3.741135848e-09
3.698682106e-09
3.658813952e-09
3.626175779e-09
3.606474065e-09
3.789139569e-09
3.768353558e-09
3.738658415e-09
3.702146335e-09
3.661361502e-09
3.619386127e-09
3.579962004e-09
3.547678735e-09
3.528182709e-09
3.709238739e-09
3.688715537e-09
3.659397428e-09
3.623350777e-09
3.583086783e-09
3.541646054e-09
3.502719263e-09
3.470835313e-09
3.451572534e-09
3.630723439e-09
3.610487201e-09
3.581580427e-09
3.546041124e-09
3.506344617e-09
3.465486608e-09
3.427102721e-09
3.395656137e-09
3.376650292e-09
3.553640404e-09
3.533711572e-09
3.505245143e-09
3.470248619e-09
3.431159011e-09
3.390924346e-09
3.353121913e-09
3.322144953e-09
3.303416204e-09
3.478026258e-09
3.458421909e-09
3.430420042e-09
3.395995852e-09
3.357546008e-09
3.317968569e-09
3.280779783e-09
3.250299459e-09
3.231864765e-09
3.403908557e-09
3.384642724e-09
3.357125306e-09
3.323297701e-09
3.285514572e-09
3.246622158e-09
3.210073476e-09
3.180112068e-09
3.161985495e-09
3.331306739e-09
3.31239072e-09
3.28537374e-09
3.252162199e-09
3.215067424e-09
3.17688236e-09
3.140995082e-09
3.111570603e-09
3.093763607e-09
3.260233018e-09
3.241675654e-09
3.215171609e-09
3.182591332e-09
3.146201781e-09
3.108741493e-09
3.07353229e-09
3.04465893e-09
3.027180621e-09
3.190693191e-09
3.17250113e-09
3.146519396e-09
3.114581762e-09
3.078910051e-09
3.042187581e-09
3.007668993e-09
2.979357521e-09
2.962214907e-09
3.122687376e-09
3.104865322e-09
3.079412502e-09
3.048125493e-09
3.013180453e-09
2.977204948e-09
2.943385836e-09
2.915643972e-09
2.898842188e-09
3.056210655e-09
3.038761613e-09
3.01384187e-09
2.983210468e-09
2.948997581e-09
2.913774736e-09
2.880660698e-09
2.853493459e-09
2.83703597e-09
2.991253652e-09
2.974179182e-09
2.949794563e-09
2.919821117e-09
2.886342918e-09
2.851875384e-09
2.81946914e-09
2.792879148e-09
2.776767942e-09
2.927803158e-09
2.911103582e-09
2.887254294e-09
2.857938861e-09
2.8251953e-09
2.791483057e-09
2.759784793e-09
2.733772565e-09
2.718008327e-09
2.865842884e-09
2.849517328e-09
2.826201957e-09
2.797542579e-09
2.765531347e-09
2.732572034e-09
2.701579718e-09
2.676143923e-09
2.66072619e-09
2.805354075e-09
2.789400457e-09
2.766616123e-09
2.738609052e-09
2.707325848e-09
2.675115058e-09
2.644824721e-09
2.619962411e-09
2.604889716e-09
2.746315828e-09
2.730731089e-09
2.708473444e-09
2.681113323e-09
2.650552105e-09
2.619083645e-09
2.589489629e-09
2.56519645e-09
2.550466449e-09
2.688705165e-09
2.673485376e-09
2.651748938e-09
2.625029008e-09
2.595182217e-09
2.564448347e-09
2.535543535e-09
2.511813916e-09
2.497423506e-09
2.632497431e-09
2.617637981e-09
2.596416154e-09
2.570328546e-09
2.541187339e-09
2.511178995e-09
2.482955016e-09
2.459782338e-09
2.445727764e-09
2.57766662e-09
2.563162368e-09
2.542447831e-09
2.516983545e-09
2.488537933e-09
2.459244908e-09
2.431692321e-09
2.409069073e-09
2.395346016e-09
2.524185614e-09
2.51003094e-09
2.489815638e-09
2.464964877e-09
2.43720394e-09
2.40861507e-09
2.381723531e-09
2.359641446e-09
2.346245114e-09
2.472026422e-09
2.458215322e-09
2.438490669e-09
2.414242899e-09
2.387154943e-09
2.359258278e-09
2.333016697e-09
2.311466881e-09
2.298392083e-09
2.4211604e-09
2.407686551e-09
2.388443501e-09
2.364787607e-09
2.338360332e-09
2.31114329e-09
2.285539971e-09
2.264513014e-09
2.251754231e-09
2.371558465e-09
2.358415299e-09
2.339644471e-09
2.31656894e-09
2.290789502e-09
2.264238967e-09
2.239261714e-09
2.218747788e-09
2.206299232e-09
2.323191248e-09
2.310371999e-09
2.29206372e-09
2.269556655e-09
2.244411875e-09
2.218514346e-09
2.194150586e-09
2.174139535e-09
2.161995203e-09
2.276029253e-09
2.263527008e-09
2.245671396e-09
2.223720653e-09
2.199197068e-09
2.173938751e-09
2.150175623e-09
2.130657039e-09
2.118810766e-09
2.230042997e-09
2.217850746e-09
2.200437792e-09
2.179031077e-09
2.155114996e-09
2.130481875e-09
2.107306308e-09
2.088269604e-09
2.076715099e-09
2.185203111e-09
2.173313789e-09
2.156333405e-09
2.135458348e-09
2.112135926e-09
2.088113841e-09
2.065512629e-09
2.046947092e-09
2.03567798e-09
2.141480435e-09
2.129886946e-09
2.113328994e-09
2.092973116e-09
2.070230507e-09
2.046805247e-09
2.024765115e-09
2.006659965e-09
1.995669818e-09
2.098846099e-09
2.087541347e-09
2.071395692e-09
2.051546544e-09
2.029369877e-09
2.006527218e-09
1.985034877e-09
1.967379314e-09
1.95666168e-09
2.057271586e-09
2.046248503e-09
2.03050505e-09
2.011150231e-09
1.989525678e-09
1.967251444e-09
1.94629364e-09
1.929076882e-09
1.918625313e-09
2.016728795e-09
2.005980358e-09
1.990629081e-09
1.971756276e-09
1.950670102e-09
1.928950204e-09
1.908513764e-09
1.891725084e-09
1.881533154e-09
1.977190088e-09
1.966709339e-09
1.951740307e-09
1.933337316e-09
1.912775917e-09
1.891596396e-09
1.871668259e-09
1.855297016e-09
1.845358345e-09
1.938628329e-09
1.928408395e-09
1.913811793e-09
1.895866561e-09
1.875816494e-09
1.855163555e-09
1.835730807e-09
1.81976647e-09
1.810074738e-09
1.901016921e-09
1.891051023e-09
1.876817174e-09
1.859317816e-09
1.839765825e-09
1.819625861e-09
1.800675762e-09
1.785107937e-09
1.775656896e-09
1.864329829e-09
1.854611295e-09
1.840730677e-09
1.823665498e-09
1.804598539e-09
1.784958158e-09
1.766478162e-09
1.751296607e-09
1.742080098e-09
1.828541603e-09
1.819063879e-09
1.805527137e-09
1.788884648e-09
1.770289906e-09
1.751135951e-09
1.733113727e-09
1.718308371e-09
1.709320331e-09
1.793627386e-09
1.784384045e-09
1.771182004e-09
1.75495094e-09
1.73681585e-09
1.718135412e-09
1.700558863e-09
1.686119819e-09
1.677354293e-09
1.759562933e-09
1.750547679e-09
1.737671355e-09
1.721840683e-09
1.70415294e-09
1.68593338e-09
1.668790656e-09
1.654708235e-09
1.646159382e-09
1.726324605e-09
1.717531282e-09
1.704971892e-09
1.689530825e-09
1.672278397e-09
1.654507357e-09
1.637786867e-09
1.62405159e-09
1.615713691e-09
1.69388937e-09
1.685311968e-09
1.673060933e-09
1.657998941e-09
1.641170085e-09
1.623835496e-09
1.607525923e-09
1.594128532e-09
1.585995999e-09
1.662234795e-09
1.653867452e-09
1.64191641e-09
1.627223225e-09
1.610806491e-09
1.593896593e-09
1.577986906e-09
1.564918374e-09
1.556985759e-09
1.631339022e-09
1.623176031e-09
1.611516838e-09
1.597182466e-09
1.581166712e-09
1.564670061e-09
1.549149527e-09
1.536401072e-09
1.52866307e-09
1.60118074e-09
1.593216548e-09
1.581841287e-09
1.567856014e-09
1.552230414e-09
1.536135893e-09
1.520994091e-09
1.508557189e-09
1.501008651e-09
1.571739128e-09
1.563968345e-09
1.552869329e-09
1.539223727e-09
1.523977778e-09
1.508274611e-09
1.493501445e-09
1.481367841e-09
1.474003784e-09
1.54299379e-09
1.535411183e-09
1.524580956e-09
1.511265886e-09
1.496389419e-09
1.481067179e-09
1.466652889e-09
1.454814612e-09
1.447630228e-09
1.514924639e-09
1.507525135e-09
1.496956471e-09
1.483963085e-09
1.469446261e-09
1.454494875e-09
1.440430049e-09
1.428879423e-09
1.421870087e-09
1.487511752e-09
1.480290431e-09
1.469976326e-09
1.457296055e-09
1.443129364e-09
1.428539112e-09
1.414814686e-09
1.403544335e-09
1.396705614e-09
1.460735163e-09
1.453687243e-09
1.443620899e-09
1.431245437e-09
1.417419675e-09
1.403181173e-09
1.389788419e-09
1.378791266e-09
1.37211892e-09
1.434574584e-09
1.427695403e-09
1.417870193e-09
1.405791446e-09
1.392297688e-09
1.378401851e-09
1.365332349e-09
1.354601593e-09
1.348091563e-09
1.40900905e-09
1.402294028e-09
1.39270345e-09
1.380913501e-09
1.367743003e-09
1.354180971e-09
1.341426541e-09
1.330955604e-09
1.324603989e-09
1.384016451e-09
1.377461036e-09
1.368098635e-09
1.356589634e-09
1.343733733e-09
1.330496752e-09
1.318049346e-09
1.307831791e-09
1.30163479e-09
1.359572955e-09
1.353172543e-09
1.344031792e-09
1.332795799e-09
1.320245758e-09
1.307325013e-09
1.295176546e-09
1.28520593e-09
1.27915976e-09
1.335652305e-09
1.329402134e-09
1.320476269e-09
1.309505048e-09
1.297251832e-09
1.284638196e-09
1.272780299e-09
1.263049962e-09
1.257150725e-09
1.312224991e-09
1.306119999e-09
1.297401821e-09
1.28668659e-09
1.274720525e-09
1.262404207e-09
1.250827881e-09
1.241330649e-09
1.235574143e-09
1.289257286e-09
1.283291929e-09
1.274773535e-09
1.264304617e-09
1.252614982e-09
1.240585077e-09
1.229280243e-09
1.220008035e-09
1.214389501e-09
1.266710154e-09
1.260878179e-09
1.252550619e-09
1.242317006e-09
1.230891539e-09
1.219135476e-09
1.208090408e-09
1.199033736e-09
1.193547537e-09
1.244538079e-09
1.238832254e-09
1.230685132e-09
1.220673995e-09
1.20949828e-09
1.198001139e-09
1.187201779e-09
1.178349138e-09
1.172988363e-09
1.222687822e-09
1.217099628e-09
1.209120656e-09
1.199316756e-09
1.188373528e-09
1.177117267e-09
1.166546428e-09
1.157883589e-09
1.152639591e-09
1.201097179e-09
1.195616472e-09
1.187790986e-09
1.178176041e-09
1.167444416e-09
1.156407005e-09
1.146043486e-09
1.137552706e-09
1.132414584e-09
1.179693807e-09
1.174308455e-09
1.166618985e-09
1.157170984e-09
1.146625631e-09
1.135780131e-09
1.125597775e-09
1.117256959e-09
1.112211008e-09
1.15839426e-09
1.153089979e-09
1.145515662e-09
1.13620816e-09
1.125818455e-09
1.115132084e-09
1.105098834e-09
1.09688069e-09
1.091909852e-09
1.137103716e-09
1.131863585e-09
1.124379602e-09
1.115181017e-09
1.104910237e-09
1.094343499e-09
1.084420514e-09
1.076291777e-09
1.071375133e-09
1.115715619e-09
1.110519698e-09
1.10309677e-09
1.093969788e-09
1.08377444e-09
1.073280392e-09
1.063421325e-09
1.055342124e-09
1.05045449e-09
1.094111731e-09
1.088936813e-09
1.081540871e-09
1.072442044e-09
1.062271406e-09
1.051795184e-09
1.041945715e-09
1.033869179e-09
1.028980863e-09
1.072162874e-09
1.066982398e-09
1.059574452e-09
1.050454039e-09
1.040250003e-09
1.029728687e-09
1.01982644e-09
1.011698658e-09
1.006775458e-09
1.049730435e-09
1.044514561e-09
1.03705082e-09
1.027852972e-09
1.017550298e-09
1.006913245e-09
9.968881709e-10
9.886486029e-10
9.836521243e-10
1.026668719e-09
1.021384595e-09
1.013816889e-09
1.004480231e-09
9.94007305e-10
9.83177053e-10
9.729524386e-10
9.6453488e-10
9.594232341e-10
1.002828183e-09
9.974404585e-10
9.897170229e-10
9.801757196e-10
9.694558874e-10
9.583497317e-10
9.478439016e-10
9.39178108e-10
9.339070599e-10
9.780595988e-10
9.725312011e-10
9.645978679e-10