/*--------------------------------*- C++ -*----------------------------------*\
| =========                 |                                                 |
| \\      /  F ield         | OpenFOAM: The Open Source CFD Toolbox           |
|  \\    /   O peration     | Version:  2106                                  |
|   \\  /    A nd           | Website:  www.openfoam.com                      |
|    \\/     M anipulation  |                                                 |
\*---------------------------------------------------------------------------*/
FoamFile
{
    version     2.0;
    format      ascii;
    arch        "LSB;label=32;scalar=64";
    class       volScalarField;
    location    "90.00055";
    object      A1C2H3;
}
// * * * * * * * * * * * * * * * * * * * * * * * * * * * * * * * * * * * * * //

dimensions      [0 0 0 0 0 0 0];

internalField   nonuniform List<scalar> 
3360
(
1.07157e-19
1.10605e-19
1.15404e-19
1.21273e-19
1.27969e-19
1.35272e-19
1.42983e-19
1.50923e-19
1.58933e-19
1.66872e-19
1.74618e-19
1.82067e-19
1.89134e-19
1.95751e-19
2.01866e-19
2.07443e-19
2.12459e-19
2.16905e-19
2.20782e-19
2.24103e-19
2.26886e-19
2.2916e-19
2.30956e-19
2.3231e-19
2.33263e-19
2.33856e-19
2.34131e-19
4.70086e-19
4.87365e-19
5.11747e-19
5.4211e-19
5.77524e-19
6.17178e-19
6.60347e-19
7.06369e-19
7.54625e-19
8.04533e-19
8.55533e-19
9.07081e-19
9.5864e-19
1.00968e-18
1.05968e-18
1.10812e-18
1.15451e-18
1.19835e-18
1.23919e-18
1.27658e-18
1.31012e-18
1.33945e-18
1.36428e-18
1.38436e-18
1.39952e-18
1.40964e-18
1.41469e-18
1.47494e-18
1.53968e-18
1.63166e-18
1.74725e-18
1.88341e-18
2.03742e-18
2.20669e-18
2.38868e-18
2.5808e-18
2.78042e-18
2.98484e-18
3.1914e-18
3.39743e-18
3.60034e-18
3.79758e-18
3.98677e-18
4.16567e-18
4.33229e-18
4.48491e-18
4.62209e-18
4.74272e-18
4.84602e-18
4.93153e-18
4.99912e-18
5.04895e-18
5.08145e-18
5.09726e-18
4.29547e-18
4.50884e-18
4.81407e-18
5.20023e-18
5.65821e-18
6.17946e-18
6.75542e-18
7.37725e-18
8.03564e-18
8.72083e-18
9.42272e-18
1.0131e-17
1.08356e-17
1.15265e-17
1.21942e-17
1.28302e-17
1.34267e-17
1.39773e-17
1.44766e-17
1.49209e-17
1.53074e-17
1.56349e-17
1.59031e-17
1.61128e-17
1.62659e-17
1.63647e-17
1.64124e-17
1.25497e-17
1.32228e-17
1.41875e-17
1.54108e-17
1.68649e-17
1.85228e-17
2.03569e-17
2.23379e-17
2.44346e-17
2.66142e-17
2.88425e-17
3.10854e-17
3.3309e-17
3.54813e-17
3.75726e-17
3.95561e-17
4.14088e-17
4.31119e-17
4.46505e-17
4.60141e-17
4.71963e-17
4.81946e-17
4.90097e-17
4.96454e-17
5.01081e-17
5.04062e-17
5.05497e-17
3.70047e-17
3.90719e-17
4.20383e-17
4.58034e-17
5.02809e-17
5.53875e-17
6.10368e-17
6.71369e-17
7.35896e-17
8.02915e-17
8.71361e-17
9.40163e-17
1.00828e-16
1.07471e-16
1.13855e-16
1.199e-16
1.25535e-16
1.30706e-16
1.35369e-16
1.39495e-16
1.43066e-16
1.46076e-16
1.4853e-16
1.50442e-16
1.51831e-16
1.52726e-16
1.53156e-16
1.09924e-16
1.16205e-16
1.25219e-16
1.3666e-16
1.50265e-16
1.65777e-16
1.82932e-16
2.01445e-16
2.21014e-16
2.41322e-16
2.62043e-16
2.82853e-16
3.03434e-16
3.23488e-16
3.42743e-16
3.60956e-16
3.77924e-16
3.93481e-16
4.07501e-16
4.19898e-16
4.30623e-16
4.39661e-16
4.47027e-16
4.52762e-16
4.5693e-16
4.59612e-16
4.60901e-16
3.27634e-16
3.46535e-16
3.73672e-16
4.08129e-16
4.49114e-16
4.95855e-16
5.47545e-16
6.03324e-16
6.62276e-16
7.23441e-16
7.85832e-16
8.48467e-16
9.10392e-16
9.70706e-16
1.02859e-15
1.08332e-15
1.13429e-15
1.18099e-15
1.22307e-15
1.26026e-15
1.29241e-15
1.3195e-15
1.34157e-15
1.35874e-15
1.37122e-15
1.37925e-15
1.3831e-15
9.79124e-16
1.03593e-15
1.11748e-15
1.22101e-15
1.34414e-15
1.48454e-15
1.63977e-15
1.80723e-15
1.98417e-15
2.16768e-15
2.35481e-15
2.54261e-15
2.72822e-15
2.90894e-15
3.08233e-15
3.24624e-15
3.39883e-15
3.53865e-15
3.66458e-15
3.77588e-15
3.87211e-15
3.95317e-15
4.0192e-15
4.07059e-15
4.10793e-15
4.13194e-15
4.14348e-15
2.92642e-15
3.09659e-15
3.34091e-15
3.65112e-15
4.02007e-15
4.44076e-15
4.90586e-15
5.40759e-15
5.93765e-15
6.48735e-15
7.0478e-15
7.61016e-15
8.16585e-15
8.70682e-15
9.22575e-15
9.71617e-15
1.01727e-14
1.05908e-14
1.09674e-14
1.13001e-14
1.15877e-14
1.18299e-14
1.20272e-14
1.21807e-14
1.22922e-14
1.23638e-14
1.23983e-14
8.75134e-15
9.26091e-15
9.99234e-15
1.09209e-14
1.2025e-14
1.32836e-14
1.46748e-14
1.61752e-14
1.77597e-14
1.94025e-14
2.1077e-14
2.27566e-14
2.44158e-14
2.60306e-14
2.75792e-14
2.90423e-14
3.04039e-14
3.1651e-14
3.27738e-14
3.37657e-14
3.4623e-14
3.53449e-14
3.59328e-14
3.63903e-14
3.67225e-14
3.69362e-14
3.70388e-14
2.61481e-14
2.767e-14
2.98546e-14
3.26275e-14
3.59241e-14
3.96813e-14
4.38331e-14
4.83093e-14
5.30354e-14
5.79336e-14
6.29244e-14
6.79289e-14
7.2871e-14
7.76791e-14
8.22883e-14
8.66419e-14
9.06918e-14
9.43998e-14
9.77372e-14
1.00685e-13
1.03231e-13
1.05375e-13
1.0712e-13
1.08478e-13
1.09464e-13
1.10098e-13
1.10402e-13
7.80536e-14
8.25924e-14
8.91047e-14
9.73673e-14
1.07186e-13
1.18371e-13
1.30723e-13
1.44033e-13
1.58077e-13
1.72624e-13
1.87436e-13
2.0228e-13
2.1693e-13
2.31174e-13
2.44821e-13
2.57704e-13
2.69683e-13
2.80646e-13
2.90508e-13
2.99215e-13
3.06735e-13
3.13063e-13
3.18214e-13
3.2222e-13
3.25128e-13
3.26997e-13
3.27895e-13
2.32375e-13
2.45851e-13
2.65181e-13
2.89694e-13
3.18808e-13
3.5195e-13
3.88525e-13
4.27903e-13
4.6942e-13
5.12385e-13
5.56096e-13
5.99861e-13
6.43015e-13
6.84937e-13
7.25069e-13
7.62923e-13
7.98091e-13
8.3025e-13
8.5916e-13
8.84665e-13
9.06681e-13
9.25196e-13
9.40259e-13
9.51967e-13
9.60463e-13
9.65922e-13
9.68543e-13
6.89487e-13
7.29292e-13
7.86349e-13
8.58645e-13
9.44424e-13
1.04196e-12
1.14947e-12
1.26508e-12
1.38679e-12
1.51258e-12
1.64038e-12
1.76815e-12
1.89397e-12
2.01603e-12
2.13273e-12
2.24267e-12
2.34469e-12
2.43788e-12
2.52157e-12
2.59534e-12
2.65896e-12
2.71242e-12
2.75588e-12
2.78964e-12
2.81412e-12
2.82985e-12
2.83739e-12
2.03426e-12
2.15073e-12
2.31754e-12
2.52866e-12
2.77881e-12
3.06283e-12
3.37536e-12
3.71083e-12
4.06339e-12
4.42705e-12
4.79582e-12
5.16382e-12
5.52552e-12
5.87578e-12
6.21005e-12
6.52442e-12
6.81567e-12
7.0813e-12
7.3195e-12
7.52916e-12
7.70975e-12
7.86133e-12
7.98442e-12
8.07994e-12
8.14916e-12
8.19357e-12
8.21487e-12
5.9569e-12
6.29334e-12
6.77456e-12
7.38262e-12
8.10168e-12
8.91628e-12
9.81056e-12
1.0768e-11
1.17717e-11
1.28042e-11
1.38484e-11
1.48877e-11
1.59065e-11
1.68907e-11
1.78277e-11
1.87068e-11
1.95195e-11
2.02592e-11
2.09212e-11
2.15028e-11
2.2003e-11
2.24222e-11
2.27621e-11
2.30256e-11
2.32163e-11
2.33385e-11
2.33971e-11
1.72636e-11
1.82176e-11
1.95797e-11
2.1297e-11
2.33225e-11
2.56101e-11
2.81134e-11
3.07846e-11
3.35748e-11
3.64352e-11
3.93179e-11
4.21771e-11
4.49706e-11
4.76602e-11
5.02129e-11
5.2601e-11
5.48024e-11
5.68008e-11
5.85851e-11
6.01492e-11
6.14916e-11
6.26144e-11
6.35234e-11
6.42269e-11
6.47353e-11
6.50609e-11
6.52167e-11
4.93448e-11
5.19831e-11
5.57412e-11
6.04649e-11
6.60165e-11
7.22624e-11
7.90685e-11
8.62994e-11
9.3819e-11
1.01494e-10
1.09194e-10
1.16799e-10
1.24198e-10
1.31295e-10
1.38004e-10
1.44259e-10
1.50005e-10
1.55206e-10
1.59836e-10
1.63885e-10
1.67351e-10
1.70244e-10
1.72581e-10
1.74387e-10
1.7569e-10
1.76523e-10
1.76921e-10
1.38479e-10
1.45537e-10
1.55562e-10
1.68117e-10
1.82807e-10
1.99256e-10
2.17089e-10
2.35935e-10
2.55431e-10
2.75223e-10
2.9498e-10
3.14396e-10
3.33197e-10
3.51145e-10
3.68044e-10
3.83734e-10
3.98096e-10
4.1105e-10
4.22546e-10
4.32569e-10
4.41127e-10
4.48254e-10
4.54e-10
4.58431e-10
4.61623e-10
4.63661e-10
4.64634e-10
3.79512e-10
3.97629e-10
4.23276e-10
4.55254e-10
4.92484e-10
5.33941e-10
5.78628e-10
6.25576e-10
6.73855e-10
7.22585e-10
7.70955e-10
8.18234e-10
8.63781e-10
9.07055e-10
9.47614e-10
9.85116e-10
1.01931e-09
1.05005e-09
1.07723e-09
1.10087e-09
1.121e-09
1.13772e-09
1.15117e-09
1.16152e-09
1.16897e-09
1.17372e-09
1.17598e-09
1.00934e-09
1.05361e-09
1.11606e-09
1.19356e-09
1.28331e-09
1.38267e-09
1.48912e-09
1.60028e-09
1.7139e-09
1.8279e-09
1.94042e-09
2.04981e-09
2.15465e-09
2.2538e-09
2.34631e-09
2.4315e-09
2.5089e-09
2.57822e-09
2.63936e-09
2.69235e-09
2.73738e-09
2.77469e-09
2.80465e-09
2.82767e-09
2.8442e-09
2.85472e-09
2.85973e-09
2.58879e-09
2.69125e-09
2.83524e-09
3.01314e-09
3.21808e-09
3.44369e-09
3.684e-09
3.93348e-09
4.18701e-09
4.44e-09
4.68838e-09
4.92865e-09
5.15787e-09
5.37368e-09
5.57426e-09
5.75829e-09
5.92492e-09
6.07371e-09
6.20456e-09
6.31771e-09
6.41362e-09
6.49295e-09
6.55654e-09
6.60531e-09
6.64029e-09
6.66252e-09
6.6731e-09
6.36964e-09
6.59382e-09
6.90786e-09
7.29427e-09
7.73736e-09
8.22273e-09
8.73712e-09
9.2684e-09
9.80565e-09
1.03392e-08
1.08606e-08
1.13629e-08
1.18402e-08
1.22878e-08
1.27025e-08
1.30818e-08
1.34243e-08
1.37293e-08
1.39969e-08
1.42278e-08
1.44232e-08
1.45845e-08
1.47136e-08
1.48125e-08
1.48834e-08
1.49284e-08
1.49498e-08
1.49892e-08
1.54542e-08
1.6104e-08
1.69008e-08
1.78111e-08
1.88043e-08
1.98525e-08
2.09308e-08
2.20169e-08
2.30914e-08
2.41377e-08
2.51421e-08
2.60936e-08
2.69835e-08
2.78056e-08
2.85557e-08
2.92315e-08
2.98321e-08
3.03581e-08
3.08112e-08
3.1194e-08
3.15097e-08
3.17621e-08
3.19552e-08
3.20933e-08
3.2181e-08
3.22227e-08
3.37252e-08
3.46456e-08
3.59292e-08
3.74995e-08
3.92884e-08
4.12346e-08
4.32825e-08
4.53828e-08
4.74922e-08
4.95732e-08
5.15944e-08
5.35299e-08
5.53591e-08
5.70664e-08
5.86404e-08
6.0074e-08
6.13634e-08
6.25077e-08
6.35086e-08
6.43697e-08
6.50964e-08
6.5695e-08
6.61731e-08
6.65387e-08
6.68001e-08
6.69658e-08
6.70445e-08
7.27073e-08
7.4461e-08
7.69037e-08
7.98871e-08
8.32799e-08
8.69636e-08
9.08324e-08
9.47926e-08
9.87623e-08
1.02672e-07
1.06462e-07
1.10087e-07
1.13507e-07
1.16695e-07
1.1963e-07
1.22301e-07
1.247e-07
1.26828e-07
1.28687e-07
1.30285e-07
1.31633e-07
1.32743e-07
1.33628e-07
1.34305e-07
1.34789e-07
1.35096e-07
1.35241e-07
1.50744e-07
1.53993e-07
1.58515e-07
1.64034e-07
1.70305e-07
1.77106e-07
1.84243e-07
1.91542e-07
1.98852e-07
2.06045e-07
2.13015e-07
2.19675e-07
2.25956e-07
2.31808e-07
2.37194e-07
2.42092e-07
2.46492e-07
2.50391e-07
2.53798e-07
2.56726e-07
2.59194e-07
2.61227e-07
2.62848e-07
2.64087e-07
2.64973e-07
2.65534e-07
2.658e-07
3.01803e-07
3.07711e-07
3.15933e-07
3.25967e-07
3.37366e-07
3.49733e-07
3.62711e-07
3.75985e-07
3.89285e-07
4.02377e-07
4.15067e-07
4.27198e-07
4.38646e-07
4.49316e-07
4.59143e-07
4.68085e-07
4.76121e-07
4.83248e-07
4.89478e-07
4.94835e-07
4.99355e-07
5.03077e-07
5.06048e-07
5.0832e-07
5.09944e-07
5.10973e-07
5.11462e-07
5.85316e-07
5.95921e-07
6.10688e-07
6.28721e-07
6.49227e-07
6.71493e-07
6.94886e-07
7.18842e-07
7.42875e-07
7.66566e-07
7.89564e-07
8.1158e-07
8.32387e-07
8.51809e-07
8.69723e-07
8.86045e-07
9.00734e-07
9.13779e-07
9.25196e-07
9.35026e-07
9.43327e-07
9.50171e-07
9.5564e-07
9.59825e-07
9.62819e-07
9.64719e-07
9.65621e-07
1.10019e-06
1.11892e-06
1.14502e-06
1.17692e-06
1.21324e-06
1.25273e-06
1.29427e-06
1.33689e-06
1.37971e-06
1.42199e-06
1.4631e-06
1.50252e-06
1.53984e-06
1.57474e-06
1.60697e-06
1.63639e-06
1.66289e-06
1.68647e-06
1.70713e-06
1.72493e-06
1.73999e-06
1.75242e-06
1.76236e-06
1.76998e-06
1.77543e-06
1.7789e-06
1.78054e-06
1.99657e-06
2.02854e-06
2.0731e-06
2.1276e-06
2.18968e-06
2.25722e-06
2.32833e-06
2.40133e-06
2.47475e-06
2.5473e-06
2.6179e-06
2.68567e-06
2.74989e-06
2.80999e-06
2.86555e-06
2.9163e-06
2.96207e-06
3.0028e-06
3.03852e-06
3.06933e-06
3.09539e-06
3.11691e-06
3.13413e-06
3.14732e-06
3.15677e-06
3.16277e-06
3.16562e-06
3.47054e-06
3.52186e-06
3.59338e-06
3.68079e-06
3.78029e-06
3.88847e-06
4.00228e-06
4.119e-06
4.23626e-06
4.35201e-06
4.46453e-06
4.5724e-06
4.67446e-06
4.76986e-06
4.85796e-06
4.93832e-06
5.01071e-06
5.07507e-06
5.13145e-06
5.18004e-06
5.2211e-06
5.25499e-06
5.28209e-06
5.30285e-06
5.31771e-06
5.32714e-06
5.33163e-06
5.72848e-06
5.80429e-06
5.90976e-06
6.03843e-06
6.18457e-06
6.34304e-06
6.50929e-06
6.67929e-06
6.84959e-06
7.0172e-06
7.17968e-06
7.33499e-06
7.48157e-06
7.61823e-06
7.74411e-06
7.8587e-06
7.96171e-06
8.05312e-06
8.13306e-06
8.20186e-06
8.25992e-06
8.30778e-06
8.34602e-06
8.37528e-06
8.39621e-06
8.4095e-06
8.41581e-06
8.92406e-06
9.02618e-06
9.16801e-06
9.34063e-06
9.53615e-06
9.74754e-06
9.96861e-06
1.0194e-05
1.04189e-05
1.06397e-05
1.0853e-05
1.10563e-05
1.12477e-05
1.14256e-05
1.15891e-05
1.17377e-05
1.18709e-05
1.19889e-05
1.2092e-05
1.21806e-05
1.22553e-05
1.23168e-05
1.23659e-05
1.24034e-05
1.24302e-05
1.24473e-05
1.24553e-05
1.31123e-05
1.32392e-05
1.34151e-05
1.36289e-05
1.38704e-05
1.41309e-05
1.44027e-05
1.46789e-05
1.49541e-05
1.52234e-05
1.5483e-05
1.57299e-05
1.59618e-05
1.61771e-05
1.63746e-05
1.65537e-05
1.67142e-05
1.68562e-05
1.69801e-05
1.70865e-05
1.71761e-05
1.72499e-05
1.73087e-05
1.73537e-05
1.73859e-05
1.74063e-05
1.7416e-05
1.8256e-05
1.84043e-05
1.86099e-05
1.88592e-05
1.91406e-05
1.94437e-05
1.97593e-05
2.00796e-05
2.03982e-05
2.07095e-05
2.10093e-05
2.1294e-05
2.15612e-05
2.18089e-05
2.2036e-05
2.22418e-05
2.24261e-05
2.25891e-05
2.27313e-05
2.28533e-05
2.29561e-05
2.30407e-05
2.31082e-05
2.31598e-05
2.31966e-05
2.322e-05
2.32312e-05
2.42673e-05
2.4434e-05
2.46647e-05
2.49445e-05
2.52599e-05
2.55994e-05
2.59527e-05
2.6311e-05
2.66671e-05
2.70149e-05
2.73495e-05
2.76672e-05
2.79652e-05
2.82414e-05
2.84946e-05
2.87239e-05
2.89293e-05
2.9111e-05
2.92694e-05
2.94053e-05
2.95199e-05
2.96141e-05
2.96893e-05
2.97469e-05
2.9788e-05
2.98141e-05
2.98265e-05
3.10492e-05
3.12318e-05
3.14846e-05
3.1791e-05
3.21364e-05
3.2508e-05
3.28945e-05
3.32866e-05
3.3676e-05
3.40564e-05
3.44223e-05
3.47696e-05
3.50954e-05
3.53973e-05
3.5674e-05
3.59248e-05
3.61493e-05
3.63479e-05
3.65211e-05
3.66698e-05
3.67951e-05
3.68982e-05
3.69805e-05
3.70434e-05
3.70885e-05
3.7117e-05
3.71306e-05
3.85162e-05
3.87132e-05
3.8986e-05
3.93167e-05
3.96894e-05
4.00903e-05
4.05074e-05
4.09303e-05
4.13505e-05
4.17608e-05
4.21555e-05
4.25302e-05
4.28817e-05
4.32075e-05
4.3506e-05
4.37766e-05
4.40189e-05
4.42333e-05
4.44202e-05
4.45807e-05
4.4716e-05
4.48274e-05
4.49163e-05
4.49842e-05
4.50329e-05
4.50638e-05
4.50784e-05
4.65982e-05
4.68088e-05
4.71003e-05
4.74536e-05
4.78519e-05
4.82803e-05
4.87259e-05
4.91778e-05
4.96268e-05
5.00652e-05
5.0487e-05
5.08874e-05
5.12629e-05
5.16111e-05
5.19302e-05
5.22193e-05
5.24783e-05
5.27074e-05
5.29073e-05
5.30789e-05
5.32235e-05
5.33426e-05
5.34377e-05
5.35104e-05
5.35624e-05
5.35954e-05
5.36111e-05
5.52375e-05
5.54608e-05
5.577e-05
5.61448e-05
5.65672e-05
5.70216e-05
5.74942e-05
5.79735e-05
5.84496e-05
5.89145e-05
5.93618e-05
5.97865e-05
6.01847e-05
6.05539e-05
6.08922e-05
6.11989e-05
6.14735e-05
6.17165e-05
6.19284e-05
6.21104e-05
6.22638e-05
6.23901e-05
6.24909e-05
6.2568e-05
6.26232e-05
6.26583e-05
6.26749e-05
6.4384e-05
6.46195e-05
6.49454e-05
6.53404e-05
6.57856e-05
6.62644e-05
6.67625e-05
6.72675e-05
6.77692e-05
6.8259e-05
6.87303e-05
6.91776e-05
6.95971e-05
6.9986e-05
7.03424e-05
7.06654e-05
7.09547e-05
7.12105e-05
7.14338e-05
7.16254e-05
7.1787e-05
7.192e-05
7.20262e-05
7.21074e-05
7.21655e-05
7.22024e-05
7.222e-05
7.39923e-05
7.42391e-05
7.45807e-05
7.49947e-05
7.54612e-05
7.5963e-05
7.64848e-05
7.70139e-05
7.75394e-05
7.80524e-05
7.85459e-05
7.90144e-05
7.94537e-05
7.98608e-05
8.0234e-05
8.05721e-05
8.08749e-05
8.11427e-05
8.13764e-05
8.1577e-05
8.1746e-05
8.18852e-05
8.19964e-05
8.20814e-05
8.21422e-05
8.21808e-05
8.21992e-05
8.40193e-05
8.42766e-05
8.46328e-05
8.50643e-05
8.55506e-05
8.60736e-05
8.66174e-05
8.71687e-05
8.77162e-05
8.82506e-05
8.87647e-05
8.92526e-05
8.971e-05
9.01339e-05
9.05224e-05
9.08744e-05
9.11897e-05
9.14684e-05
9.17116e-05
9.19204e-05
9.20963e-05
9.22412e-05
9.23568e-05
9.24453e-05
9.25086e-05
9.25488e-05
9.25679e-05
9.44235e-05
9.46905e-05
9.506e-05
9.55076e-05
9.6012e-05
9.65543e-05
9.71183e-05
9.76898e-05
9.82574e-05
9.88113e-05
9.93441e-05
9.98497e-05
0.000100324
0.000100763
0.000101165
0.00010153
0.000101856
0.000102145
0.000102397
0.000102613
0.000102795
0.000102945
0.000103065
0.000103156
0.000103222
0.000103264
0.000103283
0.000105165
0.000105441
0.000105822
0.000106284
0.000106805
0.000107365
0.000107947
0.000108537
0.000109122
0.000109694
0.000110243
0.000110765
0.000111254
0.000111707
0.000112121
0.000112497
0.000112834
0.000113131
0.000113391
0.000113614
0.000113802
0.000113956
0.000114079
0.000114174
0.000114241
0.000114284
0.000114305
0.000116204
0.000116488
0.00011688
0.000117355
0.00011789
0.000118466
0.000119064
0.00011967
0.000120272
0.000120859
0.000121423
0.000121959
0.000122461
0.000122926
0.000123352
0.000123738
0.000124083
0.000124389
0.000124655
0.000124884
0.000125076
0.000125235
0.000125361
0.000125458
0.000125527
0.000125571
0.000125592
0.000127504
0.000127794
0.000128196
0.000128682
0.00012923
0.000129819
0.000130432
0.000131052
0.000131668
0.000132269
0.000132846
0.000133394
0.000133907
0.000134383
0.000134819
0.000135213
0.000135566
0.000135879
0.000136151
0.000136385
0.000136582
0.000136744
0.000136873
0.000136972
0.000137043
0.000137088
0.000137109
0.000139027
0.000139323
0.000139733
0.000140229
0.000140789
0.00014139
0.000142014
0.000142647
0.000143275
0.000143887
0.000144476
0.000145034
0.000145557
0.000146042
0.000146486
0.000146888
0.000147248
0.000147566
0.000147843
0.000148081
0.000148282
0.000148447
0.000148579
0.000148679
0.000148752
0.000148797
0.000148819
0.000150739
0.00015104
0.000151457
0.000151962
0.00015253
0.000153141
0.000153776
0.000154419
0.000155057
0.00015568
0.000156278
0.000156845
0.000157377
0.000157869
0.00015832
0.000158728
0.000159093
0.000159416
0.000159698
0.00015994
0.000160143
0.000160311
0.000160445
0.000160547
0.00016062
0.000160666
0.000160688
0.000162607
0.000162912
0.000163335
0.000163846
0.000164423
0.000165042
0.000165685
0.000166337
0.000166983
0.000167614
0.00016822
0.000168794
0.000169332
0.000169831
0.000170287
0.000170701
0.000171071
0.000171398
0.000171683
0.000171927
0.000172134
0.000172303
0.000172439
0.000172542
0.000172616
0.000172663
0.000172685
0.000174598
0.000174907
0.000175334
0.000175852
0.000176434
0.00017706
0.00017771
0.000178368
0.000179021
0.000179658
0.00018027
0.000180851
0.000181394
0.000181898
0.000182359
0.000182776
0.00018315
0.00018348
0.000183768
0.000184015
0.000184223
0.000184394
0.000184531
0.000184635
0.00018471
0.000184757
0.00018478
0.000186684
0.000186996
0.000187427
0.000187948
0.000188535
0.000189166
0.000189821
0.000190485
0.000191143
0.000191785
0.000192402
0.000192986
0.000193534
0.000194041
0.000194506
0.000194926
0.000195302
0.000195635
0.000195924
0.000196173
0.000196383
0.000196555
0.000196693
0.000196798
0.000196873
0.000196921
0.000196943
0.000198837
0.000199151
0.000199584
0.000200108
0.000200699
0.000201333
0.000201992
0.000202659
0.000203321
0.000203966
0.000204586
0.000205174
0.000205725
0.000206234
0.000206701
0.000207124
0.000207502
0.000207836
0.000208127
0.000208377
0.000208587
0.00020876
0.000208899
0.000209004
0.00020908
0.000209128
0.000209151
0.000211031
0.000211346
0.000211781
0.000212307
0.0002129
0.000213536
0.000214197
0.000214867
0.000215531
0.000216178
0.0002168
0.00021739
0.000217942
0.000218453
0.000218921
0.000219345
0.000219724
0.000220059
0.000220351
0.000220601
0.000220812
0.000220986
0.000221124
0.00022123
0.000221306
0.000221354
0.000221377
0.000223243
0.000223558
0.000223993
0.00022452
0.000225114
0.000225752
0.000226414
0.000227084
0.000227749
0.000228397
0.00022902
0.00022961
0.000230163
0.000230675
0.000231143
0.000231567
0.000231946
0.000232282
0.000232574
0.000232825
0.000233036
0.000233209
0.000233348
0.000233454
0.00023353
0.000233578
0.000233601
0.00023545
0.000235765
0.0002362
0.000236727
0.000237321
0.000237958
0.00023862
0.00023929
0.000239955
0.000240603
0.000241225
0.000241815
0.000242367
0.000242879
0.000243347
0.000243771
0.00024415
0.000244484
0.000244776
0.000245027
0.000245238
0.000245411
0.00024555
0.000245656
0.000245731
0.00024578
0.000245802
0.000247633
0.000247947
0.000248382
0.000248908
0.000249501
0.000250137
0.000250798
0.000251466
0.00025213
0.000252776
0.000253397
0.000253986
0.000254537
0.000255047
0.000255514
0.000255937
0.000256315
0.000256649
0.00025694
0.00025719
0.0002574
0.000257573
0.000257712
0.000257817
0.000257893
0.000257941
0.000257963
0.000259774
0.000260088
0.000260521
0.000261046
0.000261636
0.00026227
0.000262929
0.000263595
0.000264256
0.0002649
0.000265519
0.000266106
0.000266655
0.000267163
0.000267628
0.000268049
0.000268426
0.000268759
0.000269049
0.000269298
0.000269507
0.00026968
0.000269817
0.000269923
0.000269998
0.000270046
0.000270068
0.000271858
0.00027217
0.000272602
0.000273124
0.000273712
0.000274343
0.000274999
0.000275662
0.00027632
0.000276961
0.000277577
0.00027816
0.000278707
0.000279213
0.000279676
0.000280094
0.000280469
0.0002808
0.000281089
0.000281337
0.000281545
0.000281717
0.000281854
0.000281958
0.000282033
0.000282081
0.000282103
0.000283872
0.000284182
0.000284611
0.00028513
0.000285715
0.000286342
0.000286994
0.000287654
0.000288308
0.000288945
0.000289557
0.000290137
0.00029068
0.000291183
0.000291643
0.00029206
0.000292432
0.000292761
0.000293048
0.000293294
0.000293501
0.000293672
0.000293808
0.000293912
0.000293986
0.000294033
0.000294056
0.000295803
0.000296111
0.000296537
0.000297053
0.000297633
0.000298257
0.000298904
0.000299559
0.000300209
0.000300842
0.00030145
0.000302026
0.000302565
0.000303064
0.000303521
0.000303935
0.000304304
0.000304631
0.000304916
0.00030516
0.000305366
0.000305535
0.00030567
0.000305773
0.000305847
0.000305894
0.000305916
0.000307641
0.000307947
0.00030837
0.000308882
0.000309458
0.000310077
0.000310719
0.000311369
0.000312014
0.000312642
0.000313245
0.000313817
0.000314352
0.000314847
0.000315301
0.000315711
0.000316078
0.000316402
0.000316684
0.000316927
0.000317131
0.000317299
0.000317433
0.000317535
0.000317608
0.000317655
0.000317677
0.00031938
0.000319684
0.000320103
0.000320611
0.000321182
0.000321796
0.000322433
0.000323077
0.000323716
0.000324339
0.000324937
0.000325504
0.000326035
0.000326526
0.000326975
0.000327382
0.000327746
0.000328067
0.000328347
0.000328588
0.00032879
0.000328956
0.000329089
0.000329191
0.000329263
0.00032931
0.000329331
0.000331013
0.000331314
0.000331729
0.000332233
0.000332799
0.000333407
0.000334038
0.000334677
0.000335311
0.000335928
0.000336521
0.000337083
0.000337609
0.000338095
0.000338541
0.000338944
0.000339304
0.000339623
0.0003399
0.000340138
0.000340339
0.000340504
0.000340635
0.000340736
0.000340808
0.000340854
0.000340875
0.000342536
0.000342834
0.000343246
0.000343744
0.000344305
0.000344908
0.000345533
0.000346166
0.000346794
0.000347405
0.000347993
0.000348549
0.00034907
0.000349552
0.000349993
0.000350393
0.00035075
0.000351065
0.00035134
0.000351576
0.000351775
0.000351938
0.000352069
0.000352168
0.00035224
0.000352285
0.000352306
0.000353946
0.000354241
0.000354649
0.000355143
0.000355699
0.000356296
0.000356915
0.000357542
0.000358164
0.00035877
0.000359351
0.000359902
0.000360418
0.000360896
0.000361333
0.000361728
0.000362082
0.000362394
0.000362667
0.0003629
0.000363097
0.000363259
0.000363388
0.000363487
0.000363557
0.000363602
0.000363623
0.000365244
0.000365536
0.00036594
0.000366429
0.00036698
0.000367571
0.000368184
0.000368805
0.000369421
0.000370021
0.000370597
0.000371142
0.000371653
0.000372126
0.000372559
0.000372951
0.000373301
0.00037361
0.00037388
0.000374111
0.000374306
0.000374466
0.000374594
0.000374692
0.000374762
0.000374806
0.000374827
0.000376429
0.000376719
0.000377119
0.000377603
0.000378148
0.000378734
0.000379341
0.000379956
0.000380566
0.00038116
0.00038173
0.000382271
0.000382777
0.000383245
0.000383674
0.000384061
0.000384408
0.000384715
0.000384982
0.000385211
0.000385404
0.000385562
0.000385689
0.000385786
0.000385855
0.000385899
0.00038592
0.000387504
0.000387791
0.000388187
0.000388667
0.000389207
0.000389786
0.000390388
0.000390997
0.000391601
0.000392189
0.000392754
0.00039329
0.000393791
0.000394255
0.000394679
0.000395063
0.000395407
0.00039571
0.000395975
0.000396202
0.000396393
0.00039655
0.000396675
0.000396771
0.00039684
0.000396883
0.000396904
0.000398472
0.000398755
0.000399148
0.000399623
0.000400158
0.000400732
0.000401328
0.000401931
0.000402529
0.000403112
0.000403672
0.000404202
0.000404698
0.000405158
0.000405578
0.000405959
0.000406299
0.0004066
0.000406862
0.000407086
0.000407276
0.000407431
0.000407556
0.000407651
0.000407718
0.000407762
0.000407782
0.000409333
0.000409614
0.000410003
0.000410474
0.000411004
0.000411572
0.000412163
0.00041276
0.000413353
0.00041393
0.000414484
0.00041501
0.000415501
0.000415957
0.000416373
0.00041675
0.000417087
0.000417385
0.000417644
0.000417867
0.000418055
0.000418209
0.000418332
0.000418426
0.000418493
0.000418536
0.000418556
0.00042009
0.000420369
0.000420754
0.00042122
0.000421745
0.000422308
0.000422893
0.000423485
0.000424072
0.000424644
0.000425193
0.000425713
0.0004262
0.000426651
0.000427064
0.000427437
0.000427771
0.000428066
0.000428323
0.000428543
0.000428729
0.000428882
0.000429004
0.000429097
0.000429164
0.000429206
0.000429226
0.000430742
0.000431018
0.000431399
0.000431861
0.00043238
0.000432938
0.000433517
0.000434103
0.000434684
0.00043525
0.000435794
0.000436309
0.000436791
0.000437238
0.000437646
0.000438016
0.000438346
0.000438639
0.000438893
0.000439111
0.000439295
0.000439447
0.000439567
0.000439659
0.000439725
0.000439767
0.000439787
0.000441281
0.000441554
0.000441932
0.000442389
0.000442902
0.000443454
0.000444027
0.000444607
0.000445182
0.000445742
0.00044628
0.000446789
0.000447266
0.000447708
0.000448112
0.000448478
0.000448805
0.000449093
0.000449345
0.000449561
0.000449743
0.000449893
0.000450012
0.000450103
0.000450168
0.00045021
0.000450229
0.000451697
0.000451967
0.00045234
0.000452791
0.000453299
0.000453844
0.000454409
0.000454982
0.00045555
0.000456103
0.000456634
0.000457137
0.000457608
0.000458044
0.000458443
0.000458804
0.000459127
0.000459412
0.000459661
0.000459874
0.000460053
0.000460201
0.000460319
0.000460409
0.000460473
0.000460514
0.000460533
0.000461967
0.000462233
0.0004626
0.000463045
0.000463545
0.000464082
0.000464639
0.000465203
0.000465762
0.000466307
0.00046683
0.000467326
0.000467789
0.000468219
0.000468611
0.000468967
0.000469284
0.000469565
0.00046981
0.000470019
0.000470196
0.000470341
0.000470457
0.000470546
0.000470609
0.000470649
0.000470668
0.000472058
0.000472318
0.000472679
0.000473115
0.000473606
0.000474133
0.00047468
0.000475233
0.000475781
0.000476315
0.000476828
0.000477314
0.000477768
0.000478189
0.000478574
0.000478922
0.000479233
0.000479508
0.000479747
0.000479953
0.000480126
0.000480268
0.000480382
0.000480468
0.00048053
0.00048057
0.000480588
0.00048192
0.000482174
0.000482526
0.000482952
0.00048343
0.000483944
0.000484477
0.000485016
0.000485551
0.000486071
0.000486571
0.000487044
0.000487486
0.000487896
0.00048827
0.000488609
0.000488912
0.00048918
0.000489413
0.000489613
0.000489781
0.000489919
0.00049003
0.000490114
0.000490174
0.000490212
0.000490231
0.000491488
0.000491734
0.000492075
0.000492486
0.00049295
0.000493446
0.000493962
0.000494483
0.000494999
0.000495502
0.000495984
0.000496441
0.000496868
0.000497263
0.000497625
0.000497951
0.000498243
0.000498501
0.000498726
0.000498919
0.000499081
0.000499214
0.00049932
0.000499401
0.00049946
0.000499496
0.000499514
0.000500679
0.000500915
0.000501241
0.000501635
0.000502078
0.000502553
0.000503045
0.000503543
0.000504037
0.000504517
0.000504977
0.000505413
0.00050582
0.000506197
0.000506541
0.000506852
0.00050713
0.000507376
0.00050759
0.000507773
0.000507927
0.000508054
0.000508155
0.000508232
0.000508288
0.000508323
0.000508339
0.000509394
0.000509616
0.000509924
0.000510295
0.000510713
0.000511161
0.000511625
0.000512094
0.000512558
0.000513009
0.000513442
0.000513851
0.000514234
0.000514587
0.00051491
0.000515202
0.000515463
0.000515693
0.000515893
0.000516065
0.000516209
0.000516328
0.000516423
0.000516495
0.000516547
0.000516579
0.000516595
0.000517522
0.000517728
0.000518013
0.000518357
0.000518744
0.000519158
0.000519587
0.000520021
0.000520449
0.000520866
0.000521265
0.000521642
0.000521994
0.000522319
0.000522617
0.000522885
0.000523125
0.000523336
0.00052352
0.000523677
0.00052381
0.000523918
0.000524005
0.000524071
0.000524119
0.000524149
0.000524163
0.00052495
0.000525137
0.000525395
0.000525707
0.000526057
0.000526432
0.000526819
0.00052721
0.000527597
0.000527973
0.000528332
0.000528671
0.000528988
0.00052928
0.000529547
0.000529788
0.000530003
0.000530192
0.000530357
0.000530498
0.000530616
0.000530714
0.000530791
0.00053085
0.000530893
0.00053092
0.000530932
0.000531574
0.000531739
0.000531966
0.000532241
0.000532549
0.000532879
0.00053322
0.000533563
0.000533903
0.000534232
0.000534546
0.000534843
0.00053512
0.000535375
0.000535608
0.000535817
0.000536004
0.000536169
0.000536312
0.000536435
0.000536538
0.000536622
0.000536689
0.000536741
0.000536777
0.000536801
0.000536812
0.000537311
0.000537452
0.000537646
0.000537881
0.000538144
0.000538425
0.000538715
0.000539007
0.000539294
0.000539573
0.00053984
0.000540091
0.000540325
0.00054054
0.000540736
0.000540912
0.00054107
0.000541208
0.000541328
0.000541431
0.000541518
0.000541588
0.000541645
0.000541688
0.000541718
0.000541738
0.000541747
0.000542116
0.000542232
0.000542392
0.000542585
0.000542801
0.000543031
0.000543269
0.000543507
0.000543742
0.000543969
0.000544186
0.00054439
0.00054458
0.000544754
0.000544913
0.000545055
0.000545182
0.000545294
0.000545391
0.000545473
0.000545543
0.0005456
0.000545645
0.000545679
0.000545704
0.00054572
0.000545727
0.000545986
0.000546078
0.000546204
0.000546355
0.000546525
0.000546705
0.000546891
0.000547077
0.00054726
0.000547437
0.000547605
0.000547763
0.00054791
0.000548044
0.000548167
0.000548276
0.000548374
0.00054846
0.000548534
0.000548597
0.00054865
0.000548694
0.000548728
0.000548755
0.000548773
0.000548785
0.000548791
0.000548966
0.000549035
0.000549129
0.000549241
0.000549368
0.000549501
0.000549639
0.000549777
0.000549912
0.000550042
0.000550166
0.000550282
0.000550389
0.000550487
0.000550576
0.000550656
0.000550727
0.000550789
0.000550843
0.000550889
0.000550927
0.000550958
0.000550983
0.000551002
0.000551016
0.000551024
0.000551028
0.000551146
0.000551194
0.00055126
0.000551339
0.000551427
0.000551521
0.000551616
0.000551712
0.000551806
0.000551895
0.000551981
0.00055206
0.000552134
0.000552201
0.000552262
0.000552316
0.000552364