/*--------------------------------*- C++ -*----------------------------------*\
| =========                 |                                                 |
| \\      /  F ield         | OpenFOAM: The Open Source CFD Toolbox           |
|  \\    /   O peration     | Version:  2106                                  |
|   \\  /    A nd           | Website:  www.openfoam.com                      |
|    \\/     M anipulation  |                                                 |
\*---------------------------------------------------------------------------*/
FoamFile
{
    version     2.0;
    format      ascii;
    arch        "LSB;label=32;scalar=64";
    class       volScalarField;
    location    "90.00055";
    object      A2CH3-2;
}
// * * * * * * * * * * * * * * * * * * * * * * * * * * * * * * * * * * * * * //

dimensions      [0 0 0 0 0 0 0];

internalField   nonuniform List<scalar> 
3360
(
4.99019e-17
5.15076e-17
5.37422e-17
5.64756e-17
5.95937e-17
6.29945e-17
6.65853e-17
7.0283e-17
7.40131e-17
7.77102e-17
8.13175e-17
8.47866e-17
8.80777e-17
9.11592e-17
9.40068e-17
9.66038e-17
9.89396e-17
1.0101e-16
1.02816e-16
1.04362e-16
1.05658e-16
1.06717e-16
1.07553e-16
1.08184e-16
1.08628e-16
1.08904e-16
1.09032e-16
2.18914e-16
2.2696e-16
2.38314e-16
2.52454e-16
2.68946e-16
2.87413e-16
3.07516e-16
3.28948e-16
3.5142e-16
3.74662e-16
3.98412e-16
4.22417e-16
4.46427e-16
4.70196e-16
4.93479e-16
5.16039e-16
5.37642e-16
5.5806e-16
5.77077e-16
5.94488e-16
6.10107e-16
6.23768e-16
6.35331e-16
6.44683e-16
6.5174e-16
6.56453e-16
6.58803e-16
6.86864e-16
7.17009e-16
7.59845e-16
8.13672e-16
8.77081e-16
9.48802e-16
1.02763e-15
1.11238e-15
1.20185e-15
1.29481e-15
1.39001e-15
1.4862e-15
1.58215e-15
1.67664e-15
1.76849e-15
1.85659e-15
1.9399e-15
2.0175e-15
2.08857e-15
2.15245e-15
2.20863e-15
2.25673e-15
2.29656e-15
2.32803e-15
2.35124e-15
2.36637e-15
2.37374e-15
2.00035e-15
2.09972e-15
2.24185e-15
2.42169e-15
2.63496e-15
2.8777e-15
3.14592e-15
3.4355e-15
3.7421e-15
4.06119e-15
4.38805e-15
4.71791e-15
5.04602e-15
5.36774e-15
5.6787e-15
5.97487e-15
6.25266e-15
6.50905e-15
6.7416e-15
6.94848e-15
7.12849e-15
7.28098e-15
7.40587e-15
7.50355e-15
7.57483e-15
7.62086e-15
7.64306e-15
5.84426e-15
6.1577e-15
6.60695e-15
7.17665e-15
7.85379e-15
8.62585e-15
9.47997e-15
1.04025e-14
1.13789e-14
1.23939e-14
1.34316e-14
1.44761e-14
1.55116e-14
1.65232e-14
1.74971e-14
1.84208e-14
1.92836e-14
2.00767e-14
2.07932e-14
2.14282e-14
2.19788e-14
2.24437e-14
2.28232e-14
2.31193e-14
2.33348e-14
2.34736e-14
2.35404e-14
1.72327e-14
1.81953e-14
1.95768e-14
2.13301e-14
2.34152e-14
2.57933e-14
2.84241e-14
3.12649e-14
3.42698e-14
3.73908e-14
4.05783e-14
4.37823e-14
4.69543e-14
5.0048e-14
5.3021e-14
5.58359e-14
5.84603e-14
6.08683e-14
6.30398e-14
6.49611e-14
6.6624e-14
6.80259e-14
6.91689e-14
7.0059e-14
7.07061e-14
7.11225e-14
7.13228e-14
5.11904e-14
5.41155e-14
5.8313e-14
6.36408e-14
6.99765e-14
7.72006e-14
8.51893e-14
9.38105e-14
1.02924e-13
1.12381e-13
1.22031e-13
1.31721e-13
1.41306e-13
1.50645e-13
1.59611e-13
1.68093e-13
1.75995e-13
1.83239e-13
1.89768e-13
1.95542e-13
2.00536e-13
2.04745e-13
2.08175e-13
2.10846e-13
2.12787e-13
2.14036e-13
2.14636e-13
1.52575e-13
1.61377e-13
1.74015e-13
1.90061e-13
2.09147e-13
2.30914e-13
2.54985e-13
2.80961e-13
3.08414e-13
3.36898e-13
3.65953e-13
3.95121e-13
4.23959e-13
4.52047e-13
4.79002e-13
5.0449e-13
5.28224e-13
5.49975e-13
5.69568e-13
5.86886e-13
6.01862e-13
6.14476e-13
6.24753e-13
6.32751e-13
6.38562e-13
6.423e-13
6.44096e-13
4.55967e-13
4.82422e-13
5.20398e-13
5.68611e-13
6.25952e-13
6.91333e-13
7.63621e-13
8.41607e-13
9.24004e-13
1.00946e-12
1.09661e-12
1.18407e-12
1.2705e-12
1.35466e-12
1.43541e-12
1.51174e-12
1.5828e-12
1.64791e-12
1.70655e-12
1.75838e-12
1.8032e-12
1.84094e-12
1.87169e-12
1.89563e-12
1.91302e-12
1.9242e-12
1.92957e-12
1.3628e-12
1.44205e-12
1.55582e-12
1.70029e-12
1.8721e-12
2.06801e-12
2.2846e-12
2.51825e-12
2.76509e-12
3.02108e-12
3.28208e-12
3.54396e-12
3.80274e-12
4.05467e-12
4.29632e-12
4.52471e-12
4.73729e-12
4.93203e-12
5.10738e-12
5.26232e-12
5.39626e-12
5.50904e-12
5.60091e-12
5.67239e-12
5.72431e-12
5.7577e-12
5.77374e-12
4.0754e-12
4.3127e-12
4.65332e-12
5.08572e-12
5.5999e-12
6.18603e-12
6.8339e-12
7.53259e-12
8.27051e-12
9.03554e-12
9.8153e-12
1.05975e-11
1.13702e-11
1.21221e-11
1.28433e-11
1.35247e-11
1.41588e-11
1.47395e-11
1.52624e-11
1.57243e-11
1.61235e-11
1.64597e-11
1.67335e-11
1.69465e-11
1.71013e-11
1.72007e-11
1.72485e-11
1.21768e-11
1.28856e-11
1.39029e-11
1.51942e-11
1.67294e-11
1.84791e-11
2.04125e-11
2.24971e-11
2.4698e-11
2.6979e-11
2.93032e-11
3.16337e-11
3.39352e-11
3.61742e-11
3.83207e-11
4.03481e-11
4.22341e-11
4.39609e-11
4.55151e-11
4.68876e-11
4.80736e-11
4.90719e-11
4.98848e-11
5.05171e-11
5.09762e-11
5.12714e-11
5.14131e-11
3.63487e-11
3.84623e-11
4.1495e-11
4.53428e-11
4.99153e-11
5.51239e-11
6.08763e-11
6.70745e-11
7.36148e-11
8.03889e-11
8.72869e-11
9.41995e-11
1.01022e-10
1.07655e-10
1.1401e-10
1.2001e-10
1.25588e-10
1.30694e-10
1.35286e-10
1.39341e-10
1.42843e-10
1.4579e-10
1.48189e-10
1.50054e-10
1.51408e-10
1.52279e-10
1.52697e-10
1.08214e-10
1.1449e-10
1.23492e-10
1.34907e-10
1.48465e-10
1.63899e-10
1.80931e-10
1.9927e-10
2.18604e-10
2.38612e-10
2.58967e-10
2.79348e-10
2.99445e-10
3.18967e-10
3.37656e-10
3.55284e-10
3.71662e-10
3.86638e-10
4.00101e-10
4.11978e-10
4.22231e-10
4.30853e-10
4.37868e-10
4.4332e-10
4.47277e-10
4.49819e-10
4.51039e-10
3.21086e-10
3.39623e-10
3.66193e-10
3.99861e-10
4.39807e-10
4.85229e-10
5.35297e-10
5.89132e-10
6.45814e-10
7.04392e-10
7.63904e-10
8.23407e-10
8.81999e-10
9.38843e-10
9.93188e-10
1.04439e-09
1.0919e-09
1.13529e-09
1.17427e-09
1.20862e-09
1.23825e-09
1.26314e-09
1.28338e-09
1.2991e-09
1.31051e-09
1.31783e-09
1.32134e-09
9.4733e-10
1.00157e-09
1.07925e-09
1.17757e-09
1.29406e-09
1.42632e-09
1.57187e-09
1.72809e-09
1.89227e-09
2.06163e-09
2.23336e-09
2.40473e-09
2.57317e-09
2.73628e-09
2.89195e-09
3.03835e-09
3.17398e-09
3.29768e-09
3.40861e-09
3.50624e-09
3.59034e-09
3.66093e-09
3.71825e-09
3.76274e-09
3.79497e-09
3.81565e-09
3.82557e-09
2.77406e-09
2.93073e-09
3.15483e-09
3.438e-09
3.77286e-09
4.15221e-09
4.56866e-09
5.01455e-09
5.48193e-09
5.96276e-09
6.44903e-09
6.93303e-09
7.40749e-09
7.8658e-09
8.30214e-09
8.71154e-09
9.09e-09
9.43445e-09
9.74275e-09
1.00136e-08
1.02465e-08
1.04418e-08
1.06001e-08
1.07228e-08
1.08116e-08
1.08685e-08
1.08958e-08
8.03941e-09
8.48368e-09
9.11803e-09
9.91776e-09
1.0861e-08
1.19263e-08
1.30921e-08
1.4336e-08
1.56354e-08
1.69674e-08
1.83099e-08
1.96414e-08
2.09423e-08
2.21948e-08
2.33836e-08
2.44957e-08
2.55209e-08
2.64515e-08
2.72824e-08
2.80108e-08
2.86359e-08
2.91588e-08
2.95821e-08
2.99097e-08
3.01465e-08
3.02981e-08
3.03707e-08
2.29791e-08
2.42077e-08
2.59578e-08
2.81576e-08
3.0743e-08
3.36516e-08
3.68212e-08
4.01885e-08
4.36903e-08
4.72643e-08
5.08502e-08
5.43919e-08
5.78377e-08
6.11423e-08
6.42669e-08
6.71796e-08
6.98558e-08
7.22777e-08
7.4434e-08
7.63192e-08
7.79333e-08
7.92805e-08
8.03691e-08
8.121e-08
8.18169e-08
8.22049e-08
8.23903e-08
6.44869e-08
6.77738e-08
7.24425e-08
7.82889e-08
8.51301e-08
9.27901e-08
1.01095e-07
1.09871e-07
1.1895e-07
1.28168e-07
1.37369e-07
1.4641e-07
1.55166e-07
1.63524e-07
1.71394e-07
1.787e-07
1.85389e-07
1.91421e-07
1.96775e-07
2.01443e-07
2.05428e-07
2.08747e-07
2.11423e-07
2.13486e-07
2.14973e-07
2.15922e-07
2.16375e-07
1.76726e-07
1.85164e-07
1.97107e-07
2.11999e-07
2.29337e-07
2.48644e-07
2.69455e-07
2.91319e-07
3.13802e-07
3.36496e-07
3.59022e-07
3.8104e-07
4.02251e-07
4.22404e-07
4.41292e-07
4.58757e-07
4.74683e-07
4.88995e-07
5.01657e-07
5.12663e-07
5.22037e-07
5.29824e-07
5.36089e-07
5.40911e-07
5.44379e-07
5.4659e-07
5.47644e-07
4.69989e-07
4.90609e-07
5.19691e-07
5.55784e-07
5.97582e-07
6.43856e-07
6.93433e-07
7.45202e-07
7.98115e-07
8.51209e-07
9.03612e-07
9.54556e-07
1.00339e-06
1.04956e-06
1.09265e-06
1.13232e-06
1.16837e-06
1.20065e-06
1.22913e-06
1.25381e-06
1.27478e-06
1.29215e-06
1.30611e-06
1.31683e-06
1.32453e-06
1.32943e-06
1.33176e-06
1.20529e-06
1.25301e-06
1.32008e-06
1.40294e-06
1.49839e-06
1.60347e-06
1.7154e-06
1.8316e-06
1.94969e-06
2.06752e-06
2.18322e-06
2.29513e-06
2.4019e-06
2.50242e-06
2.59584e-06
2.68156e-06
2.75918e-06
2.82848e-06
2.88943e-06
2.94213e-06
2.98681e-06
3.02376e-06
3.05338e-06
3.07609e-06
3.09238e-06
3.10274e-06
3.10767e-06
2.96477e-06
3.06919e-06
3.21549e-06
3.39549e-06
3.60191e-06
3.82802e-06
4.06766e-06
4.31518e-06
4.56548e-06
4.81406e-06
5.057e-06
5.29102e-06
5.51339e-06
5.72198e-06
5.9152e-06
6.09193e-06
6.2515e-06
6.39361e-06
6.51831e-06
6.62591e-06
6.71694e-06
6.79211e-06
6.85227e-06
6.89836e-06
6.93136e-06
6.95233e-06
6.96229e-06
6.9726e-06
7.18928e-06
7.49206e-06
7.86339e-06
8.28762e-06
8.75051e-06
9.2391e-06
9.7417e-06
1.0248e-05
1.07488e-05
1.12366e-05
1.17049e-05
1.21485e-05
1.25634e-05
1.29467e-05
1.32964e-05
1.36115e-05
1.38915e-05
1.41368e-05
1.43481e-05
1.45266e-05
1.46738e-05
1.47914e-05
1.48815e-05
1.49459e-05
1.49868e-05
1.50062e-05
1.5668e-05
1.60971e-05
1.66956e-05
1.74279e-05
1.82621e-05
1.91698e-05
2.0125e-05
2.11046e-05
2.20886e-05
2.30593e-05
2.40022e-05
2.4905e-05
2.57583e-05
2.65546e-05
2.72888e-05
2.79575e-05
2.85589e-05
2.90925e-05
2.95593e-05
2.99608e-05
3.02996e-05
3.05788e-05
3.08016e-05
3.09721e-05
3.10939e-05
3.11712e-05
3.12079e-05
3.36833e-05
3.45013e-05
3.56407e-05
3.70324e-05
3.86152e-05
4.03339e-05
4.2139e-05
4.39868e-05
4.58391e-05
4.76632e-05
4.94318e-05
5.11226e-05
5.27181e-05
5.42051e-05
5.55742e-05
5.68195e-05
5.79382e-05
5.89299e-05
5.97964e-05
6.05412e-05
6.11691e-05
6.1686e-05
6.20984e-05
6.24136e-05
6.26388e-05
6.27815e-05
6.28492e-05
6.93913e-05
7.09054e-05
7.30132e-05
7.55859e-05
7.85095e-05
8.16815e-05
8.50101e-05
8.84146e-05
9.18246e-05
9.51802e-05
9.84314e-05
0.000101538
0.000104467
0.000107195
0.000109705
0.000111987
0.000114036
0.000115851
0.000117436
0.000118798
0.000119946
0.00012089
0.000121643
0.000122218
0.000122629
0.000122889
0.000123012
0.000137068
0.000139805
0.000143617
0.000148271
0.00015356
0.000159302
0.000165329
0.000171497
0.000177678
0.000183765
0.000189666
0.000195307
0.000200631
0.000205593
0.000210161
0.000214317
0.00021805
0.000221359
0.00022425
0.000226735
0.000228829
0.000230552
0.000231927
0.000232977
0.000233727
0.000234202
0.000234427
0.000258998
0.000263809
0.00027051
0.000278699
0.000288018
0.000298146
0.000308794
0.000319709
0.000330667
0.000341479
0.000351981
0.000362042
0.000371555
0.00038044
0.000388636
0.000396106
0.000402829
0.000408799
0.000414023
0.00041852
0.000422315
0.000425443
0.00042794
0.00042985
0.000431215
0.00043208
0.000432491
0.000465509
0.000473523
0.000484691
0.000498341
0.000513878
0.000530768
0.000548533
0.000566748
0.000585042
0.000603093
0.000620631
0.000637433
0.00065332
0.000668155
0.000681839
0.000694306
0.000705522
0.000715477
0.000724182
0.000731669
0.000737982
0.000743177
0.000747319
0.000750481
0.000752739
0.000754169
0.000754846
0.000789496
0.000801648
0.000818552
0.000839164
0.000862559
0.000887907
0.000914467
0.000941587
0.000968701
0.000995328
0.00102107
0.00104559
0.00106865
0.00109005
0.00110968
0.00112747
0.00114339
0.00115746
0.00116971
0.00118021
0.00118903
0.00119627
0.00120204
0.00120643
0.00120956
0.00121154
0.00121247
0.00125145
0.00126763
0.00129007
0.00131729
0.00134801
0.00138108
0.00141548
0.00145037
0.00148502
0.00151883
0.00155131
0.0015821
0.0016109
0.00163753
0.00166185
0.00168382
0.00170342
0.00172068
0.00173567
0.00174848
0.00175923
0.00176803
0.00177503
0.00178035
0.00178414
0.00178653
0.00178767
0.00184022
0.00185912
0.00188525
0.00191686
0.00195242
0.00199055
0.00203009
0.00207004
0.00210957
0.002148
0.0021848
0.00221957
0.00225201
0.00228192
0.0023092
0.00233378
0.00235568
0.00237495
0.00239167
0.00240596
0.00241794
0.00242775
0.00243555
0.00244149
0.00244572
0.00244839
0.00244965
0.00252052
0.00254075
0.00256869
0.00260243
0.00264032
0.00268088
0.00272287
0.00276522
0.00280706
0.00284769
0.00288656
0.00292326
0.00295748
0.00298903
0.00301779
0.00304373
0.00306684
0.00308719
0.00310486
0.00311997
0.00313265
0.00314305
0.00315133
0.00315763
0.00316213
0.00316498
0.00316632
0.00325255
0.00327308
0.00330142
0.00333564
0.00337405
0.00341517
0.00345772
0.00350065
0.00354306
0.00358427
0.0036237
0.00366095
0.00369571
0.00372778
0.00375705
0.00378347
0.00380704
0.00382781
0.00384586
0.00386132
0.00387431
0.00388498
0.00389347
0.00389995
0.00390458
0.00390752
0.00390891
0.00400332
0.00402356
0.00405151
0.00408526
0.00412316
0.00416375
0.00420578
0.00424821
0.00429017
0.00433095
0.00437001
0.00440694
0.00444144
0.0044733
0.0045024
0.00452868
0.00455215
0.00457285
0.00459087
0.0046063
0.00461928
0.00462995
0.00463846
0.00464495
0.00464959
0.00465254
0.00465393
0.00474965
0.00476929
0.00479641
0.00482918
0.00486599
0.00490544
0.00494632
0.0049876
0.00502845
0.00506818
0.00510626
0.00514228
0.00517594
0.00520705
0.00523548
0.00526118
0.00528414
0.0053044
0.00532204
0.00533716
0.00534988
0.00536035
0.00536869
0.00537506
0.00537962
0.00538251
0.00538388
0.00547622
0.00549508
0.00552112
0.0055526
0.00558798
0.0056259
0.0056652
0.00570491
0.00574421
0.00578245
0.00581911
0.0058538
0.00588623
0.00591621
0.00594362
0.00596839
0.00599053
0.00601007
0.00602709
0.00604168
0.00605396
0.00606406
0.00607212
0.00607827
0.00608268
0.00608547
0.0060868
0.00617327
0.00619123
0.00621603
0.00624602
0.00627972
0.00631585
0.0063533
0.00639114
0.0064286
0.00646505
0.00650001
0.00653308
0.00656401
0.0065926
0.00661873
0.00664236
0.00666347
0.00668211
0.00669834
0.00671226
0.00672397
0.00673361
0.00674129
0.00674716
0.00675136
0.00675403
0.00675529
0.00683494
0.00685193
0.00687539
0.00690376
0.00693564
0.00696982
0.00700525
0.00704105
0.00707649
0.00711098
0.00714404
0.00717533
0.00720459
0.00723163
0.00725634
0.00727869
0.00729866
0.00731628
0.00733163
0.00734479
0.00735587
0.00736498
0.00737224
0.00737779
0.00738176
0.00738428
0.00738548
0.00745821
0.00747419
0.00749627
0.00752296
0.00755296
0.00758512
0.00761845
0.00765213
0.00768546
0.0077179
0.00774899
0.00777842
0.00780592
0.00783134
0.00785458
0.00787558
0.00789435
0.00791092
0.00792534
0.00793771
0.00794812
0.00795667
0.0079635
0.00796871
0.00797244
0.00797481
0.00797593
0.00804211
0.00805708
0.00807777
0.00810278
0.00813089
0.00816101
0.00819224
0.00822378
0.008255
0.00828538
0.0083145
0.00834205
0.0083678
0.00839159
0.00841334
0.008433
0.00845056
0.00846607
0.00847956
0.00849113
0.00850086
0.00850887
0.00851525
0.00852013
0.00852361
0.00852583
0.00852688
0.00858706
0.00860105
0.00862038
0.00864374
0.00866999
0.00869812
0.00872729
0.00875674
0.00878589
0.00881425
0.00884143
0.00886715
0.00889118
0.00891339
0.00893369
0.00895203
0.00896841
0.00898288
0.00899546
0.00900625
0.00901533
0.0090228
0.00902875
0.0090333
0.00903655
0.00903861
0.00903959
0.00909438
0.00910742
0.00912544
0.00914721
0.00917168
0.0091979
0.00922508
0.00925253
0.00927969
0.00930611
0.00933143
0.00935538
0.00937777
0.00939845
0.00941735
0.00943443
0.00944969
0.00946315
0.00947487
0.00948491
0.00949337
0.00950031
0.00950585
0.00951008
0.00951311
0.00951503
0.00951594
0.00956592
0.00957806
0.00959483
0.0096151
0.00963787
0.00966227
0.00968756
0.0097131
0.00973837
0.00976296
0.00978651
0.00980879
0.00982962
0.00984885
0.00986643
0.00988232
0.0098965
0.00990902
0.00991992
0.00992926
0.00993712
0.00994357
0.00994872
0.00995266
0.00995547
0.00995725
0.0099581
0.0100038
0.0100151
0.0100307
0.0100495
0.0100707
0.0100934
0.0101169
0.0101407
0.0101641
0.010187
0.0102089
0.0102296
0.010249
0.0102668
0.0102832
0.0102979
0.0103111
0.0103227
0.0103329
0.0103416
0.0103488
0.0103548
0.0103596
0.0103633
0.0103659
0.0103676
0.0103683
0.0104102
0.0104207
0.0104352
0.0104527
0.0104724
0.0104935
0.0105153
0.0105374
0.0105592
0.0105805
0.0106008
0.0106201
0.010638
0.0106546
0.0106698
0.0106835
0.0106958
0.0107066
0.010716
0.010724
0.0107308
0.0107364
0.0107408
0.0107442
0.0107467
0.0107482
0.0107489
0.0107874
0.0107971
0.0108106
0.0108269
0.0108451
0.0108647
0.010885
0.0109055
0.0109258
0.0109455
0.0109644
0.0109823
0.010999
0.0110144
0.0110285
0.0110413
0.0110526
0.0110627
0.0110714
0.0110789
0.0110852
0.0110904
0.0110945
0.0110976
0.0110999
0.0111013
0.011102
0.0111374
0.0111464
0.0111589
0.011174
0.011191
0.0112092
0.0112281
0.0112471
0.011266
0.0112843
0.0113018
0.0113184
0.0113339
0.0113483
0.0113614
0.0113732
0.0113837
0.0113931
0.0114012
0.0114081
0.011414
0.0114188
0.0114226
0.0114255
0.0114276
0.0114289
0.0114296
0.0114621
0.0114706
0.0114822
0.0114962
0.011512
0.0115289
0.0115464
0.0115641
0.0115816
0.0115986
0.0116149
0.0116303
0.0116447
0.011658
0.0116702
0.0116812
0.011691
0.0116996
0.0117072
0.0117136
0.0117191
0.0117235
0.0117271
0.0117298
0.0117317
0.011733
0.0117336
0.0117636
0.0117714
0.0117822
0.0117952
0.0118099
0.0118256
0.0118418
0.0118583
0.0118745
0.0118903
0.0119055
0.0119198
0.0119332
0.0119455
0.0119568
0.011967
0.0119761
0.0119842
0.0119912
0.0119971
0.0120022
0.0120063
0.0120096
0.0120122
0.012014
0.0120151
0.0120157
0.0120433
0.0120506
0.0120606
0.0120727
0.0120863
0.0121009
0.012116
0.0121313
0.0121464
0.0121611
0.0121751
0.0121884
0.0122009
0.0122123
0.0122228
0.0122323
0.0122408
0.0122482
0.0122547
0.0122603
0.012265
0.0122688
0.0122719
0.0122742
0.0122759
0.012277
0.0122775
0.012303
0.0123097
0.012319
0.0123303
0.0123429
0.0123565
0.0123705
0.0123847
0.0123987
0.0124123
0.0124254
0.0124378
0.0124493
0.01246
0.0124697
0.0124785
0.0124864
0.0124933
0.0124993
0.0125045
0.0125088
0.0125124
0.0125153
0.0125174
0.012519
0.01252
0.0125204
0.012544
0.0125502
0.0125589
0.0125693
0.0125811
0.0125937
0.0126067
0.0126199
0.0126329
0.0126455
0.0126577
0.0126691
0.0126799
0.0126898
0.0126988
0.012707
0.0127143
0.0127207
0.0127263
0.0127311
0.0127352
0.0127385
0.0127411
0.0127432
0.0127446
0.0127455
0.012746
0.0127676
0.0127734
0.0127815
0.0127912
0.0128021
0.0128138
0.0128259
0.0128381
0.0128502
0.012862
0.0128732
0.0128839
0.0128938
0.012903
0.0129114
0.012919
0.0129258
0.0129318
0.012937
0.0129414
0.0129452
0.0129483
0.0129507
0.0129526
0.012954
0.0129548
0.0129552
0.0129752
0.0129806
0.012988
0.0129971
0.0130072
0.013018
0.0130293
0.0130406
0.0130519
0.0130628
0.0130733
0.0130831
0.0130924
0.0131009
0.0131087
0.0131158
0.0131221
0.0131276
0.0131325
0.0131366
0.0131401
0.0131429
0.0131452
0.013147
0.0131482
0.013149
0.0131494
0.0131678
0.0131728
0.0131797
0.0131881
0.0131975
0.0132076
0.013218
0.0132286
0.013239
0.0132491
0.0132589
0.013268
0.0132766
0.0132846
0.0132918
0.0132984
0.0133042
0.0133094
0.0133138
0.0133177
0.0133209
0.0133236
0.0133257
0.0133273
0.0133285
0.0133292
0.0133296
0.0133465
0.0133511
0.0133576
0.0133654
0.0133741
0.0133835
0.0133932
0.0134029
0.0134126
0.0134221
0.0134311
0.0134396
0.0134476
0.013455
0.0134617
0.0134678
0.0134732
0.013478
0.0134822
0.0134857
0.0134887
0.0134912
0.0134932
0.0134947
0.0134957
0.0134964
0.0134967
0.0135123
0.0135167
0.0135226
0.0135299
0.013538
0.0135467
0.0135557
0.0135648
0.0135738
0.0135825
0.0135909
0.0135988
0.0136063
0.0136131
0.0136194
0.013625
0.01363
0.0136345
0.0136384
0.0136417
0.0136445
0.0136468
0.0136486
0.01365
0.013651
0.0136516
0.0136519
0.0136663
0.0136703
0.0136759
0.0136826
0.0136901
0.0136982
0.0137066
0.013715
0.0137234
0.0137315
0.0137393
0.0137467
0.0137536
0.0137599
0.0137657
0.013771
0.0137757
0.0137798
0.0137834
0.0137865
0.0137891
0.0137912
0.0137929
0.0137942
0.0137951
0.0137957
0.013796
0.0138092
0.013813
0.0138182
0.0138244
0.0138314
0.0138389
0.0138467
0.0138546
0.0138623
0.0138699
0.0138772
0.013884
0.0138904
0.0138963
0.0139017
0.0139066
0.013911
0.0139148
0.0139182
0.013921
0.0139235
0.0139254
0.013927
0.0139282
0.0139291
0.0139296
0.0139299
0.0139421
0.0139456
0.0139504
0.0139562
0.0139627
0.0139697
0.013977
0.0139843
0.0139915
0.0139986
0.0140053
0.0140117
0.0140177
0.0140232
0.0140282
0.0140328
0.0140368
0.0140404
0.0140435
0.0140462
0.0140484
0.0140503
0.0140518
0.0140529
0.0140537
0.0140542
0.0140544
0.0140658
0.014069
0.0140735
0.0140789
0.014085
0.0140915
0.0140983
0.0141051
0.0141118
0.0141184
0.0141247
0.0141306
0.0141362
0.0141413
0.014146
0.0141503
0.014154
0.0141574
0.0141603
0.0141628
0.0141649
0.0141666
0.014168
0.014169
0.0141698
0.0141703
0.0141705
0.014181
0.014184
0.0141882
0.0141933
0.014199
0.014205
0.0142114
0.0142177
0.014224
0.0142302
0.014236
0.0142416
0.0142468
0.0142516
0.014256
0.01426
0.0142635
0.0142666
0.0142693
0.0142717
0.0142736
0.0142752
0.0142765
0.0142775
0.0142782
0.0142787
0.0142789
0.0142887
0.0142915
0.0142954
0.0143002
0.0143055
0.0143112
0.0143171
0.0143231
0.014329
0.0143347
0.0143402
0.0143455
0.0143503
0.0143548
0.0143589
0.0143627
0.014366
0.0143689
0.0143715
0.0143736
0.0143755
0.014377
0.0143782
0.0143791
0.0143798
0.0143802
0.0143804
0.0143896
0.0143923
0.014396
0.0144004
0.0144054
0.0144108
0.0144163
0.0144219
0.0144275
0.0144329
0.0144381
0.014443
0.0144476
0.0144518
0.0144557
0.0144592
0.0144623
0.0144651
0.0144675
0.0144695
0.0144712
0.0144727
0.0144738
0.0144747
0.0144753
0.0144757
0.0144759
0.0144846
0.0144871
0.0144906
0.0144948
0.0144995
0.0145046
0.0145098
0.0145151
0.0145204
0.0145255
0.0145304
0.014535
0.0145394
0.0145434
0.014547
0.0145503
0.0145533
0.0145559
0.0145582
0.0145601
0.0145618
0.0145631
0.0145642
0.014565
0.0145656
0.014566
0.0145661
0.0145745
0.0145769
0.0145802
0.0145842
0.0145886
0.0145934
0.0145984
0.0146035
0.0146085
0.0146133
0.014618
0.0146224
0.0146265
0.0146303
0.0146338
0.014637
0.0146398
0.0146423
0.0146444
0.0146463
0.0146478
0.0146491
0.0146502
0.0146509
0.0146515
0.0146519
0.014652
0.0146601
0.0146623
0.0146655
0.0146693
0.0146736
0.0146782
0.014683
0.0146878
0.0146926
0.0146972
0.0147017
0.0147059
0.0147099
0.0147135
0.0147169
0.0147199
0.0147226
0.014725
0.014727
0.0147288
0.0147303
0.0147316
0.0147325
0.0147333
0.0147338
0.0147342
0.0147343
0.0147422
0.0147444
0.0147474
0.0147511
0.0147552
0.0147597
0.0147643
0.0147689
0.0147735
0.014778
0.0147823
0.0147864
0.0147902
0.0147938
0.014797
0.0147999
0.0148025
0.0148048
0.0148069
0.0148086
0.01481
0.0148112
0.0148122
0.0148129
0.0148134
0.0148138
0.0148139
0.0148217
0.0148238
0.0148268
0.0148303
0.0148344
0.0148387
0.0148432
0.0148477
0.0148522
0.0148566
0.0148608
0.0148647
0.0148685
0.0148719
0.0148751
0.0148779
0.0148805
0.0148827
0.0148847
0.0148864
0.0148878
0.014889
0.0148899
0.0148906
0.0148911
0.0148915
0.0148916
0.0148994
0.0149015
0.0149044
0.0149079
0.0149118
0.0149161
0.0149205
0.014925
0.0149294
0.0149337
0.0149378
0.0149417
0.0149454
0.0149488
0.0149519
0.0149547
0.0149573
0.0149595
0.0149614
0.0149631
0.0149645
0.0149657
0.0149666
0.0149673
0.0149678
0.0149681
0.0149683
0.0149761
0.0149782
0.0149811
0.0149846
0.0149885
0.0149927
0.0149971
0.0150015
0.0150059
0.0150102
0.0150143
0.0150182
0.0150219
0.0150253
0.0150284
0.0150312
0.0150337
0.0150359
0.0150379
0.0150395
0.0150409
0.0150421
0.015043
0.0150437
0.0150442
0.0150445
0.0150447
0.0150527
0.0150548
0.0150577
0.0150612
0.0150651
0.0150693
0.0150737
0.0150782
0.0150826
0.0150869
0.015091
0.015095
0.0150986
0.0151021
0.0151052
0.015108
0.0151105
0.0151128
0.0151147
0.0151164
0.0151178
0.015119
0.0151199
0.0151206
0.0151211
0.0151214
0.0151216
0.0151298
0.015132
0.0151349
0.0151384
0.0151424
0.0151467
0.0151511
0.0151556
0.0151601
0.0151645
0.0151687
0.0151727
0.0151764
0.0151799
0.0151831
0.0151859
0.0151885
0.0151908
0.0151928
0.0151945
0.0151959
0.0151971
0.015198
0.0151988
0.0151993
0.0151996
0.0151998
0.0152082
0.0152104
0.0152134
0.015217
0.015221
0.0152254
0.01523
0.0152346
0.0152391
0.0152436
0.0152479
0.015252
0.0152558
0.0152594
0.0152626
0.0152655
0.0152682
0.0152705
0.0152725
0.0152743
0.0152758
0.015277
0.0152779
0.0152787
0.0152792
0.0152795
0.0152797
0.0152884
0.0152906
0.0152937
0.0152974
0.0153016
0.015306
0.0153107
0.0153154
0.0153201
0.0153247
0.0153291
0.0153333
0.0153373
0.0153409
0.0153442
0.0153473
0.01535
0.0153524
0.0153545
0.0153563
0.0153578
0.015359
0.01536
0.0153608
0.0153613
0.0153617
0.0153618
0.0153707
0.015373
0.0153761
0.01538
0.0153842
0.0153889
0.0153937
0.0153985
0.0154034
0.0154081
0.0154126
0.015417
0.015421
0.0154248
0.0154282
0.0154313
0.0154341
0.0154366
0.0154387
0.0154406
0.0154421
0.0154434
0.0154445
0.0154452
0.0154458
0.0154462
0.0154463
0.0154553
0.0154576
0.0154609
0.0154648
0.0154692
0.0154739
0.0154789
0.0154839
0.0154889
0.0154937
0.0154984
0.0155028
0.015507
0.0155109
0.0155144
0.0155176
0.0155205
0.015523
0.0155252
0.0155271
0.0155287
0.01553
0.0155311
0.0155319
0.0155325
0.0155329
0.015533
0.0155419
0.0155443
0.0155476
0.0155516
0.0155562
0.015561
0.0155661
0.0155712
0.0155763
0.0155813
0.0155861
0.0155906
0.0155948
0.0155988
0.0156024
0.0156057
0.0156086
0.0156112
0.0156135
0.0156154
0.0156171
0.0156184
0.0156195
0.0156203
0.0156209
0.0156213
0.0156215
0.0156301
0.0156325
0.0156359
0.01564
0.0156446
0.0156495
0.0156546
0.0156598
0.015665
0.01567
0.0156749
0.0156795
0.0156838
0.0156878
0.0156915
0.0156948
0.0156977
0.0157004
0.0157027
0.0157046
0.0157063
0.0157076
0.0157087
0.0157096
0.0157102
0.0157105
0.0157107
0.0157189
0.0157213
0.0157247
0.0157288
0.0157334
0.0157384
0.0157435
0.0157487
0.0157539
0.015759
0.0157638
0.0157684
0.0157727
0.0157767
0.0157804
0.0157837
0.0157866
0.0157893
0.0157915
0.0157935
0.0157951
0.0157965
0.0157976
0.0157984
0.015799
0.0157994
0.0157996
0.015807
0.0158095
0.0158128
0.0158168
0.0158214
0.0158263
0.0158313
0.0158365
0.0158416
0.0158465
0.0158513
0.0158558
0.0158601
0.015864
0.0158676
0.0158708
0.0158737
0.0158763
0.0158785
0.0158804
0.0158821
0.0158834
0.0158844
0.0158853
0.0158858
0.0158862
0.0158864
0.015893
0.0158953
0.0158985
0.0159024
0.0159068
0.0159115
0.0159164
0.0159214
0.0159263
0.0159311
0.0159357
0.01594
0.0159441
0.0159479
0.0159513
0.0159544
0.0159572
0.0159597
0.0159618
0.0159636
0.0159652
0.0159664
0.0159675
0.0159682
0.0159688
0.0159691
0.0159693
0.0159748
0.015977
0.0159801
0.0159838
0.0159879
0.0159924
0.015997
0.0160016
0.0160063
0.0160108
0.0160151
0.0160191
0.0160229
0.0160265
0.0160297
0.0160326
0.0160352
0.0160375
0.0160395
0.0160412
0.0160426
0.0160438
0.0160447
0.0160455
0.016046
0.0160463
0.0160465
0.0160508
0.0160529
0.0160557
0.0160591
0.0160629
0.016067
0.0160712
0.0160754
0.0160797
0.0160837
0.0160877
0.0160914
0.0160948
0.016098
0.016101
0.0161036
0.0161059
0.016108
0.0161098
0.0161114
0.0161127
0.0161137
0.0161146
0.0161152
0.0161157
0.016116
0.0161161
0.0161194
0.0161212
0.0161237
0.0161267
0.0161301
0.0161337
0.0161375
0.0161413
0.016145
0.0161486
0.0161521
0.0161553
0.0161584
0.0161612
0.0161638
0.0161661
0.0161681
0.0161699
0.0161715
0.0161729
0.016174
0.0161749
0.0161757
0.0161763
0.0161767
0.0161769
0.016177
0.0161793
0.0161809
0.0161831
0.0161856
0.0161886
0.0161917
0.0161949
0.0161981
0.0162013
0.0162044
0.0162073
0.0162101
0.0162127
0.0162151
0.0162173
0.0162192
0.016221
0.0162225
0.0162238
0.016225
0.0162259
0.0162267
0.0162274
0.0162278
0.0162282
0.0162284
0.0162285
0.01623
0.0162313
0.0162331
0.0162352
0.0162377
0.0162402
0.0162429
0.0162456
0.0162482
0.0162507
0.0162532
0.0162554
0.0162576
0.0162595
0.0162613
0.0162629
0.0162643
0.0162656
0.0162667
0.0162676
0.0162684
0.016269
0.0162696
0.0162699
0.0162702
0.0162704
0.0162705
0.0162714
0.0162725
0.0162739
0.0162756
0.0162776
0.0162796
0.0162817
0.0162839
0.016286
0.016288
0.0162899
0.0162917
0.0162934
0.016295
0.0162964
0.0162976
0.0162988
0.0162997
0.0163006
0.0163013
0.016302
0.0163025
0.0163029
0.0163032
0.0163034
0.0163035
0.0163036
0.0163042
0.016305
0.0163061
0.0163074
0.0163089
0.0163105
0.0163121
0.0163138
0.0163154
0.0163169
0.0163184
0.0163198
0.0163211
0.0163223
0.0163233
0.0163243
0.0163252
0.0163259
0.0163266
0.0163271
0.0163276
0.016328
0.0163283
0.0163285
0.0163287
0.0163288
0.0163288
0.0163292
0.0163298
0.0163307
0.0163317
0.0163328
0.0163339
0.0163352
0.0163364
0.0163376
0.0163387
0.0163398
0.0163409
0.0163418
0.0163427
0.0163435
0.0163442
0.0163448
0.0163454
0.0163459
0.0163463
0.0163466
0.0163469
0.0163472
0.0163473
0.0163474
0.0163475
0.0163476
0.0163478
0.0163483
0.0163489
0.0163496
0.0163504
0.0163513
0.0163521
0.016353
0.0163539
0.0163547
0.0163555
0.0163563
0.0163569
0.0163576
0.0163582
0.0163587
0.0163591
0.0163595
0.0163599
0.0163602
0.0163604
0.0163606
0.0163608
0.0163609
0.016361
0.016361
0.0163611
0.0163613
0.0163616
0.016362
0.0163625
0.0163631
0.0163637
0.0163643
0.0163649
0.0163655
0.0163661
0.0163667
0.0163672
0.0163677
0.0163681
0.0163685
0.0163689
0.0163692
0.0163695
0.0163697
0.0163699
0.0163701
0.0163702
0.0163704
0.0163704
0.0163705
0.0163705
0.0163706
0.0163708
0.016371
0.0163713
0.0163716
0.016372
0.0163724
0.0163728
0.0163733
0.0163737
0.0163741
0.0163744
0.0163748
0.0163751
0.0163754
0.0163757
0.0163759
0.0163762
0.0163763
0.0163765
0.0163766
0.0163768
0.0163769
0.0163769
0.016377
0.016377
0.0163771
0.0163771
0.0163773
0.0163775
0.0163777
0.0163779
0.0163781
0.0163784
0.0163787
0.016379
0.0163792
0.0163795
0.0163798
0.01638
0.0163802
0.0163804
0.0163806
0.0163808
0.0163809
0.016381
0.0163812
0.0163813
0.0163813
0.0163814
0.0163815
0.0163815
0.0163815
0.0163815
0.0163815
0.0163818
0.0163819
0.016382
0.0163822
0.0163823
0.0163825
0.0163827
0.0163829
0.0163831
0.0163832
0.0163834
0.0163836
0.0163837
0.0163839
0.016384
0.0163841
0.0163842
0.0163843
0.0163844
0.0163844
0.0163845
0.0163846
0.0163846
0.0163846
0.0163846
0.0163847
0.0163847
0.0163848
0.0163849
0.016385
0.0163851
0.0163852
0.0163853
0.0163855
0.0163856
0.0163857
0.0163859
0.016386
0.0163861
0.0163862
0.0163863
0.0163864
0.0163865
0.0163866
0.0163866
0.0163867
0.0163867
0.0163868
0.0163868
0.0163869
0.0163869
0.0163869
0.0163869
0.0163869
0.016387
0.0163871
0.0163871
0.0163872
0.0163873
0.0163874
0.0163875
0.0163876
0.0163877
0.0163878
0.0163879
0.016388
0.0163881
0.0163881
0.0163882
0.0163883
0.0163883
0.0163884
0.0163884
0.0163885
0.0163885
0.0163885
0.0163886
0.0163886
0.0163886
0.0163886
0.0163886
0.0163886
0.0163887
0.0163887
0.0163888
0.0163888
0.0163889
0.016389
0.0163891
0.0163892
0.0163892
0.0163893
0.0163894
0.0163895
0.0163895
0.0163896
0.0163896
0.0163897
0.0163897
0.0163898
0.0163898
0.0163898
0.0163899
0.0163899
0.0163899
0.0163899
0.0163899
0.0163899
0.0163899
0.0163899
0.0163899
0.01639