/*--------------------------------*- C++ -*----------------------------------*\
| =========                 |                                                 |
| \\      /  F ield         | OpenFOAM: The Open Source CFD Toolbox           |
|  \\    /   O peration     | Version:  2106                                  |
|   \\  /    A nd           | Website:  www.openfoam.com                      |
|    \\/     M anipulation  |                                                 |
\*---------------------------------------------------------------------------*/
FoamFile
{
    version     2.0;
    format      ascii;
    arch        "LSB;label=32;scalar=64";
    class       volScalarField;
    location    "90.00055";
    object      AC3H5;
}
// * * * * * * * * * * * * * * * * * * * * * * * * * * * * * * * * * * * * * //

dimensions      [0 0 0 0 0 0 0];

internalField   nonuniform List<scalar> 
3360
(
3.70463e-31
3.82399e-31
3.99012e-31
4.19337e-31
4.4253e-31
4.67831e-31
4.94555e-31
5.22084e-31
5.49865e-31
5.7741e-31
6.04296e-31
6.30163e-31
6.54714e-31
6.7771e-31
6.9897e-31
7.18366e-31
7.3582e-31
7.51296e-31
7.64798e-31
7.76366e-31
7.86066e-31
7.93992e-31
8.00253e-31
8.04978e-31
8.08302e-31
8.1037e-31
8.1133e-31
1.63267e-30
1.6931e-30
1.77843e-30
1.88479e-30
2.00898e-30
2.14819e-30
2.29994e-30
2.46194e-30
2.63205e-30
2.80825e-30
2.98856e-30
3.17109e-30
3.3539e-30
3.53512e-30
3.71288e-30
3.88531e-30
4.05059e-30
4.20695e-30
4.3527e-30
4.48622e-30
4.60605e-30
4.71089e-30
4.79964e-30
4.87141e-30
4.92556e-30
4.96171e-30
4.97972e-30
5.19194e-30
5.42502e-30
5.75698e-30
6.17537e-30
6.67001e-30
7.23181e-30
7.85207e-30
8.52213e-30
9.23308e-30
9.97561e-30
1.074e-29
1.15163e-29
1.22946e-29
1.30648e-29
1.38168e-29
1.45412e-29
1.52288e-29
1.58714e-29
1.64618e-29
1.69936e-29
1.74623e-29
1.78642e-29
1.81972e-29
1.84605e-29
1.86546e-29
1.87812e-29
1.88427e-29
1.57135e-29
1.65452e-29
1.77429e-29
1.92719e-29
2.11048e-29
2.32165e-29
2.55813e-29
2.81709e-29
3.09536e-29
3.38935e-29
3.69505e-29
4.00815e-29
4.32407e-29
4.63808e-29
4.94547e-29
5.24168e-29
5.52249e-29
5.78412e-29
6.02336e-29
6.23766e-29
6.42516e-29
6.58468e-29
6.71571e-29
6.81838e-29
6.89333e-29
6.9417e-29
6.96499e-29
5.10892e-29
5.43034e-29
5.89902e-29
6.50687e-29
7.24883e-29
8.12037e-29
9.11597e-29
1.0228e-28
1.14458e-28
1.27557e-28
1.41405e-28
1.55802e-28
1.7052e-28
1.85318e-28
1.99947e-28
2.14161e-28
2.27727e-28
2.40435e-28
2.52105e-28
2.62589e-28
2.71779e-28
2.79605e-28
2.86033e-28
2.91065e-28
2.94731e-28
2.97091e-28
2.98224e-28
1.96263e-28
2.11527e-28
2.34183e-28
2.64208e-28
3.0175e-28
3.46977e-28
3.99974e-28
4.60654e-28
5.28695e-28
6.03499e-28
6.84183e-28
7.69581e-28
8.58292e-28
9.48736e-28
1.03922e-27
1.12805e-27
1.21355e-27
1.29421e-27
1.36869e-27
1.4359e-27
1.49501e-27
1.54544e-27
1.58692e-27
1.61939e-27
1.64305e-27
1.65825e-27
1.66553e-27
9.8765e-28
1.08284e-27
1.22635e-27
1.42017e-27
1.66752e-27
1.97171e-27
2.3353e-27
2.75937e-27
3.24293e-27
3.78261e-27
4.37244e-27
5.00397e-27
5.66653e-27
6.34778e-27
7.0343e-27
7.71228e-27
8.36823e-27
8.98962e-27
9.56538e-27
1.00863e-26
1.05454e-26
1.09378e-26
1.12608e-26
1.15138e-26
1.16981e-26
1.18165e-26
1.18732e-26
6.54063e-27
7.26478e-27
8.36668e-27
9.87113e-27
1.18129e-26
1.42275e-26
1.71434e-26
2.05761e-26
2.45228e-26
2.89591e-26
3.38375e-26
3.9088e-26
4.46207e-26
5.03302e-26
5.61011e-26
6.18142e-26
6.73524e-26
7.2607e-26
7.74814e-26
8.18955e-26
8.57875e-26
8.91149e-26
9.18542e-26
9.39999e-26
9.55624e-26
9.65659e-26
9.70458e-26
5.16068e-26
5.77024e-26
6.70112e-26
7.97745e-26
9.63197e-26
1.16978e-25
1.42019e-25
1.71593e-25
2.05689e-25
2.44103e-25
2.86423e-25
3.32039e-25
3.80164e-25
4.29873e-25
4.80152e-25
5.29955e-25
5.78252e-25
6.24088e-25
6.66614e-25
7.05128e-25
7.39087e-25
7.68117e-25
7.92013e-25
8.10727e-25
8.2435e-25
8.33096e-25
8.37276e-25
4.39264e-25
4.92393e-25
5.73638e-25
6.85194e-25
8.30011e-25
1.01106e-24
1.23075e-24
1.49043e-24
1.79001e-24
2.12767e-24
2.49977e-24
2.90088e-24
3.32403e-24
3.76104e-24
4.20295e-24
4.6405e-24
5.06466e-24
5.46699e-24
5.84008e-24
6.17776e-24
6.4753e-24
6.72948e-24
6.93855e-24
7.10214e-24
7.22113e-24
7.29744e-24
7.33388e-24
3.84279e-24
4.31087e-24
5.02665e-24
6.00942e-24
7.28496e-24
8.87912e-24
1.08126e-23
1.30967e-23
1.57298e-23
1.86951e-23
2.19599e-23
2.54757e-23
2.9181e-23
3.30035e-23
3.68648e-23
4.06839e-23
4.4382e-23
4.7886e-23
5.11318e-23
5.40662e-23
5.6649e-23
5.88528e-23
6.06632e-23
6.2078e-23
6.31056e-23
6.37636e-23
6.40773e-23
3.37726e-23
3.78818e-23
4.4162e-23
5.27781e-23
6.39501e-23
7.78965e-23
9.47893e-23
1.14716e-22
1.37652e-22
1.63439e-22
1.91781e-22
2.22249e-22
2.543e-22
2.87305e-22
3.20582e-22
3.53435e-22
3.85187e-22
4.15215e-22
4.42976e-22
4.68026e-22
4.90028e-22
5.08762e-22
5.24118e-22
5.3609e-22
5.44764e-22
5.50302e-22
5.52934e-22
2.95464e-22
3.31209e-22
3.85771e-22
4.60501e-22
5.57208e-22
6.77658e-22
8.23193e-22
9.94415e-22
1.19094e-21
1.41126e-21
1.65268e-21
1.91145e-21
2.18285e-21
2.46149e-21
2.74159e-21
3.01729e-21
3.28297e-21
3.53348e-21
3.76439e-21
3.9721e-21
4.15399e-21
4.30835e-21
4.43445e-21
4.53239e-21
4.60306e-21
4.64799e-21
4.66922e-21
2.55149e-21
2.8568e-21
3.32196e-21
3.95747e-21
4.77743e-21
5.79528e-21
7.0206e-21
8.45652e-21
1.00979e-20
1.19302e-20
1.39294e-20
1.60629e-20
1.82906e-20
2.05677e-20
2.28466e-20
2.508e-20
2.72226e-20
2.9234e-20
3.10797e-20
3.27325e-20
3.41728e-20
3.53892e-20
3.63775e-20
3.71407e-20
3.76879e-20
3.80333e-20
3.81953e-20
2.16125e-20
2.41544e-20
2.80156e-20
3.32709e-20
4.00212e-20
4.83584e-20
5.83401e-20
6.997e-20
8.31841e-20
9.78444e-20
1.1374e-19
1.30597e-19
1.48088e-19
1.65855e-19
1.83527e-19
2.00738e-19
2.17149e-19
2.32459e-19
2.46421e-19
2.58843e-19
2.69597e-19
2.78614e-19
2.85886e-19
2.91455e-19
2.9541e-19
2.9788e-19
2.99024e-19
1.77858e-19
1.98224e-19
2.29034e-19
2.70747e-19
3.23991e-19
3.89297e-19
4.66902e-19
5.56611e-19
6.57715e-19
7.6896e-19
8.8858e-19
1.01438e-18
1.14383e-18
1.27424e-18
1.4029e-18
1.5272e-18
1.64476e-18
1.75354e-18
1.85193e-18
1.93872e-18
2.01319e-18
2.07504e-18
2.1244e-18
2.16176e-18
2.18795e-18
2.20404e-18
2.21136e-18
1.40876e-18
1.56383e-18
1.7971e-18
2.11063e-18
2.50748e-18
2.9897e-18
3.55705e-18
4.20612e-18
4.92992e-18
5.71783e-18
6.55606e-18
7.42825e-18
8.31645e-18
9.2021e-18
1.0067e-17
1.08942e-17
1.16689e-17
1.23786e-17
1.30141e-17
1.35688e-17
1.40395e-17
1.44259e-17
1.47302e-17
1.49571e-17
1.51134e-17
1.52075e-17
1.52491e-17
1.06247e-17
1.17298e-17
1.33801e-17
1.55775e-17
1.8329e-17
2.16331e-17
2.54722e-17
2.98084e-17
3.45814e-17
3.97106e-17
4.50982e-17
5.06347e-17
5.62047e-17
6.16934e-17
6.69921e-17
7.20034e-17
7.66443e-17
8.08497e-17
8.45727e-17
8.77857e-17
9.04793e-17
9.26612e-17
9.43545e-17
9.55961e-17
9.64341e-17
9.69259e-17
9.71366e-17
7.55943e-17
8.28691e-17
9.36355e-17
1.0781e-16
1.25331e-16
1.46078e-16
1.6984e-16
1.96288e-16
2.24982e-16
2.55386e-16
2.86891e-16
3.18848e-16
3.50605e-16
3.81534e-16
4.11065e-16
4.38699e-16
4.64035e-16
4.86769e-16
5.06702e-16
5.23737e-16
5.37874e-16
5.49203e-16
5.57892e-16
5.64176e-16
5.68348e-16
5.70747e-16
5.71747e-16
5.05185e-16
5.49252e-16
6.13847e-16
6.97887e-16
8.00398e-16
9.20135e-16
1.05541e-15
1.20404e-15
1.36339e-15
1.53046e-15
1.70204e-15
1.87482e-15
2.04557e-15
2.21125e-15
2.36912e-15
2.51679e-15
2.65233e-15
2.77426e-15
2.88158e-15
2.97378e-15
3.05081e-15
3.11303e-15
3.16122e-15
3.19649e-15
3.22028e-15
3.23423e-15
3.24021e-15
3.20011e-15
3.45434e-15
3.82518e-15
4.30536e-15
4.8891e-15
5.57051e-15
6.34287e-15
7.19848e-15
8.12857e-15
9.12343e-15
1.01724e-14
1.12636e-14
1.23841e-14
1.35198e-14
1.46553e-14
1.57741e-14
1.68588e-14
1.78921e-14
1.88569e-14
1.97376e-14
2.05206e-14
2.11954e-14
2.17543e-14
2.21939e-14
2.25143e-14
2.27193e-14
2.28163e-14
2.01569e-14
2.18188e-14
2.42991e-14
2.76208e-14
3.18481e-14
3.70789e-14
4.34413e-14
5.10886e-14
6.01896e-14
7.09131e-14
8.34065e-14
9.77696e-14
1.14028e-13
1.3214e-13
1.51947e-13
1.73175e-13
1.95436e-13
2.18244e-13
2.41033e-13
2.63192e-13
2.84095e-13
3.03138e-13
3.19772e-13
3.33534e-13
3.44071e-13
3.5115e-13
3.54675e-13
1.51635e-13
1.69962e-13
1.99062e-13
2.41189e-13
2.99757e-13
3.79227e-13
4.85048e-13
6.23538e-13
8.01618e-13
1.0264e-12
1.30464e-12
1.64208e-12
2.04276e-12
2.5083e-12
3.03693e-12
3.62302e-12
4.25733e-12
4.92704e-12
5.61611e-12
6.30584e-12
6.97572e-12
7.60432e-12
8.1703e-12
8.65345e-12
9.03551e-12
9.30104e-12
9.43796e-12
1.92387e-12
2.26536e-12
2.82373e-12
3.65935e-12
4.85847e-12
6.52884e-12
8.79726e-12
1.18067e-11
1.57081e-11
2.06498e-11
2.67644e-11
3.41552e-11
4.28839e-11
5.29594e-11
6.43299e-11
7.68779e-11
9.04184e-11
1.04701e-10
1.19415e-10
1.34198e-10
1.48647e-10
1.62328e-10
1.74796e-10
1.85601e-10
1.94304e-10
2.00484e-10
2.03752e-10
3.77154e-11
4.44926e-11
5.53808e-11
7.12831e-11
9.34166e-11
1.23222e-10
1.62252e-10
2.12016e-10
2.73767e-10
3.4826e-10
4.35525e-10
5.34702e-10
6.44021e-10
7.6092e-10
8.82303e-10
1.00486e-09
1.12537e-09
1.24095e-09
1.34919e-09
1.44822e-09
1.53661e-09
1.61338e-09
1.67786e-09
1.72963e-09
1.76845e-09
1.79427e-09
1.8071e-09
6.51308e-10
7.42313e-10
8.81347e-10
1.07083e-09
1.3125e-09
1.60563e-09
1.94621e-09
2.32722e-09
2.73978e-09
3.17471e-09
3.62363e-09
4.07934e-09
4.53563e-09
4.9868e-09
5.42736e-09
5.85192e-09
6.25525e-09
6.6325e-09
6.97931e-09
7.29196e-09
7.56794e-09
7.8054e-09
8.00312e-09
8.16051e-09
8.2775e-09
8.35453e-09
8.39245e-09
5.30999e-09
5.7437e-09
6.37652e-09
7.19694e-09
8.19667e-09
9.36696e-09
1.06961e-08
1.21675e-08
1.3759e-08
1.54475e-08
1.72075e-08
1.90113e-08
2.083e-08
2.26348e-08
2.4398e-08
2.6094e-08
2.76996e-08
2.91948e-08
3.0563e-08
3.17911e-08
3.28695e-08
3.37917e-08
3.45545e-08
3.51574e-08
3.56021e-08
3.58926e-08
3.60344e-08
2.28312e-08
2.4557e-08
2.7085e-08
3.0377e-08
3.44067e-08
3.91457e-08
4.45554e-08
5.05832e-08
5.71597e-08
6.42002e-08
7.16053e-08
7.92647e-08
8.70602e-08
9.48703e-08
1.02574e-07
1.10054e-07
1.17202e-07
1.23919e-07
1.3012e-07
1.35731e-07
1.40696e-07
1.44973e-07
1.48533e-07
1.51363e-07
1.53461e-07
1.54837e-07
1.55511e-07
8.09496e-08
8.732e-08
9.67026e-08
1.09015e-07
1.24234e-07
1.42342e-07
1.63295e-07
1.87e-07
2.13303e-07
2.41981e-07
2.7274e-07
3.05219e-07
3.38998e-07
3.7361e-07
4.0855e-07
4.43264e-07
4.77223e-07
5.09905e-07
5.40798e-07
5.69423e-07
5.95346e-07
6.18196e-07
6.37654e-07
6.53464e-07
6.6544e-07
6.73459e-07
6.77467e-07
2.53506e-07
2.74215e-07
3.04811e-07
3.452e-07
3.95511e-07
4.55931e-07
5.26595e-07
6.07501e-07
6.98447e-07
7.98952e-07
9.08244e-07
1.02526e-06
1.14867e-06
1.27686e-06
1.408e-06
1.5401e-06
1.67104e-06
1.79865e-06
1.92074e-06
2.03522e-06
2.1401e-06
2.23357e-06
2.31404e-06
2.38012e-06
2.4307e-06
2.46491e-06
2.48217e-06
7.29283e-07
7.85089e-07
8.67348e-07
9.75431e-07
1.10928e-06
1.26893e-06
1.45423e-06
1.6646e-06
1.89891e-06
2.15538e-06
2.43154e-06
2.72427e-06
3.02982e-06
3.34393e-06
3.66198e-06
3.97907e-06
4.29018e-06
4.59034e-06
4.87473e-06
5.1388e-06
5.37841e-06
5.58986e-06
5.77012e-06
5.91695e-06
6.02857e-06
6.10362e-06
6.14129e-06
1.8826e-06
1.99704e-06
2.16328e-06
2.37759e-06
2.63711e-06
2.93904e-06
3.28016e-06
3.65667e-06
4.06399e-06
4.49678e-06
4.94901e-06
5.41412e-06
5.88516e-06
6.35505e-06
6.81759e-06
7.26704e-06
7.69785e-06
8.10474e-06
8.48304e-06
8.8284e-06
9.13717e-06
9.40626e-06
9.63322e-06
9.81631e-06
9.95426e-06
1.00462e-05
1.00921e-05
3.95961e-06
4.12245e-06
4.35418e-06
4.64506e-06
4.98632e-06
5.36942e-06
5.78581e-06
6.22877e-06
6.69131e-06
7.16639e-06
7.64711e-06
8.12691e-06
8.59963e-06
9.05945e-06
9.50147e-06
9.92137e-06
1.03154e-05
1.06805e-05
1.10137e-05
1.13127e-05
1.15761e-05
1.18025e-05
1.19911e-05
1.21415e-05
1.22537e-05
1.23279e-05
1.23647e-05
6.37762e-06
6.5303e-06
6.74387e-06
7.00615e-06
7.30634e-06
7.63448e-06
7.98178e-06
8.34041e-06
8.70349e-06
9.06506e-06
9.42006e-06
9.76431e-06
1.00944e-05
1.04076e-05
1.07018e-05
1.09755e-05
1.12276e-05
1.14571e-05
1.16633e-05
1.18458e-05
1.20045e-05
1.21395e-05
1.22508e-05
1.23389e-05
1.24041e-05
1.2447e-05
1.24681e-05
8.11695e-06
8.21311e-06
8.34527e-06
8.50393e-06
8.68075e-06
8.86853e-06
9.06123e-06
9.25396e-06
9.44287e-06
9.62511e-06
9.7986e-06
9.962e-06
1.01145e-05
1.02556e-05
1.03852e-05
1.05035e-05
1.06105e-05
1.07066e-05
1.07922e-05
1.08671e-05
1.09317e-05
1.09863e-05
1.10312e-05
1.10666e-05
1.10927e-05
1.11099e-05
1.11184e-05
8.62299e-06
8.65395e-06
8.69511e-06
8.74233e-06
8.79214e-06
8.84171e-06
8.88898e-06
8.93256e-06
8.97166e-06
9.00597e-06
9.03557e-06
9.06076e-06
9.08201e-06
9.09987e-06
9.11487e-06
9.12755e-06
9.13836e-06
9.14767e-06
9.15578e-06
9.16291e-06
9.1692e-06
9.17473e-06
9.17953e-06
9.18358e-06
9.18683e-06
9.18907e-06
9.19023e-06
8.03801e-06
8.02384e-06
8.00308e-06
7.97617e-06
7.94358e-06
7.90595e-06
7.86407e-06
7.81886e-06
7.77134e-06
7.72254e-06
7.67346e-06
7.62504e-06
7.57809e-06
7.53334e-06
7.49133e-06
7.45252e-06
7.4172e-06
7.38558e-06
7.35772e-06
7.33364e-06
7.31327e-06
7.29646e-06
7.28304e-06
7.2728e-06
7.26549e-06
7.26088e-06
7.25871e-06
6.85246e-06
6.81777e-06
6.76931e-06
6.70992e-06
6.64213e-06
6.56828e-06
6.49046e-06
6.4106e-06
6.33036e-06
6.25119e-06
6.1743e-06
6.10068e-06
6.03112e-06
5.9662e-06
5.90633e-06
5.85179e-06
5.80269e-06
5.75906e-06
5.72085e-06
5.6879e-06
5.66004e-06
5.63701e-06
5.61857e-06
5.60442e-06
5.59426e-06
5.58779e-06
5.58471e-06
5.51492e-06
5.47648e-06
5.42325e-06
5.35874e-06
5.28603e-06
5.20785e-06
5.12656e-06
5.0442e-06
4.96246e-06
4.88272e-06
4.80609e-06
4.7334e-06
4.66529e-06
4.60218e-06
4.54435e-06
4.49194e-06
4.44497e-06
4.40338e-06
4.36705e-06
4.33579e-06
4.30938e-06
4.28758e-06
4.27011e-06
4.2567e-06
4.24707e-06
4.24093e-06
4.23799e-06
4.28962e-06
4.25547e-06
4.20836e-06
4.15153e-06
4.08781e-06
4.01968e-06
3.94926e-06
3.87832e-06
3.80829e-06
3.74033e-06
3.67533e-06
3.61395e-06
3.55666e-06
3.50377e-06
3.45545e-06
3.41178e-06
3.37272e-06
3.33821e-06
3.30811e-06
3.28224e-06
3.26041e-06
3.24239e-06
3.22797e-06
3.21689e-06
3.20894e-06
3.20387e-06
3.20144e-06
3.28026e-06
3.25285e-06
3.21512e-06
3.16971e-06
3.11892e-06
3.06477e-06
3.00895e-06
2.95287e-06
2.89767e-06
2.84424e-06
2.79326e-06
2.74522e-06
2.70048e-06
2.65924e-06
2.62163e-06
2.58768e-06
2.55736e-06
2.5306e-06
2.50727e-06
2.48724e-06
2.47035e-06
2.45641e-06
2.44526e-06
2.4367e-06
2.43055e-06
2.42663e-06
2.42475e-06
2.4968e-06
2.47594e-06
2.44724e-06
2.41273e-06
2.37418e-06
2.33314e-06
2.29089e-06
2.2485e-06
2.20683e-06
2.16654e-06
2.12815e-06
2.09201e-06
2.05838e-06
2.02742e-06
1.9992e-06
1.97375e-06
1.95103e-06
1.93099e-06
1.91353e-06
1.89854e-06
1.8859e-06
1.87548e-06
1.86714e-06
1.86074e-06
1.85615e-06
1.85321e-06
1.85181e-06
1.90866e-06
1.8932e-06
1.87192e-06
1.84636e-06
1.81782e-06
1.78745e-06
1.75621e-06
1.72488e-06
1.69409e-06
1.66434e-06
1.63601e-06
1.60935e-06
1.58455e-06
1.56173e-06
1.54093e-06
1.52218e-06
1.50545e-06
1.49069e-06
1.47783e-06
1.4668e-06
1.4575e-06
1.44983e-06
1.44369e-06
1.43898e-06
1.4356e-06
1.43345e-06
1.43241e-06
1.47473e-06
1.46339e-06
1.44781e-06
1.42908e-06
1.40817e-06
1.38593e-06
1.36304e-06
1.3401e-06
1.31756e-06
1.29577e-06
1.27503e-06
1.25551e-06
1.23735e-06
1.22064e-06
1.20542e-06
1.19169e-06
1.17945e-06
1.16864e-06
1.15923e-06
1.15115e-06
1.14434e-06
1.13873e-06
1.13424e-06
1.13079e-06
1.12832e-06
1.12674e-06
1.12598e-06
1.15681e-06
1.14853e-06
1.13713e-06
1.12344e-06
1.10815e-06
1.09189e-06
1.07515e-06
1.05836e-06
1.04187e-06
1.02593e-06
1.01074e-06
9.9645e-07
9.83156e-07
9.70917e-07
9.59766e-07
9.49709e-07
9.40734e-07
9.32815e-07
9.25918e-07
9.19998e-07
9.15006e-07
9.1089e-07
9.07597e-07
9.05069e-07
9.03254e-07
9.02097e-07
9.01543e-07
9.23951e-07
9.17875e-07
9.09517e-07
8.99471e-07
8.88254e-07
8.7631e-07
8.64018e-07
8.51687e-07
8.39565e-07
8.27846e-07
8.16677e-07
8.06164e-07
7.9638e-07
7.8737e-07
7.79158e-07
7.71749e-07
7.65136e-07
7.593e-07
7.54216e-07
7.4985e-07
7.46169e-07
7.43133e-07
7.40703e-07
7.38839e-07
7.375e-07
7.36645e-07
7.36237e-07
7.52662e-07
7.48175e-07
7.42001e-07
7.34578e-07
7.26285e-07
7.17453e-07
7.08358e-07
6.99231e-07
6.90253e-07
6.8157e-07
6.73291e-07
6.65494e-07
6.58234e-07
6.51546e-07
6.45447e-07
6.39943e-07
6.35028e-07
6.30689e-07
6.26908e-07
6.2366e-07
6.20921e-07
6.18662e-07
6.16853e-07
6.15464e-07
6.14467e-07
6.1383e-07
6.13526e-07
6.25746e-07
6.22401e-07
6.17797e-07
6.1226e-07
6.06071e-07
5.99476e-07
5.92681e-07
5.85858e-07
5.79144e-07
5.72646e-07
5.66446e-07
5.60605e-07
5.55163e-07
5.50146e-07
5.4557e-07
5.41437e-07
5.37745e-07
5.34485e-07
5.31642e-07
5.292e-07
5.27139e-07
5.25439e-07
5.24077e-07
5.23032e-07
5.22281e-07
5.21801e-07
5.21572e-07
5.30834e-07
5.28313e-07
5.24842e-07
5.20665e-07
5.15995e-07
5.11016e-07
5.05883e-07
5.00725e-07
4.95647e-07
4.90728e-07
4.86033e-07
4.81605e-07
4.77478e-07
4.73671e-07
4.70197e-07
4.67057e-07
4.64251e-07
4.61771e-07
4.59608e-07
4.57749e-07
4.5618e-07
4.54884e-07
4.53847e-07
4.5305e-07
4.52477e-07
4.52111e-07
4.51936e-07
4.59102e-07
4.57179e-07
4.54531e-07
4.51344e-07
4.47777e-07
4.43972e-07
4.40048e-07
4.36101e-07
4.32212e-07
4.28444e-07
4.24843e-07
4.21446e-07
4.18277e-07
4.15352e-07
4.1268e-07
4.10265e-07
4.08104e-07
4.06194e-07
4.04527e-07
4.03094e-07
4.01883e-07
4.00883e-07
4.00082e-07
3.99466e-07
3.99023e-07
3.9874e-07
3.98605e-07
4.0427e-07
4.02785e-07
4.0074e-07
3.98276e-07
3.95518e-07
3.92574e-07
3.89535e-07
3.86477e-07
3.83461e-07
3.80536e-07
3.7774e-07
3.75099e-07
3.72634e-07
3.70358e-07
3.68276e-07
3.66393e-07
3.64708e-07
3.63217e-07
3.61915e-07
3.60795e-07
3.59848e-07
3.59066e-07
3.58439e-07
3.57956e-07
3.5761e-07
3.57388e-07
3.57282e-07
3.61857e-07
3.60695e-07
3.59095e-07
3.57166e-07
3.55006e-07
3.52698e-07
3.50315e-07
3.47914e-07
3.45545e-07
3.43246e-07
3.41045e-07
3.38966e-07
3.37023e-07
3.35228e-07
3.33585e-07
3.32097e-07
3.30765e-07
3.29586e-07
3.28555e-07
3.27668e-07
3.26917e-07
3.26297e-07
3.25799e-07
3.25416e-07
3.2514e-07
3.24964e-07
3.2488e-07
3.28652e-07
3.27732e-07
3.26463e-07
3.24934e-07
3.2322e-07
3.21388e-07
3.19494e-07
3.17585e-07
3.15699e-07
3.13868e-07
3.12114e-07
3.10455e-07
3.08903e-07
3.07468e-07
3.06154e-07
3.04963e-07
3.03896e-07
3.0295e-07
3.02123e-07
3.01411e-07
3.00808e-07
3.00309e-07
2.99908e-07
2.996e-07
2.99378e-07
2.99236e-07
2.99168e-07
3.02339e-07
3.01601e-07
3.00583e-07
2.99355e-07
2.97977e-07
2.96504e-07
2.94979e-07
2.93442e-07
2.91922e-07
2.90444e-07
2.89027e-07
2.87686e-07
2.86431e-07
2.85269e-07
2.84204e-07
2.83238e-07
2.82371e-07
2.81603e-07
2.80931e-07
2.80351e-07
2.7986e-07
2.79453e-07
2.79127e-07
2.78875e-07
2.78694e-07
2.78578e-07
2.78522e-07
2.81237e-07
2.80637e-07
2.79809e-07
2.7881e-07
2.77689e-07
2.76489e-07
2.75246e-07
2.73992e-07
2.72751e-07
2.71543e-07
2.70384e-07
2.69286e-07
2.68257e-07
2.67304e-07
2.6643e-07
2.65636e-07
2.64924e-07
2.64291e-07
2.63737e-07
2.63259e-07
2.62854e-07
2.62519e-07
2.62249e-07
2.62041e-07
2.61891e-07
2.61795e-07
2.61749e-07
2.64111e-07
2.63617e-07
2.62936e-07
2.62113e-07
2.61189e-07
2.60199e-07
2.59174e-07
2.58137e-07
2.57111e-07
2.56112e-07
2.55152e-07
2.54242e-07
2.53388e-07
2.52596e-07
2.51869e-07
2.51209e-07
2.50615e-07
2.50088e-07
2.49626e-07
2.49227e-07
2.48888e-07
2.48608e-07
2.48382e-07
2.48207e-07
2.48082e-07
2.48001e-07
2.47963e-07
2.50048e-07
2.49637e-07
2.49069e-07
2.48383e-07
2.47612e-07
2.46786e-07
2.45929e-07
2.45063e-07
2.44204e-07
2.43366e-07
2.42561e-07
2.41797e-07
2.4108e-07
2.40414e-07
2.39803e-07
2.39246e-07
2.38746e-07
2.38301e-07
2.3791e-07
2.37573e-07
2.37286e-07
2.37048e-07
2.36857e-07
2.36709e-07
2.36602e-07
2.36534e-07
2.36501e-07
2.38366e-07
2.38019e-07
2.37541e-07
2.36962e-07
2.36311e-07
2.35613e-07
2.34888e-07
2.34155e-07
2.33428e-07
2.32718e-07
2.32034e-07
2.31385e-07
2.30776e-07
2.30209e-07
2.29687e-07
2.29213e-07
2.28785e-07
2.28405e-07
2.28071e-07
2.27782e-07
2.27537e-07
2.27333e-07
2.27168e-07
2.27042e-07
2.2695e-07
2.26891e-07
2.26863e-07
2.2855e-07
2.28254e-07
2.27846e-07
2.27351e-07
2.26796e-07
2.26199e-07
2.25579e-07
2.24951e-07
2.24327e-07
2.23718e-07
2.23131e-07
2.22573e-07
2.22048e-07
2.2156e-07
2.2111e-07
2.20701e-07
2.20331e-07
2.20002e-07
2.19713e-07
2.19463e-07
2.1925e-07
2.19073e-07
2.1893e-07
2.1882e-07
2.1874e-07
2.18689e-07
2.18664e-07
2.20206e-07
2.19951e-07
2.19598e-07
2.19171e-07
2.18691e-07
2.18174e-07
2.17637e-07
2.17093e-07
2.16552e-07
2.16023e-07
2.15513e-07
2.15028e-07
2.14571e-07
2.14145e-07
2.13752e-07
2.13394e-07
2.13072e-07
2.12784e-07
2.1253e-07
2.12311e-07
2.12124e-07
2.11968e-07
2.11843e-07
2.11745e-07
2.11675e-07
2.1163e-07
2.11608e-07
2.1303e-07
2.12807e-07
2.12499e-07
2.12126e-07
2.11706e-07
2.11254e-07
2.10784e-07
2.10306e-07
2.09831e-07
2.09367e-07
2.08918e-07
2.0849e-07
2.08088e-07
2.07712e-07
2.07365e-07
2.07049e-07
2.06763e-07
2.06508e-07
2.06283e-07
2.06088e-07
2.05922e-07
2.05783e-07
2.05672e-07
2.05585e-07
2.05522e-07
2.05482e-07
2.05463e-07
2.06786e-07
2.06589e-07
2.06316e-07
2.05986e-07
2.05614e-07
2.05214e-07
2.04797e-07
2.04373e-07
2.03951e-07
2.03538e-07
2.03139e-07
2.02757e-07
2.02398e-07
2.02062e-07
2.01752e-07
2.01469e-07
2.01213e-07
2.00984e-07
2.00782e-07
2.00607e-07
2.00457e-07
2.00333e-07
2.00232e-07
2.00154e-07
2.00097e-07
2.00061e-07
2.00043e-07
2.01284e-07
2.01108e-07
2.00864e-07
2.00569e-07
2.00235e-07
1.99876e-07
1.99502e-07
1.99121e-07
1.98742e-07
1.9837e-07
1.9801e-07
1.97666e-07
1.97341e-07
1.97037e-07
1.96757e-07
1.965e-07
1.96267e-07
1.96059e-07
1.95876e-07
1.95716e-07
1.9558e-07
1.95466e-07
1.95374e-07
1.95303e-07
1.95251e-07
1.95218e-07
1.95201e-07
1.96375e-07
1.96216e-07
1.95995e-07
1.95727e-07
1.95424e-07
1.95098e-07
1.94758e-07
1.94412e-07
1.94066e-07
1.93727e-07
1.93398e-07
1.93084e-07
1.92786e-07
1.92508e-07
1.92251e-07
1.92015e-07
1.91801e-07
1.9161e-07
1.9144e-07
1.91293e-07
1.91167e-07
1.91062e-07
1.90977e-07
1.90911e-07
1.90863e-07
1.90832e-07
1.90817e-07
1.91936e-07
1.9179e-07
1.91587e-07
1.91341e-07
1.91063e-07
1.90763e-07
1.9045e-07
1.9013e-07
1.89811e-07
1.89498e-07
1.89194e-07
1.88902e-07
1.88627e-07
1.88369e-07
1.88129e-07
1.8791e-07
1.8771e-07
1.87532e-07
1.87374e-07
1.87236e-07
1.87118e-07
1.8702e-07
1.8694e-07
1.86878e-07
1.86833e-07
1.86804e-07
1.8679e-07
1.87866e-07
1.8773e-07
1.87541e-07
1.87312e-07
1.87053e-07
1.86774e-07
1.86481e-07
1.86183e-07
1.85884e-07
1.8559e-07
1.85305e-07
1.85032e-07
1.84773e-07
1.8453e-07
1.84304e-07
1.84097e-07
1.83908e-07
1.8374e-07
1.8359e-07
1.83459e-07
1.83347e-07
1.83254e-07
1.83178e-07
1.83119e-07
1.83076e-07
1.83048e-07
1.83034e-07
1.84079e-07
1.83951e-07
1.83773e-07
1.83557e-07
1.83312e-07
1.83048e-07
1.82771e-07
1.82488e-07
1.82205e-07
1.81926e-07
1.81655e-07
1.81394e-07
1.81147e-07
1.80915e-07
1.80699e-07
1.805e-07
1.8032e-07
1.80158e-07
1.80014e-07
1.79888e-07
1.79781e-07
1.7969e-07
1.79617e-07
1.7956e-07
1.79518e-07
1.79491e-07
1.79478e-07
1.80502e-07
1.8038e-07
1.8021e-07
1.80003e-07
1.79768e-07
1.79514e-07
1.79248e-07
1.78977e-07
1.78704e-07
1.78435e-07
1.78173e-07
1.77921e-07
1.77682e-07
1.77457e-07
1.77247e-07
1.77054e-07
1.76879e-07
1.76721e-07
1.7658e-07
1.76458e-07
1.76352e-07
1.76264e-07
1.76192e-07
1.76136e-07
1.76095e-07
1.76068e-07
1.76056e-07
1.7707e-07
1.76951e-07
1.76786e-07
1.76585e-07
1.76357e-07
1.7611e-07
1.75851e-07
1.75585e-07
1.75319e-07
1.75055e-07
1.74799e-07
1.74552e-07
1.74316e-07
1.74095e-07
1.73888e-07
1.73698e-07
1.73524e-07
1.73368e-07
1.73229e-07
1.73107e-07
1.73002e-07
1.72915e-07
1.72843e-07
1.72787e-07
1.72746e-07
1.7272e-07
1.72707e-07
1.73724e-07
1.73607e-07
1.73444e-07
1.73246e-07
1.73021e-07
1.72776e-07
1.7252e-07
1.72257e-07
1.71992e-07
1.7173e-07
1.71475e-07
1.71229e-07
1.70994e-07
1.70772e-07
1.70566e-07
1.70375e-07
1.70201e-07
1.70043e-07
1.69903e-07
1.69781e-07
1.69675e-07
1.69586e-07
1.69514e-07
1.69457e-07
1.69416e-07
1.69389e-07
1.69376e-07
1.70409e-07
1.70292e-07
1.70129e-07
1.6993e-07
1.69704e-07
1.69459e-07
1.69201e-07
1.68936e-07
1.68669e-07
1.68405e-07
1.68147e-07
1.67897e-07
1.67659e-07
1.67435e-07
1.67225e-07
1.6703e-07
1.66853e-07
1.66692e-07
1.66549e-07
1.66424e-07
1.66315e-07
1.66224e-07
1.6615e-07
1.66092e-07
1.66049e-07
1.66022e-07
1.66008e-07
1.6707e-07
1.6695e-07
1.66785e-07
1.66583e-07
1.66352e-07
1.66102e-07
1.65839e-07
1.65568e-07
1.65296e-07
1.65025e-07
1.6476e-07
1.64504e-07
1.64259e-07
1.64027e-07
1.6381e-07
1.63609e-07
1.63426e-07
1.63259e-07
1.63111e-07
1.62981e-07
1.62868e-07
1.62773e-07
1.62696e-07
1.62635e-07
1.62591e-07
1.62562e-07
1.62548e-07
1.63653e-07
1.6353e-07
1.63359e-07
1.6315e-07
1.62912e-07
1.62654e-07
1.62381e-07
1.621e-07
1.61817e-07
1.61535e-07
1.61259e-07
1.60992e-07
1.60736e-07
1.60494e-07
1.60267e-07
1.60056e-07
1.59863e-07
1.59689e-07
1.59532e-07
1.59395e-07
1.59276e-07
1.59176e-07
1.59095e-07
1.5903e-07
1.58983e-07
1.58953e-07
1.58938e-07
1.60103e-07
1.59974e-07
1.59795e-07
1.59576e-07
1.59327e-07
1.59055e-07
1.58769e-07
1.58473e-07
1.58175e-07
1.57878e-07
1.57587e-07
1.57304e-07
1.57033e-07
1.56776e-07
1.56536e-07
1.56312e-07
1.56107e-07
1.55921e-07
1.55754e-07
1.55607e-07
1.55481e-07
1.55374e-07
1.55286e-07
1.55217e-07
1.55167e-07
1.55134e-07
1.55118e-07
1.5636e-07
1.56224e-07
1.56034e-07
1.55802e-07
1.55537e-07
1.55248e-07
1.54943e-07
1.54628e-07
1.5431e-07
1.53993e-07
1.53681e-07
1.53378e-07
1.53088e-07
1.52813e-07
1.52554e-07
1.52313e-07
1.52092e-07
1.51892e-07
1.51712e-07
1.51554e-07
1.51417e-07
1.51301e-07
1.51207e-07
1.51132e-07
1.51078e-07
1.51042e-07
1.51025e-07
1.52363e-07
1.52217e-07
1.52013e-07
1.51764e-07
1.51479e-07
1.51168e-07
1.50839e-07
1.505e-07
1.50156e-07
1.49813e-07
1.49476e-07
1.49149e-07
1.48834e-07
1.48535e-07
1.48254e-07
1.47993e-07
1.47753e-07
1.47534e-07
1.47339e-07
1.47166e-07
1.47017e-07
1.4689e-07
1.46787e-07
1.46705e-07
1.46646e-07
1.46607e-07
1.46588e-07
1.48043e-07
1.47885e-07
1.47664e-07
1.47392e-07
1.47083e-07
1.46745e-07
1.46387e-07
1.46017e-07
1.45643e-07
1.45269e-07
1.44901e-07
1.44543e-07
1.44199e-07
1.43872e-07
1.43564e-07
1.43278e-07
1.43014e-07
1.42774e-07
1.4256e-07
1.4237e-07
1.42206e-07
1.42067e-07
1.41952e-07
1.41863e-07
1.41797e-07
1.41754e-07
1.41733e-07
1.43327e-07
1.43154e-07
1.42911e-07
1.42614e-07
1.42275e-07
1.41904e-07
1.41512e-07
1.41106e-07
1.40694e-07
1.40283e-07
1.39878e-07
1.39485e-07
1.39106e-07
1.38745e-07
1.38406e-07
1.3809e-07
1.37799e-07
1.37534e-07
1.37297e-07
1.37087e-07
1.36906e-07
1.36752e-07
1.36625e-07
1.36526e-07
1.36453e-07
1.36406e-07
1.36382e-07
1.38137e-07
1.37945e-07
1.37678e-07
1.37351e-07
1.36976e-07
1.36567e-07
1.36134e-07
1.35686e-07
1.35231e-07
1.34777e-07
1.34329e-07
1.33893e-07
1.33474e-07
1.33075e-07
1.32699e-07
1.32349e-07
1.32027e-07
1.31733e-07
1.3147e-07
1.31238e-07
1.31036e-07
1.30865e-07
1.30725e-07
1.30615e-07
1.30534e-07
1.30481e-07
1.30455e-07
1.3239e-07
1.32178e-07
1.31882e-07
1.3152e-07
1.31105e-07
1.30652e-07
1.30172e-07
1.29675e-07
1.29171e-07
1.28667e-07
1.28171e-07
1.27688e-07
1.27223e-07
1.2678e-07
1.26364e-07
1.25975e-07
1.25617e-07
1.25292e-07
1.24999e-07
1.24741e-07
1.24517e-07
1.24328e-07
1.24172e-07
1.2405e-07
1.23959e-07
1.23901e-07
1.23872e-07
1.26007e-07
1.25771e-07
1.25443e-07
1.25041e-07
1.24581e-07
1.24079e-07
1.23546e-07
1.22996e-07
1.22437e-07
1.21878e-07
1.21328e-07
1.20793e-07
1.20278e-07
1.19787e-07
1.19325e-07
1.18895e-07
1.18498e-07
1.18137e-07
1.17814e-07
1.17528e-07
1.1728e-07
1.1707e-07
1.16897e-07
1.16761e-07
1.16662e-07
1.16597e-07
1.16565e-07
1.18913e-07
1.18653e-07
1.18289e-07
1.17844e-07
1.17335e-07
1.16779e-07
1.1619e-07
1.15581e-07
1.14963e-07
1.14346e-07
1.13738e-07
1.13147e-07
1.12579e-07
1.12037e-07
1.11528e-07
1.11053e-07
1.10616e-07
1.10219e-07
1.09862e-07
1.09547e-07
1.09274e-07
1.09043e-07
1.08853e-07
1.08703e-07
1.08594e-07
1.08522e-07
1.08487e-07
1.11056e-07
1.10769e-07
1.10368e-07
1.09878e-07
1.09318e-07
1.08706e-07
1.08058e-07
1.07389e-07
1.06711e-07
1.06033e-07
1.05367e-07
1.04719e-07
1.04096e-07
1.03503e-07
1.02946e-07
1.02427e-07
1.01949e-07
1.01515e-07
1.01125e-07
1.00781e-07
1.00483e-07
1.00231e-07
1.00024e-07
9.98611e-08
9.97414e-08
9.96634e-08
9.96253e-08
1.02413e-07
1.02099e-07
1.01662e-07
1.01127e-07
1.00516e-07
9.98496e-08
9.91445e-08
9.84166e-08
9.76793e-08
9.69442e-08
9.62213e-08
9.55191e-08
9.48446e-08
9.42037e-08
9.36012e-08
9.30408e-08
9.25255e-08
9.20573e-08
9.16377e-08
9.12674e-08
9.09467e-08
9.06753e-08
9.04527e-08
9.02778e-08
9.01492e-08
9.00654e-08
9.00245e-08
9.30152e-08
9.26777e-08
9.22071e-08
9.16314e-08
9.09748e-08
9.02589e-08
8.95028e-08
8.87231e-08
8.79343e-08
8.71489e-08
8.63776e-08
8.56292e-08
8.49113e-08
8.42301e-08
8.35903e-08
8.2996e-08
8.245e-08
8.19545e-08
8.15107e-08
8.11194e-08
8.07808e-08
8.04946e-08
8.02598e-08
8.00755e-08
7.994e-08
7.98518e-08
7.98087e-08
8.29707e-08
8.2614e-08
8.21169e-08
8.15094e-08
8.08174e-08
8.00638e-08
7.9269e-08
7.84506e-08
7.76239e-08
7.6802e-08
7.5996e-08
7.52152e-08
7.44672e-08
7.37585e-08
7.30939e-08
7.24773e-08
7.19116e-08
7.13987e-08
7.094e-08
7.0536e-08
7.01867e-08
6.98916e-08
6.96498e-08
6.94601e-08
6.93208e-08
6.92301e-08
6.91859e-08
7.24714e-08
7.21027e-08
7.15894e-08
7.09625e-08
7.02491e-08
6.94729e-08
6.86548e-08
6.78127e-08
6.69619e-08
6.61153e-08
6.52837e-08
6.44777e-08
6.37059e-08
6.29749e-08
6.22899e-08
6.16549e-08
6.10728e-08
6.05455e-08
6.00742e-08
5.96594e-08
5.93011e-08
5.89986e-08
5.8751e-08
5.85567e-08
5.84142e-08
5.83214e-08
5.82761e-08
6.1693e-08
6.13158e-08
6.07913e-08
6.01519e-08
5.9426e-08
5.86384e-08
5.7811e-08
5.69627e-08
5.61094e-08
5.52646e-08
5.44398e-08
5.36442e-08
5.28853e-08
5.2169e-08
5.14999e-08
5.08814e-08
5.03159e-08
4.98049e-08
4.93491e-08
4.89488e-08
4.86035e-08
4.83125e-08
4.80746e-08
4.78881e-08
4.77515e-08
4.76626e-08
4.76193e-08
5.09901e-08
5.06267e-08
5.01224e-08
4.95089e-08
4.88142e-08
4.80627e-08
4.72755e-08
4.6471e-08
4.56643e-08
4.48685e-08
4.40938e-08
4.33489e-08
4.26405e-08
4.19736e-08
4.13523e-08
4.07794e-08
4.02566e-08
3.97851e-08
3.93653e-08
3.89971e-08
3.86799e-08
3.84128e-08
3.81945e-08
3.80236e-08
3.78983e-08
3.78166e-08
3.77769e-08
4.09663e-08
4.06329e-08
4.01708e-08
3.96098e-08
3.89761e-08
3.82922e-08
3.7578e-08
3.685e-08
3.61223e-08
3.54063e-08
3.47115e-08
3.40451e-08
3.3413e-08
3.28196e-08
3.22679e-08
3.17602e-08
3.12979e-08
3.08817e-08
3.05117e-08
3.01876e-08
2.99088e-08
2.96742e-08
2.94827e-08
2.93328e-08
2.9223e-08
2.91516e-08
2.91169e-08
3.20212e-08
3.17281e-08
3.13225e-08
3.08311e-08
3.02772e-08
2.96809e-08
2.90597e-08
2.84283e-08
2.77988e-08
2.71812e-08
2.65835e-08
2.60117e-08
2.54706e-08
2.49638e-08
2.44937e-08
2.40619e-08