/*--------------------------------*- C++ -*----------------------------------*\
| =========                 |                                                 |
| \\      /  F ield         | OpenFOAM: The Open Source CFD Toolbox           |
|  \\    /   O peration     | Version:  2106                                  |
|   \\  /    A nd           | Website:  www.openfoam.com                      |
|    \\/     M anipulation  |                                                 |
\*---------------------------------------------------------------------------*/
FoamFile
{
    version     2.0;
    format      ascii;
    arch        "LSB;label=32;scalar=64";
    class       volScalarField;
    location    "90.00055";
    object      C3H3_0;
}
// * * * * * * * * * * * * * * * * * * * * * * * * * * * * * * * * * * * * * //

dimensions      [0 0 0 0 0 0 0];

internalField   nonuniform List<scalar> 
3360
(
1.02003e-18
1.05286e-18
1.09853e-18
1.15441e-18
1.21814e-18
1.28766e-18
1.36106e-18
1.43664e-18
1.51289e-18
1.58846e-18
1.66219e-18
1.7331e-18
1.80038e-18
1.86337e-18
1.92157e-18
1.97466e-18
2.0224e-18
2.06472e-18
2.10163e-18
2.13324e-18
2.15974e-18
2.18138e-18
2.19848e-18
2.21137e-18
2.22044e-18
2.22609e-18
2.22871e-18
4.47477e-18
4.63924e-18
4.87134e-18
5.16036e-18
5.49747e-18
5.87494e-18
6.28587e-18
6.72395e-18
7.18331e-18
7.65838e-18
8.14386e-18
8.63454e-18
9.12533e-18
9.61117e-18
1.00871e-17
1.05483e-17
1.09898e-17
1.14072e-17
1.17959e-17
1.21518e-17
1.24711e-17
1.27503e-17
1.29867e-17
1.31778e-17
1.33221e-17
1.34184e-17
1.34665e-17
1.404e-17
1.46562e-17
1.55318e-17
1.66321e-17
1.79282e-17
1.93943e-17
2.10056e-17
2.27379e-17
2.45668e-17
2.64669e-17
2.84128e-17
3.0379e-17
3.23403e-17
3.42718e-17
3.61493e-17
3.79502e-17
3.96532e-17
4.12393e-17
4.2692e-17
4.39978e-17
4.51461e-17
4.61294e-17
4.69434e-17
4.75868e-17
4.80612e-17
4.83705e-17
4.85211e-17
4.08888e-17
4.29199e-17
4.58253e-17
4.95012e-17
5.38607e-17
5.88225e-17
6.43051e-17
7.02243e-17
7.64916e-17
8.30139e-17
8.96953e-17
9.64379e-17
1.03145e-16
1.09721e-16
1.16077e-16
1.22131e-16
1.27809e-16
1.3305e-16
1.37804e-16
1.42033e-16
1.45712e-16
1.48829e-16
1.51382e-16
1.53378e-16
1.54836e-16
1.55776e-16
1.5623e-16
1.19461e-16
1.25868e-16
1.35051e-16
1.46696e-16
1.60538e-16
1.76319e-16
1.93778e-16
2.12636e-16
2.32594e-16
2.53342e-16
2.74553e-16
2.95903e-16
3.1707e-16
3.37748e-16
3.57655e-16
3.76536e-16
3.94172e-16
4.10384e-16
4.25029e-16
4.3801e-16
4.49264e-16
4.58766e-16
4.66525e-16
4.72576e-16
4.76981e-16
4.79819e-16
4.81184e-16
3.52249e-16
3.71927e-16
4.00164e-16
4.36004e-16
4.78626e-16
5.27236e-16
5.81012e-16
6.39079e-16
7.00502e-16
7.64298e-16
8.29452e-16
8.94945e-16
9.59782e-16
1.02302e-15
1.08379e-15
1.14133e-15
1.19498e-15
1.2442e-15
1.28858e-15
1.32786e-15
1.36185e-15
1.3905e-15
1.41387e-15
1.43206e-15
1.44529e-15
1.4538e-15
1.45789e-15
1.04637e-15
1.10616e-15
1.19196e-15
1.30087e-15
1.43037e-15
1.57804e-15
1.74134e-15
1.91756e-15
2.10384e-15
2.29715e-15
2.4944e-15
2.69249e-15
2.8884e-15
3.0793e-15
3.26258e-15
3.43595e-15
3.59747e-15
3.74556e-15
3.87902e-15
3.99703e-15
4.09912e-15
4.18515e-15
4.25527e-15
4.30986e-15
4.34954e-15
4.37506e-15
4.38734e-15
3.11876e-15
3.29868e-15
3.557e-15
3.885e-15
4.27514e-15
4.72006e-15
5.2121e-15
5.74306e-15
6.30423e-15
6.88646e-15
7.48037e-15
8.0766e-15
8.66605e-15
9.24019e-15
9.79119e-15
1.03122e-14
1.07973e-14
1.12419e-14
1.16424e-14
1.19964e-14
1.23025e-14
1.25604e-14
1.27704e-14
1.29339e-14
1.30527e-14
1.31291e-14
1.31658e-14
9.32032e-15
9.8611e-15
1.06373e-14
1.16229e-14
1.27949e-14
1.41314e-14
1.5609e-14
1.72031e-14
1.88874e-14
2.06343e-14
2.24156e-14
2.42032e-14
2.597e-14
2.76903e-14
2.93409e-14
3.09011e-14
3.23536e-14
3.36846e-14
3.48833e-14
3.59427e-14
3.68588e-14
3.76303e-14
3.82589e-14
3.87481e-14
3.91036e-14
3.93321e-14
3.9442e-14
2.78567e-14
2.94766e-14
3.18023e-14
3.47552e-14
3.82672e-14
4.22717e-14
4.66991e-14
5.14751e-14
5.65207e-14
6.17533e-14
6.70883e-14
7.24414e-14
7.77311e-14
8.28806e-14
8.78202e-14
9.24886e-14
9.68339e-14
1.00814e-13
1.04399e-13
1.07566e-13
1.10304e-13
1.12609e-13
1.14487e-13
1.15948e-13
1.17009e-13
1.17692e-13
1.1802e-13
8.33044e-14
8.8155e-14
9.51176e-14
1.03956e-13
1.14466e-13
1.26447e-13
1.3969e-13
1.53972e-13
1.69056e-13
1.84694e-13
2.00633e-13
2.16621e-13
2.32415e-13
2.47786e-13
2.62527e-13
2.76455e-13
2.89416e-13
3.01287e-13
3.11975e-13
3.21417e-13
3.29578e-13
3.36449e-13
3.42046e-13
3.464e-13
3.49563e-13
3.51597e-13
3.52574e-13
2.48905e-13
2.63393e-13
2.84188e-13
3.10583e-13
3.41963e-13
3.77728e-13
4.17249e-13
4.59858e-13
5.04846e-13
5.51472e-13
5.9898e-13
6.46619e-13
6.93662e-13
7.3943e-13
7.83306e-13
8.24747e-13
8.63299e-13
8.98596e-13
9.30364e-13
9.5842e-13
9.82663e-13
1.00307e-12
1.01968e-12
1.03261e-12
1.04199e-12
1.04803e-12
1.05093e-12
7.42998e-13
7.86203e-13
8.48194e-13
9.26846e-13
1.02031e-12
1.12678e-12
1.24436e-12
1.37106e-12
1.50475e-12
1.64322e-12
1.78421e-12
1.92551e-12
2.06496e-12
2.20055e-12
2.33046e-12
2.4531e-12
2.56713e-12
2.67148e-12
2.76536e-12
2.84824e-12
2.91982e-12
2.98006e-12
3.02909e-12
3.06723e-12
3.09491e-12
3.1127e-12
3.12125e-12
2.212e-12
2.34028e-12
2.52429e-12
2.75763e-12
3.03476e-12
3.35024e-12
3.6984e-12
4.07324e-12
4.46845e-12
4.87743e-12
5.29352e-12
5.71012e-12
6.1209e-12
6.51996e-12
6.90197e-12
7.2623e-12
7.59707e-12
7.90319e-12
8.17839e-12
8.42117e-12
8.63074e-12
8.80699e-12
8.95037e-12
9.06182e-12
9.1427e-12
9.19466e-12
9.21961e-12
6.56337e-12
6.94228e-12
7.4854e-12
8.1736e-12
8.99013e-12
9.91859e-12
1.0942e-11
1.20424e-11
1.32011e-11
1.43984e-11
1.56149e-11
1.68312e-11
1.80289e-11
1.91908e-11
2.03017e-11
2.13482e-11
2.23193e-11
2.32064e-11
2.40031e-11
2.47052e-11
2.53108e-11
2.58197e-11
2.62334e-11
2.65548e-11
2.67878e-11
2.69375e-11
2.70094e-11
1.93649e-11
2.04736e-11
2.20615e-11
2.40711e-11
2.64524e-11
2.91559e-11
3.2131e-11
3.53243e-11
3.86804e-11
4.21421e-11
4.56524e-11
4.91554e-11
5.25984e-11
5.59326e-11
5.91145e-11
6.2107e-11
6.48795e-11
6.7408e-11
6.96754e-11
7.16711e-11
7.33902e-11
7.48331e-11
7.60048e-11
7.69141e-11
7.75729e-11
7.79957e-11
7.81984e-11
5.67083e-11
5.9911e-11
6.44919e-11
7.02801e-11
7.7125e-11
8.48794e-11
9.33922e-11
1.02507e-10
1.1206e-10
1.21889e-10
1.31829e-10
1.41722e-10
1.51421e-10
1.60789e-10
1.69708e-10
1.78077e-10
1.85813e-10
1.92854e-10
1.99156e-10
2.04693e-10
2.09454e-10
2.13444e-10
2.1668e-10
2.19188e-10
2.21004e-10
2.22167e-10
2.22725e-10
1.64358e-10
1.7344e-10
1.86407e-10
2.02756e-10
2.22037e-10
2.43815e-10
2.67645e-10
2.93074e-10
3.19636e-10
3.46865e-10
3.74307e-10
4.01526e-10
4.28119e-10
4.53723e-10
4.78023e-10
5.00757e-10
5.21714e-10
5.40738e-10
5.57724e-10
5.72614e-10
5.85392e-10
5.96081e-10
6.04735e-10
6.11432e-10
6.16272e-10
6.19371e-10
6.20855e-10
4.6986e-10
4.94979e-10
5.3076e-10
5.75734e-10
6.2859e-10
6.88057e-10
7.52857e-10
8.21701e-10
8.93295e-10
9.66363e-10
1.03968e-09
1.11208e-09
1.18253e-09
1.2501e-09
1.31398e-09
1.37353e-09
1.42824e-09
1.47776e-09
1.52185e-09
1.56039e-09
1.59339e-09
1.62094e-09
1.64319e-09
1.66039e-09
1.6728e-09
1.68073e-09
1.68452e-09
1.31899e-09
1.38621e-09
1.48169e-09
1.60126e-09
1.74117e-09
1.89783e-09
2.06767e-09
2.24717e-09
2.43285e-09
2.62136e-09
2.80954e-09
2.99446e-09
3.17354e-09
3.34449e-09
3.50545e-09
3.6549e-09
3.79171e-09
3.91509e-09
4.0246e-09
4.12007e-09
4.2016e-09
4.26949e-09
4.32423e-09
4.36643e-09
4.39684e-09
4.41626e-09
4.42552e-09
3.61685e-09
3.78954e-09
4.03398e-09
4.33877e-09
4.69364e-09
5.0888e-09
5.51475e-09
5.96228e-09
6.4225e-09
6.88704e-09
7.34817e-09
7.7989e-09
8.23314e-09
8.64573e-09
9.03244e-09
9.39002e-09
9.7161e-09
1.00092e-08
1.02684e-08
1.04938e-08
1.06858e-08
1.08452e-08
1.09735e-08
1.10723e-08
1.11433e-08
1.11886e-08
1.12102e-08
9.62981e-09
1.00525e-08
1.06487e-08
1.13887e-08
1.22456e-08
1.31944e-08
1.4211e-08
1.52727e-08
1.63579e-08
1.74468e-08
1.85217e-08
1.95668e-08
2.05686e-08
2.1516e-08
2.24001e-08
2.32143e-08
2.3954e-08
2.46167e-08
2.52011e-08
2.57077e-08
2.61382e-08
2.64949e-08
2.67814e-08
2.70015e-08
2.71596e-08
2.72602e-08
2.73081e-08
2.47496e-08
2.57312e-08
2.7111e-08
2.88158e-08
3.07799e-08
3.29426e-08
3.52466e-08
3.76389e-08
4.00705e-08
4.24973e-08
4.48804e-08
4.71861e-08
4.93861e-08
5.14578e-08
5.33835e-08
5.51506e-08
5.67509e-08
5.81799e-08
5.9437e-08
6.0524e-08
6.14455e-08
6.22078e-08
6.28189e-08
6.32877e-08
6.36238e-08
6.38376e-08
6.39393e-08
6.11229e-08
6.32866e-08
6.63184e-08
7.00494e-08
7.43289e-08
7.90181e-08
8.39891e-08
8.9125e-08
9.43203e-08
9.94814e-08
1.04527e-07
1.09389e-07
1.1401e-07
1.18346e-07
1.22363e-07
1.26039e-07
1.29358e-07
1.32315e-07
1.34911e-07
1.3715e-07
1.39046e-07
1.40611e-07
1.41864e-07
1.42824e-07
1.43512e-07
1.43948e-07
1.44156e-07
1.44752e-07
1.49308e-07
1.55677e-07
1.63492e-07
1.72426e-07
1.82181e-07
1.92484e-07
2.03091e-07
2.13783e-07
2.24369e-07
2.34686e-07
2.44598e-07
2.53994e-07
2.62788e-07
2.70918e-07
2.7834e-07
2.85031e-07
2.90981e-07
2.96196e-07
3.0069e-07
3.04489e-07
3.07622e-07
3.10128e-07
3.12047e-07
3.1342e-07
3.14291e-07
3.14705e-07
3.29068e-07
3.38379e-07
3.51381e-07
3.67313e-07
3.85497e-07
4.05322e-07
4.26233e-07
4.4773e-07
4.69375e-07
4.90783e-07
5.11628e-07
5.31638e-07
5.50594e-07
5.68326e-07
5.84708e-07
5.99657e-07
6.13127e-07
6.25099e-07
6.35586e-07
6.4462e-07
6.52252e-07
6.58546e-07
6.63576e-07
6.67425e-07
6.70178e-07
6.71925e-07
6.72755e-07
7.21709e-07
7.40662e-07
7.67138e-07
7.99603e-07
8.36691e-07
8.77166e-07
9.19906e-07
9.639e-07
1.00825e-06
1.05218e-06
1.09501e-06
1.13618e-06
1.17523e-06
1.21181e-06
1.24563e-06
1.27653e-06
1.3044e-06
1.32919e-06
1.35092e-06
1.36965e-06
1.38548e-06
1.39854e-06
1.40898e-06
1.41697e-06
1.42269e-06
1.42631e-06
1.42803e-06
1.53918e-06
1.57843e-06
1.6334e-06
1.70099e-06
1.7785e-06
1.86344e-06
1.95354e-06
2.04676e-06
2.14123e-06
2.2353e-06
2.32753e-06
2.41667e-06
2.50169e-06
2.58174e-06
2.65616e-06
2.72449e-06
2.7864e-06
2.84171e-06
2.8904e-06
2.93252e-06
2.96824e-06
2.9978e-06
3.0215e-06
3.03968e-06
3.05272e-06
3.061e-06
3.06494e-06
3.20322e-06
3.28681e-06
3.40439e-06
3.54991e-06
3.71803e-06
3.90388e-06
4.10296e-06
4.31111e-06
4.52445e-06
4.73944e-06
4.95284e-06
5.16174e-06
5.36356e-06
5.55606e-06
5.73734e-06
5.90587e-06
6.06046e-06
6.2002e-06
6.32459e-06
6.43341e-06
6.5267e-06
6.6047e-06
6.66787e-06
6.71679e-06
6.75219e-06
6.77489e-06
6.78577e-06
6.48206e-06
6.66173e-06
6.91612e-06
7.23355e-06
7.60396e-06
8.01809e-06
8.46723e-06
8.94302e-06
9.43738e-06
9.94283e-06
1.04523e-05
1.09593e-05
1.14573e-05
1.19406e-05
1.24038e-05
1.28423e-05
1.32517e-05
1.36287e-05
1.39705e-05
1.42748e-05
1.45402e-05
1.4766e-05
1.49517e-05
1.50979e-05
1.52052e-05
1.52751e-05
1.5309e-05
1.26035e-05
1.29687e-05
1.34879e-05
1.41393e-05
1.49045e-05
1.57668e-05
1.671e-05
1.77188e-05
1.87777e-05
1.98715e-05
2.09852e-05
2.21037e-05
2.32127e-05
2.42983e-05
2.53475e-05
2.63484e-05
2.72903e-05
2.8164e-05
2.89618e-05
2.96774e-05
3.03062e-05
3.08444e-05
3.12897e-05
3.1642e-05
3.19022e-05
3.20725e-05
3.21557e-05
2.3157e-05
2.38118e-05
2.47414e-05
2.59058e-05
2.72704e-05
2.88034e-05
3.04742e-05
3.22533e-05
3.41117e-05
3.60211e-05
3.79538e-05
3.98836e-05
4.17857e-05
4.36335e-05
4.54054e-05
4.70829e-05
4.86502e-05
5.00937e-05
5.14029e-05
5.25698e-05
5.35888e-05
5.44567e-05
5.51724e-05
5.57368e-05
5.61528e-05
5.64242e-05
5.65567e-05
3.92786e-05
4.0233e-05
4.15796e-05
4.32529e-05
4.51955e-05
4.73512e-05
4.96656e-05
5.20931e-05
5.45908e-05
5.71184e-05
5.96383e-05
6.21168e-05
6.45231e-05
6.68301e-05
6.9015e-05
7.10591e-05
7.29472e-05
7.46678e-05
7.62129e-05
7.75771e-05
7.87581e-05
7.97559e-05
8.05727e-05
8.12125e-05
8.16811e-05
8.19853e-05
8.2133e-05
5.96068e-05
6.06963e-05
6.22205e-05
6.40926e-05
6.62363e-05
6.8581e-05
7.10644e-05
7.36302e-05
7.62285e-05
7.88154e-05
8.1353e-05
8.38088e-05
8.61562e-05
8.83735e-05
9.04437e-05
9.23543e-05
9.40965e-05
9.5665e-05
9.70575e-05
9.82742e-05
9.93172e-05
0.00010019
0.000100899
0.00010145
0.000101851
0.00010211
0.000102235
8.01036e-05
8.1095e-05
8.24702e-05
8.41411e-05
8.603e-05
8.80679e-05
9.01944e-05
9.23574e-05
9.45129e-05
9.66243e-05
9.86621e-05
0.000100603
0.00010243
0.00010413
0.000105694
0.000107118
0.0001084
0.00010954
0.00011054
0.000111405
0.000112139
0.000112748
0.000113238
0.000113616
0.000113889
0.000114064
0.000114148
9.66789e-05
9.74046e-05
9.84031e-05
9.96035e-05
0.000100943
0.000102369
0.000103834
0.000105301
0.000106738
0.000108123
0.000109437
0.000110668
0.000111807
0.000112851
0.000113797
0.000114645
0.000115397
0.000116057
0.000116629
0.000117118
0.000117528
0.000117864
0.000118133
0.000118338
0.000118485
0.000118578
0.000118623
0.000107093
0.000107508
0.000108072
0.000108742
0.000109479
0.000110248
0.000111024
0.000111784
0.000112512
0.000113197
0.000113832
0.000114413
0.000114937
0.000115405
0.000115818
0.00011618
0.000116493
0.000116762
0.000116989
0.000117178
0.000117334
0.00011746
0.000117558
0.000117631
0.000117683
0.000117715
0.000117731
0.000111295
0.000111444
0.000111642
0.000111869
0.000112109
0.000112347
0.000112573
0.00011278
0.000112962
0.000113117
0.000113246
0.000113349
0.000113428
0.000113487
0.000113527
0.000113552
0.000113564
0.000113568
0.000113565
0.000113557
0.000113546
0.000113534
0.000113523
0.000113512
0.000113504
0.000113498
0.000113495
0.000110586
0.00011055
0.000110495
0.000110418
0.000110321
0.000110202
0.000110064
0.000109907
0.000109736
0.000109553
0.000109362
0.000109168
0.000108974
0.000108783
0.000108599
0.000108424
0.000108261
0.00010811
0.000107974
0.000107854
0.000107749
0.000107661
0.000107588
0.000107532
0.00010749
0.000107463
0.00010745
0.000106648
0.000106503
0.000106299
0.000106047
0.000105755
0.000105433
0.000105089
0.000104731
0.000104365
0.000103999
0.000103638
0.000103287
0.00010295
0.000102632
0.000102334
0.000102059
0.000101808
0.000101583
0.000101383
0.000101209
0.00010106
0.000100936
0.000100836
0.000100758
0.000100702
0.000100666
0.000100649
0.00010095
0.000100753
0.000100478
0.000100142
9.97601e-05
9.93448e-05
9.89081e-05
9.84604e-05
9.80107e-05
9.75667e-05
9.71349e-05
9.67207e-05
9.63282e-05
9.59607e-05
9.56207e-05
9.53096e-05
9.50285e-05
9.47776e-05
9.45569e-05
9.43657e-05
9.42033e-05
9.40686e-05
9.39601e-05
9.38766e-05
9.38163e-05
9.37778e-05
9.37594e-05
9.45514e-05
9.43379e-05
9.40416e-05
9.36814e-05
9.32741e-05
9.28342e-05
9.23748e-05
9.1907e-05
9.14403e-05
9.09825e-05
9.05401e-05
9.01182e-05
8.97208e-05
8.93506e-05
8.90098e-05
8.86995e-05
8.84202e-05
8.8172e-05
8.79544e-05
8.77666e-05
8.76076e-05
8.7476e-05
8.73704e-05
8.72892e-05
8.72308e-05
8.71936e-05
8.71758e-05
8.81195e-05
8.79104e-05
8.76208e-05
8.72698e-05
8.6874e-05
8.6448e-05
8.60048e-05
8.55551e-05
8.5108e-05
8.46711e-05
8.42504e-05
8.38505e-05
8.3475e-05
8.31263e-05
8.28062e-05
8.25155e-05
8.22545e-05
8.20232e-05
8.18208e-05
8.16465e-05
8.14992e-05
8.13776e-05
8.12801e-05
8.12053e-05
8.11515e-05
8.11173e-05
8.11009e-05
8.20272e-05
8.18329e-05
8.15642e-05
8.12389e-05
8.08729e-05
8.04798e-05
8.00716e-05
7.96583e-05
7.92484e-05
7.88486e-05
7.84644e-05
7.81e-05
7.77585e-05
7.7442e-05
7.71519e-05
7.68889e-05
7.66533e-05
7.64447e-05
7.62624e-05
7.61057e-05
7.59734e-05
7.58643e-05
7.5777e-05
7.571e-05
7.5662e-05
7.56314e-05
7.56168e-05
7.64523e-05
7.62771e-05
7.6035e-05
7.57422e-05
7.54131e-05
7.50601e-05
7.46939e-05
7.43237e-05
7.3957e-05
7.35999e-05
7.32571e-05
7.29325e-05
7.26286e-05
7.23473e-05
7.20898e-05
7.18566e-05
7.16479e-05
7.14633e-05
7.13022e-05
7.11638e-05
7.1047e-05
7.09508e-05
7.08739e-05
7.08149e-05
7.07726e-05
7.07457e-05
7.07329e-05
7.14551e-05
7.12998e-05
7.10853e-05
7.0826e-05
7.05348e-05
7.02227e-05
6.98992e-05
6.95725e-05
6.92491e-05
6.89344e-05
6.86327e-05
6.83471e-05
6.808e-05
6.78329e-05
6.7607e-05
6.74025e-05
6.72196e-05
6.70579e-05
6.6917e-05
6.6796e-05
6.66939e-05
6.66099e-05
6.65427e-05
6.64912e-05
6.64544e-05
6.64309e-05
6.64198e-05
6.70303e-05
6.6894e-05
6.67057e-05
6.64783e-05
6.6223e-05
6.59494e-05
6.56661e-05
6.538e-05
6.5097e-05
6.48218e-05
6.4558e-05
6.43085e-05
6.40753e-05
6.38597e-05
6.36626e-05
6.34844e-05
6.3325e-05
6.31842e-05
6.30615e-05
6.29562e-05
6.28674e-05
6.27943e-05
6.27359e-05
6.26912e-05
6.26592e-05
6.26389e-05
6.26292e-05
6.31403e-05
6.30212e-05
6.28568e-05
6.26582e-05
6.24353e-05
6.21966e-05
6.19495e-05
6.17e-05
6.14533e-05
6.12135e-05
6.09837e-05
6.07665e-05
6.05634e-05
6.03758e-05
6.02044e-05
6.00493e-05
5.99108e-05
5.97884e-05
5.96818e-05
5.95903e-05
5.95132e-05
5.94498e-05
5.93991e-05
5.93603e-05
5.93326e-05
5.93149e-05
5.93065e-05
5.97334e-05
5.96296e-05
5.94863e-05
5.93133e-05
5.91191e-05
5.89112e-05
5.86959e-05
5.84787e-05
5.82639e-05
5.80552e-05
5.78553e-05
5.76662e-05
5.74896e-05
5.73264e-05
5.71773e-05
5.70426e-05
5.69221e-05
5.68158e-05
5.67231e-05
5.66437e-05
5.65767e-05
5.65216e-05
5.64777e-05
5.6444e-05
5.64199e-05
5.64046e-05
5.63973e-05
5.6755e-05
5.66646e-05
5.65398e-05
5.6389e-05
5.62198e-05
5.60387e-05
5.58512e-05
5.5662e-05
5.5475e-05
5.52932e-05
5.51191e-05
5.49545e-05
5.48008e-05
5.46588e-05
5.4529e-05
5.44117e-05
5.43069e-05
5.42144e-05
5.41338e-05
5.40647e-05
5.40065e-05
5.39586e-05
5.39204e-05
5.38911e-05
5.38702e-05
5.38569e-05
5.38505e-05
5.41523e-05
5.40735e-05
5.39646e-05
5.38331e-05
5.36856e-05
5.35276e-05
5.33641e-05
5.31991e-05
5.30361e-05
5.28775e-05
5.27258e-05
5.25823e-05
5.24482e-05
5.23244e-05
5.22113e-05
5.2109e-05
5.20177e-05
5.1937e-05
5.18668e-05
5.18065e-05
5.17558e-05
5.17141e-05
5.16808e-05
5.16553e-05
5.1637e-05
5.16254e-05
5.16199e-05
5.18769e-05
5.1808e-05
5.17129e-05
5.15981e-05
5.14692e-05
5.13312e-05
5.11883e-05
5.10442e-05
5.09017e-05
5.07632e-05
5.06305e-05
5.05051e-05
5.0388e-05
5.02798e-05
5.0181e-05
5.00916e-05
5.00118e-05
4.99413e-05
4.988e-05
4.98273e-05
4.9783e-05
4.97465e-05
4.97174e-05
4.96952e-05
4.96792e-05
4.96691e-05
4.96643e-05
4.98855e-05
4.98252e-05
4.97419e-05
4.96414e-05
4.95285e-05
4.94077e-05
4.92825e-05
4.91563e-05
4.90315e-05
4.89102e-05
4.8794e-05
4.86841e-05
4.85815e-05
4.84867e-05
4.84001e-05
4.83218e-05
4.82519e-05
4.81901e-05
4.81363e-05
4.80902e-05
4.80514e-05
4.80194e-05
4.79939e-05
4.79744e-05
4.79604e-05
4.79515e-05
4.79473e-05
4.814e-05
4.8087e-05
4.80139e-05
4.79256e-05
4.78265e-05
4.77204e-05
4.76105e-05
4.74996e-05
4.739e-05
4.72834e-05
4.71813e-05
4.70848e-05
4.69946e-05
4.69113e-05
4.68352e-05
4.67664e-05
4.67049e-05
4.66506e-05
4.66033e-05
4.65628e-05
4.65286e-05
4.65005e-05
4.64781e-05
4.64609e-05
4.64486e-05
4.64408e-05
4.64371e-05
4.66068e-05
4.65602e-05
4.64958e-05
4.6418e-05
4.63307e-05
4.62373e-05
4.61404e-05
4.60427e-05
4.59461e-05
4.58522e-05
4.57622e-05
4.56771e-05
4.55976e-05
4.55241e-05
4.54569e-05
4.53963e-05
4.5342e-05
4.52941e-05
4.52524e-05
4.52166e-05
4.51865e-05
4.51617e-05
4.51419e-05
4.51268e-05
4.51159e-05
4.5109e-05
4.51058e-05
4.52568e-05
4.52156e-05
4.51587e-05
4.509e-05
4.50128e-05
4.49302e-05
4.48446e-05
4.47581e-05
4.46727e-05
4.45896e-05
4.45099e-05
4.44346e-05
4.43642e-05
4.42992e-05
4.42398e-05
4.4186e-05
4.4138e-05
4.40956e-05
4.40586e-05
4.40269e-05
4.40002e-05
4.39782e-05
4.39607e-05
4.39473e-05
4.39377e-05
4.39316e-05
4.39287e-05
4.40645e-05
4.40279e-05
4.39774e-05
4.39164e-05
4.38479e-05
4.37746e-05
4.36985e-05
4.36218e-05
4.35459e-05
4.3472e-05
4.34013e-05
4.33343e-05
4.32718e-05
4.32139e-05
4.31611e-05
4.31133e-05
4.30705e-05
4.30328e-05
4.29999e-05
4.29717e-05
4.29479e-05
4.29284e-05
4.29128e-05
4.29008e-05
4.28923e-05
4.28868e-05
4.28842e-05
4.30074e-05
4.29748e-05
4.29298e-05
4.28754e-05
4.28143e-05
4.27489e-05
4.26811e-05
4.26126e-05
4.25448e-05
4.24789e-05
4.24157e-05
4.23559e-05
4.23e-05
4.22483e-05
4.22011e-05
4.21583e-05
4.21201e-05
4.20864e-05
4.2057e-05
4.20317e-05
4.20105e-05
4.1993e-05
4.1979e-05
4.19683e-05
4.19607e-05
4.19558e-05
4.19535e-05
4.2066e-05
4.20368e-05
4.19964e-05
4.19477e-05
4.18929e-05
4.18342e-05
4.17734e-05
4.17119e-05
4.16511e-05
4.15919e-05
4.15352e-05
4.14815e-05
4.14312e-05
4.13848e-05
4.13423e-05
4.13039e-05
4.12695e-05
4.12392e-05
4.12127e-05
4.119e-05
4.11709e-05
4.11551e-05
4.11425e-05
4.11329e-05
4.1126e-05
4.11216e-05
4.11195e-05
4.12229e-05
4.11966e-05
4.11602e-05
4.11162e-05
4.10668e-05
4.10138e-05
4.09589e-05
4.09034e-05
4.08485e-05
4.0795e-05
4.07437e-05
4.06952e-05
4.06498e-05
4.06077e-05
4.05693e-05
4.05345e-05
4.05034e-05
4.04759e-05
4.04519e-05
4.04314e-05
4.0414e-05
4.03997e-05
4.03883e-05
4.03796e-05
4.03733e-05
4.03694e-05
4.03675e-05
4.04629e-05
4.0439e-05
4.0406e-05
4.0366e-05
4.03211e-05
4.0273e-05
4.02231e-05
4.01726e-05
4.01226e-05
4.00739e-05
4.00272e-05
3.9983e-05
3.99416e-05
3.99033e-05
3.98683e-05
3.98366e-05
3.98082e-05
3.97831e-05
3.97612e-05
3.97424e-05
3.97266e-05
3.97135e-05
3.97031e-05
3.96951e-05
3.96894e-05
3.96858e-05
3.96841e-05
3.97725e-05
3.97506e-05
3.97204e-05
3.96838e-05
3.96427e-05
3.95985e-05
3.95528e-05
3.95065e-05
3.94606e-05
3.9416e-05
3.93731e-05
3.93325e-05
3.92944e-05
3.92592e-05
3.9227e-05
3.91978e-05
3.91717e-05
3.91486e-05
3.91284e-05
3.91111e-05
3.90965e-05
3.90845e-05
3.90749e-05
3.90675e-05
3.90623e-05
3.90589e-05
3.90573e-05
3.91395e-05
3.91193e-05
3.90914e-05
3.90576e-05
3.90195e-05
3.89787e-05
3.89364e-05
3.88935e-05
3.88511e-05
3.88097e-05
3.87699e-05
3.87323e-05
3.8697e-05
3.86643e-05
3.86344e-05
3.86072e-05
3.8583e-05
3.85615e-05
3.85427e-05
3.85266e-05
3.85131e-05
3.85019e-05
3.84929e-05
3.84861e-05
3.84812e-05
3.8478e-05
3.84766e-05
3.85531e-05
3.85342e-05
3.85082e-05
3.84766e-05
3.84411e-05
3.8403e-05
3.83634e-05
3.83233e-05
3.82835e-05
3.82448e-05
3.82075e-05
3.81722e-05
3.81391e-05
3.81085e-05
3.80804e-05
3.80549e-05
3.80321e-05
3.80119e-05
3.79943e-05
3.79791e-05
3.79663e-05
3.79558e-05
3.79474e-05
3.79409e-05
3.79363e-05
3.79334e-05
3.7932e-05
3.80034e-05
3.79856e-05
3.79609e-05
3.79311e-05
3.78976e-05
3.78615e-05
3.78241e-05
3.77862e-05
3.77485e-05
3.77118e-05
3.76765e-05
3.7643e-05
3.76116e-05
3.75825e-05
3.75558e-05
3.75316e-05
3.75099e-05
3.74907e-05
3.74739e-05
3.74595e-05
3.74473e-05
3.74373e-05
3.74293e-05
3.74231e-05
3.74187e-05
3.74159e-05
3.74146e-05
3.74812e-05
3.74642e-05
3.74407e-05
3.74122e-05
3.73801e-05
3.73456e-05
3.73097e-05
3.72734e-05
3.72373e-05
3.7202e-05
3.71681e-05
3.7136e-05
3.71058e-05
3.70778e-05
3.70521e-05
3.70288e-05
3.70079e-05
3.69894e-05
3.69732e-05
3.69593e-05
3.69475e-05
3.69378e-05
3.69301e-05
3.69241e-05
3.69199e-05
3.69172e-05
3.69159e-05
3.69782e-05
3.69617e-05
3.69389e-05
3.69113e-05
3.68802e-05
3.68467e-05
3.68119e-05
3.67766e-05
3.67415e-05
3.67072e-05
3.66742e-05
3.66429e-05
3.66135e-05
3.65862e-05
3.65611e-05
3.65384e-05
3.65179e-05
3.64999e-05
3.6484e-05
3.64704e-05
3.6459e-05
3.64495e-05
3.64419e-05
3.64361e-05
3.64319e-05
3.64292e-05
3.6428e-05
3.64862e-05
3.64701e-05
3.64477e-05
3.64205e-05
3.63899e-05
3.6357e-05
3.63227e-05
3.62879e-05
3.62533e-05
3.62195e-05
3.6187e-05
3.6156e-05
3.61269e-05
3.60999e-05
3.60751e-05
3.60526e-05
3.60323e-05
3.60144e-05
3.59987e-05
3.59852e-05
3.59738e-05
3.59644e-05
3.59569e-05
3.59511e-05
3.59469e-05
3.59443e-05
3.5943e-05
3.59976e-05
3.59815e-05
3.59591e-05
3.59321e-05
3.59015e-05
3.58687e-05
3.58344e-05
3.57997e-05
3.57651e-05
3.57312e-05
3.56986e-05
3.56676e-05
3.56384e-05
3.56113e-05
3.55864e-05
3.55637e-05
3.55434e-05
3.55254e-05
3.55096e-05
3.5496e-05
3.54845e-05
3.5475e-05
3.54674e-05
3.54616e-05
3.54574e-05
3.54547e-05
3.54535e-05
3.55045e-05
3.54883e-05
3.54657e-05
3.54383e-05
3.54074e-05
3.53741e-05
3.53394e-05
3.53041e-05
3.5269e-05
3.52347e-05
3.52015e-05
3.517e-05
3.51403e-05
3.51127e-05
3.50873e-05
3.50642e-05
3.50435e-05
3.50251e-05
3.50089e-05
3.49951e-05
3.49833e-05
3.49736e-05
3.49658e-05
3.49599e-05
3.49556e-05
3.49529e-05
3.49516e-05
3.49995e-05
3.49828e-05
3.49596e-05
3.49315e-05
3.48998e-05
3.48656e-05
3.48299e-05
3.47936e-05
3.47575e-05
3.47221e-05
3.46879e-05
3.46554e-05
3.46247e-05
3.45962e-05
3.457e-05
3.45462e-05
3.45247e-05
3.45057e-05
3.4489e-05
3.44746e-05
3.44624e-05
3.44524e-05
3.44443e-05
3.44381e-05
3.44337e-05
3.44309e-05
3.44295e-05
3.44745e-05
3.44571e-05
3.44331e-05
3.44039e-05
3.43708e-05
3.43352e-05
3.42981e-05
3.42602e-05
3.42225e-05
3.41856e-05
3.41499e-05
3.41159e-05
3.40838e-05
3.4054e-05
3.40266e-05
3.40016e-05
3.39791e-05
3.39591e-05
3.39416e-05
3.39265e-05
3.39138e-05
3.39032e-05
3.38948e-05
3.38883e-05
3.38836e-05
3.38806e-05
3.38792e-05
3.39216e-05
3.39033e-05
3.3878e-05
3.38472e-05
3.38124e-05
3.37748e-05
3.37356e-05
3.36957e-05
3.36559e-05
3.36169e-05
3.35792e-05
3.35432e-05
3.35093e-05
3.34777e-05
3.34486e-05
3.34221e-05
3.33983e-05
3.33771e-05
3.33585e-05
3.33425e-05
3.3329e-05
3.33178e-05
3.33088e-05
3.33019e-05
3.32969e-05
3.32937e-05
3.32922e-05
3.33323e-05
3.33129e-05
3.32859e-05
3.32531e-05
3.3216e-05
3.3176e-05
3.31342e-05
3.30916e-05
3.30491e-05
3.30074e-05
3.29671e-05
3.29287e-05
3.28924e-05
3.28586e-05
3.28275e-05
3.27991e-05
3.27736e-05
3.27509e-05
3.2731e-05
3.27138e-05
3.26993e-05
3.26873e-05
3.26776e-05
3.26702e-05
3.26649e-05
3.26615e-05
3.26599e-05
3.26979e-05
3.2677e-05
3.2648e-05
3.26128e-05
3.25729e-05
3.25299e-05
3.24849e-05
3.2439e-05
3.23933e-05
3.23483e-05
3.23049e-05
3.22634e-05
3.22243e-05
3.21878e-05
3.21542e-05
3.21236e-05
3.20961e-05
3.20715e-05
3.205e-05
3.20315e-05
3.20158e-05
3.20028e-05
3.19923e-05
3.19843e-05
3.19786e-05
3.19749e-05
3.19731e-05
3.20095e-05
3.19868e-05
3.19554e-05
3.19173e-05
3.18741e-05
3.18274e-05
3.17786e-05
3.17289e-05
3.16793e-05
3.16305e-05
3.15833e-05
3.15383e-05
3.14958e-05
3.14562e-05
3.14197e-05
3.13864e-05
3.13565e-05
3.13298e-05
3.13064e-05
3.12862e-05
3.12691e-05
3.1255e-05
3.12437e-05
3.12349e-05
3.12287e-05
3.12247e-05
3.12228e-05
3.12577e-05
3.12331e-05
3.11989e-05
3.11573e-05
3.11102e-05
3.10594e-05
3.10062e-05
3.0952e-05
3.08978e-05
3.08447e-05
3.07932e-05
3.07441e-05
3.06977e-05
3.06545e-05
3.06147e-05
3.05783e-05
3.05456e-05
3.05165e-05
3.0491e-05
3.0469e-05
3.04503e-05
3.04348e-05
3.04224e-05
3.04129e-05
3.04061e-05
3.04017e-05
3.03996e-05
3.04335e-05
3.04066e-05
3.03692e-05
3.03237e-05
3.02722e-05
3.02166e-05
3.01585e-05
3.00992e-05
3.004e-05
2.99818e-05
2.99256e-05
2.98718e-05
2.98211e-05
2.97738e-05
2.97302e-05
2.96905e-05
2.96547e-05
2.96228e-05
2.95949e-05
2.95708e-05
2.95504e-05
2.95335e-05
2.95199e-05
2.95095e-05
2.9502e-05
2.94972e-05
2.94949e-05
2.95281e-05
2.94986e-05
2.94576e-05
2.94078e-05
2.93515e-05
2.92906e-05
2.9227e-05
2.91621e-05
2.90972e-05
2.90336e-05
2.8972e-05
2.89131e-05
2.88576e-05
2.88059e-05
2.87581e-05
2.87147e-05
2.86755e-05
2.86406e-05
2.86101e-05
2.85837e-05
2.85614e-05
2.85429e-05
2.85281e-05
2.85167e-05
2.85085e-05
2.85033e-05
2.85008e-05
2.85334e-05
2.85012e-05
2.84564e-05
2.84019e-05
2.83403e-05
2.82737e-05
2.82041e-05
2.81331e-05
2.80622e-05
2.79926e-05
2.79253e-05
2.7861e-05
2.78003e-05
2.77438e-05
2.76916e-05
2.76441e-05
2.76014e-05
2.75633e-05
2.753e-05
2.75012e-05
2.74768e-05
2.74566e-05
2.74405e-05
2.7428e-05
2.74191e-05
2.74134e-05
2.74107e-05
2.74433e-05
2.7408e-05
2.73592e-05
2.72997e-05
2.72325e-05
2.71599e-05
2.7084e-05
2.70066e-05
2.69294e-05
2.68536e-05
2.67802e-05
2.67102e-05
2.66442e-05
2.65826e-05
2.65259e-05
2.64742e-05
2.64277e-05
2.63864e-05
2.63501e-05
2.63188e-05
2.62924e-05
2.62704e-05
2.62529e-05
2.62394e-05
2.62297e-05
2.62235e-05
2.62206e-05
2.62535e-05
2.62152e-05
2.61622e-05
2.60977e-05
2.60247e-05
2.59459e-05
2.58636e-05
2.57797e-05
2.5696e-05
2.56139e-05
2.55344e-05
2.54586e-05
2.53872e-05
2.53206e-05
2.52593e-05
2.52034e-05
2.51532e-05
2.51085e-05
2.50694e-05
2.50356e-05
2.5007e-05
2.49834e-05
2.49644e-05
2.49499e-05
2.49394e-05
2.49328e-05
2.49296e-05
2.49634e-05
2.49222e-05
2.4865e-05
2.47955e-05
2.4717e-05
2.46321e-05
2.45435e-05
2.44533e-05
2.43633e-05
2.4275e-05
2.41897e-05
2.41083e-05
2.40316e-05
2.39602e-05
2.38945e-05
2.38347e-05
2.37808e-05
2.3733e-05
2.36911e-05
2.3655e-05
2.36244e-05
2.35992e-05
2.35789e-05
2.35634e-05
2.35522e-05
2.35451e-05
2.35417e-05
2.35775e-05
2.35335e-05
2.34725e-05
2.33984e-05
2.33146e-05
2.32242e-05
2.31298e-05
2.30338e-05
2.2938e-05
2.28442e-05
2.27535e-05
2.26671e-05
2.25857e-05
2.251e-05
2.24403e-05
2.23769e-05
2.23199e-05
2.22693e-05
2.2225e-05
2.21868e-05
2.21545e-05
2.21278e-05
2.21064e-05
2.209e-05
2.20782e-05
2.20707e-05
2.20672e-05
2.21065e-05
2.20602e-05
2.19959e-05
2.19179e-05
2.18298e-05
2.17348e-05
2.16356e-05
2.15348e-05
2.14344e-05
2.1336e-05
2.12411e-05
2.11506e-05
2.10655e-05
2.09864e-05
2.09136e-05
2.08475e-05
2.0788e-05
2.07353e-05
2.06891e-05
2.06493e-05
2.06157e-05
2.0588e-05
2.05658e-05
2.05487e-05
2.05365e-05
2.05287e-05
2.0525e-05
2.05704e-05
2.05225e-05
2.04561e-05
2.03755e-05
2.02846e-05
2.01866e-05
2.00845e-05
1.99808e-05
1.98775e-05
1.97765e-05
1.96791e-05
1.95865e-05
1.94994e-05
1.94186e-05
1.93443e-05
1.92768e-05
1.92162e-05
1.91626e-05
1.91156e-05
1.90752e-05
1.90411e-05
1.9013e-05
1.89904e-05
1.89732e-05
1.89608e-05
1.89529e-05
1.89491e-05
1.9002e-05
1.89539e-05
1.88873e-05
1.88066e-05
1.87156e-05
1.86177e-05
1.85159e-05
1.84127e-05
1.83101e-05
1.82099e-05
1.81136e-05
1.80223e-05
1.79367e-05
1.78576e-05
1.77853e-05
1.772e-05
1.76618e-05
1.76106e-05
1.75661e-05
1.75279e-05
1.74959e-05
1.74695e-05
1.74485e-05
1.74324e-05
1.74209e-05
1.74136e-05
1.74101e-05
1.74524e-05
1.7407e-05
1.73444e-05
1.72689e-05
1.7184e-05
1.70927e-05
1.69979e-05
1.69017e-05
1.68063e-05
1.67132e-05
1.66237e-05
1.65387e-05
1.64591e-05
1.63853e-05
1.63178e-05
1.62566e-05
1.62018e-05
1.61533e-05
1.61111e-05
1.60748e-05
1.60442e-05
1.6019e-05
1.59989e-05
1.59835e-05
1.59725e-05
1.59655e-05
1.59621e-05
1.59979e-05
1.59544e-05
1.58941e-05
1.58211e-05
1.57389e-05
1.56505e-05
1.55585e-05
1.54652e-05
1.53726e-05
1.52822e-05
1.51951e-05
1.51125e-05
1.5035e-05
1.49632e-05
1.48973e-05
1.48375e-05
1.4784e-05
1.47367e-05
1.46953e-05
1.46598e-05
1.46298e-05
1.46051e-05
1.45854e-05
1.45703e-05
1.45595e-05
1.45526e-05
1.45493e-05
1.4589e-05
1.45464e-05
1.44874e-05
1.44159e-05
1.43354e-05
1.42488e-05
1.41587e-05
1.40674e-05
1.39767e-05
1.38881e-05
1.38029e-05
1.3722e-05
1.36461e-05
1.35757e-05
1.35112e-05
1.34527e-05
1.34003e-05
1.33539e-05
1.33134e-05
1.32787e-05
1.32493e-05
1.32251e-05
1.32058e-05
1.3191e-05
1.31804e-05
1.31737e-05
1.31705e-05
1.32188e-05
1.31772e-05
1.31198e-05
1.30503e-05
1.29719e-05
1.28876e-05
1.28e-05
1.27113e-05
1.26231e-05
1.25371e-05
1.24543e-05
1.23757e-05
1.23021e-05
1.22338e-05
1.21712e-05
1.21144e-05
1.20636e-05
1.20186e-05