/*--------------------------------*- C++ -*----------------------------------*\
| =========                 |                                                 |
| \\      /  F ield         | OpenFOAM: The Open Source CFD Toolbox           |
|  \\    /   O peration     | Version:  2106                                  |
|   \\  /    A nd           | Website:  www.openfoam.com                      |
|    \\/     M anipulation  |                                                 |
\*---------------------------------------------------------------------------*/
FoamFile
{
    version     2.0;
    format      ascii;
    arch        "LSB;label=32;scalar=64";
    class       volScalarField;
    location    "90.00055";
    object      C3H6;
}
// * * * * * * * * * * * * * * * * * * * * * * * * * * * * * * * * * * * * * //

dimensions      [0 0 0 0 0 0 0];

internalField   nonuniform List<scalar> 
3360
(
4.2704e-18
4.40781e-18
4.59904e-18
4.83294e-18
5.09977e-18
5.39079e-18
5.69807e-18
6.01449e-18
6.33369e-18
6.65007e-18
6.95875e-18
7.25561e-18
7.53725e-18
7.80094e-18
8.04462e-18
8.26685e-18
8.46674e-18
8.6439e-18
8.79842e-18
8.93075e-18
9.04168e-18
9.13228e-18
9.20384e-18
9.25783e-18
9.2958e-18
9.31943e-18
9.3304e-18
1.87334e-17
1.9422e-17
2.03936e-17
2.16036e-17
2.30148e-17
2.4595e-17
2.63153e-17
2.81493e-17
3.00723e-17
3.20612e-17
3.40935e-17
3.61477e-17
3.82023e-17
4.02362e-17
4.22286e-17
4.41591e-17
4.60077e-17
4.77549e-17
4.93822e-17
5.08721e-17
5.22087e-17
5.33777e-17
5.43672e-17
5.51674e-17
5.57713e-17
5.61746e-17
5.63757e-17
5.87764e-17
6.1356e-17
6.50214e-17
6.96274e-17
7.50533e-17
8.11904e-17
8.79358e-17
9.51878e-17
1.02844e-16
1.10798e-16
1.18944e-16
1.27175e-16
1.35385e-16
1.43471e-16
1.51331e-16
1.58869e-16
1.65998e-16
1.72638e-16
1.7872e-16
1.84186e-16
1.88993e-16
1.93109e-16
1.96517e-16
1.9921e-16
2.01196e-16
2.02491e-16
2.03121e-16
1.71168e-16
1.7967e-16
1.91833e-16
2.0722e-16
2.2547e-16
2.4624e-16
2.6919e-16
2.93968e-16
3.20203e-16
3.47506e-16
3.75475e-16
4.03699e-16
4.31774e-16
4.59302e-16
4.8591e-16
5.11251e-16
5.35021e-16
5.56959e-16
5.76858e-16
5.94559e-16
6.09961e-16
6.23009e-16
6.33696e-16
6.42054e-16
6.48153e-16
6.52091e-16
6.53991e-16
5.00066e-16
5.26885e-16
5.65323e-16
6.14069e-16
6.72007e-16
7.38067e-16
8.11147e-16
8.90081e-16
9.73626e-16
1.06047e-15
1.14926e-15
1.23863e-15
1.32723e-15
1.41378e-15
1.49711e-15
1.57614e-15
1.64997e-15
1.71782e-15
1.77913e-15
1.83346e-15
1.88057e-15
1.92034e-15
1.95282e-15
1.97815e-15
1.99659e-15
2.00847e-15
2.01418e-15
1.47445e-15
1.55681e-15
1.67501e-15
1.82502e-15
2.00342e-15
2.20689e-15
2.43198e-15
2.67502e-15
2.93212e-15
3.19915e-15
3.47186e-15
3.74599e-15
4.01738e-15
4.28207e-15
4.53644e-15
4.77726e-15
5.00181e-15
5.20783e-15
5.39362e-15
5.55799e-15
5.70027e-15
5.82021e-15
5.918e-15
5.99416e-15
6.04952e-15
6.08515e-15
6.10228e-15
4.37971e-15
4.62996e-15
4.98907e-15
5.4449e-15
5.98694e-15
6.605e-15
7.28846e-15
8.02605e-15
8.8057e-15
9.61481e-15
1.04404e-14
1.12695e-14
1.20894e-14
1.28884e-14
1.36555e-14
1.43812e-14
1.50572e-14
1.5677e-14
1.62356e-14
1.67295e-14
1.71568e-14
1.75169e-14
1.78103e-14
1.80388e-14
1.82049e-14
1.83117e-14
1.83631e-14
1.30533e-14
1.38063e-14
1.48874e-14
1.62602e-14
1.7893e-14
1.97552e-14
2.18145e-14
2.40367e-14
2.63853e-14
2.88221e-14
3.13077e-14
3.38031e-14
3.62701e-14
3.8673e-14
4.0979e-14
4.31594e-14
4.51899e-14
4.70506e-14
4.87268e-14
5.02084e-14
5.14895e-14
5.25686e-14
5.34478e-14
5.41321e-14
5.46292e-14
5.49489e-14
5.51025e-14
3.90073e-14
4.12705e-14
4.45192e-14
4.86436e-14
5.35489e-14
5.9142e-14
6.53259e-14
7.19973e-14
7.9046e-14
8.63568e-14
9.38116e-14
1.01293e-13
1.08687e-13
1.15887e-13
1.22794e-13
1.29324e-13
1.35403e-13
1.40972e-13
1.45989e-13
1.50423e-13
1.54257e-13
1.57486e-13
1.60116e-13
1.62163e-13
1.63651e-13
1.64608e-13
1.65067e-13
1.1658e-13
1.23359e-13
1.33092e-13
1.45449e-13
1.60146e-13
1.76905e-13
1.95432e-13
2.15419e-13
2.36534e-13
2.58432e-13
2.80758e-13
3.0316e-13
3.25296e-13
3.46846e-13
3.67517e-13
3.87053e-13
4.05237e-13
4.21895e-13
4.36895e-13
4.50149e-13
4.61606e-13
4.71254e-13
4.79111e-13
4.85226e-13
4.89668e-13
4.92524e-13
4.93896e-13
3.48609e-13
3.68907e-13
3.98043e-13
4.3503e-13
4.79011e-13
5.29148e-13
5.84564e-13
6.44328e-13
7.07448e-13
7.72886e-13
8.39584e-13
9.06489e-13
9.72581e-13
1.0369e-12
1.09859e-12
1.15687e-12
1.21111e-12
1.26078e-12
1.30551e-12
1.34502e-12
1.37917e-12
1.40792e-12
1.43134e-12
1.44956e-12
1.4628e-12
1.47131e-12
1.4754e-12
1.04155e-12
1.10217e-12
1.18919e-12
1.29964e-12
1.43095e-12
1.5806e-12
1.74598e-12
1.92427e-12
2.11252e-12
2.30762e-12
2.50641e-12
2.70575e-12
2.9026e-12
3.09411e-12
3.2777e-12
3.45111e-12
3.61242e-12
3.76012e-12
3.89305e-12
4.01044e-12
4.11188e-12
4.19727e-12
4.26679e-12
4.32088e-12
4.36015e-12
4.38539e-12
4.39752e-12
3.10892e-12
3.2897e-12
3.54908e-12
3.87818e-12
4.26926e-12
4.71474e-12
5.20673e-12
5.73686e-12
6.29623e-12
6.87561e-12
7.46558e-12
8.0568e-12
8.64028e-12
9.20761e-12
9.75117e-12
1.02643e-11
1.07414e-11
1.1178e-11
1.15709e-11
1.19176e-11
1.22171e-11
1.24692e-11
1.26744e-11
1.28339e-11
1.29497e-11
1.30242e-11
1.30599e-11
9.25507e-12
9.7918e-12
1.05617e-11
1.1538e-11
1.26975e-11
1.40174e-11
1.54741e-11
1.70425e-11
1.8696e-11
2.04071e-11
2.2148e-11
2.38911e-11
2.56098e-11
2.72794e-11
2.88777e-11
3.03853e-11
3.1786e-11
3.30668e-11
3.42182e-11
3.52339e-11
3.61108e-11
3.68482e-11
3.74481e-11
3.79144e-11
3.82528e-11
3.84702e-11
3.85745e-11
2.74592e-11
2.90444e-11
3.13167e-11
3.41959e-11
3.76121e-11
4.14965e-11
4.57782e-11
5.03821e-11
5.52295e-11
6.02389e-11
6.53283e-11
7.04169e-11
7.54276e-11
8.02887e-11
8.49363e-11
8.93146e-11
9.33775e-11
9.70888e-11
1.00422e-10
1.03359e-10
1.05893e-10
1.08022e-10
1.09753e-10
1.11097e-10
1.12073e-10
1.12699e-10
1.12999e-10
8.10089e-11
8.56471e-11
9.22897e-11
1.00697e-10
1.10659e-10
1.21969e-10
1.34415e-10
1.47774e-10
1.61814e-10
1.76296e-10
1.90981e-10
2.05636e-10
2.20039e-10
2.33987e-10
2.47299e-10
2.59818e-10
2.71416e-10
2.81994e-10
2.9148e-10
2.99828e-10
3.0702e-10
3.13056e-10
3.17958e-10
3.21762e-10
3.24518e-10
3.26287e-10
3.27135e-10
2.37194e-10
2.50591e-10
2.69753e-10
2.93965e-10
3.22597e-10
3.55034e-10
3.90644e-10
4.2877e-10
4.68734e-10
5.09848e-10
5.51427e-10
5.92812e-10
6.33382e-10
6.72571e-10
7.0988e-10
7.44886e-10
7.77247e-10
8.067e-10
8.33062e-10
8.56222e-10
8.76139e-10
8.92831e-10
9.06366e-10
9.16858e-10
9.24452e-10
9.29319e-10
9.31651e-10
6.87314e-10
7.25298e-10
7.79533e-10
8.47908e-10
9.2855e-10
1.01963e-09
1.11931e-09
1.22566e-09
1.33675e-09
1.45064e-09
1.56542e-09
1.67926e-09
1.79048e-09
1.89757e-09
1.99921e-09
2.0943e-09
2.18195e-09
2.26152e-09
2.33256e-09
2.39484e-09
2.44829e-09
2.49299e-09
2.52918e-09
2.55719e-09
2.57744e-09
2.5904e-09
2.5966e-09
1.9642e-09
2.06923e-09
2.21883e-09
2.40688e-09
2.62789e-09
2.87654e-09
3.1475e-09
3.43536e-09
3.73472e-09
4.04025e-09
4.34681e-09
4.64957e-09
4.94415e-09
5.22666e-09
5.49378e-09
5.74278e-09
5.97157e-09
6.17862e-09
6.36296e-09
6.52413e-09
6.66212e-09
6.77729e-09
6.87035e-09
6.94224e-09
6.99412e-09
7.02729e-09
7.04315e-09
5.51075e-09
5.79167e-09
6.19069e-09
6.69036e-09
7.27507e-09
7.92975e-09
8.63955e-09
9.3897e-09
1.01657e-08
1.09535e-08
1.17399e-08
1.25127e-08
1.32611e-08
1.39755e-08
1.46482e-08
1.52727e-08
1.58444e-08
1.636e-08
1.68177e-08
1.72166e-08
1.75573e-08
1.7841e-08
1.80697e-08
1.82461e-08
1.83731e-08
1.84543e-08
1.8493e-08
1.50966e-08
1.58174e-08
1.68379e-08
1.81102e-08
1.95916e-08
2.12411e-08
2.30192e-08
2.48873e-08
2.68084e-08
2.87474e-08
3.06722e-08
3.25535e-08
3.4366e-08
3.6088e-08
3.7702e-08
3.91944e-08
4.05552e-08
4.17782e-08
4.28602e-08
4.38007e-08
4.46017e-08
4.52671e-08
4.58025e-08
4.62145e-08
4.65109e-08
4.66998e-08
4.67899e-08
4.01268e-08
4.18875e-08
4.43708e-08
4.74527e-08
5.10218e-08
5.49731e-08
5.92066e-08
6.36272e-08
6.81457e-08
7.26796e-08
7.71546e-08
8.15051e-08
8.56751e-08
8.96183e-08
9.32978e-08
9.66863e-08
9.97647e-08
1.02522e-07
1.04954e-07
1.07061e-07
1.08852e-07
1.10336e-07
1.11528e-07
1.12444e-07
1.13101e-07
1.1352e-07
1.13719e-07
1.02831e-07
1.06902e-07
1.12623e-07
1.19691e-07
1.27833e-07
1.36796e-07
1.46344e-07
1.56256e-07
1.66329e-07
1.7638e-07
1.86249e-07
1.95795e-07
2.04902e-07
2.13476e-07
2.21445e-07
2.28757e-07
2.35377e-07
2.41288e-07
2.46487e-07
2.50983e-07
2.54793e-07
2.57945e-07
2.60471e-07
2.62409e-07
2.63799e-07
2.64682e-07
2.65102e-07
2.52705e-07
2.61599e-07
2.74059e-07
2.89388e-07
3.06965e-07
3.26219e-07
3.46623e-07
3.67695e-07
3.89003e-07
4.10163e-07
4.30841e-07
4.50757e-07
4.69681e-07
4.87432e-07
5.03872e-07
5.18909e-07
5.32484e-07
5.44575e-07
5.55183e-07
5.64335e-07
5.72078e-07
5.78473e-07
5.8359e-07
5.87509e-07
5.90317e-07
5.921e-07
5.92947e-07
5.93632e-07
6.12047e-07
6.37777e-07
6.69327e-07
7.05367e-07
7.44684e-07
7.86175e-07
8.28848e-07
8.71822e-07
9.1433e-07
9.55717e-07
9.9544e-07
1.03306e-06
1.06824e-06
1.10074e-06
1.13038e-06
1.15708e-06
1.18081e-06
1.20159e-06
1.21949e-06
1.23461e-06
1.24708e-06
1.25704e-06
1.26467e-06
1.27012e-06
1.27359e-06
1.27523e-06
1.33213e-06
1.36853e-06
1.41929e-06
1.48139e-06
1.55213e-06
1.62907e-06
1.71003e-06
1.79304e-06
1.87639e-06
1.95862e-06
2.03846e-06
2.11491e-06
2.18715e-06
2.25457e-06
2.31672e-06
2.37332e-06
2.42421e-06
2.46938e-06
2.50888e-06
2.54286e-06
2.57153e-06
2.59515e-06
2.61402e-06
2.62844e-06
2.63875e-06
2.64528e-06
2.64839e-06
2.85972e-06
2.92921e-06
3.02599e-06
3.14421e-06
3.27866e-06
3.42464e-06
3.57796e-06
3.7349e-06
3.89221e-06
4.04713e-06
4.19733e-06
4.34093e-06
4.47642e-06
4.6027e-06
4.71896e-06
4.82472e-06
4.91972e-06
5.00394e-06
5.07752e-06
5.14077e-06
5.19409e-06
5.23799e-06
5.27301e-06
5.29978e-06
5.3189e-06
5.33102e-06
5.33677e-06
5.88553e-06
6.01526e-06
6.1959e-06
6.41645e-06
6.66716e-06
6.93925e-06
7.2249e-06
7.51716e-06
7.81002e-06
8.09831e-06
8.37772e-06
8.64476e-06
8.89665e-06
9.13132e-06
9.34731e-06
9.5437e-06
9.72005e-06
9.87632e-06
1.00128e-05
1.01301e-05
1.02289e-05
1.03102e-05
1.0375e-05
1.04245e-05
1.04599e-05
1.04823e-05
1.04929e-05
1.16133e-05
1.18529e-05
1.21868e-05
1.2595e-05
1.30597e-05
1.35649e-05
1.40963e-05
1.46413e-05
1.51885e-05
1.57285e-05
1.62532e-05
1.67558e-05
1.7231e-05
1.76748e-05
1.80842e-05
1.84571e-05
1.87927e-05
1.90905e-05
1.93511e-05
1.95752e-05
1.97642e-05
1.99199e-05
2.00442e-05
2.01391e-05
2.02069e-05
2.02499e-05
2.02702e-05
2.18615e-05
2.22991e-05
2.29106e-05
2.36608e-05
2.45188e-05
2.54565e-05
2.64488e-05
2.74729e-05
2.85087e-05
2.95387e-05
3.05474e-05
3.15219e-05
3.24513e-05
3.33268e-05
3.41417e-05
3.48908e-05
3.55708e-05
3.61798e-05
3.67171e-05
3.71832e-05
3.75795e-05
3.79084e-05
3.81728e-05
3.83762e-05
3.85224e-05
3.86155e-05
3.86599e-05
3.87949e-05
3.95602e-05
4.06335e-05
4.19567e-05
4.34788e-05
4.5154e-05
4.69406e-05
4.88007e-05
5.06999e-05
5.26075e-05
5.44956e-05
5.63398e-05
5.81188e-05
5.98142e-05
6.14105e-05
6.28952e-05
6.42585e-05
6.54931e-05
6.65944e-05
6.75598e-05
6.83889e-05
6.90832e-05
6.96462e-05
7.00826e-05
7.03988e-05
7.06018e-05
7.06992e-05
6.38608e-05
6.50587e-05
6.67402e-05
6.88155e-05
7.12058e-05
7.38399e-05
7.66527e-05
7.95845e-05
8.25806e-05
8.55912e-05
8.85715e-05
9.14811e-05
9.42848e-05
9.69521e-05
9.94584e-05
0.000101784
0.000103915
0.000105839
0.000107552
0.00010905
0.000110334
0.000111408
0.000112278
0.000112952
0.00011344
0.000113754
0.000113904
9.62203e-05
9.77838e-05
9.99689e-05
0.00010265
0.000105716
0.000109065
0.000112607
0.000116259
0.000119951
0.000123617
0.000127203
0.000130662
0.000133955
0.000137052
0.000139928
0.000142567
0.000144958
0.000147094
0.000148976
0.000150606
0.00015199
0.000153138
0.00015406
0.00015477
0.00015528
0.000155605
0.00015576
0.000131335
0.000132949
0.000135187
0.000137906
0.000140978
0.00014429
0.00014774
0.000151244
0.000154727
0.000158128
0.000161399
0.000164501
0.000167404
0.00017009
0.000172545
0.000174763
0.000176742
0.000178487
0.000180003
0.0001813
0.000182389
0.000183282
0.000183993
0.000184534
0.00018492
0.000185164
0.00018528
0.000161993
0.000163293
0.000165078
0.000167222
0.000169611
0.000172147
0.000174745
0.000177337
0.000179867
0.000182292
0.000184581
0.000186712
0.000188671
0.000190451
0.00019205
0.000193471
0.00019472
0.000195805
0.000196734
0.000197518
0.000198169
0.000198696
0.000199111
0.000199425
0.000199646
0.000199785
0.00019985
0.000182354
0.000183152
0.000184237
0.000185523
0.000186934
0.000188404
0.000189883
0.000191327
0.000192707
0.000194001
0.000195194
0.00019628
0.000197255
0.000198122
0.000198883
0.000199545
0.000200114
0.000200598
0.000201004
0.000201341
0.000201615
0.000201833
0.000202002
0.000202128
0.000202215
0.000202269
0.000202294
0.000190867
0.000191196
0.000191635
0.000192143
0.000192684
0.000193228
0.000193753
0.000194243
0.000194687
0.00019508
0.000195421
0.000195709
0.000195949
0.000196145
0.000196301
0.000196423
0.000196516
0.000196586
0.000196636
0.000196671
0.000196695
0.000196709
0.000196718
0.000196722
0.000196723
0.000196723
0.000196723
0.000189654
0.000189654
0.000189644
0.000189616
0.000189566
0.000189489
0.000189384
0.000189252
0.000189096
0.00018892
0.000188729
0.000188528
0.000188322
0.000188115
0.000187914
0.00018772
0.000187538
0.00018737
0.000187218
0.000187083
0.000186966
0.000186867
0.000186787
0.000186724
0.000186679
0.000186649
0.000186635
0.000182154
0.000181967
0.000181704
0.000181377
0.000180999
0.000180581
0.000180135
0.00017967
0.000179196
0.000178722
0.000178256
0.000177804
0.000177372
0.000176966
0.000176587
0.000176239
0.000175924
0.000175642
0.000175394
0.000175178
0.000174996
0.000174844
0.000174723
0.000174629
0.000174562
0.000174519
0.000174499
0.000171419
0.000171147
0.000170768
0.000170307
0.000169783
0.000169216
0.000168622
0.000168015
0.000167408
0.000166812
0.000166235
0.000165684
0.000165165
0.000164682
0.000164237
0.000163832
0.000163469
0.000163147
0.000162865
0.000162622
0.000162417
0.000162248
0.000162113
0.00016201
0.000161936
0.000161889
0.000161866
0.000159538
0.00015924
0.000158828
0.000158328
0.000157765
0.000157158
0.000156527
0.000155887
0.000155251
0.000154629
0.000154032
0.000153465
0.000152933
0.000152441
0.000151989
0.000151581
0.000151215
0.000150891
0.000150609
0.000150367
0.000150163
0.000149995
0.000149861
0.000149758
0.000149685
0.000149638
0.000149616
0.000147719
0.000147427
0.000147023
0.000146533
0.000145983
0.000145393
0.00014478
0.00014416
0.000143546
0.000142949
0.000142375
0.000141832
0.000141324
0.000140855
0.000140425
0.000140037
0.00013969
0.000139383
0.000139116
0.000138888
0.000138695
0.000138537
0.00013841
0.000138314
0.000138245
0.000138201
0.00013818
0.000136565
0.000136292
0.000135913
0.000135456
0.000134943
0.000134392
0.000133822
0.000133245
0.000132675
0.000132121
0.00013159
0.000131087
0.000130618
0.000130184
0.000129788
0.00012943
0.00012911
0.000128828
0.000128583
0.000128372
0.000128195
0.00012805
0.000127934
0.000127845
0.000127782
0.000127741
0.000127722
0.000126316
0.000126065
0.000125719
0.000125301
0.000124831
0.000124328
0.000123808
0.000123282
0.000122762
0.000122257
0.000121773
0.000121315
0.000120888
0.000120494
0.000120133
0.000119808
0.000119517
0.000119261
0.000119038
0.000118847
0.000118686
0.000118554
0.000118449
0.000118368
0.000118311
0.000118274
0.000118257
0.000117017
0.00011679
0.000116477
0.000116098
0.000115673
0.000115217
0.000114746
0.00011427
0.000113799
0.000113342
0.000112904
0.00011249
0.000112104
0.000111747
0.000111421
0.000111127
0.000110864
0.000110633
0.000110431
0.000110259
0.000110113
0.000109994
0.000109899
0.000109826
0.000109774
0.000109741
0.000109726
0.000108626
0.00010842
0.000108137
0.000107795
0.000107411
0.000106999
0.000106573
0.000106143
0.000105718
0.000105305
0.00010491
0.000104536
0.000104187
0.000103865
0.00010357
0.000103305
0.000103068
0.000102858
0.000102676
0.00010252
0.000102389
0.000102281
0.000102196
0.00010213
0.000102083
0.000102053
0.000102039
0.000101058
0.000100872
0.000100616
0.000100307
9.99591e-05
9.95871e-05
9.92019e-05
9.88132e-05
9.84289e-05
9.80554e-05
9.76977e-05
9.73597e-05
9.7044e-05
9.67526e-05
9.64865e-05
9.62461e-05
9.60316e-05
9.58423e-05
9.56777e-05
9.55366e-05
9.54179e-05
9.53204e-05
9.52427e-05
9.51833e-05
9.51409e-05
9.5114e-05
9.51012e-05
9.42211e-05
9.40529e-05
9.38208e-05
9.35404e-05
9.32255e-05
9.28883e-05
9.25391e-05
9.21867e-05
9.18383e-05
9.14996e-05
9.11753e-05
9.08688e-05
9.05825e-05
9.03182e-05
9.00768e-05
8.98588e-05
8.96641e-05
8.94924e-05
8.93431e-05
8.92151e-05
8.91074e-05
8.9019e-05
8.89484e-05
8.88946e-05
8.88561e-05
8.88316e-05
8.882e-05
8.80268e-05
8.78739e-05
8.76629e-05
8.74079e-05
8.71216e-05
8.68149e-05
8.64973e-05
8.61768e-05
8.58598e-05
8.55517e-05
8.52566e-05
8.49777e-05
8.47172e-05
8.44766e-05
8.42569e-05
8.40585e-05
8.38813e-05
8.3725e-05
8.3589e-05
8.34725e-05
8.33745e-05
8.3294e-05
8.32297e-05
8.31807e-05
8.31456e-05
8.31234e-05
8.31128e-05
8.23943e-05
8.22548e-05
8.20622e-05
8.18295e-05
8.15683e-05
8.12884e-05
8.09985e-05
8.07058e-05
8.04165e-05
8.01352e-05
7.98657e-05
7.9611e-05
7.9373e-05
7.91533e-05
7.89526e-05
7.87714e-05
7.86095e-05
7.84667e-05
7.83425e-05
7.8236e-05
7.81465e-05
7.80729e-05
7.80142e-05
7.79694e-05
7.79373e-05
7.7917e-05
7.79073e-05
7.72534e-05
7.71257e-05
7.69493e-05
7.67362e-05
7.64969e-05
7.62405e-05
7.59749e-05
7.57069e-05
7.54417e-05
7.51839e-05
7.4937e-05
7.47036e-05
7.44855e-05
7.42841e-05
7.41001e-05
7.39339e-05
7.37855e-05
7.36546e-05
7.35407e-05
7.3443e-05
7.33609e-05
7.32934e-05
7.32396e-05
7.31985e-05
7.31691e-05
7.31505e-05
7.31416e-05
7.25438e-05
7.24265e-05
7.22644e-05
7.20686e-05
7.18486e-05
7.1613e-05
7.13689e-05
7.11224e-05
7.08787e-05
7.06417e-05
7.04146e-05
7.01999e-05
6.99993e-05
6.98141e-05
6.96449e-05
6.9492e-05
6.93555e-05
6.9235e-05
6.91302e-05
6.90404e-05
6.89648e-05
6.89027e-05
6.88532e-05
6.88154e-05
6.87884e-05
6.87712e-05
6.87631e-05
6.82144e-05
6.81062e-05
6.79568e-05
6.77763e-05
6.75735e-05
6.73562e-05
6.71311e-05
6.69039e-05
6.6679e-05
6.64604e-05
6.6251e-05
6.60529e-05
6.58679e-05
6.5697e-05
6.55408e-05
6.53998e-05
6.52738e-05
6.51626e-05
6.50659e-05
6.4983e-05
6.49133e-05
6.4856e-05
6.48103e-05
6.47754e-05
6.47504e-05
6.47346e-05
6.47271e-05
6.42218e-05
6.41217e-05
6.39836e-05
6.38167e-05
6.36292e-05
6.34283e-05
6.32201e-05
6.30099e-05
6.2802e-05
6.25998e-05
6.2406e-05
6.22228e-05
6.20516e-05
6.18935e-05
6.1749e-05
6.16185e-05
6.15019e-05
6.1399e-05
6.13095e-05
6.12328e-05
6.11682e-05
6.11152e-05
6.10729e-05
6.10406e-05
6.10175e-05
6.10028e-05
6.09959e-05
6.05291e-05
6.04364e-05
6.03084e-05
6.01537e-05
5.99798e-05
5.97936e-05
5.96006e-05
5.94057e-05
5.92129e-05
5.90254e-05
5.88457e-05
5.86757e-05
5.8517e-05
5.83703e-05
5.82363e-05
5.81152e-05
5.8007e-05
5.79116e-05
5.78286e-05
5.77574e-05
5.76975e-05
5.76483e-05
5.7609e-05
5.75791e-05
5.75576e-05
5.7544e-05
5.75376e-05
5.71054e-05
5.70192e-05
5.69003e-05
5.67565e-05
5.6595e-05
5.6422e-05
5.62426e-05
5.60615e-05
5.58823e-05
5.5708e-05
5.5541e-05
5.53831e-05
5.52355e-05
5.50992e-05
5.49746e-05
5.4862e-05
5.47615e-05
5.46727e-05
5.45955e-05
5.45293e-05
5.44737e-05
5.44279e-05
5.43914e-05
5.43635e-05
5.43436e-05
5.4331e-05
5.4325e-05
5.39239e-05
5.38437e-05
5.3733e-05
5.35992e-05
5.34489e-05
5.32877e-05
5.31208e-05
5.29521e-05
5.27853e-05
5.2623e-05
5.24675e-05
5.23204e-05
5.2183e-05
5.2056e-05
5.194e-05
5.18351e-05
5.17415e-05
5.16588e-05
5.15869e-05
5.15253e-05
5.14734e-05
5.14308e-05
5.13968e-05
5.13708e-05
5.13523e-05
5.13405e-05
5.13349e-05
5.09621e-05
5.08874e-05
5.07841e-05
5.06594e-05
5.05192e-05
5.03689e-05
5.02132e-05
5.0056e-05
4.99004e-05
4.97491e-05
4.9604e-05
4.94668e-05
4.93386e-05
4.92202e-05
4.91119e-05
4.90141e-05
4.89268e-05
4.88497e-05
4.87826e-05
4.87251e-05
4.86767e-05
4.86369e-05
4.86052e-05
4.8581e-05
4.85637e-05
4.85527e-05
4.85475e-05
4.82006e-05
4.81308e-05
4.80344e-05
4.79179e-05
4.7787e-05
4.76467e-05
4.75013e-05
4.73545e-05
4.72092e-05
4.70678e-05
4.69324e-05
4.68043e-05
4.66845e-05
4.65739e-05
4.64728e-05
4.63815e-05
4.62999e-05
4.62279e-05
4.61652e-05
4.61115e-05
4.60663e-05
4.60292e-05
4.59995e-05
4.59769e-05
4.59607e-05
4.59505e-05
4.59456e-05
4.56224e-05
4.55572e-05
4.54671e-05
4.53582e-05
4.52359e-05
4.51047e-05
4.49688e-05
4.48316e-05
4.46958e-05
4.45636e-05
4.4437e-05
4.43172e-05
4.42053e-05
4.41019e-05
4.40074e-05
4.3922e-05
4.38457e-05
4.37784e-05
4.37198e-05
4.36695e-05
4.36273e-05
4.35926e-05
4.35649e-05
4.35437e-05
4.35286e-05
4.3519e-05
4.35144e-05
4.32132e-05
4.31522e-05
4.30679e-05
4.29661e-05
4.28516e-05
4.27289e-05
4.26018e-05
4.24734e-05
4.23463e-05
4.22227e-05
4.21043e-05
4.19922e-05
4.18875e-05
4.17907e-05
4.17023e-05
4.16224e-05
4.1551e-05
4.14881e-05
4.14332e-05
4.13862e-05
4.13467e-05
4.13142e-05
4.12883e-05
4.12685e-05
4.12543e-05
4.12454e-05
4.12411e-05
4.09603e-05
4.09032e-05
4.08243e-05
4.07289e-05
4.06218e-05
4.0507e-05
4.0388e-05
4.02678e-05
4.01489e-05
4.00332e-05
3.99223e-05
3.98174e-05
3.97194e-05
3.96288e-05
3.95461e-05
3.94713e-05
3.94045e-05
3.93455e-05
3.92942e-05
3.92502e-05
3.92132e-05
3.91828e-05
3.91585e-05
3.914e-05
3.91268e-05
3.91184e-05
3.91144e-05
3.88525e-05
3.87991e-05
3.87252e-05
3.8636e-05
3.85357e-05
3.84282e-05
3.83168e-05
3.82043e-05
3.80929e-05
3.79846e-05
3.78808e-05
3.77826e-05
3.76908e-05
3.7606e-05
3.75285e-05
3.74585e-05
3.7396e-05
3.73408e-05
3.72927e-05
3.72515e-05
3.72169e-05
3.71884e-05
3.71657e-05
3.71484e-05
3.7136e-05
3.71281e-05
3.71244e-05
3.68803e-05
3.68303e-05
3.67611e-05
3.66776e-05
3.65837e-05
3.6483e-05
3.63787e-05
3.62734e-05
3.61691e-05
3.60677e-05
3.59705e-05
3.58786e-05
3.57927e-05
3.57133e-05
3.56408e-05
3.55752e-05
3.55167e-05
3.5465e-05
3.542e-05
3.53815e-05
3.5349e-05
3.53224e-05
3.53011e-05
3.52849e-05
3.52733e-05
3.52659e-05
3.52624e-05
3.50351e-05
3.49883e-05
3.49235e-05
3.48453e-05
3.47574e-05
3.46632e-05
3.45656e-05
3.4467e-05
3.43694e-05
3.42745e-05
3.41836e-05
3.40975e-05
3.40171e-05
3.39428e-05
3.38749e-05
3.38136e-05
3.37588e-05
3.37104e-05
3.36684e-05
3.36323e-05
3.36019e-05
3.3577e-05
3.35571e-05
3.35419e-05
3.3531e-05
3.35242e-05
3.35209e-05
3.33094e-05
3.32655e-05
3.3205e-05
3.31318e-05
3.30496e-05
3.29615e-05
3.28701e-05
3.27779e-05
3.26866e-05
3.25979e-05
3.25128e-05
3.24323e-05
3.23571e-05
3.22876e-05
3.22241e-05
3.21668e-05
3.21155e-05
3.20703e-05
3.20309e-05
3.19972e-05
3.19688e-05
3.19455e-05
3.19269e-05
3.19127e-05
3.19025e-05
3.18961e-05
3.1893e-05
3.16965e-05
3.16555e-05
3.15989e-05
3.15305e-05
3.14536e-05
3.13713e-05
3.12859e-05
3.11997e-05
3.11144e-05
3.10315e-05
3.09519e-05
3.08767e-05
3.08065e-05
3.07415e-05
3.06822e-05
3.06286e-05
3.05807e-05
3.05385e-05
3.05017e-05
3.04702e-05
3.04437e-05
3.04219e-05
3.04045e-05
3.03913e-05
3.03818e-05
3.03757e-05
3.03729e-05
3.01906e-05
3.01523e-05
3.00995e-05
3.00356e-05
2.99639e-05
2.9887e-05
2.98073e-05
2.97268e-05
2.96472e-05
2.95698e-05
2.94955e-05
2.94254e-05
2.93598e-05
2.92992e-05
2.92438e-05
2.91938e-05
2.91491e-05
2.91097e-05
2.90754e-05
2.9046e-05
2.90213e-05
2.90009e-05
2.89847e-05
2.89723e-05
2.89635e-05
2.89579e-05
2.89552e-05
2.87865e-05
2.87509e-05
2.87016e-05
2.86421e-05
2.85752e-05
2.85035e-05
2.84292e-05
2.83542e-05
2.828e-05
2.82079e-05
2.81387e-05
2.80733e-05
2.80122e-05
2.79558e-05
2.79042e-05
2.78576e-05
2.7816e-05
2.77793e-05
2.77473e-05
2.77199e-05
2.76969e-05
2.7678e-05
2.76629e-05
2.76513e-05
2.76431e-05
2.76379e-05
2.76354e-05
2.74797e-05
2.74465e-05
2.74007e-05
2.73453e-05
2.72831e-05
2.72164e-05
2.71473e-05
2.70776e-05
2.70086e-05
2.69415e-05
2.68772e-05
2.68164e-05
2.67596e-05
2.67071e-05
2.66591e-05
2.66158e-05
2.65771e-05
2.6543e-05
2.65133e-05
2.64879e-05
2.64665e-05
2.64489e-05
2.64349e-05
2.64241e-05
2.64165e-05
2.64116e-05
2.64093e-05
2.62662e-05
2.62354e-05
2.61929e-05
2.61415e-05
2.60837e-05
2.60219e-05
2.59578e-05
2.5893e-05
2.5829e-05
2.57668e-05
2.57072e-05
2.56508e-05
2.55981e-05
2.55494e-05
2.5505e-05
2.54648e-05
2.5429e-05
2.53974e-05
2.53698e-05
2.53462e-05
2.53264e-05
2.53101e-05
2.52971e-05
2.52872e-05
2.52801e-05
2.52756e-05
2.52735e-05
2.51425e-05
2.51139e-05
2.50746e-05
2.5027e-05
2.49736e-05
2.49164e-05
2.48571e-05
2.47972e-05
2.4738e-05
2.46805e-05
2.46253e-05
2.45732e-05
2.45245e-05
2.44796e-05
2.44385e-05
2.44014e-05
2.43683e-05
2.43391e-05
2.43136e-05
2.42919e-05
2.42735e-05
2.42585e-05
2.42465e-05
2.42373e-05
2.42308e-05
2.42266e-05
2.42246e-05
2.41053e-05
2.4079e-05
2.40428e-05
2.39989e-05
2.39497e-05
2.38969e-05
2.38423e-05
2.37871e-05
2.37326e-05
2.36796e-05
2.36288e-05
2.35808e-05
2.3536e-05
2.34946e-05
2.34568e-05
2.34227e-05
2.33922e-05
2.33653e-05
2.33419e-05
2.33219e-05
2.3305e-05
2.32912e-05
2.32801e-05
2.32717e-05
2.32657e-05
2.32619e-05
2.326e-05
2.31521e-05
2.3128e-05
2.30946e-05
2.30544e-05
2.30092e-05
2.29608e-05
2.29107e-05
2.28601e-05
2.28101e-05
2.27615e-05
2.2715e-05
2.2671e-05
2.26299e-05
2.2592e-05
2.25574e-05
2.25261e-05
2.24982e-05
2.24736e-05
2.24521e-05
2.24338e-05
2.24184e-05
2.24057e-05
2.23956e-05
2.23879e-05
2.23824e-05
2.23789e-05
2.23772e-05
2.22802e-05
2.22582e-05
2.22278e-05
2.2191e-05
2.21498e-05
2.21056e-05
2.20599e-05
2.20138e-05
2.19682e-05
2.19239e-05
2.18814e-05
2.18413e-05
2.18039e-05
2.17693e-05
2.17378e-05
2.17093e-05
2.16839e-05
2.16615e-05
2.1642e-05
2.16253e-05
2.16113e-05
2.15997e-05
2.15905e-05
2.15835e-05
2.15785e-05
2.15753e-05
2.15738e-05
2.14874e-05
2.14674e-05
2.14398e-05
2.14065e-05
2.13691e-05
2.13291e-05
2.12876e-05
2.12458e-05
2.12045e-05
2.11643e-05
2.11259e-05
2.10896e-05
2.10557e-05
2.10245e-05
2.09959e-05
2.09701e-05
2.09472e-05
2.09269e-05
2.09093e-05
2.08942e-05
2.08815e-05
2.0871e-05
2.08627e-05
2.08564e-05
2.08519e-05
2.0849e-05
2.08476e-05
2.07715e-05
2.07535e-05
2.07286e-05
2.06986e-05
2.0665e-05
2.06289e-05
2.05916e-05
2.0554e-05
2.05168e-05
2.04808e-05
2.04462e-05
2.04136e-05
2.03832e-05
2.03551e-05
2.03295e-05
2.03063e-05
2.02857e-05
2.02675e-05
2.02517e-05
2.02382e-05
2.02268e-05
2.02175e-05
2.021e-05
2.02043e-05
2.02003e-05
2.01977e-05
2.01965e-05
2.01302e-05
2.01141e-05
2.00919e-05
2.00651e-05
2.0035e-05
2.00029e-05
1.99696e-05
1.99361e-05
1.9903e-05
1.98708e-05
1.98401e-05
1.9811e-05
1.97839e-05
1.97589e-05
1.97361e-05
1.97156e-05
1.96972e-05
1.96811e-05
1.9667e-05
1.9655e-05
1.96449e-05
1.96366e-05
1.963e-05
1.96249e-05
1.96213e-05
1.9619e-05
1.96179e-05
1.9561e-05
1.95468e-05
1.95271e-05
1.95035e-05
1.94769e-05
1.94485e-05
1.94191e-05
1.93896e-05
1.93603e-05
1.9332e-05
1.93049e-05
1.92793e-05
1.92554e-05
1.92334e-05
1.92133e-05
1.91952e-05
1.91791e-05
1.91649e-05
1.91525e-05
1.9142e-05
1.91331e-05
1.91258e-05
1.912e-05
1.91155e-05
1.91124e-05
1.91104e-05
1.91094e-05
1.90612e-05
1.90488e-05
1.90317e-05
1.9011e-05
1.89878e-05
1.8963e-05
1.89374e-05
1.89115e-05
1.88861e-05
1.88613e-05
1.88377e-05
1.88154e-05
1.87947e-05
1.87755e-05
1.87581e-05
1.87423e-05
1.87283e-05
1.8716e-05
1.87052e-05
1.8696e-05
1.86883e-05
1.8682e-05
1.8677e-05
1.86731e-05
1.86704e-05
1.86686e-05
1.86678e-05
1.86278e-05
1.8617e-05
1.86022e-05
1.85844e-05
1.85644e-05
1.8543e-05
1.85209e-05
1.84987e-05
1.84768e-05
1.84555e-05
1.84352e-05
1.84161e-05
1.83982e-05
1.83818e-05
1.83668e-05
1.83533e-05
1.83413e-05
1.83307e-05
1.83215e-05
1.83136e-05
1.8307e-05
1.83016e-05
1.82973e-05
1.8294e-05
1.82916e-05
1.82902e-05
1.82894e-05
1.82568e-05
1.82477e-05
1.82351e-05
1.82199e-05
1.82029e-05
1.81848e-05
1.8166e-05
1.81471e-05
1.81285e-05
1.81105e-05
1.80933e-05
1.80771e-05
1.8062e-05
1.80481e-05
1.80354e-05
1.8024e-05
1.80138e-05
1.80049e-05
1.79971e-05
1.79905e-05
1.79849e-05
1.79803e-05
1.79767e-05
1.79739e-05
1.79719e-05
1.79707e-05
1.79701e-05
1.7944e-05
1.79364e-05
1.79259e-05
1.79131e-05
1.78989e-05
1.78837e-05
1.7868e-05
1.78523e-05
1.78367e-05
1.78217e-05
1.78073e-05
1.77938e-05
1.77812e-05
1.77696e-05
1.77591e-05
1.77496e-05
1.77411e-05
1.77337e-05
1.77272e-05
1.77217e-05
1.77171e-05
1.77133e-05
1.77102e-05
1.77079e-05
1.77063e-05
1.77053e-05
1.77048e-05
1.76844e-05
1.76781e-05
1.76694e-05
1.7659e-05
1.76472e-05
1.76347e-05
1.76218e-05
1.76088e-05
1.75961e-05
1.75837e-05
1.75719e-05
1.75608e-05
1.75505e-05
1.7541e-05
1.75323e-05
1.75245e-05
1.75176e-05
1.75115e-05
1.75063e-05
1.75017e-05
1.74979e-05
1.74948e-05
1.74924e-05
1.74905e-05
1.74891e-05
1.74883e-05
1.74879e-05
1.74724e-05
1.74673e-05
1.74602e-05
1.74517e-05
1.74422e-05
1.74321e-05
1.74216e-05
1.74111e-05
1.74008e-05
1.73908e-05
1.73812e-05
1.73723e-05
1.73639e-05
1.73562e-05
1.73493e-05
1.7343e-05
1.73374e-05
1.73325e-05
1.73282e-05
1.73246e-05
1.73215e-05
1.7319e-05
1.73171e-05
1.73155e-05
1.73145e-05
1.73138e-05
1.73134e-05
1.73019e-05
1.72978e-05
1.72922e-05
1.72854e-05
1.72778e-05
1.72697e-05
1.72613e-05
1.7253e-05
1.72447e-05
1.72367e-05
1.72291e-05
1.7222e-05
1.72154e-05
1.72092e-05
1.72037e-05
1.71987e-05
1.71943e-05
1.71904e-05
1.7187e-05
1.71841e-05
1.71817e-05
1.71797e-05
1.71781e-05
1.71769e-05
1.7176e-05
1.71755e-05
1.71752e-05
1.71668e-05
1.71636e-05
1.71592e-05
1.71538e-05
1.71478e-05
1.71415e-05
1.71349e-05
1.71283e-05
1.71218e-05
1.71155e-05
1.71095e-05
1.71039e-05
1.70987e-05
1.70939e-05
1.70895e-05
1.70856e-05
1.70821e-05
1.70791e-05
1.70764e-05
1.70741e-05
1.70722e-05
1.70707e-05
1.70694e-05
1.70685e-05
1.70678e-05
1.70674e-05
1.70672e-05
1.70612e-05
1.70587e-05
1.70553e-05
1.70511e-05
1.70464e-05
1.70415e-05
1.70363e-05
1.70312e-05
1.70261e-05
1.70212e-05
1.70166e-05
1.70122e-05
1.70081e-05
1.70044e-05
1.7001e-05
1.6998e-05
1.69952e-05
1.69928e-05
1.69908e-05
1.6989e-05
1.69875e-05
1.69863e-05
1.69853e-05
1.69846e-05
1.69841e-05
1.69837e-05
1.69836e-05
1.69795e-05
1.69776e-05
1.69749e-05
1.69717e-05
1.6968e-05
1.69642e-05
1.69602e-05
1.69562e-05
1.69523e-05
1.69485e-05
1.69449e-05
1.69415e-05
1.69384e-05
1.69355e-05
1.69328e-05
1.69305e-05
1.69284e-05
1.69265e-05
1.69249e-05
1.69235e-05
1.69224e-05
1.69214e-05
1.69207e-05
1.69201e-05
1.69197e-05
1.69194e-05
1.69193e-05
1.69167e-05
1.69151e-05
1.69131e-05
1.69106e-05
1.69078e-05
1.69048e-05
1.69018e-05
1.68987e-05
1.68956e-05
1.68927e-05
1.68899e-05
1.68873e-05
1.68849e-05
1.68826e-05
1.68806e-05
1.68787e-05
1.68771e-05
1.68757e-05
1.68744e-05
1.68733e-05
1.68725e-05
1.68717e-05
1.68711e-05
1.68707e-05
1.68704e-05
1.68702e-05
1.68701e-05
1.68685e-05
1.68673e-05
1.68657e-05
1.68638e-05
1.68617e-05
1.68594e-05
1.6857e-05
1.68546e-05
1.68523e-05
1.685e-05
1.68479e-05
1.68459e-05
1.6844e-05
1.68422e-05
1.68407e-05
1.68392e-05
1.6838e-05