/*--------------------------------*- C++ -*----------------------------------*\
| =========                 |                                                 |
| \\      /  F ield         | OpenFOAM: The Open Source CFD Toolbox           |
|  \\    /   O peration     | Version:  2106                                  |
|   \\  /    A nd           | Website:  www.openfoam.com                      |
|    \\/     M anipulation  |                                                 |
\*---------------------------------------------------------------------------*/
FoamFile
{
    version     2.0;
    format      ascii;
    arch        "LSB;label=32;scalar=64";
    class       volScalarField;
    location    "90.00055";
    object      C4H4_0;
}
// * * * * * * * * * * * * * * * * * * * * * * * * * * * * * * * * * * * * * //

dimensions      [0 0 0 0 0 0 0];

internalField   nonuniform List<scalar> 
3360
(
3.46502e-16
3.57651e-16
3.73167e-16
3.92144e-16
4.13794e-16
4.37406e-16
4.62337e-16
4.88011e-16
5.13909e-16
5.39578e-16
5.64624e-16
5.8871e-16
6.1156e-16
6.32955e-16
6.52726e-16
6.70757e-16
6.86975e-16
7.01349e-16
7.13886e-16
7.24622e-16
7.33622e-16
7.40973e-16
7.4678e-16
7.5116e-16
7.54241e-16
7.56158e-16
7.57048e-16
1.51999e-15
1.57585e-15
1.65468e-15
1.75285e-15
1.86735e-15
1.99556e-15
2.13513e-15
2.28393e-15
2.43995e-15
2.60131e-15
2.7662e-15
2.93286e-15
3.09956e-15
3.26457e-15
3.42623e-15
3.58286e-15
3.73284e-15
3.87459e-15
4.00662e-15
4.1275e-15
4.23594e-15
4.33079e-15
4.41107e-15
4.476e-15
4.52499e-15
4.55771e-15
4.57403e-15
4.76872e-15
4.97799e-15
5.27537e-15
5.64904e-15
6.08923e-15
6.58713e-15
7.13437e-15
7.72271e-15
8.34381e-15
8.98914e-15
9.65e-15
1.03178e-14
1.09838e-14
1.16398e-14
1.22775e-14
1.28891e-14
1.34674e-14
1.40061e-14
1.44995e-14
1.49429e-14
1.53329e-14
1.56669e-14
1.59433e-14
1.61618e-14
1.63229e-14
1.6428e-14
1.64791e-14
1.38864e-14
1.45761e-14
1.55627e-14
1.6811e-14
1.82915e-14
1.99764e-14
2.18382e-14
2.38482e-14
2.59764e-14
2.81913e-14
3.04601e-14
3.27497e-14
3.50272e-14
3.72603e-14
3.94187e-14
4.14745e-14
4.34027e-14
4.51823e-14
4.67965e-14
4.82325e-14
4.94819e-14
5.05403e-14
5.14072e-14
5.20852e-14
5.258e-14
5.28995e-14
5.30536e-14
4.05654e-14
4.27409e-14
4.58588e-14
4.98129e-14
5.45125e-14
5.98709e-14
6.57988e-14
7.22016e-14
7.89783e-14
8.60226e-14
9.32246e-14
1.00473e-13
1.0766e-13
1.14681e-13
1.2144e-13
1.27851e-13
1.33839e-13
1.39343e-13
1.44315e-13
1.48722e-13
1.52543e-13
1.5577e-13
1.58404e-13
1.60459e-13
1.61954e-13
1.62918e-13
1.63381e-13
1.19596e-13
1.26277e-13
1.35863e-13
1.48031e-13
1.625e-13
1.79003e-13
1.97259e-13
2.16972e-13
2.37824e-13
2.59482e-13
2.81601e-13
3.03834e-13
3.25845e-13
3.47313e-13
3.67944e-13
3.87476e-13
4.05688e-13
4.22397e-13
4.37466e-13
4.50798e-13
4.62337e-13
4.72065e-13
4.79996e-13
4.86173e-13
4.90663e-13
4.93553e-13
4.94942e-13
3.55215e-13
3.75511e-13
4.04635e-13
4.41602e-13
4.85562e-13
5.35686e-13
5.91115e-13
6.50932e-13
7.14162e-13
7.79779e-13
8.46732e-13
9.13969e-13
9.80467e-13
1.04526e-12
1.10747e-12
1.16632e-12
1.22115e-12
1.27141e-12
1.31671e-12
1.35676e-12
1.39142e-12
1.42062e-12
1.44442e-12
1.46295e-12
1.47641e-12
1.48508e-12
1.48924e-12
1.05858e-12
1.11964e-12
1.20732e-12
1.31863e-12
1.45105e-12
1.60205e-12
1.76904e-12
1.94924e-12
2.1397e-12
2.33729e-12
2.53886e-12
2.74121e-12
2.94126e-12
3.13611e-12
3.3231e-12
3.49991e-12
3.66456e-12
3.81545e-12
3.95137e-12
4.07151e-12
4.17539e-12
4.2629e-12
4.33419e-12
4.38967e-12
4.42998e-12
4.45591e-12
4.46837e-12
3.16306e-12
3.34657e-12
3.60998e-12
3.94441e-12
4.34215e-12
4.79566e-12
5.29707e-12
5.83801e-12
6.40954e-12
7.00231e-12
7.60677e-12
8.21338e-12
8.81291e-12
9.39666e-12
9.95673e-12
1.04861e-11
1.0979e-11
1.14307e-11
1.18374e-11
1.21969e-11
1.25077e-11
1.27696e-11
1.29828e-11
1.31488e-11
1.32694e-11
1.3347e-11
1.33843e-11
9.45235e-12
1.0002e-11
1.07911e-11
1.1793e-11
1.29846e-11
1.43433e-11
1.58454e-11
1.74658e-11
1.91777e-11
2.09531e-11
2.27631e-11
2.45793e-11
2.6374e-11
2.81211e-11
2.97971e-11
3.13809e-11
3.28552e-11
3.42057e-11
3.54218e-11
3.64963e-11
3.74251e-11
3.82073e-11
3.88444e-11
3.93401e-11
3.97002e-11
3.99317e-11
4.0043e-11
2.82625e-11
2.9908e-11
3.227e-11
3.52684e-11
3.88339e-11
4.28984e-11
4.73908e-11
5.22357e-11
5.73526e-11
6.26575e-11
6.80645e-11
7.34882e-11
7.8846e-11
8.40603e-11
8.90608e-11
9.37856e-11
9.81824e-11
1.02209e-10
1.05835e-10
1.09038e-10
1.11806e-10
1.14137e-10
1.16035e-10
1.17513e-10
1.18585e-10
1.19275e-10
1.19607e-10
8.44315e-11
8.93457e-11
9.63992e-11
1.05352e-10
1.15996e-10
1.28127e-10
1.41532e-10
1.55984e-10
1.71243e-10
1.87058e-10
2.03172e-10
2.1933e-10
2.35286e-10
2.50809e-10
2.65691e-10
2.79746e-10
2.92822e-10
3.04794e-10
3.15569e-10
3.25084e-10
3.33307e-10
3.40228e-10
3.45863e-10
3.50247e-10
3.5343e-10
3.55477e-10
3.5646e-10
2.5199e-10
2.66642e-10
2.87665e-10
3.14339e-10
3.46036e-10
3.82143e-10
4.22019e-10
4.64986e-10
5.10323e-10
5.57282e-10
6.05098e-10
6.53017e-10
7.00307e-10
7.46289e-10
7.90344e-10
8.31933e-10
8.70603e-10
9.05991e-10
9.37827e-10
9.65932e-10
9.90208e-10
1.01064e-09
1.02726e-09
1.04019e-09
1.04958e-09
1.05562e-09
1.05851e-09
7.50058e-10
7.93556e-10
8.55947e-10
9.35069e-10
1.02904e-09
1.13601e-09
1.25406e-09
1.38116e-09
1.51516e-09
1.65384e-09
1.79492e-09
1.93618e-09
2.07546e-09
2.21077e-09
2.3403e-09
2.46248e-09
2.57598e-09
2.67978e-09
2.77309e-09
2.85541e-09
2.92647e-09
2.98623e-09
3.03484e-09
3.07263e-09
3.10005e-09
3.11767e-09
3.12613e-09
2.22502e-09
2.35347e-09
2.5376e-09
2.77091e-09
3.04772e-09
3.36249e-09
3.70944e-09
4.0825e-09
4.47529e-09
4.88122e-09
5.29362e-09
5.70595e-09
6.11197e-09
6.50588e-09
6.88247e-09
7.23725e-09
7.56648e-09
7.86721e-09
8.13728e-09
8.37531e-09
8.58062e-09
8.75314e-09
8.89338e-09
9.00233e-09
9.08135e-09
9.13209e-09
9.15644e-09
6.56279e-09
6.93858e-09
7.47676e-09
8.15793e-09
8.96504e-09
9.88139e-09
1.08898e-08
1.19721e-08
1.31096e-08
1.4283e-08
1.54728e-08
1.66601e-08
1.78271e-08
1.89572e-08
2.00358e-08
2.10501e-08
2.19898e-08
2.28468e-08
2.36153e-08
2.42918e-08
2.48744e-08
2.53635e-08
2.57606e-08
2.60688e-08
2.62922e-08
2.64354e-08
2.65042e-08
1.92102e-08
2.02954e-08
2.18476e-08
2.3809e-08
2.61284e-08
2.8756e-08
3.16407e-08
3.47292e-08
3.79666e-08
4.12972e-08
4.46656e-08
4.80182e-08
5.13047e-08
5.44794e-08
5.75018e-08
6.03378e-08
6.29594e-08
6.53454e-08
6.74809e-08
6.93571e-08
7.09706e-08
7.23229e-08
7.34194e-08
7.42693e-08
7.48845e-08
7.52788e-08
7.54678e-08
5.56404e-08
5.87166e-08
6.31088e-08
6.86464e-08
7.51775e-08
8.25544e-08
9.06269e-08
9.92408e-08
1.08239e-07
1.17463e-07
1.26759e-07
1.3598e-07
1.44989e-07
1.53663e-07
1.61896e-07
1.69597e-07
1.76697e-07
1.83142e-07
1.88897e-07
1.93941e-07
1.9827e-07
2.01892e-07
2.04823e-07
2.07092e-07
2.08732e-07
2.09782e-07
2.10284e-07
1.58894e-07
1.67397e-07
1.79509e-07
1.94734e-07
2.12628e-07
2.3276e-07
2.54699e-07
2.78007e-07
3.02248e-07
3.26988e-07
3.51812e-07
3.7633e-07
4.00186e-07
4.23064e-07
4.44696e-07
4.64862e-07
4.83391e-07
5.00159e-07
5.15089e-07
5.28142e-07
5.39317e-07
5.48645e-07
5.56181e-07
5.62004e-07
5.66206e-07
5.68892e-07
5.70176e-07
4.45258e-07
4.67988e-07
5.00275e-07
5.40709e-07
5.88026e-07
6.41009e-07
6.98456e-07
7.59172e-07
8.21984e-07
8.85756e-07
9.49418e-07
1.01198e-06
1.07257e-06
1.13041e-06
1.18487e-06
1.23544e-06
1.28173e-06
1.32348e-06
1.36053e-06
1.39284e-06
1.42043e-06
1.4434e-06
1.46192e-06
1.4762e-06
1.48649e-06
1.49306e-06
1.49619e-06
1.21726e-06
1.27553e-06
1.35803e-06
1.4609e-06
1.58068e-06
1.71408e-06
1.85789e-06
2.00899e-06
2.16439e-06
2.32127e-06
2.477e-06
2.62923e-06
2.7759e-06
2.91526e-06
3.04589e-06
3.16668e-06
3.27682e-06
3.37582e-06
3.4634e-06
3.53953e-06
3.60436e-06
3.65823e-06
3.70156e-06
3.73492e-06
3.7589e-06
3.7742e-06
3.78149e-06
3.22391e-06
3.366e-06
3.56644e-06
3.81523e-06
4.10341e-06
4.4225e-06
4.76446e-06
5.12159e-06
5.48671e-06
5.85313e-06
6.21485e-06
6.56656e-06
6.90372e-06
7.22257e-06
7.52014e-06
7.79418e-06
8.04316e-06
8.26618e-06
8.46287e-06
8.63337e-06
8.77821e-06
8.89827e-06
8.99466e-06
9.06872e-06
9.12189e-06
9.15574e-06
9.17186e-06
8.21003e-06
8.53746e-06
8.99773e-06
9.56651e-06
1.0222e-05
1.09438e-05
1.1713e-05
1.25117e-05
1.33238e-05
1.41344e-05
1.49304e-05
1.57007e-05
1.64358e-05
1.7128e-05
1.77714e-05
1.83619e-05
1.88966e-05
1.93741e-05
1.97941e-05
2.01572e-05
2.0465e-05
2.07196e-05
2.09237e-05
2.10802e-05
2.11925e-05
2.12638e-05
2.12978e-05
1.99561e-05
2.06662e-05
2.16612e-05
2.2886e-05
2.42913e-05
2.58315e-05
2.74647e-05
2.91526e-05
3.08604e-05
3.25575e-05
3.42171e-05
3.58165e-05
3.73372e-05
3.87643e-05
4.00869e-05
4.12971e-05
4.23902e-05
4.33641e-05
4.42189e-05
4.49567e-05
4.5581e-05
4.60967e-05
4.65094e-05
4.68256e-05
4.70521e-05
4.71959e-05
4.72643e-05
4.60143e-05
4.74592e-05
4.94788e-05
5.19563e-05
5.47879e-05
5.78788e-05
6.11426e-05
6.45015e-05
6.78864e-05
7.12367e-05
7.45005e-05
7.76349e-05
8.06047e-05
8.33829e-05
8.59497e-05
8.82916e-05
9.04012e-05
9.22758e-05
9.39173e-05
9.53308e-05
9.65245e-05
9.75087e-05
9.8295e-05
9.88966e-05
9.93269e-05
9.95999e-05
9.97296e-05
0.000100186
0.000102937
0.000106772
0.000111459
0.000116793
0.000122588
0.000128677
0.000134909
0.000141154
0.000147301
0.000153257
0.000158946
0.00016431
0.000169305
0.000173899
0.000178075
0.000181824
0.000185146
0.000188047
0.000190539
0.00019264
0.000194369
0.000195748
0.000196802
0.000197555
0.000198033
0.000198259
0.000204779
0.000209651
0.000216429
0.000224694
0.000234073
0.000244237
0.000254889
0.00026577
0.000276657
0.000287361
0.000297723
0.000307617
0.000316944
0.000325629
0.000333622
0.000340889
0.000347416
0.000353203
0.00035826
0.000362607
0.000366274
0.000369294
0.000371705
0.000373549
0.000374867
0.000375703
0.0003761
0.00039122
0.000399496
0.000411011
0.000425059
0.000441015
0.000458321
0.00047648
0.000495056
0.000513672
0.000532006
0.00054979
0.000566804
0.000582878
0.000597878
0.000611712
0.000624318
0.000635666
0.000645747
0.000654576
0.000662182
0.00066861
0.000673913
0.000678156
0.000681405
0.000683731
0.00068521
0.000685912
0.000702758
0.000716295
0.000735143
0.00075816
0.000784337
0.000812771
0.000842658
0.000873288
0.000904044
0.000934399
0.000963907
0.000992202
0.00101899
0.00104405
0.00106722
0.00108837
0.00110746
0.00112445
0.00113937
0.00115225
0.00116315
0.00117217
0.00117939
0.00118494
0.00118891
0.00119144
0.00119265
0.00118759
0.00120828
0.00123709
0.00127228
0.00131229
0.00135575
0.00140144
0.00144826
0.00149529
0.00154171
0.00158685
0.00163014
0.00167113
0.00170947
0.00174493
0.00177731
0.00180653
0.00183256
0.0018554
0.00187512
0.00189183
0.00190565
0.00191672
0.00192523
0.00193133
0.00193521
0.00193706
0.00187945
0.00190798
0.00194765
0.00199598
0.00205082
0.00211021
0.00217244
0.00223602
0.00229963
0.00236219
0.00242279
0.00248069
0.00253531
0.00258621
0.00263311
0.0026758
0.00271418
0.00274825
0.00277806
0.00280373
0.00282541
0.00284329
0.00285758
0.00286852
0.00287636
0.00288134
0.0028837
0.00277207
0.0028067
0.0028547
0.00291295
0.00297872
0.00304957
0.00312337
0.00319829
0.00327278
0.00334554
0.00341555
0.00348198
0.00354422
0.00360186
0.0036546
0.00370232
0.00374498
0.00378265
0.00381544
0.00384353
0.00386716
0.00388657
0.00390204
0.00391384
0.00392227
0.00392761
0.00393014
0.00380589
0.0038428
0.00389378
0.00395536
0.0040245
0.00409854
0.00417516
0.00425241
0.0043287
0.00440273
0.00447348
0.0045402
0.00460234
0.00465954
0.00471161
0.00475846
0.00480015
0.00483678
0.00486852
0.00489561
0.00491831
0.00493689
0.00495165
0.00496287
0.00497087
0.00497592
0.00497832
0.00488714
0.00492237
0.0049709
0.00502933
0.00509468
0.00516435
0.00523612
0.00530815
0.00537894
0.0054473
0.00551234
0.00557341
0.00563004
0.00568197
0.00572907
0.00577132
0.00580879
0.00584162
0.00587001
0.00589418
0.00591439
0.00593091
0.00594401
0.00595396
0.00596104
0.00596551
0.00596763
0.00593049
0.00596168
0.00600458
0.00605613
0.00611366
0.00617484
0.00623773
0.0063007
0.00636245
0.00642196
0.00647848
0.00653145
0.00658051
0.00662545
0.00666617
0.00670268
0.00673503
0.00676338
0.00678788
0.00680875
0.0068262
0.00684046
0.00685178
0.00686038
0.0068665
0.00687037
0.0068722
0.00688299
0.0069095
0.00694594
0.00698973
0.00703859
0.00709054
0.00714394
0.00719742
0.00724988
0.00730046
0.00734853
0.00739362
0.00743542
0.00747376
0.00750853
0.00753974
0.00756744
0.00759174
0.00761278
0.00763072
0.00764575
0.00765804
0.00766781
0.00767525
0.00768055
0.0076839
0.00768549
0.00772529
0.0077476
0.00777828
0.00781518
0.00785639
0.00790028
0.00794546
0.00799079
0.00803533
0.00807836
0.00811933
0.00815784
0.00819363
0.0082265
0.00825639
0.00828326
0.00830716
0.00832817
0.00834639
0.00836195
0.00837501
0.00838571
0.00839422
0.00840071
0.00840535
0.00840828
0.00840967
0.00846024
0.00847918
0.00850526
0.00853668
0.00857183
0.00860933
0.00864801
0.00868689
0.00872519
0.00876227
0.00879765
0.00883097
0.008862
0.00889056
0.00891658
0.00894002
0.0089609
0.00897928
0.00899524
0.0090089
0.00902037
0.00902979
0.00903729
0.00904301
0.00904709
0.00904969
0.00905092
0.00910022
0.00911658
0.00913914
0.00916633
0.00919681
0.00922938
0.00926303
0.00929691
0.00933034
0.00936276
0.00939375
0.00942299
0.00945025
0.00947539
0.00949831
0.00951899
0.00953743
0.00955368
0.00956781
0.00957991
0.00959008
0.00959843
0.00960509
0.00961017
0.0096138
0.00961611
0.0096172
0.00965939
0.00967376
0.00969357
0.00971748
0.00974429
0.00977298
0.00980266
0.00983257
0.00986212
0.00989081
0.00991825
0.00994418
0.00996837
0.00999069
0.0100111
0.0100295
0.0100459
0.0100603
0.0100729
0.0100837
0.0100928
0.0101002
0.0101062
0.0101107
0.010114
0.010116
0.010117
0.0101504
0.0101631
0.0101807
0.010202
0.0102258
0.0102513
0.0102777
0.0103044
0.0103307
0.0103563
0.0103808
0.0104039
0.0104255
0.0104454
0.0104636
0.0104801
0.0104948
0.0105077
0.010519
0.0105286
0.0105367
0.0105434
0.0105487
0.0105528
0.0105557
0.0105575
0.0105584
0.0105835
0.0105949
0.0106106
0.0106296
0.0106509
0.0106737
0.0106973
0.0107212
0.0107447
0.0107676
0.0107896
0.0108103
0.0108296
0.0108475
0.0108638
0.0108785
0.0108917
0.0109033
0.0109133
0.010922
0.0109293
0.0109352
0.01094
0.0109436
0.0109462
0.0109479
0.0109487
0.0109668
0.010977
0.0109911
0.0110081
0.0110272
0.0110477
0.0110689
0.0110902
0.0111114
0.0111319
0.0111516
0.0111701
0.0111875
0.0112035
0.0112181
0.0112313
0.0112431
0.0112535
0.0112625
0.0112703
0.0112768
0.0112821
0.0112864
0.0112896
0.011292
0.0112935
0.0112942
0.0113067
0.0113159
0.0113285
0.0113438
0.011361
0.0113793
0.0113983
0.0114175
0.0114365
0.0114549
0.0114725
0.0114891
0.0115047
0.011519
0.0115321
0.011544
0.0115545
0.0115638
0.0115719
0.0115789
0.0115847
0.0115895
0.0115933
0.0115962
0.0115983
0.0115996
0.0116003
0.0116086
0.0116168
0.0116282
0.0116419
0.0116572
0.0116737
0.0116907
0.0117079
0.0117249
0.0117414
0.0117572
0.0117721
0.011786
0.0117989
0.0118106
0.0118212
0.0118306
0.011839
0.0118462
0.0118524
0.0118576
0.0118619
0.0118653
0.0118679
0.0118698
0.011871
0.0118716
0.0118767
0.0118841
0.0118942
0.0119065
0.0119203
0.011935
0.0119502
0.0119656
0.0119808
0.0119956
0.0120097
0.012023
0.0120355
0.012047
0.0120575
0.0120669
0.0120754
0.0120828
0.0120893
0.0120948
0.0120995
0.0121033
0.0121064
0.0121087
0.0121104
0.0121114
0.0121119
0.0121146
0.0121212
0.0121303
0.0121413
0.0121536
0.0121667
0.0121804
0.0121941
0.0122077
0.0122209
0.0122335
0.0122454
0.0122565
0.0122668
0.0122761
0.0122846
0.0122921
0.0122987
0.0123045
0.0123095
0.0123136
0.012317
0.0123198
0.0123218
0.0123233
0.0123243
0.0123247
0.0123256
0.0123314
0.0123395
0.0123493
0.0123603
0.012372
0.0123842
0.0123964
0.0124085
0.0124203
0.0124315
0.0124421
0.012452
0.0124612
0.0124695
0.012477
0.0124838
0.0124897
0.0124948
0.0124992
0.0125029
0.012506
0.0125084
0.0125102
0.0125116
0.0125124
0.0125128
0.0125122
0.0125174
0.0125246
0.0125333
0.0125431
0.0125535
0.0125643
0.0125753
0.012586
0.0125965
0.0126065
0.0126159
0.0126247
0.0126328
0.0126403
0.0126469
0.0126529
0.0126582
0.0126627
0.0126667
0.0126699
0.0126726
0.0126748
0.0126764
0.0126776
0.0126784
0.0126787
0.0126769
0.0126815
0.0126879
0.0126957
0.0127043
0.0127136
0.0127232
0.0127329
0.0127425
0.0127517
0.0127606
0.012769
0.0127768
0.012784
0.0127906
0.0127965
0.0128018
0.0128065
0.0128105
0.012814
0.0128169
0.0128193
0.0128212
0.0128227
0.0128237
0.0128244
0.0128247
0.0128219
0.012826
0.0128316
0.0128385
0.0128462
0.0128544
0.0128629
0.0128715
0.0128799
0.0128881
0.012896
0.0129034
0.0129103
0.0129167
0.0129225
0.0129278
0.0129324
0.0129366
0.0129402
0.0129432
0.0129458
0.0129479
0.0129496
0.0129509
0.0129518
0.0129524
0.0129527
0.012949
0.0129526
0.0129577
0.0129637
0.0129705
0.0129778
0.0129853
0.0129928
0.0130003
0.0130076
0.0130145
0.013021
0.0130271
0.0130328
0.0130379
0.0130425
0.0130467
0.0130503
0.0130535
0.0130562
0.0130584
0.0130603
0.0130618
0.0130629
0.0130637
0.0130643
0.0130645
0.0130601
0.0130633
0.0130677
0.0130731
0.013079
0.0130854
0.013092
0.0130987
0.0131053
0.0131117
0.0131178
0.0131235
0.0131289
0.0131339
0.0131384
0.0131424
0.0131461
0.0131493
0.0131521
0.0131544
0.0131564
0.0131581
0.0131594
0.0131604
0.0131611
0.0131616
0.0131618
0.0131568
0.0131596
0.0131634
0.0131681
0.0131734
0.013179
0.0131848
0.0131906
0.0131964
0.013202
0.0132074
0.0132124
0.0132171
0.0132215
0.0132254
0.013229
0.0132322
0.013235
0.0132374
0.0132395
0.0132413
0.0132427
0.0132439
0.0132447
0.0132454
0.0132458
0.0132459
0.0132404
0.0132429
0.0132463
0.0132504
0.0132549
0.0132599
0.0132649
0.01327
0.0132751
0.01328
0.0132847
0.0132891
0.0132932
0.013297
0.0133005
0.0133036
0.0133064
0.0133088
0.0133109
0.0133128
0.0133143
0.0133156
0.0133166
0.0133173
0.0133179
0.0133182
0.0133184
0.0133124
0.0133145
0.0133175
0.0133211
0.0133251
0.0133294
0.0133338
0.0133382
0.0133426
0.0133469
0.013351
0.0133548
0.0133584
0.0133617
0.0133648
0.0133675
0.0133699
0.013372
0.0133739
0.0133755
0.0133768
0.0133779
0.0133788
0.0133794
0.0133799
0.0133802
0.0133804
0.013374
0.0133759
0.0133784
0.0133815
0.013385
0.0133887
0.0133926
0.0133965
0.0134003
0.013404
0.0134075
0.0134109
0.013414
0.0134169
0.0134195
0.0134218
0.013424
0.0134258
0.0134274
0.0134288
0.01343
0.0134309
0.0134317
0.0134322
0.0134327
0.0134329
0.013433
0.0134264
0.013428
0.0134302
0.0134329
0.0134359
0.0134392
0.0134425
0.0134459
0.0134492
0.0134524
0.0134555
0.0134583
0.013461
0.0134635
0.0134658
0.0134678
0.0134697
0.0134713
0.0134727
0.0134739
0.0134749
0.0134757
0.0134763
0.0134768
0.0134772
0.0134774
0.0134775
0.0134707
0.0134721
0.013474
0.0134763
0.0134789
0.0134817
0.0134846
0.0134875
0.0134904
0.0134932
0.0134958
0.0134983
0.0135007
0.0135028
0.0135048
0.0135065
0.0135081
0.0135095
0.0135107
0.0135117
0.0135126
0.0135133
0.0135139
0.0135143
0.0135146
0.0135148
0.0135149
0.0135079
0.0135091
0.0135108
0.0135128
0.0135151
0.0135175
0.01352
0.0135225
0.013525
0.0135274
0.0135297
0.0135318
0.0135339
0.0135357
0.0135374
0.013539
0.0135403
0.0135415
0.0135426
0.0135435
0.0135442
0.0135448
0.0135453
0.0135457
0.013546
0.0135461
0.0135462
0.0135392
0.0135402
0.0135417
0.0135434
0.0135454
0.0135475
0.0135497
0.0135518
0.013554
0.0135561
0.0135581
0.0135599
0.0135617
0.0135633
0.0135648
0.0135661
0.0135673
0.0135684
0.0135693
0.01357
0.0135707
0.0135712
0.0135717
0.013572
0.0135722
0.0135724
0.0135724
0.0135655
0.0135664
0.0135677
0.0135692
0.0135709
0.0135727
0.0135746
0.0135765
0.0135784
0.0135802
0.013582
0.0135836
0.0135852
0.0135866
0.0135879
0.0135891
0.0135901
0.013591
0.0135918
0.0135925
0.0135931
0.0135936
0.0135939
0.0135942
0.0135944
0.0135946
0.0135946
0.0135879
0.0135887
0.0135898
0.0135911
0.0135927
0.0135943
0.013596
0.0135977
0.0135993
0.013601
0.0136025
0.013604
0.0136054
0.0136066
0.0136078
0.0136088
0.0136097
0.0136106
0.0136113
0.0136119
0.0136124
0.0136128
0.0136132
0.0136134
0.0136136
0.0136137
0.0136138
0.0136073
0.0136081
0.0136091
0.0136103
0.0136117
0.0136132
0.0136147
0.0136162
0.0136178
0.0136193
0.0136207
0.013622
0.0136233
0.0136244
0.0136255
0.0136265
0.0136273
0.0136281
0.0136287
0.0136293
0.0136298
0.0136302
0.0136305
0.0136307
0.0136309
0.013631
0.013631
0.013625
0.0136257
0.0136267
0.0136278
0.0136291
0.0136305
0.0136319
0.0136334
0.0136348
0.0136362
0.0136376
0.0136389
0.0136401
0.0136412
0.0136422
0.0136431
0.0136439
0.0136446
0.0136453
0.0136458
0.0136463
0.0136466
0.0136469
0.0136472
0.0136473
0.0136474
0.0136475
0.0136421
0.0136428
0.0136437
0.0136448
0.0136461
0.0136475
0.0136489
0.0136503
0.0136517
0.0136531
0.0136545
0.0136557
0.0136569
0.013658
0.013659
0.01366
0.0136608
0.0136615
0.0136621
0.0136627
0.0136631
0.0136635
0.0136638
0.013664
0.0136642
0.0136643
0.0136644
0.0136597
0.0136604
0.0136614
0.0136625
0.0136639
0.0136653
0.0136667
0.0136682
0.0136697
0.0136712
0.0136726
0.0136739
0.0136751
0.0136763
0.0136774
0.0136783
0.0136792
0.01368
0.0136806
0.0136812
0.0136817
0.0136821
0.0136824
0.0136826
0.0136828
0.0136829
0.013683
0.0136793
0.0136801
0.0136811
0.0136824
0.0136838
0.0136853
0.0136869
0.0136886
0.0136902
0.0136918
0.0136933
0.0136947
0.0136961
0.0136974
0.0136986
0.0136996
0.0137006
0.0137014
0.0137022
0.0137028
0.0137033
0.0137038
0.0137041
0.0137044
0.0137046
0.0137047
0.0137048
0.0137023
0.0137031
0.0137043
0.0137057
0.0137073
0.0137091
0.0137109
0.0137128
0.0137146
0.0137164
0.0137181
0.0137198
0.0137214
0.0137228
0.0137242
0.0137254
0.0137265
0.0137275
0.0137283
0.013729
0.0137297
0.0137302
0.0137306
0.0137309
0.0137311
0.0137312
0.0137313
0.0137302
0.0137312
0.0137326
0.0137343
0.0137361
0.0137382
0.0137403
0.0137425
0.0137446
0.0137468
0.0137488
0.0137508
0.0137526
0.0137543
0.0137559
0.0137573
0.0137586
0.0137598
0.0137608
0.0137616
0.0137624
0.013763
0.0137634
0.0137638
0.0137641
0.0137643
0.0137643
0.0137649
0.0137661
0.0137677
0.0137697
0.013772
0.0137744
0.0137769
0.0137795
0.0137821
0.0137846
0.0137871
0.0137894
0.0137916
0.0137937
0.0137956
0.0137973
0.0137988
0.0138002
0.0138014
0.0138025
0.0138033
0.0138041
0.0138046
0.0138051
0.0138054
0.0138056
0.0138057
0.0138082
0.0138096
0.0138116
0.013814
0.0138167
0.0138197
0.0138227
0.0138258
0.013829
0.013832
0.013835
0.0138378
0.0138405
0.013843
0.0138452
0.0138473
0.0138492
0.0138509
0.0138523
0.0138536
0.0138546
0.0138555
0.0138562
0.0138567
0.0138571
0.0138574
0.0138575
0.0138622
0.0138639
0.0138663
0.0138692
0.0138725
0.013876
0.0138798
0.0138835
0.0138873
0.013891
0.0138946
0.013898
0.0139012
0.0139043
0.013907
0.0139095
0.0139118
0.0139138
0.0139156
0.0139171
0.0139184
0.0139194
0.0139203
0.0139209
0.0139214
0.0139217
0.0139218
0.0139291
0.0139312
0.013934
0.0139375
0.0139415
0.0139458
0.0139503
0.0139548
0.0139594
0.0139639
0.0139682
0.0139723
0.0139762
0.0139798
0.0139832
0.0139862
0.013989
0.0139914
0.0139935
0.0139953
0.0139969
0.0139982
0.0139992
0.014
0.0140005
0.0140009
0.0140011
0.0140111
0.0140136
0.014017
0.0140212
0.014026
0.0140311
0.0140365
0.014042
0.0140475
0.0140528
0.014058
0.014063
0.0140677
0.014072
0.014076
0.0140797
0.014083
0.0140859
0.0140884
0.0140906
0.0140925
0.014094
0.0140952
0.0140962
0.0140968
0.0140973
0.0140975
0.0141104
0.0141134
0.0141175
0.0141226
0.0141282
0.0141344
0.0141408
0.0141473
0.0141538
0.0141602
0.0141664
0.0141723
0.0141778
0.014183
0.0141878
0.0141921
0.014196
0.0141995
0.0142025
0.0142051
0.0142073
0.0142091
0.0142106
0.0142117
0.0142125
0.014213
0.0142132
0.0142293
0.0142328
0.0142377
0.0142436
0.0142503
0.0142575
0.0142651
0.0142728
0.0142805
0.014288
0.0142953
0.0143022
0.0143088
0.0143148
0.0143204
0.0143255
0.0143301
0.0143342
0.0143377
0.0143408
0.0143433
0.0143455
0.0143472
0.0143485
0.0143494
0.01435
0.0143503
0.0143696
0.0143737
0.0143793
0.0143862
0.014394
0.0144025
0.0144112
0.0144202
0.0144291
0.0144379
0.0144463
0.0144544
0.014462
0.0144691
0.0144755
0.0144814
0.0144868
0.0144915
0.0144956
0.0144991
0.0145021
0.0145046
0.0145066
0.0145081
0.0145092
0.0145098
0.0145102
0.0145325
0.0145372
0.0145437
0.0145516
0.0145606
0.0145702
0.0145803
0.0145906
0.0146008
0.0146109
0.0146205
0.0146298
0.0146385
0.0146465
0.0146539
0.0146607
0.0146668
0.0146721
0.0146768
0.0146809
0.0146843
0.0146871
0.0146894
0.0146911
0.0146923
0.0146931
0.0146935
0.0147184
0.0147238
0.0147311
0.0147401
0.0147502
0.0147611
0.0147725
0.0147841
0.0147956
0.0148069
0.0148179
0.0148282
0.014838
0.0148471
0.0148554
0.014863
0.0148698
0.0148758
0.0148811
0.0148856
0.0148895
0.0148926
0.0148952
0.0148971
0.0148985
0.0148994
0.0148998
0.0149268
0.0149327
0.0149409
0.0149509
0.0149621
0.0149742
0.0149868
0.0149996
0.0150124
0.0150249
0.0150369
0.0150484
0.0150591
0.0150691
0.0150783
0.0150867
0.0150942
0.0151008
0.0151066
0.0151116
0.0151158
0.0151193
0.015122
0.0151242
0.0151257
0.0151267
0.0151271
0.0151554
0.0151618
0.0151707
0.0151815
0.0151937
0.0152068
0.0152205
0.0152344
0.0152482
0.0152617
0.0152747
0.015287
0.0152987
0.0153094
0.0153193
0.0153283
0.0153364
0.0153435
0.0153497
0.0153551
0.0153596
0.0153633
0.0153663
0.0153686
0.0153702
0.0153713
0.0153718
0.0154003
0.0154071
0.0154165
0.0154279
0.0154408
0.0154547
0.0154691
0.0154838
0.0154983
0.0155125
0.0155262
0.0155392
0.0155515
0.0155628
0.0155732
0.0155826
0.015591
0.0155985
0.015605
0.0156106
0.0156154
0.0156192
0.0156224
0.0156247
0.0156264
0.0156275
0.015628
0.0156555
0.0156625
0.0156722
0.015684
0.0156972
0.0157115
0.0157263
0.0157413
0.0157562
0.0157708
0.0157848
0.0157981
0.0158105
0.0158221
0.0158327
0.0158422
0.0158508
0.0158584
0.015865
0.0158707
0.0158755
0.0158795
0.0158826
0.015885
0.0158867
0.0158878
0.0158884
0.0159135
0.0159205
0.0159302
0.0159419
0.0159551
0.0159693
0.015984
0.0159989
0.0160137
0.0160281
0.0160419
0.016055
0.0160673
0.0160787
0.0160891
0.0160985
0.0161069
0.0161144
0.0161209
0.0161264
0.0161311
0.016135
0.0161381
0.0161404
0.0161421
0.0161432
0.0161437
0.0161654
0.0161721
0.0161814
0.0161927
0.0162054
0.0162189
0.016233
0.0162473
0.0162614
0.0162751
0.0162882
0.0163007
0.0163123
0.0163231
0.016333
0.0163419
0.0163498
0.0163568
0.016363
0.0163682
0.0163726
0.0163762
0.0163791
0.0163813
0.0163829
0.0163839
0.0163844
0.0164019
0.0164082
0.0164167
0.0164271
0.0164387
0.0164512
0.0164641
0.0164771
0.01649
0.0165025
0.0165145
0.0165258
0.0165364
0.0165462
0.0165551
0.0165631
0.0165703
0.0165766
0.0165821
0.0165868
0.0165908
0.016594
0.0165966
0.0165986
0.0166
0.0166009
0.0166014
0.0166145
0.01662
0.0166275
0.0166366
0.0166468
0.0166577
0.016669
0.0166803
0.0166915
0.0167024
0.0167128
0.0167226
0.0167317
0.0167401
0.0167477
0.0167546
0.0167608
0.0167662
0.0167709
0.0167749
0.0167783
0.0167811
0.0167833
0.016785
0.0167862
0.0167869
0.0167873
0.0167964
0.016801
0.0168073
0.0168148
0.0168233
0.0168323
0.0168416
0.016851
0.0168602
0.0168691
0.0168776
0.0168856
0.016893
0.0168998
0.016906
0.0169116
0.0169166
0.016921
0.0169248
0.016928
0.0169307
0.0169329
0.0169347
0.0169361
0.016937
0.0169376
0.0169379
0.0169438
0.0169474
0.0169523
0.0169582
0.0169648
0.0169719
0.0169791
0.0169863
0.0169934
0.0170003
0.0170068
0.0170129
0.0170186
0.0170238
0.0170285
0.0170328
0.0170365
0.0170398
0.0170427
0.0170451
0.0170472
0.0170489
0.0170502
0.0170512
0.0170519
0.0170524
0.0170526
0.0170563
0.0170589
0.0170625
0.0170668
0.0170716
0.0170767
0.0170819
0.0170871
0.0170923
0.0170972
0.0171018
0.0171062
0.0171102
0.0171139
0.0171172
0.0171202
0.0171229
0.0171252
0.0171272
0.0171289
0.0171303
0.0171315
0.0171324
0.0171331
0.0171336
0.0171339
0.017134
0.0171366
0.0171384
0.0171408
0.0171437
0.0171469
0.0171503
0.0171538
0.0171572
0.0171606
0.0171639
0.0171669
0.0171698
0.0171724
0.0171748
0.017177
0.0171789
0.0171806
0.0171821
0.0171834
0.0171845
0.0171854
0.0171861
0.0171867
0.0171871
0.0171875
0.0171877
0.0171878
0.0171899
0.017191
0.0171925
0.0171942
0.0171962
0.0171983
0.0172004
0.0172025
0.0172045
0.0172064
0.0172083
0.01721
0.0172115
0.0172129
0.0172142
0.0172154
0.0172164
0.0172172
0.017218
0.0172186
0.0172192
0.0172196
0.0172199
0.0172202
0.0172204
0.0172205
0.0172205
0.0172226
0.0172232
0.017224
0.0172249
0.017226
0.0172271
0.0172283
0.0172294
0.0172305
0.0172316
0.0172326
0.0172335
0.0172343
0.017235
0.0172357
0.0172363
0.0172369
0.0172373
0.0172377
0.017238
0.0172383
0.0172386
0.0172387
0.0172389
0.017239
0.017239
0.0172391
0.017241
0.0172413
0.0172417
0.0172421
0.0172426
0.0172432
0.0172437
0.0172442
0.0172447
0.0172452
0.0172457
0.0172461
0.0172465
0.0172469
0.0172472
0.0172475
0.0172477
0.0172479
0.0172481
0.0172483
0.0172484
0.0172485
0.0172486
0.0172486
0.0172487
0.0172487
0.0172487
0.0172505
0.0172506
0.0172507
0.0172509
0.0172511
0.0172513
0.0172515
0.0172517
0.0172519
0.0172521
0.0172523
0.0172525
0.0172526
0.0172528
0.0172529
0.017253
0.0172531
0.0172532
0.0172533
0.0172534
0.0172534
0.0172535
0.0172535
0.0172535
0.0172536
0.0172536
0.0172536
0.017255
0.017255
0.017255
0.0172551
0.0172551
0.0172552
0.0172553
0.0172554
0.0172554
0.0172555
0.0172556
0.0172556
0.0172557
0.0172558
0.0172558
0.0172559
0.0172559
0.017256
0.017256
0.017256
0.0172561
0.0172561
0.0172561
0.0172561
0.0172561
0.0172562
0.0172562
0.0172571
0.0172571
0.0172571
0.0172571
0.0172571
0.0172572
0.0172572
0.0172572
0.0172573
0.0172573
0.0172574
0.0172574
0.0172575
0.0172575
0.0172576
0.0172576
0.0172576
0.0172577
0.0172577
0.0172577
0.0172578
0.0172578
0.0172578
0.0172578
0.0172578
0.0172578
0.0172578
0.0172583
0.0172583
0.0172583
0.0172583
0.0172584
0.0172584
0.0172585
0.0172585
0.0172586
0.0172586
0.0172587
0.0172587
0.0172588
0.0172588
0.0172589
0.017259
0.017259
0.017259
0.0172591
0.0172591
0.0172592
0.0172592
0.0172592
0.0172592
0.0172592
0.0172592
0.0172592
0.0172593
0.0172593
0.0172593
0.0172594
0.0172594
0.0172595
0.0172596
0.0172596
0.0172597
0.0172598
0.0172599
0.0172599
0.01726
0.0172601
0.0172602
0.0172602
0.0172603
0.0172603
0.0172604
0.0172604
0.0172604
0.0172605
0.0172605
0.0172605
0.0172605
0.0172605
0.0172605
0.0172603
0.0172603
0.0172604
0.0172604
0.0172605
0.0172606
0.0172607
0.0172608
0.0172609
0.0172609
0.017261
0.0172611
0.0172612
0.0172613
0.0172613
0.0172614
0.0172615
0.0172615
0.0172616
0.0172616
0.0172616
0.0172617
0.0172617
0.0172617
0.0172617
0.0172617
0.0172617
0.0172613
0.0172614
0.0172614
0.0172615
0.0172616
0.0172617
0.0172618
0.0172619
0.0172619
0.017262
0.0172621
0.0172622
0.0172623
0.0172624
0.0172624
0.0172625
0.0172626
0.0172626
0.0172627
0.0172627
0.0172627
0.0172628
0.0172628
0.0172628
0.0172628
0.0172628
0.0172628