/*--------------------------------*- C++ -*----------------------------------*\
| =========                 |                                                 |
| \\      /  F ield         | OpenFOAM: The Open Source CFD Toolbox           |
|  \\    /   O peration     | Version:  2106                                  |
|   \\  /    A nd           | Website:  www.openfoam.com                      |
|    \\/     M anipulation  |                                                 |
\*---------------------------------------------------------------------------*/
FoamFile
{
    version     2.0;
    format      ascii;
    arch        "LSB;label=32;scalar=64";
    class       volScalarField;
    location    "90.00055";
    object      C9H7;
}
// * * * * * * * * * * * * * * * * * * * * * * * * * * * * * * * * * * * * * //

dimensions      [0 0 0 0 0 0 0];

internalField   nonuniform List<scalar> 
3360
(
1.26292e-20
1.30357e-20
1.36013e-20
1.42933e-20
1.50826e-20
1.59435e-20
1.68526e-20
1.77886e-20
1.87329e-20
1.96689e-20
2.05821e-20
2.14603e-20
2.22935e-20
2.30736e-20
2.37945e-20
2.44519e-20
2.50433e-20
2.55674e-20
2.60245e-20
2.6416e-20
2.67442e-20
2.70122e-20
2.72239e-20
2.73836e-20
2.7496e-20
2.75659e-20
2.75983e-20
5.5412e-20
5.74493e-20
6.03241e-20
6.39041e-20
6.80797e-20
7.27553e-20
7.78453e-20
8.32716e-20
8.89615e-20
9.48461e-20
1.00859e-19
1.06937e-19
1.13017e-19
1.19035e-19
1.2493e-19
1.30642e-19
1.36111e-19
1.41281e-19
1.46096e-19
1.50504e-19
1.54459e-19
1.57917e-19
1.60845e-19
1.63213e-19
1.64999e-19
1.66193e-19
1.66788e-19
1.73908e-19
1.81543e-19
1.92392e-19
2.06024e-19
2.22083e-19
2.40248e-19
2.60213e-19
2.81677e-19
3.04337e-19
3.27881e-19
3.51992e-19
3.76354e-19
4.00655e-19
4.24588e-19
4.47852e-19
4.70166e-19
4.91267e-19
5.1092e-19
5.28921e-19
5.45101e-19
5.59329e-19
5.71513e-19
5.81599e-19
5.89572e-19
5.95449e-19
5.99282e-19
6.01148e-19
5.06657e-19
5.31831e-19
5.67842e-19
6.13405e-19
6.6744e-19
7.28941e-19
7.96898e-19
8.70268e-19
9.47952e-19
1.0288e-18
1.11162e-18
1.1952e-18
1.27833e-18
1.35985e-18
1.43864e-18
1.51368e-18
1.58407e-18
1.64904e-18
1.70796e-18
1.76038e-18
1.80599e-18
1.84463e-18
1.87628e-18
1.90103e-18
1.91909e-18
1.93076e-18
1.93638e-18
1.48088e-18
1.56033e-18
1.6742e-18
1.8186e-18
1.99023e-18
2.18593e-18
2.40242e-18
2.63626e-18
2.88377e-18
3.14105e-18
3.4041e-18
3.66886e-18
3.93135e-18
4.18779e-18
4.43467e-18
4.66882e-18
4.88754e-18
5.08859e-18
5.27022e-18
5.4312e-18
5.57077e-18
5.68862e-18
5.78485e-18
5.8599e-18
5.91453e-18
5.94972e-18
5.96666e-18
4.3686e-18
4.61271e-18
4.96301e-18
5.40762e-18
5.93638e-18
6.53943e-18
7.20659e-18
7.92698e-18
8.68903e-18
9.48052e-18
1.02889e-17
1.11014e-17
1.19059e-17
1.26905e-17
1.34445e-17
1.41584e-17
1.4824e-17
1.54347e-17
1.59855e-17
1.64727e-17
1.68945e-17
1.72501e-17
1.75399e-17
1.77657e-17
1.79298e-17
1.80355e-17
1.80862e-17
1.29833e-17
1.37254e-17
1.47903e-17
1.61419e-17
1.77493e-17
1.95822e-17
2.1609e-17
2.37963e-17
2.61085e-17
2.8508e-17
3.09564e-17
3.34152e-17
3.5847e-17
3.82167e-17
4.04918e-17
4.26439e-17
4.46489e-17
4.64872e-17
4.81439e-17
4.96089e-17
5.08762e-17
5.19442e-17
5.28146e-17
5.34923e-17
5.39849e-17
5.43018e-17
5.44541e-17
3.87161e-17
4.09502e-17
4.41578e-17
4.82307e-17
5.30753e-17
5.86003e-17
6.47104e-17
7.1304e-17
7.82728e-17
8.55032e-17
9.28787e-17
1.00283e-16
1.07604e-16
1.14734e-16
1.21577e-16
1.28047e-16
1.34072e-16
1.39594e-16
1.44568e-16
1.48965e-16
1.52767e-16
1.55969e-16
1.58578e-16
1.60609e-16
1.62084e-16
1.63033e-16
1.63489e-16
1.15759e-16
1.22477e-16
1.32121e-16
1.44364e-16
1.58926e-16
1.7553e-16
1.93888e-16
2.13693e-16
2.34619e-16
2.56323e-16
2.78455e-16
3.00667e-16
3.22619e-16
3.43994e-16
3.64502e-16
3.83888e-16
4.01937e-16
4.18475e-16
4.3337e-16
4.46534e-16
4.57916e-16
4.67504e-16
4.75314e-16
4.81393e-16
4.8581e-16
4.8865e-16
4.90015e-16
3.46159e-16
3.66293e-16
3.952e-16
4.31903e-16
4.75557e-16
5.25332e-16
5.80364e-16
6.3973e-16
7.02449e-16
7.67493e-16
8.33811e-16
9.00355e-16
9.6611e-16
1.03012e-15
1.09153e-15
1.14957e-15
1.20358e-15
1.25307e-15
1.29763e-15
1.337e-15
1.37104e-15
1.3997e-15
1.42304e-15
1.44121e-15
1.4544e-15
1.46289e-15
1.46696e-15
1.03573e-15
1.09605e-15
1.18263e-15
1.29255e-15
1.42325e-15
1.57224e-15
1.73693e-15
1.91455e-15
2.10213e-15
2.29661e-15
2.49484e-15
2.69369e-15
2.89012e-15
3.08129e-15
3.26463e-15
3.43786e-15
3.59906e-15
3.74671e-15
3.87964e-15
3.99707e-15
4.09858e-15
4.18405e-15
4.25366e-15
4.30782e-15
4.34716e-15
4.37245e-15
4.3846e-15
3.09646e-15
3.27671e-15
3.53544e-15
3.86384e-15
4.25428e-15
4.69927e-15
5.191e-15
5.72116e-15
6.28092e-15
6.86107e-15
7.4522e-15
8.04497e-15
8.63033e-15
9.19984e-15
9.74579e-15
1.02615e-14
1.07412e-14
1.11804e-14
1.15757e-14
1.19248e-14
1.22265e-14
1.24805e-14
1.26872e-14
1.2848e-14
1.29648e-14
1.30399e-14
1.3076e-14
9.24946e-15
9.78727e-15
1.05589e-14
1.1538e-14
1.27015e-14
1.40268e-14
1.54906e-14
1.70678e-14
1.8732e-14
2.04558e-14
2.2211e-14
2.39701e-14
2.57061e-14
2.73941e-14
2.90114e-14
3.05381e-14
3.19577e-14
3.32569e-14
3.44256e-14
3.54574e-14
3.63487e-14
3.70987e-14
3.77091e-14
3.81838e-14
3.85285e-14
3.875e-14
3.88564e-14
2.75609e-14
2.91586e-14
3.14503e-14
3.43565e-14
3.78081e-14
4.17372e-14
4.60734e-14
5.0742e-14
5.56642e-14
6.07579e-14
6.59402e-14
7.11289e-14
7.62452e-14
8.12155e-14
8.59735e-14
9.04614e-14
9.4631e-14
9.84439e-14
1.01872e-13
1.04896e-13
1.07506e-13
1.09701e-13
1.11487e-13
1.12875e-13
1.13883e-13
1.1453e-13
1.14841e-13
8.18801e-14
8.66019e-14
9.33701e-14
1.01946e-13
1.12121e-13
1.2369e-13
1.36443e-13
1.50155e-13
1.64592e-13
1.79511e-13
1.94669e-13
2.09824e-13
2.24746e-13
2.39224e-13
2.53065e-13
2.66105e-13
2.78206e-13
2.89259e-13
2.99186e-13
3.07935e-13
3.15481e-13
3.21822e-13
3.26977e-13
3.30982e-13
3.33886e-13
3.35751e-13
3.36646e-13
2.42069e-13
2.55894e-13
2.75692e-13
3.00749e-13
3.30436e-13
3.64141e-13
4.01228e-13
4.41034e-13
4.82866e-13
5.26014e-13
5.69766e-13
6.13427e-13
6.56337e-13
6.97891e-13
7.37547e-13
7.74842e-13
8.09393e-13
8.40906e-13
8.69164e-13
8.94036e-13
9.15461e-13
9.33444e-13
9.48047e-13
9.5938e-13
9.67592e-13
9.72862e-13
9.75389e-13
7.11374e-13
7.51337e-13
8.08489e-13
8.80696e-13
9.66074e-13
1.06278e-12
1.16893e-12
1.28257e-12
1.40167e-12
1.52418e-12
1.64807e-12
1.77136e-12
1.89222e-12
2.00895e-12
2.12008e-12
2.22435e-12
2.32074e-12
2.40846e-12
2.48697e-12
2.55595e-12
2.61528e-12
2.66499e-12
2.70531e-12
2.73656e-12
2.75918e-12
2.77368e-12
2.78063e-12
2.07523e-12
2.18865e-12
2.35057e-12
2.55463e-12
2.79522e-12
3.06687e-12
3.36402e-12
3.68098e-12
4.01196e-12
4.35116e-12
4.69291e-12
5.03179e-12
5.36281e-12
5.68147e-12
5.98385e-12
6.2667e-12
6.52741e-12
6.76407e-12
6.97536e-12
7.16057e-12
7.31952e-12
7.45248e-12
7.56012e-12
7.64342e-12
7.70364e-12
7.74219e-12
7.76065e-12
6.00591e-12
6.32012e-12
6.76745e-12
7.32932e-12
7.98915e-12
8.73087e-12
9.53844e-12
1.03957e-11
1.12864e-11
1.21948e-11
1.31057e-11
1.40046e-11
1.48788e-11
1.57167e-11
1.65086e-11
1.72465e-11
1.79244e-11
1.85376e-11
1.90835e-11
1.95607e-11
1.99692e-11
2.03102e-11
2.05857e-11
2.07986e-11
2.09522e-11
2.10504e-11
2.10974e-11
1.72535e-11
1.80974e-11
1.92947e-11
2.07917e-11
2.25403e-11
2.44945e-11
2.6609e-11
2.88394e-11
3.11422e-11
3.34758e-11
3.58012e-11
3.80827e-11
4.02888e-11
4.2392e-11
4.43699e-11
4.62045e-11
4.78824e-11
4.93945e-11
5.07358e-11
5.19046e-11
5.29023e-11
5.37329e-11
5.44025e-11
5.49188e-11
5.52908e-11
5.55283e-11
5.56417e-11
4.93482e-11
5.15375e-11
5.46287e-11
5.84706e-11
6.29271e-11
6.78697e-11
7.31749e-11
7.87249e-11
8.4408e-11
9.01206e-11
9.57686e-11
1.01268e-10
1.06548e-10
1.11549e-10
1.16222e-10
1.20531e-10
1.24452e-10
1.27969e-10
1.31075e-10
1.33771e-10
1.36064e-10
1.37968e-10
1.39499e-10
1.40676e-10
1.41523e-10
1.42063e-10
1.4232e-10
1.4136e-10
1.46866e-10
1.54596e-10
1.64132e-10
1.75097e-10
1.87143e-10
1.99944e-10
2.13198e-10
2.26631e-10
2.39996e-10
2.5308e-10
2.65701e-10
2.77708e-10
2.88982e-10
2.99436e-10
3.09006e-10
3.17654e-10
3.25363e-10
3.32134e-10
3.37983e-10
3.42936e-10
3.47032e-10
3.50314e-10
3.52832e-10
3.54638e-10
3.55787e-10
3.56334e-10
4.09047e-10
4.22807e-10
4.42006e-10
4.65502e-10
4.92274e-10
5.21386e-10
5.51992e-10
5.83333e-10
6.14744e-10
6.45654e-10
6.75588e-10
7.0416e-10
7.31073e-10
7.56105e-10
7.79107e-10
7.99989e-10
8.18712e-10
8.35283e-10
8.4974e-10
8.62151e-10
8.72605e-10
8.81205e-10
8.88065e-10
8.93306e-10
8.97052e-10
8.99428e-10
9.00556e-10
1.20739e-09
1.24376e-09
1.29432e-09
1.35591e-09
1.42571e-09
1.50119e-09
1.58008e-09
1.66041e-09
1.74047e-09
1.81884e-09
1.89437e-09
1.96615e-09
2.03348e-09
2.09587e-09
2.15301e-09
2.20471e-09
2.25094e-09
2.29174e-09
2.32724e-09
2.35763e-09
2.38317e-09
2.40412e-09
2.42079e-09
2.43349e-09
2.44254e-09
2.44826e-09
2.45097e-09
3.67945e-09
3.79117e-09
3.94689e-09
4.13728e-09
4.35404e-09
4.58973e-09
4.83768e-09
5.092e-09
5.34754e-09
5.59989e-09
5.84533e-09
6.08079e-09
6.30376e-09
6.51231e-09
6.705e-09
6.88081e-09
7.03915e-09
7.17982e-09
7.3029e-09
7.40878e-09
7.49806e-09
7.57154e-09
7.63012e-09
7.67484e-09
7.70675e-09
7.72694e-09
7.7365e-09
1.17915e-08
1.22094e-08
1.27964e-08
1.35211e-08
1.43555e-08
1.52735e-08
1.62506e-08
1.72637e-08
1.82913e-08
1.93139e-08
2.0314e-08
2.12768e-08
2.21899e-08
2.30437e-08
2.38312e-08
2.45476e-08
2.51903e-08
2.57586e-08
2.62534e-08
2.66766e-08
2.70315e-08
2.73217e-08
2.75516e-08
2.77259e-08
2.78494e-08
2.79269e-08
2.79634e-08
4.01933e-08
4.19384e-08
4.44059e-08
4.74782e-08
5.10503e-08
5.50231e-08
5.93013e-08
6.37931e-08
6.84106e-08
7.30698e-08
7.76926e-08
8.2208e-08
8.65534e-08
9.06755e-08
9.45307e-08
9.80851e-08
1.01315e-07
1.04204e-07
1.06746e-07
1.08942e-07
1.10799e-07
1.12329e-07
1.13548e-07
1.14478e-07
1.15139e-07
1.15555e-07
1.15752e-07
1.40974e-07
1.48498e-07
1.59259e-07
1.72864e-07
1.88969e-07
2.07247e-07
2.27368e-07
2.4899e-07
2.71758e-07
2.95309e-07
3.19278e-07
3.433e-07
3.67028e-07
3.90132e-07
4.12313e-07
4.33303e-07
4.52875e-07
4.70839e-07
4.8705e-07
5.01405e-07
5.13839e-07
5.2433e-07
5.32888e-07
5.39557e-07
5.44405e-07
5.47524e-07
5.49023e-07
5.01126e-07
5.33202e-07
5.79667e-07
6.39373e-07
7.11433e-07
7.95014e-07
8.89224e-07
9.93043e-07
1.10529e-06
1.2246e-06
1.34945e-06
1.47817e-06
1.60897e-06
1.74002e-06
1.86945e-06
1.99564e-06
2.11682e-06
2.23136e-06
2.33776e-06
2.43471e-06
2.52109e-06
2.59589e-06
2.6585e-06
2.70852e-06
2.7458e-06
2.77038e-06
2.78248e-06
1.78795e-06
1.91457e-06
2.10014e-06
2.34154e-06
2.63695e-06
2.98485e-06
3.3834e-06
3.83012e-06
4.32159e-06
4.85318e-06
5.41907e-06
6.01237e-06
6.62519e-06
7.2489e-06
7.87432e-06
8.49202e-06
9.09256e-06
9.66682e-06
1.02062e-05
1.07029e-05
1.115e-05
1.15417e-05
1.18728e-05
1.21404e-05
1.23419e-05
1.24762e-05
1.2543e-05
6.3197e-06
6.76091e-06
7.40591e-06
8.24443e-06
9.27007e-06
1.04769e-05
1.18573e-05
1.3401e-05
1.50939e-05
1.69179e-05
1.88509e-05
2.08674e-05
2.29389e-05
2.50347e-05
2.71233e-05
2.91731e-05
3.1153e-05
3.30341e-05
3.47894e-05
3.63941e-05
3.78291e-05
3.90776e-05
4.01275e-05
4.09708e-05
4.1603e-05
4.20224e-05
4.22302e-05
2.07724e-05
2.20008e-05
2.37808e-05
2.6068e-05
2.88271e-05
3.20233e-05
3.56178e-05
3.95656e-05
4.38143e-05
4.83046e-05
5.29709e-05
5.77433e-05
6.25497e-05
6.73179e-05
7.19824e-05
7.64823e-05
8.07613e-05
8.47659e-05
8.84528e-05
9.17865e-05
9.47372e-05
9.72822e-05
9.9406e-05
0.0001011
0.000102362
0.000103194
0.000103604
5.75694e-05
6.01552e-05
6.38541e-05
6.85291e-05
7.40602e-05
8.03311e-05
8.72236e-05
9.46267e-05
0.000102423
0.000110493
0.000118713
0.000126965
0.000135132
0.000143101
0.000150773
0.000158063
0.000164896
0.000171208
0.00017695
0.000182082
0.000186574
0.000190411
0.000193583
0.000196091
0.000197945
0.00019916
0.000199755
0.000128531
0.000132696
0.000138596
0.000145958
0.000154544
0.000164112
0.000174451
0.000185354
0.000196625
0.000208073
0.000219523
0.000230813
0.000241797
0.000252348
0.000262356
0.000271732
0.000280402
0.000288311
0.000295419
0.000301702
0.000307145
0.000311749
0.000315522
0.00031848
0.00032065
0.000322062
0.000322748
0.000237698
0.000243174
0.00025086
0.000260339
0.000271244
0.000283235
0.000296002
0.00030926
0.000322747
0.000336232
0.00034951
0.000362404
0.000374764
0.000386468
0.00039742
0.000407545
0.000416793
0.000425129
0.000432537
0.000439015
0.000444573
0.000449229
0.000453011
0.000455953
0.000458092
0.000459474
0.000460141
0.00037889
0.000385026
0.000393579
0.000404032
0.000415931
0.000428863
0.00044246
0.000456398
0.000470391
0.000484196
0.000497609
0.000510464
0.00052263
0.000534005
0.000544518
0.000554123
0.000562794
0.000570523
0.000577319
0.0005832
0.000588195
0.000592341
0.000595678
0.000598252
0.000600111
0.0006013
0.000601871
0.000539555
0.000545648
0.000554093
0.000564342
0.000575909
0.000588363
0.000601326
0.000614473
0.000627529
0.000640267
0.000652505
0.000664103
0.000674956
0.000684991
0.000694165
0.000702455
0.000709858
0.000716389
0.00072207
0.000726937
0.000731029
0.000734391
0.000737071
0.000739118
0.000740582
0.000741511
0.000741952
0.000706123
0.000711651
0.00071928
0.000728486
0.000738807
0.000749837
0.000761224
0.000772675
0.000783944
0.000794837
0.000805204
0.000814934
0.000823951
0.000832206
0.000839677
0.000846361
0.000852269
0.000857427
0.000861868
0.000865633
0.000868764
0.00087131
0.000873318
0.000874835
0.000875907
0.000876581
0.000876897
0.000867553
0.000872245
0.000878698
0.000886451
0.000895097
0.000904281
0.000913701
0.000923106
0.000932293
0.000941105
0.000949422
0.000957161
0.00096427
0.000970719
0.000976501
0.000981621
0.000986102
0.000989971
0.000993266
0.000996027
0.000998296
0.00100012
0.00100153
0.00100259
0.00100333
0.00100378
0.00100399
0.00101645
0.00102024
0.00102544
0.00103166
0.00103857
0.00104587
0.00105332
0.00106071
0.00106788
0.00107471
0.00108111
0.00108702
0.00109239
0.00109722
0.00110151
0.00110527
0.00110852
0.00111129
0.00111362
0.00111555
0.00111711
0.00111834
0.00111928
0.00111996
0.00112043
0.00112072
0.00112084
0.00114871
0.00115166
0.00115568
0.00116049
0.0011658
0.00117139
0.00117706
0.00118266
0.00118805
0.00119315
0.00119789
0.00120222
0.00120613
0.00120961
0.00121266
0.00121529
0.00121754
0.00121943
0.00122098
0.00122224
0.00122324
0.001224
0.00122457
0.00122498
0.00122524
0.00122539
0.00122546
0.00126258
0.00126479
0.0012678
0.00127137
0.00127531
0.00127944
0.0012836
0.00128767
0.00129157
0.00129523
0.00129859
0.00130163
0.00130434
0.00130672
0.00130876
0.0013105
0.00131195
0.00131313
0.00131408
0.00131482
0.00131538
0.00131579
0.00131608
0.00131627
0.00131638
0.00131643
0.00131645
0.00135785
0.00135944
0.00136159
0.00136414
0.00136693
0.00136983
0.00137274
0.00137556
0.00137823
0.0013807
0.00138294
0.00138493
0.00138667
0.00138816
0.00138941
0.00139043
0.00139125
0.00139188
0.00139235
0.00139269
0.00139292
0.00139305
0.00139312
0.00139315
0.00139314
0.00139312
0.00139311
0.0014352
0.00143627
0.00143771
0.00143941
0.00144125
0.00144315
0.00144503
0.00144682
0.00144848
0.00144998
0.00145131
0.00145245
0.00145341
0.00145418
0.00145478
0.00145523
0.00145555
0.00145575
0.00145585
0.00145587
0.00145583
0.00145576
0.00145566
0.00145556
0.00145547
0.00145539
0.00145535
0.00149581
0.00149645
0.00149731
0.0014983
0.00149936
0.00150043
0.00150146
0.0015024
0.00150323
0.00150395
0.00150453
0.00150497
0.00150529
0.00150548
0.00150556
0.00150555
0.00150546
0.00150531
0.00150511
0.00150488
0.00150464
0.0015044
0.00150418
0.00150398
0.00150382
0.0015037
0.00150364
0.00154113
0.00154142
0.00154179
0.0015422
0.00154261
0.00154299
0.00154331
0.00154355
0.0015437
0.00154376
0.00154372
0.00154359
0.00154338
0.0015431
0.00154276
0.00154237
0.00154195
0.00154152
0.00154108
0.00154065
0.00154024
0.00153987
0.00153954
0.00153927
0.00153906
0.00153891
0.00153883
0.00157273
0.00157272
0.00157269
0.00157261
0.00157248
0.00157229
0.00157202
0.00157168
0.00157126
0.00157077
0.00157022
0.00156962
0.00156898
0.0015683
0.00156761
0.00156691
0.00156623
0.00156556
0.00156492
0.00156433
0.00156379
0.00156331
0.00156291
0.00156257
0.00156232
0.00156214
0.00156206
0.00159221
0.00159195
0.00159158
0.0015911
0.00159052
0.00158984
0.00158909
0.00158826
0.00158737
0.00158643
0.00158546
0.00158446
0.00158346
0.00158246
0.00158148
0.00158052
0.00157962
0.00157876
0.00157796
0.00157724
0.00157659
0.00157603
0.00157556
0.00157517
0.00157489
0.00157469
0.0015746
0.00160114
0.00160067
0.00160002
0.0015992
0.00159824
0.00159717
0.00159601
0.00159478
0.0015935
0.00159219
0.00159086
0.00158954
0.00158824
0.00158698
0.00158576
0.0015846
0.00158351
0.0015825
0.00158158
0.00158075
0.00158002
0.00157939
0.00157886
0.00157844
0.00157813
0.00157792
0.00157782
0.00160102
0.00160039
0.0015995
0.00159841
0.00159714
0.00159575
0.00159426
0.0015927
0.0015911
0.00158948
0.00158787
0.00158629
0.00158475
0.00158326
0.00158186
0.00158053
0.0015793
0.00157816
0.00157714
0.00157622
0.00157542
0.00157474
0.00157417
0.00157372
0.00157339
0.00157317
0.00157306
0.00159329
0.00159253
0.00159145
0.00159013
0.00158862
0.00158696
0.0015852
0.00158338
0.00158152
0.00157966
0.00157782
0.00157603
0.0015743
0.00157264
0.00157109
0.00156963
0.00156828
0.00156706
0.00156595
0.00156497
0.00156412
0.0015634
0.0015628
0.00156233
0.00156198
0.00156175
0.00156164
0.00157927
0.00157839
0.00157717
0.00157568
0.00157397
0.0015721
0.00157013
0.0015681
0.00156604
0.00156399
0.00156198
0.00156002
0.00155814
0.00155636
0.00155469
0.00155313
0.0015517
0.0015504
0.00154924
0.00154822
0.00154733
0.00154657
0.00154596
0.00154547
0.00154512
0.00154488
0.00154477
0.00156016
0.0015592
0.00155786
0.00155623
0.00155437
0.00155235
0.00155022
0.00154803
0.00154582
0.00154363
0.00154149
0.00153941
0.00153743
0.00153555
0.00153379
0.00153217
0.00153068
0.00152933
0.00152813
0.00152707
0.00152615
0.00152538
0.00152475
0.00152426
0.0015239
0.00152366
0.00152355
0.00153703
0.00153601
0.00153459
0.00153286
0.00153089
0.00152876
0.00152651
0.00152421
0.0015219
0.00151961
0.00151737
0.00151521
0.00151315
0.00151121
0.0015094
0.00150773
0.0015062
0.00150483
0.0015036
0.00150252
0.0015016
0.00150082
0.00150018
0.00149968
0.00149932
0.00149908
0.00149897
0.00151083
0.00150977
0.0015083
0.0015065
0.00150446
0.00150225
0.00149993
0.00149756
0.00149518
0.00149282
0.00149053
0.00148832
0.00148622
0.00148424
0.0014824
0.00148071
0.00147916
0.00147777
0.00147653
0.00147545
0.00147452
0.00147374
0.0014731
0.0014726
0.00147224
0.00147201
0.00147189
0.0014824
0.00148131
0.00147981
0.00147797
0.00147589
0.00147364
0.00147128
0.00146887
0.00146645
0.00146406
0.00146174
0.00145951
0.00145739
0.0014554
0.00145355
0.00145185
0.0014503
0.00144891
0.00144767
0.00144659
0.00144566
0.00144489
0.00144426
0.00144376
0.0014434
0.00144317
0.00144306
0.00145243
0.00145133
0.00144981
0.00144796
0.00144586
0.0014436
0.00144122
0.0014388
0.00143637
0.00143398
0.00143166
0.00142943
0.00142731
0.00142532
0.00142348
0.00142179
0.00142025
0.00141887
0.00141764
0.00141657
0.00141566
0.00141489
0.00141427
0.00141378
0.00141343
0.0014132
0.00141309
0.00142151
0.00142041
0.00141889
0.00141704
0.00141495
0.00141269
0.00141033
0.00140791
0.0014055
0.00140312
0.00140081
0.0013986
0.00139651
0.00139454
0.00139272
0.00139104
0.00138953
0.00138816
0.00138696
0.0013859
0.001385
0.00138425
0.00138364
0.00138316
0.00138282
0.00138259
0.00138249
0.00139011
0.00138903
0.00138752
0.00138569
0.00138362
0.00138138
0.00137904
0.00137666
0.00137427
0.00137193
0.00136965
0.00136747
0.00136541
0.00136347
0.00136168
0.00136004
0.00135854
0.00135721
0.00135602
0.00135499
0.00135411
0.00135337
0.00135278
0.00135231
0.00135197
0.00135176
0.00135165
0.00135861
0.00135754
0.00135606
0.00135426
0.00135222
0.00135002
0.00134772
0.00134538
0.00134303
0.00134073
0.0013385
0.00133636
0.00133433
0.00133244
0.00133068
0.00132907
0.00132762
0.00132631
0.00132515
0.00132415
0.00132329
0.00132257
0.00132198
0.00132153
0.0013212
0.00132099
0.00132089
0.0013273
0.00132625
0.00132479
0.00132303
0.00132103
0.00131887
0.00131662
0.00131433
0.00131203
0.00130978
0.00130759
0.0013055
0.00130353
0.00130167
0.00129996
0.00129839
0.00129696
0.00129569
0.00129456
0.00129358
0.00129274
0.00129204
0.00129147
0.00129103
0.00129071
0.00129051
0.00129041
0.00129635
0.00129533
0.0012939
0.00129218
0.00129022
0.00128812
0.00128592
0.00128368
0.00128144
0.00127924
0.0012771
0.00127506
0.00127313
0.00127133
0.00126965
0.00126812
0.00126673
0.00126549
0.00126439
0.00126343
0.00126262
0.00126194
0.00126138
0.00126095
0.00126064
0.00126044
0.00126034
0.0012659
0.0012649
0.00126351
0.00126182
0.00125992
0.00125786
0.00125571
0.00125352
0.00125134
0.00124919
0.00124711
0.00124512
0.00124323
0.00124147
0.00123984
0.00123834
0.00123699
0.00123578
0.0012347
0.00123377
0.00123297
0.00123231
0.00123177
0.00123135
0.00123105
0.00123085
0.00123076
0.00123598
0.00123501
0.00123365
0.001232
0.00123014
0.00122813
0.00122603
0.00122389
0.00122176
0.00121966
0.00121762
0.00121568
0.00121384
0.00121211
0.00121052
0.00120906
0.00120773
0.00120655
0.0012055
0.00120458
0.00120381
0.00120315
0.00120263
0.00120222
0.00120192
0.00120173
0.00120163
0.00120659
0.00120563
0.0012043
0.00120269
0.00120087
0.0011989
0.00119684
0.00119475
0.00119266
0.0011906
0.0011886
0.0011867
0.00118489
0.0011832
0.00118163
0.0011802
0.0011789
0.00117773
0.00117671
0.00117581
0.00117504
0.0011744
0.00117389
0.00117348
0.00117319
0.001173
0.00117291
0.00117763
0.00117669
0.00117539
0.0011738
0.00117201
0.00117007
0.00116805
0.00116599
0.00116393
0.00116191
0.00115994
0.00115806
0.00115628
0.00115462
0.00115307
0.00115166
0.00115037
0.00114922
0.00114821
0.00114732
0.00114656
0.00114593
0.00114542
0.00114502
0.00114473
0.00114454
0.00114445
0.00114898
0.00114805
0.00114677
0.0011452
0.00114343
0.00114151
0.00113951
0.00113747
0.00113543
0.00113342
0.00113148
0.00112961
0.00112785
0.00112619
0.00112466
0.00112325
0.00112198
0.00112083
0.00111982
0.00111894
0.00111819
0.00111756
0.00111705
0.00111665
0.00111636
0.00111617
0.00111608
0.00112046
0.00111953
0.00111825
0.00111669
0.00111492
0.00111302
0.00111102
0.00110899
0.00110695
0.00110495
0.001103
0.00110114
0.00109937
0.00109772
0.00109618
0.00109477
0.00109349
0.00109234
0.00109133
0.00109044
0.00108968
0.00108905
0.00108854
0.00108814
0.00108785
0.00108766
0.00108757
0.00109182
0.00109089
0.0010896
0.00108803
0.00108626
0.00108434
0.00108233
0.00108029
0.00107823
0.00107621
0.00107425
0.00107237
0.00107059
0.00106891
0.00106736
0.00106593
0.00106464
0.00106347
0.00106244
0.00106154
0.00106078
0.00106013
0.00105961
0.0010592
0.00105891
0.00105872
0.00105862
0.00106279
0.00106185
0.00106054
0.00105895
0.00105715
0.0010552
0.00105316
0.00105107
0.00104898
0.00104693
0.00104493
0.00104301
0.00104118
0.00103947
0.00103788
0.00103642
0.0010351
0.00103391
0.00103285
0.00103193
0.00103114
0.00103048
0.00102994
0.00102952
0.00102922
0.00102902
0.00102892
0.00103304
0.00103207
0.00103073
0.0010291
0.00102725
0.00102525
0.00102315
0.00102101
0.00101886
0.00101674
0.00101467
0.00101269
0.00101081
0.00100904
0.0010074
0.00100589
0.00100451
0.00100328
0.00100218
0.00100123
0.0010004
0.000999717
0.000999158
0.000998722
0.000998405
0.0009982
0.0009981
0.00100221
0.00100121
0.000999815
0.000998122
0.000996202
0.000994122
0.000991942
0.000989711
0.000987473
0.000985264
0.000983113
0.000981045
0.00097908
0.000977232
0.000975513
0.00097393
0.00097249
0.000971194
0.000970044
0.000969038
0.000968176
0.000967452
0.000966864
0.000966405
0.000966071
0.000965854
0.00096575
0.000969901
0.000968851
0.000967392
0.000965615
0.0009636
0.000961415
0.000959123
0.000956777
0.000954421
0.000952094
0.000949827
0.000947645
0.00094557
0.000943617
0.000941798
0.000940123
0.000938597
0.000937223
0.000936003
0.000934936
0.000934019
0.00093325
0.000932624
0.000932136
0.00093178
0.000931549
0.000931437
0.000935695
0.000934583
0.000933037
0.000931154
0.000929017
0.000926699
0.000924266
0.000921773
0.000919269
0.000916792
0.000914378
0.000912054
0.000909841
0.000907757
0.000905815
0.000904024
0.000902392
0.000900922
0.000899615
0.000898471
0.000897488
0.000896663
0.00089599
0.000895466
0.000895083
0.000894835
0.000894715
0.000899154
0.000897966
0.000896315
0.000894302
0.000892016
0.000889535
0.00088693
0.000884259
0.000881574
0.000878918
0.000876326
0.000873829
0.00087145
0.000869208
0.000867117
0.000865188
0.000863429
0.000861843
0.000860432
0.000859196
0.000858134
0.000857241
0.000856514
0.000855946
0.000855531
0.000855263
0.000855132
0.000859848
0.00085857
0.000856793
0.000854626
0.000852165
0.000849493
0.000846685
0.000843805
0.000840908
0.000838041
0.000835241
0.000832542
0.000829969
0.000827543
0.000825279
0.000823189
0.000821281
0.000819561
0.000818029
0.000816687
0.000815533
0.000814562
0.000813771
0.000813153
0.000812701
0.000812408
0.000812266
0.000817371
0.00081599
0.00081407
0.000811727
0.000809066
0.000806176
0.000803137
0.000800019
0.000796881
0.000793773
0.000790738
0.00078781
0.000785017
0.000782382
0.000779922
0.00077765
0.000775575
0.000773703
0.000772035
0.000770573
0.000769315
0.000768256
0.000767393
0.000766718
0.000766225
0.000765905
0.000765749
0.000771377
0.000769883
0.000767803
0.000765266
0.000762383
0.000759252
0.000755958
0.000752577
0.000749174
0.000745802
0.000742507
0.000739328
0.000736294
0.00073343
0.000730756
0.000728284
0.000726026
0.000723987
0.000722171
0.000720577
0.000719205
0.00071805
0.000717108
0.000716371
0.000715833
0.000715483
0.000715313
0.000721617
0.00072
0.000717751
0.000715006
0.000711887
0.000708498
0.000704933
0.000701273
0.000697587
0.000693934
0.000690365
0.000686919
0.000683629
0.000680524
0.000677622
0.00067494
0.000672488
0.000670273
0.000668299
0.000666567
0.000665075
0.000663819
0.000662793
0.000661991
0.000661405
0.000661024
0.000660839
0.000667984
0.000666242
0.000663818
0.000660861
0.000657499
0.000653847
0.000650004
0.000646059
0.000642086
0.000638149
0.0006343
0.000630583
0.000627035
0.000623684
0.000620553
0.000617657
0.000615009
0.000612617
0.000610485
0.000608613
0.000606999
0.000605641
0.000604532
0.000603664
0.000603029
0.000602616
0.000602416
0.00061057
0.000608706
0.000606112
0.000602948
0.000599351
0.000595444
0.000591334
0.000587115
0.000582865
0.000578654
0.000574537
0.000570561
0.000566766
0.000563181
0.000559831
0.000556732
0.000553899
0.000551338
0.000549055
0.00054705
0.000545323
0.000543867
0.000542679
0.000541749
0.000541068
0.000540625
0.00054041
0.00054972
0.000547746
0.000544999
0.000541649
0.000537842
0.000533707
0.000529359
0.000524896
0.000520402
0.000515949
0.000511597
0.000507395
0.000503383
0.000499595
0.000496054
0.00049278
0.000489786
0.00048708
0.000484667
0.000482548
0.000480722
0.000479184
0.000477927
0.000476943
0.000476223
0.000475755
0.000475528
0.000486092
0.00048403
0.000481163
0.000477666
0.000473694
0.000469382
0.000464849
0.000460198
0.000455518
0.000450882
0.000446352
0.000441981
0.00043781
0.000433871
0.000430191
0.000426789
0.000423678
0.000420867
0.000418361
0.000416161
0.000414264
0.000412667
0.000411362
0.000410341
0.000409593
0.000409108
0.000408871
0.0004207
0.000418585
0.000415646
0.000412063
0.000407995
0.000403583
0.000398948
0.000394195
0.000389416
0.000384685
0.000380066
0.000375612
0.000371364
0.000367355
0.000363612
0.000360153
0.000356991
0.000354136
0.000351591
0.000349358
0.000347434
0.000345813
0.00034449
0.000343454
0.000342696
0.000342204
0.000341965
0.000354937
0.000352818
0.000349873
0.000346287
0.00034222
0.000337811
0.000333185
0.000328447
0.000323687
0.000318981
0.000314392
0.00030997
0.000305758
0.000301786
0.000298081
0.00029466
0.000291536
0.000288717
0.000286206
0.000284004
0.000282108
0.000280512
0.000279209
0.00027819
0.000277445
0.000276961
0.000276725
0.00029055
0.000288486
0.000285621
0.000282135
0.000278186
0.000273912
0.000269433
0.000264853
0.000260259
0.000255724
0.000251308
0.000247061
0.00024302
0.000239216
0.000235672
0.000232404
0.000229424
0.000226737
0.000224347
0.000222253
0.000220451
0.000218936
0.0002177
0.000216735
0.000216029
0.000215571
0.000215348
0.000229546
0.000227606
0.000224916
0.000221647
0.00021795
0.000213956
0.000209779
0.000205517
0.000201251
0.000197049
0.000192966
0.000189048
0.000185327
0.000181832
0.000178582
0.000175591
0.000172867
0.000170416
0.000168239
0.000166335
0.000164698
0.000163324
0.000162205
0.000161331
0.000160693
0.00016028
0.000160079
0.000174004
0.000172257
0.000169838
0.000166903
0.000163592
0.000160023
0.0001563
0.000152511
0.00014873
0.000145015
0.000141416
0.000137971
0.00013471
0.000131654
0.000128819
0.000126217
0.000123853
0.00012173
0.000119849
0.000118206
0.000116798
0.000115617
0.000114656
0.000113908
0.000113361
0.000113008
0.000112837
0.00012577
0.000124275
0.000122208
0.000119706
0.000116891
0.000113865
0.000110719
0.000107528
0.000104354
0.000101248
9.82489e-05
9.5388e-05
9.26888e-05
9.01681e-05
8.78375e-05
8.57043e-05
8.37722e-05
8.2042e-05
8.05121e-05
7.91792e-05
7.80384e-05
7.70838e-05
7.63083e-05
7.57042e-05
7.52635e-05
7.49775e-05
7.48391e-05
8.61365e-05
8.49301e-05
8.32657e-05
8.12572e-05
7.90035e-05
7.65907e-05
7.40918e-05
7.15676e-05
6.90676e-05
6.66313e-05
6.42893e-05
6.20648e-05
5.99748e-05
5.80311e-05
5.6241e-05
5.46088e-05
5.31358e-05
5.18212e-05
5.06625e-05
4.9656e-05
4.8797e-05
4.80799e-05
4.74986e-05
4.70468e-05
4.67175e-05
4.65051e-05
4.64026e-05
5.55672e-05
5.4657e-05
5.34044e-05
5.18976e-05
5.02133e-05
4.84177e-05
4.65666e-05
4.47058e-05
4.2872e-05
4.10941e-05
3.93937e-05
3.77869e-05
3.62849e-05
3.48947e-05
3.36205e-05
3.2464e-05
3.14248e-05
3.05011e-05
2.96902e-05
2.89884e-05
2.83915e-05
2.78946e-05
2.74931e-05
2.71816e-05
2.6956e-05
2.68109e-05
2.67409e-05
3.35974e-05
3.29598e-05
3.20848e-05
3.1036e-05
2.98688e-05
2.86305e-05
2.73605e-05
2.6091e-05
2.48472e-05
2.36482e-05
2.25084e-05
2.14377e-05
2.04426e-05
1.95269e-05
1.86923e-05
1.79389e-05
1.72654e-05
1.66699e-05
1.61495e-05
1.57013e-05
1.53217e-05
1.50071e-05
1.47539e-05
1.45583e-05
1.44167e-05
1.43258e-05
1.42822e-05
1.89755e-05
1.85632e-05
1.79993e-05
1.7326e-05
1.65802e-05
1.57933e-05
1.4991e-05
1.4194e-05
1.34181e-05
1.26751e-05
1.19735e-05
1.13188e-05
1.07144e-05
1.01619e-05
9.6615e-06
9.21264e-06
8.81388e-06
8.46334e-06
8.15883e-06
7.89794e-06
7.6782e-06
7.49707e-06
7.35205e-06
7.24066e-06
7.16051e-06
7.10928e-06
7.08474e-06
1.0005e-05
9.76014e-06
9.42627e-06
9.02943e-06
8.59216e-06
8.13344e-06
7.66868e-06
7.21e-06