/*--------------------------------*- C++ -*----------------------------------*\
| =========                 |                                                 |
| \\      /  F ield         | OpenFOAM: The Open Source CFD Toolbox           |
|  \\    /   O peration     | Version:  2106                                  |
|   \\  /    A nd           | Website:  www.openfoam.com                      |
|    \\/     M anipulation  |                                                 |
\*---------------------------------------------------------------------------*/
FoamFile
{
    version     2.0;
    format      ascii;
    arch        "LSB;label=32;scalar=64";
    class       volScalarField;
    location    "90.00055";
    object      CH3_0;
}
// * * * * * * * * * * * * * * * * * * * * * * * * * * * * * * * * * * * * * //

dimensions      [0 0 0 0 0 0 0];

internalField   nonuniform List<scalar> 
3360
(
4.76731e-20
4.92059e-20
5.13388e-20
5.39478e-20
5.69241e-20
6.017e-20
6.35973e-20
6.71266e-20
7.06868e-20
7.42153e-20
7.76581e-20
8.0969e-20
8.411e-20
8.70508e-20
8.97685e-20
9.22469e-20
9.44761e-20
9.64519e-20
9.81751e-20
9.96508e-20
1.00888e-19
1.01898e-19
1.02696e-19
1.03298e-19
1.03722e-19
1.03985e-19
1.04108e-19
2.09022e-19
2.16698e-19
2.2753e-19
2.41019e-19
2.56751e-19
2.74368e-19
2.93546e-19
3.1399e-19
3.35428e-19
3.57599e-19
3.80256e-19
4.03156e-19
4.2606e-19
4.48734e-19
4.70946e-19
4.92468e-19
5.13076e-19
5.32555e-19
5.50697e-19
5.67307e-19
5.82208e-19
5.95241e-19
6.06273e-19
6.15194e-19
6.21927e-19
6.26424e-19
6.28666e-19
6.55238e-19
6.8397e-19
7.24796e-19
7.76098e-19
8.3653e-19
9.04883e-19
9.8001e-19
1.06078e-18
1.14604e-18
1.23463e-18
1.32535e-18
1.41701e-18
1.50844e-18
1.59849e-18
1.68602e-18
1.76997e-18
1.84936e-18
1.9233e-18
1.99102e-18
2.05189e-18
2.10542e-18
2.15126e-18
2.18921e-18
2.2192e-18
2.24131e-18
2.25573e-18
2.26275e-18
1.90598e-18
2.00057e-18
2.13588e-18
2.30707e-18
2.51008e-18
2.74113e-18
2.99643e-18
3.27205e-18
3.56386e-18
3.86755e-18
4.17863e-18
4.49255e-18
4.8048e-18
5.11096e-18
5.40688e-18
5.68871e-18
5.95306e-18
6.19703e-18
6.41832e-18
6.61517e-18
6.78645e-18
6.93155e-18
7.05038e-18
7.14333e-18
7.21115e-18
7.25495e-18
7.27608e-18
5.56081e-18
5.85878e-18
6.28583e-18
6.82738e-18
7.47103e-18
8.20488e-18
9.01669e-18
9.8935e-18
1.08215e-17
1.17861e-17
1.27722e-17
1.37648e-17
1.47488e-17
1.57101e-17
1.66354e-17
1.75131e-17
1.83329e-17
1.90865e-17
1.97672e-17
2.03706e-17
2.08936e-17
2.13353e-17
2.16959e-17
2.19772e-17
2.21819e-17
2.23138e-17
2.23773e-17
1.63722e-17
1.7286e-17
1.85972e-17
2.02614e-17
2.22404e-17
2.44974e-17
2.69941e-17
2.96899e-17
3.25414e-17
3.5503e-17
3.85274e-17
4.15675e-17
4.4577e-17
4.75122e-17
5.03328e-17
5.30032e-17
5.5493e-17
5.77773e-17
5.98373e-17
6.16599e-17
6.32373e-17
6.45671e-17
6.56513e-17
6.64957e-17
6.71095e-17
6.75045e-17
6.76944e-17
4.85586e-17
5.13308e-17
5.53088e-17
6.03578e-17
6.63617e-17
7.32072e-17
8.07768e-17
8.89454e-17
9.75795e-17
1.06539e-16
1.15681e-16
1.24862e-16
1.33941e-16
1.42787e-16
1.51281e-16
1.59314e-16
1.66799e-16
1.73661e-16
1.79844e-16
1.85312e-16
1.90043e-16
1.94029e-16
1.97277e-16
1.99807e-16
2.01645e-16
2.02828e-16
2.03396e-16
1.44501e-16
1.5283e-16
1.64787e-16
1.7997e-16
1.98028e-16
2.18621e-16
2.41393e-16
2.65966e-16
2.91935e-16
3.18878e-16
3.4636e-16
3.73948e-16
4.01222e-16
4.27785e-16
4.53278e-16
4.77381e-16
4.99826e-16
5.20394e-16
5.38922e-16
5.55298e-16
5.69458e-16
5.81386e-16
5.91103e-16
5.98666e-16
6.0416e-16
6.07694e-16
6.09392e-16
4.31141e-16
4.56133e-16
4.92008e-16
5.37553e-16
5.91717e-16
6.53474e-16
7.21752e-16
7.95407e-16
8.73225e-16
9.53932e-16
1.03623e-15
1.11881e-15
1.20043e-15
1.27989e-15
1.35613e-15
1.4282e-15
1.49529e-15
1.55677e-15
1.61213e-15
1.66106e-15
1.70337e-15
1.739e-15
1.76803e-15
1.79063e-15
1.80704e-15
1.8176e-15
1.82267e-15
1.2865e-15
1.36124e-15
1.46855e-15
1.6048e-15
1.76683e-15
1.95158e-15
2.15582e-15
2.37614e-15
2.60889e-15
2.85025e-15
3.09632e-15
3.34321e-15
3.58717e-15
3.82466e-15
4.05246e-15
4.26775e-15
4.46813e-15
4.65168e-15
4.81697e-15
4.963e-15
5.08924e-15
5.19555e-15
5.28213e-15
5.3495e-15
5.39843e-15
5.4299e-15
5.44502e-15
3.84085e-15
4.06429e-15
4.38503e-15
4.79216e-15
5.27627e-15
5.82811e-15
6.43804e-15
7.09578e-15
7.79042e-15
8.51055e-15
9.24451e-15
9.98071e-15
1.07079e-14
1.14157e-14
1.20944e-14
1.27356e-14
1.33323e-14
1.38789e-14
1.43709e-14
1.48055e-14
1.51812e-14
1.54976e-14
1.57552e-14
1.59556e-14
1.61012e-14
1.61948e-14
1.62398e-14
1.14566e-14
1.21229e-14
1.30792e-14
1.4293e-14
1.5736e-14
1.73805e-14
1.91977e-14
2.11567e-14
2.32251e-14
2.53686e-14
2.75526e-14
2.97425e-14
3.1905e-14
3.40088e-14
3.60255e-14
3.79303e-14
3.97023e-14
4.13245e-14
4.27846e-14
4.4074e-14
4.51881e-14
4.6126e-14
4.68895e-14
4.74835e-14
4.79148e-14
4.8192e-14
4.83252e-14
3.41395e-14
3.61229e-14
3.89687e-14
4.25792e-14
4.68696e-14
5.17565e-14
5.71536e-14
6.29686e-14
6.91042e-14
7.5459e-14
8.19297e-14
8.84139e-14
9.4813e-14
1.01035e-13
1.06996e-13
1.12623e-13
1.17855e-13
1.22643e-13
1.2695e-13
1.30752e-13
1.34036e-13
1.368e-13
1.3905e-13
1.40799e-13
1.42069e-13
1.42885e-13
1.43277e-13
1.01456e-13
1.07334e-13
1.15765e-13
1.26457e-13
1.39154e-13
1.53608e-13
1.69558e-13
1.8673e-13
2.04835e-13
2.23569e-13
2.42629e-13
2.61711e-13
2.80527e-13
2.98805e-13
3.16301e-13
3.32804e-13
3.48136e-13
3.62156e-13
3.74759e-13
3.85877e-13
3.95475e-13
4.03546e-13
4.10112e-13
4.15216e-13
4.18919e-13
4.21299e-13
4.22441e-13
3.00491e-13
3.17817e-13
3.4265e-13
3.74116e-13
4.11449e-13
4.53898e-13
5.00686e-13
5.50993e-13
6.0396e-13
6.58695e-13
7.14303e-13
7.699e-13
8.24643e-13
8.77753e-13
9.28528e-13
9.7636e-13
1.02075e-12
1.06129e-12
1.0977e-12
1.12979e-12
1.15747e-12
1.18073e-12
1.19963e-12
1.21432e-12
1.22497e-12
1.23181e-12
1.2351e-12
8.85064e-13
9.35632e-13
1.00805e-12
1.09971e-12
1.20831e-12
1.3316e-12
1.46727e-12
1.61289e-12
1.76592e-12
1.92377e-12
2.08383e-12
2.24356e-12
2.40055e-12
2.55257e-12
2.69765e-12
2.83409e-12
2.9605e-12
3.07578e-12
3.17916e-12
3.27016e-12
3.34853e-12
3.41432e-12
3.46774e-12
3.5092e-12
3.53924e-12
3.55851e-12
3.56776e-12
2.58856e-12
2.73416e-12
2.94241e-12
3.20553e-12
3.51667e-12
3.86913e-12
4.25604e-12
4.67027e-12
5.10445e-12
5.55111e-12
6.00282e-12
6.45241e-12
6.89314e-12
7.31886e-12
7.72417e-12
8.10447e-12
8.45603e-12
8.776e-12
9.0624e-12
9.31402e-12
9.53041e-12
9.71176e-12
9.85883e-12
9.97282e-12
1.00553e-11
1.01082e-11
1.01336e-11
7.50338e-12
7.91445e-12
8.50131e-12
9.24104e-12
1.01133e-11
1.10984e-11
1.21762e-11
1.3326e-11
1.45269e-11
1.57579e-11
1.69984e-11
1.82288e-11
1.94309e-11
2.05882e-11
2.16866e-11
2.27142e-11
2.36616e-11
2.45216e-11
2.52895e-11
2.59628e-11
2.65405e-11
2.70239e-11
2.74152e-11
2.77181e-11
2.7937e-11
2.80772e-11
2.81443e-11
2.15292e-11
2.26592e-11
2.42682e-11
2.62895e-11
2.86636e-11
3.1333e-11
3.42401e-11
3.73269e-11
4.05354e-11
4.38085e-11
4.70914e-11
5.03327e-11
5.34856e-11
5.65088e-11
5.93669e-11
6.20312e-11
6.44791e-11
6.66945e-11
6.86671e-11
7.0392e-11
7.18689e-11
7.3102e-11
7.40984e-11
7.48684e-11
7.54242e-11
7.57796e-11
7.59495e-11
6.11425e-11
6.41453e-11
6.84048e-11
7.373e-11
7.99495e-11
8.68992e-11
9.44183e-11
1.02349e-10
1.10536e-10
1.18833e-10
1.271e-10
1.35212e-10
1.43057e-10
1.50537e-10
1.57572e-10
1.64098e-10
1.70069e-10
1.75451e-10
1.80226e-10
1.84388e-10
1.87943e-10
1.90903e-10
1.9329e-10
1.95132e-10
1.96459e-10
1.97307e-10
1.97712e-10
1.72254e-10
1.79956e-10
1.9082e-10
2.04305e-10
2.19921e-10
2.37205e-10
2.55715e-10
2.75031e-10
2.94758e-10
3.14533e-10
3.34027e-10
3.52953e-10
3.71066e-10
3.88164e-10
4.04088e-10
4.18722e-10
4.31986e-10
4.43839e-10
4.54269e-10
4.63291e-10
4.70941e-10
4.77272e-10
4.8235e-10
4.86249e-10
4.89048e-10
4.90832e-10
4.91682e-10
4.82623e-10
5.02011e-10
5.29168e-10
5.62548e-10
6.00736e-10
6.42395e-10
6.86275e-10
7.31231e-10
7.76244e-10
8.20441e-10
8.63095e-10
9.03622e-10
9.41562e-10
9.76556e-10
1.00831e-09
1.03661e-09
1.06134e-09
1.08251e-09
1.1002e-09
1.11463e-09
1.12606e-09
1.1348e-09
1.14121e-09
1.14565e-09
1.14849e-09
1.15007e-09
1.15071e-09
1.33719e-09
1.38714e-09
1.45706e-09
1.54289e-09
1.64069e-09
1.74634e-09
1.85562e-09
1.96469e-09
2.07039e-09
2.17059e-09
2.26452e-09
2.35299e-09
2.43869e-09
2.52626e-09
2.61646e-09
2.70593e-09
2.79216e-09
2.87327e-09
2.94784e-09
3.01485e-09
3.07362e-09
3.1237e-09
3.16492e-09
3.19729e-09
3.22097e-09
3.2363e-09
3.24371e-09
3.57911e-09
3.70765e-09
3.89422e-09
4.14044e-09
4.45969e-09
4.85194e-09
5.30366e-09
5.80514e-09
6.34827e-09
6.92543e-09
7.52895e-09
8.15085e-09
8.78276e-09
9.41604e-09
1.00419e-08
1.06515e-08
1.12366e-08
1.17894e-08
1.23029e-08
1.2771e-08
1.31885e-08
1.35511e-08
1.38557e-08
1.41e-08
1.42829e-08
1.4404e-08
1.4464e-08
1.13653e-08
1.20692e-08
1.3093e-08
1.44154e-08
1.6021e-08
1.78943e-08
2.0017e-08
2.23666e-08
2.49153e-08
2.76288e-08
3.04658e-08
3.33789e-08
3.6316e-08
3.92233e-08
4.20485e-08
4.47438e-08
4.72684e-08
4.95899e-08
5.16849e-08
5.35386e-08
5.51433e-08
5.64974e-08
5.76039e-08
5.84693e-08
5.91022e-08
5.95128e-08
5.97123e-08
4.46814e-08
4.75723e-08
5.17257e-08
5.69904e-08
6.32159e-08
7.02331e-08
7.78516e-08
8.58674e-08
9.40771e-08
1.02293e-07
1.10356e-07
1.18136e-07
1.25535e-07
1.3248e-07
1.3892e-07
1.4482e-07
1.50159e-07
1.54926e-07
1.59122e-07
1.62754e-07
1.65838e-07
1.68395e-07
1.70451e-07
1.72033e-07
1.73173e-07
1.739e-07
1.74248e-07
1.57365e-07
1.65192e-07
1.76239e-07
1.89965e-07
2.05889e-07
2.23563e-07
2.42563e-07
2.62482e-07
2.82933e-07
3.03558e-07
3.24032e-07
3.44059e-07
3.63377e-07
3.8176e-07
3.9902e-07
4.1501e-07
4.29618e-07
4.4277e-07
4.54423e-07
4.64566e-07
4.73214e-07
4.80404e-07
4.86191e-07
4.90646e-07
4.93849e-07
4.95891e-07
4.96863e-07
4.23402e-07
4.44403e-07
4.74384e-07
5.12191e-07
5.56833e-07
6.07372e-07
6.62885e-07
7.22435e-07
7.85072e-07
8.49836e-07
9.15769e-07
9.81927e-07
1.0474e-06
1.11134e-06
1.17294e-06
1.2315e-06
1.28639e-06
1.33707e-06
1.38311e-06
1.42418e-06
1.46005e-06
1.49058e-06
1.51572e-06
1.5355e-06
1.55004e-06
1.55949e-06
1.56408e-06
1.03237e-06
1.09155e-06
1.17715e-06
1.28699e-06
1.41943e-06
1.57304e-06
1.74636e-06
1.93781e-06
2.14558e-06
2.36759e-06
2.60148e-06
2.8446e-06
3.09405e-06
3.34672e-06
3.59933e-06
3.84855e-06
4.09098e-06
4.32328e-06
4.54213e-06
4.74443e-06
4.92734e-06
5.08835e-06
5.22534e-06
5.33662e-06
5.42092e-06
5.47741e-06
5.50566e-06
2.42223e-06
2.58101e-06
2.81346e-06
3.11631e-06
3.48815e-06
3.92828e-06
4.43602e-06
5.01015e-06
5.64854e-06
6.34752e-06
7.10179e-06
7.90444e-06
8.74688e-06
9.61893e-06
1.0509e-05
1.14043e-05
1.22912e-05
1.31556e-05
1.39833e-05
1.47602e-05
1.54731e-05
1.61096e-05
1.66588e-05
1.71108e-05
1.74575e-05
1.76927e-05
1.78116e-05
5.70424e-06
6.08484e-06
6.64277e-06
7.37118e-06
8.26735e-06
9.32984e-06
1.05566e-05
1.19438e-05
1.34846e-05
1.51687e-05
1.69816e-05
1.8905e-05
2.09167e-05
2.29909e-05
2.5099e-05
2.72099e-05
2.92915e-05
3.13108e-05
3.32352e-05
3.50334e-05
3.66754e-05
3.81341e-05
3.93861e-05
4.04127e-05
4.1198e-05
4.17293e-05
4.19975e-05
1.30515e-05
1.37843e-05
1.48481e-05
1.62195e-05
1.78813e-05
1.98179e-05
2.20124e-05
2.44446e-05
2.70903e-05
2.99205e-05
3.29016e-05
3.59955e-05
3.9161e-05
4.23539e-05
4.55331e-05
4.86579e-05
5.16874e-05
5.45817e-05
5.73029e-05
5.98145e-05
6.20838e-05
6.40819e-05
6.5784e-05
6.717e-05
6.82236e-05
6.89322e-05
6.92882e-05
2.58583e-05
2.68959e-05
2.83785e-05
3.02503e-05
3.2463e-05
3.49708e-05
3.7728e-05
4.06964e-05
4.38356e-05
4.71034e-05
5.04568e-05
5.38524e-05
5.72478e-05
6.06012e-05
6.38737e-05
6.70289e-05
7.0033e-05
7.28552e-05
7.54656e-05
7.78395e-05
7.99557e-05
8.17961e-05
8.33465e-05
8.45957e-05
8.5537e-05
8.61655e-05
8.64789e-05
4.11458e-05
4.21772e-05
4.36293e-05
4.54283e-05
4.75094e-05
4.98133e-05
5.22862e-05
5.48785e-05
5.75451e-05
6.02449e-05
6.29408e-05
6.56001e-05
6.81936e-05
7.06961e-05
7.30857e-05
7.53438e-05
7.74542e-05
7.94037e-05
8.11788e-05
8.27703e-05
8.4171e-05
8.53754e-05
8.63796e-05
8.71812e-05
8.77802e-05
8.81772e-05
8.83742e-05
5.31351e-05
5.38545e-05
5.48515e-05
5.60617e-05
5.74286e-05
5.89027e-05
6.04411e-05
6.20079e-05
6.35732e-05
6.5113e-05
6.66083e-05
6.80446e-05
6.94109e-05
7.06992e-05
7.19037e-05
7.30206e-05
7.40471e-05
7.49814e-05
7.58225e-05
7.65681e-05
7.72179e-05
7.77722e-05
7.82313e-05
7.85958e-05
7.88666e-05
7.90456e-05
7.91341e-05
5.77419e-05
5.80349e-05
5.84315e-05
5.88979e-05
5.94054e-05
5.99297e-05
6.04522e-05
6.09589e-05
6.14401e-05
6.189e-05
6.23055e-05
6.26861e-05
6.30323e-05
6.33459e-05
6.3629e-05
6.38839e-05
6.41129e-05
6.43178e-05
6.45003e-05
6.46615e-05
6.48023e-05
6.49233e-05
6.50246e-05
6.51065e-05
6.51687e-05
6.52103e-05
6.52312e-05
5.49337e-05
5.48909e-05
5.48233e-05
5.47284e-05
5.46048e-05
5.44526e-05
5.42736e-05
5.40712e-05
5.38501e-05
5.36156e-05
5.33732e-05
5.31287e-05
5.28872e-05
5.26534e-05
5.24311e-05
5.22237e-05
5.20335e-05
5.18622e-05
5.17107e-05
5.15794e-05
5.14683e-05
5.13766e-05
5.13036e-05
5.1248e-05
5.12086e-05
5.11838e-05
5.11723e-05
4.74791e-05
4.72603e-05
4.69533e-05
4.65748e-05
4.614e-05
4.56629e-05
4.51566e-05
4.46333e-05
4.41039e-05
4.3578e-05
4.3064e-05
4.25689e-05
4.20984e-05
4.16569e-05
4.12478e-05
4.08733e-05
4.05348e-05
4.02328e-05
3.99672e-05
3.97375e-05
3.95425e-05
3.9381e-05
3.92512e-05
3.91514e-05
3.90795e-05
3.90337e-05
3.90117e-05
3.8448e-05
3.81804e-05
3.78091e-05
3.73578e-05
3.68475e-05
3.62969e-05
3.57224e-05
3.51381e-05
3.4556e-05
3.39862e-05
3.34365e-05
3.29132e-05
3.24212e-05
3.19638e-05
3.15433e-05
3.1161e-05
3.08173e-05
3.05121e-05
3.02447e-05
3.00139e-05
2.98184e-05
2.96566e-05
2.95266e-05
2.94266e-05
2.93545e-05
2.93084e-05
2.92863e-05
2.98843e-05
2.96367e-05
2.92949e-05
2.88818e-05
2.84179e-05
2.79209e-05
2.74061e-05
2.68863e-05
2.63722e-05
2.58721e-05
2.53927e-05
2.4939e-05
2.45147e-05
2.4122e-05
2.37625e-05
2.34367e-05
2.31449e-05
2.28864e-05
2.26604e-05
2.24657e-05
2.23011e-05
2.21649e-05
2.20556e-05
2.19715e-05
2.1911e-05
2.18722e-05
2.18537e-05
2.27073e-05
2.25051e-05
2.22265e-05
2.18909e-05
2.15153e-05
2.11143e-05
2.07006e-05
2.02844e-05
1.98742e-05
1.94767e-05
1.90968e-05
1.87385e-05
1.84042e-05
1.80956e-05
1.78138e-05
1.7559e-05
1.73311e-05
1.71296e-05
1.69536e-05
1.68023e-05
1.66744e-05
1.65687e-05
1.64839e-05
1.64187e-05
1.63718e-05
1.63418e-05
1.63274e-05
1.70993e-05
1.69445e-05
1.67315e-05
1.64753e-05
1.6189e-05
1.5884e-05
1.55699e-05
1.52546e-05
1.49444e-05
1.46443e-05
1.4358e-05
1.40884e-05
1.38373e-05
1.36058e-05
1.33947e-05
1.3204e-05
1.30336e-05
1.28831e-05
1.27518e-05
1.26389e-05
1.25435e-05
1.24648e-05
1.24016e-05
1.23531e-05
1.23182e-05
1.22959e-05
1.22852e-05
1.28909e-05
1.27764e-05
1.26189e-05
1.24296e-05
1.22183e-05
1.19933e-05
1.17619e-05
1.15297e-05
1.13016e-05
1.10811e-05
1.08709e-05
1.06731e-05
1.0489e-05
1.03194e-05
1.01648e-05
1.00253e-05
9.90062e-06
9.79057e-06
9.6946e-06
9.61213e-06
9.54251e-06
9.48502e-06
9.43894e-06
9.40354e-06
9.37807e-06
9.36179e-06
9.354e-06
9.80228e-06
9.71895e-06
9.60436e-06
9.46669e-06
9.31304e-06
9.14954e-06
8.98136e-06
8.81274e-06
8.64707e-06
8.48698e-06
8.33445e-06
8.19093e-06
8.05738e-06
7.9344e-06
7.8223e-06
7.72114e-06
7.6308e-06
7.55104e-06
7.48151e-06
7.42176e-06
7.37132e-06
7.32969e-06
7.29632e-06
7.27068e-06
7.25224e-06
7.24046e-06
7.23482e-06
7.55922e-06
7.49893e-06
7.41603e-06
7.31643e-06
7.20525e-06
7.08696e-06
6.96527e-06
6.84325e-06
6.72335e-06
6.60749e-06
6.4971e-06
6.39321e-06
6.29653e-06
6.20749e-06
6.12632e-06
6.05308e-06
5.98766e-06
5.9299e-06
5.87954e-06
5.83627e-06
5.79974e-06
5.76959e-06
5.74542e-06
5.72685e-06
5.71349e-06
5.70496e-06
5.70088e-06
5.93495e-06
5.89129e-06
5.83123e-06
5.75906e-06
5.67849e-06
5.59274e-06
5.5045e-06
5.41599e-06
5.329e-06
5.24491e-06
5.16476e-06
5.08931e-06
5.01907e-06
4.95437e-06
4.89537e-06
4.84211e-06
4.79453e-06
4.75251e-06
4.71587e-06
4.68438e-06
4.65779e-06
4.63584e-06
4.61824e-06
4.60473e-06
4.595e-06
4.58879e-06
4.58581e-06
4.75616e-06
4.72436e-06
4.68061e-06
4.62801e-06
4.56928e-06
4.50674e-06
4.44236e-06
4.37775e-06
4.31422e-06
4.25277e-06
4.19418e-06
4.13899e-06
4.08759e-06
4.04022e-06
3.99701e-06
3.95798e-06
3.92311e-06
3.89229e-06
3.86541e-06
3.8423e-06
3.82279e-06
3.80667e-06
3.79375e-06
3.78382e-06
3.77667e-06
3.7721e-06
3.76992e-06
3.89585e-06
3.87249e-06
3.84034e-06
3.80169e-06
3.75849e-06
3.71248e-06
3.66508e-06
3.61749e-06
3.57067e-06
3.52535e-06
3.4821e-06
3.44135e-06
3.40337e-06
3.36835e-06
3.33638e-06
3.30749e-06
3.28166e-06
3.25883e-06
3.2389e-06
3.22176e-06
3.20728e-06
3.19532e-06
3.18572e-06
3.17834e-06
3.17303e-06
3.16964e-06
3.16802e-06
3.26298e-06
3.24564e-06
3.22177e-06
3.19306e-06
3.16096e-06
3.12675e-06
3.09148e-06
3.05604e-06
3.02115e-06
2.98735e-06
2.95508e-06
2.92464e-06
2.89625e-06
2.87006e-06
2.84613e-06
2.82449e-06
2.80513e-06
2.78801e-06
2.77305e-06
2.76018e-06
2.7493e-06
2.74031e-06
2.73309e-06
2.72754e-06
2.72355e-06
2.72099e-06
2.71977e-06
2.79299e-06
2.77997e-06
2.76204e-06
2.74046e-06
2.71632e-06
2.69057e-06
2.66401e-06
2.6373e-06
2.61098e-06
2.58547e-06
2.56108e-06
2.53806e-06
2.51658e-06
2.49673e-06
2.47859e-06
2.46217e-06
2.44747e-06
2.43446e-06
2.42308e-06
2.41329e-06
2.405e-06
2.39815e-06
2.39265e-06
2.38841e-06
2.38536e-06
2.38341e-06
2.38247e-06
2.44025e-06
2.43036e-06
2.41672e-06
2.40029e-06
2.38191e-06
2.36228e-06
2.34202e-06
2.32163e-06
2.30151e-06
2.28199e-06
2.26332e-06
2.24568e-06
2.2292e-06
2.21396e-06
2.20002e-06
2.18739e-06
2.17607e-06
2.16604e-06
2.15726e-06
2.1497e-06
2.1433e-06
2.138e-06
2.13375e-06
2.13047e-06
2.1281e-06
2.12659e-06
2.12587e-06
2.17252e-06
2.1649e-06
2.15438e-06
2.14172e-06
2.12752e-06
2.11236e-06
2.0967e-06
2.08091e-06
2.06533e-06
2.05019e-06
2.0357e-06
2.02199e-06
2.00917e-06
1.9973e-06
1.98643e-06
1.97658e-06
1.96773e-06
1.95989e-06
1.95303e-06
1.9471e-06
1.94209e-06
1.93793e-06
1.93458e-06
1.93201e-06
1.93015e-06
1.92896e-06
1.92838e-06
1.9669e-06
1.96095e-06
1.95273e-06
1.94283e-06
1.93172e-06
1.91985e-06
1.90756e-06
1.89518e-06
1.88294e-06
1.87103e-06
1.85962e-06
1.84882e-06
1.8387e-06
1.82932e-06
1.82072e-06
1.81292e-06
1.80591e-06
1.79969e-06
1.79424e-06
1.78953e-06
1.78553e-06
1.78222e-06
1.77955e-06
1.77749e-06
1.77601e-06
1.77506e-06
1.7746e-06
1.80706e-06
1.80235e-06
1.79584e-06
1.78798e-06
1.77917e-06
1.76974e-06
1.75997e-06
1.75012e-06
1.74036e-06
1.73087e-06
1.72175e-06
1.71311e-06
1.70501e-06
1.6975e-06
1.6906e-06
1.68433e-06
1.67869e-06
1.67368e-06
1.66928e-06
1.66548e-06
1.66225e-06
1.65957e-06
1.65741e-06
1.65574e-06
1.65454e-06
1.65376e-06
1.65339e-06
1.68127e-06
1.67749e-06
1.67226e-06
1.66594e-06
1.65885e-06
1.65125e-06
1.64338e-06
1.63542e-06
1.62754e-06
1.61985e-06
1.61247e-06
1.60546e-06
1.59888e-06
1.59277e-06
1.58715e-06
1.58204e-06
1.57743e-06
1.57334e-06
1.56974e-06
1.56662e-06
1.56397e-06
1.56177e-06
1.56e-06
1.55863e-06
1.55763e-06
1.55699e-06
1.55669e-06
1.58104e-06
1.57796e-06
1.5737e-06
1.56855e-06
1.56276e-06
1.55655e-06
1.55011e-06
1.5436e-06
1.53714e-06
1.53083e-06
1.52476e-06
1.51899e-06
1.51357e-06
1.50853e-06
1.50389e-06
1.49966e-06
1.49584e-06
1.49244e-06
1.48945e-06
1.48686e-06
1.48466e-06
1.48282e-06
1.48134e-06
1.4802e-06
1.47937e-06
1.47883e-06
1.47857e-06
1.50017e-06
1.49762e-06
1.4941e-06
1.48984e-06
1.48505e-06
1.47991e-06
1.47457e-06
1.46916e-06
1.46379e-06
1.45854e-06
1.45348e-06
1.44866e-06
1.44413e-06
1.43991e-06
1.43602e-06
1.43247e-06
1.42926e-06
1.4264e-06
1.42388e-06
1.4217e-06
1.41983e-06
1.41828e-06
1.41703e-06
1.41606e-06
1.41535e-06
1.4149e-06
1.41468e-06
1.43407e-06
1.43194e-06
1.42899e-06
1.42542e-06
1.4214e-06
1.41708e-06
1.41259e-06
1.40804e-06
1.40351e-06
1.39908e-06
1.3948e-06
1.39072e-06
1.38688e-06
1.3833e-06
1.37999e-06
1.37696e-06
1.37423e-06
1.37179e-06
1.36963e-06
1.36776e-06
1.36617e-06
1.36483e-06
1.36376e-06
1.36292e-06
1.36231e-06
1.36192e-06
1.36173e-06
1.37936e-06
1.37754e-06
1.37504e-06
1.372e-06
1.36858e-06
1.3649e-06
1.36107e-06
1.35718e-06
1.35331e-06
1.34952e-06
1.34585e-06
1.34235e-06
1.33905e-06
1.33596e-06
1.33311e-06
1.33049e-06
1.32813e-06
1.32602e-06
1.32415e-06
1.32252e-06
1.32113e-06
1.31997e-06
1.31903e-06
1.3183e-06
1.31777e-06
1.31743e-06
1.31726e-06
1.33344e-06
1.33188e-06
1.32972e-06
1.3271e-06
1.32415e-06
1.32097e-06
1.31766e-06
1.31429e-06
1.31093e-06
1.30764e-06
1.30445e-06
1.3014e-06
1.29852e-06
1.29582e-06
1.29333e-06
1.29104e-06
1.28897e-06
1.28711e-06
1.28547e-06
1.28403e-06
1.28281e-06
1.28178e-06
1.28095e-06
1.28031e-06
1.27984e-06
1.27953e-06
1.27939e-06
1.29436e-06
1.293e-06
1.29111e-06
1.28883e-06
1.28624e-06
1.28346e-06
1.28055e-06
1.27759e-06
1.27464e-06
1.27173e-06
1.26892e-06
1.26623e-06
1.26368e-06
1.26129e-06
1.25907e-06
1.25704e-06
1.2552e-06
1.25354e-06
1.25207e-06
1.25079e-06
1.2497e-06
1.24878e-06
1.24803e-06
1.24745e-06
1.24703e-06
1.24676e-06
1.24662e-06
1.2606e-06
1.2594e-06
1.25772e-06
1.25569e-06
1.2534e-06
1.25092e-06
1.24834e-06
1.2457e-06
1.24306e-06
1.24047e-06
1.23795e-06
1.23553e-06
1.23324e-06
1.2311e-06
1.2291e-06
1.22727e-06
1.2256e-06
1.2241e-06
1.22277e-06
1.22161e-06
1.22062e-06
1.21978e-06
1.2191e-06
1.21858e-06
1.21819e-06
1.21794e-06
1.21782e-06
1.23096e-06
1.22988e-06
1.22837e-06
1.22654e-06
1.22448e-06
1.22224e-06
1.2199e-06
1.21752e-06
1.21513e-06
1.21277e-06
1.21048e-06
1.20829e-06
1.2062e-06
1.20424e-06
1.20242e-06
1.20074e-06
1.19921e-06
1.19783e-06
1.19661e-06
1.19554e-06
1.19463e-06
1.19386e-06
1.19323e-06
1.19274e-06
1.19238e-06
1.19215e-06
1.19204e-06
1.20448e-06
1.20349e-06
1.20212e-06
1.20044e-06
1.19855e-06
1.1965e-06
1.19436e-06
1.19216e-06
1.18996e-06
1.18779e-06
1.18568e-06
1.18365e-06
1.18172e-06
1.1799e-06
1.17821e-06
1.17665e-06
1.17522e-06
1.17394e-06
1.1728e-06
1.1718e-06
1.17094e-06
1.17022e-06
1.16963e-06
1.16917e-06
1.16884e-06
1.16862e-06
1.16851e-06
1.18038e-06
1.17946e-06
1.17818e-06
1.17663e-06
1.17486e-06
1.17295e-06
1.17095e-06
1.1689e-06
1.16685e-06
1.16481e-06
1.16283e-06
1.16093e-06
1.15911e-06
1.1574e-06
1.1558e-06
1.15432e-06
1.15298e-06
1.15176e-06
1.15068e-06
1.14973e-06
1.14892e-06
1.14823e-06
1.14767e-06
1.14723e-06
1.14691e-06
1.1467e-06
1.1466e-06
1.15799e-06
1.15712e-06
1.15592e-06
1.15445e-06
1.15278e-06
1.15097e-06
1.14907e-06
1.14713e-06
1.14517e-06
1.14323e-06
1.14134e-06
1.13952e-06
1.13778e-06
1.13614e-06
1.13461e-06
1.13319e-06
1.1319e-06
1.13073e-06
1.12969e-06
1.12877e-06
1.12798e-06
1.12732e-06
1.12677e-06
1.12635e-06
1.12604e-06
1.12584e-06
1.12574e-06
1.13676e-06
1.13592e-06
1.13476e-06
1.13335e-06
1.13174e-06
1.13e-06
1.12817e-06
1.12629e-06
1.1244e-06
1.12252e-06
1.12069e-06
1.11892e-06
1.11723e-06
1.11563e-06
1.11413e-06
1.11275e-06
1.11148e-06
1.11034e-06
1.10932e-06
1.10842e-06
1.10764e-06
1.10699e-06
1.10645e-06
1.10604e-06
1.10573e-06
1.10553e-06
1.10543e-06
1.11617e-06
1.11536e-06
1.11422e-06
1.11284e-06
1.11127e-06
1.10956e-06
1.10776e-06
1.10591e-06
1.10405e-06
1.1022e-06
1.10039e-06
1.09864e-06
1.09697e-06
1.09539e-06
1.0939e-06
1.09253e-06
1.09127e-06
1.09013e-06
1.08911e-06
1.08821e-06
1.08744e-06
1.08679e-06
1.08625e-06
1.08583e-06
1.08553e-06
1.08533e-06
1.08523e-06
1.09578e-06
1.09497e-06
1.09384e-06
1.09247e-06
1.0909e-06
1.08919e-06
1.0874e-06
1.08555e-06
1.08368e-06
1.08183e-06
1.08002e-06
1.07826e-06
1.07657e-06
1.07498e-06
1.07348e-06
1.0721e-06
1.07082e-06
1.06967e-06
1.06864e-06
1.06773e-06
1.06694e-06
1.06628e-06
1.06574e-06
1.06531e-06
1.065e-06
1.06479e-06
1.06469e-06
1.07516e-06
1.07434e-06
1.0732e-06
1.0718e-06
1.07021e-06
1.06848e-06
1.06666e-06
1.06478e-06
1.06288e-06
1.06099e-06
1.05914e-06
1.05735e-06
1.05562e-06
1.05399e-06
1.05246e-06
1.05104e-06
1.04973e-06
1.04854e-06
1.04748e-06
1.04655e-06
1.04574e-06
1.04505e-06
1.04449e-06
1.04405e-06
1.04373e-06
1.04352e-06
1.04342e-06
1.05389e-06
1.05305e-06
1.05188e-06
1.05044e-06
1.0488e-06
1.04702e-06
1.04514e-06
1.0432e-06
1.04123e-06
1.03928e-06
1.03736e-06
1.0355e-06
1.03371e-06
1.03202e-06
1.03042e-06
1.02894e-06
1.02758e-06
1.02634e-06
1.02524e-06
1.02426e-06
1.02341e-06
1.0227e-06
1.02211e-06
1.02165e-06
1.02131e-06
1.02109e-06
1.02098e-06
1.03157e-06
1.03069e-06
1.02947e-06
1.02797e-06
1.02626e-06
1.02439e-06
1.02242e-06
1.02039e-06
1.01833e-06
1.01628e-06
1.01426e-06
1.01231e-06
1.01043e-06
1.00864e-06
1.00696e-06
1.0054e-06
1.00396e-06
1.00266e-06
1.00149e-06
1.00045e-06
9.99557e-07
9.98799e-07
9.98177e-07
9.97689e-07
9.97329e-07
9.97095e-07
9.96981e-07
1.0078e-06
1.00687e-06
1.00557e-06
1.00399e-06
1.00218e-06
1.0002e-06
9.98111e-07
9.95954e-07
9.9377e-07
9.91591e-07
9.89448e-07
9.87366e-07
9.85364e-07
9.83461e-07
9.81671e-07
9.80004e-07
9.78471e-07
9.77076e-07
9.75825e-07
9.74721e-07
9.73763e-07
9.72952e-07
9.72286e-07
9.71763e-07
9.71378e-07
9.71127e-07
9.71004e-07
9.82162e-07
9.81169e-07
9.79783e-07
9.78086e-07
9.76149e-07
9.74034e-07
9.71796e-07
9.69485e-07
9.67143e-07
9.64805e-07
9.62505e-07
9.60267e-07
9.58116e-07
9.5607e-07
9.54144e-07
9.5235e-07
9.50698e-07
9.49196e-07
9.47848e-07
9.46657e-07
9.45624e-07
9.44749e-07
9.4403e-07
9.43465e-07
9.43049e-07
9.42778e-07
9.42645e-07
9.54261e-07
9.5319e-07
9.51696e-07
9.49866e-07
9.47775e-07
9.45492e-07
9.43076e-07
9.40579e-07
9.38048e-07
9.35521e-07
9.33033e-07
9.30612e-07
9.28283e-07
9.26068e-07
9.23981e-07
9.22038e-07
9.20247e-07
9.18618e-07
9.17156e-07
9.15864e-07
9.14743e-07
9.13793e-07
9.13013e-07
9.12399e-07
9.11947e-07
9.11653e-07
9.11509e-07
9.23701e-07
9.22539e-07
9.20918e-07
9.18932e-07
9.16663e-07
9.14184e-07
9.1156e-07
9.08849e-07
9.06098e-07
9.03352e-07
9.00648e-07
8.98016e-07
8.95484e-07
8.93074e-07
8.90804e-07
8.8869e-07
8.86741e-07
8.84968e-07
8.83376e-07
8.81969e-07
8.80748e-07
8.79714e-07
8.78864e-07
8.78196e-07
8.77704e-07
8.77382e-07
8.77225e-07
8.90108e-07
8.88843e-07
8.87077e-07
8.84914e-07
8.82443e-07
8.79744e-07
8.76886e-07
8.73933e-07
8.70937e-07
8.67945e-07
8.64999e-07
8.62132e-07
8.59373e-07
8.56747e-07
8.54274e-07
8.51969e-07
8.49846e-07
8.47914e-07
8.46179e-07
8.44645e-07
8.43315e-07
8.42188e-07
8.41261e-07
8.40532e-07
8.39996e-07
8.39646e-07
8.39475e-07
8.53149e-07
8.5177e-07
8.49846e-07
8.47488e-07
8.44795e-07
8.41854e-07
8.3874e-07
8.35522e-07
8.32259e-07
8.29e-07
8.25791e-07
8.22669e-07
8.19666e-07
8.16807e-07
8.14115e-07
8.11607e-07
8.09296e-07
8.07193e-07
8.05306e-07
8.03637e-07
8.0219e-07
8.00964e-07
7.99956e-07
7.99163e-07
7.9858e-07
7.98199e-07
7.98013e-07
8.12557e-07
8.11057e-07
8.08963e-07
8.06399e-07
8.0347e-07
8.00271e-07
7.96887e-07
7.9339e-07
7.89844e-07
7.86305e-07
7.82821e-07
7.79432e-07
7.76173e-07
7.73072e-07
7.70152e-07
7.67433e-07
7.64929e-07
7.6265e-07
7.60605e-07
7.58798e-07
7.5723e-07
7.55903e-07
7.54812e-07
7.53954e-07
7.53322e-07
7.5291e-07
7.52709e-07
7.6817e-07
7.66544e-07
7.64276e-07
7.61499e-07
7.58328e-07
7.54867e-07
7.51206e-07
7.47425e-07
7.43593e-07
7.39771e-07
7.3601e-07
7.32353e-07
7.28838e-07
7.25495e-07
7.22349e-07
7.1942e-07
7.16724e-07
7.14272e-07
7.12072e-07
7.10129e-07
7.08444e-07
7.07017e-07
7.05845e-07
7.04924e-07
7.04246e-07
7.03803e-07
7.03587e-07
7.19964e-07
7.18215e-07
7.15775e-07
7.12789e-07
7.09382e-07
7.05665e-07
7.01735e-07
6.97679e-07
6.93572e-07
6.89478e-07
6.85451e-07
6.81539e-07
6.77782e-07
6.74211e-07
6.70852e-07
6.67727e-07
6.64852e-07
6.62239e-07
6.59896e-07
6.57827e-07
6.56034e-07
6.54516e-07
6.5327e-07
6.5229e-07
6.5157e-07
6.511e-07
6.50871e-07
6.68105e-07
6.66241e-07
6.63643e-07
6.60464e-07
6.5684e-07
6.52888e-07
6.48714e-07
6.4441e-07
6.40055e-07
6.35717e-07
6.31456e-07
6.27319e-07
6.23349e-07
6.19579e-07
6.16037e-07
6.12744e-07
6.09716e-07
6.06966e-07
6.04502e-07
6.02327e-07
6.00444e-07
5.98851e-07
5.97544e-07
5.96517e-07
5.95761e-07
5.95269e-07
5.95029e-07
6.12991e-07
6.1103e-07
6.08297e-07
6.04956e-07
6.0115e-07
5.97003e-07
5.92628e-07
5.8812e-07
5.83564e-07
5.79031e-07
5.74582e-07
5.70269e-07
5.66133e-07
5.6221e-07
5.58527e-07
5.55107e-07
5.51966e-07
5.49115e-07
5.46563e-07
5.44313e-07
5.42365e-07
5.40719e-07
5.39369e-07
5.38309e-07
5.3753e-07
5.37022e-07
5.36775e-07
5.5527e-07
5.53236e-07
5.50405e-07
5.46946e-07
5.43009e-07
5.38724e-07
5.34209e-07
5.29562e-07
5.24871e-07
5.20211e-07
5.15642e-07
5.11219e-07
5.06983e-07
5.0297e-07
4.99207e-07
4.95717e-07
4.92515e-07
4.89613e-07
4.87016e-07
4.8473e-07
4.82753e-07
4.81083e-07
4.79715e-07
4.78641e-07
4.77853e-07
4.7734e-07
4.7709e-07
4.9585e-07
4.93779e-07
4.90897e-07
4.8738e-07
4.8338e-07
4.79033e-07
4.74457e-07
4.69756e-07
4.65016e-07
4.60314e-07
4.55712e-07
4.51262e-07
4.47008e-07
4.42983e-07
4.39215e-07
4.35725e-07
4.32527e-07
4.29631e-07
4.27045e-07
4.2477e-07
4.22805e-07
4.21147e-07
4.1979e-07
4.18727e-07
4.17946e-07
4.17439e-07
4.17191e-07
4.35895e-07
4.33827e-07
4.30952e-07
4.27447e-07
4.23466e-07
4.19145e-07
4.14602e-07
4.09942e-07
4.05251e-07
4.00604e-07
3.96063e-07
3.9168e-07
3.87495e-07
3.83543e-07
3.79849e-07
3.76433e-07
3.73307e-07
3.70482e-07
3.67961e-07
3.65748e-07
3.63838e-07
3.62229e-07
3.60914e-07
3.59884e-07
3.5913e-07
3.58639e-07
3.58401e-07
3.76706e-07
3.74683e-07
3.71873e-07
3.68449e-07
3.64563e-07
3.60348e-07
3.5592e-07
3.51379e-07
3.46807e-07
3.42276e-07
3.37842e-07
3.33562e-07
3.29477e-07
3.25621e-07
3.22021e-07
3.18694e-07
3.15654e-07
3.12909e-07
3.10463e-07
3.08317e-07
3.06469e-07
3.04913e-07
3.03643e-07
3.02649e-07
3.01922e-07
3.0145e-07
3.01221e-07
3.19134e-07
3.17168e-07
3.14439e-07
3.11119e-07
3.07358e-07
3.03288e-07
2.99025e-07
2.94666e-07
2.90296e-07
2.85983e-07
2.81785e-07
2.77748e-07
2.7391e-07
2.70299e-07
2.66937e-07
2.6384e-07
2.61017e-07
2.58475e-07
2.56215e-07
2.54237e-07
2.52537e-07
2.51108e-07
2.49945e-07
2.49036e-07
2.48372e-07
2.47942e-07
2.47733e-07
2.64519e-07
2.62698e-07
2.60174e-07
2.57108e-07
2.53644e-07
2.49904e-07
2.45996e-07
2.42011e-07
2.38027e-07
2.34106e-07
2.30301e-07
2.26653e-07
2.23194e-07
2.19948e-07
2.16934e-07
2.14164e-07
2.11645e-07
2.09381e-07
2.07373e-07
2.05618e-07
2.04112e-07
2.02849e-07
2.01821e-07
2.01018e-07
2.00431e-07
2.0005e-07
1.99865e-07
2.1507e-07
2.13446e-07
2.11198e-07
2.08473e-07
2.05399e-07
2.02087e-07
1.98635e-07
1.95123e-07
1.91621e-07
1.88183e-07
1.84855e-07
1.81673e-07
1.78663e-07
1.75846e-07
1.73235e-07
1.70842e-07
1.68671e-07
1.66724e-07
1.65e-07
1.63497e-07
1.6221e-07
1.61131e-07
1.60255e-07
1.59572e-07
1.59073e-07
1.5875e-07
1.58595e-07
1.7193e-07
1.70529e-07
1.68591e-07
1.66245e-07
1.63604e-07
1.60764e-07
1.57809e-07
1.54811e-07
1.51827e-07
1.48906e-07
1.46085e-07
1.43394e-07
1.40854e-07
1.38483e-07
1.36292e-07
1.34287e-07
1.32472e-07
1.30848e-07