/*--------------------------------*- C++ -*----------------------------------*\
| =========                 |                                                 |
| \\      /  F ield         | OpenFOAM: The Open Source CFD Toolbox           |
|  \\    /   O peration     | Version:  2106                                  |
|   \\  /    A nd           | Website:  www.openfoam.com                      |
|    \\/     M anipulation  |                                                 |
\*---------------------------------------------------------------------------*/
FoamFile
{
    version     2.0;
    format      ascii;
    arch        "LSB;label=32;scalar=64";
    class       volScalarField;
    location    "90.00055";
    object      CH3CO_0;
}
// * * * * * * * * * * * * * * * * * * * * * * * * * * * * * * * * * * * * * //

dimensions      [0 0 0 0 0 0 0];

internalField   nonuniform List<scalar> 
3360
(
1.13147e-35
1.2086e-35
1.32035e-35
1.46408e-35
1.63769e-35
1.83898e-35
2.06541e-35
2.31392e-35
2.58098e-35
2.86257e-35
3.15429e-35
3.45154e-35
3.74957e-35
4.04373e-35
4.32951e-35
4.60273e-35
4.85965e-35
5.09702e-35
5.31216e-35
5.50304e-35
5.66828e-35
5.80719e-35
5.91971e-35
6.00643e-35
6.06851e-35
6.10764e-35
6.12595e-35
1.97216e-34
2.12482e-34
2.34982e-34
2.64576e-34
3.01299e-34
3.45234e-34
3.96433e-34
4.54863e-34
5.20364e-34
5.92614e-34
6.71114e-34
7.55166e-34
8.43866e-34
9.36112e-34
1.03062e-33
1.12594e-33
1.2205e-33
1.31266e-33
1.40074e-33
1.48309e-33
1.55815e-33
1.62454e-33
1.68108e-33
1.72686e-33
1.76126e-33
1.78401e-33
1.79519e-33
1.91303e-33
2.08946e-33
2.35328e-33
2.70656e-33
3.15373e-33
3.69975e-33
4.34884e-33
5.10342e-33
5.96323e-33
6.92465e-33
7.9802e-33
9.11867e-33
1.0325e-32
1.15807e-32
1.28642e-32
1.41519e-32
1.54192e-32
1.66411e-32
1.77939e-32
1.8856e-32
1.98087e-32
2.06369e-32
2.13297e-32
2.18805e-32
2.22871e-32
2.25514e-32
2.26791e-32
1.62276e-32
1.79201e-32
2.04825e-32
2.39622e-32
2.84319e-32
3.39691e-32
4.0641e-32
4.8491e-32
5.75276e-32
6.77158e-32
7.89712e-32
9.1159e-32
1.04096e-31
1.17558e-31
1.31286e-31
1.45002e-31
1.58424e-31
1.71277e-31
1.83308e-31
1.94297e-31
2.04065e-31
2.12478e-31
2.19451e-31
2.24946e-31
2.28968e-31
2.31562e-31
2.32807e-31
1.38694e-31
1.54296e-31
1.78055e-31
2.10547e-31
2.52584e-31
3.05015e-31
3.68565e-31
4.437e-31
5.30502e-31
6.28591e-31
7.37066e-31
8.54511e-31
9.79033e-31
1.10834e-30
1.23986e-30
1.37088e-30
1.49866e-30
1.62059e-30
1.73434e-30
1.8379e-30
1.92964e-30
2.00844e-30
2.07356e-30
2.12476e-30
2.16215e-30
2.18622e-30
2.19775e-30
1.20602e-30
1.34722e-30
1.56295e-30
1.85898e-30
2.24322e-30
2.72386e-30
3.30785e-30
3.99961e-30
4.79985e-30
5.70485e-30
6.70596e-30
7.78967e-30
8.93799e-30
1.01294e-29
1.13397e-29
1.25437e-29
1.37161e-29
1.48333e-29
1.58737e-29
1.68193e-29
1.76558e-29
1.83731e-29
1.89652e-29
1.94301e-29
1.97692e-29
1.99873e-29
2.00917e-29
1.0625e-29
1.18961e-29
1.38405e-29
1.65124e-29
1.99848e-29
2.4333e-29
2.96202e-29
3.58853e-29
4.31335e-29
5.13286e-29
6.03898e-29
7.01922e-29
8.05709e-29
9.13292e-29
1.02249e-28
1.13101e-28
1.23659e-28
1.33711e-28
1.43065e-28
1.5156e-28
1.5907e-28
1.65506e-28
1.70816e-28
1.74982e-28
1.78021e-28
1.79974e-28
1.80908e-28
9.40622e-29
1.0541e-28
1.22782e-28
1.46671e-28
1.77738e-28
2.16658e-28
2.63997e-28
3.20097e-28
3.84994e-28
4.58349e-28
5.39423e-28
6.27081e-28
7.19833e-28
8.15908e-28
9.13345e-28
1.0101e-27
1.10416e-27
1.19362e-27
1.2768e-27
1.35227e-27
1.41893e-27
1.476e-27
1.52304e-27
1.55991e-27
1.58677e-27
1.60402e-27
1.61226e-27
8.34463e-28
9.35474e-28
1.09008e-27
1.30262e-27
1.57892e-27
1.92487e-27
2.34534e-27
2.84319e-27
3.41852e-27
4.06809e-27
4.78513e-27
5.55941e-27
6.37761e-27
7.224e-27
8.08125e-27
8.93138e-27
9.7567e-27
1.05407e-26
1.12686e-26
1.19282e-26
1.25101e-26
1.30075e-26
1.3417e-26
1.37374e-26
1.39704e-26
1.41197e-26
1.41908e-26
7.36746e-27
8.25763e-27
9.61951e-27
1.14903e-26
1.39199e-26
1.69584e-26
2.06462e-26
2.50059e-26
3.00355e-26
3.57036e-26
4.19484e-26
4.8678e-26
5.57743e-26
6.30991e-26
7.05014e-26
7.78256e-26
8.49195e-26
9.16418e-26
9.78683e-26
1.03496e-25
1.08446e-25
1.12666e-25
1.16128e-25
1.18828e-25
1.20784e-25
1.22031e-25
1.22622e-25
6.45482e-26
7.23007e-26
8.41443e-26
1.00384e-25
1.21427e-25
1.47677e-25
1.79446e-25
2.16886e-25
2.59934e-25
3.08279e-25
3.61348e-25
4.18322e-25
4.78172e-25
5.39709e-25
6.01653e-25
6.62698e-25
7.21583e-25
7.77151e-25
8.28398e-25
8.74509e-25
9.14874e-25
9.49105e-25
9.77023e-25
9.98653e-25
1.0142e-24
1.02403e-24
1.02864e-24
5.56593e-25
6.22605e-25
7.23225e-25
8.60776e-25
1.03836e-24
1.25895e-24
1.52466e-24
1.83623e-24
2.19253e-24
2.59041e-24
3.0246e-24
3.48793e-24
3.97162e-24
4.46579e-24
4.96e-24
5.44381e-24
5.90731e-24
6.34162e-24
6.73919e-24
7.09407e-24
7.40209e-24
7.66083e-24
7.86961e-24
8.02936e-24
8.14252e-24
8.2128e-24
8.24504e-24
4.68314e-24
5.22709e-24
6.053e-24
7.17635e-24
8.61785e-24
1.0396e-23
1.25216e-23
1.49934e-23
1.77956e-23
2.08961e-23
2.42477e-23
2.77894e-23
3.14501e-23
3.5152e-23
3.88159e-23
4.23644e-23
4.57266e-23
4.88408e-23
5.16567e-23
5.41372e-23
5.62589e-23
5.80119e-23
5.93994e-23
6.0437e-23
6.11513e-23
6.15791e-23
6.17662e-23
3.78724e-23
4.21249e-23
4.85446e-23
5.72096e-23
6.82268e-23
8.16753e-23
9.75666e-23
1.15818e-22
1.36236e-22
1.58518e-22
1.82262e-22
2.06985e-22
2.32152e-22
2.57209e-22
2.81612e-22
3.04856e-22
3.26498e-22
3.46174e-22
3.63611e-22
3.78633e-22
3.91158e-22
4.01201e-22
4.08864e-22
4.14332e-22
4.17869e-22
4.19808e-22
4.20547e-22
2.89143e-22
3.1996e-22
3.66073e-22
4.27604e-22
5.0477e-22
5.97506e-22
7.05219e-22
8.26661e-22
9.59892e-22
1.10234e-21
1.25095e-21
1.40232e-21
1.55295e-21
1.69946e-21
1.8387e-21
1.96795e-21
2.08504e-21
2.18834e-21
2.27684e-21
2.35015e-21
2.40844e-21
2.45243e-21
2.48336e-21
2.50292e-21
2.51328e-21
2.51704e-21
2.51721e-21
2.03021e-21
2.22999e-21
2.52523e-21
2.91276e-21
3.38934e-21
3.94948e-21
4.58438e-21
5.28165e-21
6.02563e-21
6.79824e-21
7.58005e-21
8.35157e-21
9.09435e-21
9.79196e-21
1.04307e-20
1.10001e-20
1.14931e-20
1.19058e-20
1.22376e-20
1.2491e-20
1.26708e-20
1.27848e-20
1.28426e-20
1.28562e-20
1.28398e-20
1.28097e-20
1.27842e-20
1.27072e-20
1.38165e-20
1.54272e-20
1.74936e-20
1.99664e-20
2.27839e-20
2.58706e-20
2.91383e-20
3.24913e-20
3.58323e-20
3.90685e-20
4.21171e-20
4.49091e-20
4.73917e-20
4.9529e-20
5.13016e-20
5.27055e-20
5.375e-20
5.4456e-20
5.48545e-20
5.49848e-20
5.48942e-20
5.46371e-20
5.42754e-20
5.38784e-20
5.3524e-20
5.32986e-20
6.82715e-20
7.3253e-20
8.03162e-20
8.90997e-20
9.92262e-20
1.10286e-19
1.21846e-19
1.33474e-19
1.44762e-19
1.55352e-19
1.64953e-19
1.7335e-19
1.80407e-19
1.86058e-19
1.90302e-19
1.93192e-19
1.94819e-19
1.95308e-19
1.94808e-19
1.93482e-19
1.91513e-19
1.89095e-19
1.86437e-19
1.83766e-19
1.81329e-19
1.79398e-19
1.78269e-19
3.02597e-19
3.19453e-19
3.426e-19
3.70195e-19
4.00428e-19
4.31549e-19
4.61961e-19
4.90301e-19
5.15501e-19
5.36817e-19
5.53819e-19
5.66358e-19
5.74516e-19
5.78549e-19
5.78836e-19
5.75832e-19
5.70035e-19
5.61962e-19
5.52136e-19
5.41078e-19
5.29314e-19
5.17375e-19
5.05813e-19
4.9521e-19
4.86188e-19
4.7942e-19
4.75638e-19
1.06955e-18
1.10879e-18
1.1603e-18
1.21804e-18
1.27656e-18
1.33126e-18
1.37859e-18
1.4162e-18
1.44281e-18
1.45811e-18
1.4625e-18
1.45692e-18
1.4426e-18
1.42094e-18
1.39334e-18
1.36119e-18
1.32576e-18
1.28826e-18
1.24977e-18
1.21134e-18
1.17395e-18
1.13857e-18
1.10621e-18
1.07791e-18
1.05479e-18
1.03804e-18
1.02897e-18
2.97163e-18
3.02573e-18
3.09088e-18
3.15494e-18
3.20802e-18
3.2432e-18
3.25664e-18
3.24721e-18
3.21588e-18
3.16503e-18
3.0978e-18
3.01763e-18
2.92789e-18
2.83167e-18
2.7317e-18
2.63032e-18
2.52952e-18
2.43102e-18
2.33628e-18
2.24663e-18
2.16334e-18
2.08765e-18
2.02082e-18
1.96421e-18
1.91929e-18
1.88761e-18
1.87086e-18
6.6036e-18
6.6264e-18
6.63926e-18
6.62743e-18
6.58072e-18
6.49438e-18
6.36865e-18
6.20748e-18
6.01716e-18
5.80497e-18
5.57817e-18
5.34338e-18
5.10619e-18
4.87109e-18
4.64146e-18
4.41984e-18
4.20824e-18
4.00835e-18
3.82168e-18
3.64965e-18
3.49366e-18
3.35513e-18
3.23556e-18
3.13651e-18
3.0596e-18
3.00655e-18
2.97912e-18
1.23117e-17
1.22567e-17
1.21568e-17
1.20011e-17
1.1783e-17
1.15003e-17
1.11553e-17
1.07557e-17
1.03131e-17
9.84202e-18
9.3592e-18
8.88281e-18
8.43238e-18
8.02873e-18
7.6748e-18
7.3595e-18
7.07555e-18
6.81832e-18
6.58505e-18
6.37433e-18
6.18575e-18
6.01965e-18
5.87696e-18
5.75904e-18
5.66761e-18
5.60457e-18
5.572e-18
2.02819e-17
2.01353e-17
1.99344e-17
1.97234e-17
1.95898e-17
1.95402e-17
1.95214e-17
1.95075e-17
1.94869e-17
1.94552e-17
1.94109e-17
1.93538e-17
1.9284e-17
1.92013e-17
1.91055e-17
1.89965e-17
1.88752e-17
1.87428e-17
1.8602e-17
1.84558e-17
1.83084e-17
1.81646e-17
1.80296e-17
1.79094e-17
1.78099e-17
1.77374e-17
1.76982e-17
3.96102e-17
4.04615e-17
4.16264e-17
4.30221e-17
4.45796e-17
4.62379e-17
4.79441e-17
4.96538e-17
5.13287e-17
5.29331e-17
5.44332e-17
5.57968e-17
5.69953e-17
5.80059e-17
5.88145e-17
5.94168e-17
5.98193e-17
6.00377e-17
6.00961e-17
6.00238e-17
5.98535e-17
5.9619e-17
5.93538e-17
5.90895e-17
5.88552e-17
5.8677e-17
5.85781e-17
1.07333e-16
1.10879e-16
1.15709e-16
1.21419e-16
1.27622e-16
1.33955e-16
1.40091e-16
1.45758e-16
1.50755e-16
1.54963e-16
1.58336e-16
1.60891e-16
1.62686e-16
1.63802e-16
1.64334e-16
1.64378e-16
1.64026e-16
1.6337e-16
1.62493e-16
1.61474e-16
1.60388e-16
1.59302e-16
1.58279e-16
1.57375e-16
1.56639e-16
1.56113e-16
1.55835e-16
3.02741e-16
3.10913e-16
3.21942e-16
3.34875e-16
3.489e-16
3.63345e-16
3.77675e-16
3.91479e-16
4.04446e-16
4.16368e-16
4.27114e-16
4.36611e-16
4.44831e-16
4.51789e-16
4.57529e-16
4.62122e-16
4.65661e-16
4.68255e-16
4.70024e-16
4.71097e-16
4.71606e-16
4.71684e-16
4.71462e-16
4.71066e-16
4.70615e-16
4.70218e-16
4.69975e-16
7.52237e-16
7.78426e-16
8.15078e-16
8.60162e-16
9.11919e-16
9.68788e-16
1.02938e-15
1.09243e-15
1.15684e-15
1.22158e-15
1.28576e-15
1.34856e-15
1.40927e-15
1.46728e-15
1.52204e-15
1.57312e-15
1.62015e-15
1.66285e-15
1.70104e-15
1.73459e-15
1.76346e-15
1.78768e-15
1.80735e-15
1.82261e-15
1.83365e-15
1.84073e-15
1.84412e-15
1.94849e-15
2.04732e-15
2.18937e-15
2.37028e-15
2.58666e-15
2.83559e-15
3.11432e-15
3.42004e-15
3.74977e-15
4.10023e-15
4.4678e-15
4.84847e-15
5.23789e-15
5.63137e-15
6.02399e-15
6.41071e-15
6.78636e-15
7.14584e-15
7.4841e-15
7.79642e-15
8.07847e-15
8.32645e-15
8.53719e-15
8.70816e-15
8.8375e-15
8.92403e-15
8.96725e-15
5.47674e-15
5.84037e-15
6.37328e-15
7.06858e-15
7.92371e-15
8.93771e-15
1.01096e-14
1.14369e-14
1.29151e-14
1.45356e-14
1.6286e-14
1.81498e-14
2.01065e-14
2.21319e-14
2.4198e-14
2.62745e-14
2.83291e-14
3.03284e-14
3.22393e-14
3.40293e-14
3.56681e-14
3.71275e-14
3.83833e-14
3.94139e-14
4.02023e-14
4.07353e-14
4.10041e-14
1.66036e-14
1.78006e-14
1.95632e-14
2.18774e-14
2.47421e-14
2.81602e-14
3.21316e-14
3.6649e-14
4.1694e-14
4.72349e-14
5.32253e-14
5.96039e-14
6.6295e-14
7.32099e-14
8.02496e-14
8.73073e-14
9.42712e-14
1.01028e-13
1.07465e-13
1.13476e-13
1.18961e-13
1.23827e-13
1.27998e-13
1.31412e-13
1.34018e-13
1.35778e-13
1.36664e-13
4.93229e-14
5.24354e-14
5.69817e-14
6.28861e-14
7.01008e-14
7.85819e-14
8.82761e-14
9.91119e-14
1.10993e-13
1.23798e-13
1.37376e-13
1.51554e-13
1.66136e-13
1.80914e-13
1.95682e-13
2.10237e-13
2.24374e-13
2.37895e-13
2.50612e-13
2.62347e-13
2.72941e-13
2.82257e-13
2.90179e-13
2.96617e-13
3.015e-13
3.04775e-13
3.06416e-13
1.23617e-13
1.29417e-13
1.37753e-13
1.48357e-13
1.60999e-13
1.75455e-13
1.91494e-13
2.08904e-13
2.27453e-13
2.4689e-13
2.66948e-13
2.87355e-13
3.07839e-13
3.28125e-13
3.47961e-13
3.67105e-13
3.85336e-13
4.02454e-13
4.18271e-13
4.32631e-13
4.45403e-13
4.56482e-13
4.65787e-13
4.73259e-13
4.7887e-13
4.82602e-13
4.84456e-13
2.39885e-13
2.47238e-13
2.57635e-13
2.70584e-13
2.85651e-13
3.02431e-13
3.20543e-13
3.39628e-13
3.59346e-13
3.79383e-13
3.99445e-13
4.1927e-13
4.3862e-13
4.5729e-13
4.75101e-13
4.91901e-13
5.07564e-13
5.21987e-13
5.35075e-13
5.46763e-13
5.57005e-13
5.65771e-13
5.73045e-13
5.78822e-13
5.83117e-13
5.85949e-13
5.87347e-13
3.62079e-13
3.68447e-13
3.77298e-13
3.88081e-13
4.00308e-13
4.13545e-13
4.27408e-13
4.41568e-13
4.55745e-13
4.69708e-13
4.83271e-13
4.96289e-13
5.0865e-13
5.20271e-13
5.31096e-13
5.41085e-13
5.50215e-13
5.58473e-13
5.65857e-13
5.72358e-13
5.77984e-13
5.82749e-13
5.86665e-13
5.89753e-13
5.9203e-13
5.93523e-13
5.94256e-13
4.41467e-13
4.44921e-13
4.49626e-13
4.55206e-13
4.61337e-13
4.67743e-13
4.74198e-13
4.80531e-13
4.86613e-13
4.92359e-13
4.97714e-13
5.02652e-13
5.07166e-13
5.1126e-13
5.14952e-13
5.1826e-13
5.21207e-13
5.23815e-13
5.26105e-13
5.28096e-13
5.29803e-13
5.3124e-13
5.3242e-13
5.33353e-13
5.34045e-13
5.34501e-13
5.34725e-13
4.55698e-13
4.56183e-13
4.56767e-13
4.57341e-13
4.57812e-13
4.58115e-13
4.58211e-13
4.58085e-13
4.57742e-13
4.57204e-13
4.56504e-13
4.5568e-13
4.5477e-13
4.53815e-13
4.52848e-13
4.51903e-13
4.51003e-13
4.50169e-13
4.49416e-13
4.48752e-13
4.48184e-13
4.47712e-13
4.47335e-13
4.47047e-13
4.46844e-13
4.46717e-13
4.46658e-13
4.16829e-13
4.15438e-13
4.1346e-13
4.10984e-13
4.08092e-13
4.04865e-13
4.01385e-13
3.97733e-13
3.93985e-13
3.90214e-13
3.86487e-13
3.8286e-13
3.79382e-13
3.76095e-13
3.73028e-13
3.70205e-13
3.67641e-13
3.65346e-13
3.63321e-13
3.61565e-13
3.60072e-13
3.58833e-13
3.57837e-13
3.57071e-13
3.56519e-13
3.56167e-13
3.55999e-13
3.51005e-13
3.48882e-13
3.45926e-13
3.42318e-13
3.38219e-13
3.33773e-13
3.29111e-13
3.24346e-13
3.19578e-13
3.14889e-13
3.10348e-13
3.06012e-13
3.01921e-13
2.98109e-13
2.94596e-13
2.91397e-13
2.88516e-13
2.85956e-13
2.83711e-13
2.81772e-13
2.8013e-13
2.78771e-13
2.77679e-13
2.76839e-13
2.76234e-13
2.75848e-13
2.75663e-13
2.8026e-13
2.78131e-13
2.75186e-13
2.7162e-13
2.67607e-13
2.63297e-13
2.58823e-13
2.54295e-13
2.49806e-13
2.45431e-13
2.4123e-13
2.37248e-13
2.33519e-13
2.30064e-13
2.26899e-13
2.24029e-13
2.21457e-13
2.19178e-13
2.17186e-13
2.15471e-13
2.14021e-13
2.12822e-13
2.11861e-13
2.11122e-13
2.1059e-13
2.1025e-13
2.10088e-13
2.16899e-13
2.15083e-13
2.12578e-13
2.09559e-13
2.06174e-13
2.02557e-13
1.9882e-13
1.95056e-13
1.91342e-13
1.87739e-13
1.84293e-13
1.8104e-13
1.78003e-13
1.752e-13
1.72639e-13
1.70323e-13
1.68252e-13
1.66421e-13
1.64823e-13
1.63449e-13
1.62289e-13
1.61331e-13
1.60564e-13
1.59974e-13
1.5955e-13
1.59279e-13
1.5915e-13
1.65349e-13
1.63921e-13
1.61955e-13
1.59589e-13
1.56944e-13
1.54123e-13
1.51216e-13
1.48295e-13
1.4542e-13
1.42638e-13
1.39983e-13
1.37481e-13
1.35151e-13
1.33003e-13
1.31043e-13
1.29275e-13
1.27695e-13
1.263e-13
1.25083e-13
1.24039e-13
1.23157e-13
1.2243e-13
1.21847e-13
1.214e-13
1.21078e-13
1.20873e-13
1.20775e-13
1.25635e-13
1.2456e-13
1.23081e-13
1.21302e-13
1.19316e-13
1.17201e-13
1.15024e-13
1.1284e-13
1.10692e-13
1.08616e-13
1.06637e-13
1.04774e-13
1.03041e-13
1.01445e-13
9.99899e-14
9.86776e-14
9.75062e-14
9.64725e-14
9.55719e-14
9.47987e-14
9.41465e-14
9.36086e-14
9.3178e-14
9.28475e-14
9.261e-14
9.24585e-14
9.23861e-14
9.59664e-14
9.51748e-14
9.40861e-14
9.27777e-14
9.1317e-14
8.97624e-14
8.8163e-14
8.65591e-14
8.49832e-14
8.34603e-14
8.20097e-14
8.06449e-14
7.93753e-14
7.82068e-14
7.71421e-14
7.6182e-14
7.53254e-14
7.45696e-14
7.39113e-14
7.33463e-14
7.28699e-14
7.24771e-14
7.21627e-14
7.19214e-14
7.17481e-14
7.16376e-14
7.15847e-14
7.41588e-14
7.35815e-14
7.27876e-14
7.18336e-14
7.07687e-14
6.96355e-14
6.84697e-14
6.73009e-14
6.61525e-14
6.5043e-14
6.39862e-14
6.2992e-14
6.20672e-14
6.12162e-14
6.04408e-14
5.97417e-14
5.91179e-14
5.85677e-14
5.80884e-14
5.76771e-14
5.73304e-14
5.70445e-14
5.68157e-14
5.66401e-14
5.6514e-14
5.64336e-14
5.63952e-14
5.82378e-14
5.78176e-14
5.72396e-14
5.6545e-14
5.57696e-14
5.49443e-14
5.40953e-14
5.32438e-14
5.24072e-14
5.15988e-14
5.08286e-14
5.01039e-14
4.94298e-14
4.88093e-14
4.82439e-14
4.77341e-14
4.72791e-14
4.68778e-14
4.65282e-14
4.62281e-14
4.59752e-14
4.57666e-14
4.55997e-14
4.54716e-14
4.53796e-14
4.53209e-14
4.52929e-14
4.6622e-14
4.63151e-14
4.58929e-14
4.53854e-14
4.48188e-14
4.42155e-14
4.35947e-14
4.29719e-14
4.23597e-14
4.1768e-14
4.12041e-14
4.06733e-14
4.01794e-14
3.97246e-14
3.93102e-14
3.89363e-14
3.86026e-14
3.83081e-14
3.80516e-14
3.78314e-14
3.76457e-14
3.74926e-14
3.737e-14
3.7276e-14
3.72084e-14
3.71653e-14
3.71447e-14
3.81179e-14
3.78922e-14
3.75818e-14
3.72086e-14
3.67916e-14
3.63476e-14
3.58904e-14
3.54316e-14
3.49804e-14
3.4544e-14
3.4128e-14
3.37362e-14
3.33715e-14
3.30355e-14
3.27292e-14
3.24527e-14
3.22059e-14
3.1988e-14
3.17981e-14
3.16351e-14
3.14975e-14
3.13841e-14
3.12933e-14
3.12236e-14
3.11735e-14
3.11416e-14
3.11263e-14
3.18528e-14
3.16855e-14
3.14552e-14
3.11782e-14
3.08687e-14
3.05389e-14
3.01991e-14
2.98579e-14
2.95222e-14
2.91974e-14
2.88875e-14
2.85955e-14
2.83235e-14
2.80728e-14
2.7844e-14
2.76375e-14
2.74531e-14
2.72901e-14
2.71481e-14
2.70261e-14
2.69231e-14
2.68382e-14
2.67701e-14
2.67179e-14
2.66803e-14
2.66564e-14
2.66449e-14
2.71995e-14
2.70741e-14
2.69015e-14
2.66938e-14
2.64616e-14
2.6214e-14
2.59588e-14
2.57024e-14
2.54499e-14
2.52054e-14
2.4972e-14
2.47519e-14
2.45467e-14
2.43575e-14
2.41848e-14
2.40287e-14
2.38892e-14
2.3766e-14
2.36584e-14
2.3566e-14
2.3488e-14
2.34236e-14
2.3372e-14
2.33323e-14
2.33038e-14
2.32856e-14
2.32769e-14
2.37103e-14
2.36152e-14
2.34844e-14
2.33268e-14
2.31506e-14
2.29626e-14
2.27686e-14
2.25736e-14
2.23814e-14
2.21952e-14
2.20172e-14
2.18493e-14
2.16927e-14
2.15481e-14
2.1416e-14
2.12966e-14
2.11898e-14
2.10953e-14
2.10128e-14
2.09419e-14
2.0882e-14
2.08325e-14
2.07928e-14
2.07623e-14
2.07404e-14
2.07264e-14
2.07197e-14
2.10664e-14
2.09935e-14
2.08931e-14
2.07721e-14
2.06367e-14
2.04921e-14
2.03429e-14
2.01927e-14
2.00445e-14
1.99009e-14
1.97635e-14
1.96337e-14
1.95125e-14
1.94006e-14
1.92983e-14
1.92056e-14
1.91227e-14
1.90493e-14
1.89852e-14
1.893e-14
1.88834e-14
1.88448e-14
1.88139e-14
1.87901e-14
1.8773e-14
1.87621e-14
1.87568e-14
1.90407e-14
1.89841e-14
1.8906e-14
1.88119e-14
1.87065e-14
1.85939e-14
1.84775e-14
1.83603e-14
1.82446e-14
1.81323e-14
1.80248e-14
1.79232e-14
1.78282e-14
1.77403e-14
1.76599e-14
1.75871e-14
1.75219e-14
1.74641e-14
1.74135e-14
1.737e-14
1.73331e-14
1.73027e-14
1.72782e-14
1.72594e-14
1.72458e-14
1.72372e-14
1.7233e-14
1.74705e-14
1.74259e-14
1.73644e-14
1.72902e-14
1.72071e-14
1.71182e-14
1.70263e-14
1.69336e-14
1.6842e-14
1.6753e-14
1.66678e-14
1.65871e-14
1.65116e-14
1.64417e-14
1.63776e-14
1.63196e-14
1.62675e-14
1.62213e-14
1.61809e-14
1.6146e-14
1.61165e-14
1.60921e-14
1.60724e-14
1.60573e-14
1.60464e-14
1.60395e-14
1.60361e-14
1.62388e-14
1.62033e-14
1.61542e-14
1.60949e-14
1.60284e-14
1.59573e-14
1.58837e-14
1.58094e-14
1.57359e-14
1.56644e-14
1.55959e-14
1.55309e-14
1.547e-14
1.54136e-14
1.53619e-14
1.53149e-14
1.52728e-14
1.52353e-14
1.52025e-14
1.51742e-14
1.51503e-14
1.51304e-14
1.51144e-14
1.51021e-14
1.50932e-14
1.50875e-14
1.50847e-14
1.52609e-14
1.52322e-14
1.51924e-14
1.51445e-14
1.50906e-14
1.50329e-14
1.49732e-14
1.49128e-14
1.4853e-14
1.47948e-14
1.47388e-14
1.46858e-14
1.4636e-14
1.45899e-14
1.45475e-14
1.4509e-14
1.44744e-14
1.44436e-14
1.44166e-14
1.43933e-14
1.43735e-14
1.43571e-14
1.43439e-14
1.43337e-14
1.43263e-14
1.43216e-14
1.43193e-14
1.44749e-14
1.44513e-14
1.44187e-14
1.43794e-14
1.43351e-14
1.42877e-14
1.42385e-14
1.41888e-14
1.41395e-14
1.40914e-14
1.40451e-14
1.40012e-14
1.396e-14
1.39217e-14
1.38865e-14
1.38544e-14
1.38256e-14
1.37999e-14
1.37774e-14
1.37579e-14
1.37414e-14
1.37276e-14
1.37165e-14
1.3708e-14
1.37018e-14
1.36978e-14
1.36959e-14
1.38353e-14
1.38157e-14
1.37886e-14
1.37558e-14
1.3719e-14
1.36794e-14
1.36384e-14
1.35969e-14
1.35556e-14
1.35154e-14
1.34766e-14
1.34397e-14
1.34051e-14
1.33729e-14
1.33432e-14
1.33161e-14
1.32918e-14
1.32701e-14
1.3251e-14
1.32345e-14
1.32204e-14
1.32087e-14
1.31993e-14
1.3192e-14
1.31867e-14
1.31834e-14
1.31817e-14
1.33081e-14
1.32915e-14
1.32687e-14
1.32411e-14
1.321e-14
1.31766e-14
1.31419e-14
1.31067e-14
1.30717e-14
1.30376e-14
1.30046e-14
1.29732e-14
1.29437e-14
1.29162e-14
1.28909e-14
1.28677e-14
1.28469e-14
1.28282e-14
1.28118e-14
1.27976e-14
1.27855e-14
1.27755e-14
1.27673e-14
1.2761e-14
1.27565e-14
1.27535e-14
1.27521e-14
1.28679e-14
1.28538e-14
1.28343e-14
1.28107e-14
1.2784e-14
1.27554e-14
1.27257e-14
1.26955e-14
1.26654e-14
1.2636e-14
1.26076e-14
1.25805e-14
1.2555e-14
1.25312e-14
1.25092e-14
1.24892e-14
1.2471e-14
1.24548e-14
1.24405e-14
1.24281e-14
1.24176e-14
1.24088e-14
1.24016e-14
1.23961e-14
1.23921e-14
1.23896e-14
1.23883e-14
1.24954e-14
1.24832e-14
1.24663e-14
1.24458e-14
1.24227e-14
1.23979e-14
1.2372e-14
1.23457e-14
1.23195e-14
1.22938e-14
1.2269e-14
1.22453e-14
1.22229e-14
1.2202e-14
1.21827e-14
1.2165e-14
1.2149e-14
1.21348e-14
1.21221e-14
1.21112e-14
1.21018e-14
1.2094e-14
1.20877e-14
1.20828e-14
1.20792e-14
1.20769e-14
1.20758e-14
1.21757e-14
1.2165e-14
1.21501e-14
1.21321e-14
1.21118e-14
1.20899e-14
1.20671e-14
1.20438e-14
1.20207e-14
1.19979e-14
1.19759e-14
1.19549e-14
1.1935e-14
1.19164e-14
1.18991e-14
1.18834e-14
1.18691e-14
1.18563e-14
1.1845e-14
1.18351e-14
1.18267e-14
1.18197e-14
1.1814e-14
1.18095e-14
1.18063e-14
1.18043e-14
1.18033e-14
1.18972e-14
1.18876e-14
1.18744e-14
1.18583e-14
1.18402e-14
1.18206e-14
1.18001e-14
1.17793e-14
1.17585e-14
1.17381e-14
1.17183e-14
1.16993e-14
1.16814e-14
1.16646e-14
1.1649e-14
1.16347e-14
1.16217e-14
1.16101e-14
1.15998e-14
1.15908e-14
1.15831e-14
1.15767e-14
1.15715e-14
1.15674e-14
1.15645e-14
1.15626e-14
1.15617e-14
1.16506e-14
1.1642e-14
1.163e-14
1.16154e-14
1.1599e-14
1.15812e-14
1.15627e-14
1.15437e-14
1.15248e-14
1.15061e-14
1.1488e-14
1.14707e-14
1.14542e-14
1.14388e-14
1.14245e-14
1.14113e-14
1.13993e-14
1.13886e-14
1.13791e-14
1.13708e-14
1.13637e-14
1.13577e-14
1.13529e-14
1.13491e-14
1.13464e-14
1.13446e-14
1.13437e-14
1.14286e-14
1.14207e-14
1.14097e-14
1.13963e-14
1.13811e-14
1.13647e-14
1.13476e-14
1.13301e-14
1.13126e-14
1.12953e-14
1.12785e-14
1.12623e-14
1.1247e-14
1.12326e-14
1.12193e-14
1.1207e-14
1.11958e-14
1.11857e-14
1.11768e-14
1.1169e-14
1.11623e-14
1.11567e-14
1.11521e-14
1.11485e-14
1.11459e-14
1.11443e-14
1.11435e-14
1.1225e-14
1.12176e-14
1.12073e-14
1.11948e-14
1.11806e-14
1.11653e-14
1.11492e-14
1.11328e-14
1.11163e-14
1.11e-14
1.10841e-14
1.10689e-14
1.10544e-14
1.10408e-14
1.10281e-14
1.10164e-14
1.10057e-14
1.09961e-14
1.09876e-14
1.09802e-14
1.09738e-14
1.09684e-14
1.0964e-14
1.09606e-14
1.09581e-14
1.09565e-14
1.09557e-14
1.10348e-14
1.10277e-14
1.10179e-14
1.1006e-14
1.09925e-14
1.09779e-14
1.09626e-14
1.09469e-14
1.09311e-14
1.09155e-14
1.09003e-14
1.08856e-14
1.08717e-14
1.08586e-14
1.08463e-14
1.0835e-14
1.08247e-14
1.08154e-14
1.08071e-14
1.07999e-14
1.07937e-14
1.07884e-14
1.07842e-14
1.07808e-14
1.07784e-14
1.07768e-14
1.07761e-14
1.08533e-14
1.08465e-14
1.08371e-14
1.08256e-14
1.08125e-14
1.07983e-14
1.07834e-14
1.07682e-14
1.07528e-14
1.07376e-14
1.07228e-14
1.07085e-14
1.06948e-14
1.06819e-14
1.06699e-14
1.06588e-14
1.06487e-14
1.06395e-14
1.06314e-14
1.06242e-14
1.06181e-14
1.06129e-14
1.06087e-14
1.06054e-14
1.06029e-14
1.06014e-14
1.06006e-14
1.06767e-14
1.06701e-14
1.06608e-14
1.06495e-14
1.06366e-14
1.06226e-14
1.06079e-14
1.05928e-14
1.05776e-14
1.05626e-14
1.05478e-14
1.05336e-14
1.052e-14
1.05072e-14
1.04952e-14
1.04841e-14
1.0474e-14
1.04648e-14
1.04566e-14
1.04495e-14
1.04433e-14
1.04381e-14
1.04338e-14
1.04305e-14
1.0428e-14
1.04265e-14
1.04257e-14
1.05015e-14
1.04948e-14
1.04855e-14
1.04742e-14
1.04613e-14
1.04473e-14
1.04325e-14
1.04173e-14
1.0402e-14
1.03869e-14
1.0372e-14
1.03576e-14
1.03439e-14
1.03309e-14
1.03187e-14
1.03075e-14
1.02971e-14
1.02878e-14
1.02795e-14
1.02722e-14
1.02658e-14
1.02605e-14
1.02562e-14
1.02528e-14
1.02503e-14
1.02486e-14
1.02479e-14
1.0324e-14
1.03172e-14
1.03078e-14
1.02963e-14
1.02832e-14
1.02689e-14
1.02538e-14
1.02383e-14
1.02227e-14
1.02071e-14
1.01919e-14
1.01771e-14
1.0163e-14
1.01497e-14
1.01371e-14
1.01255e-14
1.01149e-14
1.01052e-14
1.00966e-14
1.0089e-14
1.00825e-14
1.00769e-14
1.00724e-14
1.00689e-14
1.00663e-14
1.00646e-14
1.00638e-14
1.01412e-14
1.01342e-14
1.01244e-14
1.01125e-14
1.00989e-14
1.00842e-14
1.00686e-14
1.00525e-14
1.00363e-14
1.00201e-14
1.00042e-14
9.98888e-15
9.97416e-15
9.9602e-15
9.9471e-15
9.93495e-15
9.9238e-15
9.91369e-15
9.90465e-15
9.89669e-15
9.88981e-15
9.884e-15
9.87925e-15
9.87552e-15
9.87279e-15
9.87102e-15
9.87015e-15
9.94962e-15
9.9423e-15
9.9321e-15
9.91962e-15
9.90539e-15
9.88988e-15
9.8735e-15
9.8566e-15
9.83952e-15
9.8225e-15
9.80579e-15
9.78958e-15
9.77402e-15
9.75926e-15
9.7454e-15
9.73253e-15
9.72071e-15
9.70998e-15
9.70039e-15
9.69193e-15
9.68462e-15
9.67844e-15
9.67338e-15
9.66941e-15
9.6665e-15
9.66461e-15
9.66368e-15
9.74615e-15
9.7384e-15
9.72758e-15
9.71434e-15
9.69924e-15
9.68277e-15
9.66535e-15
9.64738e-15
9.62919e-15
9.61106e-15
9.59325e-15
9.57594e-15
9.55933e-15
9.54355e-15
9.52873e-15
9.51495e-15
9.50229e-15
9.49079e-15
9.4805e-15
9.47142e-15
9.46357e-15
9.45694e-15
9.4515e-15
9.44723e-15
9.4441e-15
9.44206e-15
9.44107e-15
9.52749e-15
9.51919e-15
9.5076e-15
9.49341e-15
9.47722e-15
9.45955e-15
9.44086e-15
9.42156e-15
9.402e-15
9.38251e-15
9.36333e-15
9.3447e-15
9.3268e-15
9.30979e-15
9.2938e-15
9.27893e-15
9.26525e-15
9.25283e-15
9.2417e-15
9.23189e-15
9.22339e-15
9.21621e-15
9.21033e-15
9.20571e-15
9.20231e-15
9.2001e-15
9.19903e-15
9.29037e-15
9.2814e-15
9.26889e-15
9.25356e-15
9.23606e-15
9.21696e-15
9.19674e-15
9.17586e-15
9.15469e-15
9.13357e-15
9.11279e-15
9.09259e-15
9.07318e-15
9.05473e-15
9.03737e-15
9.02122e-15
9.00637e-15
8.99287e-15
8.98078e-15
8.97011e-15
8.96087e-15
8.95306e-15
8.94665e-15
8.94162e-15
8.93793e-15
8.93553e-15
8.93435e-15
9.03156e-15
9.02182e-15
9.00823e-15
8.99158e-15
8.97257e-15
8.9518e-15
8.92982e-15
8.90711e-15
8.88408e-15
8.86111e-15
8.83849e-15
8.8165e-15
8.79537e-15
8.77527e-15
8.75636e-15
8.73876e-15
8.72258e-15
8.70787e-15
8.69468e-15
8.68305e-15
8.67297e-15
8.66445e-15
8.65747e-15
8.65198e-15
8.64796e-15
8.64533e-15
8.64405e-15
8.748e-15
8.73739e-15
8.72258e-15
8.70444e-15
8.68371e-15
8.66107e-15
8.63711e-15
8.61236e-15
8.58725e-15
8.5622e-15
8.53754e-15
8.51356e-15
8.49051e-15
8.46859e-15
8.44797e-15
8.42878e-15
8.41113e-15
8.39509e-15
8.38071e-15
8.36802e-15
8.35704e-15
8.34775e-15
8.34013e-15
8.33415e-15
8.32976e-15
8.3269e-15
8.3255e-15
8.43692e-15
8.42535e-15
8.4092e-15
8.38941e-15
8.36681e-15
8.34213e-15
8.31601e-15
8.28902e-15
8.26166e-15
8.23435e-15
8.20748e-15
8.18136e-15
8.15625e-15
8.13237e-15
8.10992e-15
8.08903e-15
8.06981e-15
8.05236e-15
8.03671e-15
8.02291e-15
8.01096e-15
8.00086e-15
7.99258e-15
7.98608e-15
7.98131e-15
7.9782e-15
7.97668e-15
8.09607e-15
8.08347e-15
8.06589e-15
8.04435e-15
8.01976e-15
7.99291e-15
7.9645e-15
7.93516e-15
7.90542e-15
7.87575e-15
7.84656e-15
7.8182e-15
7.79095e-15
7.76505e-15
7.7407e-15
7.71806e-15
7.69724e-15
7.67833e-15
7.66139e-15
7.64645e-15
7.63353e-15
7.62261e-15
7.61365e-15
7.60663e-15
7.60147e-15
7.59812e-15
7.59648e-15
7.72399e-15
7.71033e-15
7.69127e-15
7.66794e-15
7.64131e-15
7.61223e-15
7.58149e-15
7.54975e-15
7.51761e-15
7.48556e-15
7.45405e-15
7.42344e-15
7.39406e-15
7.36615e-15
7.33992e-15
7.31555e-15
7.29315e-15
7.27283e-15
7.25463e-15
7.23859e-15
7.22472e-15
7.213e-15
7.20341e-15
7.19588e-15
7.19036e-15
7.18677e-15
7.18502e-15
7.32035e-15
7.30565e-15
7.28514e-15
7.26004e-15
7.2314e-15
7.20016e-15
7.16715e-15
7.1331e-15
7.09864e-15
7.06431e-15
7.03058e-15
6.99785e-15
6.96646e-15
6.93666e-15
6.90869e-15
6.88272e-15
6.85887e-15
6.83725e-15
6.81791e-15
6.80088e-15
6.78616e-15
6.77374e-15
6.76357e-15
6.7556e-15
6.74976e-15
6.74597e-15
6.74412e-15
6.88639e-15
6.87071e-15
6.84885e-15
6.82211e-15
6.79163e-15
6.7584e-15
6.72332e-15
6.68716e-15
6.6506e-15
6.61422e-15
6.57852e-15
6.54391e-15
6.51075e-15
6.47931e-15
6.44984e-15
6.42249e-15
6.39742e-15
6.37471e-15
6.35441e-15
6.33656e-15
6.32116e-15
6.30817e-15
6.29755e-15
6.28923e-15
6.28314e-15
6.27919e-15
6.27727e-15
6.42504e-15
6.40852e-15
6.3855e-15
6.35735e-15
6.32529e-15
6.29039e-15
6.25357e-15
6.21567e-15
6.17739e-15
6.13935e-15
6.10206e-15
6.06597e-15
6.03144e-15
5.99874e-15
5.96813e-15
5.93978e-15
5.91382e-15
5.89034e-15
5.86938e-15
5.85098e-15
5.83512e-15
5.82176e-15
5.81086e-15
5.80234e-15
5.79611e-15
5.79206e-15
5.7901e-15
5.94127e-15
5.9241e-15
5.90021e-15
5.87102e-15
5.8378e-15
5.80167e-15
5.76362e-15
5.7245e-15
5.68504e-15
5.6459e-15
5.60759e-15
5.57057e-15
5.53521e-15
5.50179e-15
5.47056e-15
5.44168e-15
5.41529e-15
5.39146e-15
5.37023e-15
5.35163e-15
5.33562e-15
5.32217e-15
5.31121e-15
5.30265e-15
5.29641e-15
5.29237e-15
5.29041e-15
5.44224e-15
5.4247e-15
5.40031e-15
5.37055e-15
5.33671e-15
5.29996e-15
5.26129e-15
5.2216e-15
5.18163e-15
5.14204e-15
5.10336e-15
5.06605e-15
5.03048e-15
4.99693e-15
4.96564e-15
4.93678e-15
4.91045e-15
4.88674e-15
4.86567e-15
4.84724e-15
4.83142e-15
4.81817e-15
4.80739e-15
4.799e-15
4.7929e-15
4.78895e-15
4.78705e-15
4.9365e-15
4.91887e-15
4.89436e-15
4.86446e-15
4.83049e-15
4.79359e-15
4.75478e-15
4.71493e-15
4.67475e-15
4.63489e-15
4.59583e-15
4.55812e-15
4.52215e-15
4.48825e-15
4.45666e-15
4.42754e-15
4.40103e-15
4.37718e-15
4.35603e-15
4.33757e-15
4.32177e-15
4.30854e-15
4.29782e-15
4.2895e-15
4.28345e-15
4.27956e-15
4.27769e-15
4.42658e-15
4.40871e-15
4.38388e-15
4.35365e-15
4.31936e-15
4.28223e-15
4.2433e-15
4.20348e-15
4.16354e-15
4.12414e-15
4.08582e-15
4.04902e-15
4.01412e-15
3.98137e-15
3.951e-15
3.92313e-15
3.89787e-15
3.87525e-15
3.85528e-15
3.83793e-15
3.82314e-15
3.81083e-15
3.80089e-15
3.79321e-15
3.78766e-15
3.7841e-15
3.7824e-15
3.92184e-15
3.90471e-15
3.88095e-15
3.85208e-15
3.81942e-15
3.78416e-15
3.74731e-15
3.70975e-15
3.67222e-15
3.63535e-15
3.59964e-15
3.56551e-15
3.53327e-15
3.50316e-15
3.47536e-15
3.44998e-15
3.42707e-15
3.40667e-15
3.38875e-15
3.37325e-15
3.36011e-15
3.34922e-15
3.34047e-15
3.33373e-15
3.32887e-15
3.32574e-15
3.32426e-15
3.44765e-15
3.43192e-15
3.41014e-15
3.38372e-15
3.35393e-15
3.32184e-15
3.28843e-15
3.2545e-15
3.22073e-15
3.18769e-15
3.15585e-15
3.12555e-15
3.09708e-15
3.07064e-15
3.04637e-15
3.02435e-15
3.00461e-15
2.98715e-15
2.97192e-15
2.95885e-15
2.94785e-15
2.93882e-15
2.93162e-15
2.92613e-15
2.92219e-15
2.91972e-15
2.91855e-15
3.01972e-15
3.00583e-15
2.98663e-15
2.96341e-15
2.93729e-15
2.90926e-15
2.88019e-15
2.85079e-15
2.82168e-15
2.79336e-15
2.76622e-15
2.74056e-15
2.71663e-15
2.69457e-15
2.67449e-15
2.65644e-15
2.64042e-15