/*--------------------------------*- C++ -*----------------------------------*\
| =========                 |                                                 |
| \\      /  F ield         | OpenFOAM: The Open Source CFD Toolbox           |
|  \\    /   O peration     | Version:  2106                                  |
|   \\  /    A nd           | Website:  www.openfoam.com                      |
|    \\/     M anipulation  |                                                 |
\*---------------------------------------------------------------------------*/
FoamFile
{
    version     2.0;
    format      ascii;
    arch        "LSB;label=32;scalar=64";
    class       volScalarField;
    location    "90.00055";
    object      CH3COCH2;
}
// * * * * * * * * * * * * * * * * * * * * * * * * * * * * * * * * * * * * * //

dimensions      [0 0 0 0 0 0 0];

internalField   nonuniform List<scalar> 
3360
(
2.61395e-20
2.69805e-20
2.81508e-20
2.95822e-20
3.12152e-20
3.29961e-20
3.48766e-20
3.68131e-20
3.87665e-20
4.07027e-20
4.25917e-20
4.44084e-20
4.61319e-20
4.77456e-20
4.92369e-20
5.05969e-20
5.18201e-20
5.29043e-20
5.38499e-20
5.46596e-20
5.53385e-20
5.58929e-20
5.63309e-20
5.66612e-20
5.68936e-20
5.70382e-20
5.71053e-20
1.14655e-19
1.18868e-19
1.24813e-19
1.32217e-19
1.40853e-19
1.50522e-19
1.61049e-19
1.72271e-19
1.84038e-19
1.96208e-19
2.08644e-19
2.21214e-19
2.33786e-19
2.46232e-19
2.58423e-19
2.70236e-19
2.81548e-19
2.92239e-19
3.02197e-19
3.11314e-19
3.19493e-19
3.26646e-19
3.32701e-19
3.37598e-19
3.41293e-19
3.43761e-19
3.44991e-19
3.59657e-19
3.75438e-19
3.97862e-19
4.26041e-19
4.59235e-19
4.9678e-19
5.38046e-19
5.82412e-19
6.29247e-19
6.77909e-19
7.27743e-19
7.78097e-19
8.28324e-19
8.77787e-19
9.2587e-19
9.71989e-19
1.0156e-18
1.05622e-18
1.09342e-18
1.12686e-18
1.15627e-18
1.18145e-18
1.2023e-18
1.21877e-18
1.23092e-18
1.23884e-18
1.2427e-18
1.0471e-18
1.0991e-18
1.17349e-18
1.2676e-18
1.37921e-18
1.50625e-18
1.64661e-18
1.79815e-18
1.9586e-18
2.12558e-18
2.29662e-18
2.46924e-18
2.64093e-18
2.80929e-18
2.97201e-18
3.12699e-18
3.27236e-18
3.40652e-18
3.52821e-18
3.63647e-18
3.73066e-18
3.81045e-18
3.8758e-18
3.92692e-18
3.96422e-18
3.9883e-18
3.99992e-18
3.05813e-18
3.2221e-18
3.45712e-18
3.75516e-18
4.10939e-18
4.51328e-18
4.96009e-18
5.44269e-18
5.95347e-18
6.48442e-18
7.02724e-18
7.5736e-18
8.11527e-18
8.64444e-18
9.15386e-18
9.63703e-18
1.00883e-17
1.05032e-17
1.0878e-17
1.12101e-17
1.14981e-17
1.17413e-17
1.19398e-17
1.20947e-17
1.22074e-17
1.228e-17
1.23149e-17
9.01382e-18
9.51723e-18
1.02396e-17
1.11565e-17
1.22469e-17
1.34905e-17
1.48662e-17
1.63516e-17
1.79229e-17
1.95549e-17
2.12216e-17
2.28969e-17
2.45555e-17
2.61731e-17
2.77277e-17
2.91995e-17
3.05717e-17
3.18308e-17
3.29662e-17
3.39707e-17
3.48402e-17
3.55732e-17
3.61708e-17
3.66362e-17
3.69746e-17
3.71923e-17
3.7297e-17
2.67651e-17
2.82941e-17
3.04883e-17
3.32733e-17
3.6585e-17
4.03612e-17
4.45369e-17
4.90432e-17
5.38066e-17
5.87497e-17
6.37935e-17
6.88586e-17
7.38681e-17
7.87493e-17
8.34357e-17
8.78688e-17
9.19986e-17
9.57851e-17
9.91974e-17
1.02215e-16
1.04825e-16
1.07025e-16
1.08818e-16
1.10214e-16
1.11228e-16
1.11881e-16
1.12194e-16
7.97413e-17
8.43406e-17
9.09438e-17
9.93281e-17
1.09301e-16
1.20674e-16
1.33251e-16
1.46823e-16
1.61167e-16
1.76049e-16
1.91229e-16
2.06468e-16
2.21535e-16
2.36209e-16
2.50292e-16
2.63608e-16
2.76007e-16
2.87371e-16
2.97607e-16
3.06654e-16
3.14478e-16
3.21068e-16
3.26437e-16
3.30615e-16
3.33651e-16
3.35604e-16
3.36542e-16
2.38203e-16
2.52021e-16
2.71856e-16
2.97037e-16
3.26986e-16
3.61133e-16
3.98887e-16
4.39617e-16
4.8265e-16
5.27282e-16
5.72794e-16
6.18467e-16
6.63607e-16
7.07558e-16
7.49727e-16
7.89588e-16
8.26698e-16
8.607e-16
8.91326e-16
9.18391e-16
9.41794e-16
9.61505e-16
9.77563e-16
9.90062e-16
9.99142e-16
1.00498e-15
1.00779e-15
7.11632e-16
7.53006e-16
8.12407e-16
8.87827e-16
9.77527e-16
1.0798e-15
1.19288e-15
1.31486e-15
1.44372e-15
1.57736e-15
1.7136e-15
1.85032e-15
1.9854e-15
2.11691e-15
2.24306e-15
2.36228e-15
2.47325e-15
2.5749e-15
2.66644e-15
2.74732e-15
2.81723e-15
2.8761e-15
2.92406e-15
2.96137e-15
2.98847e-15
3.0059e-15
3.01427e-15
2.12712e-15
2.25096e-15
2.42871e-15
2.65436e-15
2.92269e-15
3.22856e-15
3.56664e-15
3.93124e-15
4.31631e-15
4.71552e-15
5.12242e-15
5.53057e-15
5.93375e-15
6.32615e-15
6.70244e-15
7.05798e-15
7.38885e-15
7.69187e-15
7.96469e-15
8.20571e-15
8.41403e-15
8.58944e-15
8.73229e-15
8.84344e-15
8.92417e-15
8.97608e-15
9.00103e-15
6.35231e-15
6.72203e-15
7.25271e-15
7.92629e-15
8.7271e-15
9.63977e-15
1.06483e-14
1.17356e-14
1.28836e-14
1.40734e-14
1.52857e-14
1.65013e-14
1.77017e-14
1.88696e-14
1.99892e-14
2.10466e-14
2.20303e-14
2.2931e-14
2.37416e-14
2.44574e-14
2.5076e-14
2.55967e-14
2.60206e-14
2.63504e-14
2.65899e-14
2.67438e-14
2.68178e-14
1.89504e-14
2.00525e-14
2.16337e-14
2.364e-14
2.60241e-14
2.87399e-14
3.17392e-14
3.49709e-14
3.83809e-14
4.19129e-14
4.55094e-14
4.91135e-14
5.26704e-14
5.61288e-14
5.94423e-14
6.25704e-14
6.54788e-14
6.81404e-14
7.05349e-14
7.26486e-14
7.44745e-14
7.60109e-14
7.72615e-14
7.8234e-14
7.89401e-14
7.93939e-14
7.96119e-14
5.63719e-14
5.96426e-14
6.43339e-14
7.02834e-14
7.73493e-14
8.53929e-14
9.42698e-14
1.03827e-13
1.13904e-13
1.24331e-13
1.3494e-13
1.45562e-13
1.56036e-13
1.66211e-13
1.75951e-13
1.85138e-13
1.93673e-13
2.01478e-13
2.08495e-13
2.14685e-13
2.20028e-13
2.24522e-13
2.28177e-13
2.31019e-13
2.33081e-13
2.34405e-13
2.35041e-13
1.67064e-13
1.76719e-13
1.9056e-13
2.08098e-13
2.28907e-13
2.52569e-13
2.78651e-13
3.06698e-13
3.36228e-13
3.66746e-13
3.97751e-13
4.28752e-13
4.59278e-13
4.88894e-13
5.17209e-13
5.43883e-13
5.68637e-13
5.91247e-13
6.11553e-13
6.2945e-13
6.44885e-13
6.57856e-13
6.684e-13
6.76592e-13
6.82532e-13
6.86347e-13
6.88177e-13
4.9195e-13
5.20184e-13
5.60622e-13
6.11806e-13
6.72459e-13
7.41326e-13
8.17115e-13
8.98471e-13
9.83977e-13
1.07218e-12
1.16163e-12
1.2509e-12
1.33864e-12
1.42361e-12
1.5047e-12
1.58097e-12
1.65163e-12
1.71607e-12
1.77386e-12
1.82473e-12
1.86854e-12
1.90531e-12
1.93518e-12
1.95835e-12
1.97514e-12
1.98592e-12
1.99108e-12
1.43572e-12
1.51719e-12
1.63374e-12
1.78103e-12
1.95525e-12
2.15265e-12
2.3694e-12
2.60152e-12
2.84488e-12
3.09528e-12
3.34856e-12
3.60069e-12
3.84789e-12
4.0867e-12
4.31407e-12
4.52744e-12
4.72469e-12
4.90422e-12
5.06492e-12
5.2061e-12
5.32751e-12
5.42927e-12
5.51178e-12
5.57574e-12
5.62202e-12
5.65169e-12
5.66591e-12
4.13571e-12
4.36624e-12
4.69551e-12
5.11078e-12
5.60079e-12
6.15451e-12
6.76074e-12
7.40795e-12
8.08434e-12
8.77807e-12
9.47751e-12
1.01716e-11
1.08499e-11
1.15033e-11
1.21235e-11
1.27039e-11
1.32391e-11
1.3725e-11
1.4159e-11
1.45394e-11
1.48659e-11
1.5139e-11
1.53601e-11
1.55313e-11
1.5655e-11
1.57341e-11
1.5772e-11
1.16943e-11
1.23285e-11
1.32325e-11
1.43699e-11
1.57078e-11
1.72148e-11
1.88589e-11
2.06077e-11
2.24285e-11
2.4289e-11
2.61579e-11
2.80057e-11
2.98054e-11
3.1533e-11
3.3168e-11
3.46933e-11
3.60958e-11
3.73658e-11
3.84971e-11
3.94867e-11
4.03343e-11
4.1042e-11
4.16139e-11
4.20558e-11
4.23747e-11
4.25787e-11
4.26761e-11
3.22177e-11
3.38923e-11
3.62737e-11
3.92608e-11
4.27629e-11
4.66925e-11
5.09629e-11
5.54871e-11
6.01792e-11
6.4955e-11
6.97348e-11
7.4444e-11
7.90155e-11
8.33904e-11
8.75189e-11
9.13607e-11
9.48846e-11
9.80688e-11
1.009e-10
1.03372e-10
1.05486e-10
1.07248e-10
1.0867e-10
1.09768e-10
1.1056e-10
1.11065e-10
1.11307e-10
8.57545e-11
8.9917e-11
9.58187e-11
1.03193e-10
1.118e-10
1.21413e-10
1.3181e-10
1.42771e-10
1.54087e-10
1.65555e-10
1.76986e-10
1.88207e-10
1.99063e-10
2.09422e-10
2.19173e-10
2.28226e-10
2.36516e-10
2.43995e-10
2.50637e-10
2.56432e-10
2.61385e-10
2.65513e-10
2.68845e-10
2.71416e-10
2.73271e-10
2.74456e-10
2.75023e-10
2.18867e-10
2.28326e-10
2.41664e-10
2.58208e-10
2.77354e-10
2.98533e-10
3.21199e-10
3.44834e-10
3.68949e-10
3.93092e-10
4.16856e-10
4.39884e-10
4.61872e-10
4.82572e-10
5.01793e-10
5.19398e-10
5.35299e-10
5.49455e-10
5.61863e-10
5.72552e-10
5.81579e-10
5.89019e-10
5.94963e-10
5.9951e-10
6.02763e-10
6.04828e-10
6.0581e-10
5.31497e-10
5.50183e-10
5.76146e-10
6.07703e-10
6.43279e-10
6.81372e-10
7.20556e-10
7.595e-10
7.96998e-10
8.31997e-10
8.63621e-10
8.91196e-10
9.1429e-10
9.32697e-10
9.46426e-10
9.55679e-10
9.60833e-10
9.62402e-10
9.61e-10
9.57306e-10
9.52021e-10
9.45837e-10
9.39411e-10
9.33348e-10
9.28182e-10
9.24375e-10
9.22316e-10
1.17558e-09
1.20144e-09
1.23532e-09
1.27306e-09
1.31053e-09
1.34379e-09
1.36934e-09
1.3844e-09
1.38717e-09
1.37699e-09
1.35442e-09
1.32102e-09
1.27912e-09
1.23142e-09
1.18063e-09
1.12915e-09
1.07894e-09
1.03144e-09
9.87645e-10
9.48156e-10
9.1332e-10
8.83311e-10
8.58208e-10
8.38047e-10
8.22856e-10
8.12671e-10
8.07545e-10
1.84352e-09
1.82903e-09
1.80383e-09
1.76601e-09
1.71519e-09
1.65297e-09
1.58254e-09
1.50787e-09
1.43277e-09
1.36016e-09
1.29179e-09
1.22836e-09
1.16982e-09
1.11577e-09
1.06571e-09
1.01924e-09
9.76122e-10
9.36285e-10
8.99786e-10
8.66765e-10
8.37404e-10
8.11888e-10
7.90386e-10
7.73038e-10
7.5995e-10
7.51194e-10
7.46811e-10
1.65819e-09
1.63444e-09
1.60056e-09
1.55784e-09
1.50731e-09
1.44983e-09
1.38629e-09
1.31781e-09
1.24586e-09
1.1722e-09
1.0987e-09
1.02711e-09
9.58845e-10
8.94937e-10
8.36016e-10
7.824e-10
7.34176e-10
6.91282e-10
6.53574e-10
6.20858e-10
5.92896e-10
5.69464e-10
5.50353e-10
5.35376e-10
5.24363e-10
5.17159e-10
5.13624e-10
1.36847e-09
1.33729e-09
1.29354e-09
1.23996e-09
1.17936e-09
1.11446e-09
1.0478e-09
9.81545e-10
9.17428e-10
8.56514e-10
7.99448e-10
7.46615e-10
6.98181e-10
6.54156e-10
6.14435e-10
5.78852e-10
5.47203e-10
5.19273e-10
4.94849e-10
4.73733e-10
4.5574e-10
4.40703e-10
4.28472e-10
4.18914e-10
4.11907e-10
4.07337e-10
4.05103e-10
9.29268e-10
9.13007e-10
8.90457e-10
8.63159e-10
8.32557e-10
7.99966e-10
7.66536e-10
7.33207e-10
7.00708e-10
6.69564e-10
6.40129e-10
6.12621e-10
5.87154e-10
5.63771e-10
5.4246e-10
5.23179e-10
5.05867e-10
4.90451e-10
4.76859e-10
4.65015e-10
4.54852e-10
4.46303e-10
4.3931e-10
4.33816e-10
4.29768e-10
4.27118e-10
4.25817e-10
6.72286e-10
6.69894e-10
6.66376e-10
6.61861e-10
6.56543e-10
6.50675e-10
6.44538e-10
6.38413e-10
6.32551e-10
6.27157e-10
6.22385e-10
6.18333e-10
6.15054e-10
6.12556e-10
6.10811e-10
6.09829e-10
6.09524e-10
6.09799e-10
6.10518e-10
6.1154e-10
6.12739e-10
6.13979e-10
6.15166e-10
6.1622e-10
6.17075e-10
6.17678e-10
6.17992e-10
5.65992e-10
5.72706e-10
5.82148e-10
5.93732e-10
6.07067e-10
6.21919e-10
6.3817e-10
6.55781e-10
6.74755e-10
6.9498e-10
7.16293e-10
7.38517e-10
7.61443e-10
7.84823e-10
8.08379e-10
8.31802e-10
8.54766e-10
8.76935e-10
8.97977e-10
9.17569e-10
9.3541e-10
9.51228e-10
9.64779e-10
9.75865e-10
9.84324e-10
9.90033e-10
9.9291e-10
5.79006e-10
5.92363e-10
6.11129e-10
6.34374e-10
6.61357e-10
6.91469e-10
7.24204e-10
7.59116e-10
7.95789e-10
8.33813e-10
8.72774e-10
9.12246e-10
9.5179e-10
9.90963e-10
1.02932e-09
1.06641e-09
1.1018e-09
1.13507e-09
1.16583e-09
1.1937e-09
1.21835e-09
1.23949e-09
1.257e-09
1.27094e-09
1.28136e-09
1.28827e-09
1.2917e-09
6.82449e-10
6.97236e-10
7.17834e-10
7.43027e-10
7.71767e-10
8.03133e-10
8.36316e-10
8.706e-10
9.05328e-10
9.39892e-10
9.7372e-10
1.00627e-09
1.03701e-09
1.06546e-09
1.09171e-09
1.11596e-09
1.13831e-09
1.15879e-09
1.1774e-09
1.19408e-09
1.2088e-09
1.22151e-09
1.23218e-09
1.24075e-09
1.2472e-09
1.25151e-09
1.25367e-09
7.76593e-10
7.86011e-10
7.98727e-10
8.13583e-10
8.29492e-10
8.4542e-10
8.60433e-10
8.74675e-10
8.88166e-10
9.00881e-10
9.12795e-10
9.23899e-10
9.34201e-10
9.43732e-10
9.52538e-10
9.60664e-10
9.6815e-10
9.75022e-10
9.81276e-10
9.86914e-10
9.91928e-10
9.96302e-10
1.00001e-09
1.00304e-09
1.00535e-09
1.00691e-09
1.0077e-09
7.42533e-10
7.43341e-10
7.44225e-10
7.44933e-10
7.45264e-10
7.45096e-10
7.4438e-10
7.43147e-10
7.41472e-10
7.39452e-10
7.37197e-10
7.34816e-10
7.3241e-10
7.30071e-10
7.27876e-10
7.25883e-10
7.24132e-10
7.22649e-10
7.21427e-10
7.20462e-10
7.19738e-10
7.19228e-10
7.18902e-10
7.1872e-10
7.18646e-10
7.18637e-10
7.18652e-10
6.06419e-10
6.02999e-10
5.98172e-10
5.92184e-10
5.85266e-10
5.77641e-10
5.69527e-10
5.61133e-10
5.52652e-10
5.44256e-10
5.36096e-10
5.28295e-10
5.20952e-10
5.1414e-10
5.07911e-10
5.02295e-10
4.97303e-10
4.92935e-10
4.89174e-10
4.85987e-10
4.83343e-10
4.81204e-10
4.7953e-10
4.78277e-10
4.77402e-10
4.7686e-10
4.7661e-10
4.42649e-10
4.38227e-10
4.32111e-10
4.24712e-10
4.16392e-10
4.07477e-10
3.98247e-10
3.88944e-10
3.79768e-10
3.70879e-10
3.62404e-10
3.54434e-10
3.47036e-10
3.40251e-10
3.34099e-10
3.28585e-10
3.23701e-10
3.1943e-10
3.15745e-10
3.12615e-10
3.10007e-10
3.07883e-10
3.06206e-10
3.04938e-10
3.04043e-10
3.03479e-10
3.03214e-10
2.98796e-10
2.95046e-10
2.89897e-10
2.83725e-10
2.76857e-10
2.69577e-10
2.62123e-10
2.54691e-10
2.47435e-10
2.40474e-10
2.33893e-10
2.27753e-10
2.22091e-10
2.16926e-10
2.12265e-10
2.08101e-10
2.04423e-10
2.01209e-10
1.98438e-10
1.96083e-10
1.94118e-10
1.92513e-10
1.91241e-10
1.90275e-10
1.89587e-10
1.89153e-10
1.88948e-10
1.92169e-10
1.89515e-10
1.85885e-10
1.81551e-10
1.76751e-10
1.7169e-10
1.66535e-10
1.6142e-10
1.5645e-10
1.51703e-10
1.47234e-10
1.43078e-10
1.39257e-10
1.3578e-10
1.32648e-10
1.29855e-10
1.27389e-10
1.25237e-10
1.2338e-10
1.21802e-10
1.20484e-10
1.19406e-10
1.18551e-10
1.179e-10
1.17436e-10
1.17143e-10
1.17003e-10
1.2064e-10
1.18928e-10
1.1659e-10
1.13803e-10
1.10722e-10
1.0748e-10
1.04185e-10
1.00922e-10
9.7757e-11
9.47384e-11
9.19e-11
8.92638e-11
8.68421e-11
8.464e-11
8.26571e-11
8.08889e-11
7.93278e-11
7.79645e-11
7.67883e-11
7.57879e-11
7.49514e-11
7.42672e-11
7.37237e-11
7.33095e-11
7.30139e-11
7.28265e-11
7.27374e-11
7.52854e-11
7.42297e-11
7.27877e-11
7.10699e-11
6.91721e-11
6.71753e-11
6.51461e-11
6.31372e-11
6.11889e-11
5.93306e-11
5.75832e-11
5.59598e-11
5.44681e-11
5.31112e-11
5.18887e-11
5.07979e-11
4.98344e-11
4.89924e-11
4.82655e-11
4.76467e-11
4.71289e-11
4.6705e-11
4.6368e-11
4.6111e-11
4.59274e-11
4.58109e-11
4.57555e-11
4.7313e-11
4.66727e-11
4.57977e-11
4.47551e-11
4.36026e-11
4.23893e-11
4.11556e-11
3.99333e-11
3.87469e-11
3.76145e-11
3.65487e-11
3.55577e-11
3.46463e-11
3.38165e-11
3.30683e-11
3.24002e-11
3.18095e-11
3.12929e-11
3.08465e-11
3.04663e-11
3.01479e-11
2.9887e-11
2.96795e-11
2.95211e-11
2.94079e-11
2.93361e-11
2.93019e-11
3.02133e-11
2.98247e-11
2.92934e-11
2.86599e-11
2.7959e-11
2.72204e-11
2.64685e-11
2.57227e-11
2.49981e-11
2.43056e-11
2.36531e-11
2.30458e-11
2.24866e-11
2.19769e-11
2.15169e-11
2.11057e-11
2.07419e-11
2.04235e-11
2.01481e-11
1.99134e-11
1.97167e-11
1.95555e-11
1.94272e-11
1.93292e-11
1.92592e-11
1.92147e-11
1.91935e-11
1.97252e-11
1.94869e-11
1.91609e-11
1.87718e-11
1.83408e-11
1.78862e-11
1.74228e-11
1.69627e-11
1.6515e-11
1.60867e-11
1.56825e-11
1.53059e-11
1.49588e-11
1.46421e-11
1.43559e-11
1.41e-11
1.38733e-11
1.36747e-11
1.35029e-11
1.33563e-11
1.32335e-11
1.31327e-11
1.30525e-11
1.29912e-11
1.29474e-11
1.29196e-11
1.29063e-11
1.32219e-11
1.30734e-11
1.28701e-11
1.26273e-11
1.2358e-11
1.20737e-11
1.17835e-11
1.14949e-11
1.12139e-11
1.09446e-11
1.06903e-11
1.0453e-11
1.02341e-11
1.00341e-11
9.85328e-12
9.69137e-12
9.54789e-12
9.42212e-12
9.31323e-12
9.22032e-12
9.14239e-12
9.07847e-12
9.02755e-12
8.98866e-12
8.96084e-12
8.94317e-12
8.93475e-12
9.12728e-12
9.03299e-12
8.90382e-12
8.74936e-12
8.57797e-12
8.39674e-12
8.2116e-12
8.0273e-12
7.84755e-12
7.67515e-12
7.51213e-12
7.35987e-12
7.21924e-12
7.09068e-12
6.97433e-12
6.87008e-12
6.77762e-12
6.69653e-12
6.62629e-12
6.56633e-12
6.51602e-12
6.47474e-12
6.44186e-12
6.41673e-12
6.39876e-12
6.38734e-12
6.38191e-12
6.50317e-12
6.44209e-12
6.35836e-12
6.25817e-12
6.14687e-12
6.02908e-12
5.90861e-12
5.78856e-12
5.67134e-12
5.55879e-12
5.45225e-12
5.35265e-12
5.26057e-12
5.17632e-12
5.10001e-12
5.03159e-12
4.97087e-12
4.91759e-12
4.87141e-12
4.83198e-12
4.79888e-12
4.77172e-12
4.75008e-12
4.73354e-12
4.72171e-12
4.7142e-12
4.71062e-12
4.78959e-12
4.74922e-12
4.69384e-12
4.62752e-12
4.55379e-12
4.47569e-12
4.39572e-12
4.31595e-12
4.23798e-12
4.16304e-12
4.09204e-12
4.02559e-12
3.96411e-12
3.90781e-12
3.85678e-12
3.81099e-12
3.77033e-12
3.73463e-12
3.70369e-12
3.67724e-12
3.65505e-12
3.63683e-12
3.6223e-12
3.61121e-12
3.60327e-12
3.59822e-12
3.59582e-12
3.649e-12
3.62177e-12
3.58441e-12
3.53963e-12
3.48981e-12
3.43698e-12
3.38284e-12
3.32878e-12
3.27589e-12
3.22501e-12
3.17675e-12
3.13154e-12
3.08968e-12
3.05132e-12
3.01652e-12
2.98527e-12
2.95751e-12
2.93313e-12
2.91198e-12
2.8939e-12
2.87872e-12
2.86625e-12
2.85632e-12
2.84872e-12
2.84329e-12
2.83984e-12
2.8382e-12
2.87519e-12
2.85646e-12
2.83076e-12
2.79993e-12
2.7656e-12
2.72916e-12
2.69179e-12
2.65444e-12
2.61786e-12
2.58263e-12
2.54919e-12
2.51784e-12
2.48878e-12
2.46213e-12
2.43793e-12
2.4162e-12
2.39687e-12
2.37989e-12
2.36515e-12
2.35255e-12
2.34196e-12
2.33327e-12
2.32633e-12
2.32103e-12
2.31724e-12
2.31483e-12
2.31368e-12
2.34026e-12
2.32713e-12
2.3091e-12
2.28746e-12
2.26335e-12
2.23774e-12
2.21144e-12
2.18514e-12
2.15935e-12
2.13449e-12
2.11087e-12
2.08871e-12
2.06815e-12
2.04927e-12
2.03213e-12
2.01671e-12
2.003e-12
1.99094e-12
1.98047e-12
1.97152e-12
1.96399e-12
1.95781e-12
1.95287e-12
1.9491e-12
1.9464e-12
1.94469e-12
1.94387e-12
1.96356e-12
1.95419e-12
1.9413e-12
1.92583e-12
1.90857e-12
1.89023e-12
1.87137e-12
1.85249e-12
1.83397e-12
1.8161e-12
1.7991e-12
1.78313e-12
1.76831e-12
1.75469e-12
1.74231e-12
1.73117e-12
1.72125e-12
1.71253e-12
1.70494e-12
1.69846e-12
1.693e-12
1.68852e-12
1.68494e-12
1.6822e-12
1.68025e-12
1.679e-12
1.67841e-12
1.69345e-12
1.68663e-12
1.67725e-12
1.66598e-12
1.6534e-12
1.64001e-12
1.62624e-12
1.61244e-12
1.59888e-12
1.58579e-12
1.57333e-12
1.56161e-12
1.55073e-12
1.54072e-12
1.53161e-12
1.5234e-12
1.5161e-12
1.50966e-12
1.50407e-12
1.49928e-12
1.49525e-12
1.49194e-12
1.48929e-12
1.48727e-12
1.48582e-12
1.4849e-12
1.48446e-12
1.49629e-12
1.49124e-12
1.48428e-12
1.47592e-12
1.46658e-12
1.45663e-12
1.4464e-12
1.43612e-12
1.42602e-12
1.41626e-12
1.40695e-12
1.39819e-12
1.39005e-12
1.38255e-12
1.37573e-12
1.36958e-12
1.36409e-12
1.35926e-12
1.35505e-12
1.35145e-12
1.34842e-12
1.34592e-12
1.34393e-12
1.34241e-12
1.34132e-12
1.34062e-12
1.34029e-12
1.34985e-12
1.34604e-12
1.34079e-12
1.33448e-12
1.32742e-12
1.3199e-12
1.31215e-12
1.30436e-12
1.2967e-12
1.28928e-12
1.28221e-12
1.27555e-12
1.26935e-12
1.26363e-12
1.25842e-12
1.25372e-12
1.24953e-12
1.24584e-12
1.24262e-12
1.23986e-12
1.23753e-12
1.23562e-12
1.23409e-12
1.23292e-12
1.23208e-12
1.23155e-12
1.23129e-12
1.23923e-12
1.2363e-12
1.23227e-12
1.22742e-12
1.22199e-12
1.2162e-12
1.21023e-12
1.20423e-12
1.19831e-12
1.19258e-12
1.18711e-12
1.18195e-12
1.17714e-12
1.17271e-12
1.16866e-12
1.16501e-12
1.16175e-12
1.15887e-12
1.15636e-12
1.15421e-12
1.1524e-12
1.1509e-12
1.14971e-12
1.14879e-12
1.14814e-12
1.14772e-12
1.14752e-12
1.15425e-12
1.15197e-12
1.14882e-12
1.14503e-12
1.14079e-12
1.13625e-12
1.13157e-12
1.12686e-12
1.12222e-12
1.11771e-12
1.11341e-12
1.10934e-12
1.10555e-12
1.10205e-12
1.09886e-12
1.09597e-12
1.09338e-12
1.0911e-12
1.08912e-12
1.08741e-12
1.08597e-12
1.08478e-12
1.08383e-12
1.0831e-12
1.08258e-12
1.08225e-12
1.08209e-12
1.08792e-12
1.08611e-12
1.08361e-12
1.0806e-12
1.07722e-12
1.07361e-12
1.06988e-12
1.06613e-12
1.06242e-12
1.05882e-12
1.05537e-12
1.05212e-12
1.04908e-12
1.04627e-12
1.0437e-12
1.04138e-12
1.0393e-12
1.03746e-12
1.03586e-12
1.03448e-12
1.03332e-12
1.03236e-12
1.03159e-12
1.031e-12
1.03057e-12
1.03031e-12
1.03018e-12
1.03533e-12
1.03386e-12
1.03185e-12
1.02941e-12
1.02668e-12
1.02376e-12
1.02074e-12
1.0177e-12
1.01469e-12
1.01177e-12
1.00896e-12
1.00631e-12
1.00384e-12
1.00154e-12
9.99447e-13
9.97547e-13
9.95846e-13
9.94341e-13
9.93026e-13
9.91895e-13
9.9094e-13
9.90151e-13
9.89519e-13
9.89034e-13
9.88685e-13
9.88463e-13
9.88357e-13
9.92973e-13
9.91774e-13
9.9012e-13
9.88124e-13
9.85883e-13
9.83484e-13
9.81e-13
9.78492e-13
9.76012e-13
9.73598e-13
9.71284e-13
9.69092e-13
9.6704e-13
9.6514e-13
9.634e-13
9.61822e-13
9.60408e-13
9.59155e-13
9.5806e-13
9.57116e-13
9.56319e-13
9.5566e-13
9.55132e-13
9.54726e-13
9.54434e-13
9.54248e-13
9.54159e-13
9.58352e-13
9.57355e-13
9.55978e-13
9.54315e-13
9.52446e-13
9.50444e-13
9.48369e-13
9.46273e-13
9.44196e-13
9.42173e-13
9.40232e-13
9.38391e-13
9.36665e-13
9.35066e-13
9.33599e-13
9.32268e-13
9.31074e-13
9.30014e-13
9.29088e-13
9.28289e-13
9.27613e-13
9.27054e-13
9.26605e-13
9.2626e-13
9.26012e-13
9.25854e-13
9.25778e-13
9.29632e-13
9.28789e-13
9.27626e-13
9.26219e-13
9.24637e-13
9.22941e-13
9.21182e-13
9.19402e-13
9.17637e-13
9.15916e-13
9.14262e-13
9.12692e-13
9.11219e-13
9.09852e-13
9.08597e-13
9.07457e-13
9.06432e-13
9.05523e-13
9.04727e-13
9.04039e-13
9.03457e-13
9.02976e-13
9.02589e-13
9.02291e-13
9.02077e-13
9.0194e-13
9.01875e-13
9.05453e-13
9.04731e-13
9.03733e-13
9.02525e-13
9.01167e-13
8.99708e-13
8.98193e-13
8.9666e-13
8.95137e-13
8.93651e-13
8.92221e-13
8.90862e-13
8.89585e-13
8.88399e-13
8.87309e-13
8.86317e-13
8.85425e-13
8.84633e-13
8.83938e-13
8.83338e-13
8.82829e-13
8.82408e-13
8.82069e-13
8.81808e-13
8.8162e-13
8.815e-13
8.81443e-13
8.84797e-13
8.84169e-13
8.833e-13
8.82248e-13
8.81063e-13
8.7979e-13
8.78467e-13
8.77126e-13
8.75793e-13
8.7449e-13
8.73235e-13
8.72041e-13
8.70918e-13
8.69873e-13
8.68912e-13
8.68036e-13
8.67248e-13
8.66547e-13
8.65931e-13
8.65399e-13
8.64948e-13
8.64573e-13
8.64272e-13
8.6404e-13
8.63873e-13
8.63765e-13
8.63714e-13
8.66887e-13
8.66332e-13
8.65564e-13
8.64634e-13
8.63586e-13
8.62459e-13
8.61286e-13
8.60095e-13
8.58911e-13
8.57752e-13
8.56633e-13
8.55568e-13
8.54565e-13
8.53631e-13
8.5277e-13
8.51986e-13
8.51278e-13
8.50648e-13
8.50095e-13
8.49616e-13
8.49209e-13
8.48871e-13
8.48599e-13
8.4839e-13
8.48238e-13
8.48141e-13
8.48095e-13
8.51122e-13
8.50625e-13
8.49936e-13
8.49102e-13
8.48161e-13
8.47147e-13
8.46092e-13
8.45019e-13
8.4395e-13
8.42903e-13
8.41892e-13
8.40928e-13
8.40018e-13
8.3917e-13
8.38388e-13
8.37674e-13
8.37029e-13
8.36454e-13
8.35949e-13
8.35511e-13
8.35139e-13
8.34829e-13
8.3458e-13
8.34388e-13
8.34249e-13
8.34159e-13
8.34117e-13
8.37031e-13
8.36579e-13
8.35952e-13
8.35192e-13
8.34334e-13
8.33409e-13
8.32445e-13
8.31463e-13
8.30485e-13
8.29525e-13
8.28596e-13
8.27709e-13
8.26872e-13
8.2609e-13
8.25368e-13
8.24708e-13
8.24112e-13
8.23579e-13
8.23111e-13
8.22704e-13
8.22358e-13
8.2207e-13
8.21838e-13
8.21658e-13
8.21529e-13
8.21446e-13
8.21406e-13
8.24238e-13
8.2382e-13
8.23241e-13
8.22538e-13
8.21744e-13
8.20887e-13
8.19992e-13
8.19081e-13
8.18171e-13
8.17277e-13
8.16411e-13
8.15583e-13
8.148e-13
8.14068e-13
8.13391e-13
8.12771e-13
8.12211e-13
8.1171e-13
8.11268e-13
8.10885e-13
8.10558e-13
8.10286e-13
8.10066e-13
8.09896e-13
8.09773e-13
8.09694e-13
8.09657e-13
8.12437e-13
8.12045e-13
8.11502e-13
8.10842e-13
8.10095e-13
8.09289e-13
8.08446e-13
8.07586e-13
8.06726e-13
8.05881e-13
8.05061e-13
8.04275e-13
8.03532e-13
8.02836e-13
8.02191e-13
8.016e-13
8.01065e-13
8.00586e-13
8.00163e-13
7.99796e-13
7.99482e-13
7.99221e-13
7.9901e-13
7.98846e-13
7.98728e-13
7.98652e-13
7.98615e-13
8.01373e-13
8.01001e-13
8.00483e-13
7.99853e-13
7.99141e-13
7.9837e-13
7.97564e-13
7.9674e-13
7.95915e-13
7.95103e-13
7.94314e-13
7.93557e-13
7.9284e-13
7.92168e-13
7.91544e-13
7.90971e-13
7.90452e-13
7.89987e-13
7.89576e-13
7.89218e-13
7.88913e-13
7.88658e-13
7.88452e-13
7.88292e-13
7.88176e-13
7.88102e-13
7.88066e-13
7.90833e-13
7.90473e-13
7.89972e-13
7.89362e-13
7.88671e-13
7.87924e-13
7.8714e-13
7.86339e-13
7.85535e-13
7.84742e-13
7.83972e-13
7.83231e-13
7.82528e-13
7.81868e-13
7.81255e-13
7.80692e-13
7.80181e-13
7.79722e-13
7.79316e-13
7.78963e-13
7.7866e-13
7.78408e-13
7.78203e-13
7.78045e-13
7.7793e-13
7.77856e-13
7.7782e-13
7.80629e-13
7.80275e-13
7.79783e-13
7.79183e-13
7.78504e-13
7.77767e-13
7.76993e-13
7.76202e-13
7.75407e-13
7.74622e-13
7.73857e-13
7.73122e-13
7.72422e-13
7.71765e-13
7.71153e-13
7.70591e-13
7.7008e-13
7.6962e-13
7.69213e-13
7.68858e-13
7.68555e-13
7.68301e-13
7.68095e-13
7.67936e-13
7.6782e-13
7.67745e-13
7.67709e-13
7.70593e-13
7.70241e-13
7.6975e-13
7.69152e-13
7.68473e-13
7.67736e-13
7.66962e-13
7.66168e-13
7.6537e-13
7.64581e-13
7.63811e-13
7.6307e-13
7.62364e-13
7.61699e-13
7.61081e-13
7.60511e-13
7.59992e-13
7.59525e-13
7.59112e-13
7.58751e-13
7.58441e-13
7.58183e-13
7.57973e-13
7.5781e-13
7.57691e-13
7.57615e-13
7.57578e-13
7.60574e-13
7.60217e-13
7.59721e-13
7.59116e-13
7.58428e-13
7.57681e-13
7.56895e-13
7.56088e-13
7.55276e-13
7.54471e-13
7.53686e-13
7.52928e-13
7.52206e-13
7.51525e-13
7.50891e-13
7.50306e-13
7.49772e-13
7.49292e-13
7.48866e-13
7.48494e-13
7.48175e-13
7.47908e-13
7.47691e-13
7.47523e-13
7.474e-13
7.47321e-13
7.47283e-13
7.50428e-13
7.50063e-13
7.49554e-13
7.48934e-13
7.48227e-13
7.4746e-13
7.46651e-13
7.45821e-13
7.44983e-13
7.44153e-13
7.43341e-13
7.42558e-13
7.4181e-13
7.41104e-13
7.40446e-13
7.39838e-13
7.39283e-13
7.38784e-13
7.3834e-13
7.37952e-13
7.3762e-13
7.37341e-13
7.37114e-13
7.36938e-13
7.3681e-13
7.36728e-13
7.36688e-13
7.40019e-13
7.3964e-13
7.39113e-13
7.38469e-13
7.37736e-13
7.36938e-13
7.36097e-13
7.35232e-13
7.34359e-13
7.33493e-13
7.32645e-13
7.31826e-13
7.31043e-13
7.30304e-13
7.29614e-13
7.28976e-13
7.28394e-13
7.27869e-13
7.27403e-13
7.26995e-13
7.26645e-13
7.26351e-13
7.26113e-13
7.25927e-13
7.25793e-13
7.25706e-13
7.25664e-13
7.29216e-13
7.2882e-13
7.28268e-13
7.27593e-13
7.26824e-13
7.25987e-13
7.25104e-13
7.24194e-13
7.23276e-13
7.22364e-13
7.21471e-13
7.20607e-13
7.19781e-13
7.19e-13
7.18271e-13
7.17597e-13
7.16981e-13
7.16425e-13
7.15932e-13
7.155e-13
7.15129e-13
7.14818e-13
7.14566e-13
7.14369e-13
7.14226e-13
7.14134e-13
7.1409e-13
7.17897e-13
7.17479e-13
7.16896e-13
7.16183e-13
7.1537e-13
7.14484e-13
7.1355e-13
7.12587e-13
7.11614e-13
7.10647e-13
7.09699e-13
7.08782e-13
7.07906e-13
7.07077e-13
7.06301e-13
7.05585e-13
7.04931e-13
7.0434e-13
7.03815e-13
7.03356e-13
7.02962e-13
7.02632e-13
7.02364e-13
7.02155e-13
7.02004e-13
7.01906e-13
7.01859e-13
7.05944e-13
7.055e-13
7.04881e-13
7.04123e-13
7.03259e-13
7.02318e-13
7.01324e-13
7.00299e-13
6.99264e-13
6.98235e-13
6.97225e-13
6.96249e-13
6.95315e-13
6.94432e-13
6.93607e-13
6.92844e-13
6.92147e-13
6.91519e-13
6.9096e-13
6.90472e-13
6.90053e-13
6.89702e-13
6.89417e-13
6.89196e-13
6.89035e-13
6.88932e-13
6.88882e-13
6.93257e-13
6.92784e-13
6.92124e-13
6.91317e-13
6.90396e-13
6.89392e-13
6.88332e-13
6.8724e-13
6.86137e-13
6.85039e-13
6.83964e-13
6.82924e-13
6.81929e-13
6.80989e-13
6.8011e-13
6.79299e-13
6.78558e-13
6.77891e-13
6.77298e-13
6.76781e-13
6.76337e-13
6.75966e-13
6.75665e-13
6.75431e-13
6.75262e-13
6.75153e-13
6.75101e-13
6.79756e-13
6.79252e-13
6.78548e-13
6.77688e-13
6.76707e-13
6.75638e-13
6.74509e-13
6.73347e-13
6.72172e-13
6.71005e-13
6.69862e-13
6.68757e-13
6.67702e-13
6.66705e-13
6.65774e-13
6.64916e-13
6.64133e-13
6.63429e-13
6.62805e-13
6.6226e-13
6.61794e-13
6.61405e-13
6.6109e-13
6.60846e-13
6.6067e-13
6.60557e-13
6.60502e-13
6.65398e-13
6.64863e-13
6.64116e-13
6.63202e-13
6.62161e-13
6.61027e-13
6.59831e-13
6.586e-13
6.57357e-13
6.56124e-13
6.54917e-13
6.53752e-13
6.52641e-13
6.51593e-13
6.50616e-13
6.49717e-13
6.48899e-13
6.48165e-13
6.47515e-13
6.4695e-13
6.46467e-13
6.46066e-13
6.45742e-13
6.45492e-13
6.45311e-13
6.45196e-13
6.45141e-13
6.50197e-13
6.49632e-13
6.48845e-13
6.47882e-13
6.46787e-13
6.45594e-13
6.44338e-13
6.43047e-13
6.41747e-13
6.40458e-13
6.39199e-13
6.37987e-13
6.36832e-13
6.35747e-13
6.34739e-13
6.33812e-13
6.32973e-13
6.32221e-13
6.31559e-13
6.30985e-13
6.30497e-13
6.30093e-13
6.29768e-13
6.29519e-13
6.29339e-13
6.29226e-13
6.29171e-13
6.34247e-13
6.33659e-13
6.3284e-13
6.3184e-13
6.30702e-13
6.29467e-13
6.28167e-13
6.26834e-13
6.25494e-13
6.24169e-13
6.22879e-13
6.2164e-13
6.20465e-13
6.19365e-13
6.18346e-13
6.17414e-13
6.16574e-13
6.15826e-13
6.1517e-13
6.14605e-13
6.14129e-13
6.13736e-13
6.13423e-13
6.13185e-13
6.13015e-13
6.12908e-13
6.12858e-13
6.17744e-13
6.17142e-13
6.16306e-13
6.15285e-13
6.14127e-13
6.12872e-13
6.11556e-13
6.10209e-13
6.08861e-13
6.07533e-13
6.06245e-13
6.05015e-13
6.03854e-13
6.02772e-13
6.01778e-13
6.00875e-13
6.00067e-13
5.99354e-13
5.98734e-13
5.98206e-13
5.97765e-13
5.97406e-13
5.97124e-13
5.96912e-13
5.96764e-13
5.96672e-13
5.96629e-13
6.01017e-13
6.00418e-13
5.99587e-13
5.98575e-13
5.9743e-13
5.96194e-13
5.94902e-13
5.93587e-13
5.92277e-13
5.90995e-13
5.8976e-13
5.88589e-13
5.87494e-13
5.86484e-13
5.85565e-13
5.8474e-13
5.84012e-13
5.83379e-13
5.82838e-13
5.82386e-13
5.82017e-13
5.81723e-13
5.81499e-13
5.81336e-13
5.81225e-13
5.8116e-13
5.81131e-13
5.84581e-13
5.84008e-13
5.83215e-13
5.82253e-13
5.81169e-13
5.80004e-13
5.78795e-13
5.77572e-13
5.76364e-13
5.75192e-13
5.74075e-13
5.73029e-13
5.72065e-13
5.71191e-13
5.7041e-13
5.69726e-13
5.69138e-13
5.68643e-13
5.68235e-13
5.67909e-13
5.67656e-13
5.67469e-13
5.67337e-13
5.67251e-13
5.67201e-13
5.67177e-13
5.6717e-13
5.69093e-13
5.68572e-13
5.67852e-13
5.66982e-13
5.66006e-13
5.6496e-13
5.63878e-13
5.62786e-13
5.61708e-13
5.6066e-13
5.59656e-13
5.58718e-13
5.57862e-13
5.57097e-13
5.56428e-13
5.55858e-13
5.55385e-13
5.55005e-13
5.54711e-13
5.54495e-13
5.54347e-13
5.54256e-13
5.54211e-13
5.54199e-13
5.54207e-13
5.54224e-13
5.54238e-13
5.54513e-13
5.54019e-13
5.53339e-13
5.52525e-13
5.51623e-13
5.50671e-13
5.49708e-13
5.48762e-13
5.47861e-13
5.47024e-13
5.46269e-13
5.45607e-13
5.45047e-13
5.44592e-13
5.44242e-13
5.43994e-13
5.43841e-13
5.43774e-13
5.4378e-13
5.43848e-13
5.43962e-13
5.44106e-13
5.44264e-13
5.44421e-13
5.4456e-13
5.44667e-13
5.44727e-13
5.41608e-13
5.41267e-13
5.40808e-13
5.40275e-13
5.39708e-13
5.39142e-13
5.38609e-13
5.38135e-13
5.37739e-13
5.37439e-13
5.37243e-13
5.37159e-13
5.37187e-13
5.37324e-13
5.37563e-13
5.37894e-13
5.38304e-13
5.38775e-13
5.3929e-13
5.39828e-13
5.40369e-13
5.40891e-13
5.41372e-13
5.41791e-13
5.42129e-13
5.42365e-13
5.42492e-13
5.33806e-13
5.33746e-13
5.33688e-13
5.3366e-13
5.33689e-13
5.33799e-13
5.34009e-13
5.34336e-13
5.3479e-13
5.35377e-13
5.36099e-13
5.3695e-13
5.37923e-13
5.39005e-13
5.40178e-13
5.41423e-13
5.42715e-13
5.44029e-13
5.45337e-13
5.46609e-13
5.47816e-13
5.48927e-13
5.49912e-13
5.50744e-13
5.51396e-13
5.51852e-13
5.5209e-13
5.34501e-13
5.34882e-13
5.35451e-13
5.36211e-13
5.37166e-13
5.38324e-13
5.39685e-13
5.41252e-13
5.43018e-13
5.44975e-13
5.4711e-13
5.49404e-13
5.51833e-13
5.5437e-13
5.56982e-13
5.59635e-13
5.6229e-13