/*--------------------------------*- C++ -*----------------------------------*\
| =========                 |                                                 |
| \\      /  F ield         | OpenFOAM: The Open Source CFD Toolbox           |
|  \\    /   O peration     | Version:  2106                                  |
|   \\  /    A nd           | Website:  www.openfoam.com                      |
|    \\/     M anipulation  |                                                 |
\*---------------------------------------------------------------------------*/
FoamFile
{
    version     2.0;
    format      ascii;
    arch        "LSB;label=32;scalar=64";
    class       volScalarField;
    location    "90.00055";
    object      I-C4H51_0;
}
// * * * * * * * * * * * * * * * * * * * * * * * * * * * * * * * * * * * * * //

dimensions      [0 0 0 0 0 0 0];

internalField   nonuniform List<scalar> 
3360
(
2.22739e-20
2.29906e-20
2.3988e-20
2.52081e-20
2.65999e-20
2.81178e-20
2.97206e-20
3.1371e-20
3.3036e-20
3.46862e-20
3.62963e-20
3.78448e-20
3.93138e-20
4.06892e-20
4.19603e-20
4.31194e-20
4.4162e-20
4.50861e-20
4.58921e-20
4.65823e-20
4.71609e-20
4.76335e-20
4.80068e-20
4.82884e-20
4.84865e-20
4.86097e-20
4.86669e-20
9.77128e-20
1.01304e-19
1.06372e-19
1.12684e-19
1.20045e-19
1.28288e-19
1.37261e-19
1.46827e-19
1.56858e-19
1.67232e-19
1.77833e-19
1.88547e-19
1.99264e-19
2.09873e-19
2.20266e-19
2.30336e-19
2.39978e-19
2.49092e-19
2.5758e-19
2.65352e-19
2.72323e-19
2.78421e-19
2.83582e-19
2.87756e-19
2.90906e-19
2.9301e-19
2.94059e-19
3.06584e-19
3.20039e-19
3.3916e-19
3.63185e-19
3.91488e-19
4.23501e-19
4.58687e-19
4.96515e-19
5.36449e-19
5.77942e-19
6.20434e-19
6.63369e-19
7.06196e-19
7.48372e-19
7.89371e-19
8.28695e-19
8.65882e-19
9.00517e-19
9.3224e-19
9.60755e-19
9.85829e-19
1.0073e-18
1.02508e-18
1.03912e-18
1.04948e-18
1.05624e-18
1.05953e-18
8.92864e-19
9.37215e-19
1.00066e-18
1.08093e-18
1.17612e-18
1.28447e-18
1.40419e-18
1.53345e-18
1.6703e-18
1.81273e-18
1.95862e-18
2.10586e-18
2.25231e-18
2.39591e-18
2.53471e-18
2.6669e-18
2.7909e-18
2.90534e-18
3.00914e-18
3.10148e-18
3.18182e-18
3.24989e-18
3.30563e-18
3.34923e-18
3.38105e-18
3.4016e-18
3.41151e-18
2.6086e-18
2.74851e-18
2.94903e-18
3.20332e-18
3.50557e-18
3.85018e-18
4.23142e-18
4.64319e-18
5.07902e-18
5.53207e-18
5.99526e-18
6.46145e-18
6.92366e-18
7.3752e-18
7.80989e-18
8.22219e-18
8.60731e-18
8.9613e-18
9.28111e-18
9.56456e-18
9.8103e-18
1.00178e-17
1.01872e-17
1.03194e-17
1.04156e-17
1.04775e-17
1.05073e-17
7.69186e-18
8.12154e-18
8.73815e-18
9.52076e-18
1.04515e-17
1.15129e-17
1.26872e-17
1.39552e-17
1.52964e-17
1.66895e-17
1.81122e-17
1.95424e-17
2.09582e-17
2.23391e-17
2.36661e-17
2.49225e-17
2.6094e-17
2.71688e-17
2.8138e-17
2.89956e-17
2.97379e-17
3.03636e-17
3.08737e-17
3.12711e-17
3.15599e-17
3.17458e-17
3.18352e-17
2.2849e-17
2.41546e-17
2.60282e-17
2.84063e-17
3.12342e-17
3.44588e-17
3.80245e-17
4.18726e-17
4.59403e-17
5.01616e-17
5.44688e-17
5.87943e-17
6.30723e-17
6.72408e-17
7.1243e-17
7.50289e-17
7.85558e-17
8.17895e-17
8.47038e-17
8.72807e-17
8.951e-17
9.13886e-17
9.29197e-17
9.41119e-17
9.49783e-17
9.55357e-17
9.58036e-17
6.81024e-17
7.20313e-17
7.76721e-17
8.48343e-17
9.33536e-17
1.03069e-16
1.13814e-16
1.25408e-16
1.37662e-16
1.50376e-16
1.63344e-16
1.76364e-16
1.89235e-16
2.01772e-16
2.13804e-16
2.25181e-16
2.35775e-16
2.45483e-16
2.54229e-16
2.61959e-16
2.68643e-16
2.74273e-16
2.7886e-16
2.82431e-16
2.85024e-16
2.86693e-16
2.87494e-16
2.03522e-16
2.15331e-16
2.32281e-16
2.53801e-16
2.79396e-16
3.08579e-16
3.40845e-16
3.75654e-16
4.12432e-16
4.50578e-16
4.89476e-16
5.28512e-16
5.67092e-16
6.04657e-16
6.40699e-16
6.74768e-16
7.06487e-16
7.3555e-16
7.61726e-16
7.8486e-16
8.04863e-16
8.21711e-16
8.35437e-16
8.4612e-16
8.53881e-16
8.58872e-16
8.61271e-16
6.08289e-16
6.43662e-16
6.94447e-16
7.58928e-16
8.35618e-16
9.23062e-16
1.01974e-15
1.12403e-15
1.23421e-15
1.34847e-15
1.46497e-15
1.58186e-15
1.69737e-15
1.80981e-15
1.91768e-15
2.01962e-15
2.1145e-15
2.20143e-15
2.2797e-15
2.34885e-15
2.40864e-15
2.45898e-15
2.49998e-15
2.53189e-15
2.55507e-15
2.56997e-15
2.57713e-15
1.81906e-15
1.92498e-15
2.07702e-15
2.27003e-15
2.49953e-15
2.76115e-15
3.05033e-15
3.36219e-15
3.69157e-15
4.03304e-15
4.38109e-15
4.73022e-15
5.0751e-15
5.41076e-15
5.73265e-15
6.03679e-15
6.31981e-15
6.57903e-15
6.81241e-15
7.01859e-15
7.19679e-15
7.34685e-15
7.46905e-15
7.56414e-15
7.6332e-15
7.67761e-15
7.69894e-15
5.43516e-15
5.75152e-15
6.20561e-15
6.78198e-15
7.46722e-15
8.2482e-15
9.11119e-15
1.00416e-14
1.1024e-14
1.20422e-14
1.30796e-14
1.41198e-14
1.51471e-14
1.61465e-14
1.71046e-14
1.80095e-14
1.88513e-14
1.96221e-14
2.03158e-14
2.09284e-14
2.14578e-14
2.19034e-14
2.22662e-14
2.25485e-14
2.27534e-14
2.28851e-14
2.29484e-14
1.62242e-14
1.71677e-14
1.85213e-14
2.02388e-14
2.22798e-14
2.46046e-14
2.71722e-14
2.99388e-14
3.28581e-14
3.58818e-14
3.89607e-14
4.20462e-14
4.50913e-14
4.80521e-14
5.08888e-14
5.35668e-14
5.60568e-14
5.83355e-14
6.03855e-14
6.21952e-14
6.37584e-14
6.50738e-14
6.61445e-14
6.69772e-14
6.75817e-14
6.79702e-14
6.81568e-14
4.8301e-14
5.11022e-14
5.51202e-14
6.02156e-14
6.62672e-14
7.31561e-14
8.07587e-14
8.8944e-14
9.75738e-14
1.06505e-13
1.1559e-13
1.24688e-13
1.33658e-13
1.42372e-13
1.50714e-13
1.58582e-13
1.65892e-13
1.72577e-13
1.78586e-13
1.83888e-13
1.88464e-13
1.92313e-13
1.95444e-13
1.97877e-13
1.99643e-13
2.00778e-13
2.01323e-13
1.43313e-13
1.51587e-13
1.63447e-13
1.78475e-13
1.96305e-13
2.16579e-13
2.38927e-13
2.62957e-13
2.88257e-13
3.14404e-13
3.40967e-13
3.67527e-13
3.9368e-13
4.19052e-13
4.4331e-13
4.66162e-13
4.87369e-13
5.06739e-13
5.24136e-13
5.39468e-13
5.52693e-13
5.63805e-13
5.72839e-13
5.79857e-13
5.84947e-13
5.88215e-13
5.89783e-13
4.22815e-13
4.47024e-13
4.81697e-13
5.2558e-13
5.77578e-13
6.36613e-13
7.01578e-13
7.71309e-13
8.44592e-13
9.20185e-13
9.96837e-13
1.07333e-12
1.14852e-12
1.22132e-12
1.29081e-12
1.35615e-12
1.41669e-12
1.47191e-12
1.52142e-12
1.565e-12
1.60254e-12
1.63405e-12
1.65963e-12
1.67949e-12
1.69388e-12
1.70311e-12
1.70753e-12
1.23803e-12
1.30796e-12
1.40799e-12
1.53437e-12
1.68383e-12
1.85315e-12
2.03904e-12
2.23806e-12
2.44667e-12
2.66129e-12
2.87834e-12
3.09437e-12
3.30615e-12
3.51072e-12
3.70548e-12
3.88822e-12
4.05715e-12
4.2109e-12
4.34851e-12
4.4694e-12
4.57337e-12
4.66051e-12
4.73117e-12
4.78593e-12
4.82557e-12
4.85098e-12
4.86316e-12
3.5874e-12
3.78567e-12
4.06878e-12
4.42569e-12
4.84665e-12
5.32212e-12
5.84241e-12
6.39759e-12
6.97752e-12
7.57204e-12
8.17119e-12
8.76548e-12
9.34611e-12
9.90514e-12
1.04357e-11
1.09321e-11
1.13897e-11
1.1805e-11
1.21759e-11
1.2501e-11
1.278e-11
1.30134e-11
1.32023e-11
1.33485e-11
1.34542e-11
1.35219e-11
1.35542e-11
1.02512e-11
1.07993e-11
1.15802e-11
1.25617e-11
1.37152e-11
1.5013e-11
1.64272e-11
1.79297e-11
1.94922e-11
2.1087e-11
2.2687e-11
2.42674e-11
2.58049e-11
2.72795e-11
2.86737e-11
2.99734e-11
3.11675e-11
3.22482e-11
3.32103e-11
3.40515e-11
3.47717e-11
3.53729e-11
3.58585e-11
3.62338e-11
3.65045e-11
3.66777e-11
3.67604e-11
2.87543e-11
3.02197e-11
3.23012e-11
3.49077e-11
3.79579e-11
4.1373e-11
4.50757e-11
4.89888e-11
5.30366e-11
5.71461e-11
6.12482e-11
6.52793e-11
6.91828e-11
7.29092e-11
7.64176e-11
7.9675e-11
8.26567e-11
8.53459e-11
8.77325e-11
8.98131e-11
9.15898e-11
9.30692e-11
9.4262e-11
9.51817e-11
9.58443e-11
9.62672e-11
9.64692e-11
7.87342e-11
8.2489e-11
8.7804e-11
9.44307e-11
1.02146e-10
1.10736e-10
1.19995e-10
1.29722e-10
1.39724e-10
1.49819e-10
1.59838e-10
1.6963e-10
1.79063e-10
1.88025e-10
1.96423e-10
2.04188e-10
2.11268e-10
2.17631e-10
2.23259e-10
2.28151e-10
2.32317e-10
2.35778e-10
2.38562e-10
2.40705e-10
2.42246e-10
2.43228e-10
2.43697e-10
2.09078e-10
2.18214e-10
2.31099e-10
2.47086e-10
2.65595e-10
2.86081e-10
3.08024e-10
3.3093e-10
3.54335e-10
3.77812e-10
4.00977e-10
4.23491e-10
4.45063e-10
4.65457e-10
4.84481e-10
5.01996e-10
5.17904e-10
5.32149e-10
5.4471e-10
5.55596e-10
5.64842e-10
5.72505e-10
5.78657e-10
5.83382e-10
5.86775e-10
5.88935e-10
5.89964e-10
5.34797e-10
5.55742e-10
5.85164e-10
6.2149e-10
6.63308e-10
7.09308e-10
7.58264e-10
8.09042e-10
8.60598e-10
9.11998e-10
9.62415e-10
1.01114e-09
1.05759e-09
1.10129e-09
1.14187e-09
1.17908e-09
1.21275e-09
1.2428e-09
1.26921e-09
1.29204e-09
1.31138e-09
1.32738e-09
1.34019e-09
1.35002e-09
1.35706e-09
1.36154e-09
1.36367e-09
1.30951e-09
1.35451e-09
1.41747e-09
1.49483e-09
1.58338e-09
1.68019e-09
1.78258e-09
1.8881e-09
1.99457e-09
2.10008e-09
2.20297e-09
2.30187e-09
2.39567e-09
2.48349e-09
2.56469e-09
2.63885e-09
2.7057e-09
2.76517e-09
2.81729e-09
2.86221e-09
2.90018e-09
2.93152e-09
2.95658e-09
2.97577e-09
2.98951e-09
2.99823e-09
3.00237e-09
3.05606e-09
3.14676e-09
3.2732e-09
3.42783e-09
3.60387e-09
3.7952e-09
3.99633e-09
4.20234e-09
4.40894e-09
4.61245e-09
4.8098e-09
4.99847e-09
5.17649e-09
5.34238e-09
5.49511e-09
5.63402e-09
5.75881e-09
5.86943e-09
5.96611e-09
6.04921e-09
6.1193e-09
6.17702e-09
6.22309e-09
6.25832e-09
6.2835e-09
6.29947e-09
6.30705e-09
6.78774e-09
6.96257e-09
7.20563e-09
7.50178e-09
7.83757e-09
8.20093e-09
8.58111e-09
8.9687e-09
9.35561e-09
9.73499e-09
1.01012e-08
1.04499e-08
1.07775e-08
1.10815e-08
1.13604e-08
1.1613e-08
1.18392e-08
1.2039e-08
1.2213e-08
1.23622e-08
1.24876e-08
1.25905e-08
1.26725e-08
1.27351e-08
1.27797e-08
1.28079e-08
1.28213e-08
1.44037e-08
1.47464e-08
1.5223e-08
1.58043e-08
1.64641e-08
1.71791e-08
1.79281e-08
1.86929e-08
1.94573e-08
2.02077e-08
2.09327e-08
2.16231e-08
2.22716e-08
2.28731e-08
2.34239e-08
2.39219e-08
2.43664e-08
2.47578e-08
2.50973e-08
2.5387e-08
2.56293e-08
2.58272e-08
2.59838e-08
2.61025e-08
2.61865e-08
2.62392e-08
2.6264e-08
2.95636e-08
3.03161e-08
3.13718e-08
3.26737e-08
3.41719e-08
3.58215e-08
3.75814e-08
3.94141e-08
4.12857e-08
4.31648e-08
4.5023e-08
4.68342e-08
4.85748e-08
5.02239e-08
5.17643e-08
5.31821e-08
5.44682e-08
5.56182e-08
5.66327e-08
5.75154e-08
5.8271e-08
5.89043e-08
5.94202e-08
5.98234e-08
6.01185e-08
6.03103e-08
6.04037e-08
5.99569e-08
6.19077e-08
6.46913e-08
6.8202e-08
7.2351e-08
7.70577e-08
8.22456e-08
8.78411e-08
9.37747e-08
9.99839e-08
1.06396e-07
1.12911e-07
1.19392e-07
1.25666e-07
1.3152e-07
1.36694e-07
1.40915e-07
1.43891e-07
1.45799e-07
1.46915e-07
1.47459e-07
1.47621e-07
1.4754e-07
1.47326e-07
1.47072e-07
1.46849e-07
1.46715e-07
1.24672e-07
1.30066e-07
1.37831e-07
1.47683e-07
1.5928e-07
1.72129e-07
1.85488e-07
1.98276e-07
2.08977e-07
2.17553e-07
2.24487e-07
2.30085e-07
2.34564e-07
2.38092e-07
2.40814e-07
2.42858e-07
2.44339e-07
2.45363e-07
2.46028e-07
2.4642e-07
2.46613e-07
2.46668e-07
2.46637e-07
2.46559e-07
2.46466e-07
2.46386e-07
2.4634e-07
2.3347e-07
2.38486e-07
2.45309e-07
2.53376e-07
2.62179e-07
2.71275e-07
2.80292e-07
2.88943e-07
2.97036e-07
3.04488e-07
3.11284e-07
3.17439e-07
3.22984e-07
3.27952e-07
3.32377e-07
3.36288e-07
3.3971e-07
3.42663e-07
3.45166e-07
3.47232e-07
3.48878e-07
3.50119e-07
3.51002e-07
3.51608e-07
3.52e-07
3.52223e-07
3.52317e-07
3.08231e-07
3.12923e-07
3.19298e-07
3.2684e-07
3.35106e-07
3.43721e-07
3.52383e-07
3.60853e-07
3.68944e-07
3.76508e-07
3.83423e-07
3.8959e-07
3.94919e-07
3.99329e-07
4.02939e-07
4.05902e-07
4.08331e-07
4.10311e-07
4.11916e-07
4.13198e-07
4.14204e-07
4.14974e-07
4.15545e-07
4.15954e-07
4.16228e-07
4.1639e-07
4.16461e-07
3.77627e-07
3.81287e-07
3.86174e-07
3.91797e-07
3.97695e-07
4.0343e-07
4.08606e-07
4.13288e-07
4.17495e-07
4.21234e-07
4.24514e-07
4.27349e-07
4.29763e-07
4.31779e-07
4.33442e-07
4.34797e-07
4.35891e-07
4.36762e-07
4.37437e-07
4.37948e-07
4.38323e-07
4.38589e-07
4.38767e-07
4.38877e-07
4.38941e-07
4.38973e-07
4.38983e-07
4.14969e-07
4.1629e-07
4.18013e-07
4.19935e-07
4.21888e-07
4.23732e-07
4.25383e-07
4.26797e-07
4.27958e-07
4.28869e-07
4.29543e-07
4.30003e-07
4.30278e-07
4.30396e-07
4.3039e-07
4.30287e-07
4.30116e-07
4.299e-07
4.29652e-07
4.29389e-07
4.29128e-07
4.28881e-07
4.28658e-07
4.28468e-07
4.28321e-07
4.2822e-07
4.28168e-07
4.15154e-07
4.15061e-07
4.14875e-07
4.14562e-07
4.14097e-07
4.13468e-07
4.12676e-07
4.11737e-07
4.10671e-07
4.09507e-07
4.08276e-07
4.07007e-07
4.05729e-07
4.04471e-07
4.03254e-07
4.02099e-07
4.01022e-07
4.00034e-07
3.99146e-07
3.98355e-07
3.97667e-07
3.97083e-07
3.96603e-07
3.96226e-07
3.95948e-07
3.95768e-07
3.9568e-07
3.90217e-07
3.89297e-07
3.87997e-07
3.86383e-07
3.84514e-07
3.82448e-07
3.8024e-07
3.77943e-07
3.75607e-07
3.73275e-07
3.70987e-07
3.68776e-07
3.6667e-07
3.64691e-07
3.62854e-07
3.61171e-07
3.59648e-07
3.5829e-07
3.57096e-07
3.56063e-07
3.55186e-07
3.54461e-07
3.53879e-07
3.53432e-07
3.53112e-07
3.52907e-07
3.52809e-07
3.51183e-07
3.49911e-07
3.48145e-07
3.45995e-07
3.43561e-07
3.40932e-07
3.38187e-07
3.35395e-07
3.32614e-07
3.29894e-07
3.27274e-07
3.24785e-07
3.22452e-07
3.2029e-07
3.18311e-07
3.16519e-07
3.14917e-07
3.13502e-07
3.1227e-07
3.11214e-07
3.10325e-07
3.09594e-07
3.09012e-07
3.08567e-07
3.08249e-07
3.08047e-07
3.07951e-07
3.07584e-07
3.06279e-07
3.04477e-07
3.02299e-07
2.99853e-07
2.97232e-07
2.94519e-07
2.91783e-07
2.8908e-07
2.86456e-07
2.83947e-07
2.8158e-07
2.79375e-07
2.77344e-07
2.75495e-07
2.73829e-07
2.72346e-07
2.71043e-07
2.69912e-07
2.68946e-07
2.68136e-07
2.67473e-07
2.66946e-07
2.66545e-07
2.66259e-07
2.66078e-07
2.65992e-07
2.6573e-07
2.64554e-07
2.62933e-07
2.60979e-07
2.58791e-07
2.56456e-07
2.54046e-07
2.51623e-07
2.49238e-07
2.46929e-07
2.44728e-07
2.42656e-07
2.40731e-07
2.38961e-07
2.37351e-07
2.35905e-07
2.34618e-07
2.33489e-07
2.3251e-07
2.31675e-07
2.30976e-07
2.30403e-07
2.29948e-07
2.29603e-07
2.29356e-07
2.29201e-07
2.29127e-07
2.28713e-07
2.27718e-07
2.26347e-07
2.24696e-07
2.2285e-07
2.2088e-07
2.18851e-07
2.16812e-07
2.14806e-07
2.12866e-07
2.11018e-07
2.09279e-07
2.07663e-07
2.06178e-07
2.04828e-07
2.03614e-07
2.02535e-07
2.01587e-07
2.00765e-07
2.00063e-07
1.99475e-07
1.98994e-07
1.98612e-07
1.9832e-07
1.98113e-07
1.97982e-07
1.9792e-07
1.97407e-07
1.96589e-07
1.95462e-07
1.94106e-07
1.92589e-07
1.90971e-07
1.89303e-07
1.87627e-07
1.85978e-07
1.84382e-07
1.82861e-07
1.8143e-07
1.80099e-07
1.78875e-07
1.77761e-07
1.76759e-07
1.75867e-07
1.75083e-07
1.74403e-07
1.73822e-07
1.73335e-07
1.72935e-07
1.72618e-07
1.72375e-07
1.72203e-07
1.72093e-07
1.72041e-07
1.71524e-07
1.70859e-07
1.69943e-07
1.6884e-07
1.67606e-07
1.66288e-07
1.6493e-07
1.63564e-07
1.62219e-07
1.60916e-07
1.59674e-07
1.58504e-07
1.57415e-07
1.56412e-07
1.55499e-07
1.54677e-07
1.53945e-07
1.533e-07
1.52741e-07
1.52262e-07
1.5186e-07
1.51531e-07
1.51268e-07
1.51068e-07
1.50925e-07
1.50834e-07
1.50791e-07
1.50326e-07
1.49786e-07
1.49042e-07
1.48146e-07
1.47142e-07
1.4607e-07
1.44964e-07
1.43851e-07
1.42755e-07
1.41692e-07
1.40677e-07
1.39721e-07
1.3883e-07
1.3801e-07
1.37262e-07
1.36588e-07
1.35987e-07
1.35457e-07
1.34997e-07
1.34603e-07
1.34272e-07
1.34e-07
1.33784e-07
1.33618e-07
1.335e-07
1.33425e-07
1.33389e-07
1.32996e-07
1.32556e-07
1.31949e-07
1.31218e-07
1.30399e-07
1.29524e-07
1.2862e-07
1.27711e-07
1.26814e-07
1.25944e-07
1.25113e-07
1.24329e-07
1.23598e-07
1.22925e-07
1.2231e-07
1.21756e-07
1.21262e-07
1.20826e-07
1.20447e-07
1.20122e-07
1.19849e-07
1.19625e-07
1.19446e-07
1.19309e-07
1.19211e-07
1.19149e-07
1.19119e-07
1.18795e-07
1.18434e-07
1.17937e-07
1.17337e-07
1.16666e-07
1.15948e-07
1.15206e-07
1.14458e-07
1.13721e-07
1.13006e-07
1.12322e-07
1.11676e-07
1.11075e-07
1.10519e-07
1.10013e-07
1.09556e-07
1.09147e-07
1.08788e-07
1.08474e-07
1.08206e-07
1.0798e-07
1.07794e-07
1.07646e-07
1.07532e-07
1.07451e-07
1.074e-07
1.07375e-07
1.07109e-07
1.06812e-07
1.06402e-07
1.05907e-07
1.05353e-07
1.04761e-07
1.04148e-07
1.03531e-07
1.02922e-07
1.02331e-07
1.01765e-07
1.01231e-07
1.00733e-07
1.00274e-07
9.98541e-08
9.94752e-08
9.9137e-08
9.88385e-08
9.85787e-08
9.83559e-08
9.81683e-08
9.80139e-08
9.78907e-08
9.77964e-08
9.77289e-08
9.7686e-08
9.76656e-08
9.74463e-08
9.72e-08
9.68602e-08
9.64503e-08
9.59907e-08
9.54992e-08
9.49909e-08
9.44787e-08
9.3973e-08
9.3482e-08
9.30123e-08
9.25687e-08
9.21547e-08
9.17726e-08
9.14236e-08
9.11085e-08
9.0827e-08
9.05786e-08
9.03622e-08
9.01767e-08
9.00204e-08
8.98918e-08
8.97891e-08
8.97105e-08
8.96542e-08
8.96184e-08
8.96013e-08
8.94189e-08
8.92138e-08
8.89308e-08
8.85894e-08
8.82065e-08
8.77969e-08
8.73734e-08
8.69464e-08
8.65247e-08
8.61152e-08
8.57234e-08
8.53533e-08
8.50079e-08
8.46889e-08
8.43976e-08
8.41345e-08
8.38994e-08
8.36919e-08
8.35112e-08
8.33561e-08
8.32255e-08
8.3118e-08
8.30321e-08
8.29664e-08
8.29193e-08
8.28894e-08
8.28751e-08
8.2722e-08
8.25505e-08
8.23139e-08
8.20284e-08
8.17082e-08
8.13656e-08
8.10113e-08
8.0654e-08
8.03012e-08
7.99585e-08
7.96306e-08
7.93208e-08
7.90315e-08
7.87644e-08
7.85205e-08
7.83001e-08
7.81032e-08
7.79293e-08
7.77779e-08
7.7648e-08
7.75385e-08
7.74484e-08
7.73764e-08
7.73213e-08
7.72818e-08
7.72567e-08
7.72447e-08
7.71152e-08
7.69714e-08
7.67729e-08
7.65335e-08
7.62649e-08
7.59775e-08
7.56802e-08
7.53805e-08
7.50844e-08
7.47968e-08
7.45216e-08
7.42615e-08
7.40187e-08
7.37945e-08
7.35897e-08
7.34046e-08
7.32392e-08
7.30932e-08
7.29661e-08
7.28569e-08
7.2765e-08
7.26893e-08
7.26288e-08
7.25825e-08
7.25493e-08
7.25282e-08
7.25182e-08
7.24079e-08
7.2287e-08
7.21202e-08
7.19189e-08
7.16931e-08
7.14515e-08
7.12015e-08
7.09495e-08
7.07005e-08
7.04587e-08
7.02272e-08
7.00085e-08
6.98042e-08
6.96156e-08
6.94433e-08
6.92876e-08
6.91485e-08
6.90257e-08
6.89187e-08
6.88269e-08
6.87495e-08
6.86858e-08
6.86349e-08
6.85959e-08
6.8568e-08
6.85502e-08
6.85418e-08
6.84476e-08
6.83458e-08
6.82054e-08
6.80359e-08
6.78458e-08
6.76423e-08
6.74318e-08
6.72196e-08
6.70099e-08
6.68062e-08
6.66113e-08
6.64271e-08
6.6255e-08
6.60962e-08
6.59511e-08
6.58199e-08
6.57027e-08
6.55993e-08
6.55091e-08
6.54318e-08
6.53666e-08
6.53129e-08
6.527e-08
6.52372e-08
6.52137e-08
6.51987e-08
6.51916e-08
6.51109e-08
6.50251e-08
6.49068e-08
6.47639e-08
6.46037e-08
6.44322e-08
6.42548e-08
6.40759e-08
6.38992e-08
6.37276e-08
6.35632e-08
6.3408e-08
6.3263e-08
6.31291e-08
6.30068e-08
6.28962e-08
6.27974e-08
6.27102e-08
6.26342e-08
6.2569e-08
6.25141e-08
6.24688e-08
6.24327e-08
6.2405e-08
6.23851e-08
6.23725e-08
6.23665e-08
6.22973e-08
6.22249e-08
6.21252e-08
6.20047e-08
6.18696e-08
6.17251e-08
6.15755e-08
6.14247e-08
6.12757e-08
6.1131e-08
6.09924e-08
6.08615e-08
6.07393e-08
6.06264e-08
6.05233e-08
6.04301e-08
6.03468e-08
6.02732e-08
6.02092e-08
6.01542e-08
6.01078e-08
6.00697e-08
6.00392e-08
6.00158e-08
5.99991e-08
5.99885e-08
5.99834e-08
5.99238e-08
5.98629e-08
5.97788e-08
5.96772e-08
5.95633e-08
5.94415e-08
5.93154e-08
5.91883e-08
5.90627e-08
5.89407e-08
5.88239e-08
5.87136e-08
5.86106e-08
5.85154e-08
5.84285e-08
5.83499e-08
5.82797e-08
5.82177e-08
5.81637e-08
5.81173e-08
5.80782e-08
5.80461e-08
5.80204e-08
5.80007e-08
5.79866e-08
5.79776e-08
5.79733e-08
5.7922e-08
5.78706e-08
5.77997e-08
5.77142e-08
5.76183e-08
5.75156e-08
5.74094e-08
5.73023e-08
5.71965e-08
5.70937e-08
5.69954e-08
5.69024e-08
5.68156e-08
5.67354e-08
5.66622e-08
5.6596e-08
5.65369e-08
5.64846e-08
5.64391e-08
5.64001e-08
5.63671e-08
5.634e-08
5.63184e-08
5.63018e-08
5.62899e-08
5.62823e-08
5.62787e-08
5.62343e-08
5.61911e-08
5.61314e-08
5.60595e-08
5.59787e-08
5.58923e-08
5.58029e-08
5.57128e-08
5.56238e-08
5.55373e-08
5.54545e-08
5.53763e-08
5.53032e-08
5.52358e-08
5.51741e-08
5.51184e-08
5.50686e-08
5.50247e-08
5.49864e-08
5.49535e-08
5.49258e-08
5.4903e-08
5.48847e-08
5.48708e-08
5.48607e-08
5.48544e-08
5.48513e-08
5.48128e-08
5.47765e-08
5.47264e-08
5.46659e-08
5.4598e-08
5.45254e-08
5.44503e-08
5.43745e-08
5.42997e-08
5.4227e-08
5.41575e-08
5.40917e-08
5.40303e-08
5.39737e-08
5.39219e-08
5.3875e-08
5.38332e-08
5.37963e-08
5.37641e-08
5.37364e-08
5.37131e-08
5.36939e-08
5.36786e-08
5.36669e-08
5.36584e-08
5.36531e-08
5.36505e-08
5.36171e-08
5.35866e-08
5.35445e-08
5.34938e-08
5.34369e-08
5.3376e-08
5.3313e-08
5.32494e-08
5.31867e-08
5.31257e-08
5.30674e-08
5.30123e-08
5.29608e-08
5.29132e-08
5.28698e-08
5.28305e-08
5.27954e-08
5.27644e-08
5.27374e-08
5.27142e-08
5.26947e-08
5.26786e-08
5.26657e-08
5.26558e-08
5.26488e-08
5.26443e-08
5.26421e-08
5.26131e-08
5.25875e-08
5.25524e-08
5.25099e-08
5.24623e-08
5.24113e-08
5.23586e-08
5.23055e-08
5.2253e-08
5.2202e-08
5.21532e-08
5.21071e-08
5.2064e-08
5.20242e-08
5.19879e-08
5.1955e-08
5.19257e-08
5.18998e-08
5.18771e-08
5.18577e-08
5.18414e-08
5.18279e-08
5.18171e-08
5.18089e-08
5.1803e-08
5.17992e-08
5.17974e-08
5.17722e-08
5.17509e-08
5.17216e-08
5.16862e-08
5.16465e-08
5.1604e-08
5.15601e-08
5.15158e-08
5.1472e-08
5.14295e-08
5.13889e-08
5.13504e-08
5.13146e-08
5.12814e-08
5.12511e-08
5.12237e-08
5.11993e-08
5.11776e-08
5.11588e-08
5.11426e-08
5.1129e-08
5.11177e-08
5.11088e-08
5.11019e-08
5.10969e-08
5.10938e-08
5.10923e-08
5.10706e-08
5.1053e-08
5.10286e-08
5.09993e-08
5.09663e-08
5.09311e-08
5.08947e-08
5.0858e-08
5.08217e-08
5.07865e-08
5.07528e-08
5.07209e-08
5.06912e-08
5.06637e-08
5.06386e-08
5.06159e-08
5.05956e-08
5.05777e-08
5.05621e-08
5.05486e-08
5.05373e-08
5.0528e-08
5.05205e-08
5.05148e-08
5.05107e-08
5.05081e-08
5.05069e-08
5.04885e-08
5.0474e-08
5.0454e-08
5.04298e-08
5.04027e-08
5.03737e-08
5.03437e-08
5.03135e-08
5.02837e-08
5.02547e-08
5.0227e-08
5.02008e-08
5.01764e-08
5.01538e-08
5.01331e-08
5.01145e-08
5.00978e-08
5.00831e-08
5.00702e-08
5.00592e-08
5.00499e-08
5.00422e-08
5.00361e-08
5.00314e-08
5.0028e-08
5.00259e-08
5.00248e-08
5.00098e-08
4.9998e-08
4.99817e-08
4.9962e-08
4.994e-08
4.99164e-08
4.9892e-08
4.98675e-08
4.98432e-08
4.98197e-08
4.97972e-08
4.97759e-08
4.97561e-08
4.97377e-08
4.9721e-08
4.97059e-08
4.96923e-08
4.96804e-08
4.96699e-08
4.9661e-08
4.96534e-08
4.96472e-08
4.96422e-08
4.96384e-08
4.96357e-08
4.96339e-08
4.96331e-08
4.96215e-08
4.96121e-08
4.9599e-08
4.95833e-08
4.95657e-08
4.95469e-08
4.95275e-08
4.95079e-08
4.94886e-08
4.94699e-08
4.94519e-08
4.9435e-08
4.94192e-08
4.94047e-08
4.93913e-08
4.93793e-08
4.93686e-08
4.93591e-08
4.93508e-08
4.93437e-08
4.93377e-08
4.93327e-08
4.93288e-08
4.93257e-08
4.93236e-08
4.93222e-08
4.93215e-08
4.93136e-08
4.93063e-08
4.92962e-08
4.9284e-08
4.92704e-08
4.92559e-08
4.92409e-08
4.92258e-08
4.92109e-08
4.91964e-08
4.91826e-08
4.91696e-08
4.91575e-08
4.91463e-08
4.91361e-08
4.91269e-08
4.91187e-08
4.91114e-08
4.9105e-08
4.90996e-08
4.9095e-08
4.90912e-08
4.90882e-08
4.90859e-08
4.90842e-08
4.90831e-08
4.90826e-08
4.90789e-08
4.90735e-08
4.90661e-08
4.90571e-08
4.90472e-08
4.90365e-08
4.90256e-08
4.90146e-08
4.90038e-08
4.89933e-08
4.89833e-08
4.89739e-08
4.89652e-08
4.89571e-08
4.89498e-08
4.89432e-08
4.89373e-08
4.89321e-08
4.89275e-08
4.89236e-08
4.89203e-08
4.89176e-08
4.89154e-08
4.89138e-08
4.89126e-08
4.89118e-08
4.89115e-08
4.89124e-08
4.89088e-08
4.8904e-08
4.88981e-08
4.88916e-08
4.88846e-08
4.88775e-08
4.88704e-08
4.88634e-08
4.88568e-08
4.88504e-08
4.88444e-08
4.88389e-08
4.88339e-08
4.88293e-08
4.88251e-08
4.88214e-08
4.88182e-08
4.88154e-08
4.8813e-08
4.88109e-08
4.88093e-08
4.88079e-08
4.88069e-08
4.88062e-08
4.88057e-08
4.88055e-08
4.88118e-08
4.881e-08
4.88075e-08
4.88047e-08
4.88015e-08
4.87982e-08
4.87948e-08
4.87915e-08
4.87884e-08
4.87854e-08
4.87826e-08
4.878e-08
4.87777e-08
4.87756e-08
4.87737e-08
4.8772e-08
4.87705e-08
4.87692e-08
4.87681e-08
4.87672e-08
4.87664e-08
4.87658e-08
4.87653e-08
4.87649e-08
4.87646e-08
4.87644e-08
4.87644e-08
4.87767e-08
4.87767e-08
4.87768e-08
4.87769e-08
4.87772e-08
4.87775e-08
4.87779e-08
4.87785e-08
4.87792e-08
4.878e-08
4.87808e-08
4.87817e-08
4.87826e-08
4.87835e-08
4.87844e-08
4.87853e-08
4.87861e-08
4.87868e-08
4.87875e-08
4.87881e-08
4.87886e-08
4.87891e-08
4.87894e-08
4.87897e-08
4.87899e-08
4.879e-08
4.87901e-08
4.88093e-08
4.88112e-08
4.88139e-08
4.88171e-08
4.88209e-08
4.88251e-08
4.88295e-08
4.88342e-08
4.88389e-08
4.88436e-08
4.88483e-08
4.88528e-08
4.88572e-08
4.88613e-08
4.88652e-08
4.88687e-08
4.88719e-08
4.88748e-08
4.88774e-08
4.88796e-08
4.88815e-08
4.88831e-08
4.88844e-08
4.88854e-08
4.88861e-08
4.88865e-08
4.88868e-08
4.89138e-08
4.89176e-08
4.89231e-08
4.89297e-08
4.89373e-08
4.89456e-08
4.89544e-08
4.89634e-08
4.89725e-08
4.89815e-08
4.89904e-08
4.89989e-08
4.9007e-08
4.90146e-08
4.90217e-08
4.90282e-08
4.90341e-08
4.90394e-08
4.9044e-08
4.9048e-08
4.90515e-08
4.90543e-08
4.90566e-08
4.90584e-08
4.90597e-08
4.90605e-08
4.90609e-08
4.90963e-08
4.91024e-08
4.91109e-08
4.91213e-08
4.91331e-08
4.91459e-08
4.91595e-08
4.91734e-08
4.91873e-08
4.92012e-08
4.92146e-08
4.92276e-08
4.92399e-08
4.92514e-08
4.92621e-08
4.92719e-08
4.92808e-08
4.92888e-08
4.92958e-08
4.93018e-08
4.9307e-08
4.93113e-08
4.93148e-08
4.93174e-08
4.93194e-08
4.93206e-08
4.93212e-08
4.93655e-08
4.93741e-08
4.9386e-08
4.94006e-08
4.94172e-08
4.94351e-08
4.9454e-08
4.94734e-08
4.94929e-08
4.95121e-08
4.95309e-08
4.95489e-08
4.95659e-08
4.95819e-08
4.95968e-08
4.96104e-08
4.96227e-08
4.96337e-08
4.96434e-08
4.96519e-08
4.96591e-08
4.9665e-08
4.96699e-08
4.96736e-08
4.96763e-08
4.9678e-08
4.96788e-08
4.97321e-08
4.97435e-08
4.97594e-08
4.97787e-08
4.98007e-08
4.98245e-08
4.98495e-08
4.98752e-08
4.9901e-08
4.99265e-08
4.99512e-08
4.9975e-08
4.99976e-08
5.00188e-08
5.00384e-08
5.00565e-08
5.00728e-08
5.00874e-08
5.01003e-08
5.01115e-08
5.01211e-08
5.0129e-08
5.01354e-08
5.01404e-08
5.0144e-08
5.01463e-08
5.01474e-08
5.0209e-08
5.02236e-08
5.0244e-08
5.02688e-08
5.0297e-08
5.03275e-08
5.03597e-08
5.03926e-08
5.04257e-08
5.04583e-08
5.04902e-08
5.05207e-08
5.05497e-08
5.0577e-08
5.06023e-08
5.06255e-08
5.06465e-08
5.06654e-08
5.0682e-08
5.06965e-08
5.07089e-08
5.07192e-08
5.07276e-08
5.0734e-08
5.07387e-08
5.07417e-08
5.07432e-08
5.08113e-08
5.08296e-08
5.08551e-08
5.08862e-08
5.09216e-08
5.096e-08
5.10004e-08
5.10418e-08
5.10833e-08
5.11244e-08
5.11645e-08
5.1203e-08
5.12395e-08
5.12739e-08
5.13059e-08
5.13352e-08
5.13619e-08
5.13858e-08
5.1407e-08
5.14255e-08
5.14413e-08
5.14544e-08
5.14651e-08
5.14734e-08
5.14794e-08
5.14833e-08
5.14852e-08
5.15561e-08
5.15787e-08
5.16102e-08
5.16487e-08
5.16925e-08
5.17399e-08
5.17899e-08
5.18411e-08
5.18926e-08
5.19436e-08
5.19933e-08
5.20412e-08
5.20868e-08
5.21296e-08
5.21695e-08
5.22063e-08
5.22397e-08
5.22697e-08
5.22964e-08
5.23196e-08
5.23395e-08
5.23562e-08
5.23698e-08
5.23803e-08
5.23879e-08
5.23929e-08
5.23953e-08
5.24628e-08
5.24904e-08
5.25289e-08
5.25759e-08
5.26294e-08
5.26875e-08
5.27486e-08
5.28114e-08
5.28747e-08
5.29373e-08
5.29985e-08
5.30575e-08
5.31137e-08
5.31667e-08
5.32162e-08
5.32618e-08
5.33034e-08
5.33409e-08
5.33742e-08
5.34033e-08
5.34284e-08
5.34493e-08
5.34664e-08
5.34797e-08
5.34895e-08
5.34957e-08
5.34988e-08
5.35528e-08
5.35863e-08
5.36329e-08
5.36899e-08
5.37547e-08
5.38252e-08
5.38995e-08
5.39759e-08
5.4053e-08
5.41295e-08
5.42043e-08
5.42766e-08
5.43457e-08
5.4411e-08
5.4472e-08
5.45284e-08
5.458e-08
5.46266e-08
5.46682e-08
5.47046e-08
5.4736e-08
5.47624e-08
5.47839e-08
5.48007e-08
5.4813e-08
5.4821e-08
5.48249e-08
5.48501e-08
5.48903e-08
5.49464e-08
5.5015e-08
5.50932e-08
5.51784e-08
5.52683e-08
5.53608e-08
5.54544e-08
5.55474e-08
5.56387e-08
5.57271e-08
5.58117e-08
5.58919e-08
5.59671e-08
5.60369e-08
5.61008e-08
5.61588e-08
5.62106e-08
5.62561e-08
5.62955e-08
5.63288e-08
5.6356e-08
5.63773e-08
5.63929e-08
5.64031e-08
5.64081e-08
5.63815e-08
5.64297e-08
5.6497e-08
5.65794e-08
5.66734e-08
5.6776e-08
5.68845e-08
5.69965e-08
5.711e-08
5.72231e-08
5.73344e-08
5.74425e-08
5.75463e-08
5.7645e-08
5.77379e-08
5.78243e-08
5.79038e-08
5.79761e-08
5.8041e-08
5.80983e-08
5.81479e-08
5.819e-08
5.82246e-08
5.82517e-08
5.82717e-08
5.82848e-08
5.82912e-08
5.81796e-08
5.82374e-08
5.83181e-08
5.8417e-08
5.85301e-08
5.86538e-08
5.87848e-08
5.89204e-08
5.90582e-08
5.91959e-08
5.93318e-08
5.94642e-08
5.95919e-08
5.97137e-08
5.98287e-08
5.99362e-08
6.00354e-08
6.0126e-08
6.02075e-08
6.02799e-08
6.03428e-08
6.03963e-08
6.04404e-08
6.04752e-08
6.0501e-08
6.05178e-08
6.0526e-08
6.0284e-08
6.03533e-08
6.04503e-08
6.05693e-08
6.07056e-08
6.0855e-08
6.10138e-08
6.11785e-08
6.13463e-08
6.15147e-08
6.16814e-08
6.18445e-08
6.20023e-08
6.21535e-08
6.22968e-08
6.24312e-08
6.25558e-08
6.26701e-08
6.27734e-08
6.28653e-08
6.29457e-08
6.30143e-08
6.3071e-08
6.3116e-08
6.31494e-08
6.31713e-08
6.31821e-08
6.27471e-08
6.28308e-08
6.29479e-08
6.30919e-08
6.32573e-08
6.34389e-08
6.36325e-08
6.38339e-08
6.40398e-08
6.42471e-08
6.44531e-08
6.46554e-08
6.4852e-08
6.50411e-08
6.5221e-08
6.53904e-08
6.55483e-08
6.56936e-08
6.58255e-08
6.59434e-08
6.60468e-08
6.61355e-08
6.62091e-08
6.62677e-08
6.63113e-08
6.634e-08
6.63542e-08
6.5644e-08
6.57459e-08
6.58886e-08
6.60644e-08
6.62666e-08
6.64893e-08
6.6727e-08
6.69752e-08
6.72294e-08
6.74862e-08
6.7742e-08
6.79941e-08
6.82399e-08
6.84771e-08
6.87037e-08
6.89179e-08
6.91183e-08
6.93034e-08
6.94722e-08
6.96236e-08
6.9757e-08
6.98718e-08
6.99675e-08
7.0044e-08
7.0101e-08
7.01388e-08
7.01575e-08
6.90718e-08
6.91961e-08
6.93702e-08
6.95849e-08
6.98318e-08
7.01033e-08
7.03927e-08
7.06937e-08
7.10003e-08
7.13072e-08
7.16093e-08
7.19048e-08
7.21918e-08
7.24684e-08
7.27325e-08
7.29823e-08
7.32161e-08
7.34324e-08
7.363e-08
7.38077e-08
7.39646e-08
7.41e-08
7.42132e-08
7.43038e-08
7.43717e-08
7.44168e-08
7.44392e-08
7.29915e-08
7.31309e-08
7.33265e-08
7.35678e-08
7.3846e-08
7.41533e-08
7.44826e-08
7.48274e-08
7.51822e-08
7.5542e-08
7.59022e-08
7.62589e-08
7.66084e-08
7.69476e-08
7.72735e-08
7.75835e-08
7.78751e-08
7.81463e-08
7.83951e-08
7.86198e-08
7.8819e-08
7.89915e-08
7.91363e-08
7.92527e-08
7.93402e-08
7.93984e-08
7.94275e-08
7.73823e-08
7.75505e-08
7.77866e-08
7.80784e-08
7.84152e-08
7.87875e-08
7.91869e-08
7.96057e-08
8.00373e-08
8.04756e-08
8.0915e-08
8.13506e-08
8.1778e-08
8.21933e-08
8.25927e-08
8.29729e-08
8.33311e-08
8.36644e-08
8.39706e-08
8.42474e-08
8.4493e-08
8.47059e-08
8.48847e-08
8.50283e-08
8.51362e-08
8.52077e-08
8.52434e-08
8.2464e-08
8.26617e-08
8.29388e-08
8.32806e-08
8.36739e-08
8.41074e-08
8.45709e-08
8.50554e-08
8.55528e-08
8.60561e-08
8.6559e-08
8.7056e-08
8.75422e-08
8.80132e-08
8.84651e-08
8.88946e-08
8.92984e-08
8.96738e-08
9.00183e-08
9.03296e-08
9.06058e-08
9.08453e-08
9.10465e-08
9.12084e-08
9.133e-08
9.14113e-08
9.1452e-08
8.79721e-08
8.81802e-08
8.84706e-08
8.88264e-08
8.92328e-08
8.96769e-08
9.01473e-08
9.06342e-08
9.11291e-08
9.16249e-08
9.21155e-08
9.25958e-08
9.30616e-08
9.35094e-08
9.39361e-08
9.43391e-08
9.47163e-08