/*--------------------------------*- C++ -*----------------------------------*\
| =========                 |                                                 |
| \\      /  F ield         | OpenFOAM: The Open Source CFD Toolbox           |
|  \\    /   O peration     | Version:  2106                                  |
|   \\  /    A nd           | Website:  www.openfoam.com                      |
|    \\/     M anipulation  |                                                 |
\*---------------------------------------------------------------------------*/
FoamFile
{
    version     2.0;
    format      ascii;
    arch        "LSB;label=32;scalar=64";
    class       surfaceScalarField;
    location    "90.00055";
    object      phi_0;
}
// * * * * * * * * * * * * * * * * * * * * * * * * * * * * * * * * * * * * * //

dimensions      [1 0 -1 0 0 0 0];

oriented        oriented;

internalField   nonuniform List<scalar> 
6572
(
-1.48991e-10
4.14313e-10
3.901e-11
-3.19709e-10
6.41387e-10
-5.41904e-10
8.33182e-10
-8.06848e-10
9.9326e-10
-1.10594e-09
1.12445e-09
-1.43046e-09
1.22906e-09
-1.77146e-09
1.30902e-09
-2.11976e-09
1.36602e-09
-2.46602e-09
1.40163e-09
-2.80088e-09
1.41738e-09
-3.11508e-09
1.41469e-09
-3.39936e-09
1.39485e-09
-3.64516e-09
1.35957e-09
-3.84453e-09
1.31046e-09
-3.99012e-09
1.24898e-09
-4.07531e-09
1.17658e-09
-4.09422e-09
1.0947e-09
-4.04186e-09
1.00482e-09
-3.91418e-09
9.08364e-10
-3.70808e-09
8.06797e-10
-3.42147e-09
7.01496e-10
-3.05318e-09
5.93737e-10
-2.60288e-09
4.84683e-10
-2.07102e-09
3.7538e-10
-1.45875e-09
2.66763e-10
-7.67823e-10
1.59629e-10
5.4175e-11
-1.01073e-10
4.88283e-10
2.7102e-11
-2.11702e-10
7.52016e-10
-3.48586e-10
9.70067e-10
-5.0137e-10
1.14604e-09
-6.60143e-10
1.28322e-09
-8.15723e-10
1.38464e-09
-9.59911e-10
1.4532e-09
-1.08571e-09
1.49182e-09
-1.18748e-09
1.5034e-09
-1.26114e-09
1.49103e-09
-1.30528e-09
1.45883e-09
-1.31964e-09
1.40921e-09
-1.3047e-09
1.34463e-09
-1.26185e-09
1.26761e-09
-1.19348e-09
1.18061e-09
-1.10287e-09
1.08597e-09
-9.94095e-10
9.85922e-10
-8.71772e-10
8.82493e-10
-7.40943e-10
7.77535e-10
-6.06831e-10
6.72685e-10
-4.74701e-10
5.69365e-10
-3.49743e-10
4.68779e-10
-2.36978e-10
3.71918e-10
-1.41265e-10
2.79666e-10
-6.70787e-11
1.92577e-10
-1.84932e-11
1.11044e-10
3.56819e-11
-8.01554e-11
5.47238e-10
2.1201e-11
-1.66969e-10
8.38829e-10
-2.713e-10
1.0744e-09
-3.83366e-10
1.25811e-09
-4.9446e-10
1.39432e-09
-5.97258e-10
1.48743e-09
-6.86229e-10
1.54218e-09
-7.57528e-10
1.56312e-09
-8.08916e-10
1.55479e-09
-8.3945e-10
1.52156e-09
-8.48326e-10
1.46771e-09
-8.36289e-10
1.39717e-09
-8.04986e-10
1.31333e-09
-7.56779e-10
1.2194e-09
-6.94625e-10
1.11845e-09
-6.21899e-10
1.01325e-09
-5.42187e-10
9.06211e-10
-4.59088e-10
7.99394e-10
-3.76047e-10
6.94494e-10
-2.9619e-10
5.92829e-10
-2.22248e-10
4.95423e-10
-1.5652e-10
4.0305e-10
-1.00864e-10
3.16263e-10
-5.66211e-11
2.35423e-10
-2.47727e-11
1.60728e-10
-5.97153e-12
9.22427e-11
2.97104e-11
-3.77296e-11
5.74553e-10
1.04141e-11
-7.68957e-11
8.77996e-10
-1.22664e-10
1.12017e-09
-1.70064e-10
1.30551e-09
-2.14827e-10
1.43908e-09
-2.53697e-10
1.5263e-09
-2.84302e-10
1.57278e-09
-3.05281e-10
1.5841e-09
-3.16133e-10
1.56564e-09
-3.17082e-10
1.52251e-09
-3.08967e-10
1.45959e-09
-2.93021e-10
1.38123e-09
-2.70945e-10
1.29125e-09
-2.44601e-10
1.19306e-09
-2.15749e-10
1.0896e-09
-1.85931e-10
9.83429e-10
-1.56419e-10
8.76698e-10
-1.2821e-10
7.71185e-10
-1.02039e-10
6.68323e-10
-7.84447e-11
5.69235e-10
-5.77971e-11
4.74776e-10
-4.03101e-11
3.85563e-10
-2.60624e-11
3.02015e-10
-1.50211e-11
2.24382e-10
-7.06618e-12
1.52773e-10
-2.01024e-12
8.71868e-11
2.77001e-11
-1.90747e-11
5.88651e-10
4.97723e-12
-3.91939e-11
8.98115e-10
-6.20864e-11
1.14306e-09
-8.49763e-11
1.3284e-09
-1.05794e-10
1.4599e-09
-1.23192e-10
1.5437e-09
-1.36334e-10
1.58592e-09
-1.44833e-10
1.5926e-09
-1.48712e-10
1.56952e-09
-1.48281e-10
1.52208e-09
-1.43955e-10
1.45527e-09
-1.36275e-10
1.37355e-09
-1.25902e-10
1.28088e-09
-1.13566e-10
1.18072e-09
-9.99974e-11
1.07603e-09
-8.58766e-11
9.69308e-10
-7.17975e-11
8.62619e-10
-5.8259e-11
7.57647e-10
-4.5662e-11
6.55726e-10
-3.43134e-11
5.57886e-10
-2.44346e-11
4.64897e-10
-1.61717e-11
3.773e-10
-9.60655e-12
2.9545e-10
-4.7676e-12
2.19543e-10
-1.6404e-12
1.49646e-10
-1.7669e-13
8.57231e-11
2.75234e-11
-9.35262e-12
5.95291e-10
2.71252e-12
-1.84258e-11
9.07188e-10
-2.84291e-11
1.15306e-09
-3.80297e-11
1.338e-09
-4.6236e-11
1.4681e-09
-5.2446e-11
1.54991e-09
-5.63955e-11
1.58987e-09
-5.8078e-11
1.59428e-09
-5.7679e-11
1.56912e-09
-5.55122e-11
1.51992e-09
-5.19581e-11
1.45171e-09
-4.74151e-11
1.369e-09
-4.22651e-11
1.27573e-09
-3.68485e-11
1.1753e-09
-3.14498e-11
1.07063e-09
-2.62905e-11
9.64149e-10
-2.15288e-11
8.57858e-10
-1.72644e-11
7.53383e-10
-1.35464e-11
6.52008e-10
-1.03825e-11
5.54722e-10
-7.74874e-12
4.62263e-10
-5.59837e-12
3.7515e-10
-3.86977e-12
2.93722e-10
-2.49332e-12
2.18167e-10
-1.39685e-12
1.4855e-10
-5.09771e-13
8.4836e-11
2.70137e-11
-4.7638e-12
5.9889e-10
1.16441e-12
-1.00675e-11
9.12492e-10
-1.62781e-11
1.15927e-09
-2.26778e-11
1.3444e-09
-2.86306e-11
1.47406e-09
-3.35933e-11
1.55488e-09
-3.72663e-11
1.59355e-09
-3.95382e-11
1.59655e-09
-4.04369e-11
1.57002e-09
-4.00841e-11
1.51956e-09
-3.86568e-11
1.45029e-09
-3.63589e-11
1.3667e-09
-3.33998e-11
1.27277e-09
-2.99811e-11
1.17189e-09
-2.62877e-11
1.06694e-09
-2.24839e-11
9.60345e-10
-1.87113e-11
8.54085e-10
-1.50896e-11
7.49761e-10
-1.17178e-11
6.48636e-10
-8.67572e-12
5.5168e-10
-6.02625e-12
4.59614e-10
-3.81702e-12
3.72941e-10
-2.08221e-12
2.91987e-10
-8.44055e-13
2.16928e-10
-1.14225e-13
1.4782e-10
1.04829e-13
8.4617e-11
2.71185e-11
-1.82737e-12
6.00127e-10
5.90446e-13
-3.45976e-12
9.14124e-10
-5.24089e-12
1.16105e-09
-6.92329e-12
1.34608e-09
-8.30699e-12
1.47544e-09
-9.26083e-12
1.55583e-09
-9.73213e-12
1.59402e-09
-9.7358e-12
1.59656e-09
-9.33547e-12
1.56961e-09
-8.62325e-12
1.51885e-09
-7.70195e-12
1.44936e-09
-6.67148e-12
1.36567e-09
-5.61968e-12
1.27172e-09
-4.61692e-12
1.17088e-09
-3.71394e-12
1.06604e-09
-2.94196e-12
9.59573e-10
-2.31439e-12
8.53458e-10
-1.82941e-12
7.49276e-10
-1.4731e-12
6.48279e-10
-1.22256e-12
5.5143e-10
-1.04898e-12
4.5944e-10
-9.20325e-13
3.72812e-10
-8.03648e-13
2.9187e-10
-6.66993e-13
2.16792e-10
-4.80843e-13
1.47634e-10
-2.19128e-13
8.43552e-11
2.68994e-11
-1.79723e-12
6.01509e-10
4.15709e-13
-3.83767e-12
9.16165e-10
-6.20337e-12
1.16342e-09
-8.6133e-12
1.34849e-09
-1.08454e-11
1.47767e-09
-1.27405e-11
1.55772e-09
-1.42007e-11
1.59548e-09
-1.51803e-11
1.59754e-09
-1.56755e-11
1.57011e-09
-1.57125e-11
1.51889e-09
-1.53381e-11
1.44899e-09
-1.46111e-11
1.36495e-09
-1.35966e-11
1.2707e-09
-1.23614e-11
1.16965e-09
-1.09714e-11
1.06465e-09
-9.48963e-12
9.58091e-10
-7.97489e-12
8.51943e-10
-6.4812e-12
7.47782e-10
-5.05722e-12
6.46856e-10
-3.74595e-12
5.50119e-10
-2.58455e-12
4.58279e-10
-1.60425e-12
3.71832e-10
-8.30414e-13
2.91096e-10
-2.82569e-13
2.16244e-10
2.53556e-14
1.47326e-10
8.47386e-14
8.42959e-11
2.69841e-11
-6.42445e-13
6.01921e-10
2.29939e-13
-1.15784e-12
9.1668e-10
-1.70481e-12
1.16397e-09
-2.2071e-12
1.34899e-09
-2.60534e-12
1.47807e-09
-2.864e-12
1.55798e-09
-2.97133e-12
1.59558e-09
-2.93539e-12
1.5975e-09
-2.77835e-12
1.56995e-09
-2.53065e-12
1.51864e-09
-2.22574e-12
1.44869e-09
-1.89599e-12
1.36462e-09
-1.5698e-12
1.27038e-09
-1.26972e-12
1.16935e-09
-1.01163e-12
1.06439e-09
-8.04562e-13
9.57884e-10
-6.51097e-13
8.51789e-10
-5.48099e-13
7.47679e-10
-4.87762e-13
6.46795e-10
-4.58731e-13
5.5009e-10
-4.4724e-13
4.58267e-10
-4.38188e-13
3.71823e-10
-4.16101e-13
2.91074e-10
-3.65959e-13
2.16194e-10
-2.73869e-13
1.47234e-10
-1.2755e-13
8.41495e-11
2.68566e-11
-9.88778e-13
6.02685e-10
2.24792e-13
-2.12822e-12
9.1782e-10
-3.46522e-12
1.1653e-09
-4.85033e-12
1.35038e-09
-6.16403e-12
1.47938e-09
-7.31753e-12
1.55914e-09
-8.25106e-12
1.59652e-09
-8.9303e-12
1.59818e-09
-9.34203e-12
1.57036e-09
-9.48962e-12
1.51879e-09
-9.38893e-12
1.44859e-09
-9.06481e-12
1.36429e-09
-8.54821e-12
1.26986e-09
-7.87387e-12
1.16867e-09
-7.07854e-12
1.06359e-09
-6.19919e-12
9.57005e-10
-5.27381e-12
8.50864e-10
-4.33917e-12
7.46745e-10
-3.43005e-12
6.45886e-10
-2.5783e-12
5.49238e-10
-1.81213e-12
4.57501e-10
-1.15568e-12
3.71166e-10
-6.28776e-13
2.90547e-10
-2.46913e-13
2.15812e-10
-2.13009e-14
1.47008e-10
4.08886e-14
8.40874e-11
2.68975e-11
-6.04704e-13
6.03093e-10
1.9669e-13
-1.15424e-12
9.18369e-10
-1.77929e-12
1.16593e-09
-2.41112e-12
1.35101e-09
-2.99119e-12
1.47996e-09
-3.4765e-12
1.55962e-09
-3.84054e-12
1.59688e-09
-4.0719e-12
1.59841e-09
-4.17157e-12
1.57046e-09
-4.14989e-12
1.51877e-09
-4.02342e-12
1.44846e-09
-3.81217e-12
1.36408e-09
-3.53724e-12
1.26959e-09
-3.21911e-12
1.16836e-09
-2.87631e-12
1.06325e-09
-2.52549e-12
9.56654e-10
-2.17855e-12
8.50517e-10
-1.84638e-12
7.46412e-10
-1.53685e-12
6.45577e-10
-1.25471e-12
5.48956e-10
-1.00185e-12
4.57248e-10
-7.77653e-13
3.70942e-10
-5.79469e-13
2.90349e-10
-4.03137e-13
2.15636e-10
-2.43509e-13
1.46848e-10
-9.48864e-14
8.39387e-11
2.68026e-11
-1.55017e-12
6.04251e-10
3.92262e-13
-3.2482e-12
9.20067e-10
-5.24557e-12
1.16793e-09
-7.32616e-12
1.35309e-09
-9.30842e-12
1.48195e-09
-1.10511e-11
1.56136e-09
-1.24543e-11
1.59828e-09
-1.34581e-11
1.59942e-09
-1.40375e-11
1.57104e-09
-1.41974e-11
1.51893e-09
-1.39667e-11
1.44823e-09
-1.33916e-11
1.36351e-09
-1.25301e-11
1.26872e-09
-1.14469e-11
1.16727e-09
-1.02089e-11
1.06201e-09
-8.88087e-12
9.55326e-10
-7.52339e-12
8.4916e-10
-6.18743e-12
7.45077e-10
-4.91613e-12
6.44305e-10
-3.74523e-12
5.47785e-10
-2.70353e-12
4.56207e-10
-1.8134e-12
3.70052e-10
-1.09128e-12
2.89627e-10
-5.48271e-13
2.15093e-10
-1.9064e-13
1.46491e-10
-2.04507e-14
8.37686e-11
2.67821e-11
-1.66481e-12
6.05448e-10
4.6834e-13
-3.36594e-12
9.21769e-10
-5.34252e-12
1.1699e-09
-7.37684e-12
1.35513e-09
-9.28458e-12
1.48385e-09
-1.0925e-11
1.563e-09
-1.22036e-11
1.59956e-09
-1.30696e-11
1.60028e-09
-1.35096e-11
1.57148e-09
-1.3541e-11
1.51896e-09
-1.32042e-11
1.44789e-09
-1.25553e-11
1.36286e-09
-1.16587e-11
1.26783e-09
-1.0582e-11
1.1662e-09
-9.39108e-12
1.06082e-09
-8.14684e-12
9.54082e-10
-6.90159e-12
8.47914e-10
-5.69866e-12
7.43874e-10
-4.57221e-12
6.43179e-10
-3.5477e-12
5.4676e-10
-2.64277e-12
4.55302e-10
-1.86816e-12
3.69277e-10
-1.22877e-12
2.88988e-10
-7.24708e-13
2.14589e-10
-3.52235e-13
1.46118e-10
-1.04726e-13
8.3521e-11
2.66774e-11
-2.82683e-12
6.07529e-10
7.45715e-13
-5.86074e-12
9.24802e-10
-9.44603e-12
1.17349e-09
-1.32132e-11
1.35889e-09
-1.68465e-11
1.48749e-09
-2.00955e-11
1.56625e-09
-2.27784e-11
1.60225e-09
-2.47801e-11
1.60228e-09
-2.60453e-11
1.57275e-09
-2.65697e-11
1.51948e-09
-2.63898e-11
1.44771e-09
-2.55732e-11
1.36204e-09
-2.42086e-11
1.26646e-09
-2.23982e-11
1.16439e-09
-2.02504e-11
1.05867e-09
-1.7874e-11
9.51705e-10
-1.53751e-11
8.45415e-10
-1.28535e-11
7.41352e-10
-1.03997e-11
6.40725e-10
-8.09263e-12
5.44453e-10
-5.99818e-12
4.53207e-10
-4.16931e-12
3.67448e-10
-2.64618e-12
2.87465e-10
-1.45699e-12
2.13399e-10
-6.19052e-13
1.4528e-10
-1.40077e-13
8.30421e-11
2.65373e-11
-3.64763e-12
6.10182e-10
9.94415e-13
-7.47013e-12
9.28625e-10
-1.1955e-11
1.17797e-09
-1.66273e-11
1.36357e-09
-2.10815e-11
1.49194e-09
-2.50004e-11
1.57017e-09
-2.81603e-11
1.60541e-09
-3.0428e-11
1.60455e-09
-3.17508e-11
1.57407e-09
-3.2143e-11
1.51987e-09
-3.16714e-11
1.44724e-09
-3.04401e-11
1.36081e-09
-2.85773e-11
1.2646e-09
-2.62233e-11
1.16203e-09
-2.35211e-11
1.05597e-09
-2.06087e-11
9.48793e-10
-1.76134e-11
8.4242e-10
-1.46486e-11
7.38387e-10
-1.18112e-11
6.37888e-10
-9.18066e-12
5.41823e-10
-6.81974e-12
4.50846e-10
-4.77488e-12
3.65404e-10
-3.07778e-12
2.85767e-10
-1.74718e-12
2.12069e-10
-7.90569e-13
1.44324e-10
-2.06152e-13
8.24577e-11
2.63312e-11
-4.70461e-12
6.13628e-10
1.25852e-12
-9.67461e-12
9.33595e-10
-1.54756e-11
1.18377e-09
-2.14715e-11
1.36956e-09
-2.71302e-11
1.4976e-09
-3.20458e-11
1.57509e-09
-3.59429e-11
1.6093e-09
-3.86683e-11
1.60728e-09
-4.01737e-11
1.57558e-09
-4.04957e-11
1.5202e-09
-3.9735e-11
1.44648e-09
-3.80361e-11
1.35911e-09
-3.55694e-11
1.26213e-09
-3.25162e-11
1.15898e-09
-2.90574e-11
1.05251e-09
-2.53646e-11
9.451e-10
-2.1594e-11
8.3865e-10
-1.78831e-11
7.34676e-10
-1.43486e-11
6.34353e-10
-1.10862e-11
5.3856e-10
-8.17113e-12
4.47931e-10
-5.65948e-12
3.62892e-10
-3.58993e-12
2.83698e-10
-1.98581e-12
2.10465e-10
-8.57125e-13
1.43195e-10
-2.02696e-13
8.18032e-11
2.61285e-11
-5.56095e-12
6.17679e-10
1.51034e-12
-1.136e-11
9.39394e-10
-1.8087e-11
1.1905e-09
-2.49889e-11
1.37646e-09
-3.14416e-11
1.50405e-09
-3.69783e-11
1.58062e-09
-4.12923e-11
1.61362e-09
-4.42242e-11
1.61021e-09
-4.57393e-11
1.57709e-09
-4.59008e-11
1.52036e-09
-4.48428e-11
1.44542e-09
-4.27455e-11
1.35701e-09
-3.9814e-11
1.2592e-09
-3.62611e-11
1.15543e-09
-3.22941e-11
1.04855e-09
-2.81058e-11
9.40912e-10
-2.38684e-11
8.34412e-10
-1.97303e-11
7.30538e-10
-1.5815e-11
6.30438e-10
-1.22208e-11
5.34966e-10
-9.02304e-12
4.44733e-10
-6.27545e-12
3.60144e-10
-4.01289e-12
2.81435e-10
-2.25384e-12
2.08706e-10
-1.00299e-12
1.41944e-10
-2.53724e-13
8.1054e-11
2.58748e-11
-6.27883e-12
6.22267e-10
1.69063e-12
-1.2835e-11
9.4595e-10
-2.03935e-11
1.19806e-09
-2.80817e-11
1.38415e-09
-3.51902e-11
1.51116e-09
-4.1202e-11
1.58664e-09
-4.57918e-11
1.61821e-09
-4.8806e-11
1.61322e-09
-5.02324e-11
1.57852e-09
-5.0166e-11
1.52029e-09
-4.87764e-11
1.44403e-09
-4.62786e-11
1.35452e-09
-4.2909e-11
1.25583e-09
-3.89065e-11
1.15142e-09
-3.44993e-11
1.04414e-09
-2.98957e-11
9.36308e-10
-2.52786e-11
8.29795e-10
-2.08033e-11
7.26063e-10
-1.65967e-11
6.26231e-10
-1.27585e-11
5.31128e-10
-9.36363e-12
4.41339e-10
-6.46409e-12
3.57245e-10
-4.09246e-12
2.79064e-10
-2.26455e-12
2.06878e-10
-9.82209e-13
1.40662e-10
-2.36002e-13
8.03078e-11
2.56388e-11
-6.41819e-12
6.2694e-10
1.74501e-12
-1.3048e-11
9.5258e-10
-2.0633e-11
1.20564e-09
-2.8274e-11
1.39179e-09
-3.52527e-11
1.51814e-09
-4.1061e-11
1.59244e-09
-4.53951e-11
1.62254e-09
-4.813e-11
1.61596e-09
-4.92827e-11
1.57967e-09
-4.89741e-11
1.51998e-09
-4.73935e-11
1.44245e-09
-4.47681e-11
1.35189e-09
-4.13391e-11
1.2524e-09
-3.73441e-11
1.14743e-09
-3.30046e-11
1.0398e-09
-2.85188e-11
9.31822e-10
-2.40574e-11
8.25334e-10
-1.97626e-11
7.21768e-10
-1.57484e-11
6.22217e-10
-1.21023e-11
5.27482e-10
-8.88842e-12
4.38125e-10
-6.14969e-12
3.54506e-10
-3.91128e-12
2.76825e-10
-2.18334e-12
2.0515e-10
-9.63771e-13
1.39442e-10
-2.40651e-13
7.95847e-11
2.53981e-11
-6.05875e-12
6.3136e-10
1.63869e-12
-1.23114e-11
9.58833e-10
-1.94185e-11
1.21275e-09
-2.65157e-11
1.39889e-09
-3.29269e-11
1.52455e-09
-3.81881e-11
1.59771e-09
-4.20366e-11
1.62639e-09
-4.43799e-11
1.6183e-09
-4.52571e-11
1.58055e-09
-4.48e-11
1.51953e-09
-4.31979e-11
1.44085e-09
-4.0669e-11
1.34936e-09
-3.74391e-11
1.24917e-09
-3.37264e-11
1.14371e-09
-2.97307e-11
1.0358e-09
-2.56289e-11
9.27721e-10
-2.15711e-11
8.21276e-10
-1.76815e-11
7.17879e-10
-1.40585e-11
6.18594e-10
-1.07775e-11
5.24201e-10
-7.89274e-12
4.3524e-10
-5.44072e-12
3.52054e-10
-3.44239e-12
2.74827e-10
-1.90588e-12
2.03613e-10
-8.28915e-13
1.38365e-10
-2.00836e-13
7.89566e-11
2.51973e-11
-5.07734e-12
6.35054e-10
1.3835e-12
-1.02744e-11
9.6403e-10
-1.61492e-11
1.21863e-09
-2.19775e-11
1.40472e-09
-2.72018e-11
1.52978e-09
-3.14488e-11
1.60195e-09
-3.45166e-11
1.62946e-09
-3.63445e-11
1.62013e-09
-3.69783e-11
1.58118e-09
-3.65359e-11
1.51908e-09
-3.51779e-11
1.43949e-09
-3.30848e-11
1.34727e-09
-3.04399e-11
1.24653e-09
-2.74177e-11
1.14069e-09
-2.41772e-11
1.03256e-09
-2.08576e-11
9.24401e-10
-1.75768e-11
8.17995e-10
-1.4432e-11
7.14734e-10
-1.15005e-11
6.15662e-10
-8.8417e-12
5.21542e-10
-6.49876e-12
4.32897e-10
-4.50111e-12
3.50056e-10
-2.86631e-12
2.73192e-10
-1.60207e-12
2.02349e-10
-7.07979e-13
1.37471e-10
-1.77054e-13
7.84257e-11
2.50203e-11
-3.77519e-12
6.37807e-10
1.02226e-12
-7.65139e-12
9.67906e-10
-1.20287e-11
1.223e-09
-1.63676e-11
1.40906e-09
-2.02568e-11
1.53366e-09
-2.34244e-11
1.60512e-09
-2.57251e-11
1.63176e-09
-2.71167e-11
1.62152e-09
-2.76329e-11
1.5817e-09
-2.73586e-11
1.51881e-09
-2.64083e-11
1.43854e-09
-2.49104e-11
1.34577e-09
-2.29955e-11
1.24461e-09
-2.07882e-11
1.13849e-09
-1.84029e-11
1.03018e-09
-1.59411e-11
9.21939e-10
-1.34901e-11
8.15544e-10
-1.11233e-11
7.12367e-10
-8.90056e-12
6.1344e-10
-6.86966e-12
5.19511e-10
-5.06711e-12
4.31094e-10
-3.51952e-12
3.48509e-10
-2.245e-12
2.71918e-10
-1.2542e-12
2.01358e-10
-5.51511e-13
1.36769e-10
-1.36038e-13
7.80102e-11
2.48842e-11
-2.27442e-12
6.39462e-10
6.19462e-13
-4.60841e-12
9.7024e-10
-7.25899e-12
1.22565e-09
-9.91044e-12
1.41171e-09
-1.23206e-11
1.53607e-09
-1.43262e-11
1.60713e-09
-1.58362e-11
1.63327e-09
-1.68173e-11
1.6225e-09
-1.72795e-11
1.58216e-09
-1.72627e-11
1.51879e-09
-1.68245e-11
1.4381e-09
-1.60326e-11
1.34498e-09
-1.49582e-11
1.24354e-09
-1.36716e-11
1.1372e-09
-1.22398e-11
1.02875e-09
-1.07245e-11
9.20424e-10
-9.18149e-12
8.14001e-10
-7.65995e-12
7.10845e-10
-6.20252e-12
6.11982e-10
-4.84539e-12
5.18154e-10
-3.61859e-12
4.29868e-10
-2.54631e-12
3.47437e-10
-1.64737e-12
2.71019e-10
-9.35679e-13
2.00647e-10
-4.2064e-13
1.36254e-10
-1.07664e-13
7.76973e-11
2.47766e-11
-8.08031e-13
6.40055e-10
2.15077e-13
-1.66614e-12
9.71098e-10
-2.67348e-12
1.22666e-09
-3.72751e-12
1.41276e-09
-4.74525e-12
1.53709e-09
-5.66428e-12
1.60805e-09
-6.44093e-12
1.63404e-09
-7.04741e-12
1.62311e-09
-7.46885e-12
1.58258e-09
-7.70083e-12
1.51902e-09
-7.74726e-12
1.43815e-09
-7.61882e-12
1.34485e-09
-7.33158e-12
1.24325e-09
-6.90584e-12
1.13677e-09
-6.36507e-12
1.02821e-09
-5.73488e-12
9.19794e-10
-5.04212e-12
8.13309e-10
-4.31396e-12
7.10117e-10
-3.57715e-12
6.11246e-10
-2.85732e-12
5.17434e-10
-2.17837e-12
4.29189e-10
-1.56212e-12
3.4682e-10
-1.02786e-12
2.70485e-10
-5.9224e-13
2.00211e-10
-2.69081e-13
1.35931e-10
-6.93718e-14
7.74975e-11
2.47072e-11
6.03009e-13
6.39617e-10
-1.65556e-13
1.19179e-12
9.70509e-10
1.80818e-12
1.22604e-09
2.3482e-12
1.41222e-09
2.73971e-12
1.5367e-09
2.94481e-12
1.60784e-09
2.9564e-12
1.63403e-09
2.79139e-12
1.62327e-09
2.48283e-12
1.58289e-09
2.07243e-12
1.51943e-09
1.60423e-12
1.43862e-09
1.11979e-12
1.34534e-09
6.54996e-13
1.24372e-09
2.38132e-13
1.13719e-09
-1.10818e-13
1.02855e-09
-3.80108e-13
9.20063e-10
-5.6552e-13
8.13494e-10
-6.69342e-13
7.10221e-10
-6.99142e-13
6.11275e-10
-6.66501e-13
5.17402e-10
-5.85791e-13
4.29108e-10
-4.73059e-13
3.46708e-10
-3.45057e-13
2.70357e-10
-2.18438e-13
2.00084e-10
-1.09104e-13
1.35821e-10
-3.17037e-14
7.74201e-11
2.46755e-11
1.91056e-12
6.38229e-10
-5.22663e-13
3.84018e-12
9.6858e-10
5.98082e-12
1.2239e-09
8.04593e-12
1.41016e-09
9.82087e-12
1.53493e-09
1.117e-11
1.60649e-09
1.20302e-11
1.63317e-09
1.23979e-11
1.6229e-09
1.23121e-11
1.58298e-09
1.18399e-11
1.51991e-09
1.10627e-11
1.43939e-09
1.00658e-11
1.34633e-09
8.93101e-12
1.24485e-09
7.73185e-12
1.13839e-09
6.53041e-12
1.02976e-09
5.37639e-12
9.21217e-10
4.30707e-12
8.14563e-10
3.34806e-12
7.1118e-10
2.51463e-12
6.12109e-10
1.81323e-12
5.18103e-10
1.24312e-12
4.29678e-10
7.97919e-13
3.47153e-10
4.67105e-13
2.70687e-10
2.37291e-13
2.00314e-10
9.33522e-14
1.35965e-10
1.93661e-14
7.74941e-11
2.46949e-11
3.14548e-12
6.35938e-10
-8.54301e-13
6.36869e-12
9.65357e-10
1.00051e-11
1.22027e-09
1.35994e-11
1.40656e-09
1.68004e-11
1.53172e-09
1.93727e-11
1.60392e-09
2.11895e-11
1.63136e-09
2.22148e-11
1.62188e-09
2.24816e-11
1.58271e-09
2.20704e-11
1.52032e-09
2.109e-11
1.44037e-09
1.96625e-11
1.34776e-09
1.79115e-11
1.2466e-09
1.59575e-11
1.14034e-09
1.39012e-11
1.03181e-09
1.18331e-11
9.23285e-10
9.82736e-12
8.16569e-10
7.94264e-12
7.13065e-10
6.22251e-12
6.13829e-10
4.69716e-12
5.19628e-10
3.38509e-12
4.3099e-10
2.29494e-12
3.48243e-10
1.42729e-12
2.71555e-10
7.76336e-13
2.00965e-10
3.31392e-13
1.3641e-10
7.82807e-14
7.77473e-11
2.47731e-11
4.26468e-12
6.3283e-10
-1.15678e-12
8.66741e-12
9.60954e-10
1.36899e-11
1.21525e-09
1.87316e-11
1.40152e-09
2.33185e-11
1.52714e-09
2.71265e-11
1.60011e-09
2.99547e-11
1.62853e-09
3.17263e-11
1.62011e-09
3.24569e-11
1.58198e-09
3.22285e-11
1.52055e-09
3.11666e-11
1.44144e-09
2.94205e-11
1.34951e-09
2.71485e-11
1.24888e-09
2.45063e-11
1.14299e-09
2.16394e-11
1.03468e-09
1.86784e-11
9.26246e-10
1.5736e-11
8.19511e-10
1.29062e-11
7.15895e-10
1.02646e-11
6.1647e-10
7.86931e-12
5.22024e-10
5.76242e-12
4.33097e-10
3.97196e-12
3.50033e-10
2.5138e-12
2.73013e-10
1.39353e-12
2.02085e-10
6.0834e-13
1.37195e-10
1.48662e-13
7.82069e-11
2.49218e-11
5.22162e-12
6.29021e-10
-1.41218e-12
1.06509e-11
9.55524e-10
1.68981e-11
1.209e-09
2.32428e-11
1.39518e-09
2.91057e-11
1.52128e-09
3.40698e-11
1.59515e-09
3.78756e-11
1.62472e-09
4.04021e-11
1.61758e-09
4.16402e-11
1.58074e-09
4.16649e-11
1.52052e-09
4.06089e-11
1.44249e-09
3.86405e-11
1.35147e-09
3.59453e-11
1.25157e-09
3.27083e-11
1.14622e-09
2.91158e-11
1.03827e-09
2.53355e-11
9.30026e-10
2.15172e-11
8.2333e-10
1.77901e-11
7.19622e-10
1.42625e-11
6.19998e-10
1.10214e-11
5.25265e-10
8.13434e-12
4.35984e-10
5.65086e-12
3.52517e-10
3.60421e-12
2.7506e-10
2.01358e-12
2.03676e-10
8.86081e-13
1.38323e-10
2.18745e-13
7.88743e-11
2.51406e-11
5.90076e-12
6.24714e-10
-1.59424e-12
1.20638e-11
9.49361e-10
1.91996e-11
1.20186e-09
2.65074e-11
1.38787e-09
3.3334e-11
1.51445e-09
3.91909e-11
1.58929e-09
4.37736e-11
1.62014e-09
4.69226e-11
1.61443e-09
4.86042e-11
1.57906e-09
4.88817e-11
1.52024e-09
4.7888e-11
1.44349e-09
4.58012e-11
1.35356e-09
4.28242e-11
1.25455e-09
3.91691e-11
1.14988e-09
3.50446e-11
1.0424e-09
3.06477e-11
9.34423e-10
2.61574e-11
8.2782e-10
2.17319e-11
7.24047e-10
1.75061e-11
6.24224e-10
1.35918e-11
5.29179e-10
1.00784e-11
4.39497e-10
7.03398e-12
3.55561e-10
4.50752e-12
2.77586e-10
2.53058e-12
2.05653e-10
1.11971e-12
1.39734e-10
2.78562e-13
7.97154e-11
2.54191e-11
6.1979e-12
6.20189e-10
-1.67227e-12
1.26931e-11
9.42866e-10
2.02433e-11
1.19431e-09
2.80158e-11
1.3801e-09
3.5324e-11
1.50714e-09
4.16545e-11
1.58296e-09
4.6667e-11
1.61513e-09
5.01782e-11
1.61092e-09
5.21367e-11
1.5771e-09
5.25951e-11
1.51979e-09
5.1682e-11
1.4444e-09
4.9577e-11
1.35567e-09
4.64899e-11
1.25763e-09
4.26434e-11
1.15372e-09
3.82594e-11
1.04678e-09
3.35501e-11
9.39133e-10
2.87105e-11
8.3266e-10
2.39145e-11
7.28843e-10
1.93126e-11
6.28826e-10
1.5031e-11
5.33461e-10
1.11719e-11
4.43357e-10
7.81523e-12
3.58918e-10
5.01942e-12
2.80382e-10
2.82418e-12
2.07848e-10
1.2524e-12
1.41305e-10
3.12419e-13
8.06554e-11
2.57315e-11
6.04111e-12
6.15777e-10
-1.62957e-12
1.23808e-11
9.36526e-10
1.97645e-11
1.18693e-09
2.73845e-11
1.37248e-09
3.45716e-11
1.49995e-09
4.08214e-11
1.57671e-09
4.5796e-11
1.61015e-09
4.93092e-11
1.60741e-09
5.13034e-11
1.57511e-09
5.18234e-11
1.51927e-09
5.09896e-11
1.44523e-09
4.89742e-11
1.35768e-09
4.59804e-11
1.26063e-09
4.22255e-11
1.15748e-09
3.79277e-11
1.05108e-09
3.32961e-11
9.43764e-10
2.85239e-11
8.37432e-10
2.37842e-11
7.33583e-10
1.92273e-11
6.33383e-10
1.49799e-11
5.37708e-10
1.11453e-11
4.47191e-10
7.80465e-12
3.62259e-10
5.01796e-12
2.83169e-10
2.82661e-12
2.1004e-10
1.2552e-12
1.42877e-10
3.13786e-13
8.15968e-11
2.60453e-11
5.44538e-12
6.118e-10
-1.4685e-12
1.11622e-11
9.30809e-10
1.78224e-11
1.18027e-09
2.46979e-11
1.3656e-09
3.11848e-11
1.49347e-09
3.68275e-11
1.57107e-09
4.132e-11
1.60566e-09
4.44937e-11
1.60423e-09
4.62957e-11
1.5733e-09
4.67661e-11
1.5188e-09
4.60134e-11
1.44599e-09
4.41931e-11
1.3595e-09
4.14889e-11
1.26333e-09
3.80973e-11
1.16087e-09
3.42157e-11
1.05496e-09
3.00332e-11
9.47947e-10
2.57246e-11
8.4174e-10
2.14464e-11
7.37861e-10
1.73343e-11
6.37495e-10
1.35025e-11
5.4154e-10
1.00442e-11
4.50649e-10
7.0322e-12
3.65271e-10
4.52039e-12
2.85681e-10
2.54577e-12
2.12014e-10
1.13021e-12
1.44292e-10
2.82476e-13
8.24446e-11
2.63278e-11
4.53608e-12
6.08488e-10
-1.22377e-12
9.29477e-12
9.26051e-10
1.48342e-11
1.17473e-09
2.05462e-11
1.35989e-09
2.59265e-11
1.48809e-09
3.05957e-11
1.5664e-09
3.43002e-11
1.60196e-09
3.69016e-11
1.60163e-09
3.83589e-11
1.57185e-09
3.87085e-11
1.51845e-09
3.80441e-11
1.44665e-09
3.64978e-11
1.36105e-09
3.42248e-11
1.26561e-09
3.139e-11
1.16371e-09
2.81583e-11
1.05819e-09
2.46869e-11
9.51418e-10
2.11203e-11
8.45307e-10
1.75873e-11
7.41394e-10
1.41989e-11
6.40883e-10
1.10479e-11
5.44691e-10
8.2094e-12
4.53488e-10
5.74164e-12
3.67739e-10
3.68719e-12
2.87735e-10
2.07467e-12
2.13627e-10
9.20356e-13
1.45447e-10
2.29911e-13
8.3135e-11
2.65577e-11
3.50145e-12
6.05932e-10
-9.44989e-13
7.16985e-12
9.22382e-10
1.14321e-11
1.17047e-09
1.58158e-11
1.3555e-09
1.99307e-11
1.48397e-09
2.3485e-11
1.56284e-09
2.62858e-11
1.59915e-09
2.82301e-11
1.59969e-09
2.92913e-11
1.57079e-09
2.95019e-11
1.51823e-09
2.89387e-11
1.44721e-09
2.77069e-11
1.36228e-09
2.59286e-11
1.26738e-09
2.37324e-11
1.1659e-09
2.12455e-11
1.06068e-09
1.85883e-11
9.54075e-10
1.58707e-11
8.48025e-10
1.31894e-11
7.44075e-10
1.06273e-11
6.43446e-10
8.25291e-12
5.47065e-10
6.12088e-12
4.5562e-10
4.27293e-12
3.69586e-10
2.73896e-12
2.89269e-10
1.5383e-12
2.14827e-10
6.81125e-13
1.46304e-10
1.69785e-13
8.36464e-11
2.67275e-11
2.51228e-12
6.04098e-10
-6.786e-13
5.13894e-12
9.19756e-10
8.18297e-12
1.16742e-09
1.13027e-11
1.35239e-09
1.42175e-11
1.48106e-09
1.67192e-11
1.56034e-09
1.86723e-11
1.5972e-09
2.00072e-11
1.59835e-09
2.0709e-11
1.57008e-09
2.08058e-11
1.51814e-09
2.03561e-11
1.44766e-09
1.94388e-11
1.3632e-09
1.81432e-11
1.26868e-09
1.65625e-11
1.16748e-09
1.47878e-11
1.06245e-09
1.29043e-11
9.55959e-10
1.0989e-11
8.4994e-10
9.10907e-12
7.45955e-10
7.32109e-12
6.45234e-10
5.67133e-12
5.48715e-10
4.19607e-12
4.57095e-10
2.92236e-12
3.7086e-10
1.86897e-12
2.90322e-10
1.04736e-12
2.15649e-10
4.6276e-13
1.46889e-10
1.15102e-13
8.3994e-11
2.68426e-11
1.68328e-12
6.0287e-10
-4.55011e-13
3.4391e-12
9.18e-10
5.46762e-12
1.16539e-09
7.53778e-12
1.35032e-09
9.46106e-12
1.47913e-09
1.10991e-11
1.5587e-09
1.23636e-11
1.59594e-09
1.32111e-11
1.59751e-09
1.36353e-11
1.56966e-09
1.36584e-11
1.51812e-09
1.33227e-11
1.448e-09
1.2683e-11
1.36384e-09
1.18009e-11
1.26956e-09
1.0739e-11
1.16854e-09
9.55835e-12
1.06363e-09
8.315e-12
9.57202e-10
7.05905e-12
8.51196e-10
5.83359e-12
7.47181e-10
4.67446e-12
6.46393e-10
3.61039e-12
5.49779e-10
2.66347e-12
4.58042e-10
1.84967e-12
3.71674e-10
1.1796e-12
2.90993e-10
6.59181e-13
2.16169e-10
2.90405e-13
1.47257e-10
7.199e-14
8.42124e-11
2.69146e-11
1.05389e-12
6.02101e-10
-2.85164e-13
2.15006e-12
9.16904e-10
3.41174e-12
1.16413e-09
4.69276e-12
1.34903e-09
5.8748e-12
1.47795e-09
6.87214e-12
1.55771e-09
7.63136e-12
1.59518e-09
8.12772e-12
1.59701e-09
8.35993e-12
1.56943e-09
8.34438e-12
1.51813e-09
8.10967e-12
1.44823e-09
7.69174e-12
1.36425e-09
7.12995e-12
1.27012e-09
6.46396e-12
1.16921e-09
5.73158e-12
1.06437e-09
4.96725e-12
9.57967e-10
4.20119e-12
8.51962e-10
3.459e-12
7.47923e-10
2.76156e-12
6.4709e-10
2.12525e-12
5.50415e-10
1.56228e-12
4.58605e-10
1.08116e-12
3.72155e-10
6.87116e-13
2.91387e-10
3.8266e-13
2.16474e-10
1.67995e-13
1.47472e-10
4.14791e-14
8.4339e-11
2.69561e-11
6.16137e-13
6.01652e-10
-1.66899e-13
1.25468e-12
9.16265e-10
1.98603e-12
1.1634e-09
2.72352e-12
1.3483e-09
3.39781e-12
1.47728e-09
3.95962e-12
1.55714e-09
4.37923e-12
1.59476e-09
4.64413e-12
1.59674e-09
4.75558e-12
1.56932e-09
4.725e-12
1.51816e-09
4.57061e-12
1.44839e-09
4.31448e-12
1.36451e-09
3.98016e-12
1.27046e-09
3.59098e-12
1.1696e-09
3.16871e-12
1.06479e-09
2.73288e-12
9.58402e-10
2.30028e-12
8.52394e-10
1.88483e-12
7.48338e-10
1.49763e-12
6.47477e-10
1.14711e-12
5.50766e-10
8.39313e-13
4.58913e-10
5.78158e-13
3.72416e-10
3.65772e-13
2.91599e-10
2.02786e-13
2.16637e-10
8.86267e-14
1.47586e-10
2.17744e-14
8.44058e-11
2.69779e-11
3.07414e-13
6.01428e-10
-8.34649e-14
6.23845e-13
9.15949e-10
9.83419e-13
1.16304e-09
1.34204e-12
1.34794e-09
1.66487e-12
1.47695e-09
1.9277e-12
1.55688e-09
2.1167e-12
1.59457e-09
2.22703e-12
1.59663e-09
2.26092e-12
1.56928e-09
2.22572e-12
1.5182e-09
2.13195e-12
1.44848e-09
1.99175e-12
1.36465e-09
1.81763e-12
1.27063e-09
1.62155e-12
1.1698e-09
1.41433e-12
1.065e-09
1.2053e-12
9.58611e-10
1.00216e-12
8.52598e-10
8.10968e-13
7.4853e-10
6.36222e-13
6.47652e-10
4.81055e-13
5.50921e-10
3.47389e-13
4.59046e-10
2.36133e-13
3.72528e-10
1.47378e-13
2.91688e-10
8.05741e-14
2.16704e-10
3.46938e-14
1.47632e-10
8.36809e-15
8.44321e-11
2.69862e-11
1.25301e-13
6.01336e-10
-3.40071e-14
2.52732e-13
9.15821e-10
3.94544e-13
1.1629e-09
5.31707e-13
1.3478e-09
6.49758e-13
1.47684e-09
7.39341e-13
1.55679e-09
7.95947e-13
1.59451e-09
8.19129e-13
1.59661e-09
8.11491e-13
1.56929e-09
7.77645e-13
1.51823e-09
7.23274e-13
1.44854e-09
6.5438e-13
1.36472e-09
5.76715e-13
1.27071e-09
4.95411e-13
1.16988e-09
4.14758e-13
1.06508e-09
3.38121e-13
9.58688e-10
2.67943e-13
8.52668e-10
2.05814e-13
7.48592e-10
1.52582e-13
6.47705e-10
1.08465e-13
5.50965e-10
7.32012e-14
4.59082e-10
4.61659e-14
3.72555e-10
2.64871e-14
2.91707e-10
1.31383e-14
2.16717e-10
5.01755e-15
1.4764e-10
1.00983e-15
8.44362e-11
2.69872e-11
2.95749e-14
6.01315e-10
-8.33347e-15
5.70844e-14
9.15794e-10
8.4193e-14
1.16287e-09
1.05191e-13
1.34778e-09
1.1651e-13
1.47682e-09
1.16749e-13
1.55679e-09
1.06349e-13
1.59452e-09
8.70981e-14
1.59663e-09
6.15731e-14
1.56932e-09
3.26546e-14
1.51826e-09
3.13124e-15
1.44857e-09
-2.45705e-14
1.36475e-09
-4.85493e-14
1.27073e-09
-6.74954e-14
1.1699e-09
-8.06877e-14
1.06509e-09
-8.79416e-14
9.58695e-10
-8.9527e-14
8.52669e-10
-8.60743e-14
7.48588e-10
-7.84761e-14
6.47698e-10
-6.77955e-14
5.50955e-10
-5.51857e-14
4.59069e-10
-4.18184e-14
3.72541e-10
-2.88289e-14
2.91694e-10
-1.72744e-14
2.16705e-10
-8.10289e-15
1.47631e-10
-2.13481e-15
8.44302e-11
2.69851e-11
-3.67099e-14
6.01342e-10
9.80804e-15
-7.7387e-14
9.15834e-10
-1.2847e-13
1.16292e-09
-1.86173e-13
1.34784e-09
-2.46629e-13
1.47688e-09
-3.06038e-13
1.55685e-09
-3.6089e-13
1.59458e-09
-4.08166e-13
1.59668e-09
-4.45497e-13
1.56935e-09
-4.71261e-13
1.51828e-09
-4.84606e-13
1.44858e-09
-4.85422e-13
1.36475e-09
-4.74263e-13
1.27072e-09
-4.52237e-13
1.16987e-09
-4.20885e-13
1.06506e-09
-3.82053e-13
9.58657e-10
-3.37764e-13
8.52625e-10
-2.90116e-13
7.48541e-10
-2.4118e-13
6.47649e-10
-1.92931e-13
5.50906e-10
-1.47185e-13
4.59023e-10
-1.05563e-13
3.725e-10
-6.9461e-14
2.91658e-10
-4.00393e-14
2.16676e-10
-1.82217e-14
1.47609e-10
-4.70028e-15
8.44167e-11
2.69804e-11
-6.77106e-14
6.01392e-10
1.80444e-14
-1.40614e-13
9.15907e-10
-2.28188e-13
1.16301e-09
-3.22111e-13
1.34793e-09