/*--------------------------------*- C++ -*----------------------------------*\
| =========                 |                                                 |
| \\      /  F ield         | OpenFOAM: The Open Source CFD Toolbox           |
|  \\    /   O peration     | Version:  2212                                  |
|   \\  /    A nd           | Website:  www.openfoam.com                      |
|    \\/     M anipulation  |                                                 |
\*---------------------------------------------------------------------------*/
FoamFile
{
    version     2.0;
    format      ascii;
    arch        "LSB;label=32;scalar=64";
    class       volScalarField;
    location    "20.00000000";
    object      A1C2H_0;
}
// * * * * * * * * * * * * * * * * * * * * * * * * * * * * * * * * * * * * * //

dimensions      [0 0 0 0 0 0 0];

internalField   nonuniform List<scalar> 
3000
(
3.484358621e-25
3.913944757e-25
4.562171653e-25
5.425982613e-25
6.496614421e-25
7.745020635e-25
9.096013381e-25
1.038515608e-24
1.129690661e-24
1.308220442e-24
1.475451111e-24
1.727690397e-24
2.064572286e-24
2.485771704e-24
2.988952926e-24
3.565392939e-24
4.185886982e-24
4.735685308e-24
2.930453481e-24
3.331025757e-24
3.941001965e-24
4.769234921e-24
5.830653949e-24
7.140658538e-24
8.69412618e-24
1.040368498e-23
1.186514887e-23
5.582193504e-24
6.411826465e-24
7.693692222e-24
9.471206285e-24
1.180739209e-23
1.476158098e-23
1.831755499e-23
2.219013817e-23
2.531593017e-23
9.913312229e-24
1.152656776e-23
1.405846443e-23
1.763769065e-23
2.24326843e-23
2.857776454e-23
3.597006362e-23
4.381948242e-23
4.984470575e-23
1.704801205e-23
2.007642458e-23
2.489745119e-23
3.181888792e-23
4.121017173e-23
5.330783677e-23
6.775119657e-23
8.271930331e-23
9.379461643e-23
2.894296046e-23
3.45064016e-23
4.346619513e-23
5.647469625e-23
7.425653592e-23
9.716541616e-23
1.242542932e-22
1.517779302e-22
1.716384364e-22
4.898255361e-23
5.905145967e-23
7.541139091e-23
9.934767056e-23
1.321955108e-22
1.744278358e-22
2.239259257e-22
2.734847622e-22
3.086479029e-22
8.30303709e-23
1.010601752e-22
1.305444408e-22
1.739015059e-22
2.335062063e-22
3.099312352e-22
3.9885901e-22
4.869689933e-22
5.487945524e-22
1.412393125e-22
1.732696408e-22
2.258890472e-22
3.035172022e-22
4.103016015e-22
5.468616211e-22
7.0488178e-22
8.603007174e-22
9.685455591e-22
2.412005943e-22
2.977681668e-22
3.909933573e-22
5.288059049e-22
7.183871068e-22
9.602893429e-22
1.239052623e-21
1.511821873e-21
1.700844548e-21
4.134000183e-22
5.128601178e-22
6.771344863e-22
9.20287002e-22
1.254712992e-21
1.680675175e-21
2.170067302e-21
2.647213234e-21
2.976720091e-21
7.106891644e-22
8.849876422e-22
1.173307804e-21
1.600411796e-21
2.187684163e-21
2.934676914e-21
3.791030327e-21
4.62383496e-21
5.197564657e-21
1.224719041e-21
1.529417706e-21
2.033976794e-21
2.781794495e-21
3.80978799e-21
5.116019922e-21
6.611115914e-21
8.062463e-21
9.060596999e-21
2.114464099e-21
2.646155611e-21
3.527254429e-21
4.833594972e-21
6.628971406e-21
8.908536662e-21
1.151468833e-20
1.404126411e-20
1.577670291e-20
3.655733963e-21
4.58228841e-21
6.118550921e-21
8.396775565e-21
1.152730326e-20
1.549981071e-20
2.003758564e-20
2.443255533e-20
2.744855582e-20
6.327122618e-21
7.940219371e-21
1.061580413e-20
1.458421423e-20
2.003643832e-20
2.695206754e-20
3.484671185e-20
4.248734369e-20
4.772696615e-20
1.095921474e-20
1.376557105e-20
1.842161831e-20
2.532812266e-20
3.481582405e-20
4.684597939e-20
6.05724322e-20
7.384978307e-20
8.295006621e-20
1.899359902e-20
2.387338749e-20
3.197097726e-20
4.398311634e-20
6.048267178e-20
8.139780082e-20
1.052525979e-19
1.283166923e-19
1.441188276e-19
3.29324575e-20
4.141435518e-20
5.54909868e-20
7.637282026e-20
1.050520001e-19
1.413970377e-19
1.828361949e-19
2.228866642e-19
2.503176161e-19
5.711882992e-20
7.185750315e-20
9.631937168e-20
1.32605913e-19
1.824346386e-19
2.45566267e-19
3.175225487e-19
3.870422733e-19
4.346408803e-19
9.909032587e-20
1.246951084e-19
1.671917005e-19
2.302256923e-19
3.167679716e-19
4.263833179e-19
5.512763915e-19
6.718942769e-19
7.544491459e-19
1.719263631e-19
2.163985449e-19
2.902057887e-19
3.996668461e-19
5.499149119e-19
7.401564747e-19
9.568234662e-19
1.165981045e-18
1.30907605e-18
2.983162657e-19
3.755410187e-19
5.036909667e-19
6.937063477e-19
9.544418765e-19
1.284441361e-18
1.660089313e-18
2.022521155e-18
2.270351781e-18
5.176021403e-19
6.51664708e-19
8.740934523e-19
1.203804312e-18
1.656036642e-18
2.2280925e-18
2.878864174e-18
3.506310877e-18
3.935078453e-18
8.979556924e-19
1.130607202e-18
1.516507792e-18
2.088306678e-18
2.872152989e-18
3.862991809e-18
4.989247716e-18
6.074182172e-18
6.814948688e-18
1.557398205e-18
1.960948452e-18
2.630079671e-18
3.621020122e-18
4.978464481e-18
6.692824424e-18
8.639436109e-18
1.05125109e-17
1.179000239e-17
2.700009929e-18
3.399542338e-18
4.558894093e-18
6.274629399e-18
8.622760941e-18
1.158487633e-17
1.494378149e-17
1.817114623e-17
2.036922137e-17
4.678150063e-18
5.889692185e-18
7.896377681e-18
1.086345692e-17
1.491939035e-17
2.002842386e-17
2.581207912e-17
3.13591695e-17
3.513047449e-17
8.09905183e-18
1.019493187e-17
1.366364916e-17
1.878675398e-17
2.577962721e-17
3.457220937e-17
4.450498758e-17
5.401009404e-17
6.045817283e-17
1.400680486e-17
1.762708094e-17
2.361286869e-17
3.244127011e-17
4.446985146e-17
5.956048457e-17
7.656439652e-17
9.279160288e-17
1.037704431e-16
2.419179698e-17
3.043327121e-17
4.074058223e-17
5.591686901e-17
7.654853625e-17
1.023624837e-16
1.31359598e-16
1.589413218e-16
1.775428245e-16
4.171450632e-17
5.244942681e-17
7.015142248e-17
9.616171511e-17
1.314275972e-16
1.754094787e-16
2.246342933e-16
2.712753879e-16
3.02613498e-16
7.178764966e-17
9.019736791e-17
1.205018784e-16
1.649197235e-16
2.249528958e-16
2.99539665e-16
3.826619725e-16
4.610694235e-16
5.135260011e-16
1.232535945e-16
1.547151242e-16
2.063964437e-16
2.81926125e-16
3.836310025e-16
5.094372157e-16
6.489555009e-16
7.798927247e-16
8.670719278e-16
2.110436901e-16
2.645895226e-16
3.523333673e-16
4.801320196e-16
6.514859089e-16
8.623853356e-16
1.094983778e-15
1.312043289e-15
1.455798059e-15
3.602452194e-16
4.509435631e-16
5.9914769e-16
8.14166491e-16
1.101069169e-15
1.452200974e-15
1.837098277e-15
2.194063797e-15
2.429123328e-15
6.12779329e-16
7.655737021e-16
1.014438621e-15
1.3739083e-15
1.850953407e-15
2.431174842e-15
3.062968694e-15
3.645028522e-15
4.025987715e-15
1.038283373e-15
1.294115212e-15
1.709288257e-15
2.306032269e-15
3.093229519e-15
4.044235635e-15
5.072414431e-15
6.013034483e-15
6.624790753e-15
1.751702351e-15
2.177155361e-15
2.864810146e-15
3.847864829e-15
5.136266372e-15
6.681574982e-15
8.339799128e-15
9.845825062e-15
1.081899998e-14
2.94148416e-15
3.643783356e-15
4.773894647e-15
6.380034385e-15
8.470507888e-15
1.095886556e-14
1.36084115e-14
1.5997026e-14
1.753053808e-14
4.91436709e-15
6.064401992e-15
7.906203501e-15
1.050752271e-14
1.386869663e-14
1.783833672e-14
2.203188191e-14
2.578450749e-14
2.817833586e-14
8.165861532e-15
1.003306352e-14
1.300837149e-14
1.718321415e-14
2.253707275e-14
2.880983876e-14
3.538422995e-14
4.122449373e-14
4.492688286e-14
1.349010078e-14
1.649459614e-14
2.125700269e-14
2.789445777e-14
3.63414254e-14
4.615932309e-14
5.636936624e-14
6.537504087e-14
7.105007063e-14
2.214937394e-14
2.693900002e-14
3.449010131e-14
4.494227846e-14
5.81422348e-14
7.336385039e-14
8.907383427e-14
1.028365249e-13
1.114602799e-13
3.613319103e-14
4.369589934e-14
5.555401988e-14
7.185576813e-14
9.228773271e-14
1.1566864e-13
1.396247246e-13
1.60476373e-13
1.734731248e-13
5.855031487e-14
7.03764648e-14
8.881917936e-14
1.140023425e-13
1.453341759e-13
1.809246098e-13
2.171400092e-13
2.484725552e-13
2.679067461e-13
9.421641883e-14
1.125308695e-13
1.409405719e-13
1.794800081e-13
2.270912369e-13
2.807968304e-13
3.350937643e-13
3.818082537e-13
4.106540494e-13
1.505271238e-13
1.786183954e-13
2.219709957e-13
2.804134029e-13
3.52130308e-13
4.324987739e-13
5.132676159e-13
5.82402775e-13
6.249209248e-13
2.387442622e-13
2.814281202e-13
3.469797187e-13
4.348250639e-13
5.419488976e-13
6.612686882e-13
7.80527082e-13
8.821357974e-13
9.443993875e-13
3.758767469e-13
4.40145571e-13
5.38392155e-13
6.693228446e-13
8.280611972e-13
1.003889367e-12
1.178754699e-12
1.327122455e-12
1.417748331e-12
5.874123419e-13
6.833419411e-13
8.2935512e-13
1.022941844e-12
1.256391181e-12
1.513668016e-12
1.768397821e-12
1.983733602e-12
2.114899262e-12
9.112323175e-13
1.053232529e-12
1.268504841e-12
1.552571569e-12
1.893475088e-12
2.267469149e-12
2.63629274e-12
2.947068124e-12
3.135910262e-12
1.403201508e-12
1.611753349e-12
1.926765773e-12
2.340671473e-12
2.835228482e-12
3.375589356e-12
3.906606067e-12
4.352778466e-12
4.623329007e-12
2.145167354e-12
2.449220751e-12
2.906976301e-12
3.506127391e-12
4.219233617e-12
4.995572434e-12
5.756120742e-12
6.393573016e-12
6.779425195e-12
3.256272486e-12
3.696546156e-12
4.357431555e-12
5.219487613e-12
6.241938598e-12
7.351496163e-12
8.435529717e-12
9.342171357e-12
9.890143948e-12
4.908907257e-12
5.542420916e-12
6.490881492e-12
7.72427165e-12
9.182644143e-12
1.076080656e-11
1.229900812e-11
1.358314176e-11
1.435830576e-11
7.35111322e-12
8.257400147e-12
9.61108611e-12
1.13666736e-11
1.343685425e-11
1.567154578e-11
1.784516866e-11
1.96569409e-11
2.074950159e-11
1.093792679e-11
1.222753349e-11
1.414980869e-11
1.663683688e-11
1.956250942e-11
2.271385526e-11
2.577363139e-11
2.832067813e-11
2.985538061e-11
1.617507369e-11
1.800116635e-11
2.071818286e-11
2.422603253e-11
2.834389293e-11
3.277103163e-11
3.706295509e-11
4.063174207e-11
4.278071211e-11
2.377967081e-11
2.635385279e-11
3.017781204e-11
3.510563017e-11
4.087971334e-11
4.707729349e-11
5.307772151e-11
5.8062608e-11
6.106284687e-11
3.476426862e-11
3.837809334e-11
4.373887235e-11
5.06358425e-11
5.870416782e-11
6.735194047e-11
7.571529557e-11
8.26580397e-11
8.683521031e-11
5.055281987e-11
5.560699184e-11
6.309506105e-11
7.271503863e-11
8.39528844e-11
9.598296912e-11
1.076064357e-10
1.172497709e-10
1.230504599e-10
7.314019114e-11
8.018413175e-11
9.060869432e-11
1.039842019e-10
1.195897787e-10
1.362777119e-10
1.523887785e-10
1.657488967e-10
1.737842645e-10
1.053109233e-10
1.150962881e-10
1.295638985e-10
1.481061467e-10
1.697163455e-10
1.928040278e-10
2.150786541e-10
2.33543027e-10
2.446477185e-10
1.509384151e-10
1.644913366e-10
1.845119833e-10
2.101457559e-10
2.399921501e-10
2.718534647e-10
3.025752023e-10
3.280342784e-10
3.433457308e-10
2.153928883e-10
2.341112605e-10
2.617411521e-10
2.970862591e-10
3.382048497e-10
3.820682336e-10
4.243419856e-10
4.593660641e-10
4.8043101e-10
3.060958893e-10
3.318800417e-10
3.699133204e-10
4.185281108e-10
4.750406703e-10
5.352875237e-10
5.933260268e-10
6.414022359e-10
6.703193764e-10
4.33271439e-10
4.686992322e-10
5.209247658e-10
5.876321548e-10
6.651227206e-10
7.476865517e-10
8.2719341e-10
8.930424538e-10
9.326531217e-10
6.109601168e-10
6.595209861e-10
7.310654873e-10
8.223883938e-10
9.284058697e-10
1.041304884e-09
1.149985449e-09
1.239983938e-09
1.294126263e-09
8.583832649e-10
9.247902413e-10
1.022575551e-09
1.14731696e-09
1.29204433e-09
1.446090244e-09
1.594331255e-09
1.717073356e-09
1.790920189e-09
1.201771244e-09
1.292375752e-09
1.425726532e-09
1.595740019e-09
1.792882878e-09
2.002621588e-09
2.204392732e-09
2.371434931e-09
2.471941818e-09
1.67680343e-09
1.800144949e-09
1.981593666e-09
2.212803625e-09
2.480766074e-09
2.765721939e-09
3.039767841e-09
3.266613214e-09
3.403110215e-09
2.331849623e-09
2.499381346e-09
2.745730623e-09
3.059478017e-09
3.422912932e-09
3.809228273e-09
4.180638243e-09
4.488031987e-09
4.673002314e-09
3.232253575e-09
3.459296215e-09
3.793014572e-09
4.217824066e-09
4.709667484e-09
5.232252668e-09
5.734517936e-09
6.150144178e-09
6.400243432e-09
4.465959652e-09
4.772948453e-09
5.223994188e-09
5.797881801e-09
6.462007577e-09
7.167344335e-09
7.845038115e-09
8.405728681e-09
8.743110676e-09
6.150852073e-09
6.564956592e-09
7.173145401e-09
7.946611672e-09
8.841271431e-09
9.791041723e-09
1.070328489e-08
1.145787265e-08
1.191190061e-08
8.444249349e-09
9.00146076e-09
9.819514319e-09
1.085939435e-08
1.206163684e-08
1.333737876e-08
1.456228039e-08
1.557525056e-08
1.618468434e-08
1.155506787e-08
1.230286261e-08
1.340029499e-08
1.479466003e-08
1.640594873e-08
1.811496474e-08
1.975524733e-08
2.111135515e-08
2.192711343e-08
1.575922687e-08
1.675992539e-08
1.82279374e-08
2.0092257e-08
2.22455181e-08
2.452827131e-08
2.671829697e-08
2.852832336e-08
2.961692015e-08
2.141889556e-08
2.275383661e-08
2.471138808e-08
2.719615841e-08
3.006448278e-08
3.310370296e-08
3.601809878e-08
3.842589674e-08
3.987363915e-08
2.900616056e-08
3.078079828e-08
3.338200697e-08
3.668201867e-08
4.048919827e-08
4.452086647e-08
4.838489057e-08
5.157582432e-08
5.34938238e-08
3.913159187e-08
4.148158982e-08
4.492455255e-08
4.928989906e-08
5.432288659e-08
5.96491625e-08
6.47508439e-08
6.89616248e-08
7.14916202e-08
5.257798528e-08
5.567632185e-08
6.0213363e-08
6.596216883e-08
7.258540211e-08
7.958939328e-08
8.62933102e-08
9.182310378e-08
9.514400846e-08
7.033924193e-08
7.440425519e-08
8.035347824e-08
8.78861591e-08
9.655749384e-08
1.05719547e-07
1.14481913e-07
1.217044084e-07
1.260393738e-07
9.366391115e-08
9.896810381e-08
1.067259668e-07
1.165406385e-07
1.278284084e-07
1.397434004e-07
1.511279166e-07
1.605038772e-07
1.661276048e-07
1.241023927e-07
1.309817037e-07
1.410361751e-07
1.537446459e-07
1.683452151e-07
1.837401602e-07
1.984339821e-07
2.105238234e-07
2.177698411e-07
1.635562079e-07
1.724193604e-07
1.853631042e-07
2.01706785e-07
2.204618419e-07
2.402130754e-07
2.590423688e-07
2.745184062e-07
2.837862088e-07
2.143272409e-07
2.256647445e-07
2.422077395e-07
2.630727147e-07
2.869855493e-07
3.121349033e-07
3.360794813e-07
3.557374768e-07
3.674991882e-07
2.791645341e-07
2.935568796e-07
3.145378499e-07
3.409685346e-07
3.712187972e-07
4.029882587e-07
4.331947686e-07
4.579640498e-07
4.727701124e-07
3.613061618e-07
3.7943094e-07
4.058272945e-07
4.390383182e-07
4.769948649e-07
5.167990521e-07
5.545916615e-07
5.855430566e-07
6.04026641e-07
4.645147284e-07
4.871525949e-07
5.200887871e-07
5.614748044e-07
6.087056186e-07
6.581607015e-07
7.050483897e-07
7.433994522e-07
7.662792563e-07
5.931065362e-07
6.211457844e-07
6.618991678e-07
7.130409574e-07
7.71318745e-07
8.322470514e-07
8.899269434e-07
9.370439859e-07
9.651251563e-07
7.519722341e-07
7.864106331e-07
8.364135124e-07
8.990796552e-07
9.703826985e-07
1.044812526e-06
1.115168795e-06
1.172565387e-06
1.206738372e-06
9.465845403e-07
9.885284422e-07
1.049366308e-06
1.125510252e-06
1.212018172e-06
1.30217845e-06
1.387276508e-06
1.456608233e-06
1.497845464e-06
1.182992291e-06
1.23365296e-06
1.307058781e-06
1.398811105e-06
1.502895357e-06
1.611205023e-06
1.713280902e-06
1.796336339e-06
1.845686725e-06
1.467800168e-06
1.528487292e-06
1.616331825e-06
1.725987698e-06
1.850196832e-06
1.979249002e-06
2.100694043e-06
2.199382076e-06
2.257963382e-06
1.808133855e-06
1.880246308e-06
1.984524555e-06
2.114526572e-06
2.261566504e-06
2.414107714e-06
2.557448852e-06
2.673782556e-06
2.742771829e-06
2.211590948e-06
2.296604989e-06
2.419419073e-06
2.572335835e-06
2.745045566e-06
2.923950564e-06
3.091826672e-06
3.22790417e-06
3.308526427e-06
2.686178507e-06
2.785633696e-06
2.929172572e-06
3.107673538e-06
3.308996924e-06
3.517239658e-06
3.712374551e-06
3.870357329e-06
3.963872818e-06
3.240238658e-06
3.355721859e-06
3.522238395e-06
3.729065668e-06
3.962019996e-06
4.202641551e-06
4.42781438e-06
4.609903644e-06
4.717594007e-06
3.882364093e-06
4.015491989e-06
4.207278036e-06
4.445215852e-06
4.712858067e-06
4.98893245e-06
5.246946288e-06
5.455357998e-06
5.578511717e-06
4.621305675e-06
4.773706288e-06
4.993066419e-06
5.264909171e-06
5.570300686e-06
5.884899367e-06
6.178548832e-06
6.415488094e-06
6.555385602e-06
5.465874606e-06
5.639168312e-06
5.888392957e-06
6.196912617e-06
6.543083648e-06
6.899239809e-06
7.231278585e-06
7.49891407e-06
7.656812925e-06
6.424841771e-06
6.620622331e-06
6.901961001e-06
7.249874805e-06
7.639789151e-06
8.040462572e-06
8.413571659e-06
8.714010697e-06
8.891131192e-06
7.506836884e-06
7.726652965e-06
8.042288263e-06
8.432227463e-06
8.868748624e-06
9.316792062e-06
9.733549523e-06
1.006881447e-05
1.026632601e-05
8.720249988e-06
8.96558763e-06
9.31761067e-06
9.752091102e-06
1.023795052e-05
1.073607835e-05
1.119893124e-05
1.157093765e-05
1.178994621e-05
1.007313769e-05
1.034540411e-05
1.073579188e-05
1.1217187e-05
1.175495509e-05
1.230571491e-05
1.281695397e-05
1.322749097e-05
1.34690279e-05
1.157313622e-05
1.187364529e-05
1.230424045e-05
1.283475733e-05
1.34268179e-05
1.403256551e-05
1.459430306e-05
1.50450164e-05
1.531002868e-05
1.32273831e-05
1.355734275e-05
1.402983613e-05
1.46114949e-05
1.526002331e-05
1.592290162e-05
1.653705304e-05
1.702943084e-05
1.731877307e-05
1.504244883e-05
1.540295057e-05
1.591886675e-05
1.655348362e-05
1.7260429e-05
1.798235098e-05
1.865061982e-05
1.91859814e-05
1.950040943e-05
1.702427963e-05
1.741629023e-05
1.797697616e-05
1.866615033e-05
1.943322196e-05
2.021585778e-05
2.093972481e-05
2.15192124e-05
2.185937879e-05
1.917815167e-05
1.960250716e-05
2.020912404e-05
2.095422837e-05
2.178288623e-05
2.262765452e-05
2.340837049e-05
2.403294402e-05
2.439939513e-05
2.150863737e-05
2.196603918e-05
2.261955735e-05
2.342173279e-05
2.431318217e-05
2.52212454e-05
2.605982735e-05
2.673026202e-05
2.712343677e-05
2.40195832e-05
2.451059643e-05
2.521179328e-05
2.607194687e-05
2.702713679e-05
2.799940035e-05
2.88966315e-05
2.961351795e-05
3.003374814e-05
2.671409889e-05
2.72391526e-05
2.798861322e-05
2.890741931e-05
2.992704454e-05
3.096415938e-05
3.192059195e-05
3.268433894e-05
3.313185087e-05
2.959455725e-05
3.015394644e-05
3.095206679e-05
3.192997131e-05
3.301447752e-05
3.411684585e-05
3.513280676e-05
3.594364595e-05
3.641856337e-05
3.266260359e-05
3.325649286e-05
3.410348513e-05
3.514071248e-05
3.62903042e-05
3.745808795e-05
3.853368692e-05
3.93916795e-05
3.989402751e-05
3.59191739e-05
3.654760246e-05
3.744350231e-05
3.854006444e-05
3.975471543e-05
4.0987847e-05
4.212298663e-05
4.302803151e-05
4.355774146e-05
3.936452047e-05
4.002740826e-05
4.097208371e-05
4.212779109e-05
4.340725661e-05
4.470545154e-05
4.589983909e-05
4.685168234e-05
4.740859732e-05
4.299824392e-05
4.36953987e-05
4.46885602e-05
4.590303424e-05
4.724686491e-05
4.860963596e-05
4.986279636e-05
5.086104162e-05
5.14449226e-05
4.681933029e-05
4.755045538e-05
4.859166692e-05
4.986435353e-05
5.12719103e-05
5.269858264e-05
5.400987246e-05
5.505399204e-05
5.56645243e-05
5.082619221e-05
5.159089475e-05
5.267958558e-05
5.400976945e-05
5.548023938e-05
5.696996651e-05
5.833858849e-05
5.942793488e-05
6.006473476e-05
5.501671292e-05
5.581451245e-05
5.694998919e-05
5.833680859e-05
5.986922102e-05
6.142100103e-05
6.284601894e-05
6.397983659e-05
6.46424583e-05
5.938829213e-05
6.02186293e-05
6.140008831e-05
6.284254997e-05
6.443579291e-05
6.60484849e-05
6.752883845e-05
6.870627545e-05
6.939421788e-05
6.393789297e-05
6.480013824e-05
6.602667789e-05
6.75236719e-05
6.91765082e-05
7.08488485e-05
7.238336803e-05
7.360348778e-05
7.431620124e-05
6.8662089e-05
6.955555118e-05
7.082618394e-05
7.23764983e-05
7.408758161e-05
7.581819962e-05
7.740562051e-05
7.866741294e-05
7.940430567e-05
7.355711067e-05
7.448104529e-05
7.579470946e-05
7.739704425e-05
7.916493435e-05
8.09523679e-05
8.259134438e-05
8.389373686e-05
8.465418132e-05
7.861889075e-05
7.957250803e-05
8.092807901e-05
8.258105993e-05
8.440423747e-05
8.624694744e-05
8.79360658e-05
8.927793345e-05
9.006127233e-05
8.384310804e-05
8.482558053e-05
8.62218815e-05
8.792407273e-05
8.980095319e-05
9.169733735e-05
9.343512844e-05
9.481530393e-05
9.562085575e-05
8.922522916e-05
9.02356989e-05
9.167151091e-05
9.342142721e-05
9.535037399e-05
9.729878e-05
9.908373089e-05
0.0001005010136
0.000101328078
9.4760548e-05
9.57981332e-05
9.727220459e-05
9.906832257e-05
0.0001010476592
0.0001030463966
0.0001048769615
0.0001063301258
0.0001071779885
0.0001004442227
0.000101508024
0.000103019079
0.0001048598476
0.0001068878688
0.0001089352205
0.0001108098306
0.000112297634
0.000113165571
0.00010627131
0.0001073604161
0.000108907163
0.0001107910127
0.0001128659953
0.0001149602271
0.0001168772998
0.0001183984898
0.000119285772
0.0001122367969
0.0001133502896
0.0001149314279
0.0001168567801
0.0001189769914
0.0001211163618
0.0001230743091
0.0001246276297
0.0001255335262
0.0001183356293
0.0001194725887
0.0001210868156
0.0001230520897
0.0001252157969
0.0001273985652
0.000129395801
0.0001309799985
0.0001319037799
0.0001245627388
0.0001257222469
0.0001273682633
0.0001293718841
0.0001315773613
0.0001338017952
0.0001358367417
0.0001374505699
0.0001383915116
0.0001309130655
0.0001320942104
0.0001337707259
0.00013581113
0.000138056665
0.0001403210468
0.000142392141
0.0001440343656
0.0001449917502
0.0001373815796
0.0001385834585
0.0001402891965
0.0001423648373
0.0001446487374
0.0001469513702
0.0001490570685
0.0001507264713
0.0001516995908
0.0001439632998
0.0001451850219
0.0001469187231
0.0001490280761
0.0001513486735
0.0001536878859
0.0001558266688
0.0001575220509
0.000158510209
0.0001506533094
0.0001518939986
0.0001536544247
0.0001557959912
0.0001581516471
0.0001605257977
0.0001626961735
0.0001644163588
0.0001654188722
0.0001574467707
0.0001587055676
0.0001604915041
0.000162663815
0.0001650529235
0.0001674604045
0.0001696609126
0.0001714047496
0.0001724209498
0.0001643389368
0.0001656150003
0.0001674252595
0.0001696268779
0.0001720478692
0.0001744871094
0.0001767163231
0.0001784826873
0.0001795119216
0.0001713251619
0.0001726176713
0.0001744510936
0.0001766806176
0.0001791319604
0.0001816014278
0.0001838579564
0.0001856457522
0.0001866873846
0.0001784009102
0.0001797090655
0.0001815645217
0.0001838205862
0.0001863007898
0.0001887989937
0.0001910814843
0.000192889646
0.0001939430581
0.0001855617622
0.0001868847858
0.000188761178
0.0001910424562
0.0001935500724
0.0001960755646
0.0001983827034
0.0002002101966
0.0002012747882
0.0001928034205
0.0001941405578
0.0001960368205
0.0001983420253
0.0002008756492
0.0002034270255
0.0002057575389
0.0002076033609
0.0002086785503
0.0002001217143
0.0002014722337
0.0002033873348
0.0002057152193
0.0002082734905
0.0002108493913
0.0002132020465
0.000215065227
0.0002161504515
0.0002075126018
0.0002088757958
0.0002108087367
0.0002131580949
0.0002157396978
0.0002183388088
0.0002207124143
0.0002225920154
0.0002236867311
0.0002149721729
0.0002163473576
0.0002182971738
0.0002206668407
0.000223270505
0.0002258915572
0.0002282849627
0.0002301800795
0.0002312837617
0.0002224966497
0.0002238831655
0.0002258489261
0.0002282377781
0.0002308622784
0.000233504048
0.0002359161448
0.0002378259049
0.0002389380478
0.0002300823877
0.0002314795986
0.0002334604066
0.0002358673608
0.0002385115165
0.0002411728249
0.0002436025449
0.0002455261085
0.0002466462252
0.0002377258749
0.0002391331686
0.0002411281603
0.0002435521745
0.0002462148495
0.0002488945625
0.0002513408783
0.0002532774373
0.0002544050594
0.0002454237307
0.0002468405183
0.0002488488634
0.0002512889352
0.0002539690371
0.0002566660644
0.0002591279884
0.0002610767663
0.0002622114439
0.0002531727046
0.0002545984202
0.0002566193205
0.0002590744871
0.0002617709667
0.000264484261
0.0002669608451
0.0002689210963
0.0002700623973
0.0002609696738
0.0002624037741
0.0002644364637
0.0002669058007
0.0002696176509
0.0002723462074
0.0002748365416
0.000276807551
0.000277955061
0.0002688116414
0.0002702536052
0.0002722973491
0.0002747799701
0.0002775062251
0.0002802490803
0.0002827522924
0.0002847333743
0.000285886696
0.0002766957333
0.000278145061
0.0002801991549
0.0002826942102
0.0002854339445
0.0002881901751
0.0002907054293
0.0002926959269
0.0002938546799
0.0002846191955
0.0002860754084
0.0002881391777
0.0002906458534
0.0002933981806
0.0002961669025
0.0002986933986
0.0003006926832
0.0003018565031
0.0002925793909
0.0002940420307
0.0002961148294
0.0002986323466
0.0003013964184
0.0003041767855
0.0003067137578
0.0003087212275
0.000309889766
0.0003005737957
0.0003020424241
0.0003041236341
0.0003066512476
0.0003094262523
0.0003122174552
0.0003147641713
0.000316779251
0.0003179521746
0.0003085999962
0.0003100741938
0.0003121632243
0.0003147002213
0.000317485383
0.000320286648
0.0003228424077
0.0003248645471
0.0003260415374
0.0003166556851
0.0003181350512
0.000320231337
0.0003227770364
0.0003255716134
0.0003283822008
0.0003309463351
0.0003329750088
0.0003341557614
0.0003247386578
0.0003262228092
0.0003283258106
0.0003308795614
0.000333682845
0.0003365020484
0.0003390739181
0.0003411086239
0.000342292848
0.0003328468084
0.0003343353791
0.0003364445804
0.0003390057607
0.000341817074
0.0003446442185
0.0003472232129
0.0003492634713
0.0003504508894
0.0003409781258
0.0003424707663
0.0003445856749
0.0003471536909
0.0003499723872
0.0003528068282
0.0003553923644
0.0003574377174
0.0003586280641
0.00034913069
0.0003506270665
0.0003527472118
0.0003553214963
0.0003581469581
0.00036098808
0.0003635796009
0.0003656296111
0.0003668226332
0.0003573026679
0.0003588024615
0.0003609273941
0.0003635074051
0.0003663390426
0.0003691862571
0.0003717832307
0.0003738374801
0.0003750329356
0.0003654923088
0.0003669952146
0.0003691245051
0.0003717097249
0.0003745469742
0.0003773997192
0.0003800016369
0.000382059726
0.0003832573836
0.0003736979401
0.0003752036669
0.0003773369047
0.000379926838
0.0003827691599
0.0003856268978
0.000388233273
0.0003902948194
0.0003914944577
0.0003819179627
0.0003834262317
0.0003855630237
0.0003881571966
0.0003910040748
0.0003938662905
0.0003964766571
0.0003985412946
0.0003997427012
0.0003901508456
0.0003916613897
0.0003938013593
0.0003963993173
0.0003992502566
0.0004021164561
0.0004047303665
0.0004067977433
0.0004080007145
0.0003983951209
0.0003999076835
0.0004020504688
0.0004046517751
0.0004075062994
0.0004103760072
0.0004129930307
0.000415062808
0.0004162671474
0.0004066493767
0.0004081637106
0.0004103089629
0.0004129131964
0.0004157708463
0.0004186436034
0.0004212633239
0.0004233351739
0.0004245406913
0.0004149122504
0.0004164281166
0.0004185754984
0.0004211822513
0.0004240425815
0.0004269179423
0.0004295399552
0.0004316135592
0.0004328200695
0.0004231824202
0.0004246995861
0.0004268487689
0.0004294576437
0.0004323202196
0.0004351977489
0.0004378216585
0.0004398967041
0.0004411040257
0.0004314585947
0.0004329768325
0.0004351274941
0.0004377381004
0.0004406024944
0.000443481763
0.0004461071781
0.0004481833561
0.000449391309
0.0004397395011
0.0004412585854
0.0004434104065
0.0004460223566
0.0004488881435
0.0004517687233
0.0004543952532
0.0004564722537
0.000457680657
0.0004480238702
0.0004495435751
0.0004516962354
0.0004543091397
0.0004571758903
0.0004600573486
0.0004626845966
0.0004647621044
0.0004659707736
0.0004563104181
0.000457830514
0.0004599836869
0.0004625971472
0.0004654644221
0.0004683463135
0.0004709738703
0.0004730515588
0.0004742603025
0.0004645978238
0.000466118073
0.00046827142
0.0004708850219
0.0004737523618
0.0004766342196
0.0004792616543
0.0004813391785
0.0004825477936
0.0004728847015
0.000474404853
0.0004765580157
0.0004791713193
0.0004820382348
0.0004849195594
0.0004875464086
0.0004896233962
0.0004908316629
0.0004811695665
0.0004826893498
0.0004848419408
0.0004874544689
0.0004903204272
0.000493200672
0.000495826427
0.0004979024673
0.0004991101423
0.0004894507942
0.0004909699114
0.0004931215029
0.000495732727
0.0004985971354
0.0005014756904
0.0005040997809
0.000506174412
0.0005073812208
0.00049772657
0.0004992446863
0.0005013947966
0.0005040041197
0.0005068663066
0.0005097424776
0.0005123642525
0.0005144369452
0.0005156425728
0.0005059948297
0.000507511562
0.0005096596392
0.0005122663752
0.0005151255665
0.0005179985513
0.0005206172558
0.0005226873954
0.0005238914748
0.0005142531886
0.0005157680926
0.0005179134947
0.0005205168443
0.0005233721363
0.0005262409962
0.0005288557452
0.0005309226094
0.0005321247089
0.0005224988595
0.0005240114134
0.0005261533863
0.000528752409
0.0005316027366
0.0005344663633
0.0005370761106
0.0005391388445
0.0005403384526
0.0005307285583
0.000532238145
0.000534375796
0.0005369693779
0.0005398134782
0.0005426705569
0.0005452740602
0.0005473316482
0.0005485281573
0.0005389383972
0.0005404442839
0.0005425765528
0.0005451633703
0.0005479997425
0.00055084871
0.0005534444922
0.0005554957268
0.0005566884143
0.0005471237676
0.0005486250835
0.0005507507102
0.0005533291902
0.000556156051
0.0005589950506
0.0005615813579
0.0005636248061
0.0005648128152
0.000555279214
0.0005567749255
0.0005588924152
0.0005614606928
0.0005642759292
0.0005671027625
0.0005696775204
0.000571711489
0.0005728938081
0.0005633983009
0.0005648871867
0.0005669947737
0.0005695506476
0.0005723517683
0.0005751638466
0.0005777246152
0.000579747115
0.0005809225573
0.0005714734802
0.000572954105
0.0005750497162
0.0005775906049
0.0005803746921
0.0005831689879
0.0005857129185
0.000587721631
0.0005888888154
0.0005794959622
0.0005809666519
0.0005830478718
0.0005855707716
0.0005883344358
0.0005911074388
0.0005936312349
0.0005956234824
0.0005967808164
0.0005874556003
0.0005889144198
0.0005909784592
0.0005934799068
0.0005962192481
0.0005989669284
0.0006014668136
0.0006034395352
0.0006045852022
0.0005953407943
0.0005967855303
0.000598829203
0.0006013052488
0.0006040158275
0.000606733608
0.0006092053056
0.0006111550432
0.0006122869955
0.0006031384303
0.000604566579
0.0006065862863
0.0006090324787
0.0006117093036
0.0006143920516
0.0006168307766
0.0006187536728
0.0006198696321
0.0006108338624
0.0006122426272
0.0006142343563
0.0006166457425
0.0006192832751
0.0006219253118
0.0006243257869
0.0006262175987
0.0006273150656
0.0006184109508
0.0006197972514
0.0006217565901
0.0006241277377
0.0006267199206
0.0006293150556
0.0006316715473
0.0006335276799
0.0006346039554
0.0006258521672
0.0006272126613
0.0006291348324
0.0006314598752
0.0006340001888
0.0006365417828
0.0006388481645
0.0006406637257
0.0006417159453
0.0006331387755
0.0006344698969
0.0006363498142
0.0006386225257
0.0006411040746
0.0006435851337
0.000645834978
0.0006476048561
0.0006486300372
0.0006402510962
0.0006415491087
0.0006433814575
0.000645595353
0.000648010985
0.0006504242873
0.0006526109882
0.0006543299527
0.0006553250557
0.0006471688547
0.0006484299239
0.0006502092647
0.0006523577331
0.00065470019