/*--------------------------------*- C++ -*----------------------------------*\
| =========                 |                                                 |
| \\      /  F ield         | OpenFOAM: The Open Source CFD Toolbox           |
|  \\    /   O peration     | Version:  2212                                  |
|   \\  /    A nd           | Website:  www.openfoam.com                      |
|    \\/     M anipulation  |                                                 |
\*---------------------------------------------------------------------------*/
FoamFile
{
    version     2.0;
    format      ascii;
    arch        "LSB;label=32;scalar=64";
    class       volScalarField;
    location    "20.00000000";
    object      A2_0;
}
// * * * * * * * * * * * * * * * * * * * * * * * * * * * * * * * * * * * * * //

dimensions      [0 0 0 0 0 0 0];

internalField   nonuniform List<scalar> 
3000
(
4.758283865e-25
5.344932067e-25
6.230158818e-25
7.409789846e-25
8.871857989e-25
1.057669707e-24
1.24216296e-24
1.418209894e-24
1.542719684e-24
1.786522252e-24
2.014894545e-24
2.359355666e-24
2.819405779e-24
3.394600956e-24
4.081751507e-24
4.868945177e-24
5.716299588e-24
6.467111049e-24
4.001864036e-24
4.548890548e-24
5.381881681e-24
6.512926948e-24
7.962414023e-24
9.751372644e-24
1.187280746e-23
1.420740233e-23
1.620319568e-23
7.623113458e-24
8.756070613e-24
1.050660252e-23
1.293399795e-23
1.612432249e-23
2.015859977e-23
2.501468237e-23
3.03031304e-23
3.457175102e-23
1.353774348e-23
1.574082543e-23
1.919841522e-23
2.408625135e-23
3.063435469e-23
3.90261532e-23
4.912116937e-23
5.984043386e-23
6.806855405e-23
2.328097898e-23
2.741661707e-23
3.40002714e-23
4.345227209e-23
5.627712692e-23
7.279784985e-23
9.252188301e-23
1.129625173e-22
1.28087104e-22
3.95248696e-23
4.712237454e-23
5.935798086e-23
7.7122553e-23
1.014056561e-22
1.3269031e-22
1.696832201e-22
2.072698437e-22
2.343916e-22
6.68911891e-23
8.064141341e-23
1.029827405e-22
1.35670424e-22
1.805278463e-22
2.382008387e-22
3.057960505e-22
3.734742189e-22
4.214934445e-22
1.13387315e-22
1.380090417e-22
1.782731243e-22
2.374820757e-22
3.188790017e-22
4.23245979e-22
5.446868626e-22
6.650109599e-22
7.494407182e-22
1.92878175e-22
2.366191928e-22
3.084769135e-22
4.144868948e-22
5.603130087e-22
7.468010828e-22
9.625953921e-22
1.174837441e-21
1.322657953e-21
3.29386554e-22
4.066359399e-22
5.339454284e-22
7.221439703e-22
9.810384354e-22
1.311383161e-21
1.692065789e-21
2.064562895e-21
2.322694629e-21
5.645442454e-22
7.003682036e-22
9.247033398e-22
1.256755462e-21
1.713451785e-21
2.29515108e-21
2.963471102e-21
3.615067565e-21
4.065046259e-21
9.705260288e-22
1.208550214e-21
1.60228384e-21
2.185542404e-21
2.987528907e-21
4.007631569e-21
5.177078522e-21
6.314366966e-21
7.097859429e-21
1.67249167e-21
2.088591984e-21
2.777624198e-21
3.798853423e-21
5.202694222e-21
6.986500917e-21
9.028222739e-21
1.101020051e-20
1.23732648e-20
2.88753867e-21
3.613623262e-21
4.81686285e-21
6.600817864e-21
9.052606421e-21
1.21656093e-20
1.572460268e-20
1.917492622e-20
2.154486319e-20
4.99231611e-21
6.257630474e-21
8.35556981e-21
1.146674193e-20
1.574182978e-20
2.116673573e-20
2.736357804e-20
3.336540371e-20
3.748409178e-20
8.640397932e-21
1.084326307e-20
1.449707514e-20
1.99163857e-20
2.736201123e-20
3.680608114e-20
4.758710633e-20
5.802124891e-20
6.517654299e-20
1.496604097e-20
1.879843632e-20
2.51567928e-20
3.458840167e-20
4.754492556e-20
6.397345641e-20
8.271847234e-20
1.00850189e-19
1.132776497e-19
2.593789681e-20
3.260179708e-20
4.365996713e-20
6.006389474e-20
8.259589437e-20
1.111578566e-19
1.437342663e-19
1.752308826e-19
1.968104765e-19
4.497297659e-20
5.655596231e-20
7.577918681e-20
1.042956802e-19
1.434603274e-19
1.930935661e-19
2.496833982e-19
3.043768208e-19
3.418368723e-19
7.800218975e-20
9.812950655e-20
1.315349406e-19
1.81088296e-19
2.491350279e-19
3.353483704e-19
4.336127699e-19
5.285497766e-19
5.935510305e-19
1.353189904e-19
1.702852021e-19
2.283190805e-19
3.143990893e-19
4.325823099e-19
5.822743996e-19
7.528299451e-19
9.1754724e-19
1.030285203e-18
2.347847951e-19
2.955165635e-19
3.9630866e-19
5.45790051e-19
7.509706913e-19
1.010766952e-18
1.306650109e-18
1.592278317e-18
1.787690648e-18
4.07384429e-19
5.128435188e-19
6.878466926e-19
9.473340764e-19
1.30339778e-18
1.754049208e-18
2.267038755e-18
2.761980216e-18
3.100420822e-18
7.068439654e-19
8.899214865e-19
1.193672965e-18
1.643930244e-18
2.261504376e-18
3.042711017e-18
3.931412964e-18
4.788262037e-18
5.373792406e-18
1.226259539e-18
1.543971353e-18
2.070962031e-18
2.851817748e-18
3.922248084e-18
5.275349981e-18
6.813379146e-18
8.294979221e-18
9.306579248e-18
2.126802491e-18
2.67789576e-18
3.59166973e-18
4.944910415e-18
6.798653424e-18
9.139804822e-18
1.17981221e-17
1.435601649e-17
1.610057485e-17
3.687167367e-18
4.642457581e-18
6.22568285e-18
8.56871246e-18
1.177535028e-17
1.582045213e-17
2.040741507e-17
2.481474474e-17
2.781646366e-17
6.3885403e-18
8.043037386e-18
1.078339222e-17
1.483527276e-17
2.037410622e-17
2.735106631e-17
3.524929832e-17
4.282447435e-17
4.797461563e-17
1.106016658e-17
1.39223266e-17
1.865925035e-17
2.56554264e-17
3.52049816e-17
4.721224182e-17
6.077656802e-17
7.375686035e-17
8.256243742e-17
1.91278681e-17
2.407176242e-17
3.224602908e-17
4.430220455e-17
6.072858574e-17
8.133654314e-17
1.04557298e-16
1.267173741e-16
1.417102156e-16
3.303662091e-17
4.156005623e-17
5.563584915e-17
7.636077629e-17
1.045356392e-16
1.397874888e-16
1.793863109e-16
2.17052258e-16
2.424547027e-16
5.696585238e-17
7.162559416e-17
9.579966099e-17
1.313196421e-16
1.794791719e-16
2.395413795e-16
3.067634021e-16
3.704570642e-16
4.132527793e-16
9.803411416e-17
1.231746558e-16
1.645588747e-16
2.252164397e-16
3.071984909e-16
4.09055116e-16
5.225679787e-16
6.296421743e-16
7.012775327e-16
1.683166549e-16
2.112809139e-16
2.818575707e-16
3.850018487e-16
5.238913019e-16
6.956938401e-16
8.86221755e-16
1.065031265e-15
1.184084274e-15
2.882039149e-16
3.613267745e-16
4.811508677e-16
6.556743069e-16
8.89677322e-16
1.177684216e-15
1.495323557e-15
1.791742738e-15
1.988056047e-15
4.919554091e-16
6.158142045e-16
8.182036173e-16
1.111835984e-15
1.50363387e-15
1.983143853e-15
2.508764418e-15
2.996240989e-15
3.317241219e-15
8.368192e-16
1.045477114e-15
1.38533017e-15
1.876226466e-15
2.527685233e-15
3.320042875e-15
4.182828443e-15
4.977696601e-15
5.497939221e-15
1.417892982e-15
1.767260161e-15
2.334225688e-15
3.149146795e-15
4.22415321e-15
5.522859035e-15
6.926952809e-15
8.211475248e-15
9.046897209e-15
2.392147222e-15
2.973151227e-15
3.912221267e-15
5.254693091e-15
7.014150364e-15
9.124443072e-15
1.138893457e-14
1.344558223e-14
1.477456192e-14
4.016929078e-15
4.975997783e-15
6.519292068e-15
8.712656727e-15
1.156743352e-14
1.496556574e-14
1.858381845e-14
2.184573978e-14
2.393992266e-14
6.711125076e-15
8.28162749e-15
1.079681512e-14
1.434920956e-14
1.89392708e-14
2.436026059e-14
3.008701744e-14
3.521164861e-14
3.848068955e-14
1.11514126e-14
1.370128794e-14
1.776440689e-14
2.346562525e-14
3.077692186e-14
3.934308877e-14
4.832115739e-14
5.629669158e-14
6.135271794e-14
1.842227537e-14
2.252525421e-14
2.902885914e-14
3.809305346e-14
4.962833919e-14
6.303578135e-14
7.697873894e-14
8.927699365e-14
9.702687926e-14
3.024752406e-14
3.678830326e-14
4.710018905e-14
6.137381966e-14
7.939984834e-14
1.001866738e-13
1.216404134e-13
1.404349e-13
1.522115942e-13
4.934408893e-14
5.967183229e-14
7.586544809e-14
9.812733626e-14
1.260294918e-13
1.579587462e-13
1.906734532e-13
2.19148692e-13
2.368971905e-13
7.995740655e-14
9.610737852e-14
1.212930231e-13
1.556835066e-13
1.984706749e-13
2.470734115e-13
2.965295738e-13
3.393176264e-13
3.658571452e-13
1.286639846e-13
1.536745051e-13
1.924712493e-13
2.451012822e-13
3.101198356e-13
3.834608696e-13
4.576093755e-13
5.214031528e-13
5.607952318e-13
2.055637484e-13
2.439257156e-13
3.031287937e-13
3.829386986e-13
4.808763599e-13
5.906285835e-13
7.009274315e-13
7.953390865e-13
8.534022381e-13
3.260368394e-13
3.843268383e-13
4.738454216e-13
5.938086265e-13
7.400986541e-13
9.030434087e-13
1.065904069e-12
1.204661939e-12
1.289689629e-12
5.133127255e-13
6.010798889e-13
7.352477542e-13
9.140494621e-13
1.13082543e-12
1.370939039e-12
1.609737314e-12
1.812349851e-12
1.936109338e-12
8.022020051e-13
9.332065316e-13
1.132606372e-12
1.396973312e-12
1.715776693e-12
2.067118369e-12
2.414980868e-12
2.709045747e-12
2.88816674e-12
1.244445055e-12
1.438366413e-12
1.732350303e-12
2.120280938e-12
2.585827752e-12
3.096561733e-12
3.600232913e-12
4.024631289e-12
4.282515707e-12
1.916351786e-12
2.201161826e-12
2.631358592e-12
3.196605947e-12
3.871990099e-12
4.609921019e-12
5.335087095e-12
5.944385248e-12
6.313850857e-12
2.929737671e-12
3.344976885e-12
3.970120236e-12
4.788357169e-12
5.762209622e-12
6.822405727e-12
7.861028245e-12
8.731540776e-12
9.258461826e-12
4.447397929e-12
5.048685961e-12
5.951259499e-12
7.128560214e-12
8.524893204e-12
1.004016447e-11
1.152055788e-11
1.275868228e-11
1.350699433e-11
6.704943757e-12
7.570177531e-12
8.865542801e-12
1.055002849e-11
1.254174657e-11
1.469702145e-11
1.679767905e-11
1.855133143e-11
1.96099011e-11
1.00414969e-11
1.127935312e-11
1.312826689e-11
1.552606883e-11
1.835348223e-11
2.140550248e-11
2.43740356e-11
2.684831762e-11
2.834035757e-11
1.494268451e-11
1.670426485e-11
1.933001732e-11
2.272712488e-11
2.672327969e-11
3.102754182e-11
3.5206587e-11
3.868522117e-11
4.078117389e-11
2.210067022e-11
2.459542777e-11
2.830727423e-11
3.309939567e-11
3.872468409e-11
4.477224476e-11
5.063485604e-11
5.550947321e-11
5.84446269e-11
3.24977254e-11
3.601521731e-11
4.124037254e-11
4.797369563e-11
5.586308773e-11
6.433078448e-11
7.252872646e-11
7.933883723e-11
8.343737372e-11
4.752225442e-11
5.246181519e-11
5.978908675e-11
6.921585199e-11
8.024327748e-11
9.206217661e-11
1.034917472e-10
1.129792325e-10
1.186870217e-10
6.912946696e-11
7.604063895e-11
8.627986485e-11
9.94340493e-11
1.148000602e-10
1.312486468e-10
1.471402963e-10
1.603236111e-10
1.682528855e-10
1.000633398e-10
1.097008984e-10
1.239638238e-10
1.42264101e-10
1.636151062e-10
1.864460265e-10
2.084862469e-10
2.267613621e-10
2.377515077e-10
1.44162532e-10
1.575612897e-10
1.773714936e-10
2.027611472e-10
2.323514161e-10
2.639636667e-10
2.944605954e-10
3.197381616e-10
3.349383478e-10
2.067810342e-10
2.253574146e-10
2.527995502e-10
2.879363888e-10
3.288479156e-10
3.725205145e-10
4.146286696e-10
4.495201847e-10
4.705015442e-10
2.953652267e-10
3.210550168e-10
3.589771716e-10
4.07490994e-10
4.639315184e-10
5.241402089e-10
5.821650847e-10
6.302352418e-10
6.59142961e-10
4.202435493e-10
4.556884493e-10
5.079761446e-10
5.748172838e-10
6.525236691e-10
7.353695388e-10
8.151798206e-10
8.812880336e-10
9.210472226e-10
5.957042155e-10
6.445040487e-10
7.164506098e-10
8.083609697e-10
9.15144235e-10
1.028932762e-09
1.138517162e-09
1.229278908e-09
1.283872718e-09
8.414615868e-10
9.085145722e-10
1.007320716e-09
1.13346899e-09
1.279949135e-09
1.4359707e-09
1.586188405e-09
1.710596912e-09
1.785441316e-09
1.184644353e-09
1.276604982e-09
1.412050907e-09
1.584886868e-09
1.785480796e-09
1.999059696e-09
2.204648692e-09
2.374910082e-09
2.477357257e-09
1.662479906e-09
1.788372983e-09
1.973719394e-09
2.210118723e-09
2.484363564e-09
2.776262528e-09
3.057189058e-09
3.289839598e-09
3.429851162e-09
2.325900269e-09
2.49794074e-09
2.751131347e-09
3.073922685e-09
3.448239836e-09
3.846531081e-09
4.229786187e-09
4.547178811e-09
4.738221129e-09
3.24435577e-09
3.479037028e-09
3.824293922e-09
4.264283354e-09
4.774315153e-09
5.316856516e-09
5.838831342e-09
6.271099333e-09
6.531325324e-09
4.512191621e-09
4.831719445e-09
5.301643575e-09
5.90027735e-09
6.593956763e-09
7.331640397e-09
8.041238511e-09
8.628865267e-09
8.982659312e-09
6.257014975e-09
6.691178849e-09
7.329488319e-09
8.142319382e-09
9.083859864e-09
1.00848273e-08
1.10474955e-08
1.184463695e-08
1.232460935e-08
8.650546418e-09
9.239132061e-09
1.01041875e-08
1.120533014e-08
1.248034158e-08
1.38353755e-08
1.513824729e-08
1.621696167e-08
1.686648284e-08
1.192249472e-08
1.271834727e-08
1.388761972e-08
1.537538141e-08
1.709731921e-08
1.892661867e-08
2.068495664e-08
2.214048636e-08
2.301684331e-08
1.637799431e-08
1.745083495e-08
1.902645949e-08
2.103031879e-08
2.334844419e-08
2.580995293e-08
2.817503472e-08
3.013224642e-08
3.131047888e-08
2.241907222e-08
2.386014557e-08
2.59756628e-08
2.866470528e-08
3.177366211e-08
3.507303488e-08
3.824153945e-08
4.086255117e-08
4.243997639e-08
3.057043405e-08
3.249801213e-08
3.532632139e-08
3.891914001e-08
4.307012481e-08
4.747227395e-08
5.169708251e-08
5.518998538e-08
5.72913461e-08
4.150954969e-08
4.407523711e-08
4.783766314e-08
5.261357142e-08
5.812688724e-08
6.396885024e-08
6.957098035e-08
7.419939976e-08
7.698246956e-08
5.610056946e-08
5.949624418e-08
6.447245718e-08
7.078365837e-08
7.806220721e-08
8.576682991e-08
9.314798999e-08
9.924103999e-08
1.029024181e-07
7.543102838e-08
7.989612196e-08
8.643446394e-08
9.471858892e-08
1.042616026e-07
1.143512762e-07
1.2400629e-07
1.3196831e-07
1.367490315e-07
1.008496571e-07
1.066783462e-07
1.152059315e-07
1.259981388e-07
1.384142172e-07
1.5152368e-07
1.640518667e-07
1.743711832e-07
1.805616861e-07
1.340030081e-07
1.415507795e-07
1.525825915e-07
1.665262589e-07
1.825446168e-07
1.994317259e-07
2.155462059e-07
2.288020896e-07
2.367460987e-07
1.768681445e-07
1.865571344e-07
2.007032602e-07
2.185582339e-07
2.39037056e-07
2.605904045e-07
2.811242933e-07
2.979913518e-07
3.080881647e-07
2.317784369e-07
2.441009576e-07
2.620711595e-07
2.847186273e-07
3.106495044e-07
3.37891861e-07
3.638005291e-07
3.850497797e-07
3.977545282e-07
3.014397123e-07
3.169595012e-07
3.39564485e-07
3.680076626e-07
4.005153038e-07
4.346022385e-07
4.669609579e-07
4.934571982e-07
5.092791211e-07
3.889345656e-07
4.08285378e-07
4.364342561e-07
4.717944839e-07
5.121313635e-07
5.543445619e-07
5.943413921e-07
6.270370965e-07
6.465356897e-07
4.977132989e-07
5.215947644e-07
5.56288676e-07
5.997968146e-07
6.493324574e-07
7.010680445e-07
7.499925523e-07
7.899183571e-07
8.136976164e-07
6.315711863e-07
6.607419795e-07
7.030637993e-07
7.560469146e-07
8.162528647e-07
8.790056323e-07
9.382338e-07
9.864861629e-07
1.015187247e-06
7.946119936e-07
8.298804564e-07
8.809814397e-07
9.448464412e-07
1.017277669e-06
1.092621806e-06
1.16359805e-06
1.221324789e-06
1.255617518e-06
9.911999737e-07
1.033413424e-06
1.094497801e-06
1.170712347e-06
1.256986002e-06
1.346553479e-06
1.430770776e-06
1.499155272e-06
1.53972893e-06
1.225903932e-06
1.275936713e-06
1.348244702e-06
1.438316526e-06
1.540089211e-06
1.645546959e-06
1.744526083e-06
1.82477093e-06
1.872324791e-06
1.503435289e-06
1.562176307e-06
1.646966525e-06
1.75242221e-06
1.871366887e-06
1.994393803e-06
2.109662599e-06
2.202973401e-06
2.2582074e-06
1.828583404e-06
1.896923725e-06
1.995455792e-06
2.117819918e-06
2.255603385e-06
2.397868098e-06
2.530941568e-06
2.638511456e-06
2.702117304e-06
2.206150978e-06
2.284971985e-06
2.398489966e-06
2.539265386e-06
2.697527107e-06
2.860667193e-06
3.013028999e-06
3.136024314e-06
3.208677315e-06
2.64089197e-06
2.731054436e-06
2.860771634e-06
3.021421439e-06
3.201754278e-06
3.387357454e-06
3.560443243e-06
3.699990686e-06
3.782342404e-06
3.137453921e-06
3.239788264e-06
3.386873694e-06
3.568805224e-06
3.77273845e-06
3.982326045e-06
4.177508868e-06
4.334684292e-06
4.427356171e-06
3.700326049e-06
3.815623906e-06
3.981190634e-06
4.18574175e-06
4.414726497e-06
4.649739373e-06
4.868317295e-06
5.044136218e-06
5.147714199e-06
4.333793957e-06
4.462801137e-06
4.647896553e-06
4.876324227e-06
5.131721449e-06
5.393508387e-06
5.636694319e-06
5.832104161e-06
5.947134278e-06
5.041901345e-06
5.185312153e-06
5.390910157e-06
5.644381332e-06
5.927452211e-06
6.217260702e-06
6.486174375e-06
6.702048351e-06
6.829033289e-06
5.828418791e-06
5.986871657e-06
6.213866659e-06
6.49345128e-06
6.805349948e-06
7.12431926e-06
7.419981222e-06
7.657113816e-06
7.796510359e-06
6.696819376e-06
6.87089369e-06
7.12009631e-06
7.426762355e-06
7.768530769e-06
8.117687119e-06
8.441014605e-06
8.70011848e-06
8.852335793e-06
7.650260755e-06
7.840474818e-06
8.112609112e-06
8.447219454e-06
8.819784212e-06
9.200037841e-06
9.551842344e-06
9.833546579e-06
9.998945244e-06
8.691573174e-06
8.898383125e-06
9.194085189e-06
9.557396079e-06
9.961566986e-06
1.037371095e-05
1.07546973e-05
1.10595468e-05
1.123843851e-05
9.823252842e-06
1.004705246e-05
1.036687023e-05
1.075953122e-05
1.119600138e-05
1.164071182e-05
1.205147863e-05
1.237993454e-05
1.257258244e-05
1.104746006e-05
1.128858129e-05
1.163297543e-05
1.20555305e-05
1.252487774e-05
1.300271549e-05
1.344375671e-05
1.379619779e-05
1.400281722e-05
1.23660215e-05
1.262473567e-05
1.299408124e-05
1.344697107e-05
1.394966048e-05
1.446107374e-05
1.493278122e-05
1.530950593e-05
1.553026573e-05
1.378043603e-05
1.405695555e-05
1.445154458e-05
1.493510958e-05
1.547149703e-05
1.6016825e-05
1.65194919e-05
1.692072112e-05
1.715574524e-05
1.529188357e-05
1.558636411e-05
1.600640863e-05
1.652089281e-05
1.709122923e-05
1.767070647e-05
1.820453132e-05
1.863041165e-05
1.887978104e-05
1.69012364e-05
1.721377939e-05
1.765941507e-05
1.820497046e-05
1.88094067e-05
1.942316817e-05
1.998825946e-05
2.043886685e-05
2.070262163e-05
1.86090725e-05
1.893972792e-05
1.941101805e-05
1.998770953e-05
2.06263018e-05
2.127438825e-05
2.187076947e-05
2.234611325e-05
2.262425503e-05
2.041569039e-05
2.07644598e-05
2.126139952e-05
2.186921006e-05
2.254192563e-05
2.322428946e-05
2.385190441e-05
2.435193152e-05
2.464442588e-05
2.232112528e-05
2.268796494e-05
2.321048575e-05
2.384932181e-05
2.455604503e-05
2.52725563e-05
2.59312746e-05
2.645587393e-05
2.676265295e-05
2.432516587e-05
2.470999e-05
2.525796432e-05
2.592766148e-05
2.666819987e-05
2.741865248e-05
2.810827525e-05
2.865728212e-05
2.897824699e-05
2.642737188e-05
2.683005593e-05
2.740330178e-05
2.810363033e-05
2.887772082e-05
2.966183874e-05
3.03821042e-05
3.095530487e-05
3.129032849e-05
2.862709169e-05
2.904747564e-05
2.964576126e-05
3.037643188e-05
3.118374695e-05
3.20011904e-05
3.275177959e-05
3.334891568e-05
3.369784524e-05
3.092348007e-05
3.136137167e-05
3.198442016e-05
3.274508947e-05
3.358524326e-05
3.443561485e-05
3.521615715e-05
3.583693005e-05
3.61995896e-05
3.331551578e-05
3.377069375e-05
3.441818755e-05
3.520846359e-05
3.608101788e-05
3.696386858e-05
3.777394714e-05
3.841802225e-05
3.879421517e-05
3.58020188e-05
3.627423594e-05
3.694582123e-05
3.776526876e-05
3.866973875e-05
3.958457366e-05
4.042373067e-05
4.109074159e-05
4.148025295e-05
3.838166711e-05
3.88706533e-05
3.956594425e-05
4.041408985e-05
4.134994974e-05
4.22962337e-05
4.316397542e-05
4.385352788e-05
4.425612681e-05
4.105301291e-05
4.155847801e-05
4.227706081e-05
4.31533978e-05
4.412008615e-05
4.509724903e-05
4.599305063e-05
4.670472631e-05
4.712016814e-05
4.381449821e-05
4.433613476e-05
4.507757153e-05
4.598156462e-05
4.69784894e-05
4.798593118e-05
4.890924131e-05
4.964260141e-05
5.007062977e-05
4.66644696e-05
4.720195547e-05
4.796578788e-05
4.889687758e-05
4.992342097e-05
5.096051652e-05
5.191076164e-05
5.266535026e-05
5.310569902e-05
4.960119235e-05
5.015419315e-05
5.09399459e-05
5.189755267e-05
5.295307557e-05
5.401917911e-05
5.49957675e-05
5.577111484e-05
5.622350997e-05
5.262286361e-05
5.319103499e-05
5.3998219e-05
5.498174713e-05
5.606559337e-05
5.716004269e-05
5.816236823e-05
5.895799351e-05
5.942215475e-05
5.572762482e-05
5.631061462e-05
5.713873004e-05
5.814757125e-05
5.925907149e-05
6.038119177e-05
6.140863746e-05
6.222405166e-05
6.269969413e-05
5.891357324e-05
5.951102345e-05
6.035956245e-05
6.139309922e-05
6.253157456e-05
6.368068198e-05
6.473262313e-05
6.556733152e-05
6.605416714e-05
6.217877268e-05
6.279032125e-05
6.365877056e-05
6.471637919e-05
6.588114448e-05
6.705654952e-05
6.81323567e-05
6.898586112e-05
6.948359997e-05
6.552126332e-05
6.614654586e-05
6.70343891e-05
6.81154425e-05
6.930580938e-05
7.050681978e-05
7.160586153e-05
7.24776625e-05
7.2986014e-05
6.893907077e-05
6.957772203e-05
7.048444186e-05
7.158831213e-05
7.280359176e-05
7.402951523e-05
7.515116047e-05
7.60407591e-05
7.65594331e-05
7.243021435e-05
7.30818696e-05
7.400694961e-05
7.513301029e-05
7.637251582e-05
7.762266254e-05
7.876628277e-05
7.967318244e-05
8.020189024e-05
7.599271447e-05
7.665701074e-05
7.759993719e-05
7.874756536e-05
8.00106142e-05
8.128429895e-05
8.24492702e-05
8.33729781e-05
8.391143328e-05
7.962459944e-05
8.030117664e-05
8.126144e-05
8.24300181e-05
8.371593384e-05
8.501247797e-05
8.619818257e-05
8.713821104e-05
8.768613025e-05
8.332391147e-05
8.401241331e-05
8.498950963e-05
8.617842709e-05
8.748654128e-05
8.880527443e-05
9.001110251e-05
9.096697024e-05
9.152407391e-05
8.7088712e-05
8.778878691e-05
8.878221902e-05
8.999087369e-05
9.132052736e-05
9.266078897e-05
9.38861398e-05
9.485737286e-05
9.542338574e-05
9.091708647e-05
9.162838831e-05
9.263766684e-05
9.386546624e-05
9.521601124e-05
9.657715182e-05
9.782143499e-05
9.880756771e-05
9.938221943e-05
9.480714843e-05
9.552933715e-05
9.655398147e-05
9.780034383e-05
9.917114395e-05
0.0001005525262
0.0001018151626
0.0001028157384
0.0001033987639
9.875704312e-05
9.948978532e-05
0.0001005293243
0.0001017936795
0.0001031841114
0.0001045851113
0.0001058655338
0.0001068801057
0.0001074712455
0.0001027649506
0.0001035079199
0.0001045618925
0.0001058436828
0.000107253137
0.0001086731442
0.0001099707988
0.00011099893
0.0001115979307
0.0001068290882
0.0001075819659
0.0001086499216
0.0001099486023
0.0001113764836
0.0001128149026
0.0001141292484
0.0001151705128
0.0001157771272
0.0001109477129
0.0001117101879
0.0001127916876
0.0001141067274
0.0001155524556
0.0001170087057
0.0001183392156
0.0001193931982
0.0001200071855
0.0001151191229
0.0001158908923
0.0001169855079
0.0001183163896
0.0001197793997
0.0001212529159
0.0001225990772
0.000123665374
0.0001242864997
0.0001193416592
0.0001201224281
0.0001212297435
0.000122575964
0.0001240557066
0.0001255459395
0.0001269072536
0.0001279854722
0.0001286135088
0.0001236137065
0.0001244031885
0.0001255227993
0.0001268838698
0.0001283798114
0.0001298862275
0.0001312622106
0.0001323519698
0.0001329866964
0.0001279336941
0.0001287316111
0.0001298631248
0.0001312385711
0.000132750194
0.0001342722759
0.0001356624586
0.0001367633891
0.0001374045913
0.0001323000962
0.0001331061787
0.0001342492148
0.0001356385771
0.0001371653797
0.000138702626
0.0001401065536
0.0001412182974
0.0001418657678
0.0001367114323
0.0001375254192
0.0001386796093
0.0001400824424
0.000141623939
0.0001431758641
0.0001445930964
0.0001457153072
0.0001463688449
0.0001411662674
0.000141987906
0.0001431528932
0.0001445687664
0.0001461244869
0.0001476906215
0.0001491207328
0.0001502530756
0.0001509124863
0.0001456632116
0.0001464922574
0.000147667697
0.0001490961937
0.0001506656839
0.0001522455739
0.0001536881528
0.0001548303039
0.0001554954
0.00015020092
0.0001510371369
0.0001522226956
0.0001536634135
0.0001552462343
0.0001568394413
0.0001582940905
0.0001594457371
0.0001601163374
0.0001547780924
0.0001556212522
0.0001568166082
0.0001582691586
0.0001598648864
0.0001614709871
0.0001629373229
0.0001640981634
0.000164774093
0.0001593934718
0.0001602433546
0.0001614481973
0.0001629122053
0.0001645204312
0.0001661390173
0.0001676166697
0.0001687864131
0.0001694675034
0.000164045845
0.0001649022382
0.0001661162682
0.0001675913723
0.000169211702
0.0001708423799
0.0001723309922
0.0001735093579
0.0001741954462
0.0001687340405
0.0001695967397
0.0001708196683
0.0001723055199
0.0001739375734
0.0001755799637
0.0001770791922
0.0001782659099
0.0001789568395
0.0001734569288
0.0001743257367
0.0001755572856
0.000177053549
0.0001786969604
0.0001803506975
0.0001818602111
0.0001830550204
0.0001837506404
0.0001782134206
0.0001790881472
0.0001803280487
0.0001818344004
0.0001834888171
0.0001851535493
0.0001866730292
0.0001878756793
0.0001885758445
0.0001830024662
0.0001838829287
0.0001851309248
0.0001866470536
0.0001883121362
0.0001899875246
0.000191516664
0.0001927269137
0.0001934314842
0.0001878230544
0.0001887090768
0.0001899649192
0.0001914905254
0.0001931659475
0.000194851666
0.0001963901695
0.0001976077867
0.000198316628
0.0001926742113
0.0001935656242
0.000194829074
0.0001963638694
0.0001980493166
0.0001997450517
0.0002012926352
0.0002025173964
0.000203230379
0.0001975549992
0.0001984516396
0.0001997224671
0.0002012661743
0.0002029613443
0.0002046667941
0.0002062231844
0.0002074548747
0.0002081718741
0.0002024645154
0.0002033662266
0.0002046442106
0.0002061965627
0.0002079011648
0.0002096160391
0.0002111809732
0.0002124193859
0.0002131402822
0.000207401891
0.0002083085221
0.00020959345
0.0002111541904
0.0002128679447
0.0002145919643
0.0002161651892
0.0002174101254
0.0002181348034
0.0002123662896
0.0002132776956
0.0002145693627
0.0002161382444
0.0002178608818
0.0002195937778
0.0002211750502
0.0002224263184
0.0002231546673
0.0002173569058
0.0002182729471
0.0002195711565
0.0002211479418
0.0002228792032
0.0002246207171
0.0002262098026
0.0002274672187
0.0002281991315
0.0002223729643
0.0002232935063
0.0002245980684
0.0002261825285
0.0002279221643
0.000229672047
0.00023126872
0.0002325321064
0.0002332674803
0.0002274137176
0.000228338631
0.0002296493631
0.0002312412774
0.0002329890472
0.0002347470585
0.0002363511013
0.0002376202869
0.0002383590226
0.0002324784451
0.000233407605
0.0002347243309
0.0002363234866
0.0002380791585
0.0002398450665
0.0002414562691
0.0002427310885
0.0002434730902
0.0002375664509
0.0002384997366
0.0002398222861
0.0002414284778
0.0002431918273
0.0002449654081
0.0002465835672
0.0002478638604
0.0002486090353
0.0002426770618
0.0002436143566
0.000244942565
0.0002465555935
0.0002483264034
0.0002501074397
0.0002517323583
0.00025301797
0.0002537662279
0.0002478096251
0.0002487508157
0.000250084523
0.0002517041949
0.0002534822541
0.0002552705345
0.0002569020206
0.0002581927997
0.0002589440528
0.0002529635053
0.0002539084814
0.0002552475318
0.0002568736585
0.0002586587607
0.0002604540787
0.0002620919446
0.0002633877429
0.0002641419051
0.0002581380816
0.0002590867351
0.0002604309757
0.0002620633723
0.000263855315
0.0002656574676
0.0002673015284
0.0002686021999
0.0002693591862
0.0002633327426
0.0002642849671
0.0002656342472
0.0002672727308
0.0002690713137
0.0002708800995
0.0002725301718
0.0002738355711
0.0002745952969
0.0002685468824
0.0002695025718
0.0002708567412
0.0002725011296
0.0002743061524
0.0002761213698
0.0002777772692
0.0002790872502
0.0002798496301
0.0002737798931
0.0002747389409
0.0002760978484
0.0002777479574
0.0002795592174
0.0002813806619
0.0002830422008
0.0002843566144
0.000285121561
0.0002790311572
0.0002799934546
0.0002813569457
0.0002830125867
0.0002848298757
0.0002866573363
0.0002883243208
0.0002896430121
0.0002904104348
0.0002843000372
0.0002852654714
0.0002866333854
0.0002882943619
0.0002901174621
0.0002919507173
0.0002936229429
0.0002949457483
0.0002957155507
0.0002895858624
0.0002905543143
0.0002919264809
0.0002935925839
0.0002954212628
0.0002972600752
0.0002989373221
0.0003002640648
0.0003010361425
0.0002948879126
0.0002958592534
0.0002972354883
0.0002989064909
0.0003007404951
0.0003025846051
0.0003042666313
0.0003055971162
0.0003063713535
0.0003002053974
0.0003011794852
0.0003025595846
0.0003042352349
0.0003060742821
0.0003079233989
0.0003096099328
0.0003109439398
0.0003117202061
0.0003055374307
0.0003065141054
0.0003078978392
0.0003095778517
0.0003114216207
0.0003132754125
0.0003149661427
0.0003163034188
0.0003170815631
0.0003108829991
0.0003118620769
0.0003132491798
0.0003149332249
0.0003167813437
0.0003186394246
0.0003203339879
0.0003216742368
0.0003224540825
0.0003162409236
0.0003172221895
0.0003186123509
0.0003203000418
0.0003221520724
0.0003240139872
0.0003257119538
0.0003270548246
0.0003278361615
0.0003216098132
0.0003225930125
0.0003239858642
0.0003256767409
0.0003275321619
0.0003293973672
0.0003310982234
0.0003324432956
0.0003332258718
0.0003269880106
0.0003279728386
0.0003293679392
0.0003310614503
0.0003329196354
0.0003347874779
0.0003364906052
0.0003378373722
0.000338620884
0.0003323735279
0.0003333596177
0.0003347564356
0.0003364519162
0.00033831211
0.000340181801
0.0003418864521
0.0003432343016
0.0003440183818
0.0003377639738
0.0003387508825
0.0003401487756
0.0003418454225
0.0003437067121
0.0003455772982
0.0003472825701
0.000348630762
0.0003494149668
0.0003431564719
0.0003441436644
0.0003455418577
0.0003472387013
0.0003490999847
0.0003509703157
0.0003526751193
0.0003540227614
0.0003548065561
0.0003485475706
0.0003495344027
0.0003509319627
0.0003526278362
0.0003544877883
0.0003563564822
0.0003580595094
0.0003594055314
0.0003601882753
0.0003539331477
0.0003549188471
0.0003563146559
0.0003580081624
0.0003598651987
0.0003617306041
0.0003634302945
0.0003647734206
0.0003655543505
0.0003593083124
0.0003602919594
0.0003616846864
0.0003633741658
0.0003652264047
0.0003670865641
0.0003687810703
0.0003701197927
0.0003708980078
0.0003646673081
0.0003656478164
0.0003670358916
0.0003687193869
0.0003705646145
0.0003724172283
0.0003741043837
0.0003754369369
0.0003762113845
0.0003700034236
0.0003709795222
0.0003723611102
0.0003740363375
0.0003758719746
0.0003777143692
0.0003793916603
0.0003807160003
0.0003814854633
0.0003753089149
0.0003762791332
0.0003776521132
0.0003793164373
0.0003811395132
0.0003829686157
0.0003846331612
0.00038594695
0.0003867100392
0.0003805749526
0.0003815376087
0.0003828995592
0.0003845499771
0.0003863571145
0.0003881694402
0.0003898179794
0.0003911185784
0.0003918737298
0.0003857915978
0.0003867447942
0.0003880929871
0.0003897261231
0.0003915135352
0.0003933051877
0.0003949340859
0.0003962185612
0.00039696404
0.0003909478199
0.0003918894463
0.0003932208534
0.0003948329692
0.0003965964749
0.0003983631654
0.0003999684348
0.0004012335777
0.0004019674916
0.0003960315624
0.0003969593093
0.0003982706232
0.0003998576471
0.0004015927065
0.0004033297954
0.0004049071375
0.0004061495015
0.0004068698243
0.0004010298672
0.0004019412511
0.0004032289233
0.0004047865002
0.0004064882755
0.0004081908381
0.0004097357097
0.0004109516669
0.000411656273
0.000405929062
0.0004068214638
0.0004080817618
0.0004096053268
0.0004112687683
0.0004129316886
0.0004144393926
0.0004156252093
0.0004163119206
0.0004107150141
0.0004115857311
0.000412814815
0.000414299691
0.0004159196503