/*--------------------------------*- C++ -*----------------------------------*\
| =========                 |                                                 |
| \\      /  F ield         | OpenFOAM: The Open Source CFD Toolbox           |
|  \\    /   O peration     | Version:  2212                                  |
|   \\  /    A nd           | Website:  www.openfoam.com                      |
|    \\/     M anipulation  |                                                 |
\*---------------------------------------------------------------------------*/
FoamFile
{
    version     2.0;
    format      ascii;
    arch        "LSB;label=32;scalar=64";
    class       volScalarField;
    location    "20.00000000";
    object      A2CH3-2;
}
// * * * * * * * * * * * * * * * * * * * * * * * * * * * * * * * * * * * * * //

dimensions      [0 0 0 0 0 0 0];

internalField   nonuniform List<scalar> 
3000
(
1.195965512e-24
1.343416915e-24
1.565915082e-24
1.862411085e-24
2.229897055e-24
2.658402719e-24
3.122119904e-24
3.564606812e-24
3.87755668e-24
4.490315084e-24
5.064318596e-24
5.930107437e-24
7.086425998e-24
8.532158159e-24
1.0259285e-23
1.223786322e-23
1.43676497e-23
1.625477918e-23
1.005844386e-23
1.143336946e-23
1.352705593e-23
1.636989034e-23
2.001311407e-23
2.450957921e-23
2.984169994e-23
3.570958967e-23
4.072593344e-23
1.916023782e-23
2.200786877e-23
2.640774527e-23
3.250888592e-23
4.052760657e-23
5.066754885e-23
6.28730619e-23
7.616538035e-23
8.68945206e-23
3.402630565e-23
3.956363289e-23
4.825409942e-23
6.053941238e-23
7.69977106e-23
9.809003648e-23
1.234633872e-22
1.504060298e-22
1.710875482e-22
5.851534269e-23
6.89100323e-23
8.545767196e-23
1.09214736e-22
1.414492691e-22
1.829731266e-22
2.325482174e-22
2.839241739e-22
3.219383158e-22
9.934338896e-23
1.18439269e-22
1.491927432e-22
1.938429458e-22
2.548770893e-22
3.33509211e-22
4.264886578e-22
5.209602464e-22
5.891289199e-22
1.681270042e-22
2.026873726e-22
2.588409643e-22
3.409995029e-22
4.537459515e-22
5.987035724e-22
7.686001006e-22
9.387051184e-22
1.05939854e-21
2.849922625e-22
3.468775042e-22
4.480788735e-22
5.968970385e-22
8.014833531e-22
1.063803526e-21
1.369037956e-21
1.671465419e-21
1.883674599e-21
4.847878394e-22
5.947282873e-22
7.753383961e-22
1.041788181e-21
1.40831345e-21
1.877040147e-21
2.419426338e-21
2.952884147e-21
3.324422249e-21
8.278935783e-22
1.022055328e-21
1.342040177e-21
1.815066051e-21
2.465781938e-21
3.296083823e-21
4.252907056e-21
5.189156473e-21
5.837955304e-21
1.41894852e-21
1.760333993e-21
2.324187067e-21
3.158780404e-21
4.306659555e-21
5.768726276e-21
7.448509069e-21
9.086258193e-21
1.021725299e-20
2.439359695e-21
3.037619389e-21
4.027245539e-21
5.493231391e-21
7.508976965e-21
1.007294459e-20
1.301228025e-20
1.587078739e-20
1.78400493e-20
4.203708761e-21
5.24955226e-21
6.981393922e-21
9.548193093e-21
1.30766638e-20
1.756015629e-20
2.269190317e-20
2.767348691e-20
3.109946829e-20
7.257657435e-21
9.08262806e-21
1.21068995e-20
1.659076478e-20
2.275319012e-20
3.057753851e-20
3.952285761e-20
4.819504151e-20
5.415173773e-20
1.254789088e-20
1.572818361e-20
2.100122989e-20
2.882097677e-20
3.956615694e-20
5.320133682e-20
6.877673303e-20
8.386196647e-20
9.421404503e-20
2.171712852e-20
2.725389961e-20
3.643753988e-20
5.005865609e-20
6.877279501e-20
9.250990558e-20
1.196073741e-19
1.458329737e-19
1.638173817e-19
3.761625776e-20
4.724875656e-20
6.323010909e-20
8.693589959e-20
1.195013553e-19
1.60793495e-19
2.079079828e-19
2.534809794e-19
2.84716666e-19
6.519336787e-20
8.194268667e-20
1.097367424e-19
1.509670434e-19
2.075998906e-19
2.79388692e-19
3.612675694e-19
4.404324501e-19
4.946714819e-19
1.130369141e-19
1.42150063e-19
1.904664999e-19
2.62141018e-19
3.605790406e-19
4.853292483e-19
6.275644419e-19
7.650331225e-19
8.591867448e-19
1.960538864e-19
2.466427057e-19
3.306052872e-19
4.551547132e-19
6.261861463e-19
8.428782804e-19
1.089860033e-18
1.328478581e-18
1.491855386e-18
3.401162725e-19
4.280017762e-19
5.738664953e-19
7.902235033e-19
1.087270034e-18
1.463512244e-18
1.892193515e-18
2.306200689e-18
2.589560887e-18
5.901176866e-19
7.427633925e-19
9.960983633e-19
1.371810994e-18
1.887520393e-18
2.540502922e-18
3.284187731e-18
4.002097333e-18
4.493254663e-18
1.023936654e-18
1.289001836e-18
1.72886196e-18
2.381068146e-18
3.276013198e-18
4.408698902e-18
5.698067779e-18
6.942073861e-18
7.792724299e-18
1.776610482e-18
2.236765001e-18
3.000226372e-18
4.131921404e-18
5.684157452e-18
7.647674133e-18
9.881373907e-18
1.203501336e-17
1.350670931e-17
3.0821308e-18
3.880680651e-18
5.205240545e-18
7.167875199e-18
9.858338532e-18
1.325928012e-17
1.712502545e-17
2.084893961e-17
2.339153643e-17
5.345592245e-18
6.730732579e-18
9.027449402e-18
1.242873982e-17
1.708801323e-17
2.297235881e-17
2.965388208e-17
3.608299833e-17
4.046784259e-17
9.267477074e-18
1.166854253e-17
1.56478856e-17
2.153695195e-17
2.959664648e-17
3.976377076e-17
5.129283082e-17
6.237039331e-17
6.991503628e-17
1.605721818e-17
2.021569876e-17
2.710341856e-17
3.72875807e-17
5.120911104e-17
6.874528765e-17
8.859702675e-17
1.076367838e-16
1.205813593e-16
2.779907458e-17
3.499294452e-17
4.689892224e-17
6.448339703e-17
8.848563934e-17
1.186651779e-16
1.527583098e-16
1.85383507e-16
2.075158042e-16
4.80767653e-17
6.050295133e-17
8.104848721e-17
1.113509713e-16
1.526377092e-16
2.044345916e-16
2.627985861e-16
3.184966268e-16
3.561802473e-16
8.303559309e-17
1.044587437e-16
1.39837417e-16
1.919282959e-16
2.62744148e-16
3.513475875e-16
4.508768854e-16
5.455480163e-16
6.093955589e-16
1.431803015e-16
1.800266956e-16
2.407867833e-16
3.300641556e-16
4.511102864e-16
6.020730936e-16
7.710316728e-16
9.311219264e-16
1.038686425e-15
2.464029493e-16
3.095922142e-16
4.136090014e-16
5.660682047e-16
7.721252429e-16
1.028135848e-15
1.313443716e-15
1.582568376e-15
1.762619612e-15
4.2305396e-16
5.310420843e-16
7.084323382e-16
9.676793823e-16
1.316769811e-15
1.748585332e-15
2.22746598e-15
2.676893109e-15
2.976125807e-15
7.243834991e-16
9.08173483e-16
1.209344256e-15
1.647998601e-15
2.236151343e-15
2.960039642e-15
3.758407341e-15
4.503439422e-15
4.996861314e-15
1.236500831e-15
1.54781259e-15
2.056506411e-15
2.794534001e-15
3.77929482e-15
4.984514806e-15
6.30563101e-15
7.530874541e-15
8.33768963e-15
2.103295576e-15
2.627744904e-15
3.48194546e-15
4.715784271e-15
6.353187356e-15
8.344731428e-15
1.051329193e-14
1.251114603e-14
1.381874507e-14
3.563790161e-15
4.441903901e-15
5.866938222e-15
7.915194229e-15
1.061715927e-14
1.388137955e-14
1.74104862e-14
2.063905737e-14
2.273884103e-14
6.012520563e-15
7.472839763e-15
9.833136764e-15
1.320736029e-14
1.762965208e-14
2.293374797e-14
2.862541339e-14
3.379467562e-14
3.713498742e-14
1.009631363e-14
1.250687608e-14
1.638585498e-14
2.18987473e-14
2.90740599e-14
3.761506419e-14
4.670932832e-14
5.49079746e-14
6.017157932e-14
1.686801581e-14
2.081538072e-14
2.713715602e-14
3.606588927e-14
4.760273665e-14
6.122807375e-14
7.562193827e-14
8.850239546e-14
9.671893635e-14
2.802841559e-14
3.443737637e-14
4.464978544e-14
5.897946045e-14
7.73559719e-14
9.888652555e-14
1.214523698e-13
1.41498403e-13
1.542064259e-13
4.630329834e-14
5.661589282e-14
7.296231895e-14
9.5744635e-14
1.247378931e-13
1.584367056e-13
1.934815045e-13
2.243924398e-13
2.438713185e-13
7.602535949e-14
9.246522086e-14
1.183835355e-13
1.542594613e-13
1.995668177e-13
2.518132735e-13
3.057359787e-13
3.529748084e-13
3.825748322e-13
1.240234407e-13
1.499816122e-13
1.906833069e-13
2.466372454e-13
3.167676623e-13
3.970199545e-13
4.792464352e-13
5.508172631e-13
5.954270637e-13
2.009681908e-13
2.41560189e-13
3.048628157e-13
3.913012611e-13
4.988442777e-13
6.210043822e-13
7.453095217e-13
8.528547618e-13
9.195602725e-13
3.233892607e-13
3.862517228e-13
4.837650428e-13
6.160475174e-13
7.794678081e-13
9.63806164e-13
1.150174054e-12
1.310515945e-12
1.409525608e-12
5.166721851e-13
6.13092717e-13
7.618961503e-13
9.624936291e-13
1.208654159e-12
1.484509899e-12
1.761739553e-12
1.999037683e-12
2.144975991e-12
8.194739643e-13
9.659824227e-13
1.190982087e-12
1.492502521e-12
1.860193888e-12
2.269745949e-12
2.679086655e-12
3.027846418e-12
3.241558522e-12
1.290180308e-12
1.510777869e-12
1.848000868e-12
2.297408431e-12
2.842262108e-12
3.445773626e-12
4.045979164e-12
4.555233971e-12
4.866296233e-12
2.016285153e-12
2.345557254e-12
2.846736973e-12
3.511207761e-12
4.312501472e-12
5.195578428e-12
6.069910776e-12
6.809025957e-12
7.259236288e-12
3.127833835e-12
3.615243618e-12
4.354154762e-12
5.329195743e-12
6.499320779e-12
7.783021509e-12
9.048970599e-12
1.011567214e-11
1.076385021e-11
4.816624407e-12
5.532477352e-12
6.613751453e-12
8.034467792e-12
9.732007367e-12
1.15867556e-11
1.340942097e-11
1.494085917e-11
1.586949131e-11
7.363693105e-12
8.407371552e-12
9.978632012e-12
1.203522299e-11
1.448294642e-11
1.714769205e-11
1.975821583e-11
2.194620545e-11
2.327059567e-11
1.117820451e-11
1.268950413e-11
1.495806753e-11
1.791714378e-11
2.142674901e-11
2.523530414e-11
2.895620082e-11
3.206817006e-11
3.394901986e-11
1.685232918e-11
1.902703656e-11
2.228285401e-11
2.651670645e-11
3.152277744e-11
3.693994991e-11
4.221985553e-11
4.662758782e-11
4.928826207e-11
2.523838043e-11
2.834964114e-11
3.299675606e-11
3.902347353e-11
4.613000684e-11
5.38010952e-11
6.126236207e-11
6.748136576e-11
7.123155032e-11
3.755685695e-11
4.198443951e-11
4.8584055e-11
5.712242603e-11
6.716648099e-11
7.798496995e-11
8.848875822e-11
9.72321172e-11
1.025001834e-10
5.554728655e-11
6.181760042e-11
7.114695378e-11
8.319149155e-11
9.733014189e-11
1.125301594e-10
1.272653329e-10
1.395172599e-10
1.468945014e-10
8.167820125e-11
9.051894393e-11
1.036516787e-10
1.205750054e-10
1.404039634e-10
1.616863929e-10
1.822907735e-10
1.9940696e-10
2.097079627e-10
1.194386094e-10
1.318532895e-10
1.502690282e-10
1.739614133e-10
2.016766598e-10
2.313809507e-10
2.601065182e-10
2.839508803e-10
2.98295815e-10
1.737415217e-10
1.911109541e-10
2.168444908e-10
2.499037928e-10
2.885215456e-10
3.298595176e-10
3.697972253e-10
4.029280256e-10
4.22854689e-10
2.514811792e-10
2.757015428e-10
3.115457361e-10
3.575356575e-10
4.111914029e-10
4.685650533e-10
5.239504121e-10
5.698732767e-10
5.974894427e-10
3.623006264e-10
3.95971033e-10
4.45752413e-10
5.095532371e-10
5.83907765e-10
6.63340736e-10
7.399686706e-10
8.034801156e-10
8.416704365e-10
5.196464742e-10
5.663234954e-10
6.352761812e-10
7.235605044e-10
8.263505231e-10
9.360731156e-10
1.041860432e-09
1.129513658e-09
1.182220264e-09
7.422146989e-10
8.067572678e-10
9.020295413e-10
1.023906626e-09
1.165690375e-09
1.316931625e-09
1.462678514e-09
1.583414059e-09
1.656016528e-09
1.055927104e-09
1.14496312e-09
1.276302609e-09
1.444189719e-09
1.639355024e-09
1.847413396e-09
2.047832714e-09
2.213830857e-09
2.313659831e-09
1.496625191e-09
1.619181592e-09
1.799860311e-09
2.030658792e-09
2.298783353e-09
2.584471283e-09
2.859577018e-09
3.08740757e-09
3.224437567e-09
2.113729647e-09
2.282081338e-09
2.530141757e-09
2.846820847e-09
3.214503646e-09
3.606091888e-09
3.983067649e-09
4.295237009e-09
4.483018519e-09
2.975192743e-09
3.206003269e-09
3.545932216e-09
3.979656007e-09
4.482975946e-09
5.01880301e-09
5.534508917e-09
5.961535168e-09
6.218444618e-09
4.174170953e-09
4.490020028e-09
4.954989621e-09
5.547963454e-09
6.235768282e-09
6.967729585e-09
7.672052923e-09
8.255238273e-09
8.606147455e-09
5.837969092e-09
6.269389588e-09
6.904244461e-09
7.71350749e-09
8.651793657e-09
9.649985439e-09
1.061029769e-08
1.140541432e-08
1.188390865e-08
8.139956898e-09
8.728137046e-09
9.593355303e-09
1.069580628e-08
1.197351899e-08
1.333238345e-08
1.463943364e-08
1.572159364e-08
1.637290092e-08
1.131533377e-08
1.211567886e-08
1.329258983e-08
1.479160247e-08
1.652826333e-08
1.837466223e-08
2.015031194e-08
2.162035272e-08
2.250517964e-08
1.568181261e-08
1.6768603e-08
1.836620594e-08
2.040026553e-08
2.275591922e-08
2.525964884e-08
2.766693302e-08
2.965971214e-08
3.085922221e-08
2.166649918e-08
2.313892518e-08
2.530271514e-08
2.805658343e-08
3.124463733e-08
3.463197992e-08
3.78880519e-08
4.05831028e-08
4.220530174e-08
2.984044087e-08
3.183033519e-08
3.475359818e-08
3.847257969e-08
4.277618e-08
4.73471535e-08
5.173972935e-08
5.537477155e-08
5.756258934e-08
4.096248163e-08
4.364409972e-08
4.758217862e-08
5.259010463e-08
5.838273378e-08
6.453273547e-08
7.044067677e-08
7.532848686e-08
7.82698502e-08
5.603415197e-08
5.963636069e-08
6.492440303e-08
7.164595354e-08
7.941692729e-08
8.766344863e-08
9.55820942e-08
1.021312136e-07
1.060713807e-07
7.636730216e-08
8.11885178e-08
8.82631821e-08
9.725111268e-08
1.076365818e-07
1.18651581e-07
1.292233404e-07
1.379630072e-07
1.432193815e-07
1.036660096e-07
1.100921671e-07
1.19517672e-07
1.314853861e-07
1.453052903e-07
1.599536312e-07
1.740041725e-07
1.856137106e-07
1.925932481e-07
1.401239188e-07
1.486496488e-07
1.611483895e-07
1.770080871e-07
1.953092588e-07
2.146933533e-07
2.332734529e-07
2.486161181e-07
2.57835316e-07
1.885375848e-07
1.997906186e-07
2.162783456e-07
2.371846849e-07
2.612899621e-07
2.868003985e-07
3.112331766e-07
3.313942289e-07
3.435015773e-07
2.524355873e-07
2.672042105e-07
2.88829471e-07
3.162283125e-07
3.477911048e-07
3.811626033e-07
4.130955264e-07
4.394240607e-07
4.552246255e-07
3.362222029e-07
3.554853356e-07
3.836725378e-07
4.193539068e-07
4.604171556e-07
5.037887518e-07
5.452494123e-07
5.794031029e-07
5.998852534e-07
4.453333237e-07
4.702925455e-07
5.067876091e-07
5.529415479e-07
6.059995576e-07
6.619774222e-07
7.154312796e-07
7.594227293e-07
7.857844292e-07
5.86401164e-07
6.185137313e-07
6.654309235e-07
7.247045752e-07
7.927658049e-07
8.644862818e-07
9.328942903e-07
9.891344059e-07
1.022806228e-06
7.674232499e-07
8.084350796e-07
8.683036357e-07
9.438573286e-07
1.030505462e-06
1.121696074e-06
1.208566476e-06
1.279902644e-06
1.322572849e-06
9.979308813e-07
1.049907986e-06
1.125716146e-06
1.221276113e-06
1.330727032e-06
1.445757152e-06
1.555189241e-06
1.644944033e-06
1.69857945e-06
1.28915038e-06
1.354507412e-06
1.449742419e-06
1.56964706e-06
1.706789259e-06
1.850712152e-06
1.987438495e-06
2.0994396e-06
2.166302416e-06
1.654151449e-06
1.73567495e-06
1.854349701e-06
2.003575391e-06
2.174007544e-06
2.352598081e-06
2.522013627e-06
2.660615076e-06
2.743274435e-06
2.107957749e-06
2.208815612e-06
2.355487915e-06
2.539679339e-06
2.749736455e-06
2.969512049e-06
3.177690302e-06
3.347783251e-06
3.449120683e-06
2.667624315e-06
2.791379861e-06
2.971167795e-06
3.196649378e-06
3.45341164e-06
3.721637452e-06
3.975332e-06
4.182343749e-06
4.305551712e-06
3.352299391e-06
3.502911957e-06
3.721492857e-06
3.99526479e-06
4.306549505e-06
4.63122647e-06
4.93785669e-06
5.187737118e-06
5.336310216e-06
4.1832351e-06
4.365051317e-06
4.628647557e-06
4.958365636e-06
5.332701389e-06
5.72253634e-06
6.090156793e-06
6.389351941e-06
6.567070699e-06
5.18375213e-06
5.401487593e-06
5.716838807e-06
6.110777842e-06
6.557360757e-06
7.021718725e-06
7.458972479e-06
7.81438557e-06
8.025292975e-06
6.379156337e-06
6.637867804e-06
7.012189799e-06
7.479191073e-06
8.007823866e-06
8.556663428e-06
9.072720252e-06
9.491660987e-06
9.740032328e-06
7.796607185e-06
8.101655834e-06
8.542587042e-06
9.091990999e-06
9.713006272e-06
1.035679956e-05
1.096128059e-05
1.145140408e-05
1.17417109e-05
9.464939934e-06
9.821946632e-06
1.033748353e-05
1.097904949e-05
1.170321937e-05
1.2452859e-05
1.315575004e-05
1.372498711e-05
1.406185631e-05
1.141444551e-05
1.182923936e-05
1.242766267e-05
1.317147792e-05
1.400991273e-05
1.487660832e-05
1.568816429e-05
1.634464527e-05
1.673281453e-05
1.367661364e-05
1.415517536e-05
1.484496931e-05
1.570135025e-05
1.666538908e-05
1.766055657e-05
1.859119994e-05
1.934317403e-05
1.978744495e-05
1.62838464e-05
1.683224814e-05
1.762201504e-05
1.860140328e-05
1.970249988e-05
2.083764658e-05
2.18978627e-05
2.275361531e-05
2.325880538e-05
1.926914988e-05
1.989349336e-05
2.079186604e-05
2.190472245e-05
2.315432931e-05
2.444093813e-05
2.564117016e-05
2.660894039e-05
2.717983523e-05
2.266581278e-05
2.337216725e-05
2.438772176e-05
2.564442116e-05
2.705387515e-05
2.85032907e-05
2.985383695e-05
3.094173711e-05
3.158304406e-05
2.650708012e-05
2.730142193e-05
2.844259258e-05
2.985332186e-05
3.143373391e-05
3.305705334e-05
3.45679692e-05
3.57839084e-05
3.650021246e-05
3.082583052e-05
3.171398558e-05
3.298898434e-05
3.456364615e-05
3.63257975e-05
3.813376827e-05
3.981477485e-05
4.116638792e-05
4.196211091e-05
3.565426434e-05
3.664185466e-05
3.805859657e-05
3.980672052e-05
4.17609675e-05
4.376389399e-05
4.562429497e-05
4.711887807e-05
4.799824176e-05
4.102360935e-05
4.211600468e-05
4.368204057e-05
4.561270335e-05
4.776889213e-05
4.997655247e-05
5.202516041e-05
5.366961424e-05
5.463660772e-05
4.696384946e-05
4.816612469e-05
4.988858198e-05
5.201033757e-05
5.437773005e-05
5.679930414e-05
5.904437703e-05
6.0845158e-05
6.190350995e-05
5.350348073e-05
5.482037947e-05
5.670591187e-05
5.902673239e-05
6.161394373e-05
6.4257953e-05
6.670714151e-05
6.867022146e-05
6.98233771e-05
6.06692979e-05
6.210520246e-05
6.415994872e-05
6.668717626e-05
6.950212439e-05
7.237638347e-05
7.503668894e-05
7.71675232e-05
7.841862628e-05
6.848621328e-05
7.00451212e-05
7.227467291e-05
7.501498226e-05
7.806484922e-05
8.117642941e-05
8.405417244e-05
8.635767625e-05
8.770955569e-05
7.697710911e-05
7.866261591e-05
8.107199418e-05
8.403136621e-05
8.732257099e-05
9.067777501e-05
9.377857422e-05
9.625910702e-05
9.771426818e-05
8.616272325e-05
8.797801126e-05
9.057165186e-05
9.375535692e-05
9.729353911e-05
0.0001008978866
0.0001042266469
0.0001068880041
0.0001084486243
9.606156741e-05
9.80094002e-05
0.0001007911465
0.0001042037373
0.0001079937508
0.0001118519735
0.0001154128834
0.0001182582949
0.0001199262229
0.0001066898764
0.0001087725984
0.0001117457017
0.0001153910143
0.0001194369303
0.0001235529767
0.0001273495131
0.0001303816481
0.0001321584071
0.0001180615866
0.0001202811273
0.000123448253
0.0001273294165
0.0001316345342
0.0001360115814
0.0001400465221
0.0001432674994
0.0001451542932
0.0001301883406
0.0001325462228
0.0001359094631
0.0001400289146
0.0001445957797
0.000149236253
0.0001535116946
0.0001569230974
0.0001589208191
0.0001430795162
0.0001455768678
0.0001491377588
0.0001534972649
0.0001583276937
0.0001632332913
0.0001677506731
0.0001713535681
0.0001734628115
0.0001567422762
0.0001593798452
0.0001631393875
0.000167740071
0.0001728351795
0.0001780069028
0.0001827670344
0.000186561994
0.0001887830664
0.0001711816367
0.0001739598078
0.0001779184918
0.000182760861
0.0001881210984
0.0001935592859
0.0001985623786
0.0002025495056
0.0002048824426
0.0001864005501
0.0001893193643
0.0001934771966
0.0001985611787
0.0002041863641
0.0002098907282
0.0002151364286
0.0002193153837
0.0002217599648
0.0002024000014
0.0002054591759
0.0002098157086
0.0002151406853
0.0002210300462
0.0002269997124
0.0002324871388
0.0002368571685
0.0002394129333
0.0002191791136
0.0002223780635
0.0002269324246
0.0002324972683
0.0002386494815
0.0002448830292
0.000250610808
0.0002551707741
0.00025783704
0.000236735261
0.0002400731214
0.0002448240456
0.0002506271578
0.0002570403901
0.0002635358941
0.000269502198
0.0002742506074
0.0002770264863
0.0002550641876
0.0002585398354
0.000263485696
0.0002695250449
0.0002761969954
0.0002829520673
0.000289154653
0.0002940896873
0.0002969741034
0.0002741601281
0.0002777722049
0.0002829110449
0.0002891842034
0.0002961121442
0.000303123974
0.0003095602196
0.000314679765
0.0003176714717
0.0002940159311
0.0002977628645
0.0003030924275
0.0003095966107
0.0003167774281
0.0003240428247
0.0003307097666
0.0003360114427
0.0003391090394
0.0003146231809
0.0003185032064
0.0003240209669
0.0003307530684
0.0003381833023
0.0003456987328
0.0003525931017
0.0003580742897
0.0003612762383
0.0003359723188
0.0003399835002
0.0003456866929
0.0003526433198
0.000360319202
0.0003680808306
0.0003751990856
0.0003808569553
0.0003841615958
0.0003580527605
0.0003621930101
0.0003680786577
0.0003752561648
0.0003831736559
0.0003911773795
0.0003985157416
0.0004043472776
0.0004077528433
0.0003808530107
0.0003851201081
0.0003911850484
0.0003985795701
0.0004067343942
0.0004149758781
0.0004225303613
0.0004285323875
0.0004320370193
0.0004043607726
0.0004087523829
0.000414993294
0.0004226007747
0.0004309884528
0.0004394631629
0.0004472296041
0.0004533988071
0.0004570005668
0.0004285630527
0.0004330767434
0.0004394901674
0.0004473063907
0.0004559222714
0.0004646255055
0.0004725995923
0.0004789325434
0.0004826294266
0.00045344626
0.0004580795168
0.0004646618824
0.0004726824973
0.0004815217865
0.000490448703
0.0004986259997
0.0005051191751
0.000508909123
0.0004789962991
0.000483746541
0.0004904941842
0.0004987147303
0.0005077725176
0.0005169181626
0.0005252941346
0.0005319439343
0.0005358248447
0.0005051986579
0.0005100632507
0.0005169724338
0.0005253883648
0.000534659649
0.0005440189807
0.0005525890167
0.0005593917823
0.0005633615196
0.0005320384886
0.0005370147576
0.0005440816875
0.0005526883919
0.0005621681037
0.0005717360158
0.0005804954484
0.0005874474791
0.0005915038839
0.0005595006836
0.000564585925
0.0005718067691
0.0005805995899
0.0005902826134
0.0006000539556
0.00060899808
0.0006160956474
0.0006202365448
0.0005875699442
0.0005927614359
0.000600132337
0.0006091065895
0.0006189877812
0.0006289573782
0.0006380814696
0.000645320831
0.0006495440383
0.0006162308441
0.0006215258555
0.0006290429451
0.0006381939334
0.0006482681394
0.0006584308085
0.0006677301374
0.0006751075478
0.000679410882
0.000645467888
0.0006508636882
0.0006585230988
0.0006678461298
0.000678108202
0.0006884587684
0.0006979286147
0.000705440338
0.0007098216214
0.000675265563
0.0006807594289
0.0006885573052
0.0006980477018
0.0007084925117
0.0007190258225
0.0007286614879
0.0007363038066
0.0007407608731
0.0007056083867
0.0007111976097
0.000719130118
0.0007287832311
0.0007394056824
0.0007501166192
0.0007599134382
0.000767682662
0.0007722133619
0.000736480949
0.0007421628416
0.0007502261785
0.0007600373969
0.0007708324369
0.0007817159263
0.0007916692767
0.0007995617503
0.0008041639544
0.00076786795
0.000773639851
0.0007818302512
0.000791795011
0.00080275764
0.000813808664
0.0008239139748
0.0008319260845
0.0008365976886
0.0007997542332
0.0008056135126
0.0008139272555
0.0008240410481
0.0008351663285
0.0008463799324
0.0008566326918
0.0008647608716
0.0008694997995
0.000832124815
0.000838068878
0.0008465022935
0.0008567606727
0.0008680437361
0.0008794150361
0.0008898107979
0.0008980515345
0.0009028557409
0.0008649649094
0.0008709912003
0.0008795406742
0.0008899392618
0.0009013753158
0.0009128995053
0.0009234338946
0.0009317837317
0.000936651205
0.0008982599509
0.0009043659558
0.0009130279332
0.0009235624245
0.0009351467576
0.0009468191126
0.000957487831
0.0009659433733
0.0009708721377
0.0009319956141
0.0009381788635
0.0009469498532
0.0009576160204
0.0009693440068
0.0009811598901
0.0009919587186
0.001000516635
0.001005504751
0.000966157829
0.0009724159001
0.000981292477
0.0009920861733
0.001003953277
0.001015908141
0.001026832944
0.001035489968
0.001040535537
0.001000732794
0.001007063313
0.00101604212
0.001026959283
0.001038961058
0.00105105045
0.001062097177
0.001070850111
0.001075951273
0.001035706987
0.001042107628
0.00105118538
0.001062222031
0.001074354129
0.001086573691
0.001097738378
0.001106584095
0.001111739032
0.001071067172
0.00107753566
0.001086709143
0.001097861394
0.001110119562
0.001122465032
0.001133743807
0.001142679249
0.001147886182
0.001106800406
0.00111333452
0.001122600593
0.001133864642
0.001146244724
0.00115871194
0.001170101019
0.001179123202
0.001184380395
0.001142894047
0.001149491616
0.001158847211
0.001170219348
0.001182717286
0.001195302185
0.001206797876
0.001215903885
0.001221209644
0.001179335753
0.001185994658
0.001195436783
0.001206913385
0.001219525222
0.00123222384
0.001243822539
0.001253009533
0.001258362206
0.001216113486
0.001222831661
0.001232357395
0.001243934932
0.001256656806
0.001269465278
0.001281163473
0.001290428682
0.001295826659
0.001253215511
0.00125999094
0.001269597438
0.001281272466
0.001294100615
0.001307015174
0.001318809444
0.001328150168
0.001333591881
0.001290630393
0.001297461114
0.001307145602
0.001318914767
0.001331845527
0.001344862503
0.001356749513
0.001366163124
0.001371647044
0.001328346999
0.0013352311
0.001344990877
0.001356850912
0.001369880712
0.001382996531
0.001394973037
0.001404456974
0.001409981615
0.00136635449
0.001373290109
0.001383122546
0.00139507027
0.001408195633
0.001421406818
0.001433469658
0.00144302143
0.001448585344
0.00140464232
0.001411627645
0.001421530179
0.001433562496
0.001446780039
0.001460083203
0.001472229302
0.001481846484
0.001487448261
0.001443200228
0.001450233493
0.001460203633
0.001472317528
0.001485623958
0.001499015803
0.001511242168
0.0015209224
0.00152656067
0.001482018231
0.001489097718
0.001499133038
0.001511325576
0.001524717687
0.001538195006
0.001550498721
0.001560239705
0.001565913132
0.001521086617
0.001528210655
0.001538308792
0.001550577116
0.001564051786
0.001577611453
0.001589989681
0.001599789179
0.001605496464
0.001560395936
0.001567562895
0.001577721548
0.001590062876
0.001603617064
0.001617256035
0.00162970601
0.001639561843
0.001645301718
0.001599936988
0.001607145281
0.001617362207
0.001629773824
0.001643404566
0.001657119873
0.001669638898
0.001679548939
0.001685320169
0.001639700807
0.001646948885
0.001657221896
0.001669701157
0.001683405557
0.001697194303
0.001709779747
0.001719741918
0.001725543296
0.001679678649
0.001686964999
0.001697291958
0.001709836274
0.001723611506
0.001737470857
0.001750120142
0.001760132412
0.001765962757
0.001719861967
0.001727185109
0.001737563923
0.001750170762
0.001764014053
0.001777941232
0.001790651834
0.001800712208
0.001806570361
0.001760242393
0.001767600874
0.001778029488
0.001790696362
0.001804604989
0.001818597265
0.001831366697
0.001841473213
0.001847358031
0.0018008117
0.00180820409
0.00181868048
0.001831404936
0.001845376211
0.001859430887
0.001872256692
0.001882407406
0.001888317758
0.001841561768
0.00184898665
0.001859508813
0.001872288418
0.001886319677
0.001900434072
0.001913313807
0.001923506785
0.001929441543
0.001882484535
0.0018899405
0.001900506436
0.001913338766
0.001927427344
0.001941598777
0.001954529992
0.001964763292
0.001970721324
0.001923571932
0.001931057563
0.001941665267
0.001954547879
0.00196869109
0.001982916853
0.001995897069
0.002006168722
0.002012148876
0.001964815806
0.001972329669
0.001982977101
0.001995907513
0.002010102618
0.002024379944
0.00203740662
0.002047714604
0.002053715695
0.00200620782
0.002013748442
0.002024433505
0.002037409156
0.002051653327
0.002065979347
0.002079049844
0.002089392052
0.002095412844
0.002047739326
0.00205530517
0.002066025676
0.002079043888
0.002093334155
0.002107705849
0.002120817379
0.002131191577
0.002137230756
0.002089401201
0.002096990641
0.002107744267
0.002120802188
0.00213513538
0.002149549511
0.002162699074
0.002173102853
0.002179158997
0.00213118365
0.002138794931
0.002149579165
0.002162673703
0.002177046369
0.002191499403
0.002204683712
0.002215114421
0.002221185961
0.002173075954
0.002180707147
0.002191519223
0.002204646962
0.002219055277
0.00223354328
0.002246758664
0.002257213335
0.002263298507
0.002215066169
0.002222715114
0.002233551926
0.002246709022
0.00226114867
0.002275667188
0.002288909475
0.002299384722
0.002305481514
0.002257140751
0.002264804988
0.002275662994
0.002288845051
0.002303311077
0.002317854985
0.002331119361
0.002341611268
0.002347717345
0.002299284116
0.002306960803
0.002317835902
0.002331037819
0.002345524463
0.002360087788
0.002373368627
0.00238387261
0.002389985233
0.00234147812
0.002349163931
0.00236005132
0.002373267114
0.002387767609
0.002402343317
0.002415633988
0.002426144631
0.002432260564
0.002383701448
0.002391392461
0.00240228647
0.00241550907
0.002430015407
0.002444595163
0.002457887797
0.002468398672
0.002474514067
0.002425928934
0.002433620499
0.002444514398
0.002457735408
0.002472238068
0.002486811964
0.002500097199
0.002510600652
0.002516710932
0.002468130793
0.002475817379
0.002486703171
0.002499912604
0.002514400267
0.002528956513
0.002542223211
0.00255271014
0.002558809856
0.00251027179
0.002517946828
0.002528815007
0.002542001002
0.002556460223
0.002570984824
0.002584219767
0.002594679371
0.002600762066
0.002552310362
0.002559966069
0.00257080538
0.002583953896
0.002598368768
0.002612845177
0.002626032751
0.002636452285
0.002642510346
0.002594197725
0.002601824927
0.002612622108
0.002625716613
0.00264006843
0.002654477206
0.002667599089
0.002677963614
0.002683988123
0.002635877002
0.002643464955
0.002654204491
0.002667225664
0.002681492587
0.002695811071
0.002708845936
0.002719138089
0.0027251187
0.002677282429
0.002684818659
0.002695482546
0.002708408001
0.002722564766
0.002736766791
0.002749690055
0.002759889858
0.002765814683
0.002718338676
0.002725808842
0.002736376409
0.002749180473
0.002763198157
0.002777253822
0.00279003746
0.002800122183
0.002805977723
0.002758960395
0.002766348188
0.00277679596
0.002789449531
0.002803295418
0.002817170976
0.002829783421
0.002839727527
0.002845498648
0.002799052042
0.002806339148
0.002816640799
0.002829111305
0.002842748863
0.002856406728
0.002868812921
0.002878588113
0.002884258085
0.002838508073
0.0028456742
0.002855800612
0.002868052109
0.002881441129
0.002894840056
0.00290700164
0.002916577047
0.002922127664
0.002877213573
0.002884236578
0.002894156034
0.002906149468
0.002919246395
0.00293234185
0.002944217549
0.002953560065
0.002958971857
0.002915045408
0.002921901524
0.002931580056
0.002943273719
0.002956032195
0.002968776956
0.002980323173
0.002989397956
0.002994650502
0.002951873945
0.00295853813
0.002967940033
0.002979290226
0.002991661868
0.003004006866
0.003015178497
0.00302394966
0.003029022004
0.002987565367
0.002994011773
0.003003100298
0.003014062215
0.003025997639
0.003037893038
0.003048644519
0.003057075989
0.003061947163
0.003021984569
0.003028187142
0.003036925364
0.003047454184
0.003058904257
0.003070300775
0.003080587328
0.003088643871
0.003093293503
0.003054998606
0.003060931787
0.003069283633
0.003079335805
0.003090253097
0.00310110351
0.003110882565
0.003118530945
0.003122939947
0.00308648056
0.00309212009
0.003100051487
0.003109586154
0.003119926541
0.003130187337
0.003139420067
0.003146630271
0.003150781565