/*--------------------------------*- C++ -*----------------------------------*\
| =========                 |                                                 |
| \\      /  F ield         | OpenFOAM: The Open Source CFD Toolbox           |
|  \\    /   O peration     | Version:  2212                                  |
|   \\  /    A nd           | Website:  www.openfoam.com                      |
|    \\/     M anipulation  |                                                 |
\*---------------------------------------------------------------------------*/
FoamFile
{
    version     2.0;
    format      ascii;
    arch        "LSB;label=32;scalar=64";
    class       volScalarField;
    location    "20.00000000";
    object      A2CH2-2_0;
}
// * * * * * * * * * * * * * * * * * * * * * * * * * * * * * * * * * * * * * //

dimensions      [0 0 0 0 0 0 0];

internalField   nonuniform List<scalar> 
3000
(
7.744854183e-25
8.699716296e-25
1.014056193e-24
1.206059683e-24
1.444034257e-24
1.72152362e-24
2.021815393e-24
2.308359452e-24
2.511018705e-24
2.907845509e-24
3.279557295e-24
3.840221896e-24
4.589025759e-24
5.525246323e-24
6.643691859e-24
7.924973291e-24
9.304175768e-24
1.052623941e-23
6.513662163e-24
7.40403375e-24
8.759857703e-24
1.060081161e-23
1.296007962e-23
1.587189092e-23
1.932485944e-23
2.312477942e-23
2.637324669e-23
1.240781429e-23
1.425188003e-23
1.710114573e-23
2.105211315e-23
2.624486758e-23
3.281128766e-23
4.071532496e-23
4.932310496e-23
5.627095577e-23
2.20348035e-23
2.56206654e-23
3.124843585e-23
3.920415689e-23
4.986222361e-23
6.352119374e-23
7.995241813e-23
9.739970505e-23
1.107922637e-22
3.789344933e-23
4.462484978e-23
5.534078112e-23
7.072539661e-23
9.159986184e-23
1.184899327e-22
1.505938938e-22
1.838642352e-22
2.084818739e-22
6.43329321e-23
7.669906439e-23
9.661443497e-23
1.255290656e-22
1.650536288e-22
2.159743153e-22
2.761860847e-22
3.373642158e-22
3.815091322e-22
1.088759143e-22
1.312565633e-22
1.676205811e-22
2.208249183e-22
2.938374159e-22
3.87709266e-22
4.977310858e-22
6.078879303e-22
6.860467589e-22
1.845556598e-22
2.246313857e-22
2.901675018e-22
3.865393661e-22
5.190256423e-22
6.88899283e-22
8.865633867e-22
1.082409745e-21
1.219832431e-21
3.139395149e-22
3.851348885e-22
5.020946103e-22
6.746424976e-22
9.119973911e-22
1.215536008e-21
1.566775123e-21
1.912232375e-21
2.152833463e-21
5.361283325e-22
6.618638352e-22
8.690800133e-22
1.175402684e-21
1.596794067e-21
2.134481963e-21
2.754102699e-21
3.36040021e-21
3.780550126e-21
9.188843903e-22
1.139959204e-21
1.505099853e-21
2.045566805e-21
2.788911757e-21
3.735718666e-21
4.823514402e-21
5.884089921e-21
6.616500873e-21
1.579683469e-21
1.967105193e-21
2.607968471e-21
3.557313332e-21
4.862672244e-21
6.523049435e-21
8.426507896e-21
1.027762334e-20
1.155288029e-20
2.722242728e-21
3.3995113e-21
4.521019373e-21
6.183230217e-21
8.468201445e-21
1.13716268e-20
1.469484949e-20
1.792082936e-20
2.013943041e-20
4.699922419e-21
5.881739048e-21
7.840200314e-21
1.074386707e-20
1.473453772e-20
1.980143844e-20
2.559425868e-20
3.12102017e-20
3.506764602e-20
8.125778018e-21
1.018527571e-20
1.360000122e-20
1.866392208e-20
2.562229843e-20
3.445218415e-20
4.453851742e-20
5.43074305e-20
6.101124161e-20
1.406360366e-20
1.764911236e-20
2.359626486e-20
3.241704319e-20
4.453596708e-20
5.990767276e-20
7.745548291e-20
9.443868716e-20
1.06085051e-19
2.435958029e-20
3.059740508e-20
4.094662795e-20
5.62980513e-20
7.73868269e-20
1.041268386e-19
1.346372931e-19
1.641495069e-19
1.84377149e-19
4.221799723e-20
5.306454052e-20
7.106344732e-20
9.77634133e-20
1.344377779e-19
1.809268527e-19
2.339500705e-19
2.85215755e-19
3.203399297e-19
7.320057611e-20
9.20537027e-20
1.233425166e-19
1.697575835e-19
2.335041914e-19
3.142900742e-19
4.06398904e-19
4.954210297e-19
5.563931404e-19
1.269608024e-19
1.597211682e-19
2.14093753e-19
2.947496131e-19
4.055063443e-19
5.458320844e-19
7.0577281e-19
8.602976816e-19
9.660974193e-19
2.202528873e-19
2.771658824e-19
3.716251237e-19
5.117338419e-19
7.040955731e-19
9.477429316e-19
1.225348837e-18
1.493452073e-18
1.676950793e-18
3.821490878e-19
4.809995681e-19
6.450545164e-19
8.88358929e-19
1.222322607e-18
1.645181774e-18
2.126778025e-18
2.591682738e-18
2.909746958e-18
6.630820668e-19
8.347332782e-19
1.119578395e-18
1.541934816e-18
2.121484344e-18
2.854990232e-18
3.689961185e-18
4.495556047e-18
5.046421219e-18
1.150499435e-18
1.448486817e-18
1.942889994e-18
2.675754339e-18
3.680953108e-18
4.95248945e-18
6.398991262e-18
7.793647524e-18
8.746690039e-18
1.99592975e-18
2.51305556e-18
3.370815547e-18
4.641780703e-18
6.384073969e-18
8.586459534e-18
1.108984323e-17
1.350137973e-17
1.514791744e-17
3.461704647e-18
4.358695377e-18
5.846005833e-18
8.048617293e-18
1.106587478e-17
1.487646587e-17
1.920329417e-17
2.336666846e-17
2.620621081e-17
6.0014432e-18
7.556327848e-18
1.013327528e-17
1.394692344e-17
1.916622942e-17
2.575026709e-17
3.321626865e-17
4.038988891e-17
4.527565722e-17
1.039835129e-17
1.309130477e-17
1.755166203e-17
2.414673308e-17
3.316205317e-17
4.451814991e-17
5.737376117e-17
6.970354816e-17
7.808621078e-17
1.800215564e-17
2.266076991e-17
3.037085618e-17
4.175822986e-17
5.730162853e-17
7.684532755e-17
9.892339564e-17
1.20050857e-16
1.343833146e-16
3.113360488e-17
3.918056817e-17
5.2485469e-17
7.210878516e-17
9.884529647e-17
1.323879788e-16
1.701833988e-16
2.062523976e-16
2.306555983e-16
5.377228075e-17
6.764550825e-17
9.055606839e-17
1.242891371e-16
1.701481445e-16
2.275260575e-16
2.919793499e-16
3.532865852e-16
3.946330474e-16
9.272085618e-17
1.165818845e-16
1.559289686e-16
2.137433072e-16
2.921304933e-16
3.898911538e-16
4.99305536e-16
6.029769585e-16
6.726336953e-16
1.59565889e-16
2.004860621e-16
2.678453664e-16
3.665750635e-16
5.000137053e-16
6.658013326e-16
8.505613144e-16
1.024841356e-15
1.141439134e-15
2.73961737e-16
3.438928034e-16
4.587673758e-16
6.266508576e-16
8.527152162e-16
1.132350781e-15
1.442464834e-15
1.733505345e-15
1.927282784e-15
4.690970319e-16
5.881159462e-16
7.831484383e-16
1.06721269e-15
1.448089277e-15
1.916865645e-15
2.433873466e-15
2.916342153e-15
3.235872842e-15
8.007344891e-16
1.002334086e-15
1.331754569e-15
1.809687261e-15
2.447399723e-15
3.227877376e-15
4.083407234e-15
4.87685177e-15
5.399329966e-15
1.362054266e-15
1.701677705e-15
2.25484179e-15
3.053852418e-15
4.114203634e-15
5.403889861e-15
6.808208592e-15
8.101981109e-15
8.948757525e-15
2.307842678e-15
2.876492458e-15
3.799317629e-15
5.125729349e-15
6.875470668e-15
8.989317857e-15
1.127470049e-14
1.336546207e-14
1.472524226e-14
3.893593548e-15
4.839268467e-15
6.367751905e-15
8.552834918e-15
1.141662709e-14
1.485145895e-14
1.85372736e-14
2.188478995e-14
2.404791269e-14
6.538179216e-15
8.099213446e-15
1.061116618e-14
1.41812102e-14
1.882780609e-14
2.435879816e-14
3.024807105e-14
3.555735905e-14
3.896596988e-14
1.092340202e-14
1.347963986e-14
1.757350049e-14
2.335557742e-14
3.082661959e-14
3.965012838e-14
4.897132147e-14
5.731246129e-14
6.263333764e-14
1.815065789e-14
2.230097733e-14
2.891433683e-14
3.819395904e-14
5.009423563e-14
6.40370107e-14
7.865022149e-14
9.163165181e-14
9.986112675e-14
2.998510838e-14
3.666334414e-14
4.724897261e-14
6.200235972e-14
8.077783461e-14
1.026005383e-13
1.252948798e-13
1.453122128e-13
1.579263651e-13
4.923251316e-14
5.987864433e-14
7.666283682e-14
9.989538555e-14
1.292355484e-13
1.630693421e-13
1.979886485e-13
2.285796109e-13
2.477480228e-13
8.031507568e-14
9.712506976e-14
1.234826779e-13
1.597173405e-13
2.051324175e-13
2.57102232e-13
3.103505042e-13
3.566983927e-13
3.855868452e-13
1.301428542e-13
1.564294061e-13
1.974229034e-13
2.533986967e-13
3.230413991e-13
4.021498546e-13
4.826474144e-13
5.522916132e-13
5.954888109e-13
2.094200328e-13
2.501284491e-13
3.132760448e-13
3.989394372e-13
5.04767061e-13
6.241408301e-13
7.448289249e-13
8.486631425e-13
9.1277985e-13
3.345855969e-13
3.970254458e-13
4.933873408e-13
6.232899694e-13
7.826982973e-13
9.613366736e-13
1.140864837e-12
1.294534238e-12
1.389040929e-12
5.306726943e-13
6.255482538e-13
7.712529583e-13
9.665108254e-13
1.20461957e-12
1.46983646e-12
1.734916593e-12
1.96076593e-12
2.099161364e-12
8.35490077e-13
9.783437693e-13
1.196721316e-12
1.487746943e-12
1.840581278e-12
2.231401163e-12
2.620080328e-12
2.949862068e-12
3.151298959e-12
1.305695861e-12
1.518924006e-12
1.843475096e-12
2.273769283e-12
2.792666514e-12
3.364524568e-12
3.930719996e-12
4.409352413e-12
4.700897461e-12
2.025502707e-12
2.341135649e-12
2.819633732e-12
3.451042698e-12
4.208782407e-12
5.040070378e-12
5.859862874e-12
6.550628472e-12
6.970370353e-12
3.119111716e-12
3.582676008e-12
4.282875382e-12
5.202886316e-12
6.302158367e-12
7.503232787e-12
8.683530654e-12
9.675239118e-12
1.027659052e-11
4.768510818e-12
5.444361075e-12
6.461854211e-12
7.793628493e-12
9.378683481e-12
1.110427098e-11
1.279474369e-11
1.421159807e-11
1.506921971e-11
7.23865844e-12
8.217317582e-12
9.686348824e-12
1.160252407e-11
1.38751925e-11
1.634144004e-11
1.875091623e-11
2.076607446e-11
2.198401851e-11
1.091302004e-11
1.232126548e-11
1.442958485e-11
1.71712251e-11
2.041290255e-11
2.392077076e-11
2.733973499e-11
3.019391737e-11
3.191680566e-11
1.634351831e-11
1.835821739e-11
2.136744864e-11
2.527001913e-11
2.987179028e-11
3.483909998e-11
3.967051058e-11
4.369749459e-11
4.61258408e-11
2.432049469e-11
2.718755303e-11
3.146107973e-11
3.698999622e-11
4.349385098e-11
5.049912319e-11
5.730057321e-11
6.29620815e-11
6.63732637e-11
3.597038186e-11
4.003065679e-11
4.607174759e-11
5.387096393e-11
6.30261164e-11
7.286847001e-11
8.240979367e-11
9.034317147e-11
9.512011241e-11
5.289165823e-11
5.861635157e-11
6.712021896e-11
7.807855431e-11
9.091830921e-11
1.04699204e-10
1.180410942e-10
1.291243866e-10
1.357947087e-10
7.734357142e-11
8.538251258e-11
9.730731638e-11
1.126488987e-10
1.305954453e-10
1.498301097e-10
1.684312825e-10
1.838719553e-10
1.9316138e-10
1.125074502e-10
1.237548923e-10
1.404184767e-10
1.618259349e-10
1.86833053e-10
2.136022004e-10
2.394653067e-10
2.60921071e-10
2.738261699e-10
1.628476567e-10
1.785318374e-10
2.017433767e-10
2.315254434e-10
2.662726086e-10
3.03428775e-10
3.392988581e-10
3.690420433e-10
3.869292447e-10
2.346089786e-10
2.564138765e-10
2.88652805e-10
3.299720612e-10
3.781281581e-10
4.295760232e-10
4.792101528e-10
5.203510716e-10
5.450912403e-10
3.365003238e-10
3.667309699e-10
4.113898707e-10
4.685718456e-10
5.351530405e-10
6.062298156e-10
6.747629824e-10
7.315530749e-10
7.657042026e-10
4.80632071e-10
5.22438698e-10
5.841525941e-10
6.631047472e-10
7.549595076e-10
8.529504132e-10
9.473913486e-10
1.025633995e-09
1.07268882e-09
6.837977143e-10
7.414792458e-10
8.265713659e-10
9.353501508e-10
1.061815548e-09
1.196651217e-09
1.326553133e-09
1.43415939e-09
1.498880399e-09
9.692210693e-10
1.048635287e-09
1.165719392e-09
1.315296285e-09
1.489084343e-09
1.674282448e-09
1.852648509e-09
2.000387254e-09
2.089258867e-09
1.36893001e-09
1.478046635e-09
1.638839006e-09
1.844132851e-09
2.08252464e-09
2.336458063e-09
2.580960505e-09
2.783468197e-09
2.905305357e-09
1.926968463e-09
2.076612787e-09
2.297023625e-09
2.57828768e-09
2.90473699e-09
3.252336223e-09
3.586952237e-09
3.864087364e-09
4.030851641e-09
2.703721881e-09
2.908570913e-09
3.21016579e-09
3.594844141e-09
4.041122622e-09
4.516151619e-09
4.973348972e-09
5.35200067e-09
5.57988949e-09
3.781708844e-09
4.061619451e-09
4.473566872e-09
4.998766766e-09
5.607818676e-09
6.25590114e-09
6.879542147e-09
7.396031382e-09
7.706923134e-09
5.273282438e-09
5.655051562e-09
6.216702518e-09
6.932466284e-09
7.76218287e-09
8.644799253e-09
9.493972098e-09
1.019721633e-08
1.062057312e-08
7.330786978e-09
7.850467024e-09
8.614745431e-09
9.588346403e-09
1.071651538e-08
1.191623715e-08
1.307026611e-08
1.402591199e-08
1.460126131e-08
1.01598221e-08
1.086573834e-08
1.190355493e-08
1.322508261e-08
1.475581274e-08
1.638308475e-08
1.794801042e-08
1.924376945e-08
2.002390291e-08
1.403636583e-08
1.499300403e-08
1.639893593e-08
1.81884704e-08
2.026042746e-08
2.246224306e-08
2.45790918e-08
2.633153375e-08
2.738657127e-08
1.93285832e-08
2.062153014e-08
2.252102693e-08
2.493772188e-08
2.7734529e-08
3.070535422e-08
3.356052108e-08
3.592357924e-08
3.734604415e-08
2.652417322e-08
2.826629347e-08
3.082466835e-08
3.407805392e-08
3.784119254e-08
4.183646932e-08
4.567450581e-08
4.884991523e-08
5.0760943e-08
3.626405485e-08
3.860306676e-08
4.203649723e-08
4.640026348e-08
5.144474426e-08
5.679722245e-08
6.19362343e-08
6.618604642e-08
6.874279968e-08
4.938302981e-08
5.25105935e-08
5.709927813e-08
6.292769421e-08
6.966063571e-08
7.679963419e-08
8.364934262e-08
8.931052804e-08
9.271480906e-08
6.695775827e-08
7.112010248e-08
7.722358999e-08
8.497054214e-08
9.39125895e-08
1.033860613e-07
1.124683589e-07
1.199693227e-07
1.244772548e-07
9.036192456e-08
9.58719139e-08
1.039464351e-07
1.141868279e-07
1.259960646e-07
1.384950431e-07
1.504665887e-07
1.603451801e-07
1.66277713e-07
1.213278553e-07
1.285782387e-07
1.391956366e-07
1.52648606e-07
1.681462738e-07
1.845309249e-07
2.002069828e-07
2.131293484e-07
2.208831418e-07
1.62013109e-07
1.71490504e-07
1.853580908e-07
2.029111459e-07
2.231081213e-07
2.444342402e-07
2.648126715e-07
2.815919523e-07
2.916500374e-07
2.150697412e-07
2.273687154e-07
2.453491107e-07
2.680819907e-07
2.942045869e-07
3.217490811e-07
3.480329549e-07
3.69646543e-07
3.825877737e-07
2.83713144e-07
2.995495741e-07
3.226793125e-07
3.518860551e-07
3.85399504e-07
4.20682969e-07
4.54300053e-07
4.819039063e-07
4.984112017e-07
3.717866352e-07
3.920093991e-07
4.215150104e-07
4.587225603e-07
5.013501072e-07
5.461544795e-07
5.887716587e-07
6.237115263e-07
6.445788631e-07
4.838176183e-07
5.094176042e-07
5.467275751e-07
5.937090129e-07
6.474446418e-07
7.038237646e-07
7.573564133e-07
8.011750259e-07
8.273092016e-07
6.250605474e-07
6.571758771e-07
7.039270529e-07
7.627077165e-07
8.298203423e-07
9.001047391e-07
9.667196271e-07
1.021154837e-06
1.053574563e-06
8.015219863e-07
8.414384637e-07
8.994751979e-07
9.723300727e-07
1.055363299e-06
1.142155606e-06
1.224261739e-06
1.291239339e-06
1.331070468e-06
1.019962411e-06
1.069108558e-06
1.140477437e-06
1.229925883e-06
1.33168352e-06
1.437840758e-06
1.538073172e-06
1.619692814e-06
1.668159617e-06
1.287879793e-06
1.347820736e-06
1.434756989e-06
1.543539656e-06
1.667061298e-06
1.79566955e-06
1.916864442e-06
2.015378859e-06
2.073791529e-06
1.613469225e-06
1.685888968e-06
1.790792266e-06
1.921843004e-06
2.070371482e-06
2.22471136e-06
2.369873167e-06
2.487661302e-06
2.557400067e-06
2.005547416e-06
2.092229273e-06
2.217635144e-06
2.374044905e-06
2.550985233e-06
2.734489262e-06
2.906750812e-06
3.046285814e-06
3.128782247e-06
2.473459195e-06
2.576261777e-06
2.724806986e-06
2.909780909e-06
3.118652249e-06
3.334855786e-06
3.53743306e-06
3.701246389e-06
3.797962644e-06
3.02696251e-06
3.14779227e-06
3.322175594e-06
3.538984953e-06
3.783367502e-06
4.03585513e-06
4.271998419e-06
4.462641487e-06
4.575048276e-06
3.67609588e-06
3.816877338e-06
4.019817348e-06
4.271748312e-06
4.555227234e-06
4.847576757e-06
5.120520147e-06
5.340524977e-06
5.47007914e-06
4.431033109e-06
4.593677979e-06
4.82786952e-06
5.118170756e-06
5.44427935e-06
5.780005554e-06
6.092916628e-06
6.344756984e-06
6.492879457e-06
5.301930611e-06
5.488307036e-06
5.756378098e-06
6.088209199e-06
6.460373424e-06
6.842873628e-06
7.198805168e-06
7.484859498e-06
7.652914419e-06
6.298772887e-06
6.510675903e-06
6.815146438e-06
7.191529004e-06
7.613015249e-06
8.04551846e-06
8.44736369e-06
8.769881007e-06
8.959156581e-06
7.4312215e-06
7.670345733e-06
8.013589757e-06
8.437362682e-06
8.911230386e-06
9.396751534e-06
9.84720415e-06
1.020827378e-05
1.041996538e-05
8.708472438e-06
8.976387823e-06
9.360599895e-06
9.834380081e-06
1.036344044e-05
1.090474083e-05
1.140626073e-05
1.180778654e-05
1.204298245e-05
1.013912604e-05
1.043725715e-05
1.086442401e-05
1.139057337e-05
1.197735496e-05
1.257690968e-05
1.313169502e-05
1.357537459e-05
1.383504441e-05
1.173107277e-05
1.206068216e-05
1.253255999e-05
1.311315927e-05
1.375988107e-05
1.441985372e-05
1.502981946e-05
1.551712828e-05
1.580211435e-05
1.349139723e-05
1.385357287e-05
1.437167039e-05
1.500849994e-05
1.57170519e-05
1.643927671e-05
1.710603978e-05
1.763822048e-05
1.794923203e-05
1.542630176e-05
1.582194869e-05
1.638751601e-05
1.708204345e-05
1.785397431e-05
1.86399454e-05
1.936481613e-05
1.994287249e-05
2.028048245e-05
1.754105027e-05
1.797088611e-05
1.858490909e-05
1.93382834e-05
2.017479553e-05
2.102566287e-05
2.180964223e-05
2.243433764e-05
2.279898198e-05
1.983993185e-05
2.030448603e-05
2.096768569e-05
2.178073739e-05
2.268268781e-05
2.359925918e-05
2.444304141e-05
2.511490129e-05
2.550688055e-05
2.232624348e-05
2.282585971e-05
2.353869618e-05
2.441194264e-05
2.53798497e-05
2.636259811e-05
2.726657783e-05
2.798589556e-05
2.840537829e-05
2.500229022e-05
2.553713183e-05
2.629981214e-05
2.723346759e-05
2.826752233e-05
2.931659788e-05
3.028088126e-05
3.104772702e-05
3.149475488e-05
2.786940117e-05
2.843945879e-05
2.925194798e-05
3.024593722e-05
3.134601876e-05
3.246126427e-05
3.348568331e-05
3.429991535e-05
3.477440948e-05
3.09279592e-05
3.153306034e-05
3.239509518e-05
3.344907031e-05
3.461476429e-05
3.579573387e-05
3.687986329e-05
3.774114104e-05
3.824290953e-05
3.41774422e-05
3.481726233e-05
3.572836698e-05
3.684172644e-05
3.807234587e-05
3.931832575e-05
4.046150167e-05
4.136930025e-05
4.189804633e-05
3.761647378e-05
3.829054846e-05
3.925005154e-05
4.042196079e-05
4.171656849e-05
4.302659928e-05
4.422793927e-05
4.518156495e-05
4.573689574e-05
4.12428813e-05
4.19506189e-05
4.295767156e-05
4.418708467e-05
4.554451676e-05
4.691741671e-05
4.817584048e-05
4.917444672e-05
4.97558822e-05
4.505375917e-05
4.579445405e-05
4.684804833e-05
4.813373013e-05
4.955261993e-05
5.098700849e-05
5.230125898e-05
5.334386259e-05
5.395084479e-05
4.904553572e-05
4.981838138e-05
5.09173687e-05
5.225791694e-05
5.373671881e-05
5.523104016e-05
5.659970447e-05
5.768520172e-05
5.831710375e-05
5.321404194e-05
5.401814398e-05
5.516125338e-05
5.655512041e-05
5.809213324e-05
5.964467937e-05
6.106620923e-05
6.219339164e-05
6.28495266e-05
5.75545807e-05
5.838896944e-05
5.957482518e-05
6.102033911e-05
6.261372897e-05
6.422266191e-05
6.569539353e-05
6.686296313e-05
6.754259269e-05
6.206199517e-05
6.292563774e-05
6.415277622e-05
6.564816106e-05
6.72959829e-05
6.895935604e-05
7.048152903e-05
7.168811285e-05
7.239045548e-05
6.67307356e-05
6.762254738e-05
6.88894331e-05
7.043282782e-05
7.213304595e-05
7.384882417e-05
7.541859941e-05
7.666276325e-05
7.7387002e-05
7.155492351e-05
7.247377878e-05
7.377881935e-05
7.536829573e-05
7.711880298e-05
7.888488145e-05
8.050035777e-05
8.178061911e-05
8.252590884e-05
7.652841264e-05
7.747315456e-05
7.881471453e-05
8.044829372e-05
8.224692922e-05
8.40611508e-05
8.572038052e-05
8.703522039e-05
8.780069457e-05
8.164484636e-05
8.261429607e-05
8.39907097e-05
8.566637737e-05
8.751094283e-05
8.937111411e-05
9.107211725e-05
9.241999126e-05
9.320476818e-05
8.689771106e-05
8.789067599e-05
8.930025882e-05
9.101597902e-05
9.290425359e-05
9.480815945e-05
9.65489367e-05
9.7928285e-05
9.873147347e-05
9.228038536e-05
9.329566672e-05
9.473672607e-05
9.649045366e-05
9.842020734e-05
0.0001003656241
0.0001021441685
0.0001035534249
0.0001043741294
9.778618512e-05
9.882258459e-05
0.0001002934289
0.0001020831208
0.0001040521264
0.0001060368336
0.0001078511412
0.0001092887412
0.0001101260665
0.0001034084041
0.0001044647298
0.000105963677
0.0001077873019
0.0001097933457
0.0001118151367
0.0001136632156
0.0001151276038
0.0001159806591
0.0001091403506
0.0001102154223
0.0001117408069
0.0001135963544
0.0001156372454
0.0001176939363
0.0001195738152
0.0001210634513
0.000121931354
0.0001149753797
0.0001160680333
0.0001176182132
0.0001195037007
0.0001215772791
0.0001236667168
0.0001255764519
0.0001270898168
0.0001279716955
0.000120906922
0.0001220160137
0.000123589375
0.0001255028548
0.0001276069987
0.0001297270681
0.0001316647494
0.0001332003496
0.000134095347
0.0001269285086
0.0001280529178
0.0001296478801
0.0001315874447
0.0001337200759
0.0001358687055
0.000137832462
0.0001393888341
0.0001402961093
0.000133033792
0.0001341724245
0.0001357874443
0.0001377512311
0.0001399103205
0.0001420854875
0.0001440734918
0.0001456492053
0.0001465679361
0.0001392165647
0.0001403683548
0.0001420019289
0.0001439881241
0.0001461716956
0.0001483714298
0.0001503819015
0.0001519755626
0.0001529049467
0.0001454707744
0.0001466346867
0.0001482853549
0.0001502921963
0.0001524983301
0.0001547207173
0.0001567519262
0.0001583621793
0.0001593014362
0.0001517905361
0.0001529655669
0.0001546319139
0.0001566576935
0.000158884529
0.0001611277133
0.0001631779816
0.0001648035118
0.0001657518835
0.0001581701422
0.0001593553209
0.0001610359777
0.0001630790436
0.0001653247808
0.0001675869671
0.0001696546712
0.0001712942051
0.0001722509573
0.0001646040702
0.0001657984598
0.0001674921049
0.0001695508625
0.0001718137637
0.0001740932186
0.0001761767902
0.0001778290975
0.0001787935199
0.0001710869884
0.000172289686
0.0001739950462
0.0001760679587
0.0001783463496
0.0001806414022
0.0001827393294
0.0001844032233
0.0001853746301
0.0001776137597
0.0001788238969
0.0001805397472
0.0001826253365
0.000184917606
0.0001872266488
0.0001893374762
0.0001910118136
0.0001919895439
0.0001841794439
0.0001853961865
0.0001871213506
0.0001892181969
0.0001915227976
0.000193844286
0.0001959666151
0.0001976502968
0.0001986337145
0.0001907792985
0.0001920018466
0.0001937351963
0.0001958419381
0.0001981573858
0.000200489838
0.0002026223264
0.0002043142971
0.0002053027911
0.0001974087782
0.0001986363658
0.0002003768208
0.0002024921539
0.000204817027
0.0002071590235
0.0002093003849
0.0002109996328
0.0002119926165
0.0002040635339
0.0002052954284
0.0002070419553
0.0002091646325
0.000211497571
0.0002138477536
0.0002159967569
0.0002177023129
0.0002186992241
0.0002107394098
0.0002119749114
0.0002137265231
0.000215855353
0.0002181950575
0.0002205521283
0.0002227075966
0.0002244185338
0.0002254188343
0.0002174324407
0.0002186708817
0.0002204266366
0.000222560482
0.0002249057127
0.0002272684328
0.0002294292422
0.0002311446751
0.0002321478504
0.000224138848
0.0002253795921
0.0002271385925
0.0002292763698
0.0002316259448
0.0002339931329
0.0002361582115
0.000237877295
0.0002388828537
0.0002308550355
0.0002320974769
0.0002338588684
0.0002359995458
0.0002383523395
0.0002407228705
0.0002428911969
0.0002446131254
0.0002456205985
0.0002375775845
0.0002388211472
0.0002405841169
0.0002427267131
0.0002450816548
0.0002474544581
0.0002496250602
0.0002513490663
0.0002523580068
0.0002443032489
0.0002455473853
0.000247311161
0.0002494547434
0.0002518108155
0.0002541848735
0.0002563568268
0.0002580821806
0.0002590921627
0.0002510289498
0.0002522731403
0.0002540369889
0.0002561806721
0.0002585369084
0.0002609112546
0.0002630836808
0.000264809688
0.0002658203068
0.0002577517702
0.000258995522
0.0002607587482
0.0002629016923
0.0002652571761
0.0002676308932
0.0002698029584
0.0002715289599
0.0002725398304
0.000264468949
0.000265711795
0.0002674737398
0.000269615149
0.0002719690113
0.0002743412299
0.0002765121432
0.0002782375132
0.0002792482696
0.0002711778752
0.0002724193733
0.0002741794128
0.0002763185332
0.0002786699513
0.0002810398474
0.0002832088594
0.0002849330046
0.0002859432999
0.0002778760822
0.0002791158141
0.000280873358
0.0002830094765
0.0002853576716
0.0002877244656
0.0002898908666
0.0002916132249
0.0002926227299
0.0002845612419
0.0002857988121
0.0002875533025
0.000289685745
0.0002920299808
0.0002943929353
0.0002965560537
0.000298276093
0.0002992844957
0.0002912311592
0.0002924661942
0.000294217104
0.0002963452337
0.0002986848146
0.0003010432326
0.0003032024336
0.0003049196504
0.0003059266554
0.0002978837658
0.0002991159132
0.000300862745
0.0003029859608
0.0003053202301
0.0003076734535
0.0003098281374
0.0003115420557
0.0003125473836
0.0003045171153
0.0003057460428
0.0003074883274
0.0003096060623
0.0003119344005
0.0003142818084
0.0003164314089
0.0003181415791
0.0003191449655
0.0003111293771
0.0003123547714
0.0003140920669
0.0003162037866
0.0003185256097
0.0003208666164
0.0003230105995
0.0003247165971
0.0003257177924
0.0003177188312
0.0003189403975
0.0003206722875
0.0003227774888
0.0003250922466
0.0003274263006
0.0003295641626
0.0003312655872
0.0003322643555
0.0003242838632
0.0003255013238
0.0003272274167
0.0003293256258
0.0003316328007
0.0003339593823
0.0003360906489
0.000337787123
0.0003387832418
0.0003308229583
0.0003320360524
0.0003337559798
0.0003358467515
0.0003381458563
0.0003404644766
0.0003425887012
0.0003442798692
0.0003452731285
0.0003373346974
0.0003385431798
0.0003402565955
0.0003423395111
0.0003446300879
0.0003469402871
0.0003490570496
0.0003507425764
0.0003517327782
0.0003438177512
0.0003450213916
0.0003467279704
0.0003488026367
0.0003510842553
0.0003533856013
0.0003554945063
0.0003571740767
0.0003581610346
0.0003502708757
0.000351469458
0.0003531688948
0.0003552349425
0.0003575071988
0.0003597992854
0.0003618999613
0.0003635732786
0.0003645568167
0.0003566929075
0.0003578862289
0.0003595782373
0.0003616353198
0.0003638978343
0.0003661802801
0.0003682723775
0.0003699391624
0.0003709191152
0.0003630827588
0.0003642706291
0.0003659549403
0.0003680027323
0.0003702551486
0.0003725275951
0.0003746107854
0.000376270775
0.0003772469863
0.0003694394128
0.0003706216533
0.000372298015
0.000374336211
0.0003765781943
0.0003788403045
0.0003809142785
0.0003825672251
0.0003835395476
0.0003757619184
0.0003769383614
0.0003786065365
0.0003806348493
0.0003828660847
0.0003851175413
0.0003871820075
0.0003888276774
0.0003897959718
0.0003820493853
0.0003832198731
0.0003848796384
0.0003868977976
0.0003891179882
0.0003913584916
0.0003934131747
0.0003950513467
0.000396015481
0.0003883009784
0.0003894653621
0.0003911165071
0.000393124257
0.0003953331221
0.0003975623888
0.0003996070275
0.0004012374913
0.0004021973396
0.0003945159117
0.0003956740502
0.0003973163752
0.0003993134734
0.000401510746
0.0004037285057
0.0004057628507
0.0004073854051
0.0004083408469
0.0004006934416
0.0004018452006
0.0004034785149
0.0004054647292
0.0004076501535
0.0004098561468
0.0004118799578
0.0004134944085
0.000414445327
0.0004068328592
0.0004079781091
0.0004096022289
0.0004115773353
0.0004137506633
0.0004159446379
0.0004179576807
0.0004195638375
0.0004205101181
0.0004129334812
0.0004140720958
0.0004156868413
0.00041765062
0.0004198116079
0.0004219933147
0.000423995357
0.0004255930306
0.0004265345585
0.0004189946391
0.000420126493
0.0004217316856
0.0004236839171
0.0004258323205
0.0004280015083
0.0004299923146
0.0004315813121
0.0004325179702
0.0004250156663
0.0004261406325
0.0004277360903
0.0004296765505
0.0004318121181
0.0004339685277
0.0004359478534
0.0004375279732
0.0004384596382
0.0004309958827
0.0004321138292
0.0004336993623
0.0004356278161
0.0004377502828
0.0004398936385
0.0004418612219
0.0004434322471
0.0004443587858
0.000436934576
0.0004380453613
0.0004396207658
0.0004415369592
0.0004436460371
0.0004457760376
0.0004477315908
0.0004492932812
0.0004502145451
0.0004428309782
0.0004439344467
0.0004454994975
0.0004474031484
0.0004494985158
0.0004516148225
0.0004535580196
0.0004551101016
0.0004560259211
0.0004486842391
0.0004497802151
0.0004513346564
0.0004532254437
0.0004553067321
0.0004574089546
0.0004593394183
0.0004608815735
0.0004617917499
0.0004544933936
0.0004555816735
0.000457125209
0.0004590027584
0.0004610695369
0.000463157217
0.0004650745023
0.0004666063539
0.0004675106515
0.0004602573229
0.0004613376672
0.0004628699471
0.0004647338158
0.0004667855732
0.0004688581656
0.0004707617412
0.0004722828383
0.0004731809744
0.0004659747099
0.000467046833
0.0004685674396
0.0004704170986
0.0004724532225
0.000474510073
0.000476399301
0.0004779091016
0.0004788007364
0.0004716439871
0.0004727075463
0.000474215978
0.0004760507909
0.0004780705452
0.0004801108671
0.0004819849805
0.0004834828334
0.0004843675586
0.0004772632785
0.0004783178609
0.000479813514
0.0004816327155
0.0004836352148
0.0004856580634
0.0004875161429
0.0004890012688
0.0004898785974
0.0004828303333
0.0004838754426
0.0004853575915
0.0004871602631
0.0004891444472
0.0004911486937
0.0004929896435
0.0004944611176
0.0004953304738
0.0004883424545
0.0004893774961
0.0004908452733
0.0004926303188
0.0004945949255
0.0004965792307
0.000498401757
0.0004998584923
0.0005007192036
0.0004937964218
0.0004948206884
0.0004962730633
0.0004980391839
0.0004999827235
0.0005019455138
0.0005037481046
0.0005051888397
0.0005060401316
0.0004991884117
0.0005002010681
0.0005016368268
0.0005033824981
0.0005053032293
0.000507242676
0.0005090235861
0.000510446877
0.0005112878719
0.0005045139156
0.0005055139853
0.0005069317122
0.0005086551632
0.0005105510737
0.0005124650769
0.0005142223189
0.0005156265379
0.0005164562587
0.0005097676615
0.0005107540145
0.0005121520764
0.000513851273
0.0005157200649
0.000517606245
0.000519337588
0.0005207209301
0.0005215383102
0.0005149435402
0.0005159148835
0.0005172914185
0.0005189640526
0.0005208031357
0.0005226588332
0.0005243618115
0.0005257223099
0.0005265262086
0.0005200345429
0.0005209894156
0.0005223423263
0.0005239858121
0.000525792306
0.0005276145915
0.000529286523
0.0005306220742
0.0005314112989
0.0005250327121
0.0005259694839
0.0005272964399
0.0005289079203
0.000530678666
0.0005324643607
0.0005341023765
0.0005354107734
0.0005361841076
0.0005299291141
0.0005308459904
0.0005321444367
0.0005337207985
0.0005354523834
0.0005371980918
0.0005387991741
0.0005400781476
0.0005408343822
0.0005347138372
0.0005356088697
0.0005368760445
0.0005384139443
0.0005401027361
0.0005418048884
0.0005433659196
0.0005446131835
0.0005453511496
0.0005393760192
0.0005402471235
0.0005414800856
0.0005429759862
0.0005446181779
0.000546273081
0.000547790895
0.0005490041939
0.0005497227936
0.0005439039096
0.00054474889
0.0005459445546
0.0005473947716
0.0005489864351
0.000550590329
0.0005520617651
0.0005532389167
0.0005539371482
0.0005482849704
0.0005491015504
0.0005502567342
0.0005516574905
0.0005531946369
0.0005547437535
0.0005561657059
0.0005573046348
0.0005579816067
0.0005525060163
0.0005532918762
0.0005544033491
0.000555750837
0.00055722948
0.0005587201003
0.0005600895595
0.0005611883163
0.000561843247
0.0005565533988
0.0005573062174
0.0005583707608