/*--------------------------------*- C++ -*----------------------------------*\
| =========                 |                                                 |
| \\      /  F ield         | OpenFOAM: The Open Source CFD Toolbox           |
|  \\    /   O peration     | Version:  2212                                  |
|   \\  /    A nd           | Website:  www.openfoam.com                      |
|    \\/     M anipulation  |                                                 |
\*---------------------------------------------------------------------------*/
FoamFile
{
    version     2.0;
    format      ascii;
    arch        "LSB;label=32;scalar=64";
    class       volScalarField;
    location    "20.00000000";
    object      A2CH3-2_0;
}
// * * * * * * * * * * * * * * * * * * * * * * * * * * * * * * * * * * * * * //

dimensions      [0 0 0 0 0 0 0];

internalField   nonuniform List<scalar> 
3000
(
1.195966428e-24
1.343416977e-24
1.565913477e-24
1.86240675e-24
2.229888924e-24
2.658390137e-24
3.12210301e-24
3.564586559e-24
3.877534544e-24
4.490317729e-24
5.064317956e-24
5.930100578e-24
7.086409297e-24
8.532128326e-24
1.025924056e-23
1.223780526e-23
1.43675804e-23
1.625470054e-23
1.005844795e-23
1.143336668e-23
1.352704055e-23
1.636985585e-23
2.001305579e-23
2.450949736e-23
2.984159815e-23
3.570946408e-23
4.072577246e-23
1.91602437e-23
2.200786438e-23
2.640772263e-23
3.250883726e-23
4.052752904e-23
5.066744603e-23
6.287292197e-23
7.616512284e-23
8.689404801e-23
3.402631568e-23
3.956363162e-23
4.825407868e-23
6.053936521e-23
7.699763504e-23
9.808992341e-23
1.234631484e-22
1.504053849e-22
1.710862781e-22
5.851536066e-23
6.891004193e-23
8.545766696e-23
1.092147106e-22
1.414492233e-22
1.829730815e-22
2.3254827e-22
2.839245927e-22
3.219393444e-22
9.934341711e-23
1.184392955e-22
1.49192767e-22
1.938429664e-22
2.548771071e-22
3.33509231e-22
4.264887184e-22
5.209604695e-22
5.891293967e-22
1.681270396e-22
2.026874136e-22
2.588410155e-22
3.40999571e-22
4.537460439e-22
5.98703693e-22
7.686002528e-22
9.387053189e-22
1.059398797e-21
2.849922972e-22
3.468775482e-22
4.480789342e-22
5.968971255e-22
8.014834762e-22
1.06380369e-21
1.369038156e-21
1.671465646e-21
1.883674841e-21
4.847878642e-22
5.947283208e-22
7.753384445e-22
1.041788252e-21
1.40831355e-21
1.877040276e-21
2.419426488e-21
2.952884304e-21
3.324422404e-21
8.278935876e-22
1.022055342e-21
1.3420402e-21
1.815066086e-21
2.465781987e-21
3.296083884e-21
4.25290712e-21
5.18915653e-21
5.837955353e-21
1.418948514e-21
1.760333987e-21
2.324187063e-21
3.158780403e-21
4.306659558e-21
5.768726279e-21
7.448509066e-21
9.086258182e-21
1.021725298e-20
2.439359678e-21
3.037619369e-21
4.027245516e-21
5.493231368e-21
7.508976942e-21
1.007294456e-20
1.301228021e-20
1.587078736e-20
1.784004926e-20
4.203708738e-21
5.249552234e-21
6.981393892e-21
9.548193064e-21
1.307666377e-20
1.756015625e-20
2.269190313e-20
2.767348687e-20
3.109946826e-20
7.257657412e-21
9.082628032e-21
1.210689947e-20
1.659076475e-20
2.27531901e-20
3.057753848e-20
3.952285759e-20
4.81950415e-20
5.415173773e-20
1.254789086e-20
1.572818358e-20
2.100122987e-20
2.882097676e-20
3.956615693e-20
5.320133681e-20
6.877673303e-20
8.386196649e-20
9.421404507e-20
2.17171285e-20
2.725389959e-20
3.643753988e-20
5.00586561e-20
6.877279502e-20
9.250990558e-20
1.196073741e-19
1.458329737e-19
1.638173818e-19
3.761625774e-20
4.724875655e-20
6.32301091e-20
8.693589961e-20
1.195013554e-19
1.607934951e-19
2.079079829e-19
2.534809795e-19
2.847166662e-19
6.519336784e-20
8.194268667e-20
1.097367424e-19
1.509670434e-19
2.075998907e-19
2.793886921e-19
3.612675696e-19
4.404324503e-19
4.946714823e-19
1.130369141e-19
1.42150063e-19
1.904664999e-19
2.621410181e-19
3.605790407e-19
4.853292485e-19
6.275644422e-19
7.650331228e-19
8.591867455e-19
1.960538864e-19
2.466427058e-19
3.306052873e-19
4.551547133e-19
6.261861464e-19
8.428782807e-19
1.089860034e-18
1.328478582e-18
1.491855387e-18
3.401162725e-19
4.280017764e-19
5.738664953e-19
7.902235034e-19
1.087270035e-18
1.463512244e-18
1.892193516e-18
2.30620069e-18
2.589560889e-18
5.901176866e-19
7.427633928e-19
9.960983632e-19
1.371810994e-18
1.887520393e-18
2.540502922e-18
3.284187731e-18
4.002097334e-18
4.493254666e-18
1.023936654e-18
1.289001836e-18
1.728861959e-18
2.381068146e-18
3.276013197e-18
4.408698901e-18
5.698067779e-18
6.942073861e-18
7.792724303e-18
1.776610482e-18
2.236764999e-18
3.000226371e-18
4.131921403e-18
5.684157451e-18
7.64767413e-18
9.881373904e-18
1.203501336e-17
1.350670931e-17
3.082130798e-18
3.880680647e-18
5.205240542e-18
7.167875197e-18
9.85833853e-18
1.325928011e-17
1.712502545e-17
2.08489396e-17
2.339153644e-17
5.34559224e-18
6.730732572e-18
9.027449397e-18
1.242873982e-17
1.708801323e-17
2.29723588e-17
2.965388207e-17
3.608299833e-17
4.04678426e-17
9.267477065e-18
1.166854252e-17
1.564788559e-17
2.153695194e-17
2.959664647e-17
3.976377074e-17
5.12928308e-17
6.23703933e-17
6.991503631e-17
1.605721817e-17
2.021569874e-17
2.710341855e-17
3.728758068e-17
5.120911102e-17
6.874528762e-17
8.859702672e-17
1.076367837e-16
1.205813593e-16
2.779907456e-17
3.49929445e-17
4.689892222e-17
6.448339701e-17
8.84856393e-17
1.186651778e-16
1.527583097e-16
1.853835069e-16
2.075158042e-16
4.807676526e-17
6.050295129e-17
8.104848716e-17
1.113509713e-16
1.526377091e-16
2.044345915e-16
2.627985859e-16
3.184966267e-16
3.561802473e-16
8.303559299e-17
1.044587437e-16
1.398374169e-16
1.919282958e-16
2.627441478e-16
3.513475872e-16
4.508768852e-16
5.455480162e-16
6.093955591e-16
1.431803014e-16
1.800266955e-16
2.407867831e-16
3.300641553e-16
4.511102861e-16
6.020730933e-16
7.710316724e-16
9.311219261e-16
1.038686426e-15
2.46402949e-16
3.09592214e-16
4.136090011e-16
5.660682043e-16
7.721252424e-16
1.028135847e-15
1.313443715e-15
1.582568375e-15
1.762619613e-15
4.230539595e-16
5.31042084e-16
7.084323377e-16
9.676793817e-16
1.31676981e-15
1.748585331e-15
2.227465979e-15
2.676893109e-15
2.976125808e-15
7.243834985e-16
9.081734824e-16
1.209344255e-15
1.6479986e-15
2.236151342e-15
2.96003964e-15
3.75840734e-15
4.503439422e-15
4.996861316e-15
1.236500831e-15
1.547812589e-15
2.05650641e-15
2.794534e-15
3.779294818e-15
4.984514804e-15
6.305631009e-15
7.530874542e-15
8.337689635e-15
2.103295574e-15
2.627744903e-15
3.48194546e-15
4.71578427e-15
6.353187354e-15
8.344731427e-15
1.051329192e-14
1.251114603e-14
1.381874508e-14
3.563790158e-15
4.4419039e-15
5.866938222e-15
7.915194227e-15
1.061715927e-14
1.388137955e-14
1.74104862e-14
2.063905737e-14
2.273884105e-14
6.012520559e-15
7.472839761e-15
9.833136762e-15
1.320736029e-14
1.762965207e-14
2.293374796e-14
2.862541338e-14
3.379467563e-14
3.713498746e-14
1.009631362e-14
1.250687608e-14
1.638585497e-14
2.189874729e-14
2.907405989e-14
3.761506418e-14
4.670932831e-14
5.490797461e-14
6.017157937e-14
1.68680158e-14
2.081538071e-14
2.713715601e-14
3.606588926e-14
4.760273664e-14
6.122807374e-14
7.562193826e-14
8.850239549e-14
9.671893644e-14
2.802841557e-14
3.443737636e-14
4.464978542e-14
5.897946044e-14
7.735597187e-14
9.888652553e-14
1.214523698e-13
1.41498403e-13
1.542064261e-13
4.630329831e-14
5.66158928e-14
7.296231893e-14
9.574463498e-14
1.247378931e-13
1.584367056e-13
1.934815045e-13
2.243924399e-13
2.438713188e-13
7.602535945e-14
9.246522082e-14
1.183835355e-13
1.542594613e-13
1.995668177e-13
2.518132734e-13
3.057359786e-13
3.529748086e-13
3.825748327e-13
1.240234406e-13
1.499816121e-13
1.906833069e-13
2.466372454e-13
3.167676623e-13
3.970199544e-13
4.792464353e-13
5.508172635e-13
5.954270644e-13
2.009681907e-13
2.41560189e-13
3.048628157e-13
3.913012611e-13
4.988442776e-13
6.210043821e-13
7.453095219e-13
8.528547626e-13
9.195602737e-13
3.233892606e-13
3.862517228e-13
4.837650429e-13
6.160475174e-13
7.79467808e-13
9.638061641e-13
1.150174054e-12
1.310515946e-12
1.40952561e-12
5.166721852e-13
6.130927171e-13
7.618961505e-13
9.624936293e-13
1.208654159e-12
1.4845099e-12
1.761739554e-12
1.999037685e-12
2.144975995e-12
8.194739644e-13
9.65982423e-13
1.190982087e-12
1.492502521e-12
1.860193889e-12
2.26974595e-12
2.679086657e-12
3.027846423e-12
3.241558528e-12
1.290180308e-12
1.51077787e-12
1.848000869e-12
2.297408432e-12
2.842262109e-12
3.445773628e-12
4.045979168e-12
4.55523398e-12
4.866296243e-12
2.016285154e-12
2.345557255e-12
2.846736976e-12
3.511207764e-12
4.312501475e-12
5.195578433e-12
6.069910784e-12
6.809025972e-12
7.259236304e-12
3.127833837e-12
3.615243621e-12
4.354154766e-12
5.329195749e-12
6.499320787e-12
7.783021518e-12
9.048970612e-12
1.011567216e-11
1.076385024e-11
4.816624412e-12
5.532477359e-12
6.613751462e-12
8.034467804e-12
9.732007383e-12
1.158675562e-11
1.340942099e-11
1.494085921e-11
1.586949136e-11
7.363693113e-12
8.407371565e-12
9.978632027e-12
1.203522301e-11
1.448294645e-11
1.714769208e-11
1.975821587e-11
2.194620551e-11
2.327059574e-11
1.117820452e-11
1.268950416e-11
1.495806756e-11
1.791714382e-11
2.142674905e-11
2.523530419e-11
2.895620088e-11
3.206817016e-11
3.394901996e-11
1.68523292e-11
1.90270366e-11
2.228285405e-11
2.65167065e-11
3.152277751e-11
3.693994998e-11
4.221985563e-11
4.662758797e-11
4.928826222e-11
2.523838048e-11
2.83496412e-11
3.299675613e-11
3.902347362e-11
4.613000695e-11
5.380109532e-11
6.126236221e-11
6.748136597e-11
7.123155054e-11
3.755685702e-11
4.19844396e-11
4.858405511e-11
5.712242616e-11
6.716648115e-11
7.798497012e-11
8.848875843e-11
9.72321175e-11
1.025001837e-10
5.554728665e-11
6.181760056e-11
7.114695394e-11
8.319149174e-11
9.73301421e-11
1.125301596e-10
1.272653332e-10
1.395172604e-10
1.468945019e-10
8.16782014e-11
9.051894413e-11
1.036516789e-10
1.205750056e-10
1.404039637e-10
1.616863933e-10
1.82290774e-10
1.994069607e-10
2.097079633e-10
1.194386096e-10
1.318532898e-10
1.502690286e-10
1.739614137e-10
2.016766603e-10
2.313809512e-10
2.601065188e-10
2.839508813e-10
2.98295816e-10
1.73741522e-10
1.911109546e-10
2.168444913e-10
2.499037933e-10
2.885215462e-10
3.298595183e-10
3.697972262e-10
4.029280269e-10
4.228546903e-10
2.514811797e-10
2.757015434e-10
3.115457367e-10
3.575356582e-10
4.111914038e-10
4.685650543e-10
5.239504134e-10
5.698732785e-10
5.974894444e-10
3.62300627e-10
3.959710338e-10
4.457524139e-10
5.095532381e-10
5.839077661e-10
6.633407373e-10
7.399686724e-10
8.034801181e-10
8.416704388e-10
5.196464749e-10
5.663234965e-10
6.352761824e-10
7.235605057e-10
8.263505245e-10
9.360731172e-10
1.041860434e-09
1.129513661e-09
1.182220267e-09
7.422146999e-10
8.067572693e-10
9.020295429e-10
1.023906627e-09
1.165690377e-09
1.316931628e-09
1.462678518e-09
1.583414064e-09
1.656016533e-09
1.055927106e-09
1.144963122e-09
1.276302611e-09
1.444189721e-09
1.639355027e-09
1.8474134e-09
2.047832719e-09
2.213830864e-09
2.313659838e-09
1.496625192e-09
1.619181595e-09
1.799860315e-09
2.030658795e-09
2.298783357e-09
2.584471288e-09
2.859577024e-09
3.087407579e-09
3.224437576e-09
2.113729649e-09
2.282081342e-09
2.530141762e-09
2.846820852e-09
3.214503651e-09
3.606091895e-09
3.983067658e-09
4.295237022e-09
4.483018531e-09
2.975192747e-09
3.206003275e-09
3.545932223e-09
3.979656015e-09
4.482975954e-09
5.018803019e-09
5.53450893e-09
5.961535186e-09
6.218444635e-09
4.17417096e-09
4.490020038e-09
4.954989632e-09
5.547963465e-09
6.235768294e-09
6.967729598e-09
7.672052942e-09
8.2552383e-09
8.60614748e-09
5.837969101e-09
6.269389602e-09
6.904244476e-09
7.713507507e-09
8.651793674e-09
9.649985457e-09
1.061029772e-08
1.140541436e-08
1.188390869e-08
8.139956911e-09
8.728137066e-09
9.593355325e-09
1.06958063e-08
1.197351901e-08
1.333238347e-08
1.463943368e-08
1.57215937e-08
1.637290097e-08
1.131533379e-08
1.211567889e-08
1.329258986e-08
1.479160251e-08
1.652826336e-08
1.837466227e-08
2.0150312e-08
2.16203528e-08
2.250517972e-08
1.568181264e-08
1.676860304e-08
1.836620598e-08
2.040026558e-08
2.275591928e-08
2.525964891e-08
2.766693311e-08
2.965971226e-08
3.085922231e-08
2.166649922e-08
2.313892524e-08
2.530271521e-08
2.80565835e-08
3.124463741e-08
3.463198002e-08
3.788805203e-08
4.058310297e-08
4.22053019e-08
2.984044093e-08
3.183033528e-08
3.475359828e-08
3.84725798e-08
4.277618012e-08
4.734715364e-08
5.173972953e-08
5.537477178e-08
5.756258956e-08
4.096248172e-08
4.364409985e-08
4.758217876e-08
5.259010479e-08
5.838273395e-08
6.453273567e-08
7.044067703e-08
7.532848719e-08
7.82698505e-08
5.60341521e-08
5.963636088e-08
6.492440324e-08
7.164595377e-08
7.941692754e-08
8.766344891e-08
9.558209457e-08
1.021312141e-07
1.060713812e-07
7.636730235e-08
8.118851806e-08
8.82631824e-08
9.7251113e-08
1.076365822e-07
1.186515814e-07
1.292233409e-07
1.379630079e-07
1.432193821e-07
1.036660099e-07
1.100921675e-07
1.195176724e-07
1.314853866e-07
1.453052908e-07
1.599536318e-07
1.740041732e-07
1.856137115e-07
1.925932489e-07
1.401239192e-07
1.486496493e-07
1.611483901e-07
1.770080877e-07
1.953092594e-07
2.14693354e-07
2.332734538e-07
2.486161193e-07
2.57835317e-07
1.885375853e-07
1.997906194e-07
2.162783464e-07
2.371846857e-07
2.612899629e-07
2.868003994e-07
3.112331778e-07
3.313942305e-07
3.435015787e-07
2.52435588e-07
2.672042114e-07
2.88829472e-07
3.162283136e-07
3.477911059e-07
3.811626046e-07
4.130955281e-07
4.394240628e-07
4.552246274e-07
3.362222038e-07
3.554853368e-07
3.836725391e-07
4.193539082e-07
4.604171571e-07
5.037887535e-07
5.452494144e-07
5.794031056e-07
5.998852557e-07
4.453333248e-07
4.70292547e-07
5.067876108e-07
5.529415497e-07
6.059995594e-07
6.619774243e-07
7.154312823e-07
7.594227327e-07
7.857844322e-07
5.864011654e-07
6.185137332e-07
6.654309255e-07
7.247045774e-07
7.927658072e-07
8.644862844e-07
9.328942936e-07
9.891344101e-07
1.022806231e-06
7.674232515e-07
8.084350819e-07
8.683036382e-07
9.438573312e-07
1.030505465e-06
1.121696077e-06
1.20856648e-06
1.279902649e-06
1.322572854e-06
9.979308832e-07
1.049907988e-06
1.125716149e-06
1.221276116e-06
1.330727036e-06
1.445757155e-06
1.555189246e-06
1.64494404e-06
1.698579456e-06
1.289150383e-06
1.354507416e-06
1.449742423e-06
1.569647064e-06
1.706789263e-06
1.850712156e-06
1.987438501e-06
2.099439607e-06
2.166302423e-06
1.654151451e-06
1.735674954e-06
1.854349706e-06
2.003575395e-06
2.174007549e-06
2.352598086e-06
2.522013634e-06
2.660615085e-06
2.743274443e-06
2.107957753e-06
2.208815616e-06
2.355487921e-06
2.539679344e-06
2.749736461e-06
2.969512055e-06
3.17769031e-06
3.347783263e-06
3.449120693e-06
2.667624319e-06
2.791379867e-06
2.971167802e-06
3.196649384e-06
3.453411647e-06
3.72163746e-06
3.975332011e-06
4.182343763e-06
4.305551724e-06
3.352299395e-06
3.502911964e-06
3.721492865e-06
3.995264798e-06
4.306549513e-06
4.63122648e-06
4.937856703e-06
5.187737134e-06
5.33631023e-06
4.183235106e-06
4.365051325e-06
4.628647566e-06
4.958365646e-06
5.332701398e-06
5.722536351e-06
6.090156808e-06
6.38935196e-06
6.567070716e-06
5.183752136e-06
5.401487603e-06
5.716838818e-06
6.110777853e-06
6.557360768e-06
7.021718738e-06
7.458972497e-06
7.814385593e-06
8.025292995e-06
6.379156344e-06
6.637867815e-06
7.012189811e-06
7.479191086e-06
8.007823879e-06
8.556663443e-06
9.072720273e-06
9.491661014e-06
9.740032352e-06
7.796607193e-06
8.101655848e-06
8.542587057e-06
9.091991014e-06
9.713006287e-06
1.035679958e-05
1.096128062e-05
1.145140411e-05
1.174171093e-05
9.464939944e-06
9.821946648e-06
1.033748354e-05
1.097904951e-05
1.170321939e-05
1.245285902e-05
1.315575007e-05
1.372498715e-05
1.406185634e-05
1.141444552e-05
1.182923938e-05
1.242766269e-05
1.317147795e-05
1.400991275e-05
1.487660835e-05
1.568816432e-05
1.634464531e-05
1.673281457e-05
1.367661366e-05
1.415517538e-05
1.484496933e-05
1.570135028e-05
1.666538911e-05
1.76605566e-05
1.859119998e-05
1.934317408e-05
1.978744499e-05
1.628384642e-05
1.683224817e-05
1.762201507e-05
1.860140332e-05
1.970249991e-05
2.083764662e-05
2.189786275e-05
2.275361537e-05
2.325880543e-05
1.92691499e-05
1.989349339e-05
2.079186608e-05
2.190472248e-05
2.315432935e-05
2.444093818e-05
2.564117022e-05
2.660894045e-05
2.717983528e-05
2.26658128e-05
2.337216728e-05
2.43877218e-05
2.56444212e-05
2.70538752e-05
2.850329075e-05
2.985383702e-05
3.094173719e-05
3.158304413e-05
2.650708015e-05
2.730142198e-05
2.844259263e-05
2.985332191e-05
3.143373396e-05
3.305705339e-05
3.456796927e-05
3.578390848e-05
3.650021253e-05
3.082583055e-05
3.171398563e-05
3.298898439e-05
3.45636462e-05
3.632579756e-05
3.813376833e-05
3.981477493e-05
4.116638801e-05
4.1962111e-05
3.565426437e-05
3.664185471e-05
3.805859663e-05
3.980672058e-05
4.176096756e-05
4.376389405e-05
4.562429505e-05
4.711887818e-05
4.799824185e-05
4.102360938e-05
4.211600474e-05
4.368204063e-05
4.561270341e-05
4.77688922e-05
4.997655254e-05
5.20251605e-05
5.366961435e-05
5.463660782e-05
4.69638495e-05
4.816612475e-05
4.988858205e-05
5.201033764e-05
5.437773012e-05
5.679930422e-05
5.904437713e-05
6.084515813e-05
6.190351006e-05
5.350348078e-05
5.482037954e-05
5.670591195e-05
5.902673247e-05
6.161394381e-05
6.425795308e-05
6.670714162e-05
6.867022159e-05
6.982337722e-05
6.066929795e-05
6.210520254e-05
6.415994881e-05
6.668717634e-05
6.950212447e-05
7.237638356e-05
7.503668906e-05
7.716752335e-05
7.841862641e-05
6.848621333e-05
7.004512128e-05
7.227467299e-05
7.501498234e-05
7.806484931e-05
8.117642951e-05
8.405417257e-05
8.635767641e-05
8.770955583e-05
7.697710916e-05
7.866261599e-05
8.107199428e-05
8.40313663e-05
8.732257109e-05
9.067777512e-05
9.377857436e-05
9.62591072e-05
9.771426833e-05
8.61627233e-05
8.797801135e-05
9.057165196e-05
9.375535702e-05
9.729353921e-05
0.0001008978867
0.0001042266471
0.0001068880043
0.0001084486245
9.606156747e-05
9.800940029e-05
0.0001007911466
0.0001042037374
0.0001079937509
0.0001118519736
0.0001154128835
0.0001182582951
0.0001199262231
0.0001066898765
0.0001087725985
0.0001117457018
0.0001153910145
0.0001194369304
0.0001235529768
0.0001273495133
0.0001303816484
0.0001321584073
0.0001180615867
0.0001202811274
0.0001234482531
0.0001273294166
0.0001316345343
0.0001360115816
0.0001400465222
0.0001432674996
0.0001451542934
0.0001301883407
0.0001325462229
0.0001359094633
0.0001400289147
0.0001445957798
0.0001492362532
0.0001535116948
0.0001569230977
0.0001589208193
0.0001430795163
0.000145576868
0.0001491377589
0.0001534972651
0.0001583276938
0.0001632332915
0.0001677506733
0.0001713535684
0.0001734628117
0.0001567422763
0.0001593798453
0.0001631393877
0.0001677400712
0.0001728351796
0.000178006903
0.0001827670347
0.0001865619942
0.0001887830666
0.0001711816368
0.000173959808
0.000177918492
0.0001827608611
0.0001881210986
0.0001935592861
0.0001985623788
0.0002025495059
0.0002048824429
0.0001864005502
0.0001893193645
0.0001934771968
0.0001985611789
0.0002041863643
0.0002098907283
0.0002151364289
0.000219315384
0.000221759965
0.0002024000015
0.0002054591761
0.0002098157088
0.0002151406854
0.0002210300464
0.0002269997126
0.000232487139
0.0002368571688
0.0002394129336
0.0002191791137
0.0002223780637
0.0002269324248
0.0002324972685
0.0002386494817
0.0002448830294
0.0002506108083
0.0002551707745
0.0002578370403
0.0002367352611
0.0002400731215
0.0002448240458
0.000250627158
0.0002570403903
0.0002635358943
0.0002695021983
0.0002742506077
0.0002770264866
0.0002550641877
0.0002585398356
0.0002634856962
0.0002695250451
0.0002761969955
0.0002829520675
0.0002891546533
0.0002940896876
0.0002969741037
0.0002741601282
0.0002777722051
0.000282911045
0.0002891842036
0.0002961121444
0.0003031239742
0.0003095602199
0.0003146797653
0.000317671472
0.0002940159311
0.0002977628647
0.0003030924277
0.0003095966109
0.0003167774283
0.0003240428249
0.0003307097669
0.000336011443
0.0003391090397
0.000314623181
0.0003185032066
0.0003240209671
0.0003307530686
0.0003381833024
0.000345698733
0.000352593102
0.00035807429
0.0003612762386
0.0003359723188
0.0003399835004
0.000345686693
0.00035264332
0.0003603192022
0.0003680808308
0.0003751990859
0.0003808569556
0.0003841615961
0.0003580527605
0.0003621930102
0.0003680786578
0.0003752561649
0.000383173656
0.0003911773797
0.0003985157419
0.000404347278
0.0004077528437
0.0003808530107
0.0003851201082
0.0003911850486
0.0003985795702
0.0004067343943
0.0004149758782
0.0004225303616
0.0004285323878
0.0004320370196
0.0004043607726
0.000408752383
0.0004149932941
0.0004226007749
0.0004309884529
0.000439463163
0.0004472296043
0.0004533988075
0.0004570005671
0.0004285630528
0.0004330767435
0.0004394901675
0.0004473063908
0.0004559222716
0.0004646255057
0.0004725995926
0.0004789325438
0.0004826294269
0.0004534462601
0.000458079517
0.0004646618826
0.0004726824975
0.0004815217866
0.0004904487032
0.000498626
0.0005051191754
0.0005089091233
0.0004789962992
0.0004837465412
0.0004904941843
0.0004987147305
0.0005077725178
0.0005169181628
0.0005252941349
0.0005319439347
0.000535824845
0.0005051986579
0.0005100632508
0.000516972434
0.0005253883649
0.0005346596491
0.0005440189809
0.000552589017
0.0005593917827
0.00056336152
0.0005320384887
0.0005370147577
0.0005440816877
0.000552688392
0.0005621681039
0.000571736016
0.0005804954487
0.0005874474795
0.0005915038843
0.0005595006837
0.0005645859252
0.0005718067693
0.00058059959
0.0005902826136
0.0006000539558
0.0006089980803
0.0006160956478
0.0006202365451
0.0005875699442
0.0005927614361
0.0006001323371
0.0006091065897
0.0006189877814
0.0006289573784
0.0006380814699
0.0006453208314
0.0006495440387
0.0006162308442
0.0006215258557
0.0006290429452
0.0006381939335
0.0006482681396
0.0006584308087
0.0006677301377
0.0006751075482
0.0006794108823
0.000645467888
0.0006508636883
0.000658523099
0.0006678461299
0.0006781082022
0.0006884587686
0.000697928615
0.0007054403384
0.0007098216218
0.0006752655631
0.000680759429
0.0006885573054
0.000698047702
0.0007084925119
0.0007190258227
0.0007286614882
0.000736303807
0.0007407608735
0.0007056083868
0.0007111976099
0.0007191301182
0.0007287832312
0.0007394056826
0.0007501166194
0.0007599134386
0.0007676826625
0.0007722133623
0.000736480949
0.0007421628418
0.0007502261787
0.0007600373971
0.0007708324371
0.0007817159266
0.0007916692771
0.0007995617508
0.0008041639548
0.00076786795
0.0007736398512
0.0007818302514
0.0007917950112
0.0008027576402
0.0008138086643
0.0008239139752
0.000831926085
0.000836597689
0.0007997542333
0.0008056135128
0.0008139272557
0.0008240410483
0.0008351663287
0.0008463799326
0.0008566326922
0.0008647608721
0.0008694997999
0.0008321248151
0.0008380688782
0.0008465022937
0.0008567606729
0.0008680437363
0.0008794150363
0.0008898107982
0.000898051535
0.0009028557414
0.0008649649095
0.0008709912005
0.0008795406744
0.000889939262
0.000901375316
0.0009128995055
0.000923433895
0.0009317837322
0.0009366512055
0.000898259951
0.000904365956
0.0009130279334
0.0009235624246
0.0009351467578
0.0009468191129
0.0009574878314
0.0009659433738
0.0009708721381
0.0009319956141
0.0009381788637
0.0009469498534
0.0009576160206
0.000969344007
0.0009811598904
0.000991958719
0.001000516635
0.001005504752
0.000966157829
0.0009724159003
0.0009812924772
0.0009920861735
0.001003953277
0.001015908141
0.001026832944
0.001035489968
0.001040535538
0.001000732794
0.001007063313
0.00101604212
0.001026959283
0.001038961058
0.00105105045
0.001062097177
0.001070850111
0.001075951274
0.001035706987
0.001042107628
0.00105118538
0.001062222031
0.00107435413
0.001086573691
0.001097738379
0.001106584096
0.001111739032
0.001071067172
0.00107753566
0.001086709143
0.001097861394
0.001110119562
0.001122465032
0.001133743807
0.00114267925
0.001147886182
0.001106800406
0.00111333452
0.001122600593
0.001133864642
0.001146244724
0.00115871194
0.00117010102
0.001179123203
0.001184380395
0.001142894047
0.001149491616
0.001158847211
0.001170219348
0.001182717286
0.001195302186
0.001206797876
0.001215903886
0.001221209644
0.001179335753
0.001185994658
0.001195436783
0.001206913385
0.001219525222
0.00123222384
0.001243822539
0.001253009533
0.001258362207
0.001216113486
0.001222831661
0.001232357395
0.001243934932
0.001256656806
0.001269465278
0.001281163474
0.001290428682
0.00129582666
0.001253215511
0.00125999094
0.001269597438
0.001281272466
0.001294100616
0.001307015174
0.001318809444
0.001328150168
0.001333591881
0.001290630393
0.001297461115
0.001307145603
0.001318914768
0.001331845527
0.001344862503
0.001356749514
0.001366163124
0.001371647045
0.001328346999
0.0013352311
0.001344990878
0.001356850913
0.001369880712
0.001382996532
0.001394973037
0.001404456975
0.001409981616
0.00136635449
0.00137329011
0.001383122546
0.00139507027
0.001408195633
0.001421406818
0.001433469658
0.001443021431
0.001448585344
0.00140464232
0.001411627645
0.001421530179
0.001433562496
0.00144678004
0.001460083203
0.001472229302
0.001481846485
0.001487448262
0.001443200228
0.001450233493
0.001460203633
0.001472317528
0.001485623958
0.001499015804
0.001511242168
0.001520922401
0.00152656067
0.001482018231
0.001489097718
0.001499133038
0.001511325576
0.001524717688
0.001538195006
0.001550498721
0.001560239706
0.001565913133
0.001521086617
0.001528210655
0.001538308792
0.001550577116
0.001564051787
0.001577611454
0.001589989681
0.00159978918
0.001605496464
0.001560395936
0.001567562896
0.001577721549
0.001590062876
0.001603617064
0.001617256035
0.00162970601
0.001639561843
0.001645301718
0.001599936988
0.001607145281
0.001617362207
0.001629773825
0.001643404566
0.001657119873
0.001669638899
0.00167954894
0.00168532017
0.001639700807
0.001646948885
0.001657221897
0.001669701157
0.001683405558
0.001697194304
0.001709779747
0.001719741918
0.001725543297
0.001679678649
0.001686964999
0.001697291958
0.001709836274
0.001723611506
0.001737470857
0.001750120143
0.001760132413
0.001765962758
0.001719861967
0.00172718511
0.001737563923
0.001750170763
0.001764014054
0.001777941233
0.001790651834
0.001800712209
0.001806570362
0.001760242393
0.001767600874
0.001778029488
0.001790696363
0.00180460499
0.001818597266
0.001831366698
0.001841473214
0.001847358031
0.0018008117
0.00180820409
0.00181868048
0.001831404936
0.001845376212
0.001859430887
0.001872256693
0.001882407407
0.001888317758
0.001841561768
0.001848986651
0.001859508813
0.001872288419
0.001886319677
0.001900434072
0.001913313808
0.001923506786
0.001929441544
0.001882484535
0.0018899405
0.001900506436
0.001913338766
0.001927427344
0.001941598777
0.001954529993
0.001964763293
0.001970721324
0.001923571932
0.001931057564
0.001941665267
0.00195454788
0.00196869109
0.001982916854
0.00199589707
0.002006168723
0.002012148877
0.001964815806
0.00197232967
0.001982977101
0.001995907513
0.002010102618
0.002024379944
0.002037406621
0.002047714605
0.002053715696
0.00200620782
0.002013748442
0.002024433505
0.002037409156
0.002051653327
0.002065979347
0.002079049845
0.002089392052
0.002095412845
0.002047739326
0.002055305171
0.002066025677
0.002079043889
0.002093334155
0.002107705849
0.002120817379
0.002131191578
0.002137230757
0.002089401201
0.002096990641
0.002107744267
0.002120802188
0.00213513538
0.002149549511
0.002162699074
0.002173102853
0.002179158997
0.00213118365
0.002138794931
0.002149579165
0.002162673703
0.00217704637
0.002191499403
0.002204683712
0.002215114422
0.002221185961
0.002173075954
0.002180707147
0.002191519223
0.002204646962
0.002219055278
0.002233543281
0.002246758665
0.002257213335
0.002263298508
0.002215066169
0.002222715114
0.002233551926
0.002246709023
0.00226114867
0.002275667188
0.002288909475
0.002299384722
0.002305481514
0.002257140751
0.002264804988
0.002275662994
0.002288845052
0.002303311077
0.002317854986
0.002331119362
0.002341611269
0.002347717345
0.002299284116
0.002306960803
0.002317835902
0.002331037819
0.002345524464
0.002360087788
0.002373368628
0.002383872611
0.002389985234
0.00234147812
0.002349163931
0.00236005132
0.002373267114
0.00238776761
0.002402343317
0.002415633988
0.002426144632
0.002432260565
0.002383701448
0.002391392462
0.00240228647
0.00241550907
0.002430015407
0.002444595163
0.002457887797
0.002468398672
0.002474514068
0.002425928934
0.002433620499
0.002444514398
0.002457735408
0.002472238068
0.002486811964
0.002500097199
0.002510600653
0.002516710932
0.002468130794
0.00247581738
0.002486703171
0.002499912604
0.002514400267
0.002528956514
0.002542223212
0.002552710141
0.002558809857
0.00251027179
0.002517946829
0.002528815008
0.002542001003
0.002556460223
0.002570984824
0.002584219767
0.002594679372
0.002600762067
0.002552310362
0.00255996607
0.002570805381
0.002583953896
0.002598368769
0.002612845178
0.002626032752
0.002636452286
0.002642510346
0.002594197725
0.002601824927
0.002612622108
0.002625716613
0.00264006843
0.002654477207
0.002667599089
0.002677963615
0.002683988124
0.002635877002
0.002643464956
0.002654204491
0.002667225665
0.002681492587
0.002695811072
0.002708845936
0.00271913809
0.0027251187
0.002677282429
0.002684818659
0.002695482547
0.002708408001
0.002722564766
0.002736766792
0.002749690055
0.002759889858
0.002765814684
0.002718338676
0.002725808842
0.00273637641
0.002749180473
0.002763198157
0.002777253823
0.00279003746
0.002800122184
0.002805977724
0.002758960395
0.002766348188
0.002776795961
0.002789449531
0.002803295419
0.002817170976
0.002829783421
0.002839727528
0.002845498648
0.002799052042
0.002806339148
0.002816640799
0.002829111305
0.002842748863
0.002856406728
0.002868812922
0.002878588114
0.002884258085
0.002838508073
0.002845674201
0.002855800612
0.002868052109
0.002881441129
0.002894840056
0.00290700164
0.002916577048
0.002922127664
0.002877213573
0.002884236578
0.002894156034
0.002906149468
0.002919246396
0.002932341851
0.00294421755
0.002953560066
0.002958971857
0.002915045408
0.002921901524
0.002931580057
0.00294327372
0.002956032195
0.002968776957
0.002980323173
0.002989397957
0.002994650503
0.002951873946
0.002958538131
0.002967940034
0.002979290227
0.002991661868
0.003004006866
0.003015178497
0.003023949661
0.003029022005
0.002987565367
0.002994011774
0.003003100299
0.003014062215
0.003025997639
0.003037893039
0.00304864452
0.00305707599
0.003061947163
0.003021984569
0.003028187142
0.003036925365
0.003047454185
0.003058904257
0.003070300775
0.003080587328
0.003088643872
0.003093293504
0.003054998606
0.003060931787
0.003069283633
0.003079335805
0.003090253097
0.003101103511
0.003110882566
0.003118530945
0.003122939948
0.00308648056
0.00309212009
0.003100051488
0.003109586155
0.003119926542
0.003130187338
0.003139420067
0.003146630272
0.003150781566