/*--------------------------------*- C++ -*----------------------------------*\
| =========                 |                                                 |
| \\      /  F ield         | OpenFOAM: The Open Source CFD Toolbox           |
|  \\    /   O peration     | Version:  2212                                  |
|   \\  /    A nd           | Website:  www.openfoam.com                      |
|    \\/     M anipulation  |                                                 |
\*---------------------------------------------------------------------------*/
FoamFile
{
    version     2.0;
    format      ascii;
    arch        "LSB;label=32;scalar=64";
    class       volScalarField;
    location    "20.00000000";
    object      A2CH2-2;
}
// * * * * * * * * * * * * * * * * * * * * * * * * * * * * * * * * * * * * * //

dimensions      [0 0 0 0 0 0 0];

internalField   nonuniform List<scalar> 
3000
(
7.744848252e-25
8.699715898e-25
1.014057233e-24
1.206062491e-24
1.444039524e-24
1.721531769e-24
2.021826335e-24
2.308372569e-24
2.511033041e-24
2.907843796e-24
3.27955771e-24
3.840226339e-24
4.589036576e-24
5.525265645e-24
6.643720642e-24
7.925010834e-24
9.304220652e-24
1.052629034e-23
6.513659513e-24
7.404035551e-24
8.759867664e-24
1.060083395e-23
1.296011736e-23
1.587194393e-23
1.932492537e-23
2.312486076e-23
2.637335094e-23
1.240781049e-23
1.425188288e-23
1.710116039e-23
2.105214467e-23
2.624491779e-23
3.281135425e-23
4.071541558e-23
4.932327174e-23
5.627126184e-23
2.2034797e-23
2.562066622e-23
3.124844929e-23
3.920418744e-23
4.986227254e-23
6.352126697e-23
7.995257278e-23
9.74001227e-23
1.107930863e-22
3.789343769e-23
4.462484355e-23
5.534078436e-23
7.072541304e-23
9.159989152e-23
1.184899619e-22
1.505938597e-22
1.838639639e-22
2.084812077e-22
6.433291388e-23
7.66990472e-23
9.661441954e-23
1.255290522e-22
1.650536172e-22
2.159743023e-22
2.761860454e-22
3.373640713e-22
3.815088234e-22
1.088758913e-22
1.312565368e-22
1.67620548e-22
2.208248742e-22
2.938373561e-22
3.877091879e-22
4.977309873e-22
6.078878004e-22
6.86046592e-22
1.845556373e-22
2.246313572e-22
2.901674625e-22
3.865393098e-22
5.190255626e-22
6.888991769e-22
8.865632571e-22
1.082409598e-21
1.219832275e-21
3.139394988e-22
3.851348668e-22
5.020945789e-22
6.746424516e-22
9.119973264e-22
1.215535924e-21
1.566775026e-21
1.912232273e-21
2.152833363e-21
5.361283265e-22
6.618638259e-22
8.690799988e-22
1.175402662e-21
1.596794035e-21
2.134481924e-21
2.754102657e-21
3.360400172e-21
3.780550094e-21
9.188843942e-22
1.139959207e-21
1.505099855e-21
2.045566805e-21
2.788911755e-21
3.735718664e-21
4.823514403e-21
5.884089928e-21
6.616500883e-21
1.57968348e-21
1.967105205e-21
2.607968486e-21
3.557313346e-21
4.862672259e-21
6.523049454e-21
8.426507918e-21
1.027762336e-20
1.155288031e-20
2.722242743e-21
3.399511316e-21
4.521019392e-21
6.183230236e-21
8.468201465e-21
1.137162682e-20
1.469484952e-20
1.792082938e-20
2.013943043e-20
4.699922434e-21
5.881739065e-21
7.840200333e-21
1.074386709e-20
1.473453774e-20
1.980143846e-20
2.559425869e-20
3.121020171e-20
3.506764602e-20
8.12577803e-21
1.018527573e-20
1.360000123e-20
1.866392208e-20
2.562229843e-20
3.445218416e-20
4.453851742e-20
5.430743048e-20
6.101124158e-20
1.406360367e-20
1.764911237e-20
2.359626487e-20
3.241704319e-20
4.453596707e-20
5.990767275e-20
7.745548289e-20
9.443868712e-20
1.060850509e-19
2.43595803e-20
3.059740509e-20
4.094662795e-20
5.629805128e-20
7.738682688e-20
1.041268385e-19
1.346372931e-19
1.641495068e-19
1.843771488e-19
4.221799725e-20
5.306454052e-20
7.106344731e-20
9.776341327e-20
1.344377779e-19
1.809268526e-19
2.339500704e-19
2.852157549e-19
3.203399294e-19
7.320057613e-20
9.205370266e-20
1.233425165e-19
1.697575835e-19
2.335041913e-19
3.142900741e-19
4.063989038e-19
4.954210294e-19
5.5639314e-19
1.269608024e-19
1.597211681e-19
2.14093753e-19
2.94749613e-19
4.055063442e-19
5.458320842e-19
7.057728097e-19
8.602976812e-19
9.660974186e-19
2.202528873e-19
2.771658822e-19
3.716251237e-19
5.117338418e-19
7.040955729e-19
9.477429313e-19
1.225348837e-18
1.493452073e-18
1.676950792e-18
3.821490878e-19
4.809995679e-19
6.450545165e-19
8.88358929e-19
1.222322607e-18
1.645181774e-18
2.126778025e-18
2.591682738e-18
2.909746956e-18
6.630820668e-19
8.347332782e-19
1.119578395e-18
1.541934816e-18
2.121484345e-18
2.854990233e-18
3.689961186e-18
4.495556047e-18
5.046421216e-18
1.150499435e-18
1.448486818e-18
1.942889995e-18
2.67575434e-18
3.680953109e-18
4.952489452e-18
6.398991264e-18
7.793647524e-18
8.746690036e-18
1.995929752e-18
2.513055563e-18
3.370815549e-18
4.641780704e-18
6.38407397e-18
8.586459537e-18
1.108984324e-17
1.350137974e-17
1.514791743e-17
3.461704651e-18
4.358695382e-18
5.846005837e-18
8.048617295e-18
1.106587479e-17
1.487646588e-17
1.920329418e-17
2.336666847e-17
2.620621081e-17
6.001443205e-18
7.556327854e-18
1.013327529e-17
1.394692345e-17
1.916622942e-17
2.57502671e-17
3.321626866e-17
4.038988891e-17
4.527565721e-17
1.03983513e-17
1.309130478e-17
1.755166204e-17
2.414673308e-17
3.316205319e-17
4.451814993e-17
5.73737612e-17
6.970354818e-17
7.808621076e-17
1.800215565e-17
2.266076993e-17
3.037085619e-17
4.175822988e-17
5.730162856e-17
7.684532759e-17
9.892339569e-17
1.20050857e-16
1.343833146e-16
3.113360491e-17
3.91805682e-17
5.248546903e-17
7.21087852e-17
9.884529653e-17
1.323879789e-16
1.701833989e-16
2.062523977e-16
2.306555982e-16
5.377228081e-17
6.76455083e-17
9.055606845e-17
1.242891372e-16
1.701481447e-16
2.275260576e-16
2.919793501e-16
3.532865853e-16
3.946330473e-16
9.272085629e-17
1.165818845e-16
1.559289687e-16
2.137433073e-16
2.921304935e-16
3.89891154e-16
4.993055363e-16
6.029769587e-16
6.726336951e-16
1.595658892e-16
2.004860622e-16
2.678453666e-16
3.665750638e-16
5.000137056e-16
6.65801333e-16
8.50561315e-16
1.024841357e-15
1.141439134e-15
2.739617373e-16
3.438928036e-16
4.587673761e-16
6.26650858e-16
8.527152168e-16
1.132350782e-15
1.442464835e-15
1.733505346e-15
1.927282784e-15
4.690970323e-16
5.881159467e-16
7.831484388e-16
1.067212691e-15
1.448089278e-15
1.916865646e-15
2.433873468e-15
2.916342154e-15
3.235872841e-15
8.007344897e-16
1.002334087e-15
1.33175457e-15
1.809687261e-15
2.447399724e-15
3.227877377e-15
4.083407235e-15
4.87685177e-15
5.399329963e-15
1.362054267e-15
1.701677706e-15
2.254841791e-15
3.053852419e-15
4.114203635e-15
5.403889862e-15
6.808208593e-15
8.101981109e-15
8.948757519e-15
2.30784268e-15
2.876492459e-15
3.799317629e-15
5.125729351e-15
6.87547067e-15
8.989317859e-15
1.127470049e-14
1.336546207e-14
1.472524225e-14
3.893593551e-15
4.839268469e-15
6.367751907e-15
8.552834922e-15
1.141662709e-14
1.485145896e-14
1.853727361e-14
2.188478995e-14
2.404791267e-14
6.538179221e-15
8.09921345e-15
1.061116619e-14
1.418121021e-14
1.88278061e-14
2.435879817e-14
3.024807106e-14
3.555735905e-14
3.896596985e-14
1.092340203e-14
1.347963987e-14
1.75735005e-14
2.335557743e-14
3.08266196e-14
3.965012839e-14
4.897132148e-14
5.731246127e-14
6.263333759e-14
1.815065791e-14
2.230097734e-14
2.891433684e-14
3.819395905e-14
5.009423565e-14
6.403701071e-14
7.86502215e-14
9.163165177e-14
9.986112664e-14
2.99851084e-14
3.666334416e-14
4.724897262e-14
6.200235974e-14
8.077783463e-14
1.026005384e-13
1.252948798e-13
1.453122128e-13
1.579263649e-13
4.923251318e-14
5.987864435e-14
7.666283684e-14
9.989538557e-14
1.292355484e-13
1.630693422e-13
1.979886485e-13
2.285796108e-13
2.477480226e-13
8.031507571e-14
9.712506981e-14
1.234826779e-13
1.597173405e-13
2.051324176e-13
2.571022321e-13
3.103505041e-13
3.566983924e-13
3.855868447e-13
1.301428542e-13
1.564294061e-13
1.974229034e-13
2.533986967e-13
3.230413992e-13
4.021498546e-13
4.826474144e-13
5.522916127e-13
5.954888101e-13
2.094200328e-13
2.501284492e-13
3.132760448e-13
3.989394372e-13
5.04767061e-13
6.241408301e-13
7.448289246e-13
8.486631416e-13
9.127798486e-13
3.34585597e-13
3.970254458e-13
4.933873406e-13
6.232899693e-13
7.826982972e-13
9.613366734e-13
1.140864836e-12
1.294534237e-12
1.389040927e-12
5.306726943e-13
6.255482536e-13
7.712529581e-13
9.665108251e-13
1.204619569e-12
1.46983646e-12
1.734916592e-12
1.960765927e-12
2.09916136e-12
8.354900768e-13
9.783437688e-13
1.196721315e-12
1.487746942e-12
1.840581277e-12
2.231401162e-12
2.620080326e-12
2.949862063e-12
3.151298953e-12
1.30569586e-12
1.518924005e-12
1.843475095e-12
2.273769281e-12
2.792666512e-12
3.364524566e-12
3.930719991e-12
4.409352404e-12
4.70089745e-12
2.025502706e-12
2.341135647e-12
2.819633729e-12
3.451042694e-12
4.208782402e-12
5.040070372e-12
5.859862866e-12
6.550628457e-12
6.970370336e-12
3.119111713e-12
3.582676004e-12
4.282875377e-12
5.202886308e-12
6.302158357e-12
7.503232775e-12
8.683530638e-12
9.675239093e-12
1.027659049e-11
4.768510812e-12
5.444361067e-12
6.461854201e-12
7.79362848e-12
9.378683464e-12
1.110427096e-11
1.279474366e-11
1.421159803e-11
1.506921967e-11
7.23865843e-12
8.217317569e-12
9.686348807e-12
1.160252404e-11
1.387519247e-11
1.634144001e-11
1.875091619e-11
2.07660744e-11
2.198401844e-11
1.091302002e-11
1.232126546e-11
1.442958482e-11
1.717122507e-11
2.04129025e-11
2.392077071e-11
2.733973493e-11
3.019391727e-11
3.191680556e-11
1.634351828e-11
1.835821735e-11
2.13674486e-11
2.527001907e-11
2.987179021e-11
3.483909991e-11
3.967051049e-11
4.369749446e-11
4.612584066e-11
2.432049464e-11
2.718755297e-11
3.146107966e-11
3.698999614e-11
4.349385088e-11
5.049912308e-11
5.730057307e-11
6.29620813e-11
6.63732635e-11
3.597038179e-11
4.00306567e-11
4.607174748e-11
5.38709638e-11
6.302611626e-11
7.286846986e-11
8.240979347e-11
9.034317118e-11
9.512011212e-11
5.289165813e-11
5.861635144e-11
6.712021881e-11
7.807855413e-11
9.091830902e-11
1.046992038e-10
1.180410939e-10
1.291243861e-10
1.357947083e-10
7.734357127e-11
8.538251238e-11
9.730731617e-11
1.126488984e-10
1.30595445e-10
1.498301094e-10
1.684312821e-10
1.838719546e-10
1.931613794e-10
1.1250745e-10
1.23754892e-10
1.404184764e-10
1.618259345e-10
1.868330526e-10
2.136022e-10
2.394653061e-10
2.609210701e-10
2.738261691e-10
1.628476564e-10
1.78531837e-10
2.017433762e-10
2.315254429e-10
2.66272608e-10
3.034287744e-10
3.392988572e-10
3.690420421e-10
3.869292436e-10
2.346089782e-10
2.56413876e-10
2.886528044e-10
3.299720606e-10
3.781281574e-10
4.295760223e-10
4.792101516e-10
5.203510699e-10
5.450912387e-10
3.365003233e-10
3.667309693e-10
4.1138987e-10
4.685718448e-10
5.351530396e-10
6.062298145e-10
6.747629809e-10
7.315530727e-10
7.657042005e-10
4.806320704e-10
5.224386971e-10
5.841525931e-10
6.631047461e-10
7.549595063e-10
8.529504117e-10
9.473913466e-10
1.025633992e-09
1.072688817e-09
6.837977135e-10
7.414792445e-10
8.265713645e-10
9.353501492e-10
1.061815547e-09
1.196651215e-09
1.32655313e-09
1.434159385e-09
1.498880395e-09
9.692210682e-10
1.048635286e-09
1.16571939e-09
1.315296282e-09
1.489084341e-09
1.674282446e-09
1.852648505e-09
2.000387248e-09
2.089258861e-09
1.368930009e-09
1.478046633e-09
1.638839003e-09
1.844132848e-09
2.082524636e-09
2.336458059e-09
2.580960499e-09
2.783468188e-09
2.905305349e-09
1.92696846e-09
2.076612783e-09
2.297023621e-09
2.578287675e-09
2.904736985e-09
3.252336217e-09
3.586952228e-09
3.864087352e-09
4.03085163e-09
2.703721877e-09
2.908570907e-09
3.210165783e-09
3.594844134e-09
4.041122614e-09
4.516151611e-09
4.97334896e-09
5.352000652e-09
5.579889474e-09
3.781708838e-09
4.061619442e-09
4.473566862e-09
4.998766756e-09
5.607818665e-09
6.255901127e-09
6.879542129e-09
7.396031357e-09
7.70692311e-09
5.273282429e-09
5.655051549e-09
6.216702504e-09
6.932466269e-09
7.762182854e-09
8.644799235e-09
9.493972071e-09
1.019721629e-08
1.062057309e-08
7.330786965e-09
7.850467005e-09
8.61474541e-09
9.588346381e-09
1.071651535e-08
1.191623713e-08
1.307026607e-08
1.402591193e-08
1.460126126e-08
1.015982208e-08
1.086573831e-08
1.19035549e-08
1.322508257e-08
1.47558127e-08
1.638308471e-08
1.794801036e-08
1.924376937e-08
2.002390284e-08
1.403636581e-08
1.4993004e-08
1.639893589e-08
1.818847035e-08
2.02604274e-08
2.2462243e-08
2.457909171e-08
2.633153364e-08
2.738657117e-08
1.932858316e-08
2.062153008e-08
2.252102687e-08
2.493772181e-08
2.773452892e-08
3.070535413e-08
3.356052096e-08
3.592357908e-08
3.734604401e-08
2.652417316e-08
2.826629339e-08
3.082466826e-08
3.407805382e-08
3.784119243e-08
4.183646919e-08
4.567450564e-08
4.884991502e-08
5.076094281e-08
3.626405477e-08
3.860306664e-08
4.20364971e-08
4.640026334e-08
5.14447441e-08
5.679722227e-08
6.193623407e-08
6.618604612e-08
6.874279941e-08
4.938302969e-08
5.251059332e-08
5.709927794e-08
6.292769401e-08
6.966063549e-08
7.679963393e-08
8.364934229e-08
8.931052763e-08
9.27148087e-08
6.695775809e-08
7.112010224e-08
7.722358973e-08
8.497054185e-08
9.391258919e-08
1.03386061e-07
1.124683584e-07
1.199693221e-07
1.244772543e-07
9.036192432e-08
9.587191357e-08
1.039464347e-07
1.141868275e-07
1.259960642e-07
1.384950426e-07
1.504665882e-07
1.603451793e-07
1.662777123e-07
1.21327855e-07
1.285782382e-07
1.391956361e-07
1.526486055e-07
1.681462732e-07
1.845309243e-07
2.00206982e-07
2.131293474e-07
2.208831409e-07
1.620131085e-07
1.714905034e-07
1.853580901e-07
2.029111452e-07
2.231081205e-07
2.444342394e-07
2.648126705e-07
2.81591951e-07
2.916500362e-07
2.150697406e-07
2.273687146e-07
2.453491099e-07
2.680819898e-07
2.94204586e-07
3.217490801e-07
3.480329536e-07
3.696465414e-07
3.825877722e-07
2.837131433e-07
2.995495732e-07
3.226793115e-07
3.51886054e-07
3.853995029e-07
4.206829677e-07
4.543000513e-07
4.819039043e-07
4.984111999e-07
3.717866344e-07
3.920093979e-07
4.215150092e-07
4.587225589e-07
5.013501058e-07
5.461544779e-07
5.887716566e-07
6.237115238e-07
6.445788608e-07
4.838176173e-07
5.094176028e-07
5.467275736e-07
5.937090113e-07
6.474446401e-07
7.038237626e-07
7.573564108e-07
8.011750228e-07
8.273091988e-07
6.250605462e-07
6.571758754e-07
7.039270511e-07
7.627077146e-07
8.298203403e-07
9.001047368e-07
9.667196241e-07
1.021154833e-06
1.05357456e-06
8.01521985e-07
8.414384617e-07
8.994751958e-07
9.723300705e-07
1.055363297e-06
1.142155604e-06
1.224261736e-06
1.291239335e-06
1.331070464e-06
1.019962409e-06
1.069108555e-06
1.140477434e-06
1.229925881e-06
1.331683517e-06
1.437840755e-06
1.538073168e-06
1.619692809e-06
1.668159612e-06
1.287879791e-06
1.347820733e-06
1.434756986e-06
1.543539653e-06
1.667061294e-06
1.795669546e-06
1.916864437e-06
2.015378853e-06
2.073791523e-06
1.613469223e-06
1.685888965e-06
1.790792262e-06
1.921843e-06
2.070371478e-06
2.224711355e-06
2.369873161e-06
2.487661295e-06
2.55740006e-06
2.005547414e-06
2.092229269e-06
2.217635139e-06
2.3740449e-06
2.550985228e-06
2.734489257e-06
2.906750805e-06
3.046285805e-06
3.12878224e-06
2.473459192e-06
2.576261773e-06
2.724806981e-06
2.909780903e-06
3.118652243e-06
3.33485578e-06
3.537433052e-06
3.701246378e-06
3.797962635e-06
3.026962507e-06
3.147792264e-06
3.322175589e-06
3.538984947e-06
3.783367496e-06
4.035855123e-06
4.27199841e-06
4.462641476e-06
4.575048266e-06
3.676095876e-06
3.816877332e-06
4.019817341e-06
4.271748305e-06
4.555227227e-06
4.847576749e-06
5.120520136e-06
5.340524963e-06
5.470079128e-06
4.431033104e-06
4.593677972e-06
4.827869512e-06
5.118170748e-06
5.444279342e-06
5.780005545e-06
6.092916615e-06
6.344756968e-06
6.492879443e-06
5.301930606e-06
5.488307028e-06
5.756378089e-06
6.08820919e-06
6.460373415e-06
6.842873617e-06
7.198805154e-06
7.48485948e-06
7.652914403e-06
6.298772881e-06
6.510675894e-06
6.815146428e-06
7.191528994e-06
7.613015238e-06
8.045518447e-06
8.447363673e-06
8.769880986e-06
8.959156563e-06
7.431221493e-06
7.670345722e-06
8.013589745e-06
8.43736267e-06
8.911230373e-06
9.396751519e-06
9.84720413e-06
1.020827375e-05
1.041996536e-05
8.70847243e-06
8.97638781e-06
9.360599881e-06
9.834380066e-06
1.036344042e-05
1.090474081e-05
1.140626071e-05
1.180778652e-05
1.204298242e-05
1.013912603e-05
1.043725714e-05
1.0864424e-05
1.139057336e-05
1.197735494e-05
1.257690966e-05
1.313169499e-05
1.357537456e-05
1.383504438e-05
1.173107276e-05
1.206068214e-05
1.253255997e-05
1.311315925e-05
1.375988105e-05
1.44198537e-05
1.502981943e-05
1.551712824e-05
1.580211433e-05
1.349139721e-05
1.385357286e-05
1.437167037e-05
1.500849992e-05
1.571705187e-05
1.643927669e-05
1.710603975e-05
1.763822044e-05
1.7949232e-05
1.542630175e-05
1.582194867e-05
1.638751599e-05
1.708204342e-05
1.785397429e-05
1.863994538e-05
1.93648161e-05
1.994287245e-05
2.028048242e-05
1.754105025e-05
1.797088609e-05
1.858490906e-05
1.933828338e-05
2.017479551e-05
2.102566284e-05
2.18096422e-05
2.24343376e-05
2.279898195e-05
1.983993183e-05
2.0304486e-05
2.096768567e-05
2.178073736e-05
2.268268779e-05
2.359925916e-05
2.444304137e-05
2.511490124e-05
2.550688051e-05
2.232624346e-05
2.282585969e-05
2.353869615e-05
2.441194261e-05
2.537984967e-05
2.636259808e-05
2.726657779e-05
2.798589551e-05
2.840537825e-05
2.50022902e-05
2.55371318e-05
2.629981211e-05
2.723346756e-05
2.82675223e-05
2.931659785e-05
3.028088121e-05
3.104772697e-05
3.149475483e-05
2.786940115e-05
2.843945876e-05
2.925194795e-05
3.024593719e-05
3.134601873e-05
3.246126423e-05
3.348568326e-05
3.42999153e-05
3.477440943e-05
3.092795918e-05
3.153306031e-05
3.239509515e-05
3.344907028e-05
3.461476426e-05
3.579573384e-05
3.687986324e-05
3.774114098e-05
3.824290948e-05
3.417744218e-05
3.48172623e-05
3.572836694e-05
3.684172641e-05
3.807234584e-05
3.931832571e-05
4.046150162e-05
4.136930019e-05
4.189804628e-05
3.761647376e-05
3.829054842e-05
3.925005151e-05
4.042196075e-05
4.171656846e-05
4.302659924e-05
4.422793922e-05
4.518156489e-05
4.573689569e-05
4.124288128e-05
4.195061887e-05
4.295767152e-05
4.418708463e-05
4.554451673e-05
4.691741666e-05
4.817584042e-05
4.917444665e-05
4.975588215e-05
4.505375915e-05
4.579445402e-05
4.684804829e-05
4.81337301e-05
4.955261989e-05
5.098700844e-05
5.230125893e-05
5.334386251e-05
5.395084472e-05
4.90455357e-05
4.981838134e-05
5.091736866e-05
5.22579169e-05
5.373671876e-05
5.523104012e-05
5.659970441e-05
5.768520164e-05
5.831710368e-05
5.321404192e-05
5.401814394e-05
5.516125334e-05
5.655512037e-05
5.80921332e-05
5.964467932e-05
6.106620916e-05
6.219339157e-05
6.284952653e-05
5.755458067e-05
5.83889694e-05
5.957482513e-05
6.102033907e-05
6.261372893e-05
6.422266186e-05
6.569539346e-05
6.686296305e-05
6.754259262e-05
6.206199514e-05
6.29256377e-05
6.415277617e-05
6.564816101e-05
6.729598285e-05
6.895935598e-05
7.048152896e-05
7.168811276e-05
7.239045541e-05
6.673073558e-05
6.762254733e-05
6.888943305e-05
7.043282777e-05
7.21330459e-05
7.384882412e-05
7.541859933e-05
7.666276316e-05
7.738700192e-05
7.155492348e-05
7.247377873e-05
7.37788193e-05
7.536829568e-05
7.711880293e-05
7.888488139e-05
8.05003577e-05
8.178061902e-05
8.252590876e-05
7.652841261e-05
7.747315451e-05
7.881471448e-05
8.044829367e-05
8.224692917e-05
8.406115074e-05
8.572038044e-05
8.70352203e-05
8.780069449e-05
8.164484633e-05
8.261429602e-05
8.399070965e-05
8.566637732e-05
8.751094278e-05
8.937111406e-05
9.107211717e-05
9.241999116e-05
9.32047681e-05
8.689771103e-05
8.789067594e-05
8.930025877e-05
9.101597897e-05
9.290425354e-05
9.48081594e-05
9.654893662e-05
9.79282849e-05
9.873147339e-05
9.228038534e-05
9.329566667e-05
9.473672602e-05
9.649045361e-05
9.842020729e-05
0.0001003656241
0.0001021441685
0.0001035534248
0.0001043741293
9.778618509e-05
9.882258454e-05
0.0001002934289
0.0001020831207
0.0001040521263
0.0001060368336
0.0001078511411
0.0001092887411
0.0001101260664
0.0001034084041
0.0001044647298
0.0001059636769
0.0001077873019
0.0001097933457
0.0001118151366
0.0001136632155
0.0001151276037
0.000115980659
0.0001091403506
0.0001102154222
0.0001117408069
0.0001135963543
0.0001156372454
0.0001176939362
0.0001195738151
0.0001210634512
0.0001219313539
0.0001149753797
0.0001160680333
0.0001176182131
0.0001195037006
0.0001215772791
0.0001236667168
0.0001255764518
0.0001270898167
0.0001279716954
0.000120906922
0.0001220160137
0.000123589375
0.0001255028548
0.0001276069986
0.000129727068
0.0001316647493
0.0001332003496
0.0001340953469
0.0001269285086
0.0001280529178
0.00012964788
0.0001315874447
0.0001337200758
0.0001358687055
0.000137832462
0.000139388834
0.0001402961092
0.000133033792
0.0001341724245
0.0001357874442
0.0001377512311
0.0001399103205
0.0001420854875
0.0001440734917
0.0001456492053
0.000146567936
0.0001392165647
0.0001403683548
0.0001420019289
0.0001439881241
0.0001461716956
0.0001483714297
0.0001503819014
0.0001519755625
0.0001529049466
0.0001454707744
0.0001466346866
0.0001482853549
0.0001502921962
0.0001524983301
0.0001547207172
0.0001567519261
0.0001583621792
0.0001593014361
0.0001517905361
0.0001529655669
0.0001546319139
0.0001566576935
0.000158884529
0.0001611277133
0.0001631779816
0.0001648035117
0.0001657518835
0.0001581701422
0.0001593553209
0.0001610359776
0.0001630790436
0.0001653247808
0.0001675869671
0.0001696546711
0.000171294205
0.0001722509572
0.0001646040702
0.0001657984598
0.0001674921049
0.0001695508624
0.0001718137637
0.0001740932186
0.0001761767901
0.0001778290974
0.0001787935199
0.0001710869884
0.000172289686
0.0001739950461
0.0001760679587
0.0001783463496
0.0001806414022
0.0001827393294
0.0001844032232
0.00018537463
0.0001776137597
0.0001788238969
0.0001805397471
0.0001826253365
0.000184917606
0.0001872266487
0.0001893374762
0.0001910118135
0.0001919895438
0.0001841794439
0.0001853961865
0.0001871213505
0.0001892181969
0.0001915227976
0.000193844286
0.000195966615
0.0001976502967
0.0001986337144
0.0001907792985
0.0001920018466
0.0001937351963
0.000195841938
0.0001981573857
0.0002004898379
0.0002026223263
0.0002043142971
0.0002053027911
0.0001974087782
0.0001986363658
0.0002003768207
0.0002024921539
0.0002048170269
0.0002071590234
0.0002093003849
0.0002109996327
0.0002119926164
0.0002040635339
0.0002052954284
0.0002070419552
0.0002091646325
0.0002114975709
0.0002138477535
0.0002159967569
0.0002177023128
0.000218699224
0.0002107394098
0.0002119749114
0.0002137265231
0.0002158553529
0.0002181950575
0.0002205521283
0.0002227075965
0.0002244185337
0.0002254188342
0.0002174324407
0.0002186708817
0.0002204266365
0.0002225604819
0.0002249057127
0.0002272684327
0.0002294292421
0.000231144675
0.0002321478504
0.000224138848
0.0002253795921
0.0002271385925
0.0002292763698
0.0002316259448
0.0002339931329
0.0002361582114
0.0002378772949
0.0002388828536
0.0002308550355
0.0002320974769
0.0002338588683
0.0002359995458
0.0002383523395
0.0002407228704
0.0002428911968
0.0002446131253
0.0002456205984
0.0002375775845
0.0002388211471
0.0002405841168
0.000242726713
0.0002450816547
0.000247454458
0.0002496250601
0.0002513490662
0.0002523580067
0.0002443032489
0.0002455473852
0.000247311161
0.0002494547434
0.0002518108155
0.0002541848735
0.0002563568268
0.0002580821805
0.0002590921626
0.0002510289498
0.0002522731403
0.0002540369889
0.0002561806721
0.0002585369084
0.0002609112545
0.0002630836807
0.0002648096879
0.0002658203067
0.0002577517701
0.0002589955219
0.0002607587481
0.0002629016923
0.000265257176
0.0002676308932
0.0002698029584
0.0002715289598
0.0002725398303
0.000264468949
0.000265711795
0.0002674737398
0.0002696151489
0.0002719690113
0.0002743412298
0.0002765121431
0.0002782375131
0.0002792482695
0.0002711778752
0.0002724193733
0.0002741794128
0.0002763185332
0.0002786699513
0.0002810398474
0.0002832088593
0.0002849330045
0.0002859432998
0.0002778760822
0.000279115814
0.0002808733579
0.0002830094765
0.0002853576716
0.0002877244656
0.0002898908665
0.0002916132248
0.0002926227298
0.0002845612419
0.0002857988121
0.0002875533024
0.000289685745
0.0002920299808
0.0002943929353
0.0002965560536
0.0002982760929
0.0002992844956
0.0002912311592
0.0002924661942
0.0002942171039
0.0002963452337
0.0002986848146
0.0003010432326
0.0003032024336
0.0003049196503
0.0003059266553
0.0002978837658
0.0002991159132
0.000300862745
0.0003029859608
0.0003053202301
0.0003076734535
0.0003098281373
0.0003115420556
0.0003125473835
0.0003045171153
0.0003057460427
0.0003074883274
0.0003096060623
0.0003119344005
0.0003142818084
0.0003164314089
0.000318141579
0.0003191449655
0.0003111293771
0.0003123547714
0.0003140920669
0.0003162037866
0.0003185256096
0.0003208666164
0.0003230105994
0.000324716597
0.0003257177923
0.0003177188312
0.0003189403974
0.0003206722875
0.0003227774887
0.0003250922466
0.0003274263005
0.0003295641625
0.0003312655871
0.0003322643554
0.0003242838632
0.0003255013238
0.0003272274166
0.0003293256258
0.0003316328007
0.0003339593822
0.0003360906489
0.000337787123
0.0003387832417
0.0003308229583
0.0003320360524
0.0003337559798
0.0003358467515
0.0003381458563
0.0003404644765
0.0003425887012
0.0003442798691
0.0003452731284
0.0003373346974
0.0003385431798
0.0003402565954
0.000342339511
0.0003446300879
0.0003469402871
0.0003490570495
0.0003507425763
0.0003517327782
0.0003438177512
0.0003450213916
0.0003467279704
0.0003488026367
0.0003510842553
0.0003533856012
0.0003554945062
0.0003571740766
0.0003581610345
0.0003502708757
0.000351469458
0.0003531688948
0.0003552349425
0.0003575071987
0.0003597992854
0.0003618999612
0.0003635732785
0.0003645568167
0.0003566929075
0.0003578862289
0.0003595782373
0.0003616353198
0.0003638978342
0.0003661802801
0.0003682723774
0.0003699391623
0.0003709191151
0.0003630827588
0.0003642706291
0.0003659549402
0.0003680027323
0.0003702551486
0.0003725275951
0.0003746107853
0.0003762707749
0.0003772469862
0.0003694394128
0.0003706216533
0.0003722980149
0.000374336211
0.0003765781943
0.0003788403045
0.0003809142784
0.000382567225
0.0003835395475
0.0003757619184
0.0003769383614
0.0003786065365
0.0003806348493
0.0003828660847
0.0003851175412
0.0003871820074
0.0003888276773
0.0003897959717
0.0003820493853
0.0003832198731
0.0003848796384
0.0003868977975
0.0003891179882
0.0003913584916
0.0003934131747
0.0003950513466
0.0003960154809
0.0003883009784
0.000389465362
0.0003911165071
0.000393124257
0.0003953331221
0.0003975623887
0.0003996070275
0.0004012374912
0.0004021973396
0.0003945159117
0.0003956740502
0.0003973163752
0.0003993134733
0.000401510746
0.0004037285057
0.0004057628506
0.000407385405
0.0004083408468
0.0004006934416
0.0004018452005
0.0004034785148
0.0004054647292
0.0004076501534
0.0004098561467
0.0004118799577
0.0004134944084
0.000414445327
0.0004068328592
0.0004079781091
0.0004096022289
0.0004115773352
0.0004137506633
0.0004159446378
0.0004179576806
0.0004195638375
0.000420510118
0.0004129334812
0.0004140720957
0.0004156868413
0.00041765062
0.0004198116079
0.0004219933147
0.0004239953569
0.0004255930305
0.0004265345585
0.0004189946391
0.000420126493
0.0004217316856
0.0004236839171
0.0004258323204
0.0004280015083
0.0004299923146
0.0004315813121
0.0004325179701
0.0004250156663
0.0004261406325
0.0004277360903
0.0004296765505
0.0004318121181
0.0004339685276
0.0004359478533
0.0004375279731
0.0004384596381
0.0004309958828
0.0004321138292
0.0004336993623
0.0004356278161
0.0004377502828
0.0004398936385
0.0004418612219
0.0004434322471
0.0004443587858
0.000436934576
0.0004380453612
0.0004396207658
0.0004415369592
0.0004436460371
0.0004457760376
0.0004477315908
0.0004492932811
0.0004502145451
0.0004428309782
0.0004439344467
0.0004454994975
0.0004474031484
0.0004494985158
0.0004516148224
0.0004535580196
0.0004551101015
0.000456025921
0.0004486842392
0.0004497802151
0.0004513346564
0.0004532254437
0.000455306732
0.0004574089545
0.0004593394182
0.0004608815734
0.0004617917499
0.0004544933936
0.0004555816735
0.000457125209
0.0004590027584
0.0004610695369
0.000463157217
0.0004650745022
0.0004666063538
0.0004675106514
0.0004602573229
0.0004613376672
0.000462869947
0.0004647338158
0.0004667855732
0.0004688581656
0.0004707617411
0.0004722828382
0.0004731809744
0.0004659747099
0.000467046833
0.0004685674396
0.0004704170985
0.0004724532225
0.000474510073
0.0004763993009
0.0004779091015
0.0004788007363
0.0004716439871
0.0004727075463
0.000474215978
0.0004760507909
0.0004780705451
0.000480110867
0.0004819849805
0.0004834828333
0.0004843675585
0.0004772632785
0.0004783178609
0.0004798135139
0.0004816327154
0.0004836352148
0.0004856580634
0.0004875161428
0.0004890012687
0.0004898785974
0.0004828303333
0.0004838754425
0.0004853575915
0.0004871602631
0.0004891444472
0.0004911486936
0.0004929896434
0.0004944611175
0.0004953304737
0.0004883424545
0.0004893774961
0.0004908452733
0.0004926303188
0.0004945949255
0.0004965792306
0.0004984017569
0.0004998584922
0.0005007192035
0.0004937964218
0.0004948206884
0.0004962730632
0.0004980391839
0.0004999827235
0.0005019455137
0.0005037481046
0.0005051888396
0.0005060401315
0.0004991884116
0.0005002010681
0.0005016368267
0.0005033824981
0.0005053032293
0.000507242676
0.0005090235861
0.000510446877
0.0005112878718
0.0005045139156
0.0005055139853
0.0005069317122
0.0005086551632
0.0005105510737
0.0005124650768
0.0005142223188
0.0005156265378
0.0005164562586
0.0005097676615
0.0005107540144
0.0005121520764
0.000513851273
0.0005157200649
0.0005176062449
0.000519337588
0.00052072093
0.0005215383101
0.0005149435402
0.0005159148835
0.0005172914185
0.0005189640525
0.0005208031357
0.0005226588331
0.0005243618114
0.0005257223099
0.0005265262085
0.0005200345429
0.0005209894155
0.0005223423263
0.000523985812
0.0005257923059
0.0005276145915
0.000529286523
0.0005306220741
0.0005314112988
0.0005250327121
0.0005259694838
0.0005272964399
0.0005289079203
0.000530678666
0.0005324643607
0.0005341023765
0.0005354107733
0.0005361841076
0.0005299291141
0.0005308459903
0.0005321444367
0.0005337207985
0.0005354523834
0.0005371980917
0.0005387991741
0.0005400781475
0.0005408343821
0.0005347138372
0.0005356088696
0.0005368760445
0.0005384139442
0.0005401027361
0.0005418048884
0.0005433659195
0.0005446131834
0.0005453511495
0.0005393760191
0.0005402471235
0.0005414800855
0.0005429759861
0.0005446181779
0.000546273081
0.000547790895
0.0005490041939
0.0005497227935
0.0005439039096
0.0005447488899
0.0005459445545
0.0005473947715
0.0005489864351
0.000550590329
0.0005520617651
0.0005532389167
0.0005539371481
0.0005482849703
0.0005491015503
0.0005502567341
0.0005516574905
0.0005531946368
0.0005547437534
0.0005561657058
0.0005573046347
0.0005579816066
0.0005525060163
0.0005532918761
0.000554403349
0.0005557508369
0.0005572294799
0.0005587201002
0.0005600895594
0.0005611883162
0.0005618432469
0.0005565533987
0.0005573062174
0.0005583707607