/*--------------------------------*- C++ -*----------------------------------*\
| =========                 |                                                 |
| \\      /  F ield         | OpenFOAM: The Open Source CFD Toolbox           |
|  \\    /   O peration     | Version:  2212                                  |
|   \\  /    A nd           | Website:  www.openfoam.com                      |
|    \\/     M anipulation  |                                                 |
\*---------------------------------------------------------------------------*/
FoamFile
{
    version     2.0;
    format      ascii;
    arch        "LSB;label=32;scalar=64";
    class       volScalarField;
    location    "20.00000000";
    object      C3H6_0;
}
// * * * * * * * * * * * * * * * * * * * * * * * * * * * * * * * * * * * * * //

dimensions      [0 0 0 0 0 0 0];

internalField   nonuniform List<scalar> 
3000
(
6.661645529e-24
7.482079554e-24
8.720038434e-24
1.036965145e-23
1.241416192e-23
1.479809968e-23
1.737790315e-23
1.983959246e-23
2.158062917e-23
2.500853201e-23
2.820184928e-23
3.301824361e-23
3.945057113e-23
4.749252771e-23
5.709953529e-23
6.810522045e-23
7.995232042e-23
9.045021588e-23
5.600794746e-23
6.365506712e-23
7.529926512e-23
9.110905215e-23
1.113690217e-22
1.363729552e-22
1.660232305e-22
1.986527238e-22
2.265474128e-22
1.06656799e-22
1.224895147e-22
1.469511816e-22
1.808688618e-22
2.254437115e-22
2.818066069e-22
3.496474615e-22
4.235258499e-22
4.831560387e-22
1.893362783e-22
2.201105968e-22
2.68405164e-22
3.366707648e-22
4.281156253e-22
5.45297069e-22
6.862501654e-22
8.359087334e-22
9.507802085e-22
3.254503814e-22
3.831911948e-22
4.751020795e-22
6.070415327e-22
7.860406964e-22
1.016596319e-21
1.291825018e-21
1.577024617e-21
1.78803413e-21
5.522268884e-22
6.582413142e-22
8.28956434e-22
1.076780511e-21
1.415492628e-21
1.851803138e-21
2.367653498e-21
2.891718717e-21
3.2698354e-21
9.340098041e-22
1.125758875e-21
1.437273753e-21
1.892983829e-21
2.51825479e-21
3.322031843e-21
4.263946668e-21
5.20688571e-21
5.875846111e-21
1.582192097e-21
1.925316843e-21
2.486355139e-21
3.311234478e-21
4.445027274e-21
5.898514067e-21
7.589496224e-21
9.264672432e-21
1.043997463e-20
2.689501989e-21
3.298642011e-21
4.299191671e-21
5.775017988e-21
7.804760771e-21
1.039997801e-20
1.340248401e-20
1.635508703e-20
1.841122164e-20
4.589601902e-21
5.664596127e-21
7.435950683e-21
1.005401475e-20
1.365482129e-20
1.824846478e-20
2.354108342e-20
2.871902642e-20
3.230673312e-20
7.860271549e-21
9.748964091e-21
1.286794864e-20
1.748365742e-20
2.383067151e-20
3.191325764e-20
4.119760264e-20
5.024805432e-20
5.649723708e-20
1.350237241e-20
1.680966729e-20
2.227961785e-20
3.038094e-20
4.151796654e-20
5.568091575e-20
7.191408916e-20
8.769807853e-20
9.857033535e-20
2.325012044e-20
2.902724458e-20
3.859215168e-20
5.276563535e-20
7.224509388e-20
9.6991538e-20
1.253102366e-19
1.527953594e-19
1.716949864e-19
4.010919117e-20
5.018219209e-20
6.687195757e-20
9.161156937e-20
1.256051061e-19
1.687567822e-19
2.180805264e-19
2.658895729e-19
2.987236235e-19
6.928999602e-20
8.682981954e-20
1.159065366e-19
1.590173692e-19
2.182431558e-19
2.933815593e-19
3.791939848e-19
4.622907121e-19
5.193066584e-19
1.198264629e-19
1.503382496e-19
2.009383087e-19
2.759723128e-19
3.790389324e-19
5.097400747e-19
6.589128945e-19
8.03259555e-19
9.022318923e-19
2.073838958e-19
2.604236219e-19
3.484069797e-19
4.788888746e-19
6.580960031e-19
8.85275136e-19
1.144433118e-18
1.395065771e-18
1.56682374e-18
3.591292024e-19
4.512821566e-19
6.041754648e-19
8.309329272e-19
1.142330704e-18
1.536975593e-18
1.986994214e-18
2.422015841e-18
2.720022185e-18
6.221774138e-19
7.822252395e-19
1.047795723e-18
1.44167041e-18
1.982497034e-18
2.667731195e-18
3.448843546e-18
4.20363985e-18
4.720529914e-18
1.078238148e-18
1.356121324e-18
1.817245368e-18
2.501128789e-18
3.440026232e-18
4.629316609e-18
5.984563174e-18
7.293676249e-18
8.189862772e-18
1.869004208e-18
2.351363318e-18
3.151801566e-18
4.338818685e-18
5.968161509e-18
8.031441336e-18
1.038179858e-17
1.265128065e-17
1.420435664e-17
3.240134112e-18
4.077241892e-18
5.466287203e-18
7.525900541e-18
1.035232333e-17
1.393029147e-17
1.800440119e-17
2.19365791e-17
2.46263725e-17
5.617409406e-18
7.069823371e-18
9.479601434e-18
1.305197037e-17
1.795280753e-17
2.415416068e-17
3.121186377e-17
3.802000285e-17
4.2674705e-17
9.738453537e-18
1.225774765e-17
1.643689146e-17
2.263043256e-17
3.11236132e-17
4.186476335e-17
5.408136798e-17
6.585793325e-17
7.390427662e-17
1.688023348e-17
2.124850804e-17
2.849295139e-17
3.922500484e-17
5.393369694e-17
7.252245452e-17
9.364734521e-17
1.13993443e-16
1.278831728e-16
2.925134595e-17
3.682190525e-17
4.937259976e-17
6.795555227e-17
9.340589536e-17
1.255409203e-16
1.620219162e-16
1.971183634e-16
2.210515723e-16
5.066696299e-17
6.377856707e-17
8.550508251e-17
1.176518119e-16
1.616378088e-16
2.171131622e-16
2.800069131e-16
3.404266859e-16
3.815708812e-16
8.770707117e-17
1.103948793e-16
1.479666051e-16
2.035089027e-16
2.794177488e-16
3.750155248e-16
4.832147884e-16
5.86969846e-16
6.574993637e-16
1.51697786e-16
1.909090682e-16
2.557938005e-16
3.516060958e-16
4.823592812e-16
6.467291908e-16
8.323775462e-16
1.01000114e-15
1.13047966e-15
2.620881038e-16
3.297519261e-16
4.416098121e-16
6.065565339e-16
8.312481557e-16
1.113080948e-15
1.430585212e-15
1.733534128e-15
1.938470193e-15
4.521802435e-16
5.687123199e-16
7.611260138e-16
1.044379251e-15
1.429376301e-15
1.910982589e-15
2.451876461e-15
2.966282305e-15
3.313154815e-15
7.788065239e-16
9.790072873e-16
1.309090703e-15
1.794008983e-15
2.451357178e-15
3.271016125e-15
4.188222193e-15
5.057146511e-15
5.64089407e-15
1.338580768e-15
1.681488606e-15
2.245872948e-15
3.072959375e-15
4.190611982e-15
5.57896924e-15
7.12595279e-15
8.584969382e-15
9.560957378e-15
2.295023023e-15
2.880237594e-15
3.841428807e-15
5.245937517e-15
7.136873056e-15
9.475536538e-15
1.20687147e-14
1.450206795e-14
1.612201316e-14
3.92352354e-15
4.917992111e-15
6.547390146e-15
8.920257131e-15
1.210135354e-14
1.601604636e-14
2.033296347e-14
2.436101095e-14
2.702841475e-14
6.685317033e-15
8.366825362e-15
1.111415102e-14
1.50995349e-14
2.041661805e-14
2.692329757e-14
3.405495183e-14
4.066844685e-14
4.50229703e-14
1.134817653e-14
1.417513442e-14
1.877909558e-14
2.54284995e-14
3.425190677e-14
4.498276578e-14
5.666663335e-14
6.743008203e-14
7.447425035e-14
1.918154465e-14
2.390352651e-14
3.156586419e-14
4.257827665e-14
5.71043268e-14
7.465230224e-14
9.362373064e-14
1.109791144e-13
1.222660883e-13
3.226887288e-14
4.009927575e-14
5.275456388e-14
7.084512448e-14
9.455393195e-14
1.229901191e-13
1.535046447e-13
1.812188742e-13
1.991271531e-13
5.400213247e-14
6.688381977e-14
8.761132377e-14
1.170685794e-13
1.554086347e-13
2.010477743e-13
2.496464248e-13
2.934616856e-13
3.215919259e-13
8.985545118e-14
1.108629367e-13
1.445052274e-13
1.920199597e-13
2.534157239e-13
3.259316005e-13
4.025461976e-13
4.711125141e-13
5.148535281e-13
1.485797882e-13
1.825178571e-13
2.365943365e-13
3.124718764e-13
4.097829837e-13
5.238087802e-13
6.433352073e-13
7.495294806e-13
8.168551293e-13
2.440219726e-13
2.983008457e-13
3.843330844e-13
5.042361438e-13
6.568357258e-13
8.342240529e-13
1.018728182e-12
1.181493371e-12
1.284069273e-12
3.978527409e-13
4.837436672e-13
6.191429307e-13
8.065523981e-13
1.04323628e-12
1.316198098e-12
1.597959754e-12
1.844830118e-12
1.999527857e-12
6.435925809e-13
7.779939493e-13
9.886976285e-13
1.278321737e-12
1.641306052e-12
2.056692378e-12
2.482332288e-12
2.852841208e-12
3.083775347e-12
1.032453517e-12
1.240323853e-12
1.564402816e-12
2.006804818e-12
2.557108936e-12
3.182133846e-12
3.818095487e-12
4.368280711e-12
4.709494041e-12
1.641671971e-12
1.95930873e-12
2.451795488e-12
3.119536643e-12
3.944067096e-12
4.873776239e-12
5.813425751e-12
6.621628548e-12
7.12053548e-12
2.586198477e-12
3.065555769e-12
3.804755649e-12
4.80035101e-12
6.020980819e-12
7.387718135e-12
8.760241325e-12
9.934291799e-12
1.065589416e-11
4.034850029e-12
4.749090996e-12
5.844628448e-12
7.310575785e-12
9.095434317e-12
1.108042527e-11
1.306150364e-11
1.47471264e-11
1.577873639e-11
6.232354395e-12
7.282828681e-12
8.885649275e-12
1.101671342e-11
1.359376031e-11
1.644072113e-11
1.926472063e-11
2.165481629e-11
2.311168136e-11
9.529175171e-12
1.105402202e-11
1.336853406e-11
1.642635173e-11
2.009908815e-11
2.412945265e-11
2.810260582e-11
3.144785826e-11
3.347890713e-11
1.442119994e-11
1.660560495e-11
1.990401432e-11
2.423410898e-11
2.939945661e-11
3.502910882e-11
4.054433912e-11
4.516322187e-11
4.795614097e-11
2.160252776e-11
2.469107805e-11
2.933050311e-11
3.538209235e-11
4.255063247e-11
5.030963127e-11
5.786161653e-11
6.415026194e-11
6.793606903e-11
3.203605467e-11
3.634757071e-11
4.279030773e-11
5.114029342e-11
6.096272139e-11
7.151892896e-11
8.172346157e-11
9.016893607e-11
9.522854707e-11
4.70454328e-11
5.299134342e-11
6.183213586e-11
7.321889735e-11
8.65214854e-11
1.007164532e-10
1.143440072e-10
1.255523716e-10
1.322341136e-10
6.843723666e-11
7.654867026e-11
8.85526888e-11
1.039230222e-10
1.217632939e-10
1.406751133e-10
1.587183417e-10
1.734797359e-10
1.822452216e-10
9.866579241e-11
1.096294756e-10
1.257866505e-10
1.463687414e-10
1.701278708e-10
1.951834281e-10
2.189852024e-10
2.384007867e-10
2.499136289e-10
1.410468175e-10
1.557591085e-10
1.773681328e-10
2.047884636e-10
2.363242576e-10
2.694876218e-10
3.00950847e-10
3.266273397e-10
3.418774943e-10
2.000491509e-10
2.197010539e-10
2.48503656e-10
2.849755251e-10
3.268668647e-10
3.709270396e-10
4.12807924e-10
4.470969111e-10
4.675331313e-10
2.817196992e-10
3.079342986e-10
3.463308376e-10
3.949504454e-10
4.508618671e-10
5.098271878e-10
5.660940773e-10
6.123531862e-10
6.400188545e-10
3.943450416e-10
4.29394654e-10
4.80774585e-10
5.459511984e-10
6.211239195e-10
7.007069755e-10
7.769520203e-10
8.398486134e-10
8.775556838e-10
5.494964219e-10
5.966167544e-10
6.658150781e-10
7.538286452e-10
8.55674538e-10
9.638573499e-10
1.06779669e-09
1.153715544e-09
1.205295245e-09
7.635803254e-10
8.27370668e-10
9.212257895e-10
1.04088214e-09
1.17967842e-09
1.327412461e-09
1.469560688e-09
1.587177459e-09
1.657832492e-09
1.059911153e-09
1.146796091e-09
1.274792607e-09
1.43820054e-09
1.627970676e-09
1.830127207e-09
2.024735346e-09
2.185805992e-09
2.282588772e-09
1.471280478e-09
1.5900585e-09
1.765124938e-09
1.988717974e-09
2.248441324e-09
2.525126575e-09
2.791462146e-09
3.011885943e-09
3.14433799e-09
2.043185802e-09
2.205760356e-09
2.445359991e-09
2.75131208e-09
3.106589137e-09
3.484926726e-09
3.848987885e-09
4.150222319e-09
4.331223136e-09
2.838110094e-09
3.060504228e-09
3.38814004e-09
3.806294146e-09
4.291583534e-09
4.808085957e-09
5.304870981e-09
5.71580108e-09
5.962688082e-09
3.941268981e-09
4.244997351e-09
4.69222834e-09
5.262657005e-09
5.92422667e-09
6.627912979e-09
7.304398936e-09
7.863787674e-09
8.199822368e-09
5.468190535e-09
5.882063229e-09
6.491145044e-09
7.267492651e-09
8.16726388e-09
9.123715619e-09
1.004272915e-08
1.080239786e-08
1.125866593e-08
7.574500409e-09
8.136950989e-09
8.964239228e-09
1.001802472e-08
1.12385158e-08
1.253508744e-08
1.378027113e-08
1.480917387e-08
1.542701468e-08
1.046830091e-08
1.123034273e-08
1.235061124e-08
1.37766816e-08
1.542726546e-08
1.717966981e-08
1.886174826e-08
2.025110199e-08
2.108515994e-08
1.44254949e-08
1.545440506e-08
1.696622038e-08
1.888952676e-08
2.111419091e-08
2.347464714e-08
2.573916029e-08
2.76087583e-08
2.873072612e-08
1.980827311e-08
2.119207448e-08
2.322432225e-08
2.58081276e-08
2.879484488e-08
3.196188415e-08
3.49984593e-08
3.75042111e-08
3.900728134e-08
2.708673163e-08
2.893948231e-08
3.165904707e-08
3.51145472e-08
3.910620951e-08
4.333605729e-08
4.738911316e-08
5.073169988e-08
5.273564627e-08
3.686319367e-08
3.933099049e-08
4.2951435e-08
4.754856874e-08
5.285518697e-08
5.8474365e-08
6.385486581e-08
6.828916673e-08
7.094583483e-08
4.989827336e-08
5.316572933e-08
5.795659857e-08
6.4035535e-08
7.104706572e-08
7.846548356e-08
8.556299594e-08
9.140763682e-08
9.490644104e-08
6.713707369e-08
7.143384511e-08
7.772994813e-08
8.571238942e-08
9.491114268e-08
1.046345167e-07
1.13928409e-07
1.215744459e-07
1.261472728e-07
8.973323724e-08
9.533997835e-08
1.035497146e-07
1.139487963e-07
1.259199777e-07
1.385600049e-07
1.506282532e-07
1.605457129e-07
1.664704657e-07
1.19068001e-07
1.26320954e-07
1.369325133e-07
1.503598053e-07
1.657984558e-07
1.82078903e-07
1.976027515e-07
2.103436029e-07
2.179455533e-07
1.567611155e-07
1.660544542e-07
1.79638613e-07
1.968066295e-07
2.165191737e-07
2.3727605e-07
2.570388438e-07
2.732350826e-07
2.828852851e-07
2.046706389e-07
2.164557296e-07
2.336640663e-07
2.553828755e-07
2.802817739e-07
3.064561406e-07
3.31335095e-07
3.516910436e-07
3.638013502e-07
2.648793166e-07
2.796602734e-07
3.012179751e-07
3.283850051e-07
3.594756656e-07
3.920984172e-07
4.230488968e-07
4.483274845e-07
4.633418603e-07
3.396664924e-07
3.579917792e-07
3.846847904e-07
4.182677059e-07
4.566277716e-07
4.967968119e-07
5.348298122e-07
5.658336045e-07
5.842171511e-07
4.314661082e-07
4.539164154e-07
4.865733859e-07
5.275868124e-07
5.743389864e-07
6.231903095e-07
6.693448262e-07
7.068941532e-07
7.291201644e-07
5.428130483e-07
5.699861503e-07
6.094563147e-07
6.58933974e-07
7.152143373e-07
7.73889216e-07
8.292025774e-07
8.74112345e-07
9.006508895e-07
6.762815341e-07
7.087751988e-07
7.559037926e-07
8.148680694e-07
8.817921413e-07
9.514033527e-07
1.016880214e-06
1.06993659e-06
1.10123788e-06
8.344201598e-07
8.72814314e-07
9.284170908e-07
9.978484902e-07
1.07647809e-06
1.158076124e-06
1.234657905e-06
1.296587339e-06
1.33305823e-06
1.019688074e-06
1.064527881e-06
1.129367601e-06
1.210175912e-06
1.301487715e-06
1.396029817e-06
1.484558432e-06
1.555995921e-06
1.597992623e-06
1.234398269e-06
1.286178634e-06
1.36094332e-06
1.453941913e-06
1.558800102e-06
1.667111926e-06
1.768296616e-06
1.849775203e-06
1.897594035e-06
1.480668371e-06
1.539820771e-06
1.625106037e-06
1.730989022e-06
1.850105158e-06
1.972853299e-06
2.087261477e-06
2.179200584e-06
2.233071837e-06
1.760381385e-06
1.827261374e-06
1.923544463e-06
2.042849924e-06
2.176770428e-06
2.314457167e-06
2.442504725e-06
2.545203644e-06
2.605288379e-06
2.075126229e-06
2.149993317e-06
2.257619917e-06
2.39073283e-06
2.539835296e-06
2.692792394e-06
2.834739679e-06
2.948375545e-06
3.014764914e-06
2.426155357e-06
2.509178756e-06
2.628366461e-06
2.775515838e-06
2.940006897e-06
3.108395017e-06
3.264347775e-06
3.388977306e-06
3.46169396e-06
2.814388409e-06
2.905646638e-06
3.036484967e-06
3.197745113e-06
3.37766314e-06
3.561475998e-06
3.731390416e-06
3.866954689e-06
3.945955838e-06
3.240407342e-06
3.339890128e-06
3.482343819e-06
3.657639372e-06
3.852861222e-06
4.051933578e-06
4.235624555e-06
4.381956143e-06
4.46713786e-06
3.704458047e-06
3.812070236e-06
3.965985325e-06
4.155099463e-06
4.365350445e-06
4.579369082e-06
4.776520971e-06
4.933352812e-06
5.024555252e-06
4.206457746e-06
4.32202488e-06
4.487137008e-06
4.689722159e-06
4.914588519e-06
5.143105455e-06
5.353284585e-06
5.520260078e-06
5.617273327e-06
4.746007489e-06
4.869282667e-06
5.045227101e-06
5.260817541e-06
5.499760759e-06
5.742208036e-06
5.964876437e-06
6.141560338e-06
6.244130644e-06
5.32240911e-06
5.453080801e-06
5.639403681e-06
5.867429438e-06
6.119801749e-06
6.375507211e-06
6.610037047e-06
6.795926777e-06
6.903762983e-06
5.934686032e-06
6.072386511e-06
6.268556887e-06
6.508358457e-06
6.773419052e-06
7.04162261e-06
7.28731088e-06
7.481847954e-06
7.594627951e-06
6.5816073e-06
6.725921429e-06
6.931343696e-06
7.182187091e-06
7.459118532e-06
7.738988473e-06
7.99507162e-06
8.197652905e-06
8.315029972e-06
7.261714166e-06
7.412188263e-06
7.626214638e-06
7.887306389e-06
8.175230823e-06
8.465879781e-06
8.731547879e-06
8.94153647e-06
9.06314537e-06
7.973348553e-06
8.129499114e-06
8.351441864e-06
8.621943612e-06
8.919938424e-06
9.220438687e-06
9.494848952e-06
9.711584468e-06
9.837047204e-06
8.714682659e-06
8.876004755e-06
9.105147901e-06
9.384190288e-06
9.691302917e-06
1.000070081e-05
1.02829902e-05
1.050579835e-05
1.063472951e-05
9.483749001e-06
9.649724184e-06
9.885334477e-06
1.017203011e-05
1.048729178e-05
1.08046209e-05
1.10939177e-05
1.1322119e-05
1.14541306e-05
1.027847023e-05
1.044857382e-05
1.068991083e-05
1.098336613e-05
1.130580432e-05
1.163009755e-05
1.192553169e-05
1.215844929e-05
1.229315513e-05
1.109668811e-05
1.127039579e-05
1.151672098e-05
1.181604678e-05
1.214469638e-05
1.247499644e-05
1.277570871e-05
1.301267524e-05
1.314969473e-05
1.19361911e-05
1.211298473e-05
1.236356948e-05
1.266789038e-05
1.300180336e-05
1.333717204e-05
1.364232197e-05
1.388268544e-05
1.402164685e-05
1.279474021e-05
1.29741129e-05
1.322824538e-05
1.353670771e-05
1.387496142e-05
1.421448741e-05
1.452325992e-05
1.47663887e-05
1.490693192e-05
1.367009267e-05
1.385155302e-05
1.410854406e-05
1.442032259e-05
1.476202665e-05
1.510483197e-05
1.541644286e-05
1.566172973e-05
1.580350856e-05
1.456002336e-05
1.4743099e-05
1.500228679e-05
1.531659017e-05
1.566089205e-05
1.600613724e-05
1.631983757e-05
1.656670293e-05
1.670938681e-05
1.546234374e-05
1.564658408e-05
1.590733798e-05
1.622341303e-05
1.656950236e-05
1.691639045e-05
1.723146987e-05
1.74793642e-05
1.762263964e-05
1.637491829e-05
1.655989668e-05
1.682162002e-05
1.713875492e-05
1.74858667e-05
1.783364614e-05
1.814943527e-05
1.83978409e-05
1.85414124e-05
1.729567852e-05
1.748099373e-05
1.774312585e-05
1.806065235e-05
1.840806916e-05
1.875603573e-05
1.907190774e-05
1.932033995e-05
1.946393063e-05
1.822263452e-05
1.840791175e-05
1.866992927e-05
1.898722407e-05
1.93342773e-05
1.968177522e-05
1.999714665e-05
2.024515425e-05
2.038850624e-05
1.915388437e-05
1.933877573e-05
1.960019315e-05
1.991667849e-05
2.026274885e-05
2.060917112e-05
2.092350212e-05
2.117066758e-05
2.1313542e-05
2.00876213e-05
2.027180593e-05
2.053217567e-05
2.084731931e-05
2.119183671e-05
2.153662481e-05
2.184941876e-05
2.20953579e-05
2.223753477e-05
2.102213904e-05
2.120532281e-05
2.146423485e-05
2.177754948e-05
2.211999224e-05
2.246263536e-05
2.277343814e-05
2.301779952e-05
2.315907739e-05
2.195583535e-05
2.213775037e-05
2.239483141e-05
2.270587362e-05
2.304576734e-05
2.338580111e-05
2.369419991e-05
2.393666395e-05
2.407685941e-05
2.288721403e-05
2.306761786e-05
2.332253021e-05
2.36308991e-05
2.396781507e-05
2.430482002e-05
2.461044193e-05
2.485071978e-05
2.498966686e-05
2.381488556e-05
2.399356023e-05
2.424600047e-05
2.455133599e-05
2.488488939e-05
2.521848906e-05
2.552099943e-05
2.57588317e-05
2.589638116e-05
2.473756651e-05
2.49143175e-05
2.516401489e-05
2.546599597e-05
2.579584377e-05
2.612570273e-05
2.642480332e-05
2.66599587e-05
2.679597723e-05
2.565407808e-05
2.582873304e-05
2.607544788e-05
2.637379039e-05
2.669962919e-05
2.702545081e-05
2.732087785e-05
2.755315162e-05
2.768752105e-05
2.656334361e-05
2.673575117e-05
2.697927299e-05
2.727372762e-05
2.759529133e-05
2.791681555e-05
2.820833776e-05
2.843755022e-05
2.857016664e-05
2.746438558e-05
2.7634414e-05
2.787455978e-05
2.816490984e-05
2.848196733e-05
2.879896834e-05
2.908638486e-05
2.931237983e-05
2.94431527e-05
2.835632192e-05
2.852385782e-05
2.87604701e-05
2.904652935e-05
2.935888212e-05
2.967116605e-05
2.995430439e-05
3.017694758e-05
3.03057989e-05
2.923836199e-05
2.940330902e-05
2.963625412e-05
2.991786456e-05
3.022534437e-05
3.053274698e-05
3.081146102e-05
3.103063852e-05
3.115750192e-05
3.010980221e-05
3.027207976e-05
3.050124595e-05
3.077827571e-05
3.108074227e-05
3.138312674e-05
3.165729472e-05
3.187291146e-05
3.199773135e-05
3.097002144e-05
3.112956339e-05
3.135485915e-05
3.162720037e-05
3.192453915e-05
3.222179389e-05
3.249131647e-05
3.270329477e-05
3.282602554e-05
3.181847629e-05
3.19752298e-05
3.219658214e-05
3.2464149e-05
3.275626904e-05
3.304830557e-05
3.331310403e-05
3.352138213e-05
3.36419873e-05
3.265469632e-05
3.280862067e-05
3.302597349e-05
3.328870026e-05
3.357553216e-05
3.386228312e-05
3.412229751e-05
3.432682827e-05
3.444527976e-05
3.347827926e-05
3.362934476e-05
3.384265733e-05
3.410049654e-05
3.438199047e-05
3.466340772e-05
3.491859524e-05
3.511934479e-05
3.523562217e-05
3.428888628e-05
3.44370732e-05
3.46463187e-05
3.489923945e-05
3.517536332e-05
3.54514161e-05
3.570174946e-05
3.589869602e-05
3.601278581e-05
3.508623736e-05
3.523153498e-05
3.543669912e-05
3.568468543e-05
3.595542313e-05
3.622609641e-05
3.647156235e-05
3.666469503e-05
3.677659006e-05
3.587010679e-05
3.601251245e-05
3.621359222e-05
3.645664148e-05
3.672199131e-05
3.698728416e-05
3.722788202e-05
3.741719977e-05
3.752689854e-05
3.664031881e-05
3.677983707e-05
3.697683953e-05
3.721496113e-05
3.747493421e-05
3.773485835e-05
3.797059877e-05
3.815610933e-05
3.826361546e-05
3.739674344e-05
3.753338529e-05
3.772632645e-05
3.795954045e-05
3.821415935e-05
3.846873776e-05
3.869964145e-05
3.888136045e-05
3.89866821e-05
3.813929253e-05
3.827307463e-05
3.846197845e-05
3.869031434e-05
3.893961179e-05
3.918887741e-05
3.941497402e-05
3.959292407e-05
3.969607349e-05
3.886791594e-05
3.899885998e-05
3.918375739e-05
3.9407253e-05
3.965127066e-05
3.989526525e-05
4.011659233e-05
4.029080221e-05
4.039179524e-05
3.958259799e-05
3.971073006e-05
3.989165811e-05
4.011035857e-05
4.034914592e-05
4.058791896e-05
4.080452097e-05
4.097502491e-05
4.107388057e-05
4.028335415e-05
4.040870411e-05
4.058570521e-05
4.079966196e-05
4.103327534e-05
4.126688302e-05
4.147881049e-05
4.164564746e-05
4.174238754e-05
4.09702278e-05
4.109282885e-05
4.126594999e-05
4.147521998e-05
4.17037216e-05
4.193222594e-05
4.21395346e-05
4.230274769e-05
4.23973964e-05
4.164328737e-05
4.176317553e-05
4.193246763e-05
4.213711251e-05
4.236056963e-05
4.258403765e-05
4.278678774e-05
4.294642359e-05
4.303900723e-05
4.23026236e-05
4.241983726e-05
4.258535461e-05
4.278544e-05
4.300392418e-05
4.32224271e-05
4.34206827e-05
4.357679096e-05
4.366733761e-05
4.294834697e-05
4.306292654e-05
4.322472621e-05
4.342032106e-05
4.363390744e-05
4.384752007e-05
4.404134843e-05
4.41939813e-05
4.428252055e-05
4.358058535e-05
4.36925729e-05
4.385071427e-05
4.404189031e-05
4.425065699e-05
4.445945705e-05
4.464892811e-05
4.47981399e-05
4.488470259e-05
4.419948192e-05
4.430892084e-05
4.446346516e-05
4.465029631e-05
4.485432379e-05
4.50583914e-05
4.524357723e-05
4.538942397e-05
4.547404199e-05
4.480519305e-05
4.491212781e-05
4.50631378e-05
4.524569974e-05
4.544507043e-05
4.564448755e-05
4.582546194e-05
4.596800104e-05
4.605070709e-05
4.539788661e-05
4.550236245e-05
4.564990194e-05
4.582827171e-05
4.602306942e-05
4.621791945e-05
4.639475749e-05
4.65340474e-05
4.661487483e-05
4.597774018e-05
4.607980294e-05
4.622393657e-05
4.639819212e-05
4.658850171e-05
4.677886908e-05
4.695164681e-05
4.708774675e-05
4.71667294e-05
4.654493966e-05
4.664463553e-05
4.678542845e-05
4.695564835e-05
4.714155532e-05
4.732752513e-05
4.749631918e-05
4.762928891e-05
4.770646093e-05
4.709967779e-05
4.719705316e-05
4.733457078e-05
4.750083392e-05
4.768242412e-05
4.786408178e-05
4.802896914e-05
4.815886867e-05
4.823426442e-05
4.764215294e-05
4.773725424e-05
4.787156201e-05
4.803394733e-05
4.821130664e-05
4.838873764e-05
4.854979534e-05
4.86766848e-05
4.875033871e-05
4.817256795e-05
4.82654415e-05
4.839660471e-05
4.855519096e-05
4.872840507e-05
4.89016947e-05
4.905899965e-05
4.918293905e-05
4.925488555e-05
4.869112909e-05
4.878182098e-05
4.890990462e-05
4.906477015e-05
4.923392434e-05
4.940315749e-05
4.955678623e-05
4.967783536e-05
4.974810874e-05
4.919804518e-05
4.928660117e-05
4.941166975e-05
4.956289235e-05
4.972807128e-05
4.989333224e-05
5.004336079e-05
5.016157905e-05
5.02302134e-05
4.969352673e-05
4.977999214e-05
4.990210958e-05
5.004976632e-05
5.021105387e-05
5.037242614e-05
5.051892985e-05
5.063437614e-05
5.07014053e-05
5.01777852e-05
5.026220488e-05
5.038143436e-05
5.052560145e-05
5.068308057e-05
5.084064677e-05
5.098370019e-05
5.109643277e-05
5.116189025e-05
5.065103237e-05
5.073345056e-05
5.084985448e-05
5.099060717e-05
5.114435974e-05
5.129820144e-05
5.143787818e-05
5.154795466e-05
5.161187357e-05
5.11134797e-05
5.119394002e-05
5.130757988e-05
5.144499233e-05
5.15950991e-05
5.174529672e-05
5.188166939e-05
5.198914658e-05
5.205155961e-05
5.156533785e-05
5.164388325e-05
5.175481958e-05
5.188896481e-05
5.203550527e-05
5.218213798e-05
5.231527809e-05
5.242021195e-05
5.248115131e-05
5.200681619e-05
5.208348889e-05
5.219178121e-05
5.232273101e-05
5.246578331e-05
5.2608929e-05
5.273890688e-05
5.284135247e-05
5.290084988e-05
5.243812241e-05
5.251296386e-05
5.261867064e-05
5.27464955e-05
5.288613641e-05
5.302587157e-05
5.315275632e-05
5.325276776e-05
5.33108544e-05
5.285946215e-05
5.293251302e-05
5.303569159e-05
5.316046069e-05
5.329676552e-05
5.343316522e-05
5.355702465e-05
5.365465507e-05
5.371136156e-05
5.327103865e-05
5.334233881e-05
5.344304537e-05
5.356482651e-05
5.369786909e-05
5.383100691e-05
5.395190752e-05
5.404720901e-05
5.410256539e-05
5.367305251e-05
5.374264099e-05
5.384093058e-05
5.395979014e-05
5.408964277e-05
5.421959077e-05
5.433759768e-05
5.443062129e-05
5.448465699e-05
5.406570143e-05
5.41336164e-05
5.422954285e-05
5.434554578e-05
5.447227919e-05
5.459910788e-05
5.471428483e-05
5.480508052e-05
5.485782436e-05
5.444917992e-05
5.451545871e-05
5.460907464e-05
5.472228442e-05
5.484596775e-05
5.496974605e-05
5.508215534e-05
5.517077193e-05
5.522225211e-05
5.482367914e-05
5.48883582e-05
5.4979715e-05
5.50901936e-05
5.521089435e-05
5.533168956e-05
5.544139203e-05
5.552787724e-05
5.557812127e-05
5.518938668e-05
5.525250154e-05
5.534164932e-05
5.544945722e-05
5.556724122e-05
5.568511898e-05
5.579217396e-05
5.587657431e-05
5.592560906e-05
5.554648629e-05
5.560807159e-05
5.569505918e-05
5.580025526e-05
5.591518666e-05
5.603021089e-05
5.613467617e-05
5.621703697e-05
5.626488859e-05
5.589515768e-05
5.59552471e-05
5.604012201e-05
5.614276355e-05
5.625490471e-05
5.636713759e-05
5.646906935e-05
5.654943464e-05
5.659612856e-05
5.62355762e-05
5.629420248e-05
5.637701081e-05
5.647715344e-05
5.65865649e-05
5.669606673e-05
5.679551946e-05
5.687393197e-05
5.691949284e-05
5.656791253e-05
5.662510737e-05
5.670589382e-05
5.680359138e-05
5.691033174e-05
5.701716088e-05
5.71141873e-05
5.71906883e-05
5.723513996e-05
5.689233224e-05
5.694812627e-05
5.702693398e-05
5.712223846e-05
5.722636424e-05
5.733057695e-05
5.742522782e-05
5.749985708e-05
5.754322244e-05
5.720899521e-05
5.72634179e-05
5.734028836e-05
5.743324971e-05
5.753481519e-05
5.763646543e-05
5.772878939e-05
5.780158496e-05
5.784388595e-05
5.751805494e-05
5.757113448e-05
5.764610736e-05
5.773677329e-05
5.783583023e-05
5.793496939e-05
5.802501273e-05
5.809601073e-05
5.813726815e-05
5.78196576e-05
5.787142076e-05
5.794453367e-05
5.803294936e-05
5.812954669e-05
5.822622327e-05
5.831402952e-05
5.838326391e-05
5.842349723e-05
5.811394081e-05
5.816441273e-05
5.823570095e-05
5.832190867e-05
5.841609207e-05
5.851035117e-05
5.859596073e-05
5.866346286e-05
5.870269006e-05
5.84010321e-05
5.845023602e-05
5.851973209e-05
5.860377071e-05
5.869558202e-05
5.878746479e-05
5.88709143e-05
5.89367125e-05
5.897494973e-05
5.868104688e-05
5.87290038e-05
5.879673703e-05
5.887864142e-05
5.896811792e-05
5.905766077e-05
5.91389824e-05
5.920310135e-05
5.924036255e-05
5.895408596e-05
5.900081421e-05
5.906681004e-05
5.914661022e-05
5.923378372e-05
5.932101734e-05
5.94002379e-05
5.946269784e-05
5.949899433e-05
5.922023243e-05
5.926574712e-05
5.933002633e-05
5.940774649e-05
5.949264218e-05
5.957759037e-05
5.965473008e-05
5.97155459e-05
5.975088576e-05
5.947954787e-05
5.952386021e-05
5.958643792e-05
5.966209519e-05
5.974473022e-05
5.982740838e-05
5.990247953e-05
5.996165959e-05
5.999604698e-05
5.97320678e-05
5.977518426e-05
5.983606875e-05
5.99096717e-05
5.999005351e-05
6.007046687e-05
6.014347212e-05
6.020101688e-05
6.023445124e-05
5.99777963e-05
6.001971769e-05
6.0078909e-05
6.015045587e-05
6.022858013e-05
6.03067217e-05
6.037765209e-05
6.043355252e-05
6.046602756e-05
6.021669996e-05
6.025742022e-05
6.031490848e-05
6.038438514e-05
6.046023352e-05
6.053608165e-05
6.06049144e-05
6.06591501e-05
6.069065275e-05
6.044870094e-05
6.048820591e-05
6.054396949e-05
6.061134716e-05
6.06848847e-05
6.075840042e-05
6.082509638e-05
6.087763361e-05
6.090814282e-05
6.067366956e-05
6.071193554e-05
6.076593906e-05
6.083117179e-05
6.090234407e-05
6.097346827e-05
6.103796927e-05
6.108875879e-05
6.111824421e-05
6.089141659e-05
6.092840886e-05
6.098060101e-05
6.104362304e-05
6.111235334e-05
6.118100372e-05
6.124322985e-05
6.129220471e-05
6.132062548e-05
6.110168555e-05
6.113735685e-05
6.118766827e-05
6.124839144e-05
6.131457783e-05
6.138064608e-05
6.144049303e-05
6.148756653e-05
6.151487007e-05
6.130414566e-05
6.133843477e-05
6.138677605e-05
6.144508743e-05
6.150860014e-05
6.157194936e-05
6.162928618e-05
6.16743501e-05
6.170047109e-05
6.149838609e-05
6.153121666e-05
6.15774767e-05
6.163323659e-05
6.169391607e-05
6.175437883e-05
6.180904626e-05
6.185196967e-05
6.187682942e-05
6.168391241e-05
6.171519213e-05
6.175923705e-05
6.18122779e-05
6.186993362e-05
6.192731108e-05
6.197912093e-05
6.201974986e-05
6.20432562e-05
6.186014613e-05
6.188976658e-05
6.193143959e-05
6.19815659e-05
6.203597668e-05
6.209003912e-05
6.213877508e-05
6.217693335e-05
6.219898126e-05
6.20264286e-05
6.205426585e-05
6.209338831e-05
6.214037826e-05
6.219129428e-05
6.224178358e-05
6.228720386e-05
6.232269552e-05
6.234316871e-05
6.218203024e-05
6.220794657e-05
6.224432062e-05
6.22879296e-05
6.233507679e-05
6.238171136e-05
6.242355368e-05
6.245616737e-05
6.247494096e-05
6.232616634e-05
6.235001325e-05
6.238342632e-05
6.242339285e-05
6.246647997e-05
6.250896253e-05
6.254695183e-05
6.257646728e-05
6.259341191e-05
6.245802008e-05
6.247964279e-05
6.250987432e-05
6.254592865e-05
6.258465741e-05
6.262268588e-05
6.265654501e-05
6.268274204e-05
6.269772927e-05
6.257677344e-05
6.2596017e-05
6.262284737e-05
6.265472299e-05
6.268880133e-05
6.2722083e-05
6.275154632e-05
6.277421616e-05
6.278712541e-05
6.268164561e-05
6.269836261e-05
6.272158447e-05
6.274903225e-05
6.277819067e-05
6.280645937e-05
6.283128912e-05
6.285024791e-05
6.286097448e-05
6.277193829e-05
6.278599796e-05
6.28054294e-05
6.282823421e-05
6.285224452e-05
6.287528019e-05
6.289528498e-05
6.291038875e-05
6.291885278e-05
6.284708575e-05
6.285838415e-05
6.287388332e-05
6.289188209e-05