/*--------------------------------*- C++ -*----------------------------------*\
| =========                 |                                                 |
| \\      /  F ield         | OpenFOAM: The Open Source CFD Toolbox           |
|  \\    /   O peration     | Version:  2212                                  |
|   \\  /    A nd           | Website:  www.openfoam.com                      |
|    \\/     M anipulation  |                                                 |
\*---------------------------------------------------------------------------*/
FoamFile
{
    version     2.0;
    format      ascii;
    arch        "LSB;label=32;scalar=64";
    class       volScalarField;
    location    "20.00000000";
    object      C4H6;
}
// * * * * * * * * * * * * * * * * * * * * * * * * * * * * * * * * * * * * * //

dimensions      [0 0 0 0 0 0 0];

internalField   nonuniform List<scalar> 
3000
(
2.022258913e-25
2.271584606e-25
2.647806938e-25
3.149152278e-25
3.770534622e-25
4.495095225e-25
5.279195016e-25
6.027396507e-25
6.5565637e-25
7.592676904e-25
8.563259893e-25
1.002722294e-24
1.198244296e-24
1.442703271e-24
1.734743296e-24
2.069301255e-24
2.429427026e-24
2.748521902e-24
1.700782976e-24
1.933269252e-24
2.287290864e-24
2.767985966e-24
3.384018965e-24
4.144326624e-24
5.045935347e-24
6.038137284e-24
6.886351241e-24
3.239805959e-24
3.721312093e-24
4.465287548e-24
5.496929895e-24
6.852815995e-24
8.567379618e-24
1.063121075e-23
1.287880987e-23
1.469300101e-23
5.753510415e-24
6.689817485e-24
8.159289114e-24
1.023661359e-23
1.301954846e-23
1.658605139e-23
2.087643311e-23
2.54321665e-23
2.892920599e-23
9.894363408e-24
1.165200222e-23
1.445004379e-23
1.846712745e-23
2.391766695e-23
3.093893894e-23
3.932159452e-23
4.800875853e-23
5.443657234e-23
1.679798061e-23
2.002690431e-23
2.52270114e-23
3.277691728e-23
4.309718486e-23
5.639309577e-23
7.211499685e-23
8.808920426e-23
9.961584992e-23
2.842860691e-23
3.427242201e-23
4.376743672e-23
5.76596297e-23
7.672393445e-23
1.012348285e-22
1.299626442e-22
1.587257133e-22
1.791337721e-22
4.818936157e-23
5.865354135e-23
7.576568786e-23
1.009293616e-22
1.355228756e-22
1.798786116e-22
2.314907222e-22
2.826282026e-22
3.185106674e-22
8.197280946e-23
1.005626473e-22
1.31102023e-22
1.761560353e-22
2.381318181e-22
3.173888472e-22
4.091009652e-22
4.993033822e-22
5.621267852e-22
1.399885823e-22
1.728194059e-22
2.269256658e-22
3.069096429e-22
4.169392363e-22
5.573350383e-22
7.191243433e-22
8.774348202e-22
9.871402583e-22
2.399301026e-22
2.976549952e-22
3.929969497e-22
5.341183933e-22
7.282133561e-22
9.754343161e-22
1.259468901e-21
1.53639601e-21
1.727635996e-21
4.124714969e-22
5.136312686e-22
6.809672207e-22
9.288508664e-22
1.26969342e-21
1.703234877e-21
2.200247338e-21
2.683592501e-21
3.016575127e-21
7.108053981e-22
8.876471451e-22
1.180484367e-21
1.614504609e-21
2.211133954e-21
2.969247995e-21
3.836975415e-21
4.679311736e-21
5.258611153e-21
1.227197782e-21
1.535782185e-21
2.047156443e-21
2.805333518e-21
3.847338424e-21
5.170358007e-21
6.682922599e-21
8.149302741e-21
9.156520893e-21
2.121723703e-21
2.659479609e-21
3.55109935e-21
4.873340862e-21
6.690244078e-21
8.995817532e-21
1.162946229e-20
1.418022539e-20
1.593065903e-20
3.672150694e-21
4.608363679e-21
6.161226011e-21
8.464421434e-21
1.16287964e-20
1.564250596e-20
2.022441866e-20
2.465890699e-20
2.76998917e-20
6.360535488e-21
7.989295335e-21
1.069158327e-20
1.469999691e-20
2.020649192e-20
2.718858248e-20
3.515517426e-20
4.286111516e-20
4.814275942e-20
1.102355082e-20
1.385569421e-20
1.855539289e-20
2.552702712e-20
3.510307889e-20
4.724185192e-20
6.108675654e-20
7.447275126e-20
8.364403262e-20
1.911341912e-20
2.403616333e-20
3.220599273e-20
4.432544159e-20
6.097033313e-20
8.20643537e-20
1.061149116e-19
1.293594996e-19
1.452799416e-19
3.315076426e-20
4.170483095e-20
5.590206921e-20
7.69621396e-20
1.058818555e-19
1.425223422e-19
1.842845025e-19
2.24632528e-19
2.522579222e-19
5.751028232e-20
7.237084772e-20
9.703512235e-20
1.336189426e-19
1.838465594e-19
2.474653785e-19
3.199511218e-19
3.899556211e-19
4.37869015e-19
9.978303731e-20
1.255939094e-19
1.684303357e-19
2.319596083e-19
3.191609432e-19
4.295738005e-19
5.55323512e-19
6.767148921e-19
7.597647161e-19
1.73137514e-19
2.179574025e-19
2.923333787e-19
4.026149641e-19
5.539412797e-19
7.454671772e-19
9.634866426e-19
1.17383571e-18
1.317672246e-18
3.004071794e-19
3.782147362e-19
5.073084679e-19
6.986668528e-19
9.611345446e-19
1.293145705e-18
1.670842142e-18
2.035001175e-18
2.283850335e-18
5.211576929e-19
6.561845379e-19
8.801544547e-19
1.212016473e-18
1.666947089e-18
2.242012519e-18
2.895671644e-18
3.525348527e-18
3.955276386e-18
9.038865326e-19
1.1381e-18
1.526451994e-18
2.101576408e-18
2.889413248e-18
3.884397618e-18
5.014176816e-18
6.101276496e-18
6.842710093e-18
1.567038289e-18
1.9730346e-18
2.645901975e-18
3.641684582e-18
5.004498848e-18
6.723658547e-18
8.673108057e-18
1.054621381e-17
1.182193798e-17
2.715116048e-18
3.418273796e-18
4.582918781e-18
6.304959414e-18
8.658951881e-18
1.162414512e-17
1.498087698e-17
1.820031073e-17
2.038910984e-17
4.700547303e-18
5.916959236e-18
7.930141782e-18
1.090350177e-17
1.496204248e-17
2.006510263e-17
2.582991253e-17
3.134650927e-17
3.508886086e-17
8.129303336e-18
1.023044794e-17
1.370449395e-17
1.882834298e-17
2.58095202e-17
3.456785846e-17
4.443663014e-17
5.385461555e-17
6.022654144e-17
1.404049379e-17
1.766293575e-17
2.364511793e-17
3.24531681e-17
4.442742523e-17
5.940938672e-17
7.623880238e-17
9.224675025e-17
1.030427355e-16
2.421036644e-17
3.044072566e-17
4.071465293e-17
5.581056978e-17
7.627826817e-17
1.018045794e-16
1.30373797e-16
1.574434689e-16
1.756315573e-16
4.166429059e-17
5.234896763e-17
6.993717318e-17
9.571651017e-17
1.305587088e-16
1.738475594e-16
2.220902865e-16
2.675965937e-16
2.980414698e-16
7.153422118e-17
8.979394042e-17
1.197888705e-16
1.636249709e-16
2.226526955e-16
2.95668412e-16
3.766423743e-16
4.526360391e-16
5.03233317e-16
1.224860514e-16
1.535631123e-16
2.04488099e-16
2.786601924e-16
3.781109807e-16
5.005133044e-16
6.355093556e-16
7.614868836e-16
8.449196267e-16
2.090800005e-16
2.617197269e-16
3.477348003e-16
4.725279373e-16
6.390412142e-16
8.428319487e-16
1.066219584e-15
1.273396103e-15
1.409820526e-15
3.556463673e-16
4.443255399e-16
5.887623713e-16
7.973922634e-16
1.07426087e-15
1.411011205e-15
1.777693264e-15
2.115510567e-15
2.33661259e-15
6.026014527e-16
7.51081764e-16
9.92040916e-16
1.338380671e-15
1.795256142e-15
2.347203401e-15
2.943940324e-15
3.489859683e-15
3.844912274e-15
1.016657321e-15
1.26358279e-15
1.662685571e-15
2.233233272e-15
2.98099893e-15
3.877868935e-15
4.840273123e-15
5.714344124e-15
6.279157742e-15
1.707185831e-15
2.114787983e-15
2.770684781e-15
3.702860146e-15
4.916134328e-15
6.360333487e-15
7.898083453e-15
9.284393349e-15
1.017441679e-14
2.852212494e-15
3.519672635e-15
4.588622011e-15
6.098382164e-15
8.049148661e-15
1.035305821e-14
1.278691828e-14
1.496487623e-14
1.635421208e-14
4.739322776e-15
5.823014208e-15
7.549831006e-15
9.972836772e-15
1.308012274e-14
1.672072639e-14
2.053638779e-14
2.392597423e-14
2.60747756e-14
7.829417387e-15
9.573174166e-15
1.233719201e-14
1.618945536e-14
2.109192818e-14
2.679006463e-14
3.271579494e-14
3.794253016e-14
4.123621711e-14
1.285510562e-14
1.563492146e-14
2.001744968e-14
2.608371209e-14
3.374473776e-14
4.257909881e-14
5.169689911e-14
5.968452278e-14
6.468959723e-14
2.097106044e-14
2.536032562e-14
3.224257419e-14
4.170382802e-14
5.356218823e-14
6.713206284e-14
8.103575777e-14
9.31376881e-14
1.006807713e-13
3.398154193e-14
4.084523582e-14
5.154907122e-14
6.616494898e-14
8.434941054e-14
1.050054893e-13
1.260242816e-13
1.442091417e-13
1.55488398e-13
5.468145006e-14
6.531084298e-14
8.179935052e-14
1.04166988e-13
1.317997438e-13
1.629695637e-13
1.944825763e-13
2.215948494e-13
2.383364288e-13
8.736298478e-14
1.036666755e-13
1.288277894e-13
1.627467855e-13
2.043700896e-13
2.510146152e-13
2.978914911e-13
3.380163352e-13
3.626930946e-13
1.385620828e-13
1.633350462e-13
2.013800736e-13
2.523640499e-13
3.145369759e-13
3.837882454e-13
4.530038443e-13
5.119757838e-13
5.48112417e-13
2.181498258e-13
2.554502649e-13
3.124708391e-13
3.884607918e-13
4.805899444e-13
5.826377987e-13
6.841267849e-13
7.702368559e-13
8.228343757e-13
3.409174125e-13
3.965929571e-13
4.813361383e-13
5.936903288e-13
7.291803322e-13
8.78499595e-13
1.026340571e-12
1.151317619e-12
1.227443472e-12
5.28847042e-13
6.112602681e-13
7.361990877e-13
9.010651134e-13
1.098918659e-12
1.315977866e-12
1.530036368e-12
1.710404295e-12
1.820003816e-12
8.143539446e-13
9.353897182e-13
1.118212009e-12
1.358429756e-12
1.64545653e-12
1.959068031e-12
2.267257138e-12
2.526204117e-12
2.683223218e-12
1.24492433e-12
1.421379114e-12
1.687034743e-12
2.034750372e-12
2.448602212e-12
2.899153884e-12
3.340543057e-12
3.710491774e-12
3.934420071e-12
1.889673006e-12
2.145164455e-12
2.528677821e-12
3.028932186e-12
3.622265974e-12
4.266149445e-12
4.895220233e-12
5.421344301e-12
5.73932459e-12
2.84858978e-12
3.216174494e-12
3.7664972e-12
4.482136237e-12
5.328302797e-12
6.243955033e-12
7.136395934e-12
7.881397247e-12
8.331085719e-12
4.265526973e-12
4.791279423e-12
5.576552358e-12
6.594924246e-12
7.79571246e-12
9.091819599e-12
1.03523711e-11
1.140292669e-11
1.203634352e-11
6.346376432e-12
7.094267853e-12
8.208985594e-12
9.651042384e-12
1.134717862e-11
1.317376835e-11
1.494680491e-11
1.642225694e-11
1.731098484e-11
9.384412777e-12
1.044293851e-11
1.201766613e-11
1.405028225e-11
1.643560931e-11
1.899901058e-11
2.148282976e-11
2.354697689e-11
2.478926409e-11
1.379545739e-11
1.528659628e-11
1.750108455e-11
2.035365693e-11
2.369423215e-11
2.727727149e-11
3.074349665e-11
3.362071243e-11
3.535121536e-11
2.01663447e-11
2.225760652e-11
2.535841761e-11
2.934519029e-11
3.40050547e-11
3.899447123e-11
4.381453641e-11
4.781179528e-11
5.021485872e-11
2.932119238e-11
3.224178226e-11
3.656599013e-11
4.211620498e-11
4.85923956e-11
5.551625301e-11
6.219752548e-11
6.773433048e-11
7.10619856e-11
4.241151394e-11
4.647415392e-11
5.248147815e-11
6.018045119e-11
6.915081187e-11
7.872947223e-11
8.796425185e-11
9.561313003e-11
1.002094418e-10
6.103896586e-11
6.666967476e-11
7.498640509e-11
8.563163178e-11
9.801985876e-11
1.112350066e-10
1.239667302e-10
1.345079503e-10
1.4084194e-10
8.742353772e-11
9.520232978e-11
1.066811711e-10
1.213584188e-10
1.384219259e-10
1.566096702e-10
1.74122247e-10
1.886177171e-10
1.973278588e-10
1.246339027e-10
1.353498697e-10
1.511507039e-10
1.713364849e-10
1.947846948e-10
2.197610132e-10
2.437993071e-10
2.636923158e-10
2.75646629e-10
1.769005677e-10
1.916258581e-10
2.13324204e-10
2.410234863e-10
2.731769638e-10
3.074066185e-10
3.403388117e-10
3.67588518e-10
3.839656438e-10
2.50038791e-10
2.702278012e-10
2.999603526e-10
3.378915062e-10
3.818958487e-10
4.287195904e-10
4.737556957e-10
5.1101824e-10
5.334166925e-10
3.520174745e-10
3.796397439e-10
4.202994478e-10
4.72142294e-10
5.322551571e-10
5.961947606e-10
6.57680163e-10
7.085521313e-10
7.391372644e-10
4.937215773e-10
5.314394975e-10
5.869365085e-10
6.576642207e-10
7.396395038e-10
8.268062711e-10
9.106150895e-10
9.799599985e-10
1.021661235e-09
6.899696085e-10
7.413753392e-10
8.169849378e-10
9.133066589e-10
1.024907043e-09
1.143547057e-09
1.257607509e-09
1.35199216e-09
1.40876678e-09
9.608647461e-10
1.030794751e-09
1.133619306e-09
1.26456796e-09
1.416245775e-09
1.577464528e-09
1.732457496e-09
1.860732534e-09
1.937916876e-09
1.333578727e-09
1.428529267e-09
1.568108484e-09
1.745817319e-09
1.951614142e-09
2.170334172e-09
2.380616704e-09
2.554684448e-09
2.659458624e-09
1.844691769e-09
1.973364369e-09
2.16247632e-09
2.403198064e-09
2.681925251e-09
2.978142772e-09
3.262959943e-09
3.498782098e-09
3.640780065e-09
2.543238717e-09
2.717250832e-09
2.972955225e-09
3.298388877e-09
3.675163685e-09
4.075582962e-09
4.46064341e-09
4.779550832e-09
4.971653269e-09
3.494639737e-09
3.729442114e-09
4.074426141e-09
4.513427139e-09
5.021650849e-09
5.561786756e-09
6.081287598e-09
6.511662293e-09
6.771014284e-09
4.785720212e-09
5.101767845e-09
5.566062355e-09
6.156820461e-09
6.840693617e-09
7.567540667e-09
8.266733777e-09
8.846137486e-09
9.19543505e-09
6.531044185e-09
6.955270884e-09
7.578408486e-09
8.371181286e-09
9.288853531e-09
1.026422016e-08
1.120261024e-08
1.198043117e-08
1.244951819e-08
8.880791747e-09
9.448437389e-09
1.028212152e-08
1.134260641e-08
1.257005012e-08
1.38746454e-08
1.512989644e-08
1.61705721e-08
1.679838004e-08
1.203039451e-08
1.278722655e-08
1.389856831e-08
1.531197792e-08
1.694765113e-08
1.868598245e-08
2.035857839e-08
2.174542472e-08
2.258226945e-08
1.623209483e-08
1.723704941e-08
1.871240341e-08
2.058827468e-08
2.275859524e-08
2.506468588e-08
2.728334022e-08
2.912297211e-08
3.023319307e-08
2.180850459e-08
2.313674557e-08
2.508613524e-08
2.756384777e-08
3.042943505e-08
3.34732974e-08
3.640103388e-08
3.882829883e-08
4.029318744e-08
2.916810287e-08
3.091445865e-08
3.347652379e-08
3.673142915e-08
4.049398202e-08
4.448868892e-08
4.83294221e-08
5.15126955e-08
5.34336231e-08
3.882242792e-08
4.110511735e-08
4.445244586e-08
4.870241924e-08
5.361199686e-08
5.882108316e-08
6.38264324e-08
6.797305426e-08
7.047464476e-08
5.140449765e-08
5.436900133e-08
5.871362805e-08
6.422575526e-08
7.058811386e-08
7.733293498e-08
8.380891712e-08
8.917044633e-08
9.240364594e-08
6.76877514e-08
7.151062822e-08
7.710940256e-08
8.420642051e-08
9.238996555e-08
1.010565561e-07
1.093696664e-07
1.162465824e-07
1.203912645e-07
8.860456629e-08
9.349696501e-08
1.006564201e-07
1.097224713e-07
1.201643318e-07
1.312091845e-07
1.417913775e-07
1.505366427e-07
1.55803444e-07
1.152631976e-07
1.21473804e-07
1.305541745e-07
1.420393648e-07
1.552499916e-07
1.692042427e-07
1.82556119e-07
1.935772662e-07
2.002088372e-07
1.489619564e-07
1.567790588e-07
1.681969628e-07
1.826202406e-07
1.991860491e-07
2.166572557e-07
2.333491062e-07
2.471089379e-07
2.553800615e-07
1.911991989e-07
2.009516206e-07
2.151811045e-07
2.331309916e-07
2.537141093e-07
2.753855288e-07
2.96056327e-07
3.130714981e-07
3.232880267e-07
2.436779969e-07
2.557346169e-07
2.733058985e-07
2.954382285e-07
3.20773933e-07
3.474012824e-07
3.727548496e-07
3.935923046e-07
4.060888352e-07
3.083035975e-07
3.230710233e-07
3.445672075e-07
3.716010066e-07
4.024922288e-07
4.34897243e-07
4.656956432e-07
4.909668667e-07
5.061031479e-07
3.871737152e-07
4.050929354e-07
4.311447585e-07
4.638550658e-07
5.011637707e-07
5.402247606e-07
5.772790005e-07
6.076321731e-07
6.257883135e-07
4.825621349e-07
5.041033263e-07
5.353814629e-07
5.7458947e-07
6.192251737e-07
6.658647922e-07
7.100230603e-07
7.461333366e-07
7.67703957e-07
5.968941961e-07
6.225500477e-07
6.597553652e-07
7.063161409e-07
7.59221893e-07
8.143924808e-07
8.665263052e-07
9.090845431e-07
9.344720755e-07
7.327150436e-07
7.629928025e-07
8.068448725e-07
8.616330796e-07
9.237693875e-07
9.884364158e-07
1.049425242e-06
1.099125596e-06
1.128732978e-06
8.926515004e-07
9.28064022e-07
9.79288299e-07
1.043182424e-06
1.115509715e-06
1.190633945e-06
1.261348712e-06
1.318875567e-06
1.353098609e-06
1.079368783e-06
1.120424922e-06
1.179739076e-06
1.253604771e-06
1.337065063e-06
1.423584105e-06
1.504870458e-06
1.570885189e-06
1.610104907e-06
1.295523568e-06
1.342718281e-06
1.410818215e-06
1.495491395e-06
1.590989877e-06
1.689799845e-06
1.782461597e-06
1.857589662e-06
1.902164854e-06
1.54371511e-06
1.597519653e-06
1.675065728e-06
1.77133606e-06
1.879723264e-06
1.991661206e-06
2.09644466e-06
2.181263466e-06
2.231523789e-06
1.826436192e-06
1.887288769e-06
1.974892752e-06
2.083488132e-06
2.205543335e-06
2.331371037e-06
2.44895069e-06
2.543978647e-06
2.600218421e-06
2.146025655e-06
2.214322852e-06
2.312536035e-06
2.434108575e-06
2.570524967e-06
2.710914656e-06
2.841880726e-06
2.947567795e-06
3.010040709e-06
2.504624127e-06
2.580713407e-06
2.690016266e-06
2.825130223e-06
2.976502291e-06
3.132024628e-06
3.27687273e-06
3.393592727e-06
3.462507579e-06
2.904134379e-06
2.98830784e-06
3.109101521e-06
3.258223481e-06
3.425036904e-06
3.596151554e-06
3.755274763e-06
3.883319548e-06
3.958837087e-06
3.346187422e-06
3.438676976e-06
3.571276792e-06
3.734768314e-06
3.917392568e-06
4.104441493e-06
4.278124881e-06
4.417700511e-06
4.499931421e-06
3.832115217e-06
3.933089245e-06
4.077720279e-06
4.255833069e-06
4.454516804e-06
4.657720319e-06
4.846137982e-06
4.997362807e-06
5.086366804e-06
4.362930476e-06
4.47249199e-06
4.629286791e-06
4.82216041e-06
5.03702954e-06
5.256485049e-06
5.45969954e-06
5.622604156e-06
5.718390153e-06
4.939313792e-06
5.057500035e-06
5.226498341e-06
5.434160305e-06
5.665218688e-06
5.900901948e-06
6.118865932e-06
6.293394855e-06
6.395922097e-06
5.561607991e-06
5.688391388e-06
5.869541721e-06
6.09190983e-06
6.339042293e-06
6.590810957e-06
6.823370885e-06
7.009385756e-06
7.118565821e-06
6.229819375e-06
6.365109699e-06
6.558272637e-06
6.795159265e-06
7.058136721e-06
7.325735885e-06
7.572637403e-06
7.769921505e-06
7.885621046e-06
6.943625325e-06
7.087272909e-06
7.292225804e-06
7.543343886e-06
7.821830201e-06
8.104899632e-06
8.365794437e-06
8.574058302e-06
8.696102386e-06
7.702387546e-06
7.854187369e-06
8.07063026e-06
8.335600648e-06
8.629160947e-06
8.92724365e-06
9.201697491e-06
9.420585352e-06
9.548761269e-06
8.505170161e-06
8.664866624e-06
8.892429075e-06
9.170788971e-06
9.478899026e-06
9.791450821e-06
1.007895234e-05
1.03080492e-05
1.04421106e-05
9.350761775e-06
9.518053975e-06
9.756302599e-06
1.004751474e-05
1.036957112e-05
1.06959709e-05
1.099594105e-05
1.123478011e-05
1.137445136e-05
1.023770063e-05
1.041224797e-05
1.066069438e-05
1.096415669e-05
1.129948737e-05
1.163904777e-05
1.195084948e-05
1.219891982e-05
1.234390041e-05
1.116430197e-05
1.134572993e-05
1.160383889e-05
1.191889438e-05
1.226676949e-05
1.261874762e-05
1.294169555e-05
1.319844978e-05
1.334841877e-05
1.21286868e-05
1.231659274e-05
1.258379034e-05
1.290973692e-05
1.326937949e-05
1.363298759e-05
1.396635774e-05
1.423121946e-05
1.438583981e-05
1.312881129e-05
1.332277013e-05
1.359845182e-05
1.393455192e-05
1.430514824e-05
1.4679564e-05
1.502260295e-05
1.529497403e-05
1.545389672e-05
1.41624961e-05
1.436206585e-05
1.464560409e-05
1.49910939e-05
1.537180353e-05
1.575617994e-05
1.610811367e-05
1.638738103e-05
1.655024903e-05
1.522745512e-05
1.543218206e-05
1.572293366e-05
1.607703182e-05
1.646699694e-05
1.686047147e-05
1.722051359e-05
1.750605562e-05
1.767250749e-05
1.632132308e-05
1.653074662e-05
1.682805951e-05
1.718997522e-05
1.75883293e-05
1.799003246e-05
1.835739177e-05
1.864858418e-05
1.881825744e-05
1.74416817e-05
1.765533885e-05
1.795855828e-05
1.832749868e-05
1.873337442e-05
1.914243746e-05
1.951632484e-05
1.981254595e-05
1.998508008e-05
1.858608399e-05
1.880351338e-05
1.911198756e-05
1.948716439e-05
1.989970081e-05
2.03152627e-05
2.069489725e-05
2.09955327e-05
2.117057185e-05
1.975207656e-05
1.997282205e-05
2.028590714e-05
2.066654267e-05
2.10848914e-05
2.150610496e-05
2.189071938e-05
2.219516631e-05
2.237236162e-05
2.093721986e-05
2.116083367e-05
2.147789815e-05
2.186323029e-05
2.228656111e-05
2.271259829e-05
2.310144358e-05
2.340911415e-05
2.358812581e-05
2.213910609e-05
2.236515151e-05
2.268557993e-05
2.307486674e-05
2.35023722e-05
2.393242863e-05
2.432477805e-05
2.463510251e-05
2.481560141e-05
2.335537498e-05
2.358342869e-05
2.390662484e-05
2.429914818e-05
2.473004755e-05
2.516334631e-05
2.555849869e-05
2.587092785e-05
2.605259705e-05
2.458372736e-05
2.481338131e-05
2.513877084e-05
2.553383946e-05
2.596738192e-05
2.640317663e-05
2.6800459e-05
2.711446627e-05
2.729700207e-05
2.582193664e-05
2.605279956e-05
2.637983206e-05
2.677678401e-05
2.721225122e-05
2.764982843e-05
2.804859812e-05
2.836368105e-05
2.85467939e-05
2.706785826e-05
2.729955684e-05
2.762770746e-05
2.802591196e-05
2.846261997e-05
2.890130098e-05
2.930094719e-05
2.961662861e-05
2.980004371e-05
2.83194373e-05
2.855161705e-05
2.888038765e-05
2.927924644e-05
2.971654706e-05
3.015568922e-05
3.055563405e-05
3.087146287e-05
3.10549206e-05
2.957471432e-05
2.980704019e-05
3.013596013e-05
3.053490835e-05
3.097219002e-05
3.141118749e-05
3.181088659e-05
3.212643824e-05
3.230969442e-05
3.083182972e-05
3.106398638e-05
3.139261295e-05
3.179111958e-05
3.222780783e-05
3.266609194e-05
3.306503479e-05
3.337991138e-05
3.356273731e-05
3.208902654e-05
3.23207185e-05
3.264863708e-05
3.304620508e-05
3.348176255e-05
3.391880181e-05
3.431651164e-05
3.463034183e-05
3.481252421e-05
3.334465209e-05
3.357560367e-05
3.390242755e-05
3.429859362e-05
3.473251982e-05
3.516781957e-05
3.556385297e-05
3.587629172e-05
3.605763248e-05
3.459715847e-05
3.482711352e-05
3.515248355e-05
3.554681769e-05
3.597864841e-05
3.641175021e-05
3.680569661e-05
3.711642463e-05
3.729674061e-05
3.584510206e-05
3.607382358e-05
3.639740765e-05
3.678951245e-05
3.721881897e-05
3.764929978e-05
3.804078061e-05
3.834950373e-05
3.852862631e-05
3.708714225e-05
3.731441191e-05
3.76359042e-05
3.802541396e-05
3.845180208e-05
3.887927324e-05
3.926794098e-05
3.957438941e-05
3.975216402e-05
3.832203938e-05
3.854765697e-05
3.886677714e-05
3.925335685e-05
3.967646573e-05
4.010057178e-05
4.048610889e-05
4.07900363e-05
4.096632195e-05
3.954865223e-05
3.977243494e-05
4.008892722e-05
4.047227141e-05
4.089177232e-05
4.131218971e-05
4.169430744e-05
4.199549007e-05
4.217015876e-05
4.076593489e-05
4.098771666e-05
4.13013488e-05
4.168118033e-05
4.209677526e-05
4.251321101e-05
4.289164815e-05
4.318988375e-05
4.336281994e-05
4.197293336e-05
4.219256412e-05
4.250312634e-05
4.287919509e-05
4.329061537e-05
4.370280561e-05
4.407732717e-05
4.437243403e-05
4.454353397e-05
4.316878183e-05
4.33861267e-05
4.369343061e-05
4.406551215e-05
4.447251697e-05
4.488022546e-05
4.525062136e-05
4.554243719e-05
4.571160835e-05
4.435269873e-05
4.456763725e-05
4.487151472e-05
4.523940895e-05
4.564178386e-05
4.604480055e-05
4.641088422e-05
4.669926514e-05
4.686642557e-05
4.552398266e-05
4.573640799e-05
4.603671002e-05
4.640023982e-05
4.679779526e-05
4.719593474e-05
4.755754181e-05
4.784236125e-05
4.800743898e-05
4.668200823e-05
4.689182635e-05
4.718842195e-05
4.754743182e-05
4.794000164e-05
4.833310172e-05
4.869008864e-05
4.897123628e-05
4.913416869e-05
4.782622188e-05
4.80333508e-05
4.832612588e-05
4.868048059e-05
4.90679206e-05
4.94558408e-05
4.980808357e-05
5.008546432e-05
5.024619755e-05
4.895613765e-05
4.916050666e-05
4.944936296e-05
4.979894627e-05
5.018113278e-05
5.056375295e-05
5.09111458e-05
5.11846788e-05
5.134316716e-05
5.007133308e-05
5.0272882e-05
5.055773602e-05
5.090244938e-05
5.127927785e-05
5.165649678e-05
5.199895093e-05
5.226856855e-05
5.242477395e-05
5.117144514e-05
5.137012356e-05
5.165090553e-05
5.199066685e-05
5.236205056e-05
5.273378463e-05
5.307122711e-05
5.333687402e-05
5.349076546e-05
5.225616632e-05
5.245193292e-05
5.272858582e-05
5.30633283e-05
5.342919699e-05
5.37953789e-05
5.412775134e-05
5.43893836e-05
5.454093661e-05
5.332524074e-05
5.351806262e-05
5.379054123e-05
5.412021218e-05
5.448051089e-05
5.484108842e-05
5.516834597e-05
5.542593015e-05
5.557512628e-05
5.437846048e-05
5.456831251e-05
5.48365825e-05
5.516114229e-05
5.551583011e-05
5.587076495e-05
5.619287521e-05
5.644638757e-05
5.659321394e-05
5.541566195e-05
5.560252617e-05
5.586656325e-05
5.618598425e-05
5.653503324e-05
5.688429987e-05
5.720124192e-05
5.745066762e-05
5.759511645e-05
5.643672256e-05
5.662058756e-05
5.688037666e-05
5.719464228e-05
5.753803641e-05
5.788162104e-05
5.819338444e-05
5.84387168e-05
5.858078501e-05
5.744155742e-05
5.762241785e-05
5.787795234e-05
5.818705608e-05
5.85247902e-05
5.886268979e-05
5.91692737e-05
5.941051352e-05
5.955020228e-05
5.843011632e-05
5.860797232e-05
5.885925328e-05
5.916319787e-05
5.949527677e-05
5.982749807e-05
6.012891043e-05
6.036606527e-05
6.050337965e-05
5.940238077e-05
5.95772375e-05
5.982427305e-05
6.01230696e-05
6.044950712e-05
6.077606578e-05
6.107232247e-05
6.130540609e-05
6.144035468e-05
6.035836126e-05
6.053022844e-05
6.077303308e-05
6.106670034e-05
6.13875185e-05
6.170843827e-05
6.199956237e-05
6.222859411e-05
6.236118871e-05
6.129809466e-05
6.146698615e-05
6.170558014e-05
6.199414375e-05
6.230937201e-05
6.262468391e-05
6.291070503e-05
6.313570926e-05
6.326596455e-05
6.222164181e-05
6.238757517e-05
6.262198399e-05
6.290547581e-05
6.321515029e-05
6.352489193e-05
6.380584552e-05
6.402685114e-05
6.415478438e-05
6.312908518e-05
6.329208134e-05
6.352233515e-05
6.380079259e-05
6.410495543e-05
6.440917028e-05
6.468509704e-05
6.490213701e-05
6.502776778e-05
6.402052677e-05
6.418060964e-05
6.440674277e-05
6.468020826e-05
6.497890693e-05
6.527764373e-05
6.554858902e-05
6.576169992e-05
6.588504985e-05
6.489608606e-05
6.505328224e-05
6.527533275e-05
6.554385314e-05
6.583713988e-05
6.613045202e-05
6.639646534e-05
6.660568693e-05
6.672677948e-05
6.57558982e-05
6.591023662e-05
6.612824588e-05
6.639187195e-05
6.667980318e-05
6.696774817e-05
6.722888268e-05
6.743425753e-05
6.755311774e-05
6.660011219e-05
6.675162389e-05
6.696563616e-05
6.722442211e-05
6.750705795e-05
6.778969689e-05
6.804600891e-05
6.824758204e-05
6.836423635e-05
6.742888931e-05
6.757760712e-05
6.778766917e-05
6.804167222e-05
6.831907597e-05
6.859647308e-05
6.88480217e-05
6.904584024e-05
6.916031629e-05
6.824240154e-05
6.838835986e-05
6.859452066e-05
6.884380058e-05
6.911603829e-05
6.938826044e-05
6.96351071e-05
6.982921997e-05
6.994154641e-05
6.904083013e-05
6.918406471e-05
6.938637505e-05
6.963099381e-05
6.989813385e-05
7.016525016e-05
7.040745827e-05
7.059791589e-05
7.070812221e-05
6.982436429e-05
6.996491197e-05
7.01634242e-05
7.040344558e-05
7.066555822e-05
7.092763966e-05
7.116527421e-05
7.135212822e-05
7.146024459e-05
7.059319985e-05
7.073109837e-05
7.092586609e-05
7.116135532e-05
7.141851236e-05
7.167563135e-05
7.19087586e-05
7.209206158e-05
7.219811869e-05
7.134753803e-05
7.148282585e-05
7.167390361e-05
7.190492704e-05
7.215720144e-05
7.240943148e-05
7.263811863e-05
7.281792382e-05
7.292195274e-05
7.208758427e-05
7.222030035e-05
7.240774339e-05
7.263436815e-05
7.288183365e-05
7.312924898e-05
7.335356378e-05
7.352992485e-05
7.363195683e-05
7.281354701e-05
7.294373063e-05
7.312759459e-05
7.334988825e-05
7.359261902e-05
7.383529419e-05
7.405530466e-05
7.422827542e-05
7.43283418e-05
7.352563648e-05
7.365332703e-05
7.383366769e-05
7.405169792e-05
7.428976816e-05
7.45277777e-05
7.474355174e-05
7.491318584e-05
7.501131784e-05
7.422406345e-05
7.434930022e-05
7.452617319e-05
7.474000739e-05
7.497349093e-05
7.520690892e-05
7.541851394e-05
7.558486462e-05
7.568109317e-05
7.490903788e-05
7.503185983e-05
7.520532023e-05
7.541502515e-05
7.564399503e-05
7.587289465e-05
7.608039717e-05
7.624351687e-05
7.633787242e-05
7.558076742e-05
7.570121297e-05
7.587131506e-05
7.607695635e-05
7.630148431e-05
7.652593734e-05
7.672940251e-05
7.688934253e-05
7.698185484e-05
7.623945577e-05
7.635756248e-05
7.652435929e-05
7.672600102e-05
7.694615694e-05
7.716623319e-05
7.736572427e-05
7.752253433e-05
7.761323219e-05
7.688530079e-05
7.700110505e-05
7.716464789e-05
7.736235195e-05
7.757820322e-05
7.779396987e-05
7.798954757e-05
7.814327532e-05
7.823218628e-05
7.751849226e-05
7.763202892e-05
7.779236684e-05
7.798619227e-05
7.819780304e-05
7.840932384e-05
7.860104563e-05
7.875173602e-05
7.883888603e-05
7.813920933e-05
7.825051123e-05
7.84076904e-05
7.859769263e-05
7.880512287e-05
7.901245722e-05
7.920037642e-05
7.934807104e-05
7.943348401e-05
7.87476175e-05
7.8856715e-05
7.901077792e-05
7.919700777e-05
7.940031227e-05
7.960351411e-05
7.97876789e-05
7.993241509e-05
8.001611242e-05
7.934386516e-05
7.945078547e-05
7.96017701e-05
7.978427272e-05
7.998349977e-05
8.01826163e-05
8.036306845e-05
8.050487836e-05
8.058687835e-05
7.992807955e-05
8.003284601e-05
8.018078474e-05
8.035959828e-05
8.055478824e-05
8.074985837e-05
8.092663186e-05
8.106554124e-05
8.114585838e-05
8.050036214e-05
8.06029934e-05
8.07479118e-05
8.092306593e-05
8.111424953e-05
8.130530216e-05
8.147842149e-05
8.16144484e-05
8.169309259e-05
8.106078348e-05
8.116129255e-05
8.130320803e-05
8.14747222e-05
8.166191862e-05
8.184897063e-05
8.201844898e-05
8.215160223e-05
8.222857785e-05
8.160937754e-05
8.17077707e-05
8.184669094e-05
8.201457251e-05
8.219778724e-05
8.238084128e-05
8.254667842e-05
8.267695589e-05
8.275226082e-05
8.214613559e-05
8.224241124e-05
8.237833253e-05
8.254257468e-05
8.272179717e-05
8.290083925e-05
8.306301929e-05
8.319040611e-05
8.326403061e-05
8.267099988e-05
8.276514726e-05
8.289805271e-05
8.305863223e-05
8.323383345e-05
8.340883045e-05
8.356731949e-05
8.369178609e-05
8.376371165e-05
8.318385724e-05
8.327585518e-05
8.34057129e-05
8.356258795e-05
8.373371789e-05
8.390461497e-05
8.40593587e-05
8.418085893e-05
8.425105709e-05
8.368453299e-05
8.377434864e-05
8.390110995e-05
8.405421788e-05
8.422120316e-05
8.438792132e-05
8.453884279e-05
8.465731206e-05
8.472574335e-05
8.417278558e-05
8.426037326e-05
8.438397103e-05
8.453322644e-05
8.46959681e-05
8.485840205e-05
8.500539968e-05
8.512075335e-05
8.518736631e-05
8.464830236e-05
8.473360258e-05
8.485394991e-05
8.499924298e-05
8.515761482e-05
8.531563126e-05
8.545857732e-05
8.557070953e-05
8.563543998e-05
8.511069708e-05
8.519363587e-05
8.531062512e-05
8.545182058e-05
8.560566808e-05
8.575910476e-05
8.589784455e-05
8.600662761e-05
8.60693983e-05
8.555950946e-05
8.563999813e-05
8.575350074e-05
8.589043766e-05
8.603957779e-05
8.61882434e-05
8.63225954e-05
8.642787994e-05
8.648860067e-05
8.599420782e-05
8.607214324e-05
8.618201012e-05
8.631450266e-05
8.645872494e-05
8.660240043e-05
8.673215745e-05
8.683377356e-05
8.689234187e-05
8.641419496e-05
8.648946046e-05
8.659552346e-05
8.672336271e-05
8.686243156e-05
8.700087273e-05
8.712580468e-05
8.722356411e-05
8.727986665e-05
8.681881775e-05
8.68912848e-05
8.699335917e-05
8.711631646e-05
8.724997499e-05
8.738291667e-05
8.750277465e-05
8.759647436e-05
8.765038904e-05
8.720738073e-05
8.727691138e-05
8.73747994e-05
8.749263088e-05
8.762060635e-05
8.774776823e-05
8.786229018e-05
8.795171711e-05
8.800311607e-05
8.757916354e-05
8.764561366e-05
8.773910938e-05
8.785156209e-05
8.797357284e-05
8.809466686e-05
8.820358473e-05
8.828852179e-05
8.833727507e-05
8.793344194e-05
8.79966652e-05
8.808556021e-05
8.819237932e-05
8.830814315e-05
8.842288227e-05
8.852593046e-05
8.860616359e-05
8.865214348e-05
8.826951164e-05
8.832936404e-05