/*--------------------------------*- C++ -*----------------------------------*\
| =========                 |                                                 |
| \\      /  F ield         | OpenFOAM: The Open Source CFD Toolbox           |
|  \\    /   O peration     | Version:  2212                                  |
|   \\  /    A nd           | Website:  www.openfoam.com                      |
|    \\/     M anipulation  |                                                 |
\*---------------------------------------------------------------------------*/
FoamFile
{
    version     2.0;
    format      ascii;
    arch        "LSB;label=32;scalar=64";
    class       volScalarField;
    location    "20.00000000";
    object      C5H5;
}
// * * * * * * * * * * * * * * * * * * * * * * * * * * * * * * * * * * * * * //

dimensions      [0 0 0 0 0 0 0];

internalField   nonuniform List<scalar> 
3000
(
1.552672227e-23
1.744102175e-23
2.032962134e-23
2.417890295e-23
2.894981654e-23
3.451292248e-23
4.053316462e-23
4.627778354e-23
5.034067863e-23
5.829588967e-23
6.574793532e-23
7.698810548e-23
9.200009808e-23
1.107694228e-22
1.331919742e-22
1.58879013e-22
1.865291266e-22
2.110289295e-22
1.305845809e-22
1.484346604e-22
1.756161066e-22
2.125234205e-22
2.598218471e-22
3.181975458e-22
3.874222111e-22
4.63602544e-22
5.287276175e-22
2.487493667e-22
2.857189606e-22
3.428407011e-22
4.220492326e-22
5.261528941e-22
6.577954847e-22
8.162545178e-22
9.888230885e-22
1.128114984e-21
4.417493042e-22
5.136380969e-22
6.264627685e-22
7.859578156e-22
9.99628975e-22
1.273461772e-21
1.602873318e-21
1.95265829e-21
2.221157676e-21
7.596802157e-22
8.946301098e-22
1.10946117e-21
1.417889157e-21
1.836376568e-21
2.375463382e-21
3.019076001e-21
3.68606855e-21
4.179590311e-21
1.289733627e-21
1.537647432e-21
1.93690689e-21
2.516581746e-21
3.308962435e-21
4.329810296e-21
5.536923465e-21
6.763408502e-21
7.648413838e-21
2.182722452e-21
2.631405224e-21
3.360423758e-21
4.427053612e-21
5.890793471e-21
7.772717468e-21
9.978412832e-21
1.218681492e-20
1.375372698e-20
3.699935057e-21
4.503365189e-21
5.817220112e-21
7.749263913e-21
1.04053222e-20
1.381091493e-20
1.777364544e-20
2.169993426e-20
2.445495696e-20
6.293797161e-21
7.721107856e-21
1.006589309e-20
1.352509881e-20
1.828354253e-20
2.436882446e-20
3.141039666e-20
3.833605538e-20
4.315957854e-20
1.074819491e-20
1.326891539e-20
1.742314434e-20
2.356424064e-20
3.201221175e-20
4.279167246e-20
5.521370664e-20
6.736863958e-20
7.579172229e-20
1.842161301e-20
2.285367724e-20
3.01739449e-20
4.100911967e-20
5.591155255e-20
7.489295065e-20
9.6700865e-20
1.179630738e-19
1.326463042e-19
3.166918271e-20
3.9436137e-20
5.22840376e-20
7.131631606e-20
9.7485894e-20
1.307728084e-19
1.689329682e-19
2.060437654e-19
2.316098652e-19
5.45749854e-20
6.815273214e-20
9.063650479e-20
1.239601799e-19
1.697688324e-19
2.279761312e-19
2.945994443e-19
3.592732523e-19
4.037513286e-19
9.422311775e-20
1.179159445e-19
1.571787897e-19
2.153909281e-19
2.953951063e-19
3.969753327e-19
5.131086505e-19
6.256959686e-19
7.030292515e-19
1.629039952e-19
2.041923989e-19
2.726501424e-19
3.741706291e-19
5.136707863e-19
6.906905944e-19
8.928994154e-19
1.088744659e-18
1.223141342e-18
2.819443529e-19
3.538259245e-19
4.730532654e-19
6.498904904e-19
8.928482879e-19
1.201017214e-18
1.552812254e-18
1.893288185e-18
2.126772192e-18
4.883560634e-19
6.134107454e-19
8.208899257e-19
1.128652236e-18
1.551435854e-18
2.08751434e-18
2.699181923e-18
3.290836971e-18
3.696356755e-18
8.46378088e-19
1.063827451e-18
1.424665989e-18
1.959941648e-18
2.695182088e-18
3.627185905e-18
4.690184937e-18
5.717949288e-18
6.422111827e-18
1.467510729e-18
1.845474498e-18
2.472746479e-18
3.403266605e-18
4.681246053e-18
6.300825534e-18
8.147405231e-18
9.932103294e-18
1.115446017e-17
2.545285167e-18
3.202058532e-18
4.292109416e-18
5.909082233e-18
8.129511397e-18
1.094273424e-17
1.414919446e-17
1.724707871e-17
1.936813105e-17
4.415586538e-18
5.556567069e-18
7.450267372e-18
1.025913941e-17
1.41155696e-17
1.900016397e-17
2.456555263e-17
2.994043365e-17
3.361917994e-17
7.661249754e-18
9.642984757e-18
1.293192614e-17
1.780964522e-17
2.450488346e-17
3.298228104e-17
4.263722817e-17
5.195754664e-17
5.833403571e-17
1.329333896e-17
1.673456876e-17
2.244508777e-17
3.091240642e-17
4.25311017e-17
5.723628391e-17
7.39756179e-17
9.01260258e-17
1.011696628e-16
2.306498676e-17
2.903897938e-17
3.895067735e-17
5.364299812e-17
7.379502609e-17
9.928653764e-17
1.282857228e-16
1.562455185e-16
1.753519282e-16
4.001400811e-17
5.038124508e-17
6.757744933e-17
9.305750996e-17
1.279866644e-16
1.721396595e-16
2.223270063e-16
2.706730187e-16
3.036824847e-16
6.939957644e-17
8.738227114e-17
1.171995803e-16
1.613571042e-16
2.218464928e-16
2.982404786e-16
3.849838875e-16
4.684504025e-16
5.253769931e-16
1.203157586e-16
1.514877822e-16
2.031499211e-16
2.796051949e-16
3.842408226e-16
5.162363257e-16
6.659132693e-16
8.097286099e-16
9.076775408e-16
2.084641136e-16
2.624519197e-16
3.518722921e-16
4.840889909e-16
6.648263717e-16
8.924911876e-16
1.15021798e-15
1.39740315e-15
1.565457139e-15
3.609037007e-16
4.542986922e-16
6.088690002e-16
8.371608515e-16
1.148771885e-15
1.540580163e-15
1.983196981e-15
2.406756222e-15
2.694090547e-15
6.241604378e-16
7.854843925e-16
1.052218458e-15
1.445622887e-15
1.981631273e-15
2.654088458e-15
3.411803705e-15
4.134907997e-15
4.624138631e-15
1.078016207e-15
1.356143977e-15
1.815450439e-15
2.491724455e-15
3.411096944e-15
4.561398223e-15
5.853545345e-15
7.082620927e-15
7.911526794e-15
1.858849673e-15
2.337210938e-15
3.126033652e-15
4.28508431e-15
5.85657544e-15
7.816462242e-15
1.000998061e-14
1.208836524e-14
1.348483003e-14
3.19894589e-15
4.019305587e-15
5.369711875e-15
7.349025734e-15
1.002417781e-14
1.334785612e-14
1.705188853e-14
2.054582114e-14
2.288335085e-14
5.492331578e-15
6.894296047e-15
9.197279236e-15
1.25629748e-14
1.709506936e-14
2.270114914e-14
2.891825575e-14
3.475297969e-14
3.863779231e-14
9.404365883e-15
1.179043401e-14
1.570040763e-14
2.139527277e-14
2.90310129e-14
3.842895088e-14
4.87938237e-14
5.846626256e-14
6.487215187e-14
1.60529686e-14
2.009459816e-14
2.669875607e-14
3.628025796e-14
4.906499377e-14
6.471185841e-14
8.186335499e-14
9.777017682e-14
1.082447179e-13
2.73061966e-14
3.411490105e-14
4.520462679e-14
6.122303616e-14
8.248075069e-14
1.083361286e-13
1.364896361e-13
1.624269339e-13
1.794029408e-13
4.626717355e-14
5.766735257e-14
7.616797026e-14
1.027596118e-13
1.378380815e-13
1.80216073e-13
2.260329716e-13
2.679481437e-13
2.952087445e-13
7.805798404e-14
9.701668658e-14
1.276594182e-13
1.714655268e-13
2.288782596e-13
2.977390787e-13
3.716315452e-13
4.387418695e-13
4.82107708e-13
1.31076084e-13
1.623713813e-13
2.127304989e-13
2.843020129e-13
3.774560136e-13
4.883401978e-13
6.064071073e-13
7.128465851e-13
7.811816793e-13
2.189900756e-13
2.702369968e-13
3.523098547e-13
4.682277103e-13
6.180055679e-13
7.9489736e-13
9.817665815e-13
1.14898787e-12
1.255659571e-12
3.638804347e-13
4.470851301e-13
5.796683037e-13
7.657041015e-13
1.00427815e-12
1.283799673e-12
1.576761841e-12
1.837010362e-12
2.001992786e-12
6.011345403e-13
7.35018252e-13
9.472364329e-13
1.243008793e-12
1.619414888e-12
2.056910894e-12
2.511881038e-12
2.913182991e-12
3.166067872e-12
9.870011391e-13
1.200432061e-12
1.536917198e-12
2.002677149e-12
2.590880634e-12
3.269170755e-12
3.969222366e-12
4.582500114e-12
4.966781913e-12
1.610134295e-12
1.947136227e-12
2.475545804e-12
3.201967278e-12
4.112434219e-12
5.15430742e-12
6.22180944e-12
7.150973857e-12
7.730117548e-12
2.609062077e-12
3.136046068e-12
3.957869556e-12
5.080052049e-12
6.476222236e-12
8.062155901e-12
9.675934945e-12
1.107212799e-11
1.193812277e-11
4.198371539e-12
5.014477385e-12
6.280433871e-12
7.997775612e-12
1.011935748e-11
1.2512501e-11
1.493198735e-11
1.7013591e-11
1.829895928e-11
6.707608061e-12
7.95937038e-12
9.891182627e-12
1.249539754e-11
1.569111887e-11
1.927234193e-11
2.287139005e-11
2.595202873e-11
2.784661434e-11
1.063858266e-11
1.254058489e-11
1.54615721e-11
1.937595842e-11
2.4149373e-11
2.94662087e-11
3.478027681e-11
3.930785943e-11
4.208224576e-11
1.674916171e-11
1.961296429e-11
2.399079377e-11
2.98249882e-11
3.689823454e-11
4.473293333e-11
5.252466673e-11
5.913565218e-11
6.31737353e-11
2.617494268e-11
3.044947275e-11
3.695565201e-11
4.558160298e-11
5.598369628e-11
6.744739529e-11
7.879748462e-11
8.839217088e-11
9.423643336e-11
4.060357236e-11
4.693080979e-11
5.652284975e-11
6.918011405e-11
8.436972609e-11
1.010335527e-10
1.174667774e-10
1.313134099e-10
1.397271587e-10
6.252358202e-11
7.181587576e-11
8.585155636e-11
1.042933359e-10
1.263282932e-10
1.504036681e-10
1.740623001e-10
1.939404259e-10
2.059938807e-10
9.558029074e-11
1.091270021e-10
1.295215142e-10
1.562152927e-10
1.879855225e-10
2.225721639e-10
2.564545057e-10
2.848521494e-10
3.02040808e-10
1.450788392e-10
1.646929602e-10
1.941348643e-10
2.32537973e-10
2.780852292e-10
3.27511315e-10
3.757986845e-10
4.161826121e-10
4.405894405e-10
2.186930329e-10
2.46912267e-10
2.891595141e-10
3.440965859e-10
4.090520291e-10
4.793393509e-10
5.47842854e-10
6.050275738e-10
6.395443655e-10
3.274599338e-10
3.678217805e-10
4.281064165e-10
5.062849824e-10
5.984663145e-10
6.979643512e-10
7.947332386e-10
8.753829843e-10
9.240113495e-10
4.871696489e-10
5.445867225e-10
6.301666476e-10
7.408793893e-10
8.711032397e-10
1.01135081e-09
1.147498433e-09
1.260808487e-09
1.329068467e-09
7.202991129e-10
8.015696586e-10
9.22478511e-10
1.078556667e-09
1.261740321e-09
1.458633203e-09
1.649456192e-09
1.808076911e-09
1.90356217e-09
1.058690083e-09
1.173189907e-09
1.34325258e-09
1.562355909e-09
1.819007026e-09
2.094376926e-09
2.36087021e-09
2.582159738e-09
2.715290932e-09
1.547237394e-09
1.70785405e-09
1.946057039e-09
2.252413974e-09
2.6106408e-09
2.994388118e-09
3.365293622e-09
3.673012474e-09
3.858055971e-09
2.248937689e-09
2.473327684e-09
2.805663472e-09
3.23241452e-09
3.730635502e-09
4.263606287e-09
4.778175859e-09
5.204770031e-09
5.461209331e-09
3.251760376e-09
3.564038206e-09
4.025984644e-09
4.618334672e-09
5.308924132e-09
6.046777888e-09
6.758482629e-09
7.348145392e-09
7.702519398e-09
4.677954571e-09
5.110959038e-09
5.750806281e-09
6.570252261e-09
7.524423461e-09
8.542805108e-09
9.524289127e-09
1.033704716e-08
1.082540227e-08
6.69659686e-09
7.294919734e-09
8.178211729e-09
9.308177959e-09
1.062248086e-08
1.202389412e-08
1.33735524e-08
1.449068752e-08
1.516182894e-08
9.540386951e-09
1.036438911e-08
1.157980576e-08
1.313309689e-08
1.493800224e-08
1.686088155e-08
1.87115333e-08
2.0242724e-08
2.116249334e-08
1.35278965e-08
1.465898414e-08
1.632606241e-08
1.845463732e-08
2.092578243e-08
2.355636346e-08
2.60865861e-08
2.817922515e-08
2.94360722e-08
1.909267742e-08
2.06401635e-08
2.291933001e-08
2.582698721e-08
2.91997507e-08
3.278742967e-08
3.623619507e-08
3.908739639e-08
4.079954257e-08
2.682079925e-08
2.893071424e-08
3.203615237e-08
3.599477337e-08
4.058290098e-08
4.545981581e-08
5.014510046e-08
5.401692168e-08
5.634141404e-08
3.749841139e-08
4.036463229e-08
4.458050842e-08
4.995049391e-08
5.616946453e-08
6.277497934e-08
6.91169499e-08
7.435528319e-08
7.749918348e-08
5.217070974e-08
5.604872019e-08
6.174919712e-08
6.900459098e-08
7.740022881e-08
8.631077859e-08
9.485991103e-08
1.019172694e-07
1.061510744e-07
7.221307043e-08
7.743650559e-08
8.510972524e-08
9.486818311e-08
1.061505949e-07
1.181148552e-07
1.295848335e-07
1.390468072e-07
1.447199087e-07
9.94139364e-08
1.064137626e-07
1.166895136e-07
1.297466472e-07
1.448287967e-07
1.608072796e-07
1.761116472e-07
1.887260494e-07
1.962835707e-07
1.360671512e-07
1.45392837e-07
1.59072877e-07
1.764395209e-07
1.964785695e-07
2.176854461e-07
2.379756899e-07
2.546823141e-07
2.646819928e-07
1.850687493e-07
1.974100825e-07
2.154990363e-07
2.384386292e-07
2.648765748e-07
2.928197988e-07
3.195208765e-07
3.414784062e-07
3.546053655e-07
2.500098247e-07
2.662171516e-07
2.899506194e-07
3.200122545e-07
3.546105255e-07
3.911243772e-07
4.259618591e-07
4.545669951e-07
4.716433925e-07
3.352533756e-07
3.563530944e-07
3.872182499e-07
4.262592989e-07
4.711201457e-07
5.183825141e-07
5.633939268e-07
6.002866148e-07
6.222725232e-07
4.459796453e-07
4.73180986e-07
5.129238594e-07
5.631148383e-07
6.206811548e-07
6.812068517e-07
7.387290912e-07
7.857773561e-07
8.137591227e-07
5.881824687e-07
6.2287123e-07
6.734844782e-07
7.372885785e-07
8.103138377e-07
8.869156906e-07
9.595411935e-07
1.018800062e-06
1.053963133e-06
7.685996319e-07
8.12314931e-07
8.760006639e-07
9.561216603e-07
1.047603565e-06
1.143315535e-06
1.233812733e-06
1.307454394e-06
1.351039353e-06
9.945642364e-07
1.048955699e-06
1.128060141e-06
1.22735552e-06
1.340430992e-06
1.458392264e-06
1.569590714e-06
1.65980733e-06
1.713050523e-06
1.273771903e-06
1.340537092e-06
1.437457478e-06
1.558818442e-06
1.696623391e-06
1.839928742e-06
1.974575571e-06
2.083461227e-06
2.147524224e-06
1.613969742e-06
1.694774694e-06
1.811843335e-06
1.958049101e-06
2.123552979e-06
2.29508164e-06
2.455682397e-06
2.585106196e-06
2.661002884e-06
2.02258563e-06
2.118974587e-06
2.258329544e-06
2.431888733e-06
2.627719689e-06
2.829960403e-06
3.018622371e-06
3.170109861e-06
3.258640835e-06
2.50632803e-06
2.619630964e-06
2.783086151e-06
2.986081615e-06
3.21436107e-06
3.449253295e-06
3.667552345e-06
3.842191998e-06
3.943905733e-06
3.070794604e-06
3.202042363e-06
3.390971055e-06
3.624925056e-06
3.887129864e-06
4.155940185e-06
4.404822364e-06
4.603205096e-06
4.718350758e-06
3.720130302e-06
3.869986551e-06
4.085230468e-06
4.351005925e-06
4.647875187e-06
4.951118415e-06
5.230844848e-06
5.452993218e-06
5.581452825e-06
4.456770871e-06
4.625489617e-06
4.86730705e-06
5.165054666e-06
5.496547356e-06
5.833963088e-06
6.144054304e-06
6.389367622e-06
6.530692237e-06
5.281305532e-06
5.468716811e-06
5.736769729e-06
6.06592479e-06
6.431234159e-06
6.801744347e-06
7.140957871e-06
7.408291589e-06
7.561730434e-06
6.192465143e-06
6.397990074e-06
6.69137671e-06
7.050696921e-06
7.448198435e-06
7.849937049e-06
8.216392213e-06
8.504129896e-06
8.668676997e-06
7.187242459e-06
7.409923594e-06
7.727166009e-06
8.114678235e-06
8.542048224e-06
8.972521543e-06
9.363811272e-06
9.669958559e-06
9.844410407e-06
8.260926668e-06
8.499400329e-06
8.838504662e-06
9.251698186e-06
9.706071489e-06
1.016229345e-05
1.057561233e-05
1.0897901e-05
1.108091841e-05
9.407242739e-06
9.659874349e-06
1.001848481e-05
1.045444262e-05
1.09325554e-05
1.141119207e-05
1.184346842e-05
1.217946055e-05
1.236962894e-05
1.061877889e-05
1.088373956e-05
1.125924644e-05
1.171477739e-05
1.221311021e-05
1.27106209e-05
1.315864227e-05
1.350582653e-05
1.37017103e-05
1.188731287e-05
1.216265476e-05
1.25522997e-05
1.302406381e-05
1.353897479e-05
1.405174038e-05
1.451226472e-05
1.486813948e-05
1.506832771e-05
1.320412913e-05
1.348785474e-05
1.388882634e-05
1.437344653e-05
1.490128763e-05
1.542571998e-05
1.589556806e-05
1.625770848e-05
1.64608507e-05
1.456030799e-05
1.485043021e-05
1.52599457e-05
1.57541015e-05
1.629131405e-05
1.682394369e-05
1.73000709e-05
1.766617938e-05
1.787101148e-05
1.594697474e-05
1.62415656e-05
1.665693651e-05
1.715743801e-05
1.770062631e-05
1.823816807e-05
1.871771639e-05
1.908565737e-05
1.929101837e-05
1.735550207e-05
1.765273003e-05
1.807141157e-05
1.857525393e-05
1.912123804e-05
1.966063637e-05
2.014096836e-05
2.050878952e-05
2.071363068e-05
1.877766517e-05
1.907582153e-05
1.949544693e-05
1.999984723e-05
2.054569722e-05
2.108415394e-05
2.156287179e-05
2.192881416e-05
2.213220198e-05
2.020575259e-05
2.050326831e-05
2.092167013e-05
2.142408921e-05
2.196714403e-05
2.250213186e-05
2.297708458e-05
2.333958405e-05
2.354069876e-05
2.16326382e-05
2.192809284e-05
2.234331362e-05
2.284146589e-05
2.33793402e-05
2.390860527e-05
2.4377887e-05
2.473556976e-05
2.493370055e-05
2.305182116e-05
2.334394568e-05
2.375424037e-05
2.424609436e-05
2.477667618e-05
2.529823267e-05
2.576017472e-05
2.611184845e-05
2.630638677e-05
2.445744068e-05
2.474511555e-05
2.51489478e-05
2.563272006e-05
2.615416214e-05
2.666628127e-05
2.71194401e-05
2.746408266e-05
2.765451437e-05
2.584427177e-05
2.612652183e-05
2.652255604e-05
2.699670049e-05
2.750740724e-05
2.800860292e-05
2.845174562e-05
2.878849231e-05
2.897438936e-05
2.720770743e-05
2.748369457e-05
2.787078515e-05
2.833397944e-05
2.883259136e-05
2.932160366e-05
2.975369218e-05
3.008182251e-05
3.026283459e-05
2.854373161e-05
2.88127461e-05
2.918992502e-05
2.96410552e-05
3.012643177e-05
3.060220959e-05
3.102238456e-05
3.134130908e-05
3.151715555e-05
2.984888626e-05
3.011033733e-05
3.04768008e-05
3.091494521e-05
3.138614733e-05
3.184783071e-05
3.22553954e-05
3.256464294e-05
3.273510524e-05
3.112023502e-05
3.137364115e-05
3.172873601e-05
3.215314895e-05
3.26094213e-05
3.305632413e-05
3.345072897e-05
3.374993452e-05
3.391484908e-05
3.235532522e-05
3.260030448e-05
3.294351463e-05
3.335361034e-05
3.379436425e-05
3.422595753e-05
3.460678531e-05
3.489567866e-05
3.50549304e-05
3.355214962e-05
3.378841015e-05
3.411934348e-05
3.451468053e-05
3.493947748e-05
3.535537338e-05
3.572232534e-05
3.600072057e-05
3.615423696e-05
3.470910853e-05
3.493643949e-05
3.525481521e-05
3.563508172e-05
3.604361768e-05
3.644355451e-05
3.679643733e-05
3.706422303e-05
3.721196878e-05
3.58249731e-05
3.6043236e-05
3.634887272e-05
3.671387231e-05
3.710596301e-05
3.748979115e-05
3.782850487e-05
3.808563522e-05
3.822760738e-05
3.689885003e-05
3.710797059e-05
3.740077506e-05
3.77504137e-05
3.812598085e-05
3.849364968e-05
3.881817653e-05
3.906466314e-05
3.920088676e-05
3.793014796e-05
3.813010851e-05
3.841006515e-05
3.874433893e-05
3.910339744e-05
3.945494321e-05
3.976533733e-05
4.000124177e-05
4.013176604e-05
3.891854573e-05
3.910937817e-05
3.937653937e-05
3.969552315e-05
4.003816929e-05
4.037370399e-05
4.067008204e-05
4.089550908e-05
4.102040376e-05
3.986396259e-05
4.004574186e-05
4.030021899e-05
4.060405599e-05
4.093045656e-05
4.125015769e-05
4.153269025e-05
4.174778171e-05
4.186713405e-05
4.076653035e-05
4.093936845e-05
4.118132369e-05
4.147021591e-05
4.178059829e-05
4.208469953e-05
4.235360327e-05
4.255853251e-05
4.267244446e-05
4.162656745e-05
4.179060803e-05
4.202024688e-05
4.229444638e-05
4.25890895e-05
4.287787225e-05
4.313340287e-05
4.332836975e-05
4.343695548e-05
4.244455507e-05
4.259996847e-05
4.281753292e-05
4.307733395e-05
4.335656008e-05
4.363034575e-05
4.387279158e-05
4.405801803e-05
4.416140169e-05
4.322111503e-05
4.336809381e-05
4.357385623e-05
4.381958809e-05
4.408375543e-05
4.434289854e-05
4.457257478e-05
4.474830074e-05
4.484661457e-05
4.395698958e-05
4.40957445e-05
4.429000213e-05
4.452202271e-05
4.477151875e-05
4.501640069e-05
4.523364428e-05
4.540012414e-05
4.54935067e-05
4.465302287e-05
4.478377932e-05
4.496684927e-05
4.518553936e-05
4.542077492e-05
4.565179843e-05
4.585696341e-05
4.60144628e-05
4.610305745e-05
4.531014417e-05
4.543313891e-05
4.560535384e-05
4.581111197e-05
4.603251589e-05
4.625010007e-05
4.64435535e-05
4.65923465e-05
4.667630006e-05
4.592935258e-05
4.604483096e-05
4.62065351e-05
4.6399773e-05
4.660778746e-05
4.68123634e-05
4.699448176e-05
4.713484834e-05
4.721430994e-05
4.651170329e-05
4.66199167e-05
4.677146245e-05
4.695260108e-05
4.714767741e-05
4.733968431e-05
4.751085024e-05
4.764307413e-05
4.771819414e-05
4.705829522e-05
4.71594989e-05
4.730124378e-05
4.747070977e-05
4.765330482e-05
4.783318658e-05
4.799378615e-05
4.811815286e-05
4.818908203e-05
4.757025992e-05
4.766471105e-05
4.779701506e-05
4.795523764e-05
4.81258106e-05
4.829401287e-05
4.844443308e-05
4.856122825e-05
4.86281169e-05
4.804875175e-05
4.813670775e-05
4.825993107e-05
4.840733943e-05
4.856634906e-05
4.872331664e-05
4.886394328e-05
4.897345123e-05
4.903644862e-05
4.849493911e-05
4.857665623e-05
4.869115726e-05
4.882817819e-05
4.897608042e-05
4.912225503e-05
4.925347092e-05
4.935597338e-05
4.941522711e-05
4.890999674e-05
4.898572882e-05
4.909186244e-05
4.921891843e-05
4.935616433e-05
4.949198273e-05
4.961416606e-05
4.970994114e-05
4.976559665e-05
4.929509898e-05
4.936509638e-05
4.946321258e-05
4.958072008e-05
4.970775411e-05
4.983364646e-05
4.994716955e-05
5.003649079e-05
5.008869098e-05
4.965141387e-05
4.971592263e-05
4.980636522e-05
4.991473327e-05
5.003199185e-05
5.014838037e-05
5.025360847e-05
5.033674411e-05
5.038562899e-05
4.998009807e-05
5.003935914e-05
5.012246481e-05
5.022209388e-05
5.033000414e-05
5.043730197e-05
5.053459241e-05
5.061180473e-05
5.065751113e-05
5.028229248e-05
5.033654115e-05
5.041263861e-05
5.050391961e-05
5.060289846e-05
5.070150874e-05
5.079121012e-05
5.086275499e-05
5.090541632e-05
5.055911855e-05
5.060858396e-05
5.067799331e-05
5.076130685e-05
5.085176012e-05
5.094207527e-05
5.102452689e-05
5.109065332e-05
5.113039942e-05
5.081167517e-05
5.085657992e-05
5.091961211e-05
5.099532788e-05
5.107764975e-05
5.116005089e-05
5.123558228e-05
5.12965321e-05
5.133348907e-05
5.104103605e-05
5.108159595e-05
5.113855238e-05
5.120702874e-05
5.128160126e-05
5.135645776e-05
5.142538831e-05
5.148139597e-05
5.151568609e-05
5.124824767e-05
5.128467149e-05
5.133584378e-05
5.139742737e-05
5.146462014e-05
5.153228934e-05
5.159492807e-05
5.164622045e-05
5.167796212e-05
5.143432759e-05
5.146681696e-05
5.151248669e-05
5.15675123e-05
5.162768221e-05
5.168850924e-05
5.174515464e-05
5.179195097e-05
5.182125863e-05
5.160026313e-05
5.162901245e-05
5.166945113e-05
5.171824151e-05
5.177173269e-05
5.182605033e-05
5.187699029e-05
5.191950208e-05
5.194648626e-05
5.174701048e-05
5.177220689e-05
5.180767589e-05
5.185054177e-05
5.189768554e-05
5.194581421e-05
5.199132601e-05
5.20297571e-05
5.205452435e-05
5.187549398e-05
5.18973174e-05
5.1928068e-05
5.196530812e-05
5.200642302e-05
5.204867087e-05
5.208902124e-05
5.212356777e-05
5.214622077e-05
5.198660578e-05
5.200522895e-05
5.203150243e-05
5.206340363e-05
5.209879557e-05
5.213545856e-05
5.217090377e-05
5.220175433e-05
5.222239185e-05
5.208120563e-05
5.209679423e-05
5.211882198e-05
5.214565939e-05
5.21756218e-05
5.220698389e-05
5.223776989e-05
5.226510559e-05
5.228382261e-05
5.216012097e-05
5.217283372e-05
5.219083742e-05
5.221287463e-05
5.223768869e-05
5.226402203e-05
5.229038465e-05
5.231437923e-05
5.233126698e-05
5.222414709e-05
5.223413588e-05
5.224832771e-05
5.226581703e-05
5.228575191e-05
5.230731709e-05
5.232948223e-05
5.235030226e-05
5.23654483e-05
5.227404749e-05
5.228145757e-05
5.229204042e-05
5.230522314e-05
5.232053627e-05
5.233758261e-05
5.235576647e-05
5.23735715e-05
5.23870598e-05
5.231055437e-05
5.23155245e-05
5.232269222e-05
5.233179888e-05
5.23427363e-05
5.235550212e-05
5.236991149e-05
5.238485421e-05
5.239676524e-05
5.233436919e-05
5.233703184e-05
5.234096949e-05
5.234622022e-05
5.235301688e-05
5.236172982e-05
5.237256233e-05
5.238478878e-05
5.239519961e-05
5.234616335e-05
5.23466449e-05
5.234752902e-05
5.234913385e-05
5.235201395e-05
5.235689132e-05
5.236433567e-05
5.237398545e-05
5.238296986e-05
5.23465789e-05
5.234499983e-05
5.234299875e-05
5.234115792e-05
5.234033527e-05
5.234158436e-05
5.234582069e-05
5.235302713e-05
5.23606557e-05
5.233622938e-05
5.233270445e-05
5.232797854e-05
5.232288287e-05
5.231856125e-05
5.231637969e-05
5.231757982e-05
5.232247023e-05
5.232881042e-05
5.231570057e-05
5.231033908e-05
5.230304105e-05
5.229487227e-05
5.228724578e-05
5.228182189e-05
5.228014962e-05
5.228284548e-05
5.228796179e-05
5.228555144e-05
5.227845739e-05
5.226873258e-05
5.225766367e-05
5.224691712e-05
5.223843023e-05
5.223404166e-05
5.223465882e-05
5.223861286e-05
5.224631499e-05
5.223758731e-05
5.222557399e-05
5.22117695e-05
5.219807875e-05
5.218669959e-05
5.217974338e-05
5.21783923e-05
5.218124288e-05
5.219849915e-05
5.21882319e-05
5.217406153e-05
5.215767798e-05
5.214121027e-05
5.212710129e-05
5.211771898e-05
5.211450493e-05
5.211630819e-05
5.214258772e-05
5.213087029e-05
5.211466781e-05
5.209585396e-05
5.207676834e-05
5.206008403e-05
5.204841034e-05
5.204343358e-05
5.204424309e-05
5.207904124e-05
5.206595856e-05
5.204784269e-05
5.202673988e-05
5.200518751e-05
5.198607477e-05
5.197223783e-05
5.196559384e-05
5.196546071e-05
5.200829796e-05
5.199393066e-05
5.197401414e-05
5.195075665e-05
5.192688112e-05
5.190547956e-05
5.188960125e-05
5.188138094e-05
5.188035389e-05
5.193077465e-05
5.191519931e-05
5.189358917e-05
5.186830449e-05
5.184224219e-05
5.181868447e-05
5.180088065e-05
5.179117052e-05
5.1789296e-05
5.184686757e-05
5.183015683e-05
5.180695467e-05
5.177976382e-05
5.175164426e-05
5.172605638e-05
5.170643718e-05
5.169531954e-05
5.169264182e-05
5.175695328e-05
5.173917609e-05
5.171447831e-05
5.168549614e-05
5.165544223e-05
5.162794385e-05
5.160661393e-05
5.159416706e-05
5.159072832e-05
5.166138955e-05
5.164261129e-05
5.161650932e-05
5.15858448e-05
5.155397322e-05
5.152467793e-05
5.150173669e-05
5.148803506e-05
5.148387548e-05
5.156051613e-05
5.15407988e-05
5.151337937e-05
5.148113586e-05
5.144755729e-05
5.141657293e-05
5.139211479e-05
5.137722919e-05
5.137238706e-05
5.14546556e-05
5.143405801e-05
5.140540335e-05
5.137167888e-05
5.133649831e-05
5.130392721e-05
5.127804185e-05
5.126203958e-05
5.125655135e-05
5.134411419e-05
5.132269206e-05
5.129288013e-05
5.125776765e-05
5.122108468e-05
5.118702393e-05
5.11597965e-05
5.114274154e-05
5.113664192e-05
5.122918249e-05
5.120698863e-05
5.117609334e-05
5.113968096e-05
5.110159004e-05
5.106613178e-05
5.103764311e-05
5.101959626e-05
5.101291831e-05
5.111013622e-05
5.108722071e-05
5.105531209e-05
5.101768337e-05
5.097827404e-05
5.094150566e-05
5.09118325e-05
5.089285155e-05
5.088562674e-05
5.0987237e-05
5.096364727e-05
5.093079171e-05
5.089202581e-05
5.0851383e-05
5.08133874e-05
5.07826026e-05
5.076274248e-05
5.075500076e-05
5.086073297e-05
5.083651397e-05
5.080277438e-05
5.076294638e-05
5.072115059e-05
5.068200641e-05
5.065017911e-05
5.062949198e-05
5.062126187e-05
5.073085954e-05
5.070605386e-05
5.067148986e-05
5.063067088e-05
5.058779844e-05
5.054758026e-05
5.051477608e-05
5.049331151e-05
5.048462014e-05
5.059783999e-05
5.0572488e-05
5.053715607e-05
5.049541354e-05
5.045153681e-05
5.041031533e-05
5.037659652e-05
5.035440158e-05
5.034527474e-05
5.046188614e-05
5.043602607e-05
5.039997975e-05
5.035737755e-05
5.031256508e-05
5.027040735e-05
5.023583293e-05
5.021295225e-05
5.020341444e-05
5.03231989e-05
5.029686698e-05
5.026015696e-05
5.021675561e-05
5.017107236e-05
5.012804187e-05
5.009266776e-05
5.006914363e-05
5.005921804e-05
5.018196884e-05
5.015519937e-05
5.011787367e-05
5.007373046e-05
5.00272379e-05
4.998339472e-05
4.994727378e-05
4.992314617e-05
4.991285471e-05
5.00383767e-05
5.001120214e-05
4.997330618e-05
4.99284753e-05
4.988123153e-05
4.983663238e-05
4.979981446e-05
4.977512097e-05
4.97644842e-05
4.989259382e-05
4.986504485e-05
4.982662155e-05
4.978115413e-05
4.973321392e-05
4.968791217e-05
4.965044406e-05
4.962521985e-05
4.961425689e-05
4.974478246e-05
4.971688803e-05
4.967797783e-05
4.963192201e-05
4.95833368e-05
4.953738243e-05
4.949930772e-05
4.947358535e-05
4.946231371e-05
4.959509611e-05
4.956688342e-05
4.952752429e-05
4.948092515e-05
4.943174296e-05
4.938518238e-05
4.934654128e-05
4.932035043e-05
4.930878582e-05
4.944367952e-05
4.941517403e-05
4.937540139e-05
4.932830087e-05
4.927856612e-05
4.923144193e-05
4.919227091e-05
4.916563802e-05
4.915379405e-05
4.929066866e-05
4.926189399e-05
4.922174061e-05
4.917417727e-05
4.912393048e-05
4.90762811e-05
4.903661246e-05
4.90095603e-05
4.899744813e-05
4.913619042e-05
4.91071682e-05
4.906666396e-05
4.901867269e-05
4.896795012e-05
4.891980927e-05
4.887967056e-05
4.885221765e-05
4.883984554e-05
4.898036197e-05
4.895111167e-05
4.891028328e-05
4.88618949e-05
4.881072795e-05
4.876212405e-05
4.872153739e-05
4.869369733e-05
4.868107024e-05
4.882328987e-05
4.879382853e-05
4.875269909e-05
4.870393976e-05
4.865235437e-05
4.860330975e-05
4.856229109e-05
4.85340719e-05
4.852119101e-05
4.866506872e-05
4.863541061e-05
4.859399909e-05
4.85448897e-05
4.849290551e-05
4.844343559e-05
4.840199386e-05
4.837339731e-05
4.83602596e-05
4.850577943e-05
4.84759356e-05
4.843425623e-05
4.838481154e-05
4.8332441e-05
4.828255337e-05
4.824068966e-05
4.821171066e-05
4.819830865e-05
4.834548694e-05
4.831546468e-05
4.827352622e-05
4.822375397e-05
4.817100137e-05
4.812069483e-05
4.807840167e-05
4.804902786e-05
4.803534951e-05
4.818423746e-05
4.815403976e-05
4.811184459e-05
4.806174451e-05
4.800860492e-05
4.795786862e-05
4.791512936e-05
4.788534095e-05
4.787136984e-05
4.80220552e-05
4.799168003e-05
4.794922329e-05
4.789878603e-05
4.784524429e-05
4.779405692e-05
4.775084543e-05
4.772061537e-05
4.770633126e-05
4.785893866e-05
4.782837827e-05
4.778564684e-05
4.77348529e-05
4.768088267e-05
4.762921185e-05
4.758549251e-05
4.755478724e-05
4.754016704e-05
4.769485646e-05
4.766409661e-05
4.762106817e-05
4.756988686e-05
4.751544979e-05
4.746325179e-05
4.741897993e-05
4.738776054e-05
4.737277981e-05
4.752974298e-05
4.749876223e-05
4.745540427e-05
4.740379283e-05
4.734883797e-05
4.729605776e-05
4.725118058e-05
4.72194047e-05
4.720403961e-05
4.736349384e-05
4.733226287e-05
4.728853191e-05
4.723643478e-05
4.718089831e-05
4.712747001e-05
4.708192815e-05
4.70495523e-05
4.703378215e-05
4.719596158e-05
4.71644426e-05
4.712028357e-05
4.7067632e-05
4.701143734e-05
4.695728526e-05
4.691101482e-05
4.68779975e-05
4.686180758e-05
4.702695176e-05
4.699509815e-05
4.695044402e-05
4.6897156e-05
4.684021448e-05
4.678525468e-05
4.673818991e-05
4.670449504e-05
4.668787983e-05
4.685621973e-05
4.682397594e-05
4.67787478e-05
4.672472858e-05
4.666694057e-05
4.6611083e-05
4.656315947e-05
4.652876023e-05
4.65117267e-05
4.668346854e-05
4.66507703e-05
4.660487794e-05
4.655002118e-05
4.649127801e-05
4.643442929e-05
4.638558745e-05
4.63504702e-05
4.63330409e-05
4.650834819e-05
4.647512326e-05
4.642846641e-05
4.637265607e-05
4.631284272e-05
4.625490953e-05
4.620509862e-05
4.616926665e-05
4.615148237e-05
4.633045688e-05
4.629662631e-05
4.624909665e-05
4.619220979e-05
4.613120843e-05
4.607210162e-05
4.602128369e-05
4.598476057e-05
4.596668216e-05
4.61493444e-05
4.611482448e-05
4.606630866e-05
4.600821937e-05
4.594591393e-05
4.588555316e-05
4.583370718e-05
4.57965393e-05
4.577824836e-05
4.596451836e-05
4.592922343e-05
4.587960709e-05
4.582019159e-05
4.575647339e-05
4.56947925e-05
4.564191826e-05
4.560417641e-05
4.558577448e-05
4.577545367e-05
4.573929979e-05
4.568847296e-05
4.562761606e-05