/*--------------------------------*- C++ -*----------------------------------*\
| =========                 |                                                 |
| \\      /  F ield         | OpenFOAM: The Open Source CFD Toolbox           |
|  \\    /   O peration     | Version:  2212                                  |
|   \\  /    A nd           | Website:  www.openfoam.com                      |
|    \\/     M anipulation  |                                                 |
\*---------------------------------------------------------------------------*/
FoamFile
{
    version     2.0;
    format      ascii;
    arch        "LSB;label=32;scalar=64";
    class       volScalarField;
    location    "20.00000000";
    object      C8H8;
}
// * * * * * * * * * * * * * * * * * * * * * * * * * * * * * * * * * * * * * //

dimensions      [0 0 0 0 0 0 0];

internalField   nonuniform List<scalar> 
3000
(
2.388635886e-25
2.683132383e-25
3.127515586e-25
3.719690508e-25
4.453649689e-25
5.309480072e-25
6.235636459e-25
7.119390829e-25
7.744428131e-25
8.968258303e-25
1.011468362e-24
1.184387547e-24
1.415332601e-24
1.704080607e-24
2.049029998e-24
2.444200374e-24
2.869570747e-24
3.246476605e-24
2.008917405e-24
2.283523655e-24
2.701684002e-24
3.269467474e-24
3.997108228e-24
4.895162136e-24
5.960116903e-24
7.132077863e-24
8.133964301e-24
3.826768355e-24
4.395509874e-24
5.274272748e-24
6.492819629e-24
8.094354088e-24
1.011954837e-23
1.255728767e-23
1.521208857e-23
1.735496005e-23
6.795885793e-24
7.901825444e-24
9.63752409e-24
1.209120143e-23
1.537832596e-23
1.959097915e-23
2.465865768e-23
3.003976197e-23
3.41703664e-23
1.168694555e-23
1.376301929e-23
1.706798761e-23
2.181285428e-23
2.825087885e-23
3.654420871e-23
4.644556692e-23
5.670660236e-23
6.429895692e-23
1.984130504e-23
2.365521935e-23
2.979744033e-23
3.871517786e-23
5.090518913e-23
6.660994706e-23
8.518021678e-23
1.040485038e-22
1.176634555e-22
3.35790753e-23
4.048162619e-23
5.169687189e-23
6.810594153e-23
9.062416491e-23
1.195757472e-22
1.535082392e-22
1.874823717e-22
2.115877998e-22
5.69199255e-23
6.927992183e-23
8.949231041e-23
1.192149376e-22
1.600758283e-22
2.124675823e-22
2.734303629e-22
3.338325235e-22
3.762158865e-22
9.682398834e-23
1.187817845e-22
1.548540403e-22
2.080705786e-22
2.812746384e-22
3.748908227e-22
4.832186093e-22
5.897631792e-22
6.639684241e-22
1.653505951e-22
2.041294448e-22
2.680382444e-22
3.625130792e-22
4.924769548e-22
6.583085461e-22
8.494095441e-22
1.036401448e-21
1.16598244e-21
2.833987209e-22
3.515817482e-22
4.641969958e-22
6.308856945e-22
8.601452311e-22
1.152155708e-21
1.487649409e-21
1.814747957e-21
2.040635275e-21
4.871997857e-22
6.066868762e-22
8.043394183e-22
1.097132641e-21
1.499726324e-21
2.011813356e-21
2.598870562e-21
3.169784338e-21
3.563094093e-21
8.395834383e-22
1.048463959e-21
1.394355088e-21
1.907007648e-21
2.611729528e-21
3.50719261e-21
4.532127946e-21
5.527072028e-21
6.211324282e-21
1.449531666e-21
1.814022925e-21
2.418043883e-21
3.313581418e-21
4.544368443e-21
6.107082136e-21
7.893681089e-21
9.625728261e-21
1.081542615e-20
2.506120642e-21
3.141302864e-21
4.194459142e-21
5.756253799e-21
7.902329014e-21
1.062560783e-20
1.373639529e-20
1.674928526e-20
1.881684847e-20
4.3374416e-21
5.443270168e-21
7.277467682e-21
9.997937639e-21
1.373560876e-20
1.847649013e-20
2.388851714e-20
2.912641061e-20
3.271833662e-20
7.512886458e-21
9.436731992e-21
1.262859885e-20
1.736322483e-20
2.386734258e-20
3.211439249e-20
4.152430767e-20
5.062634934e-20
5.686487968e-20
1.302070962e-20
1.636595811e-20
2.191711062e-20
3.015180982e-20
4.146277409e-20
5.580075296e-20
7.215396672e-20
8.796512895e-20
9.879798974e-20
2.257623559e-20
2.839084324e-20
3.804081702e-20
5.235597073e-20
7.201645065e-20
9.693211723e-20
1.25339963e-19
1.527958196e-19
1.716006e-19
3.91567547e-20
4.926057881e-20
6.60299592e-20
9.090552478e-20
1.250646836e-19
1.683434008e-19
2.176716955e-19
2.653296536e-19
2.97959996e-19
6.792953551e-20
8.548241935e-20
1.146151701e-19
1.578269544e-19
2.171544093e-19
2.922991775e-19
3.779173085e-19
4.606046634e-19
5.17198623e-19
1.178609303e-19
1.483480099e-19
1.989451975e-19
2.739841959e-19
3.769839717e-19
5.07400548e-19
6.559325871e-19
7.993166873e-19
8.974128147e-19
2.045051848e-19
2.574451825e-19
3.452960036e-19
4.755575253e-19
6.542999332e-19
8.805249622e-19
1.138043452e-18
1.386501882e-18
1.556397573e-18
3.548325511e-19
4.467366591e-19
5.992185615e-19
8.252457293e-19
1.13526522e-18
1.527427509e-18
1.973551968e-18
2.403686425e-18
2.697620088e-18
6.155768785e-19
7.750668083e-19
1.039613805e-18
1.431599932e-18
1.968951243e-18
2.648202431e-18
3.420286295e-18
4.164043004e-18
4.671861758e-18
1.067645472e-18
1.344291864e-18
1.803002369e-18
2.482323229e-18
3.412894053e-18
4.588141743e-18
5.922605311e-18
7.206657027e-18
8.08241764e-18
1.850941765e-18
2.330493244e-18
3.125265356e-18
4.3014559e-18
5.911173969e-18
7.94179729e-18
1.024443249e-17
1.245689259e-17
1.396374227e-17
3.207019083e-18
4.037569336e-18
5.413215397e-18
7.447241597e-18
1.022771162e-17
1.373011489e-17
1.769499261e-17
2.149769766e-17
2.408304592e-17
5.55215492e-18
6.988946653e-18
9.366861534e-18
1.287891114e-17
1.767274585e-17
2.370033769e-17
3.050956981e-17
3.70256195e-17
4.144598047e-17
9.602105603e-18
1.208391881e-17
1.618736473e-17
2.223951182e-17
3.048548298e-17
4.083058705e-17
5.248730399e-17
6.361156481e-17
7.113790536e-17
1.658423838e-17
2.086296545e-17
2.792895165e-17
3.833277403e-17
5.247643147e-17
7.017270515e-17
9.005113998e-17
1.089592801e-16
1.217111958e-16
2.859660747e-17
3.595573345e-17
4.809100886e-17
6.592188342e-17
9.009775602e-17
1.202487206e-16
1.53993881e-16
1.859678199e-16
2.074510811e-16
4.921269459e-17
6.183313615e-17
8.260783241e-17
1.130576639e-16
1.54212294e-16
2.053438731e-16
2.623268324e-16
3.160776091e-16
3.520382447e-16
8.449422165e-17
1.060620912e-16
1.414912633e-16
1.932692387e-16
2.629911353e-16
3.492352565e-16
4.448794348e-16
5.346410251e-16
5.944051139e-16
1.446771003e-16
1.813844552e-16
2.415356248e-16
3.291456264e-16
4.466141148e-16
5.911923141e-16
7.506458719e-16
8.994470023e-16
9.979954234e-16
2.469594567e-16
3.091360293e-16
4.107346279e-16
5.581367899e-16
7.548176131e-16
9.955295251e-16
1.259388748e-15
1.504099852e-15
1.665240562e-15
4.200795671e-16
5.248249262e-16
6.954296718e-16
9.418574636e-16
1.268886913e-15
1.666646982e-15
2.099761563e-15
2.4987819e-15
2.759941418e-15
7.117760556e-16
8.871568496e-16
1.171771063e-15
1.580857893e-15
2.120506411e-15
2.772451055e-15
3.47729999e-15
4.122124637e-15
4.541502806e-15
1.200847403e-15
1.49250887e-15
1.963917922e-15
2.637832907e-15
3.521072766e-15
4.580430482e-15
5.717195318e-15
6.749623458e-15
7.416765451e-15
2.016480735e-15
2.497929029e-15
3.272656012e-15
4.373715484e-15
5.806800965e-15
7.512648497e-15
9.328995561e-15
1.096646583e-14
1.201773649e-14
3.368955199e-15
4.157340541e-15
5.419953737e-15
7.203240229e-15
9.507430945e-15
1.222874418e-14
1.510355115e-14
1.767609366e-14
1.931713795e-14
5.597959714e-15
6.877985982e-15
8.917653947e-15
1.177964069e-14
1.544987974e-14
1.975005825e-14
2.425700965e-14
2.826069313e-14
3.079879636e-14
9.247899905e-15
1.130757734e-14
1.457235864e-14
1.912254473e-14
2.491320805e-14
3.164368588e-14
3.864299021e-14
4.481666082e-14
4.870706982e-14
1.518411993e-14
1.846756251e-14
2.364408427e-14
3.08093849e-14
3.98583734e-14
5.029327022e-14
6.10629553e-14
7.049770681e-14
7.640955669e-14
2.477050353e-14
2.995498561e-14
3.808411046e-14
4.925948233e-14
6.326624491e-14
7.929459468e-14
9.571723885e-14
1.100116881e-13
1.189213591e-13
4.013823225e-14
4.824544786e-14
6.088853281e-14
7.815240895e-14
9.96313872e-14
1.240297583e-13
1.488565471e-13
1.70335973e-13
1.836587018e-13
6.458866054e-14
7.714383349e-14
9.661963375e-14
1.230396906e-13
1.556787386e-13
1.924956433e-13
2.297178998e-13
2.617421252e-13
2.815167938e-13
1.031918456e-13
1.224493885e-13
1.52169087e-13
1.922333385e-13
2.413976654e-13
2.964928714e-13
3.518624919e-13
3.992568042e-13
4.284042981e-13
1.636683955e-13
1.929297296e-13
2.378677002e-13
2.980887791e-13
3.715258621e-13
4.53323598e-13
5.350791482e-13
6.047351868e-13
6.474188349e-13
2.576790113e-13
3.017377706e-13
3.690895407e-13
4.588474101e-13
5.676683295e-13
6.882047772e-13
8.080810089e-13
9.097921167e-13
9.719191492e-13
4.026974995e-13
4.684612724e-13
5.685593483e-13
7.012708884e-13
8.613096271e-13
1.037682787e-12
1.212309609e-12
1.359930164e-12
1.449848915e-12
6.246949719e-13
7.22042835e-13
8.696220335e-13
1.064362734e-12
1.298067263e-12
1.554456392e-12
1.807300524e-12
2.020349832e-12
2.149808685e-12
9.619731187e-13
1.104946979e-12
1.320905259e-12
1.604659899e-12
1.943704773e-12
2.314149901e-12
2.678188385e-12
2.984061193e-12
3.169536268e-12
1.470649833e-12
1.67909919e-12
1.992921654e-12
2.403679911e-12
2.89256132e-12
3.424791781e-12
3.946195485e-12
4.383207703e-12
4.647731769e-12
2.23241777e-12
2.534264127e-12
2.987359376e-12
3.578374866e-12
4.279354822e-12
5.04005282e-12
5.783249768e-12
6.404826738e-12
6.780504493e-12
3.36548544e-12
3.799833921e-12
4.450117299e-12
5.29575621e-12
6.29564983e-12
7.37767475e-12
8.432299706e-12
9.31272585e-12
9.844188513e-12
5.039941506e-12
5.661349057e-12
6.589527738e-12
7.793286713e-12
9.212764707e-12
1.074505362e-11
1.223547298e-11
1.34777741e-11
1.422691749e-11
7.49924483e-12
8.383565008e-12
9.701742634e-12
1.140722313e-11
1.341354248e-11
1.557465913e-11
1.767300807e-11
1.941974419e-11
2.047221836e-11
1.109016726e-11
1.234254058e-11
1.42059784e-11
1.661188428e-11
1.943628466e-11
2.247293523e-11
2.541693802e-11
2.786496124e-11
2.933905176e-11
1.630435531e-11
1.807011384e-11
2.069327911e-11
2.407387909e-11
2.803531785e-11
3.228761629e-11
3.640490944e-11
3.982551589e-11
4.188427616e-11
2.383579547e-11
2.631531593e-11
2.999373909e-11
3.472673359e-11
4.02642101e-11
4.620009184e-11
5.194136429e-11
5.670776256e-11
5.95755593e-11
3.465994482e-11
3.812883413e-11
4.32688101e-11
4.987319655e-11
5.758967526e-11
6.585166594e-11
7.383570879e-11
8.046037368e-11
8.444539697e-11
5.014221426e-11
5.497866545e-11
6.213750065e-11
7.132487814e-11
8.204679886e-11
9.351538397e-11
1.045901414e-10
1.137754484e-10
1.193002355e-10
7.218596378e-11
7.890769878e-11
8.884805285e-11
1.015918802e-10
1.164494803e-10
1.323286285e-10
1.476535906e-10
1.603601566e-10
1.680027963e-10
1.034332829e-10
1.127472187e-10
1.265101401e-10
1.441387857e-10
1.646739752e-10
1.866059592e-10
2.077627495e-10
2.253011428e-10
2.358505668e-10
1.475356551e-10
1.604042977e-10
1.794068126e-10
2.03727812e-10
2.320381329e-10
2.622566566e-10
2.913964219e-10
3.155493281e-10
3.30078939e-10
2.095161607e-10
2.27245737e-10
2.534102995e-10
2.868750336e-10
3.258042537e-10
3.673369635e-10
4.073750934e-10
4.405585657e-10
4.605233553e-10
2.962500887e-10
3.206065272e-10
3.565312124e-10
4.024511441e-10
4.558391588e-10
5.127727622e-10
5.676434215e-10
6.131173765e-10
6.404805757e-10
4.170964751e-10
4.504564697e-10
4.996363693e-10
5.624638697e-10
6.354706235e-10
7.132938287e-10
7.882785376e-10
8.504179995e-10
8.878140523e-10
5.84718776e-10
6.3026418e-10
6.973758524e-10
7.830642568e-10
8.825840495e-10
9.886250645e-10
1.090770815e-09
1.17541029e-09
1.226351406e-09
8.161379516e-10
8.781024818e-10
9.693642565e-10
1.085822791e-09
1.221006221e-09
1.364982204e-09
1.503624968e-09
1.618488446e-09
1.687621976e-09
1.134064824e-09
1.218042284e-09
1.341663404e-09
1.499322616e-09
1.682223093e-09
1.876918269e-09
2.064326806e-09
2.219554913e-09
2.312978097e-09
1.568559573e-09
1.68188228e-09
1.848612942e-09
2.061114826e-09
2.307474599e-09
2.569561323e-09
2.821713563e-09
3.03049698e-09
3.156134109e-09
2.159063456e-09
2.311258072e-09
2.535050065e-09
2.820073856e-09
3.150260476e-09
3.501272935e-09
3.838772558e-09
4.118096857e-09
4.286141413e-09
2.956840194e-09
3.160165487e-09
3.458949132e-09
3.83917845e-09
4.279276296e-09
4.746739707e-09
5.195873867e-09
5.56737527e-09
5.790796203e-09
4.027851113e-09
4.297918323e-09
4.69449568e-09
5.198725426e-09
5.781778464e-09
6.400487654e-09
6.994418198e-09
7.485342756e-09
7.780449871e-09
5.45606887e-09
5.812540386e-09
6.335587493e-09
6.99995985e-09
7.767351568e-09
8.580782255e-09
9.360852959e-09
1.000510376e-08
1.039216255e-08
7.347210035e-09
7.81456632e-09
8.499729001e-09
9.369077806e-09
1.037202312e-08
1.1433848e-08
1.245098016e-08
1.329022912e-08
1.379411079e-08
9.832838462e-09
1.044119716e-08
1.133225644e-08
1.246152907e-08
1.376264212e-08
1.51383132e-08
1.645445251e-08
1.753928629e-08
1.819013465e-08
1.307476177e-08
1.386072728e-08
1.501080276e-08
1.646651963e-08
1.814141206e-08
1.990976205e-08
2.159933243e-08
2.299039656e-08
2.38242909e-08
1.726961538e-08
1.827713269e-08
1.974988617e-08
2.161159145e-08
2.375044936e-08
2.600525935e-08
2.815657546e-08
2.992567848e-08
3.098526913e-08
2.26535058e-08
2.393468966e-08
2.580548803e-08
2.816714163e-08
3.087622687e-08
3.372770622e-08
3.644429569e-08
3.86754337e-08
4.001052853e-08
2.950656994e-08
3.112247989e-08
3.347947588e-08
3.645073762e-08
3.985376053e-08
4.342988724e-08
4.683167519e-08
4.96219435e-08
5.129003164e-08
3.81573023e-08
4.017863573e-08
4.312372836e-08
4.683108912e-08
5.10704057e-08
5.551808031e-08
5.974240058e-08
6.320277135e-08
6.526945708e-08
4.898650668e-08
5.149418605e-08
5.514382814e-08
5.973154978e-08
6.496914134e-08
7.045512096e-08
7.565753177e-08
7.99134586e-08
8.245280548e-08
6.243074394e-08
6.551637833e-08
7.000220317e-08
7.563303682e-08
8.205124737e-08
8.87628437e-08
9.511770197e-08
1.003095486e-07
1.034043107e-07
7.898516455e-08
8.27513706e-08
8.822061763e-08
9.507629246e-08
1.028783174e-07
1.110238125e-07
1.187246124e-07
1.250078771e-07
1.287496088e-07
9.920564118e-08
1.037662302e-07
1.103819907e-07
1.186634469e-07
1.280735293e-07
1.378823296e-07
1.471417834e-07
1.546871271e-07
1.59176198e-07
1.237101998e-07
1.291902069e-07
1.371314345e-07
1.470588106e-07
1.5832218e-07
1.700446877e-07
1.810945668e-07
1.90087678e-07
1.954331816e-07
1.531796352e-07
1.597152103e-07
1.69176545e-07
1.809889231e-07
1.943714524e-07
2.082786914e-07
2.213694698e-07
2.320107556e-07
2.383303206e-07
1.883573689e-07
1.960955277e-07
2.072869125e-07
2.212418155e-07
2.3702947e-07
2.534125087e-07
2.688128024e-07
2.813169269e-07
2.887364413e-07
2.300484949e-07
2.391467339e-07
2.522928759e-07
2.68665618e-07
2.871637083e-07
3.063328768e-07
3.243287064e-07
3.389239921e-07
3.475772491e-07
2.791181253e-07
2.897439685e-07
3.050836799e-07
3.241665386e-07
3.456987904e-07
3.679827237e-07
3.888766239e-07
4.05804336e-07
4.158326128e-07
3.364891647e-07
3.488196127e-07
3.666050215e-07
3.887062675e-07
4.136137404e-07
4.393582757e-07
4.634682764e-07
4.829818075e-07
4.945333873e-07
4.031395058e-07
4.173604122e-07
4.378560733e-07
4.632988824e-07
4.919387665e-07
5.215057221e-07
5.491642252e-07
5.715282008e-07
5.847578496e-07
4.800987405e-07
4.964041315e-07
5.198860602e-07
5.490073351e-07
5.817516519e-07
6.155175151e-07
6.470700922e-07
6.725594152e-07
6.876278236e-07
5.6844447e-07
5.870358231e-07
6.137904715e-07
6.469395983e-07
6.841738332e-07
7.225283831e-07
7.583325165e-07
7.872313691e-07
8.043045701e-07
6.692982996e-07
6.903837944e-07
7.207069913e-07
7.58244553e-07
8.003662455e-07
8.437111353e-07
8.841349246e-07
9.167357447e-07
9.359845169e-07
7.838216013e-07
8.076153565e-07
8.418112286e-07
8.841076984e-07
9.315250105e-07
9.80272332e-07
1.025693187e-06
1.062295634e-06
1.083894899e-06
9.132111243e-07
9.399324321e-07
9.783123221e-07
1.025746755e-06
1.078877041e-06
1.133447892e-06
1.184251228e-06
1.225161153e-06
1.249289379e-06
1.058694529e-06
1.088567097e-06
1.131448494e-06
1.184407233e-06
1.243675629e-06
1.304498698e-06
1.361076655e-06
1.406605088e-06
1.433443695e-06
1.221525914e-06
1.254777123e-06
1.302482616e-06
1.361358031e-06
1.427196075e-06
1.494706268e-06
1.557456458e-06
1.607918622e-06
1.637651415e-06
1.40298139e-06
1.439841578e-06
1.492697845e-06
1.557887112e-06
1.630731416e-06
1.705368525e-06
1.774692827e-06
1.830407192e-06
1.863219804e-06
1.60435477e-06
1.645056544e-06
1.703393383e-06
1.775297314e-06
1.85558829e-06
1.937795727e-06
2.014099139e-06
2.075386513e-06
2.111465884e-06
1.826953398e-06
1.871730982e-06
1.93588039e-06
2.014902328e-06
2.103082986e-06
2.193306576e-06
2.276996129e-06
2.344178803e-06
2.383712682e-06
2.072094175e-06
2.121182791e-06
2.191478104e-06
2.27802288e-06
2.37453769e-06
2.47322455e-06
2.564708282e-06
2.638109232e-06
2.68128571e-06
2.341099791e-06
2.394735091e-06
2.47151017e-06
2.565983132e-06
2.671276972e-06
2.778874455e-06
2.878560469e-06
2.958502604e-06
3.005509687e-06
2.6352952e-06
2.693712731e-06
2.777301219e-06
2.880107331e-06
2.994624512e-06
3.111579239e-06
3.219874821e-06
3.306680303e-06
3.357705506e-06
2.956004345e-06
3.019439062e-06
3.110173694e-06
3.221716713e-06
3.345900081e-06
3.472657049e-06
3.589967869e-06
3.683957479e-06
3.73918747e-06
3.304547141e-06
3.37323296e-06
3.471444938e-06
3.592126661e-06
3.726416783e-06
3.863418559e-06
3.990147941e-06
4.091640512e-06
4.151260778e-06
3.682236724e-06
3.756406118e-06
3.862424546e-06
3.992644129e-06
4.137478555e-06
4.285164546e-06
4.421712811e-06
4.531024712e-06
4.595219263e-06
4.090376959e-06
4.170260598e-06
4.284411969e-06
4.424565319e-06
4.580377925e-06
4.739183723e-06
4.885947604e-06
5.003392282e-06
5.072343388e-06
4.53026021e-06
4.616086635e-06
4.738694383e-06
4.889173612e-06
5.056394014e-06
5.226750817e-06
5.384122939e-06
5.510010515e-06
5.583898471e-06
5.003165356e-06
5.095160695e-06
5.226544792e-06
5.387737744e-06
5.56679078e-06
5.749124886e-06
5.917493309e-06
6.052130224e-06
6.131133145e-06
5.510356047e-06
5.608743767e-06
5.749220377e-06
5.921510208e-06
6.112815491e-06
6.307547854e-06
6.487295679e-06
6.630984384e-06
6.715278032e-06
6.053079194e-06
6.158079885e-06
6.307961059e-06
6.491725878e-06
6.695697411e-06
6.903243259e-06
7.094748289e-06
7.247786985e-06
7.337544615e-06
6.632563665e-06
6.744394854e-06
6.903988277e-06
7.099600841e-06
7.316646684e-06
7.537415201e-06
7.741049653e-06
7.903732069e-06
7.999124305e-06
7.250019189e-06
7.368895187e-06
7.538503959e-06
7.746331414e-06
7.976853415e-06
8.211247469e-06
8.42737774e-06
8.599992949e-06
8.701187679e-06
7.906635443e-06
8.032767217e-06
8.212689676e-06
8.433093348e-06
8.677486912e-06
8.92590284e-06
9.15488931e-06
9.337721581e-06
9.444883872e-06
8.603581315e-06
8.737176383e-06
8.927705959e-06
9.161041182e-06
9.419695096e-06
9.682522525e-06
9.924719407e-06
1.011804809e-05
1.023134012e-05
9.342004316e-06
9.483266666e-06
9.68469177e-06
9.931307757e-06
1.020460405e-05
1.048222577e-05
1.073798099e-05
1.094208043e-05
1.106166145e-05
1.012303014e-05
1.027216017e-05
1.048476411e-05
1.074500385e-05
1.103331769e-05
1.132610954e-05
1.159576467e-05
1.181090414e-05
1.193693044e-05
1.094776237e-05
1.110495684e-05
1.132901777e-05
1.160321796e-05
1.190691758e-05
1.221524842e-05
1.249913859e-05
1.272558227e-05
1.285820712e-05
1.181728224e-05
1.198273425e-05
1.221852512e-05
1.250701614e-05
1.282646281e-05
1.315069446e-05
1.344914837e-05
1.36871553e-05
1.382652901e-05
1.273264861e-05
1.290654759e-05
1.315433612e-05
1.345744201e-05
1.379299002e-05
1.413347724e-05
1.444681715e-05
1.469664127e-05
1.484291114e-05
1.369489788e-05
1.387742959e-05
1.413747833e-05
1.445551678e-05
1.480751343e-05
1.516460398e-05
1.549314572e-05
1.575503584e-05
1.590834619e-05
1.470504416e-05
1.489639069e-05
1.516895696e-05
1.550223936e-05
1.587102505e-05
1.624505968e-05
1.658911268e-05
1.686331256e-05
1.702380475e-05
1.576407934e-05
1.596441915e-05
1.624975514e-05
1.65985866e-05
1.698449482e-05
1.737580735e-05
1.773567469e-05
1.802242306e-05
1.819023552e-05
1.687297336e-05
1.708248131e-05
1.738083407e-05
1.774551349e-05
1.814887091e-05
1.855778828e-05
1.893376679e-05
1.92332974e-05
1.940856565e-05
1.803267444e-05
1.825152179e-05
1.856313333e-05
1.894395347e-05
1.936508e-05
1.979192238e-05
2.018430267e-05
2.049684437e-05
2.067970106e-05
1.924410938e-05
1.947246388e-05
1.97975712e-05
2.019481875e-05
2.063402766e-05
2.10791085e-05
2.148817508e-05
2.181395186e-05
2.200452684e-05
2.050818391e-05
2.074620983e-05
2.108504502e-05
2.149900068e-05
2.195659865e-05
2.242022483e-05
2.284625618e-05
2.318548728e-05
2.338390761e-05
2.182578308e-05
2.207364126e-05
2.242643153e-05
2.285737012e-05
2.33336574e-05
2.381612928e-05
2.425939798e-05
2.461229797e-05
2.481868798e-05
2.319777162e-05
2.345561953e-05
2.382258733e-05
2.427077789e-05
2.476604836e-05
2.526765995e-05
2.572843275e-05
2.609521158e-05
2.630969293e-05
2.462499437e-05
2.489298618e-05
2.527434927e-05
2.574005513e-05
2.625459646e-05
2.67756355e-05
2.725417346e-05
2.763503658e-05
2.785772831e-05
2.610827672e-05
2.638656333e-05
2.678253488e-05
2.726601381e-05
2.780010755e-05
2.834085563e-05
2.883741421e-05
2.923256266e-05
2.946358123e-05
2.764842502e-05
2.793715414e-05
2.83479428e-05
2.884944711e-05
2.940336881e-05
2.996410154e-05
3.047893072e-05
3.088856121e-05
3.112802056e-05
2.924622703e-05
2.954554327e-05
2.997135327e-05
3.049112988e-05
3.106514924e-05
3.164613631e-05
3.217948074e-05
3.260378573e-05
3.285179734e-05
3.090245238e-05
3.121249728e-05
3.165352851e-05
3.219181914e-05
3.278620009e-05
3.338770544e-05
3.39398045e-05
3.437897232e-05
3.463564528e-05
3.261785301e-05
3.29387651e-05
3.339521324e-05
3.395225444e-05
3.45672553e-05
3.518953725e-05
3.576062518e-05
3.621484012e-05
3.648028113e-05
3.439316359e-05
3.472507849e-05
3.519713505e-05
3.577315836e-05
3.640903197e-05
3.705234329e-05
3.764264934e-05
3.811209172e-05
3.838640522e-05
3.6229102e-05
3.657215245e-05
3.70600049e-05
3.765523694e-05
3.831223075e-05
3.897681885e-05
3.958656736e-05
4.007141364e-05
4.03547018e-05
3.812636973e-05
3.848068567e-05
3.89845175e-05
3.95991801e-05
4.02775363e-05
4.096364333e-05
4.159305385e-05
4.209347671e-05
4.23858395e-05
4.008565233e-05
4.045136094e-05
4.097135179e-05
4.160566208e-05
4.230561773e-05
4.301348067e-05
4.366276808e-05
4.417893651e-05
4.448047178e-05
4.210761978e-05
4.24848456e-05
4.302117128e-05
4.367534181e-05
4.439712897e-05
4.512697977e-05
4.579635438e-05
4.632843377e-05
4.663923727e-05
4.419292699e-05
4.45817919e-05
4.513462455e-05
4.580886338e-05
4.655270917e-05
4.73047749e-05
4.799444255e-05
4.854259477e-05
4.886276021e-05
4.634221407e-05
4.674283742e-05
4.731234556e-05
4.800685636e-05
4.877298314e-05
4.954748606e-05
5.025764822e-05
5.08220317e-05
5.115165078e-05
4.855610683e-05
4.896860545e-05
4.955495405e-05
5.026993624e-05
5.105856169e-05
5.185571934e-05
5.258657324e-05
5.316734306e-05
5.350650556e-05
5.083521703e-05
5.125970532e-05
5.186305592e-05
5.259870474e-05
5.341004195e-05
5.423006736e-05
5.498180606e-05
5.557911401e-05
5.592790777e-05
5.318014282e-05
5.36167328e-05
5.423724354e-05
5.499375011e-05
5.582800774e-05
5.667110942e-05
5.744392196e-05
5.805791666e-05
5.84164277e-05
5.559146917e-05
5.604027049e-05
5.667809621e-05
5.745564767e-05
5.831302998e-05
5.917941208e-05
5.997348348e-05
6.060431041e-05
6.097262292e-05
5.806976814e-05
5.853088817e-05
5.918618047e-05
5.998496004e-05
6.0865667e-05
6.175552937e-05
6.257104078e-05
6.321884233e-05
6.359703872e-05
6.061559922e-05
6.108914309e-05
6.176205039e-05
6.258223746e-05
6.348646486e-05
6.440000315e-05
6.523713188e-05
6.590204746e-05
6.629020841e-05
6.322950953e-05
6.371558018e-05
6.440624782e-05
6.524801802e-05
6.617595754e-05
6.711336332e-05
6.797228299e-05
6.865444908e-05
6.905265357e-05
6.591203421e-05
6.641073243e-05
6.711930273e-05
6.798282803e-05
6.893466737e-05
6.989612819e-05
7.077700878e-05
7.1476559e-05
7.188488435e-05
6.866369669e-05
6.917512118e-05
6.990173347e-05
7.078718226e-05
7.176310519e-05
7.27488047e-05
7.365181263e-05
7.436887779e-05
7.47873997e-05
7.148500896e-05
7.200925636e-05
7.275404709e-05
7.366158424e-05
7.46617707e-05
7.567188868e-05
7.659718688e-05
7.733189505e-05
7.776068762e-05
7.437647184e-05
7.491363679e-05
7.567673954e-05
7.660652648e-05
7.763115264e-05
7.866586512e-05
7.96136131e-05
8.036608965e-05
8.080522543e-05
7.733857523e-05
7.788875037e-05
7.867029594e-05
7.962249072e-05
8.067172904e-05
8.173120836e-05
8.270156226e-05
8.347192993e-05
8.392147991e-05
8.037179832e-05
8.093507435e-05
8.173519079e-05
8.270994814e-05
8.378396746e-05
8.48683823e-05
8.586149498e-05
8.664987389e-05
8.710990759e-05
8.347660978e-05
8.40530755e-05
8.487188817e-05
8.586935954e-05
8.696832515e-05
8.807784061e-05
8.909386167e-05
8.99003694e-05
9.037095483e-05
8.665346802e-05
8.724321034e-05
8.808084192e-05
8.910117556e-05
9.022524919e-05
9.136002688e-05
9.239910272e-05
9.32238543e-05
9.370505802e-05
8.990282126e-05
9.050592525e-05
9.136249582e-05
9.240583678e-05
9.355517671e-05
9.471537473e-05
9.577764858e-05
9.662075658e-05
9.71126437e-05
9.322510775e-05
9.384165663e-05
9.471728366e-05
9.578377388e-05
9.695853493e-05
9.814430794e-05
9.922991991e-05
0.0001000914944
0.0001005941286
9.662075585e-05
9.725083102e-05
9.814562941e-05
9.923540768e-05
0.0001004357413
0.0001016472405
0.0001027563276
0.0001036364762
0.0001041499197
0.0001000901841
0.0001007338651
0.0001016479472
0.0001027611492
0.0001039872034
0.0001052245766
0.0001063572727
0.0001072561005
0.0001077804142
0.0001036338012
0.0001042911659
0.0001052246414
0.0001063613997
0.000107613319
0.0001088767107
0.0001100331464
0.0001109507562
0.0001114859993
0.000107252006
0.0001079231303
0.0001088761065
0.0001100365505
0.0001113144761
0.000112604027
0.0001137843299
0.0001147208218
0.0001152670524
0.0001109451874
0.0001116301455
0.0001126027268
0.0001137869828
0.0001150910522
0.0001164068997
0.0001176111941
0.0001185666657
0.0001191239401
0.0001147137242
0.0001154125881
0.0001164048765
0.0001176130673
0.0001189434145
0.0001202856923
0.0001215140991
0.0001224886453
0.0001230570182
0.0001185579844
0.0001192708245
0.0001202829189
0.0001215151641
0.0001228719193
0.000124240757
0.0001254933936
0.0001264871064
0.0001270666311
0.0001224783252
0.0001232052096
0.000124237206
0.0001254936214
0.0001268769106
0.0001282724341
0.000129549414
0.0001305623824
0.0001311531102
0.0001264750917
0.0001272160862
0.0001282680776
0.0001295487751
0.0001309587202
0.0001323810505
0.0001336824832
0.0001347147928
0.0001353167732
0.0001305486161
0.0001313037843
0.00013237586
0.0001336809472
0.000135117665
0.0001365669186
0.0001378929088
0.0001389446417
0.0001395579219
0.0001346992163
0.0001354686188
0.0001365608643
0.000137890444
0.0001393540462
0.0001408303337
0.0001421809812
0.0001432522151
0.0001438768398
0.0001389271936
0.0001397108882
0.0001408233845
0.0001421775541
0.000143668146
0.0001451715717
0.00014654697
0.0001476377778
0.0001482737888
0.0001432328305
0.0001440308713
0.0001451636944
0.0001465425447
0.0001480602244
0.0001495908852
0.0001509911208
0.0001521015697
0.0001527490054
0.000147616387
0.0001484288238
0.0001495820434
0.0001509856578
0.0001525305148
0.0001540884984
0.0001555136495
0.0001566437996
0.0001573026942
0.0001520780957
0.0001529049735
0.0001540786522
0.0001555071048
0.0001570792181
0.0001586646016
0.0001601147359
0.000161264639
0.0001619350217
0.0001566181567
0.0001574595141
0.0001586537054
0.0001601070591
0.0001617064953
0.0001633193423
0.000164794515
0.0001659642125
0.0001666461063
0.000161236729
0.0001620925971
0.0001633073437
0.0001647856478
0.0001664124574
0.0001680528153
0.000169553066
0.0001707425866
0.0001714360067
0.0001659339212
0.0001668043219
0.0001680396527
0.0001695429395
0.0001711971539
0.0001728650496
0.0001743903986
0.0001755997549
0.0001763047072
0.0001707097791
0.0001715947226
0.0001728506499
0.0001743789303
0.0001760605567
0.0001777559918
0.0001793064353
0.0001805356203
0.0001812520984
0.0001755642703
0.0001764637523
0.0001777402672
0.000179293526
0.0001810025415
0.0001827254861
0.0001843009901
0.000185549972
0.0001862779549
0.0001804972647
0.000181411263
0.0001827083305
0.0001842865195
0.0001860228637
0.0001877732485
0.000189373742
0.0001906424582
0.0001913819065
0.0001855085117
0.0001864369816
0.0001877545342
0.0001893575644
0.0001911211304
0.0001928988376
0.000194524203
0.0001958125531
0.0001965634042
0.0001905976111
0.0001915404803
0.0001928784102
0.0001945061423
0.0001962967658
0.0001981016174
0.0001997516801
0.0002010595168
0.0002018216804
0.0001957639801
0.0001967211419
0.0001980792921
0.0001997315247
0.0002015489708
0.0002033807151
0.0002050552309
0.0002063823495
0.0002071557008
0.0002010068127
0.0002019781191
0.0002033562717
0.0002050327279
0.000206876676
0.0002087349717
0.0002104336114
0.0002117797378
0.0002125641105
0.0002063250345
0.0002073102866
0.0002087081507
0.0002104084621
0.0002122784876
0.0002141628852
0.0002158852173
0.000217249994
0.0002180451715
0.0002117172491
0.0002127161873
0.0002141333842
0.0002158570726
0.0002177526267
0.0002196625475
0.0002214080186
0.0002227909882
0.0002235966948
0.0002171816798
0.0002181939722
0.0002196300183
0.0002213764754
0.0002232968619
0.0002252315741
0.0002269994868
0.0002284000749
0.0002292159647
0.0002227161041
0.0002237413332
0.0002251956221
0.0002269640863
0.0002289084365
0.0002308670295
0.0002326565182
0.0002340740136
0.0002348996594
0.0002283177831
0.0002293554323
0.0002308272142
0.0002326167463
0.000234583991
0.0002365653473
0.0002383753524
0.0002398088867
0.0002406437678
0.0002339833877
0.000235032826
0.0002365211861
0.0002383306423
0.0002403194831
0.0002423222489
0.00024415149
0.0002456000158
0.0002464435055
0.0002397089194
0.0002407693861
0.0002422732236
0.0002441012295
0.0002461101082
0.0002481326622
0.0002499796106
0.0002514418803
0.0002522932335
0.0002454896338
0.0002465602225
0.0002480782275
0.0002499231505
0.0002519502208
0.0002539906463
0.0002558534966
0.0002573280408
0.0002581863816
0.000251319965
0.0002523996082
0.0002539302398
0.0002557901635
0.0002578332622
0.0002598893178
0.0002617659646
0.000263251072
0.0002641153825
0.0002571934558
0.0002582809105
0.0002598223772
0.0002616950767
0.0002637516973
0.0002658207923
0.0002677088072
0.000269202508
0.0002700716181
0.0002631026965
0.0002641965318
0.0002657467735
0.000267629695
0.0002696969665
0.0002717761394
0.0002736727521
0.0002751728047
0.0002760453851
0.0002690392771
0.0002701378637
0.0002716945381
0.0002735847828
0.0002756594528
0.0002777453561
0.0002796474427
0.0002811513238
0.0002820258813
0.0002749937547
0.0002760952586
0.0002776557321
0.0002795500463
0.000281628472
0.0002837173646
0.0002856214414
0.0002871263436
0.0002880012197
0.0002809556428
0.0002820580221
0.000283619367