/*--------------------------------*- C++ -*----------------------------------*\
| =========                 |                                                 |
| \\      /  F ield         | OpenFOAM: The Open Source CFD Toolbox           |
|  \\    /   O peration     | Version:  2212                                  |
|   \\  /    A nd           | Website:  www.openfoam.com                      |
|    \\/     M anipulation  |                                                 |
\*---------------------------------------------------------------------------*/
FoamFile
{
    version     2.0;
    format      ascii;
    arch        "LSB;label=32;scalar=64";
    class       volScalarField;
    location    "20.00000000";
    object      C8H8_0;
}
// * * * * * * * * * * * * * * * * * * * * * * * * * * * * * * * * * * * * * //

dimensions      [0 0 0 0 0 0 0];

internalField   nonuniform List<scalar> 
3000
(
2.388637718e-25
2.683132511e-25
3.127512385e-25
3.719681857e-25
4.453633457e-25
5.30945495e-25
6.235602722e-25
7.119350382e-25
7.744383922e-25
8.968263594e-25
1.011468236e-24
1.184386179e-24
1.415329268e-24
1.704074651e-24
2.049021123e-24
2.444188797e-24
2.869556905e-24
3.246460898e-24
2.008918224e-24
2.283523102e-24
2.701680933e-24
3.269460589e-24
3.997096591e-24
4.895145789e-24
5.960096571e-24
7.132052779e-24
8.13393215e-24
3.826769532e-24
4.395508998e-24
5.274268231e-24
6.492809915e-24
8.094338604e-24
1.011952783e-23
1.255725972e-23
1.521203715e-23
1.735486568e-23
6.795887799e-24
7.901825195e-24
9.637519952e-24
1.209119202e-23
1.537831087e-23
1.959095657e-23
2.465861e-23
3.003963318e-23
3.417011271e-23
1.168694914e-23
1.376302121e-23
1.706798662e-23
2.181284922e-23
2.82508697e-23
3.65441997e-23
4.644557741e-23
5.6706686e-23
6.42991624e-23
1.984131066e-23
2.365522466e-23
2.979744509e-23
3.871518198e-23
5.090519269e-23
6.660995107e-23
8.518022888e-23
1.040485484e-22
1.176635507e-22
3.357908238e-23
4.048163437e-23
5.169688212e-23
6.810595513e-23
9.062418337e-23
1.195757713e-22
1.535082697e-22
1.874824118e-22
2.115878513e-22
5.691993242e-23
6.927993063e-23
8.949232254e-23
1.19214955e-22
1.600758528e-22
2.124676151e-22
2.734304029e-22
3.338325688e-22
3.762159348e-22
9.682399329e-23
1.187817912e-22
1.548540499e-22
2.080705927e-22
2.812746584e-22
3.748908485e-22
4.832186392e-22
5.897632106e-22
6.639684552e-22
1.653505969e-22
2.041294476e-22
2.680382489e-22
3.625130862e-22
4.924769647e-22
6.583085582e-22
8.494095569e-22
1.036401459e-21
1.16598245e-21
2.833987197e-22
3.515817471e-22
4.641969949e-22
6.308856943e-22
8.601452317e-22
1.152155709e-21
1.487649408e-21
1.814747955e-21
2.040635272e-21
4.871997823e-22
6.066868723e-22
8.043394139e-22
1.097132637e-21
1.49972632e-21
2.01181335e-21
2.598870555e-21
3.16978433e-21
3.563094086e-21
8.395834338e-22
1.048463954e-21
1.394355082e-21
1.907007642e-21
2.611729522e-21
3.507192603e-21
4.532127939e-21
5.527072022e-21
6.211324278e-21
1.449531661e-21
1.814022919e-21
2.418043877e-21
3.313581414e-21
4.544368438e-21
6.107082131e-21
7.893681084e-21
9.625728259e-21
1.081542615e-20
2.506120638e-21
3.141302859e-21
4.194459138e-21
5.756253798e-21
7.902329013e-21
1.062560783e-20
1.373639529e-20
1.674928526e-20
1.881684847e-20
4.337441597e-21
5.443270164e-21
7.277467682e-21
9.997937642e-21
1.373560876e-20
1.847649013e-20
2.388851715e-20
2.912641062e-20
3.271833664e-20
7.512886455e-21
9.43673199e-21
1.262859885e-20
1.736322484e-20
2.386734259e-20
3.21143925e-20
4.152430768e-20
5.062634936e-20
5.686487972e-20
1.302070962e-20
1.636595811e-20
2.191711062e-20
3.015180982e-20
4.14627741e-20
5.580075298e-20
7.215396676e-20
8.7965129e-20
9.879798982e-20
2.257623558e-20
2.839084325e-20
3.804081703e-20
5.235597074e-20
7.201645066e-20
9.693211727e-20
1.253399631e-19
1.527958196e-19
1.716006001e-19
3.91567547e-20
4.926057884e-20
6.602995922e-20
9.090552479e-20
1.250646837e-19
1.683434009e-19
2.176716956e-19
2.653296538e-19
2.979599962e-19
6.79295355e-20
8.54824194e-20
1.146151701e-19
1.578269545e-19
2.171544094e-19
2.922991776e-19
3.779173086e-19
4.606046635e-19
5.171986234e-19
1.178609303e-19
1.4834801e-19
1.989451975e-19
2.739841959e-19
3.769839718e-19
5.074005481e-19
6.559325871e-19
7.993166875e-19
8.974128153e-19
2.045051848e-19
2.574451825e-19
3.452960035e-19
4.755575251e-19
6.542999331e-19
8.805249621e-19
1.138043452e-18
1.386501882e-18
1.556397574e-18
3.548325509e-19
4.467366588e-19
5.992185612e-19
8.25245729e-19
1.13526522e-18
1.527427509e-18
1.973551968e-18
2.403686425e-18
2.697620089e-18
6.15576878e-19
7.750668076e-19
1.039613804e-18
1.431599932e-18
1.968951242e-18
2.64820243e-18
3.420286293e-18
4.164043003e-18
4.671861759e-18
1.067645471e-18
1.344291862e-18
1.803002368e-18
2.482323229e-18
3.412894052e-18
4.588141741e-18
5.922605308e-18
7.206657025e-18
8.082417642e-18
1.850941763e-18
2.330493242e-18
3.125265354e-18
4.301455899e-18
5.911173967e-18
7.941797286e-18
1.024443249e-17
1.245689258e-17
1.396374228e-17
3.20701908e-18
4.037569333e-18
5.413215394e-18
7.447241594e-18
1.022771161e-17
1.373011488e-17
1.76949926e-17
2.149769765e-17
2.408304593e-17
5.552154915e-18
6.988946647e-18
9.366861529e-18
1.287891113e-17
1.767274584e-17
2.370033767e-17
3.05095698e-17
3.702561948e-17
4.144598047e-17
9.602105594e-18
1.20839188e-17
1.618736472e-17
2.22395118e-17
3.048548297e-17
4.083058702e-17
5.248730396e-17
6.361156478e-17
7.113790537e-17
1.658423836e-17
2.086296544e-17
2.792895163e-17
3.8332774e-17
5.247643143e-17
7.01727051e-17
9.005113993e-17
1.0895928e-16
1.217111958e-16
2.859660744e-17
3.595573342e-17
4.809100882e-17
6.592188337e-17
9.009775596e-17
1.202487205e-16
1.539938809e-16
1.859678199e-16
2.074510811e-16
4.921269453e-17
6.183313611e-17
8.260783235e-17
1.130576639e-16
1.542122939e-16
2.05343873e-16
2.623268322e-16
3.16077609e-16
3.520382449e-16
8.449422156e-17
1.060620911e-16
1.414912632e-16
1.932692385e-16
2.629911351e-16
3.492352562e-16
4.448794345e-16
5.346410249e-16
5.944051141e-16
1.446771001e-16
1.813844551e-16
2.415356246e-16
3.291456262e-16
4.466141145e-16
5.911923138e-16
7.506458715e-16
8.994470021e-16
9.979954239e-16
2.469594565e-16
3.091360291e-16
4.107346277e-16
5.581367897e-16
7.548176128e-16
9.955295247e-16
1.259388747e-15
1.504099852e-15
1.665240563e-15
4.200795668e-16
5.24824926e-16
6.954296716e-16
9.418574634e-16
1.268886913e-15
1.666646982e-15
2.099761562e-15
2.4987819e-15
2.75994142e-15
7.117760551e-16
8.871568493e-16
1.171771063e-15
1.580857893e-15
2.12050641e-15
2.772451055e-15
3.477299989e-15
4.122124638e-15
4.54150281e-15
1.200847402e-15
1.49250887e-15
1.963917921e-15
2.637832906e-15
3.521072765e-15
4.580430481e-15
5.717195317e-15
6.749623459e-15
7.416765457e-15
2.016480734e-15
2.497929028e-15
3.27265601e-15
4.373715482e-15
5.806800963e-15
7.512648494e-15
9.328995559e-15
1.096646583e-14
1.20177365e-14
3.368955196e-15
4.157340538e-15
5.419953734e-15
7.203240227e-15
9.507430942e-15
1.222874417e-14
1.510355115e-14
1.767609366e-14
1.931713796e-14
5.59795971e-15
6.877985978e-15
8.917653943e-15
1.177964069e-14
1.544987974e-14
1.975005824e-14
2.425700965e-14
2.826069314e-14
3.079879639e-14
9.247899898e-15
1.130757734e-14
1.457235863e-14
1.912254472e-14
2.491320804e-14
3.164368588e-14
3.864299021e-14
4.481666084e-14
4.870706987e-14
1.518411993e-14
1.84675625e-14
2.364408426e-14
3.08093849e-14
3.985837339e-14
5.02932702e-14
6.106295529e-14
7.049770685e-14
7.640955677e-14
2.477050352e-14
2.99549856e-14
3.808411045e-14
4.925948233e-14
6.32662449e-14
7.929459467e-14
9.571723885e-14
1.100116882e-13
1.189213593e-13
4.013823224e-14
4.824544784e-14
6.08885328e-14
7.815240895e-14
9.963138718e-14
1.240297583e-13
1.488565471e-13
1.703359731e-13
1.83658702e-13
6.458866052e-14
7.714383349e-14
9.661963377e-14
1.230396906e-13
1.556787385e-13
1.924956433e-13
2.297178999e-13
2.617421255e-13
2.815167943e-13
1.031918456e-13
1.224493886e-13
1.521690871e-13
1.922333385e-13
2.413976654e-13
2.964928715e-13
3.518624921e-13
3.992568047e-13
4.284042989e-13
1.636683955e-13
1.929297296e-13
2.378677003e-13
2.980887792e-13
3.715258622e-13
4.533235982e-13
5.350791486e-13
6.047351877e-13
6.47418836e-13
2.576790114e-13
3.017377708e-13
3.690895409e-13
4.588474103e-13
5.676683297e-13
6.882047776e-13
8.080810097e-13
9.097921183e-13
9.719191511e-13
4.026974996e-13
4.684612726e-13
5.685593488e-13
7.012708889e-13
8.613096278e-13
1.037682788e-12
1.212309611e-12
1.359930167e-12
1.449848918e-12
6.246949723e-13
7.220428356e-13
8.696220344e-13
1.064362736e-12
1.298067265e-12
1.554456394e-12
1.807300526e-12
2.020349837e-12
2.149808691e-12
9.619731196e-13
1.104946981e-12
1.32090526e-12
1.604659901e-12
1.943704776e-12
2.314149905e-12
2.678188389e-12
2.984061201e-12
3.169536277e-12
1.470649834e-12
1.679099193e-12
1.992921657e-12
2.403679915e-12
2.892561325e-12
3.424791787e-12
3.946195493e-12
4.383207716e-12
4.647731782e-12
2.232417773e-12
2.534264132e-12
2.987359381e-12
3.578374873e-12
4.27935483e-12
5.04005283e-12
5.783249782e-12
6.404826758e-12
6.780504513e-12
3.365485445e-12
3.799833928e-12
4.450117307e-12
5.295756221e-12
6.295649843e-12
7.377674765e-12
8.432299726e-12
9.312725879e-12
9.844188543e-12
5.039941514e-12
5.661349069e-12
6.589527751e-12
7.793286731e-12
9.212764729e-12
1.074505364e-11
1.223547301e-11
1.347777414e-11
1.422691753e-11
7.499244843e-12
8.383565026e-12
9.701742655e-12
1.140722316e-11
1.341354251e-11
1.557465916e-11
1.767300811e-11
1.941974425e-11
2.047221842e-11
1.109016728e-11
1.234254061e-11
1.420597843e-11
1.661188432e-11
1.94362847e-11
2.247293528e-11
2.541693809e-11
2.786496134e-11
2.933905185e-11
1.630435534e-11
1.807011388e-11
2.069327916e-11
2.407387915e-11
2.803531791e-11
3.228761635e-11
3.640490953e-11
3.982551602e-11
4.188427629e-11
2.383579551e-11
2.631531599e-11
2.999373916e-11
3.472673366e-11
4.026421019e-11
4.620009194e-11
5.194136441e-11
5.670776275e-11
5.957555948e-11
3.465994489e-11
3.812883422e-11
4.326881019e-11
4.987319666e-11
5.758967539e-11
6.585166608e-11
7.383570898e-11
8.046037394e-11
8.444539722e-11
5.014221435e-11
5.497866557e-11
6.213750078e-11
7.132487829e-11
8.204679903e-11
9.351538416e-11
1.045901417e-10
1.137754488e-10
1.193002359e-10
7.218596389e-11
7.890769893e-11
8.884805303e-11
1.015918804e-10
1.164494806e-10
1.323286288e-10
1.476535909e-10
1.603601571e-10
1.680027967e-10
1.034332831e-10
1.127472189e-10
1.265101404e-10
1.44138786e-10
1.646739754e-10
1.866059595e-10
2.0776275e-10
2.253011435e-10
2.358505675e-10
1.475356553e-10
1.60404298e-10
1.794068129e-10
2.037278123e-10
2.320381333e-10
2.622566571e-10
2.913964225e-10
3.15549329e-10
3.300789399e-10
2.09516161e-10
2.272457374e-10
2.534103e-10
2.86875034e-10
3.258042543e-10
3.673369642e-10
4.073750943e-10
4.405585669e-10
4.605233565e-10
2.96250089e-10
3.206065277e-10
3.56531213e-10
4.024511448e-10
4.558391595e-10
5.12772763e-10
5.676434228e-10
6.131173783e-10
6.404805774e-10
4.170964756e-10
4.504564705e-10
4.996363702e-10
5.624638707e-10
6.354706246e-10
7.132938299e-10
7.882785394e-10
8.504180021e-10
8.878140546e-10
5.847187768e-10
6.302641812e-10
6.973758537e-10
7.830642583e-10
8.82584051e-10
9.886250662e-10
1.090770818e-09
1.175410293e-09
1.22635141e-09
8.161379528e-10
8.781024836e-10
9.693642585e-10
1.085822794e-09
1.221006224e-09
1.364982206e-09
1.503624972e-09
1.618488451e-09
1.687621981e-09
1.134064826e-09
1.218042286e-09
1.341663406e-09
1.499322619e-09
1.682223096e-09
1.876918272e-09
2.064326812e-09
2.21955492e-09
2.312978103e-09
1.568559576e-09
1.681882284e-09
1.848612946e-09
2.06111483e-09
2.307474603e-09
2.569561329e-09
2.82171357e-09
3.03049699e-09
3.156134118e-09
2.159063459e-09
2.311258078e-09
2.535050071e-09
2.820073862e-09
3.150260482e-09
3.501272943e-09
3.838772569e-09
4.118096872e-09
4.286141427e-09
2.956840199e-09
3.160165494e-09
3.458949141e-09
3.839178459e-09
4.279276305e-09
4.746739719e-09
5.195873883e-09
5.567375291e-09
5.790796222e-09
4.02785112e-09
4.297918334e-09
4.694495692e-09
5.198725438e-09
5.781778479e-09
6.400487671e-09
6.994418221e-09
7.485342785e-09
7.780449897e-09
5.456068881e-09
5.812540401e-09
6.335587511e-09
6.999959868e-09
7.767351588e-09
8.580782278e-09
9.36085299e-09
1.00051038e-08
1.039216258e-08
7.34721005e-09
7.814566342e-09
8.499729025e-09
9.369077833e-09
1.037202315e-08
1.143384803e-08
1.24509802e-08
1.329022918e-08
1.379411083e-08
9.832838484e-09
1.044119719e-08
1.133225648e-08
1.246152911e-08
1.376264216e-08
1.513831325e-08
1.645445256e-08
1.753928636e-08
1.819013471e-08
1.30747618e-08
1.386072732e-08
1.501080281e-08
1.646651968e-08
1.814141211e-08
1.990976211e-08
2.159933251e-08
2.299039666e-08
2.382429099e-08
1.726961542e-08
1.827713275e-08
1.974988624e-08
2.161159152e-08
2.375044943e-08
2.600525943e-08
2.815657556e-08
2.99256786e-08
3.098526924e-08
2.265350585e-08
2.393468974e-08
2.580548811e-08
2.816714172e-08
3.087622697e-08
3.372770632e-08
3.644429582e-08
3.867543386e-08
4.001052867e-08
2.950657001e-08
3.112247999e-08
3.347947599e-08
3.645073773e-08
3.985376064e-08
4.342988737e-08
4.683167536e-08
4.96219437e-08
5.129003182e-08
3.815730239e-08
4.017863586e-08
4.31237285e-08
4.683108926e-08
5.107040585e-08
5.551808047e-08
5.974240079e-08
6.32027716e-08
6.526945731e-08
4.898650679e-08
5.14941862e-08
5.51438283e-08
5.973154995e-08
6.496914152e-08
7.045512116e-08
7.565753202e-08
7.991345891e-08
8.245280576e-08
6.243074407e-08
6.551637852e-08
7.000220337e-08
7.563303703e-08
8.205124759e-08
8.876284394e-08
9.511770228e-08
1.003095489e-07
1.034043111e-07
7.89851647e-08
8.275137082e-08
8.822061786e-08
9.50762927e-08
1.028783177e-07
1.110238128e-07
1.187246127e-07
1.250078775e-07
1.287496092e-07
9.920564136e-08
1.037662304e-07
1.10381991e-07
1.186634472e-07
1.280735296e-07
1.3788233e-07
1.471417838e-07
1.546871276e-07
1.591761985e-07
1.237102e-07
1.291902072e-07
1.371314348e-07
1.47058811e-07
1.583221804e-07
1.700446881e-07
1.810945673e-07
1.900876786e-07
1.954331821e-07
1.531796354e-07
1.597152106e-07
1.691765454e-07
1.809889235e-07
1.943714528e-07
2.082786918e-07
2.213694703e-07
2.320107563e-07
2.383303212e-07
1.883573692e-07
1.960955281e-07
2.072869129e-07
2.212418159e-07
2.370294705e-07
2.534125092e-07
2.688128031e-07
2.813169277e-07
2.88736442e-07
2.300484952e-07
2.391467344e-07
2.522928764e-07
2.686656184e-07
2.871637087e-07
3.063328773e-07
3.243287071e-07
3.38923993e-07
3.475772499e-07
2.791181256e-07
2.89743969e-07
3.050836805e-07
3.241665392e-07
3.456987909e-07
3.679827243e-07
3.888766248e-07
4.058043371e-07
4.158326138e-07
3.36489165e-07
3.488196133e-07
3.666050221e-07
3.887062681e-07
4.13613741e-07
4.393582764e-07
4.634682774e-07
4.829818087e-07
4.945333884e-07
4.031395062e-07
4.173604128e-07
4.37856074e-07
4.632988831e-07
4.919387672e-07
5.215057229e-07
5.491642263e-07
5.715282021e-07
5.847578508e-07
4.80098741e-07
4.964041323e-07
5.19886061e-07
5.49007336e-07
5.817516527e-07
6.15517516e-07
6.470700935e-07
6.725594167e-07
6.876278249e-07
5.684444705e-07
5.870358239e-07
6.137904723e-07
6.469395992e-07
6.841738341e-07
7.225283841e-07
7.583325179e-07
7.872313709e-07
8.043045717e-07
6.692983002e-07
6.903837953e-07
7.207069923e-07
7.582445541e-07
8.003662465e-07
8.437111365e-07
8.841349263e-07
9.167357468e-07
9.359845187e-07
7.838216019e-07
8.076153576e-07
8.418112298e-07
8.841076995e-07
9.315250117e-07
9.802723334e-07
1.025693189e-06
1.062295636e-06
1.083894902e-06
9.132111251e-07
9.399324333e-07
9.783123234e-07
1.025746756e-06
1.078877043e-06
1.133447893e-06
1.184251231e-06
1.225161156e-06
1.249289381e-06
1.05869453e-06
1.088567099e-06
1.131448495e-06
1.184407235e-06
1.243675631e-06
1.3044987e-06
1.361076658e-06
1.406605091e-06
1.433443698e-06
1.221525915e-06
1.254777125e-06
1.302482617e-06
1.361358033e-06
1.427196077e-06
1.49470627e-06
1.557456461e-06
1.607918626e-06
1.637651418e-06
1.402981391e-06
1.43984158e-06
1.492697847e-06
1.557887114e-06
1.630731418e-06
1.705368528e-06
1.77469283e-06
1.830407196e-06
1.863219807e-06
1.604354771e-06
1.645056546e-06
1.703393385e-06
1.775297316e-06
1.855588293e-06
1.937795729e-06
2.014099143e-06
2.075386517e-06
2.111465887e-06
1.8269534e-06
1.871730984e-06
1.935880393e-06
2.014902331e-06
2.103082988e-06
2.193306579e-06
2.276996133e-06
2.344178808e-06
2.383712686e-06
2.072094177e-06
2.121182794e-06
2.191478107e-06
2.278022883e-06
2.374537692e-06
2.473224553e-06
2.564708287e-06
2.638109237e-06
2.681285715e-06
2.341099793e-06
2.394735094e-06
2.471510173e-06
2.565983135e-06
2.671276975e-06
2.778874459e-06
2.878560474e-06
2.95850261e-06
3.005509691e-06
2.635295202e-06
2.693712734e-06
2.777301222e-06
2.880107334e-06
2.994624516e-06
3.111579242e-06
3.219874825e-06
3.306680309e-06
3.357705511e-06
2.956004347e-06
3.019439065e-06
3.110173697e-06
3.221716717e-06
3.345900085e-06
3.472657053e-06
3.589967874e-06
3.683957486e-06
3.739187476e-06
3.304547143e-06
3.373232964e-06
3.471444942e-06
3.592126665e-06
3.726416787e-06
3.863418564e-06
3.990147946e-06
4.091640519e-06
4.151260784e-06
3.682236726e-06
3.756406122e-06
3.86242455e-06
3.992644133e-06
4.137478559e-06
4.285164551e-06
4.421712817e-06
4.531024719e-06
4.59521927e-06
4.090376962e-06
4.170260602e-06
4.284411974e-06
4.424565323e-06
4.58037793e-06
4.739183728e-06
4.88594761e-06
5.00339229e-06
5.072343395e-06
4.530260213e-06
4.616086639e-06
4.738694388e-06
4.889173617e-06
5.056394019e-06
5.226750822e-06
5.384122946e-06
5.510010524e-06
5.583898478e-06
5.003165359e-06
5.095160699e-06
5.226544797e-06
5.387737749e-06
5.566790785e-06
5.749124892e-06
5.917493317e-06
6.052130234e-06
6.131133153e-06
5.51035605e-06
5.608743772e-06
5.749220382e-06
5.921510213e-06
6.112815497e-06
6.30754786e-06
6.487295687e-06
6.630984394e-06
6.715278041e-06
6.053079197e-06
6.15807989e-06
6.307961065e-06
6.491725884e-06
6.695697417e-06
6.903243266e-06
7.094748298e-06
7.247786996e-06
7.337544624e-06
6.632563668e-06
6.744394859e-06
6.903988283e-06
7.099600847e-06
7.316646691e-06
7.537415208e-06
7.741049663e-06
7.903732081e-06
7.999124316e-06
7.250019192e-06
7.368895193e-06
7.538503966e-06
7.746331421e-06
7.976853422e-06
8.211247477e-06
8.427377751e-06
8.599992962e-06
8.70118769e-06
7.906635447e-06
8.032767224e-06
8.212689683e-06
8.433093355e-06
8.67748692e-06
8.925902848e-06
9.154889321e-06
9.337721594e-06
9.444883884e-06
8.60358132e-06
8.73717639e-06
8.927705966e-06
9.16104119e-06
9.419695104e-06
9.682522534e-06
9.924719418e-06
1.011804811e-05
1.023134014e-05
9.342004321e-06
9.483266674e-06
9.684691779e-06
9.931307765e-06
1.020460406e-05
1.048222577e-05
1.0737981e-05
1.094208044e-05
1.106166146e-05
1.012303015e-05
1.027216018e-05
1.048476412e-05
1.074500386e-05
1.10333177e-05
1.132610955e-05
1.159576468e-05
1.181090416e-05
1.193693045e-05
1.094776237e-05
1.110495685e-05
1.132901777e-05
1.160321797e-05
1.190691759e-05
1.221524843e-05
1.24991386e-05
1.272558229e-05
1.285820714e-05
1.181728225e-05
1.198273426e-05
1.221852513e-05
1.250701615e-05
1.282646282e-05
1.315069447e-05
1.344914839e-05
1.368715532e-05
1.382652903e-05
1.273264861e-05
1.29065476e-05
1.315433613e-05
1.345744202e-05
1.379299003e-05
1.413347725e-05
1.444681717e-05
1.469664129e-05
1.484291116e-05
1.369489788e-05
1.38774296e-05
1.413747833e-05
1.445551679e-05
1.480751344e-05
1.516460399e-05
1.549314574e-05
1.575503586e-05
1.590834621e-05
1.470504416e-05
1.48963907e-05
1.516895697e-05
1.550223937e-05
1.587102506e-05
1.624505969e-05
1.658911269e-05
1.686331258e-05
1.702380477e-05
1.576407934e-05
1.596441916e-05
1.624975515e-05
1.659858661e-05
1.698449483e-05
1.737580736e-05
1.773567471e-05
1.802242308e-05
1.819023554e-05
1.687297337e-05
1.708248131e-05
1.738083408e-05
1.77455135e-05
1.814887092e-05
1.855778829e-05
1.893376681e-05
1.923329742e-05
1.940856566e-05
1.803267444e-05
1.825152179e-05
1.856313334e-05
1.894395348e-05
1.936508001e-05
1.979192239e-05
2.018430269e-05
2.049684439e-05
2.067970108e-05
1.924410938e-05
1.947246388e-05
1.979757121e-05
2.019481876e-05
2.063402766e-05
2.107910851e-05
2.148817509e-05
2.181395188e-05
2.200452685e-05
2.050818391e-05
2.074620984e-05
2.108504502e-05
2.149900069e-05
2.195659866e-05
2.242022484e-05
2.284625619e-05
2.31854873e-05
2.338390763e-05
2.182578308e-05
2.207364127e-05
2.242643154e-05
2.285737013e-05
2.333365741e-05
2.381612929e-05
2.425939799e-05
2.461229799e-05
2.481868799e-05
2.319777162e-05
2.345561954e-05
2.382258734e-05
2.427077789e-05
2.476604837e-05
2.526765996e-05
2.572843276e-05
2.60952116e-05
2.630969295e-05
2.462499438e-05
2.489298618e-05
2.527434928e-05
2.574005514e-05
2.625459647e-05
2.677563551e-05
2.725417347e-05
2.76350366e-05
2.785772833e-05
2.610827673e-05
2.638656333e-05
2.678253489e-05
2.726601382e-05
2.780010756e-05
2.834085565e-05
2.883741423e-05
2.923256269e-05
2.946358125e-05
2.764842502e-05
2.793715415e-05
2.834794281e-05
2.884944711e-05
2.940336882e-05
2.996410155e-05
3.047893074e-05
3.088856123e-05
3.112802058e-05
2.924622703e-05
2.954554328e-05
2.997135328e-05
3.049112989e-05
3.106514925e-05
3.164613632e-05
3.217948076e-05
3.260378575e-05
3.285179736e-05
3.090245238e-05
3.121249729e-05
3.165352852e-05
3.219181915e-05
3.27862001e-05
3.338770546e-05
3.393980452e-05
3.437897235e-05
3.46356453e-05
3.261785301e-05
3.293876511e-05
3.339521325e-05
3.395225445e-05
3.456725531e-05
3.518953726e-05
3.57606252e-05
3.621484014e-05
3.648028116e-05
3.439316359e-05
3.47250785e-05
3.519713506e-05
3.577315837e-05
3.640903198e-05
3.70523433e-05
3.764264936e-05
3.811209175e-05
3.838640524e-05
3.6229102e-05
3.657215246e-05
3.706000491e-05
3.765523695e-05
3.831223076e-05
3.897681886e-05
3.958656738e-05
4.007141367e-05
4.035470182e-05
3.812636974e-05
3.848068568e-05
3.898451752e-05
3.959918011e-05
4.027753631e-05
4.096364334e-05
4.159305387e-05
4.209347674e-05
4.238583953e-05
4.008565233e-05
4.045136095e-05
4.09713518e-05
4.160566209e-05
4.230561774e-05
4.301348068e-05
4.36627681e-05
4.417893654e-05
4.448047181e-05
4.210761979e-05
4.248484561e-05
4.30211713e-05
4.367534183e-05
4.439712898e-05
4.512697979e-05
4.57963544e-05
4.63284338e-05
4.66392373e-05
4.419292699e-05
4.458179191e-05
4.513462457e-05
4.580886339e-05
4.655270918e-05
4.730477492e-05
4.799444257e-05
4.85425948e-05
4.886276024e-05
4.634221408e-05
4.674283743e-05
4.731234557e-05
4.800685638e-05
4.877298316e-05
4.954748607e-05
5.025764824e-05
5.082203173e-05
5.115165082e-05
4.855610683e-05
4.896860546e-05
4.955495407e-05
5.026993626e-05
5.10585617e-05
5.185571936e-05
5.258657327e-05
5.31673431e-05
5.350650559e-05
5.083521703e-05
5.125970534e-05
5.186305594e-05
5.259870475e-05
5.341004197e-05
5.423006737e-05
5.498180609e-05
5.557911405e-05
5.592790781e-05
5.318014282e-05
5.361673281e-05
5.423724355e-05
5.499375013e-05
5.582800776e-05
5.667110944e-05
5.744392199e-05
5.80579167e-05
5.841642773e-05
5.559146918e-05
5.604027051e-05
5.667809622e-05
5.745564769e-05
5.831303e-05
5.91794121e-05
5.997348351e-05
6.060431045e-05
6.097262295e-05
5.806976815e-05
5.853088819e-05
5.918618048e-05
5.998496006e-05
6.086566702e-05
6.175552939e-05
6.257104081e-05
6.321884237e-05
6.359703876e-05
6.061559923e-05
6.10891431e-05
6.176205041e-05
6.258223748e-05
6.348646487e-05
6.440000317e-05
6.523713191e-05
6.59020475e-05
6.629020844e-05
6.322950954e-05
6.371558019e-05
6.440624784e-05
6.524801804e-05
6.617595756e-05
6.711336334e-05
6.797228302e-05
6.865444912e-05
6.905265361e-05
6.591203421e-05
6.641073245e-05
6.711930275e-05
6.798282804e-05
6.893466739e-05
6.989612821e-05
7.077700881e-05
7.147655904e-05
7.188488439e-05
6.866369669e-05
6.91751212e-05
6.990173349e-05
7.078718228e-05
7.176310521e-05
7.274880472e-05
7.365181266e-05
7.436887783e-05
7.478739974e-05
7.148500896e-05
7.200925638e-05
7.275404711e-05
7.366158426e-05
7.466177072e-05
7.567188871e-05
7.659718691e-05
7.733189509e-05
7.776068766e-05
7.437647185e-05
7.49136368e-05
7.567673956e-05
7.66065265e-05
7.763115265e-05
7.866586514e-05
7.961361313e-05
8.03660897e-05
8.080522547e-05
7.733857524e-05
7.788875038e-05
7.867029596e-05
7.962249074e-05
8.067172906e-05
8.173120838e-05
8.270156229e-05
8.347192997e-05
8.392147995e-05
8.037179832e-05
8.093507436e-05
8.173519081e-05
8.270994815e-05
8.378396748e-05
8.486838232e-05
8.586149501e-05
8.664987393e-05
8.710990763e-05
8.347660979e-05
8.405307552e-05
8.487188819e-05
8.586935956e-05
8.696832516e-05
8.807784063e-05
8.909386171e-05
8.990036944e-05
9.037095487e-05
8.665346802e-05
8.724321036e-05
8.808084194e-05
8.910117558e-05
9.022524921e-05
9.13600269e-05
9.239910275e-05
9.322385435e-05
9.370505806e-05
8.990282126e-05
9.050592526e-05
9.136249584e-05
9.24058368e-05
9.355517673e-05
9.471537475e-05
9.577764862e-05
9.662075663e-05
9.711264374e-05
9.322510776e-05
9.384165665e-05
9.471728368e-05
9.57837739e-05
9.695853495e-05
9.814430797e-05
9.922991995e-05
0.0001000914945
0.0001005941286
9.662075585e-05
9.725083104e-05
9.814562943e-05
9.92354077e-05
0.0001004357413
0.0001016472405
0.0001027563276
0.0001036364762
0.0001041499197
0.0001000901841
0.0001007338652
0.0001016479472
0.0001027611492
0.0001039872034
0.0001052245767
0.0001063572727
0.0001072561006
0.0001077804142
0.0001036338012
0.0001042911659
0.0001052246414
0.0001063613998
0.000107613319
0.0001088767107
0.0001100331464
0.0001109507563
0.0001114859994
0.000107252006
0.0001079231303
0.0001088761065
0.0001100365505
0.0001113144761
0.000112604027
0.0001137843299
0.0001147208219
0.0001152670524
0.0001109451874
0.0001116301455
0.0001126027268
0.0001137869828
0.0001150910522
0.0001164068997
0.0001176111942
0.0001185666658
0.0001191239401
0.0001147137242
0.0001154125882
0.0001164048765
0.0001176130674
0.0001189434146
0.0001202856923
0.0001215140992
0.0001224886454
0.0001230570183
0.0001185579845
0.0001192708246
0.0001202829189
0.0001215151641
0.0001228719193
0.0001242407571
0.0001254933937
0.0001264871064
0.0001270666311
0.0001224783252
0.0001232052096
0.0001242372061
0.0001254936214
0.0001268769107
0.0001282724341
0.0001295494141
0.0001305623824
0.0001311531103
0.0001264750917
0.0001272160862
0.0001282680776
0.0001295487751
0.0001309587202
0.0001323810506
0.0001336824832
0.0001347147929
0.0001353167733
0.0001305486161
0.0001313037843
0.00013237586
0.0001336809472
0.0001351176651
0.0001365669186
0.0001378929089
0.0001389446418
0.000139557922
0.0001346992163
0.0001354686188
0.0001365608643
0.0001378904441
0.0001393540463
0.0001408303337
0.0001421809812
0.0001432522151
0.0001438768398
0.0001389271936
0.0001397108882
0.0001408233846
0.0001421775542
0.000143668146
0.0001451715718
0.00014654697
0.0001476377779
0.0001482737889
0.0001432328305
0.0001440308713
0.0001451636944
0.0001465425447
0.0001480602244
0.0001495908852
0.0001509911209
0.0001521015697
0.0001527490054
0.000147616387
0.0001484288238
0.0001495820435
0.0001509856578
0.0001525305148
0.0001540884985
0.0001555136496
0.0001566437997
0.0001573026943
0.0001520780957
0.0001529049735
0.0001540786522
0.0001555071048
0.0001570792182
0.0001586646016
0.000160114736
0.0001612646391
0.0001619350218
0.0001566181567
0.0001574595141
0.0001586537054
0.0001601070592
0.0001617064953
0.0001633193423
0.000164794515
0.0001659642126
0.0001666461063
0.000161236729
0.0001620925972
0.0001633073437
0.0001647856478
0.0001664124574
0.0001680528153
0.000169553066
0.0001707425866
0.0001714360068
0.0001659339212
0.0001668043219
0.0001680396527
0.0001695429395
0.0001711971539
0.0001728650496
0.0001743903986
0.000175599755
0.0001763047072
0.0001707097791
0.0001715947226
0.0001728506499
0.0001743789303
0.0001760605568
0.0001777559919
0.0001793064353
0.0001805356204
0.0001812520985
0.0001755642703
0.0001764637523
0.0001777402672
0.000179293526
0.0001810025415
0.0001827254861
0.0001843009902
0.0001855499721
0.000186277955
0.0001804972647
0.000181411263
0.0001827083305
0.0001842865195
0.0001860228637
0.0001877732486
0.0001893737421
0.0001906424583
0.0001913819065
0.0001855085117
0.0001864369816
0.0001877545342
0.0001893575644
0.0001911211304
0.0001928988376
0.000194524203
0.0001958125532
0.0001965634043
0.0001905976111
0.0001915404803
0.0001928784103
0.0001945061424
0.0001962967658
0.0001981016174
0.0001997516802
0.0002010595168
0.0002018216805
0.0001957639801
0.000196721142
0.0001980792921
0.0001997315247
0.0002015489708
0.0002033807151
0.000205055231
0.0002063823496
0.0002071557009
0.0002010068128
0.0002019781192
0.0002033562718
0.000205032728
0.000206876676
0.0002087349717
0.0002104336115
0.0002117797379
0.0002125641105
0.0002063250345
0.0002073102866
0.0002087081508
0.0002104084622
0.0002122784876
0.0002141628853
0.0002158852174
0.0002172499941
0.0002180451716
0.0002117172491
0.0002127161874
0.0002141333842
0.0002158570727
0.0002177526267
0.0002196625475
0.0002214080186
0.0002227909883
0.0002235966949
0.0002171816799
0.0002181939722
0.0002196300183
0.0002213764754
0.0002232968619
0.0002252315742
0.0002269994869
0.000228400075
0.0002292159648
0.0002227161041
0.0002237413333
0.0002251956221
0.0002269640864
0.0002289084365
0.0002308670296
0.0002326565183
0.0002340740137
0.0002348996595
0.0002283177831
0.0002293554323
0.0002308272142
0.0002326167463
0.000234583991
0.0002365653474
0.0002383753525
0.0002398088868
0.0002406437679
0.0002339833877
0.000235032826
0.0002365211862
0.0002383306423
0.0002403194832
0.0002423222489
0.0002441514901
0.0002456000159
0.0002464435056
0.0002397089194
0.0002407693861
0.0002422732237
0.0002441012295
0.0002461101082
0.0002481326623
0.0002499796107
0.0002514418804
0.0002522932336
0.0002454896339
0.0002465602225
0.0002480782275
0.0002499231506
0.0002519502209
0.0002539906463
0.0002558534967
0.0002573280409
0.0002581863817
0.0002513199651
0.0002523996082
0.0002539302399
0.0002557901636
0.0002578332622
0.0002598893178
0.0002617659647
0.0002632510721
0.0002641153826
0.0002571934558
0.0002582809105
0.0002598223773
0.0002616950768
0.0002637516974
0.0002658207924
0.0002677088072
0.0002692025082
0.0002700716182
0.0002631026965
0.0002641965319
0.0002657467736
0.0002676296951
0.0002696969666
0.0002717761395
0.0002736727522
0.0002751728048
0.0002760453852
0.0002690392771
0.0002701378638
0.0002716945382
0.0002735847828
0.0002756594529
0.0002777453562
0.0002796474428
0.0002811513239
0.0002820258814
0.0002749937548
0.0002760952586
0.0002776557322
0.0002795500464
0.0002816284721
0.0002837173647
0.0002856214415
0.0002871263437
0.0002880012198
0.0002809556429
0.0002820580221
0.000283619367