/*--------------------------------*- C++ -*----------------------------------*\
| =========                 |                                                 |
| \\      /  F ield         | OpenFOAM: The Open Source CFD Toolbox           |
|  \\    /   O peration     | Version:  2212                                  |
|   \\  /    A nd           | Website:  www.openfoam.com                      |
|    \\/     M anipulation  |                                                 |
\*---------------------------------------------------------------------------*/
FoamFile
{
    version     2.0;
    format      ascii;
    arch        "LSB;label=32;scalar=64";
    class       volScalarField;
    location    "20.00000000";
    object      C9H7;
}
// * * * * * * * * * * * * * * * * * * * * * * * * * * * * * * * * * * * * * //

dimensions      [0 0 0 0 0 0 0];

internalField   nonuniform List<scalar> 
3000
(
2.068431446e-29
2.323514101e-29
2.708426613e-29
3.221357067e-29
3.85710389e-29
4.598419254e-29
5.400654322e-29
6.166163039e-29
6.707572569e-29
7.766242104e-29
8.759270484e-29
1.025710301e-28
1.225757974e-28
1.475877816e-28
1.774682543e-28
2.11699067e-28
2.485457096e-28
2.811938355e-28
1.73974544e-28
1.977621347e-28
2.339854178e-28
2.831704954e-28
3.462042188e-28
4.240011556e-28
5.162569511e-28
6.177826366e-28
7.045746457e-28
3.314249218e-28
3.806954647e-28
4.568244816e-28
5.623914216e-28
7.01140209e-28
8.765953446e-28
1.087794365e-27
1.317800979e-27
1.503456066e-27
5.886221764e-28
6.844395051e-28
8.348210591e-28
1.047413006e-27
1.33222289e-27
1.697232051e-27
2.136333989e-27
2.602600983e-27
2.960518043e-27
1.012364285e-27
1.192252527e-27
1.478628457e-27
1.8897823e-27
2.447667498e-27
3.166343021e-27
4.02438714e-27
4.913620483e-27
5.571594924e-27
1.71893028e-27
2.049440228e-27
2.581731991e-27
3.354576255e-27
4.411041859e-27
5.772161846e-27
7.381682378e-27
9.017076975e-27
1.019716887e-26
2.909477511e-27
3.50772651e-27
4.479786721e-27
5.902059599e-27
7.853920243e-27
1.036350989e-26
1.330495718e-26
1.625010456e-26
1.833980643e-26
4.932575529e-27
6.003980382e-27
7.756109071e-27
1.033273557e-26
1.38750674e-26
1.841721783e-26
2.370263893e-26
2.893962952e-26
3.261445225e-26
8.391881312e-27
1.029554471e-26
1.342298245e-26
1.803699689e-26
2.438424908e-26
3.250170208e-26
4.189517031e-26
5.11343357e-26
5.756933138e-26
1.433348769e-26
1.769600827e-26
2.32377378e-26
3.143027784e-26
4.270080405e-26
5.708242669e-26
7.365620626e-26
8.987420665e-26
1.011132264e-25
2.457059926e-26
3.048372052e-26
4.025053304e-26
5.470759982e-26
7.459239773e-26
9.992103854e-26
1.290226019e-25
1.573970141e-25
1.769923629e-25
4.224721418e-26
5.261135585e-26
6.975607161e-26
9.515455181e-26
1.300793467e-25
1.745046901e-25
2.254361707e-25
2.749689827e-25
3.090937937e-25
7.281634975e-26
9.093739083e-26
1.209456245e-25
1.654234232e-25
2.265680693e-25
3.042658781e-25
3.932016882e-25
4.795384287e-25
5.389165451e-25
1.257382522e-25
1.573643702e-25
2.097758929e-25
2.874860761e-25
3.942926042e-25
5.299098491e-25
6.849634516e-25
8.352885214e-25
9.385460436e-25
2.174286499e-25
2.725514394e-25
3.639505146e-25
4.99498302e-25
6.85764623e-25
9.221400099e-25
1.192162469e-24
1.45369748e-24
1.633178604e-24
3.763776343e-25
4.723608099e-25
6.315705437e-25
8.677200591e-25
1.192183073e-24
1.603753376e-24
2.073608948e-24
2.528364685e-24
2.840226687e-24
6.520375314e-25
8.190512896e-25
1.096155459e-24
1.507213949e-24
2.071926408e-24
2.788001338e-24
3.605082285e-24
4.395461228e-24
4.937203293e-24
1.130254507e-24
1.420713894e-24
1.902724327e-24
2.617781342e-24
3.600012241e-24
4.845165387e-24
6.265391473e-24
7.638596449e-24
8.579464227e-24
1.96005933e-24
2.465014334e-24
3.303073377e-24
4.546339541e-24
6.25392797e-24
8.418053428e-24
1.08856135e-23
1.327057635e-23
1.490411255e-23
3.400171714e-24
4.277765579e-24
5.734367827e-24
7.895177251e-24
1.086254642e-23
1.462230149e-23
1.890779384e-23
2.304833601e-23
2.588336355e-23
5.899698584e-24
7.424566521e-24
9.955503378e-24
1.370973829e-23
1.886434756e-23
2.539353941e-23
3.283307426e-23
4.00182309e-23
4.493614672e-23
1.023808839e-23
1.288705282e-23
1.728350754e-23
2.380403182e-23
3.275463662e-23
4.408827577e-23
5.699678099e-23
6.945838157e-23
7.798424856e-23
1.776774686e-23
2.236842265e-23
3.000325087e-23
4.132435069e-23
5.685967932e-23
7.652285885e-23
9.890700554e-23
1.205044698e-22
1.352732703e-22
3.083416948e-23
3.8822413e-23
5.207650983e-23
7.172418551e-23
9.867423443e-23
1.327665352e-22
1.715516675e-22
2.089481021e-22
2.345038788e-22
5.35025383e-23
6.736786461e-23
9.036717178e-23
1.244472714e-22
1.711678275e-22
2.302286583e-22
2.973641209e-22
3.620388863e-22
4.061986169e-22
9.281241117e-23
1.168673833e-22
1.567545413e-22
2.158272582e-22
2.967518019e-22
3.98958418e-22
5.150161585e-22
6.26693729e-22
7.028634605e-22
1.609399376e-22
2.026462446e-22
2.717692986e-22
3.74069063e-22
5.140808463e-22
6.907098112e-22
8.910068905e-22
1.083466835e-21
1.214550377e-21
2.789151296e-22
3.511628576e-22
4.708307619e-22
6.477775995e-22
8.896692132e-22
1.194378058e-21
1.539334556e-21
1.870192555e-21
2.095139933e-21
4.82994346e-22
6.080061706e-22
8.149081589e-22
1.120500369e-21
1.537637472e-21
2.062147398e-21
2.654692815e-21
3.221742136e-21
3.606428061e-21
8.355487451e-22
1.051539671e-21
1.408667623e-21
1.935405931e-21
2.653097872e-21
3.553511146e-21
4.568108751e-21
5.536384969e-21
6.191507823e-21
1.443599907e-21
1.816081173e-21
2.431212488e-21
3.336932253e-21
4.568245372e-21
6.108860921e-21
7.839475789e-21
9.485642108e-21
1.059586157e-20
2.490243807e-21
3.131098699e-21
4.18787508e-21
5.740638684e-21
7.845934979e-21
1.047154467e-20
1.341013363e-20
1.619448461e-20
1.806530753e-20
4.287688024e-21
5.387149998e-21
7.196958531e-21
9.849561123e-21
1.343459341e-20
1.788858683e-20
2.285213522e-20
2.753404121e-20
3.066634208e-20
7.366347264e-21
9.246208136e-21
1.23340879e-20
1.684660727e-20
2.292254483e-20
3.043776149e-20
3.87714959e-20
4.659221746e-20
5.179917518e-20
1.262378922e-20
1.582520563e-20
2.10708326e-20
2.871024419e-20
3.895195058e-20
5.155553996e-20
6.545402387e-20
7.842253957e-20
8.701077059e-20
2.157253868e-20
2.699965218e-20
3.586651269e-20
4.872846871e-20
6.588669091e-20
8.688127206e-20
1.098894414e-19
1.312236484e-19
1.452702112e-19
3.675046679e-20
4.590312971e-20
6.080734066e-20
8.232932421e-20
1.108809859e-19
1.455949327e-19
1.833802534e-19
2.181795533e-19
2.409503931e-19
6.239765865e-20
7.774497333e-20
1.026428711e-19
1.384137808e-19
1.855763487e-19
2.425200867e-19
3.040485177e-19
3.603071785e-19
3.968820555e-19
1.05569126e-19
1.31143434e-19
1.72458573e-19
2.314829067e-19
3.087798877e-19
4.014087357e-19
5.007165156e-19
5.90834527e-19
6.490309054e-19
1.779601518e-19
2.202934808e-19
2.883661135e-19
3.850199654e-19
5.106745818e-19
6.600515784e-19
8.188908058e-19
9.6190705e-19
1.053634699e-18
2.988990399e-19
3.684887903e-19
4.79825735e-19
6.368610509e-19
8.394300225e-19
1.07822071e-18
1.329984281e-18
1.554857564e-18
1.698093505e-18
5.002607233e-19
6.138519586e-19
7.946015341e-19
1.047739054e-18
1.371606136e-18
1.750050426e-18
2.145578217e-18
2.495996772e-18
2.717659407e-18
8.345631059e-19
1.018694622e-18
1.31000448e-18
1.714948319e-18
2.228628284e-18
2.823475484e-18
3.439659294e-18
3.98111017e-18
4.321256639e-18
1.388385961e-18
1.684908253e-18
2.151205619e-18
2.79439333e-18
3.603144565e-18
4.531106002e-18
5.483741918e-18
6.313998318e-18
6.832018663e-18
2.304787659e-18
2.779499279e-18
3.521377144e-18
4.536595937e-18
5.801777944e-18
7.24003599e-18
8.70330427e-18
9.968246579e-18
1.075217657e-17
3.821107555e-18
4.577412281e-18
5.751922107e-18
7.346350144e-18
9.315619673e-18
1.153369263e-17
1.377033295e-17
1.568840894e-17
1.686931393e-17
6.333368139e-18
7.534188572e-18
9.387322832e-18
1.188311309e-17
1.493855583e-17
1.834904916e-17
2.17584357e-17
2.465967499e-17
2.643462618e-17
1.050711769e-17
1.241069641e-17
1.533043216e-17
1.923263157e-17
2.396947962e-17
2.921130663e-17
3.440857598e-17
3.87990802e-17
4.146925388e-17
1.747002063e-17
2.048961113e-17
2.509447873e-17
3.120475302e-17
3.856377458e-17
4.664295994e-17
5.459382837e-17
6.126641258e-17
6.530283727e-17
2.914930994e-17
3.395484333e-17
4.124525283e-17
5.085719283e-17
6.235370336e-17
7.488916611e-17
8.714764458e-17
9.73787752e-17
1.035401879e-16
4.886738531e-17
5.656233375e-17
6.818493926e-17
8.34276023e-17
1.015581262e-16
1.212232423e-16
1.403643322e-16
1.562769903e-16
1.658291318e-16
8.239761208e-17
9.483158543e-17
1.135498776e-16
1.380056956e-16
1.669887231e-16
1.983269041e-16
2.287566357e-16
2.540091388e-16
2.69145523e-16
1.39849372e-16
1.601813974e-16
1.907298823e-16
2.305662255e-16
2.777137365e-16
3.286687564e-16
3.781690347e-16
4.192909205e-16
4.439622937e-16
2.390633034e-16
2.727891157e-16
3.234404775e-16
3.895043063e-16
4.677894458e-16
5.52609251e-16
6.353121604e-16
7.043156698e-16
7.45875943e-16
4.117683674e-16
4.686135128e-16
5.540823477e-16
6.658096498e-16
7.98700819e-16
9.43454226e-16
1.085542172e-15
1.204965075e-15
1.277370489e-15
7.148563608e-16
8.122933345e-16
9.591532178e-16
1.151897441e-15
1.382458976e-15
1.635445201e-15
1.88588704e-15
2.098219284e-15
2.227939538e-15
1.251236135e-15
1.421062157e-15
1.677898817e-15
2.016688113e-15
2.424649905e-15
2.87580737e-15
3.326095898e-15
3.710700558e-15
3.947015364e-15
2.208770613e-15
2.509454059e-15
2.965925324e-15
3.571241072e-15
4.304793425e-15
5.121396309e-15
5.941100919e-15
6.643899565e-15
7.076525453e-15
3.93342776e-15
4.473256372e-15
5.295745771e-15
6.391490324e-15
7.725873725e-15
9.217382589e-15
1.071780913e-14
1.200415289e-14
1.279492904e-14
7.066761578e-15
8.046900819e-15
9.544534577e-15
1.154618614e-14
1.399034517e-14
1.672561946e-14
1.947529732e-14
2.182771873e-14
2.327060311e-14
1.280235438e-14
1.459583211e-14
1.734097653e-14
2.101559961e-14
2.550533443e-14
3.052639232e-14
3.556544993e-14
3.986847044e-14
4.250393285e-14
2.33572193e-14
2.665185139e-14
3.169787121e-14
3.845387937e-14
4.67047749e-14
5.592340008e-14
6.516663502e-14
7.305573708e-14
7.788667625e-14
4.282520119e-14
4.888140686e-14
5.815742755e-14
7.057485926e-14
8.573610056e-14
1.026753587e-13
1.196678002e-13
1.341837051e-13
1.43081209e-13
7.871161798e-14
8.983166966e-14
1.068661482e-13
1.296762486e-13
1.57544669e-13
1.88717653e-13
2.200406434e-13
2.468509284e-13
2.633153847e-13
1.446997652e-13
1.650873517e-13
1.963374846e-13
2.382256858e-13
2.894814632e-13
3.46933735e-13
4.04807188e-13
4.544781167e-13
4.850627175e-13
2.656383363e-13
3.029629912e-13
3.602348555e-13
4.371246537e-13
5.314105525e-13
6.37375456e-13
7.444438613e-13
8.36640784e-13
8.935962194e-13
4.864570606e-13
5.546677128e-13
6.594727294e-13
8.004485081e-13
9.737497665e-13
1.169101681e-12
1.367163937e-12
1.538345625e-12
1.644484706e-12
8.879154975e-13
1.012245589e-12
1.203562751e-12
1.461446094e-12
1.779305506e-12
2.138750456e-12
2.504500829e-12
2.821841529e-12
3.019368871e-12
1.614089366e-12
1.83986029e-12
2.187805429e-12
2.657816356e-12
3.238707478e-12
3.897714395e-12
4.570721904e-12
5.156918812e-12
5.523197564e-12
2.919714802e-12
3.327614802e-12
3.957190474e-12
4.809408328e-12
5.865446824e-12
7.067230992e-12
8.298829437e-12
9.375513156e-12
1.005068597e-11
5.250564355e-12
5.982761422e-12
7.114455697e-12
8.649333306e-12
1.055594126e-11
1.273191098e-11
1.496895942e-11
1.693110064e-11
1.816544326e-11
9.377668458e-12
1.06816413e-11
1.269955651e-11
1.544104759e-11
1.885377658e-11
2.275838678e-11
2.678362034e-11
3.03241486e-11
3.255733572e-11
1.661735816e-11
1.891799852e-11
2.248182103e-11
2.733025739e-11
3.337631306e-11
4.030784536e-11
4.74693382e-11
5.378261582e-11
5.777298991e-11
2.918472164e-11
3.320030766e-11
3.942512016e-11
4.790222028e-11
5.848670928e-11
7.063946071e-11
8.321582072e-11
9.432079851e-11
1.013503212e-10
5.074877241e-11
5.76729462e-11
6.841073297e-11
8.304206052e-11
1.013244821e-10
1.223348957e-10
1.440997454e-10
1.633380634e-10
1.755275404e-10
8.728333847e-11
9.906303964e-11
1.1733134e-10
1.422264626e-10
1.733404295e-10
2.091084082e-10
2.461758169e-10
2.789552171e-10
2.997335826e-10
1.483369686e-10
1.680846656e-10
1.986999844e-10
2.404057041e-10
2.925118374e-10
3.523958123e-10
4.1444431e-10
4.693104716e-10
5.040894567e-10
2.488745996e-10
2.814607163e-10
3.319447414e-10
4.006588777e-10
4.864331487e-10
5.849285541e-10
6.869100728e-10
7.770358302e-10
8.341443724e-10
4.118675144e-10
4.647435139e-10
5.46575571e-10
6.578133331e-10
7.964752135e-10
9.554845525e-10
1.119919741e-09
1.265094144e-09
1.357022064e-09
6.718181999e-10
7.561196336e-10
8.864050634e-10
1.063201811e-09
1.283172345e-09
1.53495456e-09
1.79489131e-09
2.024067226e-09
2.169052202e-09
1.079393905e-09
1.211363137e-09
1.414970549e-09
1.690679129e-09
2.032923721e-09
2.423766833e-09
2.826431235e-09
3.180847173e-09
3.404812917e-09
1.707298954e-09
1.910047319e-09
2.222235665e-09
2.643931534e-09
3.1659849e-09
3.760579684e-09
4.371680614e-09
4.908512138e-09
5.247307115e-09
2.657437136e-09
2.96303592e-09
3.432545757e-09
4.064991075e-09
4.845587603e-09
5.732000408e-09
6.640574405e-09
7.436994142e-09
7.938924512e-09
4.069304653e-09
4.521155991e-09
5.213682669e-09
6.143728778e-09
7.287881538e-09
8.582947157e-09
9.906542723e-09
1.106414709e-08
1.179272288e-08
6.129422837e-09
6.78482044e-09
7.78672889e-09
9.127964636e-09
1.077226189e-08
1.262711283e-08
1.451722913e-08
1.616672705e-08
1.720405248e-08
9.081488957e-09
1.00142413e-08
1.143633875e-08
1.333372672e-08
1.565149962e-08
1.825707518e-08
2.090446102e-08
2.32105239e-08
2.465958573e-08
1.323682371e-08
1.453976985e-08
1.652082031e-08
1.915507571e-08
2.236135908e-08
2.595343936e-08
2.959308299e-08
3.275657474e-08
3.474063601e-08
1.898449653e-08
2.077183905e-08
2.34819235e-08
2.707343653e-08
3.142926634e-08
3.629309795e-08
4.120557308e-08
4.546249373e-08
4.812757279e-08
2.680125506e-08
2.921054487e-08
3.285379611e-08
3.766593015e-08
4.348226058e-08
4.995146719e-08
5.646056926e-08
6.208470474e-08
6.559975158e-08
3.726069714e-08
4.045451198e-08
4.527182301e-08
5.161336328e-08
5.924549272e-08
6.769909029e-08
7.617375261e-08
8.347556773e-08
8.803163293e-08
5.104311507e-08
5.520992197e-08
6.14753019e-08
6.969107514e-08
7.95382345e-08
9.040145857e-08
1.012529004e-07
1.105766941e-07
1.16385021e-07
6.893146893e-08
7.427874506e-08
8.22955128e-08
9.276933059e-08
1.0527293e-07
1.190125706e-07
1.326892378e-07
1.444085152e-07
1.516975482e-07
9.180148283e-08
9.85581488e-08
1.086592461e-07
1.218094248e-07
1.374471416e-07
1.545646952e-07
1.71545148e-07
1.860563273e-07
1.950677131e-07
1.206248196e-07
1.290379512e-07
1.415809459e-07
1.578538473e-07
1.771317369e-07
1.981545729e-07
2.189385646e-07
2.366532441e-07
2.476369701e-07
1.564592728e-07
1.667899262e-07
1.821507709e-07
2.020127151e-07
2.254556027e-07
2.509264678e-07
2.760245639e-07
2.973606609e-07
3.105695319e-07
2.00435046e-07
2.1295328e-07
2.315189648e-07
2.554468339e-07
2.835873648e-07
3.14052655e-07
3.439748314e-07
3.693469775e-07
3.85030669e-07
2.537374232e-07
2.687166876e-07
2.908770505e-07
3.19347964e-07
3.527147745e-07
3.887120786e-07
4.239557973e-07
4.537654115e-07
4.721643641e-07
3.175863996e-07
3.352975132e-07
3.614365452e-07
3.949170462e-07
4.340225637e-07
4.760680198e-07
5.171063001e-07
5.517317709e-07
5.730711908e-07
3.932140566e-07
4.13919029e-07
4.444060433e-07
4.833412573e-07
5.286696521e-07
5.772456532e-07
6.245156402e-07
6.64303028e-07
6.887872424e-07
4.818406097e-07
5.057865691e-07
5.409676048e-07
5.857708244e-07
6.377666075e-07
6.933103533e-07
7.472028379e-07
7.924574581e-07
8.202648439e-07
5.846501261e-07
6.120635991e-07
6.522534072e-07
7.032965113e-07
7.623542176e-07
8.252475379e-07
8.860978031e-07
9.370769855e-07
9.683556454e-07
7.027668956e-07
7.338486572e-07
7.793235646e-07
8.369286191e-07
9.033839296e-07
9.739447132e-07
1.042024993e-06
1.09893223e-06
1.133796542e-06
8.372333601e-07
8.721540283e-07
9.231459145e-07
9.875782141e-07
1.061700778e-06
1.140176237e-06
1.21568997e-06
1.278670589e-06
1.3171987e-06
9.889903688e-07
1.027886869e-06
1.084578417e-06
1.156041143e-06
1.238029255e-06
1.324591152e-06
1.407669121e-06
1.476807527e-06
1.519039824e-06
1.158860357e-06
1.201833328e-06
1.264354643e-06
1.342985216e-06
1.432962417e-06
1.52770428e-06
1.618402631e-06
1.693721104e-06
1.739659633e-06
1.347533856e-06
1.394646033e-06
1.463072639e-06
1.548940782e-06
1.646954343e-06
1.749890618e-06
1.848190682e-06
1.929649645e-06
1.979258429e-06
1.555559569e-06
1.606835107e-06
1.681187303e-06
1.774294726e-06
1.880315934e-06
1.991382935e-06
2.097192711e-06
2.184692343e-06
2.237898518e-06
1.783338051e-06
1.838762753e-06
1.919006217e-06
2.019287824e-06
2.133213897e-06
2.25227239e-06
2.365429502e-06
2.458812528e-06
2.515508192e-06
2.031118907e-06
2.090641273e-06
2.176688807e-06
2.284015241e-06
2.405672678e-06
2.532511867e-06
2.652787782e-06
2.75184326e-06
2.811887918e-06
2.2990013e-06
2.362534271e-06
2.454248532e-06
2.568429874e-06
2.697579027e-06
2.831921705e-06
2.959026975e-06
3.063494886e-06
3.126718368e-06
2.586937432e-06
2.654360753e-06
2.751557793e-06
2.872348206e-06
3.008688814e-06
3.15019744e-06
3.283787743e-06
3.393364182e-06
3.459569918e-06
2.894738654e-06
2.965901701e-06
3.068355157e-06
3.195458264e-06
3.338635732e-06
3.486919177e-06
3.626601913e-06
3.740944696e-06
3.809913235e-06
3.222083765e-06
3.296808738e-06
3.404254502e-06
3.537329274e-06
3.686941465e-06
3.841562203e-06
3.986903438e-06
4.105637951e-06
4.177130603e-06
3.568529096e-06
3.646614451e-06
3.758755639e-06
3.89742263e-06
4.053026937e-06
4.213508465e-06
4.364040028e-06
4.486765153e-06
4.560527671e-06
3.933519919e-06
4.014743941e-06
4.131256038e-06
4.275103751e-06
4.436224284e-06
4.602058576e-06
4.757285125e-06
4.883579112e-06
4.959345318e-06
4.316402807e-06
4.40052722e-06
4.521063245e-06
4.669654501e-06
4.835789198e-06
5.006444029e-06
5.165849947e-06
5.295276101e-06
5.372771398e-06
4.716438541e-06
4.803212076e-06
4.927407663e-06
5.080285816e-06
5.250913344e-06
5.425839347e-06
5.588895339e-06
5.721007439e-06
5.799952137e-06
5.132815223e-06
5.221977073e-06
5.349455371e-06
5.506150265e-06
5.680736594e-06
5.859373932e-06
6.025543229e-06
6.159890591e-06
6.240003009e-06
5.564661312e-06
5.65594441e-06
5.786320717e-06
5.9463543e-06
6.124358851e-06
6.306143425e-06
6.474887512e-06
6.611019647e-06
6.692018958e-06
6.011058302e-06
6.104192391e-06
6.237078465e-06
6.39996998e-06
6.580851286e-06
6.765220409e-06
6.936004237e-06
7.073475063e-06
7.155083853e-06
6.471052863e-06
6.565767306e-06
6.700775311e-06
6.866046025e-06
7.049266853e-06
7.235664353e-06
7.407960992e-06
7.546332579e-06
7.628279119e-06
6.943668248e-06
7.039694572e-06
7.17644063e-06
7.343618069e-06
7.528649976e-06
7.716530708e-06
7.889825435e-06
8.028671265e-06
8.110691486e-06
7.427914869e-06
7.524989027e-06
7.663096355e-06
7.831718026e-06
8.018045346e-06
8.206879102e-06
8.380672917e-06
8.519580681e-06
8.601419848e-06
7.922799944e-06
8.020664279e-06
8.159765924e-06
8.329382528e-06
8.51650578e-06
8.705780616e-06
8.879593203e-06
9.01816713e-06
9.099581237e-06
8.427336166e-06
8.525741098e-06
8.665482248e-06
8.8356604e-06
9.023099147e-06
9.212324132e-06
9.38569629e-06
9.523559039e-06
9.604315928e-06
8.94054937e-06
9.039254803e-06
9.17929472e-06
9.349619178e-06
9.536914356e-06
9.725621789e-06
9.898117348e-06
1.003491148e-05
1.011479172e-05
9.461485206e-06
9.560261668e-06
9.70027524e-06
9.870350693e-06
1.005706643e-05
1.024481355e-05
1.041602084e-05
1.055140993e-05
1.063020741e-05
9.98921484e-06
1.008784438e-05
1.022752332e-05
1.039697575e-05
1.058270076e-05
1.076907098e-05
1.093860382e-05
1.107227318e-05
1.114979559e-05
1.052283972e-05
1.062111658e-05
1.076017032e-05
1.092864796e-05
1.111299644e-05
1.129760019e-05
1.146509858e-05
1.15967557e-05
1.167282471e-05
1.106149545e-05
1.115922651e-05
1.129738278e-05
1.146455678e-05
1.164716903e-05
1.182964417e-05
1.199477453e-05
1.212414924e-05
1.219860057e-05
1.160435489e-05
1.170135995e-05
1.183836512e-05
1.20039298e-05
1.218447242e-05
1.236448439e-05
1.252693958e-05
1.265378393e-05
1.272646726e-05
1.215063042e-05
1.224674231e-05
1.238236147e-05
1.254603441e-05
1.272420025e-05
1.290144184e-05
1.306094088e-05
1.318502887e-05
1.325580762e-05
1.269957562e-05
1.279464015e-05
1.292865703e-05
1.309017885e-05
1.326568669e-05
1.343987764e-05
1.35961652e-05
1.371729228e-05
1.378604328e-05
1.325048626e-05
1.334436206e-05
1.347657875e-05
1.36357127e-05
1.380830671e-05
1.397919308e-05
1.413203879e-05
1.425002125e-05
1.431663431e-05
1.380270081e-05
1.389525906e-05
1.402549558e-05
1.4182027e-05
1.435147603e-05
1.451882935e-05
1.466802698e-05
1.478270116e-05
1.484707863e-05
1.435560042e-05
1.44467245e-05
1.457481829e-05
1.472855384e-05
1.489465058e-05
1.505826693e-05
1.52036334e-05
1.531485489e-05
1.537691107e-05
1.490860856e-05
1.499819363e-05
1.512399886e-05
1.527476576e-05
1.543732574e-05
1.559702467e-05
1.573839902e-05
1.584604174e-05
1.59057023e-05
1.546119029e-05
1.554914279e-05
1.567252969e-05
1.582017477e-05
1.597903531e-05
1.61346587e-05
1.627190095e-05
1.637585615e-05
1.643305753e-05
1.60128512e-05
1.609908832e-05
1.621994242e-05
1.636433116e-05
1.651935025e-05
1.667076112e-05
1.680375109e-05
1.690392638e-05
1.695861517e-05
1.656313622e-05
1.664758536e-05
1.676580664e-05
1.690682217e-05
1.705787729e-05
1.720495855e-05
1.733359468e-05
1.7429913e-05
1.748204525e-05
1.711162812e-05
1.719422632e-05
1.730972841e-05
1.744727042e-05
1.759425738e-05
1.773691057e-05
1.786110871e-05
1.795350732e-05
1.800304793e-05
1.765794599e-05
1.773863932e-05
1.785134866e-05
1.798533239e-05
1.812816409e-05
1.826630815e-05
1.838600034e-05
1.847442979e-05
1.852135187e-05
1.820174353e-05
1.828048652e-05
1.839034147e-05
1.852069664e-05
1.865930192e-05
1.879287193e-05
1.890800522e-05
1.899242836e-05
1.903671259e-05
1.87427073e-05
1.881946235e-05
1.892641238e-05
1.905308216e-05
1.91874046e-05
1.931635057e-05
1.942688588e-05
1.950727688e-05
1.954891092e-05
1.928055493e-05
1.935529172e-05
1.94592966e-05
1.958223657e-05
1.971223337e-05
1.983651907e-05
1.994243002e-05
2.001877344e-05
2.005775133e-05
1.981503331e-05
1.988772827e-05
1.998875723e-05
2.010793442e-05
2.023357528e-05
2.035317706e-05
2.045444891e-05
2.052673879e-05
2.056306037e-05
2.03459168e-05
2.041655252e-05
2.05145835e-05
2.062997542e-05
2.075124148e-05
2.086614719e-05
2.096277581e-05
2.103101479e-05
2.106468519e-05
2.08730054e-05
2.094157014e-05
2.103658904e-05
2.114818276e-05
2.126506558e-05
2.137527353e-05
2.146726439e-05
2.153146292e-05
2.156249201e-05
2.139612303e-05
2.146261024e-05
2.155461018e-05
2.166240149e-05
2.177490208e-05
2.188042003e-05
2.196778726e-05
2.202796277e-05
2.205636471e-05
2.191511584e-05
2.197952363e-05
2.206850432e-05
2.217249686e-05
2.228062476e-05
2.238146897e-05
2.24642345e-05
2.252041072e-05
2.25462035e-05
2.242985057e-05
2.249218128e-05
2.257814836e-05
2.267835284e-05
2.278212526e-05
2.287831963e-05
2.295651233e-05
2.300871857e-05
2.303192354e-05
2.294021295e-05
2.300047274e-05
2.308343716e-05
2.317987066e-05
2.327931164e-05
2.337088686e-05
2.344454176e-05
2.349281226e-05
2.351345379e-05
2.344610621e-05
2.350430465e-05
2.358428211e-05
2.367696738e-05
2.377210705e-05
2.385909981e-05
2.392825739e-05
2.397263075e-05
2.399073581e-05
2.394744962e-05
2.400359932e-05
2.408060974e-05
2.416957454e-05
2.426044842e-05
2.434290072e-05
2.440760622e-05
2.444812482e-05
2.446372267e-05
2.444417714e-05
2.449829339e-05
2.457236045e-05
2.465763695e-05
2.474428528e-05
2.482224375e-05
2.488254657e-05
2.491925607e-05
2.493237793e-05
2.493623614e-05
2.49883366e-05
2.505948725e-05
2.514111151e-05
2.522357865e-05
2.529709392e-05
2.535304703e-05
2.538599589e-05
2.539667463e-05
2.542358617e-05
2.547369057e-05
2.554195463e-05
2.561996607e-05
2.569829992e-05
2.576742607e-05
2.581908549e-05
2.584832454e-05
2.585659444e-05
2.590619787e-05
2.595432773e-05
2.601973747e-05
2.609417841e-05
2.616842993e-05
2.623322396e-05
2.628064825e-05
2.630623031e-05
2.63121268e-05
2.638405186e-05
2.643023025e-05
2.649282008e-05
2.656373528e-05
2.663395799e-05
2.669447935e-05
2.67377292e-05
2.675970868e-05
2.676326812e-05
2.68571378e-05
2.690138909e-05
2.696119519e-05
2.702863149e-05
2.709488104e-05
2.715119118e-05
2.719032899e-05
2.72087616e-05
2.721002109e-05
2.732545342e-05
2.736780309e-05
2.742486313e-05
2.748886908e-05
2.755120287e-05
2.760336486e-05
2.763845438e-05
2.76533968e-05
2.765239398e-05
2.77890037e-05
2.782947812e-05
2.7883831e-05
2.794445652e-05
2.800293334e-05
2.80510115e-05
2.808211751e-05
2.809362714e-05
2.809040001e-05
2.824780008e-05
2.828642634e-05
2.833811192e-05
2.839540803e-05
2.845008772e-05
2.849414731e-05
2.852133528e-05
2.852947e-05
2.852405682e-05
2.870185968e-05
2.873866546e-05
2.878772435e-05
2.884174286e-05
2.889268604e-05
2.893279294e-05
2.895612881e-05
2.896094676e-05
2.895338585e-05
2.915120465e-05
2.918621803e-05
2.923269139e-05
2.928348469e-05
2.933075248e-05
2.936697296e-05
2.938652288e-05
2.938808224e-05
2.937841194e-05
2.959586151e-05
2.962911087e-05
2.967304022e-05
2.972066106e-05
2.976431485e-05
2.979671531e-05
2.981254541e-05
2.981090425e-05
2.979916274e-05
3.003586055e-05
3.006737445e-05
3.010880149e-05
3.015330276e-05
3.0193404e-05
3.022205077e-05
3.023422699e-05
3.022944311e-05
3.021566835e-05
3.047123524e-05
3.05010423e-05
3.054000878e-05
3.058144334e-05
3.061805335e-05
3.064301247e-05
3.065160038e-05
3.064373117e-05
3.062796083e-05
3.090202163e-05
3.093015043e-05
3.096669802e-05
3.100511856e-05
3.103829832e-05
3.105963543e-05
3.106470005e-05
3.10538024e-05
3.103607376e-05
3.132825777e-05
3.135473677e-05
3.138890691e-05
3.142436577e-05
3.145417583e-05
3.147195595e-05
3.147356167e-05
3.145969181e-05
3.144004173e-05
3.174998304e-05
3.17748405e-05
3.18066743e-05
3.183922335e-05
3.186572363e-05
3.188001108e-05
3.187822151e-05
3.186143498e-05
3.183989983e-05
3.21672374e-05
3.219050127e-05
3.222003939e-05
3.224972991e-05
3.227297958e-05
3.228383784e-05
3.227871573e-05
3.225906728e-05
3.223568294e-05
3.25800604e-05
3.260175828e-05
3.262904082e-05
3.265592332e-05
3.267598069e-05
3.268347228e-05
3.267507942e-05
3.265262301e-05
3.262742483e-05
3.298848998e-05
3.300864897e-05
3.303371532e-05
3.305783946e-05
3.307476182e-05
3.307894819e-05
3.306734537e-05
3.304213412e-05
3.301515695e-05
3.339256069e-05
3.341120731e-05
3.3434096e-05
3.345551037e-05
3.346935383e-05
3.347029523e-05
3.345554216e-05
3.342762833e-05
3.339890657e-05
3.379230134e-05
3.380946132e-05
3.38302098e-05
3.384896165e-05
3.385978089e-05
3.385753621e-05
3.38396914e-05
3.380912647e-05
3.377869411e-05
3.418773149e-05
3.420342956e-05
3.422207385e-05
3.423820876e-05
3.424605666e-05
3.424068308e-05
3.421980371e-05
3.418663828e-05
3.415452902e-05
3.457885665e-05
3.459311614e-05
3.46096903e-05
3.462325151e-05
3.462817857e-05
3.461973109e-05
3.459587267e-05
3.456015639e-05
3.452640363e-05
3.496566129e-05
3.497850353e-05
3.499303884e-05
3.500406635e-05
3.500611966e-05
3.499465023e-05
3.496786593e-05
3.492964717e-05
3.489428407e-05
3.534809917e-05
3.53595426e-05
3.537206628e-05
3.538059527e-05
3.537981694e-05
3.536537291e-05
3.53357124e-05
3.529503755e-05
3.525809678e-05
3.572607987e-05
3.573613863e-05
3.574667188e-05
3.575273036e-05
3.574915491e-05
3.57317766e-05
3.569928395e-05
3.565619603e-05
3.56177092e-05
3.60994505e-05
3.610813238e-05
3.611668741e-05
3.612029258e-05
3.611394297e-05
3.609365967e-05
3.605836992e-05
3.60129061e-05
3.597290257e-05
3.646797111e-05
3.647527453e-05
3.648185021e-05
3.648300309e-05
3.647388472e-05
3.645070861e-05
3.641264223e-05
3.636482962e-05
3.63233343e-05
3.683128244e-05
3.683719213e-05
3.684176777e-05
3.684044539e-05
3.682853729e-05
3.680245436e-05
3.676160885e-05
3.671145787e-05
3.666848749e-05
3.718886414e-05
3.719334518e-05
3.719587179e-05
3.719201627e-05
3.717725857e-05
3.714821553e-05
3.710455303e-05
3.705204738e-05
3.700760461e-05
3.753998206e-05
3.754297173e-05
3.754336018e-05
3.753686369e-05
3.75191404e-05
3.748702638e-05
3.744045609e-05
3.738553818e-05
3.733960284e-05
3.788362288e-05
3.788501992e-05
3.788312516e-05
3.787380995e-05
3.785292573e-05
3.781754754e-05
3.776790169e-05
3.771045233e-05
3.766296887e-05
3.821841492e-05
3.821806566e-05
3.82136664e-05
3.820125884e-05
3.817690885e-05
3.813795852e-05
3.808496042e-05
3.802477154e-05
3.797563185e-05
3.85425346e-05
3.854021556e-05
3.853298866e-05
3.851708658e-05
3.848881828e-05
3.844583168e-05
3.838905486e-05
3.832579416e-05
3.827481497e-05
3.885359863e-05
3.884899528e-05
3.883848449e-05
3.881851717e-05
3.878568345e-05
3.873798942e-05
3.867680685e-05
3.860997355e-05
3.855686784e-05
3.914854358e-05
3.914122515e-05
3.912680405e-05
3.910198476e-05
3.906368823e-05
3.901034789e-05
3.894387132e-05
3.88727428e-05
3.88170849e-05
3.942349564e-05
3.941288626e-05
3.939371581e-05
3.936298748e-05
3.931801665e-05
3.925775371e-05
3.91847636e-05
3.91083336e-05
3.904951844e-05
3.967363597e-05
3.96589828e-05
3.963396445e-05
3.959593971e-05
3.954269869e-05
3.947382272e-05
3.939269106e-05
3.930960107e-05
3.924679859e-05
3.989306865e-05
3.987340818e-05
3.984113455e-05
3.979403284e-05
3.973046767e-05
3.965079379e-05
3.955940323e-05
3.946787044e-05
3.939997739e-05
4.007470148e-05
4.004882604e-05
4.000753197e-05
3.994911746e-05
3.987264384e-05
3.977941417e-05
3.9675079e-05
3.957282579e-05
3.94984181e-05
4.02101524e-05
4.017657946e-05
4.012409752e-05
4.005162318e-05
3.995906201e-05
3.984887635e-05
3.972827306e-05
3.961246489e-05
3.952975544e-05
4.028969695e-05
4.024664475e-05
4.018037051e-05
4.009053536e-05
3.99780645e-05
3.984682948e-05
3.97059468e-05
3.957314758e-05
3.947995536e-05
4.030227457e-05
4.024764841e-05
4.016452185e-05
4.005344974e-05
3.991658228e-05
3.975949064e-05
3.959361058e-05
3.943976627e-05
3.933350429e-05
4.023557318e-05
4.016696721e-05
4.006347769e-05
3.992672719e-05
3.976032763e-05
3.957188042e-05
3.937560396e-05
3.919606639e-05
3.907375666e-05
4.007621148e-05
3.999093144e-05
3.9863154e-05
3.969576969e-05
3.949412006e-05
3.926820507e-05
3.903553606e-05
3.882513969e-05
3.868346365e-05
3.981003684e-05
3.970514891e-05
3.954881974e-05
3.934543455e-05
3.910236216e-05
3.883240134e-05
3.855690132e-05
3.831010418e-05
3.814549663e-05
3.94225525e-05
3.929496291e-05
3.910560053e-05
3.886059753e-05
3.856967355e-05
3.82488491e-05
3.792387291e-05
3.763497048e-05
3.744376273e-05
3.889948067e-05
3.874604913e-05
3.851912566e-05